/*--------------------------------*- C++ -*----------------------------------*\
  =========                 |
  \\      /  F ield         | OpenFOAM: The Open Source CFD Toolbox
   \\    /   O peration     | Website:  https://openfoam.org
    \\  /    A nd           | Version:  7
     \\/     M anipulation  |
\*---------------------------------------------------------------------------*/
FoamFile
{
    version     2.0;
    format      ascii;
    class       volScalarField;
    location    "0.165";
    object      alphat;
}
// * * * * * * * * * * * * * * * * * * * * * * * * * * * * * * * * * * * * * //

dimensions      [1 -1 -1 0 0 0 0];

internalField   nonuniform List<scalar> 
13200
(
0.0102989
0.010577
0.0105745
0.0105745
0.0105724
0.0105728
0.0105719
0.0105729
0.0105716
0.0105716
0.0105698
0.0105692
0.0105672
0.0105663
0.0105642
0.0105629
0.0105608
0.0105588
0.0105594
0.0105625
0.00498843
0.00475394
0.00459238
0.00452556
0.00450157
0.00449994
0.00449774
0.00449934
0.00449758
0.00449852
0.00449672
0.00449738
0.00449572
0.00449618
0.00449454
0.00449505
0.00449281
0.00449438
0.00449625
0.00451136
0.00311917
0.00310943
0.00304753
0.0029976
0.00297742
0.00297444
0.00297245
0.002973
0.00297155
0.00297181
0.00297045
0.00297073
0.0029695
0.00296976
0.00296846
0.00296901
0.00296679
0.00296962
0.00296455
0.00297608
0.0026319
0.00278551
0.00279787
0.00279435
0.00278886
0.00278793
0.00278639
0.00278591
0.00278441
0.00278424
0.00278308
0.00278311
0.00278213
0.00278221
0.00278115
0.00278143
0.00277997
0.00278117
0.0027787
0.00278431
0.00252
0.00272321
0.00275818
0.0027672
0.00276785
0.00276879
0.00276758
0.00276741
0.00276584
0.00276574
0.00276441
0.00276447
0.00276346
0.0027636
0.00276257
0.00276279
0.00276145
0.00276185
0.00276037
0.0027632
0.00250478
0.00271486
0.00275517
0.00276778
0.00276975
0.00277134
0.00277056
0.00277054
0.00276892
0.00276885
0.00276744
0.00276747
0.00276645
0.00276658
0.00276561
0.00276571
0.00276486
0.00276481
0.00276453
0.00276554
0.00250017
0.00271043
0.00275164
0.00276513
0.00276766
0.00277014
0.00276955
0.00276977
0.00276822
0.00276822
0.00276679
0.00276681
0.00276579
0.0027659
0.00276493
0.00276497
0.00276409
0.00276359
0.00276364
0.0027643
0.00250258
0.00271081
0.00275192
0.00276568
0.00276852
0.00277111
0.00277071
0.00277122
0.00276978
0.00276986
0.00276844
0.00276846
0.00276744
0.00276754
0.00276663
0.00276657
0.00276604
0.00276532
0.00276607
0.00276584
0.00250212
0.00270951
0.0027503
0.00276388
0.00276681
0.00276979
0.00276959
0.0027703
0.00276892
0.00276907
0.00276767
0.00276769
0.00276668
0.00276677
0.00276585
0.00276578
0.00276519
0.0027643
0.00276511
0.00276496
0.00250322
0.00270982
0.00275042
0.00276396
0.00276694
0.00276993
0.00276981
0.00277064
0.00276931
0.0027695
0.00276811
0.00276813
0.00276712
0.00276721
0.00276631
0.00276622
0.00276573
0.0027648
0.00276579
0.00276545
0.00250322
0.00270982
0.00275042
0.00276396
0.00276694
0.00276993
0.00276981
0.00277064
0.00276931
0.0027695
0.00276811
0.00276813
0.00276712
0.00276721
0.00276631
0.00276622
0.00276573
0.0027648
0.00276579
0.00276545
0.00250212
0.00270951
0.0027503
0.00276388
0.00276681
0.00276979
0.00276959
0.0027703
0.00276892
0.00276907
0.00276767
0.00276769
0.00276668
0.00276677
0.00276585
0.00276578
0.0027652
0.0027643
0.00276513
0.00276496
0.00250258
0.00271081
0.00275192
0.00276568
0.00276852
0.00277111
0.00277071
0.00277122
0.00276978
0.00276986
0.00276844
0.00276846
0.00276744
0.00276753
0.00276664
0.00276656
0.00276604
0.0027653
0.00276609
0.00276582
0.00250017
0.00271043
0.00275164
0.00276513
0.00276766
0.00277014
0.00276955
0.00276977
0.00276822
0.00276822
0.00276679
0.00276681
0.00276579
0.00276589
0.00276494
0.00276495
0.00276411
0.00276356
0.00276373
0.00276421
0.00250478
0.00271486
0.00275517
0.00276778
0.00276975
0.00277134
0.00277056
0.00277054
0.00276892
0.00276885
0.00276744
0.00276747
0.00276646
0.00276657
0.00276563
0.00276567
0.00276492
0.00276474
0.0027647
0.00276529
0.00252
0.00272321
0.00275818
0.0027672
0.00276785
0.00276879
0.00276758
0.00276741
0.00276584
0.00276574
0.00276442
0.00276446
0.00276347
0.00276358
0.00276261
0.00276273
0.00276156
0.0027617
0.00276063
0.00276272
0.0026319
0.00278551
0.00279787
0.00279435
0.00278886
0.00278793
0.00278639
0.00278591
0.00278441
0.00278424
0.00278308
0.0027831
0.00278213
0.00278219
0.00278119
0.00278135
0.00278012
0.00278091
0.00277911
0.0027833
0.00311917
0.00310943
0.00304753
0.0029976
0.00297742
0.00297444
0.00297245
0.00297301
0.00297155
0.00297181
0.00297045
0.00297073
0.00296951
0.00296975
0.00296848
0.00296894
0.00296692
0.00296932
0.00296503
0.00297466
0.00498843
0.00475394
0.00459239
0.00452556
0.00450157
0.00449994
0.00449774
0.00449934
0.00449758
0.00449852
0.00449672
0.00449738
0.00449572
0.00449617
0.00449455
0.00449502
0.00449287
0.00449426
0.00449652
0.00450968
0.0102989
0.010577
0.0105745
0.0105745
0.0105724
0.0105728
0.0105719
0.0105729
0.0105716
0.0105716
0.0105698
0.0105692
0.0105672
0.0105663
0.0105641
0.010563
0.0105606
0.0105591
0.0105585
0.0105646
0.00289163
0.00308424
0.00305477
0.00302366
0.00302304
0.00301524
0.00301979
0.00301554
0.00301934
0.00301615
0.00301901
0.00301662
0.00301877
0.00301699
0.00301858
0.00301735
0.00301832
0.00301821
0.00301532
0.00303006
0.00238667
0.00275085
0.00278794
0.00278195
0.00277612
0.00277196
0.00277051
0.00276901
0.00276858
0.0027678
0.00276768
0.00276705
0.00276688
0.00276626
0.00276586
0.00276556
0.00276411
0.00276576
0.00276053
0.00276625
0.00221523
0.0026029
0.00266213
0.00267467
0.00267601
0.00267688
0.002675
0.00267445
0.00267291
0.00267273
0.00267193
0.00267188
0.00267132
0.00267118
0.00267056
0.00267049
0.00266947
0.00266976
0.00266741
0.00267191
0.00219451
0.00258416
0.00264131
0.0026535
0.00265475
0.00265599
0.00265423
0.00265423
0.00265276
0.00265281
0.00265194
0.00265202
0.00265144
0.00265138
0.00265082
0.00265068
0.00265004
0.00264991
0.0026498
0.00265109
0.00218409
0.00257396
0.00263067
0.00264221
0.00264263
0.00264403
0.00264281
0.00264329
0.00264186
0.00264216
0.00264123
0.00264146
0.0026408
0.00264084
0.00264023
0.00264013
0.00263952
0.00263909
0.0026383
0.00263976
0.00218881
0.00257917
0.00263557
0.00264696
0.00264707
0.00264802
0.00264631
0.00264653
0.00264516
0.00264556
0.00264464
0.00264492
0.00264423
0.0026443
0.00264368
0.00264358
0.00264303
0.0026429
0.00264249
0.00264391
0.0021854
0.00257532
0.00263167
0.00264299
0.00264302
0.00264398
0.00264252
0.00264306
0.00264172
0.00264216
0.00264123
0.00264153
0.00264085
0.00264092
0.0026403
0.00264021
0.00263954
0.0026392
0.00263851
0.00263971
0.00218855
0.00257867
0.00263481
0.00264603
0.00264603
0.00264691
0.00264528
0.00264561
0.00264421
0.00264465
0.00264373
0.00264403
0.00264335
0.00264342
0.0026428
0.00264271
0.00264216
0.00264195
0.00264151
0.00264275
0.00218699
0.00257681
0.00263288
0.00264401
0.00264398
0.00264491
0.00264339
0.00264388
0.00264255
0.002643
0.00264208
0.00264238
0.0026417
0.00264177
0.00264115
0.00264106
0.00264043
0.00264013
0.00263954
0.00264071
0.00218817
0.00257801
0.00263399
0.00264505
0.00264499
0.00264588
0.00264433
0.00264475
0.00264338
0.00264382
0.00264291
0.00264321
0.00264252
0.0026426
0.00264198
0.00264188
0.00264131
0.00264105
0.00264055
0.00264173
0.00218817
0.00257801
0.00263399
0.00264505
0.00264499
0.00264588
0.00264433
0.00264475
0.00264338
0.00264382
0.00264291
0.00264321
0.00264252
0.0026426
0.00264198
0.00264188
0.00264131
0.00264105
0.00264054
0.00264173
0.00218699
0.00257681
0.00263288
0.00264401
0.00264398
0.00264491
0.00264339
0.00264388
0.00264255
0.002643
0.00264208
0.00264238
0.0026417
0.00264177
0.00264115
0.00264106
0.00264043
0.00264013
0.00263955
0.0026407
0.00218855
0.00257867
0.00263481
0.00264603
0.00264603
0.00264691
0.00264528
0.0026456
0.00264421
0.00264465
0.00264373
0.00264403
0.00264335
0.00264342
0.0026428
0.00264271
0.00264216
0.00264195
0.00264151
0.00264272
0.0021854
0.00257532
0.00263167
0.00264299
0.00264302
0.00264398
0.00264252
0.00264306
0.00264172
0.00264216
0.00264123
0.00264153
0.00264085
0.00264092
0.0026403
0.00264021
0.00263955
0.00263919
0.00263853
0.00263966
0.00218881
0.00257917
0.00263557
0.00264696
0.00264707
0.00264802
0.0026463
0.00264653
0.00264516
0.00264556
0.00264464
0.00264492
0.00264424
0.00264429
0.00264368
0.00264358
0.00264306
0.00264286
0.00264257
0.00264375
0.00218409
0.00257396
0.00263067
0.00264221
0.00264263
0.00264403
0.00264281
0.00264329
0.00264186
0.00264216
0.00264123
0.00264146
0.0026408
0.00264083
0.00264025
0.0026401
0.00263957
0.00263902
0.00263845
0.00263942
0.00219451
0.00258416
0.00264131
0.0026535
0.00265475
0.00265599
0.00265423
0.00265423
0.00265276
0.00265281
0.00265194
0.00265202
0.00265144
0.00265137
0.00265086
0.0026506
0.00265017
0.00264967
0.00264995
0.00265051
0.00221523
0.0026029
0.00266213
0.00267467
0.00267601
0.00267687
0.002675
0.00267445
0.00267291
0.00267273
0.00267194
0.00267187
0.00267133
0.00267116
0.00267062
0.00267035
0.00266972
0.00266932
0.0026681
0.00267057
0.00238667
0.00275085
0.00278794
0.00278195
0.00277612
0.00277196
0.00277051
0.00276901
0.00276858
0.0027678
0.00276768
0.00276704
0.00276689
0.00276624
0.00276591
0.00276543
0.00276438
0.0027652
0.00276158
0.00276406
0.00289163
0.00308424
0.00305477
0.00302366
0.00302304
0.00301524
0.00301979
0.00301554
0.00301934
0.00301615
0.00301901
0.00301662
0.00301877
0.00301699
0.0030186
0.00301733
0.00301841
0.00301808
0.00301587
0.00302832
0.00110299
0.00125186
0.00117814
0.00111489
0.00109413
0.00109407
0.0010954
0.00109927
0.00110151
0.00110501
0.00110748
0.00111085
0.00111359
0.00111699
0.00111979
0.00112406
0.0011247
0.00113494
0.00111799
0.00115351
0.000454032
0.000707624
0.000743932
0.000736402
0.000714593
0.000704651
0.000700654
0.00070024
0.000699986
0.00070055
0.000700844
0.000701613
0.000701942
0.000702734
0.000702921
0.000704153
0.000703246
0.000707714
0.000703508
0.000712658
0.000222329
0.000442612
0.000498028
0.000509875
0.000508091
0.000507406
0.000505655
0.000505569
0.000504752
0.000504861
0.000504481
0.000504638
0.00050446
0.000504579
0.000504475
0.00050465
0.000504666
0.000505077
0.000505618
0.000507015
0.000203562
0.000410887
0.000471184
0.000492663
0.000496477
0.000498831
0.000498222
0.000498231
0.000497612
0.000497557
0.000497243
0.000497222
0.000497095
0.000497067
0.000497002
0.000496853
0.000496784
0.000496642
0.000496743
0.00049758
0.000199208
0.000401865
0.000460331
0.00048271
0.000486038
0.000488623
0.000487847
0.000488023
0.000487315
0.000487383
0.000486983
0.000487034
0.000486825
0.00048683
0.000486731
0.000486711
0.000486709
0.000486618
0.000486533
0.000487187
0.000204374
0.000407651
0.000467229
0.000489558
0.0004937
0.000496225
0.000495666
0.000495717
0.000495132
0.000495099
0.000494782
0.000494755
0.000494608
0.000494554
0.000494476
0.00049434
0.000494274
0.000494065
0.000494086
0.000494657
0.000201046
0.000403578
0.000462234
0.000484311
0.000487769
0.00049022
0.000489509
0.000489634
0.000488978
0.000489009
0.00048864
0.000488658
0.000488466
0.000488446
0.000488355
0.000488317
0.000488272
0.00048818
0.00048807
0.000488661
0.000203826
0.000407025
0.000466333
0.000488382
0.000492269
0.000494724
0.000494136
0.000494195
0.000493601
0.00049358
0.000493256
0.000493236
0.000493079
0.000493028
0.000492949
0.000492829
0.000492765
0.000492583
0.000492578
0.000493148
0.000202167
0.000404889
0.000463754
0.000485718
0.000489313
0.000491746
0.000491087
0.000491185
0.000490559
0.000490566
0.000490217
0.000490218
0.000490039
0.000490003
0.000489926
0.000489844
0.000489774
0.000489638
0.000489563
0.000490136
0.000203107
0.000406092
0.000465172
0.000487106
0.000490818
0.000493241
0.000492619
0.000492695
0.000492087
0.000492077
0.000491743
0.000491731
0.000491564
0.00049152
0.00049144
0.000491334
0.000491269
0.00049111
0.000491077
0.00049165
0.000203107
0.000406092
0.000465172
0.000487106
0.000490818
0.000493241
0.000492619
0.000492695
0.000492087
0.000492077
0.000491743
0.000491731
0.000491565
0.00049152
0.000491441
0.000491339
0.000491273
0.000491117
0.000491078
0.00049165
0.000202167
0.000404889
0.000463754
0.000485718
0.000489313
0.000491746
0.000491087
0.000491185
0.000490559
0.000490566
0.000490217
0.000490218
0.000490039
0.000490004
0.000489926
0.000489843
0.000489775
0.000489636
0.000489565
0.000490134
0.000203826
0.000407025
0.000466333
0.000488382
0.000492269
0.000494724
0.000494136
0.000494195
0.000493602
0.00049358
0.000493256
0.000493236
0.000493079
0.000493028
0.000492949
0.000492831
0.000492766
0.000492587
0.000492577
0.000493148
0.000201046
0.000403578
0.000462234
0.000484311
0.000487769
0.00049022
0.000489509
0.000489634
0.000488978
0.000489009
0.00048864
0.000488658
0.000488467
0.000488447
0.000488356
0.000488317
0.00048827
0.000488173
0.000488067
0.00048865
0.000204374
0.000407651
0.000467229
0.000489558
0.0004937
0.000496225
0.000495666
0.000495717
0.000495132
0.000495099
0.000494782
0.000494755
0.000494608
0.000494553
0.000494475
0.000494344
0.000494277
0.000494072
0.000494088
0.000494649
0.000199208
0.000401865
0.000460331
0.00048271
0.000486038
0.000488623
0.000487847
0.000488023
0.000487315
0.000487383
0.000486983
0.000487034
0.000486825
0.000486829
0.000486731
0.000486712
0.000486708
0.000486614
0.00048654
0.00048715
0.000203562
0.000410887
0.000471184
0.000492663
0.000496477
0.00049883
0.000498222
0.000498231
0.000497612
0.000497557
0.000497243
0.000497223
0.000497095
0.000497064
0.000497005
0.00049686
0.000496818
0.000496631
0.000496778
0.000497488
0.000222329
0.000442612
0.000498028
0.000509875
0.000508091
0.000507406
0.000505655
0.000505569
0.000504752
0.000504861
0.000504482
0.000504637
0.000504462
0.000504569
0.000504492
0.000504608
0.00050473
0.000504936
0.000505752
0.000506672
0.000454032
0.000707624
0.000743931
0.000736402
0.000714593
0.000704651
0.000700653
0.00070024
0.000699986
0.000700549
0.000700845
0.00070161
0.000701949
0.000702712
0.000702971
0.000704031
0.00070345
0.00070728
0.000704027
0.000711474
0.00110299
0.00125186
0.00117814
0.00111489
0.00109413
0.00109407
0.0010954
0.00109927
0.00110151
0.00110501
0.00110748
0.00111085
0.00111359
0.00111699
0.00111981
0.00112403
0.00112487
0.00113473
0.00111899
0.00115184
0.00110299
0.00125186
0.00117814
0.00111489
0.00109413
0.00109407
0.0010954
0.00109927
0.00110151
0.00110501
0.00110748
0.00111085
0.00111359
0.00111699
0.00111979
0.00112405
0.0011247
0.00113494
0.00111799
0.00115351
0.000454032
0.000707624
0.000743932
0.000736402
0.000714594
0.000704652
0.000700654
0.00070024
0.000699987
0.00070055
0.000700845
0.000701613
0.000701942
0.000702734
0.000702921
0.000704153
0.000703246
0.000707714
0.000703508
0.000712659
0.000222329
0.000442612
0.000498028
0.000509876
0.000508092
0.000507407
0.000505656
0.00050557
0.000504753
0.000504862
0.000504482
0.000504639
0.00050446
0.00050458
0.000504475
0.00050465
0.000504667
0.000505078
0.000505619
0.000507016
0.000203562
0.000410887
0.000471185
0.000492664
0.000496478
0.000498831
0.000498223
0.000498232
0.000497612
0.000497558
0.000497244
0.000497224
0.000497096
0.000497066
0.000497
0.000496852
0.000496783
0.000496643
0.000496745
0.000497584
0.000199208
0.000401866
0.000460332
0.000482711
0.000486039
0.000488624
0.000487848
0.000488024
0.000487315
0.000487384
0.000486984
0.000487035
0.000486826
0.00048683
0.000486731
0.000486711
0.00048671
0.000486619
0.000486534
0.000487188
0.000204374
0.000407652
0.00046723
0.000489559
0.000493701
0.000496226
0.000495667
0.000495717
0.000495133
0.0004951
0.000494783
0.000494755
0.000494609
0.000494555
0.000494477
0.00049434
0.000494275
0.000494066
0.000494086
0.000494658
0.000201046
0.000403579
0.000462234
0.000484312
0.00048777
0.000490221
0.00048951
0.000489635
0.000488979
0.00048901
0.000488641
0.000488659
0.000488467
0.000488446
0.000488356
0.000488318
0.000488273
0.000488181
0.000488071
0.000488662
0.000203826
0.000407025
0.000466334
0.000488383
0.00049227
0.000494725
0.000494137
0.000494196
0.000493602
0.000493581
0.000493257
0.000493236
0.00049308
0.000493029
0.00049295
0.00049283
0.000492766
0.000492584
0.000492579
0.000493149
0.000202168
0.000404889
0.000463755
0.000485719
0.000489314
0.000491747
0.000491088
0.000491186
0.00049056
0.000490567
0.000490218
0.000490219
0.00049004
0.000490005
0.000489927
0.000489846
0.000489776
0.00048964
0.000489564
0.000490137
0.000203107
0.000406093
0.000465173
0.000487107
0.000490819
0.000493242
0.00049262
0.000492696
0.000492088
0.000492078
0.000491744
0.000491732
0.000491566
0.000491522
0.000491443
0.000491339
0.000491275
0.000491115
0.00049108
0.00049165
0.000203107
0.000406093
0.000465173
0.000487107
0.000490819
0.000493242
0.00049262
0.000492696
0.000492088
0.000492078
0.000491744
0.000491732
0.000491566
0.000491522
0.000491442
0.000491341
0.000491276
0.00049112
0.000491079
0.000491651
0.000202168
0.000404889
0.000463755
0.000485719
0.000489314
0.000491747
0.000491088
0.000491186
0.00049056
0.000490567
0.000490218
0.000490219
0.00049004
0.000490005
0.000489927
0.000489844
0.000489776
0.000489637
0.000489566
0.000490135
0.000203826
0.000407025
0.000466334
0.000488383
0.00049227
0.000494725
0.000494137
0.000494196
0.000493602
0.000493581
0.000493257
0.000493236
0.00049308
0.00049303
0.000492951
0.000492833
0.000492768
0.000492589
0.000492578
0.000493149
0.000201046
0.000403579
0.000462234
0.000484312
0.00048777
0.000490221
0.00048951
0.000489635
0.000488979
0.00048901
0.000488641
0.000488659
0.000488468
0.000488447
0.000488357
0.000488318
0.00048827
0.000488173
0.000488067
0.00048865
0.000204374
0.000407652
0.00046723
0.000489559
0.000493701
0.000496226
0.000495667
0.000495717
0.000495133
0.0004951
0.000494783
0.000494755
0.000494609
0.000494554
0.000494476
0.000494345
0.000494278
0.000494073
0.000494088
0.000494649
0.000199208
0.000401866
0.000460332
0.000482711
0.000486039
0.000488624
0.000487848
0.000488024
0.000487315
0.000487384
0.000486984
0.000487035
0.000486826
0.00048683
0.000486732
0.000486712
0.000486708
0.000486614
0.00048654
0.000487151
0.000203562
0.000410887
0.000471185
0.000492664
0.000496478
0.000498831
0.000498223
0.000498232
0.000497613
0.000497558
0.000497244
0.000497223
0.000497096
0.000497064
0.000497002
0.000496845
0.000496796
0.000496618
0.000496773
0.000497491
0.000222329
0.000442612
0.000498028
0.000509876
0.000508092
0.000507407
0.000505656
0.00050557
0.000504753
0.000504862
0.000504482
0.000504637
0.000504463
0.000504569
0.000504492
0.000504608
0.00050473
0.000504937
0.000505754
0.000506673
0.000454032
0.000707624
0.000743932
0.000736402
0.000714594
0.000704652
0.000700654
0.00070024
0.000699986
0.00070055
0.000700845
0.00070161
0.000701949
0.000702712
0.000702971
0.000704031
0.00070345
0.00070728
0.000704028
0.000711474
0.00110299
0.00125186
0.00117814
0.00111489
0.00109413
0.00109407
0.0010954
0.00109927
0.00110151
0.00110501
0.00110748
0.00111085
0.00111359
0.00111699
0.00111981
0.00112403
0.00112487
0.00113473
0.00111899
0.00115184
0.00289163
0.00308424
0.00305477
0.00302366
0.00302304
0.00301524
0.00301979
0.00301554
0.00301934
0.00301615
0.00301901
0.00301662
0.00301877
0.00301699
0.00301858
0.00301735
0.00301832
0.00301821
0.00301532
0.00303006
0.00238667
0.00275085
0.00278794
0.00278195
0.00277612
0.00277196
0.00277051
0.00276901
0.00276858
0.0027678
0.00276768
0.00276705
0.00276688
0.00276626
0.00276586
0.00276556
0.00276411
0.00276575
0.00276053
0.00276625
0.00221523
0.0026029
0.00266213
0.00267467
0.00267601
0.00267687
0.002675
0.00267445
0.00267291
0.00267273
0.00267193
0.00267188
0.00267132
0.00267118
0.00267056
0.00267049
0.00266947
0.00266976
0.00266741
0.00267192
0.00219451
0.00258416
0.00264131
0.0026535
0.00265475
0.00265599
0.00265423
0.00265423
0.00265276
0.00265281
0.00265194
0.00265202
0.00265144
0.00265138
0.00265082
0.00265068
0.00265004
0.00264991
0.0026498
0.0026511
0.00218409
0.00257396
0.00263067
0.00264221
0.00264263
0.00264403
0.00264281
0.00264329
0.00264186
0.00264216
0.00264123
0.00264146
0.0026408
0.00264084
0.00264023
0.00264013
0.00263952
0.00263909
0.0026383
0.00263976
0.00218881
0.00257917
0.00263557
0.00264696
0.00264707
0.00264802
0.0026463
0.00264653
0.00264516
0.00264556
0.00264464
0.00264492
0.00264423
0.0026443
0.00264368
0.00264358
0.00264303
0.0026429
0.00264249
0.00264391
0.0021854
0.00257532
0.00263167
0.00264299
0.00264302
0.00264398
0.00264252
0.00264306
0.00264172
0.00264216
0.00264123
0.00264153
0.00264085
0.00264092
0.0026403
0.00264021
0.00263954
0.0026392
0.00263851
0.00263971
0.00218855
0.00257867
0.00263481
0.00264603
0.00264603
0.00264691
0.00264528
0.0026456
0.00264421
0.00264465
0.00264373
0.00264403
0.00264335
0.00264342
0.0026428
0.00264271
0.00264216
0.00264195
0.00264151
0.00264275
0.00218699
0.00257681
0.00263288
0.00264401
0.00264398
0.00264491
0.00264339
0.00264388
0.00264255
0.002643
0.00264208
0.00264238
0.0026417
0.00264177
0.00264115
0.00264106
0.00264043
0.00264013
0.00263954
0.00264071
0.00218817
0.00257801
0.00263399
0.00264505
0.00264499
0.00264588
0.00264433
0.00264475
0.00264338
0.00264382
0.00264291
0.00264321
0.00264252
0.0026426
0.00264198
0.00264188
0.00264131
0.00264105
0.00264055
0.00264173
0.00218817
0.00257801
0.00263399
0.00264505
0.00264499
0.00264588
0.00264433
0.00264475
0.00264338
0.00264382
0.00264291
0.00264321
0.00264252
0.0026426
0.00264198
0.00264188
0.00264131
0.00264105
0.00264054
0.00264173
0.00218699
0.00257681
0.00263288
0.00264401
0.00264398
0.00264491
0.00264339
0.00264388
0.00264255
0.002643
0.00264208
0.00264238
0.0026417
0.00264177
0.00264115
0.00264106
0.00264043
0.00264013
0.00263955
0.0026407
0.00218855
0.00257867
0.00263481
0.00264603
0.00264603
0.00264691
0.00264528
0.0026456
0.00264421
0.00264465
0.00264373
0.00264403
0.00264335
0.00264342
0.0026428
0.00264271
0.00264216
0.00264195
0.00264151
0.00264272
0.0021854
0.00257532
0.00263167
0.00264299
0.00264302
0.00264398
0.00264252
0.00264306
0.00264172
0.00264216
0.00264123
0.00264153
0.00264085
0.00264092
0.0026403
0.00264021
0.00263955
0.00263919
0.00263853
0.00263966
0.00218881
0.00257917
0.00263557
0.00264696
0.00264707
0.00264802
0.00264631
0.00264653
0.00264516
0.00264556
0.00264464
0.00264492
0.00264423
0.00264429
0.00264368
0.00264358
0.00264306
0.00264286
0.00264257
0.00264375
0.00218409
0.00257396
0.00263067
0.00264221
0.00264263
0.00264403
0.00264281
0.00264329
0.00264186
0.00264216
0.00264123
0.00264146
0.0026408
0.00264083
0.00264025
0.0026401
0.00263957
0.00263902
0.00263845
0.00263942
0.00219451
0.00258416
0.00264131
0.0026535
0.00265475
0.00265599
0.00265423
0.00265423
0.00265276
0.00265281
0.00265194
0.00265202
0.00265144
0.00265136
0.00265086
0.0026506
0.00265017
0.00264967
0.00264995
0.00265052
0.00221523
0.0026029
0.00266213
0.00267467
0.00267601
0.00267688
0.002675
0.00267445
0.00267291
0.00267273
0.00267194
0.00267187
0.00267133
0.00267116
0.00267062
0.00267035
0.00266972
0.00266932
0.0026681
0.00267057
0.00238667
0.00275085
0.00278794
0.00278195
0.00277612
0.00277196
0.00277051
0.00276901
0.00276858
0.0027678
0.00276768
0.00276704
0.00276689
0.00276624
0.00276591
0.00276543
0.00276438
0.0027652
0.00276158
0.00276406
0.00289163
0.00308424
0.00305477
0.00302366
0.00302304
0.00301524
0.00301979
0.00301554
0.00301934
0.00301615
0.00301901
0.00301662
0.00301877
0.00301699
0.0030186
0.00301733
0.00301841
0.00301808
0.00301587
0.00302832
0.0102989
0.010577
0.0105745
0.0105745
0.0105724
0.0105728
0.0105719
0.0105729
0.0105716
0.0105716
0.0105698
0.0105692
0.0105672
0.0105663
0.0105642
0.0105629
0.0105608
0.0105588
0.0105594
0.0105625
0.00498843
0.00475394
0.00459239
0.00452556
0.00450157
0.00449994
0.00449774
0.00449934
0.00449758
0.00449852
0.00449672
0.00449738
0.00449572
0.00449618
0.00449454
0.00449505
0.00449281
0.00449439
0.00449625
0.00451136
0.00311917
0.00310943
0.00304753
0.0029976
0.00297742
0.00297444
0.00297245
0.00297301
0.00297155
0.00297181
0.00297045
0.00297073
0.0029695
0.00296976
0.00296846
0.002969
0.00296679
0.00296962
0.00296455
0.00297608
0.0026319
0.00278551
0.00279787
0.00279435
0.00278886
0.00278793
0.00278639
0.00278591
0.00278441
0.00278424
0.00278308
0.00278311
0.00278213
0.00278221
0.00278115
0.00278143
0.00277997
0.00278117
0.0027787
0.00278431
0.00252
0.00272321
0.00275818
0.0027672
0.00276785
0.00276879
0.00276758
0.00276741
0.00276584
0.00276574
0.00276441
0.00276447
0.00276346
0.0027636
0.00276257
0.00276279
0.00276145
0.00276185
0.00276037
0.0027632
0.00250478
0.00271486
0.00275517
0.00276778
0.00276975
0.00277134
0.00277056
0.00277054
0.00276892
0.00276885
0.00276744
0.00276747
0.00276645
0.00276658
0.00276561
0.00276571
0.00276486
0.00276481
0.00276453
0.00276554
0.00250017
0.00271043
0.00275164
0.00276513
0.00276766
0.00277014
0.00276955
0.00276977
0.00276822
0.00276822
0.00276679
0.00276681
0.00276579
0.00276589
0.00276493
0.00276497
0.00276409
0.00276359
0.00276364
0.00276429
0.00250258
0.00271081
0.00275192
0.00276568
0.00276852
0.00277111
0.00277071
0.00277122
0.00276978
0.00276986
0.00276844
0.00276846
0.00276744
0.00276754
0.00276663
0.00276657
0.00276604
0.00276532
0.00276607
0.00276584
0.00250212
0.00270951
0.0027503
0.00276388
0.00276681
0.00276979
0.00276959
0.0027703
0.00276892
0.00276907
0.00276767
0.00276769
0.00276668
0.00276677
0.00276585
0.00276578
0.00276519
0.0027643
0.00276511
0.00276496
0.00250322
0.00270982
0.00275042
0.00276396
0.00276694
0.00276993
0.00276981
0.00277063
0.00276931
0.0027695
0.00276811
0.00276813
0.00276712
0.00276721
0.00276631
0.00276622
0.00276573
0.0027648
0.00276579
0.00276545
0.00250322
0.00270982
0.00275042
0.00276396
0.00276694
0.00276993
0.00276981
0.00277063
0.00276931
0.0027695
0.00276811
0.00276813
0.00276712
0.00276721
0.00276631
0.00276622
0.00276573
0.0027648
0.00276579
0.00276545
0.00250212
0.00270951
0.0027503
0.00276388
0.00276681
0.00276979
0.00276959
0.0027703
0.00276892
0.00276907
0.00276767
0.00276769
0.00276668
0.00276677
0.00276585
0.00276578
0.0027652
0.0027643
0.00276513
0.00276496
0.00250258
0.00271081
0.00275192
0.00276568
0.00276852
0.00277111
0.00277071
0.00277122
0.00276978
0.00276986
0.00276844
0.00276846
0.00276744
0.00276753
0.00276664
0.00276656
0.00276604
0.0027653
0.00276609
0.00276582
0.00250017
0.00271043
0.00275164
0.00276513
0.00276766
0.00277014
0.00276955
0.00276977
0.00276822
0.00276822
0.00276679
0.00276681
0.00276579
0.00276589
0.00276494
0.00276495
0.00276411
0.00276356
0.00276373
0.00276421
0.00250478
0.00271486
0.00275517
0.00276778
0.00276975
0.00277134
0.00277056
0.00277054
0.00276892
0.00276885
0.00276744
0.00276747
0.00276646
0.00276657
0.00276563
0.00276567
0.00276492
0.00276474
0.0027647
0.00276529
0.00252
0.00272321
0.00275818
0.0027672
0.00276785
0.00276879
0.00276758
0.00276741
0.00276584
0.00276574
0.00276441
0.00276446
0.00276347
0.00276358
0.00276261
0.00276273
0.00276156
0.0027617
0.00276063
0.00276272
0.0026319
0.00278551
0.00279787
0.00279435
0.00278886
0.00278793
0.00278639
0.00278591
0.00278441
0.00278424
0.00278308
0.0027831
0.00278213
0.00278219
0.00278119
0.00278135
0.00278012
0.00278091
0.00277911
0.0027833
0.00311917
0.00310943
0.00304753
0.0029976
0.00297742
0.00297444
0.00297245
0.002973
0.00297155
0.00297181
0.00297045
0.00297073
0.00296951
0.00296975
0.00296848
0.00296894
0.00296692
0.00296932
0.00296503
0.00297466
0.00498843
0.00475394
0.00459238
0.00452556
0.00450157
0.00449994
0.00449774
0.00449934
0.00449758
0.00449852
0.00449672
0.00449738
0.00449572
0.00449617
0.00449455
0.00449502
0.00449286
0.00449426
0.00449652
0.00450968
0.0102989
0.010577
0.0105745
0.0105745
0.0105724
0.0105728
0.0105719
0.0105729
0.0105716
0.0105716
0.0105697
0.0105692
0.0105672
0.0105663
0.0105641
0.010563
0.0105606
0.0105591
0.0105585
0.0105646
0.0289312
0.0289306
0.028904
0.0288749
0.0288464
0.0288176
0.028791
0.0287663
0.0287456
0.0287284
0.0287158
0.0287066
0.0287017
0.0286982
0.0286965
0.0286935
0.0286897
0.0286824
0.0286726
0.0286597
0.0286462
0.028633
0.0286221
0.0286136
0.0286094
0.028607
0.0286064
0.0286039
0.0286
0.0285933
0.0285849
0.0285753
0.0285666
0.02856
0.0285571
0.0285549
0.0285537
0.0285505
0.0285462
0.0285404
0.0285332
0.0285263
0.0285214
0.0285185
0.0285178
0.0285152
0.0285115
0.0285066
0.0285011
0.0284964
0.0284922
0.0284885
0.0284872
0.0284852
0.0284822
0.0284773
0.028471
0.028467
0.0284655
0.0284637
0.0284619
0.0284575
0.0284527
0.0284499
0.0284466
0.0284433
0.0284408
0.0284369
0.0284346
0.0284325
0.028428
0.0284245
0.0284219
0.0284191
0.0284186
0.0284156
0.0284096
0.0284057
0.0284026
0.0283998
0.028399
0.0283942
0.028387
0.0283834
0.0283804
0.0283778
0.0283771
0.0283716
0.0283634
0.0283588
0.0163853
0.0164585
0.0164392
0.0164272
0.0164131
0.0164036
0.0163924
0.0163867
0.0163806
0.0163803
0.0163801
0.016385
0.0163893
0.0163973
0.016403
0.01641
0.016413
0.0164157
0.0164137
0.0164116
0.0164064
0.0164033
0.0163993
0.0163989
0.0163988
0.0164017
0.0164035
0.0164058
0.0164049
0.0164037
0.0163994
0.016396
0.0163914
0.0163897
0.0163885
0.0163894
0.0163892
0.0163892
0.0163868
0.0163847
0.0163804
0.0163776
0.0163748
0.0163743
0.0163739
0.0163736
0.0163714
0.0163694
0.0163659
0.016364
0.0163613
0.0163601
0.0163592
0.0163588
0.0163568
0.0163546
0.0163507
0.016349
0.0163478
0.0163474
0.0163461
0.0163441
0.016341
0.0163397
0.0163376
0.0163362
0.0163345
0.0163327
0.0163309
0.0163299
0.016327
0.0163252
0.0163234
0.016322
0.016321
0.0163194
0.0163157
0.0163136
0.0163114
0.0163099
0.0163089
0.0163064
0.0163021
0.0163002
0.0162982
0.0162968
0.0162961
0.0162933
0.0162877
0.0162852
0.0110042
0.0111731
0.0111525
0.0111486
0.0111385
0.0111378
0.0111312
0.0111338
0.011132
0.0111393
0.0111429
0.0111548
0.0111626
0.0111772
0.0111867
0.0112012
0.0112094
0.0112213
0.0112265
0.0112354
0.0112386
0.0112469
0.011251
0.0112608
0.0112673
0.0112791
0.0112865
0.0112972
0.0113024
0.0113104
0.011313
0.0113192
0.0113214
0.0113283
0.0113323
0.0113404
0.0113446
0.0113515
0.0113539
0.011359
0.0113597
0.011364
0.0113654
0.0113708
0.0113735
0.0113785
0.0113796
0.0113831
0.0113831
0.0113863
0.0113867
0.01139
0.0113913
0.0113948
0.0113952
0.0113971
0.011396
0.0113981
0.0113987
0.0114013
0.0114016
0.0114029
0.0114018
0.0114034
0.0114029
0.0114042
0.0114038
0.0114045
0.011404
0.0114052
0.0114038
0.0114043
0.0114035
0.0114041
0.0114039