/*--------------------------------*- C++ -*----------------------------------*\
  =========                 |
  \\      /  F ield         | OpenFOAM: The Open Source CFD Toolbox
   \\    /   O peration     | Website:  https://openfoam.org
    \\  /    A nd           | Version:  7
     \\/     M anipulation  |
\*---------------------------------------------------------------------------*/
FoamFile
{
    version     2.0;
    format      ascii;
    class       volVectorField;
    location    "0.835";
    object      UMean;
}
// * * * * * * * * * * * * * * * * * * * * * * * * * * * * * * * * * * * * * //

dimensions      [0 1 -1 0 0 0 0];

internalField   nonuniform List<vector> 
2400
(
(0.0867751 0.0107257 0)
(0.0781407 0.0108361 0)
(0.0611539 0.0068119 0)
(0.0484948 0.00390699 0)
(0.0400533 0.00213504 0)
(0.0342611 0.00113097 0)
(0.0302851 0.00059474 0)
(0.0275399 0.000320535 0)
(0.0255992 0.000183629 0)
(0.0241832 0.000114829 0)
(0.0231163 7.87714e-05 0)
(0.022289 5.84776e-05 0)
(0.0216311 4.60303e-05 0)
(0.0210969 3.77277e-05 0)
(0.0206555 3.18049e-05 0)
(0.020285 2.73857e-05 0)
(0.01997 2.39926e-05 0)
(0.0196988 2.13319e-05 0)
(0.0194627 1.92075e-05 0)
(0.0192552 1.74809e-05 0)
(0.0190711 1.60514e-05 0)
(0.0189064 1.48451e-05 0)
(0.018758 1.38074e-05 0)
(0.0186235 1.28985e-05 0)
(0.0185008 1.20891e-05 0)
(0.0183884 1.13578e-05 0)
(0.018285 1.0689e-05 0)
(0.0181896 1.00714e-05 0)
(0.0181012 9.49661e-06 0)
(0.0180192 8.95861e-06 0)
(0.017943 8.45292e-06 0)
(0.017872 7.97616e-06 0)
(0.0178057 7.52579e-06 0)
(0.0177438 7.09975e-06 0)
(0.017686 6.69646e-06 0)
(0.0176319 6.31451e-06 0)
(0.0175813 5.95288e-06 0)
(0.0175339 5.6104e-06 0)
(0.0174895 5.28614e-06 0)
(0.0174479 4.97927e-06 0)
(0.0174089 4.68892e-06 0)
(0.0173724 4.41434e-06 0)
(0.0173381 4.15469e-06 0)
(0.017306 3.90949e-06 0)
(0.0172759 3.67783e-06 0)
(0.0172476 3.4591e-06 0)
(0.0172211 3.25264e-06 0)
(0.0171963 3.05787e-06 0)
(0.017173 2.87414e-06 0)
(0.0171512 2.70093e-06 0)
(0.0171307 2.5376e-06 0)
(0.0171115 2.38384e-06 0)
(0.0170935 2.23893e-06 0)
(0.0170766 2.10246e-06 0)
(0.0170608 1.97397e-06 0)
(0.017046 1.85301e-06 0)
(0.0170321 1.73922e-06 0)
(0.0170191 1.63214e-06 0)
(0.0170069 1.53142e-06 0)
(0.0169955 1.43671e-06 0)
(0.0169848 1.34766e-06 0)
(0.0169747 1.26396e-06 0)
(0.0169653 1.18528e-06 0)
(0.0169565 1.11136e-06 0)
(0.0169483 1.04191e-06 0)
(0.0169406 9.76673e-07 0)
(0.0169333 9.15409e-07 0)
(0.0169266 8.57884e-07 0)
(0.0169202 8.03868e-07 0)
(0.0169143 7.53168e-07 0)
(0.0169087 7.05589e-07 0)
(0.0169035 6.60922e-07 0)
(0.0168987 6.19021e-07 0)
(0.0168941 5.79719e-07 0)
(0.0168899 5.42863e-07 0)
(0.0168859 5.08272e-07 0)
(0.0168822 4.75851e-07 0)
(0.0168787 4.45444e-07 0)
(0.0168754 4.16941e-07 0)
(0.0168724 3.90217e-07 0)
(0.0168695 3.65172e-07 0)
(0.0168668 3.41688e-07 0)
(0.0168643 3.19704e-07 0)
(0.016862 2.99094e-07 0)
(0.0168598 2.79784e-07 0)
(0.0168578 2.61707e-07 0)
(0.0168559 2.44748e-07 0)
(0.0168541 2.289e-07 0)
(0.0168524 2.14028e-07 0)
(0.0168509 2.00115e-07 0)
(0.0168494 1.87092e-07 0)
(0.0168481 1.74899e-07 0)
(0.0168468 1.63491e-07 0)
(0.0168456 1.52818e-07 0)
(0.0168445 1.42814e-07 0)
(0.0168435 1.33463e-07 0)
(0.0168425 1.2472e-07 0)
(0.0168416 1.16523e-07 0)
(0.0168408 1.08859e-07 0)
(0.01684 1.01688e-07 0)
(0.0168393 9.49838e-08 0)
(0.0168386 8.87115e-08 0)
(0.016838 8.28249e-08 0)
(0.0168374 7.73123e-08 0)
(0.0168368 7.21313e-08 0)
(0.0168363 6.72858e-08 0)
(0.0168358 6.27178e-08 0)
(0.0168354 5.84079e-08 0)
(0.016835 5.43308e-08 0)
(0.0168346 5.04292e-08 0)
(0.0168342 4.6705e-08 0)
(0.0168339 4.30887e-08 0)
(0.0168336 3.95396e-08 0)
(0.0168333 3.60378e-08 0)
(0.0168331 3.25632e-08 0)
(0.0168328 2.9237e-08 0)
(0.0168326 2.63865e-08 0)
(0.0168324 2.35238e-08 0)
(0.0168323 1.8357e-08 0)
(0.0168321 3.85441e-08 0)
(0.10094 0.0154205 0)
(0.105004 0.0217964 0)
(0.102012 0.0201368 0)
(0.0957742 0.016225 0)
(0.0888837 0.0121151 0)
(0.0823128 0.00870808 0)
(0.0765246 0.00618761 0)
(0.0716854 0.00442754 0)
(0.0677389 0.00322941 0)
(0.0645463 0.00241592 0)
(0.0619628 0.00185559 0)
(0.0598612 0.00146036 0)
(0.0581375 0.00117415 0)
(0.0567102 0.0009616 0)
(0.0555163 0.00080022 0)
(0.0545074 0.000675367 0)
(0.0536466 0.000577231 0)
(0.0529051 0.000499032 0)
(0.0522607 0.00043595 0)
(0.0516959 0.000384474 0)
(0.0511969 0.000342002 0)
(0.0507528 0.000306574 0)
(0.050355 0.000276704 0)
(0.0499964 0.00025125 0)
(0.0496714 0.000229336 0)
(0.0493754 0.000210279 0)
(0.0491047 0.000193551 0)
(0.0488563 0.000178738 0)
(0.0486275 0.000165514 0)
(0.0484161 0.000153623 0)
(0.0482205 0.000142861 0)
(0.0480391 0.000133065 0)
(0.0478705 0.000124104 0)
(0.0477136 0.000115872 0)
(0.0475675 0.000108282 0)
(0.0474311 0.000101262 0)
(0.0473039 9.47523e-05 0)
(0.0471851 8.8703e-05 0)
(0.047074 8.30712e-05 0)
(0.0469701 7.78202e-05 0)
(0.0468729 7.2918e-05 0)
(0.046782 6.8337e-05 0)
(0.0466969 6.40523e-05 0)
(0.0466172 6.00421e-05 0)
(0.0465426 5.62868e-05 0)
(0.0464727 5.27684e-05 0)
(0.0464072 4.94709e-05 0)
(0.0463459 4.63796e-05 0)
(0.0462885 4.34808e-05 0)
(0.0462347 4.07621e-05 0)
(0.0461842 3.8212e-05 0)
(0.046137 3.58198e-05 0)
(0.0460928 3.35756e-05 0)
(0.0460514 3.14701e-05 0)
(0.0460125 2.94947e-05 0)
(0.0459762 2.76415e-05 0)
(0.0459421 2.59028e-05 0)
(0.0459102 2.42716e-05 0)
(0.0458803 2.27413e-05 0)
(0.0458523 2.13059e-05 0)
(0.0458261 1.99593e-05 0)
(0.0458016 1.86963e-05 0)
(0.0457786 1.75117e-05 0)
(0.0457571 1.64008e-05 0)
(0.045737 1.53589e-05 0)
(0.0457181 1.4382e-05 0)
(0.0457004 1.3466e-05 0)
(0.0456839 1.26072e-05 0)
(0.0456685 1.1802e-05 0)
(0.045654 1.10473e-05 0)
(0.0456404 1.03399e-05 0)
(0.0456278 9.67688e-06 0)
(0.0456159 9.05552e-06 0)
(0.0456048 8.47326e-06 0)
(0.0455944 7.92767e-06 0)
(0.0455847 7.41651e-06 0)
(0.0455757 6.93761e-06 0)
(0.0455672 6.48904e-06 0)
(0.0455592 6.06887e-06 0)
(0.0455518 5.67533e-06 0)
(0.0455449 5.30679e-06 0)
(0.0455384 4.9617e-06 0)
(0.0455323 4.63856e-06 0)
(0.0455266 4.33603e-06 0)
(0.0455213 4.05282e-06 0)
(0.0455164 3.78773e-06 0)
(0.0455118 3.5396e-06 0)
(0.0455074 3.30735e-06 0)
(0.0455034 3.09005e-06 0)
(0.0454996 2.88671e-06 0)
(0.0454961 2.69646e-06 0)
(0.0454928 2.51847e-06 0)
(0.0454897 2.35197e-06 0)
(0.0454869 2.19621e-06 0)
(0.0454842 2.05055e-06 0)
(0.0454817 1.91433e-06 0)
(0.0454794 1.78693e-06 0)
(0.0454772 1.66782e-06 0)
(0.0454751 1.55644e-06 0)
(0.0454733 1.45229e-06 0)
(0.0454715 1.35489e-06 0)
(0.0454698 1.26381e-06 0)
(0.0454683 1.17861e-06 0)
(0.0454669 1.0989e-06 0)
(0.0454655 1.02428e-06 0)
(0.0454643 9.54315e-07 0)
(0.0454631 8.88699e-07 0)
(0.045462 8.2701e-07 0)
(0.045461 7.68829e-07 0)
(0.0454601 7.13779e-07 0)
(0.0454592 6.61379e-07 0)
(0.0454584 6.11164e-07 0)
(0.0454577 5.62557e-07 0)
(0.045457 5.14987e-07 0)
(0.0454564 4.67888e-07 0)
(0.0454558 4.2069e-07 0)
(0.0454553 3.73486e-07 0)
(0.0454549 3.27011e-07 0)
(0.0454545 2.79794e-07 0)
(0.045454 2.55313e-07 0)
(0.100711 0.00700552 0)
(0.10692 0.014953 0)
(0.110787 0.0178922 0)
(0.111676 0.0177541 0)
(0.110345 0.0159518 0)
(0.107614 0.0135288 0)
(0.104191 0.011112 0)
(0.100604 0.00897958 0)
(0.0971689 0.00721259 0)
(0.0940376 0.00579914 0)
(0.091263 0.00468894 0)
(0.088844 0.00382293 0)
(0.0867525 0.0031472 0)
(0.0849493 0.00261758 0)
(0.0833942 0.00219966 0)
(0.0820492 0.00186728 0)
(0.0808813 0.00160071 0)
(0.0798622 0.00138507 0)
(0.0789681 0.00120913 0)
(0.0781793 0.00106432 0)
(0.0774794 0.000944085 0)
(0.0768551 0.00084337 0)
(0.0762952 0.000758252 0)
(0.0757905 0.000685673 0)
(0.0753337 0.00062324 0)
(0.0749183 0.000569069 0)
(0.0745391 0.000521674 0)
(0.0741919 0.000479878 0)
(0.0738729 0.000442745 0)
(0.0735791 0.000409528 0)
(0.0733078 0.000379626 0)
(0.0730567 0.000352556 0)
(0.0728241 0.000327927 0)
(0.0726081 0.000305418 0)
(0.0724073 0.000284767 0)
(0.0722204 0.000265756 0)
(0.0720463 0.000248205 0)
(0.071884 0.000231959 0)
(0.0717325 0.000216891 0)
(0.0715911 0.000202889 0)
(0.0714591 0.000189858 0)
(0.0713356 0.000177715 0)
(0.0712203 0.000166388 0)
(0.0711124 0.000155811 0)
(0.0710115 0.000145928 0)
(0.070917 0.000136687 0)
(0.0708287 0.000128041 0)
(0.070746 0.00011995 0)
(0.0706686 0.000112374 0)
(0.0705962 0.000105279 0)
(0.0705284 9.86328e-05 0)
(0.0704649 9.24054e-05 0)
(0.0704055 8.65697e-05 0)
(0.0703499 8.11004e-05 0)
(0.0702978 7.59741e-05 0)
(0.0702491 7.11688e-05 0)
(0.0702034 6.66644e-05 0)
(0.0701607 6.24418e-05 0)
(0.0701207 5.84834e-05 0)
(0.0700832 5.47725e-05 0)
(0.0700482 5.12939e-05 0)
(0.0700153 4.80329e-05 0)
(0.0699846 4.49762e-05 0)
(0.0699559 4.21109e-05 0)
(0.069929 3.94253e-05 0)
(0.0699038 3.69081e-05 0)
(0.0698802 3.45489e-05 0)
(0.0698582 3.2338e-05 0)
(0.0698375 3.02661e-05 0)
(0.0698182 2.83246e-05 0)
(0.0698002 2.65054e-05 0)
(0.0697833 2.48009e-05 0)
(0.0697675 2.32041e-05 0)
(0.0697527 2.17082e-05 0)
(0.0697388 2.03069e-05 0)
(0.0697259 1.89943e-05 0)
(0.0697138 1.7765e-05 0)
(0.0697025 1.66137e-05 0)
(0.0696919 1.55355e-05 0)
(0.0696821 1.45259e-05 0)
(0.0696728 1.35807e-05 0)
(0.0696642 1.26957e-05 0)
(0.0696561 1.18672e-05 0)
(0.0696486 1.10917e-05 0)
(0.0696415 1.03658e-05 0)
(0.0696349 9.6864e-06 0)
(0.0696288 9.05064e-06 0)
(0.069623 8.45568e-06 0)
(0.0696176 7.89902e-06 0)
(0.0696126 7.37821e-06 0)
(0.0696079 6.89099e-06 0)
(0.0696036 6.43524e-06 0)
(0.0695995 6.00894e-06 0)
(0.0695957 5.61024e-06 0)
(0.0695921 5.23741e-06 0)
(0.0695888 4.88877e-06 0)
(0.0695857 4.56276e-06 0)
(0.0695828 4.25797e-06 0)
(0.0695801 3.973e-06 0)
(0.0695776 3.70658e-06 0)
(0.0695752 3.45748e-06 0)
(0.069573 3.22456e-06 0)
(0.069571 3.00679e-06 0)
(0.0695691 2.80305e-06 0)
(0.0695673 2.61238e-06 0)
(0.0695656 2.43381e-06 0)
(0.0695641 2.26641e-06 0)
(0.0695627 2.10919e-06 0)
(0.0695613 1.96116e-06 0)
(0.0695601 1.82134e-06 0)
(0.0695589 1.68862e-06 0)
(0.0695579 1.5618e-06 0)
(0.0695569 1.43957e-06 0)
(0.069556 1.32039e-06 0)
(0.0695551 1.20254e-06 0)
(0.0695544 1.08425e-06 0)
(0.0695537 9.63641e-07 0)
(0.0695531 8.39478e-07 0)
(0.0695526 7.07601e-07 0)
(0.069552 5.6806e-07 0)
(0.100261 0.00453535 0)
(0.104293 0.0108912 0)
(0.10883 0.0144773 0)
(0.112477 0.0158898 0)
(0.114723 0.0157466 0)
(0.115601 0.014651 0)
(0.115386 0.0130998 0)
(0.114418 0.011422 0)
(0.112999 0.00980525 0)
(0.111358 0.00834315 0)
(0.109651 0.00707094 0)
(0.107977 0.00599003 0)
(0.106392 0.00508476 0)
(0.104927 0.00433273 0)
(0.10359 0.00371045 0)
(0.10238 0.00319602 0)
(0.101291 0.00277026 0)
(0.100313 0.00241689 0)
(0.0994342 0.00212245 0)
(0.0986444 0.00187592 0)
(0.0979331 0.00166834 0)
(0.0972912 0.00149247 0)
(0.0967103 0.0013425 0)
(0.0961831 0.00121373 0)
(0.0957034 0.00110237 0)
(0.0952656 0.00100541 0)
(0.094865 0.000920381 0)
(0.0944976 0.000845314 0)
(0.0941598 0.000778611 0)
(0.0938486 0.000718978 0)
(0.0935613 0.000665361 0)
(0.0932956 0.000616903 0)
(0.0930496 0.000572899 0)
(0.0928214 0.00053277 0)
(0.0926095 0.000496036 0)
(0.0924125 0.000462298 0)
(0.0922292 0.00043122 0)
(0.0920585 0.00040252 0)
(0.0918995 0.000375956 0)
(0.0917512 0.000351324 0)
(0.0916128 0.000328445 0)
(0.0914837 0.000307164 0)
(0.0913631 0.000287346 0)
(0.0912504 0.000268872 0)
(0.0911452 0.000251635 0)
(0.0910468 0.00023554 0)
(0.0909548 0.000220503 0)
(0.0908688 0.000206447 0)
(0.0907884 0.000193302 0)
(0.0907132 0.000181004 0)
(0.0906428 0.000169495 0)
(0.090577 0.000158721 0)
(0.0905155 0.000148634 0)
(0.0904579 0.000139188 0)
(0.090404 0.000130341 0)
(0.0903535 0.000122054 0)
(0.0903064 0.000114291 0)
(0.0902622 0.000107018 0)
(0.0902209 0.000100204 0)
(0.0901823 9.38201e-05 0)
(0.0901461 8.78385e-05 0)
(0.0901122 8.2234e-05 0)
(0.0900806 7.69829e-05 0)
(0.090051 7.20628e-05 0)
(0.0900232 6.7453e-05 0)
(0.0899973 6.31341e-05 0)
(0.089973 5.90877e-05 0)
(0.0899503 5.52968e-05 0)
(0.0899291 5.17455e-05 0)
(0.0899093 4.84186e-05 0)
(0.0898907 4.53023e-05 0)
(0.0898733 4.23832e-05 0)
(0.0898571 3.96491e-05 0)
(0.0898419 3.70884e-05 0)
(0.0898277 3.46902e-05 0)
(0.0898144 3.24444e-05 0)
(0.0898019 3.03414e-05 0)
(0.0897903 2.83722e-05 0)
(0.0897795 2.65284e-05 0)
(0.0897693 2.48023e-05 0)
(0.0897598 2.31863e-05 0)
(0.089751 2.16736e-05 0)
(0.0897427 2.02577e-05 0)
(0.0897349 1.89324e-05 0)
(0.0897277 1.76921e-05 0)
(0.0897209 1.65314e-05 0)
(0.0897146 1.54453e-05 0)
(0.0897087 1.44291e-05 0)
(0.0897032 1.34783e-05 0)
(0.0896981 1.25889e-05 0)
(0.0896933 1.17568e-05 0)
(0.0896888 1.09786e-05 0)
(0.0896846 1.02508e-05 0)
(0.0896807 9.57007e-06 0)
(0.089677 8.93354e-06 0)
(0.0896736 8.33837e-06 0)
(0.0896704 7.7819e-06 0)
(0.0896675 7.26163e-06 0)
(0.0896647 6.77526e-06 0)
(0.0896621 6.32058e-06 0)
(0.0896597 5.89554e-06 0)
(0.0896575 5.49815e-06 0)
(0.0896554 5.12659e-06 0)
(0.0896534 4.77907e-06 0)
(0.0896516 4.45393e-06 0)
(0.0896499 4.14956e-06 0)
(0.0896483 3.86432e-06 0)
(0.0896469 3.59665e-06 0)
(0.0896455 3.34494e-06 0)
(0.0896442 3.1075e-06 0)
(0.089643 2.88258e-06 0)
(0.0896419 2.66819e-06 0)
(0.0896409 2.46216e-06 0)
(0.08964 2.26195e-06 0)
(0.0896391 2.06464e-06 0)
(0.0896383 1.86661e-06 0)
(0.0896376 1.66415e-06 0)
(0.089637 1.45128e-06 0)
(0.0896364 1.22785e-06 0)
(0.0896358 9.33508e-07 0)
(0.100051 0.00265452 0)
(0.102473 0.00718432 0)
(0.105905 0.0103889 0)
(0.109573 0.0122772 0)
(0.112829 0.0130478 0)
(0.115372 0.0129723 0)
(0.117141 0.0123363 0)
(0.118208 0.0113814 0)
(0.118703 0.0102841 0)
(0.118767 0.00916194 0)
(0.118523 0.00808684 0)
(0.118076 0.00709828 0)
(0.117504 0.00621345 0)
(0.116865 0.00543563 0)
(0.1162 0.00476006 0)
(0.115536 0.00417786 0)
(0.11489 0.00367841 0)
(0.114275 0.00325092 0)
(0.113694 0.00288512 0)
(0.11315 0.00257175 0)
(0.112645 0.00230265 0)
(0.112176 0.0020708 0)
(0.111743 0.00187021 0)
(0.111343 0.00169587 0)
(0.110973 0.00154357 0)
(0.110632 0.00140982 0)
(0.110316 0.00129172 0)
(0.110025 0.00118689 0)
(0.109756 0.00109334 0)
(0.109506 0.00100944 0)
(0.109275 0.000933828 0)
(0.109061 0.000865384 0)
(0.108862 0.000803174 0)
(0.108678 0.000746418 0)
(0.108506 0.000694462 0)
(0.108347 0.000646757 0)
(0.108198 0.000602837 0)
(0.10806 0.000562305 0)
(0.107932 0.000524821 0)
(0.107812 0.000490094 0)
(0.1077 0.000457869 0)
(0.107596 0.000427925 0)
(0.107498 0.000400067 0)
(0.107408 0.000374123 0)
(0.107323 0.00034994 0)
(0.107244 0.000327382 0)
(0.10717 0.000306325 0)
(0.107101 0.000286658 0)
(0.107036 0.000268282 0)
(0.106976 0.000251104 0)
(0.10692 0.00023504 0)
(0.106867 0.000220014 0)
(0.106818 0.000205955 0)
(0.106772 0.000192799 0)
(0.106729 0.000180484 0)
(0.106688 0.000168956 0)
(0.106651 0.000158163 0)
(0.106615 0.000148057 0)
(0.106583 0.000138594 0)
(0.106552 0.000129732 0)
(0.106523 0.000121432 0)
(0.106496 0.000113659 0)
(0.106471 0.000106379 0)
(0.106447 9.95611e-05 0)
(0.106425 9.31751e-05 0)
(0.106405 8.71941e-05 0)
(0.106386 8.15923e-05 0)
(0.106368 7.63459e-05 0)
(0.106351 7.14325e-05 0)
(0.106335 6.68309e-05 0)
(0.10632 6.25215e-05 0)
(0.106307 5.84859e-05 0)
(0.106294 5.4707e-05 0)
(0.106282 5.11684e-05 0)
(0.10627 4.78551e-05 0)
(0.10626 4.47529e-05 0)
(0.10625 4.18484e-05 0)
(0.106241 3.91292e-05 0)
(0.106232 3.65837e-05 0)
(0.106224 3.42008e-05 0)
(0.106217 3.19704e-05 0)
(0.10621 2.98828e-05 0)
(0.106203 2.79289e-05 0)
(0.106197 2.61004e-05 0)
(0.106191 2.43893e-05 0)
(0.106186 2.27881e-05 0)
(0.106181 2.129e-05 0)
(0.106176 1.98884e-05 0)
(0.106172 1.85772e-05 0)
(0.106168 1.73506e-05 0)
(0.106164 1.62033e-05 0)
(0.106161 1.51302e-05 0)
(0.106157 1.41266e-05 0)
(0.106154 1.31881e-05 0)
(0.106151 1.23106e-05 0)
(0.106149 1.149e-05 0)
(0.106146 1.07229e-05 0)
(0.106144 1.00057e-05 0)
(0.106142 9.3353e-06 0)
(0.10614 8.70858e-06 0)
(0.106138 8.12272e-06 0)
(0.106136 7.57506e-06 0)
(0.106134 7.06304e-06 0)
(0.106133 6.58421e-06 0)
(0.106131 6.1363e-06 0)
(0.10613 5.71709e-06 0)
(0.106129 5.32442e-06 0)
(0.106127 4.95612e-06 0)
(0.106126 4.61004e-06 0)
(0.106125 4.28399e-06 0)
(0.106124 3.97555e-06 0)
(0.106124 3.68214e-06 0)
(0.106123 3.40084e-06 0)
(0.106122 3.12823e-06 0)
(0.106121 2.86034e-06 0)
(0.106121 2.59173e-06 0)
(0.10612 2.31752e-06 0)
(0.10612 2.02423e-06 0)
(0.106119 1.72553e-06 0)
(0.106119 1.27671e-06 0)
(0.0999895 0.00171694 0)
(0.101496 0.00484788 0)
(0.103872 0.00730778 0)
(0.106822 0.00899761 0)
(0.109872 0.00996902 0)
(0.112722 0.0103362 0)
(0.115212 0.0102421 0)
(0.117278 0.00982922 0)
(0.118922 0.00921815 0)
(0.120178 0.00850193 0)
(0.121103 0.00774795 0)
(0.121754 0.00700207 0)
(0.122187 0.00629314 0)
(0.122452 0.00563738 0)
(0.122588 0.00504216 0)
(0.122629 0.00450898 0)
(0.122602 0.00403571 0)
(0.122527 0.00361813 0)
(0.122419 0.00325104 0)
(0.12229 0.00292887 0)
(0.122148 0.00264619 0)
(0.122001 0.00239792 0)
(0.121851 0.00217943 0)
(0.121704 0.00198664 0)
(0.12156 0.00181598 0)
(0.121421 0.00166435 0)
(0.121288 0.00152912 0)
(0.121162 0.00140803 0)
(0.121043 0.00129917 0)
(0.120931 0.00120094 0)
(0.120825 0.00111195 0)
(0.120726 0.00103106 0)
(0.120634 0.000957293 0)
(0.120547 0.000889809 0)
(0.120466 0.000827903 0)
(0.120391 0.000770972 0)
(0.120321 0.000718497 0)
(0.120255 0.000670032 0)
(0.120194 0.000625189 0)
(0.120137 0.000583633 0)
(0.120083 0.000545068 0)
(0.120034 0.000509235 0)
(0.119987 0.000475906 0)
(0.119944 0.000444875 0)
(0.119904 0.000415962 0)
(0.119867 0.000389001 0)
(0.119832 0.000363847 0)
(0.119799 0.000340365 0)
(0.119769 0.000318434 0)
(0.11974 0.000297943 0)
(0.119714 0.000278792 0)
(0.119689 0.000260887 0)
(0.119666 0.000244142 0)
(0.119644 0.00022848 0)
(0.119624 0.000213828 0)
(0.119605 0.000200117 0)
(0.119588 0.000187287 0)
(0.119572 0.000175278 0)
(0.119556 0.000164038 0)
(0.119542 0.000153516 0)
(0.119529 0.000143666 0)
(0.119516 0.000134444 0)
(0.119505 0.00012581 0)
(0.119494 0.000117726 0)
(0.119484 0.000110157 0)
(0.119474 0.00010307 0)
(0.119465 9.6435e-05 0)
(0.119457 9.02221e-05 0)
(0.119449 8.4405e-05 0)
(0.119442 7.89585e-05 0)
(0.119435 7.38591e-05 0)
(0.119429 6.90847e-05 0)
(0.119423 6.46148e-05 0)
(0.119418 6.043e-05 0)
(0.119412 5.65123e-05 0)
(0.119408 5.28448e-05 0)
(0.119403 4.94117e-05 0)
(0.119399 4.61981e-05 0)
(0.119395 4.31901e-05 0)
(0.119391 4.03747e-05 0)
(0.119388 3.77397e-05 0)
(0.119385 3.52737e-05 0)
(0.119382 3.2966e-05 0)
(0.119379 3.08065e-05 0)
(0.119376 2.87859e-05 0)
(0.119374 2.68953e-05 0)
(0.119372 2.51265e-05 0)
(0.119369 2.34717e-05 0)
(0.119367 2.19237e-05 0)
(0.119366 2.04757e-05 0)
(0.119364 1.91214e-05 0)
(0.119362 1.78548e-05 0)
(0.119361 1.66703e-05 0)
(0.119359 1.55626e-05 0)
(0.119358 1.45269e-05 0)
(0.119357 1.35585e-05 0)
(0.119356 1.26532e-05 0)
(0.119355 1.18069e-05 0)
(0.119354 1.10157e-05 0)
(0.119353 1.02761e-05 0)
(0.119352 9.58482e-06 0)
(0.119351 8.93859e-06 0)
(0.11935 8.33445e-06 0)
(0.11935 7.76955e-06 0)
(0.119349 7.24119e-06 0)
(0.119348 6.7468e-06 0)
(0.119348 6.28382e-06 0)
(0.119347 5.84975e-06 0)
(0.119347 5.44209e-06 0)
(0.119346 5.05832e-06 0)
(0.119346 4.69573e-06 0)
(0.119345 4.35129e-06 0)
(0.119345 4.02171e-06 0)
(0.119345 3.70297e-06 0)
(0.119344 3.39056e-06 0)
(0.119344 3.07753e-06 0)
(0.119344 2.75925e-06 0)
(0.119344 2.41355e-06 0)
(0.119343 2.07394e-06 0)
(0.119343 1.51332e-06 0)
(0.0999642 0.0011238 0)
(0.101006 0.00325296 0)
(0.102691 0.00502928 0)
(0.104966 0.00634362 0)
(0.107526 0.00720115 0)
(0.110143 0.00765645 0)
(0.112669 0.00778416 0)
(0.115013 0.00766412 0)
(0.11712 0.00737017 0)
(0.118972 0.00696443 0)
(0.12057 0.00649583 0)
(0.121931 0.00600095 0)
(0.123079 0.00550576 0)
(0.124041 0.00502759 0)
(0.124842 0.00457711 0)
(0.125509 0.00416009 0)
(0.126063 0.00377884 0)
(0.126523 0.00343333 0)
(0.126905 0.00312208 0)
(0.127225 0.00284275 0)
(0.127493 0.0025926 0)
(0.127719 0.00236873 0)
(0.12791 0.00216834 0)
(0.128073 0.00198874 0)
(0.128213 0.0018275 0)
(0.128334 0.00168241 0)
(0.12844 0.00155154 0)
(0.128533 0.00143317 0)
(0.128615 0.00132582 0)
(0.128688 0.00122818 0)
(0.128754 0.00113914 0)
(0.128813 0.00105773 0)
(0.128867 0.000983118 0)
(0.128916 0.00091458 0)
(0.128961 0.000851487 0)
(0.129002 0.000793297 0)
(0.12904 0.000739534 0)
(0.129076 0.000689785 0)
(0.129109 0.000643684 0)
(0.129139 0.00060091 0)
(0.129168 0.000561179 0)
(0.129194 0.000524238 0)
(0.129219 0.000489861 0)
(0.129242 0.000457845 0)
(0.129264 0.000428008 0)
(0.129285 0.000400185 0)
(0.129304 0.000374227 0)
(0.129322 0.000349996 0)
(0.129339 0.00032737 0)
(0.129355 0.000306233 0)
(0.12937 0.000286483 0)
(0.129383 0.000268024 0)
(0.129397 0.000250765 0)
(0.129409 0.000234628 0)
(0.12942 0.000219534 0)
(0.129431 0.000205416 0)
(0.129441 0.000192208 0)
(0.129451 0.00017985 0)
(0.12946 0.000168286 0)
(0.129468 0.000157464 0)
(0.129476 0.000147336 0)
(0.129484 0.000137857 0)
(0.129491 0.000128985 0)
(0.129497 0.00012068 0)
(0.129503 0.000112906 0)
(0.129509 0.00010563 0)
(0.129514 9.88177e-05 0)
(0.129519 9.24411e-05 0)
(0.129524 8.6472e-05 0)
(0.129529 8.08842e-05 0)
(0.129533 7.56536e-05 0)
(0.129537 7.07572e-05 0)
(0.12954 6.61739e-05 0)
(0.129544 6.18836e-05 0)
(0.129547 5.78678e-05 0)
(0.12955 5.4109e-05 0)
(0.129552 5.05909e-05 0)
(0.129555 4.72981e-05 0)
(0.129558 4.42165e-05 0)
(0.12956 4.13324e-05 0)
(0.129562 3.86334e-05 0)
(0.129564 3.61078e-05 0)
(0.129566 3.37444e-05 0)
(0.129568 3.15331e-05 0)
(0.129569 2.94641e-05 0)
(0.129571 2.75284e-05 0)
(0.129572 2.57175e-05 0)
(0.129573 2.40234e-05 0)
(0.129575 2.24388e-05 0)
(0.129576 2.09566e-05 0)
(0.129577 1.95703e-05 0)
(0.129578 1.82739e-05 0)
(0.129579 1.70615e-05 0)
(0.12958 1.59278e-05 0)
(0.129581 1.48678e-05 0)
(0.129581 1.38768e-05 0)
(0.129582 1.29502e-05 0)
(0.129583 1.20841e-05 0)
(0.129583 1.12744e-05 0)
(0.129584 1.05176e-05 0)
(0.129585 9.81012e-06 0)
(0.129585 9.14882e-06 0)
(0.129586 8.53061e-06 0)
(0.129586 7.95263e-06 0)
(0.129586 7.41206e-06 0)
(0.129587 6.90629e-06 0)
(0.129587 6.43275e-06 0)
(0.129587 5.98893e-06 0)
(0.129588 5.57233e-06 0)
(0.129588 5.18032e-06 0)
(0.129588 4.81023e-06 0)
(0.129589 4.4591e-06 0)
(0.129589 4.12361e-06 0)
(0.129589 3.79964e-06 0)
(0.129589 3.48279e-06 0)
(0.129589 3.16542e-06 0)
(0.129589 2.84428e-06 0)
(0.12959 2.49067e-06 0)
(0.12959 2.15494e-06 0)
(0.12959 1.56095e-06 0)
(0.0999526 0.000716469 0)
(0.100753 0.00209519 0)
(0.102033 0.00328443 0)
(0.10385 0.00420206 0)
(0.105994 0.00483792 0)
(0.108298 0.00521904 0)
(0.110643 0.00538654 0)
(0.112945 0.00538581 0)
(0.115142 0.00526051 0)
(0.117194 0.00504885 0)
(0.119081 0.00478216 0)
(0.120795 0.00448491 0)
(0.122339 0.00417538 0)
(0.123723 0.0038666 0)
(0.124958 0.0035674 0)
(0.126057 0.00328336 0)
(0.127036 0.00301766 0)
(0.127907 0.00277171 0)
(0.128684 0.00254574 0)
(0.129378 0.00233917 0)
(0.129999 0.00215097 0)
(0.130558 0.00197981 0)
(0.131061 0.00182427 0)
(0.131516 0.00168292 0)
(0.131928 0.00155438 0)
(0.132304 0.00143736 0)
(0.132646 0.00133066 0)
(0.132959 0.00123322 0)
(0.133247 0.00114406 0)
(0.133511 0.00106235 0)
(0.133755 0.000987317 0)
(0.13398 0.000918302 0)
(0.134188 0.000854714 0)
(0.134381 0.000796035 0)
(0.134561 0.000741806 0)
(0.134727 0.000691623 0)
(0.134882 0.000645127 0)
(0.135026 0.000601999 0)
(0.135161 0.000561953 0)
(0.135286 0.000524737 0)
(0.135403 0.000490122 0)
(0.135512 0.000457903 0)
(0.135614 0.000427894 0)
(0.135709 0.000399927 0)
(0.135798 0.00037385 0)
(0.135882 0.000349524 0)
(0.135959 0.000326822 0)
(0.136032 0.000305628 0)
(0.1361 0.000285835 0)
(0.136164 0.000267346 0)
(0.136224 0.000250069 0)
(0.13628 0.000233923 0)
(0.136332 0.000218829 0)
(0.136381 0.000204716 0)
(0.136427 0.00019152 0)
(0.13647 0.000179178 0)
(0.13651 0.000167633 0)
(0.136547 0.000156834 0)
(0.136582 0.000146731 0)
(0.136615 0.000137278 0)
(0.136646 0.000128432 0)
(0.136675 0.000120155 0)
(0.136702 0.00011241 0)
(0.136727 0.000105161 0)
(0.136751 9.83771e-05 0)
(0.136773 9.20279e-05 0)
(0.136793 8.60855e-05 0)
(0.136813 8.05237e-05 0)
(0.136831 7.53181e-05 0)
(0.136848 7.04459e-05 0)
(0.136864 6.58857e-05 0)
(0.136879 6.16175e-05 0)
(0.136892 5.76227e-05 0)
(0.136905 5.38839e-05 0)
(0.136918 5.03847e-05 0)
(0.136929 4.71097e-05 0)
(0.136939 4.40448e-05 0)
(0.136949 4.11765e-05 0)
(0.136959 3.84924e-05 0)
(0.136967 3.59805e-05 0)
(0.136975 3.36301e-05 0)
(0.136983 3.14307e-05 0)
(0.13699 2.93729e-05 0)
(0.136997 2.74475e-05 0)
(0.137003 2.56462e-05 0)
(0.137009 2.3961e-05 0)
(0.137014 2.23845e-05 0)
(0.137019 2.09099e-05 0)
(0.137024 1.95305e-05 0)
(0.137028 1.82404e-05 0)
(0.137032 1.70338e-05 0)
(0.137036 1.59054e-05 0)
(0.13704 1.48501e-05 0)
(0.137043 1.38635e-05 0)
(0.137046 1.29409e-05 0)
(0.137049 1.20784e-05 0)
(0.137052 1.1272e-05 0)
(0.137054 1.05182e-05 0)
(0.137057 9.81356e-06 0)
(0.137059 9.15492e-06 0)
(0.137061 8.53926e-06 0)
(0.137063 7.96376e-06 0)
(0.137065 7.4258e-06 0)
(0.137066 6.92285e-06 0)
(0.137068 6.45249e-06 0)
(0.137069 6.01244e-06 0)
(0.137071 5.60048e-06 0)
(0.137072 5.21445e-06 0)
(0.137073 4.85221e-06 0)
(0.137074 4.51152e-06 0)
(0.137075 4.19005e-06 0)
(0.137076 3.88528e-06 0)
(0.137077 3.59437e-06 0)
(0.137078 3.31379e-06 0)
(0.137079 3.03985e-06 0)
(0.137079 2.76547e-06 0)
(0.13708 2.48911e-06 0)
(0.137081 2.18139e-06 0)
(0.137081 1.89736e-06 0)
(0.137081 1.36938e-06 0)
(0.0999467 0.000400577 0)
(0.100624 0.00117713 0)
(0.101684 0.00185924 0)
(0.103232 0.0023983 0)
(0.10511 0.00278344 0)
(0.107183 0.0030268 0)
(0.109352 0.00314956 0)
(0.111544 0.00317571 0)
(0.1137 0.00312878 0)
(0.115778 0.00302963 0)
(0.117749 0.00289559 0)
(0.119597 0.0027404 0)
(0.121317 0.00257449 0)
(0.122907 0.00240551 0)
(0.12437 0.0022388 0)
(0.125712 0.00207795 0)
(0.126943 0.00192517 0)
(0.128069 0.00178171 0)
(0.129099 0.00164808 0)
(0.130043 0.00152433 0)
(0.130909 0.00141017 0)
(0.131703 0.00130511 0)
(0.132432 0.00120856 0)
(0.133103 0.0011199 0)
(0.133721 0.00103848 0)
(0.134291 0.000963674 0)
(0.134818 0.000894895 0)
(0.135306 0.000831598 0)
(0.135757 0.000773285 0)
(0.136176 0.000719502 0)
(0.136564 0.000669841 0)
(0.136925 0.000623935 0)
(0.137261 0.000581454 0)
(0.137573 0.000542101 0)
(0.137864 0.000505611 0)
(0.138135 0.000471746 0)
(0.138387 0.00044029 0)
(0.138623 0.00041105 0)
(0.138843 0.000383852 0)
(0.139048 0.000358537 0)
(0.13924 0.000334961 0)
(0.139419 0.000312993 0)
(0.139586 0.000292515 0)
(0.139742 0.000273416 0)
(0.139889 0.000255598 0)
(0.140025 0.00023897 0)
(0.140153 0.000223445 0)
(0.140272 0.000208949 0)
(0.140384 0.000195408 0)
(0.140489 0.000182757 0)
(0.140586 0.000170935 0)
(0.140678 0.000159886 0)
(0.140763 0.000149557 0)
(0.140843 0.000139901 0)
(0.140918 0.000130871 0)
(0.140988 0.000122427 0)
(0.141054 0.000114529 0)
(0.141115 0.000107142 0)
(0.141172 0.000100231 0)
(0.141226 9.37663e-05 0)
(0.141276 8.77178e-05 0)
(0.141323 8.20585e-05 0)
(0.141367 7.67631e-05 0)
(0.141408 7.1808e-05 0)
(0.141447 6.71711e-05 0)
(0.141483 6.2832e-05 0)
(0.141516 5.87713e-05 0)
(0.141548 5.49711e-05 0)
(0.141577 5.14146e-05 0)
(0.141605 4.80863e-05 0)
(0.14163 4.49714e-05 0)
(0.141655 4.20563e-05 0)
(0.141677 3.93281e-05 0)
(0.141698 3.6775e-05 0)
(0.141718 3.43856e-05 0)
(0.141736 3.21496e-05 0)
(0.141754 3.00571e-05 0)
(0.14177 2.8099e-05 0)
(0.141785 2.62667e-05 0)
(0.141799 2.45522e-05 0)
(0.141812 2.29479e-05 0)
(0.141824 2.14468e-05 0)
(0.141836 2.00424e-05 0)
(0.141846 1.87284e-05 0)
(0.141857 1.74991e-05 0)
(0.141866 1.63492e-05 0)
(0.141875 1.52734e-05 0)
(0.141883 1.42672e-05 0)
(0.14189 1.3326e-05 0)
(0.141898 1.24457e-05 0)
(0.141904 1.16224e-05 0)
(0.141911 1.08525e-05 0)
(0.141916 1.01326e-05 0)
(0.141922 9.45937e-06 0)
(0.141927 8.82995e-06 0)
(0.141932 8.24149e-06 0)
(0.141936 7.69134e-06 0)
(0.14194 7.17707e-06 0)
(0.141944 6.69633e-06 0)
(0.141948 6.24697e-06 0)
(0.141951 5.82696e-06 0)
(0.141954 5.43433e-06 0)
(0.141957 5.06734e-06 0)
(0.14196 4.72421e-06 0)
(0.141962 4.40335e-06 0)
(0.141965 4.10317e-06 0)
(0.141967 3.82218e-06 0)
(0.141969 3.55892e-06 0)
(0.141971 3.31191e-06 0)
(0.141972 3.07967e-06 0)
(0.141974 2.86062e-06 0)
(0.141976 2.65302e-06 0)
(0.141977 2.45502e-06 0)
(0.141978 2.26417e-06 0)
(0.14198 2.07808e-06 0)
(0.141981 1.89169e-06 0)
(0.141982 1.70459e-06 0)
(0.141983 1.49464e-06 0)
(0.141983 1.30467e-06 0)
(0.141984 9.40023e-07 0)
(0.0999442 0.000129107 0)
(0.100569 0.000380094 0)
(0.101532 0.000602332 0)
(0.102958 0.000779906 0)
(0.10471 0.000908487 0)
(0.106667 0.000991454 0)
(0.10874 0.00103536 0)
(0.110861 0.00104779 0)
(0.112973 0.00103622 0)
(0.115035 0.00100733 0)
(0.117018 0.000966703 0)
(0.118903 0.000918737 0)
(0.120681 0.000866807 0)
(0.122347 0.000813395 0)
(0.123901 0.00076026 0)
(0.125346 0.000708592 0)
(0.126687 0.000659156 0)
(0.127929 0.000612402 0)
(0.129079 0.00056855 0)
(0.130144 0.000527663 0)
(0.13113 0.000489697 0)
(0.132042 0.00045454 0)
(0.132887 0.000422038 0)
(0.133671 0.000392019 0)
(0.134397 0.000364303 0)
(0.135072 0.000338712 0)
(0.135698 0.000315074 0)
(0.13628 0.000293228 0)
(0.136822 0.000273024 0)
(0.137325 0.000254325 0)
(0.137794 0.000237005 0)
(0.138231 0.000220949 0)
(0.138638 0.000206055 0)
(0.139018 0.000192227 0)
(0.139372 0.000179381 0)
(0.139702 0.000167438 0)
(0.14001 0.00015633 0)
(0.140298 0.000145991 0)
(0.140567 0.000136364 0)
(0.140817 0.000127395 0)
(0.141052 0.000119036 0)
(0.141271 0.000111242 0)
(0.141476 0.000103973 0)
(0.141667 9.71909e-05 0)
(0.141846 9.0861e-05 0)
(0.142013 8.49517e-05 0)
(0.142169 7.94338e-05 0)
(0.142316 7.428e-05 0)
(0.142452 6.94655e-05 0)
(0.14258 6.4967e-05 0)
(0.1427 6.07629e-05 0)
(0.142812 5.68335e-05 0)
(0.142916 5.31602e-05 0)
(0.143014 4.97259e-05 0)
(0.143106 4.65147e-05 0)
(0.143191 4.35117e-05 0)
(0.143271 4.07031e-05 0)
(0.143346 3.80761e-05 0)
(0.143416 3.56189e-05 0)
(0.143482 3.33201e-05 0)
(0.143543 3.11695e-05 0)
(0.143601 2.91575e-05 0)
(0.143655 2.72749e-05 0)
(0.143705 2.55134e-05 0)
(0.143752 2.38651e-05 0)
(0.143796 2.23228e-05 0)
(0.143837 2.08795e-05 0)
(0.143875 1.95288e-05 0)
(0.143911 1.82649e-05 0)
(0.143945 1.70821e-05 0)
(0.143976 1.59752e-05 0)
(0.144006 1.49393e-05 0)
(0.144033 1.39699e-05 0)
(0.144059 1.30628e-05 0)
(0.144083 1.22139e-05 0)
(0.144106 1.14194e-05 0)
(0.144127 1.06761e-05 0)
(0.144146 9.98043e-06 0)
(0.144165 9.32949e-06 0)
(0.144182 8.72043e-06 0)
(0.144198 8.15054e-06 0)
(0.144213 7.61734e-06 0)
(0.144227 7.11847e-06 0)
(0.14424 6.65173e-06 0)
(0.144252 6.21511e-06 0)
(0.144264 5.80666e-06 0)
(0.144274 5.42459e-06 0)
(0.144284 5.06719e-06 0)
(0.144294 4.73291e-06 0)
(0.144302 4.42027e-06 0)
(0.144311 4.12788e-06 0)
(0.144318 3.85445e-06 0)
(0.144325 3.59875e-06 0)