/*--------------------------------*- C++ -*----------------------------------*\
  =========                 |
  \\      /  F ield         | OpenFOAM: The Open Source CFD Toolbox
   \\    /   O peration     | Website:  https://openfoam.org
    \\  /    A nd           | Version:  7
     \\/     M anipulation  |
\*---------------------------------------------------------------------------*/
FoamFile
{
    version     2.0;
    format      ascii;
    class       volVectorField;
    location    "0.185";
    object      UMean;
}
// * * * * * * * * * * * * * * * * * * * * * * * * * * * * * * * * * * * * * //

dimensions      [0 1 -1 0 0 0 0];

internalField   nonuniform List<vector> 
1440
(
(19.7318 0.0617117 0)
(19.6334 0.225555 0)
(19.3783 0.37316 0)
(18.9741 0.490312 0)
(18.4601 0.575842 0)
(17.8715 0.629235 0)
(17.2385 0.653238 0)
(16.5789 0.651925 0)
(15.9137 0.632159 0)
(15.2519 0.599165 0)
(14.6102 0.557539 0)
(13.9945 0.51333 0)
(13.4097 0.467147 0)
(12.8604 0.420044 0)
(12.3479 0.373772 0)
(11.8723 0.329439 0)
(11.4337 0.287823 0)
(11.0313 0.249361 0)
(10.6638 0.214236 0)
(10.3295 0.18246 0)
(10.0266 0.153937 0)
(9.75303 0.12851 0)
(9.50656 0.105984 0)
(9.28507 0.086146 0)
(9.08646 0.068773 0)
(8.90869 0.0536421 0)
(8.74981 0.0405386 0)
(8.60799 0.0292594 0)
(8.48149 0.0196133 0)
(8.36873 0.0114223 0)
(8.26822 0.0045211 0)
(8.17863 -0.00124248 0)
(8.09874 -0.00600742 0)
(8.02743 -0.00990001 0)
(7.96371 -0.0130341 0)
(7.90668 -0.0155123 0)
(7.85556 -0.017426 0)
(7.80962 -0.0188566 0)
(7.76825 -0.019876 0)
(7.73087 -0.0205475 0)
(7.697 -0.0209258 0)
(7.6662 -0.0210582 0)
(7.63808 -0.0209851 0)
(7.6123 -0.0207405 0)
(7.58857 -0.0203527 0)
(7.56663 -0.0198452 0)
(7.54623 -0.0192369 0)
(7.52718 -0.0185432 0)
(7.50929 -0.0177793 0)
(7.49241 -0.0169609 0)
(7.47641 -0.016103 0)
(7.46116 -0.0152184 0)
(7.44657 -0.0143176 0)
(7.43256 -0.0134091 0)
(7.41904 -0.0124999 0)
(7.40596 -0.011596 0)
(7.39326 -0.0107022 0)
(7.38091 -0.00982263 0)
(7.36887 -0.0089606 0)
(7.3571 -0.00811868 0)
(7.34558 -0.00729871 0)
(7.33429 -0.00650236 0)
(7.32322 -0.00573069 0)
(7.31234 -0.00498458 0)
(7.30165 -0.00426458 0)
(7.29114 -0.00357093 0)
(7.2808 -0.00290349 0)
(7.27062 -0.00226204 0)
(7.26061 -0.0016461 0)
(7.25075 -0.00105528 0)
(7.24105 -0.000489027 0)
(7.2315 5.30905e-05 0)
(7.2221 0.000571597 0)
(7.21285 0.00106691 0)
(7.20374 0.00153956 0)
(7.19478 0.00199011 0)
(7.18597 0.00241929 0)
(7.17729 0.00282783 0)
(7.16876 0.00321683 0)
(7.16036 0.00358708 0)
(7.1521 0.00393991 0)
(7.14398 0.00427624 0)
(7.13599 0.00459718 0)
(7.12815 0.00490329 0)
(7.12044 0.00519532 0)
(7.11287 0.00547333 0)
(7.10544 0.00573762 0)
(7.09815 0.00598784 0)
(7.09099 0.00622417 0)
(7.08396 0.00644634 0)
(7.07705 0.00665482 0)
(7.07028 0.00684989 0)
(7.06362 0.0070326 0)
(7.05708 0.00720398 0)
(7.05065 0.00736544 0)
(7.04434 0.00751856 0)
(7.03815 0.00766405 0)
(7.03209 0.00780376 0)
(7.02614 0.0079364 0)
(7.02032 0.00806456 0)
(7.01462 0.00818334 0)
(7.00904 0.00829809 0)
(7.00359 0.00839798 0)
(6.99824 0.00849612 0)
(6.99302 0.00857082 0)
(6.98788 0.0086526 0)
(6.98287 0.00869772 0)
(6.9779 0.0087725 0)
(6.97311 0.00878546 0)
(6.9683 0.00887454 0)
(6.96379 0.00884459 0)
(6.95913 0.00898089 0)
(6.95501 0.00886755 0)
(6.95048 0.00910102 0)
(6.94693 0.00880301 0)
(6.94242 0.00922822 0)
(6.93978 0.00856304 0)
(6.93501 0.00941473 0)
(6.93392 0.00830696 0)
(6.92724 0.0103057 0)
(19.7497 0.085158 0)
(19.8211 0.232444 0)
(19.9383 0.35556 0)
(20.081 0.461792 0)
(20.2339 0.554698 0)
(20.3844 0.632952 0)
(20.5223 0.69498 0)
(20.6386 0.740845 0)
(20.7285 0.772202 0)
(20.7893 0.791095 0)
(20.8221 0.799174 0)
(20.8285 0.79815 0)
(20.8105 0.789077 0)
(20.7716 0.772906 0)
(20.7149 0.750853 0)
(20.6436 0.724272 0)
(20.5605 0.694407 0)
(20.468 0.662326 0)
(20.3685 0.628921 0)
(20.2638 0.594922 0)
(20.1555 0.560977 0)
(20.045 0.527587 0)
(19.9333 0.495128 0)
(19.8214 0.463908 0)
(19.7101 0.434137 0)
(19.5998 0.405955 0)
(19.491 0.379447 0)
(19.3841 0.35465 0)
(19.2793 0.331564 0)
(19.1768 0.310157 0)
(19.0766 0.290375 0)
(18.979 0.272149 0)
(18.8838 0.255395 0)
(18.7912 0.240026 0)
(18.7011 0.225948 0)
(18.6135 0.21307 0)
(18.5284 0.201301 0)
(18.4457 0.190552 0)
(18.3653 0.180742 0)
(18.2872 0.171789 0)
(18.2114 0.163619 0)
(18.1379 0.156163 0)
(18.0664 0.149354 0)
(17.997 0.143132 0)
(17.9297 0.137441 0)
(17.8643 0.132226 0)
(17.8008 0.127439 0)
(17.7392 0.123039 0)
(17.6794 0.118987 0)
(17.6213 0.115249 0)
(17.5649 0.111792 0)
(17.5101 0.108587 0)
(17.4568 0.105608 0)
(17.4051 0.10283 0)
(17.3548 0.100233 0)
(17.306 0.0977961 0)
(17.2585 0.0955033 0)
(17.2124 0.0933388 0)
(17.1676 0.0912885 0)
(17.124 0.0893404 0)
(17.0817 0.0874846 0)
(17.0405 0.0857125 0)
(17.0005 0.0840171 0)
(16.9616 0.0823923 0)
(16.9238 0.0808325 0)
(16.8871 0.079333 0)
(16.8513 0.0778897 0)
(16.8166 0.0764987 0)
(16.7828 0.0751568 0)
(16.75 0.0738607 0)
(16.718 0.0726079 0)
(16.687 0.0713955 0)
(16.6569 0.0702213 0)
(16.6275 0.069083 0)
(16.599 0.0679785 0)
(16.5713 0.0669062 0)
(16.5444 0.0658645 0)
(16.5182 0.0648521 0)
(16.4928 0.0638683 0)
(16.468 0.0629121 0)
(16.444 0.061983 0)
(16.4206 0.0610806 0)
(16.3979 0.0602043 0)
(16.3759 0.0593537 0)
(16.3544 0.0585281 0)
(16.3336 0.0577266 0)
(16.3134 0.0569484 0)
(16.2937 0.0561923 0)
(16.2746 0.0554576 0)
(16.256 0.054743 0)
(16.2379 0.054048 0)
(16.2204 0.053372 0)
(16.2033 0.0527146 0)
(16.1868 0.052076 0)
(16.1707 0.0514561 0)
(16.155 0.0508554 0)
(16.1398 0.0502733 0)
(16.125 0.0497105 0)
(16.1106 0.0491651 0)
(16.0966 0.0486382 0)
(16.083 0.0481251 0)
(16.0697 0.0476292 0)
(16.0569 0.0471411 0)
(16.0444 0.0466702 0)
(16.0322 0.0461986 0)
(16.0204 0.0457489 0)
(16.0089 0.0452868 0)
(15.9977 0.0448609 0)
(15.9869 0.044402 0)
(15.9763 0.0440089 0)
(15.9661 0.0435418 0)
(15.956 0.0431928 0)
(15.9466 0.0426883 0)
(15.9369 0.0423875 0)
(15.9284 0.0417868 0)
(15.9188 0.0415095 0)
(15.9118 0.0407254 0)
(15.9017 0.0403623 0)
(15.8978 0.0394117 0)
(15.8855 0.0388439 0)
(19.747 0.0510126 0)
(19.7842 0.148182 0)
(19.8521 0.236349 0)
(19.9465 0.314768 0)
(20.0645 0.384018 0)
(20.2035 0.443796 0)
(20.3604 0.49316 0)
(20.5306 0.531557 0)
(20.7092 0.55921 0)
(20.8911 0.576823 0)
(21.0719 0.585145 0)
(21.2484 0.585103 0)
(21.4181 0.577997 0)
(21.5793 0.565162 0)
(21.7309 0.547886 0)
(21.8721 0.527359 0)
(22.0027 0.504622 0)
(22.1224 0.480545 0)
(22.2315 0.455846 0)
(22.3303 0.431119 0)
(22.4193 0.406847 0)
(22.4991 0.383409 0)
(22.5702 0.361076 0)
(22.6333 0.340034 0)
(22.689 0.320389 0)
(22.738 0.302192 0)
(22.7808 0.285451 0)
(22.8181 0.27014 0)
(22.8504 0.256209 0)
(22.8783 0.243591 0)
(22.902 0.232203 0)
(22.9222 0.221958 0)
(22.9391 0.212762 0)
(22.9531 0.204524 0)
(22.9645 0.197155 0)
(22.9736 0.190569 0)
(22.9806 0.184686 0)
(22.9858 0.179431 0)
(22.9893 0.174736 0)
(22.9913 0.170538 0)
(22.9919 0.16678 0)
(22.9913 0.16341 0)
(22.9897 0.160381 0)
(22.987 0.157649 0)
(22.9834 0.155175 0)
(22.979 0.152924 0)
(22.9739 0.15086 0)
(22.968 0.148952 0)
(22.9616 0.14717 0)
(22.9546 0.145491 0)
(22.947 0.143896 0)
(22.939 0.142371 0)
(22.9305 0.140902 0)
(22.9216 0.13948 0)
(22.9123 0.138097 0)
(22.9027 0.136744 0)
(22.8927 0.135417 0)
(22.8825 0.13411 0)
(22.8719 0.132819 0)
(22.8611 0.13154 0)
(22.8501 0.13027 0)
(22.8389 0.129007 0)
(22.8274 0.12775 0)
(22.8158 0.126498 0)
(22.804 0.125251 0)
(22.7921 0.124008 0)
(22.78 0.12277 0)
(22.7678 0.121537 0)
(22.7555 0.12031 0)
(22.7431 0.119088 0)
(22.7307 0.117872 0)
(22.7181 0.116663 0)
(22.7055 0.115461 0)
(22.6929 0.114267 0)
(22.6802 0.113081 0)
(22.6676 0.111904 0)
(22.6548 0.110736 0)
(22.6421 0.109577 0)
(22.6294 0.108429 0)
(22.6167 0.107292 0)
(22.604 0.106168 0)
(22.5914 0.105056 0)
(22.5788 0.103957 0)
(22.5662 0.102872 0)
(22.5537 0.101802 0)
(22.5413 0.100745 0)
(22.5289 0.0997041 0)
(22.5166 0.098677 0)
(22.5044 0.0976652 0)
(22.4922 0.0966677 0)
(22.4802 0.0956858 0)
(22.4682 0.0947186 0)
(22.4564 0.0937678 0)
(22.4446 0.0928323 0)
(22.433 0.0919143 0)
(22.4215 0.0910118 0)
(22.41 0.0901276 0)
(22.3988 0.0892584 0)
(22.3876 0.0884075 0)
(22.3766 0.0875694 0)
(22.3656 0.0867491 0)
(22.3549 0.0859378 0)
(22.3442 0.0851446 0)
(22.3337 0.0843544 0)
(22.3234 0.0835861 0)
(22.3132 0.0828112 0)
(22.3031 0.0820691 0)
(22.2932 0.0813026 0)
(22.2834 0.0805936 0)
(22.2737 0.0798211 0)
(22.2643 0.0791588 0)
(22.2549 0.0783455 0)
(22.2458 0.0777545 0)
(22.2366 0.0768204 0)
(22.2282 0.07635 0)
(22.2187 0.0751219 0)
(22.2115 0.0748728 0)
(22.2012 0.0729716 0)
(22.1966 0.0730901 0)
(22.1836 0.0695747 0)
(19.7468 0.0347926 0)
(19.7799 0.102663 0)
(19.8402 0.165987 0)
(19.9241 0.22269 0)
(20.0292 0.272045 0)
(20.1528 0.313896 0)
(20.2919 0.348036 0)
(20.4434 0.374303 0)
(20.6038 0.392904 0)
(20.7698 0.404478 0)
(20.9386 0.409933 0)
(21.1079 0.410322 0)
(21.276 0.406768 0)
(21.4414 0.400254 0)
(21.603 0.391569 0)
(21.7596 0.381329 0)
(21.9105 0.370045 0)
(22.0549 0.35812 0)
(22.1926 0.345872 0)
(22.3233 0.333525 0)
(22.4471 0.321254 0)
(22.5639 0.309196 0)
(22.674 0.297464 0)
(22.7776 0.286144 0)
(22.875 0.275295 0)
(22.9665 0.264952 0)
(23.0527 0.255141 0)
(23.1338 0.245871 0)
(23.2103 0.237145 0)
(23.2826 0.228954 0)
(23.3509 0.221287 0)
(23.4157 0.214123 0)
(23.4773 0.207441 0)
(23.536 0.201215 0)
(23.592 0.195422 0)
(23.6456 0.190034 0)
(23.697 0.185023 0)
(23.7464 0.180362 0)
(23.794 0.176026 0)
(23.84 0.171988 0)
(23.8845 0.168226 0)
(23.9275 0.164716 0)
(23.9693 0.161438 0)
(24.01 0.158374 0)
(24.0495 0.155506 0)
(24.088 0.152818 0)
(24.1256 0.150294 0)
(24.1623 0.147916 0)
(24.1981 0.14567 0)
(24.2331 0.143541 0)
(24.2673 0.14152 0)
(24.3009 0.139598 0)
(24.3337 0.137767 0)
(24.3659 0.13602 0)
(24.3974 0.134351 0)
(24.4283 0.132754 0)
(24.4587 0.131224 0)
(24.4884 0.129757 0)
(24.5175 0.128351 0)
(24.5461 0.127002 0)
(24.5742 0.125707 0)
(24.6017 0.124463 0)
(24.6287 0.123265 0)
(24.6551 0.12211 0)
(24.6811 0.120995 0)
(24.7066 0.119916 0)
(24.7316 0.118872 0)
(24.7561 0.117858 0)
(24.7801 0.116874 0)
(24.8037 0.115915 0)
(24.8268 0.114982 0)
(24.8495 0.114072 0)
(24.8718 0.113183 0)
(24.8936 0.112314 0)
(24.915 0.111465 0)
(24.936 0.110632 0)
(24.9565 0.109817 0)
(24.9767 0.109018 0)
(24.9965 0.108234 0)
(25.0159 0.107465 0)
(25.0349 0.10671 0)
(25.0535 0.105969 0)
(25.0718 0.105242 0)
(25.0897 0.104528 0)
(25.1073 0.103826 0)
(25.1245 0.103136 0)
(25.1414 0.102458 0)
(25.1579 0.101791 0)
(25.1742 0.101134 0)
(25.1901 0.100487 0)
(25.2057 0.0998512 0)
(25.221 0.0992237 0)
(25.236 0.0986069 0)
(25.2507 0.0979985 0)
(25.2652 0.0974013 0)
(25.2793 0.0968118 0)
(25.2932 0.0962338 0)
(25.3068 0.0956622 0)
(25.3202 0.0951024 0)
(25.3333 0.0945458 0)
(25.3462 0.0940019 0)
(25.3588 0.0934556 0)
(25.3712 0.0929254 0)
(25.3834 0.0923833 0)
(25.3953 0.0918666 0)
(25.4071 0.0913212 0)
(25.4186 0.0908226 0)
(25.43 0.0902626 0)
(25.441 0.0897943 0)
(25.452 0.0891974 0)
(25.4626 0.0887827 0)
(25.4734 0.0881018 0)
(25.4833 0.0877825 0)
(25.4942 0.0869223 0)
(25.5031 0.0867734 0)
(25.5145 0.085553 0)
(25.5218 0.0856982 0)
(25.5347 0.0837842 0)
(25.5386 0.0843365 0)
(25.5552 0.0810197 0)
(19.7467 0.02053 0)
(19.7777 0.0607811 0)
(19.8337 0.0986299 0)
(19.9119 0.132605 0)
(20.0108 0.162022 0)
(20.128 0.186828 0)
(20.2606 0.20711 0)
(20.4054 0.222916 0)
(20.5591 0.234402 0)
(20.7188 0.241963 0)
(20.8817 0.246182 0)
(21.0456 0.247687 0)
(21.2088 0.24703 0)
(21.3697 0.244629 0)
(21.527 0.240785 0)
(21.6798 0.235737 0)
(21.8272 0.229711 0)
(21.9686 0.222926 0)
(22.1038 0.215584 0)
(22.2325 0.207848 0)
(22.3548 0.199857 0)
(22.4706 0.191742 0)
(22.5802 0.183621 0)
(22.6839 0.175603 0)
(22.7819 0.167788 0)
(22.8746 0.16026 0)
(22.9623 0.153082 0)
(23.0454 0.146299 0)
(23.1242 0.139936 0)
(23.1992 0.134002 0)
(23.2706 0.128494 0)
(23.3388 0.1234 0)
(23.4041 0.118703 0)
(23.4668 0.114381 0)
(23.5271 0.110412 0)
(23.5852 0.106774 0)
(23.6414 0.103443 0)
(23.6958 0.100396 0)
(23.7487 0.0976129 0)
(23.8002 0.0950723 0)
(23.8503 0.0927554 0)
(23.8993 0.0906449 0)
(23.9472 0.0887244 0)
(23.9942 0.0869789 0)
(24.0403 0.085394 0)
(24.0855 0.0839565 0)
(24.13 0.0826542 0)
(24.1738 0.0814773 0)
(24.217 0.0804174 0)
(24.2595 0.0794651 0)
(24.3015 0.0786108 0)
(24.343 0.0778447 0)
(24.3839 0.0771573 0)
(24.4244 0.0765395 0)
(24.4644 0.0759826 0)
(24.504 0.0754791 0)
(24.5432 0.0750221 0)
(24.5819 0.0746061 0)
(24.6203 0.0742273 0)
(24.6583 0.073882 0)
(24.6959 0.0735665 0)
(24.7331 0.0732767 0)
(24.77 0.0730088 0)
(24.8066 0.0727591 0)
(24.8427 0.0725246 0)
(24.8786 0.0723024 0)
(24.9141 0.0720902 0)
(24.9493 0.0718858 0)
(24.9842 0.0716873 0)
(25.0188 0.0714929 0)
(25.053 0.0713011 0)
(25.087 0.0711106 0)
(25.1206 0.0709199 0)
(25.1539 0.0707282 0)
(25.187 0.0705348 0)
(25.2197 0.0703392 0)
(25.2522 0.0701412 0)
(25.2844 0.0699407 0)
(25.3163 0.0697377 0)
(25.3479 0.0695323 0)
(25.3792 0.0693246 0)
(25.4103 0.0691149 0)
(25.4411 0.0689034 0)
(25.4717 0.0686902 0)
(25.5019 0.0684753 0)
(25.532 0.068259 0)
(25.5617 0.0680413 0)
(25.5913 0.0678221 0)
(25.6205 0.0676018 0)
(25.6496 0.0673804 0)
(25.6783 0.0671581 0)
(25.7069 0.0669352 0)
(25.7352 0.0667123 0)
(25.7633 0.0664893 0)
(25.7912 0.0662672 0)
(25.8188 0.0660454 0)
(25.8462 0.0658253 0)
(25.8734 0.0656049 0)
(25.9004 0.065387 0)
(25.9272 0.0651671 0)
(25.9537 0.0649505 0)
(25.9801 0.0647285 0)
(26.0062 0.0645125 0)
(26.0322 0.064285 0)
(26.0579 0.0640699 0)
(26.0836 0.0638327 0)
(26.1088 0.063622 0)
(26.1341 0.0633683 0)
(26.159 0.0631699 0)
(26.184 0.062886 0)
(26.2082 0.0627132 0)
(26.2333 0.0623698 0)
(26.2566 0.0622455 0)
(26.2822 0.0617844 0)
(26.3037 0.0617472 0)
(26.3309 0.0610604 0)
(26.3489 0.0611674 0)
(26.3803 0.0600558 0)
(26.3906 0.0603458 0)
(26.4316 0.058442 0)
(19.7467 0.00705071 0)
(19.7766 0.020846 0)
(19.8304 0.0337931 0)
(19.9058 0.0453719 0)
(20.0015 0.0553445 0)
(20.1156 0.0637549 0)
(20.2451 0.0707307 0)
(20.387 0.0763593 0)
(20.538 0.0807132 0)
(20.6952 0.0839144 0)
(20.856 0.0861322 0)
(21.0182 0.0875432 0)
(21.1797 0.0882768 0)
(21.3392 0.0884336 0)
(21.4952 0.0880874 0)
(21.6468 0.0873158 0)
(21.7931 0.0861877 0)
(21.9337 0.0847803 0)
(22.0681 0.0831645 0)
(22.1961 0.0814211 0)
(22.3178 0.0796143 0)
(22.4332 0.0777965 0)
(22.5425 0.0759999 0)
(22.6459 0.0742501 0)
(22.7437 0.0725708 0)
(22.8362 0.0709842 0)
(22.9238 0.069504 0)
(23.0068 0.068136 0)
(23.0856 0.0668761 0)
(23.1604 0.0657174 0)
(23.2318 0.0646502 0)
(23.2998 0.0636653 0)
(23.365 0.0627524 0)
(23.4274 0.0619021 0)
(23.4875 0.0611052 0)
(23.5454 0.0603546 0)
(23.6014 0.0596439 0)
(23.6556 0.0589686 0)
(23.7082 0.058325 0)
(23.7595 0.0577113 0)
(23.8094 0.0571261 0)
(23.8582 0.0565696 0)
(23.9059 0.0560421 0)
(23.9527 0.0555446 0)
(23.9986 0.0550771 0)
(24.0438 0.0546402 0)
(24.0881 0.0542345 0)
(24.1318 0.053861 0)
(24.1749 0.0535197 0)
(24.2174 0.0532094 0)
(24.2594 0.0529275 0)
(24.3008 0.0526714 0)
(24.3418 0.0524381 0)
(24.3823 0.0522248 0)
(24.4223 0.0520284 0)
(24.462 0.0518463 0)
(24.5012 0.051676 0)
(24.5401 0.0515154 0)
(24.5786 0.0513616 0)
(24.6168 0.0512125 0)
(24.6546 0.0510661 0)
(24.6921 0.0509211 0)
(24.7293 0.0507765 0)
(24.7661 0.0506314 0)
(24.8026 0.0504853 0)
(24.8389 0.0503378 0)
(24.8748 0.0501884 0)
(24.9104 0.0500372 0)
(24.9458 0.0498839 0)
(24.9808 0.0497283 0)
(25.0156 0.0495703 0)
(25.0502 0.0494097 0)
(25.0844 0.0492463 0)
(25.1184 0.0490802 0)
(25.1521 0.0489115 0)
(25.1856 0.0487403 0)
(25.2189 0.0485671 0)
(25.2519 0.0483922 0)
(25.2846 0.0482161 0)
(25.3171 0.0480392 0)
(25.3494 0.0478619 0)
(25.3814 0.0476847 0)
(25.4133 0.0475077 0)
(25.4449 0.0473315 0)
(25.4762 0.0471561 0)
(25.5074 0.0469819 0)
(25.5383 0.0468088 0)
(25.5691 0.0466372 0)
(25.5996 0.0464669 0)
(25.6299 0.0462984 0)
(25.6601 0.0461316 0)
(25.69 0.0459669 0)
(25.7198 0.0458044 0)
(25.7493 0.0456444 0)
(25.7787 0.045487 0)
(25.8079 0.0453321 0)
(25.8369 0.0451802 0)
(25.8657 0.0450304 0)
(25.8944 0.0448835 0)
(25.9229 0.0447376 0)
(25.9512 0.0445943 0)
(25.9794 0.0444503 0)
(26.0074 0.0443092 0)
(26.0353 0.0441648 0)
(26.0629 0.044025 0)
(26.0905 0.0438778 0)
(26.1178 0.0437397 0)
(26.1452 0.0435864 0)
(26.1721 0.043452 0)
(26.1993 0.0432868 0)
(26.2256 0.0431597 0)
(26.2531 0.0429697 0)
(26.2784 0.0428567 0)
(26.3065 0.0426162 0)
(26.33 0.0425325 0)
(26.3601 0.0421925 0)
(26.3798 0.0421706 0)
(26.4145 0.0416308 0)
(26.4258 0.0417115 0)
(26.4711 0.0406966 0)
(19.7467 -0.00616077 0)
(19.7765 -0.0182765 0)
(19.8302 -0.0298088 0)
(19.9054 -0.0403514 0)
(20.001 -0.0496053 0)
(20.1151 -0.0573989 0)
(20.2448 -0.063623 0)
(20.3868 -0.0682208 0)
(20.5379 -0.0712279 0)
(20.6952 -0.072778 0)
(20.8562 -0.0730486 0)
(21.0184 -0.0722238 0)
(21.1801 -0.070466 0)
(21.3396 -0.0679243 0)
(21.4957 -0.0647217 0)
(21.6473 -0.0609812 0)
(21.7937 -0.0568148 0)
(21.9343 -0.0523367 0)
(22.0687 -0.0476457 0)
(22.1967 -0.0428378 0)
(22.3184 -0.038003 0)
(22.4337 -0.0332328 0)
(22.5429 -0.0286137 0)
(22.6461 -0.0242245 0)
(22.7437 -0.0201295 0)
(22.836 -0.0163789 0)
(22.9234 -0.0130071 0)
(23.0062 -0.0100401 0)
(23.0847 -0.00748601 0)
(23.1594 -0.0053355 0)
(23.2305 -0.00356263 0)
(23.2984 -0.00213305 0)
(23.3633 -0.00100735 0)
(23.4256 -0.000146293 0)
(23.4855 0.000489269 0)
(23.5433 0.000935193 0)
(23.5992 0.00122484 0)
(23.6533 0.0013875 0)
(23.7058 0.0014496 0)
(23.757 0.00143384 0)
(23.8069 0.00136078 0)
(23.8556 0.00124806 0)
(23.9033 0.00111124 0)
(23.95 0.000963007 0)
(23.9959 0.000814199 0)
(24.041 0.000673174 0)
(24.0853 0.000546662 0)
(24.129 0.00043938 0)
(24.1721 0.000354669 0)
(24.2145 0.000294157 0)
(24.2565 0.000258552 0)
(24.2979 0.000247688 0)
(24.3388 0.000261237 0)
(24.3793 0.000298662 0)
(24.4193 0.000359675 0)
(24.4589 0.000443258 0)
(24.4982 0.000547917 0)
(24.537 0.000671291 0)
(24.5755 0.000810891 0)
(24.6136 0.000964174 0)
(24.6514 0.00112943 0)
(24.6888 0.00130525 0)
(24.7259 0.00149058 0)
(24.7627 0.00168429 0)
(24.7992 0.00188529 0)
(24.8353 0.00209244 0)
(24.8712 0.00230465 0)
(24.9068 0.00252074 0)
(24.9421 0.00273962 0)
(24.9771 0.00296021 0)
(25.0118 0.00318165 0)
(25.0462 0.00340322 0)
(25.0804 0.00362444 0)
(25.1144 0.00384474 0)
(25.148 0.00406371 0)
(25.1814 0.00428087 0)
(25.2146 0.00449592 0)
(25.2475 0.00470851 0)
(25.2802 0.00491844 0)
(25.3127 0.0051255 0)
(25.3449 0.00532957 0)
(25.3768 0.00553048 0)
(25.4086 0.00572812 0)
(25.4401 0.00592233 0)
(25.4714 0.006113 0)
(25.5025 0.00629996 0)
(25.5334 0.00648314 0)
(25.5641 0.00666239 0)
(25.5945 0.00683767 0)
(25.6248 0.00700896 0)
(25.6549 0.00717626 0)
(25.6847 0.00733966 0)
(25.7144 0.00749923 0)
(25.7439 0.0076551 0)
(25.7732 0.00780734 0)
(25.8023 0.007956 0)
(25.8313 0.00810094 0)
(25.8601 0.00824219 0)
(25.8887 0.00837935 0)
(25.9171 0.00851252 0)
(25.9454 0.00864097 0)
(25.9735 0.00876514 0)
(26.0014 0.0088837 0)
(26.0293 0.0089981 0)
(26.0569 0.00910572 0)
(26.0844 0.00921015 0)
(26.1117 0.00930588 0)
(26.139 0.00940101 0)
(26.1658 0.0094835 0)
(26.1931 0.00957093 0)
(26.2193 0.00963741 0)
(26.2467 0.0097203 0)
(26.272 0.00976521 0)
(26.3001 0.00985087 0)
(26.3235 0.00986593 0)
(26.3535 0.00997354 0)
(26.3732 0.00995122 0)
(26.4079 0.0101282 0)
(26.4191 0.0100698 0)
(26.4644 0.010423 0)
(19.7467 -0.0195572 0)
(19.7774 -0.0579393 0)
(19.8329 -0.0942581 0)
(19.9105 -0.127197 0)
(20.0091 -0.155973 0)
(20.1263 -0.180254 0)
(20.2592 -0.19987 0)
(20.4044 -0.214757 0)
(20.5586 -0.225064 0)
(20.7187 -0.231187 0)
(20.8821 -0.233661 0)
(21.0465 -0.233038 0)
(21.21 -0.229828 0)
(21.3711 -0.224481 0)
(21.5286 -0.217405 0)
(21.6815 -0.208972 0)
(21.8289 -0.199522 0)
(21.9703 -0.189354 0)
(22.1054 -0.178731 0)
(22.2339 -0.167883 0)
(22.356 -0.157012 0)
(22.4715 -0.146294 0)
(22.5808 -0.135871 0)
(22.684 -0.125852 0)
(22.7815 -0.116329 0)
(22.8736 -0.107373 0)
(22.9607 -0.0990399 0)
(23.0432 -0.0913651 0)
(23.1214 -0.0843613 0)
(23.1958 -0.0780203 0)
(23.2666 -0.0723185 0)
(23.3342 -0.0672219 0)
(23.399 -0.0626888 0)
(23.4612 -0.0586731 0)
(23.521 -0.0551272 0)
(23.5787 -0.0520036 0)
(23.6346 -0.049257 0)
(23.6887 -0.0468445 0)
(23.7412 -0.0447257 0)
(23.7924 -0.0428621 0)
(23.8424 -0.0412173 0)
(23.8912 -0.0397579 0)
(23.9389 -0.0384547 0)
(23.9858 -0.0372825 0)
(24.0317 -0.0362197 0)
(24.0769 -0.0352478 0)
(24.1213 -0.0343509 0)
(24.165 -0.0335155 0)
(24.2081 -0.0327306 0)
(24.2506 -0.0319877 0)
(24.2926 -0.03128 0)
(24.334 -0.0306023 0)
(24.3749 -0.0299501 0)
(24.4153 -0.0293197 0)
(24.4553 -0.0287074 0)
(24.4949 -0.0281105 0)
(24.534 -0.0275273 0)
(24.5728 -0.0269568 0)
(24.6111 -0.0263987 0)
(24.6491 -0.0258528 0)
(24.6867 -0.025319 0)
(24.724 -0.0247973 0)
(24.7609 -0.0242875 0)
(24.7974 -0.0237892 0)
(24.8336 -0.0233017 0)
(24.8695 -0.0228247 0)
(24.9051 -0.022358 0)
(24.9404 -0.0219019 0)
(24.9753 -0.0214565 0)
(25.01 -0.0210221 0)
(25.0443 -0.0205985 0)
(25.0784 -0.0201857 0)
(25.1121 -0.0197832 0)
(25.1456 -0.0193909 0)
(25.1788 -0.0190085 0)
(25.2117 -0.0186359 0)
(25.2443 -0.0182726 0)
(25.2767 -0.0179186 0)
(25.3088 -0.0175735 0)
(25.3406 -0.0172372 0)
(25.3722 -0.0169091 0)
(25.4035 -0.0165893 0)
(25.4345 -0.0162774 0)
(25.4654 -0.0159731 0)
(25.4959 -0.0156763 0)
(25.5262 -0.015387 0)
(25.5563 -0.0151048 0)
(25.5862 -0.0148298 0)
(25.6158 -0.0145617 0)
(25.6452 -0.0143005 0)
(25.6743 -0.0140459 0)
(25.7033 -0.0137979 0)
(25.732 -0.0135561 0)
(25.7605 -0.0133204 0)
(25.7888 -0.0130907 0)
(25.8168 -0.0128665 0)
(25.8447 -0.0126483 0)
(25.8723 -0.0124353 0)
(25.8998 -0.0122287 0)
(25.9271 -0.012027 0)
(25.9541 -0.0118328 0)
(25.981 -0.0116423 0)
(26.0077 -0.0114618 0)
(26.0342 -0.0112821 0)
(26.0605 -0.0111167 0)
(26.0866 -0.0109459 0)
(26.1125 -0.0107984 0)
(26.1384 -0.0106318 0)
(26.1638 -0.0105075 0)
(26.1895 -0.0103356 0)
(26.2143 -0.0102452 0)
(26.24 -0.0100482 0)
(26.2638 -0.0100118 0)
(26.2901 -0.0097495 0)
(26.3122 -0.00980206 0)
(26.3401 -0.00939315 0)
(26.3586 -0.00958361 0)
(26.3909 -0.0088586 0)
(26.4015 -0.00919759 0)
(26.4436 -0.0077582 0)
(19.7468 -0.0336874 0)
(19.7794 -0.0995623 0)
(19.8387 -0.161375 0)
(19.9216 -0.217152 0)
(20.0261 -0.265914 0)
(20.1497 -0.307136 0)
(20.2893 -0.340427 0)
(20.4415 -0.365646 0)
(20.6026 -0.38308 0)
(20.7693 -0.393396 0)
(20.939 -0.397466 0)
(21.1092 -0.39622 0)
(21.2782 -0.390546 0)
(21.4442 -0.381254 0)
(21.6062 -0.369128 0)
(21.7629 -0.354902 0)
(21.9135 -0.339249 0)
(22.0576 -0.322738 0)
(22.1947 -0.305846 0)
(22.3246 -0.288954 0)
(22.4475 -0.272362 0)
(22.5632 -0.256298 0)
(22.6722 -0.240928 0)
(22.7747 -0.226363 0)
(22.871 -0.21268 0)
(22.9615 -0.199926 0)
(23.0466 -0.188121 0)
(23.1267 -0.177258 0)
(23.2023 -0.167315 0)
(23.2737 -0.158252 0)
(23.3414 -0.150029 0)
(23.4056 -0.142595 0)
(23.4667 -0.135895 0)
(23.5251 -0.129873 0)
(23.5809 -0.124471 0)
(23.6344 -0.119631 0)
(23.6858 -0.1153 0)
(23.7354 -0.111426 0)
(23.7833 -0.107963 0)
(23.8296 -0.104862 0)
(23.8745 -0.102077 0)
(23.9181 -0.0995618 0)
(23.9605 -0.0972768 0)
(24.0018 -0.0951875 0)
(24.0421 -0.0932656 0)
(24.0813 -0.0914852 0)
(24.1197 -0.089825 0)
(24.1572 -0.0882645 0)
(24.1939 -0.0867869 0)
(24.2298 -0.0853771 0)
(24.2649 -0.0840245 0)
(24.2994 -0.0827197 0)
(24.3331 -0.0814569 0)
(24.3663 -0.08023 0)
(24.3987 -0.0790363 0)
(24.4306 -0.0778722 0)
(24.4619 -0.0767366 0)
(24.4925 -0.0756271 0)
(24.5226 -0.0745432 0)
(24.5522 -0.0734833 0)
(24.5812 -0.0724477 0)
(24.6097 -0.0714353 0)
(24.6377 -0.0704463 0)
(24.6652 -0.0694791 0)
(24.6921 -0.0685328 0)
(24.7186 -0.0676049 0)
(24.7446 -0.0666953 0)
(24.7701 -0.0658025 0)
(24.7952 -0.0649276 0)
(24.8198 -0.0640693 0)
(24.8439 -0.0632284 0)
(24.8677 -0.0624036 0)
(24.8909 -0.0615954 0)
(24.9138 -0.0608025 0)
(24.9362 -0.0600254 0)
(24.9582 -0.0592625 0)
(24.9798 -0.0585147 0)
(25.001 -0.0577801 0)
(25.0218 -0.0570595 0)
(25.0422 -0.0563512 0)
(25.0622 -0.0556561 0)
(25.0819 -0.0549724 0)
(25.1012 -0.0543012 0)
(25.1201 -0.0536407 0)
(25.1386 -0.0529921 0)
(25.1568 -0.0523535 0)
(25.1747 -0.0517265 0)
(25.1922 -0.051109 0)
(25.2093 -0.0505026 0)
(25.2262 -0.0499054 0)
(25.2427 -0.0493189 0)
(25.2589 -0.0487411 0)
(25.2748 -0.0481738 0)
(25.2904 -0.0476146 0)
(25.3056 -0.0470659 0)
(25.3206 -0.0465246 0)
(25.3353 -0.0459938 0)
(25.3497 -0.0454697 0)
(25.3639 -0.0449565 0)
(25.3777 -0.0444487 0)
(25.3913 -0.0439534 0)
(25.4046 -0.0434613 0)
(25.4177 -0.0429849 0)
(25.4305 -0.042507 0)
(25.4431 -0.0420516 0)
(25.4554 -0.0415844 0)
(25.4675 -0.0411542 0)
(25.4794 -0.0406896 0)
(25.4909 -0.0402933 0)
(25.5024 -0.0398146 0)
(25.5134 -0.0394702 0)
(25.5246 -0.0389426 0)
(25.5349 -0.0386861 0)
(25.546 -0.0380385 0)
(25.5553 -0.0379363 0)
(25.5668 -0.0370265 0)
(25.5744 -0.037187 0)
(25.5874 -0.0357362 0)
(25.5915 -0.036257 0)
(25.608 -0.0336485 0)
(19.747 -0.0497819 0)
(19.7832 -0.145382 0)
(19.8496 -0.233352 0)
(19.9425 -0.31236 0)
(20.0599 -0.381973 0)
(20.1991 -0.441394 0)
(20.3564 -0.489791 0)
(20.527 -0.526913 0)
(20.7054 -0.553213 0)
(20.8867 -0.569523 0)
(21.0668 -0.576793 0)
(21.2425 -0.576115 0)
(21.4112 -0.568522 0)
(21.5713 -0.555034 0)
(21.7213 -0.536742 0)
(21.8604 -0.514752 0)
(21.9883 -0.490112 0)
(22.105 -0.463761 0)
(22.2109 -0.436515 0)
(22.3063 -0.409066 0)
(22.3919 -0.381985 0)
(22.4682 -0.355729 0)
(22.5361 -0.330655 0)
(22.5962 -0.307026 0)
(22.6493 -0.285019 0)
(22.6959 -0.264732 0)
(22.7367 -0.246198 0)
(22.7723 -0.229394 0)
(22.8032 -0.214261 0)
(22.8299 -0.200713 0)
(22.8529 -0.188644 0)
(22.8725 -0.177937 0)
(22.8891 -0.168466 0)
(22.9031 -0.160105 0)
(22.9146 -0.152729 0)
(22.9239 -0.146221 0)
(22.9312 -0.140466 0)
(22.9367 -0.135369 0)
(22.9406 -0.130852 0)
(22.943 -0.126837 0)
(22.9441 -0.123251 0)
(22.9438 -0.120027 0)
(22.9425 -0.117107 0)
(22.9401 -0.114441 0)
(22.9366 -0.111986 0)
(22.9323 -0.109707 0)
(22.9271 -0.107572 0)
(22.9212 -0.105557 0)
(22.9144 -0.10364 0)
(22.9071 -0.101803 0)
(22.899 -0.10003 0)
(22.8904 -0.0983098 0)
(22.8812 -0.0966319 0)
(22.8715 -0.0949891 0)
(22.8613 -0.0933764 0)
(22.8506 -0.0917898 0)
(22.8395 -0.0902263 0)
(22.8281 -0.0886835 0)
(22.8162 -0.0871601 0)
(22.8041 -0.085655 0)
(22.7916 -0.0841678 0)
(22.7788 -0.0826982 0)
(22.7657 -0.0812463 0)
(22.7524 -0.0798126 0)
(22.7389 -0.0783965 0)
(22.7252 -0.0769968 0)
(22.7112 -0.0756132 0)
(22.6971 -0.0742454 0)
(22.6828 -0.0728937 0)
(22.6684 -0.0715582 0)
(22.6538 -0.0702394 0)
(22.6391 -0.0689374 0)
(22.6243 -0.0676526 0)
(22.6094 -0.0663853 0)
(22.5945 -0.065136 0)
(22.5794 -0.0639046 0)
(22.5643 -0.0626918 0)
(22.5491 -0.0614974 0)
(22.5339 -0.060322 0)
(22.5187 -0.0591654 0)
(22.5035 -0.0580282 0)
(22.4882 -0.05691 0)
(22.4729 -0.0558116 0)
(22.4577 -0.0547326 0)
(22.4424 -0.0536736 0)
(22.4272 -0.0526341 0)
(22.412 -0.0516148 0)
(22.3968 -0.0506152 0)
(22.3817 -0.0496358 0)
(22.3666 -0.048676 0)
(22.3516 -0.0477365 0)
(22.3366 -0.0468163 0)
(22.3217 -0.0459164 0)
(22.3069 -0.0450352 0)
(22.2922 -0.0441745 0)
(22.2775 -0.0433319 0)
(22.2629 -0.0425096 0)
(22.2484 -0.0417046 0)
(22.234 -0.0409201 0)
(22.2197 -0.0401515 0)
(22.2055 -0.0394042 0)
(22.1914 -0.038671 0)
(22.1774 -0.0379609 0)
(22.1635 -0.0372611 0)
(22.1497 -0.0365886 0)
(22.136 -0.0359191 0)
(22.1225 -0.0352857 0)
(22.109 -0.03464 0)
(22.0957 -0.0340496 0)
(22.0824 -0.0334146 0)
(22.0694 -0.0328769 0)
(22.0563 -0.0322256 0)
(22.0437 -0.0317612 0)
(22.0305 -0.0310355 0)
(22.0186 -0.0306876 0)
(22.0048 -0.0297639 0)
(21.9945 -0.0296147 0)
(21.979 -0.0282247 0)
(21.9723 -0.028393 0)
(21.9519 -0.0259241 0)
(19.7492 -0.0778348 0)
(19.8155 -0.217657 0)
(19.926 -0.340443 0)
(20.0622 -0.449238 0)
(20.2087 -0.544161 0)
(20.3515 -0.622931 0)
(20.4794 -0.684153 0)
(20.5833 -0.728157 0)
(20.6586 -0.756595 0)
(20.7032 -0.771329 0)
(20.7186 -0.774204 0)
(20.7067 -0.767103 0)
(20.671 -0.751652 0)
(20.6147 -0.729381 0)
(20.5413 -0.70179 0)
(20.4538 -0.670255 0)
(20.3552 -0.635987 0)
(20.2481 -0.600015 0)
(20.135 -0.563212 0)
(20.0178 -0.526317 0)
(19.8981 -0.489926 0)
(19.7774 -0.45455 0)
(19.6566 -0.420572 0)
(19.5367 -0.388272 0)
(19.4184 -0.357857 0)
(19.302 -0.329446 0)
(19.1879 -0.303092 0)
(19.0764 -0.278795 0)
(18.9676 -0.256513 0)
(18.8616 -0.236172 0)
(18.7584 -0.217675 0)
(18.6579 -0.200912 0)
(18.5602 -0.185755 0)
(18.4651 -0.172078 0)
(18.3725 -0.159755 0)
(18.2824 -0.148654 0)
(18.1947 -0.138654 0)
(18.1093 -0.129632 0)
(18.026 -0.121473 0)
(17.9447 -0.114074 0)
(17.8656 -0.107352 0)
(17.7884 -0.101236 0)
(17.713 -0.0956642 0)
(17.6396 -0.0905768 0)
(17.5679 -0.0859218 0)
(17.4979 -0.0816513 0)
(17.4296 -0.0777241 0)
(17.3629 -0.0741035 0)
(17.2979 -0.0707588 0)
(17.2344 -0.0676617 0)
(17.1724 -0.0647853 0)
(17.1119 -0.062109 0)
(17.0529 -0.059611 0)
(16.9954 -0.0572729 0)
(16.9392 -0.0550798 0)
(16.8844 -0.0530177 0)
(16.831 -0.0510744 0)
(16.7789 -0.0492388 0)
(16.728 -0.0475012 0)
(16.6784 -0.0458532 0)
(16.6301 -0.0442872 0)
(16.5829 -0.0427961 0)
(16.537 -0.0413746 0)
(16.4921 -0.0400178 0)
(16.4484 -0.0387232 0)
(16.4058 -0.0374891 0)
(16.3642 -0.0363129 0)
(16.3237 -0.0351911 0)
(16.2842 -0.0341197 0)
(16.2456 -0.0330948 0)
(16.2081 -0.0321136 0)
(16.1714 -0.031173 0)
(16.1357 -0.0302709 0)
(16.1008 -0.029405 0)
(16.0668 -0.0285733 0)
(16.0337 -0.0277741 0)
(16.0013 -0.0270058 0)
(15.9698 -0.026267 0)
(15.939 -0.0255562 0)
(15.909 -0.0248724 0)
(15.8797 -0.0242144 0)
(15.8511 -0.0235812 0)
(15.8232 -0.0229718 0)
(15.796 -0.0223854 0)
(15.7694 -0.0218211 0)
(15.7435 -0.0212781 0)
(15.7181 -0.0207558 0)
(15.6934 -0.0202532 0)
(15.6692 -0.01977 0)
(15.6456 -0.0193051 0)
(15.6226 -0.0188582 0)
(15.6 -0.0184284 0)
(15.578 -0.0180151 0)
(15.5565 -0.0176176 0)
(15.5354 -0.0172353 0)
(15.5148 -0.0168676 0)
(15.4947 -0.016514 0)
(15.475 -0.016174 0)
(15.4557 -0.0158472 0)
(15.4369 -0.0155331 0)
(15.4184 -0.0152313 0)
(15.4003 -0.0149415 0)
(15.3826 -0.0146632 0)
(15.3652 -0.014396 0)
(15.3482 -0.0141393 0)
(15.3315 -0.0138933 0)
(15.3152 -0.0136558 0)
(15.2991 -0.0134293 0)
(15.2834 -0.0132078 0)
(15.268 -0.0129993 0)
(15.2529 -0.0127876 0)
(15.2379 -0.0125944 0)
(15.2236 -0.0123797 0)
(15.2088 -0.0121954 0)
(15.1955 -0.0119521 0)
(15.1805 -0.011755 0)
(15.1691 -0.0114382 0)
(15.1525 -0.0111604 0)
(15.1453 -0.0107517 0)
(15.1238 -0.0102723 0)
(19.7141 -0.0550604 0)
(19.5572 -0.211708 0)
(19.2399 -0.357716 0)
(18.7797 -0.475058 0)
(18.2141 -0.559907 0)
(17.5774 -0.611388 0)
(16.8971 -0.632137 0)
(16.1939 -0.626846 0)
(15.4867 -0.601974 0)
(14.788 -0.562431 0)
(14.1122 -0.513747 0)
(13.4642 -0.460808 0)