/*--------------------------------*- C++ -*----------------------------------*\
  =========                 |
  \\      /  F ield         | OpenFOAM: The Open Source CFD Toolbox
   \\    /   O peration     | Website:  https://openfoam.org
    \\  /    A nd           | Version:  7
     \\/     M anipulation  |
\*---------------------------------------------------------------------------*/
FoamFile
{
    version     2.0;
    format      ascii;
    class       volVectorField;
    location    "2.63";
    object      U;
}
// * * * * * * * * * * * * * * * * * * * * * * * * * * * * * * * * * * * * * //

dimensions      [0 1 -1 0 0 0 0];

internalField   nonuniform List<vector> 
7920
(
(2.92941 0.101226 -32.3658)
(2.10425 -0.462423 -32.4055)
(1.39242 -0.61671 -32.397)
(1.28415 -0.672809 -32.4118)
(1.0503 -0.68958 -32.4043)
(1.07651 -0.694476 -32.4138)
(0.936232 -0.698507 -32.4061)
(0.981799 -0.698677 -32.4126)
(0.877111 -0.700907 -32.407)
(0.922309 -0.700653 -32.4126)
(0.839148 -0.702203 -32.409)
(0.880115 -0.701693 -32.4132)
(0.812468 -0.702654 -32.411)
(0.848476 -0.702072 -32.4133)
(0.792762 -0.70243 -32.4136)
(0.82378 -0.702502 -32.4128)
(0.776687 -0.69858 -32.4182)
(0.798237 -0.70506 -32.4091)
(0.76424 -0.646723 -32.4289)
(0.593128 -0.659125 -32.3924)
(4.41107 0.967284 -32.4274)
(4.33302 0.872809 -32.465)
(3.6809 0.818486 -32.4605)
(3.53351 0.751434 -32.4721)
(3.13444 0.723751 -32.4691)
(3.12944 0.710395 -32.4766)
(2.86752 0.703869 -32.4731)
(2.90999 0.700416 -32.4773)
(2.71499 0.698319 -32.4746)
(2.76781 0.696616 -32.4776)
(2.61352 0.695514 -32.476)
(2.6657 0.694334 -32.4781)
(2.54022 0.693644 -32.4776)
(2.58848 0.692674 -32.4781)
(2.4847 0.69203 -32.4799)
(2.52972 0.692071 -32.4772)
(2.43749 0.688871 -32.4844)
(2.49864 0.693717 -32.473)
(2.37892 0.684113 -32.4956)
(2.65495 0.676164 -32.4456)
(4.75172 0.19272 -32.4349)
(5.25797 -0.22926 -32.4686)
(5.11355 -0.375103 -32.4576)
(5.22538 -0.493565 -32.4681)
(4.98122 -0.558515 -32.462)
(5.03156 -0.595242 -32.4708)
(4.81782 -0.619704 -32.4663)
(4.86092 -0.63355 -32.4729)
(4.6851 -0.644123 -32.4691)
(4.72597 -0.650803 -32.4738)
(4.58162 -0.656257 -32.471)
(4.61977 -0.660292 -32.4741)
(4.50051 -0.663437 -32.4726)
(4.53497 -0.666157 -32.4739)
(4.43674 -0.668282 -32.4746)
(4.46402 -0.669225 -32.4729)
(4.39005 -0.672549 -32.4781)
(4.39041 -0.668315 -32.4705)
(4.3649 -0.669342 -32.4846)
(4.26996 -0.690237 -32.4499)
(4.75264 0.649191 -32.4452)
(5.284 0.749511 -32.4773)
(5.38484 0.796708 -32.4669)
(5.69033 0.767013 -32.4749)
(5.63202 0.749114 -32.4694)
(5.80424 0.734796 -32.4763)
(5.71107 0.72446 -32.4728)
(5.82404 0.716444 -32.4784)
(5.72999 0.710365 -32.4761)
(5.81168 0.704772 -32.48)
(5.72554 0.700825 -32.4784)
(5.7883 0.696674 -32.4806)
(5.71152 0.694195 -32.4799)
(5.76265 0.690745 -32.4804)
(5.69315 0.689904 -32.4808)
(5.74044 0.685934 -32.4795)
(5.67037 0.688936 -32.4818)
(5.73227 0.681685 -32.4783)
(5.64325 0.69634 -32.4834)
(5.78553 0.706774 -32.4565)
(4.74477 -0.0883628 -32.4443)
(5.24773 -0.387251 -32.4762)
(5.40573 -0.47981 -32.4633)
(5.76669 -0.545638 -32.4718)
(5.77783 -0.58149 -32.4642)
(6.01038 -0.601551 -32.4716)
(5.98404 -0.615848 -32.4665)
(6.14982 -0.623845 -32.4726)
(6.11504 -0.630746 -32.4691)
(6.24041 -0.635134 -32.4739)
(6.20481 -0.639341 -32.4713)
(6.30257 -0.64239 -32.4746)
(6.26852 -0.645513 -32.4725)
(6.34623 -0.647396 -32.4744)
(6.31505 -0.651004 -32.4728)
(6.37624 -0.649525 -32.4736)
(6.35245 -0.658823 -32.4728)
(6.39122 -0.647538 -32.4728)
(6.38798 -0.671171 -32.4727)
(6.38752 -0.692946 -32.45)
(4.73223 0.352091 -32.4479)
(5.19099 0.557156 -32.4805)
(5.35901 0.635505 -32.4674)
(5.73544 0.655644 -32.4762)
(5.77045 0.665846 -32.4681)
(6.02676 0.669169 -32.4756)
(6.02719 0.671312 -32.4701)
(6.21753 0.671408 -32.4763)
(6.21008 0.671712 -32.4724)
(6.35899 0.670965 -32.4773)
(6.34951 0.670841 -32.4744)
(6.46874 0.669973 -32.478)
(6.45832 0.670023 -32.4755)
(6.55531 0.668772 -32.4778)
(6.54399 0.670151 -32.4757)
(6.62431 0.666534 -32.477)
(6.61276 0.673936 -32.4752)
(6.68054 0.662906 -32.476)
(6.6733 0.686436 -32.4746)
(6.73863 0.708581 -32.4517)
(4.73223 -0.352091 -32.4479)
(5.19099 -0.557156 -32.4805)
(5.35901 -0.635506 -32.4674)
(5.73544 -0.655644 -32.4762)
(5.77045 -0.665846 -32.4681)
(6.02676 -0.669167 -32.4756)
(6.02719 -0.671312 -32.4701)
(6.21753 -0.671404 -32.4763)
(6.21008 -0.671709 -32.4724)
(6.35898 -0.670955 -32.4773)
(6.34952 -0.670827 -32.4744)
(6.46873 -0.669947 -32.478)
(6.45836 -0.669985 -32.4755)
(6.55528 -0.66868 -32.4779)
(6.54409 -0.670078 -32.4756)
(6.62424 -0.666197 -32.4771)
(6.61299 -0.673833 -32.4751)
(6.68038 -0.661913 -32.4761)
(6.6736 -0.685972 -32.4746)
(6.7384 -0.706757 -32.4516)
(4.74477 0.0883627 -32.4443)
(5.24773 0.387251 -32.4762)
(5.40573 0.47981 -32.4632)
(5.76669 0.545638 -32.4719)
(5.77783 0.58149 -32.4642)
(6.01038 0.601552 -32.4716)
(5.98403 0.615849 -32.4665)
(6.14982 0.623848 -32.4727)
(6.11503 0.63075 -32.469)
(6.24043 0.635141 -32.474)
(6.20479 0.639357 -32.4712)
(6.30262 0.642408 -32.4747)
(6.26848 0.645557 -32.4723)
(6.34636 0.647469 -32.4746)
(6.31499 0.651086 -32.4725)
(6.37654 0.649827 -32.474)
(6.3525 0.658936 -32.4723)
(6.39191 0.648514 -32.4733)
(6.38863 0.671592 -32.4722)
(6.38927 0.694915 -32.4505)
(4.75264 -0.649191 -32.4452)
(5.284 -0.749511 -32.4773)
(5.38484 -0.796708 -32.4669)
(5.69033 -0.767013 -32.4749)
(5.63202 -0.749114 -32.4694)
(5.80424 -0.734794 -32.4763)
(5.71107 -0.72446 -32.4728)
(5.82404 -0.716439 -32.4784)
(5.72999 -0.710363 -32.476)
(5.8117 -0.704761 -32.4801)
(5.72554 -0.700817 -32.4782)
(5.78834 -0.696647 -32.4809)
(5.71154 -0.694172 -32.4794)
(5.76277 -0.690655 -32.481)
(5.69326 -0.689869 -32.4799)
(5.74071 -0.685627 -32.4808)
(5.67085 -0.688923 -32.4801)
(5.73278 -0.680834 -32.4806)
(5.64461 -0.696119 -32.4804)
(5.78676 -0.70542 -32.4601)
(4.75172 -0.19272 -32.4349)
(5.25797 0.22926 -32.4686)
(5.11355 0.375103 -32.4576)
(5.22538 0.493565 -32.4682)
(4.98121 0.558516 -32.462)
(5.03157 0.595242 -32.4709)
(4.81782 0.619706 -32.4662)
(4.86093 0.633551 -32.4729)
(4.68509 0.644128 -32.469)
(4.72601 0.650803 -32.474)
(4.58161 0.656272 -32.4707)
(4.61988 0.660294 -32.4745)
(4.50048 0.663475 -32.472)
(4.53526 0.666179 -32.4749)
(4.43673 0.668354 -32.473)
(4.4647 0.669367 -32.4754)
(4.39033 0.672642 -32.4742)
(4.39199 0.668902 -32.4764)
(4.3664 0.669597 -32.4758)
(4.27441 0.691447 -32.4627)
(4.41107 -0.967284 -32.4274)
(4.33302 -0.872809 -32.465)
(3.6809 -0.818486 -32.4605)
(3.53351 -0.751434 -32.4721)
(3.13444 -0.723751 -32.4691)
(3.12944 -0.710394 -32.4766)
(2.86752 -0.703869 -32.4731)
(2.90999 -0.700413 -32.4774)
(2.715 -0.69832 -32.4745)
(2.76783 -0.696609 -32.4778)
(2.61353 -0.695515 -32.4757)
(2.66577 -0.694316 -32.4785)
(2.54026 -0.693644 -32.4769)
(2.58867 -0.692618 -32.4792)
(2.48485 -0.692041 -32.4781)
(2.53013 -0.691888 -32.4801)
(2.43818 -0.688966 -32.4796)
(2.49928 -0.693257 -32.4814)
(2.38124 -0.684405 -32.4806)
(2.65555 -0.676344 -32.4722)
(2.92941 -0.101226 -32.3658)
(2.10425 0.462423 -32.4055)
(1.39242 0.61671 -32.397)
(1.28415 0.672809 -32.4118)
(1.0503 0.689581 -32.4042)
(1.07651 0.694475 -32.4138)
(0.936232 0.698508 -32.4061)
(0.981803 0.698675 -32.4126)
(0.877112 0.70091 -32.4069)
(0.922322 0.700647 -32.4127)
(0.839149 0.702209 -32.4087)
(0.880156 0.70168 -32.4135)
(0.812472 0.702669 -32.4104)
(0.848591 0.702033 -32.4142)
(0.792799 0.702469 -32.412)
(0.824048 0.702403 -32.4153)
(0.776942 0.698712 -32.4139)
(0.798782 0.704913 -32.4167)
(0.765364 0.647326 -32.4153)
(0.595243 0.659923 -32.4169)
(4.32529 0.565793 0.00693061)
(3.08019 0.847591 0.00446358)
(2.31665 0.869399 0.0057355)
(1.74971 0.852652 0.00425996)
(1.61165 0.855322 0.0054055)
(1.40781 0.867216 0.00423774)
(1.40134 0.877166 0.00519311)
(1.27974 0.885278 0.00421283)
(1.28713 0.889509 0.00499488)
(1.20133 0.893198 0.00416827)
(1.20963 0.894922 0.00480977)
(1.14702 0.896994 0.00411577)
(1.15369 0.897751 0.00464285)
(1.10608 0.899228 0.00406206)
(1.1116 0.899064 0.00449472)
(1.07198 0.901469 0.00400853)
(1.07931 0.893995 0.00436471)
(1.05661 0.915726 0.00395228)
(1.01226 0.792021 0.00427814)
(1.45404 0.819593 0.00384179)
(4.75873 -0.10017 0.00435418)
(4.61247 -0.277227 0.00232314)
(4.52715 -0.477149 0.00362624)
(4.14544 -0.643105 0.00218466)
(4.00333 -0.739511 0.00333795)
(3.72545 -0.794928 0.00217623)
(3.65167 -0.822432 0.0031355)
(3.46481 -0.839552 0.00215836)
(3.42494 -0.849768 0.00294288)
(3.29253 -0.857558 0.0021181)
(3.26709 -0.862863 0.00276111)
(3.16921 -0.86735 0.00206835)
(3.15039 -0.870253 0.00259643)
(3.07457 -0.873538 0.00201666)
(3.06076 -0.874207 0.00244921)
(2.99519 -0.878682 0.00196484)
(2.99562 -0.875575 0.00231511)
(2.9102 -0.882583 0.00191291)
(2.98632 -0.886172 0.00216803)
(2.58413 -0.894333 0.00179085)
(4.63742 0.43504 0.00565239)
(4.82646 0.871047 0.00369743)
(5.14225 0.969204 0.00488231)
(5.08316 0.960146 0.00340055)
(5.14536 0.942019 0.00452805)
(5.01025 0.928905 0.00335375)
(5.01643 0.919536 0.0043072)
(4.89772 0.913728 0.00332662)
(4.89224 0.907286 0.00410943)
(4.7963 0.903721 0.00328275)
(4.78597 0.899186 0.00392454)
(4.70904 0.897098 0.00323029)
(4.69607 0.894134 0.00375725)
(4.63461 0.892676 0.00317615)
(4.61857 0.891167 0.00360833)
(4.57346 0.88906 0.00312207)
(4.54436 0.887944 0.00347799)
(4.53954 0.887876 0.00306561)
(4.45925 0.849063 0.0033896)
(4.57741 0.889515 0.00297989)
(4.57567 -0.201725 0.00447379)
(4.70012 -0.39825 0.0027386)
(5.1308 -0.518864 0.00392836)
(5.23112 -0.623567 0.00247559)
(5.44848 -0.691357 0.00360463)
(5.44985 -0.738585 0.00243442)
(5.56168 -0.76523 0.00339076)
(5.53642 -0.784604 0.00241336)
(5.6009 -0.797175 0.00319901)
(5.57027 -0.807689 0.00237529)
(5.60854 -0.815463 0.00301906)
(5.57865 -0.822255 0.002327)
(5.6013 -0.827561 0.0028551)
(5.57377 -0.832256 0.00227576)
(5.58735 -0.83624 0.00270782)
(5.56031 -0.838936 0.0022239)
(5.5727 -0.846213 0.00257288)
(5.52926 -0.840477 0.00217009)
(5.56876 -0.876008 0.00242286)
(5.37416 -0.897286 0.00207349)
(4.58872 0.341315 0.00512704)
(4.69611 0.6882 0.00343116)
(5.10674 0.803064 0.00457345)
(5.22787 0.844659 0.00310676)
(5.48539 0.861716 0.00422313)
(5.53576 0.871507 0.00304633)
(5.69835 0.87525 0.00399943)
(5.72554 0.87779 0.00301981)
(5.83862 0.877061 0.00380448)
(5.85606 0.877211 0.00297965)
(5.93681 0.875566 0.00362288)
(5.94839 0.875212 0.00293002)
(6.00659 0.873821 0.00345769)
(6.01491 0.873039 0.00287763)
(6.05583 0.872908 0.00330973)
(6.06497 0.869927 0.00282461)
(6.08691 0.874307 0.00317813)
(6.10528 0.865882 0.00276861)
(6.10512 0.870032 0.00307338)
(6.1036 0.916468 0.00269802)
(4.58269 -0.269024 0.00475622)
(4.66798 -0.539273 0.00312481)
(5.07348 -0.65367 0.0042664)
(5.19592 -0.724523 0.00280677)
(5.46488 -0.765013 0.00392135)
(5.53037 -0.792716 0.00274448)
(5.71095 -0.807342 0.00369751)
(5.75748 -0.818096 0.00271814)
(5.8906 -0.823842 0.00350324)
(5.92876 -0.829186 0.00267897)
(6.02987 -0.832342 0.00332259)
(6.06161 -0.835697 0.00263028)
(6.13946 -0.837992 0.00315819)
(6.16568 -0.839959 0.00257868)
(6.22618 -0.842756 0.00301059)
(6.24722 -0.84168 0.00252642)
(6.29492 -0.850625 0.00287679)
(6.30287 -0.83987 0.00247123)
(6.35352 -0.870648 0.00274674)
(6.26804 -0.905569 0.00239555)
(4.58269 0.269023 0.00475622)
(4.66798 0.539273 0.00312481)
(5.07348 0.653669 0.0042664)
(5.19592 0.724524 0.00280677)
(5.46488 0.765012 0.00392135)
(5.53037 0.792718 0.00274448)
(5.71094 0.807343 0.00369751)
(5.75748 0.8181 0.00271814)
(5.89059 0.823846 0.00350325)
(5.92877 0.829197 0.00267896)
(6.02985 0.832356 0.00332261)
(6.06164 0.835733 0.00263024)
(6.13942 0.838025 0.00315823)
(6.16576 0.840074 0.00257859)
(6.22609 0.842843 0.0030107)
(6.24743 0.842009 0.00252617)
(6.29478 0.850922 0.00287715)
(6.30352 0.840691 0.00247068)
(6.35379 0.871665 0.00274805)
(6.26911 0.907562 0.0023949)
(4.58872 -0.341315 0.00512704)
(4.69611 -0.688199 0.00343116)
(5.10674 -0.803064 0.00457345)
(5.22787 -0.844658 0.00310676)
(5.48539 -0.861717 0.00422313)
(5.53576 -0.871505 0.00304634)
(5.69835 -0.87525 0.00399942)
(5.72554 -0.877785 0.00301982)
(5.83862 -0.877059 0.00380447)
(5.85607 -0.877197 0.00297967)
(5.93682 -0.875557 0.00362285)
(5.94839 -0.87517 0.00293006)
(6.00663 -0.8738 0.00345763)
(6.01492 -0.872912 0.00287774)
(6.05598 -0.872854 0.00330956)
(6.06495 -0.869586 0.00282488)
(6.08734 -0.874115 0.00317768)
(6.10511 -0.865178 0.00276908)
(6.10589 -0.869276 0.00307208)
(6.10371 -0.914735 0.00269814)
(4.57567 0.201725 0.00447379)
(4.70012 0.39825 0.0027386)
(5.1308 0.518864 0.00392836)
(5.23112 0.623567 0.00247559)
(5.44848 0.691358 0.00360463)
(5.44986 0.738586 0.00243442)
(5.56167 0.765231 0.00339076)
(5.53643 0.784607 0.00241336)
(5.60089 0.79718 0.00319901)
(5.5703 0.807696 0.00237529)
(5.60852 0.815479 0.00301906)
(5.57873 0.822278 0.00232699)
(5.60127 0.827599 0.00285511)
(5.57397 0.832334 0.00227572)
(5.58733 0.836338 0.00270785)
(5.56081 0.839176 0.00222379)
(5.57286 0.846534 0.00257306)
(5.53062 0.841178 0.00216975)
(5.56985 0.877096 0.00242403)
(5.3776 0.89906 0.00207279)
(4.63742 -0.43504 0.00565239)
(4.82646 -0.871047 0.00369743)
(5.14225 -0.969204 0.00488231)
(5.08316 -0.960145 0.00340056)
(5.14535 -0.942019 0.00452805)
(5.01025 -0.928903 0.00335376)
(5.01643 -0.919536 0.00430719)
(4.89773 -0.913723 0.00332663)
(4.89224 -0.907286 0.00410941)
(4.79633 -0.903708 0.00328279)
(4.78597 -0.899184 0.00392449)
(4.70912 -0.897062 0.00323036)
(4.6961 -0.894133 0.00375712)
(4.63479 -0.892567 0.00317633)
(4.61874 -0.891175 0.00360802)
(4.57386 -0.888779 0.00312252)
(4.54498 -0.887943 0.00347722)
(4.54043 -0.887421 0.00306644)
(4.46084 -0.848838 0.0033878)
(4.57985 -0.888975 0.00298034)
(4.75873 0.10017 0.00435418)
(4.61247 0.277227 0.00232314)
(4.52715 0.477149 0.00362624)
(4.14544 0.643105 0.00218466)
(4.00332 0.739512 0.00333795)
(3.72545 0.794928 0.00217624)
(3.65166 0.822433 0.0031355)
(3.46482 0.839551 0.00215837)
(3.42494 0.849773 0.00294287)
(3.29257 0.857556 0.00211811)
(3.26708 0.862876 0.00276109)
(3.16933 0.867345 0.00206837)
(3.15039 0.870287 0.0025964)
(3.07486 0.873532 0.0020167)
(3.06084 0.874294 0.0024491)
(2.99594 0.878686 0.00196496)
(2.99593 0.875844 0.00231489)
(2.91246 0.88276 0.00191312)
(2.98696 0.887101 0.00216816)
(2.59236 0.895785 0.00179116)
(4.32529 -0.565793 0.00693061)
(3.08019 -0.847591 0.00446358)
(2.31665 -0.8694 0.00573549)
(1.74971 -0.852651 0.00425996)
(1.61165 -0.855323 0.0054055)
(1.40781 -0.867216 0.00423774)
(1.40134 -0.877167 0.0051931)
(1.27974 -0.885276 0.00421284)
(1.28713 -0.889512 0.00499485)
(1.20134 -0.893191 0.00416831)
(1.20964 -0.89493 0.00480971)
(1.14706 -0.896974 0.00411586)
(1.15374 -0.897773 0.00464268)
(1.10619 -0.899169 0.00406233)
(1.11179 -0.899131 0.00449427)
(1.07223 -0.901316 0.00400925)
(1.07988 -0.894218 0.00436346)
(1.05723 -0.915536 0.00395413)
(1.0136 -0.793153 0.00427428)
(1.45524 -0.820984 0.00384707)
(4.37876 0.0970554 0.0013774)
(3.96786 0.148974 0.00192098)
(3.43311 0.162947 0.000967079)
(2.95612 0.156774 0.00150983)
(2.54384 0.145209 0.000986991)
(2.24 0.136637 0.00140373)
(2.01548 0.131642 0.00105999)
(1.86281 0.131266 0.00132249)
(1.76003 0.133624 0.00109073)
(1.68643 0.13809 0.00124501)
(1.64057 0.143094 0.00110166)
(1.59955 0.148493 0.00118396)
(1.57686 0.153098 0.00110951)
(1.54917 0.157984 0.0011425)
(1.53531 0.160721 0.00112181)
(1.51684 0.166036 0.00111786)
(1.50056 0.164432 0.00114352)
(1.50336 0.174678 0.00110422)
(1.45765 0.160119 0.00115794)
(1.53186 0.167249 0.0011736)
(4.54122 0.0877636 0.0031687)
(4.67815 0.119365 0.00389125)
(4.72068 0.120763 0.00293092)
(4.70956 0.094563 0.00344931)
(4.63247 0.0564276 0.00290205)
(4.53703 0.0139969 0.00330497)
(4.42945 -0.0240499 0.00295266)
(4.32428 -0.056755 0.00321166)
(4.22835 -0.0817162 0.00297719)
(4.13644 -0.101579 0.00313063)
(4.05934 -0.116033 0.00298615)
(3.983 -0.127682 0.00306835)
(3.92259 -0.136196 0.00299355)
(3.85983 -0.143434 0.00302633)
(3.813 -0.148847 0.00300608)
(3.76181 -0.153369 0.003001)
(3.72494 -0.157864 0.00303052)
(3.68627 -0.159542 0.00298536)
(3.651 -0.165562 0.0030821)
(3.63146 -0.171209 0.00308728)
(4.51656 0.0457276 0.00173438)
(4.65615 0.110399 0.00234135)
(4.78835 0.162784 0.00141289)
(4.93698 0.191298 0.00193484)
(5.04477 0.201673 0.00139376)
(5.1293 0.202625 0.00180328)
(5.18015 0.199402 0.00145935)
(5.2094 0.196383 0.00172355)
(5.22345 0.194482 0.00149461)
(5.22374 0.194039 0.00165015)
(5.22067 0.19442 0.00150843)
(5.20879 0.195343 0.00159113)
(5.1982 0.196035 0.00151748)
(5.18274 0.197227 0.00155057)
(5.16772 0.196678 0.00152982)
(5.15446 0.199315 0.0015268)
(5.13379 0.194152 0.00154886)
(5.1292 0.204081 0.00151949)
(5.09777 0.184172 0.00154577)
(5.10739 0.208154 0.00158064)
(4.51261 0.0441518 0.00275235)
(4.62175 0.0508526 0.00346914)
(4.746 0.0465929 0.00256543)
(4.90573 0.0291054 0.00309308)
(5.04559 0.00690462 0.002538)
(5.17825 -0.0182406 0.002936)
(5.28533 -0.0420906 0.00258117)
(5.37503 -0.0636671 0.00284032)
(5.44931 -0.0813447 0.00260691)
(5.50902 -0.095957 0.00276087)
(5.56282 -0.10749 0.00261706)
(5.60544 -0.116798 0.00269916)
(5.64699 -0.124561 0.00262432)
(5.67965 -0.130458 0.00265694)
(5.71298 -0.136568 0.00263588)
(5.73893 -0.139494 0.00263207)
(5.7672 -0.146373 0.00265802)
(5.78538 -0.145079 0.00262453)
(5.81502 -0.155041 0.00271204)
(5.81319 -0.153304 0.00271717)
(4.51372 0.0165821 0.00205212)
(4.62292 0.0556599 0.00272335)
(4.74019 0.091399 0.00182931)
(4.8939 0.117089 0.0023479)
(5.03153 0.133437 0.00179061)
(5.16795 0.144566 0.0021887)
(5.28359 0.15234 0.00183661)
(5.3863 0.159063 0.00209796)
(5.47652 0.164923 0.00186728)
(5.55469 0.170481 0.00202251)
(5.62879 0.175309 0.00188044)
(5.69294 0.179736 0.00196312)
(5.75759 0.1831 0.00188931)
(5.8131 0.186538 0.00192235)
(5.87176 0.187915 0.00190154)
(5.91956 0.191818 0.00189889)
(5.97687 0.189032 0.00192041)
(6.01045 0.198339 0.00189565)
(6.08114 0.184443 0.00193112)
(6.07746 0.20941 0.00196412)
(4.51246 0.0119199 0.00238497)
(4.61508 -0.00401198 0.00308541)
(4.73094 -0.023416 0.00219912)
(4.88294 -0.0448743 0.00272372)
(5.0197 -0.0639753 0.00216503)
(5.15599 -0.0817888 0.00256149)
(5.27272 -0.0973026 0.00220691)
(5.37765 -0.111069 0.00246722)
(5.47144 -0.122569 0.00223544)
(5.55395 -0.132315 0.00239036)
(5.63384 -0.14031 0.00224778)
(5.70383 -0.146845 0.00233029)
(5.77644 -0.152351 0.00225623)
(5.83838 -0.156587 0.00228903)
(5.90766 -0.160532 0.00226831)
(5.96078 -0.163197 0.00226524)
(6.03302 -0.165954 0.00228898)
(6.06744 -0.168574 0.00226243)
(6.16083 -0.167929 0.00232662)
(6.14897 -0.177552 0.00234214)
(4.51246 -0.0119201 0.00238497)
(4.61508 0.00401248 0.00308541)
(4.73094 0.0234155 0.00219912)
(4.88294 0.0448755 0.00272372)
(5.0197 0.0639747 0.00216503)
(5.15599 0.0817913 0.00256149)
(5.27272 0.0973027 0.0022069)
(5.37765 0.111075 0.00246723)
(5.47143 0.122572 0.00223543)
(5.55396 0.132329 0.00239038)
(5.63384 0.14032 0.00224776)
(5.70383 0.146887 0.00233033)
(5.77644 0.152374 0.00225618)
(5.83839 0.156711 0.00228912)
(5.90766 0.160584 0.00226818)
(5.9608 0.163536 0.00226545)
(6.03304 0.166129 0.00228854)
(6.06751 0.169359 0.00226278)
(6.16095 0.168651 0.00232462)
(6.14921 0.179112 0.00234268)
(4.51372 -0.0165823 0.00205212)
(4.62292 -0.0556594 0.00272335)
(4.74019 -0.0913995 0.00182931)
(4.8939 -0.117088 0.0023479)
(5.03153 -0.133438 0.00179061)
(5.16795 -0.144564 0.0021887)
(5.28359 -0.15234 0.00183662)
(5.3863 -0.159057 0.00209795)
(5.47652 -0.16492 0.00186728)
(5.5547 -0.170466 0.0020225)
(5.6288 -0.1753 0.00188045)
(5.69294 -0.179694 0.00196308)
(5.75762 -0.183079 0.00188935)
(5.81309 -0.186413 0.00192226)
(5.87183 -0.187867 0.00190165)
(5.91957 -0.191484 0.00189867)
(5.97707 -0.188871 0.0019208)
(6.01052 -0.197579 0.00189526)
(6.08158 -0.183774 0.00193281)
(6.07781 -0.207964 0.00196358)
(4.51261 -0.044152 0.00275235)
(4.62175 -0.0508522 0.00346914)
(4.746 -0.0465934 0.00256543)
(4.90573 -0.0291044 0.00309308)
(5.04559 -0.00690513 0.002538)
(5.17826 0.0182428 0.00293601)
(5.28533 0.0420907 0.00258117)
(5.37503 0.0636722 0.00284033)
(5.4493 0.0813476 0.00260689)
(5.50904 0.0959697 0.00276089)
(5.56282 0.1075 0.00261703)
(5.60548 0.116835 0.0026992)
(5.647 0.124584 0.00262425)
(5.67973 0.130569 0.00265703)
(5.71304 0.136616 0.00263572)
(5.7391 0.139803 0.00263226)
(5.76749 0.146524 0.00265755)
(5.78579 0.145808 0.00262484)
(5.81594 0.155672 0.00271013)
(5.81438 0.154778 0.00271738)
(4.51656 -0.0457277 0.00173438)
(4.65615 -0.110398 0.00234136)
(4.78835 -0.162784 0.00141289)
(4.93698 -0.191297 0.00193485)
(5.04477 -0.201674 0.00139376)
(5.12931 -0.202623 0.00180329)
(5.18015 -0.199402 0.00145935)
(5.20942 -0.196378 0.00172356)
(5.22343 -0.194481 0.00149461)
(5.22378 -0.194025 0.00165015)
(5.22065 -0.194415 0.00150843)
(5.20888 -0.195305 0.00159114)
(5.19819 -0.196025 0.00151748)
(5.18294 -0.197121 0.00155055)
(5.16779 -0.196657 0.00152985)
(5.15487 -0.199036 0.00152672)
(5.13422 -0.194068 0.00154902)
(5.13009 -0.203479 0.00151928)
(5.09917 -0.183751 0.00154666)
(5.10956 -0.207188 0.00158045)
(4.54122 -0.0877636 0.0031687)
(4.67815 -0.119365 0.00389126)
(4.72068 -0.120763 0.00293092)
(4.70957 -0.0945626 0.00344931)
(4.63247 -0.0564274 0.00290204)
(4.53704 -0.0139961 0.00330498)
(4.42944 0.024051 0.00295264)
(4.3243 0.0567568 0.00321169)
(4.22833 0.0817199 0.00297715)
(4.1365 0.101584 0.00313069)
(4.05931 0.116042 0.00298606)
(3.98317 0.127697 0.00306848)
(3.92255 0.136215 0.00299334)
(3.86021 0.143486 0.00302664)
(3.81301 0.148881 0.00300559)
(3.76266 0.153524 0.00300171)
(3.72522 0.157953 0.00302932)
(3.68821 0.159916 0.00298687)
(3.65212 0.165931 0.00307887)
(3.63617 0.171955 0.00309023)
(4.37876 -0.0970554 0.0013774)
(3.96786 -0.148974 0.00192098)
(3.43311 -0.162947 0.000967078)
(2.95612 -0.156774 0.00150983)
(2.54384 -0.145209 0.00098699)
(2.24 -0.136637 0.00140373)
(2.01548 -0.131642 0.00105999)
(1.86283 -0.131265 0.00132249)
(1.76003 -0.133624 0.00109072)
(1.68647 -0.138087 0.00124502)
(1.64057 -0.143095 0.00110164)
(1.59966 -0.148484 0.001184)
(1.5769 -0.153101 0.00110946)
(1.54943 -0.157957 0.00114258)
(1.53547 -0.160738 0.00112168)
(1.51744 -0.165962 0.00111806)
(1.5011 -0.16448 0.00114309)
(1.50487 -0.174529 0.00110482)
(1.45873 -0.160215 0.00115661)
(1.53658 -0.167372 0.0011757)
(4.37876 0.0970554 -0.0013774)
(3.96786 0.148974 -0.00192099)
(3.43311 0.162947 -0.000967082)
(2.95612 0.156774 -0.00150983)
(2.54384 0.145209 -0.000986994)
(2.24 0.136637 -0.00140373)
(2.01548 0.131642 -0.00106)
(1.86281 0.131266 -0.00132249)
(1.76003 0.133624 -0.00109073)
(1.68643 0.13809 -0.00124501)
(1.64057 0.143095 -0.00110166)
(1.59955 0.148493 -0.00118396)
(1.57686 0.153098 -0.00110952)
(1.54917 0.157984 -0.0011425)
(1.53531 0.160721 -0.00112182)
(1.51684 0.166036 -0.00111786)
(1.50056 0.164432 -0.00114352)
(1.50336 0.174678 -0.00110422)
(1.45765 0.160119 -0.00115794)
(1.53186 0.167249 -0.0011736)
(4.54122 0.0877636 -0.00316871)
(4.67815 0.119365 -0.00389126)
(4.72068 0.120763 -0.00293093)
(4.70956 0.094563 -0.00344931)
(4.63247 0.0564276 -0.00290205)
(4.53703 0.0139969 -0.00330497)
(4.42945 -0.0240499 -0.00295266)
(4.32428 -0.056755 -0.00321167)
(4.22835 -0.0817162 -0.00297719)
(4.13644 -0.101579 -0.00313063)
(4.05934 -0.116033 -0.00298615)
(3.983 -0.127682 -0.00306835)
(3.92259 -0.136196 -0.00299356)
(3.85983 -0.143434 -0.00302633)
(3.813 -0.148847 -0.00300609)
(3.76181 -0.153369 -0.003001)
(3.72494 -0.157864 -0.00303053)
(3.68627 -0.159542 -0.00298536)
(3.651 -0.165562 -0.00308211)
(3.63146 -0.171209 -0.00308728)
(4.51656 0.0457276 -0.00173439)
(4.65615 0.110399 -0.00234136)
(4.78835 0.162784 -0.00141289)
(4.93698 0.191298 -0.00193485)
(5.04477 0.201673 -0.00139376)
(5.1293 0.202625 -0.00180329)
(5.18015 0.199402 -0.00145936)
(5.2094 0.196383 -0.00172355)
(5.22345 0.194482 -0.00149462)
(5.22374 0.194039 -0.00165015)
(5.22067 0.19442 -0.00150844)
(5.20879 0.195343 -0.00159114)
(5.1982 0.196035 -0.00151748)
(5.18274 0.197227 -0.00155057)
(5.16772 0.196678 -0.00152982)
(5.15446 0.199315 -0.00152681)
(5.13379 0.194152 -0.00154887)
(5.1292 0.204081 -0.0015195)
(5.09777 0.184172 -0.00154577)
(5.10739 0.208154 -0.00158064)
(4.51261 0.0441518 -0.00275235)
(4.62175 0.0508526 -0.00346914)
(4.746 0.046593 -0.00256544)
(4.90573 0.0291054 -0.00309308)
(5.04559 0.00690462 -0.002538)
(5.17825 -0.0182406 -0.002936)
(5.28533 -0.0420906 -0.00258118)
(5.37503 -0.0636671 -0.00284033)
(5.44931 -0.0813447 -0.00260691)
(5.50902 -0.095957 -0.00276087)
(5.56282 -0.10749 -0.00261706)
(5.60544 -0.116798 -0.00269916)
(5.64699 -0.124561 -0.00262432)
(5.67965 -0.130458 -0.00265694)
(5.71298 -0.136568 -0.00263588)
(5.73893 -0.139494 -0.00263208)
(5.7672 -0.146373 -0.00265802)
(5.78538 -0.145079 -0.00262453)
(5.81502 -0.155041 -0.00271204)
(5.81319 -0.153304 -0.00271717)
(4.51372 0.0165821 -0.00205212)
(4.62292 0.0556599 -0.00272336)
(4.74019 0.091399 -0.00182932)
(4.8939 0.117089 -0.0023479)
(5.03153 0.133437 -0.00179061)
(5.16795 0.144566 -0.0021887)
(5.28359 0.15234 -0.00183662)
(5.3863 0.159063 -0.00209796)
(5.47652 0.164922 -0.00186728)
(5.55469 0.170481 -0.00202251)
(5.62879 0.175309 -0.00188044)
(5.69294 0.179736 -0.00196312)
(5.75759 0.1831 -0.00188932)
(5.8131 0.186538 -0.00192235)
(5.87176 0.187915 -0.00190154)
(5.91956 0.191818 -0.00189889)
(5.97687 0.189032 -0.00192042)
(6.01045 0.198339 -0.00189566)
(6.08114 0.184443 -0.00193112)
(6.07746 0.20941 -0.00196412)
(4.51246 0.0119199 -0.00238497)
(4.61508 -0.00401198 -0.00308541)
(4.73094 -0.023416 -0.00219912)
(4.88294 -0.0448743 -0.00272372)
(5.0197 -0.0639753 -0.00216503)
(5.15599 -0.0817888 -0.00256149)
(5.27272 -0.0973026 -0.00220691)
(5.37765 -0.111069 -0.00246723)
(5.47144 -0.122569 -0.00223544)
(5.55395 -0.132315 -0.00239037)
(5.63384 -0.14031 -0.00224778)
(5.70383 -0.146845 -0.0023303)
(5.77644 -0.152351 -0.00225623)
(5.83838 -0.156587 -0.00228903)
(5.90766 -0.160532 -0.00226831)
(5.96078 -0.163197 -0.00226524)
(6.03302 -0.165954 -0.00228898)
(6.06744 -0.168574 -0.00226243)
(6.16083 -0.167929 -0.00232663)
(6.14897 -0.177552 -0.00234215)
(4.51246 -0.0119201 -0.00238497)
(4.61508 0.00401249 -0.00308541)
(4.73094 0.0234155 -0.00219912)
(4.88294 0.0448755 -0.00272372)
(5.0197 0.0639747 -0.00216503)
(5.15599 0.0817913 -0.00256149)
(5.27272 0.0973027 -0.00220691)
(5.37765 0.111075 -0.00246723)
(5.47143 0.122572 -0.00223543)
(5.55396 0.132329 -0.00239038)
(5.63384 0.14032 -0.00224776)
(5.70383 0.146887 -0.00233033)
(5.77644 0.152374 -0.00225619)
(5.83839 0.156711 -0.00228912)
(5.90766 0.160584 -0.00226819)
(5.9608 0.163536 -0.00226546)
(6.03304 0.166129 -0.00228854)
(6.06751 0.169359 -0.00226279)
(6.16095 0.168651 -0.00232462)
(6.14921 0.179112 -0.00234269)
(4.51372 -0.0165823 -0.00205212)
(4.62292 -0.0556594 -0.00272336)
(4.74019 -0.0913995 -0.00182932)
(4.8939 -0.117088 -0.0023479)
(5.03153 -0.133438 -0.00179061)
(5.16795 -0.144564 -0.0021887)
(5.28359 -0.15234 -0.00183662)
(5.3863 -0.159057 -0.00209796)
(5.47652 -0.16492 -0.00186729)
(5.5547 -0.170466 -0.0020225)
(5.6288 -0.1753 -0.00188046)
(5.69294 -0.179694 -0.00196309)
(5.75762 -0.183079 -0.00188936)
(5.81309 -0.186413 -0.00192226)
(5.87183 -0.187867 -0.00190165)
(5.91957 -0.191484 -0.00189867)
(5.97707 -0.188871 -0.00192081)
(6.01052 -0.197579 -0.00189526)
(6.08158 -0.183774 -0.00193282)
(6.07781 -0.207964 -0.00196359)
(4.51261 -0.044152 -0.00275235)
(4.62175 -0.0508522 -0.00346914)
(4.746 -0.0465934 -0.00256544)
(4.90573 -0.0291044 -0.00309308)
(5.04559 -0.00690512 -0.002538)
(5.17826 0.0182428 -0.00293601)
(5.28533 0.0420907 -0.00258117)
(5.37503 0.0636722 -0.00284034)
(5.4493 0.0813476 -0.0026069)
(5.50904 0.0959697 -0.00276089)
(5.56282 0.1075 -0.00261704)
(5.60548 0.116835 -0.0026992)
(5.647 0.124584 -0.00262425)
(5.67973 0.130569 -0.00265703)
(5.71304 0.136616 -0.00263573)
(5.7391 0.139803 -0.00263226)
(5.76749 0.146524 -0.00265755)
(5.78579 0.145808 -0.00262484)
(5.81594 0.155672 -0.00271013)
(5.81438 0.154778 -0.00271738)
(4.51656 -0.0457277 -0.00173439)
(4.65615 -0.110398 -0.00234136)
(4.78835 -0.162784 -0.00141289)
(4.93698 -0.191297 -0.00193485)
(5.04477 -0.201674 -0.00139376)
(5.12931 -0.202623 -0.00180329)
(5.18015 -0.199402 -0.00145935)
(5.20942 -0.196378 -0.00172356)
(5.22343 -0.194481 -0.00149461)
(5.22378 -0.194025 -0.00165016)
(5.22065 -0.194415 -0.00150843)
(5.20888 -0.195305 -0.00159114)
(5.19819 -0.196025 -0.00151748)
(5.18294 -0.197121 -0.00155056)
(5.16779 -0.196657 -0.00152985)
(5.15487 -0.199036 -0.00152672)
(5.13422 -0.194068 -0.00154903)
(5.13009 -0.203479 -0.00151929)
(5.09917 -0.183751 -0.00154666)
(5.10956 -0.207188 -0.00158045)
(4.54122 -0.0877636 -0.0031687)
(4.67815 -0.119365 -0.00389126)
(4.72068 -0.120763 -0.00293092)
(4.70957 -0.0945626 -0.00344932)
(4.63247 -0.0564274 -0.00290204)
(4.53704 -0.0139961 -0.00330498)
(4.42944 0.024051 -0.00295264)
(4.3243 0.0567568 -0.00321169)
(4.22833 0.0817199 -0.00297715)
(4.1365 0.101584 -0.00313069)
(4.05931 0.116042 -0.00298606)
(3.98317 0.127697 -0.00306849)
(3.92255 0.136215 -0.00299335)
(3.86021 0.143486 -0.00302664)
(3.81301 0.148881 -0.00300559)
(3.76266 0.153524 -0.00300171)
(3.72522 0.157953 -0.00302933)
(3.68821 0.159916 -0.00298688)
(3.65212 0.165931 -0.00307888)
(3.63617 0.171955 -0.00309023)
(4.37876 -0.0970554 -0.0013774)
(3.96786 -0.148974 -0.00192099)
(3.43311 -0.162947 -0.000967082)
(2.95612 -0.156774 -0.00150983)
(2.54384 -0.145209 -0.000986993)
(2.24 -0.136637 -0.00140374)
(2.01548 -0.131642 -0.00106)
(1.86283 -0.131265 -0.0013225)
(1.76003 -0.133624 -0.00109073)
(1.68647 -0.138087 -0.00124502)
(1.64057 -0.143095 -0.00110164)
(1.59966 -0.148484 -0.001184)
(1.5769 -0.153101 -0.00110947)
(1.54943 -0.157957 -0.00114258)
(1.53547 -0.160738 -0.00112168)
(1.51744 -0.165962 -0.00111807)
(1.5011 -0.16448 -0.0011431)
(1.50487 -0.174529 -0.00110482)
(1.45873 -0.160215 -0.00115662)
(1.53658 -0.167372 -0.0011757)
(4.32529 0.565793 -0.00693061)
(3.08019 0.847591 -0.00446358)
(2.31665 0.869399 -0.0057355)
(1.74971 0.852652 -0.00425996)
(1.61165 0.855322 -0.0054055)
(1.40781 0.867216 -0.00423774)
(1.40134 0.877166 -0.00519311)
(1.27974 0.885278 -0.00421283)
(1.28713 0.889509 -0.00499488)
(1.20133 0.893198 -0.00416827)
(1.20963 0.894922 -0.00480977)
(1.14702 0.896994 -0.00411577)
(1.15369 0.897751 -0.00464285)
(1.10608 0.899228 -0.00406206)