/*--------------------------------*- C++ -*----------------------------------*\
  =========                 |
  \\      /  F ield         | OpenFOAM: The Open Source CFD Toolbox
   \\    /   O peration     | Website:  https://openfoam.org
    \\  /    A nd           | Version:  7
     \\/     M anipulation  |
\*---------------------------------------------------------------------------*/
FoamFile
{
    version     2.0;
    format      ascii;
    class       volScalarField;
    location    "0.5";
    object      rho_0;
}
// * * * * * * * * * * * * * * * * * * * * * * * * * * * * * * * * * * * * * //

dimensions      [1 -3 0 0 0 0 0];

internalField   nonuniform List<scalar> 
600
(
1.23039
1.23024
1.23034
1.23052
1.23059
1.23066
1.23049
1.23053
1.23008
1.23092
1.2303
1.23015
1.23034
1.23082
1.23112
1.23146
1.23114
1.23128
1.23016
1.23146
1.23029
1.23012
1.23027
1.23084
1.23129
1.23193
1.23174
1.23195
1.23077
1.23139
1.23028
1.23012
1.23018
1.23071
1.23122
1.232
1.23218
1.23237
1.2317
1.23143
1.23027
1.23013
1.23016
1.2306
1.23115
1.23181
1.23241
1.23251
1.23248
1.23182
1.23027
1.23012
1.2302
1.23053
1.2312
1.23164
1.23249
1.23249
1.23283
1.23227
1.23027
1.23011
1.23021
1.23051
1.23121
1.23162
1.23252
1.23246
1.23285
1.23225
1.23029
1.2301
1.23019
1.23055
1.2312
1.23173
1.2325
1.23239
1.23261
1.23168
1.23029
1.23009
1.23021
1.23065
1.2313
1.23187
1.23235
1.23212
1.23202
1.23101
1.23029
1.2301
1.23028
1.23078
1.23136
1.23179
1.23194
1.23162
1.23129
1.23054
1.2303
1.23013
1.23035
1.23078
1.23116
1.23136
1.23129
1.23099
1.23068
1.23032
1.23038
1.23023
1.23034
1.2305
1.2306
1.23062
1.23054
1.23041
1.23029
1.2302
1.21695
1.20975
1.20421
1.20045
1.19848
1.19767
1.19738
1.19727
1.19722
1.19718
1.19715
1.19712
1.19709
1.19707
1.19705
1.19703
1.19702
1.197
1.19699
1.19698
1.19697
1.19696
1.19696
1.19695
1.19693
1.19692
1.19691
1.1969
1.19688
1.19687
1.19685
1.19683
1.19681
1.1968
1.19677
1.19676
1.19671
1.19671
1.19666
1.19666
1.22256
1.21562
1.21021
1.20628
1.20411
1.20316
1.20281
1.20268
1.20262
1.20257
1.20253
1.20249
1.20246
1.20243
1.2024
1.20237
1.20235
1.20233
1.20231
1.20229
1.20228
1.20226
1.20224
1.20223
1.20221
1.20219
1.20217
1.20215
1.20212
1.2021
1.20208
1.20205
1.20202
1.202
1.20196
1.20194
1.20189
1.20188
1.20182
1.20181
1.22614
1.22024
1.21521
1.21117
1.20875
1.20762
1.20717
1.20699
1.20691
1.20684
1.20679
1.20674
1.20669
1.20665
1.20661
1.20657
1.20654
1.2065
1.20647
1.20645
1.20642
1.20639
1.20637
1.20634
1.20631
1.20628
1.20626
1.20623
1.2062
1.20616
1.20613
1.2061
1.20606
1.20603
1.20599
1.20596
1.2059
1.20588
1.20582
1.2058
1.22835
1.22404
1.21972
1.21573
1.21309
1.21176
1.2112
1.21098
1.21086
1.21078
1.21071
1.21064
1.21058
1.21052
1.21047
1.21042
1.21037
1.21033
1.21028
1.21024
1.2102
1.21017
1.21013
1.21009
1.21005
1.21001
1.20998
1.20994
1.2099
1.20986
1.20982
1.20977
1.20973
1.20969
1.20964
1.2096
1.20954
1.20951
1.20944
1.20941
1.22958
1.22696
1.22369
1.22
1.21726
1.21577
1.21512
1.21484
1.2147
1.2146
1.21451
1.21443
1.21436
1.21428
1.21422
1.21415
1.21409
1.21403
1.21398
1.21393
1.21388
1.21383
1.21378
1.21373
1.21368
1.21363
1.21358
1.21353
1.21348
1.21343
1.21338
1.21333
1.21328
1.21323
1.21317
1.21312
1.21306
1.21301
1.21294
1.2129
1.23012
1.22901
1.22693
1.22377
1.22114
1.21962
1.21891
1.2186
1.21845
1.21833
1.21823
1.21814
1.21805
1.21797
1.21789
1.21782
1.21775
1.21768
1.21761
1.21755
1.21748
1.21742
1.21736
1.21731
1.21725
1.21719
1.21713
1.21707
1.21701
1.21695
1.21689
1.21683
1.21677
1.21671
1.21664
1.21659
1.21652
1.21646
1.21639
1.21633
1.2302
1.23019
1.22912
1.22662
1.22432
1.22292
1.22224
1.22194
1.22178
1.22166
1.22155
1.22145
1.22136
1.22127
1.22118
1.2211
1.22102
1.22095
1.22087
1.2208
1.22073
1.22066
1.2206
1.22053
1.22046
1.2204
1.22033
1.22027
1.2202
1.22013
1.22007
1.22
1.21993
1.21986
1.21979
1.21973
1.21965
1.21959
1.21952
1.21945
1.23013
1.23073
1.23022
1.2283
1.22643
1.22527
1.2247
1.22443
1.22428
1.22416
1.22405
1.22395
1.22385
1.22376
1.22367
1.22359
1.22351
1.22343
1.22335
1.22328
1.22321
1.22314
1.22307
1.223
1.22293
1.22286
1.2228
1.22273
1.22266
1.22259
1.22252
1.22245
1.22238
1.22231
1.22224
1.22217
1.2221
1.22203
1.22196
1.22188
1.23011
1.2309
1.23061
1.22914
1.2277
1.22681
1.22636
1.22613
1.22598
1.22587
1.22576
1.22566
1.22557
1.22548
1.22539
1.22531
1.22523
1.22515
1.22508
1.22501
1.22494
1.22487
1.2248
1.22474
1.22467
1.2246
1.22454
1.22447
1.22441
1.22434
1.22427
1.2242
1.22413
1.22407
1.224
1.22393
1.22386
1.22379
1.22372
1.22365
1.23015
1.23083
1.2306
1.22951
1.22846
1.22782
1.22748
1.22729
1.22716
1.22705
1.22695
1.22685
1.22676
1.22667
1.22659
1.22652
1.22644
1.22637
1.2263
1.22623
1.22617
1.22611
1.22604
1.22598
1.22592
1.22586
1.2258
1.22574
1.22567
1.22561
1.22555
1.22548
1.22542
1.22535
1.22529
1.22523
1.22516
1.2251
1.22503
1.22496
1.23016
1.2306
1.23039
1.22965
1.22897
1.22854
1.2283
1.22815
1.22804
1.22793
1.22784
1.22775
1.22766
1.22758
1.22751
1.22744
1.22737
1.2273
1.22724
1.22718
1.22712
1.22707
1.22701
1.22696
1.2269
1.22684
1.22679
1.22673
1.22668
1.22662
1.22656
1.2265
1.22644
1.22639
1.22633
1.22627
1.22621
1.22615
1.22609
1.22602
1.23018
1.23026
1.23011
1.22977
1.22946
1.22924
1.22909
1.22897
1.22887
1.22878
1.22869
1.2286
1.22853
1.22845
1.22839
1.22832
1.22827
1.22821
1.22816
1.2281
1.22805
1.228
1.22796
1.22791
1.22786
1.22781
1.22776
1.22771
1.22766
1.22761
1.22756
1.22751
1.22745
1.2274
1.22735
1.22729
1.22724
1.22718
1.22713
1.22707
)
;

boundaryField
{
    upperWall
    {
        type            calculated;
        value           nonuniform List<scalar> 
50
(
1.23059
1.23049
1.23047
1.23045
1.23044
1.23042
1.2304
1.23039
1.23038
1.23036
1.23032
1.23019
1.23008
1.22996
1.22984
1.22973
1.22962
1.22951
1.22941
1.22931
1.22922
1.22914
1.22906
1.22898
1.22892
1.22885
1.2288
1.22874
1.22869
1.22864
1.22859
1.22854
1.2285
1.22845
1.22841
1.22836
1.22831
1.22827
1.22822
1.22817
1.22812
1.22807
1.22802
1.22796
1.22791
1.22786
1.2278
1.22775
1.22769
1.22764
)
;
    }
    lowerWall
    {
        type            calculated;
        value           nonuniform List<scalar> 10(1.2306 1.2305 1.23049 1.23047 1.23045 1.23043 1.23042 1.2304 1.23039 1.23038);
    }
    heatedWall
    {
        type            calculated;
        value           nonuniform List<scalar> 
40
(
1.21321
1.20628
1.20073
1.19699
1.19502
1.1942
1.1939
1.19379
1.19373
1.19368
1.19364
1.19361
1.19358
1.19356
1.19353
1.19352
1.1935
1.19349
1.19348
1.19347
1.19346
1.19346
1.19345
1.19344
1.19344
1.19343
1.19342
1.19341
1.1934
1.19339
1.19338
1.19336
1.19335
1.19334
1.19331
1.19331
1.19327
1.19327
1.19322
1.19324
)
;
    }
    inlet
    {
        type            calculated;
        value           nonuniform List<scalar> 
12
(
1.2306
1.2306
1.23059
1.23059
1.23059
1.23058
1.23058
1.23058
1.23058
1.23058
1.23058
1.23059
)
;
    }
    outlet
    {
        type            calculated;
        value           nonuniform List<scalar> 
12
(
1.19663
1.20178
1.20577
1.20938
1.21287
1.2163
1.21942
1.22185
1.22362
1.22493
1.226
1.22704
)
;
    }
    frontAndBack
    {
        type            empty;
    }
}


// ************************************************************************* //
