/*--------------------------------*- C++ -*----------------------------------*\
  =========                 |
  \\      /  F ield         | OpenFOAM: The Open Source CFD Toolbox
   \\    /   O peration     | Website:  https://openfoam.org
    \\  /    A nd           | Version:  7
     \\/     M anipulation  |
\*---------------------------------------------------------------------------*/
FoamFile
{
    version     2.0;
    format      ascii;
    class       volScalarField;
    location    "0.285";
    object      nut;
}
// * * * * * * * * * * * * * * * * * * * * * * * * * * * * * * * * * * * * * //

dimensions      [0 2 -1 0 0 0 0];

internalField   nonuniform List<scalar> 
400
(
3.36388e-07
2.87022e-07
2.10914e-07
1.66771e-07
1.39163e-07
1.19886e-07
1.05607e-07
9.4852e-08
8.6749e-08
8.0666e-08
7.61289e-08
7.27658e-08
7.029e-08
6.84838e-08
6.71835e-08
6.6268e-08
6.56506e-08
6.5274e-08
6.5107e-08
6.51287e-08
2.80503e-07
3.19998e-07
3.0843e-07
2.74019e-07
2.37264e-07
2.06631e-07
1.82608e-07
1.64214e-07
1.503e-07
1.39858e-07
1.32078e-07
1.26314e-07
1.22064e-07
1.18948e-07
1.16675e-07
1.15034e-07
1.13868e-07
1.13075e-07
1.1262e-07
1.12402e-07
2.35564e-07
2.95067e-07
3.10444e-07
3.04556e-07
2.84091e-07
2.56881e-07
2.3168e-07
2.10622e-07
1.93906e-07
1.81008e-07
1.71222e-07
1.63876e-07
1.58393e-07
1.54317e-07
1.51289e-07
1.49037e-07
1.47366e-07
1.46147e-07
1.45334e-07
1.44804e-07
2.17896e-07
2.53866e-07
2.8818e-07
2.97168e-07
2.92208e-07
2.78379e-07
2.59584e-07
2.41126e-07
2.24969e-07
2.11696e-07
2.01198e-07
1.9308e-07
1.86878e-07
1.82169e-07
1.78592e-07
1.75862e-07
1.73769e-07
1.72177e-07
1.7103e-07
1.70188e-07
2.12255e-07
2.27303e-07
2.54598e-07
2.73719e-07
2.80048e-07
2.76152e-07
2.66502e-07
2.54341e-07
2.41957e-07
2.30718e-07
2.21215e-07
2.13505e-07
2.07412e-07
2.0265e-07
1.98934e-07
1.9603e-07
1.93748e-07
1.91969e-07
1.90633e-07
1.8957e-07
2.10359e-07
2.15517e-07
2.29424e-07
2.45856e-07
2.56288e-07
2.60463e-07
2.58528e-07
2.5248e-07
2.44611e-07
2.36888e-07
2.29809e-07
2.23674e-07
2.18548e-07
2.14392e-07
2.11075e-07
2.08446e-07
2.06361e-07
2.04723e-07
2.03481e-07
2.02439e-07
2.09534e-07
2.10649e-07
2.15548e-07
2.25191e-07
2.33795e-07
2.39326e-07
2.40882e-07
2.40059e-07
2.37227e-07
2.32639e-07
2.27973e-07
2.23762e-07
2.202e-07
2.17208e-07
2.14734e-07
2.12731e-07
2.11134e-07
2.09884e-07
2.08951e-07
2.08181e-07
2.09088e-07
2.08425e-07
2.09445e-07
2.12763e-07
2.17593e-07
2.21486e-07
2.2351e-07
2.23613e-07
2.22928e-07
2.21233e-07
2.18958e-07
2.16637e-07
2.14491e-07
2.12685e-07
2.11247e-07
2.10139e-07
2.09327e-07
2.08761e-07
2.08404e-07
2.08243e-07
2.09249e-07
2.0741e-07
2.06735e-07
2.0711e-07
2.08264e-07
2.09673e-07
2.1038e-07
2.10232e-07
2.09703e-07
2.08652e-07
2.07398e-07
2.06155e-07
2.05063e-07
2.04213e-07
2.03659e-07
2.03345e-07
2.03314e-07
2.03439e-07
2.03729e-07
2.04388e-07
2.09474e-07
2.0747e-07
2.05921e-07
2.04833e-07
2.04088e-07
2.03509e-07
2.02769e-07
2.01733e-07
2.00568e-07
1.99341e-07
1.98186e-07
1.97219e-07
1.96522e-07
1.96149e-07
1.96161e-07
1.96368e-07
1.96889e-07
1.97831e-07
1.98753e-07
2.00529e-07
2.09825e-07
2.07923e-07
2.06114e-07
2.04546e-07
2.02944e-07
2.01323e-07
1.99653e-07
1.97933e-07
1.96258e-07
1.94727e-07
1.93451e-07
1.92507e-07
1.91978e-07
1.92007e-07
1.92325e-07
1.93098e-07
1.94288e-07
1.95961e-07
1.97456e-07
2.00231e-07
2.10044e-07
2.08694e-07
2.06959e-07
2.052e-07
2.03395e-07
2.01566e-07
1.99735e-07
1.97938e-07
1.96256e-07
1.94817e-07
1.93759e-07
1.93137e-07
1.9321e-07
1.93684e-07
1.94767e-07
1.96484e-07
1.98554e-07
2.01188e-07
2.0342e-07
2.07324e-07
2.10417e-07
2.10015e-07
2.08879e-07
2.07075e-07
2.05235e-07
2.03498e-07
2.01983e-07
2.00708e-07
1.99732e-07
1.99302e-07
1.99482e-07
2.0016e-07
2.01622e-07
2.03781e-07
2.06479e-07
2.09653e-07
2.13033e-07
2.1683e-07
2.19929e-07
2.24755e-07
2.11786e-07
2.12041e-07
2.1158e-07
2.1053e-07
2.09341e-07
2.08488e-07
2.08417e-07
2.08783e-07
2.09784e-07
2.11721e-07
2.14486e-07
2.1794e-07
2.21975e-07
2.26453e-07
2.3121e-07
2.36093e-07
2.40854e-07
2.45625e-07
2.49442e-07
2.54592e-07
2.13497e-07
2.15653e-07
2.16261e-07
2.16869e-07
2.17958e-07
2.19997e-07
2.23325e-07
2.27777e-07
2.33195e-07
2.39427e-07
2.46139e-07
2.53073e-07
2.60024e-07
2.66825e-07
2.73367e-07
2.79506e-07
2.85142e-07
2.90289e-07
2.94383e-07
2.99074e-07
2.16429e-07
2.21792e-07
2.26162e-07
2.31746e-07
2.39079e-07
2.48263e-07
2.58875e-07
2.70282e-07
2.81674e-07
2.92753e-07
3.03278e-07
3.13086e-07
3.22095e-07
3.30297e-07
3.37712e-07
3.4425e-07
3.49999e-07
3.54791e-07
3.58563e-07
3.6189e-07
2.22606e-07
2.36354e-07
2.51763e-07
2.71042e-07
2.92326e-07
3.14194e-07
3.34448e-07
3.5219e-07
3.67812e-07
3.82125e-07
3.94842e-07
4.05919e-07
4.15437e-07
4.23582e-07
4.3037e-07
4.35779e-07
4.40102e-07
4.42877e-07
4.44753e-07
4.4466e-07
2.42092e-07
2.88614e-07
3.33431e-07
3.76428e-07
4.13583e-07
4.43645e-07
4.67633e-07
4.86703e-07
5.03608e-07
5.19121e-07
5.30596e-07
5.38713e-07
5.44173e-07
5.47528e-07
5.48627e-07
5.48089e-07
5.46381e-07
5.42662e-07
5.38684e-07
5.30547e-07
3.30798e-07
4.41367e-07
5.29018e-07
5.87007e-07
6.25462e-07
6.51698e-07
6.6789e-07
6.77925e-07
6.78388e-07
6.75852e-07
6.70228e-07
6.62605e-07
6.53398e-07
6.42841e-07
6.31144e-07
6.18529e-07
6.05596e-07
5.91911e-07
5.79495e-07
5.63762e-07
6.26501e-07
7.99244e-07
8.52246e-07
8.62839e-07
8.55247e-07
8.33662e-07
7.99026e-07
7.59973e-07
7.19592e-07
6.80853e-07
6.44518e-07
6.11252e-07
5.8112e-07
5.53836e-07
5.29055e-07
5.06444e-07
4.85939e-07
4.67014e-07
4.50713e-07
4.3399e-07
)
;

boundaryField
{
    upperWall
    {
        type            zeroGradient;
    }
    lowerWall
    {
        type            zeroGradient;
    }
    inlet
    {
        type            zeroGradient;
    }
    outlet
    {
        type            zeroGradient;
    }
    frontAndBack
    {
        type            empty;
    }
}


// ************************************************************************* //
