/*--------------------------------*- C++ -*----------------------------------*\
  =========                 |
  \\      /  F ield         | OpenFOAM: The Open Source CFD Toolbox
   \\    /   O peration     | Website:  https://openfoam.org
    \\  /    A nd           | Version:  7
     \\/     M anipulation  |
\*---------------------------------------------------------------------------*/
FoamFile
{
    version     2.0;
    format      ascii;
    class       volScalarField;
    location    "0.0475";
    object      k;
}
// * * * * * * * * * * * * * * * * * * * * * * * * * * * * * * * * * * * * * //

dimensions      [0 2 -2 0 0 0 0];

internalField   nonuniform List<scalar> 
1080
(
0.342891
1.88825
4.45757
6.88205
8.59621
9.58587
9.89939
9.81437
9.55077
9.0848
8.58295
8.09371
7.64118
7.23644
6.88108
6.57305
6.30721
6.07785
5.87912
5.70593
5.55375
5.41877
5.29779
5.1883
5.08837
4.9967
4.91248
4.83494
4.76348
4.69762
4.63687
4.58082
4.52915
4.48168
4.43836
4.39909
4.36437
4.33342
4.3087
4.28656
0.00187212
0.0395666
0.184036
0.512123
1.03137
1.59
2.09168
2.48217
2.77672
2.97212
3.09439
3.16382
3.19562
3.20377
3.20131
3.19468
3.18488
3.17453
3.16408
3.15415
3.14509
3.13666
3.12847
3.11983
3.10962
3.09729
3.08321
3.06806
3.05315
3.03943
3.02705
3.01617
3.00702
2.99966
2.99377
2.98852
2.98317
2.97772
2.97333
2.97065
2.31482e-05
0.000266019
0.00219603
0.00978612
0.0293601
0.0703498
0.132047
0.208631
0.294244
0.37539
0.448362
0.514233
0.572301
0.621267
0.658777
0.685028
0.705025
0.725541
0.749195
0.773041
0.79262
0.806076
0.814543
0.819998
0.823478
0.825011
0.825034
0.822581
0.811692
0.793179
0.774466
0.757078
0.742031
0.729645
0.720039
0.713378
0.708984
0.706627
0.705555
0.70365
2.00846e-05
2.13802e-05
3.61863e-05
0.000123586
0.000448414
0.00134781
0.0033702
0.00670468
0.0127994
0.0208855
0.0287909
0.0364391
0.0462463
0.0585995
0.0697519
0.0762562
0.0795707
0.0844595
0.093887
0.106186
0.117234
0.124109
0.126763
0.127143
0.127026
0.126515
0.124845
0.119969
0.109553
0.0978109
0.0861321
0.0753878
0.0660735
0.0583168
0.0520187
0.0469939
0.0430087
0.039844
0.037253
0.0349167
2.00302e-05
2.02847e-05
2.10315e-05
2.28657e-05
2.76886e-05
4.05399e-05
7.17296e-05
0.000136443
0.000265061
0.000550281
0.000867884
0.0011141
0.00153207
0.00235448
0.00319917
0.00371629
0.00395612
0.00421575
0.00478082
0.00620208
0.00776085
0.00873907
0.00910022
0.00914053
0.00911654
0.00902416
0.00873916
0.00791253
0.00657195
0.00523332
0.00403244
0.00303808
0.00226431
0.0016889
0.00127311
0.0009771
0.000766501
0.000614322
0.00050033
0.000409655
2.00165e-05
2.02109e-05
2.07991e-05
2.19429e-05
2.39931e-05
2.75215e-05
3.08405e-05
3.35376e-05
3.86588e-05
4.81763e-05
5.60629e-05
6.07852e-05
6.80048e-05
8.61314e-05
0.000110313
0.000124745
0.000130547
0.000135952
0.000148202
0.000186149
0.000244287
0.000280024
0.000292158
0.000293127
0.000291845
0.000286927
0.0002718
0.000230678
0.000178084
0.000130016
9.03799e-05
6.0338e-05
3.90664e-05
2.48087e-05
1.56458e-05
9.93353e-06
6.43387e-06
4.29324e-06
2.96175e-06
2.10311e-06
2.00165e-05
2.02109e-05
2.07992e-05
2.19429e-05
2.39932e-05
2.75214e-05
3.08403e-05
3.35376e-05
3.86597e-05
4.81765e-05
5.60614e-05
6.07836e-05
6.80061e-05
8.61394e-05
0.000110313
0.000124734
0.000130532
0.000135943
0.000148209
0.0001862
0.000244332
0.000280043
0.000292159
0.00029312
0.000291832
0.000286897
0.000271729
0.000230528
0.000177948
0.00012992
9.03142e-05
6.02719e-05
3.89919e-05
2.4735e-05
1.55849e-05
9.8859e-06
6.39672e-06
4.26315e-06
2.93357e-06
2.07899e-06
2.00302e-05
2.02847e-05
2.10315e-05
2.28656e-05
2.76886e-05
4.05395e-05
7.17299e-05
0.000136444
0.000265067
0.000550301
0.000867853
0.00111406
0.00153218
0.00235463
0.00319912
0.003716
0.00395577
0.00421559
0.00478119
0.00620327
0.00776176
0.00873952
0.0091003
0.00914046
0.00911637
0.00902368
0.00873781
0.00790805
0.00656808
0.00523238
0.00403307
0.00303721
0.00226081
0.00168482
0.00126993
0.000974512
0.000764378
0.000612513
0.000497947
0.000407302
2.00846e-05
2.13802e-05
3.61863e-05
0.000123585
0.000448411
0.0013478
0.00337025
0.00670451
0.0127995
0.0208859
0.0287908
0.0364387
0.0462471
0.0586007
0.0697514
0.076254
0.0795685
0.0844601
0.0938915
0.106192
0.117238
0.124111
0.126764
0.127144
0.127026
0.126512
0.124836
0.119915
0.109515
0.0978494
0.0861987
0.0753918
0.0659776
0.0582312
0.0519861
0.0469609
0.0429816
0.0398318
0.0371948
0.034848
2.31482e-05
0.000266019
0.00219603
0.00978611
0.0293601
0.0703495
0.132047
0.208631
0.294244
0.37539
0.448363
0.514233
0.572302
0.621267
0.658776
0.68503
0.705022
0.725541
0.74921
0.773045
0.792614
0.806084
0.814558
0.819996
0.82346
0.824988
0.825005
0.822495
0.811655
0.793556
0.774775
0.756791
0.741172
0.72944
0.720443
0.713364
0.708931
0.706793
0.705249
0.703339
0.00187212
0.0395667
0.184036
0.512123
1.03137
1.59
2.09168
2.48217
2.77672
2.97213
3.09439
3.16382
3.19562
3.20377
3.20131
3.19469
3.18486
3.17454
3.16412
3.15412
3.14501
3.13671
3.1286
3.11976
3.10941
3.09726
3.08334
3.06836
3.05334
3.03903
3.02617
3.01559
3.00749
3.00081
2.99447
2.98851
2.98297
2.97835
2.97483
2.97193
0.342891
1.88825
4.45757
6.88205
8.59621
9.58587
9.89939
9.81437
9.55077
9.0848
8.58295
8.09371
7.64117
7.23644
6.88108
6.57304
6.3072
6.07784
5.87911
5.70592
5.55373
5.41874
5.29776
5.18829
5.08836
4.99671
4.91249
4.83494
4.76343
4.69754
4.63687
4.58095
4.52942
4.48202
4.43875
4.39966
4.36475
4.33483
4.30916
4.28789
4.27068
4.25883
4.25048
4.24507
4.2418
4.24024
4.23981
4.24053
4.24058
4.24466
2.96825
2.96529
2.96189
2.95876
2.95669
2.95574
2.95575
2.95604
2.95729
2.95802
0.700467
0.697031
0.694214
0.692078
0.690639
0.689624
0.688093
0.68503
0.681248
0.680321
0.032723
0.0307074
0.0289935
0.0275617
0.0264346
0.0256949
0.0252479
0.0248915
0.0245218
0.0243433
0.000335123
0.000273596
0.000224319
0.000185703
0.000157039
0.000137381
0.000124983
0.000117875
0.000115322
0.000116327
1.53251e-06
1.14615e-06
8.86763e-07
7.14935e-07
6.05323e-07
5.38453e-07
4.99645e-07
4.7767e-07
4.66042e-07
4.62904e-07
1.51176e-06
1.12895e-06
8.70586e-07
6.99435e-07
5.89853e-07
5.23215e-07
4.84555e-07
4.65375e-07
4.59987e-07
4.5866e-07
0.000333275
0.000272423
0.000223053
0.000184309
0.000155295
0.000134602
0.000120968
0.000113968
0.000113164
0.00011605
0.0327083
0.0307725
0.0290813
0.0276759
0.0265749
0.0257071
0.0249901
0.0244791
0.0243078
0.0244563
0.700936
0.698222
0.69597
0.694548
0.692755
0.68932
0.684799
0.682358
0.681711
0.680865
2.9692
2.96662
2.96389
2.96089
2.95815
2.95667
2.95678
2.95885
2.96144
2.96346
4.27152
4.25908
4.24878
4.24121
4.2368
4.23436
4.23343
4.23333
4.23364
4.23324
4.24315
4.23878
4.234
4.23091
4.22842
4.22521
4.22241
4.2199
4.2167
4.21394
4.21294
4.21087
4.20798
4.2076
4.20556
4.20062
4.19714
4.19545
4.1955
4.19493
4.19211
4.18774
4.18681
4.18451
4.18158
4.1816
4.18006
4.1766
4.17443
4.17481
4.17247
4.16836
4.16677
4.16573
4.16311
4.16108
4.15934
4.15857
4.15697
4.15448
2.95955
2.96189
2.96449
2.96716
2.96948
2.97122
2.97233
2.97296
2.97337
2.97356
2.97349
2.9728
2.97071
2.96818
2.96645
2.96552
2.96461
2.96351
2.96291
2.96284
2.9627
2.96252
2.96261
2.96309
2.96455
2.96754
2.96946
2.97013
2.97041
2.97103
2.9725
2.97296
2.97301
2.97304
2.97333
2.97451
2.97532
2.97541
2.97543
2.97537
0.683709
0.686253
0.686179
0.68582
0.685846
0.689128
0.693135
0.694959
0.695121
0.696209
0.700067
0.7005
0.699937
0.700079
0.701754
0.707331
0.708235
0.70815
0.708049
0.707544
0.709853
0.712335
0.712235
0.711738
0.711764
0.716423
0.721144
0.721046
0.721348
0.724103
0.730578
0.73197
0.732581
0.733191
0.733029
0.733685
0.736734
0.745077
0.7483
0.747578
0.0244761
0.0250745
0.0254802
0.0256945
0.0259443
0.0262538
0.0265204
0.0267452
0.0269706
0.0272515
0.0274862
0.0276041
0.0276206
0.0276208
0.0276189
0.0275409
0.0272802
0.0272213
0.0273025
0.0272671
0.0273057
0.02768
0.0279677
0.0279404
0.0279717
0.0282081
0.0288945
0.0289937
0.0289443
0.0289227
0.0289714
0.0294295
0.0298099
0.0298896
0.0298731
0.0298042
0.0298222
0.0299509
0.0303577
0.0309015
0.000120753
0.000126338
0.000131657
0.000137143
0.000143317
0.000150135
0.000157191
0.000164275
0.000171346
0.000178664
0.000185218
0.000188976
0.000189836
0.000188282
0.000181587
0.000170252
0.000158399
0.000149797
0.000144997
0.000143858
0.000146621
0.000152772
0.000156169
0.000157131
0.00015721
0.000158216
0.000161507
0.000161623
0.000161336
0.000160825
0.000159772
0.000160563
0.000165017
0.000166075
0.000165996
0.000165649
0.000166152
0.000167244
0.000171557
0.000174987
4.64013e-07
4.69908e-07
4.85272e-07
5.05472e-07
5.27168e-07
5.50499e-07
5.74798e-07
5.9848e-07
6.20294e-07
6.40267e-07
6.55659e-07
6.61795e-07
6.59335e-07
6.40128e-07
6.00333e-07
5.5466e-07
5.11754e-07
4.79453e-07
4.58609e-07
4.49601e-07
4.50974e-07
4.5703e-07
4.57835e-07
4.57684e-07
4.572e-07
4.55766e-07
4.54378e-07
4.52313e-07
4.50609e-07
4.49338e-07
4.46979e-07
4.46406e-07
4.48515e-07
4.49221e-07
4.49231e-07
4.48772e-07
4.49463e-07
4.48616e-07
4.50644e-07
4.4946e-07
4.58445e-07
4.59899e-07
4.66086e-07
4.80932e-07
4.9963e-07
5.21462e-07
5.46232e-07
5.72604e-07
5.99786e-07
6.26914e-07
6.49193e-07
6.61892e-07
6.64628e-07
6.57234e-07
6.29688e-07
5.91087e-07
5.50854e-07
5.1403e-07
4.86903e-07
4.73547e-07
4.66524e-07
4.66216e-07
4.68837e-07
4.69584e-07
4.6907e-07
4.67376e-07
4.64219e-07
4.60921e-07
4.57757e-07
4.55354e-07
4.53911e-07
4.52141e-07
4.50808e-07
4.52902e-07
4.58253e-07
4.576e-07
4.57677e-07
4.57579e-07
4.57525e-07
4.50602e-07
0.000120421
0.000124073
0.000127771
0.000132028
0.000137715
0.000144696
0.000152391
0.00016041
0.000168668
0.000177278
0.00018496
0.000189976
0.000191932
0.000191572
0.000187784
0.000179217
0.000168838
0.0001581
0.000149153
0.000145139
0.000145771
0.000152089
0.000160299
0.00016402
0.000164752
0.000164759
0.000164761
0.000164581
0.000163826
0.000161957
0.000160254
0.000160294
0.000162827
0.00017
0.000172955
0.000172587
0.000172664
0.000172293
0.000172303
0.000171288
0.0248049
0.0250565
0.025286
0.0254587
0.025739
0.0261188
0.0264926
0.0268096
0.0270788
0.0273778
0.0276218
0.0277429
0.0279152
0.0279532
0.0279527
0.0279496
0.027861
0.0276245
0.0272452
0.0271073
0.02733
0.0281385
0.0286637
0.0287246
0.0288274
0.0288979
0.0288961
0.0288935
0.0288509
0.0287934
0.0287823
0.0289683
0.0296822
0.0303244
0.03039
0.0304565
0.030545
0.0304725
0.0304526
0.0305253
0.679915
0.680848
0.686429
0.689472
0.691368
0.694938
0.698245
0.698925
0.69828
0.69894
0.700581
0.70098
0.703502
0.707274
0.707479
0.707693
0.707649
0.707404
0.706501
0.706604
0.710998
0.713372
0.712786
0.71373
0.717674
0.717975
0.717422
0.717461
0.71926
0.722687
0.728361
0.735442
0.738518
0.738685
0.738152
0.738569
0.738736
0.738052
0.738651
0.742677
2.96529
2.96709
2.96847
2.96957
2.97149
2.9735
2.97489
2.97561
2.97576
2.97519
2.97292
2.97007
2.96834
2.96699
2.96545
2.96353
2.96144
2.96042
2.96075
2.96241
2.96327
2.96418
2.96491
2.96527
2.96557
2.96589
2.96614
2.96654
2.96765
2.97011
2.97143
2.9718
2.97184
2.97174
2.97137
2.97131
2.97193
2.97385
2.97483
2.97509
4.23137
4.22925
4.22816
4.22684
4.22497
4.22322
4.22155
4.21882
4.21616
4.21391
4.21116
4.20765
4.20602
4.20539
4.20408
4.20083
4.19656
4.19543
4.19433
4.19124
4.18888
4.18721
4.18398
4.18088
4.17865
4.17777
4.17738
4.17697
4.17486
4.17078
4.16907
4.1676
4.16524
4.1629
4.16265
4.16341
4.16142
4.15816
4.15627
4.15481
)
;

boundaryField
{
    upperWall
    {
        type            fixedValue;
        value           uniform 0;
    }
    lowerWall
    {
        type            fixedValue;
        value           uniform 0;
    }
    heatedWall
    {
        type            fixedValue;
        value           uniform 0;
    }
    inlet
    {
        type            fixedValue;
        value           uniform 2e-05;
    }
    outlet
    {
        type            inletOutlet;
        inletValue      uniform 0;
        value           nonuniform List<scalar> 
12
(
4.15448
2.97537
0.747578
0.0309015
0.000174987
4.4946e-07
4.50602e-07
0.000171288
0.0305253
0.742677
2.97509
4.15481
)
;
    }
    frontAndBack
    {
        type            empty;
    }
}


// ************************************************************************* //
