/*--------------------------------*- C++ -*----------------------------------*\
  =========                 |
  \\      /  F ield         | OpenFOAM: The Open Source CFD Toolbox
   \\    /   O peration     | Website:  https://openfoam.org
    \\  /    A nd           | Version:  7
     \\/     M anipulation  |
\*---------------------------------------------------------------------------*/
FoamFile
{
    version     2.0;
    format      ascii;
    class       volSymmTensorField;
    location    "0.1425";
    object      UPrime2Mean;
}
// * * * * * * * * * * * * * * * * * * * * * * * * * * * * * * * * * * * * * //

dimensions      [0 2 -2 0 0 0 0];

internalField   nonuniform List<symmTensor> 
1440
(
(0.0327468 0.000321186 0 4.47834e-06 0 0)
(0.00700197 0.000222434 0 9.29983e-05 0 0)
(0.0170673 -0.000491783 0 0.000351936 0 0)
(0.0261601 -0.000855882 0 0.000799945 0 0)
(0.0357856 -0.00147628 0 0.00139452 0 0)
(0.0494231 -0.00315164 0 0.00202675 0 0)
(0.0689298 -0.00602872 0 0.00256472 0 0)
(0.0956504 -0.00964584 0 0.00290405 0 0)
(0.130593 -0.0133671 0 0.00302531 0 0)
(0.174278 -0.016748 0 0.00295584 0 0)
(0.226558 -0.0195489 0 0.0027539 0 0)
(0.287652 -0.0216935 0 0.00248584 0 0)
(0.356797 -0.0230068 0 0.00217716 0 0)
(0.432327 -0.0234358 0 0.00185816 0 0)
(0.512401 -0.0230315 0 0.00155036 0 0)
(0.595308 -0.0219155 0 0.00126632 0 0)
(0.679569 -0.0202704 0 0.00101365 0 0)
(0.763898 -0.0182893 0 0.000795469 0 0)
(0.847226 -0.0161323 0 0.000611789 0 0)
(0.9287 -0.0139137 0 0.000460818 0 0)
(1.00774 -0.0117097 0 0.000339662 0 0)
(1.08398 -0.0095656 0 0.000245026 0 0)
(1.15718 -0.00750087 0 0.000173528 0 0)
(1.22721 -0.00551949 0 0.000121823 0 0)
(1.294 -0.00362259 0 8.65555e-05 0 0)
(1.35752 -0.00181698 0 6.45105e-05 0 0)
(1.41775 -0.000116454 0 5.26952e-05 0 0)
(1.47475 0.00146209 0 4.84245e-05 0 0)
(1.52857 0.00290206 0 4.94353e-05 0 0)
(1.57934 0.00418844 0 5.39556e-05 0 0)
(1.6272 0.00531266 0 6.06309e-05 0 0)
(1.67232 0.00627147 0 6.84232e-05 0 0)
(1.71492 0.00706703 0 7.65411e-05 0 0)
(1.7552 0.00770762 0 8.43991e-05 0 0)
(1.79339 0.00820634 0 9.15831e-05 0 0)
(1.82972 0.00858086 0 9.78318e-05 0 0)
(1.86438 0.00884949 0 0.000102995 0 0)
(1.89759 0.00902983 0 0.000107008 0 0)
(1.92952 0.00913788 0 0.000109875 0 0)
(1.96033 0.00918723 0 0.000111653 0 0)
(1.99017 0.0091891 0 0.000112438 0 0)
(2.01917 0.00915235 0 0.000112349 0 0)
(2.04745 0.00908377 0 0.000111504 0 0)
(2.0751 0.00898924 0 0.000110024 0 0)
(2.10223 0.00887258 0 0.000108014 0 0)
(2.12891 0.00873724 0 0.000105563 0 0)
(2.15521 0.00858668 0 0.000102751 0 0)
(2.1812 0.00842385 0 9.96601e-05 0 0)
(2.20693 0.00825207 0 9.6375e-05 0 0)
(2.23245 0.00807439 0 9.29727e-05 0 0)
(2.2578 0.00789348 0 8.95179e-05 0 0)
(2.28301 0.00771131 0 8.60593e-05 0 0)
(2.30811 0.00752981 0 8.26361e-05 0 0)
(2.33312 0.00735019 0 7.92751e-05 0 0)
(2.35806 0.00717401 0 7.60006e-05 0 0)
(2.38295 0.00700195 0 7.28295e-05 0 0)
(2.4078 0.00683503 0 6.97725e-05 0 0)
(2.43261 0.00667411 0 6.6841e-05 0 0)
(2.45739 0.00651887 0 6.40396e-05 0 0)
(2.48216 0.00637014 0 6.13732e-05 0 0)
(2.50691 0.00622796 0 5.8844e-05 0 0)
(2.53165 0.00609232 0 5.64526e-05 0 0)
(2.55639 0.00596319 0 5.41982e-05 0 0)
(2.58112 0.00584036 0 5.20777e-05 0 0)
(2.60585 0.00572369 0 5.00875e-05 0 0)
(2.63057 0.00561288 0 4.82217e-05 0 0)
(2.6553 0.00550778 0 4.6475e-05 0 0)
(2.68003 0.00540799 0 4.48402e-05 0 0)
(2.70475 0.0053135 0 4.3311e-05 0 0)
(2.72948 0.00522381 0 4.1881e-05 0 0)
(2.7542 0.00513914 0 4.05435e-05 0 0)
(2.77892 0.00505914 0 3.92924e-05 0 0)
(2.80363 0.00498376 0 3.81214e-05 0 0)
(2.82834 0.00491326 0 3.70265e-05 0 0)
(2.85304 0.00484686 0 3.60013e-05 0 0)
(2.87773 0.00478495 0 3.50417e-05 0 0)
(2.90241 0.00472745 0 3.41437e-05 0 0)
(2.92708 0.00467417 0 3.33036e-05 0 0)
(2.95173 0.00462497 0 3.25174e-05 0 0)
(2.97637 0.00457974 0 3.17824e-05 0 0)
(3.00098 0.00453819 0 3.10949e-05 0 0)
(3.02558 0.00450026 0 3.04523e-05 0 0)
(3.05015 0.00446557 0 2.98512e-05 0 0)
(3.0747 0.00443419 0 2.92894e-05 0 0)
(3.09923 0.00440564 0 2.87641e-05 0 0)
(3.12372 0.00438 0 2.8273e-05 0 0)
(3.14819 0.00435688 0 2.78134e-05 0 0)
(3.17263 0.00433621 0 2.73825e-05 0 0)
(3.19703 0.00431817 0 2.69783e-05 0 0)
(3.2214 0.00430188 0 2.65982e-05 0 0)
(3.24574 0.00428756 0 2.62404e-05 0 0)
(3.27003 0.00427528 0 2.59036e-05 0 0)
(3.2943 0.0042649 0 2.55859e-05 0 0)
(3.31852 0.00425628 0 2.52863e-05 0 0)
(3.34271 0.0042492 0 2.50027e-05 0 0)
(3.36686 0.00424357 0 2.47334e-05 0 0)
(3.39097 0.0042393 0 2.44767e-05 0 0)
(3.41504 0.00423634 0 2.4231e-05 0 0)
(3.43908 0.00423457 0 2.3997e-05 0 0)
(3.46309 0.00423396 0 2.37725e-05 0 0)
(3.48706 0.00423439 0 2.35602e-05 0 0)
(3.51101 0.00423602 0 2.3354e-05 0 0)
(3.53494 0.00423854 0 2.31628e-05 0 0)
(3.55884 0.00424212 0 2.29676e-05 0 0)
(3.58271 0.00424637 0 2.27984e-05 0 0)
(3.60657 0.00425098 0 2.26006e-05 0 0)
(3.63038 0.0042572 0 2.24619e-05 0 0)
(3.65416 0.00426081 0 2.22431e-05 0 0)
(3.67787 0.00427096 0 2.21593e-05 0 0)
(3.70154 0.00427003 0 2.18948e-05 0 0)
(3.72507 0.00428938 0 2.19154e-05 0 0)
(3.74855 0.00427816 0 2.15594e-05 0 0)
(3.77178 0.00431724 0 2.17755e-05 0 0)
(3.79506 0.00428482 0 2.12554e-05 0 0)
(3.81764 0.0043645 0 2.17767e-05 0 0)
(3.84096 0.00429357 0 2.10822e-05 0 0)
(3.86184 0.00445064 0 2.18968e-05 0 0)
(3.88641 0.00435892 0 2.13254e-05 0 0)
(3.90209 0.00461489 0 2.20367e-05 0 0)
(3.93326 0.00482569 0 2.33649e-05 0 0)
(0.0331163 0.000452093 0 9.28318e-06 0 0)
(0.00755769 0.000340019 0 0.00010541 0 0)
(0.016604 4.84325e-05 0 0.000331094 0 0)
(0.0270967 0.000720674 0 0.000707437 0 0)
(0.0397292 0.00202673 0 0.00125472 0 0)
(0.0535357 0.00335388 0 0.00197015 0 0)
(0.0670922 0.00433537 0 0.00280096 0 0)
(0.0805933 0.0048888 0 0.00365271 0 0)
(0.0947333 0.00512632 0 0.00444397 0 0)
(0.109073 0.00512867 0 0.00513556 0 0)
(0.122814 0.0048627 0 0.00571527 0 0)
(0.136003 0.00428968 0 0.00617755 0 0)
(0.149185 0.00347051 0 0.00651236 0 0)
(0.162658 0.0025212 0 0.00671009 0 0)
(0.176488 0.00155339 0 0.00676968 0 0)
(0.190765 0.000646738 0 0.00670328 0 0)
(0.205635 -0.000170466 0 0.00653195 0 0)
(0.221221 -0.000912603 0 0.00627776 0 0)
(0.237583 -0.00160898 0 0.00596086 0 0)
(0.254727 -0.00229026 0 0.00559799 0 0)
(0.272641 -0.00298391 0 0.00520345 0 0)
(0.291327 -0.00371016 0 0.00479057 0 0)
(0.310817 -0.00447091 0 0.00437083 0 0)
(0.331158 -0.0052473 0 0.00395523 0 0)
(0.352399 -0.00600621 0 0.00355337 0 0)
(0.374587 -0.00671085 0 0.00317258 0 0)
(0.397759 -0.00732848 0 0.00281786 0 0)
(0.421934 -0.00783435 0 0.0024922 0 0)
(0.447109 -0.00821367 0 0.00219695 0 0)
(0.473259 -0.00846329 0 0.00193219 0 0)
(0.500341 -0.00859071 0 0.00169684 0 0)
(0.528297 -0.00861066 0 0.00148902 0 0)
(0.557061 -0.00854185 0 0.00130636 0 0)
(0.586569 -0.00840411 0 0.00114634 0 0)
(0.616757 -0.00821627 0 0.00100644 0 0)
(0.647567 -0.00799465 0 0.000884283 0 0)
(0.678946 -0.00775237 0 0.000777702 0 0)
(0.710852 -0.0074991 0 0.000684761 0 0)
(0.743246 -0.00724141 0 0.000603759 0 0)
(0.776097 -0.00698339 0 0.000533206 0 0)
(0.80938 -0.00672757 0 0.000471793 0 0)
(0.843071 -0.0064755 0 0.00041836 0 0)
(0.877151 -0.00622821 0 0.000371884 0 0)
(0.911602 -0.00598627 0 0.000331454 0 0)
(0.946404 -0.00575002 0 0.000296268 0 0)
(0.981542 -0.00551954 0 0.000265623 0 0)
(1.017 -0.00529484 0 0.000238926 0 0)
(1.05276 -0.00507571 0 0.000215656 0 0)
(1.08881 -0.0048616 0 0.000195349 0 0)
(1.12513 -0.0046518 0 0.000177599 0 0)
(1.16169 -0.00444549 0 0.000162053 0 0)
(1.19849 -0.00424194 0 0.000148405 0 0)
(1.2355 -0.00404049 0 0.000136392 0 0)
(1.2727 -0.00384069 0 0.00012579 0 0)
(1.31006 -0.00364229 0 0.000116402 0 0)
(1.34758 -0.00344515 0 0.00010806 0 0)
(1.38523 -0.00324926 0 0.00010062 0 0)
(1.42299 -0.00305463 0 9.39565e-05 0 0)
(1.46085 -0.0028614 0 8.79642e-05 0 0)
(1.4988 -0.00266973 0 8.25557e-05 0 0)
(1.53682 -0.00247972 0 7.76571e-05 0 0)
(1.57489 -0.00229136 0 7.3205e-05 0 0)
(1.61302 -0.00210456 0 6.91457e-05 0 0)
(1.65119 -0.0019191 0 6.54331e-05 0 0)
(1.68939 -0.00173468 0 6.20291e-05 0 0)
(1.72762 -0.00155098 0 5.89015e-05 0 0)
(1.76587 -0.00136768 0 5.60236e-05 0 0)
(1.80412 -0.00118454 0 5.3373e-05 0 0)
(1.84238 -0.00100136 0 5.09313e-05 0 0)
(1.88064 -0.000818059 0 4.86828e-05 0 0)
(1.91888 -0.000634666 0 4.6614e-05 0 0)
(1.95711 -0.000451266 0 4.47133e-05 0 0)
(1.99531 -0.000268074 0 4.29707e-05 0 0)
(2.03347 -8.52765e-05 0 4.13765e-05 0 0)
(2.0716 9.68158e-05 0 3.99222e-05 0 0)
(2.10968 0.000277938 0 3.85991e-05 0 0)
(2.14772 0.000457851 0 3.73991e-05 0 0)
(2.1857 0.000636386 0 3.6314e-05 0 0)
(2.22362 0.000813318 0 3.53364e-05 0 0)
(2.26147 0.0009885 0 3.44587e-05 0 0)
(2.29926 0.00116175 0 3.36739e-05 0 0)
(2.33698 0.00133297 0 3.2975e-05 0 0)
(2.37462 0.00150203 0 3.23555e-05 0 0)
(2.41219 0.00166887 0 3.18089e-05 0 0)
(2.44968 0.00183342 0 3.13296e-05 0 0)
(2.48709 0.00199563 0 3.09118e-05 0 0)
(2.52442 0.00215546 0 3.05502e-05 0 0)
(2.56166 0.00231284 0 3.024e-05 0 0)
(2.59881 0.00246776 0 2.99764e-05 0 0)
(2.63588 0.00262019 0 2.97548e-05 0 0)
(2.67285 0.0027701 0 2.95714e-05 0 0)
(2.70974 0.00291752 0 2.94221e-05 0 0)
(2.74653 0.00306255 0 2.93036e-05 0 0)
(2.78323 0.00320515 0 2.92127e-05 0 0)
(2.81984 0.00334538 0 2.91469e-05 0 0)
(2.85635 0.00348308 0 2.91034e-05 0 0)
(2.89277 0.00361833 0 2.90797e-05 0 0)
(2.9291 0.00375096 0 2.90734e-05 0 0)
(2.96535 0.00388119 0 2.90829e-05 0 0)
(3.0015 0.00400874 0 2.91058e-05 0 0)
(3.03757 0.00413408 0 2.9143e-05 0 0)
(3.07356 0.00425656 0 2.91896e-05 0 0)
(3.10947 0.0043772 0 2.92506e-05 0 0)
(3.14531 0.00449427 0 2.93154e-05 0 0)
(3.18106 0.0046104 0 2.93969e-05 0 0)
(3.21674 0.00472134 0 2.94728e-05 0 0)
(3.25231 0.00483375 0 2.95726e-05 0 0)
(3.28783 0.00493741 0 2.96539e-05 0 0)
(3.32317 0.00504862 0 2.97734e-05 0 0)
(3.35852 0.00514307 0 2.98637e-05 0 0)
(3.39347 0.00525871 0 3.00042e-05 0 0)
(3.42871 0.00534162 0 3.01287e-05 0 0)
(3.46293 0.0054711 0 3.02811e-05 0 0)
(3.49834 0.00554346 0 3.05176e-05 0 0)
(3.53105 0.00569961 0 3.06386e-05 0 0)
(3.56753 0.00578277 0 3.12125e-05 0 0)
(3.59679 0.0059771 0 3.12045e-05 0 0)
(3.63689 0.00618125 0 3.28206e-05 0 0)
(3.65785 0.00637211 0 3.24824e-05 0 0)
(3.71118 0.00705941 0 3.77232e-05 0 0)
(0.0331024 0.000273603 0 3.63669e-06 0 0)
(0.00748616 0.000208036 0 4.27496e-05 0 0)
(0.0165799 -7.93057e-06 0 0.000140444 0 0)
(0.0266846 0.000377147 0 0.000311205 0 0)
(0.0386041 0.00116926 0 0.000565348 0 0)
(0.0518226 0.0019981 0 0.000905342 0 0)
(0.0651802 0.00269387 0 0.00131521 0 0)
(0.0790895 0.00329381 0 0.00176003 0 0)
(0.0944695 0.00391471 0 0.00220048 0 0)
(0.11096 0.00460893 0 0.00260689 0 0)
(0.127673 0.00533854 0 0.00295943 0 0)
(0.144521 0.0060617 0 0.0032448 0 0)
(0.16189 0.00677833 0 0.00345147 0 0)
(0.179904 0.00751105 0 0.00357353 0 0)
(0.19846 0.00827805 0 0.0036154 0 0)
(0.217499 0.00907248 0 0.00358857 0 0)
(0.237033 0.00985314 0 0.00350668 0 0)
(0.257071 0.0105581 0 0.00338214 0 0)
(0.277575 0.0111306 0 0.00322571 0 0)
(0.298442 0.0115317 0 0.00304653 0 0)
(0.319531 0.0117402 0 0.00285236 0 0)
(0.340703 0.0117516 0 0.00264997 0 0)
(0.361845 0.011581 0 0.00244536 0 0)
(0.382865 0.011262 0 0.00224389 0 0)
(0.403689 0.0108384 0 0.00205024 0 0)
(0.42427 0.0103544 0 0.0018679 0 0)
(0.444591 0.00984787 0 0.00169917 0 0)
(0.464663 0.0093492 0 0.00154546 0 0)
(0.484513 0.0088793 0 0.00140721 0 0)
(0.50417 0.00844999 0 0.0012841 0 0)
(0.523666 0.00806512 0 0.0011753 0 0)
(0.543035 0.00772293 0 0.00107961 0 0)
(0.562308 0.00741863 0 0.000995671 0 0)
(0.581513 0.00714631 0 0.000922154 0 0)
(0.600672 0.00690005 0 0.000857831 0 0)
(0.619805 0.00667475 0 0.00080159 0 0)
(0.638932 0.00646644 0 0.000752433 0 0)
(0.658068 0.00627225 0 0.000709481 0 0)
(0.677231 0.00608999 0 0.000671966 0 0)
(0.696437 0.00591776 0 0.000639204 0 0)
(0.7157 0.00575367 0 0.000610587 0 0)
(0.735034 0.00559573 0 0.000585568 0 0)
(0.754454 0.00544194 0 0.000563656 0 0)
(0.77397 0.00529048 0 0.000544413 0 0)
(0.793594 0.00513973 0 0.000527434 0 0)
(0.813336 0.00498854 0 0.000512347 0 0)
(0.833205 0.00483617 0 0.000498794 0 0)
(0.853206 0.00468252 0 0.00048647 0 0)
(0.873347 0.00452814 0 0.000475143 0 0)
(0.893631 0.00437406 0 0.000464635 0 0)
(0.914062 0.00422157 0 0.000454809 0 0)
(0.934643 0.00407199 0 0.000445552 0 0)
(0.955375 0.00392649 0 0.000436772 0 0)
(0.97626 0.00378594 0 0.000428388 0 0)
(0.997298 0.00365081 0 0.000420332 0 0)
(1.01849 0.0035212 0 0.000412542 0 0)
(1.03983 0.00339686 0 0.000404958 0 0)
(1.06133 0.00327724 0 0.000397515 0 0)
(1.08299 0.00316156 0 0.000390161 0 0)
(1.10479 0.00304904 0 0.000382848 0 0)
(1.12675 0.0029389 0 0.000375542 0 0)
(1.14887 0.00283046 0 0.000368216 0 0)
(1.17114 0.00272317 0 0.000360848 0 0)
(1.19357 0.0026167 0 0.000353426 0 0)
(1.21616 0.00251091 0 0.000345943 0 0)
(1.23891 0.00240585 0 0.0003384 0 0)
(1.26182 0.00230171 0 0.000330803 0 0)
(1.2849 0.0021988 0 0.000323163 0 0)
(1.30815 0.0020975 0 0.000315492 0 0)
(1.33156 0.00199825 0 0.000307804 0 0)
(1.35515 0.00190146 0 0.000300117 0 0)
(1.37891 0.00180756 0 0.000292449 0 0)
(1.40284 0.00171689 0 0.000284819 0 0)
(1.42694 0.0016298 0 0.000277247 0 0)
(1.45121 0.00154649 0 0.000269751 0 0)
(1.47565 0.00146716 0 0.000262348 0 0)
(1.50026 0.00139188 0 0.000255052 0 0)
(1.52504 0.00132074 0 0.000247877 0 0)
(1.54998 0.00125367 0 0.000240834 0 0)
(1.57508 0.00119064 0 0.000233931 0 0)
(1.60035 0.00113149 0 0.000227176 0 0)
(1.62577 0.00107615 0 0.000220572 0 0)
(1.65134 0.00102441 0 0.000214124 0 0)
(1.67706 0.00097617 0 0.000207831 0 0)
(1.70294 0.000931214 0 0.000201695 0 0)
(1.72895 0.000889424 0 0.000195714 0 0)
(1.75511 0.000850614 0 0.000189888 0 0)
(1.78141 0.000814703 0 0.000184213 0 0)
(1.80784 0.000781559 0 0.000178689 0 0)
(1.8344 0.000751148 0 0.00017331 0 0)
(1.86109 0.000723353 0 0.000168078 0 0)
(1.88791 0.00069819 0 0.000162984 0 0)
(1.91485 0.000675602 0 0.000158032 0 0)
(1.94191 0.000655636 0 0.000153213 0 0)
(1.96909 0.00063819 0 0.000148532 0 0)
(1.99639 0.000623346 0 0.00014398 0 0)
(2.0238 0.000610949 0 0.000139562 0 0)
(2.05132 0.000601157 0 0.00013527 0 0)
(2.07896 0.000593707 0 0.000131107 0 0)
(2.10672 0.000588831 0 0.000127064 0 0)
(2.13459 0.000586118 0 0.000123145 0 0)
(2.16256 0.000585904 0 0.000119342 0 0)
(2.19066 0.000587626 0 0.00011566 0 0)
(2.21886 0.000591726 0 0.000112092 0 0)
(2.24718 0.000597538 0 0.000108645 0 0)
(2.27559 0.00060551 0 0.000105302 0 0)
(2.3041 0.000615255 0 0.000102084 0 0)
(2.33269 0.000626534 0 9.89422e-05 0 0)
(2.36134 0.000640679 0 9.5952e-05 0 0)
(2.39007 0.00065466 0 9.29675e-05 0 0)
(2.41874 0.000674776 0 9.02184e-05 0 0)
(2.44759 0.000691774 0 8.7316e-05 0 0)
(2.47601 0.000721063 0 8.48641e-05 0 0)
(2.50514 0.000745798 0 8.19139e-05 0 0)
(2.53273 0.000789939 0 7.98918e-05 0 0)
(2.56273 0.000843369 0 7.66871e-05 0 0)
(2.58812 0.000909927 0 7.53774e-05 0 0)
(2.62085 0.00106397 0 7.16745e-05 0 0)
(2.64057 0.00113988 0 7.15161e-05 0 0)
(2.68479 0.00156812 0 6.7363e-05 0 0)
(0.0331034 0.000191971 0 1.86758e-06 0 0)
(0.0074876 0.000147809 0 2.17533e-05 0 0)
(0.0165694 -8.1697e-06 0 7.15766e-05 0 0)
(0.0265909 0.000259683 0 0.000158663 0 0)
(0.0383467 0.000802741 0 0.000285568 0 0)
(0.0513016 0.00134746 0 0.000450071 0 0)
(0.0642713 0.00179013 0 0.000643916 0 0)
(0.0777071 0.00216996 0 0.000852156 0 0)
(0.0925992 0.00255834 0 0.00105701 0 0)
(0.108627 0.00298729 0 0.00124404 0 0)
(0.124929 0.00344581 0 0.00140467 0 0)
(0.141451 0.00391942 0 0.00153489 0 0)
(0.158623 0.00441264 0 0.00163334 0 0)
(0.176611 0.00494224 0 0.00170073 0 0)
(0.195344 0.00552244 0 0.00174012 0 0)
(0.214789 0.00615359 0 0.00175584 0 0)
(0.234994 0.0068179 0 0.00175237 0 0)
(0.256021 0.00748546 0 0.00173333 0 0)
(0.277893 0.00812525 0 0.00170122 0 0)
(0.300552 0.00871047 0 0.00165793 0 0)
(0.32387 0.00921883 0 0.0016053 0 0)
(0.347708 0.00963313 0 0.00154526 0 0)
(0.371939 0.00994458 0 0.00147971 0 0)
(0.396445 0.0101551 0 0.00141045 0 0)
(0.421116 0.0102761 0 0.00133918 0 0)
(0.445862 0.0103245 0 0.00126755 0 0)
(0.470626 0.0103188 0 0.00119713 0 0)
(0.495379 0.0102763 0 0.00112916 0 0)
(0.520115 0.0102115 0 0.00106453 0 0)
(0.544839 0.0101358 0 0.00100375 0 0)
(0.569563 0.0100578 0 0.000947067 0 0)
(0.594303 0.00998258 0 0.000894527 0 0)
(0.619078 0.00991294 0 0.000846097 0 0)
(0.643901 0.00984952 0 0.000801647 0 0)
(0.668784 0.00979189 0 0.000761011 0 0)
(0.693736 0.00973894 0 0.000723958 0 0)
(0.718762 0.00968948 0 0.00069025 0 0)
(0.743866 0.0096421 0 0.000659616 0 0)
(0.769052 0.00959551 0 0.000631794 0 0)
(0.79432 0.0095484 0 0.000606507 0 0)
(0.819673 0.00949984 0 0.000583506 0 0)
(0.845111 0.00944914 0 0.000562548 0 0)
(0.870635 0.00939613 0 0.000543425 0 0)
(0.896244 0.00934092 0 0.000525939 0 0)
(0.921938 0.00928405 0 0.000509921 0 0)
(0.947713 0.00922617 0 0.0004952 0 0)
(0.973567 0.00916804 0 0.000481607 0 0)
(0.999498 0.00911053 0 0.000468988 0 0)
(1.0255 0.00905485 0 0.000457241 0 0)
(1.05158 0.00900219 0 0.000446282 0 0)
(1.07772 0.00895377 0 0.000436055 0 0)
(1.10393 0.00891042 0 0.0004265 0 0)
(1.13021 0.00887277 0 0.000417572 0 0)
(1.15655 0.00884092 0 0.000409217 0 0)
(1.18295 0.00881473 0 0.000401396 0 0)
(1.20941 0.00879361 0 0.000394057 0 0)
(1.23593 0.00877686 0 0.00038717 0 0)
(1.26251 0.0087635 0 0.0003807 0 0)
(1.28914 0.00875256 0 0.000374613 0 0)
(1.31582 0.00874279 0 0.000368859 0 0)
(1.34255 0.0087331 0 0.000363395 0 0)
(1.36932 0.00872238 0 0.000358166 0 0)
(1.39614 0.00870985 0 0.000353136 0 0)
(1.42299 0.00869478 0 0.000348262 0 0)
(1.44987 0.00867687 0 0.000343518 0 0)
(1.47679 0.00865584 0 0.000338874 0 0)
(1.50372 0.0086318 0 0.00033432 0 0)
(1.53068 0.00860482 0 0.000329838 0 0)
(1.55766 0.00857527 0 0.000325424 0 0)
(1.58465 0.00854336 0 0.000321068 0 0)
(1.61165 0.00850957 0 0.000316771 0 0)
(1.63866 0.00847412 0 0.000312526 0 0)
(1.66568 0.00843748 0 0.000308337 0 0)
(1.6927 0.00839984 0 0.000304198 0 0)
(1.71972 0.0083616 0 0.000300118 0 0)
(1.74674 0.00832286 0 0.000296087 0 0)
(1.77376 0.00828394 0 0.000292117 0 0)
(1.80077 0.00824485 0 0.000288199 0 0)
(1.82778 0.00820583 0 0.000284343 0 0)
(1.85477 0.00816678 0 0.000280539 0 0)
(1.88175 0.00812788 0 0.000276797 0 0)
(1.90872 0.00808894 0 0.000273107 0 0)
(1.93567 0.0080501 0 0.000269478 0 0)
(1.9626 0.00801107 0 0.000265897 0 0)
(1.98951 0.00797197 0 0.000262374 0 0)
(2.01639 0.00793247 0 0.000258894 0 0)
(2.04325 0.00789269 0 0.000255468 0 0)
(2.07008 0.0078523 0 0.000252079 0 0)
(2.09688 0.00781144 0 0.000248739 0 0)
(2.12364 0.0077698 0 0.000245431 0 0)
(2.15037 0.00772759 0 0.000242168 0 0)
(2.17707 0.00768447 0 0.00023893 0 0)
(2.20373 0.00764075 0 0.000235733 0 0)
(2.23034 0.00759609 0 0.000232556 0 0)
(2.25692 0.00755089 0 0.000229419 0 0)
(2.28346 0.00750478 0 0.000226299 0 0)
(2.30997 0.00745827 0 0.000223219 0 0)
(2.33643 0.00741089 0 0.000220153 0 0)
(2.36286 0.00736331 0 0.00021713 0 0)
(2.38925 0.00731485 0 0.000214111 0 0)
(2.41562 0.00726647 0 0.000211145 0 0)
(2.44196 0.00721702 0 0.000208169 0 0)
(2.46828 0.00716819 0 0.000205269 0 0)
(2.49456 0.00711775 0 0.000202327 0 0)
(2.52083 0.00706904 0 0.000199514 0 0)
(2.54705 0.00701731 0 0.000196585 0 0)
(2.57328 0.00696968 0 0.000193893 0 0)
(2.59941 0.00691564 0 0.000190919 0 0)
(2.62556 0.00687093 0 0.000188414 0 0)
(2.65155 0.00681236 0 0.000185268 0 0)
(2.67754 0.00677437 0 0.000183094 0 0)
(2.70336 0.00670755 0 0.000179528 0 0)
(2.72902 0.00668409 0 0.000177987 0 0)
(2.7547 0.00660423 0 0.000173538 0 0)
(2.77962 0.00661078 0 0.000173201 0 0)
(2.80558 0.00651437 0 0.000167057 0 0)
(2.82878 0.00657545 0 0.000168834 0 0)
(2.85633 0.00646366 0 0.000159645 0 0)
(2.87528 0.00658611 0 0.000164141 0 0)
(2.91253 0.00644758 0 0.000149269 0 0)
(0.0331037 0.000113434 0 6.67779e-07 0 0)
(0.00748756 8.75622e-05 0 7.70969e-06 0 0)
(0.0165635 -5.8293e-06 0 2.51499e-05 0 0)
(0.0265342 0.000148668 0 5.52879e-05 0 0)
(0.0382032 0.000460101 0 9.86153e-05 0 0)
(0.0510443 0.000768511 0 0.000154043 0 0)
(0.0638551 0.00101911 0 0.000218972 0 0)
(0.0770919 0.0012378 0 0.000289039 0 0)
(0.0917789 0.00146308 0 0.000358859 0 0)
(0.107614 0.00170971 0 0.000423746 0 0)
(0.123732 0.00197073 0 0.000480832 0 0)
(0.140074 0.00223906 0 0.000528876 0 0)
(0.157069 0.00251879 0 0.000567501 0 0)
(0.174873 0.00282047 0 0.000596576 0 0)
(0.193399 0.00315322 0 0.000616105 0 0)
(0.212586 0.00351902 0 0.000626451 0 0)
(0.232457 0.00390848 0 0.000628309 0 0)
(0.253061 0.00430158 0 0.000622514 0 0)
(0.274419 0.00467361 0 0.000609755 0 0)
(0.296485 0.00500184 0 0.000590723 0 0)
(0.319155 0.00526878 0 0.000566315 0 0)
(0.342318 0.00546312 0 0.000537631 0 0)
(0.365883 0.00558139 0 0.000505978 0 0)
(0.389771 0.00562875 0 0.00047272 0 0)
(0.413905 0.00561691 0 0.000439096 0 0)
(0.438214 0.00556103 0 0.000406171 0 0)
(0.462651 0.00547618 0 0.000374751 0 0)
(0.487189 0.0053753 0 0.000345302 0 0)
(0.511818 0.00526911 0 0.000318042 0 0)
(0.536538 0.00516596 0 0.000293052 0 0)
(0.561353 0.00507136 0 0.000270348 0 0)
(0.586272 0.00498795 0 0.000249872 0 0)
(0.611303 0.00491613 0 0.000231496 0 0)
(0.636457 0.00485488 0 0.000215051 0 0)
(0.661741 0.0048024 0 0.000200361 0 0)
(0.687162 0.0047566 0 0.000187257 0 0)
(0.712723 0.0047155 0 0.00017558 0 0)
(0.738428 0.00467746 0 0.000165183 0 0)
(0.764278 0.00464134 0 0.000155928 0 0)
(0.790276 0.00460657 0 0.000147692 0 0)
(0.816421 0.00457299 0 0.000140366 0 0)
(0.842715 0.0045407 0 0.000133854 0 0)
(0.869157 0.00450988 0 0.000128069 0 0)
(0.895746 0.00448075 0 0.000122932 0 0)
(0.922481 0.0044536 0 0.000118375 0 0)
(0.949359 0.00442883 0 0.00011434 0 0)
(0.976378 0.00440711 0 0.000110787 0 0)
(1.00354 0.00438918 0 0.000107681 0 0)
(1.03084 0.00437567 0 0.000104983 0 0)
(1.05828 0.00436707 0 0.000102651 0 0)
(1.08586 0.00436375 0 0.000100646 0 0)
(1.11358 0.00436594 0 9.893e-05 0 0)
(1.14144 0.00437372 0 9.74674e-05 0 0)
(1.16944 0.00438698 0 9.62262e-05 0 0)
(1.19759 0.00440545 0 9.51768e-05 0 0)
(1.22589 0.00442871 0 9.42942e-05 0 0)
(1.25433 0.00445627 0 9.35586e-05 0 0)
(1.28293 0.00448762 0 9.29561e-05 0 0)
(1.31166 0.00452208 0 9.24706e-05 0 0)
(1.34054 0.00455889 0 9.20839e-05 0 0)
(1.36956 0.00459719 0 9.17756e-05 0 0)
(1.39872 0.00463621 0 9.1527e-05 0 0)
(1.42802 0.00467522 0 9.13202e-05 0 0)
(1.45744 0.00471363 0 9.11409e-05 0 0)
(1.48698 0.00475099 0 9.09758e-05 0 0)
(1.51664 0.00478694 0 9.08139e-05 0 0)
(1.54642 0.0048212 0 9.06447e-05 0 0)
(1.5763 0.00485362 0 9.04603e-05 0 0)
(1.60628 0.00488412 0 9.02548e-05 0 0)
(1.63636 0.00491277 0 9.00253e-05 0 0)
(1.66654 0.00493965 0 8.97699e-05 0 0)
(1.6968 0.00496491 0 8.94883e-05 0 0)
(1.72715 0.0049887 0 8.91805e-05 0 0)
(1.75757 0.00501123 0 8.88476e-05 0 0)
(1.78808 0.00503266 0 8.84906e-05 0 0)
(1.81865 0.0050532 0 8.81114e-05 0 0)
(1.8493 0.00507303 0 8.77114e-05 0 0)
(1.88001 0.0050923 0 8.72928e-05 0 0)
(1.91079 0.00511115 0 8.68569e-05 0 0)
(1.94163 0.00512968 0 8.64057e-05 0 0)
(1.97253 0.00514796 0 8.59406e-05 0 0)
(2.00348 0.00516604 0 8.54631e-05 0 0)
(2.03449 0.00518392 0 8.49741e-05 0 0)
(2.06554 0.00520159 0 8.44748e-05 0 0)
(2.09665 0.00521902 0 8.39658e-05 0 0)
(2.12779 0.00523614 0 8.3448e-05 0 0)
(2.15898 0.0052529 0 8.29217e-05 0 0)
(2.1902 0.00526922 0 8.23877e-05 0 0)
(2.22146 0.00528506 0 8.18465e-05 0 0)
(2.25274 0.00530035 0 8.12986e-05 0 0)
(2.28406 0.00531506 0 8.07443e-05 0 0)
(2.31539 0.00532912 0 8.01841e-05 0 0)
(2.34675 0.00534255 0 7.96188e-05 0 0)
(2.37812 0.0053553 0 7.90485e-05 0 0)
(2.4095 0.00536744 0 7.84752e-05 0 0)
(2.4409 0.0053789 0 7.78979e-05 0 0)
(2.47231 0.00538982 0 7.732e-05 0 0)
(2.50373 0.00540005 0 7.67383e-05 0 0)
(2.53516 0.0054099 0 7.61591e-05 0 0)
(2.56659 0.005419 0 7.55737e-05 0 0)
(2.59804 0.00542794 0 7.49967e-05 0 0)
(2.6295 0.00543593 0 7.44076e-05 0 0)
(2.66098 0.00544422 0 7.38394e-05 0 0)
(2.69245 0.00545102 0 7.32448e-05 0 0)
(2.72395 0.00545908 0 7.26964e-05 0 0)
(2.75544 0.00546436 0 7.20868e-05 0 0)
(2.78694 0.0054729 0 7.15744e-05 0 0)
(2.8184 0.00547572 0 7.09243e-05 0 0)
(2.84987 0.00548605 0 7.04775e-05 0 0)
(2.88128 0.00548446 0 6.97332e-05 0 0)
(2.91259 0.00549929 0 6.94133e-05 0 0)
(2.94393 0.00549002 0 6.84744e-05 0 0)
(2.97484 0.00551509 0 6.84037e-05 0 0)
(3.00628 0.00549344 0 6.70896e-05 0 0)
(3.03621 0.0055398 0 6.74847e-05 0 0)
(3.06837 0.00549966 0 6.54732e-05 0 0)
(3.09597 0.00558219 0 6.66306e-05 0 0)
(3.13073 0.00551171 0 6.33098e-05 0 0)
(3.15252 0.00562542 0 6.52443e-05 0 0)
(3.1994 0.00548906 0 5.9435e-05 0 0)
(0.0331037 3.71963e-05 0 6.80278e-08 0 0)
(0.00748653 2.74188e-05 0 7.94898e-07 0 0)
(0.0165601 -3.23372e-06 0 2.59887e-06 0 0)
(0.0265073 4.82476e-05 0 5.70658e-06 0 0)
(0.038136 0.000149418 0 1.01535e-05 0 0)
(0.0509258 0.000248326 0 1.58187e-05 0 0)
(0.0636672 0.000330219 0 2.24556e-05 0 0)
(0.0768162 0.000405196 0 2.96713e-05 0 0)
(0.0914089 0.00048393 0 3.69828e-05 0 0)
(0.107155 0.00056868 0 4.39578e-05 0 0)
(0.123196 0.000656968 0 5.03056e-05 0 0)
(0.139473 0.000747987 0 5.58654e-05 0 0)
(0.156409 0.000843785 0 6.05236e-05 0 0)
(0.174158 0.000947283 0 6.41773e-05 0 0)
(0.192621 0.00106083 0 6.6736e-05 0 0)
(0.211726 0.00118483 0 6.81891e-05 0 0)
(0.231476 0.00131552 0 6.85852e-05 0 0)
(0.25191 0.00144515 0 6.80215e-05 0 0)
(0.273053 0.00156521 0 6.66519e-05 0 0)
(0.294874 0.00166985 0 6.46558e-05 0 0)
(0.317284 0.00175653 0 6.2189e-05 0 0)
(0.340185 0.00182535 0 5.93984e-05 0 0)
(0.363496 0.00187861 0 5.64475e-05 0 0)
(0.387147 0.00192038 0 5.35144e-05 0 0)
(0.41106 0.00195535 0 5.07565e-05 0 0)
(0.435164 0.00198708 0 4.82625e-05 0 0)
(0.459407 0.00201767 0 4.60746e-05 0 0)
(0.483761 0.00204791 0 4.41971e-05 0 0)
(0.508214 0.00207797 0 4.261e-05 0 0)
(0.532766 0.00210796 0 4.12839e-05 0 0)
(0.55742 0.00213787 0 4.01852e-05 0 0)
(0.582182 0.00216755 0 3.9284e-05 0 0)
(0.607063 0.00219673 0 3.85496e-05 0 0)
(0.63207 0.00222534 0 3.79522e-05 0 0)
(0.657212 0.00225341 0 3.74608e-05 0 0)
(0.682493 0.00228102 0 3.70475e-05 0 0)
(0.707917 0.00230816 0 3.66871e-05 0 0)
(0.733486 0.00233473 0 3.63603e-05 0 0)
(0.759202 0.0023605 0 3.60531e-05 0 0)
(0.785065 0.00238527 0 3.5759e-05 0 0)
(0.811075 0.00240885 0 3.54755e-05 0 0)
(0.837233 0.00243113 0 3.52031e-05 0 0)
(0.863536 0.00245202 0 3.49426e-05 0 0)
(0.889983 0.00247148 0 3.4696e-05 0 0)
(0.916573 0.00248961 0 3.44653e-05 0 0)
(0.943304 0.00250669 0 3.42545e-05 0 0)
(0.970176 0.00252314 0 3.40672e-05 0 0)
(0.997187 0.00253948 0 3.39059e-05 0 0)
(1.02434 0.0025562 0 3.37699e-05 0 0)
(1.05163 0.0025737 0 3.36565e-05 0 0)
(1.07906 0.00259234 0 3.35623e-05 0 0)
(1.10664 0.00261241 0 3.34844e-05 0 0)
(1.13436 0.00263411 0 3.34204e-05 0 0)
(1.16223 0.00265748 0 3.3368e-05 0 0)
(1.19025 0.00268245 0 3.33241e-05 0 0)
(1.21843 0.00270882 0 3.32865e-05 0 0)
(1.24676 0.00273628 0 3.32516e-05 0 0)
(1.27524 0.00276438 0 3.32152e-05 0 0)
(1.30388 0.00279267 0 3.31732e-05 0 0)
(1.33268 0.0028207 0 3.31223e-05 0 0)
(1.36162 0.00284804 0 3.30599e-05 0 0)
(1.39071 0.00287435 0 3.29837e-05 0 0)
(1.41995 0.00289932 0 3.2892e-05 0 0)
(1.44932 0.00292277 0 3.2784e-05 0 0)
(1.47884 0.00294454 0 3.26589e-05 0 0)
(1.50848 0.00296457 0 3.25166e-05 0 0)
(1.53824 0.00298282 0 3.23564e-05 0 0)
(1.56813 0.00299933 0 3.21783e-05 0 0)
(1.59812 0.00301416 0 3.1983e-05 0 0)
(1.62823 0.00302748 0 3.17713e-05 0 0)
(1.65844 0.00303944 0 3.15444e-05 0 0)
(1.68876 0.00305022 0 3.13038e-05 0 0)
(1.71916 0.00306001 0 3.1051e-05 0 0)
(1.74967 0.00306899 0 3.07875e-05 0 0)
(1.78026 0.00307732 0 3.05149e-05 0 0)
(1.81093 0.00308515 0 3.02348e-05 0 0)
(1.84169 0.00309263 0 2.99485e-05 0 0)
(1.87253 0.00309987 0 2.96575e-05 0 0)
(1.90345 0.00310696 0 2.93629e-05 0 0)
(1.93445 0.00311396 0 2.90662e-05 0 0)
(1.96551 0.00312091 0 2.8768e-05 0 0)
(1.99665 0.00312785 0 2.84695e-05 0 0)
(2.02786 0.00313478 0 2.81713e-05 0 0)
(2.05914 0.00314171 0 2.78744e-05 0 0)
(2.09048 0.00314861 0 2.75791e-05 0 0)
(2.12189 0.00315547 0 2.72862e-05 0 0)
(2.15335 0.00316228 0 2.6996e-05 0 0)
(2.18487 0.00316901 0 2.6709e-05 0 0)
(2.21644 0.00317562 0 2.64255e-05 0 0)
(2.24807 0.00318212 0 2.61457e-05 0 0)
(2.27974 0.00318848 0 2.58701e-05 0 0)
(2.31146 0.00319469 0 2.55987e-05 0 0)
(2.34322 0.00320075 0 2.53319e-05 0 0)
(2.37502 0.00320664 0 2.50695e-05 0 0)
(2.40686 0.00321238 0 2.48121e-05 0 0)
(2.43873 0.00321796 0 2.45592e-05 0 0)
(2.47063 0.00322341 0 2.43116e-05 0 0)
(2.50257 0.00322869 0 2.40683e-05 0 0)
(2.53455 0.00323387 0 2.38306e-05 0 0)
(2.56656 0.00323885 0 2.35966e-05 0 0)
(2.5986 0.00324379 0 2.33691e-05 0 0)
(2.63068 0.00324843 0 2.31437e-05 0 0)
(2.6628 0.00325316 0 2.29267e-05 0 0)
(2.69494 0.00325737 0 2.27087e-05 0 0)
(2.72714 0.00326194 0 2.2503e-05 0 0)
(2.75934 0.00326554 0 2.22896e-05 0 0)
(2.79159 0.00327004 0 2.20971e-05 0 0)
(2.82383 0.00327255 0 2.1883e-05 0 0)
(2.85608 0.00327717 0 2.17078e-05 0 0)
(2.88833 0.00327773 0 2.1483e-05 0 0)
(2.92047 0.00328301 0 2.13349e-05 0 0)
(2.95274 0.00328026 0 2.10809e-05 0 0)
(2.9845 0.00328772 0 2.09814e-05 0 0)
(3.01695 0.00327973 0 2.06639e-05 0 0)
(3.04773 0.00329285 0 2.06553e-05 0 0)
(3.08107 0.00327662 0 2.02053e-05 0 0)
(3.10942 0.003301 0 2.03532e-05 0 0)
(3.14562 0.00326875 0 1.96097e-05 0 0)
(3.16785 0.00330469 0 1.9932e-05 0 0)
(3.21665 0.00322598 0 1.84477e-05 0 0)
(0.0331037 -3.81378e-05 0 9.25621e-08 0 0)
(0.0074865 -3.20767e-05 0 1.00557e-06 0 0)
(0.0165599 3.52366e-07 0 3.1784e-06 0 0)
(0.0265072 -4.6957e-05 0 6.85941e-06 0 0)
(0.0381361 -0.000149107 0 1.21043e-05 0 0)
(0.0509263 -0.000252299 0 1.87878e-05 0 0)
(0.0636681 -0.000333674 0 2.66094e-05 0 0)
(0.0768172 -0.000400341 0 3.50658e-05 0 0)
(0.0914097 -0.000467153 0 4.35201e-05 0 0)
(0.107156 -0.000540577 0 5.13913e-05 0 0)
(0.123196 -0.000618554 0 5.82909e-05 0 0)
(0.139473 -0.000699128 0 6.40397e-05 0 0)
(0.156409 -0.000783995 0 6.85721e-05 0 0)
(0.174158 -0.000876452 0 7.18714e-05 0 0)
(0.192622 -0.000979047 0 7.39182e-05 0 0)
(0.211728 -0.0010916 0 7.47564e-05 0 0)
(0.231483 -0.00120886 0 7.44495e-05 0 0)
(0.251926 -0.00132072 0 7.30611e-05 0 0)
(0.273081 -0.00141529 0 7.06133e-05 0 0)
(0.294914 -0.00148348 0 6.71655e-05 0 0)
(0.317335 -0.00152131 0 6.28789e-05 0 0)
(0.340243 -0.00152981 0 5.80033e-05 0 0)
(0.363556 -0.00151379 0 5.28323e-05 0 0)
(0.387204 -0.00148067 0 4.76705e-05 0 0)
(0.411111 -0.00143851 0 4.27745e-05 0 0)