/*--------------------------------*- C++ -*----------------------------------*\
  =========                 |
  \\      /  F ield         | OpenFOAM: The Open Source CFD Toolbox
   \\    /   O peration     | Website:  https://openfoam.org
    \\  /    A nd           | Version:  7
     \\/     M anipulation  |
\*---------------------------------------------------------------------------*/
FoamFile
{
    version     2.0;
    format      ascii;
    class       volScalarField;
    location    "1.6";
    object      nut;
}
// * * * * * * * * * * * * * * * * * * * * * * * * * * * * * * * * * * * * * //

dimensions      [0 2 -1 0 0 0 0];

internalField   nonuniform List<scalar> 
2640
(
0.000717853
0.00172149
0.00237247
0.00266256
0.0027058
0.0026696
0.00257767
0.00246409
0.00236007
0.00227046
0.00219575
0.00213413
0.00208313
0.00204037
0.00200396
0.00197231
0.00194432
0.0019192
0.00189633
0.00187531
0.00185582
0.00183766
0.00182068
0.00180475
0.00178975
0.00177562
0.00176226
0.00174963
0.00173767
0.00172632
0.00171557
0.00170524
0.00169559
0.00168597
0.00167748
0.00166798
0.00166107
0.00165088
0.00164374
0.0016504
8.2679e-05
0.000384871
0.000732428
0.00112659
0.00136571
0.00150846
0.00158722
0.00162321
0.00163842
0.00164002
0.00163844
0.00163462
0.00162942
0.00162408
0.00161877
0.00161359
0.0016085
0.00160351
0.00159857
0.00159367
0.00158879
0.00158394
0.00157907
0.00157428
0.00156938
0.00156453
0.00155961
0.00155484
0.00154994
0.00154536
0.00154043
0.00153618
0.0015311
0.00152739
0.00152192
0.00151898
0.00151302
0.00151038
0.00150233
0.00150285
1.06695e-05
4.96916e-05
0.000127151
0.000241182
0.000382999
0.000509494
0.000609369
0.000682716
0.000736159
0.000774442
0.000802535
0.000824024
0.000841078
0.000855469
0.000868111
0.000879874
0.000890979
0.000901897
0.00091248
0.000923107
0.000933416
0.000943835
0.000953827
0.000963947
0.000973477
0.000983388
0.000992356
0.00100186
0.00101004
0.00101907
0.00102633
0.00103492
0.00104118
0.00104936
0.00105467
0.00106233
0.00106698
0.00107365
0.00107843
0.00108331
9.42384e-06
1.06907e-05
1.90352e-05
3.85595e-05
6.8724e-05
0.000107847
0.000151404
0.000190909
0.000225276
0.000254224
0.000278614
0.00029912
0.000316774
0.000331982
0.0003456
0.000357701
0.000369007
0.000379314
0.000389305
0.000398559
0.000407812
0.000416444
0.00042531
0.000433568
0.000442268
0.000450296
0.000458988
0.000466856
0.00047564
0.00048336
0.000492315
0.00049985
0.000509063
0.000516333
0.000525908
0.00053278
0.000542842
0.00054917
0.000559928
0.000566099
9.41039e-06
9.51636e-06
9.88789e-06
1.10399e-05
1.3864e-05
1.89556e-05
2.7872e-05
3.50462e-05
4.69385e-05
5.32304e-05
6.42219e-05
6.95048e-05
7.90478e-05
8.36609e-05
9.20662e-05
9.62405e-05
0.000103899
0.000107783
0.000114938
0.000118603
0.000125383
0.00012887
0.000135365
0.000138701
0.000144979
0.000148187
0.000154299
0.000157413
0.000163409
0.000166462
0.000172386
0.00017541
0.000181308
0.000184337
0.000190253
0.000193312
0.000199296
0.00020243
0.000208648
0.00021207
9.40544e-06
9.48779e-06
9.74573e-06
1.01063e-05
1.08571e-05
1.13017e-05
1.21995e-05
1.26927e-05
1.37326e-05
1.42905e-05
1.54425e-05
1.60421e-05
1.72579e-05
1.78913e-05
1.91641e-05
1.98366e-05
2.11835e-05
2.19006e-05
2.33324e-05
2.40933e-05
2.56079e-05
2.6408e-05
2.79974e-05
2.88317e-05
3.0487e-05
3.13516e-05
3.30659e-05
3.39588e-05
3.57283e-05
3.66495e-05
3.84745e-05
3.94267e-05
4.13121e-05
4.23002e-05
4.42564e-05
4.52877e-05
4.73331e-05
4.84251e-05
5.06322e-05
5.18471e-05
9.40544e-06
9.48779e-06
9.74573e-06
1.01063e-05
1.08572e-05
1.13016e-05
1.21995e-05
1.26925e-05
1.37325e-05
1.42902e-05
1.54422e-05
1.60417e-05
1.72582e-05
1.7891e-05
1.91643e-05
1.9836e-05
2.11829e-05
2.18988e-05
2.33298e-05
2.40889e-05
2.56018e-05
2.63992e-05
2.79848e-05
2.88147e-05
3.04624e-05
3.13197e-05
3.30201e-05
3.39003e-05
3.56451e-05
3.65438e-05
3.8325e-05
3.92375e-05
4.10467e-05
4.19658e-05
4.37911e-05
4.47026e-05
4.65251e-05
4.7416e-05
4.92569e-05
5.01608e-05
9.41039e-06
9.51636e-06
9.88789e-06
1.10399e-05
1.38639e-05
1.89413e-05
2.7877e-05
3.50407e-05
4.69403e-05
5.32263e-05
6.42226e-05
6.9501e-05
7.90728e-05
8.36329e-05
9.21005e-05
9.62013e-05
0.000103936
0.000107735
0.000114969
0.000118547
0.000125406
0.000128811
0.000135369
0.000138634
0.000144948
0.000148102
0.000154221
0.000157287
0.000163255
0.000166254
0.000172107
0.000175052
0.000180817
0.000183715
0.000189401
0.000192238
0.000197829
0.000200593
0.000206157
0.000208998
9.42384e-06
1.06907e-05
1.90352e-05
3.85595e-05
6.87234e-05
0.00010762
0.000151566
0.000190776
0.000225392
0.000254114
0.000278717
0.000299014
0.000316876
0.000331871
0.000345708
0.000357579
0.000369122
0.000379175
0.000389429
0.000398396
0.000407943
0.000416247
0.000425444
0.000433325
0.000442392
0.000449988
0.00045908
0.000466451
0.000475656
0.000482806
0.000492183
0.000499064
0.000508652
0.000515184
0.000524996
0.000531054
0.000541049
0.000546516
0.000556614
0.000561947
1.06695e-05
4.96916e-05
0.000127151
0.000241182
0.000382995
0.000509497
0.000609369
0.000682716
0.00073616
0.00077444
0.000802537
0.000824019
0.000841081
0.000855459
0.000868116
0.000879858
0.000890984
0.000901871
0.000912484
0.000923065
0.000933418
0.000943768
0.000953825
0.000963838
0.000973462
0.000983204
0.000992315
0.00100156
0.00100995
0.00101858
0.00102615
0.00103413
0.00104083
0.00104811
0.00105398
0.00106042
0.00106559
0.00107085
0.00107553
0.00107936
8.2679e-05
0.00038487
0.000732427
0.00112659
0.00136571
0.00150846
0.00158722
0.00162321
0.00163842
0.00164002
0.00163844
0.00163462
0.00162942
0.00162408
0.00161877
0.00161358
0.0016085
0.0016035
0.00159856
0.00159366
0.00158878
0.00158393
0.00157905
0.00157426
0.00156935
0.00156451
0.00155956
0.00155482
0.00154985
0.00154534
0.00154031
0.00153617
0.00153092
0.00152737
0.00152172
0.00151883
0.00151276
0.00151014
0.00150188
0.00150222
0.000717853
0.00172149
0.00237247
0.00266256
0.0027058
0.0026696
0.00257767
0.00246409
0.00236007
0.00227046
0.00219575
0.00213414
0.00208313
0.00204038
0.00200397
0.00197232
0.00194434
0.00191922
0.00189636
0.00187535
0.00185587
0.00183773
0.00182077
0.00180487
0.0017899
0.00177583
0.00176252
0.00175001
0.00173813
0.00172699
0.00171633
0.00170641
0.00169683
0.00168803
0.00167947
0.00167162
0.00166418
0.00165709
0.00164916
0.00165843
0.00396301
0.00421943
0.00426856
0.00425792
0.00423287
0.00421319
0.00419899
0.0041882
0.00417957
0.00417295
0.00416832
0.00416538
0.00416415
0.00416435
0.00416578
0.00416853
0.00417226
0.0041769
0.00418231
0.00418837
0.00419498
0.00420203
0.00420945
0.00421717
0.00422514
0.00423331
0.00424164
0.00425008
0.00425861
0.00426719
0.00427578
0.00428435
0.00429288
0.00430135
0.00430973
0.00431801
0.00432619
0.00433425
0.0043422
0.00435003
0.00435775
0.00436537
0.00437287
0.00438027
0.00438756
0.00439474
0.00440182
0.00440878
0.00441563
0.00442236
0.00442899
0.0044355
0.0044419
0.00444821
0.00445442
0.00446055
0.00446662
0.00447261
0.00447855
0.00448444
0.00449027
0.00449605
0.00450178
0.00450746
0.00451307
0.00451862
0.0045241
0.00452951
0.00453487
0.00454016
0.00454541
0.00455063
0.00455581
0.00456099
0.00456616
0.00457134
0.00457654
0.00458176
0.004587
0.00459225
0.00459752
0.00460279
0.00460807
0.00461334
0.0046186
0.00462385
0.00462908
0.00463431
0.00463952
0.00464474
0.00464995
0.00465516
0.00466039
0.00466562
0.00467087
0.00467613
0.00468142
0.00468673
0.00469207
0.00469743
0.00470282
0.00470825
0.0047137
0.00471918
0.00472469
0.00473022
0.00473577
0.00474133
0.0047469
0.00475248
0.00475806
0.00476363
0.00476918
0.00477472
0.00478024
0.00478574
0.00479122
0.00479668
0.00480212
0.00480755
0.00481297
0.0048184
0.00482383
0.00482928
0.00483475
0.00484024
0.00484577
0.00485132
0.00485691
0.00486253
0.00486818
0.00487385
0.00487954
0.00488523
0.00489092
0.00489659
0.00490225
0.00490787
0.00491346
0.004919
0.00492449
0.00492993
0.00493533
0.00494068
0.00494598
0.00495125
0.00495649
0.00496171
0.00496692
0.00497212
0.00497733
0.00498255
0.0049878
0.00499306
0.00499836
0.00500369
0.00500904
0.00501443
0.00501985
0.0050253
0.00503078
0.00503628
0.0050418
0.00504735
0.00505289
0.00505848
0.00506403
0.00506968
0.0050752
0.00508092
0.00508636
0.00509224
0.00509747
0.00510366
0.00510842
0.00511526
0.00511912
0.00512711
0.00512967
0.00513941
0.00360488
0.00409432
0.00423118
0.00426447
0.00426281
0.00425498
0.0042448
0.00423772
0.00423342
0.00423146
0.0042316
0.00423288
0.00423593
0.00424034
0.00424581
0.00425227
0.00425955
0.00426751
0.00427605
0.00428505
0.00429441
0.00430406
0.00431392
0.00432395
0.0043341
0.00434434
0.00435464
0.00436498
0.00437534
0.00438569
0.00439601
0.0044063
0.00441652
0.00442667
0.00443673
0.00444669
0.00445654
0.00446627
0.00447587
0.00448534
0.00449469
0.0045039
0.00451298
0.00452193
0.00453076
0.00453945
0.00454802
0.00455647
0.00456478
0.00457297
0.00458103
0.00458895
0.00459676
0.00460443
0.00461199
0.00461944
0.00462678
0.00463403
0.00464119
0.00464828
0.00465529
0.00466224
0.00466914
0.00467598
0.00468278
0.00468952
0.00469621
0.00470286
0.00470945
0.004716
0.00472251
0.00472897
0.0047354
0.00474179
0.00474817
0.00475452
0.00476086
0.00476719
0.00477351
0.00477984
0.00478616
0.00479247
0.00479878
0.00480508
0.00481136
0.00481763
0.00482388
0.00483011
0.00483633
0.00484253
0.00484872
0.0048549
0.00486108
0.00486725
0.00487342
0.00487958
0.00488575
0.00489192
0.00489809
0.00490425
0.00491042
0.00491659
0.00492275
0.00492892
0.00493508
0.00494124
0.0049474
0.00495356
0.00495971
0.00496586
0.00497201
0.00497815
0.0049843
0.00499043
0.00499657
0.0050027
0.00500882
0.00501495
0.00502107
0.00502718
0.00503329
0.0050394
0.0050455
0.0050516
0.00505769
0.00506378
0.00506987
0.00507595
0.00508202
0.00508809
0.00509416
0.00510022
0.00510627
0.00511232
0.00511836
0.0051244
0.00513043
0.00513645
0.00514247
0.00514849
0.0051545
0.0051605
0.0051665
0.00517249
0.00517847
0.00518445
0.00519043
0.00519639
0.00520236
0.00520831
0.00521426
0.00522021
0.00522615
0.00523209
0.00523802
0.00524395
0.00524987
0.00525579
0.0052617
0.00526762
0.00527352
0.00527943
0.00528533
0.00529124
0.00529712
0.00530304
0.00530889
0.00531484
0.00532063
0.00532665
0.00533233
0.0053385
0.00534393
0.00535045
0.00535536
0.00536257
0.00536659
0.00537482
0.00537806
0.00538755
0.00244422
0.003074
0.00337737
0.00351517
0.00357266
0.0035965
0.00360656
0.00361238
0.00361757
0.00362329
0.00362996
0.0036373
0.00364542
0.00365412
0.00366328
0.00367279
0.00368255
0.00369245
0.00370244
0.00371246
0.00372245
0.00373239
0.00374223
0.00375196
0.00376156
0.00377104
0.00378038
0.0037896
0.0037987
0.00380771
0.00381663
0.00382547
0.00383426
0.003843
0.0038517
0.00386035
0.00386896
0.00387752
0.00388603
0.00389447
0.00390285
0.00391116
0.0039194
0.00392756
0.00393565
0.00394366
0.00395161
0.0039595
0.00396733
0.0039751
0.00398281
0.00399047
0.00399807
0.0040056
0.00401307
0.00402046
0.00402777
0.00403499
0.00404212
0.00404917
0.00405614
0.00406303
0.00406984
0.0040766
0.0040833
0.00408995
0.00409656
0.00410313
0.00410966
0.00411616
0.00412261
0.00412902
0.00413538
0.00414169
0.00414795
0.00415415
0.0041603
0.0041664
0.00417245
0.00417847
0.00418446
0.00419043
0.00419639
0.00420233
0.00420827
0.00421421
0.00422014
0.00422605
0.00423196
0.00423785
0.00424373
0.00424958
0.00425542
0.00426125
0.00426705
0.00427284
0.00427861
0.00428437
0.00429012
0.00429585
0.00430158
0.00430729
0.00431299
0.00431869
0.00432437
0.00433005
0.00433573
0.0043414
0.00434706
0.00435273
0.00435838
0.00436404
0.00436969
0.00437534
0.00438099
0.00438663
0.00439227
0.0043979
0.00440353
0.00440915
0.00441477
0.00442038
0.00442598
0.00443158
0.00443717
0.00444275
0.00444833
0.0044539
0.00445946
0.00446502
0.00447057
0.00447612
0.00448166
0.0044872
0.00449274
0.00449827
0.0045038
0.00450933
0.00451485
0.00452038
0.0045259
0.00453141
0.00453693
0.00454243
0.00454794
0.00455344
0.00455893
0.00456442
0.00456991
0.00457538
0.00458085
0.00458631
0.00459177
0.00459722
0.00460266
0.0046081
0.00461353
0.00461895
0.00462436
0.00462978
0.00463518
0.00464058
0.00464597
0.00465137
0.00465673
0.00466214
0.00466747
0.0046729
0.00467818
0.00468368
0.00468884
0.00469448
0.00469941
0.00470535
0.00470984
0.00471635
0.00472015
0.00472735
0.00473073
0.00473922
0.00119248
0.00161065
0.00202359
0.00233047
0.00253389
0.0026642
0.00274844
0.00280503
0.00284538
0.00287627
0.00290167
0.00292366
0.00294341
0.00296152
0.00297826
0.00299383
0.00300829
0.00302172
0.0030342
0.00304582
0.00305667
0.00306681
0.00307632
0.00308526
0.00309369
0.00310166
0.00310921
0.0031164
0.00312327
0.00312988
0.00313629
0.00314253
0.00314867
0.00315474
0.00316079
0.00316683
0.00317289
0.00317898
0.0031851
0.00319125
0.00319742
0.0032036
0.0032098
0.00321599
0.00322218
0.00322837
0.00323456
0.00324076
0.00324697
0.0032532
0.00325947
0.00326577
0.00327211
0.00327848
0.00328488
0.00329128
0.00329768
0.00330405
0.00331039
0.00331668
0.0033229
0.00332906
0.00333515
0.00334118
0.00334716
0.00335309
0.003359
0.00336488
0.00337076
0.00337661
0.00338246
0.00338829
0.0033941
0.00339987
0.00340559
0.00341125
0.00341684
0.00342236
0.0034278
0.00343316
0.00343847
0.00344372
0.00344894
0.00345413
0.00345932
0.0034645
0.00346968
0.00347487
0.00348005
0.00348524
0.0034904
0.00349556
0.00350069
0.00350579
0.00351087
0.00351592
0.00352094
0.00352593
0.00353089
0.00353583
0.00354075
0.00354565
0.00355053
0.00355539
0.00356024
0.00356509
0.00356992
0.00357475
0.00357957
0.00358438
0.0035892
0.00359401
0.00359882
0.00360362
0.00360843
0.00361323
0.00361803
0.00362283
0.00362763
0.00363242
0.00363721
0.003642
0.00364678
0.00365156
0.00365633
0.00366109
0.00366586
0.00367061
0.00367537
0.00368012
0.00368486
0.00368961
0.00369435
0.00369908
0.00370382
0.00370855
0.00371329
0.00371802
0.00372275
0.00372747
0.0037322
0.00373692
0.00374164
0.00374636
0.00375107
0.00375578
0.00376049
0.0037652
0.0037699
0.00377459
0.00377928
0.00378397
0.00378865
0.00379333
0.00379801
0.00380268
0.00380734
0.003812
0.00381666
0.00382131
0.00382595
0.0038306
0.00383523
0.00383988
0.00384449
0.00384915
0.00385372
0.00385841
0.00386292
0.00386768
0.00387208
0.00387699
0.00388117
0.00388634
0.00389018
0.00389577
0.00389912
0.00390517
0.0039082
0.0039156
0.000432194
0.000558995
0.000755862
0.00100355
0.00124163
0.00144786
0.00161869
0.00175711
0.00186827
0.00195767
0.00203023
0.00208977
0.00213916
0.00218045
0.00221515
0.0022444
0.00226908
0.00228989
0.00230746
0.00232232
0.00233492
0.00234565
0.00235485
0.00236276
0.0023696
0.00237553
0.0023807
0.00238522
0.00238919
0.00239271
0.00239587
0.00239876
0.00240146
0.00240403
0.00240655
0.00240907
0.00241163
0.00241427
0.00241701
0.00241985
0.00242281
0.00242587
0.00242903
0.00243227
0.0024356
0.002439
0.00244246
0.00244601
0.00244963
0.00245334
0.00245715
0.00246107
0.00246512
0.00246929
0.00247358
0.00247799
0.00248249
0.00248707
0.0024917
0.00249636
0.00250103
0.00250569
0.00251033
0.00251493
0.0025195
0.00252405
0.00252859
0.00253312
0.00253767
0.00254223
0.00254682
0.00255144
0.00255607
0.00256071
0.00256534
0.00256995
0.00257451
0.00257901
0.00258344
0.00258779
0.00259206
0.00259625
0.00260039
0.00260448
0.00260854
0.00261259
0.00261665
0.00262071
0.00262478
0.00262886
0.00263295
0.00263703
0.00264109
0.00264513
0.00264915
0.00265313
0.00265708
0.00266099
0.00266487
0.00266871
0.00267253
0.00267631
0.00268008
0.00268382
0.00268754
0.00269126
0.00269495
0.00269864
0.00270233
0.00270601
0.00270968
0.00271335
0.00271702
0.00272069
0.00272435
0.00272802
0.00273168
0.00273535
0.00273901
0.00274268
0.00274634
0.00275
0.00275366
0.00275731
0.00276097
0.00276462
0.00276827
0.00277192
0.00277556
0.00277921
0.00278285
0.00278649
0.00279013
0.00279377
0.00279741
0.00280105
0.00280469
0.00280833
0.00281197
0.00281561
0.00281925
0.00282288
0.00282652
0.00283016
0.00283379
0.00283742
0.00284106
0.00284469
0.00284831
0.00285194
0.00285556
0.00285919
0.0028628
0.00286642
0.00287004
0.00287366
0.00287727
0.00288088
0.00288448
0.0028881
0.00289169
0.00289531
0.00289889
0.00290252
0.00290607
0.00290972
0.00291323
0.00291693
0.00292037
0.00292415
0.00292748
0.0029314
0.00293455
0.00293868
0.00294158
0.00294598
0.0029486
0.00295327
0.00295567
0.0029615
0.000106546
0.000133653
0.00017773
0.000245862
0.000344227
0.00046033
0.000584129
0.000708429
0.000827909
0.000939344
0.00104096
0.00113209
0.0012126
0.00128288
0.00134351
0.00139535
0.00143928
0.00147622
0.00150711
0.00153283
0.00155418
0.00157188
0.00158656
0.00159873
0.00160884
0.00161722
0.00162415
0.00162987
0.00163457
0.00163841
0.00164154
0.0016441
0.00164621
0.00164797
0.00164949
0.00165085
0.00165213
0.00165338
0.00165466
0.00165598
0.00165736
0.00165882
0.00166036
0.00166197
0.00166364
0.00166537
0.00166717
0.00166901
0.00167093
0.00167291
0.00167498
0.00167714
0.00167941
0.0016818
0.00168432
0.00168695
0.0016897
0.00169255
0.00169549
0.00169848
0.00170151
0.00170456
0.00170761
0.00171066
0.00171369
0.0017167
0.00171971
0.00172272
0.00172574
0.00172879
0.00173187
0.00173499
0.00173815
0.00174133
0.00174453
0.00174773
0.00175092
0.00175408
0.0017572
0.00176026
0.00176325
0.00176617
0.00176903
0.00177185
0.00177463
0.0017774
0.00178016
0.00178293
0.00178571
0.00178851
0.00179131
0.00179412
0.00179692
0.00179972
0.00180249
0.00180525
0.00180797
0.00181066
0.00181333
0.00181597
0.00181858
0.00182116
0.00182372
0.00182627
0.00182879
0.0018313
0.00183381
0.0018363
0.00183878
0.00184126
0.00184374
0.00184621
0.00184868
0.00185114
0.00185361
0.00185608
0.00185854
0.00186101
0.00186347
0.00186593
0.0018684
0.00187086
0.00187332
0.00187578
0.00187824
0.0018807
0.00188316
0.00188562
0.00188808
0.00189054
0.00189299
0.00189545
0.00189791
0.00190036
0.00190282
0.00190528
0.00190773
0.00191019
0.00191265
0.0019151
0.00191756
0.00192002
0.00192247
0.00192493
0.00192738
0.00192984
0.00193229
0.00193474
0.00193719
0.00193964
0.00194209
0.00194454
0.00194698
0.00194944
0.00195188
0.00195434
0.00195677
0.00195923
0.00196165
0.00196413
0.00196653
0.00196903
0.00197141
0.00197394
0.00197627
0.00197885
0.00198112
0.00198377
0.00198595
0.00198869
0.00199077
0.00199363
0.00199558
0.00199857
0.00200039
0.0020035
0.00200522
0.00200841
0.00201006
0.00201408
0.000102939
0.000125254
0.00016153
0.000220678
0.000308337
0.000419645
0.000542002
0.000667892
0.000791479
0.000908918
0.00101759
0.00111633
0.00120448
0.00128234
0.00135015
0.00140903
0.0014597
0.00150305
0.00154
0.00157146
0.00159828
0.00162121
0.00164091
0.00165794
0.00167276
0.00168572
0.00169713
0.00170722
0.0017162
0.00172424
0.00173148
0.00173807
0.00174411
0.00174973
0.00175502
0.00176006
0.00176492
0.00176965
0.0017743
0.00177889
0.00178342
0.00178791
0.00179234
0.00179671
0.001801
0.00180523
0.00180937
0.00181343
0.00181742
0.00182135
0.00182525
0.00182912
0.00183299
0.00183688
0.0018408
0.00184474
0.0018487
0.00185267
0.00185664
0.00186059
0.0018645
0.00186835
0.00187214
0.00187585
0.00187949
0.00188306
0.00188657
0.00189006
0.00189352
0.00189698
0.00190045
0.00190393
0.00190743
0.00191094
0.00191445
0.00191795
0.00192142
0.00192484
0.00192819
0.00193147
0.00193466
0.00193778
0.00194083
0.00194383
0.0019468
0.00194975
0.0019527
0.00195566
0.00195864
0.00196163
0.00196464
0.00196766
0.00197067
0.00197368
0.00197667
0.00197963
0.00198257
0.00198549
0.00198837
0.00199122
0.00199405
0.00199685
0.00199963
0.00200238
0.00200513
0.00200785
0.00201057
0.00201327
0.00201597
0.00201866
0.00202134
0.00202402
0.0020267
0.00202938
0.00203205
0.00203473
0.0020374
0.00204008
0.00204275
0.00204542
0.00204809
0.00205076
0.00205343
0.0020561
0.00205877
0.00206144
0.0020641
0.00206677
0.00206943
0.0020721
0.00207476
0.00207742
0.00208008
0.00208274
0.0020854
0.00208806
0.00209072
0.00209337
0.00209603
0.00209869
0.00210134
0.00210399
0.00210664
0.0021093
0.00211194
0.00211459
0.00211724
0.00211988
0.00212253
0.00212517
0.00212781
0.00213046
0.00213309
0.00213574
0.00213837
0.00214102
0.00214365
0.00214631
0.00214892
0.00215159
0.00215419
0.00215687
0.00215945
0.00216216
0.0021647
0.00216745
0.00216993
0.00217275
0.00217514
0.00217806
0.00218033
0.00218339
0.0021855
0.00218873
0.00219066
0.00219406
0.00219584
0.00219935
0.00220109
0.00220543
0.000423762
0.000541422
0.000723815
0.000961605
0.00120143
0.00141567
0.00159745
0.00174807
0.00187175
0.00197336
0.0020574
0.00212748
0.00218648
0.00223641
0.00227903
0.00231523
0.00234613
0.00237257
0.00239526
0.00241483
0.0024318
0.00244662
0.00245966
0.00247121
0.00248151
0.00249077
0.00249912
0.00250671
0.00251364
0.00252002
0.00252594
0.00253149
0.00253675
0.0025418
0.00254669
0.00255149
0.00255623
0.00256095
0.00256566
0.00257036
0.00257506
0.00257974
0.00258441
0.00258904
0.00259363
0.00259817
0.00260267
0.00260714
0.00261159
0.00261604
0.0026205
0.002625
0.00262955
0.00263416
0.00263882
0.00264354
0.0026483
0.00265309
0.00265788
0.00266266
0.00266741
0.00267212
0.00267678
0.00268139
0.00268597
0.00269051
0.00269504
0.00269957
0.00270411
0.00270868
0.00271328
0.0027179
0.00272254
0.00272719
0.00273184
0.00273645
0.00274103
0.00274554
0.00274999
0.00275436
0.00275866
0.0027629
0.00276708
0.00277124
0.00277539
0.00277953
0.00278368
0.00278785
0.00279204
0.00279623
0.00280043
0.00280463
0.00280881
0.00281297
0.0028171
0.0028212
0.00282527
0.00282931
0.00283331
0.00283729
0.00284123
0.00284515
0.00284905
0.00285293
0.00285679
0.00286064
0.00286447
0.0028683
0.00287212
0.00287594
0.00287975
0.00288356
0.00288736
0.00289117
0.00289497
0.00289877
0.00290257
0.00290637
0.00291017
0.00291397
0.00291777
0.00292156
0.00292536
0.00292915
0.00293294
0.00293673
0.00294051
0.0029443
0.00294808
0.00295186
0.00295564
0.00295942
0.0029632
0.00296697
0.00297074
0.00297452
0.00297829
0.00298206
0.00298582
0.00298959
0.00299335
0.00299711
0.00300087
0.00300463
0.00300838
0.00301214
0.00301589
0.00301964
0.00302338
0.00302713
0.00303087
0.00303462
0.00303836
0.0030421
0.00304584
0.00304958
0.00305331
0.00305705
0.00306077
0.00306451
0.00306823
0.00307197
0.00307567
0.00307943
0.00308311
0.00308688
0.00309052
0.00309434
0.00309791
0.00310181
0.00310526
0.00310931
0.00311257
0.00311685
0.00311982
0.00312443
0.00312705
0.00313197
0.00313441
0.00314047
0.00118079
0.00158916
0.00199988
0.00231947
0.00254084
0.00268812
0.0027869
0.00285565
0.00290608
0.00294526
0.00297738
0.00300483
0.00302899
0.00305061
0.00307014
0.0030878
0.00310377
0.0031182
0.00313124
0.00314304
0.00315373
0.00316344
0.00317229
0.00318038
0.0031878
0.00319462
0.00320093
0.00320678
0.00321225
0.0032174
0.0032223
0.00322701
0.00323158
0.00323606
0.00324049
0.00324491
0.00324932
0.00325375
0.00325819
0.00326266
0.00326713
0.00327163
0.00327613
0.00328064
0.00328516
0.0032897
0.00329427
0.00329889
0.00330355
0.00330828
0.00331308
0.00331796
0.00332291
0.00332794
0.00333304
0.00333818
0.00334337
0.00334858
0.0033538
0.00335903
0.00336426
0.00336948
0.0033747
0.00337992
0.00338516
0.00339041
0.00339568
0.00340099
0.00340632
0.00341168
0.00341705
0.00342244
0.00342783
0.00343321
0.00343857
0.00344389
0.00344917
0.0034544
0.00345959
0.00346473
0.00346985
0.00347495
0.00348003
0.00348511
0.00349019
0.00349528
0.00350038
0.00350547
0.00351057
0.00351565
0.00352072
0.00352576
0.00353079
0.00353578
0.00354075
0.00354569
0.0035506
0.00355549
0.00356036
0.0035652
0.00357003
0.00357484
0.00357963
0.00358442
0.00358919
0.00359396
0.00359872
0.00360347
0.00360822
0.00361297
0.00361771
0.00362245
0.00362719
0.00363193
0.00363666
0.0036414
0.00364613
0.00365086
0.00365559
0.00366031
0.00366503
0.00366975
0.00367446
0.00367917
0.00368388
0.00368858
0.00369328
0.00369798
0.00370267
0.00370736
0.00371205
0.00371673
0.00372141
0.00372609
0.00373077
0.00373544
0.00374012
0.00374479
0.00374945
0.00375412
0.00375878
0.00376344
0.00376809
0.00377275
0.00377739
0.00378204
0.00378668
0.00379132
0.00379595
0.00380058
0.00380521
0.00380984
0.00381446
0.00381907
0.00382369
0.0038283
0.0038329
0.00383751
0.0038421
0.0038467
0.00385129
0.00385589
0.00386046
0.00386506
0.00386962
0.00387423
0.00387875
0.0038834
0.00388786
0.00389258
0.00389692
0.00390179
0.00390592
0.00391107
0.00391482
0.00392041
0.00392365
0.00392973
0.00393269
0.00394006
0.00243673
0.00307866
0.00340005
0.00355518
0.00362524
0.00365658
0.00367105
0.00367917
0.00368511
0.00369046
0.00369582
0.00370139
0.00370721
0.00371326
0.00371944
0.00372571
0.00373198
0.00373814
0.00374422
0.00375016
0.00375592
0.00376149
0.00376688
0.00377208
0.0037771
0.00378195
0.00378664
0.0037912
0.00379566
0.00380004
0.00380437
0.00380867
0.00381296
0.00381726
0.00382158
0.00382591
0.00383028
0.00383468
0.00383911
0.00384358
0.00384809
0.00385264
0.00385724
0.00386189
0.00386661
0.00387141
0.00387628
0.00388123
0.00388628
0.0038914
0.0038966
0.00390188
0.00390723
0.00391263
0.00391807
0.00392356
0.00392908
0.00393464
0.00394021
0.00394582
0.00395146
0.00395712
0.00396282
0.00396855
0.00397432
0.00398011
0.00398593
0.00399177
0.00399762
0.00400348
0.00400933
0.00401518
0.00402101
0.00402682
0.00403261
0.00403838
0.00404414
0.00404988
0.00405561
0.00406134
0.00406707
0.00407281
0.00407855
0.00408429
0.00409002
0.00409576
0.00410147
0.00410718
0.00411286
0.00411852
0.00412416
0.00412978
0.00413538
0.00414096
0.00414652
0.00415207
0.0041576
0.00416312
0.00416863
0.00417412
0.00417962
0.0041851
0.00419058
0.00419605
0.00420152
0.00420699
0.00421245
0.00421791
0.00422336
0.00422881
0.00423426
0.00423971
0.00424516
0.0042506
0.00425603
0.00426147
0.0042669
0.00427233
0.00427775
0.00428316
0.00428858
0.00429398
0.00429938
0.00430478
0.00431017
0.00431555
0.00432094
0.00432631
0.00433168
0.00433705
0.00434241
0.00434777
0.00435313
0.00435848
0.00436383
0.00436918
0.00437452
0.00437986
0.0043852
0.00439054
0.00439586
0.00440119
0.00440651
0.00441183
0.00441714
0.00442245
0.00442775
0.00443305
0.00443834
0.00444362
0.00444891
0.00445418
0.00445945
0.00446472
0.00446997
0.00447523
0.00448048
0.00448572
0.00449096
0.0044962
0.00450143
0.00450666
0.00451187
0.00451711
0.0045223
0.00452754
0.00453271
0.00453798
0.00454309
0.00454842
0.00455342
0.0045589
0.00456366
0.00456945
0.00457377
0.00458013
0.00458375
0.00459082
0.00459403
0.00460234
0.00362236
0.00412918
0.00427293
0.00430418
0.00429899
0.00428432
0.00426702
0.00425231
0.00424019
0.00423035
0.00422253
0.00421652
0.00421212
0.00420913
0.00420731
0.00420664
0.00420679
0.00420751
0.00420904
0.00421101
0.00421334
0.00421597
0.00421884
0.00422191
0.00422514
0.00422852
0.00423202
0.00423563
0.00423934
0.00424315
0.00424703
0.00425099
0.00425501
0.0042591
0.00426323
0.00426741
0.00427164
0.00427592
0.00428026
0.00428466
0.00428912
0.00429367
0.00429831
0.00430304
0.00430787
0.00431279
0.00431782
0.00432294
0.00432814
0.00433341
0.00433876
0.00434416
0.0043496
0.0043551
0.00436063
0.00436621
0.00437183
0.0043775
0.00438321
0.00438897
0.00439479
0.00440064
0.00440655
0.00441249
0.00441846
0.00442445
0.00443045
0.00443645
0.00444245
0.00444845
0.00445443
0.00446041
0.00446638
0.00447235
0.00447832
0.0044843
0.00449029
0.0044963
0.00450232
0.00450836
0.00451441
0.00452047
0.00452652
0.00453257
0.0045386
0.00454461
0.0045506
0.00455657
0.00456252
0.00456845
0.00457437
0.00458027
0.00458616
0.00459205
0.00459793
0.00460381
0.00460968
0.00461556
0.00462143
0.00462731
0.00463318
0.00463906
0.00464493
0.00465081
0.00465668
0.00466255
0.00466843
0.0046743
0.00468017
0.00468603
0.0046919
0.00469776
0.00470362
0.00470947
0.00471532
0.00472117
0.00472701
0.00473285
0.00473868
0.00474451
0.00475034
0.00475616
0.00476197
0.00476779
0.0047736
0.0047794
0.0047852
0.004791
0.0047968
0.00480259
0.00480838
0.00481416
0.00481994
0.00482572
0.00483149
0.00483726
0.00484302
0.00484877
0.00485452
0.00486027
0.00486601
0.00487174
0.00487747
0.00488319
0.0048889
0.00489461
0.00490031
0.00490601
0.0049117
0.00491739
0.00492307
0.00492875
0.00493442
0.00494009
0.00494575
0.00495141
0.00495707
0.00496273
0.00496837
0.00497403
0.00497967
0.00498532
0.00499095
0.0049966
0.00500222
0.00500788
0.00501347
0.00501916
0.0050247
0.00503045
0.00503588
0.00504178
0.00504697
0.0050532
0.00505791
0.00506478
0.00506865
0.00507649
0.00507963
0.0050887
0.00394927
0.00418185
0.00421021
0.00418656
0.00414894
0.00411734
0.00409076
0.0040682
0.00404872
0.00403195
0.00401769
0.00400569
0.0039957
0.00398748
0.0039808
0.00397556
0.00397153
0.00396853
0.00396646
0.00396514
0.00396449
0.00396434
0.00396466
0.0039654
0.00396646
0.00396782
0.00396945
0.00397129
0.00397334
0.00397555
0.0039779
0.00398037
0.00398293
0.00398558
0.00398831
0.00399111
0.00399399
0.00399695
0.004
0.00400314
0.00400639
0.00400975
0.00401323
0.00401682
0.00402054
0.00402436
0.00402828
0.00403229
0.00403639
0.00404057
0.00404481
0.00404911
0.00405347
0.00405789
0.00406237
0.00406691
0.00407151
0.00407616
0.00408088
0.00408564
0.00409045
0.00409529
0.00410017
0.00410505
0.00410994
0.00411483
0.00411971
0.00412458
0.00412943
0.00413427
0.0041391
0.00414393
0.00414878
0.00415363
0.00415851
0.00416342
0.00416836
0.00417333
0.00417833
0.00418335
0.00418838
0.00419342
0.00419846
0.0042035
0.00420852
0.00421354
0.00421854
0.00422354
0.00422853
0.00423352
0.0042385
0.0042435
0.0042485
0.00425351
0.00425853
0.00426357
0.00426862
0.00427369
0.00427879
0.0042839
0.00428903
0.00429418
0.00429936
0.00430455
0.00430976
0.00431499
0.00432024
0.00432549
0.00433075
0.00433601
0.00434127
0.00434652
0.00435177
0.004357
0.00436222
0.00436743
0.00437262
0.00437779
0.00438295
0.00438811
0.00439326
0.00439841
0.00440356
0.00440873
0.00441391
0.0044191
0.00442432
0.00442956
0.00443482
0.0044401
0.0044454
0.00445072
0.00445604
0.00446137
0.00446669
0.00447201
0.0044773
0.00448258
0.00448783
0.00449304
0.00449823
0.00450337
0.00450848
0.00451356
0.0045186
0.00452362
0.00452862
0.00453361
0.00453858
0.00454355
0.00454853
0.00455351
0.00455851
0.00456352
0.00456855
0.00457361
0.00457868
0.00458378
0.00458889
0.00459403
0.00459918
0.00460436
0.00460954
0.00461475
0.00461994
0.00462518
0.00463037
0.00463566
0.00464082
0.00464617
0.00465126
0.00465675
0.00466164
0.00466742
0.00467188
0.00467825
0.00468189
0.00468931
0.00469176
0.00470073
)
;

boundaryField
{
    upperWall
    {
        type            zeroGradient;
    }
    lowerWall
    {
        type            zeroGradient;
    }
    heatedWall
    {
        type            zeroGradient;
    }