/*--------------------------------*- C++ -*----------------------------------*\
  =========                 |
  \\      /  F ield         | OpenFOAM: The Open Source CFD Toolbox
   \\    /   O peration     | Website:  https://openfoam.org
    \\  /    A nd           | Version:  7
     \\/     M anipulation  |
\*---------------------------------------------------------------------------*/
FoamFile
{
    version     2.0;
    format      ascii;
    class       surfaceScalarField;
    location    "0.85";
    object      phi_0;
}
// * * * * * * * * * * * * * * * * * * * * * * * * * * * * * * * * * * * * * //

dimensions      [1 0 -1 0 0 0 0];

internalField   nonuniform List<scalar> 
4588
(
0.0134599
0.000413999
0.0124655
0.00100993
0.0111856
0.00129452
0.0098672
0.00133249
0.0086647
0.00121671
0.0076469
0.00103213
0.00683382
0.000827406
0.00621034
0.000637658
0.00574482
0.000479439
0.00540329
0.000355167
0.00515488
0.000261851
0.004974
0.000194264
0.00484076
0.000146699
0.00474048
0.000113924
0.00466247
9.18943e-05
0.00459951
7.70595e-05
0.00454684
6.6865e-05
0.0045011
5.98284e-05
0.00446001
5.48673e-05
0.00442212
5.11936e-05
0.0043866
4.8274e-05
0.00435306
4.57828e-05
0.00432137
4.35528e-05
0.0042915
4.15209e-05
0.00426344
3.9646e-05
0.00423709
3.78756e-05
0.0042123
3.61505e-05
0.0041888
3.44824e-05
0.00416633
3.28291e-05
0.00414456
3.12894e-05
0.00412344
2.97178e-05
0.00410276
2.84543e-05
0.00408301
2.69537e-05
0.00406367
2.62934e-05
0.00404646
2.42497e-05
0.0040283
2.54822e-05
0.00401727
1.87205e-05
0.00399591
2.92474e-05
0.00402898
-2.52093e-05
5.85558e-05
0.00397835
0.0139956
0.000291589
0.014271
0.000749561
0.0144991
0.00108015
0.0145875
0.001257
0.0145289
0.00128805
0.0143578
0.00121601
0.0141157
0.00108226
0.0138415
0.000924453
0.0135618
0.000771585
0.0132903
0.000638643
0.0130344
0.000529608
0.0127972
0.000443152
0.0125796
0.000376128
0.0123806
0.000324968
0.0121976
0.000286743
0.0120291
0.000257442
0.0118736
0.000234079
0.0117298
0.000215414
0.0115964
0.000199931
0.0114725
0.000186607
0.0113574
0.000174784
0.0112503
0.000164074
0.0111507
0.000154249
0.0110581
0.000145252
0.010972
0.000136952
0.0108918
0.000129303
0.0108172
0.000122066
0.0107473
0.000115396
0.0106819
0.000108933
0.0106199
0.000103257
0.0105614
9.73887e-05
0.0105051
9.30492e-05
0.0104526
8.7307e-05
0.0104013
8.51723e-05
0.0103555
7.7608e-05
0.0103082
8.05255e-05
0.0102701
6.49824e-05
0.0102234
8.41183e-05
0.0101659
4.02469e-05
0.000116499
0.0101155
0.0139525
0.000210906
0.0141791
0.000536713
0.0144949
0.000776673
0.014848
0.000915466
0.0151847
0.000962693
0.0154736
0.00093833
0.015701
0.000866184
0.0158669
0.000769692
0.0159805
0.000669091
0.0160523
0.000577528
0.016092
0.000500239
0.0161077
0.000437587
0.0161062
0.000387799
0.0160931
0.000348639
0.0160713
0.000319473
0.0160428
0.000296846
0.0160086
0.000278827
0.0159698
0.000264153
0.0159271
0.000251761
0.0158816
0.000240816
0.0158342
0.000230747
0.0157857
0.000221293
0.0157367
0.000212315
0.0156876
0.000203856
0.0156387
0.000195796
0.0155901
0.000188172
0.0155418
0.0001807
0.0154939
0.000173693
0.0154463
0.000166626
0.0153987
0.000160463
0.0153514
0.000153718
0.0153037
0.000148959
0.0152568
0.000141985
0.01521
0.000139531
0.0151651
0.00013045
0.0151214
0.000132822
0.0150778
0.000118013
0.0150392
0.000132588
0.0149827
0.000106691
0.000156877
0.0149518
0.0139309
0.00014986
0.0141174
0.000362047
0.0143861
0.000518467
0.0147016
0.000609661
0.0150316
0.000642032
0.0153513
0.000627951
0.0156425
0.000584228
0.0158962
0.000525353
0.0161115
0.000462839
0.0162931
0.000404798
0.0164462
0.000355451
0.0165764
0.000315319
0.016689
0.000283369
0.0167877
0.000258413
0.0168768
0.000239447
0.0169577
0.00022531
0.0170314
0.000214147
0.0170987
0.000204999
0.0171603
0.000197368
0.0172169
0.000190688
0.0172691
0.000184516
0.0173178
0.000178684
0.0173636
0.000173097
0.0174072
0.000167815
0.0174485
0.000162743
0.0174875
0.000157948
0.0175241
0.000153166
0.017558
0.0001487
0.0175893
0.000144044
0.017618
0.000140136
0.0176443
0.000135666
0.0176682
0.000132877
0.0176893
0.000128382
0.0177089
0.000127238
0.0177247
0.000121744
0.0177417
0.000123253
0.0177516
0.000116098
0.01777
0.000122978
0.0177667
0.000119393
0.000139802
0.0177941
0.0139229
9.45104e-05
0.014097
0.000197424
0.0143482
0.000275422
0.0146438
0.00032137
0.0149546
0.000338259
0.0152568
0.000332696
0.0155357
0.000312272
0.0157844
0.000283574
0.0160013
0.00025263
0.0161887
0.000223754
0.0163508
0.000199221
0.0164924
0.000179242
0.0166181
0.000163298
0.0167319
0.000150735
0.016837
0.000141078
0.0169356
0.000133677
0.0170286
0.000127767
0.0171166
0.000122876
0.0172003
0.000118657
0.0172803
0.000114838
0.0173574
0.000111195
0.0174323
0.000107676
0.0175058
0.00010422
0.0175784
0.000100885
0.0176502
9.76154e-05
0.0177209
9.44925e-05
0.0177902
9.1351e-05
0.017858
8.84204e-05
0.0179239
8.53767e-05
0.0179884
8.28536e-05
0.0180511
8.00335e-05
0.0181127
7.83439e-05
0.0181722
7.57789e-05
0.0182308
7.53081e-05
0.0182864
7.27014e-05
0.0183423
7.39913e-05
0.0183937
7.15151e-05
0.0184486
7.57564e-05
0.0184995
7.65829e-05
8.64417e-05
0.0185623
0.0139202
3.92561e-05
0.0140851
3.94751e-05
0.0143266
3.95386e-05
0.0146129
3.96754e-05
0.0149157
3.98811e-05
0.0152126
4.00945e-05
0.0154888
4.03087e-05
0.0157361
4.05139e-05
0.0159521
4.06894e-05
0.0161387
4.0816e-05
0.0163001
4.0917e-05
0.0164413
4.09157e-05
0.0165667
4.08019e-05
0.0166803
4.05755e-05
0.0167852
4.02164e-05
0.0168835
3.97166e-05
0.0169762
3.90679e-05
0.017064
3.82713e-05
0.0171477
3.73231e-05
0.017228
3.62558e-05
0.0173056
3.50008e-05
0.0173814
3.36451e-05
0.0174561
3.21766e-05
0.01753
3.06207e-05
0.0176034
2.89929e-05
0.0176761
2.73372e-05
0.0177476
2.56515e-05
0.0178179
2.40385e-05
0.0178868
2.24244e-05
0.0179545
2.10603e-05
0.0180209
1.96519e-05
0.0180865
1.88142e-05
0.0181505
1.77789e-05
0.0182137
1.7896e-05
0.0182748
1.72908e-05
0.0183355
1.90575e-05
0.0183946
1.85927e-05
0.0184542
2.30829e-05
0.0185172
2.10281e-05
2.91914e-05
0.0185832
0.0139202
-1.86837e-05
0.0140851
-0.000121159
0.0143266
-0.000199037
0.014613
-0.000244706
0.0149158
-0.000261224
0.0152127
-0.000255243
0.0154889
-0.000234407
0.0157362
-0.000205312
0.0159522
-0.000174026
0.0161387
-0.000144884
0.0163001
-0.000120178
0.0164412
-0.000100201
0.0165666
-8.44717e-05
0.0166802
-7.23517e-05
0.0167851
-6.33874e-05
0.0168833
-5.69446e-05
0.0169759
-5.22862e-05
0.0170637
-4.89373e-05
0.0171474
-4.65503e-05
0.0172277
-4.48224e-05
0.0173053
-4.35694e-05
0.017381
-4.26637e-05
0.0174556
-4.20506e-05
0.0175295
-4.17088e-05
0.0176029
-4.15953e-05
0.0176755
-4.16523e-05
0.0177471
-4.17706e-05
0.0178174
-4.19387e-05
0.0178863
-4.20099e-05
0.0179541
-4.21109e-05
0.0180205
-4.19822e-05
0.0180862
-4.18805e-05
0.0181503
-4.13068e-05
0.0182136
-4.05099e-05
0.0182749
-3.91157e-05
0.0183357
-3.67206e-05
0.018395
-3.52709e-05
0.0184545
-3.01852e-05
0.0185175
-3.5242e-05
-2.78305e-05
0.0185826
0.013923
-8.18985e-05
0.0140971
-0.000293658
0.0143484
-0.000449976
0.014644
-0.000540926
0.0149548
-0.00057297
0.015257
-0.000558512
0.0155359
-0.000514418
0.0157846
-0.000455192
0.0160015
-0.000392359
0.0161888
-0.000334072
0.0163508
-0.000284579
0.0164924
-0.000244456
0.016618
-0.00021269
0.0167317
-0.000188134
0.0168367
-0.000169788
0.0169351
-0.000156515
0.017028
-0.000146472
0.0171159
-0.000138706
0.0171994
-0.00013271
0.0172792
-0.000127911
0.0173562
-0.000123872
0.0174311
-0.000120386
0.0175045
-0.000117333
0.017577
-0.00011473
0.0176487
-0.000112469
0.0177194
-0.000110519
0.0177888
-0.000108639
0.0178566
-0.000106932
0.0179227
-0.000105043
0.0179873
-0.000103455
0.0180503
-0.000101356
0.0181122
-9.9922e-05
0.0181721
-9.7169e-05
0.0182312
-9.55703e-05
0.0182875
-9.11816e-05
0.018344
-8.89257e-05
0.0183964
-8.28734e-05
0.0184517
-7.98916e-05
0.018503
-8.04598e-05
-8.08025e-05
0.0185633
0.013931
-0.000155439
0.0141176
-0.000480857
0.0143864
-0.00072074
0.0147018
-0.000859341
0.0150319
-0.000906298
0.0153516
-0.000881635
0.0156429
-0.000809187
0.0158965
-0.000712413
0.0161118
-0.000611547
0.0162932
-0.00051978
0.0164462
-0.00044237
0.0165764
-0.000379727
0.0166887
-0.000330089
0.0167873
-0.000291257
0.0168762
-0.000262595
0.0169569
-0.000240674
0.0170303
-0.00022357
0.0170975
-0.000210026
0.0171589
-0.000198967
0.0172152
-0.000189558
0.0172673
-0.000181223
0.0173158
-0.000173674
0.0173616
-0.000166761
0.017405
-0.000160474
0.0174463
-0.000154706
0.0174854
-0.000149385
0.017522
-0.000144286
0.0175561
-0.000139495
0.0175877
-0.0001347
0.0176169
-0.000130355
0.0176438
-0.000125595
0.0176684
-0.000121786
0.0176906
-0.000116386
0.0177113
-0.000113212
0.017729
-0.000105451
0.0177478
-0.000103871
0.0177604
-9.08757e-05
0.0177807
-9.45933e-05
0.0177804
-7.40402e-05
-9.77364e-05
0.0178043
0.0139526
-0.000252381
0.0141793
-0.000710053
0.0144953
-0.0010406
0.0148484
-0.00121732
0.0151851
-0.00124817
0.0154741
-0.00117592
0.0157014
-0.00104196
0.0158674
-0.000883957
0.0159809
-0.000730904
0.0160526
-0.000597814
0.0160921
-0.000488696
0.0161076
-0.000402244
0.0161059
-0.000335328
0.0160926
-0.000284399
0.0160706
-0.000246528
0.0160419
-0.000217729
0.0160074
-0.000195015
0.0159683
-0.000177145
0.0159254
-0.000162603
0.0158796
-0.00015036
0.015832
-0.000139759
0.0157833
-0.000130391
0.0157342
-0.000122027
0.0156851
-0.000114557
0.0156362
-0.000107885
0.0155877
-0.000101852
0.0155397
-9.6314e-05
0.0154921
-9.11855e-05
0.015445
-8.63753e-05
0.0153982
-8.1926e-05
0.0153519
-7.75726e-05
0.0153056
-7.37608e-05
0.0152603
-6.94033e-05
0.0152157
-6.64022e-05
0.0151737
-6.04505e-05
0.0151335
-5.96172e-05
0.0150947
-4.70994e-05
0.0150605
-5.4806e-05
0.0150095
-1.72886e-05
-5.83118e-05
0.0149753
0.0139956
-0.000393704
0.0142713
-0.00098949
0.0144995
-0.00127404
0.014588
-0.00131195
0.0145294
-0.00119606
0.0143583
-0.00101138
0.0141162
-0.000806552
0.0138421
-0.0006167
0.0135622
-0.000458383
0.0132906
-0.000334033
0.0130345
-0.000240673
0.0127971
-0.000173088
0.0125793
-0.000125578
0.01238
-9.29215e-05
0.0121968
-7.10743e-05
0.0120279
-5.64979e-05
0.0118722
-4.66369e-05
0.011728
-4.00108e-05
0.0115943
-3.55337e-05
0.0114702
-3.24191e-05
0.0113548
-3.01314e-05
0.0112475
-2.83377e-05
0.0111479
-2.68662e-05
0.0110552
-2.56318e-05
0.0109691
-2.46014e-05
0.0108892
-2.36807e-05
0.0108148
-2.28387e-05
0.0107455
-2.19933e-05
0.0106806
-2.11965e-05
0.0106197
-2.03416e-05
0.0105623
-1.95429e-05
0.0105079
-1.86571e-05
0.0104572
-1.7826e-05
0.010409
-1.69407e-05
0.0103659
-1.56012e-05
0.0103242
-1.54593e-05
0.0102899
-9.87634e-06
0.0102541
-1.57806e-05
0.0102041
3.57999e-05
-2.85562e-05
0.0101768
0.0134599
0.0124658
0.0111859
0.00986766
0.00866523
0.00764747
0.00683438
0.00621085
0.00574522
0.00540352
0.00515491
0.0049738
0.00484031
0.00473974
0.00466142
0.00459812
0.00454511
0.00449904
0.00445763
0.00441945
0.00438366
0.00434991
0.00431807
0.00428814
0.00426009
0.00423387
0.00420934
0.00418628
0.00416439
0.00414349
0.00412342
0.00410429
0.0040862
0.00406942
0.00405464
0.00404074
0.00403307
0.00401988
0.00405827
0.0040319
0.00380363
0.000196671
0.00374514
8.86886e-05
0.00368689
9.43937e-05
0.00365568
7.21337e-05
0.0036341
6.43579e-05
0.00361683
6.02802e-05
0.00360405
5.29468e-05
0.00359618
4.42396e-05
0.00359347
3.63556e-05
0.00359514
3.03325e-05
0.00359992
2.61099e-05
0.00360918
2.361e-05
0.00362273
2.27555e-05
0.00363849
2.27971e-05
0.00365741
2.19413e-05
0.00367917
1.91693e-05
0.00370169
1.48106e-05
0.00372495
1.00558e-05
0.00374877
6.2465e-06
0.00377319
4.70407e-06
0.00379904
5.38485e-06
0.00382696
7.85993e-06
0.00385496
1.0561e-05
0.00388138
1.22066e-05
0.00390825
1.18043e-05
0.00393626
9.30342e-06
0.00396196
5.55028e-06
0.00398482
1.94532e-06
0.00400717
-4.52138e-07
0.0040292
-1.14304e-06
0.00404992
-7.16268e-07
0.00407033
-1.16714e-07
0.00408968
5.77503e-08
0.00410657
-1.97116e-07
0.00412332
-5.11802e-07
0.00414013
-4.79456e-07
0.00415392
7.8422e-07
0.00416664
3.97651e-06
0.00418107
8.62316e-06
0.00419437
1.30301e-05
0.00420595
1.52709e-05
0.00421765
1.49259e-05
0.00422851
1.29072e-05
0.00423782
1.03223e-05
0.00424585
8.33199e-06
0.00425339
7.5778e-06
0.00426148
8.6157e-06
0.00426845
1.20993e-05
0.00427483
1.73271e-05
0.00428257
2.24179e-05
0.00429036
2.55212e-05
0.00429764
2.5087e-05
0.00430465
2.1586e-05
0.00430995
1.67263e-05
0.00431446
1.16558e-05
0.0043199
8.35064e-06
0.00432504
7.36587e-06
0.00432922
8.0537e-06
0.00433416
8.84566e-06
0.00434025
9.0628e-06
0.00434536
8.75332e-06
0.00434915
8.02064e-06
0.00435353
7.40315e-06
0.0043588
6.97149e-06
0.00436366
6.53552e-06
0.00436761
6.05625e-06
0.00437186
5.52074e-06
0.0043767
4.71173e-06
0.00438075
3.58376e-06
0.00438487
2.43384e-06
0.00438937
1.94977e-06
0.00439254
2.60818e-06
0.00439607
3.86596e-06
0.00440142
4.96668e-06
0.004406
5.30312e-06
0.00440956
4.51604e-06
0.00441346
2.92456e-06
0.00441733
1.54117e-06
0.00442105
8.43622e-07
0.0044248
6.10783e-07
0.00442882
4.26431e-07
0.00443241
-2.54634e-08
0.00443585
-5.4997e-07
0.00443982
-6.25984e-07
0.00444308
-7.27304e-08
0.00444641
2.71714e-07
0.0044505
6.32507e-07
0.00445423
1.10489e-06
0.00445705
1.74206e-06
0.00445975
2.6265e-06
0.00446402
3.85619e-06
0.0044684
5.37933e-06
0.00447062
6.65761e-06
0.00447371
7.21692e-06
0.00447838
7.30733e-06
0.00448167
7.07688e-06
0.00448452
6.25868e-06
0.00448792
5.02512e-06
0.00449104
3.9725e-06
0.00449384
3.48885e-06
0.0044966
3.70521e-06
0.00449979
4.42375e-06
0.0045033
5.23956e-06
0.00450619
5.83754e-06
0.00450909
5.95426e-06
0.00451251
5.60989e-06
0.00451568
4.91079e-06
0.00451843
3.94002e-06
0.00452108
3.01046e-06
0.00452349
2.59876e-06
0.00452615
3.05962e-06
0.00452917
4.52646e-06
0.00453175
6.64861e-06
0.00453495
8.09989e-06
0.00453855
7.63749e-06
0.00454094
5.40557e-06
0.00454331
3.15235e-06
0.00454554
2.82184e-06
0.00454742
4.5636e-06
0.00455049
6.51008e-06
0.0045537
7.23744e-06
0.0045559
6.64923e-06
0.00455855
5.55561e-06
0.00456155
4.62398e-06
0.00456395
3.48916e-06
0.00456587
1.78906e-06
0.00456793
-3.30908e-08
0.00457003
-9.44792e-07
0.00457186
-3.41065e-07
0.00457373
1.84818e-06
0.00457573
5.07299e-06
0.00457847
8.29096e-06
0.00458107
1.02923e-05
0.00458347
1.05823e-05
0.00458611
9.81373e-06
0.00458743
9.31432e-06
0.00458855
9.77068e-06
0.00459093
1.12272e-05
0.00459328
1.28422e-05
0.00459591
1.32838e-05
0.00459808
1.18257e-05
0.00459924
9.50986e-06
0.0046008
8.01567e-06
0.00460228
8.06846e-06
0.00460384
8.70005e-06
0.00460591
9.23652e-06
0.00460744
1.02066e-05
0.0046087
1.20714e-05
0.00461068
1.41693e-05
0.00461253
1.52003e-05
0.00461418
1.48316e-05
0.00461641
1.38329e-05
0.00461824
1.28872e-05
0.00461987
1.1109e-05
0.00462161
8.06881e-06
0.00462297
3.49194e-06
0.00462325
3.27387e-07
0.00462396
-1.03455e-06
0.00462377
2.69599e-06
7.27333e-06
0.00980989
0.000525686
0.00962543
0.000303943
0.00948763
0.000268018
0.00938873
0.00021143
0.0093176
0.000178026
0.00926263
0.000158752
0.00921954
0.000137788
0.00918731
0.000115649
0.00916539
9.58471e-05
0.00915236
8.01184e-05
0.0091464
6.81687e-05
0.00914828
5.98162e-05
0.00915718
5.50484e-05
0.00917029
5.25526e-05
0.00918798
4.88532e-05
0.00920964
4.17807e-05
0.00923301
3.19793e-05
0.00925805
2.16536e-05
0.00928461
1.34201e-05
0.00931274
9.81158e-06
0.0093433
1.07171e-05
0.00937686
1.52788e-05
0.00941132
2.03705e-05
0.0094448
2.34705e-05
0.00947906
2.26633e-05
0.0095145
1.78346e-05
0.00954743
1.05605e-05
0.00957719
3.54646e-06
0.00960603
-1.1025e-06
0.00963424
-2.41573e-06
0.00966091
-1.47427e-06
0.00968721
-2.10993e-07
0.0097125
1.99092e-07
0.00973544
-2.16537e-07
0.00975836
-7.68872e-07
0.0097815
-6.16194e-07
0.00980169
2.1743e-06
0.00982085
8.64118e-06
0.00984169
1.79193e-05
0.00986136
2.6694e-05
0.00987927
3.12331e-05
0.00989725
3.07147e-05
0.00991437
2.68975e-05
0.00992989
2.19685e-05
0.0099441
1.81708e-05
0.00995778
1.68015e-05
0.00997197
1.89575e-05
0.009985
2.5857e-05
0.00999738
3.61671e-05
0.010011
4.62588e-05
0.0100247
5.24472e-05
0.0100378
5.16903e-05
0.0100506
4.49645e-05
0.0100618
3.53906e-05
0.0100721
2.56458e-05
0.0100833
1.92598e-05
0.0100943
1.73872e-05
0.0101042
1.87665e-05
0.0101148
2.0549e-05
0.0101266
2.11124e-05
0.0101373
2.03855e-05
0.0101467
1.90689e-05
0.0101566
1.79189e-05
0.0101675
1.71264e-05
0.0101779
1.63159e-05
0.0101874
1.54147e-05
0.0101972
1.44518e-05
0.0102076
1.29826e-05
0.0102171
1.08783e-05
0.0102267
8.75901e-06
0.0102367
7.8875e-06
0.0102453
9.12976e-06
0.0102542
1.16199e-05
0.0102649
1.3837e-05
0.0102748
1.45343e-05
0.0102837
1.30336e-05
0.0102929
9.98102e-06
0.0103021
7.33633e-06
0.0103111
6.06358e-06
0.0103202
5.81785e-06
0.0103294
5.6104e-06
0.0103382
4.90033e-06
0.0103468
3.94575e-06
0.0103559
3.70433e-06
0.0103643
4.40341e-06
0.0103728
5.26022e-06
0.0103819
6.04583e-06
0.0103907
7.02944e-06
0.0103986
8.33667e-06
0.0104063
1.01405e-05
0.0104156
1.26336e-05
0.010425
1.56732e-05
0.0104321
1.82121e-05
0.0104401
1.93795e-05
0.0104497
1.96296e-05
0.0104578
1.92198e-05
0.0104655
1.76685e-05
0.0104737
1.53121e-05
0.0104817
1.33018e-05
0.0104893
1.23906e-05
0.0104968
1.2846e-05
0.0105047
1.43023e-05
0.0105129
1.59529e-05
0.0105204
1.71576e-05
0.010528
1.7445e-05
0.010536
1.68417e-05
0.0105437
1.55202e-05
0.0105511
1.36532e-05
0.0105583
1.18825e-05
0.0105652
1.11349e-05
0.0105724
1.20778e-05
0.0105799
1.49828e-05
0.0105868
1.91672e-05
0.0105944
2.20609e-05
0.0106023
2.12039e-05
0.0106091
1.68588e-05
0.0106158
1.24621e-05
0.0106224
1.18468e-05
0.0106285
1.52997e-05
0.0106358
1.91764e-05
0.0106432
2.06345e-05
0.0106495
1.95084e-05
0.0106563
1.74466e-05
0.0106634
1.56519e-05
0.0106699
1.34466e-05
0.0106759
1.01152e-05
0.010682
6.51066e-06
0.0106882
4.70475e-06
0.010694
5.99156e-06
0.0106998
1.03543e-05
0.0107058
1.67314e-05
0.0107124
2.30792e-05
0.0107189
2.70274e-05
0.0107251
2.76471e-05
0.0107315
2.62082e-05
0.0107366
2.52663e-05
0.0107415
2.6179e-05
0.0107476
2.90649e-05
0.0107535
3.22729e-05
0.0107598
3.31338e-05
0.0107656
3.02764e-05
0.0107703
2.57903e-05
0.0107754
2.29018e-05
0.0107805
2.3027e-05
0.0107855
2.43009e-05
0.0107911
2.53851e-05
0.0107961
2.73282e-05
0.0108007
3.09965e-05
0.0108061
3.51453e-05
0.0108112
3.71962e-05
0.0108161
3.65069e-05
0.0108216
3.45731e-05
0.0108267
3.27681e-05
0.0108314
2.93312e-05
0.0108363
2.33332e-05
0.0108408
1.44719e-05
0.0108443
8.07303e-06
0.010848
5.52696e-06
0.0108512
1.26989e-05
2.19132e-05
0.0145682
0.000937049
0.0142311
0.00067149
0.0140024
0.000529264
0.0138435
0.000405487
0.0137336
0.000324313
0.013654
0.000275795
0.0135944
0.000234137
0.0135505
0.0001953
0.0135203
0.000161987
0.0135014
0.000135625
0.0134913
0.000115093
0.0134903
9.98688e-05
0.013497
9.00313e-05
0.0135081
8.36844e-05
0.0135236
7.60748e-05
0.0135427
6.41354e-05
0.0135629
4.86437e-05
0.0135845
3.26276e-05
0.0136076
1.99868e-05
0.0136325
1.41579e-05
0.0136603
1.51151e-05
0.0136917
2.14475e-05
0.0137249
2.86575e-05
0.013758
3.30282e-05
0.0137926
3.18288e-05
0.0138289
2.48862e-05
0.0138629
1.42988e-05
0.0138935
4.04866e-06
0.0139228
-2.84618e-06
0.0139509
-4.97122e-06
0.0139771
-3.85564e-06
0.0140027
-2.2529e-06
0.0140273
-1.81802e-06
0.0140497
-2.44032e-06
0.0140725
-3.14838e-06
0.0140958
-2.91273e-06
0.0141166
1.08376e-06
0.0141365
1.04571e-05
0.0141584
2.38353e-05
0.0141791
3.64558e-05
0.0141982
4.30362e-05
0.0142175
4.23523e-05
0.0142361
3.69379e-05
0.0142532
2.99453e-05
0.014269
2.45716e-05
0.0142843
2.26264e-05
0.0143002
2.57982e-05
0.014315
3.56627e-05
0.014329
5.04371e-05
0.0143443
6.49622e-05
0.0143595
7.38717e-05
0.0143742
7.28439e-05
0.0143887
6.32371e-05
0.0144016
4.95056e-05
0.0144138
3.56756e-05
0.0144269
2.65753e-05
0.0144397
2.39042e-05
0.0144514
2.5862e-05
0.0144639
2.85601e-05
0.0144774
2.9464e-05
0.01449
2.83131e-05
0.0145013
2.64986e-05
0.0145131
2.48846e-05
0.0145259
2.37683e-05
0.0145382
2.2612e-05
0.0145497
2.13157e-05
0.0145614
1.99802e-05
0.0145738
1.79495e-05
0.0145853
1.50476e-05
0.0145969
1.20991e-05
0.0146089
1.08242e-05
0.0146196
1.2575e-05
0.0146305
1.61554e-05
0.0146432
1.93652e-05
0.0146552
2.03686e-05
0.0146661
1.82234e-05
0.0146774
1.39007e-05
0.0146888
1.01336e-05
0.0146999
8.35096e-06
0.0147111
8.0559e-06
0.0147225
7.89049e-06
0.0147334
6.90983e-06
0.0147442
5.56231e-06
0.0147555
5.14372e-06
0.0147661
6.12635e-06
0.0147767
7.43367e-06
0.0147881
8.59813e-06
0.0147991
1.00186e-05
0.0148092
1.19036e-05
0.0148192
1.45207e-05
0.0148307
1.81529e-05
0.0148423
2.25344e-05
0.0148517
2.61726e-05
0.014862
2.78977e-05
0.0148738
2.8319e-05
0.0148842
2.7754e-05
0.0148942
2.55602e-05
0.0149047
2.22233e-05
0.0149149
1.93728e-05
0.0149249
1.80891e-05
0.0149347
1.87582e-05
0.014945
2.08716e-05
0.0149555
2.3274e-05
0.0149654
2.50101e-05
0.0149753
2.54612e-05
0.0149856
2.4655e-05
0.0149957
2.27961e-05
0.0150054
2.01408e-05
0.015015
1.76294e-05
0.0150244
1.65979e-05
0.015034
1.79795e-05
0.0150439
2.21674e-05
0.0150532
2.81694e-05
0.0150631
3.23551e-05
0.0150734
3.11648e-05
0.0150825
2.49534e-05
0.0150917
1.8664e-05
0.0151008
1.78056e-05
0.0151094
2.27729e-05
0.015119
2.83701e-05
0.0151288
3.04753e-05
0.0151375
2.891e-05
0.0151468
2.60437e-05
0.0151563
2.35001e-05
0.0151652
2.03568e-05
0.0151736
1.5586e-05
0.0151822
1.04235e-05
0.0151909
7.84688e-06
0.0151992
9.73522e-06
0.0152076
1.60073e-05
0.015216
2.51577e-05
0.015225
3.426e-05
0.0152339
3.99179e-05
0.0152425
4.08324e-05
0.0152514
3.88362e-05
0.015259
3.75145e-05
0.0152664
3.88529e-05
0.0152749
4.29913e-05
0.0152833
4.76208e-05
0.0152919
4.88499e-05
0.0153001
4.4766e-05
0.0153074
3.83585e-05
0.0153151
3.42768e-05
0.0153226
3.44926e-05
0.0153302
3.63117e-05
0.0153382
3.79001e-05
0.0153457
4.06892e-05
0.0153528
4.59665e-05
0.0153606
5.19356e-05
0.0153681
5.49047e-05
0.0153755
5.39311e-05
0.0153834
5.11985e-05
0.0153909
4.86364e-05
0.015398
4.38242e-05
0.0154054
3.51516e-05
0.0154122
2.26389e-05
0.0154185
1.3196e-05
0.0154246
9.94287e-06
0.0154306
1.96553e-05
3.34614e-05
0.0178478
0.000917399
0.0177204
0.000832051
0.0175527
0.000727782
0.0174
0.000588544
0.0172859
0.000467506
0.0172087
0.000381906
0.0171587
0.000312823
0.0171286
0.000254692
0.0171138
0.000208263
0.0171106
0.000173193
0.0171157
0.000146476
0.0171288
0.000126736
0.0171481
0.000113728
0.0171697
0.000104944
0.0171933
9.47162e-05
0.0172179
7.93763e-05
0.0172411
5.9658e-05
0.0172631
3.93605e-05
0.0172847
2.34489e-05
0.0173066
1.60479e-05
0.0173306
1.73563e-05
0.017358
2.54598e-05
0.0173877
3.47195e-05
0.0174181
4.05052e-05
0.0174514
3.92689e-05
0.0174875
3.08401e-05
0.0175221
1.76918e-05
0.0175535
4.75462e-06
0.0175831
-4.12984e-06
0.0176106
-7.18082e-06
0.0176349
-6.231e-06
0.0176578
-4.68359e-06
0.0176791
-4.51057e-06
0.0176982
-5.44121e-06
0.0177177
-6.59578e-06
0.0177383
-6.35498e-06
0.0177568
-1.3648e-06
0.0177749
1.03342e-05
0.0177952
2.68943e-05
0.0178146
4.24894e-05
0.0178327
5.06427e-05
0.0178512
4.97886e-05
0.0178692
4.30387e-05
0.0178858
3.43836e-05
0.0179013
2.77024e-05
0.0179164
2.5285e-05
0.0179322
2.92043e-05
0.0179469
4.13524e-05
0.0179607
5.95699e-05
0.0179757
7.75868e-05
0.0179905
8.85869e-05
0.0180049
8.72986e-05
0.0180193
7.54097e-05
0.0180321
5.83259e-05
0.0180443
4.12721e-05
0.0180575
2.99639e-05
0.0180704
2.66042e-05
0.0180822
2.89824e-05
0.0180946
3.22746e-05
0.0181082
3.34111e-05
0.0181209
3.20187e-05
0.0181322
2.96983e-05
0.0181442
2.7664e-05
0.0181571
2.62396e-05
0.0181696
2.47551e-05
0.0181812
2.30904e-05
0.0181931
2.14282e-05
0.0182057
1.89138e-05
0.0182174
1.53262e-05
0.0182294
1.16293e-05
0.0182418
1.00329e-05
0.0182527
1.21792e-05
0.018264
1.65954e-05
0.018277
2.05431e-05
0.0182892
2.17277e-05
0.0183005
1.90309e-05
0.0183123
1.36801e-05
0.0183241
8.96692e-06
0.0183357
6.70108e-06
0.0183473
6.3096e-06
0.0183592
6.13393e-06
0.0183707
4.89609e-06
0.018382
3.2034e-06
0.0183939
2.63609e-06
0.0184051
3.84239e-06
0.0184162
5.49733e-06
0.0184282
6.93777e-06
0.0184399
8.6439e-06
0.0184507
1.09279e-05
0.0184614
1.41596e-05
0.0184736
1.86693e-05
0.0184859
2.40705e-05
0.018496
2.85244e-05
0.018507
3.06648e-05
0.0185196
3.12078e-05
0.0185307
3.04852e-05
0.0185415
2.77508e-05
0.0185528
2.36061e-05
0.018564
2.00557e-05
0.0185748
1.84437e-05
0.0185856
1.92477e-05
0.0185967
2.18513e-05
0.0186082
2.48266e-05
0.018619
2.69443e-05
0.0186298
2.74956e-05
0.0186411
2.65113e-05
0.0186521
2.42028e-05
0.0186628
2.08884e-05
0.0186735
1.7754e-05
0.018684
1.64697e-05
0.0186947
1.81803e-05
0.0187057
2.3364e-05
0.0187161
3.07738e-05
0.018727
3.59617e-05
0.0187383
3.44937e-05
0.0187486
2.67764e-05
0.0187591
1.89622e-05
0.0187695
1.78892e-05
0.0187792
2.4022e-05
0.01879
3.09572e-05
0.0188009
3.35473e-05
0.0188109
3.16459e-05
0.0188214
2.81891e-05
0.0188322
2.50523e-05
0.0188424
2.1122e-05
0.0188521
1.51547e-05
0.0188621
8.75225e-06
0.0188722
5.55167e-06
0.018882
7.87132e-06
0.0188918
1.56511e-05
0.0189016
2.69674e-05
0.018912
3.82081e-05
0.0189221
4.51394e-05
0.0189321
4.62559e-05
0.0189425
4.38276e-05
0.0189516
4.21941e-05
0.0189605
4.38499e-05
0.0189706
4.8965e-05
0.0189804
5.46812e-05
0.0189905
5.61908e-05
0.0190001
5.1136e-05
0.019009
4.32032e-05
0.0190184
3.81886e-05
0.0190275
3.84542e-05
0.0190367
4.06985e-05
0.0190463
4.26281e-05
0.0190555
4.60581e-05
0.0190643
5.25905e-05
0.0190737
5.99838e-05
0.0190828
6.36792e-05
0.0190918
6.24788e-05
0.0191014
5.9111e-05
0.0191106
5.59251e-05
0.0191193
5.01075e-05
0.0191284
3.92533e-05
0.0191369
2.39687e-05
0.0191452
1.19284e-05
0.0191532
8.3587e-06
0.0191614
1.96869e-05
3.75256e-05
0.0190044
0.000510151
0.0193316
0.000538356
0.0195611
0.000527723
0.0196964
0.00048026
0.0197621
0.000424991
0.0197981
0.000366748
0.0198258
0.000304869
0.0198553
0.000246386
0.0198905
0.000198178
0.0199313
0.00016248
0.019976
0.000136384
0.0200246
0.000118307
0.0200753
0.000107827
0.0201241
0.000101399
0.0201706
9.29988e-05
0.0202134
7.84973e-05
0.0202501
5.83567e-05
0.0202811
3.71073e-05
0.0203072
2.0565e-05
0.0203302
1.3262e-05
0.0203526
1.58456e-05
0.0203769
2.59612e-05
0.0204029
3.73148e-05
0.0204304
4.4702e-05
0.0204623
4.39587e-05
0.020499
3.49536e-05
0.0205361
2.03466e-05
0.0205711
5.77257e-06
0.0206043
-4.39533e-06
0.0206344
-8.14117e-06
0.0206596
-7.45361e-06
0.0206815
-6.16371e-06
0.0207004
-6.38332e-06
0.0207161
-7.54462e-06
0.020732
-9.36285e-06
0.0207491
-9.22205e-06
0.0207646
-3.67875e-06
0.0207803
9.49724e-06
0.0207986
2.80573e-05
0.0208163
4.55153e-05
0.020833
5.465e-05
0.0208506
5.3602e-05
0.0208679
4.59156e-05
0.0208842
3.61234e-05
0.0208996
2.85605e-05
0.0209147
2.57881e-05
0.0209306
3.02104e-05
0.0209452
4.38009e-05
0.020959
6.42282e-05
0.0209739
8.44819e-05
0.0209884
9.68244e-05
0.0210026
9.54008e-05
0.0210168
8.19747e-05
0.0210297
6.2653e-05
0.0210421
4.35274e-05
0.0210556
3.06761e-05
0.0210687
2.6814e-05
0.0210805
2.94904e-05
0.021093
3.31948e-05
0.0211067
3.44336e-05
0.0211195
3.28653e-05
0.021131
3.00862e-05
0.0211431
2.77595e-05
0.0211562
2.61108e-05
0.0211689
2.43656e-05
0.0211807
2.24181e-05
0.0211928
2.05053e-05
0.0212055
1.76344e-05
0.0212175
1.35558e-05
0.0212297
9.29411e-06
0.0212424
7.50289e-06
0.0212537
9.89864e-06
0.0212652
1.48662e-05
0.0212785
1.92817e-05
0.0212909
2.05431e-05
0.0213025
1.74517e-05
0.0213146
1.1413e-05
0.0213268
6.00756e-06
0.0213388
3.38413e-06
0.0213507
2.85838e-06
0.021363
2.61851e-06
0.0213748
1.16545e-06
0.0213865
-7.86569e-07
0.0213989
-1.34371e-06
0.0214105
-3.37509e-08
0.0214221
1.84577e-06
0.0214345
3.4602e-06
0.0214467
5.30852e-06
0.0214579
7.81173e-06
0.0214691
1.14231e-05
0.0214818
1.64912e-05
0.0214946
2.25272e-05
0.0215052
2.74707e-05
0.0215166
2.98663e-05
0.0215297
3.04809e-05
0.0215414
2.96247e-05
0.0215527
2.65083e-05
0.0215646
2.18075e-05
0.0215763
1.77698e-05
0.0215878
1.59147e-05
0.0215993
1.67854e-05
0.0216111
1.96915e-05
0.0216231
2.30268e-05
0.0216345
2.53617e-05
0.0216459
2.59529e-05
0.0216579
2.48376e-05
0.0216696
2.22134e-05
0.0216809
1.84364e-05
0.0216923
1.4856e-05
0.0217036
1.33795e-05
0.0217151
1.52907e-05
0.0217269
2.11208e-05
0.021738
2.94324e-05
0.0217495
3.52749e-05
0.0217614
3.36067e-05
0.0217724
2.4877e-05
0.0217839
1.60506e-05
0.0217952
1.48152e-05
0.0218059
2.16845e-05
0.0218174
2.94735e-05
0.021829
3.23495e-05
0.0218398
3.02616e-05
0.0218512
2.64661e-05
0.0218628
2.29378e-05
0.0218738
1.84291e-05
0.0218844
1.16032e-05
0.0218954
4.39059e-06
0.0219065
7.55814e-07
0.0219174
3.31162e-06
0.0219281
1.21068e-05
0.0219388
2.48626e-05
0.0219501
3.74553e-05
0.021961
4.51261e-05
0.0219719
4.63394e-05
0.0219833
4.36275e-05
0.0219935
4.17745e-05
0.0220035
4.36088e-05
0.0220146
4.93676e-05
0.0220254
5.57905e-05
0.0220363
5.74666e-05
0.0220469
5.17583e-05
0.0220569
4.28348e-05
0.0220674
3.72317e-05
0.0220777
3.75077e-05
0.0220879
3.99923e-05
0.0220987
4.21009e-05
0.022109
4.58744e-05
0.022119
5.32214e-05
0.0221294
6.15489e-05
0.0221396
6.57597e-05
0.0221497
6.43978e-05
0.0221604
6.05841e-05
0.0221708
5.69364e-05
0.0221805
5.05393e-05
0.0221907
3.82405e-05
0.0222005
2.11766e-05
0.0222102
7.27524e-06
0.0222196
3.69575e-06
0.0222293
1.57978e-05
3.66274e-05
0.0190982
2.7708e-05
0.019556
0.000110412
0.0199904
0.000118303
0.0203755
0.000117683
0.020704
0.000114263
0.0209841
0.000100921
0.021219
8.24995e-05
0.0214146
6.47178e-05
0.0215787
5.27185e-05
0.0217186
4.74265e-05
0.0218392
4.67483e-05
0.0219458
5.02859e-05
0.022041
5.75566e-05
0.0221241
6.51695e-05
0.022197
6.75592e-05
0.0222599
6.10109e-05
0.0223112
4.60086e-05
0.0223519
2.8105e-05
0.0223835
1.39541e-05
0.022408
8.48616e-06
0.0224291
1.29204e-05
0.0224501
2.47349e-05
0.022472
3.75773e-05
0.0224957
4.60962e-05
0.0225252
4.58429e-05
0.0225621
3.67745e-05
0.0226018
2.1647e-05
0.0226417
6.38658e-06
0.0226808
-4.34924e-06
0.0227164
-8.4232e-06
0.0227458
-7.90818e-06
0.0227698
-6.82186e-06
0.0227889
-7.3248e-06
0.0228032
-9.0335e-06
0.0228168
-1.09599e-05
0.0228314
-1.10187e-05
0.0228445
-5.44852e-06
0.0228582
8.27836e-06
0.0228748
2.74604e-05
0.0228912
4.54591e-05
0.022907
5.48678e-05
0.022924
5.36507e-05
0.0229412
4.55034e-05
0.0229576
3.52167e-05
0.0229732
2.72513e-05
0.0229888
2.43355e-05
0.0230053
2.89659e-05
0.0230205
4.3092e-05
0.0230347
6.4293e-05
0.0230498
8.54019e-05
0.0230645
9.82723e-05
0.0230789
9.68503e-05
0.0230935
8.27547e-05
0.0231069
6.24534e-05
0.0231199
4.26633e-05
0.0231341
2.91343e-05
0.0231478
2.50352e-05
0.0231602
2.78278e-05
0.0231732
3.17521e-05
0.0231873
3.308e-05
0.0232006
3.13162e-05
0.0232126
2.8279e-05
0.0232253
2.58189e-05
0.0232389
2.40754e-05
0.0232521
2.22047e-05