/*--------------------------------*- C++ -*----------------------------------*\
  =========                 |
  \\      /  F ield         | OpenFOAM: The Open Source CFD Toolbox
   \\    /   O peration     | Website:  https://openfoam.org
    \\  /    A nd           | Version:  7
     \\/     M anipulation  |
\*---------------------------------------------------------------------------*/
FoamFile
{
    version     2.0;
    format      ascii;
    class       volScalarField;
    location    "0.0475";
    object      alphat;
}
// * * * * * * * * * * * * * * * * * * * * * * * * * * * * * * * * * * * * * //

dimensions      [1 -1 -1 0 0 0 0];

internalField   nonuniform List<scalar> 
27000
(
0.00219163
0.00201265
0.00199474
0.00199418
0.0019948
0.00199554
0.00199612
0.00199669
0.00199714
0.00199745
0.00199759
0.00199752
0.00199725
0.00199683
0.00199635
0.00199593
0.00199565
0.00199551
0.00199545
0.00199539
0.00199512
0.00199455
0.00199381
0.00199326
0.00199301
0.00199285
0.00199251
0.0019922
0.00199224
0.00199212
0.00199147
0.00199035
0.00199007
0.0019911
0.00199199
0.00199171
0.0019901
0.00198929
0.0019909
0.00199315
0.00168051
0.00138076
0.00132865
0.00132561
0.00132451
0.00132479
0.00132453
0.00132456
0.00132445
0.00132444
0.0013244
0.00132442
0.00132445
0.00132452
0.00132459
0.00132468
0.00132476
0.00132484
0.0013249
0.00132495
0.001325
0.00132508
0.00132516
0.00132519
0.00132522
0.00132533
0.00132542
0.00132539
0.00132555
0.00132573
0.001326
0.00132581
0.00132572
0.00132611
0.00132633
0.00132664
0.00132627
0.00132575
0.00132599
0.00132612
0.00167646
0.00137383
0.00132261
0.00131963
0.00131839
0.00131847
0.00131795
0.00131782
0.00131751
0.00131736
0.00131716
0.00131703
0.00131691
0.00131681
0.00131671
0.00131663
0.00131656
0.00131649
0.00131643
0.00131636
0.00131627
0.00131619
0.00131614
0.00131607
0.00131593
0.00131583
0.00131577
0.00131568
0.00131571
0.00131561
0.00131558
0.0013154
0.00131549
0.00131584
0.00131567
0.00131567
0.00131523
0.00131517
0.00131621
0.00131596
0.00167708
0.00137657
0.00132481
0.00132168
0.00132059
0.00132076
0.00132041
0.00132037
0.00132018
0.00132008
0.00131994
0.00131985
0.00131974
0.00131965
0.00131957
0.0013195
0.00131942
0.00131934
0.00131925
0.00131915
0.00131904
0.00131892
0.0013188
0.00131869
0.00131857
0.00131843
0.00131829
0.00131821
0.00131818
0.00131811
0.001318
0.00131791
0.00131798
0.00131815
0.00131817
0.0013181
0.00131785
0.00131789
0.0013184
0.00131855
0.00167725
0.00137516
0.00132397
0.00132093
0.00131982
0.00131992
0.00131947
0.00131936
0.0013191
0.00131896
0.00131878
0.00131865
0.00131852
0.00131842
0.00131832
0.00131823
0.00131814
0.00131806
0.00131797
0.00131786
0.00131775
0.00131763
0.00131752
0.00131741
0.00131726
0.0013171
0.00131699
0.00131692
0.00131683
0.00131671
0.00131662
0.00131661
0.00131665
0.00131671
0.00131661
0.00131658
0.00131659
0.0013167
0.0013169
0.00131679
0.0016772
0.00137522
0.001324
0.00132096
0.00131986
0.00131996
0.00131953
0.00131943
0.00131917
0.00131904
0.00131886
0.00131874
0.00131861
0.0013185
0.00131839
0.0013183
0.0013182
0.0013181
0.001318
0.00131788
0.00131775
0.00131762
0.00131751
0.0013174
0.00131724
0.00131708
0.00131698
0.00131691
0.0013168
0.00131666
0.00131656
0.00131656
0.00131662
0.00131664
0.00131642
0.0013164
0.00131651
0.00131652
0.00131683
0.00131677
0.00167707
0.0013765
0.00132474
0.00132164
0.00132053
0.00132069
0.00132033
0.00132028
0.00132007
0.00131998
0.00131984
0.00131974
0.00131964
0.00131957
0.00131949
0.00131942
0.00131935
0.00131927
0.00131919
0.0013191
0.00131899
0.00131888
0.00131877
0.00131866
0.00131855
0.00131841
0.00131828
0.00131818
0.00131815
0.0013181
0.00131801
0.00131788
0.0013179
0.00131815
0.00131817
0.00131813
0.0013179
0.00131763
0.00131816
0.0013187
0.00167641
0.00137391
0.00132264
0.00131967
0.00131845
0.00131854
0.00131802
0.00131789
0.00131758
0.00131742
0.00131721
0.00131707
0.00131693
0.00131681
0.0013167
0.00131661
0.00131653
0.00131645
0.00131638
0.0013163
0.0013162
0.0013161
0.00131604
0.00131597
0.00131584
0.00131572
0.00131564
0.0013155
0.0013156
0.00131552
0.00131546
0.0013152
0.00131519
0.00131575
0.00131557
0.00131552
0.00131504
0.00131448
0.00131557
0.00131632
0.0016807
0.00138078
0.00132868
0.00132562
0.0013246
0.00132493
0.00132471
0.00132479
0.00132471
0.00132473
0.00132471
0.00132474
0.00132477
0.00132483
0.0013249
0.00132498
0.00132505
0.00132512
0.00132518
0.00132525
0.0013253
0.00132533
0.00132537
0.00132542
0.00132549
0.00132557
0.00132555
0.00132547
0.00132577
0.00132607
0.00132615
0.00132578
0.00132572
0.00132642
0.00132692
0.00132696
0.00132627
0.00132526
0.00132585
0.00132676
0.00219273
0.00200703
0.00198627
0.00198285
0.00198145
0.00198043
0.00197947
0.00197882
0.00197827
0.00197785
0.0019775
0.00197721
0.00197698
0.0019768
0.00197671
0.00197672
0.00197684
0.00197703
0.00197726
0.00197753
0.00197781
0.00197801
0.00197814
0.00197833
0.00197864
0.0019789
0.00197887
0.00197869
0.00197901
0.00197962
0.00197986
0.0019793
0.00197891
0.0019799
0.00198145
0.00198214
0.00198086
0.00197898
0.00197938
0.00198192
0.00107505
0.0011874
0.001194
0.00120129
0.00120383
0.0012077
0.00121024
0.00121289
0.00121498
0.0012169
0.00121846
0.00121974
0.00122071
0.00122147
0.00122212
0.00122284
0.00122365
0.00122449
0.00122522
0.00122576
0.00122597
0.00122579
0.00122547
0.00122546
0.0012259
0.00122639
0.00122641
0.00122607
0.00122584
0.00122581
0.00122549
0.00122476
0.00122452
0.0012254
0.00122672
0.00122714
0.00122615
0.00122516
0.00122579
0.00122771
0.00107306
0.00119755
0.0012095
0.00121991
0.0012256
0.00123195
0.00123679
0.00124134
0.00124516
0.00124861
0.00125156
0.00125412
0.00125627
0.00125809
0.00125962
0.00126097
0.00126227
0.0012636
0.00126495
0.00126624
0.00126738
0.00126824
0.00126871
0.00126883
0.00126891
0.00126932
0.00126985
0.00126997
0.00126981
0.0012697
0.00127012
0.00126994
0.0012691
0.00126873
0.00126932
0.00127128
0.00127213
0.00127109
0.00127037
0.00127054
0.00106302
0.0011878
0.00119438
0.00120545
0.00120916
0.00121529
0.00121934
0.00122371
0.00122724
0.00123058
0.00123347
0.0012361
0.00123842
0.0012405
0.00124234
0.00124399
0.00124547
0.00124684
0.00124814
0.00124936
0.0012505
0.0012516
0.00125271
0.00125374
0.00125451
0.00125519
0.00125597
0.00125675
0.00125733
0.00125746
0.00125781
0.00125819
0.0012587
0.00125891
0.00125833
0.00125838
0.00125886
0.00125935
0.00126033
0.00125991
0.00106959
0.00119284
0.00120556
0.00121664
0.00122321
0.00123047
0.00123625
0.00124173
0.00124645
0.00125072
0.0012545
0.00125788
0.00126089
0.00126359
0.00126602
0.0012682
0.00127016
0.00127195
0.0012736
0.00127512
0.00127652
0.00127781
0.00127902
0.00128017
0.00128126
0.00128225
0.00128315
0.00128401
0.00128481
0.00128546
0.00128597
0.0012863
0.0012866
0.00128696
0.00128716
0.00128729
0.00128729
0.00128725
0.00128754
0.00128795
0.00106687
0.00119018
0.00120101
0.00121239
0.00121932
0.00122699
0.00123328
0.00123925
0.00124448
0.00124926
0.00125352
0.00125737
0.00126082
0.00126393
0.00126673
0.00126926
0.00127155
0.00127364
0.00127556
0.00127732
0.00127896
0.00128049
0.00128196
0.00128334
0.00128462
0.00128578
0.00128689
0.00128796
0.0012889
0.00128967
0.00129033
0.00129095
0.00129152
0.00129199
0.00129213
0.00129229
0.00129256
0.00129288
0.00129327
0.00129341
0.00106689
0.00119012
0.0012011
0.00121241
0.00121944
0.0012271
0.00123339
0.00123936
0.00124458
0.00124936
0.00125361
0.00125745
0.00126089
0.00126398
0.00126677
0.00126929
0.00127156
0.00127363
0.00127553
0.00127727
0.00127888
0.00128039
0.00128183
0.00128319
0.00128445
0.00128559
0.0012867
0.00128778
0.00128871
0.00128944
0.00129008
0.0012907
0.00129126
0.00129173
0.00129176
0.00129179
0.00129213
0.00129251
0.00129299
0.00129319
0.00106958
0.0011928
0.00120551
0.00121661
0.00122318
0.00123044
0.00123622
0.00124169
0.0012464
0.00125066
0.00125442
0.00125778
0.00126077
0.00126344
0.00126582
0.00126796
0.00126988
0.00127161
0.0012732
0.00127466
0.00127601
0.00127726
0.00127842
0.00127953
0.00128058
0.00128152
0.00128237
0.00128314
0.0012839
0.00128454
0.00128508
0.00128541
0.00128558
0.00128591
0.00128613
0.00128629
0.00128639
0.00128619
0.0012862
0.00128672
0.00106301
0.00118777
0.00119438
0.00120556
0.00120931
0.00121546
0.0012195
0.0012238
0.00122724
0.00123044
0.00123315
0.00123557
0.00123765
0.00123949
0.00124109
0.00124252
0.00124379
0.00124495
0.00124605
0.00124709
0.00124806
0.001249
0.00124997
0.00125089
0.00125163
0.0012523
0.00125306
0.00125374
0.00125432
0.00125449
0.00125491
0.0012553
0.0012556
0.00125589
0.00125544
0.00125573
0.00125642
0.00125645
0.00125706
0.00125724
0.00107286
0.00119752
0.00120987
0.00122053
0.0012264
0.00123269
0.00123732
0.00124144
0.00124468
0.00124739
0.00124955
0.00125132
0.00125274
0.00125391
0.00125488
0.00125577
0.00125667
0.00125762
0.00125858
0.00125957
0.00126061
0.00126159
0.00126232
0.00126279
0.00126332
0.00126415
0.00126479
0.00126461
0.0012644
0.00126496
0.00126632
0.0012666
0.0012653
0.00126466
0.00126619
0.00126943
0.00127095
0.00126854
0.00126592
0.00126629
0.00107823
0.00119664
0.00120836
0.00121966
0.0012251
0.00123089
0.00123449
0.00123751
0.00123945
0.00124087
0.00124173
0.00124229
0.00124261
0.00124282
0.00124301
0.00124327
0.00124361
0.00124397
0.00124433
0.00124468
0.00124494
0.00124501
0.00124497
0.00124509
0.00124543
0.0012456
0.00124533
0.00124504
0.00124536
0.00124594
0.00124584
0.00124489
0.00124443
0.00124558
0.0012473
0.00124773
0.001246
0.00124414
0.00124462
0.00124735
0.000112886
0.000177836
0.000194632
0.000200603
0.000202798
0.000203863
0.000204676
0.000205264
0.000205868
0.000206383
0.000206903
0.000207362
0.000207794
0.000208158
0.000208462
0.000208689
0.000208852
0.000208967
0.000209068
0.000209184
0.000209333
0.000209509
0.000209688
0.000209836
0.000209934
0.000209994
0.000210038
0.000210074
0.000210103
0.000210105
0.000210071
0.000210001
0.000209908
0.000209825
0.000209803
0.000209853
0.000209888
0.000209878
0.00020985
0.000209892
8.99589e-05
0.000222379
0.000233871
0.000247722
0.000249025
0.000250613
0.00025136
0.000251492
0.00025167
0.00025155
0.000251483
0.000251223
0.000251096
0.000250909
0.000250801
0.000250687
0.00025063
0.000250601
0.000250628
0.000250691
0.000250781
0.000250863
0.000250919
0.000250951
0.000250991
0.000251092
0.000251275
0.000251508
0.00025173
0.00025187
0.000252001
0.000252109
0.000252321
0.000252462
0.000252484
0.000252477
0.00025245
0.000252561
0.000252754
0.000252689
8.77838e-05
0.000193492
0.000193868
0.000197606
0.000196961
0.000197178
0.000197584
0.000198143
0.000198653
0.000199127
0.000199562
0.000199959
0.000200326
0.000200662
0.000200973
0.000201258
0.000201523
0.000201771
0.000202006
0.000202228
0.000202439
0.000202646
0.00020285
0.000203039
0.000203211
0.000203388
0.000203582
0.000203778
0.000203938
0.000204079
0.00020423
0.000204402
0.000204583
0.000204672
0.000204709
0.000204787
0.000204902
0.000205086
0.000205214
0.000205141
8.75771e-05
0.000209021
0.000214809
0.000227971
0.000229336
0.000231336
0.000232341
0.000232642
0.000233053
0.00023309
0.00023316
0.000233015
0.000232943
0.000232768
0.000232648
0.000232501
0.000232399
0.000232309
0.000232259
0.000232228
0.000232218
0.000232202
0.000232179
0.00023216
0.000232179
0.000232246
0.000232344
0.000232439
0.000232517
0.000232614
0.000232724
0.000232807
0.000232839
0.000232845
0.000232901
0.000232975
0.000233016
0.000232961
0.000232824
0.000232749
8.73002e-05
0.000202156
0.000203044
0.000212835
0.000214372
0.00021642
0.000217376
0.000217594
0.000217913
0.000217878
0.000217868
0.000217614
0.000217447
0.000217168
0.000216956
0.000216719
0.000216537
0.000216376
0.000216268
0.000216197
0.00021617
0.000216163
0.00021616
0.000216141
0.000216123
0.000216139
0.000216212
0.000216309
0.000216389
0.000216476
0.000216593
0.000216715
0.000216756
0.00021671
0.000216685
0.000216747
0.000216882
0.00021689
0.000216725
0.000216425
8.7298e-05
0.000201866
0.000202675
0.000212378
0.000213923
0.000215964
0.000216905
0.000217101
0.000217379
0.000217315
0.000217264
0.000216945
0.000216727
0.000216395
0.000216133
0.000215852
0.000215634
0.000215442
0.000215307
0.000215207
0.000215145
0.000215102
0.000215071
0.000215047
0.000215046
0.000215089
0.000215181
0.000215279
0.00021534
0.000215391
0.000215473
0.000215606
0.000215672
0.000215638
0.000215562
0.000215558
0.00021566
0.000215768
0.000215707
0.000215494
8.75798e-05
0.000209287
0.000215185
0.000228433
0.000229806
0.000231818
0.000232843
0.000233166
0.000233616
0.000233678
0.00023378
0.000233683
0.000233647
0.000233505
0.000233417
0.000233298
0.000233219
0.000233146
0.000233105
0.000233079
0.000233075
0.000233072
0.000233067
0.000233066
0.00023309
0.000233147
0.000233228
0.000233308
0.000233379
0.000233489
0.000233631
0.00023373
0.000233759
0.000233744
0.000233791
0.000233906
0.000233993
0.000233949
0.000233772
0.00023364
8.81342e-05
0.000193114
0.000193674
0.000197301
0.000196849
0.000197126
0.000197604
0.000198174
0.000198689
0.000199166
0.0001996
0.000199992
0.000200353
0.00020068
0.000200982
0.000201259
0.000201515
0.000201755
0.000201981
0.000202194
0.000202397
0.000202595
0.000202792
0.000202979
0.000203156
0.000203338
0.000203525
0.000203713
0.00020388
0.00020403
0.000204185
0.000204331
0.000204495
0.000204606
0.000204663
0.000204758
0.000204831
0.000204951
0.000205126
0.000205124
9.01087e-05
0.00022267
0.000234351
0.000248283
0.000249729
0.000251429
0.000252341
0.000252559
0.000252836
0.000252821
0.000252827
0.000252628
0.000252545
0.000252387
0.000252298
0.000252199
0.000252153
0.000252127
0.000252143
0.000252186
0.000252251
0.000252312
0.000252357
0.000252408
0.000252491
0.000252601
0.000252717
0.000252858
0.000253044
0.00025323
0.000253377
0.000253418
0.000253528
0.000253726
0.00025385
0.000253852
0.000253672
0.000253576
0.000253729
0.000253909
0.000113045
0.000178932
0.00019657
0.000203292
0.000206177
0.000207823
0.000209119
0.000210083
0.000210967
0.000211673
0.000212303
0.000212805
0.000213226
0.000213544
0.000213784
0.000213942
0.000214038
0.000214084
0.000214101
0.000214102
0.000214095
0.000214088
0.000214091
0.000214102
0.000214107
0.00021409
0.00021406
0.00021403
0.000213989
0.000213887
0.00021374
0.000213593
0.000213492
0.000213444
0.000213385
0.00021331
0.000213226
0.00021322
0.000213274
0.000213362
9.77313e-06
2.63087e-05
3.80582e-05
4.92152e-05
5.65065e-05
6.19463e-05
6.56462e-05
6.8215e-05
6.9996e-05
7.12109e-05
7.20719e-05
7.26577e-05
7.30769e-05
7.33616e-05
7.3566e-05
7.37042e-05
7.38019e-05
7.38668e-05
7.39122e-05
7.39435e-05
7.39687e-05
7.39922e-05
7.40184e-05
7.4047e-05
7.40772e-05
7.41086e-05
7.41399e-05
7.41678e-05
7.41887e-05
7.41918e-05
7.41785e-05
7.41529e-05
7.4109e-05
7.40347e-05
7.3928e-05
7.3815e-05
7.37098e-05
7.3617e-05
7.35307e-05
7.34497e-05
3.85071e-06
1.86526e-05
2.41444e-05
3.2746e-05
3.66136e-05
4.02953e-05
4.24231e-05
4.41254e-05
4.52046e-05
4.59881e-05
4.65026e-05
4.68373e-05
4.70516e-05
4.71686e-05
4.7235e-05
4.72456e-05
4.72352e-05
4.72154e-05
4.71833e-05
4.71442e-05
4.71021e-05
4.70584e-05
4.70188e-05
4.69901e-05
4.69785e-05
4.69841e-05
4.70012e-05
4.70217e-05
4.70404e-05
4.70599e-05
4.70815e-05
4.71008e-05
4.71119e-05
4.71071e-05
4.70927e-05
4.70751e-05
4.70511e-05
4.70123e-05
4.69429e-05
4.68655e-05
3.35116e-06
1.54911e-05
1.94087e-05
2.58231e-05
2.83625e-05
3.12643e-05
3.28558e-05
3.43335e-05
3.53039e-05
3.61014e-05
3.6665e-05
3.71044e-05
3.74275e-05
3.76694e-05
3.78466e-05
3.79741e-05
3.80642e-05
3.81262e-05
3.81702e-05
3.82003e-05
3.82203e-05
3.82301e-05
3.82306e-05
3.82326e-05
3.82344e-05
3.82395e-05
3.82489e-05
3.82587e-05
3.82655e-05
3.82715e-05
3.82782e-05
3.82805e-05
3.82673e-05
3.82366e-05
3.81995e-05
3.81665e-05
3.81304e-05
3.80729e-05
3.79838e-05
3.78938e-05
3.66979e-06
1.73939e-05
2.20534e-05
2.97192e-05
3.30389e-05
3.64933e-05
3.84492e-05
4.00737e-05
4.11114e-05
4.18868e-05
4.23998e-05
4.27419e-05
4.29689e-05
4.30962e-05
4.31678e-05
4.31826e-05
4.31706e-05
4.31466e-05
4.3108e-05
4.30613e-05
4.30101e-05
4.29559e-05
4.29035e-05
4.28585e-05
4.28253e-05
4.28029e-05
4.27862e-05
4.2771e-05
4.27572e-05
4.27454e-05
4.27323e-05
4.27117e-05
4.26818e-05
4.26467e-05
4.26102e-05
4.2567e-05
4.2508e-05
4.24324e-05
4.23554e-05
4.2297e-05
3.47406e-06
1.65091e-05
2.07032e-05
2.77197e-05
3.05886e-05
3.39033e-05
3.57379e-05
3.73435e-05
3.83663e-05
3.91572e-05
3.9687e-05
4.00519e-05
4.02971e-05
4.04486e-05
4.0529e-05
4.05631e-05
4.05552e-05
4.05372e-05
4.05068e-05
4.0466e-05
4.04215e-05
4.03738e-05
4.03257e-05
4.02803e-05
4.02425e-05
4.02143e-05
4.01938e-05
4.01764e-05
4.01604e-05
4.01452e-05
4.01271e-05
4.01002e-05
4.00615e-05
4.00152e-05
3.99678e-05
3.99173e-05
3.98543e-05
3.97725e-05
3.9682e-05
3.96068e-05
3.46332e-06
1.64637e-05
2.06456e-05
2.7643e-05
3.04988e-05
3.38076e-05
3.56356e-05
3.72377e-05
3.82551e-05
3.90409e-05
3.95661e-05
3.99232e-05
4.0164e-05
4.03057e-05
4.03828e-05
4.04063e-05
4.03956e-05
4.03735e-05
4.03367e-05
4.02904e-05
4.02404e-05
4.01883e-05
4.01379e-05
4.00927e-05
4.00565e-05
4.00293e-05
4.00077e-05
3.99874e-05
3.99675e-05
3.99493e-05
3.99308e-05
3.99056e-05
3.98684e-05
3.98217e-05
3.97723e-05
3.97218e-05
3.96628e-05
3.95871e-05
3.94997e-05
3.94208e-05
3.67837e-06
1.74344e-05
2.21128e-05
2.98042e-05
3.31398e-05
3.66026e-05
3.8566e-05
4.01951e-05
4.12388e-05
4.20194e-05
4.25371e-05
4.28864e-05
4.31179e-05
4.32537e-05
4.33287e-05
4.33526e-05
4.3343e-05
4.33225e-05
4.32884e-05
4.32445e-05
4.31967e-05
4.31466e-05
4.30983e-05
4.30556e-05
4.30222e-05
4.29977e-05
4.29793e-05
4.29642e-05
4.29524e-05
4.29444e-05
4.29347e-05
4.29152e-05
4.28844e-05
4.28483e-05
4.28135e-05
4.27742e-05
4.27178e-05
4.26405e-05
4.25582e-05
4.24964e-05
3.36066e-06
1.54571e-05
1.93663e-05
2.57633e-05
2.83048e-05
3.12104e-05
3.28096e-05
3.42933e-05
3.52678e-05
3.60674e-05
3.66322e-05
3.70713e-05
3.7393e-05
3.76329e-05
3.78077e-05
3.79325e-05
3.80198e-05
3.80793e-05
3.8122e-05
3.81506e-05
3.81705e-05
3.81793e-05
3.81796e-05
3.81818e-05
3.81843e-05
3.81901e-05
3.82e-05
3.82105e-05
3.82185e-05
3.82254e-05
3.82325e-05
3.82361e-05
3.82257e-05
3.81967e-05
3.81589e-05
3.81235e-05
3.80889e-05
3.80388e-05
3.79633e-05
3.78832e-05
3.86189e-06
1.86916e-05
2.42089e-05
3.2844e-05
3.67316e-05
4.04406e-05
4.25893e-05
4.43169e-05
4.54129e-05
4.62233e-05
4.67527e-05
4.71082e-05
4.73352e-05
4.74712e-05
4.75441e-05
4.75763e-05
4.75732e-05
4.75601e-05
4.7541e-05
4.75131e-05
4.74808e-05
4.74472e-05
4.7418e-05
4.73989e-05
4.73932e-05
4.73996e-05
4.7415e-05
4.74373e-05
4.74632e-05
4.74903e-05
4.75159e-05
4.75347e-05
4.75459e-05
4.75445e-05
4.75319e-05
4.75112e-05
4.74815e-05
4.74408e-05
4.73841e-05
4.73208e-05
9.77633e-06
2.6372e-05
3.81446e-05
4.93874e-05
5.67174e-05
6.2207e-05
6.59374e-05
6.85367e-05
7.0339e-05
7.15714e-05
7.24448e-05
7.30392e-05
7.34639e-05
7.37515e-05
7.3957e-05
7.40948e-05
7.41914e-05
7.42538e-05
7.42955e-05
7.43208e-05
7.43371e-05
7.43494e-05
7.43631e-05
7.43801e-05
7.43988e-05
7.44187e-05
7.44368e-05
7.44527e-05
7.44572e-05
7.44467e-05
7.44227e-05
7.43864e-05
7.43306e-05
7.42473e-05
7.4141e-05
7.40261e-05
7.39189e-05
7.38256e-05
7.37404e-05
7.36581e-05
7.77183e-06
1.85444e-05
2.89644e-05
3.76719e-05
4.52004e-05
5.12418e-05
5.58002e-05
5.90536e-05
6.14219e-05
6.3141e-05
6.44271e-05
6.53558e-05
6.60241e-05
6.64827e-05
6.67996e-05
6.70121e-05
6.71566e-05
6.7252e-05
6.7313e-05
6.73497e-05
6.73717e-05
6.73831e-05
6.73929e-05
6.74041e-05
6.74178e-05
6.74324e-05
6.74533e-05
6.74755e-05
6.74932e-05
6.75013e-05
6.74983e-05
6.74836e-05
6.74535e-05
6.74056e-05
6.73413e-05
6.72689e-05
6.71972e-05
6.71313e-05
6.70753e-05
6.70386e-05
4.70073e-07
9.96817e-07
1.73161e-06
2.873e-06
3.83644e-06
5.15392e-06
6.30033e-06
7.43483e-06
8.39222e-06
9.26058e-06
1.00465e-05
1.07991e-05
1.1496e-05
1.21072e-05
1.26096e-05
1.30198e-05
1.33708e-05
1.36965e-05
1.40162e-05
1.43294e-05
1.46145e-05
1.48444e-05
1.50044e-05
1.50973e-05
1.51387e-05
1.51491e-05
1.51549e-05
1.51619e-05
1.51684e-05
1.51727e-05
1.5166e-05
1.51326e-05
1.50753e-05
1.50046e-05
1.49202e-05
1.48218e-05
1.47107e-05
1.45878e-05
1.44555e-05
1.43181e-05
4.46825e-07
7.41744e-07
1.11998e-06
1.79857e-06
2.18289e-06
2.82301e-06
3.23399e-06
3.75056e-06
4.17427e-06
4.58347e-06
4.92268e-06
5.25994e-06
5.58855e-06
5.89941e-06
6.1647e-06
6.38548e-06
6.57643e-06
6.76282e-06
6.96074e-06
7.16785e-06
7.36316e-06
7.52102e-06
7.62453e-06
7.67353e-06
7.68499e-06
7.68768e-06
7.69088e-06
7.69437e-06
7.6975e-06
7.69895e-06
7.69723e-06
7.6885e-06
7.67242e-06
7.65125e-06
7.62715e-06
7.6007e-06
7.57157e-06
7.54123e-06
7.51236e-06
7.48583e-06
4.48976e-07
7.99271e-07
1.23934e-06
2.02224e-06
2.48481e-06
3.24132e-06
3.74376e-06
4.34079e-06
4.83073e-06
5.30863e-06
5.70163e-06
6.0686e-06
6.4182e-06
6.75078e-06
7.03692e-06
7.27319e-06
7.47079e-06
7.65411e-06
7.84219e-06
8.03903e-06
8.22787e-06
8.38159e-06
8.47958e-06
8.52091e-06
8.52867e-06
8.53145e-06
8.53464e-06
8.53652e-06
8.53592e-06
8.52821e-06
8.51399e-06
8.49564e-06
8.47419e-06
8.45064e-06
8.42565e-06
8.39891e-06
8.37109e-06
8.34324e-06
8.3165e-06
8.29222e-06
4.47608e-07
7.7153e-07
1.18015e-06
1.909e-06
2.3281e-06
3.02458e-06
3.48053e-06
4.03899e-06
4.49575e-06
4.94385e-06
5.31208e-06
5.66035e-06
5.99531e-06
6.31527e-06
6.58741e-06
6.81142e-06
7.00067e-06
7.18008e-06
7.36727e-06
7.56285e-06
7.74731e-06
7.89304e-06
7.98104e-06
8.01426e-06
8.01941e-06
8.02177e-06
8.02467e-06
8.02608e-06
8.02455e-06
8.01526e-06
7.99749e-06
7.97629e-06
7.95214e-06
7.92505e-06
7.89775e-06
7.86913e-06
7.83954e-06
7.81036e-06
7.78238e-06
7.7562e-06
4.47528e-07
7.7e-07
1.17716e-06
1.90376e-06
2.32144e-06
3.01582e-06
3.47026e-06
4.02692e-06
4.48256e-06
4.92974e-06
5.29632e-06
5.64316e-06
5.97813e-06
6.29685e-06
6.56795e-06
6.79091e-06
6.97916e-06
7.15785e-06
7.34443e-06
7.53954e-06
7.72335e-06
7.86792e-06
7.95448e-06
7.98666e-06
7.99155e-06
7.99388e-06
7.99669e-06
7.99785e-06
7.9957e-06
7.98517e-06
7.96718e-06
7.94529e-06
7.92051e-06
7.89344e-06
7.86522e-06
7.83654e-06
7.80718e-06
7.7774e-06
7.74901e-06
7.72323e-06
4.49046e-07
8.00741e-07
1.24234e-06
2.02783e-06
2.49219e-06
3.25147e-06
3.7555e-06
4.35483e-06
4.84616e-06
5.32539e-06
5.72012e-06
6.08864e-06
6.43856e-06
6.77244e-06
7.05977e-06
7.29716e-06
7.49569e-06
7.67992e-06
7.86862e-06
8.06584e-06
8.25527e-06
8.41016e-06
8.50945e-06
8.5517e-06
8.55973e-06
8.56251e-06
8.56575e-06
8.56779e-06
8.5676e-06
8.56116e-06
8.54739e-06
8.52906e-06
8.50797e-06
8.48507e-06
8.46033e-06
8.43358e-06
8.40561e-06
8.37771e-06
8.3508e-06
8.32629e-06
4.46886e-07
7.40809e-07
1.11795e-06
1.79466e-06
2.17821e-06
2.81735e-06
3.22761e-06
3.74433e-06
4.1682e-06
4.57753e-06
4.91722e-06
5.25434e-06
5.58247e-06
5.89383e-06
6.1598e-06
6.38047e-06
6.57114e-06
6.75745e-06
6.95546e-06
7.1627e-06
7.35817e-06
7.51618e-06
7.61979e-06
7.66901e-06
7.68058e-06
7.68328e-06
7.6866e-06
7.69013e-06
7.69322e-06
7.6948e-06
7.69323e-06
7.68439e-06
7.66821e-06
7.64703e-06
7.62306e-06
7.59681e-06
7.56827e-06
7.53838e-06
7.50962e-06
7.48376e-06
4.70165e-07
9.9818e-07
1.73429e-06
2.87839e-06
3.84156e-06
5.16495e-06
6.31304e-06
7.45017e-06
8.40836e-06
9.28019e-06
1.00693e-05
1.08236e-05
1.15202e-05
1.21335e-05
1.2637e-05
1.30474e-05
1.33995e-05
1.37271e-05
1.40482e-05
1.43621e-05
1.46484e-05
1.488e-05
1.50432e-05
1.51379e-05
1.5179e-05
1.51931e-05
1.52e-05
1.5207e-05
1.52143e-05
1.52183e-05
1.52114e-05
1.51761e-05
1.51175e-05
1.5046e-05
1.49625e-05
1.48663e-05
1.47578e-05
1.46393e-05
1.45131e-05
1.43806e-05
7.77183e-06
1.85462e-05
2.8965e-05
3.76734e-05
4.52023e-05
5.12447e-05
5.58036e-05
5.90579e-05
6.14263e-05
6.31458e-05
6.44318e-05
6.53605e-05
6.60287e-05
6.64873e-05
6.68044e-05
6.70169e-05
6.71627e-05
6.72583e-05
6.73199e-05
6.7358e-05
6.73812e-05
6.73928e-05
6.74024e-05
6.7413e-05
6.74257e-05
6.74382e-05
6.74558e-05
6.74744e-05
6.74886e-05
6.74939e-05
6.74888e-05
6.7473e-05
6.74431e-05
6.73975e-05
6.73376e-05
6.7271e-05
6.72051e-05
6.71445e-05
6.70933e-05
6.7059e-05
7.76943e-06
1.85689e-05
2.89044e-05
3.7538e-05
4.49974e-05
5.10338e-05
5.55457e-05
5.87792e-05
6.11076e-05
6.2811e-05
6.40745e-05
6.49913e-05
6.56413e-05
6.60844e-05
6.63836e-05
6.65786e-05
6.67069e-05
6.67837e-05
6.6828e-05
6.68518e-05
6.68568e-05
6.68495e-05
6.68431e-05
6.68355e-05
6.68368e-05
6.68429e-05
6.68522e-05
6.68618e-05
6.68665e-05
6.68618e-05
6.68454e-05
6.68157e-05
6.677e-05
6.67074e-05
6.66319e-05
6.65513e-05
6.64728e-05
6.64004e-05
6.63402e-05
6.6304e-05
4.55806e-07
6.79287e-07
1.16765e-06
1.84011e-06
2.70565e-06
3.69516e-06
4.72222e-06
5.67394e-06
6.50571e-06
7.24397e-06
7.95219e-06
8.65572e-06
9.32355e-06
9.90698e-06
1.03842e-05
1.07732e-05
1.11163e-05
1.14504e-05
1.17937e-05
1.21369e-05
1.24494e-05
1.27002e-05
1.28731e-05
1.29704e-05
1.30095e-05
1.30183e-05
1.30239e-05
1.30301e-05
1.30335e-05
1.30292e-05
1.30012e-05
1.29319e-05
1.28411e-05
1.27316e-05
1.26069e-05
1.24684e-05
1.23137e-05
1.21422e-05
1.1958e-05
1.17665e-05
4.35644e-07
4.35867e-07
4.3741e-07
4.42801e-07
4.53824e-07
4.79254e-07
5.086e-07
5.59673e-07
6.25277e-07
6.91733e-07
7.5072e-07
8.27362e-07
9.28836e-07
1.03685e-06
1.12701e-06
1.1953e-06
1.257e-06
1.33439e-06
1.43739e-06
1.55601e-06
1.66945e-06
1.75991e-06
1.81887e-06
1.84745e-06
1.85462e-06
1.85537e-06
1.85606e-06
1.85671e-06
1.85604e-06
1.85124e-06
1.8362e-06
1.81295e-06
1.78505e-06
1.75336e-06
1.71941e-06
1.68396e-06
1.64688e-06
1.60851e-06
1.57005e-06
1.53263e-06
4.35636e-07
4.35862e-07
4.37222e-07
4.42525e-07
4.50731e-07
4.70299e-07
4.88362e-07
5.19503e-07
5.58451e-07
6.03905e-07
6.40131e-07
6.82327e-07
7.37172e-07
7.99753e-07
8.54368e-07
8.96818e-07
9.34163e-07
9.79698e-07
1.03977e-06
1.1088e-06
1.17321e-06
1.22073e-06
1.24657e-06
1.25476e-06
1.25558e-06
1.25573e-06
1.25548e-06
1.25303e-06
1.24749e-06
1.24117e-06
1.23495e-06
1.22875e-06
1.22238e-06
1.21581e-06
1.20911e-06
1.2021e-06
1.19493e-06
1.18765e-06
1.18037e-06
1.17344e-06
4.35633e-07
4.35811e-07
4.3699e-07
4.41685e-07
4.48831e-07
4.65926e-07
4.81479e-07
5.08954e-07
5.43595e-07
5.83323e-07
6.14963e-07
6.53423e-07
7.04127e-07
7.61146e-07
8.09683e-07
8.47055e-07
8.81305e-07
9.24906e-07
9.82379e-07
1.04682e-06
1.10477e-06
1.14529e-06
1.16524e-06
1.1701e-06
1.17043e-06
1.17039e-06
1.1688e-06
1.16314e-06
1.15591e-06
1.14895e-06
1.14183e-06
1.13517e-06
1.12848e-06
1.12129e-06
1.11438e-06
1.10733e-06
1.10014e-06
1.09308e-06
1.08608e-06
1.07917e-06
4.35633e-07
4.35809e-07
4.36978e-07
4.41644e-07
4.48747e-07
4.65745e-07
4.81219e-07
5.08505e-07
5.43027e-07
5.82622e-07
6.13989e-07
6.52229e-07
7.0287e-07
7.59715e-07
8.0801e-07
8.45137e-07
8.79187e-07
9.22659e-07
9.80078e-07
1.04437e-06
1.10204e-06
1.14217e-06
1.16175e-06
1.1664e-06
1.16671e-06
1.16668e-06
1.16499e-06
1.15917e-06
1.15184e-06
1.14467e-06
1.13754e-06
1.13067e-06
1.12378e-06
1.11665e-06
1.10947e-06
1.10241e-06
1.09533e-06
1.0881e-06
1.08105e-06
1.07435e-06
4.35637e-07
4.35865e-07
4.37234e-07
4.42569e-07
4.50826e-07
4.70515e-07
4.88675e-07
5.20039e-07
5.59127e-07
6.0479e-07
6.4131e-07
6.83749e-07
7.38672e-07
8.01454e-07
8.56397e-07
8.9912e-07
9.36689e-07
9.82353e-07
1.04252e-06
1.11173e-06
1.17643e-06
1.22437e-06
1.25058e-06
1.259e-06
1.25986e-06
1.26003e-06
1.25984e-06
1.25753e-06
1.25207e-06
1.24611e-06
1.23992e-06
1.2337e-06
1.22747e-06
1.22113e-06
1.21446e-06
1.20741e-06
1.20018e-06
1.19292e-06
1.1856e-06
1.17851e-06
4.35644e-07
4.35866e-07
4.37403e-07
4.42776e-07
4.53772e-07
4.79149e-07
5.08482e-07
5.59501e-07
6.2486e-07
6.91574e-07
7.50671e-07
8.2691e-07
9.28314e-07
1.0365e-06
1.12653e-06
1.19453e-06
1.25635e-06
1.33381e-06
1.43655e-06
1.55504e-06
1.66874e-06
1.75943e-06
1.81837e-06
1.84703e-06
1.85458e-06
1.85537e-06
1.85607e-06
1.85675e-06
1.85597e-06
1.85082e-06
1.83504e-06
1.81125e-06
1.78272e-06
1.75085e-06
1.71697e-06
1.68169e-06
1.64504e-06
1.60737e-06
1.56978e-06
1.53326e-06
4.55805e-07
6.79291e-07
1.16769e-06
1.83992e-06
2.70603e-06
3.69567e-06
4.72325e-06
5.67468e-06
6.50588e-06
7.24538e-06
7.95413e-06
8.6565e-06
9.32427e-06
9.90796e-06
1.03845e-05
1.0772e-05
1.11147e-05
1.14496e-05
1.17927e-05
1.21353e-05
1.24485e-05
1.27009e-05
1.28744e-05
1.29721e-05
1.3012e-05
1.30218e-05
1.30276e-05
1.30338e-05
1.30376e-05
1.30321e-05
1.29991e-05
1.29263e-05
1.2832e-05
1.27217e-05
1.25974e-05
1.24602e-05
1.23087e-05
1.21422e-05
1.1964e-05
1.17777e-05
7.76945e-06
1.85692e-05
2.89062e-05
3.75379e-05
4.49973e-05
5.10334e-05
5.55454e-05
5.87789e-05
6.1107e-05
6.28103e-05
6.40735e-05
6.49897e-05
6.56399e-05
6.60825e-05
6.6382e-05
6.65774e-05
6.67064e-05
6.6784e-05
6.68296e-05
6.68546e-05
6.68608e-05
6.68543e-05
6.68481e-05
6.684e-05
6.68403e-05
6.68442e-05
6.68505e-05
6.68569e-05
6.68588e-05
6.68517e-05
6.68339e-05
6.68037e-05
6.67593e-05
6.67001e-05
6.66298e-05
6.65555e-05
6.64835e-05
6.64174e-05
6.63623e-05
6.63287e-05
7.76929e-06
1.85559e-05
2.88894e-05
3.75204e-05
4.49713e-05
5.09955e-05
5.54869e-05
5.87071e-05
6.10185e-05
6.27108e-05
6.39588e-05
6.48635e-05
6.54983e-05
6.59295e-05
6.62135e-05
6.63984e-05
6.65127e-05
6.65766e-05
6.66133e-05
6.66252e-05
6.66127e-05
6.65998e-05
6.65825e-05
6.65686e-05
6.65606e-05
6.65568e-05
6.65569e-05
6.65572e-05
6.65522e-05
6.65373e-05
6.65108e-05
6.64707e-05
6.64142e-05
6.63407e-05
6.62553e-05
6.61661e-05
6.60796e-05
6.60004e-05
6.5936e-05
6.58967e-05
4.55702e-07
6.78801e-07
1.16678e-06
1.83813e-06
2.70485e-06
3.69432e-06
4.71816e-06
5.66667e-06
6.49621e-06
7.23281e-06
7.93895e-06
8.64058e-06
9.30568e-06
9.88524e-06
1.0357e-05
1.07422e-05
1.10821e-05
1.1415e-05
1.17585e-05
1.21001e-05
1.24088e-05
1.26548e-05
1.28221e-05
1.2914e-05
1.29479e-05
1.29552e-05
1.29607e-05
1.29666e-05
1.29686e-05
1.29589e-05
1.29163e-05
1.28364e-05
1.27408e-05
1.26289e-05
1.25008e-05
1.23567e-05
1.21971e-05
1.20223e-05
1.18335e-05
1.16347e-05
4.35883e-07
4.35234e-07
4.35459e-07
4.36884e-07
4.41253e-07
4.51128e-07
4.71268e-07
5.01825e-07
5.44144e-07
5.89784e-07
6.34893e-07
6.94018e-07
7.75305e-07
8.62659e-07
9.35146e-07
9.88828e-07
1.03837e-06
1.10374e-06
1.19274e-06
1.29482e-06
1.39122e-06
1.46687e-06
1.51525e-06
1.53802e-06
1.54339e-06
1.54399e-06
1.54452e-06
1.54437e-06
1.54106e-06
1.52847e-06
1.50425e-06
1.47488e-06
1.44169e-06
1.40521e-06
1.36573e-06
1.32394e-06
1.28047e-06
1.23532e-06
1.18911e-06
1.14296e-06
4.35822e-07
4.35328e-07
4.34693e-07
4.34178e-07
4.33894e-07
4.33727e-07
4.3331e-07
4.32927e-07
4.3292e-07
4.3306e-07
4.33292e-07
4.33658e-07