/*--------------------------------*- C++ -*----------------------------------*\
  =========                 |
  \\      /  F ield         | OpenFOAM: The Open Source CFD Toolbox
   \\    /   O peration     | Website:  https://openfoam.org
    \\  /    A nd           | Version:  7
     \\/     M anipulation  |
\*---------------------------------------------------------------------------*/
FoamFile
{
    version     2.0;
    format      ascii;
    class       volVectorField;
    location    "0.3825";
    object      U;
}
// * * * * * * * * * * * * * * * * * * * * * * * * * * * * * * * * * * * * * //

dimensions      [0 1 -1 0 0 0 0];

internalField   nonuniform List<vector> 
13200
(
(1.9409 0.0359671 -32.2594)
(1.0754 -0.371542 -32.3285)
(0.611241 -0.421062 -32.3362)
(0.587462 -0.432121 -32.3428)
(0.467773 -0.438341 -32.3401)
(0.502403 -0.439752 -32.3417)
(0.426522 -0.441188 -32.3371)
(0.464211 -0.441016 -32.3368)
(0.404827 -0.441849 -32.3327)
(0.439819 -0.440997 -32.3331)
(0.3933 -0.441343 -32.3308)
(0.427317 -0.440384 -32.3319)
(0.391806 -0.440624 -32.3309)
(0.424243 -0.44035 -32.3324)
(0.395134 -0.440733 -32.3324)
(0.424651 -0.440688 -32.3339)
(0.398726 -0.439966 -32.3348)
(0.423485 -0.441564 -32.3352)
(0.404043 -0.4184 -32.3374)
(0.348929 -0.428805 -32.3323)
(3.65313 0.927918 -32.3909)
(2.84815 0.568856 -32.4939)
(1.96375 0.474225 -32.5235)
(1.84436 0.435662 -32.5383)
(1.54387 0.429013 -32.5361)
(1.59025 0.426729 -32.5363)
(1.39591 0.424485 -32.526)
(1.46029 0.424448 -32.5195)
(1.3084 0.423102 -32.5087)
(1.37523 0.422419 -32.5047)
(1.25873 0.420756 -32.4991)
(1.32971 0.419837 -32.4988)
(1.24128 0.418551 -32.4974)
(1.31042 0.418741 -32.4996)
(1.23689 0.418151 -32.5017)
(1.30038 0.418832 -32.5047)
(1.23273 0.417713 -32.5095)
(1.29512 0.419302 -32.5094)
(1.23156 0.40805 -32.5193)
(1.38882 0.41374 -32.4938)
(4.5304 0.488599 -32.4151)
(4.5091 -0.0520774 -32.5202)
(3.79088 -0.223759 -32.5582)
(3.62558 -0.33205 -32.5835)
(3.21398 -0.372098 -32.5814)
(3.20624 -0.389008 -32.5858)
(2.92824 -0.398252 -32.5701)
(2.96259 -0.402264 -32.5572)
(2.74486 -0.406189 -32.5325)
(2.79546 -0.408911 -32.5189)
(2.63129 -0.412159 -32.5033)
(2.69948 -0.413973 -32.4988)
(2.57761 -0.415712 -32.4932)
(2.64977 -0.416386 -32.4947)
(2.54754 -0.417307 -32.4973)
(2.61433 -0.416986 -32.5024)
(2.51929 -0.417226 -32.5131)
(2.57583 -0.418512 -32.5141)
(2.50045 -0.410658 -32.5361)
(2.45846 -0.425988 -32.5001)
(4.80998 0.872762 -32.4304)
(5.23055 0.653903 -32.525)
(4.92958 0.579231 -32.5641)
(4.92883 0.49537 -32.588)
(4.61391 0.460182 -32.5882)
(4.6174 0.441009 -32.5947)
(4.36469 0.430572 -32.5873)
(4.37964 0.423899 -32.5737)
(4.16925 0.417929 -32.543)
(4.192 0.411798 -32.5141)
(4.02646 0.405755 -32.4863)
(4.06712 0.399701 -32.4696)
(3.94405 0.395962 -32.4578)
(3.9955 0.394008 -32.452)
(3.89511 0.392463 -32.4516)
(3.94839 0.393418 -32.4533)
(3.84908 0.392524 -32.4666)
(3.92081 0.391885 -32.4706)
(3.78609 0.395002 -32.4988)
(3.9693 0.39268 -32.4702)
(4.86366 0.33969 -32.4307)
(5.42962 -0.0429926 -32.5194)
(5.3999 -0.150388 -32.5529)
(5.55731 -0.252981 -32.5763)
(5.37659 -0.298689 -32.572)
(5.44299 -0.32313 -32.5803)
(5.2618 -0.338325 -32.578)
(5.3031 -0.347175 -32.5746)
(5.13844 -0.355948 -32.5457)
(5.16556 -0.36517 -32.512)
(5.02165 -0.374909 -32.4719)
(5.0487 -0.383295 -32.4453)
(4.93394 -0.388544 -32.4244)
(4.9685 -0.390902 -32.4131)
(4.87632 -0.392947 -32.4051)
(4.91249 -0.391868 -32.4021)
(4.83193 -0.395477 -32.4093)
(4.86145 -0.390263 -32.4169)
(4.78861 -0.401047 -32.4412)
(4.79286 -0.410404 -32.43)
(4.84998 0.622516 -32.4378)
(5.38874 0.537787 -32.5242)
(5.48539 0.526891 -32.5575)
(5.73974 0.472784 -32.5784)
(5.65935 0.449125 -32.5727)
(5.7948 0.433968 -32.5784)
(5.68712 0.424559 -32.58)
(5.77528 0.417981 -32.5831)
(5.66722 0.411794 -32.5618)
(5.72343 0.405084 -32.5281)
(5.61441 0.398109 -32.4832)
(5.64831 0.391593 -32.4482)
(5.5477 0.386225 -32.4215)
(5.57606 0.382243 -32.4054)
(5.49156 0.378782 -32.3926)
(5.52077 0.379549 -32.3843)
(5.44483 0.37717 -32.3838)
(5.48244 0.377979 -32.3906)
(5.39272 0.381296 -32.4092)
(5.48151 0.390325 -32.407)
(4.83771 0.14629 -32.4378)
(5.33034 -0.130135 -32.5238)
(5.46545 -0.195187 -32.5548)
(5.75687 -0.264498 -32.5757)
(5.72472 -0.294807 -32.5669)
(5.90151 -0.311244 -32.5721)
(5.83916 -0.32204 -32.5731)
(5.96397 -0.328299 -32.5807)
(5.89693 -0.334973 -32.5632)
(5.98336 -0.342173 -32.5327)
(5.90665 -0.350879 -32.4851)
(5.95813 -0.359558 -32.4469)
(5.87629 -0.367328 -32.4153)
(5.90893 -0.371558 -32.3979)
(5.83466 -0.375094 -32.3817)
(5.85747 -0.374021 -32.3713)
(5.79746 -0.378909 -32.3639)
(5.80488 -0.371292 -32.3692)
(5.7653 -0.388787 -32.3821)
(5.738 -0.394156 -32.3846)
(4.82665 0.404107 -32.4426)
(5.27379 0.416091 -32.5285)
(5.42098 0.434269 -32.5596)
(5.72417 0.412189 -32.5794)
(5.71089 0.403713 -32.5702)
(5.90742 0.39741 -32.5746)
(5.86812 0.393493 -32.5758)
(6.014 0.390418 -32.5846)
(5.97107 0.387574 -32.5692)
(6.07829 0.38461 -32.5401)
(6.02477 0.381468 -32.492)
(6.09311 0.378379 -32.4523)
(6.02808 0.375568 -32.419)
(6.06834 0.373543 -32.4009)
(6.00316 0.370776 -32.3837)
(6.02723 0.370598 -32.3721)
(5.97158 0.369127 -32.3614)
(5.98585 0.368531 -32.3643)
(5.94131 0.374414 -32.3741)
(5.95247 0.389454 -32.3766)
(4.82002 -0.033888 -32.4437)
(5.24136 -0.219981 -32.5291)
(5.39128 -0.26574 -32.5591)
(5.69557 -0.304368 -32.5789)
(5.68747 -0.321108 -32.5685)
(5.89092 -0.329564 -32.5732)
(5.86012 -0.335215 -32.5738)
(6.01502 -0.338204 -32.5831)
(5.98191 -0.341607 -32.5677)
(6.09907 -0.345123 -32.5392)
(6.05764 -0.349774 -32.4907)
(6.13705 -0.354666 -32.4506)
(6.08401 -0.359768 -32.4166)
(6.13155 -0.362999 -32.3986)
(6.07469 -0.366143 -32.381)
(6.09891 -0.365305 -32.3692)
(6.05263 -0.36924 -32.3567)
(6.05384 -0.362397 -32.3583)
(6.03352 -0.378379 -32.3663)
(5.99405 -0.386895 -32.3686)
(4.81646 0.212905 -32.4468)
(5.22389 0.312736 -32.5317)
(5.37542 0.345943 -32.5615)
(5.68029 0.354196 -32.5808)
(5.67343 0.358484 -32.5702)
(5.87896 0.359698 -32.575)
(5.8508 0.360662 -32.5755)
(6.00875 0.360695 -32.5848)
(5.97906 0.361048 -32.5692)
(6.09998 0.361472 -32.5407)
(6.06351 0.362375 -32.492)
(6.14801 0.363402 -32.4519)
(6.10056 0.364587 -32.4177)
(6.15193 0.365273 -32.3998)
(6.09888 0.365835 -32.3822)
(6.12467 0.365261 -32.3703)
(6.0802 0.366573 -32.3573)
(6.08473 0.362836 -32.3582)
(6.06332 0.373933 -32.3657)
(6.03699 0.38783 -32.3672)
(4.81646 -0.212906 -32.4468)
(5.22389 -0.312736 -32.5317)
(5.37542 -0.345941 -32.5615)
(5.68029 -0.354193 -32.5808)
(5.67343 -0.358481 -32.5702)
(5.87896 -0.359693 -32.575)
(5.85081 -0.36066 -32.5754)
(6.00875 -0.36069 -32.5848)
(5.97907 -0.361045 -32.5691)
(6.09998 -0.361462 -32.5407)
(6.06351 -0.362365 -32.492)
(6.148 -0.363382 -32.4519)
(6.10057 -0.364557 -32.4177)
(6.15189 -0.365212 -32.3998)
(6.09885 -0.365756 -32.3822)
(6.12452 -0.365019 -32.3703)
(6.08017 -0.366377 -32.3573)
(6.08453 -0.36202 -32.3581)
(6.06286 -0.373271 -32.3657)
(6.03675 -0.385639 -32.3671)
(4.82002 0.0338868 -32.4437)
(5.24136 0.219981 -32.5291)
(5.39128 0.265742 -32.5591)
(5.69557 0.304372 -32.5789)
(5.68747 0.32111 -32.5685)
(5.89092 0.329569 -32.5732)
(5.86011 0.335217 -32.5738)
(6.01502 0.338209 -32.5832)
(5.98191 0.341611 -32.5677)
(6.09907 0.345133 -32.5392)
(6.05763 0.349785 -32.4907)
(6.13706 0.354685 -32.4506)
(6.08401 0.359801 -32.4166)
(6.1316 0.363059 -32.3986)
(6.07476 0.366231 -32.3811)
(6.09909 0.365548 -32.3691)
(6.0528 0.369454 -32.3569)
(6.05414 0.363203 -32.3581)
(6.03437 0.379057 -32.3666)
(5.99484 0.388877 -32.3681)
(4.82665 -0.404108 -32.4426)
(5.27379 -0.41609 -32.5285)
(5.42098 -0.434267 -32.5596)
(5.72417 -0.412186 -32.5794)
(5.71089 -0.403711 -32.5702)
(5.90742 -0.397406 -32.5746)
(5.86812 -0.393491 -32.5757)
(6.014 -0.390412 -32.5846)
(5.97107 -0.387572 -32.5691)
(6.07829 -0.3846 -32.5401)
(6.02478 -0.381459 -32.492)
(6.09311 -0.378359 -32.4523)
(6.0281 -0.375541 -32.419)
(6.06832 -0.373477 -32.4009)
(6.00317 -0.370713 -32.3837)
(6.02713 -0.37037 -32.372)
(5.97169 -0.369045 -32.3615)
(5.98578 -0.367641 -32.364)
(5.94137 -0.373936 -32.3745)
(5.95268 -0.387468 -32.3759)
(4.83771 -0.146291 -32.4378)
(5.33034 0.130135 -32.5238)
(5.46545 0.195188 -32.5548)
(5.75687 0.264501 -32.5757)
(5.72472 0.294809 -32.5669)
(5.90152 0.311248 -32.5721)
(5.83916 0.322042 -32.573)
(5.96398 0.328305 -32.5808)
(5.89693 0.334976 -32.5631)
(5.98337 0.342183 -32.5328)
(5.90665 0.350888 -32.485)
(5.95816 0.359576 -32.4469)
(5.87629 0.367358 -32.4153)
(5.90902 0.371597 -32.398)
(5.83476 0.375188 -32.3816)
(5.85771 0.374249 -32.3713)
(5.7978 0.379221 -32.364)
(5.80542 0.37203 -32.3691)
(5.76664 0.389493 -32.3822)
(5.7396 0.396283 -32.3842)
(4.84998 -0.622518 -32.4378)
(5.38874 -0.537786 -32.5242)
(5.48539 -0.52689 -32.5575)
(5.73974 -0.472781 -32.5784)
(5.65935 -0.449122 -32.5727)
(5.7948 -0.433964 -32.5784)
(5.68713 -0.424557 -32.58)
(5.77529 -0.417976 -32.5832)
(5.66722 -0.411792 -32.5617)
(5.72344 -0.405075 -32.5282)
(5.61441 -0.398102 -32.4831)
(5.64834 -0.391573 -32.4484)
(5.54771 -0.386198 -32.4213)
(5.57611 -0.382177 -32.4056)
(5.4916 -0.378744 -32.3923)
(5.52085 -0.379359 -32.3847)
(5.44509 -0.37722 -32.3833)
(5.48273 -0.377255 -32.3912)
(5.3936 -0.381089 -32.4083)
(5.48253 -0.388965 -32.4081)
(4.86366 -0.339692 -32.4307)
(5.42962 0.0429927 -32.5194)
(5.39991 0.15039 -32.5529)
(5.55731 0.252984 -32.5763)
(5.37659 0.298692 -32.5719)
(5.443 0.323133 -32.5803)
(5.2618 0.338327 -32.578)
(5.30312 0.347179 -32.5747)
(5.13844 0.355952 -32.5456)
(5.16558 0.365176 -32.5122)
(5.02165 0.374918 -32.4717)
(5.04877 0.383305 -32.4456)
(4.93394 0.38857 -32.424)
(4.96867 0.390932 -32.4136)
(4.87642 0.393045 -32.4044)
(4.91295 0.392052 -32.4031)
(4.83243 0.395816 -32.4078)
(4.86255 0.390898 -32.419)
(4.79059 0.401731 -32.4377)
(4.79622 0.412679 -32.4352)
(4.80998 -0.872763 -32.4304)
(5.23055 -0.653903 -32.525)
(4.92958 -0.57923 -32.5641)
(4.92884 -0.495367 -32.588)
(4.61391 -0.46018 -32.5882)
(4.61741 -0.441007 -32.5947)
(4.3647 -0.43057 -32.5872)
(4.37966 -0.423895 -32.5738)
(4.16926 -0.417926 -32.5429)
(4.19203 -0.411792 -32.5143)
(4.02646 -0.405749 -32.486)
(4.06717 -0.399687 -32.47)
(3.94406 -0.395948 -32.4573)
(3.99564 -0.393969 -32.4527)
(3.89516 -0.392483 -32.4506)
(3.94873 -0.393311 -32.4547)
(3.84951 -0.392693 -32.4642)
(3.92167 -0.39147 -32.4744)
(3.78797 -0.395202 -32.4916)
(3.97149 -0.392449 -32.4834)
(4.5304 -0.4886 -32.4151)
(4.5091 0.0520768 -32.5202)
(3.79089 0.22376 -32.5582)
(3.62559 0.332052 -32.5835)
(3.21399 0.372099 -32.5814)
(3.20625 0.38901 -32.5859)
(2.92826 0.398254 -32.5701)
(2.96261 0.402266 -32.5572)
(2.74487 0.406192 -32.5324)
(2.79548 0.408912 -32.5191)
(2.6313 0.412165 -32.5032)
(2.69954 0.413975 -32.4991)
(2.57764 0.415735 -32.4928)
(2.64997 0.416403 -32.4953)
(2.54767 0.417416 -32.4963)
(2.61487 0.417107 -32.5037)
(2.51994 0.417557 -32.5108)
(2.57711 0.418931 -32.518)
(2.50298 0.411272 -32.5279)
(2.46324 0.427713 -32.5207)
(3.65313 -0.927919 -32.3909)
(2.84815 -0.568857 -32.4939)
(1.96375 -0.474225 -32.5235)
(1.84437 -0.435662 -32.5383)
(1.54387 -0.429012 -32.5361)
(1.59025 -0.426727 -32.5363)
(1.39592 -0.424484 -32.526)
(1.4603 -0.424445 -32.5195)
(1.30841 -0.4231 -32.5087)
(1.37525 -0.422415 -32.5048)
(1.25874 -0.420754 -32.499)
(1.32975 -0.419831 -32.4989)
(1.2413 -0.418558 -32.4972)
(1.31051 -0.418739 -32.4999)
(1.23696 -0.418223 -32.5012)
(1.30063 -0.418864 -32.5054)
(1.23314 -0.417981 -32.5084)
(1.29566 -0.419369 -32.5114)
(1.23329 -0.408618 -32.5148)
(1.389 -0.414707 -32.5098)
(1.9409 -0.0359679 -32.2594)
(1.0754 0.371541 -32.3285)
(0.611242 0.421061 -32.3362)
(0.587463 0.432121 -32.3428)
(0.467775 0.438341 -32.3401)
(0.502405 0.439752 -32.3418)
(0.426524 0.441188 -32.3371)
(0.464213 0.441016 -32.3368)
(0.404829 0.441849 -32.3327)
(0.439823 0.440994 -32.3331)
(0.393304 0.441344 -32.3308)
(0.427331 0.440381 -32.3319)
(0.391817 0.440638 -32.3308)
(0.424289 0.440354 -32.3325)
(0.395176 0.440817 -32.3323)
(0.424774 0.440747 -32.3341)
(0.398915 0.440252 -32.3344)
(0.42375 0.441741 -32.3357)
(0.404862 0.419136 -32.3362)
(0.350312 0.430088 -32.3361)
(3.71106 0.563387 0.00587046)
(2.04102 0.631186 0.00361331)
(1.36952 0.606952 0.00485792)
(1.05437 0.603507 0.00362114)
(0.996896 0.611234 0.00463621)
(0.881207 0.616354 0.00359703)
(0.876411 0.618489 0.00443707)
(0.803887 0.620011 0.00357041)
(0.807888 0.62036 0.00427449)
(0.760563 0.62021 0.00354903)
(0.769721 0.62027 0.00413825)
(0.74226 0.619728 0.00353366)
(0.753891 0.619062 0.00402951)
(0.738548 0.619196 0.00352756)
(0.747554 0.61862 0.00394074)
(0.73907 0.619849 0.00352268)
(0.743395 0.616355 0.00386347)
(0.742446 0.625887 0.00351147)
(0.732704 0.562708 0.003812)
(1.0312 0.582599 0.00347434)
(4.78563 -0.000134621 0.00355757)
(4.13638 -0.223014 0.00160933)
(3.5625 -0.421393 0.00287634)
(3.01341 -0.525261 0.00164725)
(2.78055 -0.56489 0.00267241)
(2.51367 -0.582709 0.00163489)
(2.42461 -0.590791 0.00247802)
(2.26241 -0.59577 0.00161037)
(2.21815 -0.598782 0.00231659)
(2.1154 -0.601022 0.00159074)
(2.10015 -0.603289 0.00218109)
(2.04114 -0.604322 0.00157576)
(2.04035 -0.60489 0.00207213)
(2.00498 -0.605464 0.00157041)
(2.00321 -0.605489 0.00198426)
(1.97956 -0.606574 0.00156653)
(1.97159 -0.603968 0.00190579)
(1.95237 -0.611617 0.00155676)
(1.96103 -0.594509 0.00182121)
(1.71976 -0.601122 0.00151662)
(4.76881 0.531665 0.00474378)
(4.85838 0.781993 0.00284194)
(4.74375 0.745783 0.00402758)
(4.38002 0.683486 0.00278136)
(4.18472 0.649512 0.00379896)
(3.91488 0.630196 0.00275911)
(3.79659 0.619047 0.00360114)
(3.61116 0.612078 0.00272792)
(3.5348 0.605444 0.00342981)
(3.4097 0.600339 0.00270115)
(3.36968 0.594316 0.00329011)
(3.29642 0.590179 0.00268485)
(3.28013 0.586375 0.00318079)
(3.23668 0.585776 0.002679)
(3.22412 0.583744 0.00309359)
(3.19705 0.585385 0.00267642)
(3.17311 0.58136 0.00301957)
(3.17718 0.587929 0.0026666)
(3.10021 0.556758 0.00297718)
(3.29615 0.570848 0.00264153)
(4.63086 -0.0627015 0.00346438)
(4.86624 -0.177644 0.00177003)
(5.0904 -0.297037 0.00294311)
(4.99479 -0.392539 0.00171281)
(4.96867 -0.445965 0.00273879)
(4.80815 -0.480931 0.00170688)
(4.74654 -0.502035 0.00255358)
(4.60351 -0.517542 0.00168435)
(4.54245 -0.53053 0.00238838)
(4.42883 -0.542556 0.00166087)
(4.38368 -0.553302 0.0022498)
(4.30721 -0.561009 0.00164446)
(4.28245 -0.565853 0.00213898)
(4.23511 -0.567972 0.0016379)
(4.21843 -0.570104 0.00205122)
(4.18633 -0.569957 0.00163591)
(4.1692 -0.572197 0.00197565)
(4.14009 -0.571462 0.00162891)
(4.13503 -0.581696 0.00188781)
(3.99816 -0.586153 0.00160126)
(4.61532 0.410796 0.00436799)
(4.84657 0.659582 0.00274458)
(5.15264 0.682299 0.00385568)
(5.18452 0.657999 0.00261287)
(5.27936 0.638411 0.00362571)
(5.22491 0.622697 0.00258849)
(5.24528 0.611204 0.00343302)
(5.17229 0.602409 0.00256106)
(5.1605 0.593313 0.00326464)
(5.08482 0.585255 0.00253578)
(5.0593 0.57635 0.00312424)
(4.99501 0.570344 0.00251806)
(4.97242 0.564543 0.00301119)
(4.92617 0.561856 0.00250802)
(4.90819 0.557885 0.00292079)
(4.87733 0.559102 0.00250445)
(4.85381 0.554787 0.00284705)
(4.84795 0.559175 0.0024968)
(4.7878 0.5398 0.00280251)
(4.87811 0.567153 0.00248295)
(4.59135 -0.111235 0.00355199)
(4.76082 -0.240041 0.00203094)
(5.09332 -0.32222 0.00311973)
(5.18063 -0.386712 0.00188196)
(5.34453 -0.422887 0.00289496)
(5.3585 -0.448686 0.00186025)
(5.44078 -0.464775 0.00270505)
(5.42569 -0.477764 0.001835)
(5.46255 -0.489243 0.00254097)
(5.42907 -0.50133 0.0018148)
(5.43328 -0.513698 0.00240451)
(5.38974 -0.524508 0.00179819)
(5.3792 -0.533848 0.00229006)
(5.33912 -0.538329 0.00178783)
(5.3268 -0.542921 0.00219998)
(5.29276 -0.542385 0.00178506)
(5.2836 -0.548239 0.00212422)
(5.24399 -0.541926 0.0017776)
(5.25061 -0.56254 0.00203888)
(5.12515 -0.567755 0.00176015)
(4.60451 0.326332 0.00411549)
(4.76018 0.54366 0.00265402)
(5.07201 0.583463 0.0037097)
(5.16109 0.583104 0.00246995)
(5.3411 0.578941 0.00347588)
(5.37982 0.574259 0.00243844)
(5.49188 0.569907 0.00328191)
(5.50869 0.566354 0.00241005)
(5.5776 0.561874 0.0031162)
(5.5747 0.557889 0.00239014)
(5.60549 0.552608 0.00298079)
(5.58335 0.548913 0.00237456)
(5.58815 0.545039 0.00286638)
(5.55772 0.543255 0.00236261)
(5.55202 0.540555 0.00277437)
(5.52141 0.540805 0.00235815)
(5.51228 0.537929 0.00269949)
(5.4871 0.539469 0.00234972)
(5.46942 0.529801 0.0026465)
(5.45943 0.564692 0.00233987)
(4.59372 -0.15535 0.00365456)
(4.72162 -0.303576 0.00224225)
(5.03358 -0.370844 0.00328309)
(5.12525 -0.417294 0.00204347)
(5.31382 -0.442005 0.00304714)
(5.36286 -0.459361 0.00201001)
(5.48775 -0.469644 0.00285293)
(5.51842 -0.478061 0.0019815)
(5.60264 -0.485046 0.00268807)
(5.61617 -0.492798 0.0019629)
(5.6638 -0.500993 0.00255377)
(5.6567 -0.509008 0.00194722)
(5.6749 -0.51681 0.00243803)
(5.653 -0.521257 0.00193457)
(5.6564 -0.526773 0.00234586)
(5.62636 -0.526081 0.00193106)
(5.62992 -0.532619 0.00227032)
(5.58471 -0.524867 0.00192321)
(5.60775 -0.544155 0.00219064)
(5.48331 -0.557465 0.00190864)
(4.59947 0.259037 0.00392206)
(4.72391 0.450379 0.00254257)
(5.02638 0.49961 0.00356867)
(5.11374 0.515623 0.00233054)
(5.30036 0.521635 0.0033317)
(5.3497 0.524868 0.00229393)
(5.47733 0.525825 0.00313687)
(5.51186 0.526636 0.00226491)
(5.60163 0.526398 0.00297174)
(5.62192 0.526821 0.00224673)
(5.67793 0.526463 0.0028383)
(5.6794 0.526921 0.00223217)
(5.70574 0.527034 0.00272348)
(5.69006 0.52739 0.00221959)
(5.69859 0.528002 0.0026314)
(5.67188 0.527549 0.00221555)
(5.67681 0.528611 0.00255643)
(5.63998 0.525945 0.00220697)
(5.65345 0.527842 0.0024944)
(5.58347 0.559689 0.00219644)
(4.59602 -0.203336 0.0037743)
(4.71203 -0.372071 0.00240929)
(5.01463 -0.429548 0.00343042)
(5.10199 -0.460628 0.00219145)
(5.28978 -0.475907 0.00319133)
(5.33994 -0.486208 0.00215332)
(5.46881 -0.491819 0.00299596)
(5.50435 -0.496441 0.00212402)
(5.59557 -0.499762 0.00283081)
(5.61779 -0.503754 0.00210579)
(5.67688 -0.507614 0.00269713)
(5.68172 -0.511859 0.00209067)
(5.71207 -0.516025 0.0025815)
(5.69918 -0.518611 0.00207762)
(5.71133 -0.522298 0.00248896)
(5.68513 -0.521493 0.0020738)
(5.69504 -0.526256 0.00241362)
(5.652 -0.519775 0.00206581)
(5.67857 -0.53191 0.00234176)
(5.57423 -0.554643 0.00205247)
(4.59602 0.203336 0.0037743)
(4.71203 0.372072 0.00240929)
(5.01463 0.429548 0.00343042)
(5.10199 0.460629 0.00219145)
(5.28978 0.475906 0.00319133)
(5.33994 0.486209 0.00215332)
(5.46881 0.491818 0.00299596)
(5.50435 0.496445 0.00212401)
(5.59557 0.499762 0.00283081)
(5.61779 0.503761 0.00210578)
(5.67687 0.507617 0.00269714)
(5.68172 0.511878 0.00209066)
(5.71203 0.516048 0.00258153)
(5.69918 0.518681 0.00207761)
(5.71122 0.522374 0.00248912)
(5.68524 0.521736 0.00207383)
(5.69488 0.526498 0.00241424)
(5.65233 0.520507 0.00206548)
(5.67885 0.532778 0.00234359)
(5.57458 0.556605 0.00205323)
(4.59947 -0.259037 0.00392206)
(4.72391 -0.450378 0.00254257)
(5.02638 -0.49961 0.00356867)
(5.11374 -0.515623 0.00233054)
(5.30036 -0.521637 0.0033317)
(5.3497 -0.524867 0.00229394)
(5.47733 -0.525826 0.00313687)
(5.51186 -0.526632 0.00226492)
(5.60163 -0.526399 0.00297174)
(5.62193 -0.526813 0.00224674)
(5.67794 -0.52646 0.0028383)
(5.6794 -0.526899 0.00223218)
(5.70578 -0.527012 0.00272344)
(5.69007 -0.527307 0.00221958)
(5.69873 -0.52793 0.00263125)
(5.6718 -0.527265 0.00221549)
(5.6771 -0.528389 0.0025558)
(5.63976 -0.525178 0.00220721)
(5.65353 -0.526951 0.00249251)
(5.58346 -0.557657 0.00219528)
(4.59372 0.15535 0.00365456)
(4.72162 0.303577 0.00224225)
(5.03358 0.370845 0.00328309)
(5.12525 0.417294 0.00204347)
(5.31382 0.442004 0.00304714)
(5.36286 0.459362 0.00201001)
(5.48775 0.469643 0.00285293)
(5.51842 0.478064 0.0019815)
(5.60264 0.485046 0.00268807)
(5.61617 0.492804 0.00196289)
(5.66379 0.500996 0.00255377)
(5.65671 0.509022 0.00194721)
(5.67487 0.51683 0.00243805)
(5.65303 0.521303 0.00193456)
(5.65634 0.526824 0.00234597)
(5.6265 0.526196 0.00193109)
(5.62991 0.532867 0.00227091)
(5.58515 0.525263 0.00192292)
(5.60841 0.545054 0.00219231)
(5.4843 0.558851 0.00190917)
(4.60451 -0.326332 0.00411549)
(4.76018 -0.543658 0.00265402)
(5.07201 -0.583463 0.00370969)
(5.16109 -0.583103 0.00246995)
(5.3411 -0.578942 0.00347588)
(5.37982 -0.574258 0.00243845)
(5.49188 -0.569908 0.00328191)
(5.50869 -0.56635 0.00241006)
(5.5776 -0.561875 0.00311619)
(5.57471 -0.557881 0.00239015)
(5.6055 -0.552606 0.00298078)
(5.58337 -0.548887 0.00237457)
(5.58819 -0.545017 0.00286632)
(5.55775 -0.543154 0.0023626)
(5.55217 -0.54046 0.00277427)
(5.52141 -0.540396 0.00235807)
(5.51267 -0.53775 0.00269884)
(5.48707 -0.538381 0.00234976)
(5.47004 -0.529078 0.00264466)
(5.4597 -0.562411 0.00233838)
(4.59135 0.111235 0.00355199)
(4.76082 0.240042 0.00203094)
(5.09332 0.322221 0.00311973)
(5.18063 0.386713 0.00188196)
(5.34453 0.422886 0.00289496)
(5.3585 0.448687 0.00186025)
(5.44078 0.464774 0.00270504)
(5.4257 0.477766 0.00183499)
(5.46254 0.489243 0.00254096)
(5.42908 0.501334 0.00181479)
(5.43326 0.513701 0.0024045)
(5.38977 0.524516 0.00179818)
(5.37917 0.533862 0.00229004)
(5.3392 0.538339 0.00178783)
(5.3268 0.542954 0.00219995)
(5.293 0.542406 0.00178511)
(5.28378 0.548475 0.00212466)
(5.24475 0.542117 0.00177748)
(5.25178 0.563447 0.00204018)
(5.12733 0.569062 0.00176085)
(4.61532 -0.410796 0.00436799)
(4.84657 -0.659581 0.00274458)
(5.15263 -0.682299 0.00385568)
(5.18452 -0.657998 0.00261287)
(5.27935 -0.638412 0.00362571)
(5.22491 -0.622697 0.0025885)
(5.24528 -0.611206 0.00343301)
(5.1723 -0.602406 0.00256106)
(5.16049 -0.593314 0.00326462)
(5.08483 -0.585247 0.0025358)
(5.05929 -0.576348 0.00312421)
(4.99505 -0.570316 0.00251808)
(4.97244 -0.564518 0.00301111)
(4.92627 -0.561734 0.00250804)
(4.90831 -0.557812 0.00292077)
(4.87755 -0.558737 0.00250446)
(4.85427 -0.554682 0.00284638)
(4.84843 -0.558278 0.00249692)
(4.78909 -0.539382 0.00280058)
(4.87928 -0.565872 0.00248164)
(4.63086 0.0627017 0.00346439)
(4.86624 0.177646 0.00177003)
(5.0904 0.297038 0.00294311)
(4.99479 0.392539 0.0017128)
(4.96867 0.445965 0.00273879)
(4.80815 0.48093 0.00170688)
(4.74653 0.502035 0.00255358)
(4.60352 0.517542 0.00168435)
(4.54244 0.530531 0.00238837)
(4.42885 0.542556 0.00166088)
(4.38365 0.553305 0.00224978)
(4.30727 0.561006 0.00164447)
(4.28242 0.565861 0.00213883)
(4.23528 0.567941 0.00163793)
(4.21844 0.570129 0.00205121)
(4.18681 0.569915 0.00163599)
(4.16948 0.572402 0.0019758)
(4.14155 0.571509 0.00162897)
(4.13636 0.582606 0.00188836)
(4.00318 0.587668 0.00160257)
(4.76881 -0.531665 0.00474378)
(4.85838 -0.781992 0.00284194)
(4.74375 -0.745782 0.00402758)
(4.38002 -0.683486 0.00278136)
(4.18472 -0.649512 0.00379896)
(3.91488 -0.630196 0.00275911)
(3.79659 -0.619047 0.00360113)
(3.61116 -0.612076 0.00272793)
(3.5348 -0.605444 0.0034298)
(3.40972 -0.600332 0.00270117)
(3.36968 -0.594311 0.00329007)
(3.29648 -0.590152 0.00268491)
(3.28014 -0.586355 0.00318083)
(3.23686 -0.585679 0.00267909)
(3.22423 -0.583697 0.00309343)
(3.1975 -0.585105 0.00267656)
(3.17363 -0.581354 0.00301891)
(3.17831 -0.587308 0.00266698)
(3.10183 -0.556894 0.00297488)
(3.29946 -0.570676 0.00264208)
(4.78563 0.000134427 0.00355757)
(4.13638 0.223015 0.00160933)
(3.5625 0.421394 0.00287634)
(3.01341 0.525262 0.00164725)
(2.78055 0.564891 0.00267242)
(2.51367 0.58271 0.00163489)
(2.42461 0.590793 0.00247802)
(2.26241 0.595771 0.00161037)
(2.21815 0.598784 0.00231659)
(2.11541 0.60102 0.00159074)
(2.10015 0.603291 0.00218107)
(2.04119 0.604306 0.00157578)
(2.04036 0.604889 0.00207211)
(2.00514 0.605405 0.00157046)
(2.0033 0.605492 0.00198425)
(1.98002 0.606431 0.00156664)
(1.97204 0.604119 0.00190569)
(1.9538 0.611376 0.00155691)
(1.96231 0.595417 0.00182135)
(1.72801 0.602177 0.0015179)
(3.71106 -0.563387 0.00587046)
(2.04102 -0.631186 0.00361331)
(1.36952 -0.606952 0.00485793)
(1.05437 -0.603507 0.00362114)
(0.996897 -0.611233 0.00463621)
(0.881209 -0.616353 0.00359703)
(0.876413 -0.618489 0.00443707)
(0.803888 -0.62001 0.00357041)
(0.807891 -0.62036 0.00427449)
(0.760567 -0.620205 0.00354903)
(0.769731 -0.620268 0.00413824)
(0.742279 -0.619707 0.00353368)
(0.75392 -0.619053 0.00402951)
(0.738616 -0.619123 0.00352761)
(0.747653 -0.618605 0.00394065)
(0.739254 -0.619658 0.00352278)
(0.743764 -0.616462 0.00386303)
(0.742916 -0.6255 0.00351167)
(0.733888 -0.563827 0.00381081)
(1.03061 -0.583598 0.00347463)
(3.99629 0.159385 0.000900747)
(2.95585 0.121989 0.00114699)
(2.0822 0.0726701 0.000631504)
(1.61218 0.037255 0.000990776)
(1.37184 0.0244528 0.000672516)
(1.27337 0.0248406 0.000881424)
(1.20959 0.0298892 0.000661485)
(1.17227 0.0357173 0.000791177)
(1.1391 0.0404444 0.000654384)
(1.11826 0.043811 0.000728211)
(1.10417 0.0458885 0.000650006)
(1.09481 0.0473055 0.000686697)
(1.08907 0.0482604 0.00065335)
(1.08267 0.0491628 0.000665718)
(1.07668 0.0495435 0.000664068)
(1.07398 0.0506223 0.000657825)
(1.0595 0.0495666 0.000679016)
(1.07385 0.0524629 0.000655214)
(1.03185 0.0468419 0.000695654)
(1.08263 0.0457765 0.000681747)
(4.61668 0.180454 0.0027224)
(4.60797 0.195894 0.00308439)
(4.31268 0.148808 0.0025496)
(3.99993 0.0791994 0.00289471)
(3.71685 0.0295944 0.00256869)
(3.50186 0.000147364 0.00277504)
(3.32153 -0.0154252 0.00255076)
(3.18203 -0.0262367 0.00267705)
(3.07651 -0.0340168 0.00253707)
(3.00733 -0.0405666 0.00260976)
(2.96608 -0.0447776 0.0025304)
(2.94066 -0.0476153 0.0025671)
(2.92414 -0.049224 0.00253467)
(2.91102 -0.0501261 0.00254775)
(2.89568 -0.0512214 0.00254799)
(2.89099 -0.0508918 0.00254196)
(2.8637 -0.0527598 0.00256685)
(2.88305 -0.0510193 0.00253836)
(2.81993 -0.0517634 0.00260596)
(2.88325 -0.0598725 0.0025828)
(4.55835 0.125298 0.00116057)
(4.78617 0.175887 0.00142561)
(4.87994 0.175881 0.00090147)
(4.88536 0.138679 0.00124878)
(4.81715 0.108656 0.000933445)
(4.73527 0.0920615 0.00114659)
(4.64041 0.0839669 0.000927945)
(4.54859 0.0776079 0.00105563)
(4.46274 0.0704387 0.000916877)
(4.39343 0.063348 0.000988632)
(4.34297 0.0580003 0.000910429)
(4.30815 0.0554176 0.000946137)
(4.28343 0.0541946 0.000912691)
(4.26714 0.0549581 0.000925128)
(4.24809 0.0537436 0.000924414)
(4.24643 0.0568812 0.000919253)
(4.21722 0.0515074 0.000940661)
(4.24477 0.0606833 0.000920446)
(4.17456 0.0470886 0.000945022)
(4.27204 0.056045 0.000942626)
(4.53978 0.121988 0.00246325)
(4.72032 0.14276 0.00285635)
(4.88242 0.131053 0.0023431)
(5.001 0.0890462 0.00268269)
(5.05216 0.053116 0.00235541)
(5.07939 0.0285284 0.00256491)
(5.08342 0.0136662 0.00234307)
(5.07722 0.00142692 0.00246933)
(5.05849 -0.0106673 0.00232687)
(5.03409 -0.0227894 0.00239682)
(5.00896 -0.0329465 0.00231555)
(4.98531 -0.0397769 0.0023505)
(4.96531 -0.0446199 0.00231636)
(4.94839 -0.0462125 0.00232758)
(4.93224 -0.049856 0.00232681)
(4.92456 -0.0476151 0.0023216)
(4.90872 -0.0545702 0.00234669)
(4.91475 -0.0458221 0.00232278)
(4.88844 -0.0586312 0.00238962)
(4.9202 -0.0479624 0.00237191)
(4.54283 0.0845333 0.00135425)
(4.70677 0.12161 0.00166585)
(4.85584 0.130614 0.00114671)
(4.98484 0.112176 0.00147706)
(5.06194 0.0966551 0.00115362)
(5.12208 0.0882532 0.00136527)
(5.16268 0.0849759 0.00114609)
(5.19578 0.0822097 0.00127402)
(5.2152 0.0774744 0.00113502)
(5.22303 0.0715712 0.00120669)
(5.22255 0.066043 0.00112788)
(5.2152 0.0628296 0.00116268)
(5.20749 0.060476 0.00112788)
(5.19667 0.0607619 0.00113938)
(5.18883 0.0581252 0.00113775)
(5.17958 0.0614162 0.00113281)
(5.17591 0.0538787 0.00115434)
(5.16773 0.064794 0.00113684)
(5.17207 0.0469249 0.00115814)
(5.15803 0.0678842 0.00116373)
(4.53835 0.0799881 0.00223668)
(4.68073 0.0914558 0.00263753)
(4.8249 0.0839019 0.00213429)
(4.95176 0.0544625 0.00247067)
(5.03364 0.0292014 0.00214378)
(5.10219 0.011254 0.00235488)
(5.15335 3.54705e-05 0.00213353)
(5.19915 -0.00877001 0.00226098)
(5.23351 -0.0174235 0.00212074)
(5.2564 -0.0260816 0.00219261)
(5.27059 -0.0338807 0.00211253)
(5.27488 -0.0392407 0.00214717)
(5.27861 -0.0436104 0.00211245)
(5.27451 -0.0450244 0.00212314)
(5.27678 -0.0488822 0.00212223)
(5.26744 -0.0471052 0.00211619)
(5.27664 -0.0540698 0.00214016)
(5.25614 -0.0465968 0.00211803)
(5.28566 -0.0583836 0.00217878)
(5.23533 -0.0472535 0.0021664)
(4.5389 0.0500237 0.00152785)
(4.67646 0.0763184 0.00187733)
(4.81435 0.0865616 0.00136774)
(4.93817 0.0788018 0.0016919)
(5.01956 0.0722987 0.00136378)
(5.08865 0.0693993 0.00157345)
(5.14075 0.0691884 0.00135198)
(5.18828 0.0690277 0.00147903)
(5.22586 0.0674618 0.00134007)
(5.25328 0.0649864 0.00141248)
(5.27332 0.0624757 0.00133357)
(5.28344 0.0612067 0.0013676)
(5.29357 0.0602079 0.00133196)
(5.29463 0.0608243 0.00134259)
(5.303 0.0591497 0.00134075)
(5.2968 0.0614812 0.00133589)
(5.31164 0.0560334 0.00135702)
(5.29095 0.0636123 0.00134024)
(5.32728 0.0508574 0.00136449)
(5.27315 0.0678908 0.00136898)
(4.53624 0.0442611 0.00203927)
(4.66192 0.0467534 0.0024386)
(4.79813 0.0399467 0.00193906)
(4.92044 0.0203986 0.00227049)
(5.0025 0.00350891 0.00194267)
(5.07283 -0.00908129 0.00215391)
(5.12626 -0.0175163 0.00193244)
(5.17486 -0.0240413 0.00206005)
(5.21384 -0.0300561 0.00192095)
(5.24303 -0.0356818 0.00199408)
(5.26575 -0.0407303 0.00191517)
(5.2786 -0.044208 0.00194974)
(5.29241 -0.0471625 0.00191474)
(5.29638 -0.0481784 0.00192537)
(5.30926 -0.0507829 0.00192471)
(5.30475 -0.0498718 0.00191881)
(5.32492 -0.0542247 0.00194237)
(5.30246 -0.0502424 0.00192123)
(5.34589 -0.056369 0.00197328)
(5.28552 -0.0519389 0.00196335)
(4.53642 0.0185086 0.00169453)
(4.65978 0.0348008 0.00207028)
(4.79328 0.0442367 0.00156743)
(4.91429 0.0458331 0.00189109)
(4.99592 0.0472929 0.00156151)
(5.06594 0.0495518 0.00177115)
(5.11898 0.052215 0.00154908)
(5.16711 0.0542774 0.00167602)
(5.20581 0.0553027 0.0015369)
(5.23504 0.0556203 0.00160956)
(5.2583 0.0557417 0.0015305)
(5.27203 0.056159 0.00156432)
(5.28713 0.0565816 0.00152846)
(5.29268 0.0574362 0.00153884)
(5.30744 0.0572375 0.00153733)
(5.30493 0.058546 0.0015324)
(5.32683 0.056301 0.0015537)
(5.30633 0.0600859 0.00153675)
(5.35046 0.0537684 0.00156777)
(5.29365 0.0641516 0.00156751)
(4.53558 0.0122001 0.00186154)
(4.6551 0.00546182 0.00225254)
(4.78806 -0.00240989 0.001753)
(4.90856 -0.0129003 0.00207981)
(4.99036 -0.0220167 0.00175081)
(5.06068 -0.0294162 0.00196141)
(5.11402 -0.0349898 0.00173965)
(5.16228 -0.0392885 0.00186704)
(5.2011 -0.042826 0.00172804)