/*--------------------------------*- C++ -*----------------------------------*\
  =========                 |
  \\      /  F ield         | OpenFOAM: The Open Source CFD Toolbox
   \\    /   O peration     | Website:  https://openfoam.org
    \\  /    A nd           | Version:  7
     \\/     M anipulation  |
\*---------------------------------------------------------------------------*/
FoamFile
{
    version     2.0;
    format      ascii;
    class       volVectorField;
    location    "0.835";
    object      UMean;
}
// * * * * * * * * * * * * * * * * * * * * * * * * * * * * * * * * * * * * * //

dimensions      [0 1 -1 0 0 0 0];

internalField   nonuniform List<vector> 
1600
(
(0.0637318 0.0468312 0)
(0.0265146 0.0107972 0)
(0.0130617 0.00273407 0)
(0.0065416 0.000650285 0)
(0.00318335 6.80499e-05 0)
(0.00144483 -8.1224e-05 0)
(0.00050333 -0.0001073 0)
(-2.84774e-05 -9.84259e-05 0)
(-0.000334635 -8.14396e-05 0)
(-0.000509395 -6.48715e-05 0)
(-0.000603483 -5.11916e-05 0)
(-0.00064534 -4.05326e-05 0)
(-0.000651788 -3.25348e-05 0)
(-0.000633268 -2.65844e-05 0)
(-0.000596377 -2.21345e-05 0)
(-0.000545498 -1.87932e-05 0)
(-0.000483644 -1.62483e-05 0)
(-0.000412913 -1.42828e-05 0)
(-0.00033486 -1.27556e-05 0)
(-0.000250712 -1.15659e-05 0)
(-0.000161431 -1.06225e-05 0)
(-6.78235e-05 -9.8694e-06 0)
(2.93868e-05 -9.26293e-06 0)
(0.000129565 -8.75907e-06 0)
(0.000232116 -8.33231e-06 0)
(0.000336468 -7.95114e-06 0)
(0.000442076 -7.59664e-06 0)
(0.000548404 -7.25363e-06 0)
(0.000654924 -6.90818e-06 0)
(0.000761134 -6.5459e-06 0)
(0.000866578 -6.15993e-06 0)
(0.00097087 -5.75303e-06 0)
(0.00107378 -5.34668e-06 0)
(0.00117536 -4.98687e-06 0)
(0.00127636 -4.80721e-06 0)
(0.00137871 -5.23723e-06 0)
(0.00148874 -8.18736e-06 0)
(0.001594 -1.04046e-05 0)
(0.0017454 -1.29106e-05 0)
(0.00200542 -2.04198e-06 0)
(0.0922518 0.0707666 0)
(0.0633147 0.0376246 0)
(0.0417354 0.0194042 0)
(0.0270443 0.0100272 0)
(0.0175813 0.00533486 0)
(0.0115484 0.00295645 0)
(0.00763891 0.00170526 0)
(0.00505785 0.00101577 0)
(0.00332804 0.000616571 0)
(0.00215681 0.000373698 0)
(0.00136219 0.000218757 0)
(0.000828942 0.000115541 0)
(0.000482004 4.39965e-05 0)
(0.000271296 -7.35501e-06 0)
(0.000162555 -4.53766e-05 0)
(0.000131807 -7.44302e-05 0)
(0.000161919 -9.72783e-05 0)
(0.000240391 -0.000115692 0)
(0.000357869 -0.000130832 0)
(0.000507169 -0.000143414 0)
(0.000682683 -0.000153895 0)
(0.000879874 -0.000162623 0)
(0.00109499 -0.000169838 0)
(0.00132486 -0.000175693 0)
(0.00156675 -0.000180305 0)
(0.00181821 -0.000183746 0)
(0.00207704 -0.000186069 0)
(0.00234122 -0.000187322 0)
(0.00260889 -0.000187557 0)
(0.00287832 -0.000186846 0)
(0.00314798 -0.000185313 0)
(0.00341652 -0.000183198 0)
(0.00368292 -0.000180907 0)
(0.00394663 -0.000179208 0)
(0.00420784 -0.00017942 0)
(0.0044678 -0.000183875 0)
(0.00473244 -0.000196041 0)
(0.00497474 -0.000222419 0)
(0.00526593 -0.000251836 0)
(0.00568683 -0.00028015 0)
(0.0986389 0.0861888 0)
(0.0818857 0.0594519 0)
(0.0634902 0.0385114 0)
(0.047243 0.024317 0)
(0.0345945 0.0153424 0)
(0.0252984 0.00980466 0)
(0.0185964 0.00638259 0)
(0.0137861 0.00423231 0)
(0.0103288 0.00284712 0)
(0.00783631 0.00192925 0)
(0.00603672 0.00130354 0)
(0.0047413 0.000865063 0)
(0.0038183 0.000549672 0)
(0.00317482 0.000317176 0)
(0.00274454 0.000141859 0)
(0.00247946 6.93408e-06 0)
(0.00234442 -9.8831e-05 0)
(0.00231324 -0.00018315 0)
(0.002366 -0.00025149 0)
(0.00248725 -0.000307635 0)
(0.00266477 -0.00035407 0)
(0.00288869 -0.00039252 0)
(0.00315098 -0.000424244 0)
(0.00344495 -0.000450194 0)
(0.00376492 -0.000471087 0)
(0.00410597 -0.000487455 0)
(0.00446376 -0.000499703 0)
(0.00483442 -0.000508165 0)
(0.00521444 -0.000513148 0)
(0.00560066 -0.000514974 0)
(0.00599016 -0.000514041 0)
(0.00638037 -0.000510931 0)
(0.00676901 -0.000506513 0)
(0.0071542 -0.000502199 0)
(0.00753453 -0.000500154 0)
(0.00790913 -0.000503481 0)
(0.0082767 -0.000516215 0)
(0.00862029 -0.000547074 0)
(0.00898252 -0.000570763 0)
(0.0094841 -0.000621274 0)
(0.100053 0.0924829 0)
(0.0910983 0.0733855 0)
(0.0779369 0.0544845 0)
(0.0636874 0.0389056 0)
(0.0507066 0.027266 0)
(0.0399181 0.0190075 0)
(0.0313611 0.013289 0)
(0.0247378 0.00935365 0)
(0.0196756 0.00663015 0)
(0.0158311 0.00472155 0)
(0.0129224 0.00336215 0)
(0.0107305 0.0023763 0)
(0.00908994 0.00164793 0)
(0.00787622 0.00109978 0)
(0.00699619 0.000679905 0)
(0.00637956 0.000352978 0)
(0.00597289 9.46368e-05 0)
(0.00573508 -0.000112147 0)
(0.00563441 -0.000279537 0)
(0.00564629 -0.00041643 0)
(0.00575116 -0.000529419 0)
(0.00593299 -0.000623056 0)
(0.00617858 -0.000700517 0)
(0.00647696 -0.000764217 0)
(0.00681897 -0.000816038 0)
(0.00719674 -0.000857437 0)
(0.00760344 -0.000889547 0)
(0.00803305 -0.000913283 0)
(0.0084802 -0.000929424 0)
(0.00894003 -0.000938698 0)
(0.00940814 -0.00094187 0)
(0.00988049 -0.000939848 0)
(0.0103533 -0.000933851 0)
(0.0108231 -0.000925568 0)
(0.0112866 -0.000917394 0)
(0.0117403 -0.000912452 0)
(0.0121787 -0.00091463 0)
(0.0125907 -0.000928539 0)
(0.0130031 -0.000941891 0)
(0.0135579 -0.000966933 0)
(0.100239 0.0950391 0)
(0.0955227 0.0817232 0)
(0.0869035 0.0662866 0)
(0.0758425 0.0515716 0)
(0.0643104 0.0390605 0)
(0.0536161 0.0291315 0)
(0.0443475 0.0215701 0)
(0.0366378 0.015939 0)
(0.0303873 0.0117829 0)
(0.0254002 0.00871553 0)
(0.0214628 0.00643824 0)
(0.0183788 0.00473137 0)
(0.0159818 0.00343707 0)
(0.0141362 0.00244315 0)
(0.012734 0.00166992 0)
(0.0116895 0.00106059 0)
(0.0109353 0.000574545 0)
(0.010418 0.000182577 0)
(0.0100949 -0.000136367 0)
(0.00993182 -0.000397689 0)
(0.00990158 -0.000613109 0)
(0.00998224 -0.000791704 0)
(0.0101554 -0.000939962 0)
(0.0104056 -0.00106251 0)
(0.0107197 -0.00116298 0)
(0.0110866 -0.00124425 0)
(0.0114969 -0.00130862 0)
(0.0119421 -0.00135793 0)
(0.012415 -0.0013937 0)
(0.0129088 -0.00141726 0)
(0.0134176 -0.00142984 0)
(0.0139357 -0.00143273 0)
(0.014458 -0.0014274 0)
(0.0149792 -0.00141566 0)
(0.0154944 -0.00139977 0)
(0.015998 -0.00138253 0)
(0.0164823 -0.0013672 0)
(0.0169372 -0.00135696 0)
(0.0173857 -0.00134867 0)
(0.0179746 -0.00134516 0)
(0.10048 0.0970272 0)
(0.0978649 0.086879 0)
(0.0924376 0.0745396 0)
(0.0844293 0.0616176 0)
(0.0750582 0.0494998 0)
(0.0654844 0.0389672 0)
(0.0564836 0.0302706 0)
(0.0484685 0.023325 0)
(0.041588 0.0178868 0)
(0.0358272 0.0136708 0)
(0.031087 0.0104117 0)
(0.0272364 0.00788715 0)
(0.0241414 0.00592105 0)
(0.0216787 0.00437853 0)
(0.0197415 0.00315793 0)
(0.0182395 0.00218326 0)
(0.0170981 0.00139788 0)
(0.016256 0.0007595 0)
(0.0156628 0.00023656 0)
(0.0152771 -0.000194464 0)
(0.0150646 -0.000551095 0)
(0.0149971 -0.000847004 0)
(0.015052 -0.00109319 0)
(0.0152096 -0.00129774 0)
(0.0154529 -0.0014666 0)
(0.0157677 -0.00160452 0)
(0.0161417 -0.00171537 0)
(0.0165641 -0.00180226 0)
(0.0170256 -0.00186774 0)
(0.0175177 -0.00191394 0)
(0.0180328 -0.00194274 0)
(0.0185639 -0.00195587 0)
(0.0191042 -0.00195504 0)
(0.0196474 -0.00194206 0)
(0.0201868 -0.00191896 0)
(0.0207157 -0.0018881 0)
(0.0212247 -0.00185224 0)
(0.0217037 -0.00181442 0)
(0.0221738 -0.00177639 0)
(0.0227845 -0.00174613 0)
(0.100273 0.0973359 0)
(0.099022 0.0897381 0)
(0.0957977 0.0800089 0)
(0.0903092 0.0690935 0)
(0.0831732 0.0580569 0)
(0.0752177 0.0477302 0)
(0.0671572 0.0385996 0)
(0.0595023 0.030845 0)
(0.0525579 0.0244369 0)
(0.046462 0.0192334 0)
(0.0412371 0.0150499 0)
(0.0368382 0.011701 0)
(0.0331869 0.00902099 0)
(0.0301929 0.00687079 0)
(0.0277667 0.005138 0)
(0.0258255 0.00373379 0)
(0.0242964 0.00258892 0)
(0.023116 0.00164974 0)
(0.0222305 0.000874794 0)
(0.0215945 0.000232061 0)
(0.0211692 -0.000303007 0)
(0.0209217 -0.000749033 0)
(0.0208246 -0.00112097 0)
(0.0208551 -0.00143119 0)
(0.0209934 -0.00168893 0)
(0.0212222 -0.0019012 0)
(0.0215265 -0.00207373 0)
(0.0218933 -0.00221124 0)
(0.0223115 -0.00231758 0)
(0.0227707 -0.00239593 0)
(0.023262 -0.00244896 0)
(0.023777 -0.00247895 0)
(0.0243077 -0.00248795 0)
(0.0248467 -0.00247782 0)
(0.0253864 -0.00245037 0)
(0.025919 -0.00240756 0)
(0.0264346 -0.00235172 0)
(0.0269227 -0.00228604 0)
(0.0274021 -0.00221542 0)
(0.0280251 -0.00215676 0)
(0.100204 0.0971545 0)
(0.099558 0.0912259 0)
(0.097755 0.0834562 0)
(0.0941993 0.0743622 0)
(0.0890716 0.0646528 0)
(0.0828614 0.0550248 0)
(0.0761078 0.0460136 0)
(0.0692875 0.0379416 0)
(0.0627605 0.0309405 0)
(0.056758 0.0250056 0)
(0.0514003 0.0200517 0)
(0.0467262 0.0159564 0)
(0.0427212 0.0125882 0)
(0.0393403 0.00982301 0)
(0.036524 0.00755145 0)
(0.034208 0.00568122 0)
(0.0323297 0.00413641 0)
(0.0308308 0.00285562 0)
(0.029659 0.00178971 0)
(0.0287683 0.00089954 0)
(0.0281185 0.000154004 0)
(0.0276748 -0.000471401 0)
(0.0274065 -0.000995644 0)
(0.0272878 -0.00143439 0)
(0.0272971 -0.0018008 0)
(0.0274148 -0.00210482 0)
(0.0276238 -0.00235429 0)
(0.0279093 -0.00255573 0)
(0.0282582 -0.00271452 0)
(0.028659 -0.0028351 0)
(0.0291013 -0.00292111 0)
(0.0295755 -0.00297557 0)
(0.0300729 -0.00300097 0)
(0.0305852 -0.00299938 0)
(0.0311043 -0.00297253 0)
(0.0316219 -0.00292207 0)
(0.032128 -0.00285005 0)
(0.032612 -0.00275974 0)
(0.0330898 -0.00265815 0)
(0.0337163 -0.00257078 0)
(0.100581 0.0971985 0)
(0.0998863 0.0920351 0)
(0.0988785 0.0855389 0)
(0.0967035 0.0778876 0)
(0.0932251 0.06946 0)
(0.0886531 0.060746 0)
(0.083325 0.0522135 0)
(0.0776112 0.0442197 0)
(0.0718484 0.0369856 0)
(0.0662992 0.0306092 0)
(0.0611417 0.025097 0)
(0.0564787 0.0203969 0)
(0.052354 0.0164257 0)
(0.0487703 0.0130892 0)
(0.0457041 0.0102937 0)
(0.0431172 0.00795342 0)
(0.0409643 0.00599319 0)
(0.0391985 0.00434893 0)
(0.0377743 0.00296719 0)
(0.0366492 0.00180394 0)
(0.0357846 0.000823148 0)
(0.0351459 -4.58806e-06 0)
(0.0347024 -0.00070293 0)
(0.0344265 -0.00129054 0)
(0.0342946 -0.00178345 0)
(0.0342865 -0.00219504 0)
(0.0343839 -0.00253564 0)
(0.0345703 -0.00281367 0)
(0.0348314 -0.00303617 0)
(0.0351545 -0.00320899 0)
(0.0355283 -0.00333692 0)
(0.0359424 -0.00342388 0)
(0.0363875 -0.003473 0)
(0.0368547 -0.00348672 0)
(0.0373356 -0.00346692 0)
(0.0378222 -0.00341516 0)
(0.0383045 -0.00333326 0)
(0.0387724 -0.00322444 0)
(0.0392384 -0.00309685 0)
(0.0398597 -0.00298274 0)
(0.100235 0.0980724 0)
(0.0997881 0.0926677 0)
(0.0994097 0.0867719 0)
(0.0982506 0.0801148 0)
(0.09607 0.0727609 0)
(0.0929158 0.0649765 0)
(0.08896 0.0571012 0)
(0.0844487 0.0494534 0)
(0.0796512 0.0422784 0)
(0.0748129 0.0357323 0)
(0.0701294 0.0298897 0)
(0.0657394 0.0247611 0)
(0.0617294 0.0203144 0)
(0.0581428 0.0164923 0)
(0.0549916 0.0132259 0)
(0.0522658 0.0104443 0)
(0.0499418 0.00808023 0)
(0.0479885 0.00607241 0)
(0.0463714 0.00436731 0)
(0.0450554 0.00291893 0)
(0.0440066 0.0016884 0)
(0.0431933 0.000643095 0)
(0.0425864 -0.000244207 0)
(0.0421593 -0.000995789 0)
(0.0418876 -0.00162968 0)
(0.0417507 -0.00216191 0)
(0.0417301 -0.00260562 0)
(0.0418089 -0.00297124 0)
(0.0419718 -0.00326752 0)
(0.0422056 -0.00350178 0)
(0.0424982 -0.0036801 0)
(0.042839 -0.0038074 0)
(0.043218 -0.00388766 0)
(0.0436264 -0.00392391 0)
(0.0440558 -0.0039184 0)
(0.0444983 -0.00387284 0)
(0.0449449 -0.00378897 0)
(0.045386 -0.00366982 0)
(0.0458308 -0.00352373 0)
(0.0464385 -0.00338714 0)
(0.0998224 0.0975109 0)
(0.0997137 0.092549 0)
(0.0997524 0.0872257 0)
(0.0992666 0.0813282 0)
(0.0980321 0.0748425 0)
(0.0960136 0.0679009 0)
(0.0932629 0.0607258 0)
(0.0899123 0.0535672 0)
(0.086147 0.0466523 0)
(0.0821651 0.0401558 0)
(0.0781469 0.0341913 0)
(0.0742394 0.0288157 0)
(0.070551 0.0240408 0)
(0.0671534 0.019846 0)
(0.064087 0.016191 0)
(0.0613679 0.0130251 0)
(0.0589945 0.0102941 0)
(0.0569533 0.00794462 0)
(0.0552234 0.0059271 0)
(0.05378 0.00419688 0)
(0.0525965 0.00271466 0)
(0.0516465 0.00144642 0)
(0.0509043 0.000363002 0)
(0.0503461 -0.000560491 0)
(0.049949 -0.0013446 0)
(0.0496925 -0.00200665 0)
(0.0495587 -0.00256219 0)
(0.0495311 -0.0030238 0)
(0.0495945 -0.00340187 0)
(0.0497355 -0.0037052 0)
(0.0499418 -0.00394115 0)
(0.0502026 -0.00411581 0)
(0.050508 -0.00423409 0)
(0.0508493 -0.0042998 0)
(0.0512183 -0.00431581 0)
(0.0516078 -0.00428423 0)
(0.0520094 -0.00420694 0)
(0.0524152 -0.00408676 0)
(0.0528307 -0.00393143 0)
(0.0534167 -0.0037787 0)
(0.100657 0.0975183 0)
(0.100349 0.0925064 0)
(0.100346 0.0873928 0)
(0.100129 0.0819357 0)
(0.0994795 0.0760556 0)
(0.0982889 0.0697847 0)
(0.0965145 0.0632444 0)
(0.0941915 0.0566076 0)
(0.0914209 0.0500584 0)
(0.0883389 0.0437604 0)
(0.0850899 0.0378393 0)
(0.0818066 0.0323783 0)
(0.0786001 0.0274203 0)
(0.0755549 0.0229759 0)
(0.0727298 0.0190316 0)
(0.0701605 0.0155582 0)
(0.0678645 0.0125175 0)
(0.0658451 0.00986762 0)
(0.0640957 0.00756611 0)
(0.0626028 0.0055726 0)
(0.0613491 0.00384986 0)
(0.0603149 0.00236441 0)
(0.05948 0.00108669 0)
(0.0588242 -9.25098e-06 0)
(0.058328 -0.000945877 0)
(0.0579727 -0.00174185 0)
(0.0577413 -0.00241381 0)
(0.0576186 -0.00297633 0)
(0.0575904 -0.00344136 0)
(0.0576434 -0.00381906 0)
(0.057766 -0.00411805 0)
(0.0579474 -0.00434556 0)
(0.0581783 -0.00450751 0)
(0.0584501 -0.00460867 0)
(0.0587553 -0.00465269 0)
(0.0590872 -0.00464233 0)
(0.0594385 -0.00457985 0)
(0.059803 -0.00446802 0)
(0.060183 -0.00431352 0)
(0.0607403 -0.00415267 0)
(0.100834 0.0974998 0)
(0.100645 0.0925802 0)
(0.100755 0.0874902 0)
(0.100768 0.0822176 0)
(0.100534 0.0766916 0)
(0.0999534 0.0708887 0)
(0.0989468 0.0648555 0)
(0.0974892 0.0586942 0)
(0.0956149 0.0525361 0)
(0.0934015 0.0465152 0)
(0.0909492 0.0407491 0)
(0.0883636 0.0353286 0)
(0.0857434 0.0303139 0)
(0.0831724 0.025737 0)
(0.0807166 0.0216061 0)
(0.0784235 0.0179116 0)
(0.0763241 0.0146316 0)
(0.0744355 0.0117367 0)
(0.0727636 0.0091939 0)
(0.0713064 0.00696913 0)
(0.0700559 0.0050293 0)
(0.0690004 0.00334327 0)
(0.0681258 0.00188255 0)
(0.067417 0.000621428 0)
(0.0668587 -0.000463009 0)
(0.0664354 -0.00139079 0)
(0.0661319 -0.00217896 0)
(0.0659347 -0.00284321 0)
(0.0658314 -0.00339691 0)
(0.0658097 -0.00385137 0)
(0.0658588 -0.00421633 0)
(0.0659688 -0.0045001 0)
(0.0661308 -0.00470964 0)
(0.0663369 -0.00485067 0)
(0.0665802 -0.00492779 0)
(0.066855 -0.0049446 0)
(0.067155 -0.00490402 0)
(0.0674756 -0.00480903 0)
(0.0678166 -0.00466521 0)
(0.0683397 -0.00450521 0)
(0.100675 0.0972578 0)
(0.10054 0.0924194 0)
(0.100844 0.0873687 0)
(0.101119 0.0821978 0)
(0.101238 0.0768805 0)
(0.101136 0.0713892 0)
(0.100738 0.065734 0)
(0.0999932 0.0599675 0)
(0.0988939 0.054174 0)
(0.0974722 0.048453 0)
(0.0957876 0.0429026 0)
(0.0939143 0.0376078 0)
(0.0919301 0.0326339 0)
(0.0899085 0.0280242 0)
(0.0879132 0.0238017 0)
(0.0859953 0.019972 0)
(0.0841931 0.0165275 0)
(0.0825327 0.0134509 0)
(0.0810302 0.0107189 0)
(0.0796928 0.00830496 0)
(0.0785213 0.00618146 0)
(0.0775119 0.00432096 0)
(0.076657 0.00269729 0)
(0.0759472 0.00128608 0)
(0.0753714 6.50183e-05 0)
(0.0749184 -0.000986138 0)
(0.0745761 -0.00188499 0)
(0.0743331 -0.00264738 0)
(0.0741788 -0.00328758 0)
(0.0741029 -0.00381785 0)
(0.0740959 -0.00424884 0)
(0.0741489 -0.00458977 0)
(0.074254 -0.00484855 0)
(0.0744041 -0.00503186 0)
(0.0745932 -0.00514527 0)
(0.0748163 -0.00519336 0)
(0.0750684 -0.00517992 0)
(0.0753466 -0.00510851 0)
(0.0756481 -0.0049839 0)
(0.076134 -0.00483372 0)
(0.100125 0.0972714 0)
(0.100147 0.0920818 0)
(0.100695 0.0869842 0)
(0.101238 0.0818668 0)
(0.101667 0.076681 0)
(0.101953 0.0713993 0)
(0.102041 0.0660178 0)
(0.101875 0.0605613 0)
(0.101427 0.0550808 0)
(0.100699 0.0496454 0)
(0.0997169 0.0443308 0)
(0.0985262 0.0392092 0)
(0.0971814 0.0343418 0)
(0.0957403 0.0297754 0)
(0.0942574 0.0255406 0)
(0.092781 0.0216531 0)
(0.0913506 0.0181158 0)
(0.0899969 0.0149218 0)
(0.0887419 0.0120568 0)
(0.0875999 0.00950164 0)
(0.0865788 0.00723463 0)
(0.0856814 0.00523281 0)
(0.0849064 0.00347322 0)
(0.0842498 0.00193369 0)
(0.0837055 0.000593285 0)
(0.0832661 -0.000567436 0)
(0.0829233 -0.00156619 0)
(0.0826685 -0.00241862 0)
(0.0824934 -0.00313923 0)
(0.0823897 -0.00374089 0)
(0.0823497 -0.00423485 0)
(0.0823659 -0.00463106 0)
(0.0824315 -0.00493821 0)
(0.0825407 -0.00516384 0)
(0.0826882 -0.00531448 0)
(0.08287 -0.0053957 0)
(0.0830819 -0.00541233 0)
(0.0833229 -0.0053688 0)
(0.0835879 -0.00526966 0)
(0.0840362 -0.00513719 0)
(0.100263 0.0969886 0)
(0.100226 0.0916266 0)
(0.100743 0.0864441 0)
(0.101364 0.0813147 0)
(0.101976 0.0761848 0)
(0.102542 0.0710264 0)
(0.103002 0.0658284 0)
(0.103295 0.0605999 0)
(0.103381 0.05537 0)
(0.103241 0.0501838 0)
(0.102878 0.0450964 0)
(0.102311 0.0401645 0)
(0.101575 0.0354408 0)
(0.100708 0.030969 0)
(0.0997541 0.0267817 0)
(0.0987524 0.0228997 0)
(0.09774 0.0193326 0)
(0.0967474 0.016081 0)
(0.0957993 0.0131379 0)
(0.0949138 0.0104907 0)
(0.0941039 0.00812326 0)
(0.0933773 0.0060173 0)
(0.0927381 0.00415343 0)
(0.0921871 0.00251218 0)
(0.0917226 0.00107456 0)
(0.0913414 -0.000177499 0)
(0.0910387 -0.00126099 0)
(0.090809 -0.00219129 0)
(0.0906465 -0.00298256 0)
(0.0905453 -0.00364782 0)
(0.0904995 -0.00419866 0)
(0.0905032 -0.00464547 0)
(0.0905512 -0.0049975 0)
(0.0906386 -0.00526302 0)
(0.0907613 -0.00544936 0)
(0.090916 -0.00556308 0)
(0.0910995 -0.00561006 0)
(0.0913122 -0.00559586 0)
(0.0915467 -0.00552541 0)
(0.0919601 -0.00541636 0)
(0.100377 0.096635 0)
(0.100315 0.0912081 0)
(0.100824 0.0858823 0)
(0.101492 0.0806561 0)
(0.102228 0.075496 0)
(0.102995 0.0703743 0)
(0.103737 0.0652747 0)
(0.10439 0.0601956 0)
(0.104907 0.0551501 0)
(0.105256 0.0501653 0)
(0.105423 0.0452782 0)
(0.105409 0.0405305 0)
(0.105228 0.0359639 0)
(0.104903 0.0316158 0)
(0.104464 0.0275163 0)
(0.103942 0.023687 0)
(0.103366 0.0201409 0)
(0.102765 0.016883 0)
(0.102161 0.0139113 0)
(0.101575 0.0112185 0)
(0.101023 0.00879313 0)
(0.100515 0.00662108 0)
(0.100058 0.00468651 0)
(0.099659 0.00297277 0)
(0.0993187 0.00146313 0)
(0.0990376 0.000141177 0)
(0.0988145 -0.00100881 0)
(0.0986468 -0.00200158 0)
(0.0985312 -0.0028507 0)
(0.0984641 -0.0035689 0)
(0.0984417 -0.00416779 0)
(0.0984598 -0.0046579 0)
(0.0985145 -0.00504885 0)
(0.0986023 -0.00534936 0)
(0.0987198 -0.00556744 0)
(0.0988648 -0.00571048 0)
(0.0990345 -0.00578537 0)
(0.0992307 -0.00579887 0)
(0.0994437 -0.00575683 0)
(0.0998276 -0.00567378 0)
(0.100814 0.0968199 0)
(0.100514 0.0910127 0)
(0.100949 0.0853944 0)
(0.101634 0.0799667 0)
(0.102455 0.0746874 0)
(0.103375 0.0695206 0)
(0.104336 0.0644423 0)
(0.105275 0.0594406 0)
(0.106139 0.0545161 0)
(0.106891 0.0496814 0)
(0.107504 0.0449585 0)
(0.107967 0.0403756 0)
(0.108278 0.035963 0)
(0.108448 0.0317497 0)
(0.108491 0.0277609 0)
(0.10843 0.0240162 0)
(0.108287 0.0205287 0)
(0.108084 0.0173051 0)
(0.107842 0.0143465 0)
(0.107581 0.011649 0)
(0.107315 0.00920462 0)
(0.107059 0.00700266 0)
(0.106822 0.00503035 0)
(0.106611 0.00327375 0)
(0.106432 0.00171834 0)
(0.106287 0.000349557 0)
(0.106179 -0.000846874 0)
(0.106107 -0.00188467 0)
(0.106071 -0.00277667 0)
(0.106069 -0.00353497 0)
(0.106099 -0.00417089 0)
(0.106159 -0.00469486 0)
(0.106245 -0.00511656 0)
(0.106357 -0.00544497 0)
(0.10649 -0.00568854 0)
(0.106645 -0.00585529 0)
(0.106817 -0.005953 0)
(0.107011 -0.00598954 0)
(0.107213 -0.00597198 0)
(0.107575 -0.00591356 0)
(0.100035 0.0968515 0)
(0.100123 0.0906399 0)
(0.100816 0.0847783 0)
(0.101671 0.0791597 0)
(0.102634 0.0737393 0)
(0.103709 0.0684867 0)
(0.104862 0.0633785 0)
(0.106039 0.0583992 0)
(0.107191 0.0535422 0)
(0.108277 0.0488102 0)
(0.109265 0.0442139 0)
(0.110135 0.0397697 0)
(0.110875 0.0354975 0)
(0.111483 0.0314179 0)
(0.111965 0.0275495 0)
(0.112333 0.023908 0)
(0.112601 0.0205043 0)
(0.112786 0.0173451 0)
(0.112906 0.0144323 0)
(0.112976 0.0117637 0)
(0.113012 0.00933369 0)
(0.113027 0.00713402 0)
(0.113032 0.00515433 0)
(0.113035 0.00338293 0)
(0.113045 0.00180733 0)
(0.113066 0.000414739 0)
(0.113102 -0.000807609 0)
(0.113155 -0.0018722 0)
(0.113227 -0.00279095 0)
(0.113318 -0.00357519 0)
(0.113427 -0.00423567 0)
(0.113554 -0.00478246 0)
(0.113697 -0.00522507 0)
(0.113854 -0.00557249 0)
(0.114025 -0.00583334 0)
(0.114208 -0.00601606 0)
(0.114401 -0.00612905 0)
(0.114606 -0.00618113 0)
(0.11481 -0.00618058 0)
(0.11516 -0.00614102 0)
(0.100699 0.0963771 0)
(0.100519 0.0900933 0)
(0.101052 0.0840541 0)
(0.101876 0.0782487 0)
(0.102895 0.0726683 0)
(0.104083 0.0672977 0)
(0.105392 0.0621197 0)
(0.106769 0.0571189 0)
(0.108162 0.0522853 0)
(0.10953 0.0476149 0)
(0.110836 0.0431096 0)
(0.112054 0.0387767 0)
(0.113164 0.0346269 0)
(0.114157 0.0306723 0)
(0.11503 0.0269248 0)
(0.115787 0.0233949 0)
(0.116435 0.0200904 0)
(0.116986 0.0170159 0)
(0.117453 0.0141728 0)
(0.117849 0.0115593 0)
(0.118187 0.0091708 0)
(0.118479 0.00700054 0)
(0.118737 0.00503982 0)
(0.11897 0.00327869 0)
(0.119187 0.00170637 0)
(0.119393 0.000311641 0)
(0.119595 -0.000916842 0)
(0.119796 -0.00199029 0)
(0.119999 -0.00291958 0)
(0.120206 -0.00371517 0)
(0.120417 -0.00438704 0)
(0.120634 -0.00494472 0)
(0.120855 -0.00539728 0)
(0.12108 -0.00575349 0)
(0.121308 -0.00602189 0)
(0.121537 -0.00621105 0)
(0.121766 -0.0063297 0)
(0.121998 -0.00638733 0)
(0.122215 -0.00639319 0)
(0.122564 -0.00636206 0)
(0.100433 0.0966702 0)
(0.100437 0.0898478 0)
(0.101114 0.083415 0)
(0.10205 0.0773173 0)
(0.103178 0.0715151 0)
(0.104494 0.0659811 0)
(0.105959 0.0606931 0)
(0.10752 0.0556328 0)
(0.10913 0.0507857 0)
(0.110746 0.0461422 0)
(0.112329 0.0416973 0)
(0.113848 0.0374505 0)
(0.115281 0.033404 0)
(0.116611 0.0295626 0)
(0.11783 0.0259313 0)
(0.118936 0.0225151 0)
(0.11993 0.0193176 0)
(0.120818 0.0163406 0)
(0.12161 0.0135837 0)
(0.122316 0.0110444 0)
(0.122947 0.00871833 0)
(0.123513 0.00659913 0)
(0.124026 0.00467913 0)
(0.124493 0.00294958 0)
(0.124926 0.001401 0)
(0.125329 2.34802e-05 0)
(0.125711 -0.00119306 0)
(0.126075 -0.00225859 0)
(0.126426 -0.00318296 0)
(0.126766 -0.00397562 0)
(0.127098 -0.00464572 0)
(0.127423 -0.00520203 0)
(0.12774 -0.00565302 0)
(0.128049 -0.00600699 0)
(0.128351 -0.00627215 0)
(0.128643 -0.00645689 0)
(0.128923 -0.00656994 0)
(0.129194 -0.00662104 0)
(0.129435 -0.00662007 0)
(0.129791 -0.00658244 0)
(0.100122 0.0960361 0)
(0.100274 0.0891708 0)
(0.101121 0.0825543 0)
(0.102212 0.0762327 0)
(0.103488 0.0702208 0)
(0.104958 0.0645129 0)
(0.106591 0.0590948 0)
(0.10834 0.0539502 0)
(0.110159 0.0490635 0)
(0.112005 0.0444212 0)
(0.11384 0.0400129 0)
(0.115631 0.0358313 0)
(0.117351 0.0318717 0)
(0.118981 0.0281318 0)
(0.120508 0.0246102 0)
(0.121925 0.0213062 0)
(0.12323 0.018219 0)
(0.124426 0.0153468 0)
(0.125518 0.0126869 0)
(0.126514 0.0102354 0)
(0.127422 0.00798702 0)
(0.128251 0.00593546 0)
(0.129012 0.0040734 0)
(0.129712 0.00239278 0)
(0.130361 0.000885028 0)
(0.130967 -0.000458727 0)
(0.131535 -0.00164745 0)
(0.132072 -0.00269003 0)
(0.132581 -0.00359524 0)
(0.133067 -0.00437158 0)
(0.133531 -0.00502721 0)
(0.133976 -0.00557007 0)
(0.134402 -0.00600786 0)
(0.134809 -0.00634817 0)
(0.135197 -0.00659864 0)
(0.135563 -0.00676716 0)
(0.135904 -0.00686213 0)
(0.136225 -0.00689305 0)
(0.136498 -0.00687004 0)
(0.136868 -0.00680677 0)
(0.100224 0.0960259 0)
(0.100385 0.0885588 0)
(0.101268 0.0815954 0)
(0.102455 0.0750058 0)
(0.10387 0.0687684 0)
(0.105505 0.0628741 0)
(0.107322 0.0573117 0)
(0.10927 0.0520667 0)
(0.111304 0.0471231 0)
(0.113378 0.0424648 0)
(0.115455 0.0380767 0)
(0.117499 0.0339457 0)
(0.119484 0.0300609 0)
(0.121386 0.0264132 0)
(0.123192 0.0229954 0)
(0.124891 0.0198013 0)
(0.126479 0.0168254 0)
(0.127955 0.0140623 0)
(0.129323 0.0115064 0)
(0.130586 0.00915187 0)
(0.131753 0.0069923 0)
(0.132832 0.00502075 0)
(0.13383 0.00322986 0)
(0.134756 0.00161188 0)
(0.135618 0.000158843 0)
(0.136424 -0.00113733 0)
(0.13718 -0.00228464 0)
(0.137891 -0.00329107 0)
(0.138563 -0.00416436 0)
(0.1392 -0.00491199 0)
(0.139803 -0.00554117 0)
(0.140375 -0.00605888 0)
(0.140917 -0.00647193 0)
(0.141428 -0.00678703 0)
(0.141908 -0.007011 0)
(0.142355 -0.00715095 0)
(0.142764 -0.00721457 0)
(0.143137 -0.00721056 0)
(0.143448 -0.00714904 0)
(0.143834 -0.00703747 0)
(0.100561 0.0953883 0)
(0.100671 0.0878655 0)
(0.101541 0.0805782 0)
(0.102798 0.0736721 0)
(0.104351 0.0671673 0)
(0.106163 0.0610577 0)
(0.108183 0.0553308 0)
(0.110351 0.0499706 0)
(0.112614 0.0449581 0)
(0.114927 0.0402733 0)
(0.117247 0.035896 0)
(0.119542 0.0318074 0)
(0.12178 0.0279902 0)
(0.123941 0.0244295 0)
(0.126006 0.0211121 0)
(0.127966 0.0180265 0)
(0.129814 0.0151627 0)
(0.131548 0.0125116 0)
(0.13317 0.0100646 0)
(0.134682 0.00781369 0)
(0.136091 0.00575099 0)
(0.137403 0.00386874 0)
(0.138626 0.00215921 0)
(0.139767 0.00061473 0)
(0.140834 -0.000772299 0)
(0.141834 -0.0020093 0)
(0.142773 -0.00310356 0)
(0.143657 -0.00406217 0)
(0.144489 -0.00489194 0)
(0.145275 -0.00559935 0)
(0.146016 -0.00619064 0)
(0.146715 -0.0066718 0)
(0.147371 -0.00704864 0)
(0.147986 -0.00732689 0)
(0.148557 -0.00751234 0)
(0.149082 -0.00761104 0)
(0.149557 -0.00762964 0)
(0.149983 -0.00757537 0)
(0.150329 -0.00745848 0)
(0.150726 -0.00727346 0)
(0.100248 0.0953365 0)
(0.100457 0.0872365 0)
(0.101563 0.0794893 0)
(0.103067 0.0722023 0)
(0.104858 0.0653872 0)
(0.106915 0.0590333 0)
(0.109187 0.0531237 0)
(0.111613 0.0476374 0)
(0.114137 0.0425497 0)
(0.11671 0.0378345 0)
(0.11929 0.0334655 0)
(0.121841 0.0294175 0)
(0.124335 0.0256669 0)
(0.126749 0.0221925 0)
(0.129066 0.0189756 0)
(0.131274 0.0159996 0)
(0.133368 0.0132499 0)
(0.135344 0.0107139 0)
(0.137203 0.00838007 0)
(0.138948 0.00623823 0)
(0.140584 0.00427895 0)
(0.142115 0.00249351 0)
(0.14355 0.000873736 0)
(0.144894 -0.000588131 0)
(0.146155 -0.00189938 0)
(0.147339 -0.00306698 0)
(0.148451 -0.00409761 0)
(0.149496 -0.00499754 0)
(0.15048 -0.00577268 0)
(0.151405 -0.00642862 0)
(0.152274 -0.00697064 0)
(0.153088 -0.00740375 0)
(0.153849 -0.00773275 0)
(0.154556 -0.00796228 0)
(0.155207 -0.00809699 0)
(0.1558 -0.00814163 0)
(0.156329 -0.00810154 0)
(0.156795 -0.00798179 0)
(0.157167 -0.00779325 0)
(0.15756 -0.00750867 0)
(0.0995815 0.0950855 0)
(0.100088 0.0862586 0)
(0.101502 0.0780724 0)
(0.103317 0.0704299 0)
(0.10542 0.0633163 0)
(0.107788 0.0567227 0)
(0.110371 0.0506329 0)
(0.113104 0.0450231 0)
(0.115929 0.039864 0)
(0.118796 0.0351235 0)
(0.12166 0.0307683 0)
(0.124486 0.0267663 0)
(0.127246 0.0230873 0)
(0.129919 0.019704 0)
(0.132487 0.0165919 0)
(0.13494 0.0137296 0)
(0.137273 0.0110984 0)
(0.139482 0.00868204 0)
(0.141568 0.00646651 0)
(0.143533 0.00443949 0)
(0.145382 0.00259014 0)
(0.147119 0.000908829 0)
(0.148751 -0.000613099 0)
(0.150283 -0.00198342 0)
(0.151721 -0.00320927 0)
(0.153071 -0.00429728 0)
(0.154339 -0.0052535 0)
(0.155528 -0.00608348 0)
(0.156642 -0.00679239 0)
(0.157685 -0.00738498 0)
(0.15866 -0.00786568 0)
(0.159567 -0.00823857 0)
(0.160408 -0.00850747 0)
(0.161182 -0.00867597 0)
(0.161887 -0.00874753 0)
(0.162523 -0.00872542 0)
(0.163082 -0.0086135 0)
(0.163564 -0.00841399 0)
(0.163943 -0.00813933 0)
(0.164306 -0.00773051 0)
(0.0998721 0.0941669 0)
(0.100316 0.085001 0)
(0.10179 0.0763875 0)
(0.103798 0.0683578 0)
(0.106187 0.0609239 0)
(0.108888 0.0540808 0)
(0.111821 0.0478101 0)
(0.114907 0.0420827 0)
(0.118076 0.0368621 0)
(0.121273 0.032108 0)
(0.124453 0.027779 0)
(0.12758 0.0238351 0)
(0.130625 0.020239 0)
(0.133569 0.0169567 0)
(0.136396 0.0139585 0)
(0.139098 0.011218 0)
(0.141669 0.00871283 0)
(0.144106 0.00642356 0)
(0.146411 0.00433373 0)
(0.148585 0.00242928 0)
(0.150633 0.000698111 0)
(0.152558 -0.00087012 0)
(0.154367 -0.00228439 0)
(0.156064 -0.00355262 0)
(0.157654 -0.00468186 0)
(0.159143 -0.00567833 0)
(0.160534 -0.00654757 0)
(0.161833 -0.00729459 0)
(0.163043 -0.00792392 0)
(0.164167 -0.00843967 0)
(0.165208 -0.00884551 0)
(0.166166 -0.00914479 0)
(0.167045 -0.00934046 0)
(0.167843 -0.00943514 0)
(0.168561 -0.00943113 0)
(0.169196 -0.00933023 0)
(0.169746 -0.00913475 0)
(0.170206 -0.00884337 0)
(0.17056 -0.00847149 0)
(0.170851 -0.0079185 0)
(0.100168 0.0939506 0)
(0.100599 0.0838989 0)
(0.102214 0.0745992 0)
(0.104482 0.0660403 0)
(0.10721 0.058208 0)
(0.110297 0.0510774 0)
(0.113635 0.0446132 0)
(0.117126 0.0387714 0)
(0.120689 0.0335015 0)
(0.124262 0.0287506 0)
(0.127795 0.0244663 0)
(0.131253 0.0205987 0)
(0.134609 0.0171026 0)
(0.137842 0.0139372 0)
(0.140941 0.0110671 0)
(0.143897 0.00846158 0)
(0.146705 0.0060946 0)
(0.149365 0.00394413 0)
(0.151877 0.00199163 0)
(0.154243 0.000221544 0)
(0.156467 -0.00137903 0)
(0.158553 -0.00282112 0)
(0.160505 -0.00411408 0)
(0.162328 -0.00526594 0)
(0.164028 -0.00628357 0)
(0.165607 -0.00717294 0)
(0.167072 -0.00793929 0)
(0.168425 -0.00858725 0)
(0.169672 -0.00912094 0)
(0.170815 -0.00954399 0)
(0.171859 -0.0098596 0)
(0.172805 -0.0100705 0)
(0.173656 -0.0101791 0)
(0.174415 -0.0101872 0)
(0.175082 -0.010096 0)
(0.175656 -0.00990594 0)
(0.176138 -0.0096179 0)
(0.17652 -0.00922662 0)
(0.176805 -0.0087517 0)
(0.176969 -0.00804366 0)
(0.100683 0.093853 0)
(0.101091 0.082766 0)
(0.102859 0.0726231 0)
(0.105438 0.0634172 0)
(0.108576 0.0551115 0)
(0.112123 0.0476544 0)
(0.115939 0.0409849 0)
(0.119903 0.0350349 0)
(0.12392 0.0297328 0)
(0.127921 0.0250078 0)
(0.131852 0.020793 0)
(0.135677 0.0170269 0)
(0.13937 0.0136548 0)
(0.142911 0.0106289 0)
(0.146291 0.00790821 0)
(0.149501 0.00545772 0)
(0.152539 0.00324827 0)
(0.155403 0.00125535 0)
(0.158095 -0.000541061 0)
(0.160618 -0.00215766 0)
(0.162974 -0.00360831 0)
(0.165167 -0.00490463 0)
(0.167203 -0.00605631 0)
(0.169086 -0.00707144 0)
(0.170821 -0.00795692 0)
(0.172412 -0.00871869 0)
(0.173867 -0.00936191 0)
(0.175188 -0.00989109 0)
(0.176383 -0.0103102 0)
(0.177455 -0.0106226 0)
(0.17841 -0.0108313 0)
(0.179252 -0.0109387 0)
(0.179986 -0.0109468 0)
(0.180617 -0.0108568 0)
(0.181148 -0.0106692 0)
(0.181581 -0.0103832 0)
(0.18192 -0.00999839 0)
(0.182157 -0.00950564 0)
(0.182316 -0.00892936 0)
(0.182287 -0.00806943 0)
(0.100321 0.093305 0)
(0.101135 0.0813084 0)
(0.103423 0.0702689 0)
(0.106579 0.0603453 0)
(0.110317 0.0515174 0)
(0.114471 0.0437127 0)
(0.118884 0.0368396 0)
(0.123418 0.0307993 0)
(0.127969 0.0254928 0)
(0.132462 0.0208268 0)
(0.13684 0.0167166 0)
(0.141068 0.0130872 0)
(0.145119 0.00987372 0)
(0.148975 0.00702064 0)
(0.152628 0.00448146 0)
(0.156071 0.00221703 0)
(0.159301 0.000195428 0)
(0.162321 -0.00160966 0)
(0.16513 -0.00322013 0)
(0.167734 -0.00465382 0)
(0.170136 -0.00592557 0)
(0.172341 -0.0070475 0)
(0.174356 -0.00802967 0)
(0.176187 -0.00888054 0)
(0.17784 -0.00960732 0)
(0.179323 -0.0102162 0)
(0.180643 -0.0107124 0)
(0.181808 -0.0111005 0)