/*--------------------------------*- C++ -*----------------------------------*\
  =========                 |
  \\      /  F ield         | OpenFOAM: The Open Source CFD Toolbox
   \\    /   O peration     | Website:  https://openfoam.org
    \\  /    A nd           | Version:  7
     \\/     M anipulation  |
\*---------------------------------------------------------------------------*/
FoamFile
{
    version     2.0;
    format      ascii;
    class       volScalarField;
    location    "1.6675";
    object      T;
}
// * * * * * * * * * * * * * * * * * * * * * * * * * * * * * * * * * * * * * //

dimensions      [0 0 0 1 0 0 0];

internalField   nonuniform List<scalar> 
7920
(
282.861
282.965
282.956
282.999
282.971
283.006
282.988
283.017
283.005
283.028
283.018
283.035
283.026
283.036
283.03
283.032
283.034
283.02
283.052
282.965
282.779
282.81
282.804
282.851
282.832
282.868
282.866
282.901
282.912
282.941
282.951
282.97
282.977
282.982
282.988
282.972
282.995
282.932
283.048
282.776
282.72
282.708
282.623
282.669
282.607
282.654
282.625
282.682
282.679
282.738
282.749
282.801
282.818
282.849
282.866
282.861
282.893
282.83
282.922
282.745
282.742
282.726
282.641
282.668
282.609
282.637
282.609
282.652
282.653
282.702
282.723
282.772
282.806
282.844
282.882
282.892
282.925
282.9
282.935
282.873
282.722
282.713
282.604
282.637
282.56
282.591
282.547
282.59
282.578
282.628
282.636
282.69
282.714
282.767
282.797
282.835
282.853
282.87
282.869
282.875
282.727
282.729
282.621
282.658
282.579
282.611
282.564
282.607
282.591
282.64
282.644
282.696
282.716
282.771
282.798
282.845
282.859
282.89
282.881
282.906
282.727
282.729
282.621
282.658
282.579
282.611
282.564
282.607
282.591
282.64
282.643
282.696
282.716
282.772
282.798
282.845
282.859
282.891
282.881
282.906
282.722
282.713
282.604
282.638
282.56
282.591
282.547
282.591
282.578
282.629
282.636
282.691
282.713
282.769
282.794
282.838
282.849
282.874
282.865
282.878
282.742
282.726
282.64
282.668
282.609
282.637
282.609
282.652
282.653
282.703
282.722
282.773
282.803
282.849
282.875
282.902
282.912
282.918
282.911
282.902
282.72
282.708
282.623
282.669
282.607
282.654
282.625
282.682
282.678
282.739
282.748
282.803
282.814
282.855
282.856
282.878
282.867
282.873
282.855
282.847
282.779
282.81
282.804
282.851
282.832
282.868
282.866
282.901
282.912
282.941
282.95
282.972
282.975
282.986
282.981
282.984
282.974
282.973
282.963
282.958
282.861
282.965
282.956
282.999
282.971
283.006
282.988
283.017
283.005
283.028
283.018
283.035
283.026
283.037
283.028
283.035
283.027
283.033
283.026
283.033
283.216
283.184
283.247
283.194
283.244
283.202
283.249
283.219
283.257
283.232
283.262
283.238
283.259
283.235
283.252
283.221
283.248
283.191
283.297
282.98
283.168
283.107
283.13
283.084
283.103
283.08
283.109
283.111
283.143
283.153
283.184
283.188
283.21
283.195
283.213
283.169
283.212
283.1
283.261
282.919
283.216
283.133
283.183
283.108
283.145
283.094
283.139
283.119
283.172
283.169
283.224
283.227
283.276
283.264
283.302
283.258
283.303
283.203
283.299
283.105
283.187
283.095
283.127
283.052
283.07
283.019
283.047
283.026
283.065
283.065
283.11
283.123
283.169
283.18
283.215
283.205
283.227
283.187
283.205
283.139
283.21
283.111
283.159
283.069
283.099
283.035
283.07
283.038
283.082
283.071
283.119
283.124
283.175
283.186
283.228
283.227
283.248
283.231
283.228
283.203
283.202
283.092
283.141
283.045
283.075
283.008
283.043
283.009
283.052
283.038
283.084
283.087
283.136
283.148
283.189
283.195
283.213
283.206
283.197
283.184
283.202
283.092
283.141
283.045
283.075
283.008
283.043
283.009
283.051
283.038
283.084
283.087
283.135
283.148
283.189
283.195
283.213
283.206
283.198
283.183
283.21
283.111
283.159
283.069
283.099
283.035
283.07
283.039
283.082
283.071
283.118
283.125
283.173
283.187
283.226
283.23
283.245
283.234
283.225
283.205
283.187
283.095
283.127
283.052
283.07
283.019
283.047
283.027
283.065
283.066
283.109
283.125
283.166
283.184
283.209
283.213
283.215
283.202
283.186
283.162
283.216
283.133
283.183
283.109
283.144
283.095
283.139
283.119
283.171
283.17
283.222
283.229
283.271
283.271
283.291
283.276
283.275
283.246
283.234
283.198
283.168
283.107
283.13
283.084
283.103
283.081
283.109
283.112
283.142
283.154
283.182
283.19
283.206
283.202
283.202
283.189
283.178
283.162
283.148
283.132
283.216
283.184
283.247
283.194
283.244
283.202
283.249
283.219
283.257
283.233
283.261
283.239
283.258
283.237
283.248
283.229
283.234
283.219
283.222
283.206
283.14
283.112
283.095
283.075
283.079
283.087
283.113
283.127
283.143
283.143
283.15
283.143
283.15
283.132
283.15
283.104
283.18
283.014
283.363
282.615
283.138
283.107
283.081
283.05
283.035
283.028
283.042
283.062
283.097
283.126
283.168
283.184
283.219
283.196
283.233
283.148
283.233
283.047
283.269
282.902
283.14
283.108
283.085
283.053
283.035
283.021
283.029
283.041
283.069
283.095
283.139
283.171
283.218
283.23
283.267
283.24
283.27
283.201
283.235
283.128
283.139
283.107
283.082
283.048
283.027
283.013
283.016
283.025
283.046
283.069
283.104
283.138
283.18
283.208
283.237
283.244
283.253
283.24
283.224
283.201
283.14
283.107
283.084
283.05
283.03
283.015
283.019
283.027
283.047
283.068
283.101
283.134
283.173
283.204
283.231
283.246
283.25
283.251
283.231
283.225
283.14
283.107
283.083
283.048
283.027
283.012
283.015
283.023
283.042
283.063
283.094
283.127
283.165
283.196
283.221
283.237
283.242
283.243
283.225
283.218
283.14
283.107
283.083
283.048
283.027
283.012
283.015
283.023
283.042
283.063
283.094
283.127
283.165
283.196
283.222
283.237
283.242
283.243
283.226
283.217
283.14
283.107
283.084
283.05
283.03
283.015
283.019
283.027
283.047
283.068
283.1
283.134
283.173
283.204
283.231
283.245
283.252
283.249
283.234
283.22
283.139
283.107
283.082
283.048
283.027
283.013
283.016
283.026
283.046
283.07
283.103
283.139
283.178
283.21
283.235
283.246
283.251
283.241
283.224
283.199
283.14
283.108
283.085
283.053
283.034
283.022
283.029
283.042
283.068
283.097
283.137
283.175
283.212
283.238
283.255
283.256
283.25
283.227
283.204
283.165
283.138
283.107
283.081
283.051
283.035
283.029
283.042
283.063
283.095
283.129
283.164
283.19
283.208
283.213
283.206
283.191
283.166
283.147
283.122
283.108
283.14
283.112
283.095
283.075
283.079
283.088
283.113
283.127
283.142
283.144
283.149
283.146
283.146
283.14
283.137
283.13
283.127
283.125
283.121
283.128
283.14
283.112
283.095
283.075
283.079
283.087
283.113
283.127
283.143
283.143
283.15
283.143
283.15
283.132
283.15
283.104
283.18
283.014
283.363
282.615
283.138
283.107
283.081
283.05
283.035
283.028
283.043
283.062
283.097
283.126
283.168
283.184
283.219
283.196
283.233
283.148
283.233
283.047
283.269
282.902
283.14
283.108
283.085
283.053
283.035
283.021
283.029
283.041
283.069
283.095
283.139
283.171
283.218
283.23
283.267
283.24
283.27
283.201
283.235
283.128
283.139
283.107
283.082
283.048
283.027
283.013
283.016
283.025
283.046
283.069
283.104
283.138
283.18
283.208
283.237
283.244
283.253
283.24
283.224
283.201
283.14
283.107
283.084
283.05
283.03
283.015
283.019
283.027
283.047
283.068
283.101
283.134
283.173
283.204
283.231
283.246
283.25
283.251
283.231
283.225
283.14
283.107
283.083
283.048
283.027
283.012
283.015
283.023
283.042
283.063
283.094
283.127
283.165
283.196
283.221
283.237
283.242
283.243
283.225
283.218
283.14
283.107
283.083
283.048
283.027
283.012
283.015
283.023
283.042
283.063
283.094
283.127
283.165
283.196
283.222
283.237
283.242
283.243
283.226
283.217
283.14
283.107
283.084
283.05
283.03
283.015
283.019
283.027
283.047
283.068
283.1
283.134
283.173
283.204
283.231
283.245
283.252
283.249
283.234
283.22
283.139
283.107
283.082
283.048
283.027
283.013
283.016
283.026
283.046
283.07
283.103
283.139
283.178
283.21
283.235
283.246
283.251
283.241
283.224
283.199
283.14
283.108
283.085
283.053
283.034
283.022
283.029
283.042
283.068
283.097
283.137
283.175
283.212
283.238
283.255
283.256
283.25
283.227
283.204
283.165
283.138
283.107
283.081
283.051
283.035
283.029
283.042
283.063
283.095
283.129
283.164
283.19
283.208
283.213
283.206
283.191
283.166
283.147
283.122
283.108
283.14
283.112
283.095
283.075
283.079
283.088
283.113
283.127
283.142
283.144
283.149
283.146
283.146
283.14
283.137
283.13
283.127
283.125
283.121
283.128
283.216
283.184
283.247
283.194
283.244
283.202
283.249
283.219
283.257
283.232
283.262
283.238
283.259
283.235
283.252
283.221
283.248
283.191
283.297
282.98
283.168
283.107
283.13
283.084
283.103
283.08
283.109
283.112
283.143
283.153
283.184
283.188
283.21
283.195
283.213
283.169
283.212
283.1
283.261
282.919
283.216
283.133
283.183
283.108
283.145
283.094
283.139
283.119
283.172
283.169
283.224
283.227
283.276
283.264
283.302
283.258
283.303
283.203
283.299
283.105
283.187
283.095
283.127
283.052
283.07
283.019
283.047
283.026
283.065
283.065
283.11
283.123
283.169
283.18
283.215
283.205
283.227
283.187
283.205
283.139
283.21
283.111
283.159
283.069
283.099
283.035
283.07
283.038
283.082
283.071
283.119
283.124
283.175
283.186
283.228
283.227
283.248
283.231
283.228
283.203
283.202
283.092
283.141
283.045
283.075
283.008
283.043
283.009
283.052
283.038
283.084
283.087
283.136
283.148
283.189
283.195
283.213
283.206
283.197
283.184
283.202
283.092
283.141
283.045
283.075
283.008
283.043
283.009
283.051
283.038
283.084
283.087
283.135
283.148
283.189
283.195
283.213
283.206
283.198
283.183
283.21
283.111
283.159
283.069
283.099
283.035
283.07
283.039
283.082
283.071
283.118
283.125
283.173
283.187
283.226
283.23
283.245
283.234
283.225
283.205
283.187
283.095
283.127
283.052
283.07
283.019
283.047
283.027
283.065
283.066
283.109
283.125
283.166
283.184
283.209
283.213
283.215
283.202
283.186
283.162
283.216
283.133
283.183
283.109
283.144
283.095
283.139
283.119
283.171
283.17
283.222
283.229
283.271
283.271
283.291
283.276
283.275
283.246
283.234
283.198
283.168
283.107
283.13
283.084
283.103
283.081
283.109
283.112
283.142
283.154
283.182
283.19
283.206
283.202
283.202
283.189
283.178
283.162
283.148
283.132
283.216
283.184
283.247
283.194
283.244
283.202
283.249
283.219
283.257
283.233
283.261
283.239
283.258
283.237
283.248
283.229
283.234
283.219
283.222
283.206
282.861
282.965
282.956
282.999
282.971
283.006
282.988
283.017
283.005
283.028
283.018
283.035
283.026
283.036
283.03
283.032
283.034
283.02
283.052
282.965
282.779
282.81
282.804
282.851
282.832
282.868
282.866
282.901
282.912
282.941
282.951
282.97
282.977
282.982
282.988
282.972
282.995
282.932
283.048
282.776
282.72
282.708
282.623
282.669
282.607
282.654
282.625
282.682
282.679
282.738
282.749
282.801
282.818
282.849
282.866
282.861
282.893
282.83
282.922
282.745
282.742
282.726
282.641
282.668
282.609
282.637
282.609
282.652
282.653
282.702
282.723
282.771
282.806
282.844
282.882
282.892
282.925
282.9
282.935
282.873
282.722
282.713
282.604
282.637
282.56
282.591
282.547
282.59
282.578
282.628
282.636
282.69
282.714
282.767
282.797
282.835
282.853
282.87
282.869
282.875
282.727
282.729
282.621
282.658
282.579
282.611
282.564
282.607
282.591
282.64
282.644
282.696
282.716
282.771
282.798
282.845
282.859
282.89
282.881
282.906
282.727
282.729
282.621
282.658
282.579
282.611
282.564
282.607
282.591
282.64
282.643
282.696
282.716
282.772
282.798
282.845
282.859
282.891
282.881
282.906
282.722
282.713
282.604
282.638
282.56
282.591
282.547
282.591
282.578
282.629
282.636
282.691
282.713
282.769
282.794
282.838
282.85
282.874
282.865
282.878
282.742
282.726
282.64
282.668
282.609
282.637
282.609
282.652
282.653
282.703
282.722
282.773
282.803
282.849
282.875
282.902
282.912
282.918
282.911
282.902
282.72
282.708
282.623
282.669
282.607
282.654
282.625
282.682
282.678
282.739
282.748
282.803
282.814
282.855
282.856
282.878
282.867
282.873
282.855
282.847
282.779
282.81
282.804
282.851
282.832
282.868
282.866
282.901
282.912
282.941
282.95
282.972
282.975
282.986
282.981
282.984
282.974
282.973
282.963
282.958
282.861
282.965
282.956
282.999
282.971
283.006
282.988
283.017
283.005
283.028
283.018
283.035
283.026
283.037
283.028
283.035
283.027
283.033
283.026
283.033
284.938
286.5
287.551
288.39
289.053
289.642
290.167
290.671
291.131
291.559
291.94
292.296
292.627
292.944
293.236
293.503
293.735
293.939
294.115
294.271
294.406
294.523
294.619
294.696
294.754
294.797
294.825
294.844
294.856
294.863
294.867
294.869
294.87
294.87
294.871
294.871
294.871
294.871
294.871
294.871
294.871
294.871
294.871
294.871
294.871
294.871
294.872
294.872
294.872
294.872
294.872
294.873
294.873
294.873
294.873
294.874
294.874
294.874
294.875
294.875
294.875
294.876
294.876
294.877
294.877
294.877
294.878
294.878
294.879
294.879
294.88
294.88
294.88
294.881
294.881
294.882
294.882
294.883
294.883
294.883
294.884
294.884
294.884
294.885
294.884
294.885
294.884
294.885
294.882
294.879
284.107
285.526
286.543
287.366
288.024
288.601
289.113
289.606
290.063
290.491
290.874
291.228
291.556
291.871
292.165
292.435
292.673
292.882
293.062
293.221
293.359
293.48
293.581
293.664
293.727
293.774
293.806
293.828
293.841
293.849
293.854
293.856
293.858
293.858
293.858
293.859
293.858
293.858
293.858
293.858
293.858
293.858
293.858
293.858
293.859
293.859
293.859
293.859
293.859
293.859
293.859
293.86
293.86
293.86
293.86
293.861
293.861
293.861
293.861
293.862
293.862
293.862
293.863
293.863
293.863
293.864
293.864
293.865
293.865
293.865
293.866
293.866
293.867
293.867
293.867
293.868
293.868
293.869
293.869
293.869
293.87
293.87
293.87
293.871
293.87
293.871
293.87
293.872
293.868
293.865
283.278
284.29
285.157
285.927
286.554
287.099
287.573
288.035
288.476
288.901
289.284
289.634
289.953
290.26
290.552
290.828
291.075
291.294
291.483
291.648
291.793
291.922
292.033
292.127
292.202
292.259
292.3
292.329
292.347
292.358
292.365
292.369
292.371
292.372
292.372
292.372
292.372
292.372
292.372
292.372
292.372
292.372
292.372
292.373
292.373
292.373
292.373
292.373
292.373
292.373
292.373
292.373
292.374
292.374
292.374
292.374
292.375
292.375
292.375
292.375
292.376
292.376
292.376
292.377
292.377
292.377
292.378
292.378
292.378
292.379
292.379
292.38
292.38
292.38
292.381
292.381
292.381
292.382
292.382
292.382
292.383
292.383
292.383
292.384
292.383
292.384
292.382
292.384
292.379
292.374
282.964
283.491
284.114
284.758
285.317
285.795
286.204
286.604
287.007
287.411
287.784
288.121
288.421
288.708
288.987
289.261
289.514
289.74
289.935
290.104
290.253
290.388
290.508
290.613
290.7
290.769
290.82
290.857
290.881
290.896
290.906
290.911
290.914
290.915
290.916
290.916
290.916
290.916
290.916
290.916
290.916
290.916
290.916
290.916
290.916
290.916
290.916
290.916
290.916
290.916
290.917
290.917
290.917
290.917
290.917
290.918
290.918
290.918
290.918
290.919
290.919
290.919
290.919
290.92
290.92
290.92
290.921
290.921
290.922
290.922
290.922
290.923
290.923
290.923
290.924
290.924
290.925
290.925
290.925
290.926
290.926
290.926
290.926
290.927
290.927
290.928
290.926
290.928
290.924
290.92
282.822
283.03
283.405
283.905
284.367
284.769
285.096
285.423
285.768
286.138
286.487
286.801
287.074
287.334
287.591
287.853
288.101
288.327
288.521
288.689
288.837
288.972
289.096
289.208
289.304
289.382
289.441
289.484
289.514
289.533
289.545
289.552
289.556
289.558
289.559
289.559
289.559
289.559
289.559
289.559
289.559
289.559
289.559
289.559
289.559
289.56
289.56
289.56
289.56
289.56
289.56
289.56
289.561
289.561
289.561
289.561
289.562
289.562
289.562
289.563
289.563
289.563
289.563
289.564
289.564
289.565
289.565
289.565
289.566
289.566
289.566
289.567
289.567
289.568
289.568
289.568
289.569
289.569
289.57
289.57
289.57
289.571
289.571
289.571
289.571
289.572
289.57
289.571
289.569
289.565
282.827
282.866
283.062
283.427
283.787
284.097
284.34
284.584
284.864
285.182
285.494
285.772
286.01
286.233
286.46
286.698
286.931
287.144
287.327
287.485
287.625
287.754
287.874
287.986
288.083
288.164
288.227
288.273
288.305
288.326
288.339
288.347
288.351
288.353
288.354
288.355
288.355
288.355
288.355
288.355
288.355
288.355
288.355
288.355
288.355
288.355
288.355
288.355
288.356
288.356
288.356
288.356
288.356
288.357
288.357
288.357
288.358
288.358
288.358
288.359
288.359
288.359
288.36
288.36
288.36
288.361
288.361
288.362
288.362
288.363
288.363
288.363
288.364
288.364
288.365
288.365
288.366
288.366
288.367
288.367
288.367
288.368
288.368
288.369
288.369
288.37
288.369
288.37
288.37
288.368
282.831
282.805
282.901
283.163
283.427
283.652
283.818
283.991
284.21
284.474
284.738
284.971
285.167
285.353
285.546
285.753
285.96
286.15
286.314
286.454
286.579
286.695
286.807
286.91
287.003
287.08
287.141
287.185
287.217
287.237
287.25
287.258
287.262
287.264
287.265
287.266
287.266
287.266
287.266
287.266
287.266
287.266
287.266
287.266
287.267
287.267
287.267
287.267
287.267
287.268
287.268
287.268
287.268
287.269
287.269
287.269
287.27
287.27
287.271
287.271
287.271
287.272
287.272
287.273
287.273
287.274
287.274
287.275
287.275
287.276
287.276
287.277
287.277
287.278
287.278
287.279
287.28
287.28
287.281
287.281
287.282
287.282
287.283
287.283
287.283
287.284
287.284
287.284
287.286
287.285
282.817
282.782
282.836
283.025
283.208
283.359
283.459
283.582
283.749
283.961
284.17
284.355
284.507
284.655
284.813
284.986
285.158
285.317
285.453
285.57
285.674
285.774
285.869
285.96
286.04
286.108
286.16
286.199
286.227
286.245
286.256
286.262
286.266
286.268
286.269
286.27
286.27
286.271
286.271
286.271
286.271
286.271
286.272
286.272
286.272
286.272
286.273
286.273
286.274
286.274
286.274
286.275
286.275
286.276
286.276
286.277
286.277
286.278
286.278
286.279
286.279
286.28
286.28
286.281
286.281
286.282
286.283
286.283
286.284
286.285
286.285
286.286
286.286
286.287
286.288
286.288
286.289
286.29
286.29
286.291
286.291
286.292
286.292
286.293
286.293
286.294
286.294
286.293
286.295
286.295
282.862
282.834
282.877
283.006
283.123
283.208
283.264
283.346
283.469
283.626
283.778
283.908
284.017
284.127
284.247
284.38
284.512
284.631
284.733
284.821
284.901
284.978
285.053
285.124
285.187
285.239
285.28
285.309
285.33
285.343
285.352
285.357
285.36
285.361
285.362
285.363
285.363
285.363
285.364
285.364
285.364
285.365
285.365
285.365
285.366
285.366
285.367
285.367
285.368
285.368
285.369
285.369
285.37
285.37
285.371
285.372
285.372
285.373
285.374
285.374
285.375
285.376
285.376
285.377
285.378
285.378
285.379
285.38
285.381
285.382
285.382
285.383
285.384
285.385
285.385
285.386
285.387
285.388
285.389
285.389
285.39
285.391
285.392
285.393
285.393
285.394
285.394
285.394
285.397
285.398
282.842
282.848
282.881
282.971
283.033
283.08
283.107
283.164
283.247
283.352
283.447
283.529
283.597
283.671
283.753
283.843
283.93
284.008
284.074
284.132
284.185
284.238
284.289
284.337
284.379
284.413
284.44
284.459
284.472
284.481
284.486
284.49
284.491
284.493
284.494
284.494
284.495
284.495
284.495
284.496
284.496
284.497
284.497
284.498
284.499
284.499
284.5
284.5
284.501
284.502
284.502
284.503
284.504
284.504
284.505
284.506
284.506
284.507
284.508
284.509
284.509
284.51
284.511
284.512
284.513
284.514
284.514
284.515
284.516
284.517
284.518
284.519
284.52
284.52
284.521
284.522
284.523
284.524
284.525
284.526
284.526
284.527
284.528
284.529
284.529
284.53
284.53
284.53
284.532
284.533
282.972
282.979
283
283.043
283.069
283.086
283.098
283.128
283.171
283.224
283.269
283.308
283.342
283.38
283.423
283.469
283.513
283.551
283.584
283.613
283.64
283.668
283.694
283.718
283.739
283.757
283.769
283.779
283.785
283.789
283.792
283.794
283.795
283.796
283.796
283.797
283.797
283.797
283.798
283.798
283.799
283.799
283.8
283.8
283.801
283.801
283.802
283.802
283.803
283.803
283.804
283.804
283.805
283.806
283.806
283.807
283.808
283.808
283.809
283.81
283.81
283.811
283.812
283.812
283.813
283.814
283.814
283.815
283.816
283.817
283.817
283.818
283.819
283.82
283.82
283.821
283.822
283.822
283.823
283.824
283.825
283.825
283.826
283.827
283.827
283.828
283.829
283.829
283.831
283.832
283.041
283.048
283.054
283.069
283.075
283.082
283.085
283.096
283.109
283.125
283.138
283.15
283.16
283.171
283.184
283.198
283.211
283.222
283.232
283.241
283.249
283.257
283.265
283.272
283.279
283.284
283.288
283.29
283.292
283.294
283.294
283.295
283.295
283.296
283.296
283.296
283.297
283.297
283.297
283.297
283.297
283.298
283.298
283.298
283.299
283.299
283.299
283.299
283.3
283.3
283.3
283.3
283.301
283.301
283.301
283.302
283.302
283.302
283.303
283.303
283.303
283.303
283.304
283.304
283.304
283.305
283.305
283.305
283.306
283.306
283.306
283.307
283.307
283.307
283.308
283.308
283.308
283.309
283.309
283.309
283.309
283.31
283.31
283.31
283.31
283.311
283.311
283.311
283.311
283.311
285.6
287.332
288.447
289.277
289.963
290.545
291.085
291.583
292.05
292.47
292.855
293.208
293.543
293.858
294.152
294.415
294.647
294.847
295.023
295.176
295.31
295.424
295.519
295.593
295.649
295.689
295.716
295.733
295.744
295.75
295.753
295.754
295.755
295.755
295.755
295.755
295.754
295.754
295.754
295.754
295.754
295.754
295.754
295.754
295.754
295.754
295.754
295.754
295.754
295.754
295.754
295.754
295.755
295.755
295.755
295.755
295.756
295.756
295.756
295.757
295.757
295.757
295.758
295.758
295.758
295.759
295.759
295.76
295.76
295.761
295.761
295.762
295.762
295.763
295.763
295.764
295.764
295.765
295.766
295.766
295.767
295.767
295.768
295.769
295.77
295.77
295.772
295.772
295.778
295.779
284.237
285.674
286.727
287.55
288.226
288.799
289.321
289.81
290.274
290.699
291.088
291.442
291.774
292.089
292.385
292.656
292.897
293.107
293.289
293.449
293.588
293.71
293.812
293.895
293.958
294.005
294.038
294.06
294.073
294.082
294.086
294.088
294.089
294.09
294.09
294.09
294.089
294.089
294.089
294.089
294.089
294.089
294.089
294.089
294.089
294.089
294.089
294.089
294.089
294.089
294.089
294.09
294.09
294.09
294.09
294.09
294.091
294.091
294.091
294.092
294.092
294.092
294.093
294.093
294.093
294.094
294.094
294.095
294.095
294.096
294.096
294.097
294.097
294.097
294.098
294.098
294.099
294.099
294.1
294.101
294.101
294.102
294.103
294.103
294.104
294.104
294.105
294.106
294.11
294.111
283.524
284.433
285.303
286.045
286.682
287.21
287.689
288.139
288.585
289.005
289.394
289.742
290.065
290.369
290.664
290.94
291.192
291.414
291.606
291.772
291.92
292.05
292.163
292.258
292.335
292.394
292.436
292.465
292.484
292.496
292.503
292.506
292.508
292.509
292.509
292.509
292.508
292.508
292.508
292.508
292.507
292.507
292.507
292.507
292.507
292.507
292.507
292.507
292.507
292.507
292.507
292.508
292.508
292.508
292.508
292.508
292.509
292.509
292.509
292.509
292.51
292.51
292.51
292.511
292.511
292.511
292.512
292.512
292.513
292.513
292.514
292.514
292.514
292.515
292.515
292.516
292.516
292.517
292.518
292.518
292.519
292.519
292.52
292.52
292.521
292.522
292.524
292.524
292.528
292.528
283.163
283.584
284.175
284.78
285.334
285.796
286.202
286.591
286.993
287.395
287.774
288.111
288.415
288.701
288.983
289.258
289.516
289.746
289.946
290.118
290.27
290.407
290.53
290.638
290.728
290.8
290.853
290.892
290.917
290.934
290.944
290.949
290.952
290.953
290.954
290.954
290.954
290.953
290.953
290.953
290.953
290.953
290.952
290.952
290.952
290.952
290.952
290.952
290.952
290.953
290.953
290.953
290.953
290.953
290.953
290.953
290.954
290.954
290.954
290.954
290.955
290.955
290.955
290.956
290.956
290.956
290.957
290.957
290.957
290.958
290.958
290.959
290.959
290.96
290.96
290.96
290.961
290.961
290.962
290.962
290.963
290.963
290.964
290.965
290.965
290.966
290.967
290.967
290.97
290.97
283.115
283.203
283.542
283.975
284.422
284.789
285.106
285.409
285.749
286.109
286.462
286.774
287.05
287.306
287.564
287.825
288.078
288.307
288.507
288.678
288.829
288.966
289.093
289.208
289.307
289.388
289.451
289.497
289.528
289.549
289.561
289.568
289.572
289.574
289.575
289.575
289.575
289.574
289.574
289.574
289.574
289.574
289.573
289.573
289.573
289.573
289.573
289.573
289.573
289.573
289.573
289.573
289.574
289.574
289.574
289.574
289.574
289.575
289.575
289.575
289.575
289.576
289.576
289.576
289.577
289.577
289.577
289.578
289.578
289.579
289.579
289.579
289.58
289.58
289.581
289.581
289.582
289.582
289.583
289.583
289.584
289.584
289.585
289.586
289.587
289.587
289.589
289.589
289.592
289.592
283.086
283.016
283.182
283.472
283.81
284.083
284.308
284.529
284.798
285.107
285.421
285.699
285.939
286.159
286.385
286.623
286.859
287.077
287.267
287.429
287.572
287.703
287.827
287.942
288.044
288.129
288.196
288.245
288.28
288.303
288.317
288.325
288.33
288.332
288.333
288.334
288.334
288.333
288.333
288.333
288.333
288.333
288.333
288.333
288.333
288.333
288.333
288.333
288.333
288.333
288.333
288.333
288.333
288.334
288.334
288.334
288.334
288.335
288.335
288.335
288.335
288.336
288.336
288.337
288.337
288.337
288.338
288.338
288.339
288.339
288.339
288.34
288.34
288.341
288.341
288.342
288.342
288.343
288.343
288.344
288.344
288.345
288.346
288.346
288.347
288.347
288.348
288.348
288.35
288.351
283.092
282.967
283.044
283.236
283.481
283.666
283.809
283.957
284.161
284.414
284.677
284.908
285.105
285.286
285.477
285.682
285.892
286.086
286.255
286.398
286.526
286.645
286.759
286.866
286.962
287.043
287.108
287.156
287.19
287.212
287.226
287.235
287.239
287.241
287.243
287.243
287.243
287.243
287.243
287.243
287.242
287.242
287.242
287.242
287.242
287.243
287.243
287.243
287.243
287.243
287.243
287.243
287.244
287.244
287.244
287.245
287.245
287.245
287.246
287.246
287.246
287.247
287.247
287.248
287.248
287.248
287.249
287.249
287.25
287.25
287.251
287.251
287.252
287.252
287.253
287.253
287.254
287.255
287.255
287.256
287.256
287.257
287.258
287.258
287.259
287.26
287.261
287.261
287.263
287.264
283.115
282.993
283.037
283.17
283.339
283.449
283.53
283.622
283.775
283.971
284.178
284.355
284.506
284.647
284.801
284.971
285.145
285.305
285.444
285.562
285.669
285.769
285.867
285.96
286.043
286.114
286.17
286.211
286.24
286.259
286.271
286.278
286.282
286.284
286.285
286.285
286.285
286.285
286.285
286.285
286.285
286.285
286.285
286.285
286.285
286.285
286.285
286.286
286.286
286.286
286.286
286.287
286.287
286.287
286.288
286.288
286.288
286.289
286.289
286.29
286.29
286.291
286.291
286.292
286.292
286.293
286.293
286.294
286.295
286.295
286.296
286.296
286.297
286.298
286.298
286.299
286.3
286.3
286.301
286.302
286.303
286.303
286.304
286.305
286.306
286.307
286.309
286.309
286.312
286.314
283.085
283.004
283.041
283.14
283.247
283.304
283.345
283.406
283.521
283.668
283.819
283.945
284.052
284.157
284.277
284.41
284.544
284.665
284.77
284.86
284.942
285.021
285.099
285.173
285.239
285.294
285.337
285.369
285.391
285.405
285.414
285.419
285.422
285.424
285.424
285.425
285.425
285.425
285.425
285.425
285.425
285.425
285.425
285.426
285.426
285.426
285.427
285.427
285.427
285.428
285.428
285.429
285.429
285.429
285.43
285.43
285.431
285.432
285.432
285.433
285.433
285.434
285.435
285.435
285.436
285.437
285.437
285.438
285.439
285.439
285.44
285.441
285.442
285.442
285.443
285.444
285.445
285.446
285.446
285.447
285.448
285.449
285.45
285.451
285.452
285.453
285.455
285.455
285.457
285.459
283.156
283.101
283.14
283.197
283.256
283.272
283.292
283.33
283.413
283.51
283.607
283.684
283.753
283.825
283.91
284.002
284.093
284.174
284.243
284.304
284.361
284.416
284.471
284.522
284.567
284.604
284.633
284.654
284.668
284.677
284.683
284.686
284.688
284.689
284.689
284.689
284.69
284.69
284.69
284.69
284.69
284.691
284.691
284.691
284.692
284.692
284.693
284.693
284.694
284.694
284.695
284.695
284.696
284.696
284.697
284.698
284.698
284.699
284.7
284.7
284.701
284.702
284.703
284.703
284.704
284.705
284.706
284.707
284.707
284.708
284.709
284.71
284.711
284.712
284.713
284.714
284.715
284.715
284.717
284.717
284.719
284.72
284.721
284.722
284.723
284.724
284.727
284.727
284.729
284.732
283.13
283.111
283.138
283.17
283.195
283.198
283.208
283.233
283.282
283.337
283.388
283.428
283.467
283.509
283.559
283.612
283.663
283.707
283.745
283.779
283.812
283.844
283.875
283.905
283.93
283.95
283.966
283.977
283.984
283.989
283.992
283.994
283.995
283.995
283.996
283.996
283.997
283.997
283.997
283.998
283.998
283.998
283.999
283.999
284
284
284.001
284.001
284.002
284.002
284.003
284.004
284.004
284.005
284.006
284.006
284.007
284.008
284.008
284.009
284.01
284.011
284.011
284.012
284.013
284.014
284.014
284.015
284.016
284.017
284.018
284.019
284.019
284.02
284.021
284.022
284.023
284.024
284.025
284.026
284.027
284.028
284.029
284.03
284.031
284.032
284.033
284.034
284.035
284.037
283.226
283.212
283.224
283.227
283.234
283.23
283.234
283.24
283.257
283.272
283.287
283.298
283.31
283.323
283.339
283.355
283.371
283.384
283.396
283.406
283.416
283.426
283.436
283.445
283.453
283.459
283.464
283.467
283.469
283.471
283.472
283.472
283.472
283.473
283.473
283.473
283.473
283.473
283.474
283.474
283.474
283.474
283.475
283.475
283.475
283.476
283.476
283.476
283.477
283.477
283.477
283.478
283.478
283.479
283.479
283.479
283.48
283.48
283.481
283.481
283.481
283.482
283.482
283.483
283.483
283.484
283.484
283.484
283.485
283.485
283.486
283.486
283.487
283.487
283.488
283.488
283.489
283.489
283.49
283.49
283.491
283.491
283.492
283.493
283.493
283.494
283.495
283.495
283.497
283.498
286.166
288.456
289.744
290.654
291.387
292.015
292.586
293.106
293.582
294.009
294.401
294.764
295.109
295.429
295.723
295.983
296.212
296.409
296.582
296.733
296.863
296.972
297.06
297.127
297.177
297.211
297.234
297.248
297.257
297.261
297.263
297.264
297.264
297.263
297.263
297.262
297.262
297.262
297.261
297.261
297.261
297.26
297.26
297.26
297.26
297.259
297.259
297.259
297.259
297.259
297.259
297.259
297.259
297.259
297.26
297.259
297.26
297.26
297.26
297.26
297.261
297.261
297.261
297.261
297.262
297.262
297.262
297.262
297.263
297.263
297.264
297.264
297.264
297.265
297.265
297.265
297.266
297.266
297.267
297.267
297.268
297.268
297.269
297.27
297.271
297.271
297.273
297.272
297.279
297.281
283.94
285.577
286.791
287.701
288.432
289.048
289.604
290.12
290.602
291.042
291.442
291.809
292.153
292.478
292.782
293.058
293.303
293.516
293.701
293.864
294.005
294.127
294.229