/*--------------------------------*- C++ -*----------------------------------*\
  =========                 |
  \\      /  F ield         | OpenFOAM: The Open Source CFD Toolbox
   \\    /   O peration     | Website:  https://openfoam.org
    \\  /    A nd           | Version:  7
     \\/     M anipulation  |
\*---------------------------------------------------------------------------*/
FoamFile
{
    version     2.0;
    format      ascii;
    class       volSymmTensorField;
    location    "0.7225";
    object      UPrime2Mean;
}
// * * * * * * * * * * * * * * * * * * * * * * * * * * * * * * * * * * * * * //

dimensions      [0 2 -2 0 0 0 0];

internalField   nonuniform List<symmTensor> 
7920
(
(0.0321811 -0.0025607 -0.00338004 0.000346926 0.000398686 0.00089699)
(0.135817 0.0185718 -0.0107005 0.00327069 -0.0013592 0.00346888)
(0.204398 0.0331228 -0.0167214 0.00702791 -0.00235038 0.00763637)
(0.270824 0.042874 -0.0207314 0.00880077 -0.00246949 0.0107253)
(0.28072 0.0431689 -0.0246378 0.00941541 -0.00271074 0.0122186)
(0.314951 0.0456386 -0.026459 0.00961043 -0.00254616 0.0114096)
(0.311015 0.0437497 -0.02829 0.00974595 -0.00269909 0.0100401)
(0.334492 0.0448751 -0.0283388 0.00976622 -0.00256853 0.00825404)
(0.328171 0.0428849 -0.0289756 0.00982718 -0.00269876 0.00712245)
(0.346338 0.0434512 -0.0285499 0.00982682 -0.0025859 0.00618601)
(0.340182 0.0415643 -0.028829 0.0098589 -0.0026603 0.00579458)
(0.354757 0.0417158 -0.0283057 0.00985159 -0.00254024 0.00545594)
(0.349498 0.0399981 -0.0282435 0.00986839 -0.00256062 0.00537951)
(0.361287 0.0398534 -0.0277517 0.00986378 -0.0024484 0.00532519)
(0.357336 0.0383102 -0.0273018 0.00986626 -0.00241283 0.00529519)
(0.366747 0.037938 -0.0272374 0.00988339 -0.0023486 0.00547281)
(0.364409 0.0363686 -0.0261193 0.00979246 -0.00219104 0.00528196)
(0.372467 0.036067 -0.0272781 0.0099936 -0.00230628 0.00578618)
(0.367769 0.0309791 -0.0242337 0.00854159 -0.00160418 0.00522079)
(0.401067 0.0421398 -0.0275551 0.0106426 -0.00267271 0.0058352)
(0.00989594 0.00124009 0.000404874 0.016127 0.00253095 0.000698202)
(0.0196186 -0.00956465 -0.00182159 0.0178426 0.00379073 0.0024867)
(0.056657 -0.017047 -0.00581374 0.0153192 0.0043259 0.00552934)
(0.108256 -0.023434 -0.0114816 0.0123756 0.00390249 0.00848425)
(0.158794 -0.0229805 -0.0175272 0.0110663 0.00368451 0.0109123)
(0.206544 -0.0245776 -0.0228368 0.0104755 0.00322362 0.0115424)
(0.246906 -0.0229282 -0.0273603 0.0102497 0.00304378 0.0111918)
(0.283173 -0.0234823 -0.0300561 0.0101092 0.00273458 0.00994312)
(0.314365 -0.0217627 -0.0321102 0.0100688 0.00267888 0.00871593)
(0.342612 -0.021754 -0.0329111 0.0100005 0.00250444 0.00756289)
(0.367489 -0.0200866 -0.0336881 0.00999202 0.00250049 0.00674099)
(0.390299 -0.0196872 -0.0337117 0.0099421 0.00238563 0.00609064)
(0.410813 -0.0181637 -0.0337802 0.00994624 0.00237679 0.00563612)
(0.429858 -0.0175018 -0.0334939 0.00991294 0.00229698 0.00535044)
(0.447564 -0.016162 -0.0328099 0.00991 0.00223956 0.00505069)
(0.464348 -0.0151123 -0.0327466 0.00993607 0.00221399 0.00512028)
(0.478845 -0.0141148 -0.0311345 0.00982476 0.00204026 0.0047942)
(0.498209 -0.0113635 -0.0322586 0.0100153 0.00209829 0.00528567)
(0.492063 -0.0114763 -0.0284964 0.00970321 0.00167903 0.00474084)
(0.522604 0.00269119 -0.0304592 0.00896835 0.00143874 0.00548948)
(0.013305 0.00205593 0.00146233 0.00230044 0.000757181 0.000675993)
(0.0231812 -0.000670189 0.00328229 0.00324999 0.000145162 0.00219588)
(0.0437555 -0.00580569 0.00591265 0.00525736 -3.79034e-06 0.00438803)
(0.0463423 -0.00834076 0.00559777 0.00718132 -0.0001367 0.00657218)
(0.0586975 -0.0129152 0.00573539 0.0080711 -0.00058178 0.0090793)
(0.0661062 -0.0131455 0.00362279 0.00854829 -0.000895605 0.0109661)
(0.0815369 -0.0158537 0.00194248 0.00880946 -0.00148006 0.0124528)
(0.0968856 -0.0150841 -0.00130664 0.00897153 -0.0017676 0.0128538)
(0.115881 -0.0168203 -0.00365835 0.00910855 -0.00213155 0.0126863)
(0.135995 -0.0159906 -0.00643511 0.00921268 -0.00222513 0.0118001)
(0.156365 -0.0173873 -0.00794813 0.00930153 -0.00237214 0.0107775)
(0.178251 -0.0168521 -0.0095575 0.00937971 -0.00234151 0.00957216)
(0.198256 -0.0181323 -0.0101784 0.00943998 -0.00237072 0.00843823)
(0.22039 -0.0179908 -0.0108998 0.00948886 -0.00229028 0.00741133)
(0.239386 -0.0193271 -0.0107543 0.00955389 -0.00226568 0.00641716)
(0.261871 -0.0192002 -0.0106225 0.0095064 -0.00220905 0.00580859)
(0.27942 -0.0213164 -0.0097834 0.0097285 -0.00206685 0.00506995)
(0.303709 -0.0192813 -0.00917235 0.00937569 -0.00236555 0.00504019)
(0.317408 -0.0230639 -0.00799939 0.00961393 -0.00164112 0.0045286)
(0.349858 -0.0144672 -0.00642232 0.0127036 -0.00409627 0.00494498)
(0.0136213 0.00580877 0.00144966 0.00720421 0.0015699 0.000636714)
(0.0267298 0.0133118 0.00363523 0.0124303 0.00298502 0.00209777)
(0.0673896 0.0259376 0.00845498 0.0146595 0.00407447 0.00407807)
(0.0898788 0.0277271 0.0111772 0.0136558 0.00407734 0.00589071)
(0.126354 0.0324664 0.0154501 0.0127519 0.00414744 0.00818861)
(0.141548 0.0312769 0.0170468 0.0120221 0.00382461 0.0102524)
(0.168963 0.0340028 0.0194729 0.011515 0.00369276 0.0124341)
(0.180772 0.0326145 0.0187573 0.011103 0.0033485 0.013829)
(0.204005 0.034877 0.0187555 0.0108363 0.00323261 0.0147303)
(0.216706 0.0339019 0.0165365 0.0105714 0.0029597 0.0146946)
(0.238418 0.0359544 0.0157303 0.010421 0.00287889 0.0141969)
(0.253221 0.035448 0.013691 0.0102415 0.00268858 0.0132064)
(0.274022 0.0373111 0.0129627 0.0101619 0.00263244 0.011982)
(0.291043 0.0372296 0.0115019 0.010034 0.00251705 0.0106432)
(0.310657 0.0388275 0.0110037 0.0100032 0.0024505 0.00919961)
(0.330272 0.0391988 0.0106868 0.0099032 0.002377 0.00789712)
(0.347828 0.0403347 0.0108018 0.00991614 0.00232931 0.0066666)
(0.371749 0.0412931 0.0121324 0.00981684 0.00216104 0.00579434)
(0.385402 0.0416266 0.0122422 0.00983325 0.00215464 0.0050729)
(0.421825 0.0455792 0.0165032 0.0107949 0.00171802 0.00487819)
(0.0134946 -0.000403363 0.00143662 0.000276004 -7.17861e-05 0.000635762)
(0.0251244 -0.00383128 0.00341134 0.00292832 -0.000880172 0.00213439)
(0.0695836 -0.0103623 0.00861031 0.00513091 -0.00117514 0.00407485)
(0.100816 -0.0131831 0.0119709 0.00692055 -0.00113053 0.00581316)
(0.153062 -0.0194726 0.0176809 0.00788869 -0.00136341 0.0079553)
(0.183102 -0.0215122 0.0207293 0.00836938 -0.00145 0.010016)
(0.230822 -0.0267407 0.0252276 0.00864997 -0.00182799 0.0122862)
(0.256334 -0.0279616 0.0261019 0.00880113 -0.00197019 0.0140353)
(0.298932 -0.0319762 0.0279361 0.00893622 -0.00225781 0.0153548)
(0.322076 -0.0327843 0.0267188 0.00902189 -0.00231659 0.0158322)
(0.360641 -0.0360152 0.0270638 0.00911172 -0.00247527 0.0157928)
(0.38289 -0.0367161 0.0253685 0.00917175 -0.00245181 0.0151532)
(0.41818 -0.0394441 0.0252521 0.0092517 -0.00252571 0.0142224)
(0.440222 -0.0401078 0.023542 0.00927502 -0.00242937 0.0129227)
(0.472978 -0.0427139 0.0232625 0.00939566 -0.00247681 0.0115378)
(0.494241 -0.043029 0.0220588 0.00926839 -0.00232669 0.00989888)
(0.525762 -0.0461329 0.0225269 0.00964092 -0.00234939 0.00849433)
(0.544858 -0.0464152 0.0226821 0.00906929 -0.00240042 0.00705045)
(0.572996 -0.0479855 0.0238597 0.00983423 -0.00203894 0.00606456)
(0.598791 -0.0593857 0.0277602 0.0116082 -0.00359678 0.00549801)
(0.0132886 0.00287362 0.00138091 0.00181047 0.000763275 0.000620506)
(0.0230117 0.00731402 0.00308797 0.00579241 0.00182947 0.00211202)
(0.0652301 0.0176172 0.00808357 0.00823207 0.0025783 0.00406029)
(0.0969387 0.0210854 0.0114751 0.00906758 0.00258017 0.00577753)
(0.15211 0.0280137 0.0174136 0.00948711 0.00278322 0.00789087)
(0.187182 0.0296194 0.020852 0.00960077 0.00267059 0.00992379)
(0.242457 0.0347934 0.025911 0.00967763 0.00282018 0.012191)
(0.275601 0.0355489 0.0273597 0.00966504 0.00271191 0.0139978)
(0.328634 0.0395636 0.0298769 0.00968522 0.00281258 0.015423)
(0.360318 0.039974 0.0291838 0.00965226 0.0026928 0.0160616)
(0.410383 0.0432198 0.0301125 0.00966124 0.00273963 0.0162058)
(0.440888 0.0435784 0.0287414 0.00962803 0.00261322 0.0157502)
(0.487561 0.0463059 0.0290411 0.00964468 0.00263004 0.0150093)
(0.517147 0.046667 0.0273703 0.00960376 0.0025017 0.0138246)
(0.56029 0.0491582 0.0272866 0.00965673 0.00251388 0.0125621)
(0.588666 0.0492343 0.025751 0.00954144 0.00236543 0.0108807)
(0.62799 0.0520639 0.0263229 0.00974931 0.00238661 0.00945186)
(0.655598 0.0519236 0.0259381 0.00939974 0.00228456 0.0078247)
(0.684983 0.0535554 0.027444 0.00983601 0.00214266 0.0066592)
(0.722092 0.0602369 0.0311076 0.0112678 0.00268507 0.00598727)
(0.0132886 -0.00287365 0.00138092 0.00181046 -0.000763278 0.000620507)
(0.0230117 -0.00731398 0.00308795 0.00579241 -0.00182947 0.00211203)
(0.0652302 -0.0176172 0.00808363 0.00823206 -0.00257833 0.00406029)
(0.0969387 -0.0210853 0.0114749 0.00906756 -0.00258015 0.00577755)
(0.15211 -0.0280138 0.0174138 0.00948712 -0.00278326 0.00789084)
(0.187182 -0.0296192 0.0208515 0.00960079 -0.00267055 0.0099238)
(0.242457 -0.0347935 0.0259118 0.00967768 -0.00282029 0.012191)
(0.275601 -0.0355489 0.0273584 0.00966502 -0.00271178 0.0139975)
(0.328636 -0.0395637 0.0298789 0.00968525 -0.00281278 0.0154235)
(0.360317 -0.0399727 0.0291808 0.00965216 -0.00269244 0.0160606)
(0.410387 -0.0432187 0.0301171 0.00966105 -0.00273996 0.0162072)
(0.440885 -0.0435751 0.0287351 0.00962745 -0.00261229 0.0157482)
(0.487576 -0.0463013 0.0290501 0.0096441 -0.00263034 0.0150117)
(0.517139 -0.046651 0.0273594 0.00960149 -0.00249938 0.0138221)
(0.56033 -0.0491502 0.0273008 0.00965591 -0.0025141 0.0125647)
(0.588649 -0.0491759 0.0257357 0.0095323 -0.00235875 0.0108784)
(0.628064 -0.0520619 0.0263381 0.00975025 -0.00238729 0.0094537)
(0.65556 -0.0517528 0.0259267 0.00937241 -0.00226899 0.00782472)
(0.685073 -0.0535195 0.0274391 0.0098353 -0.00213906 0.00665634)
(0.72203 -0.0599701 0.0311279 0.0112159 -0.00266478 0.00599616)
(0.0134946 0.000403335 0.00143664 0.000276001 7.17838e-05 0.000635767)
(0.0251244 0.00383131 0.00341129 0.00292831 0.000880162 0.00213439)
(0.0695836 0.0103622 0.00861048 0.00513091 0.00117514 0.00407485)
(0.100816 0.0131831 0.0119705 0.00692054 0.00113051 0.00581322)
(0.153062 0.0194726 0.0176816 0.00788867 0.00136342 0.0079552)
(0.183103 0.0215122 0.020728 0.0083693 0.00144996 0.0100159)
(0.230821 0.0267405 0.0252299 0.00864991 0.00182803 0.0122863)
(0.256336 0.0279616 0.0260983 0.00880109 0.00197009 0.0140345)
(0.298929 0.0319762 0.027942 0.00893615 0.002258 0.0153562)
(0.322081 0.0327849 0.0267098 0.0090218 0.00231622 0.015829)
(0.360634 0.0360164 0.0270773 0.00911184 0.00247604 0.0157977)
(0.382904 0.0367179 0.0253492 0.0091719 0.00245088 0.0151458)
(0.418164 0.0394485 0.0252803 0.00925219 0.00252787 0.0142318)
(0.440259 0.0401188 0.0235042 0.00927623 0.00242774 0.0129116)
(0.472951 0.0427209 0.0233156 0.00939655 0.00248128 0.0115509)
(0.494325 0.0430745 0.0219934 0.00927485 0.00232624 0.00988526)
(0.525765 0.0461346 0.02261 0.00964075 0.00235707 0.00850935)
(0.545046 0.0465624 0.022601 0.00909449 0.00240475 0.00703843)
(0.573164 0.0480122 0.0239459 0.00983622 0.00205276 0.00607111)
(0.599237 0.0596469 0.0277436 0.0116741 0.00360504 0.00550767)
(0.0136213 -0.0058088 0.00144968 0.00720418 -0.00156993 0.000636719)
(0.0267299 -0.0133117 0.00363515 0.0124302 -0.00298495 0.00209777)
(0.0673897 -0.0259376 0.00845522 0.0146595 -0.00407462 0.00407808)
(0.0898788 -0.0277271 0.0111767 0.0136558 -0.00407711 0.00589073)
(0.126354 -0.0324665 0.0154509 0.0127519 -0.00414778 0.00818841)
(0.141548 -0.0312768 0.0170451 0.0120221 -0.00382408 0.0102521)
(0.168963 -0.034003 0.0194755 0.011515 -0.00369354 0.012434)
(0.180772 -0.0326147 0.0187532 0.0111029 -0.0033473 0.0138276)
(0.204005 -0.0348772 0.0187624 0.0108363 -0.00323428 0.0147326)
(0.216708 -0.0339015 0.0165266 0.0105711 -0.00295717 0.0146888)
(0.238418 -0.0359545 0.0157467 0.0104208 -0.00288218 0.0142065)
(0.253228 -0.0354471 0.0136673 0.0102408 -0.00268328 0.0131911)
(0.274027 -0.0373105 0.0130029 0.0101614 -0.00263884 0.0120043)
(0.291058 -0.0372225 0.0114431 0.0100311 -0.00250537 0.0106139)
(0.310678 -0.0388293 0.0111 0.010003 -0.00246383 0.00923891)
(0.330304 -0.0391725 0.0105499 0.00989328 -0.00235075 0.00784901)
(0.347897 -0.0403501 0.011006 0.00991893 -0.00235744 0.00672713)
(0.371795 -0.0412231 0.0118689 0.0097908 -0.00210861 0.00572515)
(0.385566 -0.0416556 0.0125822 0.00983977 -0.00220288 0.00514617)
(0.421923 -0.0454841 0.0161366 0.0107679 -0.00164097 0.00481584)
(0.0133051 -0.00205596 0.00146235 0.00230042 -0.000757193 0.000675996)
(0.0231812 0.000670209 0.00328222 0.00324997 -0.000145129 0.00219587)
(0.0437555 0.00580566 0.00591274 0.00525733 3.75965e-06 0.00438805)
(0.0463423 0.00834071 0.00559755 0.0071813 0.000136788 0.00657208)
(0.0586975 0.0129151 0.00573535 0.00807106 0.000581772 0.00907898)
(0.0661061 0.0131454 0.00362295 0.00854821 0.000895688 0.0109656)
(0.0815366 0.0158535 0.00194185 0.00880938 0.00148013 0.0124526)
(0.0968847 0.0150838 -0.00130394 0.00897148 0.00176748 0.0128523)
(0.115881 0.0168199 -0.00366278 0.0091085 0.00213206 0.012689)
(0.135992 0.0159906 -0.006425 0.00921239 0.002224 0.0117939)
(0.156367 0.0173865 -0.00796425 0.0093017 0.00237439 0.01079)
(0.178242 0.0168522 -0.00952984 0.00937955 0.00233738 0.00955173)
(0.198258 0.0181309 -0.0102172 0.00944058 0.00237803 0.00847297)
(0.220363 0.0179918 -0.0108444 0.00948879 0.00227814 0.00736063)
(0.239375 0.0193251 -0.0108172 0.00955552 0.00228646 0.00649339)
(0.261811 0.0191965 -0.0105482 0.00950882 0.00217688 0.00570236)
(0.279351 0.0213132 -0.00983548 0.00972995 0.00212226 0.00521483)
(0.3036 0.0192869 -0.00911584 0.00939173 0.00227808 0.00484621)
(0.317179 0.0230664 -0.00797095 0.00961829 0.0017762 0.00476159)
(0.34957 0.0145796 -0.00637544 0.0127562 0.00379102 0.00466242)
(0.00989601 -0.00124014 0.00040488 0.0161269 -0.00253096 0.000698209)
(0.0196187 0.00956467 -0.00182155 0.0178425 -0.00379067 0.0024867)
(0.0566569 0.0170469 -0.00581386 0.0153192 -0.00432597 0.00552938)
(0.108256 0.0234339 -0.0114811 0.0123756 -0.00390235 0.00848406)
(0.158794 0.0229804 -0.0175281 0.0110663 -0.00368469 0.0109121)
(0.206543 0.0245774 -0.0228342 0.0104755 -0.00322329 0.011542)
(0.246905 0.0229281 -0.0273645 0.0102497 -0.00304431 0.0111919)
(0.283171 0.0234816 -0.0300472 0.0101092 -0.00273376 0.00994259)
(0.314364 0.0217624 -0.0321263 0.0100689 -0.00268021 0.00871843)
(0.342606 0.0217523 -0.0328833 0.0100002 -0.00250225 0.00755927)
(0.367486 0.0200857 -0.0337385 0.0099921 -0.00250382 0.00675111)
(0.390277 0.0196828 -0.0336283 0.00994167 -0.00237979 0.00607446)
(0.410804 0.0181615 -0.0339209 0.00994637 -0.00238564 0.00566741)
(0.429793 0.0174903 -0.0332669 0.00991107 -0.00228066 0.00529977)
(0.447522 0.0161589 -0.033168 0.00991098 -0.00226523 0.00513477)
(0.464208 0.0150843 -0.0321922 0.00993025 -0.0021658 0.00498781)
(0.478629 0.0141171 -0.0319585 0.00982947 -0.00211985 0.00499199)
(0.498031 0.0113099 -0.0310384 0.0100004 -0.00195181 0.00499306)
(0.491355 0.0114908 -0.0302661 0.00972135 -0.00193425 0.00512248)
(0.522756 -0.00259003 -0.0278938 0.00897756 -0.00107366 0.00495209)
(0.0321812 0.00256063 -0.00337995 0.000346916 -0.000398666 0.000897001)
(0.135817 -0.0185718 -0.0107004 0.00327069 0.00135921 0.00346896)
(0.204398 -0.0331228 -0.0167215 0.00702792 0.00235042 0.00763662)
(0.270824 -0.042874 -0.0207306 0.00880077 0.00246941 0.0107255)
(0.280721 -0.0431691 -0.0246383 0.00941544 0.0027108 0.0122191)
(0.314952 -0.0456383 -0.0264577 0.00961031 0.00254606 0.0114099)
(0.311015 -0.0437498 -0.0282939 0.00974589 0.00269951 0.0100411)
(0.334492 -0.0448747 -0.028335 0.0097661 0.00256821 0.00825452)
(0.328172 -0.0428851 -0.0289872 0.00982709 0.0026998 0.00712524)
(0.346335 -0.0434496 -0.0285355 0.00982637 0.00258459 0.00618384)
(0.340183 -0.0415648 -0.0288607 0.0098589 0.00266292 0.00580315)
(0.354747 -0.0417129 -0.0282571 0.00985103 0.00253609 0.0054435)
(0.349499 -0.0399995 -0.0283325 0.0098687 0.00256775 0.00540488)
(0.361258 -0.0398451 -0.027605 0.00986219 0.00243583 0.00528371)
(0.35733 -0.038314 -0.0275511 0.00986782 0.00243362 0.00536767)
(0.36668 -0.0379224 -0.0268232 0.00987998 0.00231062 0.00535247)
(0.364344 -0.0363791 -0.0267972 0.0097975 0.002256 0.00547559)
(0.372363 -0.0360477 -0.02617 0.00998783 0.0021831 0.00548388)
(0.367476 -0.0310435 -0.0259304 0.00856252 0.00180594 0.00562075)
(0.400765 -0.0422162 -0.0251852 0.0106757 0.00224616 0.00538328)
(0.0107889 -0.000914674 5.44157e-05 0.0059856 5.13128e-05 1.43155e-06)
(0.0895278 -0.030488 -9.09128e-06 0.0141119 5.47939e-05 1.10674e-06)
(0.19014 -0.043759 1.41749e-05 0.0162417 7.72724e-05 1.28731e-06)
(0.360522 -0.0599448 6.52557e-05 0.0158919 5.85504e-05 1.08719e-06)
(0.381376 -0.0572223 3.91459e-05 0.0162588 8.05246e-05 1.23983e-06)
(0.485457 -0.0671348 9.12346e-05 0.0168801 6.43359e-05 1.0511e-06)
(0.463806 -0.0628893 4.46987e-05 0.0174254 8.51745e-05 1.18659e-06)
(0.541296 -0.0699861 9.5153e-05 0.0178341 6.92609e-05 1.01286e-06)
(0.514334 -0.0651492 4.59164e-05 0.0180711 8.77211e-05 1.13409e-06)
(0.57723 -0.0700593 9.60126e-05 0.0182437 7.21332e-05 9.78613e-07)
(0.551157 -0.0653338 4.70251e-05 0.0183414 8.83223e-05 1.08222e-06)
(0.602669 -0.0687389 9.62903e-05 0.0184271 7.35213e-05 9.42326e-07)
(0.579426 -0.0644156 4.86857e-05 0.0184733 8.77573e-05 1.02689e-06)
(0.622004 -0.0667656 9.79543e-05 0.0185337 7.37589e-05 9.01507e-07)
(0.602303 -0.0628912 5.28275e-05 0.0185354 8.60712e-05 9.68945e-07)
(0.638185 -0.064521 0.000103757 0.0186616 7.29438e-05 8.58188e-07)
(0.620411 -0.0606517 6.03544e-05 0.0183202 8.26109e-05 9.10999e-07)
(0.653798 -0.0621001 0.000119853 0.0194175 7.24526e-05 8.14332e-07)
(0.625877 -0.0495666 6.17104e-05 0.0146441 7.31855e-05 8.58226e-07)
(0.610401 -0.0447913 0.000171628 0.0157846 6.0085e-05 7.50113e-07)
(0.0152559 0.000612605 7.10602e-05 0.00107259 -1.65882e-05 1.1033e-06)
(0.0122558 -7.1155e-05 4.12968e-05 0.00332767 -3.93413e-05 9.06161e-07)
(0.0255869 -0.00547673 0.00012355 0.00690334 -6.30216e-05 1.04937e-06)
(0.0464048 -0.000181605 0.000129291 0.0104788 -5.64972e-05 8.93041e-07)
(0.0701215 -0.00260243 0.000177212 0.0132713 -7.25315e-05 1.00748e-06)
(0.121761 0.00732077 0.000192514 0.0151208 -5.67104e-05 8.51531e-07)
(0.147434 0.00420997 0.000217023 0.0160907 -7.4606e-05 9.56943e-07)
(0.206507 0.0121215 0.000233833 0.0167235 -5.84621e-05 8.13949e-07)
(0.227495 0.00838684 0.000245338 0.0170939 -7.51456e-05 9.12172e-07)
(0.283352 0.0143256 0.000261291 0.017395 -5.93796e-05 7.82381e-07)
(0.298919 0.0105623 0.000263479 0.0175905 -7.44063e-05 8.6708e-07)
(0.348416 0.0148712 0.000277838 0.0177686 -5.95312e-05 7.48391e-07)
(0.35992 0.0112396 0.000273347 0.0178758 -7.2998e-05 8.17676e-07)
(0.403084 0.0142691 0.000287312 0.0180091 -5.90449e-05 7.10289e-07)
(0.412286 0.0107958 0.000278871 0.0180356 -7.09382e-05 7.65732e-07)
(0.4509 0.013169 0.000294426 0.0182166 -5.76268e-05 6.70891e-07)
(0.457083 0.00891202 0.000283859 0.0181526 -6.84962e-05 7.14183e-07)
(0.496727 0.0138189 0.000302841 0.018429 -5.39963e-05 6.33282e-07)
(0.487479 0.00450538 0.000291173 0.0187188 -6.59891e-05 6.64106e-07)
(0.573735 0.0302383 0.000316777 0.0222567 -4.44998e-05 5.87206e-07)
(0.0122952 0.00339523 7.02972e-05 0.00326995 3.63537e-05 1.25588e-06)
(0.01531 0.00657073 4.17746e-05 0.016774 4.52987e-05 1.01625e-06)
(0.0512828 0.0263646 0.000132508 0.0232775 6.63219e-05 1.16979e-06)
(0.0471377 0.0196079 9.38284e-05 0.0229015 4.22778e-05 9.82217e-07)
(0.0732318 0.0281134 0.000169895 0.0218001 6.68635e-05 1.11706e-06)
(0.0662388 0.0191881 0.000143346 0.02087 4.87231e-05 9.40834e-07)
(0.088164 0.0253651 0.000210115 0.0202446 7.16745e-05 1.06368e-06)
(0.0900383 0.0185631 0.000191275 0.0198329 5.56578e-05 9.05222e-07)
(0.113054 0.0241909 0.0002492 0.0194405 7.59501e-05 1.01855e-06)
(0.122997 0.0193001 0.000234799 0.0192105 6.10385e-05 8.76046e-07)
(0.146494 0.0244136 0.000283882 0.0189602 7.85964e-05 9.74065e-07)
(0.161237 0.0209526 0.000271969 0.0188392 6.44324e-05 8.44453e-07)
(0.183883 0.0254582 0.000312399 0.0186899 7.94576e-05 9.24866e-07)
(0.201182 0.0230801 0.000302625 0.0186215 6.58369e-05 8.07419e-07)
(0.222273 0.0268749 0.000335339 0.0185388 7.85938e-05 8.71468e-07)
(0.241884 0.0257192 0.000329131 0.0184832 6.56424e-05 7.66958e-07)
(0.2599 0.0279405 0.000354086 0.0183224 7.57071e-05 8.17187e-07)
(0.285033 0.029994 0.000355452 0.018642 6.50721e-05 7.26685e-07)
(0.29642 0.0268524 0.00037082 0.0160436 6.81315e-05 7.68459e-07)
(0.331005 0.0373552 0.000381001 0.0194144 6.51257e-05 6.8561e-07)
(0.0110982 -0.000877676 6.1349e-05 0.00065245 -2.00433e-05 1.1123e-06)
(0.0129722 -0.000534758 3.90438e-05 0.00344233 -3.83059e-05 9.33771e-07)
(0.0514471 -0.00795277 0.000118025 0.00690385 -6.20966e-05 1.07029e-06)
(0.0611 -0.00843334 7.3224e-05 0.0101263 -5.64675e-05 9.07037e-07)
(0.112383 -0.0194452 0.000142743 0.0124245 -7.39125e-05 1.02564e-06)
(0.115352 -0.0191869 9.96887e-05 0.0140601 -6.06822e-05 8.66676e-07)
(0.159156 -0.0290184 0.000169684 0.0149863 -7.83e-05 9.7413e-07)
(0.158486 -0.0275042 0.000131327 0.0156436 -6.35612e-05 8.2843e-07)
(0.196093 -0.0353649 0.000199009 0.0160484 -7.94356e-05 9.28135e-07)
(0.196089 -0.0334423 0.00016588 0.0163985 -6.41459e-05 7.96602e-07)
(0.229831 -0.0397488 0.000230032 0.0166489 -7.80184e-05 8.84096e-07)
(0.232361 -0.0379254 0.000202045 0.0168774 -6.30523e-05 7.64344e-07)
(0.263491 -0.0431001 0.000261361 0.0170702 -7.5388e-05 8.36775e-07)
(0.268901 -0.0416407 0.000237904 0.0172094 -6.1185e-05 7.27856e-07)
(0.298037 -0.0461157 0.000291608 0.0174151 -7.25239e-05 7.85613e-07)
(0.305691 -0.0449657 0.000272254 0.0173847 -5.86355e-05 6.88699e-07)
(0.334016 -0.0493492 0.000320909 0.0178904 -7.00773e-05 7.33765e-07)
(0.341601 -0.0481297 0.000303192 0.0173186 -5.39284e-05 6.50716e-07)
(0.373209 -0.0527322 0.000352154 0.018703 -6.74368e-05 6.82923e-07)
(0.371305 -0.055448 0.000321567 0.0214193 -4.94359e-05 6.12051e-07)
(0.0112854 0.00211344 6.48918e-05 0.00181477 2.91984e-05 1.19035e-06)
(0.0127494 0.00222081 4.25374e-05 0.0096417 4.22433e-05 9.94037e-07)
(0.049116 0.0193826 0.00012727 0.0145977 6.33723e-05 1.13623e-06)
(0.0605638 0.0197409 8.09219e-05 0.0167373 4.53412e-05 9.56392e-07)
(0.118355 0.0341491 0.000152471 0.0176998 6.713e-05 1.08568e-06)
(0.130057 0.0322471 0.000103119 0.0182177 4.99489e-05 9.1532e-07)
(0.188123 0.0430456 0.000174842 0.0184258 7.11896e-05 1.03229e-06)
(0.198264 0.0406083 0.000127475 0.0185365 5.51844e-05 8.77512e-07)
(0.252483 0.0489333 0.000198411 0.0184899 7.43514e-05 9.84755e-07)
(0.262038 0.0465673 0.000155519 0.0184756 5.92439e-05 8.45562e-07)
(0.311715 0.0531581 0.00022514 0.0183834 7.60496e-05 9.39597e-07)
(0.321571 0.0511989 0.0001883 0.0183515 6.17783e-05 8.13804e-07)
(0.366961 0.056567 0.000255632 0.0182792 7.63875e-05 8.9202e-07)
(0.377858 0.0550825 0.000224975 0.0182365 6.28025e-05 7.7803e-07)
(0.419075 0.0595313 0.000288847 0.0182255 7.54023e-05 8.40511e-07)
(0.431571 0.0584151 0.000263443 0.0180996 6.22709e-05 7.38888e-07)
(0.467598 0.062133 0.000323893 0.0182001 7.29925e-05 7.87768e-07)
(0.483017 0.0616243 0.000300779 0.0180227 6.04444e-05 6.99917e-07)
(0.510163 0.0616674 0.000364165 0.0170726 6.84378e-05 7.39018e-07)
(0.52396 0.0669032 0.000333116 0.0209481 6.26689e-05 6.61921e-07)
(0.0111974 -0.00148368 6.26412e-05 0.00103688 -2.4144e-05 1.14585e-06)
(0.0124976 -0.00111689 4.12301e-05 0.00557436 -3.96044e-05 9.6588e-07)
(0.0467287 -0.0131392 0.000123332 0.00919418 -6.17313e-05 1.10244e-06)
(0.0576543 -0.0134176 7.92811e-05 0.0120283 -5.03078e-05 9.30111e-07)
(0.115193 -0.0260793 0.000147887 0.013831 -6.99823e-05 1.05447e-06)
(0.129241 -0.0253708 9.84173e-05 0.0151158 -5.52877e-05 8.90099e-07)
(0.191186 -0.036069 0.000167436 0.0158244 -7.46875e-05 1.00252e-06)
(0.206175 -0.0347948 0.000118142 0.016328 -5.97003e-05 8.52203e-07)
(0.26727 -0.0435094 0.000187091 0.0166026 -7.71333e-05 9.55234e-07)
(0.283007 -0.0421754 0.000141087 0.0168477 -6.22075e-05 8.19661e-07)
(0.341138 -0.0493293 0.000209711 0.0169977 -7.73793e-05 9.10174e-07)
(0.357475 -0.0482108 0.000169374 0.0171481 -6.28754e-05 7.87512e-07)
(0.412 -0.0541932 0.00023708 0.0172658 -7.61108e-05 8.62898e-07)
(0.428942 -0.0533563 0.000203266 0.0173403 -6.22053e-05 7.51646e-07)
(0.479671 -0.058539 0.000269129 0.0175065 -7.39757e-05 8.11855e-07)
(0.496659 -0.057848 0.000240979 0.0173941 -6.02964e-05 7.12778e-07)
(0.542909 -0.0626903 0.000305152 0.0178399 -7.14083e-05 7.59856e-07)
(0.559432 -0.0625752 0.000278148 0.0172931 -5.66207e-05 6.74728e-07)
(0.597189 -0.065134 0.000347442 0.0178382 -6.80863e-05 7.10029e-07)
(0.608589 -0.0730342 0.000310145 0.0210446 -5.66835e-05 6.37258e-07)
(0.0111974 0.00148366 6.26413e-05 0.00103688 2.4144e-05 1.14585e-06)
(0.0124976 0.00111692 4.12307e-05 0.00557435 3.96044e-05 9.6588e-07)
(0.0467287 0.0131392 0.000123333 0.00919418 6.17313e-05 1.10244e-06)
(0.0576544 0.0134176 7.92818e-05 0.0120283 5.03078e-05 9.30111e-07)
(0.115193 0.0260793 0.000147888 0.013831 6.99823e-05 1.05447e-06)
(0.129242 0.0253709 9.84189e-05 0.0151158 5.52874e-05 8.90099e-07)
(0.191185 0.0360689 0.000167438 0.0158244 7.46875e-05 1.00252e-06)
(0.206176 0.034795 0.000118142 0.0163281 5.96999e-05 8.52204e-07)
(0.267268 0.0435097 0.000187092 0.0166027 7.71333e-05 9.55233e-07)
(0.28301 0.0421771 0.000141087 0.016848 6.22063e-05 8.1966e-07)
(0.341133 0.0493302 0.000209712 0.016998 7.73792e-05 9.1017e-07)
(0.357483 0.048216 0.000169362 0.0171492 6.2873e-05 7.87517e-07)
(0.411986 0.0541963 0.000237083 0.0172665 7.61099e-05 8.62899e-07)
(0.428965 0.0533757 0.000203251 0.0173441 6.2198e-05 7.5164e-07)
(0.479642 0.0585479 0.00026914 0.0175084 7.39743e-05 8.11849e-07)
(0.496719 0.057903 0.000240923 0.0174067 6.02836e-05 7.12731e-07)
(0.542866 0.0627268 0.000305169 0.0178468 7.14068e-05 7.5989e-07)
(0.559623 0.0627106 0.000278051 0.0173278 5.66143e-05 6.74612e-07)
(0.597284 0.0652638 0.000347572 0.0178645 6.81085e-05 7.10189e-07)
(0.608921 0.0733363 0.000310044 0.0211399 5.67275e-05 6.37027e-07)
(0.0112854 -0.00211345 6.48922e-05 0.00181478 -2.91984e-05 1.19035e-06)
(0.0127494 -0.0022208 4.25367e-05 0.00964171 -4.22434e-05 9.94036e-07)
(0.049116 -0.0193826 0.000127272 0.0145977 -6.33722e-05 1.13623e-06)
(0.0605638 -0.0197409 8.09225e-05 0.0167373 -4.53412e-05 9.56391e-07)
(0.118355 -0.0341492 0.000152472 0.0176998 -6.71299e-05 1.08568e-06)
(0.130057 -0.032247 0.00010312 0.0182177 -4.99493e-05 9.15322e-07)
(0.188123 -0.0430457 0.000174846 0.0184258 -7.11895e-05 1.03229e-06)
(0.198265 -0.0406081 0.000127484 0.0185363 -5.51851e-05 8.7751e-07)
(0.252484 -0.0489332 0.000198416 0.0184898 -7.43513e-05 9.84757e-07)
(0.262039 -0.0465656 0.000155523 0.0184751 -5.92453e-05 8.45565e-07)
(0.311718 -0.0531578 0.000225145 0.0183832 -7.60494e-05 9.39601e-07)
(0.321572 -0.0511939 0.000188319 0.0183498 -6.17809e-05 8.13799e-07)
(0.366974 -0.056566 0.000255629 0.0182788 -7.63883e-05 8.92015e-07)
(0.377858 -0.0550646 0.000224988 0.018231 -6.28088e-05 7.78044e-07)
(0.419116 -0.0595295 0.000288835 0.0182248 -7.54041e-05 8.40507e-07)
(0.431566 -0.0583691 0.000263499 0.0180845 -6.22812e-05 7.38943e-07)
(0.467709 -0.0621221 0.000323865 0.018197 -7.29969e-05 7.87711e-07)
(0.482969 -0.0615284 0.000300841 0.0179922 -6.04466e-05 7.00038e-07)
(0.510358 -0.0615989 0.000364042 0.0170538 -6.84181e-05 7.38844e-07)
(0.523936 -0.0666904 0.000333088 0.0208837 -6.26165e-05 6.62115e-07)
(0.0110982 0.000877673 6.13497e-05 0.000652448 2.00432e-05 1.1123e-06)
(0.0129722 0.000534779 3.90444e-05 0.00344232 3.83059e-05 9.33771e-07)
(0.0514471 0.00795278 0.000118027 0.00690386 6.20966e-05 1.07029e-06)
(0.0611001 0.00843334 7.32257e-05 0.0101263 5.64676e-05 9.07037e-07)
(0.112383 0.0194452 0.000142745 0.0124245 7.39126e-05 1.02564e-06)
(0.115352 0.019187 9.96919e-05 0.0140601 6.0682e-05 8.66676e-07)
(0.159155 0.0290184 0.000169691 0.0149864 7.82999e-05 9.74131e-07)
(0.158487 0.0275042 0.000131332 0.0156437 6.3561e-05 8.2843e-07)
(0.196091 0.0353653 0.000199015 0.0160485 7.94354e-05 9.28135e-07)
(0.196093 0.0334431 0.000165884 0.0163985 6.41451e-05 7.96602e-07)
(0.229827 0.0397496 0.000230037 0.0166492 7.80181e-05 8.84093e-07)
(0.232373 0.0379275 0.00020204 0.0168778 6.30503e-05 7.64347e-07)
(0.263483 0.0431023 0.000261364 0.0170712 7.53875e-05 8.3677e-07)
(0.268935 0.0416492 0.0002379 0.017211 6.11786e-05 7.27856e-07)
(0.298022 0.0461213 0.000291603 0.0174178 7.25248e-05 7.85592e-07)
(0.305775 0.0449909 0.000272223 0.0173919 5.86237e-05 6.88669e-07)
(0.334013 0.0493699 0.000320886 0.0179002 7.00818e-05 7.33756e-07)
(0.341822 0.0482114 0.000303132 0.017348 5.39281e-05 6.50632e-07)
(0.37332 0.0528116 0.000352212 0.0187359 6.74628e-05 6.83016e-07)
(0.371814 0.0556689 0.000321476 0.0215281 4.94747e-05 6.11907e-07)
(0.0122953 -0.00339524 7.0298e-05 0.00326996 -3.63537e-05 1.25587e-06)
(0.01531 -0.00657072 4.17743e-05 0.016774 -4.52987e-05 1.01625e-06)
(0.0512829 -0.0263646 0.000132511 0.0232776 -6.63217e-05 1.16979e-06)
(0.0471377 -0.0196079 9.38306e-05 0.0229015 -4.22778e-05 9.82215e-07)
(0.0732319 -0.0281134 0.000169899 0.0218001 -6.68633e-05 1.11706e-06)
(0.0662389 -0.0191881 0.00014335 0.0208699 -4.87234e-05 9.40836e-07)
(0.0881639 -0.0253651 0.000210126 0.0202446 -7.16742e-05 1.06369e-06)
(0.0900383 -0.0185633 0.00019129 0.0198327 -5.56585e-05 9.0522e-07)
(0.113054 -0.0241908 0.000249213 0.0194405 -7.59495e-05 1.01856e-06)
(0.122996 -0.0193005 0.000234804 0.0192099 -6.104e-05 8.76046e-07)
(0.146494 -0.0244136 0.000283898 0.0189602 -7.85954e-05 9.74073e-07)
(0.161233 -0.0209545 0.00027198 0.0188375 -6.44353e-05 8.44443e-07)
(0.183883 -0.0254595 0.00031241 0.0186903 -7.94564e-05 9.24863e-07)
(0.201168 -0.0230841 0.000302618 0.0186162 -6.58436e-05 8.07431e-07)
(0.222263 -0.0268817 0.000335341 0.0185404 -7.85929e-05 8.71444e-07)
(0.241853 -0.0257287 0.000329153 0.0184688 -6.56554e-05 7.67029e-07)
(0.25985 -0.0279646 0.000354064 0.018327 -7.57067e-05 8.17055e-07)
(0.284969 -0.0300038 0.000355489 0.0186192 -6.50835e-05 7.26878e-07)
(0.296285 -0.0269013 0.000370723 0.0160506 -6.81175e-05 7.68113e-07)
(0.330829 -0.037361 0.000381037 0.0194022 -6.5105e-05 6.8588e-07)
(0.0152559 -0.000612599 7.10609e-05 0.00107259 1.65882e-05 1.1033e-06)