/*--------------------------------*- C++ -*----------------------------------*\
  =========                 |
  \\      /  F ield         | OpenFOAM: The Open Source CFD Toolbox
   \\    /   O peration     | Website:  https://openfoam.org
    \\  /    A nd           | Version:  7
     \\/     M anipulation  |
\*---------------------------------------------------------------------------*/
FoamFile
{
    version     2.0;
    format      ascii;
    class       surfaceScalarField;
    location    "1.94";
    object      phi;
}
// * * * * * * * * * * * * * * * * * * * * * * * * * * * * * * * * * * * * * //

dimensions      [1 0 -1 0 0 0 0];

internalField   nonuniform List<scalar> 
21708
(
0.00129716
0.00100309
1.37149e-05
0.000899908
0.000391533
6.30081e-06
0.000690742
0.00019787
1.17774e-05
0.000601246
8.31369e-05
6.80891e-06
0.000549396
4.14173e-05
1.09148e-05
0.000519
2.39283e-05
7.01641e-06
0.000496019
1.33713e-05
1.02135e-05
0.000480019
9.47555e-06
7.15538e-06
0.000465887
5.1089e-06
9.65014e-06
0.000455506
3.75726e-06
7.23614e-06
0.000445653
1.28775e-06
9.16741e-06
0.000438331
6.62307e-07
7.25693e-06
0.000431057
-8.68369e-07
8.73685e-06
0.000425652
-1.23371e-06
7.22641e-06
0.000420047
-2.15835e-06
8.34134e-06
0.000415666
-2.2043e-06
7.15509e-06
0.000409779
-1.51508e-06
7.96688e-06
0.000406351
-3.06365e-06
7.05073e-06
0.000354595
4.45988e-05
7.71536e-06
2.54437e-05
6.6128e-06
0.000323096
0.00225155
0.00106218
2.96111e-06
0.0020626
0.000584923
-3.82641e-06
0.00185902
0.000400229
1.75125e-06
0.00171709
0.000228607
-3.08195e-06
0.00161481
0.000143051
1.10967e-06
0.00154518
9.67974e-05
-2.7474e-06
0.0014903
6.83018e-05
4.8624e-07
0.0014505
5.24145e-05
-2.56079e-06
0.00141538
4.08818e-05
-4.85491e-08
0.00138894
3.32754e-05
-2.46035e-06
0.00136395
2.74041e-05
-5.18937e-07
0.00134489
2.27669e-05
-2.42991e-06
0.00132616
1.94172e-05
-9.43422e-07
0.00131178
1.62091e-05
-2.45433e-06
0.00129769
1.38711e-05
-1.33733e-06
0.00128551
1.30945e-05
-2.52029e-06
0.0012785
7.80765e-06
-1.72803e-06
0.00126326
1.53642e-05
-2.61041e-06
0.00130454
6.1079e-06
-2.21719e-06
-2.10028e-05
-3.16484e-06
0.00135472
0.00257762
0.000788654
9.6933e-06
0.00266989
0.000489894
3.38062e-06
0.00266378
0.000398324
8.58721e-06
0.00262852
0.000260721
3.64886e-06
0.00258039
0.000183882
7.76042e-06
0.00253734
0.000136436
3.85724e-06
0.00249493
0.000104123
7.05397e-06
0.00246008
8.37554e-05
3.9864e-06
0.00242672
6.8268e-05
6.4792e-06
0.00239967
5.68096e-05
4.05875e-06
0.00237361
4.80532e-05
5.98921e-06
0.00235252
4.03909e-05
4.07468e-06
0.00233188
3.51373e-05
5.5545e-06
0.00231538
2.93075e-05
4.04115e-06
0.00229821
2.65404e-05
5.1568e-06
0.00228617
2.18217e-05
3.96647e-06
0.00226826
2.15757e-05
4.78803e-06
0.0022617
1.8712e-05
3.84579e-06
0.00223196
3.1899e-05
4.57697e-06
2.26837e-05
3.48456e-06
0.00218539
0.00258403
0.000513954
4.28122e-06
0.00274586
0.000330458
-1.76194e-06
0.00285261
0.00028875
3.3975e-06
0.00291502
0.000200322
-1.4852e-06
0.00294607
0.000150643
2.66589e-06
0.00296535
0.000118801
-1.20027e-06
0.00297185
9.60339e-05
2.03184e-06
0.00297588
8.11822e-05
-1.01638e-06
0.00297391
6.91873e-05
1.49562e-06
0.00297217
5.9933e-05
-9.14565e-07
0.00296729
5.24164e-05
1.02672e-06
0.00296336
4.5761e-05
-8.818e-07
0.00295787
4.06236e-05
6.04431e-07
0.00295302
3.56926e-05
-9.04314e-07
0.00294837
3.16432e-05
2.1255e-07
0.00294254
2.93147e-05
-9.71195e-07
0.00294142
2.35679e-05
-1.75307e-07
0.0029346
2.73266e-05
-1.08557e-06
0.00294913
1.8745e-05
-6.78847e-07
9.49619e-06
-1.55338e-06
0.00296455
0.00257291
0.000247135
7.6162e-06
0.00274222
0.000159995
1.78321e-06
0.00287795
0.000146795
6.80054e-06
0.00297251
0.000104374
1.90749e-06
0.003037
8.06037e-05
6.03197e-06
0.00308904
6.50603e-05
2.15053e-06
0.00312636
5.37884e-05
5.36692e-06
0.00315922
4.64394e-05
2.30844e-06
0.00318371
4.03134e-05
4.81034e-06
0.00320615
3.55324e-05
2.39478e-06
0.00322319
3.15105e-05
4.32971e-06
0.00323918
2.78684e-05
2.41834e-06
0.00325145
2.50205e-05
3.90046e-06
0.00326326
2.20987e-05
2.38951e-06
0.00327201
2.00438e-05
3.50557e-06
0.00328167
1.80304e-05
2.31652e-06
0.00328651
1.63051e-05
3.13456e-06
0.00329585
1.65361e-05
2.18639e-06
0.00329588
1.66014e-05
2.85002e-06
1.71605e-05
1.84346e-06
0.00328712
0.0025549
-7.27611e-11
5.88224e-06
0.00271539
1.81698e-10
1.35871e-07
0.00285763
-2.63253e-10
5.13292e-06
0.00296228
5.61879e-10
2.41932e-07
0.003039
-3.00841e-10
4.36584e-06
0.00310403
1.4729e-09
4.87822e-07
0.00315455
1.90587e-10
3.71063e-06
0.00320075
3.57924e-09
6.55071e-07
0.00323832
3.00935e-09
3.16116e-06
0.00327352
8.53182e-09
7.47497e-07
0.00330278
1.28449e-08
2.68492e-06
0.00333035
2.37488e-08
7.75015e-07
0.00335362
3.57335e-08
2.25855e-06
0.00337548
8.52221e-08
7.49288e-07
0.00339424
6.58322e-08
1.86481e-06
0.00341196
3.12972e-07
6.78853e-07
0.0034274
9.18203e-08
1.48382e-06
0.00344321
9.20474e-07
5.49479e-07
0.00345908
4.17503e-07
1.07029e-06
1.69436e-06
1.65968e-07
0.00347516
0.0025549
-0.000247135
5.88224e-06
0.00271539
-0.000159994
1.35869e-07
0.00285763
-0.000146796
5.13292e-06
0.00296228
-0.000104373
2.41927e-07
0.003039
-8.06041e-05
4.36585e-06
0.00310403
-6.50577e-05
4.8781e-07
0.00315455
-5.37876e-05
3.71064e-06
0.00320076
-4.64331e-05
6.55042e-07
0.00323832
-4.03066e-05
3.1612e-06
0.00327353
-3.55177e-05
7.47424e-07
0.00330279
-3.14828e-05
2.68501e-06
0.00333035
-2.78274e-05
7.74831e-07
0.00335362
-2.49442e-05
2.25877e-06
0.0033755
-2.19452e-05
7.48816e-07
0.00339425
-1.99008e-05
1.86541e-06
0.003412
-1.74358e-05
6.77696e-07
0.00342742
-1.61011e-05
1.48582e-06
0.00344324
-1.4705e-05
5.47271e-07
0.00345909
-1.57575e-05
1.07859e-06
-1.36153e-05
1.63253e-07
0.00347502
0.00257291
-0.000513954
7.6162e-06
0.00274222
-0.000330458
1.78321e-06
0.00287795
-0.00028875
6.80054e-06
0.00297251
-0.000200321
1.90749e-06
0.003037
-0.000150643
6.03196e-06
0.00308904
-0.000118798
2.15054e-06
0.00312636
-9.60336e-05
5.36691e-06
0.00315922
-8.11757e-05
2.30846e-06
0.00318371
-6.91821e-05
4.81031e-06
0.00320615
-5.99176e-05
2.39485e-06
0.0032232
-5.2394e-05
4.32964e-06
0.00323918
-4.57189e-05
2.41851e-06
0.00325147
-4.05619e-05
3.90024e-06
0.00326329
-3.5542e-05
2.38995e-06
0.00327207
-3.15359e-05
3.50495e-06
0.00328176
-2.87557e-05
2.31765e-06
0.00328669
-2.34543e-05
3.13255e-06
0.0032962
-2.56582e-05
2.18839e-06
0.00329651
-1.81759e-05
2.84263e-06
-6.64849e-06
1.84472e-06
0.00328844
0.00258403
-0.000788654
4.28122e-06
0.00274586
-0.000489894
-1.76194e-06
0.00285261
-0.000398324
3.3975e-06
0.00291502
-0.00026072
-1.48521e-06
0.00294607
-0.000183882
2.6659e-06
0.00296536
-0.000136434
-1.20028e-06
0.00297185
-0.000104122
2.03186e-06
0.00297588
-8.37511e-05
-1.0164e-06
0.00297391
-6.82625e-05
1.49566e-06
0.00297218
-5.67996e-05
-9.14628e-07
0.0029673
-4.80322e-05
1.02683e-06
0.00296338
-4.03632e-05
-8.81959e-07
0.00295789
-3.50809e-05
6.04669e-07
0.0029531
-2.92008e-05
-9.0469e-07
0.00294846
-2.64422e-05
2.13125e-07
0.00294275
-2.13909e-05
-9.72058e-07
0.00294165
-2.14776e-05
-1.73429e-07
0.0029351
-1.73215e-05
-1.08741e-06
0.00294976
-3.14619e-05
-6.70722e-07
-2.01947e-05
-1.55591e-06
0.00296554
0.00257762
-0.00106218
9.6933e-06
0.00266989
-0.000584923
3.38062e-06
0.00266378
-0.00040023
8.5872e-06
0.00262852
-0.000228607
3.64886e-06
0.00258039
-0.000143051
7.76041e-06
0.00253734
-9.67964e-05
3.85725e-06
0.00249493
-6.83014e-05
7.05397e-06
0.00246008
-5.24117e-05
3.98642e-06
0.00242673
-4.08786e-05
6.47918e-06
0.00239968
-3.32689e-05
4.0588e-06
0.00237363
-2.73918e-05
5.98915e-06
0.00235255
-2.27494e-05
4.0748e-06
0.00233193
-1.93846e-05
5.55433e-06
0.00231547
-1.61414e-05
4.04149e-06
0.00229835
-1.38229e-05
5.15627e-06
0.00228646
-1.28198e-05
3.96739e-06
0.00226867
-7.81739e-06
4.78642e-06
0.0022626
-1.44679e-05
3.84741e-06
0.00223335
-6.16226e-06
4.57184e-06
2.19941e-05
3.48401e-06
0.00218828
0.00225155
-0.00100309
2.9611e-06
0.0020626
-0.000391533
-3.82642e-06
0.00185902
-0.00019787
1.75125e-06
0.00171709
-8.3137e-05
-3.08196e-06
0.00161481
-4.14174e-05
1.10968e-06
0.00154518
-2.39282e-05
-2.7474e-06
0.0014903
-1.3371e-05
4.86255e-07
0.00145051
-9.475e-06
-2.56081e-06
0.00141539
-5.10736e-06
-4.85162e-08
0.00138895
-3.75608e-06
-2.4604e-06
0.00136397
-1.28225e-06
-5.18852e-07
0.00134492
-6.59189e-07
-2.43004e-06
0.00132621
8.8306e-07
-9.43221e-07
0.00131188
1.24904e-06
-2.45462e-06
0.00129782
2.18607e-06
-1.33684e-06
0.00128583
2.28006e-06
-2.52097e-06
0.00127878
1.55326e-06
-1.72649e-06
0.00126415
3.34728e-06
-2.6123e-06
0.00130507
-4.43072e-05
-2.21022e-06
-2.48341e-05
-3.16945e-06
0.00135564
0.00129716
1.37149e-05
0.000899908
6.30079e-06
0.000690742
1.17773e-05
0.000601246
6.80889e-06
0.000549396
1.09148e-05
0.000519
7.01639e-06
0.00049602
1.02135e-05
0.00048002
7.15537e-06
0.00046589
9.65009e-06
0.000455511
7.23614e-06
0.000445663
9.16733e-06
0.000438344
7.257e-06
0.000431085
8.73669e-06
0.000425695
7.22667e-06
0.000420119
8.34089e-06
0.000415813
7.15588e-06
0.000409965
7.96574e-06
0.000406819
7.05236e-06
0.000355356
7.71292e-06
6.61402e-06
0.000324466
0.00190266
0.000421039
3.1956e-06
0.00138765
0.000516911
5.01282e-06
0.00104535
0.000352279
2.30276e-06
0.000865201
0.000183592
3.8163e-06
0.000777028
9.7241e-05
2.31762e-06
0.000723816
5.72848e-05
3.48279e-06
0.000690872
4.13047e-05
2.46038e-06
0.000662314
3.31279e-05
3.22974e-06
0.000642316
2.77597e-05
2.52703e-06
0.000623062
2.41017e-05
3.00287e-06
0.000609314
2.09588e-05
2.55606e-06
0.000595483
1.88526e-05
2.83236e-06
0.00058524
1.69966e-05
2.58114e-06
0.000574901
1.54356e-05
2.72154e-06
0.000566473
1.47277e-05
2.62095e-06
0.000558573
1.29648e-05
2.6602e-06
0.000555056
9.35972e-06
2.68858e-06
0.000537954
2.20806e-05
2.63144e-06
0.000640346
-9.68494e-05
2.73452e-06
-7.85542e-05
2.85979e-06
0.000723216
0.00240834
0.000320625
8.46676e-06
0.00235018
0.000561526
1.03455e-05
0.00222967
0.000467252
7.84e-06
0.00209611
0.000305375
9.18049e-06
0.00198791
0.000199243
7.76445e-06
0.00189848
0.00013563
8.8015e-06
0.00183158
0.000101292
7.89829e-06
0.00177426
7.98833e-05
8.55576e-06
0.00173031
6.42941e-05
7.96099e-06
0.00169058
5.36399e-05
8.34148e-06
0.00165929
4.43665e-05
7.98157e-06
0.00163003
3.81339e-05
8.17642e-06
0.00160619
3.25247e-05
7.99753e-06
0.0015838
2.79338e-05
8.06493e-06
0.00156395
2.58376e-05
8.02664e-06
0.00154773
1.9271e-05
7.99785e-06
0.00152653
2.13438e-05
8.08628e-06
0.00152446
1.41648e-05
7.95708e-06
0.00144184
-2.40935e-05
8.21436e-06
4.92787e-06
8.22323e-06
0.00134753
0.00243159
0.000207752
4.20197e-06
0.00256246
0.000428412
6.24997e-06
0.00262793
0.000407566
3.37888e-06
0.00262983
0.000302487
5.1525e-06
0.00261078
0.000223129
3.38534e-06
0.00257849
0.000167442
4.79159e-06
0.00254946
0.000134178
3.6463e-06
0.0025183
0.000110921
4.57225e-06
0.0024924
9.33706e-05
3.80257e-06
0.00246586
8.04025e-05
4.37127e-06
0.00244382
6.90987e-05
3.8802e-06
0.00242148
6.09569e-05
4.21074e-06
0.00240287
5.33975e-05
3.93527e-06
0.00238365
4.77499e-05
4.10227e-06
0.00236855
4.27757e-05
3.99371e-06
0.00235009
3.83364e-05
4.0413e-06
0.00234204
3.07813e-05
4.06615e-06
0.00232068
3.59909e-05
4.02722e-06
0.00233084
-3.31152e-05
4.06801e-06
-1.36836e-05
4.2066e-06
0.00234934
0.00238367
0.000134396
7.33572e-06
0.00252761
0.000274085
9.25411e-06
0.00266355
0.000268745
6.8498e-06
0.00274631
0.000210503
8.25536e-06
0.00280225
0.000163545
6.78558e-06
0.00283223
0.00012888
7.84003e-06
0.00285436
0.00010761
6.90591e-06
0.00286514
9.19724e-05
7.58706e-06
0.00287387
7.96033e-05
6.97689e-06
0.00287647
6.99812e-05
7.37659e-06
0.00287888
6.12365e-05
7.0048e-06
0.00287771
5.46059e-05
7.21305e-06
0.00287691
4.8389e-05
7.02424e-06
0.00287403
4.32792e-05
7.10123e-06
0.00287118
3.94749e-05
7.05449e-06
0.00286809
3.41264e-05
7.03525e-06
0.0028608
3.15052e-05
7.11215e-06
0.00286043
2.89768e-05
7.01515e-06
0.00282125
-1.16188e-06
7.2528e-06
2.38523e-05
7.25784e-06
0.00277558
0.00238575
6.42284e-05
5.30168e-06
0.00252007
0.000134887
7.28671e-06
0.00265619
0.000135274
4.72908e-06
0.0027546
0.000108235
6.28421e-06
0.00283342
8.65665e-05
4.66682e-06
0.00288902
7.00349e-05
5.85681e-06
0.00293764
5.9968e-05
4.82689e-06
0.00297436
5.23817e-05
5.61275e-06
0.00300788
4.6387e-05
4.9338e-06
0.0030337
4.15952e-05
5.41018e-06
0.0030576
3.7163e-05
4.98658e-06
0.00307616
3.37492e-05
5.25152e-06
0.00309367
3.03571e-05
5.02416e-06
0.00310701
2.78207e-05
5.14378e-06
0.00312046
2.51409e-05
5.06816e-06
0.00312916
2.33672e-05
5.08298e-06
0.00314021
1.91976e-05
5.12784e-06
0.00314569
2.13613e-05
5.07716e-06
0.00314583
-2.86426e-06
5.16268e-06
7.8131e-06
5.26476e-06
0.0031592
0.00237712
-1.54583e-10
6.30247e-06
0.00250452
2.92914e-10
8.25004e-06
0.00263968
-2.04346e-10
5.82409e-06
0.00274138
7.00503e-10
7.28689e-06
0.00282704
-1.18594e-10
5.75461e-06
0.00289117
1.62421e-09
6.85527e-06
0.00294941
6.64952e-10
5.88281e-06
0.00299626
3.86183e-09
6.60445e-06
0.00304026
3.74709e-09
5.96946e-06
0.00307664
1.05423e-08
6.39979e-06
0.00311094
1.21729e-08
6.00942e-06
0.00313972
3.30359e-08
6.2402e-06
0.00316685
3.07875e-08
6.03736e-06
0.00318981
1.06088e-07
6.13122e-06
0.00321133
8.08001e-08
6.07374e-06
0.00322971
3.02393e-07
6.06883e-06
0.00324472
2.78179e-07
6.1318e-06
0.00326058
7.53294e-07
6.06248e-06
0.00325237
9.55781e-07
6.23418e-06
1.84076e-06
6.27494e-06
0.00325301
0.00237712
-6.42287e-05
6.30247e-06
0.00250452
-0.000134886
8.25004e-06
0.00263968
-0.000135274
5.82408e-06
0.00274138
-0.000108234
7.28689e-06
0.00282704
-8.65669e-05
5.75461e-06
0.00289117
-7.00314e-05
6.85528e-06
0.00294941
-5.99672e-05
5.8828e-06
0.00299626
-5.23732e-05
6.60446e-06
0.00304027
-4.63809e-05
5.96944e-06
0.00307664
-4.15721e-05
6.39983e-06
0.00311094
-3.71426e-05
6.00937e-06
0.00313972
-3.36782e-05
6.2403e-06
0.00316686
-3.03066e-05
6.03723e-06
0.0031898
-2.75976e-05
6.13147e-06
0.00321136
-2.5013e-05
6.07339e-06
0.00322973
-2.27506e-05
6.06941e-06
0.00324485
-1.87534e-05
6.1306e-06
0.00326082
-1.99643e-05
6.06342e-06
0.00325272
4.67962e-06
6.22875e-06
-4.54141e-06
6.2763e-06
0.00325376
0.00238575
-0.000134396
5.30168e-06
0.00252007
-0.000274085
7.28671e-06
0.00265619
-0.000268746
4.72908e-06
0.0027546
-0.000210502
6.28421e-06
0.00283342
-0.000163545
4.66682e-06
0.00288902
-0.000128877
5.85681e-06
0.00293764
-0.000107609
4.8269e-06
0.00297436
-9.19652e-05
5.61274e-06
0.00300788
-7.95966e-05
4.93382e-06
0.0030337
-6.99617e-05
5.41014e-06
0.0030576
-6.12149e-05
4.98663e-06
0.00307618
-5.45455e-05
5.25143e-06
0.00309368
-4.83352e-05
5.02427e-06
0.00310705
-4.30866e-05
5.14355e-06
0.00312049
-3.93371e-05
5.06848e-06
0.00312927
-3.35821e-05
5.0824e-06
0.00314028
-3.10249e-05
5.12892e-06
0.00314584
-2.76601e-05
5.07614e-06
0.00314606
2.88651e-06
5.16734e-06
-2.05165e-05
5.26348e-06
0.00315936
0.00238367
-0.000207753
7.33572e-06
0.00252761
-0.000428411
9.25411e-06
0.00266355
-0.000407567
6.8498e-06
0.00274631
-0.000302485
8.25537e-06
0.00280225
-0.00022313
6.78558e-06
0.00283223
-0.000167439
7.84003e-06
0.00285436
-0.000134177
6.9059e-06
0.00286514
-0.000110914
7.58708e-06
0.00287387
-9.33659e-05
6.97686e-06
0.00287648
-8.03848e-05
7.37663e-06
0.00287889
-6.90832e-05
7.00475e-06
0.00287772
-6.09029e-05
7.21313e-06
0.00287695
-5.33615e-05
7.0241e-06
0.00287409
-4.75792e-05
7.10143e-06
0.00287129
-4.26928e-05
7.05412e-06
0.00286828
-3.78657e-05
7.0357e-06
0.00286117
-3.04867e-05
7.11091e-06
0.00286108
-3.49542e-05
7.01592e-06
0.0028224
3.43594e-05
7.24772e-06
1.59839e-05
7.25836e-06
0.00277776
0.00243159
-0.000320625
4.20197e-06
0.00256246
-0.000561525
6.24997e-06
0.00262793
-0.000467252
3.37888e-06
0.00262983
-0.000305374
5.1525e-06
0.00261078
-0.000199243
3.38534e-06
0.00257849
-0.000135629
4.79159e-06
0.00254946
-0.000101291
3.64631e-06
0.0025183
-7.98796e-05
4.57225e-06
0.0024924
-6.42896e-05
3.80259e-06
0.00246587
-5.36299e-05
4.37124e-06
0.00244383
-4.43529e-05
3.88024e-06
0.00242151
-3.81029e-05
4.21068e-06
0.00240291
-3.24926e-05
3.93536e-06
0.00238376
-2.78324e-05
4.10209e-06
0.00236867
-2.57614e-05
3.99398e-06
0.00235039
-1.89871e-05
4.04081e-06
0.00234237
-2.10731e-05
4.06695e-06
0.0023214
-1.35144e-05
4.02625e-06
0.00233177
2.51192e-05
4.07115e-06
-3.08354e-06
4.20565e-06
0.00235072
0.00240834
-0.000421039
8.46676e-06
0.00235018
-0.000516911
1.03455e-05
0.00222967
-0.000352279
7.84e-06
0.00209611
-0.000183591
9.18049e-06
0.00198791
-9.7241e-05
7.76444e-06
0.00189848
-5.7284e-05
8.8015e-06
0.00183158
-4.13044e-05
7.89828e-06
0.00177427
-3.31261e-05
8.55578e-06
0.00173031
-2.77582e-05
7.96097e-06
0.00169059
-2.4097e-05
8.34151e-06
0.00165931
-2.09543e-05
7.98153e-06
0.00163007
-1.88382e-05
8.17649e-06
0.00160625
-1.69873e-05
7.99741e-06
0.00158391
-1.53882e-05
8.0651e-06
0.00156412
-1.47124e-05
8.02631e-06
0.00154806
-1.28312e-05
7.99828e-06
0.0015271
-9.3296e-06
8.08521e-06
0.00152534
-2.17475e-05
7.9581e-06
0.00144385
9.67572e-05
8.21012e-06
7.8425e-05
8.22511e-06
0.0013515
0.00190266
3.1956e-06
0.00138765
5.01282e-06
0.00104535
2.30276e-06
0.000865201
3.8163e-06
0.000777029
2.31762e-06
0.000723817
3.48279e-06
0.000690874
2.46039e-06
0.000662317
3.22973e-06
0.00064232
2.52704e-06
0.000623071
3.00286e-06
0.000609327
2.55608e-06
0.000595511
2.83232e-06
0.000585277
2.58119e-06
0.000574986
2.72142e-06
0.000566573
2.62108e-06
0.000558808
2.65989e-06
0.000555319
2.68887e-06
0.000538554
2.6307e-06
0.000640848
2.73511e-06
2.85855e-06
0.00072359
0.00214506
0.000171127
-2.65613e-12
0.00190254
0.000248148
-2.60665e-12
0.00164304
0.000262345
-2.45959e-12
0.00141489
0.000232427
-2.48808e-12
0.00123117
0.000186458
-2.89048e-12
0.00109584
0.000139284
-3.47084e-12
0.000999432
9.94521e-05
-3.96571e-12
0.000934499
6.88527e-05
-4.15908e-12
0.000889776
4.79336e-05
-3.81156e-12
0.000859695
3.36906e-05
-3.18682e-12
0.000837855
2.49509e-05
-2.52251e-12
0.000822057
1.91908e-05
-2.20596e-12
0.000809641
1.55826e-05
-2.05636e-12
0.000799537
1.34169e-05
-2.09433e-12
0.000791782
1.09511e-05
-2.115e-12
0.000783365
1.16359e-05
-2.33547e-12
0.000780519
6.09088e-06
-2.57575e-12
0.000769779
1.39292e-05
-2.91135e-12
0.000778126
-5.04173e-06
-3.15799e-12
-2.98264e-06
-3.39369e-12
0.000784545
0.00236927
0.000123304
-2.67725e-12
0.00241588
0.000212505
-3.07403e-12
0.00242443
0.000262204
-3.65094e-12
0.00240216
0.000264377
-3.14511e-12
0.00235812
0.000238727
-1.66857e-12
0.00230625
0.000200384
-1.23895e-12
0.00225185
0.000162191
-2.77728e-12
0.00220062
0.000129131
-4.56427e-12
0.0021528
0.000104254
-4.59712e-12
0.00210996
8.54684e-05
-3.26664e-12
0.00207108
7.24441e-05
-2.07723e-12
0.00203656
6.25456e-05
-1.9711e-12
0.0020055
5.5301e-05
-2.26108e-12
0.00197793
4.97138e-05
-2.33278e-12
0.00195336
4.41969e-05
-1.92797e-12
0.00193123
4.2389e-05
-1.72436e-12
0.00191244
3.35627e-05
-1.71166e-12
0.00189377
4.11185e-05
-2.10513e-12
0.00188034
1.71427e-05
-2.5683e-12
3.50263e-05
-3.13783e-12
0.00185109
0.00235727
8.32144e-05
-2.68354e-12
0.00242757
0.000149086
-2.86552e-12
0.00250014
0.000193568
-3.27895e-12
0.0025664
0.00020378
-3.33676e-12
0.00261612
0.000192866
-2.71626e-12
0.00265123
0.000170513
-2.01393e-12
0.00267203
0.000145466
-1.71531e-12
0.00268345
0.000122707
-1.96608e-12
0.00268739
0.000104574
-2.3042e-12
0.00268708
9.06407e-05
-2.58589e-12
0.00268364
8.03191e-05
-2.8171e-12
0.00267842
7.25802e-05
-3.13527e-12
0.00267227
6.60399e-05
-3.29147e-12
0.00266509
6.16863e-05
-3.24469e-12
0.00265845
5.55465e-05
-2.81267e-12
0.0026504
5.51996e-05
-2.3983e-12
0.00264453
4.42162e-05
-1.88706e-12
0.00263591
5.44514e-05
-1.74093e-12
0.00263078
2.70003e-05
-1.63081e-12
5.12948e-05
-1.84615e-12
0.00261932
0.00234742
5.61084e-05
-2.69927e-12
0.00240787
9.85119e-05
-2.75802e-12
0.00248125
0.000127599
-2.8811e-12
0.0025586
0.000135197
-2.99837e-12
0.00262893
0.000129798
-2.88952e-12
0.00269087
0.000116856
-2.69326e-12
0.00274169
0.000101991
-2.35405e-12
0.00278415
8.82517e-05
-2.03917e-12
0.00281882
7.73083e-05
-1.67283e-12
0.00284837
6.89282e-05
-1.5837e-12
0.00287349
6.27185e-05
-1.74491e-12
0.00289564
5.82114e-05
-2.24764e-12
0.00291519
5.41343e-05
-2.70448e-12
0.00293279
5.18538e-05
-3.09245e-12
0.00294862
4.74817e-05
-3.19736e-12
0.00296327
4.83266e-05
-3.19821e-12
0.00297587
3.94882e-05
-3.11559e-12
0.00298891
4.91924e-05
-2.94523e-12
0.00299665
2.72561e-05
-2.91614e-12
5.23013e-05
-2.65845e-12
0.00300361
0.002348
2.63858e-05
-2.69741e-12
0.00240667
4.77527e-05
-2.75546e-12
0.00247671
6.28518e-05
-2.74038e-12
0.00255193
6.67687e-05
-2.81655e-12
0.00262264
6.42288e-05
-2.80547e-12
0.00268775
5.80544e-05
-2.84494e-12
0.0027441
5.08951e-05
-2.68735e-12
0.00279401
4.43795e-05
-2.5116e-12
0.00283752
3.91571e-05
-2.15621e-12
0.00287703
3.52826e-05
-1.9849e-12
0.00291289
3.23506e-05
-1.90077e-12
0.00294651
3.04075e-05
-2.12237e-12
0.00297785
2.84232e-05
-2.3518e-12
0.00300782
2.76833e-05
-2.65024e-12
0.00303576
2.53117e-05
-2.84197e-12
0.00306348
2.64271e-05
-3.02973e-12
0.0030875
2.13531e-05
-3.23236e-12
0.00311508
2.74833e-05
-3.38071e-12
0.00313297
1.53034e-05
-3.47628e-12
2.96383e-05
-3.54631e-12
0.00316165
0.00234566
-1.98823e-10
-2.7005e-12
0.00240229
4.55985e-10
-2.7358e-12
0.00247153
-4.51154e-10
-2.71922e-12
0.00254609
1.07469e-09
-2.74276e-12
0.00261655
-5.40042e-10
-2.73882e-12
0.00268191
2.34819e-09
-2.78928e-12
0.00273912
7.19257e-11
-2.73522e-12
0.00279051
5.27249e-09
-2.68715e-12
0.00283606
2.63651e-09
-2.53581e-12
0.00287819
1.34247e-08
-2.48653e-12
0.00291704
9.04151e-09
-2.43707e-12
0.00295421
3.89646e-08
-2.52262e-12
0.00298926
2.09649e-08
-2.56469e-12
0.00302361
1.15457e-07
-2.66304e-12
0.00305564
4.81547e-08
-2.71335e-12
0.00308856
3.12255e-07
-2.84106e-12
0.00311665
1.62314e-07
-2.94561e-12
0.00315026
7.21996e-07
-3.11146e-12
0.00317192
6.6864e-07
-3.15154e-12
1.44053e-06
-3.23359e-12
0.00320716
0.00234566
-2.63862e-05
-2.69991e-12
0.00240229
-4.77518e-05
-2.72118e-12
0.00247153
-6.28528e-05
-2.72197e-12
0.00254609
-6.67665e-05
-2.72284e-12
0.00261655
-6.423e-05
-2.70241e-12
0.00268191
-5.80495e-05
-2.72105e-12
0.00273912
-5.08952e-05
-2.70946e-12
0.00279051
-4.43687e-05
-2.7728e-12
0.00283606
-3.91524e-05
-2.83683e-12
0.00287819
-3.52553e-05
-2.97756e-12
0.00291705
-3.23336e-05
-3.02813e-12
0.00295421
-3.0329e-05
-3.07289e-12
0.00298926
-2.83835e-05
-2.97489e-12
0.00302361
-2.74523e-05
-2.92242e-12
0.00305565
-2.52205e-05
-2.79745e-12
0.00308857
-2.5806e-05
-2.8045e-12
0.00311667
-2.10426e-05
-2.694e-12
0.00315031
-2.60616e-05
-2.69115e-12
0.00317201
-1.40183e-05
-2.57634e-12
-2.68625e-05
-2.46117e-12
0.00320736
0.002348
-5.61088e-05
-2.7022e-12
0.00240667
-9.8511e-05
-2.70303e-12
0.00247671
-0.0001276
-2.70151e-12
0.00255193
-0.000135195
-2.64701e-12
0.00262264
-0.0001298
-2.63311e-12
0.00268775
-0.000116851
-2.66648e-12
0.0027441
-0.000101991
-2.77021e-12
0.00279401
-8.82413e-05
-2.97486e-12
0.00283752
-7.73036e-05
-3.24816e-12
0.00287703
-6.89024e-05
-3.5033e-12
0.00291289
-6.27015e-05
-3.57285e-12
0.00294651
-5.81374e-05
-3.46527e-12
0.00297786
-5.4095e-05
-3.16973e-12
0.00300784
-5.16348e-05
-2.9137e-12
0.00303578
-4.73948e-05
-2.64627e-12
0.00306353
-4.77328e-05
-2.58682e-12
0.00308758
-3.92003e-05
-2.36042e-12
0.0031152
-4.78216e-05
-2.37433e-12
0.00313318
-2.60529e-05
-2.19085e-12
-4.96038e-05
-2.17705e-12
0.00316194
0.00234742
-8.32147e-05
-2.69434e-12
0.00240787
-0.000149085
-2.69571e-12
0.00248125
-0.000193569
-2.5502e-12
0.0025586
-0.000203778
-2.45695e-12
0.00262893
-0.000192867
-2.54474e-12
0.00269088
-0.000170508
-2.8331e-12
0.00274169
-0.000145467
-3.14224e-12
0.00278415
-0.000122697
-3.50468e-12
0.00281882
-0.00010457
-3.77237e-12
0.00284837
-9.06161e-05
-3.90356e-12
0.0028735
-8.03054e-05
-3.68919e-12
0.00289565
-7.25114e-05
-3.27215e-12
0.00291521
-6.60089e-05
-2.74443e-12
0.00293283
-6.14852e-05
-2.40979e-12
0.00294868
-5.54825e-05
-2.25452e-12
0.00296338
-5.46593e-05
-2.38844e-12
0.00297605
-4.39974e-05
-2.45713e-12
0.00298924
-5.32302e-05
-2.80343e-12
0.0029972
-2.60221e-05
-2.73577e-12
-4.90449e-05
-3.16333e-12
0.00300461
0.00235727
-0.000123304
-2.7113e-12
0.00242757
-0.000212505
-2.57041e-12
0.00250014
-0.000262204
-2.13131e-12
0.0025664
-0.000264375
-2.12791e-12
0.00261612
-0.000238728
-2.77279e-12
0.00265123
-0.00020038
-3.58205e-12
0.00267203
-0.000162192
-3.84454e-12
0.00268346
-0.000129123
-3.63509e-12
0.00268739
-0.000104251
-3.18332e-12
0.00268709
-8.54499e-05
-2.89548e-12
0.00268365
-7.24328e-05
-2.5439e-12
0.00267845
-6.24934e-05
-2.27346e-12
0.00267231
-5.52777e-05
-2.07068e-12
0.00266518
-4.95605e-05
-2.24383e-12
0.00265856
-4.41562e-05
-2.70097e-12
0.00265064
-4.19755e-05
-3.25259e-12
0.00264485
-3.34227e-05
-3.75934e-12
0.00263652
-4.01917e-05
-4.00905e-12
0.00263167
-1.64459e-05
-4.01309e-12
-3.33781e-05
-3.97611e-12
0.00262081
0.00236927
-0.000171127
-2.68493e-12
0.00241588
-0.000248148
-2.30494e-12
0.00242443
-0.000262345
-1.75064e-12
0.00240216
-0.000232426
-2.44112e-12
0.00235812
-0.000186459
-3.90973e-12
0.00230625
-0.000139282
-4.27326e-12
0.00225186
-9.94515e-05
-2.6768e-12
0.00220062
-6.88495e-05
-9.15505e-13
0.00215281
-4.79307e-05
-8.1573e-13
0.00210998
-3.36829e-05
-2.14408e-12
0.0020711
-2.49431e-05
-3.18421e-12
0.0020366
-1.91673e-05
-3.39196e-12
0.00200556
-1.55686e-05
-3.16787e-12
0.00197807
-1.33433e-05
-3.30584e-12
0.00195352
-1.09347e-05
-3.6988e-12
0.0019316
-1.14277e-05
-3.99274e-12
0.0019129
-6.04327e-06
-3.96021e-12
0.0018947
-1.34672e-05
-3.56133e-12
0.00188166
5.34618e-06
-3.13497e-12
3.48015e-06
-2.59386e-12
0.00185355
0.00214506
-2.66459e-12
0.00190254
-2.66061e-12
0.00164304
-2.93493e-12
0.00141489
-3.32769e-12
0.00123117
-2.93113e-12
0.00109584
-1.94444e-12
0.000999434
-1.06818e-12
0.000934505
-1.22045e-12
0.000889785
-1.96488e-12
0.000859712
-2.67383e-12
0.000837879
-2.95498e-12
0.000822104
-3.14205e-12
0.000809703
-3.29065e-12
0.000799672
-3.4981e-12
0.000791933
-3.45444e-12
0.000783725
-3.29925e-12
0.000780926
-2.95207e-12
0.00077065
-2.6994e-12
0.000779298
-2.4589e-12
-2.33099e-12
0.000786209
0.00214506
0.000171127
-3.1956e-06
0.00190254
0.000248148
-5.01282e-06
0.00164304
0.000262345
-2.30277e-06
0.00141489
0.000232427
-3.8163e-06
0.00123117
0.000186458
-2.31762e-06
0.00109584
0.000139284
-3.4828e-06
0.000999432
9.94521e-05
-2.46039e-06
0.000934499
6.88527e-05
-3.22974e-06
0.000889776
4.79336e-05
-2.52704e-06
0.000859695
3.36906e-05
-3.00288e-06
0.000837855
2.49509e-05
-2.55606e-06
0.000822057
1.91908e-05
-2.83236e-06
0.000809641
1.55825e-05
-2.58114e-06
0.000799537
1.34169e-05
-2.72154e-06
0.000791782
1.09511e-05
-2.62096e-06
0.000783365
1.16359e-05
-2.66021e-06
0.000780519
6.09089e-06
-2.68858e-06
0.000769779
1.39292e-05
-2.63144e-06
0.000778126
-5.04173e-06
-2.73452e-06
-2.98263e-06
-2.8598e-06
0.000784545
0.00236927
0.000123304
-8.46676e-06
0.00241588
0.000212505
-1.03455e-05
0.00242443
0.000262204
-7.84e-06
0.00240216
0.000264377
-9.18049e-06
0.00235812
0.000238727
-7.76445e-06
0.00230625
0.000200384
-8.8015e-06
0.00225185
0.000162191
-7.89829e-06
0.00220062
0.000129131
-8.55577e-06
0.0021528
0.000104254
-7.961e-06
0.00210996
8.54684e-05
-8.34148e-06
0.00207108
7.2444e-05
-7.98157e-06
0.00203656
6.25455e-05
-8.17642e-06
0.0020055
5.53009e-05
-7.99753e-06
0.00197793
4.97138e-05
-8.06493e-06
0.00195336
4.41969e-05
-8.02664e-06
0.00193123
4.2389e-05
-7.99785e-06
0.00191244
3.35627e-05
-8.08628e-06
0.00189377
4.11185e-05
-7.95708e-06
0.00188034
1.71427e-05
-8.21436e-06
3.50263e-05
-8.22323e-06
0.00185109
0.00235727
8.32144e-05
-4.20197e-06
0.00242757
0.000149086
-6.24998e-06
0.00250014
0.000193568
-3.37888e-06
0.0025664
0.00020378
-5.1525e-06
0.00261612
0.000192866
-3.38534e-06
0.00265123
0.000170513
-4.79159e-06
0.00267203
0.000145466
-3.64631e-06
0.00268345
0.000122707
-4.57226e-06
0.00268739
0.000104574
-3.80257e-06
0.00268708
9.06407e-05
-4.37127e-06
0.00268364
8.0319e-05
-3.88021e-06
0.00267842
7.25801e-05
-4.21075e-06
0.00267227
6.60399e-05
-3.93527e-06
0.00266509
6.16863e-05
-4.10227e-06
0.00265845
5.55465e-05
-3.99371e-06
0.0026504
5.51997e-05
-4.0413e-06
0.00264453
4.42162e-05
-4.06615e-06
0.00263591
5.44514e-05
-4.02723e-06
0.00263078
2.70002e-05
-4.06801e-06
5.12948e-05
-4.2066e-06
0.00261932
0.00234742
5.61084e-05
-7.33572e-06
0.00240787
9.85119e-05
-9.25411e-06
0.00248125
0.000127599
-6.84981e-06
0.0025586
0.000135197
-8.25537e-06
0.00262893
0.000129799
-6.78558e-06
0.00269087
0.000116856
-7.84003e-06
0.00274169
0.000101991
-6.90591e-06
0.00278415
8.82517e-05
-7.58707e-06
0.00281882
7.73083e-05
-6.97689e-06
0.00284837
6.89282e-05
-7.3766e-06
0.00287349
6.27184e-05
-7.00481e-06
0.00289564
5.82113e-05
-7.21305e-06
0.00291519
5.41342e-05
-7.02424e-06
0.00293279
5.18537e-05
-7.10123e-06
0.00294862
4.74818e-05
-7.05449e-06
0.00296327
4.83266e-05
-7.03526e-06
0.00297587
3.94882e-05
-7.11215e-06
0.00298891
4.91924e-05
-7.01515e-06
0.00299665
2.72561e-05
-7.2528e-06
5.23013e-05
-7.25784e-06
0.00300361
0.002348
2.63858e-05
-5.30168e-06
0.00240667
4.77527e-05
-7.28671e-06
0.00247671
6.28519e-05
-4.72909e-06
0.00255193
6.67688e-05
-6.28421e-06
0.00262264
6.42289e-05
-4.66682e-06
0.00268775
5.80544e-05
-5.85682e-06
0.0027441
5.08951e-05
-4.82689e-06
0.00279401
4.43795e-05
-5.61275e-06
0.00283752
3.91571e-05
-4.9338e-06
0.00287703
3.52825e-05
-5.41018e-06
0.00291289
3.23504e-05
-4.98659e-06
0.00294651
3.04074e-05
-5.25152e-06
0.00297785
2.84231e-05
-5.02416e-06
0.00300782
2.76832e-05
-5.14379e-06
0.00303576
2.53117e-05
-5.06817e-06
0.00306348
2.64272e-05
-5.08298e-06
0.0030875
2.13531e-05
-5.12785e-06
0.00311508
2.74834e-05
-5.07716e-06
0.00313297
1.53034e-05
-5.16268e-06
2.96383e-05
-5.26476e-06
0.00316165
0.00234566
-1.96287e-10
-6.30248e-06
0.00240229
4.72148e-10
-8.25004e-06
0.00247153
-4.23e-10
-5.82409e-06
0.00254609
1.10637e-09
-7.28689e-06
0.00261655
-5.1856e-10
-5.75461e-06
0.00268191
2.36391e-09
-6.85528e-06
0.00273912
8.50724e-11
-5.88281e-06
0.00279051
5.29047e-09
-6.60445e-06
0.00283606
2.62811e-09
-5.96946e-06
0.00287819
1.33558e-08
-6.3998e-06
0.00291704
8.90469e-09
-6.00942e-06
0.00295421
3.88084e-08
-6.2402e-06
0.00298926
2.08503e-08
-6.03736e-06
0.00302361
1.1542e-07
-6.13123e-06
0.00305564
4.81824e-08
-6.07374e-06
0.00308856
3.12315e-07
-6.06883e-06
0.00311665
1.62372e-07
-6.13181e-06
0.00315026
7.22035e-07
-6.06248e-06
0.00317192
6.6866e-07
-6.23418e-06
1.44054e-06
-6.27494e-06
0.00320716
0.00234566
-2.63862e-05
-6.30248e-06
0.00240229
-4.77518e-05