/*--------------------------------*- C++ -*----------------------------------*\
  =========                 |
  \\      /  F ield         | OpenFOAM: The Open Source CFD Toolbox
   \\    /   O peration     | Website:  https://openfoam.org
    \\  /    A nd           | Version:  7
     \\/     M anipulation  |
\*---------------------------------------------------------------------------*/
FoamFile
{
    version     2.0;
    format      ascii;
    class       volScalarField;
    location    "0.23";
    object      k_0;
}
// * * * * * * * * * * * * * * * * * * * * * * * * * * * * * * * * * * * * * //

dimensions      [0 2 -2 0 0 0 0];

internalField   nonuniform List<scalar> 
7920
(
52.0369
56.4166
56.3529
56.3554
56.2608
56.2682
56.212
56.2448
56.2268
56.2737
56.2691
56.3056
56.2962
56.3176
56.3066
56.3191
56.3181
56.3035
56.3782
56.518
13.8373
13.9907
13.3986
12.8427
12.572
12.4573
12.3559
12.3319
12.3105
12.3268
12.3265
12.3412
12.3391
12.349
12.3455
12.3548
12.3512
12.3581
12.5185
12.5574
8.07878
9.20529
9.30104
9.27587
9.22736
9.21391
9.18431
9.18254
9.17666
9.19025
9.19686
9.21594
9.22019
9.23257
9.23309
9.24109
9.24063
9.24604
9.25421
9.28943
7.47573
8.73668
8.96386
9.04143
9.05984
9.09268
9.09333
9.10317
9.10057
9.11407
9.12195
9.1451
9.15288
9.16963
9.1722
9.18087
9.18212
9.18593
9.19226
9.2143
7.41082
8.68246
8.92186
9.01448
9.04776
9.09534
9.10545
9.12491
9.12412
9.13882
9.14752
9.17249
9.18197
9.201
9.20486
9.2135
9.21679
9.21792
9.22551
9.24534
7.41772
8.67871
8.91605
9.00987
9.04743
9.10054
9.11536
9.13929
9.14018
9.15603
9.16512
9.19094
9.2012
9.22104
9.22552
9.23428
9.23897
9.23912
9.24892
9.2649
7.41772
8.67871
8.91605
9.00987
9.04743
9.10055
9.11536
9.13929
9.14017
9.15604
9.16512
9.19095
9.20117
9.22108
9.2255
9.23433
9.23888
9.23914
9.24891
9.26492
7.41082
8.68246
8.92186
9.01448
9.04776
9.09534
9.10545
9.12491
9.12411
9.13884
9.1475
9.17254
9.18191
9.20113
9.20475
9.21377
9.21644
9.2181
9.22553
9.2455
7.47573
8.73668
8.96386
9.04143
9.05984
9.09268
9.09332
9.10317
9.10056
9.11409
9.12191
9.1452
9.15276
9.1699
9.17193
9.18145
9.18159
9.18683
9.19162
9.21457
8.07878
9.20529
9.30104
9.27587
9.22736
9.21391
9.18431
9.18254
9.17665
9.19027
9.19682
9.21605
9.22003
9.23296
9.23259
9.24201
9.2392
9.24876
9.25196
9.2909
13.8373
13.9906
13.3986
12.8427
12.572
12.4573
12.3559
12.3319
12.3104
12.3268
12.3264
12.3413
12.3389
12.3494
12.3449
12.3559
12.3491
12.3608
12.5105
12.5643
52.0369
56.4166
56.3529
56.3554
56.2608
56.2681
56.212
56.2448
56.2267
56.2737
56.2689
56.3058
56.2956
56.3187
56.3045
56.3229
56.3108
56.3165
56.3555
56.5553
7.67705
9.66504
9.74123
9.61213
9.57818
9.51492
9.52268
9.49739
9.51381
9.50054
9.51501
9.50495
9.51539
9.50705
9.51479
9.50788
9.51455
9.5073
9.50314
9.57182
6.01806
8.22812
8.54959
8.58499
8.58422
8.58133
8.57713
8.57797
8.58198
8.5889
8.59545
8.60062
8.60491
8.60711
8.60995
8.61106
8.61299
8.61384
8.62194
8.6286
5.70005
7.88006
8.20668
8.26327
8.26882
8.28175
8.2821
8.28808
8.29195
8.30468
8.31376
8.32612
8.33213
8.33776
8.34072
8.34139
8.34428
8.34129
8.34479
8.36784
5.69125
7.87063
8.19208
8.24461
8.24389
8.25097
8.24811
8.25045
8.25054
8.26055
8.27098
8.28722
8.29635
8.30558
8.30925
8.31201
8.31405
8.31393
8.31677
8.33624
5.67977
7.85447
8.17583
8.22942
8.22837
8.23481
8.23081
8.23192
8.23029
8.23887
8.24962
8.26752
8.2782
8.2894
8.2938
8.29772
8.29894
8.29982
8.30018
8.32089
5.6862
7.86212
8.18251
8.23568
8.23474
8.24121
8.23698
8.23765
8.23528
8.24304
8.25333
8.27148
8.28241
8.29443
8.29879
8.30361
8.30445
8.30625
8.3067
8.32738
5.6862
7.86212
8.18251
8.23568
8.23474
8.24121
8.23698
8.23765
8.23528
8.24305
8.25332
8.2715
8.28238
8.29447
8.29873
8.30368
8.30441
8.30629
8.30668
8.32734
5.67977
7.85447
8.17583
8.22942
8.22837
8.23481
8.23081
8.23192
8.23028
8.23888
8.24959
8.26759
8.27808
8.28957
8.29357
8.29805
8.29868
8.30014
8.30006
8.3209
5.69125
7.87063
8.19208
8.24461
8.24389
8.25097
8.24811
8.25046
8.25053
8.26057
8.27091
8.28734
8.29612
8.30594
8.30875
8.31277
8.31319
8.31456
8.31632
8.33659
5.70005
7.88006
8.20668
8.26327
8.26882
8.28175
8.2821
8.28808
8.29194
8.30469
8.31369
8.32625
8.33186
8.33827
8.33991
8.34246
8.34282
8.34334
8.343
8.36921
6.01806
8.22812
8.54959
8.58499
8.58421
8.58133
8.57713
8.57797
8.58196
8.58891
8.59542
8.60069
8.60476
8.60744
8.6093
8.61214
8.61149
8.61648
8.61754
8.63325
7.67705
9.66505
9.74123
9.61213
9.57818
9.51492
9.52268
9.49739
9.5138
9.50054
9.515
9.50497
9.51535
9.50716
9.51459
9.50832
9.51381
9.509
9.50031
9.57706
0.482027
1.04037
1.13881
1.11473
1.05946
1.03164
1.01967
1.02039
1.02462
1.0324
1.03927
1.04723
1.05467
1.06304
1.06926
1.08129
1.08187
1.10179
1.08534
1.12067
0.0925996
0.387646
0.523329
0.572891
0.580493
0.580684
0.576723
0.57495
0.574028
0.575004
0.575889
0.577662
0.57852
0.580213
0.580838
0.582944
0.583444
0.586369
0.587693
0.593589
0.0691916
0.306578
0.415969
0.464574
0.475306
0.481884
0.481623
0.482861
0.482669
0.483752
0.483819
0.484513
0.484515
0.4848
0.484843
0.484876
0.485215
0.485002
0.485516
0.48785
0.0727384
0.30996
0.417325
0.464898
0.47666
0.483391
0.4835
0.484539
0.484443
0.485317
0.485516
0.486177
0.486238
0.486427
0.486452
0.48637
0.486457
0.486242
0.486486
0.488625
0.0710345
0.306034
0.412294
0.45991
0.471365
0.478024
0.477946
0.478874
0.478646
0.479497
0.479665
0.480371
0.480432
0.480667
0.480668
0.480654
0.480664
0.480592
0.48054
0.482554
0.0720255
0.308185
0.414838
0.462301
0.473939
0.480627
0.48067
0.481606
0.481435
0.482251
0.482452
0.483157
0.483237
0.483464
0.483476
0.48344
0.483453
0.483299
0.483378
0.485358
0.0720255
0.308185
0.414838
0.462301
0.473939
0.480627
0.48067
0.481606
0.481435
0.482252
0.482452
0.483157
0.483237
0.483464
0.483475
0.483444
0.483455
0.483304
0.483378
0.485358
0.0710345
0.306034
0.412294
0.45991
0.471365
0.478024
0.477946
0.478874
0.478646
0.479497
0.479665
0.480372
0.480431
0.480669
0.480664
0.480664
0.480667
0.480598
0.480543
0.48255
0.0727384
0.30996
0.417325
0.464898
0.47666
0.483391
0.4835
0.484539
0.484442
0.485318
0.485515
0.486179
0.486235
0.486432
0.486447
0.486386
0.486444
0.486253
0.486486
0.488618
0.0691916
0.306578
0.415969
0.464574
0.475306
0.481884
0.481623
0.482861
0.482669
0.483752
0.483817
0.484515
0.48451
0.484808
0.484821
0.484879
0.485197
0.485038
0.485515
0.487822
0.0925996
0.387646
0.523329
0.572891
0.580493
0.580685
0.576722
0.57495
0.574028
0.575004
0.575886
0.577667
0.578511
0.580228
0.580818
0.582966
0.583393
0.586387
0.587557
0.593404
0.482027
1.04037
1.13881
1.11473
1.05946
1.03164
1.01967
1.02039
1.02462
1.0324
1.03927
1.04723
1.05465
1.06308
1.0692
1.08143
1.08183
1.10209
1.08516
1.12142
0.482027
1.04037
1.13881
1.11473
1.05945
1.03164
1.01967
1.02039
1.02462
1.0324
1.03927
1.04723
1.05467
1.06304
1.06926
1.08129
1.08186
1.10179
1.08534
1.12067
0.0925996
0.387646
0.523329
0.572891
0.580493
0.580685
0.576723
0.57495
0.574028
0.575004
0.575889
0.577662
0.57852
0.580213
0.580838
0.582944
0.583444
0.586369
0.587693
0.593589
0.0691916
0.306578
0.415969
0.464574
0.475306
0.481885
0.481623
0.482861
0.482669
0.483752
0.483819
0.484513
0.484515
0.4848
0.484843
0.484876
0.485215
0.485002
0.485516
0.48785
0.0727384
0.30996
0.417325
0.464898
0.476661
0.483391
0.4835
0.484539
0.484443
0.485317
0.485516
0.486177
0.486238
0.486427
0.486452
0.486369
0.486456
0.48624
0.486484
0.488623
0.0710345
0.306034
0.412294
0.45991
0.471365
0.478024
0.477947
0.478874
0.478646
0.479497
0.479665
0.480371
0.480432
0.480667
0.480668
0.480654
0.480664
0.480592
0.48054
0.482554
0.0720255
0.308185
0.414838
0.462301
0.473939
0.480627
0.480671
0.481606
0.481435
0.482252
0.482452
0.483157
0.483237
0.483464
0.483476
0.48344
0.483453
0.4833
0.483378
0.485358
0.0720255
0.308185
0.414838
0.462301
0.473939
0.480627
0.480671
0.481606
0.481435
0.482252
0.482452
0.483157
0.483237
0.483464
0.483475
0.483444
0.483456
0.483304
0.483378
0.485358
0.0710345
0.306034
0.412294
0.45991
0.471365
0.478024
0.477947
0.478874
0.478646
0.479498
0.479665
0.480372
0.480431
0.480669
0.480664
0.480664
0.480667
0.480598
0.480543
0.48255
0.0727384
0.30996
0.417325
0.464898
0.476661
0.483391
0.4835
0.484539
0.484443
0.485318
0.485515
0.486179
0.486235
0.486431
0.486447
0.486387
0.486445
0.486255
0.486487
0.488619
0.0691916
0.306578
0.415969
0.464574
0.475306
0.481885
0.481623
0.482861
0.482669
0.483753
0.483817
0.484515
0.48451
0.484808
0.484821
0.484878
0.485197
0.485038
0.485515
0.487822
0.0925995
0.387646
0.523329
0.572891
0.580493
0.580685
0.576722
0.57495
0.574028
0.575004
0.575886
0.577667
0.578511
0.580228
0.580818
0.582966
0.583393
0.586387
0.587557
0.593404
0.482027
1.04037
1.13881
1.11473
1.05946
1.03164
1.01967
1.02039
1.02462
1.0324
1.03927
1.04723
1.05465
1.06308
1.0692
1.08143
1.08183
1.10209
1.08516
1.12142
7.67705
9.66505
9.74123
9.61213
9.57818
9.51492
9.52268
9.49739
9.51381
9.50053
9.51501
9.50495
9.51539
9.50705
9.51479
9.50787
9.51455
9.50729
9.50313
9.57182
6.01806
8.22812
8.54959
8.58499
8.58421
8.58133
8.57713
8.57797
8.58197
8.5889
8.59545
8.60062
8.60491
8.60711
8.60994
8.61106
8.61299
8.61384
8.62194
8.6286
5.70005
7.88006
8.20668
8.26327
8.26882
8.28175
8.2821
8.28807
8.29194
8.30467
8.31375
8.32611
8.33213
8.33776
8.34072
8.34139
8.34428
8.34129
8.3448
8.36785
5.69125
7.87063
8.19208
8.24461
8.24389
8.25097
8.24811
8.25045
8.25054
8.26055
8.27098
8.28722
8.29635
8.30558
8.30925
8.31201
8.31405
8.31393
8.31677
8.33624
5.67977
7.85447
8.17583
8.22942
8.22837
8.23481
8.23081
8.23192
8.23029
8.23887
8.24962
8.26752
8.2782
8.2894
8.2938
8.29772
8.29894
8.29982
8.30019
8.32089
5.6862
7.86212
8.18251
8.23568
8.23474
8.24121
8.23698
8.23765
8.23528
8.24304
8.25333
8.27148
8.28242
8.29443
8.29879
8.30361
8.30445
8.30625
8.3067
8.32738
5.6862
7.86212
8.18251
8.23568
8.23474
8.24121
8.23698
8.23765
8.23528
8.24305
8.25332
8.2715
8.28239
8.29447
8.29873
8.30368
8.30441
8.30629
8.30668
8.32734
5.67977
7.85447
8.17583
8.22942
8.22837
8.23481
8.23081
8.23192
8.23028
8.23888
8.24959
8.26759
8.27809
8.28957
8.29357
8.29805
8.29868
8.30014
8.30006
8.3209
5.69125
7.87063
8.19208
8.24461
8.24389
8.25097
8.24811
8.25046
8.25053
8.26057
8.27092
8.28734
8.29613
8.30594
8.30875
8.31277
8.31319
8.31456
8.31632
8.33659
5.70005
7.88006
8.20668
8.26327
8.26882
8.28175
8.2821
8.28808
8.29194
8.3047
8.31369
8.32626
8.33186
8.33827
8.33991
8.34246
8.34282
8.34334
8.343
8.36921
6.01806
8.22812
8.54959
8.58499
8.58422
8.58133
8.57713
8.57797
8.58197
8.58892
8.59542
8.60069
8.60476
8.60744
8.6093
8.61214
8.61149
8.61649
8.61754
8.63325
7.67705
9.66504
9.74123
9.61213
9.57818
9.51492
9.52268
9.49739
9.51381
9.50054
9.51501
9.50497
9.51535
9.50716
9.51459
9.50832
9.51382
9.509
9.50031
9.57706
52.0369
56.4166
56.3529
56.3554
56.2608
56.2681
56.212
56.2448
56.2267
56.2737
56.269
56.3056
56.2961
56.3176
56.3066
56.3191
56.3181
56.3035
56.3782
56.518
13.8373
13.9906
13.3986
12.8427
12.572
12.4573
12.3559
12.3319
12.3104
12.3267
12.3264
12.3412
12.3391
12.349
12.3455
12.3548
12.3512
12.3581
12.5185
12.5574
8.07878
9.20529
9.30104
9.27587
9.22736
9.21391
9.18431
9.18254
9.17666
9.19025
9.19685
9.21594
9.22018
9.23257
9.23309
9.24109
9.24063
9.24604
9.25421
9.28943
7.47573
8.73668
8.96386
9.04143
9.05984
9.09268
9.09333
9.10317
9.10057
9.11407
9.12194
9.1451
9.15288
9.16963
9.1722
9.18087
9.18212
9.18593
9.19226
9.2143
7.41082
8.68246
8.92186
9.01448
9.04776
9.09534
9.10546
9.12491
9.12412
9.13882
9.14752
9.17249
9.18197
9.201
9.20486
9.2135
9.21679
9.21792
9.22551
9.24534
7.41772
8.67871
8.91605
9.00987
9.04743
9.10055
9.11536
9.13929
9.14017
9.15603
9.16513
9.19094
9.2012
9.22104
9.22552
9.23428
9.23897
9.23912
9.24892
9.2649
7.41772
8.67871
8.91605
9.00987
9.04743
9.10055
9.11536
9.13929
9.14017
9.15604
9.16512
9.19095
9.20117
9.22108
9.2255
9.23433
9.23888
9.23914
9.24891
9.26492
7.41082
8.68246
8.92186
9.01448
9.04776
9.09534
9.10545
9.12491
9.12411
9.13884
9.1475
9.17254
9.18191
9.20113
9.20475
9.21377
9.21644
9.2181
9.22553
9.24549
7.47573
8.73668
8.96386
9.04143
9.05984
9.09268
9.09332
9.10317
9.10056
9.1141
9.12191
9.1452
9.15277
9.16991
9.17193
9.18145
9.18159
9.18683
9.19162
9.21457
8.07878
9.20529
9.30104
9.27587
9.22736
9.21391
9.18431
9.18254
9.17666
9.19028
9.19682
9.21606
9.22003
9.23296
9.23259
9.24201
9.2392
9.24876
9.25196
9.2909
13.8373
13.9907
13.3986
12.8427
12.572
12.4573
12.3559
12.3319
12.3105
12.3268
12.3264
12.3413
12.3389
12.3494
12.3449
12.3559
12.3491
12.3608
12.5105
12.5643
52.0369
56.4166
56.3529
56.3554
56.2608
56.2682
56.212
56.2448
56.2267
56.2737
56.269
56.3059
56.2957
56.3187
56.3045
56.323
56.3109
56.3165
56.3555
56.5553
143.413
145.306
145.715
145.84
145.831
145.859
145.845
145.866
145.854
145.869
145.856
145.865
145.854
145.863
145.857
145.868
145.866
145.876
145.871
145.875
145.868
145.871
145.865
145.871
145.871
145.881
145.885
145.896
145.899
145.906
145.905
145.908
145.905
145.91
145.912
145.924
145.934
145.954
145.969
145.991
146.007
146.026
146.039
146.054
146.064
146.079
146.093
146.115
146.141
146.177
146.218
146.271
146.329
146.398
146.47
146.551
146.632
146.721
146.806
146.894
146.975
147.057
147.128
147.198
147.256
147.311
147.354
147.395
147.424
147.452
147.47
147.488
147.497
147.508
147.511
147.517
147.518
147.521
147.518
147.519
147.516
147.516
147.512
147.512
147.507
147.506
147.502
147.499
147.471
147.42
47.1332
48.9453
49.0461
49.1073
49.091
49.1278
49.1164
49.1497
49.1423
49.1728
49.1684
49.1972
49.1961
49.2252
49.228
49.2583
49.264
49.2942
49.3012
49.3307
49.3397
49.3705
49.383
49.4166
49.4329
49.469
49.4884
49.5258
49.5473
49.5855
49.6088
49.6485
49.675
49.7184
49.7503
49.7987
49.8361
49.8886
49.9299
49.9848
50.0285
50.0849
50.1306
50.189
50.2381
50.3007
50.3559
50.4251
50.4879
50.5643
50.634
50.7165
50.7915
50.8771
50.9536
51.0383
51.1122
51.1923
51.2599
51.3314
51.3895
51.4502
51.497
51.5458
51.5812
51.6186
51.6435
51.6711
51.6873
51.707
51.717
51.7309
51.7362
51.7461
51.7484
51.7558
51.7565
51.7623
51.7616
51.7665
51.7655
51.7697
51.7682
51.772
51.7701
51.7737
51.7717
51.775
51.7612
51.7394
30.4976
32.6957
32.808
32.8999
32.8943
32.9622
32.9644
33.0295
33.0366
33.0994
33.1104
33.1721
33.1879
33.2511
33.2724
33.3375
33.3625
33.4276
33.4547
33.5193
33.5493
33.6157
33.6506
33.7203
33.7604
33.8331
33.8772
33.9512
33.9977
34.0718
34.1201
34.1951
34.2471
34.3261
34.3844
34.4688
34.5333
34.6216
34.6899
34.7795
34.8492
34.9383
35.0083
35.0972
35.1688
35.2603
35.3373
35.4345
35.5189
35.6228
35.7142
35.8239
35.9204
36.0324
36.1294
36.2389
36.3316
36.4342
36.5185
36.6099
36.6821
36.76
36.8185
36.8821
36.927
36.9769
37.0097
37.048
37.0707
37.0997
37.1151
37.1373
37.1471
37.1645
37.1709
37.1851
37.1895
37.2015
37.2042
37.2149
37.2169
37.2266
37.2279
37.2369
37.2375
37.246
37.2468
37.2538
37.2557
37.2283
28.2692
30.8837
31.0844
31.2167
31.2213
31.3079
31.3173
31.4009
31.4159
31.4973
31.5165
31.5972
31.6219
31.7049
31.736
31.8213
31.8567
31.9419
31.9791
32.0636
32.1041
32.1905
32.237
32.3273
32.38
32.4735
32.5308
32.6254
32.685
32.7791
32.8404
32.9352
33.0008
33.1002
33.1735
33.2794
33.3602
33.4706
33.5556
33.667
33.7532
33.8635
33.9495
34.0591
34.1472
34.2599
34.3549
34.4752
34.5799
34.7092
34.8234
34.9605
35.0816
35.222
35.3441
35.4818
35.5988
35.728
35.8346
35.9499
36.0416
36.1403
36.2151
36.2961
36.3542
36.4184
36.4615
36.5115
36.5423
36.5809
36.6026
36.6328
36.6477
36.6719
36.6825
36.7027
36.7107
36.7282
36.734
36.7497
36.7546
36.7689
36.7729
36.7862
36.7892
36.8017
36.8051
36.8153
36.822
36.7944
28.0527
30.8768
31.1519
31.3202
31.3293
31.4266
31.4384
31.5321
31.5504
31.6419
31.6646
31.7555
31.7842
31.8777
31.9136
32.0099
32.0504
32.1465
32.189
32.2842
32.3304
32.4279
32.4807
32.5826
32.6423
32.7478
32.8126
32.9192
32.9866
33.0926
33.1618
33.2685
33.3426
33.4545
33.5374
33.6567
33.7481
33.8724
33.9685
34.094
34.1914
34.3155
34.4127
34.536
34.6355
34.7626
34.8701
35.0059
35.1245
35.2706
35.4002
35.5553
35.6927
35.8517
35.9904
36.1462
36.2792
36.4255
36.5467
36.6775
36.7819
36.894
36.9794
37.0717
37.1385
37.212
37.262
37.3197
37.3559
37.4009
37.4269
37.4624
37.4809
37.5098
37.5233
37.5476
37.5583
37.5795
37.5875
37.6067
37.6137
37.6313
37.6372
37.6535
37.6583
37.6735
37.6789
37.6908
37.7017
37.6736
28.0905
31.0427
31.3561
31.5367
31.547
31.6484
31.661
31.7587
31.7782
31.8736
31.8977
31.9926
32.0229
32.1208
32.1586
32.2596
32.3023
32.4031
32.4478
32.5478
32.5964
32.6988
32.7544
32.8615
32.9244
33.0352
33.1035
33.2155
33.2864
33.3978
33.4706
33.5827
33.6608
33.7784
33.8657
33.9911
34.0873
34.218
34.3192
34.4511
34.5536
34.684
34.7864
34.9159
35.0208
35.1543
35.2675
35.4103
35.5352
35.6889
35.8254
35.9886
36.1334
36.3007
36.4469
36.6109
36.7511
36.9051
37.0329
37.1707
37.2809
37.3991
37.4895
37.5869
37.6578
37.7356
37.7889
37.8502
37.889
37.937
37.9652
38.0033
38.0235
38.0547
38.0697
38.0961
38.1081
38.1312
38.1405
38.1615
38.1697
38.1889
38.1959
38.2138
38.2197
38.2363
38.2429
38.2559
38.2681
38.241
28.0917
31.0305
31.3311
31.5054
31.5138
31.6144
31.6271
31.7248
31.7444
31.8398
31.8639
31.9588
31.9892
32.0871
32.125
32.2259
32.2687
32.3695
32.4143
32.5143
32.5629
32.6654
32.7211
32.8281
32.8911
33.002
33.0703
33.1823
33.2534
33.3647
33.4377
33.5498
33.6279
33.7455
33.833
33.9584
34.0546
34.1853
34.2866
34.4186
34.5211
34.6515
34.7539
34.8836
34.9884
35.1221
35.2353
35.3781
35.5031
35.6568
35.7933
35.9565
36.1014
36.2686
36.4148
36.5789
36.7191
36.8732
37.001
37.1388
37.2491
37.3673
37.4578
37.5553
37.6262
37.7041
37.7575
37.8189
37.8578
37.9059
37.9343
37.9725
37.9928
38.0241
38.0393
38.0658
38.078
38.1012
38.1106
38.1318
38.1401
38.1595
38.1666
38.1846
38.1906
38.2074
38.2141
38.2273
38.2396
38.2134
28.0531
30.8297
31.0657
31.2154
31.2195
31.3149
31.3269
31.4206
31.4389
31.5304
31.5533
31.6442
31.673
31.7666
31.8026
31.899
31.9396
32.0359
32.0785
32.1739
32.2202
32.3179
32.3709
32.473
32.5329
32.6385
32.7035
32.8103
32.8779
32.984
33.0534
33.1603
33.2346
33.3467
33.4299
33.5493
33.6408
33.7653
33.8616
33.9873
34.0848
34.2091
34.3065
34.43
34.5297
34.657
34.7646
34.9006
35.0193
35.1655
35.2952
35.4504
35.588
35.747
35.8857
36.0417
36.1748
36.3212
36.4425
36.5734
36.6779
36.7902
36.8759
36.9684
37.0355
37.1093
37.1596
37.2176
37.2541
37.2995
37.3259
37.3618
37.3806
37.4099
37.4238
37.4486
37.4596
37.4813
37.4897
37.5094
37.5168
37.5348
37.5411
37.5579
37.5631
37.5788
37.5845
37.5973
37.6076
37.5817
28.2552
30.7654
30.8972
31.0026
31.001
31.0853
31.0951
31.1786
31.1938
31.2753
31.2948
31.3756
31.4005
31.4836
31.515
31.6006
31.6363
31.7217
31.7593
31.844
31.8849
31.9716
32.0185
32.1091
32.1621
32.256
32.3135
32.4085
32.4685
32.563
32.6246
32.7198
32.7858
32.8855
32.9593
33.0655
33.1466
33.2573
33.3426
33.4545
33.541
33.6516
33.738
33.8479
33.9363
34.0495
34.1447
34.2654
34.3703
34.4999
34.6143
34.7516
34.8729
35.0135
35.1357
35.2736
35.3908
35.5202
35.6269
35.7426
35.8345
35.9335
36.0087
36.0901
36.1486
36.2133
36.2569
36.3075
36.3388
36.3781
36.4004
36.4313
36.4468
36.4718
36.4829
36.5039
36.5126
36.5308
36.5372
36.5537
36.5593
36.5744
36.579
36.5931
36.5968
36.6101
36.6139
36.6255
36.6316
36.6082
30.4249
32.4236
32.4404
32.5015
32.4912
32.5575
32.56
32.6249
32.6322
32.695
32.7063
32.7681
32.7842
32.8476
32.8691
32.9345
32.9599
33.0253
33.0526
33.1176
33.1479
33.2147
33.25
33.3201
33.3606
33.4336
33.4781
33.5524
33.5993
33.6738
33.7225
33.7979
33.8503
33.9297
33.9884
34.0732
34.138
34.2267
34.2953
34.3853
34.4552
34.5448
34.6151
34.7044
34.7765
34.8684
34.9457
35.0433
35.1279
35.2322
35.3239
35.4339
35.5305
35.6427
35.7399
35.8496
35.9426
36.0454
36.1299
36.2217
36.2942
36.3726
36.4316
36.4957
36.5413
36.5919
36.6253
36.6645
36.688
36.7179
36.7342
36.7573
36.768
36.7865
36.7937
36.8089
36.8142
36.8272
36.8308
36.8425
36.8454
36.8561
36.8584
36.8684
36.8699
36.8795
36.881
36.8898
36.8911
36.8686
46.8762
48.2752
48.2269
48.2489
48.2282
48.2625
48.2511
48.283
48.2756
48.3052
48.3007
48.3288
48.3276
48.3562
48.3589
48.3887
48.3942
48.4239
48.4307
48.46
48.4687
48.4992
48.5114
48.5446
48.5606
48.5962
48.6152
48.6522
48.6733
48.7111
48.734
48.7732
48.7993
48.8423
48.8737
48.9216
48.9584
49.0104
49.051
49.1054
49.1485
49.2044
49.2496
49.3075
49.3561
49.4182
49.4729
49.5417
49.604
49.68
49.7493
49.8313
49.9059
49.9912
50.0673
50.1519
50.2255
50.3055
50.373
50.4447
50.5029
50.5639
50.6111
50.6605
50.6965
50.7346
50.7603
50.7889
50.8061
50.8269
50.8379
50.8531
50.8595
50.8708
50.8743
50.8831
50.8851
50.8923
50.893
50.8992
50.8995
50.9052
50.905
50.9103
50.9097
50.9147
50.914
50.9196
50.9056
50.8904
142.429
143.041
143.005
143.02
142.997
143.017
143.002
143.017
143.005
143.016
143.003
143.008
142.997
143.003
142.996
143.005
143.001
143.009
143.003
143.005
142.996
142.997
142.99
142.994
142.992
143
143.001
143.009
143.01
143.015
143.011
143.011
143.006
143.007
143.006
143.014
143.021
143.036
143.047
143.064
143.076
143.091
143.099
143.109
143.114
143.124
143.133
143.15
143.169
143.199
143.233
143.279
143.329
143.391
143.456
143.531
143.606
143.689
143.769
143.853
143.931
144.009
144.079
144.147
144.204
144.259
144.303
144.344
144.375
144.404
144.425
144.445
144.458
144.471
144.478
144.486
144.49
144.496
144.497
144.502
144.502
144.506
144.506
144.508
144.507
144.51
144.509
144.512
144.486
144.449
30.0968
30.8292
30.8961
30.9097
30.9083
30.9144
30.9109
30.9187
30.9148
30.9227
30.918
30.9255
30.9212
30.9303
30.9284
30.9397
30.9394
30.951
30.9503
30.9606
30.9599
30.9708
30.9722
30.9855
30.9899
31.0055
31.0123
31.029
31.0367
31.0531
31.0605
31.0767
31.0852
31.1036
31.1161
31.1389
31.1563
31.1831
31.2038
31.2327
31.255
31.2843
31.307
31.3366
31.3605
31.3925
31.421
31.4588
31.4944
31.54
31.5837
31.6373
31.6889
31.7493
31.8063
31.8703
31.9293
31.9935
32.0509
32.1112
32.1629
32.2162
32.2597
32.3036
32.3376
32.3716
32.3961
32.4211
32.4373
32.4547
32.4646
32.4764
32.4814
32.4892
32.4912
32.4964
32.4968
32.5006
32.4995
32.5024
32.5011
32.5037
32.502
32.5047
32.5027
32.5059
32.5042
32.5089
32.5029
32.4973
27.7891
29.3354
29.4542
29.4931
29.5066
29.5306
29.5419
29.5659
29.5777
29.6021
29.6141
29.6383
29.6503
29.6747
29.6877
29.7132
29.7279
29.7545
29.7702
29.7968
29.8127
29.8393
29.8559
29.8832
29.9013
29.9298
29.9495
29.979
30.0001
30.0303
30.0521
30.0823
30.1043
30.1344
30.1572
30.188
30.2124
30.2445
30.2702
30.3031
30.3298
30.3629
30.3897
30.4223
30.4484
30.4798
30.5051
30.5355
30.5603
30.5899
30.614
30.6427
30.6661
30.6937
30.7159
30.7417
30.7619
30.7853
30.8031
30.8236
30.8386
30.8559
30.8679
30.8822
30.8914
30.9028
30.9096
30.9186
30.9234
30.9305
30.9337
30.9395
30.9416
30.9463
30.9477
30.9516
30.9525
30.956
30.9565
30.9597
30.96
30.963
30.9631
30.966
30.9659
30.9688
30.9686
30.9714
30.9729
30.975
25.5503
27.6019
27.7992
27.853
27.8711
27.8916
27.9045
27.9243
27.9374
27.9572
27.9701
27.9895
28.0019
28.0211
28.0338
28.0538
28.0677
28.0882
28.1023
28.1224
28.1359
28.1553
28.1687
28.1881
28.202
28.2219
28.2366
28.2567
28.2718
28.2918
28.3066
28.3256
28.3394
28.3573
28.3708
28.3887
28.4027
28.421
28.4356
28.4541
28.4688
28.4868
28.5007
28.5174
28.5299
28.5448
28.5558
28.5694
28.5798
28.5927
28.6027
28.6155
28.6257
28.6387
28.6492
28.6621
28.6725
28.6851
28.6951
28.707
28.7162
28.727
28.7351
28.7446
28.7515
28.7596
28.7651
28.772
28.7765
28.7821
28.7856
28.7905
28.7932
28.7973
28.7995
28.803
28.8048
28.8081
28.8095
28.8123
28.8136
28.8163
28.8172
28.8198
28.8205
28.8227
28.8234
28.8249
28.8271
28.7985
24.9652
27.114
27.3238
27.3752
27.3889
27.4038
27.4115
27.425
27.433
27.4462
27.4541
27.4667
27.474
27.4863
27.4939
27.5068
27.5154
27.5287
27.5375
27.5503
27.5584
27.5705
27.5784
27.5905
27.5989
27.6115
27.6206
27.6335
27.6431
27.6559
27.6651
27.6772
27.6856
27.6967
27.7049
27.7163
27.7252
27.7372
27.7469
27.7593
27.7693
27.7816
27.7912
27.8026
27.8111
27.8212
27.8286
27.8379
27.8451
27.8543
27.8616
27.871
27.8789
27.889
27.8975
27.9079
27.9166
27.9269
27.9356
27.9455
27.9535
27.9625
27.9696
27.9775
27.9835
27.9902
27.995
28.0006
28.0043
28.0088
28.0118
28.0155
28.0177
28.0208
28.0225
28.0251
28.0264
28.0288
28.0298
28.0318
28.0327
28.0346
28.0352
28.0369
28.0374
28.0388
28.0394
28.0402
28.0416
28.0191
24.681
26.8624
27.0599
27.1093
27.1216
27.1352
27.1403
27.1515
27.157
27.1678
27.1732
27.1833
27.1883
27.1981
27.2034
27.2138
27.2202
27.2312
27.2378
27.2482
27.2543
27.264
27.27
27.2799
27.2865
27.2969
27.3042
27.3151
27.323
27.334
27.3417
27.352
27.359
27.3686
27.3755
27.3855
27.3932
27.404
27.4126
27.4238
27.4329
27.4441
27.4529
27.4634
27.4711
27.4804
27.4873
27.496
27.5026
27.5112
27.518
27.5268
27.5343
27.5438
27.5518
27.5616
27.5698
27.5795
27.5876
27.5969
27.6043
27.6127
27.6192
27.6264
27.6318
27.6379
27.6421
27.647
27.6502
27.6541
27.6565
27.6597
27.6614
27.6639
27.6652
27.6672
27.6681
27.67
27.6706
27.6721
27.6727
27.674
27.6744
27.6756
27.6759
27.6767
27.6772
27.6774
27.6783
27.6469
24.6855
26.8457
27.023
27.063
27.0715
27.0847
27.089
27.0998
27.1046
27.1148
27.1196
27.129
27.1333
27.1425
27.1473
27.1572
27.1631
27.1736
27.1798
27.1898
27.1955
27.205
27.2106
27.2203
27.2265
27.2368
27.2439
27.2546
27.2623
27.2731
27.2806
27.2908
27.2976
27.3071
27.3139
27.3238
27.3315
27.3421
27.3507
27.3619
27.3709
27.3821
27.3908
27.4013
27.4091
27.4184
27.4253
27.4339
27.4406
27.4492
27.456
27.4649
27.4723
27.4818
27.4898
27.4996
27.5078
27.5174
27.5255
27.5347
27.542
27.5504
27.5567
27.5639
27.5692
27.5752
27.5793
27.5841
27.5872
27.591
27.5932
27.5963
27.5979
27.6003
27.6014
27.6033
27.6042
27.6059
27.6065
27.6078
27.6083
27.6095
27.6098
27.611
27.6112
27.6119
27.6123
27.6126
27.6132
27.5829
24.6858
26.8328
26.9983
27.0324
27.039
27.0518
27.0561
27.0668
27.0717
27.0819
27.0867
27.0962
27.1006
27.1098
27.1146
27.1246
27.1305
27.141
27.1473
27.1573
27.1631
27.1726
27.1783
27.188
27.1944
27.2047
27.2119
27.2227
27.2304
27.2413
27.2489
27.2591
27.266
27.2756
27.2825
27.2925
27.3002
27.311
27.3196
27.3309
27.3399
27.3513
27.3601
27.3706
27.3785
27.3879
27.3948
27.4036
27.4104
27.419
27.426
27.4349
27.4425
27.452
27.4601
27.47
27.4783
27.488
27.4962
27.5055
27.5129
27.5214
27.5279
27.5351
27.5405
27.5466
27.5508
27.5557
27.5589
27.5628
27.5652
27.5684
27.5701
27.5726
27.5738
27.5759
27.5768
27.5787
27.5793
27.5808
27.5814
27.5828
27.5832
27.5844
27.5847
27.5856
27.5861
27.5865
27.5871
27.557
24.6806
26.8162
26.977
27.0102
27.0175
27.03
27.035
27.0463
27.0519
27.0627
27.0682
27.0784
27.0835
27.0933
27.0988
27.1094
27.1159
27.127
27.1338
27.1444
27.1507
27.1607
27.1668
27.1769
27.1837
27.1944
27.2019
27.2131
27.2212
27.2324
27.2403
27.2509
27.2581
27.268
27.2752
27.2854
27.2934
27.3044
27.3133
27.3248
27.3341
27.3457
27.3547
27.3655
27.3735
27.3831
27.3903
27.3993
27.4062
27.4151
27.4223
27.4314
27.4392
27.449
27.4573
27.4674
27.476
27.486
27.4944
27.504
27.5117
27.5205
27.5272
27.5348
27.5405
27.5469
27.5515
27.5567
27.5603
27.5645
27.5672
27.5707
27.5727
27.5756
27.5772
27.5796
27.5808
27.583
27.584
27.5859
27.5867
27.5885
27.5892
27.5908
27.5913
27.5926
27.5933
27.594
27.5952
27.5645
24.9504
27.0013
27.1473
27.1738
27.1817
27.1954
27.203
27.2164
27.2246
27.2378
27.2459
27.2585
27.2661
27.2785
27.2863
27.2994
27.3082
27.3218
27.3309
27.3439
27.3524
27.3647
27.373
27.3855
27.3942
27.4072
27.4167
27.43
27.4399
27.4531
27.4628
27.4752
27.484
27.4957
27.5043
27.5162
27.5255
27.538
27.5482
27.5611
27.5716
27.5844
27.5944
27.6064
27.6154
27.626
27.634
27.6439
27.6516
27.6613
27.6692
27.6792
27.6877
27.6983
27.7074
27.7183
27.7276
27.7385
27.7477
27.7582
27.7668
27.7764
27.784
27.7926
27.7991
27.8064
27.8118
27.818
27.8223
27.8274
27.8309
27.8353
27.838
27.8417
27.844
27.8472
27.8491
27.8521
27.8537
27.8563
27.8577
27.8602
27.8614
27.8638
27.8648
27.8669
27.868
27.8696
27.8707
27.8495
25.4942
27.3757
27.4895
27.5171
27.5303
27.5498
27.5626
27.5822
27.5953
27.6151
27.6281
27.6474
27.66
27.6793
27.6922
27.7123
27.7263
27.7471
27.7614
27.7817
27.7954
27.8151
27.8287
27.8484
27.8627
27.8828
27.8978
27.9183
27.9338
27.9541
27.9693
27.9887
28.0029
28.0212
28.0352
28.0536
28.0681
28.0869
28.102
28.121
28.1362
28.1548
28.1693
28.1866
28.1997
28.2152
28.2269
28.2412
28.2522
28.2659
28.2767
28.2902
28.3012
28.315
28.3263
28.3401
28.3513
28.3647
28.3755
28.3882
28.3982
28.4098
28.4187
28.429
28.4366
28.4455
28.4518
28.4595
28.4647
28.4711
28.4754
28.4811
28.4845
28.4894
28.4924
28.4967
28.4992
28.5033
28.5055
28.5091
28.5111
28.5146
28.5163
28.5197
28.5211
28.5242
28.5255
28.5283
28.531
28.5047
27.6461
28.9478
28.9754
28.992
29.0025
29.0254
29.0367
29.0601
29.0718
29.0958
29.1077
29.1317
29.1437
29.1679
29.1808
29.2062
29.2207
29.2472
29.2628
29.2893
29.3051
29.3315
29.3481
29.3753
29.3932
29.4216
29.4411
29.4705
29.4914
29.5215
29.5432
29.5731
29.595
29.6249
29.6476
29.6783
29.7025
29.7345
29.7601
29.7929
29.8194
29.8525
29.8791
29.9117
29.9377
29.9691
29.9944
30.0249
30.0498
30.0796
30.1039
30.1329
30.1566
30.1846
30.2072
30.2335
30.2542
30.2781
30.2965
30.3177
30.3333
30.3514
30.3641
30.3792
30.3891
30.4014
30.4089
30.4189
30.4244
30.4324
30.4365
30.4431
30.4461
30.4517
30.4539
30.4588
30.4605
30.465
30.4663
30.4704
30.4715
30.4755
30.4763
30.4803
30.4809
30.4848
30.4853
30.4897
30.4911
30.4964
29.8536
30.3069
30.2862
30.2804
30.277
30.2818
30.2784
30.2853
30.2814
30.2887
30.2839
30.2909
30.2865
30.2952
30.293
30.304
30.3034
30.3145
30.3136
30.3235
30.3226
30.333
30.334
30.3468
30.3507
30.3658
30.372
30.3882
30.3952
30.4111
30.4179
30.4334
30.4412
30.4588
30.4706
30.4926
30.509
30.5348
30.5546
30.5825
30.6037
30.6321
30.6537
30.6823
30.7051
30.7361
30.7633
30.8
30.8342
30.8784
30.9207
30.9728
31.0229
31.0818
31.1372
31.1999
31.2574
31.3204
31.3765
31.4358
31.4866
31.5391
31.5819
31.6255
31.6591
31.693
31.7175
31.7427
31.7592
31.777
31.7873
31.7996
31.8052
31.8137
31.8163
31.8223
31.8233
31.8279
31.8275
31.8313
31.8307
31.8341
31.8332
31.8367
31.8354
31.8394
31.8384
31.8445
31.8379
31.8368
3.96994
4.11151
4.09779
4.11502
4.14053
4.17221
4.19491
4.22832
4.2483
4.2826
4.3006
4.33547
4.35277
4.38878
4.40639
4.44326
4.4609
4.49753
4.51478
4.55096
4.56865
4.60538
4.62464
4.66257
4.68362
4.72251
4.74491
4.7841
4.80727
4.8463
4.87014
4.90946
4.93499
4.97603
5.00449
5.04789
5.07912
5.12418
5.15712
5.20276
5.23646
5.28197
5.3161
5.36173
5.39705
5.4442
5.48238
5.53249
5.5744
5.62781
5.67323
5.72944
5.77738
5.83474
5.88303
5.93929