/*--------------------------------*- C++ -*----------------------------------*\
  =========                 |
  \\      /  F ield         | OpenFOAM: The Open Source CFD Toolbox
   \\    /   O peration     | Website:  https://openfoam.org
    \\  /    A nd           | Version:  7
     \\/     M anipulation  |
\*---------------------------------------------------------------------------*/
FoamFile
{
    version     2.0;
    format      ascii;
    class       volSymmTensorField;
    location    "0.23";
    object      UPrime2Mean;
}
// * * * * * * * * * * * * * * * * * * * * * * * * * * * * * * * * * * * * * //

dimensions      [0 2 -2 0 0 0 0];

internalField   nonuniform List<symmTensor> 
7920
(
(0.0953518 -0.00713511 -0.00887176 0.000933267 0.000994415 0.0016175)
(0.374253 0.0535088 -0.023459 0.00980937 -0.00347942 0.0023271)
(0.531379 0.0912224 -0.0291894 0.0205496 -0.00531398 0.00274496)
(0.677923 0.1157 -0.0315561 0.0254791 -0.00538151 0.00263661)
(0.662912 0.113417 -0.0315959 0.0272059 -0.00563363 0.00277225)
(0.721678 0.118829 -0.0309586 0.0277915 -0.00525233 0.00257833)
(0.673429 0.111355 -0.0297419 0.0281984 -0.00540215 0.00257193)
(0.710811 0.113194 -0.0283277 0.0282146 -0.00505907 0.00232742)
(0.66505 0.105643 -0.0270236 0.0283444 -0.00516141 0.00227725)
(0.696893 0.106224 -0.0258203 0.0282938 -0.00488426 0.00209614)
(0.65944 0.0994573 -0.0248823 0.0283514 -0.0049621 0.0020895)
(0.687349 0.0992015 -0.0239822 0.0282996 -0.0047426 0.00198273)
(0.657168 0.0932394 -0.0232843 0.0283228 -0.00479932 0.00200122)
(0.680648 0.092324 -0.0225199 0.0282916 -0.00462462 0.00193326)
(0.657029 0.0871169 -0.0219084 0.0282812 -0.00465171 0.00194354)
(0.675211 0.0857028 -0.0212141 0.0283337 -0.00453358 0.00190774)
(0.66007 0.0811078 -0.0205829 0.028109 -0.00447069 0.0018777)
(0.669993 0.0797529 -0.0201522 0.0287265 -0.00451804 0.00191294)
(0.664697 0.0705964 -0.0188048 0.0250335 -0.00391995 0.0017605)
(0.70416 0.0899591 -0.0185647 0.0297573 -0.00465507 0.00189108)
(0.0309987 0.00376276 0.00115971 0.0459329 0.00769744 0.00167266)
(0.0559407 -0.0239028 -0.00598156 0.0481131 0.0109454 0.00396444)
(0.141024 -0.0373567 -0.0158917 0.0404691 0.0113047 0.0059989)
(0.234448 -0.0484823 -0.0259285 0.0325354 0.00916623 0.00669928)
(0.300042 -0.040789 -0.0316579 0.0295151 0.00799572 0.00739889)
(0.346854 -0.0412558 -0.0334699 0.0283484 0.00645835 0.00738301)
(0.361943 -0.0324558 -0.032875 0.0281366 0.00588924 0.00735568)
(0.383101 -0.0322916 -0.0303592 0.0280735 0.00500033 0.00665462)
(0.384663 -0.0249055 -0.0278674 0.0281975 0.00481184 0.00605628)
(0.406967 -0.0244257 -0.0254347 0.02822 0.00431661 0.00529265)
(0.409529 -0.0180132 -0.0236445 0.0283228 0.00427411 0.00490027)
(0.435385 -0.0167978 -0.0222397 0.0283055 0.00396717 0.00452878)
(0.439648 -0.0110575 -0.0211988 0.0283768 0.00396089 0.00442491)
(0.466992 -0.00915529 -0.0203629 0.0283684 0.00377273 0.00431368)
(0.473451 -0.00407405 -0.0195843 0.0283824 0.00372745 0.00425515)
(0.499988 -0.00150068 -0.0189374 0.0285871 0.00369094 0.0043134)
(0.511516 0.00253167 -0.0181887 0.0282239 0.00343323 0.00409354)
(0.53372 0.0078843 -0.0176862 0.0291815 0.00369605 0.00444748)
(0.549081 0.0070692 -0.0162626 0.0281606 0.00287821 0.00379064)
(0.586978 0.0307074 -0.0138501 0.027346 0.00373427 0.00468701)
(0.0411713 0.00571746 0.0044317 0.00621569 0.00235416 0.00171735)
(0.0687288 -0.00393854 0.00956369 0.00916654 0.000477904 0.00459483)
(0.129712 -0.0206031 0.0160535 0.0154733 -0.000393425 0.00777566)
(0.138371 -0.0275306 0.0133694 0.021812 -0.00133522 0.00918854)
(0.175672 -0.0409211 0.0131336 0.0249745 -0.00310773 0.0106002)
(0.193196 -0.0409999 0.00919385 0.026656 -0.00403599 0.0110753)
(0.230216 -0.0498631 0.00896874 0.0275073 -0.00518277 0.011702)
(0.259385 -0.0486401 0.00637067 0.0278452 -0.00503839 0.0111318)
(0.296345 -0.0559706 0.00662571 0.0279572 -0.00495917 0.0101469)
(0.332226 -0.0556933 0.00513364 0.0279403 -0.00422829 0.00848706)
(0.3685 -0.0623879 0.00596734 0.0279266 -0.00397673 0.00718167)
(0.408953 -0.0630753 0.00539496 0.0279124 -0.00346488 0.0060873)
(0.444541 -0.069035 0.0065176 0.0279076 -0.00338793 0.00551539)
(0.488438 -0.0704494 0.00645127 0.0278766 -0.00307829 0.00518728)
(0.523416 -0.0758672 0.00737555 0.0279675 -0.00308342 0.00497701)
(0.570117 -0.0773665 0.00780357 0.0275992 -0.00284188 0.00503666)
(0.60484 -0.0834431 0.0080093 0.0284368 -0.00280005 0.00476607)
(0.652278 -0.0827155 0.00947354 0.0263639 -0.0028922 0.00509309)
(0.689089 -0.0887965 0.0080541 0.0282896 -0.00209401 0.00459688)
(0.735397 -0.0914818 0.0145564 0.0298149 -0.00480662 0.00520187)
(0.0421089 0.017123 0.00441373 0.0205658 0.00492741 0.00158584)
(0.0776178 0.0363399 0.0108762 0.0336071 0.00961755 0.00449871)
(0.186139 0.0680063 0.0247003 0.0382127 0.0127739 0.0079583)
(0.238041 0.0687948 0.0301304 0.0343927 0.0119696 0.0096887)
(0.323374 0.078417 0.0381623 0.0315789 0.0110622 0.0113237)
(0.355598 0.0729467 0.0380403 0.0294644 0.00895965 0.0120699)
(0.417561 0.079517 0.0405992 0.0284453 0.00774902 0.0131006)
(0.448818 0.0765815 0.0365776 0.0278926 0.00615002 0.0130015)
(0.505843 0.0840855 0.0351403 0.0278191 0.00547339 0.0122014)
(0.544767 0.083344 0.0296219 0.0277013 0.00440154 0.0103007)
(0.600411 0.0904287 0.0276039 0.0277677 0.00399697 0.00842748)
(0.645297 0.0906948 0.023873 0.0277033 0.00329793 0.00675471)
(0.698523 0.0969366 0.0233678 0.0277782 0.00310908 0.00572631)
(0.748196 0.0981493 0.0219044 0.0277395 0.00273467 0.00511631)
(0.79813 0.103312 0.0222034 0.0277822 0.00263194 0.0047903)
(0.853567 0.10604 0.0221567 0.0278863 0.00247125 0.00471002)
(0.898725 0.109252 0.0221251 0.0277101 0.00230489 0.00455201)
(0.963726 0.114552 0.0230781 0.0282631 0.00227194 0.00462924)
(1.00221 0.115705 0.0219161 0.0277648 0.00190326 0.00446426)
(1.09852 0.131793 0.0279223 0.0327584 0.00247202 0.00468011)
(0.0416826 -0.00138309 0.00436414 0.00084254 -0.000222901 0.00158028)
(0.0736421 -0.011841 0.0102202 0.00917264 -0.00280846 0.0045119)
(0.192207 -0.0321809 0.0254114 0.016074 -0.00380351 0.00803407)
(0.263472 -0.0409483 0.0332557 0.021686 -0.00376992 0.00981228)
(0.37731 -0.0599016 0.0451019 0.0246921 -0.00457748 0.0115409)
(0.428996 -0.0654214 0.0478597 0.0261682 -0.00479821 0.012381)
(0.510172 -0.0793743 0.0531084 0.0269679 -0.00557838 0.0136015)
(0.54631 -0.0806745 0.0497919 0.027308 -0.00531926 0.0137436)
(0.612193 -0.0896533 0.0485867 0.0275119 -0.00524721 0.0131356)
(0.65162 -0.0894216 0.0417206 0.0275355 -0.00442956 0.0112375)
(0.714239 -0.0964521 0.0385384 0.0275734 -0.00404199 0.00917668)
(0.759745 -0.0967713 0.0331009 0.0275507 -0.00334136 0.00723021)
(0.819573 -0.103039 0.0317451 0.0276006 -0.00315091 0.00597573)
(0.869263 -0.103823 0.0291859 0.0275175 -0.00269989 0.00518565)
(0.927636 -0.110074 0.029526 0.0277232 -0.00271221 0.0048038)
(0.977548 -0.10971 0.0285126 0.027193 -0.00231837 0.00462145)
(1.04292 -0.118452 0.0294168 0.0282893 -0.00243614 0.00452152)
(1.07933 -0.113947 0.0287934 0.0258853 -0.00218575 0.0044878)
(1.17064 -0.125521 0.0295082 0.0289796 -0.00191576 0.00445189)
(1.18828 -0.132401 0.0336297 0.0297873 -0.00322494 0.00460183)
(0.0410061 0.0085242 0.00419308 0.00530872 0.00239227 0.00152953)
(0.067752 0.0207361 0.0092009 0.0168226 0.00594903 0.00442623)
(0.18099 0.0487332 0.0238321 0.0237999 0.00820851 0.00793253)
(0.254291 0.0560637 0.0319498 0.0261694 0.00794274 0.00970809)
(0.374614 0.0726644 0.0446085 0.0272996 0.0080125 0.011459)
(0.434892 0.0738542 0.0484184 0.0275211 0.00710337 0.012339)
(0.524746 0.0846902 0.0546734 0.0276278 0.00688838 0.0136191)
(0.56656 0.083863 0.0520418 0.0275471 0.00593262 0.0138392)
(0.637797 0.0921709 0.0512687 0.027585 0.00553812 0.0133068)
(0.679445 0.0915454 0.0443532 0.0275116 0.00455767 0.0114395)
(0.745093 0.0986236 0.0409614 0.0275467 0.0041203 0.00935006)
(0.791377 0.0987718 0.035081 0.0274896 0.00336097 0.00733183)
(0.853272 0.105044 0.0334308 0.0275484 0.00313419 0.00601585)
(0.903048 0.10592 0.0304878 0.0274826 0.0026735 0.00516273)
(0.963331 0.111663 0.0307927 0.0276081 0.00263214 0.00477128)
(1.01265 0.11253 0.0294308 0.0273673 0.0022918 0.00454546)
(1.08048 0.11886 0.0305966 0.0278691 0.00232672 0.00447488)
(1.11694 0.118496 0.0294626 0.0268342 0.00209294 0.00439973)
(1.21164 0.126456 0.0307327 0.0284102 0.00187301 0.00440487)
(1.23187 0.137565 0.0341343 0.0319465 0.00267925 0.00453962)
(0.0410062 -0.00852431 0.00419308 0.0053087 -0.00239227 0.00152953)
(0.067752 -0.020736 0.00920089 0.0168227 -0.00594906 0.00442623)
(0.18099 -0.0487334 0.023832 0.0238 -0.00820857 0.00793254)
(0.254291 -0.056064 0.0319498 0.0261695 -0.00794281 0.00970808)
(0.374614 -0.072665 0.0446085 0.0272997 -0.0080126 0.011459)
(0.434892 -0.0738545 0.0484184 0.0275214 -0.00710351 0.012339)
(0.524746 -0.0846912 0.0546735 0.0276281 -0.00688854 0.0136191)
(0.566559 -0.0838644 0.0520417 0.0275473 -0.00593273 0.0138392)
(0.637799 -0.0921719 0.0512692 0.0275854 -0.00553829 0.0133071)
(0.679443 -0.0915453 0.0443523 0.0275119 -0.00455765 0.011439)
(0.745097 -0.0986252 0.040964 0.0275468 -0.00412062 0.00935114)
(0.79137 -0.0987712 0.0350762 0.0274892 -0.00336026 0.00733001)
(0.853294 -0.105047 0.0334412 0.0275488 -0.00313523 0.00601879)
(0.903021 -0.105903 0.0304703 0.0274793 -0.00267115 0.0051583)
(0.963404 -0.111678 0.0308236 0.0276101 -0.00263538 0.00477733)
(1.01257 -0.112467 0.029386 0.0273505 -0.00228501 0.00453773)
(1.0806 -0.118933 0.0306589 0.0278826 -0.00233571 0.00448298)
(1.11666 -0.118295 0.0293809 0.0267782 -0.00208012 0.00439234)
(1.21171 -0.12659 0.0308172 0.0284404 -0.00188837 0.00440824)
(1.23122 -0.137319 0.0340494 0.0318388 -0.00266932 0.00454277)
(0.0416827 0.00138299 0.00436414 0.00084253 0.000222901 0.00158028)
(0.0736422 0.0118411 0.0102202 0.00917259 0.00280843 0.00451191)
(0.192207 0.0321807 0.0254114 0.0160739 0.00380345 0.00803409)
(0.263472 0.0409479 0.0332557 0.0216859 0.00376984 0.00981228)
(0.37731 0.0599011 0.0451019 0.024692 0.00457739 0.0115409)
(0.428996 0.0654209 0.0478597 0.0261679 0.00479805 0.0123809)
(0.510172 0.0793736 0.0531086 0.0269678 0.00557826 0.0136016)
(0.546311 0.0806731 0.0497917 0.0273077 0.00531908 0.0137434)
(0.612191 0.0896526 0.0485879 0.0275117 0.00524721 0.0131365)
(0.651624 0.0894212 0.0417182 0.0275351 0.00442914 0.011236)
(0.714234 0.0964514 0.0385449 0.0275734 0.00404252 0.00918036)
(0.759755 0.0967701 0.0330862 0.0275505 0.00333999 0.00722399)
(0.819555 0.10304 0.0317754 0.0276013 0.00315349 0.00598623)
(0.869294 0.103832 0.0291273 0.0275194 0.00269522 0.00516947)
(0.927582 0.110068 0.0296281 0.0277238 0.00272017 0.00482693)
(0.97762 0.109752 0.0283462 0.0272045 0.00230627 0.004591)
(1.04286 0.118406 0.0296613 0.0282835 0.00245539 0.00455647)
(1.0796 0.114145 0.0284721 0.025939 0.00215887 0.00445262)
(1.17065 0.125451 0.0298957 0.0289683 0.00195485 0.00447639)
(1.18901 0.13276 0.0332371 0.0299278 0.00315307 0.00459731)
(0.0421091 -0.0171231 0.00441373 0.0205657 -0.0049274 0.00158584)
(0.0776179 -0.0363397 0.0108762 0.0336071 -0.00961757 0.00449873)
(0.186139 -0.0680065 0.0247003 0.0382128 -0.012774 0.00795836)
(0.238041 -0.0687951 0.0301303 0.0343928 -0.0119697 0.00968874)
(0.323375 -0.0784175 0.0381623 0.0315791 -0.0110623 0.0113237)
(0.355598 -0.0729467 0.0380403 0.0294646 -0.00895975 0.0120698)
(0.41756 -0.0795179 0.0405995 0.0284456 -0.00774921 0.0131008)
(0.448817 -0.0765827 0.0365774 0.0278929 -0.00615007 0.0130013)
(0.505844 -0.0840866 0.0351423 0.0278195 -0.00547378 0.012203)
(0.544766 -0.0833437 0.0296186 0.0277013 -0.00440102 0.0102983)
(0.600412 -0.0904307 0.0276139 0.0277683 -0.00399831 0.00843391)
(0.645297 -0.0906942 0.0238505 0.027703 -0.00329462 0.0067435)
(0.698535 -0.0969389 0.023419 0.0277789 -0.00311505 0.00574659)
(0.748194 -0.0981339 0.0218011 0.0277359 -0.00272116 0.00508282)
(0.798174 -0.103325 0.0224026 0.0277858 -0.00265409 0.004842)
(0.853553 -0.105978 0.0218115 0.0278672 -0.00242751 0.00463613)
(0.898838 -0.109316 0.0226815 0.0277261 -0.0023708 0.00464618)
(0.963584 -0.114382 0.0222479 0.028207 -0.00216009 0.00452024)
(1.00238 -0.115879 0.0230182 0.0278192 -0.00205862 0.00456268)
(1.09809 -0.13167 0.0265462 0.032693 -0.00223707 0.00461615)
(0.0411715 -0.00571756 0.00443171 0.00621565 -0.00235415 0.00171735)
(0.0687289 0.00393854 0.00956369 0.00916647 -0.000477921 0.00459488)
(0.129712 0.0206029 0.0160536 0.0154733 0.000393388 0.00777582)
(0.138371 0.0275304 0.0133694 0.0218119 0.00133517 0.00918871)
(0.175672 0.0409209 0.0131335 0.0249745 0.00310771 0.0106003)
(0.193196 0.0409998 0.00919379 0.0266556 0.00403587 0.0110755)
(0.230215 0.0498628 0.00896873 0.0275071 0.00518271 0.0117025)
(0.259386 0.0486393 0.00637072 0.0278449 0.00503824 0.0111322)
(0.296345 0.0559701 0.00662553 0.027957 0.0049593 0.0101488)
(0.332228 0.0556932 0.00513323 0.0279397 0.00422757 0.00848545)
(0.368499 0.0623877 0.00596825 0.0279271 0.00397791 0.00718794)
(0.408958 0.0630741 0.00538945 0.0279118 0.00346139 0.00607579)
(0.444537 0.0690364 0.0065346 0.0279091 0.0033947 0.00553944)
(0.488464 0.0704516 0.00640351 0.027876 0.00306219 0.00514271)
(0.52339 0.0758708 0.00749267 0.0279722 0.00311438 0.00505523)
(0.570207 0.0773757 0.00755018 0.0276007 0.00277957 0.00490985)
(0.60479 0.0834384 0.00851255 0.0284405 0.00291915 0.00495257)
(0.652587 0.0828141 0.00856941 0.0263975 0.00267936 0.00483462)
(0.689066 0.0888098 0.0095677 0.0283034 0.00246091 0.00488406)
(0.73639 0.0918555 0.012194 0.0299633 0.00406887 0.00492788)
(0.0309989 -0.00376292 0.00115972 0.0459327 -0.00769744 0.00167268)
(0.0559411 0.023903 -0.00598167 0.0481131 -0.0109456 0.00396457)
(0.141025 0.0373568 -0.0158923 0.0404693 -0.0113049 0.00599921)
(0.234449 0.0484826 -0.0259297 0.0325355 -0.00916651 0.00669965)
(0.300044 0.0407892 -0.0316595 0.0295154 -0.00799601 0.00739931)
(0.346856 0.0412562 -0.033472 0.0283484 -0.00645861 0.00738362)
(0.361945 0.0324559 -0.0328775 0.0281369 -0.00588955 0.0073566)
(0.383103 0.0322913 -0.0303616 0.0280738 -0.00500055 0.00665563)
(0.384665 0.0249056 -0.0278705 0.028198 -0.00481212 0.0060576)
(0.406968 0.0244249 -0.0254352 0.02822 -0.00431643 0.00529289)
(0.409529 0.0180128 -0.0236505 0.0283235 -0.00427469 0.00490274)
(0.435382 0.0167946 -0.0222301 0.0283052 -0.0039653 0.00452491)
(0.439646 0.0110574 -0.0212246 0.0283778 -0.00396459 0.00443585)
(0.466981 0.00914769 -0.0203091 0.0283653 -0.00376185 0.00429093)
(0.473435 0.00407168 -0.0196937 0.0283872 -0.00374957 0.00430317)
(0.499965 0.00147467 -0.0187302 0.028573 -0.00363466 0.00422273)
(0.511444 -0.00253906 -0.0185741 0.0282401 -0.00354912 0.00425491)
(0.533757 -0.00789623 -0.0170749 0.0291419 -0.003432 0.00417293)
(0.54882 -0.00709344 -0.0172875 0.0282339 -0.00344481 0.00418799)
(0.587265 -0.030593 -0.0135369 0.0273759 -0.00266631 0.00416871)
(0.0953522 0.0071349 -0.00887157 0.00093324 -0.000994373 0.0016175)
(0.374254 -0.0535086 -0.0234592 0.00980931 0.00347948 0.00232721)
(0.531379 -0.0912227 -0.0291901 0.0205496 0.00531409 0.00274513)
(0.677924 -0.1157 -0.0315567 0.0254792 0.00538155 0.00263677)
(0.662914 -0.113418 -0.0315968 0.0272061 0.00563369 0.00277247)
(0.72168 -0.118828 -0.0309609 0.0277912 0.0052526 0.00257873)
(0.67343 -0.111355 -0.0297448 0.0281983 0.00540254 0.00257244)
(0.710813 -0.113194 -0.0283313 0.0282142 0.00505956 0.00232797)
(0.665052 -0.105643 -0.0270273 0.0283442 0.00516197 0.00227783)
(0.696894 -0.106222 -0.0258236 0.0282931 0.00488467 0.00209659)
(0.659441 -0.0994586 -0.0248865 0.0283516 0.00496277 0.00209015)
(0.687345 -0.0991983 -0.0239828 0.0282986 0.00474256 0.00198268)
(0.65717 -0.0932424 -0.023294 0.0283237 0.00480065 0.00200293)
(0.680632 -0.0923117 -0.0225063 0.0282884 0.00462217 0.00193051)
(0.657028 -0.0871279 -0.0219492 0.0282869 0.00465744 0.00195122)
(0.675167 -0.0856676 -0.0211325 0.0283234 0.00451934 0.00189275)
(0.660013 -0.0811346 -0.0207663 0.0281258 0.00450146 0.00190904)
(0.669934 -0.0797065 -0.0197732 0.0287056 0.00444366 0.00185403)
(0.664396 -0.0707188 -0.0195796 0.0251065 0.00409104 0.00187032)
(0.703961 -0.090089 -0.017301 0.0298583 0.00417608 0.00170143)
(0.0330769 -0.00158716 0.000150926 0.016531 0.000191158 3.93932e-06)
(0.228922 -0.0804599 -0.000208711 0.0397668 0.000224236 2.74684e-06)
(0.443223 -0.110346 -0.000227462 0.0461606 0.00029079 3.45715e-06)
(0.786479 -0.151262 -0.000246265 0.0458821 0.000233441 2.71168e-06)
(0.761405 -0.139319 -0.000300746 0.0471979 0.000293549 3.35395e-06)
(0.92067 -0.161595 -0.000248778 0.0488338 0.000246989 2.68449e-06)
(0.813429 -0.144461 -0.000314482 0.0501225 0.000305321 3.25333e-06)
(0.921174 -0.158717 -0.000246432 0.0509488 0.000260065 2.64933e-06)
(0.824246 -0.140997 -0.000312342 0.0513054 0.000311136 3.14478e-06)
(0.913738 -0.150248 -0.000236177 0.0515168 0.000267126 2.60087e-06)
(0.834952 -0.134319 -0.000298226 0.0515778 0.000311005 3.02166e-06)
(0.910473 -0.140547 -0.000214089 0.0516465 0.000268973 2.5349e-06)
(0.847025 -0.126826 -0.000270156 0.0516517 0.000306364 2.88496e-06)
(0.910198 -0.130822 -0.000177693 0.0517092 0.000266369 2.45224e-06)
(0.859351 -0.118962 -0.000226991 0.05164 0.000297706 2.73759e-06)
(0.911483 -0.121571 -0.000125577 0.0519674 0.000260105 2.35526e-06)
(0.873348 -0.110324 -0.000169796 0.0508901 0.000283208 2.58392e-06)
(0.904339 -0.112893 -4.80392e-05 0.0543265 0.000254446 2.24635e-06)
(0.905129 -0.0964364 -0.000122704 0.0421107 0.000243648 2.43876e-06)
(0.831489 -0.0726028 0.000159765 0.0444568 0.00020809 2.07004e-06)
(0.0454695 0.000903706 0.00025368 0.00292685 -3.76256e-05 2.82226e-06)
(0.0374502 -7.0565e-05 0.000114621 0.00955621 -0.000100808 2.02292e-06)
(0.076511 -0.0163735 0.00034836 0.0208933 -0.000181853 2.63456e-06)
(0.106949 0.00068494 0.000242003 0.0328023 -0.000176475 2.02987e-06)
(0.144625 -0.011142 0.000362651 0.0414743 -0.000240648 2.57456e-06)
(0.199165 0.0117473 0.000284857 0.0466169 -0.000202361 2.01109e-06)
(0.216966 -0.00533504 0.000369993 0.0488218 -0.000261178 2.50015e-06)
(0.26052 0.00907828 0.000312835 0.0499163 -0.000217436 1.98626e-06)
(0.268989 -0.00939811 0.00038581 0.050218 -0.000267943 2.41762e-06)
(0.307122 -0.000107073 0.000341661 0.0504481 -0.000224449 1.94972e-06)
(0.316934 -0.0166616 0.000405605 0.0504425 -0.000267664 2.31873e-06)
(0.354161 -0.0103372 0.000372497 0.0505538 -0.00022608 1.89628e-06)
(0.367008 -0.0245393 0.00042864 0.0505007 -0.000262901 2.2055e-06)
(0.403711 -0.0204756 0.000406694 0.0506332 -0.000223349 1.82794e-06)
(0.41935 -0.0326545 0.00045618 0.0505056 -0.000254301 2.08176e-06)
(0.454977 -0.0303488 0.000445411 0.0507343 -0.000216549 1.74799e-06)
(0.473755 -0.041066 0.000489709 0.0508503 -0.000242725 1.95139e-06)
(0.5061 -0.0389654 0.000487788 0.0500371 -0.000204395 1.66116e-06)
(0.534991 -0.0518069 0.000533738 0.053153 -0.000230218 1.8139e-06)
(0.535275 -0.0334198 0.000509515 0.0544505 -0.000184005 1.53184e-06)
(0.0374582 0.00958267 0.000239053 0.00918708 0.000135866 3.35898e-06)
(0.0458457 0.0175261 0.000150098 0.0453418 0.000207962 2.45913e-06)
(0.142507 0.0682831 0.000483676 0.0598736 0.000284815 3.0831e-06)
(0.132412 0.0494207 0.000345401 0.0574523 0.000221709 2.38279e-06)
(0.204574 0.0727661 0.000580706 0.0539236 0.000283329 2.97743e-06)
(0.190265 0.0527677 0.000452453 0.0517203 0.000230221 2.3524e-06)
(0.254385 0.0729552 0.000645191 0.0506033 0.00028599 2.88627e-06)
(0.255899 0.0600485 0.000535625 0.0503203 0.000239144 2.32317e-06)
(0.31967 0.0789342 0.000704825 0.0501385 0.000288991 2.79206e-06)
(0.331785 0.0701596 0.000610102 0.0502396 0.00024533 2.28284e-06)
(0.393361 0.0865828 0.00075986 0.0501973 0.000288583 2.68329e-06)
(0.412342 0.0804737 0.000678698 0.050283 0.000247105 2.22553e-06)
(0.470847 0.0944526 0.000810904 0.0502683 0.000284064 2.56016e-06)
(0.495576 0.0906013 0.000743806 0.0502998 0.000244484 2.15193e-06)
(0.550238 0.102196 0.000859143 0.0503031 0.000275596 2.42601e-06)
(0.582284 0.101129 0.000808232 0.0504401 0.000238067 2.06469e-06)
(0.628127 0.108443 0.000903291 0.0497754 0.000262147 2.28584e-06)
(0.677858 0.114402 0.000877352 0.0520004 0.000230144 1.9686e-06)
(0.701693 0.106591 0.000944086 0.0434182 0.000233176 2.15604e-06)
(0.789406 0.130849 0.000946142 0.0571526 0.00022047 1.85447e-06)
(0.0341798 -0.00277824 0.000206078 0.00204656 -6.25871e-05 2.8617e-06)
(0.0397215 -0.00172537 0.00012258 0.0107995 -0.000120009 2.14729e-06)
(0.14297 -0.0262875 0.000443058 0.0215714 -0.000190898 2.72368e-06)
(0.162728 -0.0275193 0.000326257 0.0317257 -0.000176686 2.09451e-06)
(0.281815 -0.0613426 0.000578715 0.0389578 -0.000236615 2.64433e-06)
(0.281191 -0.0584403 0.000454734 0.0440167 -0.000200401 2.07006e-06)
(0.375753 -0.0862876 0.000671316 0.0467173 -0.000258475 2.56714e-06)
(0.371954 -0.0787873 0.000552378 0.0483602 -0.000217012 2.04457e-06)
(0.455625 -0.099419 0.000741913 0.0490328 -0.000267723 2.48271e-06)
(0.460645 -0.091493 0.000633266 0.0494477 -0.000225249 2.00791e-06)
(0.53963 -0.107945 0.000801893 0.0495197 -0.000268353 2.38364e-06)
(0.553693 -0.101865 0.000705775 0.0496337 -0.000227227 1.95537e-06)
(0.628135 -0.115749 0.000855847 0.0496349 -0.000263983 2.27041e-06)
(0.649455 -0.111606 0.000773163 0.0496374 -0.000224488 1.8875e-06)
(0.719661 -0.123893 0.000906218 0.0498393 -0.000256122 2.14597e-06)
(0.746338 -0.120489 0.000836917 0.0492963 -0.000216875 1.80743e-06)
(0.815753 -0.133479 0.000955945 0.0508792 -0.00024646 2.01447e-06)
(0.838825 -0.127127 0.000893409 0.0473494 -0.000202613 1.72018e-06)
(0.925568 -0.144971 0.00101087 0.0533754 -0.000234951 1.8764e-06)
(0.901603 -0.138367 0.000914734 0.0529645 -0.000195204 1.62115e-06)
(0.0346525 0.0060931 0.000218221 0.00528192 0.000105508 3.1352e-06)
(0.0391042 0.0066233 0.000130193 0.027446 0.000174227 2.37872e-06)
(0.137865 0.0523837 0.000463237 0.0406124 0.000248587 2.96634e-06)
(0.161944 0.0496476 0.000344899 0.0459135 0.000204591 2.28778e-06)
(0.292993 0.0840521 0.000612563 0.0479142 0.000266437 2.86402e-06)
(0.304234 0.0737306 0.000486522 0.0489258 0.000218984 2.25501e-06)
(0.413675 0.0979597 0.00071871 0.0492059 0.000275287 2.77572e-06)
(0.415571 0.0873579 0.000596701 0.0494422 0.000229925 2.22597e-06)
(0.508458 0.106632 0.000800773 0.0493901 0.00027968 2.68345e-06)
(0.514318 0.0981702 0.00068857 0.0494921 0.000236482 2.18613e-06)
(0.599295 0.114327 0.000869724 0.0494306 0.000279391 2.578e-06)
(0.612853 0.108235 0.000770309 0.0494939 0.000238231 2.1309e-06)
(0.691989 0.121952 0.000931197 0.0494667 0.000274909 2.45898e-06)
(0.71271 0.118012 0.000845649 0.0494764 0.000235602 2.05974e-06)
(0.786982 0.129644 0.000987751 0.0495558 0.000266749 2.32843e-06)
(0.813051 0.127598 0.000916052 0.0493884 0.000228658 1.97506e-06)
(0.885804 0.136799 0.00104196 0.0495279 0.000254775 2.19107e-06)
(0.910374 0.137325 0.000980995 0.0494544 0.000218035 1.88225e-06)
(0.995752 0.139755 0.00110398 0.0469523 0.000234734 2.06042e-06)
(0.994029 0.153933 0.00102939 0.0588992 0.000219668 1.7868e-06)
(0.0343896 -0.00439456 0.000211224 0.00315343 -8.28643e-05 2.98209e-06)
(0.0383442 -0.00344277 0.000123129 0.0168042 -0.000145769 2.27685e-06)
(0.131958 -0.0377931 0.000446855 0.0278532 -0.000217186 2.84875e-06)
(0.155721 -0.03687 0.000333731 0.0363418 -0.000188753 2.19223e-06)
(0.287514 -0.0712163 0.000596011 0.0416538 -0.000249071 2.75378e-06)
(0.303598 -0.0658871 0.000473807 0.0453042 -0.000207986 2.16137e-06)
(0.418231 -0.0930839 0.000704196 0.0471774 -0.000264883 2.66979e-06)
(0.423909 -0.0853132 0.000583943 0.0483448 -0.000221968 2.13337e-06)
(0.520347 -0.105993 0.000787101 0.0487793 -0.000272125 2.58074e-06)
(0.527428 -0.0983373 0.000675017 0.0491062 -0.000229639 2.09478e-06)
(0.614232 -0.114843 0.00085549 0.0491535 -0.000272604 2.47844e-06)
(0.627855 -0.108871 0.000755311 0.0492567 -0.00023165 2.04102e-06)
(0.708302 -0.122721 0.000915735 0.0492671 -0.000268334 2.36256e-06)
(0.728395 -0.118535 0.000828848 0.0492372 -0.000228969 1.97175e-06)
(0.804945 -0.1308 0.000971331 0.0494668 -0.00026053 2.23518e-06)
(0.827932 -0.127261 0.00089705 0.0488861 -0.000221419 1.88961e-06)
(0.90808 -0.139614 0.00102626 0.0500997 -0.000250154 2.10069e-06)
(0.919736 -0.134412 0.000956373 0.0475857 -0.000208352 1.79984e-06)
(1.02722 -0.147825 0.00108921 0.0504012 -0.00023552 1.96547e-06)
(0.987853 -0.149729 0.00099156 0.0560265 -0.000208851 1.70796e-06)
(0.0343896 0.00439453 0.000211224 0.00315343 8.28642e-05 2.98209e-06)
(0.0383442 0.00344286 0.000123131 0.0168042 0.000145769 2.27685e-06)
(0.131958 0.0377932 0.000446855 0.0278532 0.000217187 2.84875e-06)
(0.155721 0.03687 0.000333734 0.0363419 0.000188753 2.19223e-06)
(0.287514 0.0712164 0.000596013 0.0416539 0.000249071 2.75378e-06)
(0.303598 0.0658875 0.000473815 0.0453043 0.000207986 2.16136e-06)
(0.41823 0.093084 0.000704201 0.0471776 0.000264884 2.66979e-06)
(0.423909 0.0853129 0.000583941 0.0483451 0.000221969 2.13337e-06)
(0.520346 0.105994 0.000787103 0.0487796 0.000272126 2.58074e-06)
(0.52743 0.098339 0.000675028 0.0491065 0.000229639 2.09477e-06)
(0.614227 0.114843 0.000855486 0.0491542 0.000272607 2.47843e-06)
(0.627863 0.108873 0.000755292 0.0492578 0.000231652 2.04102e-06)
(0.708285 0.122722 0.000915727 0.0492681 0.000268337 2.36257e-06)
(0.728424 0.11855 0.000828862 0.0492416 0.000228975 1.9717e-06)
(0.804891 0.130796 0.000971317 0.0494685 0.000260536 2.23519e-06)
(0.828021 0.127309 0.000897003 0.0489053 0.000221447 1.88948e-06)
(0.907989 0.139596 0.00102624 0.0501012 0.000250175 2.10089e-06)
(0.919979 0.134572 0.000956436 0.047657 0.000208472 1.79965e-06)
(1.02719 0.147808 0.00108965 0.0504098 0.000235646 1.96661e-06)
(0.988462 0.150133 0.000991994 0.0562559 0.000209208 1.70797e-06)
(0.0346526 -0.00609312 0.000218223 0.00528193 -0.000105508 3.1352e-06)
(0.0391042 -0.00662324 0.00013019 0.027446 -0.000174227 2.37872e-06)
(0.137865 -0.0523836 0.000463241 0.0406123 -0.000248587 2.96633e-06)
(0.161944 -0.0496476 0.000344901 0.0459134 -0.000204591 2.28778e-06)
(0.292993 -0.084052 0.000612567 0.0479141 -0.000266437 2.86402e-06)
(0.304234 -0.0737302 0.000486521 0.0489257 -0.000218985 2.25502e-06)
(0.413675 -0.0979596 0.000718726 0.0492057 -0.000275287 2.77572e-06)
(0.415571 -0.087358 0.000596729 0.0494419 -0.000229925 2.22597e-06)
(0.50846 -0.106631 0.000800789 0.0493899 -0.000279679 2.68345e-06)
(0.514318 -0.0981683 0.000688576 0.0494916 -0.000236482 2.18615e-06)
(0.599298 -0.114327 0.000869751 0.0494302 -0.000279389 2.578e-06)
(0.612849 -0.108232 0.000770354 0.049492 -0.000238228 2.1309e-06)
(0.692006 -0.121954 0.000931208 0.0494671 -0.000274908 2.45896e-06)
(0.71269 -0.117993 0.00084566 0.0494694 -0.000235592 2.05982e-06)
(0.787038 -0.129657 0.000987774 0.049559 -0.00026675 2.32837e-06)
(0.81298 -0.127544 0.000916151 0.0493634 -0.000228627 1.97523e-06)
(0.885921 -0.13684 0.00104198 0.0495401 -0.000254777 2.1908e-06)
(0.91016 -0.137177 0.000980971 0.0493882 -0.000217934 1.88252e-06)
(0.995894 -0.139827 0.00110365 0.0469701 -0.000234674 2.05935e-06)
(0.993487 -0.15365 0.001029 0.0587454 -0.000219456 1.78693e-06)
(0.0341798 0.00277823 0.00020608 0.00204656 6.2587e-05 2.8617e-06)
(0.0397215 0.00172544 0.000122583 0.0107995 0.000120009 2.14728e-06)
(0.14297 0.0262876 0.000443063 0.0215715 0.000190899 2.72368e-06)
(0.162728 0.0275193 0.000326264 0.0317257 0.000176687 2.09451e-06)
(0.281815 0.0613427 0.000578721 0.0389579 0.000236615 2.64433e-06)
(0.281191 0.0584406 0.000454747 0.0440167 0.000200401 2.07006e-06)
(0.375752 0.0862877 0.000671335 0.0467175 0.000258475 2.56714e-06)
(0.371954 0.0787871 0.000552398 0.0483603 0.000217012 2.04457e-06)
(0.455625 0.0994197 0.000741931 0.0490332 0.000267724 2.48271e-06)
(0.460647 0.0914939 0.000633289 0.0494477 0.000225249 2.0079e-06)
(0.539626 0.107946 0.000801902 0.0495207 0.000268356 2.38364e-06)
(0.553703 0.101865 0.000705782 0.0496338 0.000227228 1.95537e-06)
(0.628122 0.115753 0.000855854 0.0496375 0.000263988 2.2704e-06)
(0.64949 0.111612 0.000773208 0.0496381 0.000224488 1.88748e-06)
(0.719613 0.123899 0.000906192 0.0498465 0.000256135 2.14593e-06)
(0.746458 0.120513 0.000836957 0.0493034 0.000216887 1.8074e-06)
(0.815665 0.133491 0.000955894 0.0508976 0.000246501 2.01452e-06)
(0.839172 0.127273 0.000893618 0.0474121 0.000202736 1.72019e-06)
(0.925509 0.145001 0.00101122 0.0534109 0.000235108 1.8773e-06)
(0.902552 0.138904 0.000915415 0.0532616 0.000195715 1.62147e-06)
(0.0374583 -0.00958269 0.000239056 0.0091871 -0.000135866 3.35898e-06)
(0.0458457 -0.0175261 0.000150097 0.0453418 -0.000207962 2.45913e-06)
(0.142507 -0.0682832 0.000483686 0.0598737 -0.000284815 3.0831e-06)
(0.132412 -0.0494207 0.000345408 0.0574521 -0.000221709 2.38279e-06)
(0.204574 -0.072766 0.000580717 0.0539236 -0.000283329 2.97743e-06)
(0.190265 -0.0527674 0.000452464 0.0517202 -0.000230221 2.35241e-06)
(0.254385 -0.0729551 0.000645226 0.0506031 -0.000285989 2.88629e-06)
(0.255899 -0.0600486 0.000535676 0.05032 -0.000239144 2.32317e-06)
(0.319671 -0.0789338 0.000704862 0.0501384 -0.00028899 2.79206e-06)
(0.331785 -0.0701585 0.000610128 0.050239 -0.000245329 2.28285e-06)
(0.393361 -0.0865832 0.000759905 0.0501973 -0.000288582 2.68329e-06)
(0.412343 -0.0804724 0.000678758 0.0502808 -0.000247101 2.22554e-06)
(0.470852 -0.0944545 0.000810931 0.0502696 -0.000284064 2.56012e-06)
(0.495583 -0.0905921 0.00074384 0.0502924 -0.000244475 2.15201e-06)
(0.550249 -0.102207 0.000859155 0.0503096 -0.000275598 2.42588e-06)
(0.582313 -0.1011 0.000808388 0.0504139 -0.000238039 2.06495e-06)
(0.628144 -0.108485 0.000903242 0.0498013 -0.000262158 2.28532e-06)
(0.677941 -0.114334 0.000877592 0.0519415 -0.000230094 1.96926e-06)
(0.701719 -0.106705 0.000943721 0.0434848 -0.000233213 2.15463e-06)
(0.789543 -0.130804 0.000946388 0.0570994 -0.000220508 1.85541e-06)
(0.0454696 -0.000903686 0.000253682 0.00292685 3.76256e-05 2.82226e-06)
(0.0374502 7.06322e-05 0.000114623 0.00955622 0.000100808 2.02291e-06)
(0.0765111 0.0163736 0.000348369 0.0208934 0.000181854 2.63455e-06)
(0.106949 -0.000684857 0.000242012 0.0328022 0.000176475 2.02987e-06)
(0.144625 0.0111421 0.000362662 0.0414743 0.000240648 2.57456e-06)
(0.199165 -0.011747 0.000284874 0.0466169 0.000202361 2.01109e-06)
(0.216966 0.00533507 0.000370026 0.0488219 0.000261179 2.50016e-06)
(0.26052 -0.00907815 0.000312879 0.0499163 0.000217436 1.98626e-06)