/*--------------------------------*- C++ -*----------------------------------*\
  =========                 |
  \\      /  F ield         | OpenFOAM: The Open Source CFD Toolbox
   \\    /   O peration     | Website:  https://openfoam.org
    \\  /    A nd           | Version:  7
     \\/     M anipulation  |
\*---------------------------------------------------------------------------*/
FoamFile
{
    version     2.0;
    format      ascii;
    class       volSymmTensorField;
    location    "2.5";
    object      UPrime2Mean;
}
// * * * * * * * * * * * * * * * * * * * * * * * * * * * * * * * * * * * * * //

dimensions      [0 2 -2 0 0 0 0];

internalField   nonuniform List<symmTensor> 
7920
(
(0.00946246 -0.000769918 -0.000983964 0.000105883 0.000117558 0.000268921)
(0.0407511 0.00550114 -0.00304563 0.000957262 -0.000385485 0.00113543)
(0.0622385 0.00994591 -0.00467549 0.0020753 -0.000652907 0.0025846)
(0.0831824 0.0129522 -0.00573233 0.00260808 -0.000669385 0.0036583)
(0.087286 0.0131383 -0.00689678 0.00279307 -0.000740858 0.00409458)
(0.0984782 0.0139253 -0.00751639 0.00285093 -0.000704401 0.00373562)
(0.0982619 0.0134279 -0.0081862 0.002891 -0.000765517 0.00318215)
(0.106033 0.0137972 -0.00828317 0.00289675 -0.000739048 0.00254034)
(0.104938 0.0132597 -0.00851898 0.00291542 -0.000783529 0.0021522)
(0.110977 0.0134644 -0.00840916 0.00291676 -0.000752202 0.0018732)
(0.109815 0.0129516 -0.0085291 0.0029274 -0.000776089 0.00177037)
(0.114693 0.0130272 -0.00842764 0.00292629 -0.000744581 0.00167729)
(0.113704 0.0125511 -0.00847866 0.0029312 -0.000755858 0.00165317)
(0.117706 0.0125306 -0.00843913 0.00292979 -0.000731201 0.00164035)
(0.116986 0.0120942 -0.00837881 0.00292972 -0.000725821 0.00164056)
(0.120336 0.0120062 -0.0085239 0.00293432 -0.000718083 0.00171703)
(0.119794 0.011523 -0.00822473 0.00290327 -0.00067185 0.00167653)
(0.123149 0.0114886 -0.00882608 0.00296417 -0.000722414 0.00186627)
(0.121029 0.00973336 -0.00783056 0.00251201 -0.000497583 0.00170016)
(0.13351 0.0134778 -0.00922195 0.0031743 -0.000856141 0.00192811)
(0.0028617 0.000366577 0.00012034 0.00480679 0.000739969 0.000209049)
(0.00579964 -0.0029334 -0.000500901 0.00540215 0.0010986 0.000796986)
(0.0173305 -0.00539431 -0.0015687 0.00466654 0.00123121 0.00185054)
(0.0341225 -0.00751365 -0.00308231 0.00377699 0.00108944 0.00289515)
(0.0512749 -0.00757693 -0.00473275 0.00336618 0.0010146 0.00370807)
(0.0678702 -0.0081834 -0.00629886 0.00317545 0.000884315 0.00385872)
(0.0826021 -0.00783395 -0.0076909 0.00309704 0.000840445 0.00365429)
(0.095783 -0.00808431 -0.00861968 0.00304756 0.000765789 0.00316776)
(0.107856 -0.00769359 -0.00928907 0.00303112 0.000759083 0.00272014)
(0.118469 -0.00775468 -0.00960389 0.00300615 0.000718085 0.0023363)
(0.128634 -0.00736507 -0.00987913 0.0030016 0.00072216 0.00207626)
(0.137483 -0.00729829 -0.00997246 0.00298365 0.000695256 0.00187437)
(0.146254 -0.00693458 -0.0100663 0.0029835 0.000697928 0.00172713)
(0.153896 -0.00676657 -0.0101216 0.00296914 0.000684038 0.00163259)
(0.16157 -0.00645205 -0.00998795 0.00296873 0.000672367 0.00153833)
(0.168706 -0.00612667 -0.0101805 0.0029672 0.000676994 0.00156818)
(0.174533 -0.0059094 -0.00969972 0.0029384 0.000626673 0.00148048)
(0.183684 -0.00501842 -0.0103943 0.00297627 0.000658446 0.0016577)
(0.179741 -0.00495017 -0.0090481 0.00288088 0.000523733 0.00150616)
(0.19349 -0.000268083 -0.0102896 0.00262296 0.000453506 0.00177077)
(0.00386547 0.000618941 0.000428556 0.000696775 0.000223219 0.000202329)
(0.00682986 -0.000130726 0.00097512 0.000971699 4.63438e-05 0.000690474)
(0.0128896 -0.00159524 0.00176699 0.00155027 4.58763e-06 0.00142999)
(0.0135807 -0.00235916 0.00170653 0.0020954 -3.27068e-05 0.0022046)
(0.0171292 -0.00371221 0.00177908 0.00233983 -0.000156457 0.00307269)
(0.0193115 -0.00379761 0.00118119 0.00247247 -0.000242899 0.00371653)
(0.0239564 -0.00457481 0.000684022 0.00254665 -0.000408055 0.00418279)
(0.028769 -0.00433035 -0.000297587 0.00259505 -0.00049 0.0042758)
(0.0347713 -0.00479614 -0.00103735 0.00263769 -0.00059667 0.00416767)
(0.0412854 -0.00451184 -0.00191251 0.00267107 -0.000626146 0.0038395)
(0.047979 -0.00486672 -0.00242641 0.00270013 -0.000672424 0.00347138)
(0.0552456 -0.00465642 -0.00297199 0.00272653 -0.00066789 0.00305479)
(0.0620527 -0.00497636 -0.00322207 0.00274655 -0.000681209 0.00266162)
(0.0695734 -0.00486821 -0.00350124 0.00276543 -0.000663674 0.00230451)
(0.076197 -0.00521879 -0.0034924 0.00278449 -0.000660938 0.00196565)
(0.0840322 -0.00507369 -0.00350542 0.0027801 -0.000652552 0.00175108)
(0.0900975 -0.00572728 -0.00322237 0.00283602 -0.000610375 0.00151257)
(0.0989844 -0.00481997 -0.00311246 0.00276902 -0.000715826 0.00150115)
(0.103029 -0.00620595 -0.00260411 0.00280148 -0.000488231 0.00135482)
(0.116095 -0.00235006 -0.00228244 0.00392652 -0.001266 0.00150606)
(0.00395899 0.00171568 0.00042434 0.00214565 0.000458656 0.000191194)
(0.00793193 0.00402871 0.0010783 0.00376034 0.000869478 0.00065788)
(0.0203187 0.00794166 0.00249943 0.00448159 0.00117778 0.00131921)
(0.0274384 0.00862585 0.00330554 0.00421519 0.00116808 0.00195552)
(0.03895 0.0101729 0.00454806 0.00395388 0.00117701 0.00275443)
(0.0438557 0.00989917 0.00500166 0.00373988 0.00107568 0.00347099)
(0.0526204 0.0107802 0.00566435 0.00358318 0.00102971 0.0042105)
(0.0562843 0.0103777 0.00539921 0.0034528 0.000926486 0.00467274)
(0.06363 0.0110711 0.00531512 0.00336426 0.000890886 0.00495692)
(0.0673704 0.0107531 0.00459761 0.00327511 0.00081665 0.00492017)
(0.0741095 0.0113593 0.00428616 0.00322235 0.000799055 0.00472707)
(0.0783658 0.0111638 0.0036466 0.00315852 0.000756847 0.00436755)
(0.0847226 0.0117045 0.00338467 0.00312915 0.000750431 0.00393302)
(0.0896004 0.0116218 0.00295768 0.00307815 0.00073325 0.00345355)
(0.0955194 0.0120945 0.00280729 0.00307174 0.000722992 0.00295078)
(0.101205 0.0121149 0.00279298 0.0030161 0.000717771 0.00248563)
(0.106392 0.0124956 0.00289119 0.00304765 0.00071474 0.00206515)
(0.113495 0.0126254 0.0034509 0.00295796 0.000671971 0.00175571)
(0.117241 0.0127599 0.00360852 0.00300573 0.000683917 0.00151076)
(0.128234 0.0136541 0.00508077 0.00317239 0.000537867 0.00144719)
(0.00392334 -0.000112477 0.000420995 8.05118e-05 -2.01261e-05 0.000191002)
(0.00743052 -0.00111324 0.00101007 0.000846577 -0.00025327 0.000670443)
(0.020972 -0.00300729 0.00254182 0.00148317 -0.000335943 0.00131679)
(0.030889 -0.00382916 0.00352119 0.00200052 -0.000319623 0.00192846)
(0.0476602 -0.00568274 0.00518304 0.0022811 -0.000383853 0.00266922)
(0.0577532 -0.00630534 0.00604417 0.00242076 -0.000406468 0.00338849)
(0.0738673 -0.00788204 0.00731208 0.00250353 -0.00051373 0.00415983)
(0.0828632 -0.00827383 0.00748469 0.00254814 -0.000552964 0.00476029)
(0.0978398 -0.00949522 0.00791989 0.0025886 -0.000635254 0.00520037)
(0.106205 -0.00976429 0.00745933 0.00261421 -0.000651745 0.00535868)
(0.120154 -0.010754 0.00747491 0.00264142 -0.000698606 0.00532884)
(0.128252 -0.0109986 0.00692833 0.00265998 -0.000694305 0.00509649)
(0.141252 -0.0118358 0.00687251 0.00268405 -0.000720101 0.00476284)
(0.149281 -0.0120848 0.00639693 0.00269274 -0.000697154 0.00429508)
(0.161372 -0.0128729 0.00636838 0.00272805 -0.00071757 0.00381018)
(0.16931 -0.01307 0.00614736 0.00269578 -0.000681148 0.00322572)
(0.180394 -0.0139398 0.00645091 0.00280094 -0.000693235 0.00273968)
(0.188617 -0.0143973 0.00676486 0.00265645 -0.000725881 0.00223618)
(0.196306 -0.0144498 0.00736385 0.00285546 -0.00061277 0.00188063)
(0.209183 -0.0192941 0.00895204 0.00350118 -0.00113152 0.00169344)
(0.00386484 0.000846891 0.000405039 0.000534736 0.000222953 0.000186665)
(0.00679596 0.00218869 0.000914643 0.00171594 0.000528808 0.000664401)
(0.0196349 0.00530992 0.00238639 0.00244298 0.000742096 0.00131397)
(0.0296746 0.00643492 0.00336977 0.00269391 0.000733615 0.00191978)
(0.0473875 0.00861226 0.00509729 0.00282227 0.000788318 0.00264926)
(0.0591719 0.00920819 0.00606634 0.00286002 0.00074987 0.00335929)
(0.0779608 0.0108877 0.00749847 0.00288703 0.000790887 0.0041282)
(0.0897838 0.0112237 0.00783035 0.00288479 0.000754745 0.00475172)
(0.108784 0.0125511 0.00846046 0.00289197 0.000782569 0.00523195)
(0.120662 0.0127649 0.00813596 0.00288132 0.000746306 0.00545348)
(0.139455 0.0138517 0.00831607 0.00288399 0.000763207 0.00549285)
(0.151371 0.0140359 0.00785254 0.00287262 0.000731783 0.00532951)
(0.169587 0.0149569 0.00792819 0.00287721 0.000745965 0.00506611)
(0.18158 0.0151223 0.00746588 0.00286243 0.00071854 0.00463946)
(0.198802 0.0159803 0.00752168 0.00288 0.000733545 0.00419933)
(0.211018 0.0160288 0.00722018 0.00284071 0.000702381 0.00360001)
(0.226257 0.0170348 0.00761179 0.00291053 0.000722109 0.00310533)
(0.239933 0.0170571 0.00781833 0.00280427 0.000705123 0.00254489)
(0.248647 0.0174203 0.00860289 0.0029226 0.000674531 0.0021181)
(0.268785 0.0198897 0.0102862 0.00336495 0.000858016 0.00190864)
(0.00386484 -0.000846899 0.000405042 0.000534732 -0.000222955 0.000186666)
(0.00679595 -0.00218868 0.000914634 0.00171594 -0.000528805 0.000664402)
(0.0196349 -0.00530993 0.00238642 0.00244298 -0.000742109 0.00131397)
(0.0296746 -0.00643491 0.00336971 0.0026939 -0.000733606 0.00191978)
(0.0473876 -0.00861228 0.00509741 0.00282227 -0.00078834 0.00264925)
(0.0591719 -0.00920811 0.00606613 0.00286002 -0.00074985 0.00335929)
(0.0779609 -0.0108878 0.00749881 0.00288704 -0.000790933 0.00412821)
(0.0897837 -0.0112236 0.00782981 0.00288477 -0.000754693 0.00475164)
(0.108784 -0.012551 0.00846132 0.00289196 -0.000782658 0.00523208)
(0.120662 -0.0127643 0.00813471 0.00288125 -0.000746182 0.00545319)
(0.139457 -0.0138509 0.00831792 0.00288387 -0.000763352 0.00549324)
(0.15137 -0.0140342 0.00785005 0.00287237 -0.00073148 0.00532895)
(0.169593 -0.0149541 0.00793164 0.00287687 -0.000746105 0.00506672)
(0.181579 -0.0151154 0.00746168 0.00286153 -0.000717825 0.00463881)
(0.198817 -0.0159746 0.00752683 0.00287941 -0.000733611 0.00419996)
(0.211015 -0.0160035 0.00721474 0.00283729 -0.000700301 0.00359948)
(0.226286 -0.0170281 0.00761658 0.0029102 -0.000722176 0.00310579)
(0.23993 -0.0169831 0.00781562 0.00279425 -0.000700035 0.00254494)
(0.248703 -0.0173952 0.00859918 0.00292113 -0.00067294 0.00211729)
(0.268806 -0.0197746 0.0102986 0.00334663 -0.000851249 0.00191137)
(0.00392335 0.000112469 0.000421004 8.0511e-05 2.01246e-05 0.000191004)
(0.00743053 0.00111324 0.00101004 0.000846574 0.000253266 0.000670444)
(0.020972 0.00300729 0.00254192 0.00148317 0.000335941 0.00131679)
(0.0308891 0.00382917 0.00352101 0.00200052 0.000319617 0.00192848)
(0.0476601 0.00568273 0.0051834 0.0022811 0.000383858 0.00266919)
(0.0577534 0.00630538 0.00604356 0.00242074 0.00040645 0.00338848)
(0.073867 0.00788202 0.00731312 0.00250351 0.000513747 0.00415983)
(0.0828639 0.00827389 0.00748308 0.00254813 0.000552918 0.00476003)
(0.0978386 0.00949532 0.00792247 0.00258859 0.000635322 0.00520078)
(0.106207 0.00976464 0.00745552 0.00261419 0.000651605 0.00535771)
(0.120151 0.0107547 0.00748061 0.00264147 0.000698851 0.00533024)
(0.128259 0.0109996 0.00692031 0.00266005 0.000693977 0.0050944)
(0.141246 0.0118383 0.00688397 0.00268425 0.00072079 0.00476545)
(0.149299 0.0120897 0.00638176 0.00269318 0.000696581 0.00429209)
(0.161364 0.0128775 0.00638897 0.00272843 0.000719026 0.00381371)
(0.169349 0.0130902 0.00612236 0.00269801 0.000680963 0.00322208)
(0.180402 0.0139445 0.0064811 0.00280109 0.000695722 0.00274399)
(0.188702 0.01446 0.00673615 0.00266511 0.000727493 0.00223251)
(0.196384 0.0144668 0.00739071 0.00285641 0.000617136 0.00188309)
(0.209363 0.0194021 0.00895164 0.00352429 0.00113518 0.00169593)
(0.003959 -0.00171569 0.000424352 0.00214565 -0.000458675 0.000191197)
(0.00793194 -0.00402869 0.00107826 0.00376033 -0.000869434 0.000657877)
(0.0203187 -0.00794166 0.00249957 0.00448159 -0.00117785 0.00131922)
(0.0274384 -0.00862584 0.00330526 0.00421516 -0.00116796 0.00195553)
(0.03895 -0.010173 0.0045485 0.00395388 -0.00117718 0.00275435)
(0.0438558 -0.00989913 0.00500085 0.00373986 -0.00107543 0.00347092)
(0.0526203 -0.0107803 0.0056656 0.00358318 -0.00103007 0.00421042)
(0.0562847 -0.0103778 0.00539732 0.00345275 -0.000925963 0.0046723)
(0.06363 -0.0110711 0.00531814 0.00336425 -0.000891619 0.00495756)
(0.0673715 -0.010753 0.00459332 0.00327497 -0.000815593 0.00491846)
(0.0741095 -0.0113592 0.00429298 0.00322225 -0.000800455 0.00472985)
(0.0783691 -0.0111634 0.0036369 0.00315818 -0.000754723 0.00436312)
(0.0847241 -0.0117039 0.00340029 0.00312883 -0.000753072 0.00393945)
(0.0896089 -0.0116194 0.00293534 0.003077 -0.000728829 0.00344522)
(0.095527 -0.0120944 0.00284239 0.00307139 -0.000728199 0.00296205)
(0.101223 -0.0121065 0.00274412 0.00301257 -0.0007084 0.00247172)
(0.106419 -0.0124998 0.00296193 0.00304794 -0.000725142 0.00208325)
(0.113526 -0.0126027 0.00336154 0.00294892 -0.00065412 0.0017342)
(0.11731 -0.0127681 0.0037206 0.00300603 -0.000700731 0.0015345)
(0.128299 -0.01362 0.00496482 0.00316228 -0.000512991 0.00142622)
(0.00386549 -0.000618949 0.000428565 0.000696769 -0.00022323 0.000202332)
(0.00682988 0.00013073 0.000975081 0.000971692 -4.63236e-05 0.000690468)
(0.0128896 0.00159523 0.00176705 0.00155026 -4.61086e-06 0.00142999)
(0.0135807 0.00235914 0.00170642 0.00209539 3.27493e-05 0.00220457)
(0.0171292 0.00371219 0.00177909 0.00233982 0.000156441 0.00307255)
(0.0193115 0.00379759 0.00118125 0.00247245 0.000242933 0.00371638)
(0.0239563 0.00457475 0.000683721 0.00254663 0.00040808 0.00418262)
(0.0287686 0.00433026 -0.000296496 0.00259503 0.000489942 0.00427539)
(0.0347714 0.00479598 -0.00103922 0.00263768 0.000596861 0.00416837)
(0.041284 0.00451186 -0.00190838 0.00267099 0.000625727 0.00383773)
(0.0479795 0.00486637 -0.00243301 0.0027002 0.000673219 0.00347505)
(0.0552407 0.00465646 -0.00296061 0.00272649 0.000666444 0.00304884)
(0.0620535 0.00497559 -0.00323854 0.00274678 0.000683703 0.00267193)
(0.069559 0.0048684 -0.00347675 0.00276546 0.000659553 0.00228954)
(0.0761922 0.00521749 -0.00352352 0.00278506 0.000667844 0.0019884)
(0.0839972 0.00507113 -0.00346342 0.0027811 0.000641829 0.00171911)
(0.0900654 0.00572567 -0.00326781 0.00283655 0.000628305 0.00155664)
(0.0989103 0.00481764 -0.00304601 0.00277462 0.000686606 0.0014407)
(0.102918 0.00620699 -0.00266575 0.00280283 0.000531103 0.00142769)
(0.115901 0.00239445 -0.00214912 0.00394114 0.00116131 0.00141617)
(0.00286172 -0.000366591 0.000120342 0.00480678 -0.00073998 0.000209052)
(0.00579967 0.00293341 -0.000500873 0.00540215 -0.00109856 0.000796984)
(0.0173304 0.00539428 -0.0015688 0.00466654 -0.00123126 0.00185054)
(0.0341224 0.0075136 -0.00308197 0.00377697 -0.00108934 0.00289511)
(0.0512748 0.00757689 -0.00473338 0.00336618 -0.00101472 0.00370795)
(0.0678699 0.00818332 -0.00629735 0.00317544 -0.000884121 0.00385863)
(0.0826018 0.00783389 -0.00769326 0.00309706 -0.000840725 0.00365425)
(0.0957821 0.00808402 -0.00861501 0.00304756 -0.000765356 0.00316765)
(0.107855 0.0076935 -0.00929675 0.00303114 -0.00075973 0.00272086)
(0.118466 0.00775397 -0.00959073 0.00300606 -0.000717053 0.0023353)
(0.128632 0.00736473 -0.0099012 0.00300161 -0.000723666 0.00207932)
(0.137472 0.0072965 -0.00993667 0.00298348 -0.000692771 0.00186957)
(0.146249 0.0069336 -0.0101245 0.0029835 -0.0007016 0.00173661)
(0.153864 0.00676165 -0.0100298 0.00296846 -0.000677729 0.00161716)
(0.161549 0.00645041 -0.0101303 0.00296895 -0.000682046 0.00156412)
(0.168637 0.00611438 -0.00996236 0.00296517 -0.000659895 0.00152698)
(0.174435 0.00590951 -0.0100224 0.00293981 -0.000654347 0.00154236)
(0.183586 0.00499372 -0.00990804 0.0029713 -0.000609565 0.00156404)
(0.179424 0.00495329 -0.00976056 0.00288627 -0.000607484 0.00162814)
(0.1935 0.000294217 -0.00918161 0.00262568 -0.00033775 0.00159395)
(0.00946249 0.000769897 -0.000983943 0.00010588 -0.000117553 0.000268925)
(0.0407512 -0.00550114 -0.00304552 0.000957262 0.000385484 0.00113546)
(0.0622385 -0.00994594 -0.00467558 0.00207531 0.000652925 0.00258468)
(0.0831824 -0.0129522 -0.00573185 0.00260809 0.00066933 0.0036584)
(0.0872861 -0.0131383 -0.0068972 0.00279308 0.000740906 0.0040947)
(0.0984782 -0.0139252 -0.00751529 0.0028509 0.0007043 0.00373578)
(0.0982619 -0.0134279 -0.00818818 0.00289099 0.000765718 0.00318243)
(0.106033 -0.013797 -0.00828044 0.00289671 0.000738807 0.00254051)
(0.104938 -0.0132598 -0.00852452 0.0029154 0.000784021 0.0021531)
(0.110975 -0.0134638 -0.00840134 0.00291662 0.000751512 0.00187256)
(0.109815 -0.0129518 -0.00854347 0.00292741 0.000777275 0.00177306)
(0.114689 -0.0130262 -0.00840564 0.00292611 0.000742732 0.00167346)
(0.113704 -0.0125515 -0.00851609 0.00293129 0.000758853 0.00166106)
(0.117693 -0.0125276 -0.00837925 0.00292926 0.000726212 0.00162733)
(0.116983 -0.0120952 -0.00847647 0.00293017 0.000733786 0.00166338)
(0.120308 -0.0120003 -0.00836582 0.00293318 0.00070428 0.00167862)
(0.119768 -0.0115261 -0.00847579 0.00290478 0.000694607 0.00173867)
(0.123104 -0.0114804 -0.00842019 0.00296222 0.000680812 0.00176703)
(0.120918 -0.00975497 -0.00843814 0.00251847 0.000562782 0.00183191)
(0.133385 -0.013498 -0.00838236 0.00318392 0.000720832 0.00177697)
(0.0031379 -0.000300444 1.62788e-05 0.00179913 1.39204e-05 4.33767e-07)
(0.0273609 -0.00926554 2.7053e-06 0.00421825 1.42668e-05 3.45256e-07)
(0.0593329 -0.0134581 1.20761e-05 0.00484512 2.09046e-05 3.9281e-07)
(0.11414 -0.0184517 3.218e-05 0.00472133 1.54445e-05 3.38221e-07)
(0.12268 -0.017784 2.37273e-05 0.00482481 2.20687e-05 3.77151e-07)
(0.157672 -0.0209315 4.2153e-05 0.00501491 1.72551e-05 3.24803e-07)
(0.152559 -0.0198173 2.61658e-05 0.00518433 2.35176e-05 3.59524e-07)
(0.179245 -0.0221115 4.32882e-05 0.00531305 1.87992e-05 3.10553e-07)
(0.172105 -0.0207853 2.61282e-05 0.00538939 2.43789e-05 3.41767e-07)
(0.194127 -0.0224033 4.28284e-05 0.00544641 1.97563e-05 2.97811e-07)
(0.186977 -0.0210872 2.57183e-05 0.00548062 2.4669e-05 3.24873e-07)
(0.205278 -0.0222397 4.19639e-05 0.00551132 2.02818e-05 2.85361e-07)
(0.198763 -0.0210253 2.52334e-05 0.00552945 2.46276e-05 3.07478e-07)
(0.214139 -0.0218454 4.12263e-05 0.00555102 2.04856e-05 2.71873e-07)
(0.208451 -0.020746 2.51604e-05 0.00555503 2.42724e-05 2.89439e-07)
(0.221842 -0.021314 4.14466e-05 0.00558975 2.04019e-05 2.57895e-07)
(0.215973 -0.0202165 2.57155e-05 0.00549856 2.34133e-05 2.71585e-07)
(0.229983 -0.0206227 4.46296e-05 0.00579381 2.0448e-05 2.44068e-07)
(0.217453 -0.0161752 2.39057e-05 0.00433166 2.09943e-05 2.55446e-07)
(0.216241 -0.0154602 5.72083e-05 0.00473032 1.70474e-05 2.2427e-07)
(0.00448867 0.000209597 1.95473e-05 0.000323467 -5.23711e-06 3.41542e-07)
(0.00355672 -2.07866e-05 1.22579e-05 0.000989313 -1.20999e-05 2.90158e-07)
(0.0074517 -0.00159976 3.66992e-05 0.00201906 -1.87726e-05 3.26564e-07)
(0.0143644 -8.44087e-05 4.21268e-05 0.00303062 -1.64332e-05 2.84775e-07)
(0.0221438 -0.000660473 5.69056e-05 0.00384056 -2.06517e-05 3.12028e-07)
(0.0400492 0.00244218 6.51672e-05 0.00439312 -1.5744e-05 2.68989e-07)
(0.0492016 0.00173036 7.2032e-05 0.00469258 -2.08649e-05 2.94461e-07)
(0.0706235 0.00428883 8.02108e-05 0.00489232 -1.60368e-05 2.54669e-07)
(0.0787614 0.00338455 8.24057e-05 0.00501462 -2.09417e-05 2.79098e-07)
(0.0999276 0.00537111 8.99167e-05 0.00511485 -1.62563e-05 2.42771e-07)
(0.106588 0.00444637 8.88071e-05 0.00518412 -2.07246e-05 2.64034e-07)
(0.126183 0.0059507 9.55272e-05 0.00524687 -1.6314e-05 2.30638e-07)
(0.131646 0.00503895 9.20351e-05 0.00528733 -2.03634e-05 2.48005e-07)
(0.149511 0.00616398 9.83327e-05 0.00533628 -1.62356e-05 2.17635e-07)
(0.154127 0.0052415 9.33248e-05 0.00534679 -1.98565e-05 2.31479e-07)
(0.170931 0.00622314 9.98225e-05 0.00541509 -1.59125e-05 2.0456e-07)
(0.17384 0.00488559 9.3845e-05 0.00538027 -1.92855e-05 2.15302e-07)
(0.192474 0.00694528 0.000101279 0.00551143 -1.49239e-05 1.92336e-07)
(0.18674 0.00353283 9.44135e-05 0.00552529 -1.87325e-05 1.99846e-07)
(0.230635 0.0139663 0.000104875 0.0068661 -1.20214e-05 1.77859e-07)
(0.00359198 0.00101641 1.96992e-05 0.000978066 9.85083e-06 3.83801e-07)
(0.00449096 0.00200891 1.13623e-05 0.00507353 1.10878e-05 3.19071e-07)
(0.0154351 0.00810707 3.59639e-05 0.00713965 1.68068e-05 3.59028e-07)
(0.014114 0.00609901 2.51749e-05 0.00707391 9.45177e-06 3.08104e-07)
(0.0219756 0.00868593 4.72308e-05 0.00676487 1.70276e-05 3.41695e-07)
(0.0195981 0.0058728 4.08424e-05 0.00648265 1.16581e-05 2.92655e-07)
(0.0260277 0.00765723 6.07257e-05 0.00629042 1.88192e-05 3.23449e-07)
(0.026469 0.0054233 5.67176e-05 0.00615568 1.40809e-05 2.79123e-07)
(0.0332379 0.00700425 7.39291e-05 0.00602504 2.04076e-05 3.0829e-07)
(0.0364374 0.00533293 7.11483e-05 0.00594353 1.59772e-05 2.68317e-07)
(0.0434718 0.00675386 8.55436e-05 0.005856 2.14485e-05 2.93836e-07)
(0.0484829 0.00552098 8.33869e-05 0.00580914 1.72405e-05 2.57279e-07)
(0.0554194 0.0067657 9.49894e-05 0.00575523 2.19368e-05 2.78223e-07)
(0.0615292 0.00587201 9.33301e-05 0.00572346 1.79004e-05 2.44881e-07)
(0.0681366 0.00690781 0.000102396 0.00569902 2.19033e-05 2.61477e-07)
(0.0752216 0.00641073 0.000101651 0.00565546 1.80917e-05 2.31657e-07)
(0.0809696 0.00694271 0.000108132 0.00564651 2.12617e-05 2.44562e-07)
(0.0899257 0.00756987 0.000109548 0.00563156 1.82241e-05 2.18768e-07)
(0.0936922 0.00636322 0.00011288 0.00499878 1.92604e-05 2.29491e-07)
(0.105489 0.00977903 0.000116989 0.0057811 1.85162e-05 2.06005e-07)
(0.0032302 -0.000252997 1.72575e-05 0.000188578 -5.80303e-06 3.43763e-07)
(0.00376939 -0.000153314 1.11671e-05 0.000994944 -1.10994e-05 2.96894e-07)
(0.0154774 -0.00225635 3.16326e-05 0.0019982 -1.81249e-05 3.31814e-07)
(0.0186083 -0.00240598 1.77833e-05 0.00292771 -1.64109e-05 2.88155e-07)
(0.0348411 -0.00561621 3.67138e-05 0.00359109 -2.13179e-05 3.169e-07)
(0.0360455 -0.00560251 2.37577e-05 0.00406525 -1.7355e-05 2.72994e-07)
(0.0502322 -0.00851205 4.41016e-05 0.00433554 -2.24038e-05 2.9897e-07)
(0.0502014 -0.00812479 3.28048e-05 0.00452901 -1.80609e-05 2.58346e-07)
(0.0624497 -0.0104688 5.31589e-05 0.00464979 -2.26591e-05 2.83173e-07)
(0.0624221 -0.00995173 4.34633e-05 0.00475538 -1.81618e-05 2.46422e-07)
(0.0733331 -0.0118444 6.31136e-05 0.00483255 -2.22034e-05 2.68614e-07)
(0.0739069 -0.0113495 5.49378e-05 0.00490412 -1.77997e-05 2.34991e-07)
(0.0838603 -0.0129032 7.33467e-05 0.0049644 -2.14246e-05 2.53432e-07)
(0.085205 -0.0125166 6.65084e-05 0.00501225 -1.72427e-05 2.22648e-07)
(0.09441 -0.0138352 8.336e-05 0.00507261 -2.06136e-05 2.37286e-07)
(0.0964003 -0.0135769 7.77318e-05 0.00507984 -1.65018e-05 2.09715e-07)
(0.105176 -0.0147909 9.31345e-05 0.0052139 -1.99644e-05 2.21039e-07)
(0.107333 -0.0146706 8.7952e-05 0.00510187 -1.50975e-05 1.9733e-07)
(0.116428 -0.0158123 0.000103563 0.00546233 -1.92389e-05 2.05285e-07)
(0.117141 -0.0175509 9.4228e-05 0.00654584 -1.35341e-05 1.85019e-07)
(0.00328829 0.000628855 1.82482e-05 0.000537258 8.02017e-06 3.65418e-07)
(0.00370153 0.00066101 1.22806e-05 0.00287359 1.09485e-05 3.12979e-07)
(0.0147327 0.00588787 3.45849e-05 0.00438214 1.68013e-05 3.49697e-07)
(0.0184301 0.00612832 2.01879e-05 0.00504724 1.11869e-05 3.01125e-07)
(0.0368337 0.0106548 3.94358e-05 0.00536119 1.76811e-05 3.33158e-07)
(0.0410926 0.0102649 2.40935e-05 0.00553349 1.25101e-05 2.85905e-07)
(0.0604301 0.0137309 4.46121e-05 0.00561087 1.89896e-05 3.14834e-07)
(0.0646145 0.0131743 2.99072e-05 0.00565298 1.42222e-05 2.7153e-07)
(0.0834028 0.015879 5.10822e-05 0.00564491 2.01149e-05 2.98699e-07)
(0.0876644 0.0153169 3.76729e-05 0.00564337 1.56175e-05 2.59663e-07)
(0.105439 0.017472 5.90897e-05 0.00561661 2.08052e-05 2.83895e-07)
(0.109928 0.0170056 4.74487e-05 0.00560672 1.65608e-05 2.48484e-07)
(0.126554 0.0187674 6.86792e-05 0.00558393 2.1093e-05 2.68776e-07)
(0.131471 0.0184159 5.88753e-05 0.00556764 1.70641e-05 2.36505e-07)
(0.146741 0.0198891 7.95074e-05 0.00556569 2.09945e-05 2.52685e-07)
(0.152474 0.0195981 7.12652e-05 0.00551467 1.71237e-05 2.23745e-07)
(0.165472 0.0209228 9.1357e-05 0.0055701 2.04747e-05 2.36299e-07)
(0.173411 0.0206737 8.35991e-05 0.00546706 1.68277e-05 2.11241e-07)
(0.181006 0.0210306 0.000105315 0.00526882 1.93306e-05 2.21216e-07)
(0.190631 0.0225788 9.47271e-05 0.00633634 1.7662e-05 1.99199e-07)
(0.00326253 -0.000437652 1.75936e-05 0.000302806 -6.76396e-06 3.52982e-07)
(0.0036266 -0.000328952 1.19964e-05 0.00163253 -1.08057e-05 3.05273e-07)
(0.0139868 -0.00391527 3.35717e-05 0.00268879 -1.71529e-05 3.40317e-07)
(0.0174881 -0.00406016 1.99037e-05 0.00352111 -1.36254e-05 2.93982e-07)
(0.0357753 -0.00790191 3.81729e-05 0.00405397 -1.93668e-05 3.24573e-07)
(0.0408003 -0.00780369 2.2657e-05 0.00443678 -1.49754e-05 2.79126e-07)
(0.0614922 -0.0110989 4.21685e-05 0.00464924 -2.07379e-05 3.06676e-07)
(0.0674762 -0.0108452 2.66398e-05 0.00480106 -1.63165e-05 2.64699e-07)
(0.0889255 -0.0135632 4.70437e-05 0.00488479 -2.15304e-05 2.90551e-07)
(0.0957775 -0.0132937 3.23888e-05 0.00495973 -1.71313e-05 2.52579e-07)
(0.117165 -0.0155533 5.34139e-05 0.00500633 -2.16836e-05 2.7569e-07)
(0.124746 -0.0153514 4.03744e-05 0.00505367 -1.74087e-05 2.41196e-07)
(0.145645 -0.017259 6.1747e-05 0.00508988 -2.13991e-05 2.60577e-07)
(0.153908 -0.0171513 5.06371e-05 0.00511608 -1.73024e-05 2.29116e-07)
(0.173917 -0.0187953 7.203e-05 0.00516401 -2.08723e-05 2.44574e-07)
(0.182894 -0.0187756 6.26291e-05 0.00513988 -1.68404e-05 2.16392e-07)
(0.200933 -0.0202787 8.41022e-05 0.00526728 -2.02258e-05 2.28395e-07)
(0.211645 -0.0206331 7.49574e-05 0.00513468 -1.58463e-05 2.0412e-07)
(0.223482 -0.0214146 9.87876e-05 0.00529587 -1.93373e-05 2.13e-07)
(0.237129 -0.0250923 8.63315e-05 0.00635593 -1.58327e-05 1.92156e-07)
(0.00326253 0.000437649 1.75936e-05 0.000302805 6.76396e-06 3.52982e-07)
(0.0036266 0.00032896 1.19965e-05 0.00163253 1.08057e-05 3.05273e-07)
(0.0139868 0.00391527 3.35718e-05 0.00268879 1.71529e-05 3.40317e-07)
(0.0174882 0.00406017 1.99039e-05 0.00352112 1.36253e-05 2.93982e-07)
(0.0357752 0.0079019 3.81731e-05 0.00405397 1.93668e-05 3.24572e-07)
(0.0408004 0.00780376 2.26574e-05 0.00443679 1.49753e-05 2.79126e-07)
(0.0614919 0.0110989 4.21691e-05 0.00464925 2.07379e-05 3.06675e-07)
(0.0674766 0.0108453 2.66394e-05 0.00480111 1.63162e-05 2.647e-07)
(0.0889248 0.0135634 4.70442e-05 0.00488484 2.15303e-05 2.90551e-07)
(0.0957787 0.0132945 3.23884e-05 0.00495985 1.71308e-05 2.52579e-07)
(0.117163 0.015554 5.34146e-05 0.00500649 2.16833e-05 2.75688e-07)
(0.12475 0.015354 4.03697e-05 0.00505412 1.74075e-05 2.41198e-07)
(0.14564 0.0172612 6.17486e-05 0.00509025 2.13984e-05 2.60577e-07)
(0.153918 0.0171604 5.06303e-05 0.0051176 1.72989e-05 2.29116e-07)
(0.173907 0.0188014 7.20351e-05 0.00516495 2.0871e-05 2.44571e-07)
(0.18292 0.0188009 6.26072e-05 0.00514454 1.68336e-05 2.16381e-07)
(0.200917 0.0203006 8.41117e-05 0.00527049 2.02233e-05 2.28404e-07)
(0.211732 0.0206937 7.49165e-05 0.00514693 1.58393e-05 2.04093e-07)
(0.223526 0.0214834 9.88313e-05 0.00530687 1.93395e-05 2.1305e-07)
(0.237233 0.025227 8.62654e-05 0.00638991 1.58369e-05 1.9211e-07)
(0.0032883 -0.000628858 1.82484e-05 0.00053726 -8.02016e-06 3.65418e-07)
(0.00370153 -0.000661005 1.22804e-05 0.00287359 -1.09486e-05 3.12979e-07)
(0.0147328 -0.00588787 3.45853e-05 0.00438215 -1.68012e-05 3.49697e-07)
(0.0184301 -0.00612831 2.01881e-05 0.00504723 -1.1187e-05 3.01125e-07)
(0.0368337 -0.0106548 3.94361e-05 0.0053612 -1.7681e-05 3.33158e-07)
(0.0410927 -0.0102648 2.40938e-05 0.00553345 -1.25103e-05 2.85905e-07)
(0.0604301 -0.0137309 4.46133e-05 0.00561087 -1.89896e-05 3.14835e-07)
(0.0646146 -0.0131741 2.99097e-05 0.00565288 -1.42225e-05 2.71529e-07)
(0.0834029 -0.0158788 5.10834e-05 0.00564487 -2.01149e-05 2.987e-07)
(0.0876649 -0.0153161 3.76743e-05 0.00564312 -1.56182e-05 2.59663e-07)
(0.10544 -0.0174716 5.90909e-05 0.00561645 -2.08053e-05 2.83896e-07)
(0.109929 -0.0170033 4.74546e-05 0.00560598 -1.65621e-05 2.48482e-07)
(0.126558 -0.0187663 6.86775e-05 0.00558358 -2.10936e-05 2.68775e-07)
(0.131473 -0.0184082 5.88806e-05 0.00556542 -1.70673e-05 2.36508e-07)
(0.146757 -0.0198863 7.95008e-05 0.00556494 -2.09956e-05 2.52685e-07)
(0.152479 -0.0195782 7.12844e-05 0.00550884 -1.71297e-05 2.23758e-07)
(0.165522 -0.0209133 9.13412e-05 0.00556764 -2.04772e-05 2.36284e-07)
(0.173405 -0.0206332 8.3622e-05 0.00545579 -1.68328e-05 2.1127e-07)
(0.181109 -0.0209997 0.00010527 0.00526037 -1.93281e-05 2.21163e-07)
(0.190688 -0.0224789 9.47313e-05 0.00631034 -1.76575e-05 1.99236e-07)
(0.0032302 0.000252996 1.72577e-05 0.000188578 5.80303e-06 3.43763e-07)
(0.0037694 0.00015332 1.11672e-05 0.000994943 1.10994e-05 2.96894e-07)
(0.0154774 0.00225635 3.16332e-05 0.0019982 1.81249e-05 3.31814e-07)
(0.0186083 0.00240598 1.77838e-05 0.00292771 1.64109e-05 2.88154e-07)
(0.034841 0.00561621 3.67144e-05 0.00359109 2.13179e-05 3.169e-07)
(0.0360458 0.00560255 2.37585e-05 0.00406525 1.7355e-05 2.72994e-07)
(0.0502318 0.00851208 4.41035e-05 0.00433555 2.24037e-05 2.9897e-07)
(0.0502022 0.00812486 3.28063e-05 0.00452903 1.80608e-05 2.58346e-07)
(0.0624489 0.0104689 5.31609e-05 0.00464983 2.26589e-05 2.83172e-07)
(0.0624244 0.00995213 4.34636e-05 0.0047554 1.81613e-05 2.46422e-07)
(0.0733313 0.0118449 6.31153e-05 0.00483269 2.2203e-05 2.68613e-07)
(0.0739128 0.0113506 5.49352e-05 0.00490428 1.77987e-05 2.34993e-07)
(0.0838577 0.0129044 7.33476e-05 0.00496478 2.14239e-05 2.5343e-07)
(0.0852202 0.0125207 6.65047e-05 0.00501295 1.72396e-05 2.22649e-07)
(0.0944076 0.0138384 8.33578e-05 0.00507364 2.06129e-05 2.37279e-07)
(0.0964376 0.0135883 7.77184e-05 0.00508261 1.64955e-05 2.09709e-07)
(0.105183 0.0148015 9.3126e-05 0.00521742 1.99635e-05 2.21036e-07)
(0.107428 0.0147034 8.79242e-05 0.00511216 1.5093e-05 1.97311e-07)
(0.116492 0.0158487 0.000103579 0.00547412 1.92424e-05 2.05313e-07)
(0.117359 0.0176324 9.41783e-05 0.00658055 1.35431e-05 1.84996e-07)
(0.00359199 -0.00101641 1.96994e-05 0.000978069 -9.85083e-06 3.83801e-07)
(0.00449096 -0.00200891 1.13622e-05 0.00507354 -1.10879e-05 3.19071e-07)
(0.0154351 -0.00810707 3.59647e-05 0.00713967 -1.68067e-05 3.59028e-07)
(0.014114 -0.00609901 2.51755e-05 0.0070739 -9.45182e-06 3.08103e-07)
(0.0219756 -0.00868592 4.72317e-05 0.00676489 -1.70275e-05 3.41695e-07)
(0.0195982 -0.00587281 4.08436e-05 0.00648261 -1.16582e-05 2.92655e-07)