/*--------------------------------*- C++ -*----------------------------------*\
  =========                 |
  \\      /  F ield         | OpenFOAM: The Open Source CFD Toolbox
   \\    /   O peration     | Website:  https://openfoam.org
    \\  /    A nd           | Version:  7
     \\/     M anipulation  |
\*---------------------------------------------------------------------------*/
FoamFile
{
    version     2.0;
    format      ascii;
    class       volScalarField;
    location    "0.15";
    object      k;
}
// * * * * * * * * * * * * * * * * * * * * * * * * * * * * * * * * * * * * * //

dimensions      [0 2 -2 0 0 0 0];

internalField   nonuniform List<scalar> 
5280
(
0.0147736
0.0788331
0.20867
0.369736
0.533604
0.688309
0.821863
0.92603
1.00054
1.04914
1.07781
1.08612
1.08265
1.07252
1.05356
1.03096
1.00602
0.979936
0.953791
0.928281
0.903782
0.880667
0.859138
0.839468
0.82163
0.805594
0.791658
0.780078
0.771037
0.764559
0.760355
0.757961
0.756902
0.756732
0.757156
0.758408
0.760073
0.76206
0.764119
0.766099
0.767953
0.769654
0.771162
0.772484
0.773678
0.774801
0.775903
0.777019
0.778173
0.779372
0.780615
0.781894
0.783198
0.784518
0.785846
0.787177
0.788506
0.789834
0.791154
0.792473
0.793779
0.795086
0.796373
0.797669
0.798926
0.80021
0.801419
0.802689
0.803817
0.805071
0.806048
0.807302
0.807956
0.809256
0.809489
0.810416
0.810065
0.809941
0.808663
0.81851
4.28089e-05
0.000551749
0.0028282
0.00850608
0.0200071
0.0378962
0.0622053
0.0911798
0.121108
0.149574
0.176175
0.200583
0.221958
0.240343
0.255114
0.266459
0.275195
0.281543
0.286644
0.290492
0.2931
0.294851
0.295075
0.29485
0.294228
0.292895
0.291268
0.289305
0.286666
0.283125
0.278825
0.27412
0.269306
0.26455
0.260082
0.256152
0.252758
0.249785
0.24718
0.245205
0.243823
0.24311
0.243014
0.243071
0.243277
0.243569
0.24382
0.244046
0.244282
0.244559
0.244894
0.245297
0.245761
0.246278
0.246835
0.247421
0.248026
0.248644
0.249269
0.249902
0.250535
0.251182
0.251812
0.252487
0.253103
0.253826
0.254422
0.255218
0.255795
0.256689
0.257285
0.258306
0.258985
0.260224
0.261072
0.262744
0.263905
0.266447
0.267908
0.270955
2.00129e-05
2.0999e-05
2.9728e-05
6.75485e-05
0.000183856
0.000461996
0.00102937
0.00208709
0.00395452
0.00596361
0.00839023
0.0116013
0.0151303
0.018999
0.0228419
0.0264155
0.030179
0.0337295
0.0364464
0.0389317
0.0416775
0.0443137
0.0466723
0.048576
0.0495262
0.0500114
0.0507865
0.0512821
0.051281
0.0511227
0.0507216
0.0498554
0.0485631
0.04714
0.045646
0.0440537
0.0423584
0.0406717
0.0391108
0.0376404
0.0360997
0.034434
0.0327146
0.0309886
0.0293069
0.0277197
0.0262909
0.025057
0.0240441
0.0232511
0.0226579
0.0222357
0.0219545
0.0217754
0.0216681
0.0216197
0.0216078
0.0216072
0.0216143
0.0216427
0.0216756
0.0217081
0.0217444
0.0217773
0.0218196
0.0218527
0.0219033
0.0219389
0.0220015
0.0220446
0.0221279
0.022187
0.022309
0.0223994
0.0225993
0.0227484
0.0230991
0.0233748
0.0240481
0.0246052
1.99916e-05
1.99999e-05
2.00471e-05
2.02369e-05
2.09176e-05
2.29934e-05
2.8412e-05
4.1154e-05
7.11826e-05
0.000123813
0.000179968
0.000288397
0.000450792
0.000662044
0.000872338
0.00109871
0.00143034
0.00180748
0.00213105
0.00233818
0.00259141
0.00302192
0.00351494
0.003912
0.00415897
0.00428463
0.00439304
0.00458874
0.00481692
0.0049287
0.00493371
0.00491005
0.00484487
0.00469552
0.00448344
0.00423186
0.00397016
0.00372872
0.00350291
0.00325952
0.00297701
0.00266295
0.00233414
0.00200483
0.00168999
0.00140243
0.00115203
0.000942975
0.00077604
0.000647695
0.00055294
0.000485416
0.000439136
0.000408435
0.000388795
0.000376679
0.000369505
0.000365288
0.000363056
0.000361888
0.000361366
0.000361296
0.000361292
0.000361439
0.000362023
0.000362552
0.000363582
0.000364401
0.000366175
0.000367665
0.000370932
0.000373685
0.000379932
0.000384993
0.00039737
0.000406885
0.000431918
0.000450776
0.000502928
0.000540131
1.99816e-05
1.99833e-05
2.00023e-05
2.00507e-05
2.01405e-05
2.03279e-05
2.05926e-05
2.08595e-05
2.13788e-05
2.24727e-05
2.35233e-05
2.50376e-05
2.82412e-05
3.36619e-05
3.81261e-05
4.27994e-05
5.23403e-05
6.61275e-05
7.91958e-05
8.7467e-05
9.40347e-05
0.000106636
0.000133263
0.000158753
0.000174774
0.000181328
0.000184714
0.000191882
0.000208948
0.000219772
0.000221691
0.000220911
0.000218125
0.000210906
0.000197717
0.000183409
0.000168145
0.000152162
0.00013684
0.000122381
0.000108108
9.43675e-05
8.27273e-05
7.43298e-05
6.86299e-05
6.3904e-05
5.85152e-05
5.17177e-05
4.37218e-05
3.52749e-05
2.72148e-05
2.01646e-05
1.4439e-05
1.0074e-05
6.92534e-06
4.76108e-06
3.33753e-06
2.43625e-06
1.88738e-06
1.56324e-06
1.37878e-06
1.278e-06
1.22461e-06
1.19796e-06
1.19058e-06
1.19055e-06
1.19462e-06
1.20397e-06
1.22536e-06
1.24398e-06
1.28531e-06
1.31982e-06
1.39924e-06
1.46439e-06
1.62357e-06
1.75209e-06
2.08512e-06
2.35339e-06
3.07563e-06
3.66469e-06
1.99785e-05
1.99748e-05
1.99897e-05
2.0031e-05
2.01138e-05
2.02697e-05
2.04767e-05
2.07376e-05
2.10845e-05
2.14699e-05
2.19047e-05
2.23716e-05
2.28558e-05
2.33977e-05
2.39173e-05
2.43297e-05
2.47615e-05
2.53635e-05
2.59692e-05
2.63146e-05
2.64956e-05
2.68151e-05
2.74803e-05
2.81534e-05
2.85542e-05
2.8667e-05
2.86648e-05
2.86871e-05
2.87501e-05
2.87407e-05
2.86882e-05
2.85636e-05
2.8317e-05
2.79445e-05
2.73914e-05
2.66288e-05
2.57241e-05
2.48386e-05
2.4145e-05
2.37372e-05
2.35936e-05
2.35934e-05
2.3789e-05
2.52158e-05
2.86921e-05
3.11923e-05
3.24802e-05
3.28518e-05
3.27971e-05
3.18964e-05
2.68128e-05
1.93234e-05
1.33674e-05
8.90464e-06
5.72815e-06
3.56801e-06
2.15775e-06
1.27033e-06
7.30245e-07
4.11355e-07
2.28165e-07
1.25517e-07
6.932e-08
3.92246e-08
2.34669e-08
1.53918e-08
1.13672e-08
9.40995e-09
8.52378e-09
8.19272e-09
8.15227e-09
8.1793e-09
8.33213e-09
8.54751e-09
9.06564e-09
9.53233e-09
1.06944e-08
1.18399e-08
1.48551e-08
1.8106e-08
1.99785e-05
1.99748e-05
1.99897e-05
2.0031e-05
2.01138e-05
2.02697e-05
2.04767e-05
2.07376e-05
2.10844e-05
2.14699e-05
2.19047e-05
2.23716e-05
2.28557e-05
2.33977e-05
2.39173e-05
2.43298e-05
2.47614e-05
2.53634e-05
2.5969e-05
2.63144e-05
2.64956e-05
2.68151e-05
2.74804e-05
2.81533e-05
2.85536e-05
2.86662e-05
2.86641e-05
2.86865e-05
2.87493e-05
2.87398e-05
2.86872e-05
2.85623e-05
2.83156e-05
2.7943e-05
2.739e-05
2.66276e-05
2.57233e-05
2.48383e-05
2.41449e-05
2.37373e-05
2.35938e-05
2.35935e-05
2.3789e-05
2.52159e-05
2.8692e-05
3.11921e-05
3.24799e-05
3.28515e-05
3.27968e-05
3.18961e-05
2.68126e-05
1.93232e-05
1.33673e-05
8.90453e-06
5.72807e-06
3.56794e-06
2.1577e-06
1.27027e-06
7.3019e-07
4.11292e-07
2.28093e-07
1.2543e-07
6.92168e-08
3.91007e-08
2.33153e-08
1.52084e-08
1.11443e-08
9.14948e-09
8.21326e-09
7.7848e-09
7.63571e-09
7.60863e-09
7.63002e-09
7.69215e-09
7.89767e-09
8.1128e-09
8.69438e-09
9.30096e-09
1.10042e-08
1.29158e-08
1.99816e-05
1.99833e-05
2.00023e-05
2.00507e-05
2.01405e-05
2.0328e-05
2.05926e-05
2.08596e-05
2.13785e-05
2.24724e-05
2.35236e-05
2.50382e-05
2.82419e-05
3.36619e-05
3.81265e-05
4.28003e-05
5.23403e-05
6.61233e-05
7.91873e-05
8.74605e-05
9.4032e-05
0.00010664
0.00013326
0.00015874
0.000174754
0.000181306
0.000184693
0.000191859
0.000208917
0.000219736
0.000221649
0.000220864
0.000218075
0.000210853
0.000197668
0.000183367
0.00016812
0.000152145
0.000136817
0.00012236
0.000108095
9.43576e-05
8.27149e-05
7.43133e-05
6.86125e-05
6.38884e-05
5.8502e-05
5.17065e-05
4.37112e-05
3.52644e-05
2.72044e-05
2.01537e-05
1.44286e-05
1.00629e-05
6.91484e-06
4.74932e-06
3.3254e-06
2.42204e-06
1.87158e-06
1.54386e-06
1.35724e-06
1.25042e-06
1.19349e-06
1.16036e-06
1.14373e-06
1.13356e-06
1.1282e-06
1.12647e-06
1.12737e-06
1.13048e-06
1.14131e-06
1.15415e-06
1.18885e-06
1.22083e-06
1.31026e-06
1.38619e-06
1.60468e-06
1.78408e-06
2.3046e-06
2.73104e-06
1.99916e-05
1.99999e-05
2.00471e-05
2.02368e-05
2.09175e-05
2.29933e-05
2.8416e-05
4.11587e-05
7.11754e-05
0.000123807
0.000179965
0.000288394
0.000450823
0.000662108
0.000872346
0.00109873
0.00143029
0.00180743
0.00213103
0.00233811
0.00259142
0.00302193
0.00351479
0.00391178
0.00415881
0.00428447
0.00439279
0.00458847
0.00481655
0.0049282
0.00493314
0.00490944
0.00484424
0.00469486
0.0044827
0.00423121
0.00396976
0.00372845
0.0035026
0.0032589
0.00297616
0.00266187
0.00233311
0.00200393
0.00168935
0.00140202
0.00115173
0.000942716
0.000775692
0.000647225
0.00055239
0.000484741
0.000438499
0.000407684
0.000388136
0.000375908
0.000368768
0.000364425
0.00036211
0.000360692
0.000360068
0.000359598
0.000359466
0.000359267
0.00035926
0.000359257
0.000359306
0.000359385
0.000359913
0.000360616
0.000362138
0.000363545
0.000367085
0.000370197
0.000378561
0.000385118
0.000404052
0.000418344
0.000461033
0.000491215
2.00129e-05
2.09992e-05
2.97267e-05
6.75347e-05
0.000183837
0.000461992
0.00102941
0.00208715
0.00395452
0.0059635
0.00839038
0.0116014
0.0151305
0.0189998
0.0228423
0.0264155
0.0301793
0.0337296
0.0364464
0.0389321
0.0416777
0.0443135
0.046672
0.0485758
0.0495258
0.0500107
0.0507856
0.0512806
0.0512793
0.0511207
0.0507193
0.0498528
0.04856
0.0471364
0.0456426
0.0440509
0.0423563
0.0406697
0.0391097
0.0376382
0.0360969
0.0344296
0.0327104
0.0309843
0.0293031
0.0277167
0.026288
0.025054
0.0240406
0.0232462
0.0226525
0.0222296
0.0219479
0.0217687
0.0216615
0.0216122
0.0216001
0.0215991
0.0216047
0.0216307
0.0216619
0.0216915
0.0217245
0.0217531
0.02179
0.0218177
0.0218597
0.0218883
0.0219383
0.0219706
0.0220351
0.0220797
0.0221733
0.0222418
0.0223987
0.0225134
0.0227986
0.0230186
0.023592
0.0240565
4.28165e-05
0.000551901
0.00282828
0.00850603
0.0200065
0.0378945
0.0622042
0.0911807
0.12111
0.149575
0.176176
0.200583
0.221958
0.240344
0.255116
0.26646
0.275196
0.281544
0.286645
0.290493
0.293101
0.294852
0.295077
0.294851
0.29423
0.292895
0.291268
0.289305
0.286665
0.283125
0.278823
0.274116
0.2693
0.264544
0.260079
0.256152
0.252759
0.249787
0.247182
0.245205
0.243824
0.243114
0.24302
0.243078
0.243284
0.243574
0.243821
0.244043
0.244277
0.24455
0.244885
0.245286
0.24575
0.246266
0.246822
0.247406
0.248009
0.248622
0.249244
0.24987
0.250497
0.251131
0.251758
0.25241
0.253022
0.253715
0.2543
0.255053
0.255618
0.256447
0.257022
0.257953
0.258591
0.259703
0.260489
0.261956
0.262971
0.265158
0.266375
0.268933
0.0147736
0.0788329
0.208668
0.369734
0.533603
0.688309
0.821864
0.92603
1.00054
1.04914
1.07781
1.08612
1.08265
1.07251
1.05355
1.03096
1.00602
0.979936
0.95379
0.928281
0.903783
0.880667
0.859139
0.83947
0.821633
0.805598
0.791663
0.780084
0.771044
0.764569
0.760369
0.757978
0.756919
0.756749
0.757172
0.758423
0.760087
0.76207
0.764125
0.766103
0.767955
0.769653
0.77116
0.772481
0.773674
0.774798
0.7759
0.777018
0.778175
0.779378
0.780625
0.781908
0.783217
0.784543
0.785877
0.787215
0.788552
0.789889
0.791221
0.792554
0.793876
0.795205
0.796514
0.797842
0.79913
0.800464
0.801713
0.803063
0.804237
0.805627
0.806642
0.808126
0.808833
0.810404
0.810804
0.812145
0.811951
0.812324
0.811027
0.821487
1.3719
1.58229
1.58957
1.5585
1.50901
1.46686
1.4308
1.40136
1.38068
1.36977
1.36694
1.36914
1.37459
1.38082
1.38716
1.39335
1.39938
1.40531
1.41119
1.41704
1.42287
1.42868
1.43447
1.44026
1.44603
1.4518
1.45756
1.46332
1.46909
1.47485
1.48063
1.48641
1.4922
1.49801
1.50382
1.50965
1.51549
1.52135
1.52722
1.5331
1.53899
1.54489
1.5508
1.55672
1.56264
1.56857
1.5745
1.58042
1.58634
1.59226
1.59817
1.60407
1.60996
1.61584
1.62171
1.62758
1.63343
1.63928
1.64512
1.65096
1.65681
1.66266
1.66851
1.67439
1.68028
1.6862
1.69215
1.69815
1.70419
1.71028
1.71644
1.72267
1.72898
1.73537
1.74186
1.74844
1.75513
1.76193
1.76885
1.77588
1.78304
1.79031
1.79771
1.80524
1.81289
1.82066
1.82854
1.83654
1.84464
1.85285
1.86114
1.86952
1.87797
1.88649
1.89505
1.90366
1.9123
1.92095
1.92961
1.93826
1.94689
1.95549
1.96404
1.97254
1.98098
1.98934
1.99763
2.00582
2.01393
2.02194
2.02986
2.03769
2.04542
2.05307
2.06064
2.06815
2.07561
2.08302
2.09041
2.0978
2.10521
2.11266
2.12017
2.12778
2.1355
2.14338
2.15144
2.1597
2.1682
2.17698
2.18605
2.19546
2.20523
2.21539
2.22596
2.23698
2.24847
2.26044
2.27293
2.28595
2.29951
2.31365
2.32836
2.34365
2.35954
2.37604
2.39316
2.41089
2.42923
2.44819
2.46778
2.48798
2.50879
2.5302
2.55222
2.57485
2.59804
2.62182
2.64617
2.67108
2.69653
2.72252
2.74902
2.77604
2.80356
2.83155
2.86
2.8889
2.91825
2.94799
2.97812
3.00863
3.0395
3.0707
3.10221
3.134
3.16606
3.19836
3.23087
3.26357
3.29643
3.32942
3.36252
3.3957
3.42893
3.46217
3.4954
3.52859
3.56171
3.59473
3.62762
3.66034
3.69288
3.72519
3.75724
3.78902
3.8205
3.85163
3.88241
3.91279
3.94277
3.97231
4.0014
4.03
4.05811
4.0857
4.11276
4.13926
4.16521
4.19057
4.21535
4.23954
4.26311
4.28607
4.30842
4.33014
4.35124
4.37171
4.39155
4.41078
4.42937
4.44736
4.46473
4.48149
4.49765
4.51323
4.52822
4.54264
4.5565
4.5698
4.58257
4.59481
4.60654
4.61777
4.62852
4.63879
4.64861
4.65798
4.66692
4.67545
4.68358
4.69133
4.69871
4.70573
4.71241
4.71876
4.7248
4.73054
4.736
4.74118
4.74611
4.75078
4.75523
4.75945
4.76346
4.76726
4.77088
4.77433
4.7776
4.78071
4.78367
4.7865
4.78918
4.79175
4.7942
4.79654
4.79877
4.80091
4.80296
4.80493
4.80682
4.80863
4.81038
4.81207
4.8137
4.81527
4.8168
4.81828
4.81972
4.82111
4.82247
4.8238
4.8251
4.82637
4.82761
4.82884
4.83004
4.83122
4.83238
4.83353
4.83467
4.83579
4.8369
4.83801
4.8391
4.84019
4.84127
4.84235
4.84342
4.84449
4.84556
4.84663
4.84769
4.84876
4.84983
4.85089
4.85196
4.85304
4.85411
4.85519
4.85627
4.85736
4.85845
4.85954
4.86064
4.86174
4.86286
4.86397
4.86509
4.86622
4.86736
4.8685
4.86964
4.8708
4.87196
4.87313
4.8743
4.87548
4.87667
4.87787
4.87907
4.88028
4.8815
4.88272
4.88396
4.8852
4.88645
4.88772
4.88898
4.89027
4.89155
4.89285
4.89415
4.89548
4.89679
4.89815
4.89946
4.90085
4.90215
4.90361
4.90486
4.90641
4.90757
4.90927
4.91025
4.91219
4.91295
4.91513
4.91562
4.91826
0.392961
0.695454
0.901144
1.0209
1.08584
1.11996
1.13769
1.14545
1.14778
1.14938
1.15295
1.15999
1.16959
1.1807
1.19246
1.20443
1.21638
1.22829
1.24017
1.25206
1.26395
1.27586
1.28779
1.29974
1.31171
1.3237
1.3357
1.34773
1.35977
1.37183
1.38391
1.39601
1.40813
1.42026
1.43241
1.44458
1.45677
1.46898
1.4812
1.49344
1.5057
1.51798
1.53027
1.54258
1.55491
1.56725
1.57962
1.592
1.60441
1.61684
1.6293
1.64177
1.65426
1.66677
1.67931
1.69185
1.70442
1.717
1.72961
1.74223
1.75486
1.76751
1.78019
1.79287
1.80557
1.81829
1.83103
1.84378
1.85655
1.86933
1.88213
1.89495
1.90777
1.92061
1.93347
1.94633
1.95921
1.97211
1.98501
1.99793
2.01086
2.02381
2.03677
2.04974
2.06272
2.07572
2.08873
2.10176
2.1148
2.12786
2.14093
2.15402
2.16713
2.18026
2.1934
2.20657
2.21975
2.23295
2.24617
2.25942
2.27269
2.28598
2.29929
2.31263
2.32598
2.33937
2.35278
2.36621
2.37967
2.39316
2.40666
2.4202
2.43376
2.44735
2.46096
2.47459
2.48824
2.50192
2.51563
2.52935
2.5431
2.55686
2.57064
2.58444
2.59826
2.6121
2.62593
2.63979
2.65366
2.66754
2.68143
2.69531
2.70921
2.72311
2.73701
2.7509
2.76479
2.77867
2.79255
2.80642
2.82028
2.83411
2.84794
2.86174
2.87553
2.88929
2.90302
2.91672
2.9304
2.94404
2.95764
2.97121
2.98475
2.99823
3.01167
3.02505
3.0384
3.05169
3.06492
3.07808
3.09119
3.10424
3.11721
3.13012
3.14294
3.1557
3.16838
3.18097
3.19347
3.2059
3.21823
3.23047
3.24261
3.25465
3.26659
3.27843
3.29016
3.30178
3.31329
3.32468
3.33597
3.34713
3.35817
3.36908
3.37987
3.39054
3.40108
3.41148
3.42176
3.43191
3.44192
3.45181
3.46156
3.47118
3.48066
3.49001
3.49923
3.50832
3.51727
3.52609
3.53478
3.54334
3.55177
3.56008
3.56825
3.5763
3.58423
3.59204
3.59972
3.60728
3.61473
3.62206
3.62928
3.63639
3.64338
3.65027
3.65706
3.66374
3.67033
3.67681
3.6832
3.6895
3.6957
3.70182
3.70785
3.71379
3.71966
3.72544
3.73115
3.73678
3.74234
3.74783
3.75325
3.7586
3.76389
3.76912
3.77429
3.7794
3.78445
3.78944
3.79439
3.79928
3.80412
3.80891
3.81366
3.81835
3.82301
3.82762
3.83219
3.83672
3.84121
3.84566
3.85008
3.85446
3.8588
3.86311
3.86739
3.87164
3.87585
3.88004
3.88419
3.88831
3.89241
3.89648
3.90052
3.90454
3.90852
3.91249
3.91643
3.92034
3.92423
3.9281
3.93194
3.93577
3.93956
3.94334
3.9471
3.95083
3.95455
3.95824
3.96191
3.96556
3.9692
3.97281
3.9764
3.97998
3.98353
3.98707
3.99059
3.99409
3.99757
4.00103
4.00448
4.00791
4.01132
4.01471
4.01808
4.02144
4.02478
4.02811
4.03142
4.03471
4.03798
4.04124
4.04448
4.0477
4.05091
4.05411
4.05728
4.06044
4.06359
4.06672
4.06983
4.07293
4.07601
4.07908
4.08214
4.08517
4.0882
4.09121
4.0942
4.09718
4.10014
4.10309
4.10603
4.10895
4.11185
4.11475
4.11763
4.12049
4.12334
4.12618
4.129
4.13181
4.1346
4.13739
4.14016
4.14291
4.14565
4.14839
4.1511
4.15381
4.15649
4.15919
4.16184
4.16452
4.16713
4.16981
4.17237
4.17506
4.17754
4.1803
4.18262
4.18551
4.18762
4.19072
4.19253
4.19589
4.19746
4.20132
0.0342709
0.0761913
0.143964
0.198896
0.243363
0.284535
0.324749
0.360686
0.387188
0.402617
0.40984
0.413391
0.415761
0.418119
0.420661
0.423692
0.427227
0.4311
0.435177
0.439376
0.443653
0.447983
0.452358
0.456769
0.461214
0.465693
0.470206
0.47475
0.479323
0.483928
0.488563
0.493226
0.497919
0.502644
0.507395
0.512173
0.51698
0.521814
0.526674
0.531561
0.536475
0.541414
0.546377
0.551366
0.556381
0.561418
0.56648
0.571562
0.576664
0.581782
0.586921
0.592079
0.597256
0.602452
0.607668
0.612904
0.61816
0.623434
0.628728
0.634038
0.639365
0.644711
0.650071
0.655447
0.660839
0.666248
0.67167
0.677104
0.682553
0.688013
0.693485
0.69897
0.704469
0.709979
0.715502
0.721037
0.726584
0.732139
0.737706
0.743286
0.748876
0.754477
0.760089
0.765711
0.771341
0.776982
0.782636
0.788299
0.793971
0.799655
0.805346
0.811045
0.816756
0.822478
0.828207
0.833946
0.839693
0.845449
0.851213
0.856986
0.862766
0.868553
0.874346
0.880146
0.885953
0.891765
0.897582
0.903402
0.909223
0.91505
0.92088
0.926709
0.932539
0.938368
0.944193
0.950019
0.955843
0.96166
0.967472
0.973277
0.979076
0.984868
0.99065
0.996422
1.00218
1.00793
1.01367
1.01939
1.0251
1.0308
1.03648
1.04214
1.04779
1.05342
1.05903
1.06462
1.0702
1.07576
1.08129
1.08681
1.09231
1.09779
1.10325
1.10869
1.11412
1.11952
1.12491
1.13027
1.13562
1.14095
1.14626
1.15155
1.15683
1.16209
1.16733
1.17255
1.17776
1.18295
1.18813
1.1933
1.19844
1.20358
1.2087
1.2138
1.2189
1.22397
1.22904
1.23409
1.23914
1.24416
1.24918
1.25418
1.25918
1.26416
1.26913
1.27409
1.27904
1.28398
1.2889
1.29382
1.29872
1.30362
1.30851
1.31339
1.31825
1.32311
1.32796
1.33279
1.33762
1.34244
1.34725
1.35204
1.35683
1.36161
1.36638
1.37113
1.37588
1.38061
1.38534
1.39005
1.39476
1.39945
1.40414
1.40881
1.41347
1.41812
1.42276
1.42739
1.43201
1.43662
1.44121
1.4458
1.45037
1.45494
1.45949
1.46403
1.46856
1.47308
1.47759
1.48208
1.48657
1.49105
1.49551
1.49996
1.5044
1.50883
1.51325
1.51765
1.52205
1.52644
1.53081
1.53517
1.53952
1.54386
1.54819
1.5525
1.55681
1.5611
1.56538
1.56966
1.57392
1.57816
1.5824
1.58663
1.59084
1.59504
1.59923
1.60341
1.60758
1.61174
1.61588
1.62001
1.62414
1.62824
1.63234
1.63643
1.6405
1.64456
1.64861
1.65265
1.65667
1.66068
1.66468
1.66867
1.67265
1.67661
1.68056
1.6845
1.68843
1.69234
1.69624
1.70013
1.704
1.70787
1.71172
1.71555
1.71938
1.72319
1.72699
1.73077
1.73454
1.7383
1.74205
1.74578
1.7495
1.7532
1.7569
1.76058
1.76424
1.76789
1.77153
1.77516
1.77877
1.78237
1.78595
1.78952
1.79308
1.79662
1.80015
1.80367
1.80717
1.81066
1.81413
1.81759
1.82104
1.82447
1.82788
1.83129
1.83468
1.83805
1.84141
1.84476
1.84809
1.85141
1.85472
1.85801
1.86128
1.86454
1.86779
1.87102
1.87424
1.87745
1.88064
1.88381
1.88697
1.89012
1.89325
1.89637
1.89947
1.90256
1.90564
1.9087
1.91175
1.91478
1.9178
1.9208
1.92379
1.92676
1.92972
1.93267
1.93558
1.93852
1.94138
1.94432
1.94713
1.95005
1.95283
1.95572
1.95845
1.96137
1.96398
1.96699
1.96945
1.97257
1.97486
1.97815
1.98019
1.98369
1.98549
1.98976
0.000936982
0.00291142
0.00768638
0.01243
0.0175728
0.0221281
0.0300696
0.0419372
0.053223
0.0600034
0.0622576
0.0624352
0.0621698
0.060982
0.0591619
0.0579889
0.0573968
0.0572618
0.0573288
0.057527
0.0578461
0.058197
0.0585662
0.058946
0.0593338
0.0597288
0.0601305
0.0605392
0.0609531
0.0613733
0.0617989
0.0622303
0.0626679
0.0631127
0.0635631
0.064019
0.0644811
0.0649493
0.0654235
0.0659035
0.0663903
0.0668829
0.0673809
0.0678859
0.0683966
0.0689133
0.0694362
0.069965
0.0705006
0.0710411
0.0715882
0.0721417
0.0727004
0.0732658
0.0738367
0.074414
0.0749974
0.0755863
0.0761823
0.0767835
0.0773904
0.078004
0.0786228
0.079248
0.0798786
0.0805159
0.0811587
0.0818069
0.0824618
0.0831218
0.0837879
0.0844592
0.0851372
0.085821
0.0865101
0.087206
0.0879075
0.0886145
0.0893274
0.0900469
0.0907722
0.0915031
0.0922411
0.0929845
0.0937334
0.0944891
0.0952512
0.0960195
0.0967932
0.0975744
0.0983611
0.0991536
0.0999533
0.100759
0.101571
0.10239
0.103215
0.104046
0.104883
0.105728
0.106578
0.107435
0.108297
0.109167
0.110043
0.110924
0.111812
0.112706
0.113606
0.114512
0.115425
0.116343
0.117266
0.118196
0.119131
0.120071
0.121019
0.12197
0.122927
0.12389
0.124858
0.12583
0.126808
0.127792
0.12878
0.129772
0.13077
0.131773
0.13278
0.133793
0.13481
0.135832
0.136858
0.13789
0.138926
0.139966
0.141012
0.142063
0.143118
0.144178
0.145244
0.146313
0.147388
0.148469
0.149555
0.150646
0.151742
0.152844
0.15395
0.155064
0.156183
0.157306
0.158437
0.159573
0.160715
0.161863
0.163018
0.164178
0.165345
0.166519
0.167698
0.168884
0.170078
0.171277
0.172482
0.173695
0.174915
0.17614
0.177373
0.178612
0.179859
0.181111
0.182372
0.183638
0.18491
0.18619
0.187477
0.188769
0.190067
0.191372
0.192683
0.193999
0.195321
0.196649
0.197982
0.199321
0.200666
0.202015
0.203369
0.204728
0.206092
0.207461
0.208834
0.210211
0.211593
0.212979
0.214369
0.215764
0.217162
0.218564
0.219971
0.221381
0.222794
0.224211
0.225632
0.227055
0.228482
0.229912
0.231346
0.232782
0.234222
0.235664
0.23711
0.238558
0.240009
0.241462
0.242918
0.244377
0.245839
0.247302
0.248768
0.250237
0.251707
0.253179
0.254655
0.256132
0.257611
0.259091
0.260575
0.26206
0.263546
0.265034
0.266524
0.268016
0.269509
0.271004
0.2725
0.273998
0.275497
0.276998
0.2785
0.280004
0.281508
0.283014
0.284523
0.286032
0.287541
0.289053
0.290566
0.292079
0.293592
0.295107
0.296623
0.29814
0.299656
0.301173
0.302693
0.304212
0.30573
0.307249
0.30877
0.31029
0.31181
0.313331
0.314852
0.316374
0.317894
0.319415
0.320937
0.322458
0.323977
0.325499
0.32702
0.328539
0.330058
0.331578
0.333097
0.334616
0.336133
0.33765
0.339167
0.340683
0.342197
0.343712
0.345225
0.346737
0.348249
0.349759
0.351269
0.352776
0.354283
0.355789
0.357293
0.358796
0.360298
0.361798
0.363296
0.364793
0.366288
0.367782
0.369273
0.370763
0.372252
0.373738
0.375222
0.376706
0.378185
0.379663
0.381139
0.382613
0.384085
0.385554
0.38702
0.388486
0.389947
0.391406
0.392864
0.394317
0.395769
0.397217
0.398664
0.400107
0.401546
0.402986
0.40442
0.405851
0.40728
0.408706
0.410129
0.411548
0.412964
0.414378
0.415789
0.417195
0.418596
0.419997
0.421389
0.42279
0.424159
0.425574
0.426904
0.428351
0.429634
0.431097
0.432365
0.433803
0.435094
0.436511
0.437761
0.439243
0.440389
0.441943
0.443042
0.444623
0.445667
0.447322
0.448287
0.450009
0.450892
0.453015
9.54504e-06
4.74331e-05
0.000158105
0.000265791
0.000392306
0.000549647
0.000851624
0.00157532
0.00269341
0.003291
0.00338728
0.00334692
0.0031878
0.00281628
0.00250096
0.00229285
0.00217171
0.00210788
0.00207729
0.00206394
0.00206009
0.00206078
0.00206286
0.00206653
0.00207055
0.00207485
0.00207941
0.0020843
0.00208931
0.00209451
0.00209992
0.00210548
0.00211131
0.00211741
0.00212375
0.00213022
0.00213694
0.00214386
0.00215103
0.0021584
0.00216608
0.00217394
0.00218202
0.00219037
0.00219895
0.00220777
0.00221682
0.00222614
0.00223573
0.00224551
0.00225559
0.00226593
0.00227647
0.00228735
0.00229845
0.00230979
0.00232146
0.00233333
0.00234554
0.00235797
0.00237068
0.00238368
0.00239694
0.0024105
0.00242431
0.00243843
0.00245284
0.0024675
0.0024825
0.00249776
0.00251333
0.00252917
0.00254535
0.00256184
0.00257858
0.0025957
0.00261312
0.00263084
0.00264889
0.00266728
0.00268601
0.00270504
0.00272449
0.00274423
0.00276432
0.00278479
0.00280565
0.00282685
0.0028484
0.00287039
0.00289274
0.00291545
0.0029386
0.00296214
0.00298608
0.00301041
0.00303519
0.00306038
0.00308596
0.00311202
0.00313848
0.00316538
0.00319269
0.0032205
0.00324872
0.00327736
0.00330652
0.00333605
0.00336607
0.00339654
0.00342749
0.00345886
0.00349069
0.00352305
0.00355577
0.00358897
0.00362271
0.00365684
0.00369147
0.00372654
0.00376213
0.00379813
0.00383459
0.00387162
0.00390905
0.00394695
0.00398538
0.00402429
0.00406365
0.0041035
0.00414394
0.00418476
0.00422613
0.00426808
0.00431048
0.00435339
0.00439688
0.00444092
0.00448544
0.00453055
0.00457631
0.0046225
0.00466933
0.00471681
0.00476482
0.00481345
0.00486273
0.00491265
0.00496313
0.00501434
0.00506625
0.0051187
0.00517195
0.00522587
0.00528045
0.00533576
0.00539184
0.00544862
0.00550608
0.00556441
0.00562342
0.00568317
0.0057438
0.00580516
0.00586722
0.00593014
0.00599388
0.00605838
0.00612374
0.00618991
0.00625694
0.00632476
0.00639349
0.00646303
0.00653333
0.00660455
0.00667663
0.00674945
0.00682311
0.00689767
0.00697301
0.00704909
0.00712609
0.00720388
0.00728238
0.00736175
0.00744193
0.00752284
0.00760446
0.007687
0.00777027
0.00785425
0.00793901
0.00802452
0.00811085
0.00819782
0.00828559
0.00837417
0.00846348
0.0085535
0.00864434
0.00873587
0.00882812
0.00892111
0.00901496
0.00910937
0.00920458
0.00930055
0.00939729
0.00949463
0.00959274
0.00969166
0.00979131
0.00989154
0.00999263
0.0100944
0.0101969
0.0103001
0.010404
0.0105086
0.010614
0.0107201
0.0108268
0.0109343
0.0110426
0.0111515
0.011261
0.0113713
0.0114824
0.0115941
0.0117065
0.0118196
0.0119334
0.0120479
0.0121631
0.012279
0.0123956
0.0125129
0.0126309
0.0127496
0.012869
0.0129892
0.0131099
0.0132315
0.0133539
0.0134769
0.0136005
0.0137249
0.01385
0.0139758
0.0141022
0.0142293
0.0143572
0.0144857
0.0146149
0.0147446
0.0148753
0.0150065
0.0151382
0.0152707
0.0154041
0.0155379
0.0156723
0.0158074
0.0159433
0.0160798
0.0162168
0.0163545
0.0164929
0.016632
0.0167714
0.0169117
0.0170527
0.0171941
0.0173361
0.0174788
0.0176222
0.017766
0.0179105
0.0180555
0.0182014
0.0183475
0.0184942
0.0186418
0.0187897
0.0189381
0.0190872
0.0192369
0.0193871
0.0195376
0.0196888
0.0198407
0.019993
0.0201456
0.0202989
0.0204529
0.020607
0.0207617
0.0209169
0.0210728
0.0212288
0.0213854
0.0215427
0.0217001
0.021858
0.0220167
0.0221754
0.0223344
0.0224942
0.0226543
0.0228148
0.0229756
0.0231366
0.0232985
0.0234602
0.0236225
0.0237853
0.0239481
0.0241114
0.024275
0.0244391
0.0246032
0.0247675
0.0249327
0.0250978
0.025263
0.0254289
0.0255948
0.0257611
0.0259274
0.0260939
0.0262609
0.0264283
0.0265956
0.0267626
0.0269306
0.0270973
0.0272676
0.0274305
0.0276068
0.0277619
0.0279481
0.0280943
0.0282851
0.0284329
0.0286154
0.0287745
0.0289518
0.0291039
0.0292982
0.0294298
0.0296369
0.0297687
0.0299735
0.0301041
0.0303179
0.0304423
0.0306632
0.0307777
0.03105
6.71028e-08
4.77187e-07
1.81292e-06
2.81784e-06
3.89349e-06
5.82619e-06
9.88761e-06
2.14083e-05
4.84698e-05
6.10697e-05
6.17022e-05
5.93132e-05
5.05897e-05
3.83922e-05
2.98113e-05
2.45901e-05
2.16956e-05
2.01904e-05
1.94387e-05
1.90646e-05
1.88737e-05
1.87654e-05
1.86934e-05
1.8636e-05
1.85846e-05
1.8537e-05
1.8493e-05
1.8452e-05
1.84115e-05
1.83721e-05
1.83339e-05
1.82968e-05
1.82624e-05
1.82308e-05
1.82006e-05
1.8171e-05
1.81434e-05
1.81173e-05
1.80932e-05
1.80711e-05
1.80514e-05
1.80329e-05
1.80162e-05
1.80017e-05
1.79889e-05
1.79781e-05
1.79694e-05
1.79626e-05
1.79579e-05
1.79549e-05
1.79542e-05
1.79556e-05
1.79588e-05
1.7964e-05
1.7972e-05
1.79806e-05
1.79926e-05
1.80063e-05
1.80228e-05
1.804e-05
1.80608e-05
1.80824e-05
1.81072e-05
1.81335e-05
1.8162e-05
1.81927e-05
1.82258e-05
1.82608e-05
1.82988e-05
1.83386e-05
1.83808e-05
1.84246e-05
1.84714e-05
1.85202e-05
1.85712e-05
1.86252e-05
1.86814e-05
1.874e-05
1.88014e-05
1.88653e-05
1.89317e-05
1.90009e-05
1.90736e-05
1.91481e-05
1.92261e-05
1.9307e-05
1.93912e-05
1.94782e-05
1.95683e-05
1.96622e-05
1.97589e-05
1.98591e-05
1.9963e-05
2.00702e-05
2.01811e-05
2.02954e-05
2.04136e-05
2.05354e-05
2.0661e-05
2.07907e-05
2.09235e-05
2.1061e-05
2.12019e-05
2.13471e-05
2.14961e-05
2.1649e-05
2.18065e-05
2.19669e-05
2.21323e-05
2.23014e-05
2.24746e-05
2.26518e-05
2.28332e-05
2.3019e-05
2.32076e-05
2.34011e-05
2.35991e-05
2.38002e-05
2.40058e-05
2.42155e-05
2.44293e-05
2.46463e-05
2.48678e-05
2.50941e-05
2.53234e-05
2.55567e-05
2.57951e-05
2.6037e-05
2.62825e-05
2.65326e-05
2.67879e-05
2.70458e-05
2.73088e-05
2.75773e-05
2.78492e-05
2.81252e-05
2.84074e-05
2.86941e-05
2.8985e-05
2.92815e-05
2.95848e-05
2.98916e-05
3.02043e-05
3.05244e-05
3.08493e-05
3.11803e-05
3.15182e-05
3.18634e-05
3.22141e-05
3.25723e-05
3.2939e-05
3.33114e-05
3.36925e-05
3.40814e-05
3.44781e-05
3.48832e-05
3.52972e-05
3.57197e-05
3.61502e-05
3.65914e-05
3.70409e-05
3.74994e-05
3.79688e-05
3.84474e-05
3.89344e-05
3.94326e-05
3.99416e-05
4.04601e-05
4.09895e-05
4.153e-05
4.20818e-05
4.26435e-05
4.32177e-05
4.38032e-05
4.43983e-05
4.50058e-05
4.56257e-05
4.62556e-05
4.68965e-05
4.75509e-05
4.82162e-05
4.88914e-05
4.95802e-05
5.02807e-05
5.0991e-05
5.17144e-05
5.24501e-05
5.31961e-05
5.39531e-05
5.47246e-05
5.55064e-05
5.62994e-05
5.71051e-05
5.79222e-05
5.8752e-05
5.95931e-05
6.04461e-05
6.13124e-05
6.21913e-05
6.30813e-05
6.39848e-05
6.49006e-05
6.58284e-05
6.67683e-05
6.77233e-05
6.86886e-05
6.9667e-05
7.06594e-05
7.16654e-05
7.26822e-05
7.37129e-05
7.47584e-05
7.5817e-05
7.68862e-05
7.79716e-05
7.90699e-05
8.01811e-05
8.1306e-05
8.24452e-05
8.35969e-05
8.47637e-05
8.59438e-05
8.71375e-05
8.83446e-05
8.9568e-05
9.08043e-05
9.20524e-05
9.33164e-05
9.45973e-05
9.58909e-05
9.71968e-05
9.85191e-05
9.98562e-05
0.000101208
0.000102573
0.000103954
0.000105351
0.000106764
0.000108191
0.000109633
0.000111091
0.000112569
0.000114056
0.000115563
0.00011709
0.000118631
0.000120184
0.000121758
0.000123349
0.000124954
0.000126576
0.000128216
0.000129873
0.000131547
0.000133237
0.000134941
0.00013667
0.000138414
0.00014017
0.000141947
0.000143746
0.000145558
0.000147387
0.000149237
0.000151105
0.000152991
0.000154892
0.000156813
0.000158755
0.000160715
0.000162687
0.000164684
0.000166701
0.000168733
0.000170782
0.000172855
0.000174945
0.000177053
0.00017918
0.000181325
0.000183495
0.000185679
0.00018788
0.000190108
0.000192351
0.000194611
0.000196893
0.000199195
0.000201517
0.000203855
0.000206213
0.000208597