/*--------------------------------*- C++ -*----------------------------------*\
  =========                 |
  \\      /  F ield         | OpenFOAM: The Open Source CFD Toolbox
   \\    /   O peration     | Website:  https://openfoam.org
    \\  /    A nd           | Version:  7
     \\/     M anipulation  |
\*---------------------------------------------------------------------------*/
FoamFile
{
    version     2.0;
    format      ascii;
    class       volScalarField;
    location    "1.65";
    object      T;
}
// * * * * * * * * * * * * * * * * * * * * * * * * * * * * * * * * * * * * * //

dimensions      [0 0 0 1 0 0 0];

internalField   nonuniform List<scalar> 
12000
(
294.136
293.22
296.705
298.185
298.89
299.381
299.503
299.952
297.724
295.602
278.856
274.671
277.426
278.61
279.18
279.584
279.676
280.073
278.23
276.307
280.028
274.256
276.204
277.162
277.66
278.028
278.099
278.493
276.929
274.829
278.625
271.222
272.375
273.037
273.428
273.74
273.782
274.147
272.908
270.642
279.346
271.276
271.794
272.198
272.492
272.76
272.781
273.112
272.103
269.693
279.504
270.963
271.245
271.517
271.761
272.001
272.007
272.317
271.411
268.932
279.504
270.963
271.245
271.518
271.76
272.001
272.006
272.319
271.408
268.939
279.346
271.276
271.794
272.198
272.492
272.761
272.779
273.116
272.093
269.712
278.625
271.222
272.375
273.038
273.427
273.742
273.778
274.153
272.893
270.672
280.028
274.256
276.204
277.163
277.658
278.03
278.094
278.502
276.909
274.866
278.856
274.671
277.426
278.611
279.179
279.587
279.67
280.083
278.208
276.346
294.136
293.221
296.705
298.186
298.888
299.384
299.496
299.963
297.697
295.649
306.095
304.629
308.726
310.317
311.081
311.608
311.737
312.211
309.71
307.45
284.073
279.898
282.74
284.002
284.606
285.036
285.138
285.553
283.608
281.598
281.872
275.297
277.055
278.019
278.52
278.892
278.968
279.366
277.817
275.681
279.814
271.917
272.797
273.44
273.825
274.136
274.181
274.544
273.349
271.043
280.663
271.773
271.979
272.346
272.628
272.89
272.912
273.236
272.285
269.826
280.708
271.459
271.408
271.635
271.862
272.095
272.101
272.402
271.56
269.028
280.708
271.459
271.408
271.635
271.862
272.095
272.1
272.404
271.557
269.035
280.663
271.774
271.978
272.347
272.627
272.891
272.91
273.241
272.274
269.845
279.814
271.917
272.796
273.441
273.824
274.138
274.177
274.55
273.333
271.073
281.871
275.298
277.054
278.02
278.518
278.895
278.963
279.374
277.797
275.719
284.073
279.898
282.74
284.003
284.605
285.039
285.132
285.563
283.584
281.639
306.095
304.63
308.725
310.318
311.078
311.612
311.729
312.223
309.68
307.5
300.873
299.98
303.573
305.129
305.873
306.395
306.524
307.007
304.688
302.474
286.013
281.957
284.358
285.634
286.243
286.686
286.795
287.236
285.386
283.303
282.685
276.513
277.672
278.601
279.089
279.465
279.547
279.957
278.574
276.372
280.944
273.398
273.612
274.182
274.542
274.849
274.899
275.262
274.255
271.865
281.317
272.88
272.406
272.67
272.914
273.161
273.185
273.496
272.752
270.201
281.408
272.61
271.844
271.951
272.132
272.345
272.353
272.634
272.012
269.381
281.408
272.611
271.844
271.952
272.132
272.346
272.352
272.636
272.008
269.388
281.317
272.88
272.406
272.671
272.913
273.162
273.182
273.501
272.742
270.222
280.943
273.399
273.611
274.183
274.541
274.851
274.895
275.269
274.239
271.897
282.685
276.513
277.672
278.602
279.087
279.468
279.542
279.967
278.553
276.412
286.012
281.958
284.357
285.636
286.241
286.689
286.789
287.247
285.361
283.347
300.873
299.98
303.572
305.13
305.871
306.399
306.516
307.02
304.657
302.528
295.125
294.956
297.853
299.365
300.089
300.616
300.749
301.262
299.23
297.106
286.069
282.243
283.879
285.093
285.681
286.136
286.252
286.723
285.125
282.989
283.423
277.838
278.094
278.857
279.289
279.656
279.744
280.154
279.105
276.811
282.085
275.145
274.43
274.767
275.042
275.316
275.367
275.697
275.04
272.53
282.228
274.578
273.194
273.174
273.307
273.499
273.518
273.767
273.391
270.714
282.317
274.342
272.665
272.477
272.537
272.687
272.689
272.895
272.644
269.884
282.317
274.342
272.665
272.477
272.537
272.687
272.688
272.897
272.64
269.892
282.228
274.579
273.193
273.175
273.306
273.5
273.515
273.772
273.379
270.737
282.085
275.145
274.429
274.767
275.04
275.319
275.362
275.705
275.021
272.565
283.423
277.839
278.094
278.858
279.287
279.659
279.738
280.165
279.08
276.856
286.069
282.243
283.879
285.095
285.679
286.139
286.244
286.735
285.097
283.038
295.125
294.957
297.852
299.367
300.086
300.621
300.739
301.277
299.195
297.171
290.784
292.126
294.481
296.014
296.752
297.327
297.482
298.061
296.387
294.451
285.872
283.086
283.907
285
285.551
286.038
286.174
286.688
285.499
283.4
283.994
279.496
278.775
279.171
279.459
279.784
279.876
280.234
279.708
277.38
283.112
277.357
275.67
275.513
275.573
275.74
275.778
275.977
275.858
273.271
283.176
276.963
274.683
274.115
273.989
274.027
274.027
274.09
274.254
271.507
283.246
276.757
274.225
273.49
273.282
273.262
273.242
273.243
273.518
270.695
283.246
276.757
274.225
273.49
273.281
273.263
273.241
273.245
273.513
270.703
283.176
276.963
274.683
274.116
273.987
274.029
274.023
274.097
274.24
271.532
283.111
277.358
275.669
275.514
275.572
275.743
275.772
275.987
275.836
273.311
283.994
279.497
278.774
279.172
279.456
279.788
279.867
280.248
279.677
277.434
285.872
283.086
283.906
285.002
285.548
286.043
286.164
286.705
285.462
283.465
290.784
292.127
294.479
296.016
296.748
297.334
297.469
298.081
296.339
294.542
287.023
289.94
292.015
293.607
294.413
295.086
295.278
295.946
294.764
293.249
285.056
284.078
284.374
285.219
285.697
286.219
286.367
286.886
286.264
284.467
284.123
281.454
280.24
280.12
280.152
280.366
280.44
280.638
280.705
278.605
283.732
280.051
277.909
277.093
276.77
276.689
276.683
276.584
277.046
274.644
283.771
279.796
277.194
275.944
275.381
275.091
275.034
274.717
275.416
272.858
283.826
279.661
276.864
275.462
274.803
274.42
274.336
273.921
274.701
272.08
283.826
279.662
276.864
275.462
274.802
274.421
274.335
273.924
274.695
272.088
283.771
279.796
277.193
275.945
275.379
275.094
275.029
274.725
275.398
272.885
283.731
280.052
277.908
277.095
276.767
276.693
276.675
276.597
277.016
274.686
284.122
281.456
280.238
280.123
280.148
280.372
280.428
280.657
280.661
278.672
285.055
284.079
284.372
285.222
285.691
286.227
286.349
286.913
286.206
284.561
287.023
289.942
292.012
293.611
294.406
295.097
295.257
295.98
294.688
293.392
284.235
287.092
289.134
290.886
291.861
292.723
293.004
293.793
293.211
292.547
283.894
284.238
284.549
285.209
285.607
286.151
286.3
286.776
286.693
285.713
283.733
282.906
282.001
281.578
281.325
281.328
281.34
281.284
281.703
280.334
283.692
282.292
280.703
279.568
278.868
278.4
278.284
277.769
278.445
276.691
283.734
282.175
280.315
278.797
277.851
277.09
276.903
276.098
276.888
274.946
283.766
282.152
280.173
278.528
277.494
276.608
276.384
275.453
276.261
274.253
283.766
282.153
280.173
278.529
277.493
276.609
276.381
275.456
276.254
274.261
283.734
282.176
280.314
278.798
277.848
277.094
276.895
276.109
276.867
274.971
283.691
282.294
280.701
279.571
278.863
278.407
278.271
277.787
278.408
276.734
283.732
282.908
281.998
281.583
281.317
281.339
281.319
281.313
281.641
280.41
283.893
284.241
284.544
285.216
285.596
286.167
286.268
286.823
286.599
285.846
284.234
287.095
289.13
290.893
291.848
292.745
292.964
293.858
293.076
292.777
283.155
284.413
285.847
287.435
288.524
289.618
290.078
291.044
290.91
291.401
283.217
283.593
283.937
284.505
284.852
285.419
285.592
286.123
286.153
286.36
283.288
283.288
283.026
282.784
282.516
282.392
282.304
282.17
282.339
281.958
283.328
283.174
282.642
281.924
281.319
280.689
280.434
279.78
279.998
279.125
283.351
283.161
282.557
281.622
280.868
279.973
279.634
278.705
278.904
277.811
283.359
283.168
282.54
281.532
280.729
279.737
279.358
278.333
278.496
277.338
283.359
283.169
282.539
281.533
280.727
279.739
279.354
278.337
278.489
277.345
283.35
283.163
282.554
281.625
280.863
279.979
279.623
278.719
278.882
277.833
283.326
283.177
282.637
281.93
281.311
280.701
280.414
279.805
279.956
279.165
283.285
283.293
283.02
282.793
282.503
282.411
282.269
282.214
282.261
282.037
283.213
283.599
283.929
284.518
284.832
285.45
285.536
286.202
286.017
286.525
283.153
284.418
285.839
287.45
288.498
289.661
289.999
291.165
290.683
291.737
283.076
283.355
283.896
284.843
285.658
286.741
287.272
288.361
288.423
289.572
283.116
283.215
283.296
283.641
283.835
284.349
284.474
285.116
285.018
285.869
283.142
283.199
283.161
283.175
283.068
283.092
282.951
283.049
282.829
283.097
283.157
283.19
283.144
283
282.782
282.535
282.264
282.039
281.712
281.669
283.163
283.187
283.151
282.954
282.693
282.343
281.994
281.663
281.223
281.129
283.164
283.188
283.155
282.944
282.663
282.288
281.896
281.55
281.038
280.965
283.164
283.189
283.154
282.946
282.661
282.291
281.893
281.554
281.032
280.972
283.162
283.189
283.148
282.958
282.687
282.351
281.983
281.677
281.204
281.15
283.153
283.194
283.138
283.009
282.771
282.55
282.241
282.066
281.674
281.71
283.136
283.207
283.15
283.19
283.047
283.12
282.909
283.099
282.756
283.175
283.109
283.226
283.281
283.664
283.801
284.399
284.397
285.217
284.866
286.044
283.072
283.364
283.882
284.869
285.616
286.81
287.152
288.539
288.121
289.996
283.122
283.164
283.278
283.776
284.275
285.212
285.712
286.821
286.977
288.225
283.129
283.17
283.123
283.284
283.304
283.669
283.703
284.274
284.196
284.977
283.134
283.169
283.123
283.189
283.107
283.23
283.078
283.315
283.023
283.463
283.136
283.169
283.125
283.186
283.067
283.174
282.907
283.151
282.616
283.187
283.132
283.174
283.117
283.2
283.041
283.188
282.825
283.155
282.428
283.196
283.129
283.179
283.11
283.21
283.027
283.202
282.787
283.172
282.344
283.224
283.129
283.179
283.109
283.211
283.025
283.204
282.784
283.175
282.339
283.229
283.13
283.177
283.113
283.204
283.036
283.195
282.815
283.167
282.412
283.214
283.131
283.174
283.117
283.195
283.055
283.189
282.887
283.175
282.583
283.226
283.126
283.18
283.109
283.207
283.083
283.259
283.038
283.363
282.955
283.541
283.119
283.185
283.101
283.313
283.261
283.727
283.616
284.382
284.042
285.157
283.116
283.175
283.26
283.808
284.224
285.295
285.57
287.029
286.634
288.706
283.122
283.164
283.278
283.776
284.275
285.212
285.712
286.821
286.977
288.225
283.129
283.17
283.123
283.284
283.304
283.669
283.703
284.274
284.196
284.977
283.134
283.169
283.123
283.189
283.107
283.23
283.078
283.315
283.023
283.463
283.136
283.169
283.125
283.186
283.067
283.174
282.907
283.151
282.616
283.187
283.132
283.174
283.117
283.2
283.041
283.188
282.825
283.155
282.428
283.196
283.129
283.179
283.11
283.21
283.027
283.202
282.787
283.172
282.344
283.224
283.129
283.179
283.109
283.211
283.025
283.204
282.784
283.175
282.339
283.229
283.13
283.177
283.113
283.204
283.036
283.195
282.815
283.167
282.412
283.214
283.131
283.174
283.117
283.195
283.055
283.189
282.887
283.175
282.583
283.226
283.126
283.18
283.109
283.207
283.083
283.259
283.038
283.363
282.955
283.541
283.119
283.185
283.101
283.313
283.261
283.727
283.616
284.382
284.042
285.157
283.116
283.175
283.26
283.808
284.224
285.295
285.57
287.029
286.634
288.706
283.076
283.355
283.896
284.843
285.658
286.741
287.272
288.361
288.423
289.572
283.116
283.215
283.296
283.641
283.835
284.349
284.474
285.116
285.018
285.869
283.142
283.199
283.161
283.175
283.068
283.092
282.951
283.049
282.829
283.097
283.157
283.19
283.144
283
282.782
282.535
282.264
282.039
281.712
281.669
283.163
283.187
283.151
282.954
282.693
282.343
281.994
281.663
281.223
281.129
283.164
283.188
283.155
282.944
282.663
282.288
281.896
281.55
281.038
280.965
283.164
283.189
283.154
282.946
282.661
282.291
281.893
281.554
281.032
280.972
283.162
283.189
283.148
282.958
282.687
282.351
281.983
281.677
281.204
281.15
283.153
283.194
283.138
283.009
282.771
282.55
282.241
282.066
281.674
281.71
283.136
283.207
283.15
283.19
283.047
283.12
282.909
283.099
282.756
283.175
283.109
283.226
283.281
283.664
283.801
284.399
284.397
285.217
284.866
286.044
283.072
283.364
283.882
284.869
285.616
286.81
287.152
288.539
288.121
289.996
283.155
284.413
285.847
287.435
288.524
289.618
290.078
291.044
290.91
291.401
283.217
283.593
283.937
284.505
284.852
285.419
285.592
286.123
286.153
286.36
283.288
283.288
283.026
282.784
282.516
282.392
282.304
282.17
282.339
281.958
283.328
283.174
282.642
281.924
281.319
280.689
280.434
279.78
279.998
279.125
283.351
283.161
282.557
281.622
280.868
279.973
279.634
278.705
278.904
277.811
283.359
283.168
282.54
281.532
280.729
279.737
279.358
278.333
278.496
277.338
283.359
283.169
282.539
281.533
280.727
279.739
279.354
278.337
278.489
277.345
283.35
283.163
282.554
281.625
280.863
279.979
279.623
278.719
278.882
277.833
283.326
283.177
282.637
281.93
281.311
280.701
280.414
279.805
279.956
279.165
283.285
283.293
283.02
282.793
282.503
282.411
282.269
282.214
282.261
282.037
283.213
283.599
283.929
284.518
284.832
285.45
285.536
286.202
286.017
286.525
283.153
284.418
285.839
287.45
288.498
289.661
289.999
291.165
290.683
291.737
284.235
287.092
289.134
290.886
291.861
292.723
293.004
293.793
293.211
292.547
283.894
284.238
284.549
285.209
285.607
286.151
286.3
286.776
286.693
285.713
283.733
282.906
282.001
281.578
281.325
281.328
281.34
281.284
281.703
280.334
283.692
282.292
280.703
279.568
278.868
278.4
278.284
277.769
278.445
276.691
283.734
282.175
280.315
278.797
277.851
277.09
276.903
276.098
276.888
274.946
283.766
282.152
280.173
278.528
277.494
276.608
276.384
275.453
276.261
274.253
283.766
282.153
280.173
278.529
277.493
276.609
276.381
275.456
276.254
274.261
283.734
282.176
280.314
278.798
277.848
277.094
276.895
276.109
276.867
274.971
283.691
282.294
280.701
279.571
278.863
278.407
278.271
277.787
278.408
276.734
283.732
282.908
281.998
281.583
281.317
281.339
281.319
281.313
281.641
280.41
283.893
284.241
284.544
285.216
285.596
286.167
286.268
286.823
286.599
285.846
284.234
287.095
289.13
290.893
291.848
292.745
292.964
293.858
293.076
292.777
287.023
289.94
292.015
293.607
294.413
295.086
295.278
295.946
294.764
293.249
285.056
284.078
284.374
285.219
285.697
286.219
286.367
286.886
286.264
284.467
284.123
281.454
280.24
280.12
280.152
280.366
280.44
280.638
280.705
278.605
283.732
280.051
277.909
277.093
276.77
276.689
276.683
276.584
277.046
274.644
283.771
279.796
277.194
275.944
275.381
275.091
275.034
274.717
275.416
272.858
283.826
279.661
276.864
275.462
274.803
274.42
274.336
273.921
274.701
272.08
283.826
279.662
276.864
275.462
274.802
274.421
274.335
273.924
274.695
272.088
283.771
279.796
277.193
275.945
275.379
275.094
275.029
274.725
275.398
272.885
283.731
280.052
277.908
277.095
276.767
276.693
276.675
276.597
277.016
274.686
284.122
281.456
280.238
280.123
280.148
280.372
280.428
280.657
280.661
278.672
285.055
284.079
284.372
285.222
285.691
286.227
286.349
286.913
286.206
284.561
287.023
289.942
292.012
293.611
294.406
295.097
295.257
295.98
294.688
293.392
290.784
292.126
294.481
296.014
296.752
297.327
297.482
298.061
296.387
294.451
285.872
283.086
283.907
285
285.551
286.038
286.174
286.688
285.499
283.4
283.994
279.496
278.775
279.171
279.459
279.784
279.876
280.234
279.708
277.38
283.112
277.357
275.67
275.513
275.573
275.74
275.778
275.977
275.858
273.271
283.176
276.963
274.683
274.115
273.989
274.027
274.027
274.09
274.254
271.507
283.246
276.757
274.225
273.49
273.282
273.262
273.242
273.243
273.518
270.695
283.246
276.757
274.225
273.49
273.281
273.263
273.241
273.245
273.513
270.703
283.176
276.963
274.683
274.116
273.988
274.029
274.023
274.097
274.24
271.532
283.111
277.358
275.669
275.514
275.572
275.743
275.772
275.987
275.836
273.311
283.994
279.497
278.774
279.172
279.456
279.788
279.867
280.248
279.677
277.434
285.872
283.086
283.906
285.002
285.548
286.043
286.164
286.705
285.462
283.465
290.784
292.127
294.479
296.016
296.748
297.334
297.469
298.081
296.339
294.542
295.125
294.956
297.853
299.365
300.089
300.616
300.749
301.262
299.23
297.106
286.069
282.243
283.879
285.093
285.681
286.136
286.252
286.723
285.125
282.989
283.423
277.838
278.094
278.857
279.289
279.656
279.744
280.154
279.105
276.811
282.085
275.145
274.43
274.767
275.042
275.316
275.367
275.697
275.04
272.53
282.228
274.578
273.194
273.174
273.307
273.499
273.518
273.767
273.391
270.714
282.317
274.342
272.665
272.477
272.537
272.687
272.689
272.895
272.644
269.884
282.317
274.342
272.665
272.477
272.537
272.687
272.688
272.897
272.64
269.892
282.228
274.579
273.193
273.175
273.306
273.5
273.515
273.772
273.379
270.737
282.085
275.145
274.429
274.767
275.04
275.319
275.362
275.705
275.021
272.565
283.423
277.839
278.094
278.858
279.287
279.659
279.738
280.165
279.08
276.856
286.069
282.243
283.879
285.095
285.679
286.139
286.244
286.735
285.097
283.039
295.125
294.957
297.852
299.367
300.086
300.621
300.739
301.277
299.195
297.171
300.873
299.98
303.573
305.129
305.873
306.395
306.524
307.007
304.688
302.474
286.013
281.957
284.358
285.634
286.243
286.686
286.795
287.236
285.386
283.303
282.685
276.513
277.672
278.601
279.089
279.465
279.547
279.957
278.574
276.372
280.944
273.398
273.612
274.182
274.542
274.849
274.899
275.262
274.255
271.865
281.317
272.88
272.406
272.67
272.914
273.161
273.185
273.496
272.752
270.201
281.408
272.61
271.844
271.951
272.132
272.345
272.353
272.634
272.012
269.381
281.408
272.611
271.844
271.952
272.132
272.346
272.352
272.636
272.008
269.388
281.317
272.88
272.406
272.671
272.913
273.162
273.182
273.501
272.742
270.222
280.943
273.399
273.611
274.183
274.541
274.851
274.895
275.269
274.239
271.897
282.685
276.513
277.672
278.602
279.087
279.468
279.542
279.967
278.553
276.412
286.012
281.958
284.357
285.636
286.241
286.689
286.789
287.247
285.361
283.347
300.873
299.98
303.572
305.13
305.871
306.399
306.516
307.02
304.657
302.528
306.095
304.629
308.726
310.317
311.081
311.608
311.737
312.211
309.71
307.45
284.073
279.898
282.74
284.002
284.606
285.036
285.138
285.553
283.608
281.598
281.872
275.297
277.055
278.019
278.52
278.892
278.968
279.366
277.817
275.681
279.814
271.917
272.797
273.44
273.825
274.136
274.181
274.544
273.349
271.043
280.663
271.773
271.979
272.346
272.628
272.89
272.912
273.236
272.285
269.826
280.708
271.459
271.408
271.635
271.862
272.095
272.101
272.402
271.56
269.028
280.708
271.459
271.408
271.635
271.862
272.095
272.1
272.404
271.557
269.035
280.663
271.774
271.978
272.347
272.627
272.891
272.91
273.241
272.274
269.845
279.814
271.917
272.796
273.441
273.824
274.138
274.177
274.55
273.333
271.073
281.871
275.298
277.054
278.02
278.518
278.895
278.963
279.374
277.797
275.719
284.073
279.898
282.74
284.003
284.605
285.039
285.132
285.563
283.584
281.639
306.095
304.63
308.725
310.318
311.078
311.612
311.729
312.223
309.68
307.5
294.136
293.22
296.705
298.185
298.89
299.381
299.503
299.952
297.724
295.602
278.856
274.671
277.426
278.61
279.18
279.584
279.676
280.073
278.23
276.307
280.028
274.256
276.204
277.162
277.66
278.028
278.099
278.493
276.929
274.829
278.625
271.222
272.375
273.037
273.428
273.74
273.782
274.147
272.908
270.642
279.346
271.276
271.794
272.198
272.492
272.76
272.781
273.112
272.103
269.693
279.504
270.963
271.245
271.517
271.761
272.001
272.007
272.317
271.411
268.932
279.504
270.963
271.245
271.518
271.76
272.001
272.006
272.319
271.408
268.939
279.346
271.276
271.794
272.198
272.492
272.761
272.779
273.116
272.093
269.712
278.625
271.222
272.375
273.038
273.427
273.742
273.778
274.153
272.893
270.672
280.028
274.256
276.204
277.163
277.658
278.03
278.094
278.502
276.909
274.866
278.856
274.671
277.426
278.611
279.179
279.587
279.67
280.083
278.208
276.346
294.136
293.221
296.705
298.186
298.888
299.384
299.496
299.963
297.697
295.649
286.964
288.29
288.955
289.543
290.118
290.693
291.377
292.086
292.688
293.062
293.273
293.474
293.801
294.269
294.799
295.279
295.638
295.857
295.962
295.991
295.98
295.954
295.923
295.894
295.866
295.84
295.815
295.79
295.766
295.742
295.718
295.694
295.67
295.645
295.624
295.598
295.578
295.55
295.54
295.517
280.774
282.166
282.801
283.363
283.914
284.463
285.116
285.795
286.373
286.734
286.938
287.129
287.44
287.886
288.392
288.853
289.198
289.409
289.511
289.539
289.53
289.505
289.475
289.447
289.42
289.395
289.371
289.347
289.325
289.301
289.278
289.255
289.232
289.209
289.188
289.163
289.144
289.118
289.108
289.087
279.645
281.214
281.848
282.407
282.955
283.499
284.148
284.823
285.401
285.765
285.969
286.158
286.464
286.905
287.407
287.867
288.213
288.426
288.529
288.559
288.55
288.525
288.496
288.468
288.441
288.416
288.392
288.368
288.346
288.322
288.299
288.277
288.254
288.23
288.21
288.185
288.166
288.139
288.129
288.108
278.734
280.514
281.15
281.707
282.254
282.795
283.44
284.114
284.694
285.062
285.268
285.455
285.757
286.194
286.695
287.155
287.503
287.719
287.824
287.855
287.847
287.822
287.793
287.765
287.738
287.713
287.689
287.665
287.643
287.619
287.596
287.574
287.551
287.527
287.507
287.482
287.463
287.436
287.426
287.405
278.205
280.146
280.784
281.338
281.885
282.424
283.067
283.74
284.323
284.693
284.902
285.088
285.386
285.82
286.32
286.782
287.132
287.349
287.456
287.489
287.481
287.456
287.427
287.399
287.372
287.347
287.323
287.299
287.276
287.253
287.23
287.207
287.184
287.161
287.14
287.115
287.096
287.07
287.059
287.038
277.916
279.93
280.565
281.118
281.664
282.202
282.843
283.516
284.1
284.473
284.682
284.868
285.165
285.597
286.097
286.558
286.91
287.129
287.236
287.269
287.262
287.237
287.208
287.18
287.153
287.128
287.104
287.08
287.057
287.034
287.011
286.988
286.965
286.941
286.921
286.896
286.876
286.85
286.84
286.818
277.849
279.829
280.456
281.006
281.551
282.089
282.73
283.403
283.987
284.359
284.569
284.754
285.051
285.483
285.983
286.444
286.796
287.015
287.122
287.155
287.148
287.123
287.094
287.065
287.038
287.013
286.989
286.965
286.942
286.919
286.896
286.873
286.85
286.826
286.806
286.781
286.761
286.735
286.724
286.703
278.002
279.842
280.455
281.003
281.547
282.085
282.728
283.401
283.983
284.354
284.562
284.747
285.046
285.48
285.98
286.441
286.79
287.008
287.115
287.147
287.139
287.114
287.085
287.056
287.029
287.004
286.98
286.956
286.933
286.909
286.886
286.864
286.84
286.816
286.796
286.771
286.751
286.725
286.714
286.693
278.387
280.008
280.606
281.151
281.695
282.234
282.879
283.552
284.132
284.499
284.705
284.892
285.193
285.63
286.13
286.59
286.938
287.153
287.258
287.289
287.28
287.255
287.226
287.197
287.17
287.145
287.121
287.097
287.074
287.05
287.027
287.004
286.981
286.957
286.936
286.911
286.892
286.865
286.855
286.833
279.146
280.506
281.092
281.636
282.181
282.722
283.37
284.044
284.622
284.984
285.188
285.377
285.682
286.123
286.625
287.084
287.429
287.642
287.745
287.774
287.765
287.739
287.71
287.681
287.654
287.629
287.604
287.58
287.557
287.534
287.51
287.487
287.464
287.44
287.419
287.394
287.374
287.348
287.337
287.316
280.121
281.272
281.851
282.396
282.943
283.489
284.142
284.82
285.397
285.757
285.96
286.151
286.461
286.907
287.412
287.872
288.216
288.427
288.528
288.556
288.546
288.52
288.49
288.462
288.434
288.409
288.385
288.36
288.337
288.313
288.29
288.267
288.243
288.219
288.198
288.173
288.153
288.126
288.116
288.094
286.141
287.199
287.803
288.371
288.942
289.513
290.197
290.905
291.505
291.878
292.089
292.289
292.615
293.083
293.611
294.091
294.448
294.667
294.771
294.799
294.788
294.761
294.73
294.7
294.671
294.645
294.619
294.594
294.57
294.545
294.52
294.496
294.471
294.446
294.424
294.398
294.377
294.349
294.338
294.314
290.214
291.541
292.212
292.807
293.39
293.972
294.666
295.385
295.994
296.374
296.587
296.791
297.123
297.597
298.134
298.621
298.984
299.206
299.312
299.342
299.331
299.304
299.273
299.243
299.215
299.188
299.163
299.138
299.114
299.089
299.065
299.041
299.017
298.991
298.97
298.944
298.923
298.895
298.885
298.861
281.653
283.041
283.682
284.247
284.802
285.353
286.011
286.693
287.274
287.637
287.841
288.033
288.346
288.795
289.304
289.766
290.113
290.326
290.428
290.457
290.447
290.421
290.392
290.363
290.336
290.311
290.287
290.263
290.24
290.217
290.194
290.171
290.148
290.124
290.104
290.078
290.059
290.033
290.022
290.001
279.848
281.422
282.061
282.621
283.17
283.715
284.364
285.04
285.619
285.983
286.188
286.377
286.683
287.125
287.628
288.088
288.435
288.648
288.751
288.781
288.772
288.747
288.718
288.69
288.663
288.638
288.614
288.59
288.568
288.544
288.521
288.499
288.476
288.452
288.432
288.407
288.388
288.361
288.351
288.33
278.802
280.595
281.235
281.793
282.34
282.881
283.526
284.201
284.782
285.15
285.356
285.543
285.845
286.282
286.783
287.244
287.592
287.808
287.913
287.945
287.937
287.912
287.883
287.854
287.828
287.803
287.779
287.755
287.732
287.709
287.686
287.663
287.64
287.617
287.596
287.571
287.552
287.526
287.515
287.494
278.222
280.181
280.823
281.378
281.925
282.464
283.107
283.781
284.364
284.735
284.943
285.129
285.428
285.862
286.362
286.823
287.174
287.392
287.499
287.531
287.524
287.499
287.47
287.442
287.415
287.39
287.366
287.342
287.319
287.296
287.273
287.25
287.227
287.203
287.183
287.158
287.139
287.112
287.102
287.081
277.914
279.949
280.588
281.142
281.688
282.226
282.867
283.541
284.125
284.498
284.708
284.893
285.19
285.622
286.122
286.584
286.935
287.155
287.263
287.296
287.288
287.264
287.235
287.206
287.179
287.154
287.13
287.106
287.083
287.06
287.037
287.014
286.991
286.967
286.947
286.922
286.903
286.876
286.866
286.845
277.848
279.848
280.478
281.029
281.575
282.112
282.754
283.427
284.011
284.384
284.593
284.779
285.076
285.508
286.007
286.469
286.821
287.04
287.148
287.181
287.173
287.149
287.12
287.091
287.064
287.039
287.015
286.991
286.968
286.945
286.922
286.899
286.876
286.852
286.831
286.807
286.787
286.761
286.75
286.729
278.019
279.876
280.493
281.041
281.585
282.124
282.766
283.439
284.022
284.393
284.601
284.787
285.085
285.519
286.019
286.48
286.83
287.048
287.155
287.187
287.179
287.155
287.125
287.097
287.07
287.045
287.02
286.996
286.974
286.95
286.927
286.904
286.881
286.857
286.836
286.811
286.792
286.765
286.755
286.734
278.454
280.085
280.686
281.232
281.776
282.316
282.96
283.634
284.214
284.582
284.788
284.975
285.276
285.713
286.214
286.674
287.022
287.237
287.342
287.373
287.365
287.34
287.31
287.282
287.255
287.23
287.205
287.181
287.158
287.135
287.111
287.089
287.065
287.041
287.021
286.996
286.976
286.949
286.939
286.918
279.342
280.706
281.294
281.839
282.384
282.927
283.576
284.251
284.829
285.192
285.397
285.585
285.891
286.332
286.835
287.295
287.641
287.854
287.956
287.986
287.976
287.951
287.921
287.893
287.866
287.84
287.816
287.792
287.769
287.745
287.722
287.699
287.675
287.651
287.63
287.605
287.586
287.559
287.548
287.527
280.98
282.123
282.706
283.254
283.804
284.353
285.01
285.691
286.271
286.633
286.836
287.028
287.34
287.788
288.297
288.759
289.105
289.317
289.418
289.446
289.436
289.41
289.38
289.351
289.324
289.298
289.273
289.249
289.226
289.202
289.178
289.155
289.131
289.107
289.086
289.061
289.041
289.014
289.003
288.981
289.355
290.407
291.014
291.59
292.169
292.747
293.44
294.158
294.766
295.144
295.357
295.56
295.891
296.365
296.901
297.386
297.749
297.97
298.075
298.104
298.093
298.065
298.033
298.003
297.974
297.947
297.921
297.895
297.871
297.845
297.82
297.796
297.771
297.745
297.723
297.696
297.676
297.647
297.636
297.611
288.605
289.905
290.576
291.166
291.744
292.32
293.008
293.719
294.322
294.697
294.908
295.11
295.438
295.909
296.44
296.922
297.281
297.5
297.605
297.634
297.623
297.597
297.566
297.536
297.508
297.482
297.457
297.432
297.408
297.384
297.36
297.336
297.312
297.287
297.266
297.24
297.22
297.192
297.182
297.158
282.509
283.901
284.552
285.122
285.679
286.234
286.895
287.582
288.165
288.53
288.735
288.929
289.243
289.695
290.207
290.672
291.021
291.234
291.337
291.366
291.356
291.33
291.3
291.272
291.245
291.22
291.195
291.171
291.148
291.125
291.101
291.078
291.055
291.031
291.011
290.985
290.966
290.939
290.929
290.907
280.195
281.782
282.43
282.993
283.543
284.09
284.741
285.419
285.999
286.365
286.57
286.76
287.067
287.509
288.014
288.476
288.823
289.037
289.141
289.171
289.162
289.137
289.107
289.079
289.052
289.027
289.003
288.979
288.957
288.933
288.91
288.887
288.864
288.841
288.82
288.795
288.776
288.75
288.739
288.718
278.958
280.774
281.424
281.984
282.532
283.074
283.72
284.395
284.977
285.346
285.553
285.741
286.042
286.479
286.981
287.443
287.792
288.008
288.114
288.146
288.137
288.113
288.083
288.055
288.028
288.003
287.979
287.955
287.933
287.909
287.886
287.864
287.841
287.817
287.797
287.772
287.752
287.726
287.716
287.694
278.27
280.262
280.915
281.473
282.02
282.56
283.202
283.877
284.46
284.833
285.042
285.228
285.526
285.96
286.46
286.922
287.273
287.492
287.6
287.632
287.625
287.6
287.571
287.543
287.516
287.491
287.467
287.443
287.42
287.397
287.374
287.351
287.328
287.304
287.284
287.259
287.24
287.213
287.203
287.181
277.921
279.995
280.645
281.2
281.747
282.285
282.926
283.6
284.185
284.56
284.77
284.955
285.251
285.683
286.183
286.646
286.998
287.218
287.327
287.36
287.353
287.328
287.299
287.271
287.244
287.219
287.195
287.171
287.148
287.124
287.101
287.079
287.056
287.032
287.011
286.986
286.967
286.941
286.93
286.909
277.855
279.893
280.534
281.087
281.632
282.17
282.811
283.485
284.07
284.445
284.655
284.84
285.136
285.568
286.068
286.53
286.882
287.102
287.211
287.244
287.237
287.212
287.183
287.155
287.128
287.103
287.078
287.054
287.032
287.008
286.985
286.962
286.939
286.915
286.895
286.87
286.85
286.824
286.813
286.792
278.067
279.956
280.582
281.132
281.677
282.216
282.858
283.532
284.115
284.488
284.696
284.882
285.18
285.614
286.114
286.576
286.926
287.145
287.252
287.285
287.277
287.253
287.223
287.195
287.167
287.142
287.118
287.094
287.071
287.048
287.024
287.002
286.978
286.954
286.934
286.909
286.889
286.863
286.852
286.831
278.608
280.258
280.868
281.416
281.961
282.501
283.146
283.821
284.402
284.771
284.977
285.164
285.466
285.903
286.404
286.865
287.214
287.43
287.535
287.567
287.558
287.533
287.504
287.475
287.448
287.423
287.398
287.374
287.351