/*--------------------------------*- C++ -*----------------------------------*\
  =========                 |
  \\      /  F ield         | OpenFOAM: The Open Source CFD Toolbox
   \\    /   O peration     | Website:  https://openfoam.org
    \\  /    A nd           | Version:  7
     \\/     M anipulation  |
\*---------------------------------------------------------------------------*/
FoamFile
{
    version     2.0;
    format      ascii;
    class       volScalarField;
    location    "0.2925";
    object      nut;
}
// * * * * * * * * * * * * * * * * * * * * * * * * * * * * * * * * * * * * * //

dimensions      [0 2 -1 0 0 0 0];

internalField   nonuniform List<scalar> 
7920
(
0.00875494
0.0091232
0.00912468
0.00912494
0.00911414
0.0091114
0.00910449
0.00910467
0.0091013
0.00910291
0.00910132
0.00910389
0.00910377
0.00910624
0.00910619
0.00910769
0.00910797
0.00910703
0.00911355
0.00912541
0.00451549
0.00454321
0.00444861
0.00435427
0.00430665
0.00428711
0.00427003
0.00426374
0.00425432
0.00425298
0.00425103
0.00425275
0.00425244
0.00425433
0.00425405
0.0042554
0.00425498
0.00425555
0.00428331
0.00428813
0.0034508
0.00368601
0.00370911
0.00370497
0.0036933
0.00368756
0.00367925
0.00367671
0.00367173
0.00367105
0.00366916
0.00367031
0.00367063
0.00367318
0.00367409
0.00367639
0.00367673
0.0036779
0.00367922
0.00368587
0.00331955
0.00359099
0.00364247
0.00365966
0.003661
0.00366288
0.00366075
0.00366161
0.00366026
0.00366092
0.00365946
0.00366019
0.00366022
0.0036628
0.00366439
0.00366764
0.0036689
0.00367053
0.00367166
0.00367639
0.00330512
0.0035799
0.0036343
0.00365481
0.0036587
0.00366357
0.00366338
0.0036665
0.00366703
0.00366938
0.00366864
0.00366966
0.00366962
0.00367212
0.00367392
0.0036775
0.00367949
0.00368092
0.00368271
0.00368718
0.00330668
0.00357918
0.0036333
0.00365408
0.00365862
0.00366443
0.00366514
0.00366959
0.00367102
0.00367456
0.00367426
0.00367548
0.00367544
0.00367788
0.00367981
0.00368348
0.0036859
0.00368728
0.00368972
0.0036935
0.00330668
0.00357918
0.0036333
0.00365408
0.00365862
0.00366443
0.00366514
0.00366959
0.00367102
0.00367456
0.00367426
0.00367548
0.00367544
0.00367789
0.0036798
0.00368348
0.0036859
0.00368727
0.00368974
0.00369349
0.00330512
0.0035799
0.0036343
0.00365481
0.0036587
0.00366358
0.00366338
0.00366651
0.00366703
0.00366939
0.00366864
0.00366968
0.00366961
0.00367214
0.00367389
0.00367754
0.00367947
0.00368093
0.00368273
0.00368718
0.00331955
0.00359099
0.00364247
0.00365966
0.003661
0.00366288
0.00366075
0.00366162
0.00366026
0.00366093
0.00365945
0.00366022
0.0036602
0.00366284
0.00366434
0.00366772
0.0036688
0.00367063
0.00367164
0.00367641
0.0034508
0.00368601
0.00370911
0.00370497
0.0036933
0.00368756
0.00367925
0.00367671
0.00367172
0.00367105
0.00366915
0.00367035
0.00367059
0.00367325
0.00367401
0.00367653
0.00367656
0.00367817
0.00367898
0.0036861
0.00451549
0.00454321
0.00444861
0.00435427
0.00430665
0.00428711
0.00427003
0.00426374
0.00425432
0.00425298
0.00425102
0.00425277
0.0042524
0.00425439
0.00425394
0.00425557
0.00425471
0.00425588
0.00428247
0.00428891
0.00875494
0.0091232
0.00912468
0.00912494
0.00911414
0.0091114
0.00910449
0.00910467
0.00910129
0.00910292
0.0091013
0.00910393
0.00910371
0.00910635
0.00910602
0.00910796
0.00910754
0.00910767
0.00911245
0.00912742
0.0033629
0.00377562
0.00379144
0.00376544
0.00375716
0.00374246
0.00374179
0.00373437
0.00373574
0.00373173
0.00373391
0.00373159
0.0037336
0.00373188
0.00373334
0.00373181
0.00373304
0.0037311
0.00373103
0.0037429
0.00297787
0.00348612
0.00355674
0.00356339
0.00356163
0.00355904
0.003557
0.0035558
0.00355493
0.00355469
0.00355504
0.00355578
0.00355693
0.00355774
0.00355873
0.00355909
0.0035596
0.00355973
0.00356086
0.00356283
0.00289792
0.00341211
0.00348692
0.00349941
0.00349821
0.00349731
0.00349538
0.00349579
0.00349538
0.0034959
0.00349603
0.00349731
0.00349877
0.00350088
0.00350278
0.00350405
0.00350553
0.00350552
0.00350616
0.00351174
0.00289564
0.00341003
0.00348439
0.00349625
0.00349393
0.00349095
0.00348689
0.00348623
0.00348507
0.00348516
0.00348458
0.00348502
0.00348601
0.00348841
0.00349078
0.00349313
0.00349513
0.00349602
0.00349728
0.00350175
0.00289266
0.00340661
0.0034811
0.00349334
0.00349096
0.00348769
0.0034829
0.00348182
0.00348025
0.00348021
0.00347926
0.00347938
0.00347989
0.00348219
0.00348468
0.00348769
0.00348984
0.00349155
0.00349234
0.00349734
0.00289429
0.00340836
0.00348262
0.00349469
0.00349226
0.00348898
0.00348414
0.00348304
0.00348142
0.00348133
0.00348021
0.00348015
0.00348036
0.00348246
0.00348489
0.00348816
0.00349037
0.00349246
0.0034934
0.00349838
0.00289429
0.00340836
0.00348262
0.00349469
0.00349226
0.00348898
0.00348414
0.00348304
0.00348142
0.00348133
0.00348021
0.00348015
0.00348036
0.00348247
0.00348488
0.00348816
0.00349036
0.00349246
0.0034934
0.00349837
0.00289266
0.00340661
0.0034811
0.00349334
0.00349096
0.00348769
0.0034829
0.00348183
0.00348025
0.00348021
0.00347926
0.00347939
0.00347988
0.00348222
0.00348464
0.00348773
0.0034898
0.00349157
0.00349235
0.00349732
0.00289564
0.00341003
0.00348439
0.00349625
0.00349393
0.00349095
0.00348689
0.00348623
0.00348507
0.00348517
0.00348456
0.00348505
0.00348597
0.00348847
0.00349068
0.00349325
0.003495
0.00349612
0.00349724
0.00350175
0.00289792
0.00341211
0.00348692
0.00349941
0.00349821
0.00349731
0.00349537
0.00349579
0.00349537
0.00349592
0.00349602
0.00349735
0.00349869
0.003501
0.0035026
0.00350428
0.00350527
0.00350577
0.00350599
0.00351192
0.00297787
0.00348612
0.00355674
0.00356339
0.00356163
0.00355904
0.003557
0.0035558
0.00355492
0.0035547
0.00355502
0.0035558
0.00355687
0.00355782
0.00355859
0.0035593
0.00355934
0.00356005
0.00356039
0.0035635
0.0033629
0.00377562
0.00379145
0.00376544
0.00375716
0.00374246
0.00374179
0.00373437
0.00373573
0.00373173
0.0037339
0.0037316
0.00373358
0.00373191
0.0037333
0.00373189
0.00373292
0.00373134
0.00373069
0.0037436
0.000839594
0.00123696
0.00129439
0.00127822
0.00123624
0.00120372
0.0011833
0.00117462
0.00117107
0.00117074
0.00117171
0.00117323
0.00117508
0.00117727
0.00117853
0.00118238
0.00118145
0.00118841
0.00117976
0.0011957
0.000359542
0.000753532
0.000882189
0.00093048
0.000944162
0.000949437
0.000949417
0.000949022
0.000947365
0.00094731
0.000947339
0.000948338
0.00094911
0.000950717
0.000951424
0.000953005
0.000953725
0.000955371
0.000956462
0.00096014
0.000309944
0.00066854
0.000785746
0.000835747
0.000848845
0.000856836
0.000857453
0.00085928
0.000859125
0.000859967
0.000860015
0.000860797
0.00086111
0.000861841
0.00086228
0.000862513
0.000863132
0.000862969
0.000863596
0.000865587
0.000318786
0.00067251
0.000786841
0.000834755
0.000847801
0.000854856
0.000855104
0.000856101
0.000855722
0.000856065
0.00085596
0.000856386
0.000856691
0.000857327
0.000857774
0.000857988
0.000858398
0.000858332
0.000858656
0.000860628
0.000314668
0.000668156
0.000782067
0.000830226
0.000843071
0.000850219
0.000850349
0.00085121
0.000850685
0.000850925
0.000850654
0.000850976
0.000851172
0.000851822
0.000852228
0.000852587
0.000852909
0.000852985
0.000853075
0.000854896
0.000317065
0.000670589
0.000784492
0.000832321
0.000845235
0.000852309
0.000852522
0.000853452
0.00085299
0.000853209
0.000852956
0.000853235
0.000853426
0.000854048
0.000854471
0.000854831
0.000855174
0.000855235
0.000855406
0.000857211
0.000317065
0.000670589
0.000784492
0.000832321
0.000845235
0.000852309
0.000852522
0.000853452
0.00085299
0.00085321
0.000852956
0.000853235
0.000853425
0.000854049
0.000854469
0.000854834
0.000855174
0.000855236
0.000855407
0.000857211
0.000314668
0.000668156
0.000782067
0.000830226
0.000843071
0.000850219
0.000850349
0.00085121
0.000850685
0.000850925
0.000850654
0.000850978
0.000851171
0.000851825
0.000852218
0.000852594
0.000852908
0.000852986
0.000853082
0.000854897
0.000318786
0.00067251
0.000786841
0.000834755
0.000847801
0.000854856
0.000855104
0.000856101
0.000855721
0.000856066
0.000855959
0.000856391
0.000856681
0.00085734
0.000857756
0.000858
0.000858391
0.000858336
0.000858658
0.000860621
0.000309944
0.00066854
0.000785746
0.000835747
0.000848845
0.000856836
0.000857453
0.00085928
0.000859125
0.000859969
0.000860014
0.000860802
0.000861104
0.000861856
0.000862248
0.000862515
0.000863121
0.00086298
0.000863596
0.000865561
0.000359542
0.000753532
0.000882189
0.00093048
0.000944162
0.000949437
0.000949416
0.000949022
0.000947364
0.000947312
0.000947337
0.000948345
0.000949101
0.000950732
0.000951407
0.000953026
0.00095369
0.00095538
0.000956385
0.000960033
0.000839594
0.00123696
0.00129439
0.00127822
0.00123624
0.00120372
0.0011833
0.00117462
0.00117107
0.00117074
0.0011717
0.00117324
0.00117506
0.0011773
0.00117852
0.00118243
0.00118142
0.00118859
0.00117971
0.00119611
0.000839594
0.00123696
0.00129439
0.00127822
0.00123624
0.00120372
0.0011833
0.00117462
0.00117107
0.00117074
0.00117171
0.00117323
0.00117508
0.00117727
0.00117853
0.00118238
0.00118145
0.00118841
0.00117976
0.0011957
0.000359542
0.000753532
0.00088219
0.00093048
0.000944162
0.000949437
0.000949417
0.000949022
0.000947365
0.00094731
0.000947339
0.000948338
0.00094911
0.000950717
0.000951424
0.000953005
0.000953725
0.000955371
0.000956462
0.00096014
0.000309944
0.00066854
0.000785746
0.000835747
0.000848845
0.000856836
0.000857453
0.00085928
0.000859125
0.000859967
0.000860015
0.000860797
0.00086111
0.000861841
0.00086228
0.000862514
0.000863132
0.000862969
0.000863596
0.000865587
0.000318786
0.00067251
0.000786841
0.000834755
0.000847801
0.000854856
0.000855104
0.000856101
0.000855722
0.000856065
0.00085596
0.000856386
0.000856691
0.000857327
0.000857774
0.000857988
0.000858398
0.000858332
0.000858656
0.000860628
0.000314668
0.000668156
0.000782067
0.000830226
0.000843071
0.000850219
0.000850349
0.00085121
0.000850685
0.000850925
0.000850654
0.000850976
0.000851172
0.000851822
0.000852228
0.000852587
0.000852909
0.000852985
0.000853075
0.000854896
0.000317065
0.000670589
0.000784492
0.000832321
0.000845235
0.000852309
0.000852522
0.000853452
0.00085299
0.000853209
0.000852957
0.000853235
0.000853426
0.000854048
0.000854472
0.000854831
0.000855174
0.000855235
0.000855406
0.000857211
0.000317065
0.000670589
0.000784492
0.000832321
0.000845235
0.000852309
0.000852522
0.000853452
0.00085299
0.00085321
0.000852956
0.000853235
0.000853426
0.000854049
0.000854469
0.000854834
0.000855174
0.000855237
0.000855407
0.000857211
0.000314668
0.000668156
0.000782067
0.000830226
0.000843071
0.000850219
0.000850349
0.00085121
0.000850685
0.000850925
0.000850654
0.000850978
0.000851171
0.000851826
0.000852218
0.000852594
0.000852909
0.000852986
0.000853082
0.000854897
0.000318786
0.00067251
0.000786841
0.000834755
0.000847801
0.000854857
0.000855104
0.000856101
0.000855721
0.000856067
0.000855959
0.000856391
0.000856681
0.00085734
0.000857756
0.000858
0.000858391
0.000858336
0.000858658
0.000860621
0.000309944
0.00066854
0.000785746
0.000835747
0.000848845
0.000856836
0.000857453
0.00085928
0.000859125
0.000859969
0.000860014
0.000860802
0.000861104
0.000861856
0.000862249
0.000862515
0.000863121
0.00086298
0.000863596
0.000865561
0.000359542
0.000753532
0.000882189
0.00093048
0.000944162
0.000949437
0.000949416
0.000949022
0.000947364
0.000947312
0.000947337
0.000948346
0.000949101
0.000950732
0.000951407
0.000953026
0.000953691
0.00095538
0.000956385
0.000960033
0.000839594
0.00123696
0.00129439
0.00127822
0.00123624
0.00120372
0.0011833
0.00117462
0.00117107
0.00117074
0.00117171
0.00117325
0.00117506
0.0011773
0.00117852
0.00118243
0.00118142
0.00118859
0.00117971
0.00119611
0.0033629
0.00377562
0.00379145
0.00376544
0.00375716
0.00374246
0.00374179
0.00373437
0.00373574
0.00373173
0.0037339
0.00373159
0.0037336
0.00373188
0.00373334
0.00373181
0.00373304
0.0037311
0.00373103
0.0037429
0.00297787
0.00348612
0.00355674
0.00356339
0.00356163
0.00355904
0.003557
0.0035558
0.00355493
0.00355469
0.00355504
0.00355577
0.00355692
0.00355774
0.00355873
0.00355909
0.0035596
0.00355973
0.00356086
0.00356283
0.00289792
0.00341211
0.00348692
0.00349941
0.00349821
0.00349731
0.00349537
0.00349579
0.00349538
0.0034959
0.00349603
0.00349731
0.00349877
0.00350088
0.00350278
0.00350404
0.00350553
0.00350552
0.00350616
0.00351174
0.00289564
0.00341003
0.00348439
0.00349625
0.00349393
0.00349095
0.00348689
0.00348623
0.00348507
0.00348516
0.00348458
0.00348502
0.00348601
0.00348841
0.00349078
0.00349313
0.00349513
0.00349603
0.00349728
0.00350175
0.00289266
0.00340661
0.0034811
0.00349334
0.00349096
0.00348769
0.0034829
0.00348182
0.00348025
0.00348021
0.00347926
0.00347938
0.00347989
0.00348219
0.00348468
0.00348769
0.00348984
0.00349155
0.00349234
0.00349734
0.00289429
0.00340836
0.00348262
0.00349469
0.00349226
0.00348898
0.00348414
0.00348304
0.00348142
0.00348133
0.00348021
0.00348015
0.00348036
0.00348246
0.00348489
0.00348816
0.00349037
0.00349246
0.0034934
0.00349838
0.00289429
0.00340836
0.00348262
0.00349469
0.00349226
0.00348898
0.00348414
0.00348304
0.00348142
0.00348133
0.00348021
0.00348015
0.00348036
0.00348247
0.00348488
0.00348816
0.00349036
0.00349246
0.0034934
0.00349837
0.00289266
0.00340661
0.0034811
0.00349334
0.00349096
0.00348769
0.0034829
0.00348183
0.00348025
0.00348021
0.00347926
0.00347939
0.00347988
0.00348222
0.00348464
0.00348773
0.0034898
0.00349157
0.00349235
0.00349732
0.00289564
0.00341003
0.00348439
0.00349625
0.00349393
0.00349095
0.00348689
0.00348623
0.00348507
0.00348517
0.00348456
0.00348505
0.00348597
0.00348847
0.00349068
0.00349325
0.003495
0.00349612
0.00349724
0.00350176
0.00289792
0.00341211
0.00348692
0.00349941
0.00349821
0.00349731
0.00349537
0.00349579
0.00349537
0.00349592
0.00349602
0.00349735
0.00349869
0.003501
0.0035026
0.00350428
0.00350527
0.00350577
0.00350599
0.00351192
0.00297787
0.00348612
0.00355674
0.00356339
0.00356163
0.00355904
0.003557
0.0035558
0.00355492
0.0035547
0.00355503
0.0035558
0.00355688
0.00355783
0.00355859
0.0035593
0.00355934
0.00356006
0.00356039
0.0035635
0.0033629
0.00377562
0.00379144
0.00376544
0.00375716
0.00374246
0.00374179
0.00373437
0.00373573
0.00373173
0.0037339
0.0037316
0.00373358
0.00373191
0.0037333
0.00373189
0.00373292
0.00373134
0.00373069
0.0037436
0.00875494
0.0091232
0.00912468
0.00912494
0.00911414
0.0091114
0.00910449
0.00910466
0.00910129
0.00910291
0.00910132
0.00910389
0.00910377
0.00910624
0.00910619
0.00910769
0.00910797
0.00910703
0.00911355
0.00912541
0.00451549
0.00454321
0.00444861
0.00435427
0.00430665
0.00428711
0.00427003
0.00426374
0.00425432
0.00425298
0.00425103
0.00425275
0.00425244
0.00425433
0.00425405
0.00425539
0.00425498
0.00425554
0.00428331
0.00428812
0.0034508
0.00368601
0.00370911
0.00370497
0.0036933
0.00368756
0.00367925
0.00367671
0.00367173
0.00367105
0.00366916
0.00367031
0.00367062
0.00367318
0.00367409
0.00367639
0.00367673
0.0036779
0.00367922
0.00368586
0.00331955
0.00359099
0.00364247
0.00365966
0.003661
0.00366288
0.00366075
0.00366161
0.00366026
0.00366092
0.00365946
0.00366019
0.00366022
0.0036628
0.00366439
0.00366764
0.0036689
0.00367053
0.00367166
0.00367639
0.00330512
0.0035799
0.0036343
0.00365481
0.0036587
0.00366357
0.00366338
0.0036665
0.00366703
0.00366938
0.00366864
0.00366966
0.00366962
0.00367212
0.00367392
0.0036775
0.00367949
0.00368092
0.00368271
0.00368718
0.00330668
0.00357918
0.0036333
0.00365408
0.00365862
0.00366443
0.00366514
0.00366959
0.00367102
0.00367456
0.00367426
0.00367548
0.00367544
0.00367788
0.00367981
0.00368348
0.0036859
0.00368728
0.00368972
0.0036935
0.00330668
0.00357918
0.0036333
0.00365408
0.00365862
0.00366443
0.00366514
0.00366959
0.00367102
0.00367456
0.00367426
0.00367548
0.00367544
0.00367789
0.0036798
0.00368348
0.0036859
0.00368727
0.00368974
0.00369349
0.00330512
0.0035799
0.0036343
0.00365481
0.0036587
0.00366357
0.00366338
0.00366651
0.00366703
0.00366939
0.00366864
0.00366968
0.00366961
0.00367214
0.00367389
0.00367754
0.00367947
0.00368093
0.00368273
0.00368718
0.00331955
0.00359099
0.00364247
0.00365966
0.003661
0.00366288
0.00366075
0.00366162
0.00366026
0.00366093
0.00365945
0.00366022
0.0036602
0.00366285
0.00366434
0.00366772
0.0036688
0.00367064
0.00367164
0.00367641
0.0034508
0.00368601
0.00370911
0.00370497
0.0036933
0.00368756
0.00367925
0.00367671
0.00367173
0.00367106
0.00366915
0.00367035
0.00367059
0.00367325
0.00367401
0.00367653
0.00367656
0.00367817
0.00367898
0.0036861
0.00451549
0.00454321
0.00444861
0.00435427
0.00430665
0.00428711
0.00427003
0.00426374
0.00425432
0.00425298
0.00425102
0.00425278
0.0042524
0.00425439
0.00425395
0.00425557
0.00425472
0.00425588
0.00428248
0.00428892
0.00875494
0.0091232
0.00912468
0.00912494
0.00911414
0.0091114
0.00910449
0.00910467
0.00910129
0.00910292
0.0091013
0.00910393
0.00910371
0.00910635
0.00910602
0.00910796
0.00910754
0.00910767
0.00911245
0.00912742
0.0265284
0.0267084
0.0267659
0.0267885
0.0267912
0.0267947
0.0267933
0.0267951
0.0267939
0.0267953
0.0267943
0.0267953
0.0267945
0.0267953
0.0267945
0.0267952
0.0267946
0.0267951
0.0267946
0.026795
0.0267945
0.0267949
0.0267944
0.0267948
0.0267945
0.0267948
0.0267945
0.0267948
0.0267945
0.0267948
0.0267945
0.0267949
0.0267947
0.0267949
0.0267947
0.0267949
0.0267946
0.0267948
0.0267946
0.0267948
0.0267945
0.0267947
0.0267944
0.0267944
0.0267941
0.0267943
0.0267941
0.0267943
0.0267943
0.0267947
0.0267948
0.0267953
0.0267958
0.0267965
0.0267973
0.0267983
0.0267994
0.0268005
0.0268017
0.0268028
0.0268038
0.0268048
0.0268057
0.0268065
0.0268073
0.0268082
0.026809
0.0268098
0.0268106
0.0268115
0.0268123
0.0268132
0.0268142
0.0268151
0.0268161
0.026817
0.0268179
0.0268186
0.0268193
0.02682
0.0268205
0.0268212
0.0268218
0.0268226
0.0268236
0.0268245
0.0268258
0.0268264
0.0268189
0.0268323
0.0152012
0.0154843
0.015511
0.0155247
0.0155224
0.0155267
0.0155235
0.0155267
0.0155241
0.0155268
0.0155246
0.015527
0.0155251
0.0155273
0.0155257
0.0155277
0.0155264
0.0155282
0.0155271
0.0155289
0.0155279
0.0155296
0.0155288
0.0155305
0.0155298
0.0155314
0.0155309
0.0155324
0.0155319
0.0155334
0.015533
0.0155345
0.0155342
0.0155355
0.0155352
0.0155365
0.0155362
0.0155373
0.015537
0.015538
0.0155376
0.0155384
0.0155377
0.0155382
0.0155373
0.0155375
0.0155363
0.015536
0.0155345
0.0155338
0.0155318
0.0155308
0.0155285
0.0155272
0.0155247
0.0155232
0.0155207
0.015519
0.0155166
0.0155149
0.0155126
0.015511
0.0155089
0.0155075
0.0155057
0.0155044
0.0155029
0.0155019
0.0155007
0.0154999
0.0154989
0.0154983
0.0154975
0.015497
0.0154964
0.0154961
0.0154957
0.0154955
0.0154952
0.0154952
0.0154951
0.0154952
0.0154953
0.0154956
0.015496
0.0154965
0.0154972
0.0154977
0.0154899
0.0154857
0.0122118
0.0126263
0.0126504
0.0126669
0.0126632
0.0126707
0.0126665
0.0126727
0.0126692
0.0126748
0.0126721
0.0126773
0.0126752
0.0126802
0.0126786
0.0126833
0.0126823
0.0126868
0.0126861
0.0126906
0.0126902
0.0126945
0.0126944
0.0126988
0.012699
0.0127033
0.0127036
0.0127078
0.0127083
0.0127125
0.0127132
0.0127174
0.0127182
0.0127223
0.0127231
0.012727
0.0127279
0.0127317
0.0127326
0.0127361
0.0127368
0.01274
0.0127403
0.012743
0.0127429
0.012745
0.0127444
0.0127457
0.0127444
0.0127449
0.0127428
0.0127424
0.0127396
0.0127385
0.0127352
0.0127335
0.0127299
0.0127278
0.012724
0.0127216
0.0127179
0.0127155
0.0127121
0.01271
0.0127069
0.012705
0.0127023
0.0127006
0.0126981
0.0126966
0.0126943
0.012693
0.012691
0.0126899
0.0126882
0.0126872
0.0126859
0.012685
0.0126839
0.0126833
0.0126826
0.0126824
0.0126821
0.0126822
0.0126822
0.0126825
0.0126828
0.012683
0.0126817
0.0126745
0.0117519
0.0122634
0.0123016
0.0123256
0.0123236
0.0123339
0.0123301
0.0123384
0.0123354
0.0123432
0.0123411
0.0123485
0.0123472
0.0123543
0.0123537
0.0123606
0.0123605
0.0123674
0.0123678
0.0123746
0.0123753
0.0123821
0.0123831
0.0123899
0.0123914
0.0123981
0.0123997
0.0124064
0.0124083
0.012415
0.0124171
0.0124237
0.0124259
0.0124324
0.0124347
0.012441
0.0124433
0.0124494
0.0124517
0.0124575
0.0124595
0.0124647
0.0124662
0.0124707
0.0124716
0.0124752
0.0124753
0.0124779
0.0124769
0.0124781
0.0124759
0.0124759
0.0124726
0.0124714
0.0124672
0.0124651
0.0124604
0.0124575
0.0124524
0.0124491
0.0124441
0.0124409
0.0124363
0.0124333
0.0124294
0.0124267
0.0124232
0.0124208
0.0124175
0.0124153
0.0124123
0.0124104
0.0124078
0.0124061
0.0124038
0.0124022
0.0124003
0.0123988
0.0123974
0.0123963
0.0123953
0.0123949
0.0123944
0.0123944
0.0123943
0.0123945
0.0123947
0.0123945
0.0123956
0.012391
0.0117073
0.0122654
0.0123169
0.0123484
0.012348
0.0123604
0.0123571
0.012367
0.0123645
0.0123738
0.0123723
0.0123813
0.0123807
0.0123894
0.0123895
0.0123981
0.0123988
0.0124073
0.0124085
0.012417
0.0124186
0.012427
0.0124291
0.0124375
0.0124399
0.0124484
0.012451
0.0124594
0.0124623
0.0124706
0.0124738
0.0124821
0.0124854
0.0124935
0.0124968
0.0125047
0.012508
0.0125157
0.0125189
0.0125263
0.0125291
0.0125358
0.012538
0.0125437
0.0125452
0.0125499
0.0125504
0.0125538
0.0125529
0.0125546
0.0125523
0.0125524
0.0125486
0.0125473
0.0125425
0.0125399
0.0125343
0.0125308
0.0125247
0.0125205
0.0125145
0.0125104
0.0125048
0.012501
0.0124962
0.0124928
0.0124884
0.0124853
0.0124812
0.0124784
0.0124746
0.0124721
0.0124687
0.0124664
0.0124634
0.0124612
0.0124587
0.0124567
0.0124547
0.0124532
0.0124519
0.0124511
0.0124504
0.0124502
0.01245
0.01245
0.0124502
0.0124499
0.0124508
0.0124477
0.0117171
0.0123023
0.0123607
0.0123947
0.0123948
0.0124081
0.012405
0.0124155
0.0124134
0.0124233
0.0124222
0.0124319
0.0124317
0.0124411
0.0124417
0.012451
0.0124522
0.0124616
0.0124632
0.0124725
0.0124746
0.0124839
0.0124865
0.0124958
0.0124987
0.012508
0.0125112
0.0125204
0.0125238
0.0125331
0.0125368
0.012546
0.0125498
0.0125588
0.0125626
0.0125714
0.0125752
0.0125837
0.0125875
0.0125955
0.0125989
0.0126062
0.0126089
0.0126152
0.0126171
0.0126223
0.012623
0.0126268
0.0126261
0.0126281
0.0126257
0.0126259
0.012622
0.0126206
0.0126156
0.0126128
0.0126069
0.012603
0.0125965
0.012592
0.0125855
0.012581
0.0125751
0.0125709
0.0125657
0.012562
0.0125573
0.0125538
0.0125494
0.0125463
0.0125422
0.0125393
0.0125357
0.0125331
0.0125298
0.0125274
0.0125246
0.0125223
0.0125202
0.0125184
0.0125171
0.0125161
0.0125154
0.0125151
0.0125148
0.0125148
0.0125149
0.0125145
0.0125156
0.0125124
0.0117176
0.0123006
0.0123557
0.0123874
0.0123865
0.0123994
0.0123963
0.0124068
0.0124046
0.0124146
0.0124135
0.0124231
0.0124229
0.0124324
0.012433
0.0124423
0.0124435
0.0124529
0.0124546
0.0124639
0.012466
0.0124753
0.0124779
0.0124872
0.0124902
0.0124995
0.0125027
0.0125119
0.0125154
0.0125246
0.0125283
0.0125375
0.0125414
0.0125504
0.0125543
0.012563
0.0125669
0.0125754
0.0125792
0.0125873
0.0125907
0.012598
0.0126007
0.0126071
0.0126089
0.0126142
0.0126149
0.0126187
0.012618
0.0126201
0.0126177
0.0126179
0.0126141
0.0126127
0.0126076
0.0126049
0.012599
0.0125952
0.0125886
0.0125842
0.0125777
0.0125732
0.0125673
0.0125632
0.012558
0.0125543
0.0125496
0.0125462
0.0125418
0.0125387
0.0125346
0.0125318
0.0125281
0.0125256
0.0125223
0.0125199
0.0125172
0.0125149
0.0125128
0.012511
0.0125097
0.0125087
0.012508
0.0125078
0.0125075
0.0125075
0.0125076
0.0125073
0.0125084
0.0125053
0.0117086
0.0122584
0.0122997
0.0123244
0.0123213
0.0123328
0.0123292
0.0123391
0.0123366
0.0123459
0.0123445
0.0123535
0.0123529
0.0123616
0.0123617
0.0123704
0.0123711
0.0123797
0.0123809
0.0123895
0.0123911
0.0123996
0.0124017
0.0124102
0.0124126
0.0124211
0.0124238
0.0124322
0.0124352
0.0124436
0.0124468
0.0124552
0.0124585
0.0124667
0.01247
0.012478
0.0124814
0.0124891
0.0124924
0.0124998
0.0125027
0.0125094
0.0125117
0.0125175
0.012519
0.0125238
0.0125243
0.0125277
0.0125269
0.0125288
0.0125265
0.0125266
0.0125229
0.0125217
0.0125169
0.0125144
0.0125088
0.0125054
0.0124993
0.0124953
0.0124893
0.0124852
0.0124797
0.012476
0.0124712
0.0124678
0.0124635
0.0124605
0.0124564
0.0124537
0.0124499
0.0124474
0.0124441
0.0124419
0.0124389
0.0124368
0.0124343
0.0124324
0.0124305
0.012429
0.0124278
0.012427
0.0124264
0.0124263
0.0124261
0.0124262
0.0124263
0.0124262
0.012427
0.0124242
0.0117515
0.0122441
0.0122644
0.0122783
0.0122728
0.012282
0.012278
0.0122862
0.0122833
0.012291
0.012289
0.0122964
0.0122952
0.0123023
0.0123017
0.0123087
0.0123087
0.0123156
0.012316
0.0123229
0.0123237
0.0123305
0.0123317
0.0123385
0.01234
0.0123468
0.0123485
0.0123553
0.0123572
0.012364
0.0123661
0.0123728
0.0123752
0.0123817
0.0123841
0.0123905
0.0123928
0.012399
0.0124014
0.0124073
0.0124093
0.0124146
0.0124162
0.0124208
0.0124217
0.0124255
0.0124256
0.0124283
0.0124273
0.0124287
0.0124265
0.0124266
0.0124233
0.0124222
0.0124182
0.0124161
0.0124114
0.0124087
0.0124036
0.0124004
0.0123955
0.0123923
0.0123878
0.0123849
0.0123809
0.0123784
0.0123749
0.0123726
0.0123693
0.0123672
0.0123642
0.0123624
0.0123598
0.0123582
0.0123559
0.0123544
0.0123525
0.0123511
0.0123497
0.0123487
0.0123478
0.0123473
0.012347
0.012347
0.012347
0.0123472
0.0123474
0.0123473
0.0123485
0.0123445
0.0122019
0.0125799
0.0125788
0.0125838
0.012577
0.0125836
0.0125792
0.0125853
0.0125819
0.0125874
0.0125848
0.0125899
0.0125879
0.0125928
0.0125913
0.0125961
0.012595
0.0125996
0.012599
0.0126035
0.0126031
0.0126075
0.0126075
0.0126119
0.0126121
0.0126165
0.0126169
0.0126212
0.0126217
0.012626
0.0126268
0.012631
0.0126319
0.012636
0.0126369
0.0126409
0.0126418
0.0126457
0.0126466
0.0126503
0.012651
0.0126542
0.0126546
0.0126574
0.0126574
0.0126595
0.012659
0.0126604
0.0126591
0.0126597
0.0126576
0.0126573
0.0126545
0.0126535
0.0126502
0.0126486
0.012645
0.0126429
0.0126391
0.0126368
0.0126331
0.0126307
0.0126273
0.0126252
0.0126221
0.0126202
0.0126175
0.0126157
0.0126132
0.0126117
0.0126094
0.012608
0.012606
0.0126049
0.0126032
0.0126021
0.0126007
0.0125997
0.0125986
0.0125979
0.0125972
0.0125969
0.0125965
0.0125966
0.0125965
0.0125967
0.012597
0.0125972
0.0125959
0.0125899
0.0151657
0.0153843
0.015377
0.015378
0.0153726
0.015376
0.0153727
0.0153757
0.015373
0.0153757
0.0153735
0.0153758
0.0153739
0.0153761
0.0153745
0.0153765
0.0153752
0.0153771
0.015376
0.0153777
0.0153768
0.0153785
0.0153778
0.0153794
0.0153788
0.0153804
0.0153799
0.0153814
0.015381
0.0153825
0.0153822
0.0153836
0.0153833
0.0153847
0.0153844
0.0153857
0.0153854
0.0153866
0.0153863
0.0153873
0.0153869
0.0153877
0.015387
0.0153875
0.0153866
0.0153867
0.0153855
0.0153852
0.0153836
0.0153829
0.0153808
0.0153797
0.0153773
0.0153758
0.0153733
0.0153716
0.0153689
0.0153671
0.0153644
0.0153625
0.01536
0.0153581
0.0153558
0.0153541
0.015352
0.0153505
0.0153487
0.0153474
0.0153458
0.0153446
0.0153433
0.0153423
0.0153411
0.0153403
0.0153393
0.0153386
0.0153378
0.0153372
0.0153365
0.0153361
0.0153356
0.0153353
0.015335
0.0153349
0.0153349
0.0153349
0.0153351
0.0153354
0.0153272
0.0153268
0.0264435
0.0265045
0.0265029
0.026504
0.0265018
0.0265035
0.0265021
0.0265034
0.0265022
0.0265032
0.0265023
0.0265031
0.0265023
0.0265029
0.0265022
0.0265027
0.0265021
0.0265026
0.0265021
0.0265025
0.026502
0.0265024
0.026502
0.0265023
0.026502
0.0265024
0.0265021
0.0265024
0.0265021
0.0265024
0.0265021
0.0265024
0.0265022
0.0265025
0.0265023
0.0265024
0.0265022
0.0265023
0.0265021
0.0265022
0.0265019
0.026502
0.0265016
0.0265015
0.026501
0.026501
0.0265005
0.0265005
0.0265001
0.0265001
0.0264998
0.0264998
0.0264996
0.0264998
0.0264998
0.0265001
0.0265004
0.0265007
0.0265009
0.0265011
0.0265013
0.0265013
0.0265013
0.0265012
0.0265011
0.0265011
0.026501
0.026501
0.0265009
0.0265009
0.0265009
0.026501
0.026501
0.0265012
0.0265013
0.0265014
0.0265014
0.0265014
0.0265012
0.0265011
0.0265008
0.0265007
0.0265005
0.0265006
0.0265007
0.0265009
0.0265012
0.0265013
0.0264927
0.0265184
0.0121483
0.0122953
0.0123174
0.0123233
0.0123238
0.0123243
0.0123231
0.0123236
0.0123222
0.0123229
0.0123215
0.0123222
0.0123208
0.0123215
0.0123202
0.012321
0.0123198
0.0123206
0.0123194
0.0123202
0.0123191
0.0123199
0.0123189
0.0123197
0.0123189
0.0123197
0.0123189
0.0123196
0.0123189
0.0123196
0.012319
0.0123197
0.0123191
0.0123197
0.012319
0.0123195
0.0123188
0.0123192
0.0123185
0.0123187
0.0123178
0.0123178
0.0123166
0.0123162
0.0123147
0.0123141
0.0123123
0.0123113
0.0123092
0.0123078
0.0123055
0.0123038
0.0123014
0.0122996
0.0122972
0.0122955
0.0122934
0.0122918
0.01229
0.0122886
0.012287
0.0122858
0.0122844
0.0122835
0.0122825
0.0122819
0.0122812
0.0122809
0.0122804
0.0122803
0.01228
0.01228
0.0122799
0.0122801
0.0122802
0.0122804
0.0122806
0.0122809
0.0122811
0.0122814
0.0122815
0.0122819
0.0122821
0.0122826
0.0122829
0.0122834
0.0122838
0.0122841
0.0122822
0.0122021
0.0116852
0.0119823
0.0120116
0.0120214
0.0120233
0.0120257
0.0120257
0.0120275
0.0120274
0.0120291
0.012029
0.0120307
0.0120306
0.0120322
0.0120321
0.0120337
0.0120337
0.0120353
0.0120353
0.0120369
0.012037
0.0120386
0.0120387
0.0120402
0.0120404
0.012042
0.0120423
0.0120438
0.0120441
0.0120456
0.012046
0.0120476
0.0120481
0.0120496
0.0120502
0.0120517
0.0120523
0.0120539
0.0120546
0.0120563
0.0120571
0.0120589
0.0120598
0.0120615
0.0120625
0.0120643
0.0120654
0.0120672
0.0120684
0.0120702
0.0120713
0.0120729
0.0120739
0.0120753
0.0120761
0.0120773
0.0120778
0.0120788
0.012079
0.0120796
0.0120795
0.0120798
0.0120796
0.0120797
0.0120794
0.0120796
0.0120793
0.0120794
0.0120792
0.0120794
0.0120791
0.0120793
0.0120792
0.0120794
0.0120793
0.0120795
0.0120795
0.0120797
0.0120796
0.0120798
0.0120798
0.01208
0.0120801
0.0120806
0.0120809
0.0120813
0.012082
0.0120822
0.0120839
0.0120915
0.0112084
0.0116274
0.0116722
0.0116866
0.0116911
0.011694
0.011695
0.0116969
0.0116977
0.0116995
0.0117003
0.0117021
0.0117029
0.0117046
0.0117054
0.0117072
0.011708
0.0117097
0.0117106
0.0117124
0.0117132
0.011715
0.0117159
0.0117176
0.0117186
0.0117204
0.0117214
0.0117232
0.0117243
0.011726
0.0117272
0.011729
0.0117302
0.011732
0.0117333
0.0117352
0.0117365
0.0117384
0.0117398
0.0117418
0.0117434
0.0117455
0.0117472
0.0117494
0.0117513
0.0117536
0.0117556
0.0117581
0.0117602
0.0117628
0.011765
0.0117676
0.0117698
0.0117724
0.0117746
0.011777
0.0117792
0.0117815
0.0117835
0.0117855
0.0117873
0.0117891
0.0117907
0.0117924
0.0117939
0.0117956
0.0117971
0.0117988
0.0118002
0.0118018
0.0118031
0.0118046
0.0118059
0.0118073
0.0118086
0.0118099
0.0118111
0.0118123
0.0118132
0.0118143