/*--------------------------------*- C++ -*----------------------------------*\
  =========                 |
  \\      /  F ield         | OpenFOAM: The Open Source CFD Toolbox
   \\    /   O peration     | Website:  https://openfoam.org
    \\  /    A nd           | Version:  7
     \\/     M anipulation  |
\*---------------------------------------------------------------------------*/
FoamFile
{
    version     2.0;
    format      ascii;
    class       surfaceScalarField;
    location    "0.66";
    object      phi;
}
// * * * * * * * * * * * * * * * * * * * * * * * * * * * * * * * * * * * * * //

dimensions      [1 0 -1 0 0 0 0];

internalField   nonuniform List<scalar> 
11256
(
0.00285181
0.00400524
0.00169134
0.00114757
0.00142977
0.000253581
0.00128471
0.000135298
0.00118795
8.32811e-05
0.00113107
4.14068e-05
0.00109183
2.36509e-05
0.00105444
2.25963e-05
0.00101709
2.35194e-05
0.000982776
2.1314e-05
0.000952477
1.79661e-05
0.000925302
1.54076e-05
0.000900269
1.38204e-05
0.000876856
1.28114e-05
0.000854787
1.21658e-05
0.000833837
1.18323e-05
0.000813814
1.17608e-05
0.000794583
1.18647e-05
0.000776064
1.20596e-05
0.000758202
1.23019e-05
0.000740925
1.25922e-05
0.000724142
1.29422e-05
0.000707763
1.33343e-05
0.000691744
1.37045e-05
0.000676111
1.39681e-05
0.000660934
1.40727e-05
0.000646257
1.40401e-05
0.000632042
1.39549e-05
0.000618163
1.39056e-05
0.000604458
1.39318e-05
0.000590787
1.40229e-05
0.000577071
1.41282e-05
0.000563308
1.41879e-05
0.000549545
1.41751e-05
0.000535847
1.40915e-05
0.000522281
1.3955e-05
0.000508906
1.37859e-05
0.000495771
1.35965e-05
0.000482921
1.33893e-05
0.00047039
1.31692e-05
0.000458191
1.29446e-05
0.000446322
1.27236e-05
0.000434748
1.25306e-05
0.00042341
1.23902e-05
0.00041223
1.23181e-05
0.000401132
1.23187e-05
0.000390048
1.23838e-05
0.00037893
1.24954e-05
0.000367751
1.26352e-05
0.000356503
1.27851e-05
0.000345188
1.29328e-05
0.000333817
1.3073e-05
0.0003224
1.32026e-05
0.000310948
1.33218e-05
0.000299466
1.34347e-05
0.000287958
1.35454e-05
0.000276421
1.36575e-05
0.000264855
1.37693e-05
0.000253255
1.38836e-05
0.000241622
1.4e-05
0.000229953
1.41156e-05
0.000218248
1.4232e-05
0.000206505
1.43495e-05
0.000194725
1.44659e-05
0.000182908
1.458e-05
0.000171056
1.46931e-05
0.000159169
1.48052e-05
0.000147248
1.49165e-05
0.000135293
1.50253e-05
0.000123308
1.51313e-05
0.000111292
1.52362e-05
9.92479e-05
1.53404e-05
8.71751e-05
1.5443e-05
7.50758e-05
1.55428e-05
6.2951e-05
1.56413e-05
5.08028e-05
1.57379e-05
3.86319e-05
1.58325e-05
2.64399e-05
1.59258e-05
1.42289e-05
1.6017e-05
2.00037e-06
1.61059e-05
-1.02447e-05
1.61934e-05
-2.25048e-05
1.62794e-05
-3.47781e-05
1.63631e-05
-4.70627e-05
1.64448e-05
-5.93574e-05
1.65248e-05
-7.16606e-05
1.66031e-05
-8.39703e-05
1.6679e-05
-9.62843e-05
1.67526e-05
-0.000108602
1.6825e-05
-0.00012092
1.68954e-05
-0.000133238
1.69624e-05
-0.000145553
1.70283e-05
-0.000157865
1.70939e-05
-0.000170171
1.71563e-05
-0.000182468
1.72151e-05
-0.000194755
1.72727e-05
-0.000207031
1.73292e-05
-0.000219294
1.73832e-05
-0.000231541
1.74348e-05
-0.00024377
1.74845e-05
-0.00025598
1.75327e-05
-0.00026817
1.75792e-05
-0.000280336
1.76228e-05
-0.000292477
1.7664e-05
-0.00030459
1.77039e-05
-0.000316675
1.77416e-05
-0.000328729
1.77775e-05
-0.00034075
1.78116e-05
-0.000352736
1.78433e-05
-0.000364686
1.78729e-05
-0.000376596
1.7901e-05
-0.000388467
1.79275e-05
-0.000400295
1.79518e-05
-0.000412079
1.7974e-05
-0.000423816
1.79945e-05
-0.000435506
1.80133e-05
-0.000447145
1.80301e-05
-0.000458733
1.80456e-05
-0.000470268
1.80595e-05
-0.000481747
1.80708e-05
-0.000493169
1.80802e-05
-0.000504531
1.80886e-05
-0.000515834
1.80956e-05
-0.000527073
1.81011e-05
-0.000538249
1.8105e-05
-0.000549359
1.81069e-05
-0.000560401
1.8107e-05
-0.000571374
1.81065e-05
-0.000582276
1.8105e-05
-0.000593107
1.81015e-05
-0.000603863
1.80963e-05
-0.000614544
1.80898e-05
-0.000625146
1.80817e-05
-0.000635671
1.80733e-05
-0.000646117
1.80649e-05
-0.000656481
1.80547e-05
-0.000666763
1.80424e-05
-0.00067696
1.80291e-05
-0.000687072
1.80154e-05
-0.000697098
1.8001e-05
-0.000707036
1.79859e-05
-0.000716885
1.79697e-05
-0.000726643
1.79528e-05
-0.000736311
1.79351e-05
-0.000745885
1.79164e-05
-0.000755366
1.78977e-05
-0.000764753
1.78788e-05
-0.000774044
1.78584e-05
-0.000783239
1.78378e-05
-0.000792336
1.7818e-05
-0.000801336
1.77974e-05
-0.000810236
1.77752e-05
-0.000819035
1.77534e-05
-0.000827735
1.77325e-05
-0.000836333
1.77112e-05
-0.000844829
1.76889e-05
-0.000853222
1.76667e-05
-0.000861511
1.76448e-05
-0.000869696
1.76232e-05
-0.000877778
1.76022e-05
-0.000885754
1.75811e-05
-0.000893625
1.75596e-05
-0.000901389
1.75381e-05
-0.000909047
1.75177e-05
-0.000916599
1.74982e-05
-0.000924044
1.74786e-05
-0.000931381
1.7459e-05
-0.000938611
1.74402e-05
-0.000945732
1.7422e-05
-0.000952746
1.74043e-05
-0.000959651
1.73876e-05
-0.000966449
1.73719e-05
-0.000973137
1.73563e-05
-0.000979717
1.73407e-05
-0.000986188
1.73268e-05
-0.00099255
1.73144e-05
-0.000998805
1.73023e-05
-0.00100495
1.72906e-05
-0.00101099
1.72803e-05
-0.00101691
1.72709e-05
-0.00102273
1.72622e-05
-0.00102845
1.72547e-05
-0.00103405
1.72488e-05
-0.00103954
1.72436e-05
-0.00104493
1.72395e-05
-0.00105021
1.72366e-05
-0.00105538
1.72346e-05
-0.00106045
1.72338e-05
-0.00106541
1.72344e-05
-0.00107026
1.72362e-05
-0.001075
1.72391e-05
-0.00107964
1.7243e-05
-0.00108417
1.72486e-05
-0.0010886
1.72556e-05
-0.00109292
1.72634e-05
-0.00109714
1.72729e-05
-0.00110126
1.72837e-05
-0.00110526
1.72954e-05
-0.00110917
1.73086e-05
-0.00111297
1.73235e-05
-0.00111667
1.73395e-05
-0.00112027
1.73563e-05
-0.00112376
1.73749e-05
-0.00112715
1.73955e-05
-0.00113044
1.74167e-05
-0.00113363
1.74384e-05
-0.00113672
1.74623e-05
-0.00113971
1.74879e-05
-0.0011426
1.75147e-05
-0.00114539
1.75425e-05
-0.00114808
1.75715e-05
-0.00115067
1.76016e-05
-0.00115316
1.76335e-05
-0.00115556
1.76664e-05
-0.00115785
1.7701e-05
-0.00116005
1.77359e-05
-0.00116215
1.7773e-05
-0.00116416
1.78104e-05
-0.00116607
1.78506e-05
-0.00116788
1.78895e-05
-0.0011696
1.7932e-05
-0.00117122
1.79734e-05
-0.00117275
1.80194e-05
-0.00117418
1.80615e-05
-0.00117553
1.81122e-05
-0.00117676
1.81505e-05
-0.00117793
1.82157e-05
-0.00117897
1.82395e-05
-0.00117996
1.83194e-05
-0.00118083
1.83657e-05
-0.00118159
1.83618e-05
-0.00118236
1.85876e-05
-0.00118289
1.83417e-05
-0.00118341
1.87992e-05
-0.00118409
1.84385e-05
-0.001184
1.9165e-05
-0.00118475
1.78736e-05
-0.00118567
2.21155e-05
-0.00121432
3.50664e-05
5.24442e-05
0.0054706
0.00539129
0.00431484
0.00228843
0.00382438
0.000734822
0.00348141
0.000469475
0.0032369
0.000316083
0.00308131
0.000182519
0.00297423
0.000114907
0.00288243
9.83601e-05
0.00279601
9.42731e-05
0.0027169
8.53216e-05
0.00264668
7.36381e-05
0.00258425
6.38505e-05
0.0025277
5.69428e-05
0.00247561
5.20548e-05
0.0024271
4.84574e-05
0.00238154
4.5828e-05
0.00233848
4.394e-05
0.00229761
4.25378e-05
0.00225871
4.14129e-05
0.0022216
4.04893e-05
0.00218608
3.98004e-05
0.00215192
3.93819e-05
0.00211894
3.91693e-05
0.00208709
3.89719e-05
0.00205644
3.85655e-05
0.00202707
3.78513e-05
0.001999
3.69379e-05
0.00197208
3.60698e-05
0.00194601
3.54581e-05
0.0019205
3.51492e-05
0.00189533
3.50346e-05
0.00187041
3.49136e-05
0.00184579
3.46022e-05
0.00182159
3.40191e-05
0.0017979
3.3188e-05
0.00177482
3.22016e-05
0.00175237
3.11518e-05
0.00173057
3.01051e-05
0.0017094
2.90981e-05
0.00168885
2.81446e-05
0.0016689
2.72471e-05
0.00164952
2.64102e-05
0.00163065
2.5672e-05
0.0016122
2.50762e-05
0.00159408
2.46551e-05
0.00157614
2.44166e-05
0.00155831
2.43419e-05
0.00154048
2.43918e-05
0.00152261
2.45212e-05
0.00150467
2.46874e-05
0.00148665
2.48583e-05
0.00146857
2.50167e-05
0.00145044
2.51524e-05
0.00143227
2.52648e-05
0.00141407
2.53626e-05
0.00139585
2.54548e-05
0.0013776
2.55482e-05
0.00135934
2.56438e-05
0.00134104
2.57446e-05
0.00132272
2.58505e-05
0.00130436
2.5958e-05
0.00128597
2.60683e-05
0.00126755
2.61817e-05
0.0012491
2.62951e-05
0.0012306
2.64055e-05
0.00121208
2.65142e-05
0.00119352
2.66217e-05
0.00117494
2.67281e-05
0.00115632
2.68314e-05
0.00113767
2.69305e-05
0.00111899
2.70276e-05
0.00110029
2.71243e-05
0.00108156
2.72183e-05
0.00106281
2.73082e-05
0.00104404
2.73957e-05
0.00102524
2.74814e-05
0.00100643
2.75644e-05
0.000987598
2.76452e-05
0.000968752
2.77229e-05
0.000949892
2.77976e-05
0.000931019
2.78708e-05
0.000912135
2.79422e-05
0.000893242
2.80102e-05
0.000874342
2.80756e-05
0.000855435
2.81392e-05
0.000836525
2.82008e-05
0.000817612
2.82588e-05
0.0007987
2.8314e-05
0.000779788
2.83683e-05
0.00076088
2.84195e-05
0.000741978
2.84662e-05
0.000723082
2.85132e-05
0.000704193
2.85606e-05
0.000685316
2.86027e-05
0.000666452
2.86395e-05
0.000647602
2.86759e-05
0.000628769
2.87119e-05
0.000609954
2.87445e-05
0.000591159
2.8774e-05
0.000572386
2.88021e-05
0.000553637
2.88293e-05
0.000534913
2.88537e-05
0.000516217
2.88748e-05
0.000497551
2.8894e-05
0.000478917
2.89117e-05
0.000460316
2.89271e-05
0.000441751
2.89408e-05
0.000423222
2.89526e-05
0.000404734
2.89614e-05
0.000386287
2.89681e-05
0.000367883
2.8974e-05
0.000349524
2.89783e-05
0.000331213
2.89803e-05
0.00031295
2.89799e-05
0.000294739
2.89778e-05
0.000276581
2.89742e-05
0.000258478
2.89691e-05
0.000240431
2.89629e-05
0.000222443
2.89549e-05
0.000204516
2.89435e-05
0.000186652
2.89304e-05
0.000168853
2.89171e-05
0.00015112
2.89028e-05
0.000133456
2.88874e-05
0.000115861
2.887e-05
9.834e-05
2.885e-05
8.08932e-05
2.88285e-05
6.35223e-05
2.88075e-05
4.62286e-05
2.87858e-05
2.90151e-05
2.87615e-05
1.18842e-05
2.87349e-05
-5.16183e-06
2.87067e-05
-2.21217e-05
2.86777e-05
-3.89949e-05
2.865e-05
-5.578e-05
2.86228e-05
-7.24741e-05
2.85928e-05
-8.90742e-05
2.85598e-05
-0.000105579
2.85259e-05
-0.000121986
2.84925e-05
-0.000138295
2.84589e-05
-0.000154505
2.84246e-05
-0.000170612
2.83892e-05
-0.000186615
2.8353e-05
-0.000202512
2.83157e-05
-0.0002183
2.82776e-05
-0.00023398
2.82401e-05
-0.000249548
2.82022e-05
-0.000265004
2.81623e-05
-0.000280344
2.8123e-05
-0.00029557
2.80855e-05
-0.000310677
2.80458e-05
-0.000325663
2.80037e-05
-0.000340528
2.79632e-05
-0.000355271
2.79246e-05
-0.000369889
2.7885e-05
-0.000384381
2.78433e-05
-0.000398744
2.78018e-05
-0.000412977
2.77611e-05
-0.00042708
2.77213e-05
-0.000441051
2.76822e-05
-0.000454888
2.76423e-05
-0.000468588
2.7601e-05
-0.00048215
2.75602e-05
-0.000495574
2.75213e-05
-0.000508858
2.74834e-05
-0.000522001
2.74446e-05
-0.000535
2.74054e-05
-0.000547854
2.73669e-05
-0.000560561
2.73292e-05
-0.000573122
2.72921e-05
-0.000585535
2.72564e-05
-0.000597797
2.72212e-05
-0.000609908
2.71848e-05
-0.000621864
2.71485e-05
-0.000633668
2.71148e-05
-0.000645317
2.70829e-05
-0.000656809
2.70502e-05
-0.000668143
2.70175e-05
-0.000679318
2.69863e-05
-0.000690332
2.69556e-05
-0.000701185
2.69253e-05
-0.000711876
2.68965e-05
-0.000722403
2.68694e-05
-0.000732765
2.68425e-05
-0.000742962
2.68164e-05
-0.000752992
2.6791e-05
-0.000762854
2.67663e-05
-0.000772546
2.67428e-05
-0.000782069
2.67203e-05
-0.000791421
2.66989e-05
-0.0008006
2.6678e-05
-0.000809606
2.66578e-05
-0.000818439
2.66395e-05
-0.000827097
2.66223e-05
-0.000835579
2.66054e-05
-0.000843885
2.65901e-05
-0.000852013
2.65758e-05
-0.000859964
2.65618e-05
-0.000867735
2.65492e-05
-0.000875327
2.65382e-05
-0.000882738
2.65276e-05
-0.000889967
2.65175e-05
-0.000897015
2.65095e-05
-0.000903881
2.65033e-05
-0.000910563
2.64963e-05
-0.00091706
2.64889e-05
-0.000923373
2.64846e-05
-0.000929501
2.64824e-05
-0.000935443
2.64803e-05
-0.000941198
2.64785e-05
-0.000946766
2.64775e-05
-0.000952147
2.64773e-05
-0.000957339
2.64788e-05
-0.000962343
2.64809e-05
-0.000967157
2.64844e-05
-0.000971782
2.64874e-05
-0.000976217
2.64928e-05
-0.000980461
2.64976e-05
-0.000984514
2.65055e-05
-0.000988375
2.65107e-05
-0.000992046
2.65199e-05
-0.000995524
2.65282e-05
-0.000998811
2.65397e-05
-0.0010019
2.65485e-05
-0.00100481
2.65621e-05
-0.00100751
2.65686e-05
-0.00101003
2.65972e-05
-0.00101235
2.65863e-05
-0.00101449
2.6633e-05
-0.00101643
2.66594e-05
-0.00101818
2.6569e-05
-0.00101979
2.69194e-05
-0.00102112
2.63231e-05
-0.00102236
2.73179e-05
-0.00102356
2.61707e-05
-0.00102409
2.79513e-05
-0.00102533
2.5254e-05
-0.00102539
3.16876e-05
-0.00103343
4.51994e-05
5.73127e-05
0.00681797
0.00542982
0.006141
0.00294855
0.00569101
0.00117367
0.00528212
0.000869993
0.0049554
0.000633326
0.00473374
0.000392034
0.00457824
0.000255861
0.00444904
0.000211465
0.0043307
0.000195808
0.00422264
0.000176479
0.00412619
0.000153477
0.00404039
0.000133585
0.00396309
0.000118861
0.0038924
0.000108134
0.00382698
0.000100065
0.00376588
9.38868e-05
0.00370843
8.90569e-05
0.00365418
8.50741e-05
0.00360282
8.15755e-05
0.00355406
7.84571e-05
0.00350761
7.58109e-05
0.00346314
7.37222e-05
0.00342043
7.20855e-05
0.00337943
7.05672e-05
0.00334022
6.87842e-05
0.00330292
6.65991e-05
0.00326753
6.42412e-05
0.00323382
6.21472e-05
0.00320146
6.06612e-05
0.00317008
5.98176e-05
0.00313944
5.93506e-05
0.00310947
5.88352e-05
0.00308025
5.79108e-05
0.0030519
5.64157e-05
0.00302453
5.44044e-05
0.00299817
5.20833e-05
0.00297278
4.96618e-05
0.0029483
4.73058e-05
0.00292462
4.51217e-05
0.00290168
4.31392e-05
0.00287944
4.13445e-05
0.00285786
3.97239e-05
0.00283689
3.83087e-05
0.00281644
3.71469e-05
0.0027964
3.628e-05
0.00277665
3.57152e-05
0.00275707
3.54226e-05
0.00273755
3.53445e-05
0.00271803
3.54067e-05
0.00269846
3.55423e-05
0.00267883
3.5697e-05
0.00265914
3.58386e-05
0.0026394
3.59473e-05
0.00261964
3.60212e-05
0.00259985
3.60729e-05
0.00258004
3.61151e-05
0.00256023
3.61585e-05
0.0025404
3.62071e-05
0.00252056
3.62641e-05
0.0025007
3.63295e-05
0.00248083
3.63997e-05
0.00246094
3.64753e-05
0.00244102
3.65569e-05
0.00242109
3.664e-05
0.00240113
3.67197e-05
0.00238116
3.67977e-05
0.00236116
3.68746e-05
0.00234114
3.69504e-05
0.00232111
3.70228e-05
0.00230106
3.70895e-05
0.00228099
3.7154e-05
0.00226091
3.72182e-05
0.00224082
3.72788e-05
0.00222072
3.7334e-05
0.0022006
3.73863e-05
0.00218048
3.74367e-05
0.00216035
3.74839e-05
0.00214022
3.75279e-05
0.00212008
3.7568e-05
0.00209995
3.76046e-05
0.00207981
3.76398e-05
0.00205967
3.76727e-05
0.00203954
3.77013e-05
0.00201941
3.77269e-05
0.00199929
3.77505e-05
0.00197917
3.7772e-05
0.00195907
3.77887e-05
0.00193897
3.7802e-05
0.00191889
3.78148e-05
0.00189883
3.78233e-05
0.00187878
3.78265e-05
0.00185875
3.78317e-05
0.00183874
3.78376e-05
0.00181875
3.78355e-05
0.00179879
3.78272e-05
0.00177885
3.78192e-05
0.00175894
3.78112e-05
0.00173906
3.77988e-05
0.00171921
3.77829e-05
0.0016994
3.77662e-05
0.00167961
3.7749e-05
0.00165987
3.77279e-05
0.00164016
3.7703e-05
0.00162049
3.76766e-05
0.00160086
3.76485e-05
0.00158128
3.76177e-05
0.00156174
3.75855e-05
0.00154224
3.75511e-05
0.0015228
3.75131e-05
0.00150341
3.74729e-05
0.00148407
3.74326e-05
0.00146478
3.73908e-05
0.00144555
3.7346e-05
0.00142638
3.72987e-05
0.00140727
3.72495e-05
0.00138822
3.7199e-05
0.00136923
3.71476e-05
0.0013503
3.70952e-05
0.00133144
3.70402e-05
0.00131265
3.6981e-05
0.00129394
3.69207e-05
0.00127529
3.68606e-05
0.00125672
3.68002e-05
0.00123822
3.67388e-05
0.0012198
3.66745e-05
0.00120146
3.66071e-05
0.0011832
3.65387e-05
0.00116502
3.64716e-05
0.00114693
3.64041e-05
0.00112892
3.63329e-05
0.001111
3.62587e-05
0.00109317
3.61827e-05
0.00107543
3.6107e-05
0.00105779
3.60341e-05
0.00104024
3.5962e-05
0.00102278
3.58858e-05
0.00100543
3.58053e-05
0.000988176
3.57242e-05
0.000971024
3.56445e-05
0.000953974
3.55652e-05
0.00093703
3.54849e-05
0.000920193
3.5403e-05
0.000903466
3.53205e-05
0.000886848
3.52369e-05
0.000870343
3.51525e-05
0.000853952
3.50692e-05
0.000837676
3.49847e-05
0.000821518
3.48981e-05
0.000805479
3.48134e-05
0.000789559
3.47306e-05
0.000773762
3.46441e-05
0.000758091
3.45546e-05
0.000742545
3.44682e-05
0.000727125
3.43846e-05
0.000711833
3.4299e-05
0.000696673
3.42103e-05
0.000681646
3.41216e-05
0.000666753
3.40346e-05
0.000651994
3.39492e-05
0.000637372
3.38645e-05
0.000622888
3.37777e-05
0.000608546
3.36888e-05
0.000594346
3.3601e-05
0.000580289
3.35161e-05
0.000566375
3.34322e-05
0.000552608
3.33465e-05
0.00053899
3.32598e-05
0.000525522
3.31737e-05
0.000512205
3.30888e-05
0.000499039
3.30048e-05
0.000486027
3.29226e-05
0.000473171
3.284e-05
0.000460472
3.27549e-05
0.000447933
3.26705e-05
0.000435552
3.25897e-05
0.000423331
3.25107e-05
0.000411274
3.24299e-05
0.00039938
3.23489e-05
0.000387652
3.22693e-05
0.000376091
3.21898e-05
0.000364698
3.21106e-05
0.000353474
3.20334e-05
0.000342421
3.19579e-05
0.000331539
3.18823e-05
0.00032083
3.18071e-05
0.000310296
3.17322e-05
0.000299938
3.16579e-05
0.000289757
3.15849e-05
0.000279753
3.15127e-05
0.000269929
3.14412e-05
0.000260287
3.13698e-05
0.000250825
3.12993e-05
0.000241547
3.12306e-05
0.000232452
3.11628e-05
0.000223543
3.10954e-05
0.000214819
3.10293e-05
0.000206282
3.09637e-05
0.000197934
3.08983e-05
0.000189775
3.08343e-05
0.000181807
3.07716e-05
0.00017403
3.07089e-05
0.000166445
3.06468e-05
0.000159052
3.05875e-05
0.000151853
3.05294e-05
0.00014485
3.0469e-05
0.000138044
3.04078e-05
0.000131435
3.03509e-05
0.000125022
3.02965e-05
0.000118808
3.02415e-05
0.000112792
3.01861e-05
0.000106978
3.01312e-05
0.000101364
3.00771e-05
9.59517e-05
3.00249e-05
9.07417e-05
2.99729e-05
8.57346e-05
2.99222e-05
8.09312e-05
2.98709e-05
7.6332e-05
2.98218e-05
7.19378e-05
2.9772e-05
6.77493e-05
2.97248e-05
6.37668e-05
2.96752e-05
5.99913e-05
2.96286e-05
5.64213e-05
2.95839e-05
5.30611e-05
2.95372e-05
4.99042e-05
2.94962e-05
4.69638e-05
2.9445e-05
4.42191e-05
2.94105e-05
4.17002e-05
2.93651e-05
3.93689e-05
2.93228e-05
3.72576e-05
2.92987e-05
3.53541e-05
2.92855e-05
3.36266e-05
2.91332e-05
3.21393e-05
2.95e-05
3.08178e-05
2.86699e-05
2.9674e-05
3.00673e-05
2.86655e-05
2.82307e-05
2.81115e-05
3.07364e-05
2.70298e-05
2.75406e-05
2.70793e-05
3.40486e-05
3.05703e-05
4.38412e-05
2.96202e-05
0.00743379
0.00485265
0.00726215
0.00310199
0.00705231
0.00137025
0.00673678
0.00117657
0.00641931
0.000942921
0.00617995
0.000622018
0.00600353
0.000420383
0.00585643
0.000344124
0.00572271
0.000313096
0.00560022
0.000281302
0.00548981
0.000245788
0.00539083
0.000214681
0.00530151
0.000191005
0.00522001
0.00017346
0.0051449
0.00016019
0.00507504
0.000149928
0.00500961
0.000141716
0.00494805
0.000134723
0.00488994
0.000128389
0.00483492
0.000122566
0.00478256
0.000117407
0.00473249
0.000113068
0.00468441
0.000109429
0.00463827
0.000106037
0.00459417
0.000102365
0.00455228
9.82453e-05
0.00451263
9.40333e-05
0.00447505
9.03668e-05
0.00443922
8.77313e-05
0.00440483
8.61615e-05
0.00437165
8.52259e-05
0.00433967
8.42423e-05
0.00430897
8.2629e-05
0.00427969
8.01078e-05
0.00425189
7.67411e-05
0.00422552
7.28437e-05
0.00420041
6.87673e-05
0.00417636
6.48153e-05
0.00415316
6.11947e-05
0.00413066
5.79772e-05
0.00410878
5.51415e-05
0.0040875
5.26465e-05
0.0040668
5.0503e-05
0.00404664
4.87479e-05
0.00402695
4.74179e-05
0.00400763
4.65124e-05
0.00398855
4.59888e-05
0.0039696
4.57698e-05
0.0039507
4.57553e-05
0.00393178
4.58542e-05
0.00391281
4.59919e-05
0.00389379
4.61191e-05
0.00387472
4.62051e-05
0.00385561
4.6247e-05
0.00383646
4.62604e-05
0.0038173
4.62609e-05
0.00379813
4.62623e-05
0.00377894
4.62717e-05
0.00375974
4.62925e-05
0.00374052
4.63247e-05
0.00372129
4.63646e-05
0.00370205
4.64128e-05
0.00368278
4.64698e-05
0.0036635
4.65298e-05
0.00364421
4.65858e-05
0.00362489
4.66395e-05
0.00360556
4.66923e-05
0.00358621
4.67448e-05
0.00356685
4.67926e-05
0.00354748
4.68328e-05
0.00352809
4.68704e-05
0.0035087
4.69077e-05
0.00348929
4.69401e-05
0.00346988
4.69659e-05
0.00345046
4.69883e-05
0.00343103
4.70085e-05
0.0034116
4.70246e-05
0.00339217
4.70365e-05
0.00337274
4.70434e-05
0.00335331
4.70462e-05
0.00333388
4.70475e-05
0.00331445
4.70458e-05
0.00329504
4.70387e-05
0.00327563
4.70281e-05
0.00325622
4.70154e-05
0.00323683
4.70001e-05
0.00321745
4.69789e-05
0.00319808
4.69535e-05
0.00317873
4.69277e-05
0.0031594
4.68962e-05
0.00314009
4.68587e-05
0.00312079
4.68254e-05
0.00310152
4.6792e-05
0.00308227
4.67479e-05
0.00306304
4.6697e-05
0.00304385
4.66474e-05
0.00302468
4.65972e-05
0.00300554
4.65417e-05
0.00298644
4.64825e-05
0.00296737
4.64232e-05
0.00294833
4.63633e-05
0.00292933
4.62991e-05
0.00291037
4.62303e-05
0.00289145
4.61596e-05
0.00287258
4.60868e-05
0.00285375
4.60115e-05
0.00283496
4.59347e-05
0.00281622
4.58555e-05
0.00279753
4.57719e-05
0.00277889
4.56862e-05
0.00276031
4.5601e-05
0.00274178
4.55143e-05
0.0027233
4.54238e-05
0.00270488
4.53307e-05
0.00268652
4.52356e-05
0.00266823
4.5139e-05
0.00264999
4.50424e-05
0.00263182
4.49451e-05
0.00261372
4.48438e-05
0.00259568
4.47374e-05
0.00257772
4.46306e-05
0.00255982
4.45248e-05
0.002542
4.4419e-05
0.00252425
4.43123e-05
0.00250658
4.42018e-05
0.00248899
4.40876e-05
0.00247147
4.39728e-05
0.00245404
4.38606e-05
0.00243669
4.37478e-05
0.00241943
4.36299e-05
0.00240225
4.35084e-05
0.00238516
4.33853e-05
0.00236816
4.32634e-05
0.00235125
4.31459e-05
0.00233444
4.30295e-05
0.00231772
4.29073e-05
0.00230109
4.27796e-05
0.00228457
4.26516e-05
0.00226814
4.2526e-05
0.00225182
4.24012e-05
0.00223559
4.22753e-05
0.00221948
4.21473e-05
0.00220347
4.20187e-05
0.00218756
4.18891e-05
0.00217177
4.17588e-05
0.00215609
4.16301e-05
0.00214052
4.14991e-05
0.00212507
4.1366e-05
0.00210973
4.12366e-05
0.00209451
4.11088e-05
0.0020794
4.09752e-05
0.00206443
4.08385e-05
0.00204957
4.07066e-05
0.00203483
4.05783e-05
0.00202023
4.0447e-05
0.00200575
4.03114e-05
0.00199139
4.01758e-05
0.00197717
4.00427e-05
0.00196309
3.99121e-05
0.00194913
3.9782e-05
0.00193531
3.96484e-05
0.00192163
3.95121e-05
0.00190808
3.93777e-05
0.00189468
3.92473e-05
0.00188141
3.91176e-05
0.00186829
3.89853e-05
0.00185531
3.88514e-05
0.00184248
3.87179e-05
0.00182979
3.8586e-05
0.00181726
3.84558e-05
0.00180487
3.83276e-05
0.00179264
3.81978e-05
0.00178056
3.80641e-05
0.00176863
3.79322e-05
0.00175686
3.78051e-05
0.00174524
3.76793e-05
0.00173379
3.75509e-05
0.00172249
3.74222e-05
0.00171135
3.72946e-05
0.00170038
3.71668e-05
0.00168957
3.70394e-05
0.00167893
3.69146e-05
0.00166845
3.67914e-05
0.00165814
3.66678e-05
0.001648
3.65443e-05
0.00163803
3.64206e-05
0.00162823
3.62976e-05
0.00161861
3.61758e-05
0.00160916
3.60549e-05
0.00159988
3.59341e-05
0.00159078
3.58131e-05
0.00158186
3.56935e-05
0.00157311
3.55756e-05
0.00156455
3.54582e-05
0.00155616
3.53414e-05
0.00154796
3.52258e-05
0.00153994
3.51101e-05
0.0015321
3.49946e-05
0.00152445
3.48807e-05
0.00151699
3.47674e-05
0.00150971
3.46538e-05
0.00150262
3.45416e-05
0.00149572
3.44326e-05
0.00148901
3.43243e-05
0.00148249
3.4212e-05
0.00147616
3.40987e-05
0.00147002
3.39909e-05
0.00146408
3.38863e-05
0.00145833
3.37803e-05
0.00145278
3.36732e-05
0.00144742
3.35665e-05
0.00144226
3.34607e-05
0.0014373
3.33568e-05
0.00143253
3.32531e-05
0.00142797
3.31502e-05
0.0014236
3.30471e-05
0.00141943
3.29458e-05
0.00141547
3.28442e-05
0.00141171
3.27438e-05
0.00140814
3.26428e-05
0.00140478
3.25423e-05
0.00140163
3.24487e-05
0.00139868
3.23446e-05
0.00139592
3.22597e-05
0.00139339
3.2142e-05
0.00139103
3.20772e-05
0.00138892
3.19501e-05
0.00138697
3.18925e-05
0.00138524
3.17912e-05
0.00138373
3.17393e-05
0.00138235
3.15559e-05
0.00138128
3.18883e-05
0.00138026
3.09255e-05
0.0013795
3.25926e-05
0.00137889
3.02963e-05
0.00137866
3.30292e-05
0.00137793
3.02247e-05
0.00137818
3.57843e-05
0.00138212
4.31509e-05
2.16592e-05
0.00759409
0.00411542
0.00776352
0.00291377
0.00783155
0.00128737
0.00773324
0.00126475
0.00753458
0.00113419
0.0073473
0.000802024
0.00719287
0.000565852
0.00705698
0.000468427
0.00693021
0.000425378
0.00681157
0.000382964
0.00670216
0.000336585
0.0066021
0.000295451
0.00651062
0.00026344
0.00642664
0.000239355
0.00634913
0.000221068
0.0062772
0.000206931
0.00621007
0.000195577
0.00614716
0.000185812
0.00608797
0.000176838
0.00603202
0.000168431
0.00597881
0.00016079
0.00592779
0.000154129
0.00587859
0.000148329
0.00583105
0.000142853
0.00578528
0.000137075
0.00574147
0.00013081
0.00569976
0.000124527
0.00566011
0.000119045
0.00562238
0.000114993
0.00558638
0.000112438
0.00555205
0.000110829
0.00551944
0.000109261
0.00548873
0.000106932
0.00546007
0.000103416
0.00543353
9.87394e-05
0.00540897
9.32801e-05
0.0053861
8.75105e-05
0.00536448
8.18745e-05
0.00534371
7.67001e-05
0.00532347
7.21285e-05
0.00530359
6.81559e-05
0.00528403
6.47251e-05
0.00526484
6.18255e-05
0.00524607
5.94749e-05
0.00522774
5.76924e-05
0.00520983
5.6461e-05
0.00519227
5.57212e-05
0.00517494
5.53751e-05
0.00515775
5.52984e-05
0.00514061
5.53768e-05
0.00512347
5.55163e-05
0.00510628
5.56504e-05
0.00508903
5.57379e-05
0.00507173
5.5775e-05
0.00505439
5.57786e-05
0.005037
5.57661e-05
0.00501959
5.57542e-05
0.00500214
5.57525e-05
0.00498468
5.57646e-05
0.00496719
5.57906e-05
0.00494969
5.58266e-05
0.00493217
5.58737e-05
0.00491463
5.59322e-05
0.00489707
5.59944e-05
0.00487949
5.60517e-05
0.0048619
5.61058e-05
0.00484428
5.61591e-05
0.00482665
5.62124e-05
0.00480901
5.62593e-05
0.00479135
5.62961e-05
0.00477367
5.63302e-05
0.00475599
5.63632e-05
0.00473829
5.63892e-05
0.00472058
5.64073e-05
0.00470286
5.64216e-05
0.00468514
5.6433e-05
0.00466741
5.64389e-05
0.00464967
5.64393e-05
0.00463193
5.64332e-05
0.00461419
5.64219e-05
0.00459645
5.64088e-05
0.0045787
5.63917e-05
0.00456096
5.63678e-05
0.00454323
5.63398e-05
0.0045255
5.63092e-05
0.00450777
5.62751e-05
0.00449005
5.62336e-05
0.00447235
5.61872e-05
0.00445465
5.614e-05
0.00443697
5.60851e-05
0.0044193
5.60238e-05
0.00440164
5.59687e-05
0.00438401
5.59121e-05
0.00436639
5.58416e-05
0.00434879
5.5764e-05
0.00433122
5.56884e-05
0.00431367
5.56113e-05
0.00429614
5.55275e-05
0.00427865
5.54399e-05
0.00426118
5.53527e-05
0.00424374
5.52647e-05
0.00422633
5.51717e-05
0.00420896
5.50732e-05
0.00419162
5.49719e-05
0.00417431
5.4868e-05
0.00415705
5.47614e-05
0.00413983
5.46535e-05
0.00412265
5.45428e-05
0.00410551
5.44265e-05
0.00408842
5.43079e-05
0.00407137
5.41906e-05
0.00405437
5.40716e-05
0.00403742
5.39481e-05
0.00402053
5.38217e-05
0.00400368
5.36925e-05
0.0039869
5.35615e-05
0.00397017
5.34317e-05
0.00395349
5.33013e-05
0.00393688
5.31652e-05
0.00392032
5.3023e-05
0.00390384
5.2881e-05
0.00388741
5.27408e-05
0.00387105
5.26008e-05
0.00385476
5.24599e-05
0.00383854
5.23141e-05
0.00382239
5.21637e-05
0.00380631
5.20134e-05
0.00379031
5.18667e-05
0.00377438
5.1719e-05
0.00375853
5.15648e-05
0.00374277
5.14062e-05
0.00372708
5.12461e-05
0.00371148
5.10884e-05
0.00369596
5.09367e-05
0.00368052
5.0786e-05
0.00366517
5.06279e-05
0.00364991
5.04627e-05
0.00363475
5.02975e-05
0.00361967
5.01357e-05
0.00360469
4.99751e-05
0.00358981
4.98132e-05
0.00357502
4.96491e-05
0.00356033
4.94843e-05
0.00354574
4.93177e-05
0.00353125
4.91509e-05
0.00351687
4.89861e-05
0.00350259
4.88178e-05
0.00348842
4.86474e-05
0.00347436
4.84827e-05
0.00346041
4.83193e-05
0.00344657
4.81474e-05
0.00343284
4.79724e-05
0.00341923
4.78044e-05
0.00340573
4.76406e-05
0.00339235
4.74727e-05
0.00337909
4.72992e-05
0.00336595
4.71254e-05
0.00335294
4.69552e-05
0.00334005
4.67885e-05
0.00332728
4.66218e-05
0.00331464
4.64503e-05
0.00330213
4.62753e-05
0.00328975
4.61032e-05
0.0032775
4.59363e-05
0.00326538
4.57697e-05
0.0032534
4.55996e-05
0.00324155
4.54274e-05
0.00322984
4.52551e-05
0.00321827
4.5085e-05
0.00320684
4.49174e-05
0.00319555
4.47521e-05
0.0031844
4.45838e-05
0.0031734
4.44102e-05
0.00316255
4.42396e-05
0.00315184
4.40753e-05
0.00314127
4.39115e-05
0.00313086
4.37441e-05
0.0031206
4.35765e-05
0.00311049
4.34098e-05
0.00310054
4.32423e-05
0.00309074
4.30755e-05
0.0030811
4.2912e-05
0.00307162
4.27501e-05
0.00306229
4.25874e-05
0.00305312
4.24244e-05
0.00304412
4.22608e-05
0.00303527
4.20979e-05
0.00302659
4.19364e-05
0.00301808
4.17757e-05
0.00300973
4.16145e-05
0.00300155
4.14527e-05
0.00299354
4.12931e-05
0.0029857
4.11352e-05
0.00297802
4.0977e-05
0.00297052
4.08199e-05
0.00296319
4.0664e-05
0.00295604
4.05071e-05
0.00294905
4.03507e-05
0.00294225
4.0196e-05
0.00293562
4.00412e-05
0.00292917
3.98858e-05
0.0029229
3.97325e-05
0.0029168
3.95835e-05
0.00291089
3.94343e-05
0.00290516
3.92792e-05
0.00289961
3.91229e-05
0.00289425
3.89735e-05
0.00288906
3.8828e-05
0.00288407
3.86804e-05
0.00287925
3.85311e-05
0.00287463
3.83819e-05
0.00287019
3.82339e-05
0.00286594
3.80878e-05
0.00286188
3.79419e-05
0.00285801
3.77961e-05
0.00285432
3.76509e-05
0.00285083
3.75069e-05
0.00284753
3.73633e-05
0.00284442
3.72189e-05
0.0028415
3.70764e-05
0.00283878
3.69312e-05
0.00283625
3.67991e-05
0.00283391
3.66461e-05
0.00283177
3.65287e-05
0.00282983
3.6351e-05
0.00282806
3.62713e-05
0.00282652
3.60663e-05
0.00282514
3.60067e-05
0.00282396
3.58426e-05
0.00282303
3.57356e-05
0.00282213
3.5595e-05
0.00282166
3.57922e-05
0.0028211
3.48698e-05
0.00282087
3.65864e-05
0.00282077
3.41614e-05
0.002821
3.67097e-05
0.00282081
3.46852e-05
0.00282148
3.91772e-05
0.00282545
4.41428e-05
2.16661e-05
0.00756464
0.0034078
0.00786999
0.00258956
0.00807812
0.00106373
0.00819765
0.00113414
0.00819082
0.00113328
0.00813092
0.000855499
0.00805661
0.000633284
0.0079741
0.000542148
0.00788582
0.000501898
0.00779559
0.00045808
0.00770677
0.000407391
0.00762135
0.000360909
0.00754028
0.000323732
0.00746397
0.000295207
0.0073925
0.000273363
0.00732576
0.000256465
0.00726349
0.000242905
0.00720536
0.00023121
0.00715096
0.000220369
0.00709978
0.000210079
0.00705122
0.000200566
0.00700457
0.000192091
0.00695925
0.000184522
0.0069149
0.000177256
0.00687145
0.000169606
0.00682904
0.00016139
0.00678787
0.000153165
0.00674813
0.000145886
0.00670992
0.000140301
0.00667336
0.000136534
0.00663857
0.000133986
0.00660579
0.000131629
0.00657534
0.000128501
0.00654753
0.000124042
0.00652254
0.000118207
0.00650032
0.000111379
0.00648049
0.000104093
0.00646245
9.68995e-05
0.00644546
9.02346e-05
0.00642886
8.432e-05
0.00641223
7.91941e-05
0.00639539
7.48048e-05
0.0063784
7.11327e-05
0.00636144
6.81801e-05
0.0063447
6.5944e-05
0.00632832
6.43867e-05
0.00631237
6.34303e-05
0.00629681
6.29564e-05
0.00628155
6.28189e-05
0.0062665
6.28819e-05
0.00625155
6.30322e-05
0.00623662
6.31866e-05
0.00622165
6.3294e-05
0.00620663
6.33488e-05
0.00619154
6.33671e-05
0.00617639
6.33671e-05
0.00616118
6.33676e-05
0.00614593
6.338e-05
0.00613063
6.34083e-05