/*--------------------------------*- C++ -*----------------------------------*\
  =========                 |
  \\      /  F ield         | OpenFOAM: The Open Source CFD Toolbox
   \\    /   O peration     | Website:  https://openfoam.org
    \\  /    A nd           | Version:  7
     \\/     M anipulation  |
\*---------------------------------------------------------------------------*/
FoamFile
{
    version     2.0;
    format      ascii;
    class       surfaceScalarField;
    location    "0.0975";
    object      phi_0;
}
// * * * * * * * * * * * * * * * * * * * * * * * * * * * * * * * * * * * * * //

dimensions      [1 0 -1 0 0 0 0];

internalField   nonuniform List<scalar> 
2748
(
0.00483007
2.94962e-05
0.00476526
6.49063e-05
0.00466279
0.000102569
0.00453241
0.000130485
0.00438018
0.000152334
0.00421342
0.000166864
0.00403801
0.000175505
0.00385919
0.000178907
0.00368097
0.000178297
0.00350649
0.00017455
0.00333816
0.000168391
0.00317741
0.000160801
0.0030253
0.000152156
0.00288252
0.000142826
0.00274933
0.000133227
0.00262577
0.000123618
0.00251164
0.000114197
0.00240661
0.000105099
0.00231028
9.64193e-05
0.00222215
8.82272e-05
0.00214169
8.05512e-05
0.00206836
7.34164e-05
0.0020016
6.68258e-05
0.00194087
6.07729e-05
0.00188565
5.52427e-05
0.00183545
5.02137e-05
0.00178981
4.56589e-05
0.00174829
4.15473e-05
0.0017105
3.78445e-05
0.00167607
3.45149e-05
0.00164463
3.15241e-05
0.00161587
2.88403e-05
0.0015895
2.64359e-05
0.00156525
2.42871e-05
0.00154288
2.23735e-05
0.00152221
2.06747e-05
0.00150305
1.91684e-05
0.00148527
1.78292e-05
0.00146871
1.66318e-05
0.00145324
1.55551e-05
0.00143874
1.45853e-05
0.00142508
1.37155e-05
0.00141216
1.29415e-05
0.0013999
1.22583e-05
0.00138825
1.16571e-05
0.00137716
1.11252e-05
0.00136657
1.06484e-05
0.00135644
1.0214e-05
0.00134671
9.81319e-06
0.00133733
9.4422e-06
0.00132826
9.10222e-06
0.00131945
8.79711e-06
0.00131089
8.53027e-06
0.00130256
8.30179e-06
0.00129444
8.10668e-06
0.00128654
7.93511e-06
0.00127884
7.77491e-06
0.00127132
7.6154e-06
0.00126397
7.45042e-06
0.00125676
7.28e-06
0.00124967
7.11051e-06
0.00124269
6.95209e-06
0.00123581
6.81434e-06
0.00122904
6.7023e-06
0.0012224
6.61322e-06
0.00121589
6.53662e-06
0.00120952
6.45784e-06
0.00120326
6.36338e-06
0.0011971
6.24765e-06
0.00119101
6.11658e-06
0.00118496
5.98432e-06
0.00117895
5.86731e-06
0.001173
5.7779e-06
0.00116713
5.71831e-06
0.00116135
5.67853e-06
0.00115568
5.6409e-06
0.00115013
5.58699e-06
0.00114466
5.50444e-06
0.00113926
5.3926e-06
0.00113391
5.2638e-06
0.0011286
5.13974e-06
0.00112335
5.04487e-06
0.00111819
4.99532e-06
0.00111316
4.99522e-06
0.00110831
5.0341e-06
0.00110366
5.09145e-06
0.00109923
5.1433e-06
0.001095
5.1715e-06
0.00109093
5.16686e-06
0.00108697
5.13073e-06
0.00108309
5.06828e-06
0.00107926
4.99285e-06
0.00107546
4.91705e-06
0.00107168
4.85385e-06
0.00106793
4.80797e-06
0.00106422
4.78458e-06
0.00106056
4.78378e-06
0.00105696
4.8026e-06
0.00105342
4.8405e-06
0.00104995
4.88559e-06
0.00104655
4.94734e-06
0.00104321
5.00052e-06
0.00103991
5.08308e-06
0.00103666
5.13356e-06
0.00103339
5.24424e-06
0.00103019
5.28056e-06
0.00102691
5.44362e-06
0.00102371
5.45441e-06
0.00102035
5.70375e-06
0.00101713
5.65527e-06
0.00101363
6.02911e-06
0.00101036
5.89113e-06
0.00100665
6.44008e-06
0.0010033
6.19088e-06
0.000999358
6.89359e-06
0.00099582
6.60497e-06
0.000991639
7.33217e-06
0.000987464
7.4327e-06
0.000982936
7.84192e-06
9.79777e-06
0.00487017
1.87468e-05
0.00489076
4.44143e-05
0.00492154
7.19006e-05
0.00495732
9.48047e-05
0.00499412
0.000115631
0.00502833
0.000132757
0.00505724
0.000146692
0.0050791
0.000157136
0.00509306
0.000164415
0.00509892
0.000168766
0.00509693
0.000170455
0.00508778
0.000170014
0.00507226
0.000167729
0.0050512
0.000163938
0.00502546
0.000159008
0.00499589
0.000153234
0.00496325
0.000146887
0.00492821
0.000140188
0.00489137
0.000133322
0.00485322
0.000126435
0.0048142
0.000119648
0.00477465
0.00011305
0.00473485
0.000106706
0.00469505
0.000100665
0.00465543
9.49579e-05
0.00461613
8.96027e-05
0.00457728
8.46047e-05
0.00453895
7.99605e-05
0.00450122
7.56593e-05
0.00446413
7.16856e-05
0.00442771
6.80216e-05
0.00439197
6.46489e-05
0.00435692
6.15497e-05
0.00432256
5.87065e-05
0.00428888
5.61023e-05
0.00425587
5.37185e-05
0.00422354
5.15346e-05
0.00419186
4.95284e-05
0.00416084
4.76784e-05
0.00413046
4.59662e-05
0.00410071
4.43781e-05
0.00407157
4.29049e-05
0.00404302
4.15397e-05
0.00401507
4.02752e-05
0.00398769
3.91023e-05
0.00396088
3.80103e-05
0.00393463
3.6988e-05
0.00390891
3.60257e-05
0.0038837
3.51171e-05
0.00385897
3.4259e-05
0.00383472
3.3451e-05
0.0038109
3.26939e-05
0.00378752
3.19875e-05
0.00376455
3.13294e-05
0.00374198
3.07134e-05
0.00371981
3.01305e-05
0.00369803
2.95704e-05
0.00367663
2.90238e-05
0.00365561
2.84851e-05
0.00363495
2.7953e-05
0.00361465
2.74307e-05
0.00359471
2.6924e-05
0.00357513
2.64385e-05
0.0035559
2.5977e-05
0.00353702
2.55379e-05
0.0035185
2.51154e-05
0.00350032
2.47016e-05
0.00348246
2.42895e-05
0.0034649
2.38767e-05
0.00344763
2.34669e-05
0.00343061
2.30682e-05
0.00341383
2.26901e-05
0.0033973
2.23389e-05
0.00338101
2.2015e-05
0.00336496
2.17113e-05
0.00334915
2.1416e-05
0.00333359
2.11162e-05
0.00331827
2.08037e-05
0.00330317
2.04779e-05
0.00328828
2.01462e-05
0.00327361
1.98225e-05
0.00325915
1.95225e-05
0.0032449
1.92579e-05
0.00323086
1.90335e-05
0.00321705
1.88424e-05
0.00320347
1.86718e-05
0.00319011
1.85046e-05
0.00317699
1.83286e-05
0.00316409
1.81357e-05
0.0031514
1.79273e-05
0.00313892
1.77064e-05
0.00312662
1.74835e-05
0.00311452
1.72665e-05
0.00310258
1.70684e-05
0.00309081
1.68925e-05
0.00307919
1.67482e-05
0.00306772
1.66331e-05
0.00305639
1.655e-05
0.00304518
1.64951e-05
0.00303409
1.64647e-05
0.00302309
1.64636e-05
0.00301218
1.64726e-05
0.00300133
1.65265e-05
0.00299052
1.65647e-05
0.00297972
1.66924e-05
0.00296893
1.67467e-05
0.0029581
1.69821e-05
0.00294728
1.70164e-05
0.00293635
1.74073e-05
0.00292547
1.73539e-05
0.00291436
1.79834e-05
0.00290339
1.77508e-05
0.00289202
1.87306e-05
0.00288098
1.82088e-05
0.00286925
1.963e-05
0.00285817
1.87899e-05
0.00284604
2.06038e-05
0.00283497
1.98033e-05
0.00282261
2.15279e-05
2.24059e-05
0.00486637
1.17873e-05
0.00488026
3.06239e-05
0.00490178
5.04761e-05
0.00492953
6.71578e-05
0.00496271
8.25561e-05
0.00500028
9.52824e-05
0.00504117
0.000105897
0.00508429
0.00011411
0.00512859
0.000120201
0.00517312
0.000124309
0.00521703
0.000126619
0.00525965
0.000127457
0.00530042
0.00012701
0.00533892
0.00012549
0.00537486
0.000123121
0.00540805
0.000120092
0.0054384
0.000116577
0.00546592
0.00011272
0.00549065
0.000108647
0.00551268
0.000104462
0.00553214
0.00010025
0.00554918
9.60804e-05
0.00556396
9.20066e-05
0.00557665
8.80704e-05
0.0055874
8.43016e-05
0.00559638
8.07209e-05
0.00560376
7.73404e-05
0.00560966
7.41655e-05
0.00561424
7.11961e-05
0.00561761
6.84281e-05
0.00561988
6.58548e-05
0.00562116
6.34687e-05
0.00562155
6.12616e-05
0.00562111
5.92252e-05
0.00561994
5.73502e-05
0.00561809
5.56258e-05
0.00561564
5.40395e-05
0.00561263
5.25773e-05
0.00560911
5.12252e-05
0.00560513
4.99712e-05
0.00560072
4.88062e-05
0.00559592
4.77235e-05
0.00559075
4.6718e-05
0.00558527
4.57839e-05
0.00557948
4.4915e-05
0.00557343
4.41037e-05
0.00556712
4.33426e-05
0.00556058
4.26256e-05
0.00555383
4.19484e-05
0.00554686
4.13093e-05
0.00553971
4.07084e-05
0.00553236
4.01465e-05
0.00552484
3.9624e-05
0.00551716
3.91388e-05
0.0055093
3.86863e-05
0.00550129
3.82592e-05
0.00549313
3.78489e-05
0.00548481
3.7448e-05
0.00547633
3.70517e-05
0.00546771
3.66588e-05
0.00545894
3.62712e-05
0.00545002
3.58928e-05
0.00544097
3.55268e-05
0.00543181
3.51747e-05
0.00542253
3.4835e-05
0.00541315
3.45035e-05
0.00540368
3.41754e-05
0.00539413
3.38468e-05
0.00538449
3.35169e-05
0.00537477
3.3189e-05
0.00536498
3.28696e-05
0.00535512
3.25654e-05
0.00534521
3.22808e-05
0.00533524
3.2016e-05
0.00532523
3.17657e-05
0.00531517
3.15208e-05
0.00530508
3.12719e-05
0.00529494
3.10127e-05
0.00528475
3.07427e-05
0.00527452
3.04679e-05
0.00526424
3.01993e-05
0.00525391
2.99501e-05
0.00524353
2.97303e-05
0.0052331
2.95439e-05
0.00522263
2.93869e-05
0.00521211
2.925e-05
0.00520152
2.91202e-05
0.00519087
2.89876e-05
0.00518015
2.88446e-05
0.00516934
2.8691e-05
0.00515847
2.85269e-05
0.00514752
2.83608e-05
0.0051365
2.81983e-05
0.00512543
2.80517e-05
0.00511431
2.79237e-05
0.00510315
2.78254e-05
0.00509195
2.77547e-05
0.00508072
2.7719e-05
0.00506945
2.77153e-05
0.00505813
2.77442e-05
0.00504676
2.78121e-05
0.00503531
2.79022e-05
0.00502376
2.80541e-05
0.0050121
2.82008e-05
0.00500028
2.8462e-05
0.00498832
2.86469e-05
0.00497615
2.9057e-05
0.00496382
2.923e-05
0.00495121
2.98531e-05
0.00493845
2.99165e-05
0.00492533
3.08662e-05
0.00491214
3.06656e-05
0.00489842
3.21235e-05
0.00488485
3.14333e-05
0.00487046
3.36131e-05
0.00485665
3.21876e-05
0.0048416
3.51976e-05
0.00482793
3.30302e-05
0.00481265
3.63228e-05
3.44779e-05
0.00486353
7.60305e-06
0.0048739
2.03527e-05
0.00489089
3.35891e-05
0.00491357
4.45884e-05
0.00494152
5.47009e-05
0.00497391
6.29988e-05
0.00500996
6.99406e-05
0.00504882
7.53316e-05
0.00508972
7.93916e-05
0.0051319
8.22026e-05
0.00517468
8.39044e-05
0.00521753
8.46747e-05
0.00525996
8.46389e-05
0.00530157
8.39322e-05
0.00534205
8.26884e-05
0.00538117
8.10201e-05
0.00541876
7.90342e-05
0.00545471
7.68188e-05
0.00548895
7.44526e-05
0.00552147
7.19982e-05
0.00555228
6.95103e-05
0.0055814
6.7031e-05
0.0056089
6.45935e-05
0.00563483
6.22243e-05
0.00565929
5.99422e-05
0.00568236
5.77606e-05
0.00570412
5.56878e-05
0.00572467
5.37282e-05
0.0057441
5.18831e-05
0.00576249
5.01517e-05
0.00577993
4.85317e-05
0.00579649
4.70199e-05
0.00581224
4.56132e-05
0.00582725
4.43078e-05
0.00584158
4.30993e-05
0.00585529
4.19824e-05
0.00586844
4.09508e-05
0.00588106
3.99971e-05
0.00589321
3.91141e-05
0.00590491
3.82952e-05
0.0059162
3.75356e-05
0.0059271
3.68313e-05
0.00593765
3.61792e-05
0.00594787
3.55759e-05
0.00595778
3.50172e-05
0.00596741
3.44987e-05
0.00597677
3.40159e-05
0.00598587
3.35655e-05
0.00599474
3.31449e-05
0.00600337
3.27529e-05
0.00601178
3.23892e-05
0.00601998
3.20537e-05
0.00602797
3.17461e-05
0.00603578
3.14648e-05
0.0060434
3.12069e-05
0.00605083
3.09679e-05
0.00605809
3.07426e-05
0.00606516
3.05262e-05
0.00607204
3.03155e-05
0.00607872
3.01094e-05
0.0060852
2.99085e-05
0.00609148
2.97149e-05
0.00609756
2.95304e-05
0.00610345
2.93555e-05
0.00610914
2.91892e-05
0.00611464
2.90287e-05
0.00611996
2.88712e-05
0.00612508
2.87143e-05
0.00613002
2.85576e-05
0.00613478
2.84031e-05
0.00613936
2.82546e-05
0.00614378
2.81154e-05
0.00614805
2.79877e-05
0.00615218
2.78711e-05
0.00615618
2.7762e-05
0.00616007
2.76551e-05
0.00616383
2.75453e-05
0.00616748
2.74294e-05
0.00617099
2.73083e-05
0.00617438
2.71865e-05
0.00617764
2.70712e-05
0.00618076
2.69712e-05
0.00618376
2.68927e-05
0.00618664
2.6838e-05
0.00618939
2.68043e-05
0.00619202
2.67862e-05
0.00619451
2.67749e-05
0.00619687
2.67634e-05
0.00619909
2.67457e-05
0.00620115
2.67223e-05
0.00620304
2.66932e-05
0.00620478
2.66647e-05
0.00620634
2.66409e-05
0.00620774
2.66318e-05
0.00620898
2.66404e-05
0.00621006
2.66758e-05
0.006211
2.67401e-05
0.00621179
2.68368e-05
0.00621244
2.69699e-05
0.00621297
2.71332e-05
0.00621337
2.73446e-05
0.00621365
2.75731e-05
0.0062138
2.78766e-05
0.00621384
2.81639e-05
0.00621373
2.85842e-05
0.00621351
2.89105e-05
0.00621313
2.94877e-05
0.00621261
2.98045e-05
0.00621191
3.06026e-05
0.00621104
3.08187e-05
0.00620998
3.19494e-05
0.00620871
3.19179e-05
0.00620724
3.35473e-05
0.00620555
3.30468e-05
0.00620366
3.5369e-05
0.00620154
3.41339e-05
0.0061993
3.72238e-05
0.00619695
3.51194e-05
0.00619458
3.83978e-05
3.59532e-05
0.00486317
3.77507e-06
0.00487356
1.00615e-05
0.00489064
1.66119e-05
0.00491321
2.21171e-05
0.00494071
2.72984e-05
0.00497223
3.15825e-05
0.00500701
3.52547e-05
0.00504427
3.81592e-05
0.00508332
4.04231e-05
0.00512353
4.20695e-05
0.00516433
4.31736e-05
0.00520525
4.38195e-05
0.00524587
4.40765e-05
0.00528585
4.40084e-05
0.0053249
4.3684e-05
0.00536281
4.31558e-05
0.00539941
4.24753e-05
0.0054346
4.16814e-05
0.0054683
4.08093e-05
0.00550047
3.98852e-05
0.00553111
3.89316e-05
0.00556025
3.7965e-05
0.00558793
3.69985e-05
0.0056142
3.6042e-05
0.00563914
3.51026e-05
0.00566282
3.41855e-05
0.00568533
3.32942e-05
0.00570674
3.2431e-05
0.00572715
3.15974e-05
0.00574662
3.07945e-05
0.00576524
3.00233e-05
0.00578309
2.92846e-05
0.00580022
2.85794e-05
0.00581671
2.79088e-05
0.00583261
2.72731e-05
0.00584799
2.66723e-05
0.00586289
2.61056e-05
0.00587736
2.55715e-05
0.00589144
2.50683e-05
0.00590516
2.45948e-05
0.00591856
2.415e-05
0.00593167
2.37335e-05
0.00594452
2.33449e-05
0.00595712
2.29833e-05
0.0059695
2.26472e-05
0.00598169
2.23348e-05
0.00599369
2.20438e-05
0.00600553
2.17727e-05
0.00601722
2.15205e-05
0.00602876
2.12867e-05
0.00604017
2.10713e-05
0.00605146
2.08746e-05
0.00606264
2.06964e-05
0.0060737
2.05358e-05
0.00608466
2.03912e-05
0.00609552
2.02602e-05
0.00610628
2.01397e-05
0.00611694
2.00269e-05
0.00612748
1.99198e-05
0.00613791
1.98176e-05
0.00614822
1.97204e-05
0.00615842
1.96291e-05
0.00616849
1.95445e-05
0.00617845
1.94665e-05
0.00618829
1.93941e-05
0.00619802
1.93258e-05
0.00620764
1.92595e-05
0.00621715
1.9194e-05
0.00622655
1.9129e-05
0.00623585
1.90658e-05
0.00624505
1.90066e-05
0.00625417
1.89535e-05
0.00626321
1.89078e-05
0.00627219
1.88694e-05
0.00628111
1.88364e-05
0.00628998
1.8806e-05
0.00629878
1.87753e-05
0.00630753
1.87427e-05
0.00631622
1.87087e-05
0.00632484
1.86759e-05
0.0063334
1.86484e-05
0.0063419
1.86309e-05
0.00635035
1.86268e-05
0.00635874
1.86371e-05
0.00636709
1.86601e-05
0.00637538
1.86924e-05
0.00638361
1.87288e-05
0.00639178
1.87654e-05
0.00639988
1.87986e-05
0.0064079
1.88291e-05
0.00641583
1.8858e-05
0.00642368
1.88901e-05
0.00643143
1.89294e-05
0.00643908
1.8983e-05
0.00644664
1.90552e-05
0.00645411
1.91507e-05
0.00646149
1.92753e-05
0.00646881
1.9426e-05
0.00647607
1.96145e-05
0.00648328
1.98234e-05
0.00649047
2.00834e-05
0.00649765
2.03468e-05
0.00650483
2.06896e-05
0.00651202
2.09991e-05
0.00651923
2.14451e-05
0.00652648
2.17825e-05
0.00653375
2.23652e-05
0.00654104
2.26937e-05
0.00654838
2.34647e-05
0.0065557
2.37216e-05
0.00656311
2.47602e-05
0.00657038
2.48526e-05
0.00657787
2.62596e-05
0.00658503
2.60614e-05
0.00659263
2.79194e-05
0.00659957
2.73006e-05
0.00660733
2.95474e-05
0.00661401
2.8473e-05
0.00662186
3.05693e-05
2.92923e-05
0.00486284
2.5854e-07
0.00487253
4.69046e-07
0.00488838
8.62042e-07
0.0049096
9.97606e-07
0.00493577
1.22974e-06
0.00496608
1.36968e-06
0.00499986
1.57631e-06
0.00503632
1.78995e-06
0.00507476
2.0649e-06
0.00511452
2.38982e-06
0.00515498
2.77511e-06
0.00519565
3.2155e-06
0.00523607
3.71386e-06
0.00527587
4.25615e-06
0.00531476
4.83926e-06
0.00535252
5.44857e-06
0.00538896
6.07597e-06
0.00542399
6.70781e-06
0.00545752
7.33406e-06
0.00548952
7.94263e-06
0.00551999
8.52429e-06
0.00554896
9.06977e-06
0.00557647
9.57159e-06
0.00560258
1.00239e-05
0.00562736
1.04222e-05
0.00565089
1.0764e-05
0.00567325
1.10479e-05
0.00569452
1.12744e-05
0.00571479
1.14453e-05
0.00573414
1.15635e-05
0.00575264
1.16331e-05
0.00577037
1.16591e-05
0.0057874
1.1647e-05
0.0058038
1.16026e-05
0.00581962
1.15315e-05
0.00583492
1.14389e-05
0.00584975
1.13293e-05
0.00586416
1.1207e-05
0.00587818
1.10756e-05
0.00589186
1.09386e-05
0.00590522
1.07994e-05
0.0059183
1.0661e-05
0.00593113
1.05261e-05
0.00594373
1.03965e-05
0.00595612
1.02735e-05
0.00596832
1.01575e-05
0.00598035
1.00487e-05
0.00599222
9.94695e-06
0.00600395
9.85269e-06
0.00601555
9.76636e-06
0.00602703
9.68863e-06
0.0060384
9.62012e-06
0.00604966
9.56124e-06
0.00606082
9.51197e-06
0.00607189
9.47173e-06
0.00608287
9.4395e-06
0.00609375
9.41393e-06
0.00610454
9.39374e-06
0.00611523
9.378e-06
0.00612582
9.36628e-06
0.00613631
9.3586e-06
0.00614669
9.35519e-06
0.00615696
9.35614e-06
0.00616713
9.36104e-06
0.00617719
9.36897e-06
0.00618716
9.37864e-06
0.00619703
9.38878e-06
0.00620681
9.39862e-06
0.00621649
9.4081e-06
0.0062261
9.41805e-06
0.00623563
9.42979e-06
0.00624509
9.44464e-06
0.0062545
9.46351e-06
0.00626386
9.48656e-06
0.00627318
9.51316e-06
0.00628246
9.5422e-06
0.00629171
9.57267e-06
0.00630092
9.60411e-06
0.00631008
9.63699e-06
0.00631921
9.67279e-06
0.0063283
9.71318e-06
0.00633734
9.76005e-06
0.00634635
9.81431e-06
0.00635531
9.87578e-06
0.00636423
9.94283e-06
0.00637311
1.00134e-05
0.00638195
1.00844e-05
0.00639073
1.01538e-05
0.00639945
1.02203e-05
0.00640812
1.02855e-05
0.00641671
1.03513e-05
0.00642524
1.04219e-05
0.00643369
1.05014e-05
0.00644206
1.05941e-05
0.00645036
1.07053e-05
0.0064586
1.08358e-05
0.00646678
1.09937e-05
0.00647492
1.1171e-05
0.00648303
1.13841e-05
0.00649113
1.16085e-05
0.00649925
1.18822e-05
0.0065074
1.21477e-05
0.00651559
1.24898e-05
0.00652385
1.27866e-05
0.00653217
1.32124e-05
0.00654057
1.35253e-05
0.00654905
1.40597e-05
0.0065576
1.43642e-05
0.00656626
1.50442e-05
0.00657492
1.53082e-05
0.00658375
1.61818e-05
0.00659248
1.63677e-05
0.00660149
1.74746e-05
0.0066102
1.75505e-05
0.00661942
1.88837e-05
0.006628
1.88511e-05
0.00663739
2.02654e-05
0.00664572
2.02034e-05
0.00665504
2.12806e-05
2.13566e-05
0.00486277
-3.18944e-06
0.00487247
-9.13558e-06
0.0048884
-1.49601e-05
0.00490974
-2.02416e-05
0.00493604
-2.49746e-05
0.0049665
-2.89853e-05
0.00500041
-3.22382e-05
0.00503699
-3.47027e-05
0.00507554
-3.64014e-05
0.00511538
-3.7377e-05
0.00515592
-3.76909e-05
0.00519663
-3.74362e-05
0.00523708
-3.66744e-05
0.00527689
-3.55011e-05
0.00531576
-3.39906e-05
0.00535349
-3.22256e-05
0.00538988
-3.02738e-05
0.00542484
-2.82016e-05
0.00545829
-2.60644e-05
0.00549021
-2.39126e-05
0.00552058
-2.17872e-05
0.00554945
-1.97234e-05
0.00557685
-1.77491e-05
0.00560286
-1.58859e-05
0.00562753
-1.41496e-05
0.00565095
-1.25506e-05
0.0056732
-1.10947e-05
0.00569438
-9.78326e-06
0.00571455
-8.61403e-06
0.00573382
-7.58182e-06
0.00575224
-6.67902e-06
0.0057699
-5.89632e-06
0.00578687
-5.22326e-06
0.00580321
-4.64885e-06
0.00581899
-4.16218e-06
0.00583425
-3.75263e-06
0.00584904
-3.41023e-06
0.00586341
-3.1255e-06
0.00587741
-2.88953e-06
0.00589106
-2.69396e-06
0.00590441
-2.5311e-06
0.00591747
-2.3941e-06
0.00593028
-2.27712e-06
0.00594287
-2.1754e-06
0.00595524
-2.08529e-06
0.00596742
-2.00419e-06
0.00597944
-1.93019e-06
0.00599129
-1.86184e-06
0.00600301
-1.79774e-06
0.00601459
-1.73646e-06
0.00602605
-1.67656e-06
0.0060374
-1.61669e-06
0.00604865
-1.55572e-06
0.00605979
-1.49275e-06
0.00607084
-1.42729e-06
0.00608179
-1.35908e-06
0.00609265
-1.28809e-06
0.00610342
-1.21439e-06
0.00611408
-1.138e-06
0.00612465
-1.0588e-06
0.0061351
-9.76699e-07
0.00614545
-8.91708e-07
0.0061557
-8.04026e-07
0.00616584
-7.14379e-07
0.00617587
-6.23901e-07
0.0061858
-5.33876e-07
0.00619564
-4.45548e-07
0.00620538
-3.59617e-07
0.00621503
-2.76193e-07
0.00622459
-1.94706e-07
0.00623409
-1.14254e-07
0.00624352
-3.38835e-08
0.0062529
4.7762e-08
0.00626224
1.31397e-07
0.00627153
2.17406e-07
0.00628079
3.06179e-07
0.00629
3.981e-07
0.00629918
4.93351e-07
0.00630832
5.92349e-07
0.00631743
6.95571e-07
0.00632649
8.02526e-07
0.00633551
9.12921e-07
0.00634449
1.02599e-06
0.00635343
1.14013e-06
0.00636232
1.25353e-06
0.00637117
1.3649e-06
0.00637997
1.47246e-06
0.00638872
1.57577e-06
0.00639741
1.67529e-06
0.00640604
1.77329e-06
0.00641461
1.87273e-06
0.00642311
1.97772e-06
0.00643154
2.09258e-06
0.0064399
2.22013e-06
0.00644818
2.36582e-06
0.00645641
2.52823e-06
0.00646458
2.71589e-06
0.00647272
2.9187e-06
0.00648082
3.15412e-06
0.00648893
3.39474e-06
0.00649704
3.67951e-06
0.00650519
3.94955e-06
0.00651339
4.28715e-06
0.00652164
4.57551e-06
0.00652997
4.97615e-06
0.00653836
5.27006e-06
0.00654685
5.75041e-06
0.00655539
6.03555e-06
0.00656406
6.61988e-06
0.00657272
6.89033e-06
0.00658155
7.60309e-06
0.00659029
7.8686e-06
0.00659929
8.70689e-06
0.00660802
9.01409e-06
0.00661717
9.9124e-06
0.00662578
1.03734e-05
0.00663499
1.1148e-05
0.0066433
1.19522e-05
0.0066523
1.23096e-05
1.36592e-05
0.00486291
-6.76645e-06
0.00487307
-1.91938e-05
0.0048898
-3.15937e-05
0.00491213
-4.24628e-05
0.00493946
-5.22067e-05
0.0049709
-6.03248e-05
0.00500569
-6.69277e-05
0.00504301
-7.19395e-05
0.00508218
-7.5483e-05
0.00512253
-7.7649e-05
0.00516348
-7.85783e-05
0.00520456
-7.84506e-05
0.00524533
-7.73847e-05
0.00528543
-7.55543e-05
0.00532459
-7.3097e-05
0.00536257
-7.01595e-05
0.00539921
-6.6866e-05
0.00543439
-6.33343e-05
0.00546804
-5.96645e-05
0.00550013
-5.59457e-05
0.00553066
-5.22513e-05
0.00555966
-4.86436e-05
0.00558716
-4.51718e-05
0.00561324
-4.18739e-05
0.00563797
-3.87779e-05
0.00566142
-3.59023e-05
0.0056837
-3.32577e-05
0.00570488
-3.08473e-05
0.00572505
-2.86687e-05
0.0057443
-2.6714e-05
0.00576271
-2.49721e-05
0.00578035
-2.34288e-05
0.00579729
-2.20683e-05
0.00581361
-2.08741e-05
0.00582936
-1.98296e-05
0.00584459
-1.89187e-05
0.00585936
-1.81255e-05
0.00587371
-1.74351e-05
0.00588769
-1.68333e-05
0.00590132
-1.63067e-05
0.00591465
-1.58432e-05
0.0059277
-1.54321e-05
0.0059405
-1.50642e-05
0.00595306
-1.47316e-05
0.00596542
-1.44283e-05
0.00597759
-1.41497e-05
0.00598958
-1.38922e-05
0.00600142
-1.36531e-05
0.00601311
-1.34298e-05
0.00602467
-1.32197e-05
0.00603611
-1.30205e-05
0.00604743
-1.28298e-05
0.00605865
-1.26458e-05
0.00606976
-1.24666e-05
0.00608077
-1.22908e-05
0.00609168
-1.21171e-05
0.00610249
-1.19444e-05
0.0061132
-1.17714e-05
0.00612381
-1.15976e-05
0.00613432
-1.14224e-05
0.00614471
-1.12458e-05
0.00615499
-1.10682e-05
0.00616517
-1.08902e-05
0.00617523
-1.07129e-05
0.00618519
-1.05374e-05
0.00619505
-1.03649e-05
0.00620481
-1.01962e-05
0.00621447
-1.00319e-05
0.00622403
-9.87154e-06
0.00623351
-9.71477e-06
0.00624292
-9.56071e-06
0.00625225
-9.40851e-06
0.00626152
-9.25703e-06
0.00627073
-9.10485e-06
0.0062799
-8.95052e-06
0.00628901
-8.79256e-06
0.00629807
-8.62978e-06
0.00630709
-8.4617e-06
0.00631606
-8.28811e-06
0.00632498
-8.11009e-06
0.00633385
-7.93066e-06
0.00634268
-7.75236e-06
0.00635147
-7.57765e-06
0.00636021
-7.40924e-06
0.00636891
-7.24864e-06
0.00637757
-7.09632e-06
0.00638618
-6.95311e-06
0.00639474
-6.81818e-06
0.00640326
-6.68911e-06
0.00641172
-6.56232e-06
0.00642012
-6.43314e-06
0.00642846
-6.29665e-06
0.00643673
-6.14793e-06
0.00644493
-5.98466e-06
0.00645307
-5.80172e-06
0.00646113
-5.60163e-06
0.00646914
-5.37721e-06
0.00647709
-5.13943e-06
0.00648501
-4.87308e-06
0.00649291
-4.60564e-06
0.00650081
-4.3022e-06
0.00650873
-4.0186e-06
0.00651668
-3.68124e-06
0.00652468
-3.39557e-06
0.00653274
-3.01907e-06
0.00654087
-2.74245e-06
0.0065491
-2.31756e-06
0.00655738
-2.05693e-06
0.00656578
-1.56807e-06
0.0065742
-1.30616e-06
0.00658278
-7.44794e-07
0.00659131
-4.31559e-07
0.00660007
1.64852e-07
0.00660863
6.48044e-07
0.00661755
1.16343e-06
0.00662601
2.04173e-06
0.00663503
2.23933e-06
0.00664321
3.83921e-06
0.00665207
3.49128e-06
6.08148e-06
0.00486323
-1.06483e-05
0.00487352
-2.93847e-05
0.00489041
-4.8382e-05
0.00491313
-6.50828e-05
0.00494121
-8.01845e-05
0.00497379
-9.28067e-05
0.00501009
-0.000103127
0.00504922
-0.000110978
0.00509037
-0.000116557
0.00513279
-0.000119984
0.00517577
-0.000121491
0.00521877
-0.000121386
0.00526128
-0.000119839
0.0053029
-0.000117126
0.00534332
-0.000113472
0.00538231
-0.000109105
0.00541971
-0.000104217
0.00545541
-9.89874e-05
0.00548937
-9.35646e-05
0.00552156
-8.80794e-05
0.00555201
-8.26388e-05
0.00558077
-7.73318e-05
0.00560791
-7.22285e-05
0.00563351
-6.73816e-05
0.00565766
-6.28295e-05
0.00568046
-5.85971e-05
0.00570201
-5.46974e-05
0.00572241
-5.11335e-05
0.00574176
-4.79001e-05
0.00576015
-4.49847e-05
0.00577766
-4.23701e-05
0.00579437
-4.00356e-05
0.00581036
-3.79585e-05
0.0058257
-3.61155e-05
0.00584043
-3.44838e-05
0.00585462
-3.30406e-05
0.00586832
-3.17645e-05
0.00588157
-3.06346e-05
0.0058944
-2.96313e-05
0.00590685
-2.87362e-05
0.00591896
-2.79323e-05
0.00593075
-2.72046e-05
0.00594223
-2.65404e-05
0.00595344
-2.59292e-05
0.00596439
-2.53631e-05
0.0059751
-2.4836e-05
0.00598558
-2.43432e-05
0.00599586
-2.38809e-05
0.00600593
-2.34454e-05
0.00601582
-2.30334e-05
0.00602553
-2.26418e-05
0.00603508
-2.22681e-05
0.00604446
-2.19098e-05
0.00605369
-2.15646e-05
0.00606277
-2.12298e-05
0.0060717
-2.09026e-05
0.00608049
-2.05802e-05
0.00608913
-2.02605e-05
0.00609762
-1.99422e-05
0.00610596
-1.96245e-05
0.00611414
-1.93071e-05
0.00612217
-1.89903e-05
0.00613004
-1.86744e-05
0.00613776
-1.83605e-05
0.00614532
-1.80501e-05
0.00615273
-1.77445e-05
0.00615999
-1.74451e-05
0.0061671
-1.71526e-05
0.00617408
-1.6867e-05
0.00618092
-1.65883e-05
0.00618765
-1.6316e-05
0.00619426
-1.60501e-05
0.00620076
-1.57895e-05
0.00620718
-1.55325e-05
0.00621351
-1.52769e-05
0.00621976
-1.50201e-05
0.00622593
-1.47597e-05
0.00623203
-1.44944e-05
0.00623806
-1.42233e-05
0.00624401
-1.39483e-05
0.00624989
-1.36736e-05
0.00625569
-1.34036e-05
0.00626143
-1.31418e-05
0.00626709
-1.28913e-05
0.00627267
-1.26536e-05
0.00627818
-1.24294e-05
0.00628361
-1.22185e-05
0.00628896
-1.20193e-05
0.00629423
-1.18284e-05
0.00629941
-1.1642e-05
0.00630451
-1.14544e-05
0.00630953
-1.12605e-05
0.00631446
-1.10552e-05
0.0063193
-1.08371e-05
0.00632407
-1.06015e-05
0.00632876
-1.03522e-05
0.0063334
-1.00826e-05
0.00633799
-9.8039e-06
0.00634255
-9.50313e-06
0.00634709
-9.20625e-06
0.00635163
-8.88174e-06
0.00635619
-8.58142e-06
0.00636077
-8.24027e-06
0.0063654
-7.9535e-06
0.00637007
-7.59674e-06
0.0063748
-7.33481e-06
0.0063796
-6.95593e-06
0.00638444
-6.72163e-06
0.00638938
-6.3132e-06
0.00639435
-6.08108e-06
0.00639943
-5.64268e-06
0.00640452
-5.34049e-06
0.00640977
-4.91895e-06
0.00641495
-4.39224e-06
0.00642035
-4.12329e-06
0.00642557
-3.09746e-06
0.00643109
-3.22577e-06
0.00643627
-1.31822e-06
0.00644178
-2.01982e-06
1.04469e-06
0.00486474
-1.59869e-05
0.00487746
-4.2005e-05
0.00489798
-6.88015e-05
0.00492508
-9.20785e-05
0.00495788
-0.000112887
0.00499527
-0.000130091
0.0050361
-0.000143866
0.00507924
-0.000154023
0.00512362
-0.000160855
0.00516826
-0.000164552
0.00521233
-0.000165491
0.00525517
-0.000164164
0.00529622
-0.000160833
0.00533508
-0.000155932
0.00537147
-0.000149818
0.00540525
-0.000142832
0.00543634
-0.000135262
0.00546476
-0.000127361
0.00549059
-0.000119335
0.00551392
-0.000111358
0.00553491
-0.000103564
0.00555372
-9.60616e-05
0.0055705
-8.893e-05
0.00558543
-8.2224e-05
0.00559868
-7.59795e-05
0.0056104
-7.02152e-05
0.00562075
-6.49347e-05
0.00562986
-6.01301e-05
0.00563786
-5.57836e-05
0.00564485
-5.18705e-05
0.00565095
-4.83614e-05
0.00565625
-4.52237e-05
0.00566081
-4.24242e-05
0.00566471
-3.99294e-05
0.00566801
-3.7708e-05
0.00567076
-3.57297e-05
0.00567301
-3.39663e-05
0.00567481
-3.23916e-05
0.0056762
-3.09807e-05
0.0056772
-2.97109e-05
0.00567785
-2.85613e-05
0.00567818
-2.75135e-05
0.00567821
-2.65523e-05
0.00567797
-2.56652e-05
0.00567748
-2.48423e-05
0.00567676
-2.40762e-05
0.00567583
-2.33607e-05
0.00567471
-2.26907e-05
0.0056734
-2.20612e-05
0.00567193
-2.14681e-05
0.0056703
-2.09071e-05
0.00566852
-2.03747e-05
0.00566661
-1.98672e-05
0.00566455
-1.93814e-05
0.00566237
-1.89139e-05
0.00566006
-1.84617e-05
0.00565763
-1.80221e-05
0.00565508
-1.75926e-05
0.00565242
-1.71715e-05
0.00564964
-1.67578e-05
0.00564676
-1.6351e-05
0.00564379
-1.59512e-05
0.00564072
-1.55589e-05
0.00563757
-1.51749e-05
0.00563434
-1.48004e-05
0.00563104
-1.44361e-05
0.00562768
-1.40828e-05
0.00562427
-1.37404e-05
0.00562081
-1.34084e-05
0.00561731
-1.30864e-05
0.00561379
-1.27744e-05
0.00561023
-1.2472e-05
0.00560666
-1.21785e-05
0.00560308
-1.18924e-05
0.00559949
-1.16122e-05
0.00559589
-1.13359e-05
0.0055923
-1.1062e-05
0.00558871
-1.07888e-05
0.00558513
-1.05144e-05
0.00558157
-1.02401e-05
0.005578
-9.96911e-06
0.00557445
-9.70513e-06
0.00557089
-9.45069e-06
0.00556733
-9.20625e-06
0.00556376
-8.97042e-06
0.00556017
-8.74356e-06
0.00555655
-8.5271e-06
0.0055529
-8.32108e-06
0.00554923
-8.12386e-06
0.00554553
-7.93354e-06
0.00554181
-7.74599e-06
0.00553808
-7.55881e-06
0.00553436
-7.36862e-06
0.00553066
-7.17678e-06
0.00552701
-6.97893e-06
0.00552342
-6.77963e-06
0.00551992
-6.57047e-06
0.00551652
-6.36274e-06
0.00551322
-6.14077e-06
0.00551004
-5.92861e-06
0.00550698
-5.69404e-06
0.00550403
-5.48542e-06
0.00550118
-5.24106e-06
0.00549844
-5.04726e-06
0.00549579
-4.7891e-06
0.00549322
-4.61683e-06
0.00549075
-4.34344e-06
0.00548834
-4.20079e-06
0.00548603
-3.90726e-06
0.00548379
-3.77204e-06
0.00548165
-3.45989e-06
0.00547961
-3.28284e-06
0.00547768
-2.99638e-06
0.00547592
-2.65806e-06
0.00547425
-2.49062e-06
0.00547289
-1.79591e-06
0.0054715
-1.89859e-06
0.00547075
-6.14543e-07
0.00546971
-1.04946e-06
9.32133e-07
0.00486672
-2.32882e-05
0.00488454
-5.97218e-05
0.00491263
-9.67873e-05
0.0049465
-0.000125851
0.00498214
-0.000148423
0.0050159
-0.000163756
0.00504507
-0.000172935
0.00506787
-0.000176734
0.00508344
-0.00017635
0.00509155
-0.000172579
0.00509249
-0.00016636
0.00508695
-0.000158565
0.00507569
-0.000149511
0.00505953
-0.000139724
0.00503935
-0.000129592
0.00501598
-0.000119407
0.00499015
-0.000109379
0.00496252
-9.96697e-05
0.00493364
-9.03933e-05
0.00490398
-8.16309e-05
0.00487393
-7.34375e-05
0.00484379
-6.58414e-05
0.00481381
-5.88587e-05
0.00478417
-5.24887e-05
0.004755
-4.67194e-05
0.00472642
-4.15298e-05
0.00469848
-3.68909e-05
0.00467121
-3.27683e-05
0.00464465
-2.91232e-05
0.00461878
-2.59144e-05
0.00459361
-2.31002e-05
0.0045691
-2.06388e-05
0.00454523
-1.84922e-05
0.00452198
-1.66239e-05
0.00449933
-1.50015e-05
0.00447724
-1.35961e-05
0.00445569
-1.23813e-05
0.00443467
-1.13329e-05
0.00441416
-1.04286e-05
0.00439414
-9.64762e-06
0.0043746
-8.97082e-06
0.00435553
-8.38121e-06
0.00433691
-7.86473e-06
0.00431874
-7.41046e-06
0.004301
-7.01026e-06
0.00428368
-6.65783e-06
0.00426677
-6.34707e-06
0.00425027
-6.07215e-06
0.00423415
-5.82715e-06
0.0042184
-5.60727e-06
0.004203
-5.409e-06
0.00418795
-5.22971e-06
0.00417323
-5.06691e-06
0.00415884
-4.91827e-06
0.00414476
-4.78132e-06
0.004131
-4.65319e-06
0.00411755
-4.53244e-06
0.0041044
-4.41789e-06
0.00409156
-4.30833e-06
0.00407903
-4.20297e-06
0.00406682
-4.10187e-06
0.00405491
-4.00471e-06
0.00404332
-3.91108e-06
0.00403203
-3.82134e-06
0.00402105
-3.73529e-06
0.00401035
-3.65276e-06
0.00399994
-3.5738e-06
0.0039898
-3.49767e-06
0.00397992