/*--------------------------------*- C++ -*----------------------------------*\
  =========                 |
  \\      /  F ield         | OpenFOAM: The Open Source CFD Toolbox
   \\    /   O peration     | Website:  https://openfoam.org
    \\  /    A nd           | Version:  7
     \\/     M anipulation  |
\*---------------------------------------------------------------------------*/
FoamFile
{
    version     2.0;
    format      ascii;
    class       volScalarField;
    location    "4.15";
    object      k_0;
}
// * * * * * * * * * * * * * * * * * * * * * * * * * * * * * * * * * * * * * //

dimensions      [0 2 -2 0 0 0 0];

internalField   nonuniform List<scalar> 
2640
(
0.116638
0.670772
1.2741
1.60479
1.65735
1.61335
1.50418
1.37458
1.26101
1.1671
1.09157
1.03119
0.982511
0.942612
0.909288
0.880811
0.855999
0.834026
0.814272
0.796323
0.77985
0.764664
0.750587
0.737503
0.725284
0.713863
0.703148
0.693095
0.683635
0.674712
0.666317
0.658298
0.650847
0.643456
0.636974
0.629752
0.624528
0.61684
0.611512
0.61643
0.0015471
0.0335255
0.121421
0.287313
0.422217
0.515068
0.570244
0.596383
0.607606
0.608753
0.607574
0.604726
0.600854
0.596903
0.592986
0.589172
0.585447
0.581793
0.57819
0.574626
0.571082
0.567575
0.56406
0.560604
0.557103
0.553635
0.550128
0.546737
0.543264
0.54003
0.536564
0.533582
0.530029
0.527447
0.523645
0.52161
0.517497
0.515683
0.510174
0.510529
2.57666e-05
0.00055891
0.00365989
0.013169
0.033213
0.0587624
0.084053
0.105493
0.122649
0.135727
0.145745
0.153647
0.160068
0.165586
0.170513
0.175158
0.179606
0.184029
0.188376
0.192788
0.197121
0.201549
0.205836
0.210236
0.214407
0.218787
0.222789
0.227075
0.230795
0.234946
0.238299
0.242309
0.245242
0.249109
0.251629
0.255293
0.25753
0.260754
0.263078
0.265466
2.01018e-05
2.58717e-05
8.20367e-05
0.000336657
0.00106939
0.00263283
0.00518932
0.00824824
0.0114852
0.0146238
0.0175643
0.0202432
0.0227045
0.0249358
0.0270244
0.0289485
0.030808
0.0325519
0.0342913
0.0359415
0.0376331
0.0392447
0.0409375
0.0425451
0.0442732
0.045898
0.0476897
0.0493424
0.0512189
0.0528988
0.0548791
0.0565753
0.0586812
0.0603718
0.0626316
0.064281
0.0667306
0.068297
0.0709968
0.0725716
2.00444e-05
2.04995e-05
2.21324e-05
2.7592e-05
4.35164e-05
8.13422e-05
0.000175861
0.000277984
0.000498586
0.000641142
0.000933157
0.00109296
0.00141366
0.00158358
0.00191777
0.0020957
0.00244249
0.0026285
0.00298913
0.003183
0.00355786
0.00375889
0.00414811
0.00435559
0.0047595
0.00497329
0.00539276
0.00561341
0.00604985
0.00627859
0.006734
0.00697272
0.00744981
0.00770093
0.00820326
0.00846914
0.0090014
0.00928669
0.00986554
0.0101918
2.00233e-05
2.03764e-05
2.15007e-05
2.31221e-05
2.6686e-05
2.89158e-05
3.36917e-05
3.64673e-05
4.26799e-05
4.6212e-05
5.39507e-05
5.82168e-05
6.73656e-05
7.23991e-05
8.30639e-05
8.89973e-05
0.000101494
0.000108486
0.00012314
0.000131312
0.000148366
0.000157803
0.000177419
0.000188183
0.000210479
0.000222626
0.000247717
0.000261316
0.000289339
0.000304487
0.000335633
0.000352473
0.00038703
0.000405771
0.000444172
0.000465102
0.000508032
0.000531725
0.000581241
0.000609451
2.00233e-05
2.03764e-05
2.15007e-05
2.31221e-05
2.66865e-05
2.89154e-05
3.36913e-05
3.64664e-05
4.2679e-05
4.62105e-05
5.39489e-05
5.82142e-05
6.73687e-05
7.23974e-05
8.30661e-05
8.89915e-05
0.000101489
0.000108468
0.000123116
0.000131267
0.000148297
0.0001577
0.00017726
0.000187962
0.000210141
0.000222173
0.00024703
0.000260413
0.000287984
0.000302724
0.000333019
0.000349093
0.00038207
0.000399381
0.000434881
0.000453164
0.000490832
0.000509793
0.000550093
0.000570451
2.00444e-05
2.04995e-05
2.21324e-05
2.7592e-05
4.35161e-05
8.12156e-05
0.000175929
0.000277897
0.000498634
0.000641047
0.000933189
0.00109285
0.0014146
0.00158248
0.00191922
0.00209395
0.00244422
0.0026262
0.00299088
0.00318014
0.00355918
0.00375544
0.0041483
0.00435132
0.00475762
0.00496742
0.00538735
0.00560419
0.00603843
0.00626271
0.00671214
0.00694417
0.00740951
0.00764906
0.00813001
0.00837541
0.00886939
0.00911893
0.0096314
0.00989871
2.01018e-05
2.58717e-05
8.20367e-05
0.000336657
0.00106937
0.00262142
0.00520081
0.00823633
0.0114974
0.0146108
0.0175779
0.0202284
0.0227198
0.0249186
0.0270417
0.0289283
0.0308276
0.0325277
0.0343134
0.035912
0.0376573
0.039208
0.0409628
0.0424982
0.0442973
0.0458363
0.0477075
0.0492581
0.0512209
0.0527791
0.0548477
0.0563994
0.0585846
0.0601052
0.062413
0.0638668
0.0662898
0.0676395
0.0701595
0.0715119
2.57666e-05
0.00055891
0.00365989
0.013169
0.0332122
0.0587631
0.0840528
0.105493
0.12265
0.135726
0.145746
0.153645
0.160069
0.165582
0.170514
0.175151
0.179608
0.184019
0.188378
0.19277
0.197123
0.20152
0.205835
0.210188
0.2144
0.218705
0.22277
0.226939
0.230753
0.234721
0.238213
0.241941
0.245073
0.24852
0.251297
0.254382
0.256856
0.259401
0.261667
0.263537
0.0015471
0.0335255
0.121421
0.287312
0.422217
0.515068
0.570244
0.596383
0.607605
0.608753
0.607574
0.604725
0.600853
0.596902
0.592984
0.58917
0.585444
0.581789
0.578185
0.57462
0.571074
0.567567
0.564046
0.560592
0.557081
0.553623
0.550093
0.546725
0.543207
0.54002
0.536476
0.533575
0.529903
0.527428
0.523508
0.521507
0.517319
0.515521
0.509867
0.510093
0.116638
0.670772
1.2741
1.60479
1.65735
1.61335
1.50418
1.37458
1.26101
1.1671
1.09158
1.0312
0.982516
0.942618
0.909295
0.880821
0.856014
0.834044
0.814297
0.796356
0.779892
0.764721
0.750661
0.737602
0.72541
0.714036
0.703361
0.693396
0.68399
0.675234
0.666904
0.659202
0.651802
0.645027
0.638495
0.632492
0.626885
0.621473
0.615554
0.622452
1.06627
1.20868
1.23694
1.23074
1.21641
1.20501
1.19677
1.19052
1.1856
1.18191
1.17949
1.1781
1.17775
1.17825
1.17952
1.18154
1.18413
1.18727
1.19089
1.19491
1.19928
1.20393
1.20882
1.21389
1.21911
1.22445
1.22986
1.23532
1.24082
1.24634
1.25187
1.2574
1.26292
1.26842
1.27391
1.27938
1.28484
1.29027
1.29569
1.30109
1.30647
1.31184
1.31719
1.32253
1.32785
1.33316
1.33846
1.34376
1.34904
1.35433
1.35961
1.36488
1.37016
1.37543
1.38071
1.38598
1.39125
1.39651
1.40177
1.40702
1.41225
1.41747
1.42266
1.42783
1.43298
1.43808
1.44315
1.44818
1.45317
1.45811
1.46301
1.46786
1.47267
1.47743
1.48215
1.48684
1.49148
1.49609
1.50067
1.50522
1.50975
1.51426
1.51875
1.52323
1.5277
1.53217
1.53662
1.54108
1.54553
1.54998
1.55444
1.5589
1.56336
1.56782
1.57229
1.57676
1.58124
1.58572
1.5902
1.59468
1.59917
1.60365
1.60813
1.6126
1.61707
1.62153
1.62598
1.63042
1.63484
1.63924
1.64362
1.64798
1.65231
1.6566
1.66087
1.6651
1.6693
1.67346
1.67759
1.68167
1.68572
1.68974
1.69372
1.69766
1.70158
1.70547
1.70933
1.71316
1.71697
1.72077
1.72454
1.7283
1.73205
1.73578
1.7395
1.74322
1.74692
1.75062
1.75431
1.75799
1.76167
1.76533
1.76899
1.77264
1.77628
1.7799
1.78352
1.78713
1.79072
1.7943
1.79787
1.80143
1.80498
1.80851
1.81202
1.81553
1.81901
1.82249
1.82594
1.82938
1.83279
1.83619
1.83957
1.84293
1.84625
1.84957
1.85284
1.85611
1.85931
1.86256
1.86566
1.86891
1.87187
1.8752
1.8779
1.88148
1.88368
1.88781
1.8893
1.8944
0.881513
1.13707
1.2141
1.23288
1.23182
1.22709
1.22102
1.21673
1.21407
1.21268
1.21267
1.21328
1.21483
1.21724
1.22024
1.22379
1.2278
1.2322
1.23694
1.24197
1.24722
1.25267
1.25827
1.264
1.26981
1.2757
1.28164
1.28762
1.29362
1.29963
1.30564
1.31165
1.31766
1.32365
1.32963
1.33559
1.34153
1.34745
1.35335
1.35923
1.36508
1.37092
1.37673
1.38252
1.38828
1.39403
1.39975
1.40545
1.41113
1.41679
1.42243
1.42804
1.43363
1.4392
1.44475
1.45028
1.45579
1.46127
1.46674
1.47218
1.4776
1.48301
1.48839
1.49376
1.49911
1.50444
1.50975
1.51505
1.52033
1.52559
1.53084
1.53607
1.54128
1.54647
1.55165
1.55682
1.56196
1.56709
1.5722
1.5773
1.58237
1.58743
1.59248
1.5975
1.60251
1.6075
1.61248
1.61744
1.62238
1.62731
1.63222
1.63711
1.64199
1.64685
1.65169
1.65652
1.66133
1.66613
1.67091
1.67567
1.68042
1.68515
1.68987
1.69456
1.69924
1.70391
1.70855
1.71318
1.7178
1.72239
1.72697
1.73154
1.73608
1.74061
1.74513
1.74963
1.75411
1.75858
1.76303
1.76746
1.77188
1.77629
1.78068
1.78505
1.78941
1.79375
1.79808
1.80239
1.80668
1.81096
1.81522
1.81946
1.82369
1.8279
1.83209
1.83626
1.84042
1.84456
1.84868
1.85278
1.85687
1.86093
1.86498
1.86901
1.87302
1.87702
1.88099
1.88495
1.88889
1.89281
1.89671
1.90058
1.90444
1.90828
1.9121
1.91589
1.91967
1.92342
1.92715
1.93086
1.93455
1.93822
1.94186
1.94548
1.94908
1.95267
1.9562
1.95977
1.96324
1.9668
1.97016
1.97377
1.97697
1.98072
1.9836
1.9877
1.99002
1.99471
1.99653
2.00193
0.405277
0.640603
0.772877
0.836852
0.864228
0.87565
0.880459
0.883194
0.885611
0.888226
0.891329
0.894773
0.898566
0.902697
0.907071
0.911637
0.916333
0.921112
0.925936
0.930772
0.935598
0.940397
0.945157
0.949871
0.954537
0.959154
0.963724
0.96825
0.972736
0.977185
0.981601
0.985988
0.990348
0.994685
0.999
1.0033
1.00758
1.01184
1.01609
1.02033
1.02455
1.02876
1.03296
1.03715
1.04133
1.0455
1.04965
1.0538
1.05793
1.06206
1.06617
1.07027
1.07437
1.07845
1.08252
1.08658
1.09063
1.09467
1.09869
1.10271
1.10672
1.11072
1.11471
1.11868
1.12265
1.12661
1.13056
1.1345
1.13843
1.14235
1.14626
1.15016
1.15405
1.15793
1.1618
1.16566
1.16951
1.17335
1.17718
1.18099
1.1848
1.18859
1.19237
1.19614
1.1999
1.20365
1.20738
1.21111
1.21482
1.21852
1.22221
1.22589
1.22955
1.23321
1.23685
1.24048
1.2441
1.24771
1.25131
1.2549
1.25847
1.26203
1.26559
1.26913
1.27266
1.27617
1.27968
1.28318
1.28666
1.29013
1.2936
1.29705
1.30049
1.30392
1.30734
1.31075
1.31415
1.31753
1.32091
1.32428
1.32764
1.33099
1.33432
1.33765
1.34097
1.34427
1.34756
1.35085
1.35412
1.35738
1.36062
1.36386
1.36708
1.37029
1.37349
1.37667
1.37985
1.38301
1.38615
1.38929
1.39241
1.39552
1.39861
1.4017
1.40477
1.40783
1.41088
1.41392
1.41694
1.41995
1.42295
1.42594
1.42892
1.43188
1.43483
1.43777
1.44069
1.44361
1.44651
1.44939
1.45227
1.45513
1.45797
1.46081
1.46362
1.46645
1.46922
1.47204
1.47475
1.47758
1.4802
1.48311
1.48556
1.48863
1.49081
1.49416
1.49596
1.49965
1.50123
1.50545
0.0965665
0.175975
0.277604
0.368019
0.435007
0.480929
0.511911
0.533295
0.548811
0.560782
0.570667
0.579253
0.586982
0.59411
0.60076
0.606996
0.612842
0.618314
0.623424
0.628188
0.632627
0.636764
0.640626
0.644242
0.647642
0.650854
0.653905
0.656822
0.659627
0.662339
0.664978
0.667557
0.67009
0.672588
0.675058
0.677509
0.679945
0.682372
0.684793
0.687211
0.689628
0.692045
0.694463
0.696884
0.699306
0.701732
0.704159
0.70659
0.709022
0.711457
0.713893
0.716331
0.71877
0.72121
0.723651
0.726092
0.728533
0.730974
0.733415
0.735855
0.738295
0.740734
0.743171
0.745608
0.748043
0.750476
0.752908
0.755338
0.757765
0.76019
0.762613
0.765032
0.767448
0.769861
0.772271
0.774677
0.777078
0.779476
0.78187
0.784259
0.786643
0.789023
0.791398
0.793768
0.796133
0.798492
0.800847
0.803196
0.80554
0.807879
0.810212
0.81254
0.814862
0.817178
0.819489
0.821794
0.824093
0.826386
0.828674
0.830955
0.833231
0.835501
0.837765
0.840023
0.842275
0.844521
0.846762
0.848996
0.851225
0.853448
0.855665
0.857876
0.860081
0.86228
0.864474
0.866662
0.868844
0.87102
0.87319
0.875355
0.877513
0.879666
0.881813
0.883954
0.886088
0.888217
0.89034
0.892456
0.894566
0.89667
0.898768
0.900859
0.902944
0.905022
0.907094
0.90916
0.911219
0.913271
0.915317
0.917356
0.91939
0.921416
0.923437
0.925451
0.92746
0.929462
0.931458
0.933448
0.935433
0.937412
0.939384
0.941352
0.943313
0.94527
0.94722
0.949166
0.951105
0.953041
0.954967
0.956894
0.958807
0.960726
0.962623
0.964537
0.966413
0.968329
0.970176
0.972104
0.973905
0.975869
0.977593
0.979632
0.981231
0.983402
0.984815
0.987168
0.988389
0.990892
0.992018
0.99494
0.0126949
0.0212161
0.0387663
0.0682886
0.10455
0.142264
0.177967
0.209853
0.237358
0.260666
0.280319
0.296917
0.310992
0.322987
0.333243
0.342041
0.349589
0.356062
0.361605
0.366345
0.370392
0.373844
0.376788
0.379302
0.381456
0.38331
0.384916
0.386321
0.387562
0.388675
0.389687
0.39062
0.391496
0.392329
0.393132
0.393916
0.39469
0.395458
0.396228
0.397002
0.397783
0.398573
0.399375
0.400188
0.401013
0.401851
0.402701
0.403563
0.404438
0.405323
0.406221
0.407128
0.408046
0.408974
0.409911
0.410857
0.411811
0.412773
0.413743
0.41472
0.415704
0.416694
0.417691
0.418693
0.419701
0.420713
0.421731
0.422753
0.423778
0.424808
0.425841
0.426878
0.427917
0.428959
0.430003
0.431049
0.432097
0.433147
0.434199
0.435252
0.436306
0.43736
0.438416
0.439473
0.44053
0.441587
0.442645
0.443702
0.44476
0.445818
0.446875
0.447932
0.448989
0.450045
0.4511
0.452155
0.453209
0.454262
0.455314
0.456365
0.457414
0.458463
0.459511
0.460557
0.461602
0.462646
0.463688
0.464729
0.465769
0.466808
0.467845
0.468881
0.469915
0.470947
0.471978
0.473008
0.474035
0.475061
0.476085
0.477108
0.478128
0.479147
0.480163
0.481178
0.482191
0.483202
0.484211
0.485218
0.486223
0.487226
0.488227
0.489227
0.490224
0.49122
0.492214
0.493207
0.494198
0.495187
0.496174
0.49716
0.498144
0.499127
0.500109
0.501089
0.502067
0.503045
0.504021
0.504997
0.50597
0.506944
0.507916
0.508888
0.509858
0.510829
0.511797
0.512769
0.513735
0.514707
0.51567
0.516644
0.517604
0.518583
0.519535
0.520522
0.521463
0.522464
0.523385
0.524412
0.5253
0.526367
0.527204
0.528331
0.529098
0.530302
0.53099
0.532264
0.532904
0.534218
0.534833
0.536405
0.000771449
0.00121309
0.00214453
0.00410308
0.0080407
0.0143958
0.0232273
0.0342316
0.0468156
0.0602991
0.0740351
0.087495
0.100272
0.112103
0.122829
0.132397
0.140812
0.148124
0.154416
0.159781
0.164323
0.168143
0.171336
0.173993
0.176194
0.178011
0.179507
0.180737
0.181748
0.18258
0.183268
0.183839
0.18432
0.184728
0.185082
0.185394
0.185677
0.185938
0.186186
0.186426
0.186662
0.1869
0.187141
0.187388
0.187642
0.187904
0.188176
0.188457
0.188749
0.18905
0.189362
0.189684
0.190016
0.190357
0.190708
0.191068
0.191437
0.191814
0.192199
0.192593
0.192993
0.193401
0.193816
0.194237
0.194665
0.195098
0.195537
0.195982
0.196431
0.196885
0.197344
0.197807
0.198274
0.198745
0.199219
0.199697
0.200178
0.200662
0.201149
0.201638
0.20213
0.202624
0.203121
0.203619
0.20412
0.204623
0.205127
0.205633
0.206141
0.20665
0.20716
0.207672
0.208185
0.2087
0.209215
0.209731
0.210248
0.210766
0.211284
0.211804
0.212323
0.212843
0.213364
0.213885
0.214407
0.214928
0.21545
0.215972
0.216495
0.217017
0.21754
0.218062
0.218585
0.219107
0.21963
0.220152
0.220674
0.221196
0.221717
0.222238
0.222759
0.223279
0.223799
0.224318
0.224837
0.225355
0.225873
0.22639
0.226906
0.227422
0.227938
0.228453
0.228967
0.229481
0.229994
0.230506
0.231019
0.23153
0.232041
0.232552
0.233062
0.233571
0.23408
0.234589
0.235097
0.235605
0.236111
0.236619
0.237124
0.237631
0.238135
0.238641
0.239144
0.23965
0.24015
0.240658
0.241155
0.241665
0.242158
0.242672
0.243158
0.243679
0.244155
0.244687
0.245147
0.245696
0.246136
0.246707
0.247119
0.247719
0.248099
0.24873
0.249078
0.249734
0.250065
0.25073
0.251055
0.251724
0.252045
0.252858
0.000720658
0.00106483
0.00176797
0.00329725
0.00643351
0.0119456
0.0199868
0.0304239
0.0427859
0.0564446
0.0707211
0.0850308
0.0988771
0.111943
0.123977
0.134935
0.144766
0.153485
0.161152
0.167854
0.17369
0.178761
0.183167
0.187001
0.190347
0.193281
0.195869
0.198169
0.20023
0.202095
0.203798
0.205371
0.206838
0.208221
0.209536
0.210798
0.212019
0.213208
0.214372
0.215519
0.216652
0.217776
0.218894
0.220008
0.22112
0.222232
0.223343
0.224456
0.22557
0.226685
0.227802
0.228922
0.230043
0.231166
0.232291
0.233417
0.234545
0.235675
0.236806
0.237937
0.23907
0.240204
0.241338
0.242472
0.243607
0.244742
0.245878
0.247012
0.248147
0.249281
0.250414
0.251547
0.252678
0.253809
0.254938
0.256066
0.257193
0.258318
0.259442
0.260564
0.261685
0.262804
0.263922
0.265037
0.266152
0.267264
0.268375
0.269484
0.270591
0.271697
0.272801
0.273904
0.275004
0.276103
0.2772
0.278295
0.279388
0.280479
0.281568
0.282655
0.283739
0.284822
0.285902
0.28698
0.288056
0.28913
0.290201
0.29127
0.292336
0.2934
0.294461
0.29552
0.296577
0.297631
0.298682
0.299731
0.300777
0.30182
0.302861
0.303898
0.304933
0.305966
0.306995
0.308021
0.309045
0.310066
0.311083
0.312098
0.31311
0.314118
0.315124
0.316127
0.317126
0.318122
0.319115
0.320105
0.321092
0.322075
0.323055
0.324032
0.325005
0.325975
0.326942
0.327905
0.328864
0.32982
0.330772
0.331721
0.332666
0.333608
0.334544
0.335479
0.336407
0.337335
0.338254
0.339176
0.340085
0.341001
0.341899
0.342811
0.343696
0.344606
0.345474
0.346386
0.347231
0.348152
0.348967
0.349905
0.350679
0.351646
0.352366
0.353376
0.354029
0.355089
0.355676
0.356777
0.357322
0.358442
0.35896
0.360294
0.0122047
0.0198964
0.0355161
0.0626125
0.0977865
0.135936
0.173285
0.207667
0.238187
0.264766
0.287743
0.307575
0.324742
0.339615
0.352575
0.363801
0.37356
0.382052
0.389451
0.395905
0.401546
0.406489
0.410836
0.414679
0.418098
0.421162
0.423933
0.426461
0.428792
0.430963
0.433006
0.434947
0.436809
0.438608
0.440359
0.442076
0.443766
0.445438
0.447098
0.44875
0.450398
0.452045
0.453694
0.455344
0.456998
0.458657
0.46032
0.461988
0.463662
0.465341
0.467024
0.468713
0.470406
0.472103
0.473805
0.475511
0.477221
0.478935
0.480651
0.482371
0.484094
0.485819
0.487546
0.489276
0.491007
0.49274
0.494474
0.496209
0.497945
0.499682
0.501418
0.503155
0.504892
0.506629
0.508364
0.5101
0.511834
0.513568
0.515301
0.517032
0.518763
0.520492
0.522219
0.523945
0.52567
0.527393
0.529115
0.530834
0.532552
0.534268
0.535982
0.537694
0.539404
0.541112
0.542818
0.544521
0.546221
0.54792
0.549615
0.551308
0.552998
0.554685
0.556369
0.55805
0.559728
0.561403
0.563074
0.564742
0.566407
0.568068
0.569725
0.571379
0.573029
0.574675
0.576317
0.577955
0.57959
0.58122
0.582846
0.584468
0.586085
0.587699
0.589308
0.590913
0.592514
0.59411
0.595702
0.59729
0.598873
0.600452
0.602027
0.603597
0.605162
0.606723
0.608279
0.609831
0.611378
0.612921
0.614458
0.615991
0.617519
0.619043
0.620561
0.622075
0.623584
0.625088
0.626587
0.628082
0.629571
0.631056
0.632535
0.63401
0.63548
0.636946
0.638405
0.639862
0.64131
0.642759
0.644195
0.645636
0.64706
0.648495
0.649902
0.651334
0.652722
0.654157
0.655515
0.656964
0.658279
0.659761
0.661009
0.662551
0.663699
0.665337
0.666355
0.668106
0.669005
0.67084
0.671679
0.673849
0.0946866
0.171294
0.271031
0.364417
0.437315
0.489591
0.526348
0.552713
0.572431
0.587949
0.600779
0.611818
0.621595
0.630402
0.638426
0.64573
0.652404
0.65848
0.663998
0.669001
0.673536
0.677643
0.681369
0.68476
0.687859
0.690708
0.693345
0.695805
0.69812
0.700316
0.702418
0.704445
0.706415
0.708341
0.710235
0.712107
0.713965
0.715815
0.717662
0.719511
0.721363
0.723222
0.725089
0.726966
0.728853
0.730751
0.732661
0.734582
0.736515
0.738459
0.740414
0.742381
0.744358
0.746345
0.748343
0.75035
0.752366
0.754391
0.756424
0.758465
0.760514
0.76257
0.764632
0.766701
0.768776
0.770856
0.772941
0.775031
0.777125
0.779223
0.781324
0.783429
0.785536
0.787646
0.789758
0.791872
0.793988
0.796105
0.798223
0.800342
0.802462
0.804582
0.806702
0.808823
0.810943
0.813063
0.815182
0.817301
0.819419
0.821536
0.823651
0.825766
0.827879
0.82999
0.8321
0.834207
0.836313
0.838417
0.840518
0.842617
0.844713
0.846806
0.848897
0.850985
0.853069
0.85515
0.857228
0.859302
0.861372
0.863439
0.865502
0.86756
0.869614
0.871664
0.873709
0.87575
0.877787
0.879819
0.881846
0.883869
0.885887
0.8879
0.889908
0.891912
0.893911
0.895905
0.897894
0.899878
0.901857
0.903831
0.9058
0.907763
0.909722
0.911676
0.913624
0.915567
0.917504
0.919436
0.921363
0.923285
0.925201
0.927112
0.929018
0.930918
0.932813
0.934704
0.936589
0.938469
0.940344
0.942215
0.94408
0.945941
0.947797
0.949648
0.951494
0.953337
0.955173
0.957007
0.958832
0.960658
0.962472
0.964291
0.966091
0.967905
0.969688
0.971502
0.973262
0.975085
0.976807
0.978659
0.980317
0.982232
0.983782
0.985815
0.987195
0.989406
0.990581
0.992964
0.994039
0.996839
0.40283
0.642541
0.78335
0.856113
0.890033
0.905363
0.912416
0.916328
0.919158
0.921701
0.924253
0.926911
0.929701
0.9326
0.935586
0.938592
0.941639
0.944632
0.947565
0.950433
0.953217
0.9559
0.95849
0.960989
0.9634
0.96573
0.96799
0.97019
0.97234
0.97445
0.976529
0.978585
0.980625
0.982655
0.984681
0.986706
0.988734
0.990768
0.992811
0.994864
0.99693
0.999008
1.0011
1.00321
1.00533
1.00746
1.00961
1.01178
1.01396
1.01615
1.01836
1.02058
1.02282
1.02506
1.02732
1.02959
1.03187
1.03416
1.03646
1.03877
1.04109
1.04342
1.04576
1.0481
1.05045
1.05281
1.05517
1.05754
1.05992
1.0623
1.06468
1.06707
1.06946
1.07186
1.07426
1.07666
1.07906
1.08147
1.08388
1.08628
1.08869
1.0911
1.09351
1.09592
1.09833
1.10074
1.10315
1.10555
1.10796
1.11036
1.11277
1.11517
1.11757
1.11996
1.12236
1.12475
1.12714
1.12953
1.13191
1.1343
1.13667
1.13905
1.14142
1.14379
1.14615
1.14851
1.15087
1.15322
1.15557
1.15791
1.16024
1.16258
1.1649
1.16723
1.16954
1.17186
1.17416
1.17646
1.17876
1.18105
1.18334
1.18562
1.18789
1.19016
1.19243
1.19469
1.19694
1.19919
1.20143
1.20367
1.2059
1.20812
1.21034
1.21255
1.21476
1.21696
1.21915
1.22134
1.22352
1.2257
1.22787
1.23004
1.2322
1.23435
1.2365
1.23865
1.24079
1.24292
1.24505
1.24718
1.2493
1.25141
1.25352
1.25563
1.25773
1.25983
1.26193
1.26402
1.2661
1.26818
1.27026
1.27233
1.27439
1.27646
1.27851
1.28058
1.28261
1.28468
1.28668
1.28877
1.29072
1.29287
1.29472
1.29699
1.29865
1.30114
1.30252
1.30529
1.3065
1.30973
0.890105
1.15661
1.23833
1.25619
1.25304
1.24422
1.23391
1.22518
1.21802
1.21224
1.20765
1.20411
1.20148
1.19964
1.19847
1.19786
1.19785
1.1981
1.19873
1.1997
1.20089
1.20226
1.20377
1.2054
1.20714
1.20895
1.21083
1.21276
1.21473
1.21674
1.21879
1.22086
1.22295
1.22507
1.2272
1.22936
1.23154
1.23374
1.23595
1.23818
1.24043
1.2427
1.24498
1.24728
1.2496
1.25193
1.25427
1.25663
1.25901
1.2614
1.2638
1.26621
1.26864
1.27107
1.27352
1.27598
1.27844
1.28091
1.2834
1.28588
1.28838
1.29088
1.29339
1.29591
1.29843
1.30096
1.30349
1.30602
1.30856
1.3111
1.31364
1.31619
1.31874
1.32129
1.32385
1.3264
1.32896
1.33151
1.33407
1.33663
1.33918
1.34174
1.34429
1.34685
1.3494
1.35195
1.3545
1.35704
1.35959
1.36213
1.36467
1.36721
1.36974
1.37227
1.3748
1.37733
1.37985
1.38236
1.38488
1.38739
1.38989
1.39239
1.39489
1.39738
1.39987
1.40235
1.40482
1.40729
1.40976
1.41221
1.41466
1.41711
1.41955
1.42198
1.42441
1.42683
1.42924
1.43165
1.43405
1.43644
1.43883
1.44121
1.44358
1.44595
1.44832
1.45067
1.45302
1.45537
1.4577
1.46004
1.46236
1.46468
1.46699
1.4693
1.4716
1.47389
1.47618
1.47847
1.48074
1.48301
1.48528
1.48754
1.4898
1.49205
1.4943
1.49654
1.49878
1.50101
1.50324
1.50546
1.50768
1.5099
1.51211
1.51432
1.51652
1.51872
1.52091
1.5231
1.52528
1.52746
1.52964
1.53181
1.53398
1.53614
1.5383
1.54046
1.5426
1.54476
1.54688
1.54906
1.55114
1.55337
1.55536
1.5577
1.55951
1.56209
1.56357
1.56654
1.56773
1.57119
1.05883
1.18723
1.20341
1.18994
1.16862
1.15069
1.1357
1.12311
1.11238
1.10327
1.09564
1.08932
1.08414
1.07997
1.07666
1.07414
1.07232
1.07106
1.0703
1.06999
1.07005
1.07039
1.07099
1.0718
1.07278
1.0739
1.07512
1.07643
1.07781
1.07925
1.08073
1.08224
1.08379
1.08536
1.08695
1.08857
1.0902
1.09186
1.09353
1.09522
1.09693
1.09865
1.10039
1.10215
1.10392
1.10571
1.10752
1.10934
1.11118
1.11304
1.11492
1.11682
1.11873
1.12066
1.12261
1.12457
1.12655
1.12853
1.13053
1.13254
1.13455
1.13657
1.13858
1.14059
1.1426
1.14459
1.14658
1.14855
1.15051
1.15245
1.15438
1.15629
1.15819
1.16006
1.16193
1.16378
1.16561
1.16744
1.16926
1.17107
1.17288
1.17468
1.17648
1.17828
1.18009
1.18189
1.1837
1.18551
1.18733
1.18915
1.19098
1.19282
1.19466
1.19651
1.19837
1.20023
1.20209
1.20397
1.20584
1.20773
1.20961
1.2115
1.21339
1.21528
1.21717
1.21906
1.22095
1.22283
1.2247
1.22657
1.22843
1.23028
1.23211
1.23393
1.23574
1.23754
1.23932
1.24108
1.24282
1.24455
1.24627
1.24797
1.24965
1.25132
1.25298
1.25462
1.25626
1.25789
1.2595
1.26112
1.26273
1.26433
1.26593
1.26753
1.26913
1.27073
1.27233
1.27393
1.27553
1.27713
1.27873
1.28033
1.28194
1.28354
1.28514
1.28675
1.28836
1.28996
1.29157
1.29318
1.29478
1.29639
1.298
1.29961
1.30121
1.30282
1.30443
1.30604
1.30764
1.30925
1.31085
1.31245
1.31405
1.31565
1.31724
1.31884
1.32042
1.32201
1.32358
1.32517
1.32671
1.32833
1.32981
1.3315
1.33286
1.3347
1.33581
1.33798
1.33875
1.34142
)
;

boundaryField
{
    upperWall
    {
        type            fixedValue;
        value           uniform 0;
    }
    lowerWall
    {
        type            fixedValue;
        value           uniform 0;
    }
    heatedWall
    {
        type            fixedValue;
        value           uniform 0;
    }
    inlet
    {
        type            fixedValue;
        value           uniform 2e-05;
    }
    outlet
    {
        type            inletOutlet;
        inletValue      uniform 0;
        value           nonuniform List<scalar> 
12
(
1.8944
2.00193
1.50545
0.99494
0.536405
0.252858
0.360294
0.673849
0.996839
1.30973
1.57119
1.34142
)
;
    }
    frontAndBack
    {
        type            empty;
    }
}


// ************************************************************************* //
