/*--------------------------------*- C++ -*----------------------------------*\
  =========                 |
  \\      /  F ield         | OpenFOAM: The Open Source CFD Toolbox
   \\    /   O peration     | Website:  https://openfoam.org
    \\  /    A nd           | Version:  7
     \\/     M anipulation  |
\*---------------------------------------------------------------------------*/
FoamFile
{
    version     2.0;
    format      ascii;
    class       surfaceScalarField;
    location    "1.0325";
    object      phi_0;
}
// * * * * * * * * * * * * * * * * * * * * * * * * * * * * * * * * * * * * * //

dimensions      [1 0 -1 0 0 0 0];

internalField   nonuniform List<scalar> 
21708
(
0.00128469
0.000996299
1.35532e-05
0.000887899
0.000388063
6.18672e-06
0.000678133
0.000195644
1.16275e-05
0.000587117
8.18576e-05
6.68929e-06
0.000533331
4.05717e-05
1.07659e-05
0.000500703
2.32921e-05
6.88944e-06
0.000475356
1.28231e-05
1.00644e-05
0.000456879
8.97285e-06
7.02265e-06
0.000440261
4.61767e-06
9.50055e-06
0.000427352
3.29572e-06
7.09785e-06
0.000414975
8.36198e-07
9.01622e-06
0.000405122
2.09321e-07
7.11336e-06
0.00039534
-1.33041e-06
8.58353e-06
0.000387406
-1.66448e-06
7.07788e-06
0.000379353
-2.63712e-06
8.18497e-06
0.000372446
-2.57852e-06
7.00156e-06
0.00036416
-1.98379e-06
7.80689e-06
0.000358321
-3.48941e-06
6.89202e-06
0.000304123
4.42269e-05
7.55007e-06
2.04154e-05
6.45248e-06
0.000274872
0.00223227
0.00105538
2.87039e-06
0.00204117
0.000580655
-3.8763e-06
0.0018358
0.00039707
1.66476e-06
0.00169192
0.000226662
-3.13681e-06
0.00158741
0.000141917
1.02665e-06
0.00151516
9.62325e-05
-2.80691e-06
0.00145736
6.80985e-05
4.04635e-07
0.00141431
5.24467e-05
-2.6257e-06
0.00137579
4.09944e-05
-1.30629e-07
0.00134581
3.34586e-05
-2.53105e-06
0.00131728
2.75638e-05
-6.03245e-07
0.00129464
2.29059e-05
-2.50719e-06
0.00127234
1.95294e-05
-1.03138e-06
0.00125434
1.63898e-05
-2.5387e-06
0.00123673
1.39211e-05
-1.43001e-06
0.00122096
1.33725e-05
-2.61189e-06
0.00121052
7.88853e-06
-1.82506e-06
0.00119227
1.51533e-05
-2.70905e-06
0.00123011
6.42029e-06
-2.3172e-06
-2.67281e-05
-3.26647e-06
0.00127831
0.00255649
0.000783746
9.55876e-06
0.00264496
0.000486541
3.28644e-06
0.00263586
0.000395457
8.45947e-06
0.00259802
0.000258749
3.55193e-06
0.00254755
0.000182629
7.63467e-06
0.00250225
0.000135772
3.75409e-06
0.00245757
0.000103898
6.92902e-06
0.00242031
8.38453e-05
3.87859e-06
0.00238435
6.8485e-05
6.35517e-06
0.0023545
5.71163e-05
3.94654e-06
0.00232549
4.8342e-05
5.86415e-06
0.00230131
4.06648e-05
3.95728e-06
0.0022775
3.53472e-05
5.42719e-06
0.00225774
2.95935e-05
3.91859e-06
0.00223734
2.65953e-05
5.02598e-06
0.00222193
2.22328e-05
3.83807e-06
0.00220094
2.1542e-05
4.65226e-06
0.00219108
1.87176e-05
3.71135e-06
0.00215847
3.20872e-05
4.43471e-06
1.77475e-05
3.34416e-06
0.00210826
0.00256307
0.00051073
4.18168e-06
0.00272085
0.000328227
-1.82462e-06
0.00282398
0.000286774
3.3014e-06
0.00288316
0.000198891
-1.54966e-06
0.00291141
0.000149652
2.57353e-06
0.00292826
0.000118164
-1.26913e-06
0.00293262
9.56987e-05
1.94129e-06
0.0029346
8.10728e-05
-1.08999e-06
0.00293049
6.92111e-05
1.4054e-06
0.00292641
6.00461e-05
-9.93701e-07
0.00291897
5.25434e-05
9.34085e-07
0.0029123
4.58764e-05
-9.67773e-07
0.00290391
4.07033e-05
5.08251e-07
0.00289603
3.58337e-05
-9.96631e-07
0.00288813
3.16089e-05
1.1258e-07
0.00287901
2.95369e-05
-1.07016e-06
0.00287447
2.34288e-05
-2.80023e-07
0.00286428
2.71739e-05
-1.19206e-06
0.00287576
1.85884e-05
-7.86875e-07
6.16888e-06
-1.66343e-06
0.00288629
0.00255197
0.000245593
7.49501e-06
0.00271723
0.000158919
1.69879e-06
0.00284928
0.000145792
6.68383e-06
0.00294049
0.00010363
1.82171e-06
0.00300198
8.00749e-05
5.91755e-06
0.00305135
6.47045e-05
2.05889e-06
0.00308632
5.358e-05
5.2536e-06
0.00311701
4.63382e-05
2.21259e-06
0.00313934
4.02766e-05
4.69848e-06
0.00315948
3.55399e-05
2.29463e-06
0.00317402
3.15285e-05
4.21632e-06
0.00318731
2.78862e-05
2.31205e-06
0.00319673
2.50219e-05
3.78399e-06
0.00320558
2.2138e-05
2.27786e-06
0.00321109
1.99898e-05
3.38603e-06
0.00321743
1.81068e-05
2.19932e-06
0.00321864
1.61989e-05
3.00983e-06
0.0032243
1.63651e-05
2.06213e-06
0.00322067
1.65033e-05
2.7183e-06
1.52941e-05
1.71421e-06
0.0032069
0.0025341
2.13329e-10
5.77228e-06
0.0026906
5.6323e-10
6.17049e-08
0.00282912
4.05851e-10
5.02642e-06
0.00293036
9.90685e-10
1.668e-07
0.003004
4.47979e-10
4.26238e-06
0.00306625
1.82059e-09
4.07625e-07
0.00311434
8.02069e-10
3.60872e-06
0.00315828
3.62766e-09
5.70717e-07
0.00319361
3.23836e-09
3.06063e-06
0.00322644
7.65378e-09
6.58531e-07
0.00325313
1.29493e-08
2.58248e-06
0.00327794
1.97885e-08
6.79325e-07
0.00329831
3.82347e-08
2.1526e-06
0.00331719
6.91538e-08
6.47681e-07
0.00333267
7.95634e-08
1.75586e-06
0.00334708
2.61066e-07
5.71393e-07
0.00335876
1.36464e-07
1.37038e-06
0.00337075
7.91351e-07
4.34498e-07
0.00338274
4.91542e-07
9.52343e-07
1.49193e-06
4.66164e-08
0.00339346
0.0025341
-0.000245592
5.77227e-06
0.0026906
-0.000158917
6.17041e-08
0.00282912
-0.000145791
5.02642e-06
0.00293036
-0.000103628
1.66797e-07
0.003004
-8.00739e-05
4.26238e-06
0.00306625
-6.47011e-05
4.0762e-07
0.00311433
-5.35781e-05
3.60873e-06
0.00315828
-4.63316e-05
5.70702e-07
0.00319361
-4.02696e-05
3.06065e-06
0.00322644
-3.55263e-05
6.58494e-07
0.00325313
-3.15016e-05
2.58252e-06
0.00327795
-2.78513e-05
6.79224e-07
0.00329831
-2.49428e-05
2.1527e-06
0.00331721
-2.2013e-05
6.47405e-07
0.00333268
-1.98238e-05
1.75615e-06
0.00334712
-1.76146e-05
5.70645e-07
0.00335879
-1.59118e-05
1.3715e-06
0.00337081
-1.48137e-05
4.32803e-07
0.00338279
-1.5525e-05
9.57824e-07
-1.21725e-05
4.32775e-08
0.00339339
0.00255197
-0.00051073
7.49501e-06
0.00271723
-0.000328226
1.69879e-06
0.00284928
-0.000286773
6.68383e-06
0.00294049
-0.000198889
1.82171e-06
0.00300198
-0.00014965
5.91755e-06
0.00305135
-0.000118161
2.0589e-06
0.00308632
-9.5697e-05
5.25359e-06
0.00311701
-8.10665e-05
2.2126e-06
0.00313934
-6.92051e-05
4.69847e-06
0.00315948
-6.00326e-05
2.29466e-06
0.00317403
-5.25202e-05
4.21629e-06
0.00318732
-4.58417e-05
2.31213e-06
0.00319675
-4.06363e-05
3.7839e-06
0.0032056
-3.57126e-05
2.27811e-06
0.00321114
-3.14754e-05
3.38571e-06
0.00321751
-2.9072e-05
2.20003e-06
0.00321881
-2.32289e-05
3.0087e-06
0.00322458
-2.57377e-05
2.06355e-06
0.00322121
-1.78555e-05
2.71353e-06
-3.64685e-06
1.71655e-06
0.00320804
0.00256307
-0.000783746
4.18168e-06
0.00272085
-0.00048654
-1.82462e-06
0.00282398
-0.000395456
3.3014e-06
0.00288316
-0.000258747
-1.54966e-06
0.00291141
-0.000182628
2.57353e-06
0.00292826
-0.000135769
-1.26914e-06
0.00293262
-0.000103896
1.9413e-06
0.0029346
-8.38408e-05
-1.09001e-06
0.0029305
-6.84788e-05
1.40542e-06
0.00292641
-5.71074e-05
-9.93733e-07
0.00291898
-4.83205e-05
9.34136e-07
0.00291232
-4.06423e-05
-9.67856e-07
0.00290394
-3.52874e-05
5.08369e-07
0.00289609
-2.95092e-05
-9.96832e-07
0.00288821
-2.64776e-05
1.1288e-07
0.0028792
-2.18793e-05
-1.07068e-06
0.00287469
-2.13744e-05
-2.7891e-07
0.00286477
-1.7546e-05
-1.1934e-06
0.0028764
-3.15062e-05
-7.81461e-07
-1.55287e-05
-1.66608e-06
0.00288723
0.00255649
-0.00105538
9.55876e-06
0.00264496
-0.000580654
3.28644e-06
0.00263586
-0.00039707
8.45947e-06
0.00259802
-0.00022666
3.55193e-06
0.00254755
-0.000141916
7.63466e-06
0.00250225
-9.62307e-05
3.75409e-06
0.00245757
-6.80968e-05
6.92902e-06
0.00242031
-5.24438e-05
3.8786e-06
0.00238435
-4.09901e-05
6.35516e-06
0.0023545
-3.34533e-05
3.94656e-06
0.0023255
-2.75499e-05
5.86413e-06
0.00230133
-2.28931e-05
3.95733e-06
0.00227755
-1.94921e-05
5.42711e-06
0.00225782
-1.63394e-05
3.91878e-06
0.00223747
-1.38551e-05
5.0257e-06
0.00222219
-1.31499e-05
3.83862e-06
0.00220133
-7.84084e-06
4.65139e-06
0.00219187
-1.43922e-05
3.7123e-06
0.00215975
-6.31475e-06
4.43153e-06
2.76418e-05
3.34428e-06
0.00211085
0.00223227
-0.000996299
2.87039e-06
0.00204117
-0.000388062
-3.8763e-06
0.0018358
-0.000195643
1.66476e-06
0.00169192
-8.18567e-05
-3.13682e-06
0.00158741
-4.05708e-05
1.02665e-06
0.00151516
-2.3291e-05
-2.80691e-06
0.00145736
-1.28219e-05
4.04639e-07
0.00141431
-8.97162e-06
-2.62571e-06
0.00137579
-4.61564e-06
-1.30614e-07
0.00134582
-3.29415e-06
-2.53107e-06
0.0013173
-8.30555e-07
-6.03204e-07
0.00129467
-2.06358e-07
-2.50725e-06
0.00127239
1.34533e-06
-1.03128e-06
0.00125442
1.67696e-06
-2.53883e-06
0.00123686
2.66667e-06
-1.42977e-06
0.00122124
2.64286e-06
-2.61225e-06
0.00121081
2.03049e-06
-1.8242e-06
0.00119307
3.72966e-06
-2.71025e-06
0.00123068
-4.38815e-05
-2.31264e-06
-1.99045e-05
-3.26982e-06
0.00127928
0.00128469
1.35532e-05
0.000887899
6.18671e-06
0.000678133
1.16275e-05
0.000587117
6.68928e-06
0.000533331
1.07659e-05
0.000500703
6.88944e-06
0.000475356
1.00644e-05
0.00045688
7.02265e-06
0.000440263
9.50055e-06
0.000427356
7.09786e-06
0.000414984
9.0162e-06
0.000405134
7.1134e-06
0.000395367
8.58347e-06
0.000387445
7.07804e-06
0.000379422
8.18475e-06
0.000372577
7.00203e-06
0.00036434
7.80631e-06
0.000358736
6.89294e-06
0.00030489
7.5485e-06
6.45393e-06
0.000276134
0.00188568
0.00041851
3.14237e-06
0.00137108
0.000513374
4.94325e-06
0.00102833
0.000349722
2.25524e-06
0.000846741
0.00018217
3.75216e-06
0.000756371
9.65446e-05
2.26512e-06
0.00070055
5.69637e-05
3.41549e-06
0.000664626
4.12259e-05
2.40178e-06
0.000632925
3.31653e-05
3.16036e-06
0.000609646
2.78888e-05
2.46208e-06
0.000587126
2.42401e-05
2.92605e-06
0.000570086
2.11101e-05
2.48071e-06
0.000552991
1.89904e-05
2.74498e-06
0.00053944
1.71718e-05
2.49397e-06
0.000525806
1.56355e-05
2.62157e-06
0.000514127
1.49161e-05
2.51902e-06
0.000502915
1.32689e-05
2.54463e-06
0.000496237
9.54466e-06
2.56964e-06
0.000476621
2.16747e-05
2.49739e-06
0.000575755
-9.65119e-05
2.60065e-06
-8.21061e-05
2.69987e-06
0.000659344
0.00238815
0.000318902
8.37504e-06
0.00232697
0.000558069
1.02396e-05
0.00220415
0.000464169
7.75138e-06
0.00206864
0.000303262
9.07975e-06
0.00195839
0.000198034
7.67015e-06
0.00186668
0.000135125
8.69525e-06
0.00179714
0.000101303
7.79428e-06
0.00173691
8.01686e-05
8.44387e-06
0.00168979
6.47571e-05
7.85011e-06
0.00164678
5.4122e-05
8.2241e-06
0.00161209
4.4886e-05
7.8631e-06
0.00157939
3.86147e-05
8.05112e-06
0.00155204
3.30472e-05
7.86914e-06
0.00152614
2.84829e-05
7.9282e-06
0.00150288
2.6306e-05
7.88447e-06
0.00148312
2.00713e-05
7.84551e-06
0.00145887
2.16055e-05
7.92677e-06
0.00145312
1.45996e-05
7.78483e-06
0.0013677
-2.37388e-05
8.03678e-06
5.58511e-07
8.02437e-06
0.00127156
0.00241152
0.000206648
4.13949e-06
0.00253842
0.000425911
6.17176e-06
0.00260038
0.000405068
3.32055e-06
0.00259937
0.000300516
5.08043e-06
0.00257785
0.000221738
3.32355e-06
0.00254343
0.000166587
4.71696e-06
0.00251234
0.000133794
3.57517e-06
0.00247903
0.000110862
4.49169e-06
0.00245071
9.3566e-05
3.72236e-06
0.00242153
8.0671e-05
4.28317e-06
0.00239663
6.94425e-05
3.78995e-06
0.00237129
6.12673e-05
4.11298e-06
0.00234951
5.37656e-05
3.83416e-06
0.00232703
4.81398e-05
3.99329e-06
0.00230859
4.30711e-05
3.88002e-06
0.00228682
3.89498e-05
3.91759e-06
0.00227554
3.08346e-05
3.93675e-06
0.00225107
3.62569e-05
3.884e-06
0.00225858
-3.32872e-05
3.92311e-06
-1.68082e-05
4.0422e-06
0.00227281
0.00236389
0.000133672
7.25173e-06
0.00250396
0.0002725
9.15566e-06
0.00263617
0.000267113
6.76786e-06
0.00271559
0.000209152
8.16101e-06
0.00276853
0.000162522
6.69877e-06
0.00279592
0.000128193
7.74202e-06
0.00281573
0.000107215
6.8111e-06
0.00282431
9.17924e-05
7.48441e-06
0.00283076
7.95956e-05
6.87483e-06
0.00283092
7.00407e-05
7.26697e-06
0.00283068
6.136e-05
6.89272e-06
0.00282669
5.47272e-05
7.09308e-06
0.00282291
4.85537e-05
6.90099e-06
0.00281688
4.34796e-05
6.97024e-06
0.00281068
3.95722e-05
6.9191e-06
0.0028042
3.45002e-05
6.89021e-06
0.00279343
3.13594e-05
6.96097e-06
0.00278962
2.91049e-05
6.85125e-06
0.00274717
-1.51611e-06
7.08387e-06
2.15887e-05
7.07192e-06
0.00269733
0.00236595
6.38781e-05
5.23196e-06
0.00249647
0.000134114
7.20156e-06
0.00262885
0.000134474
4.66186e-06
0.00272381
0.000107562
6.20376e-06
0.00279946
8.60299e-05
4.59575e-06
0.00285229
6.96368e-05
5.77405e-06
0.00289843
5.96942e-05
4.74854e-06
0.00293282
5.22087e-05
5.526e-06
0.00296396
4.63025e-05
4.84822e-06
0.00298724
4.1549e-05
5.31628e-06
0.00300843
3.71569e-05
4.89014e-06
0.00302413
3.37421e-05
5.14654e-06
0.00303862
3.039e-05
4.91577e-06
0.00304882
2.78636e-05
5.02715e-06
0.0030588
2.5167e-05
4.94725e-06
0.00306405
2.34891e-05
4.95145e-06
0.00307123
1.91032e-05
4.99075e-06
0.00307302
2.13468e-05
4.92586e-06
0.00306945
-3.20473e-06
5.00935e-06
6.69545e-06
5.09447e-06
0.00307805
0.00235736
-7.98787e-11
6.22572e-06
0.00248101
7.51222e-11
8.15832e-06
0.00261248
-1.86396e-10
5.74927e-06
0.00271076
3.78741e-10
7.19924e-06
0.00279322
-9.2831e-11
5.67538e-06
0.00285449
1.23345e-09
6.76471e-06
0.00291011
4.34514e-10
5.79629e-06
0.00295451
3.20066e-09
6.51009e-06
0.00299599
2.99965e-09
5.87623e-06
0.00302971
8.97929e-09
6.29859e-06
0.0030612
1.21607e-08
5.90561e-06
0.00308703
2.63289e-08
6.12808e-06
0.00311109
3.76471e-08
5.92187e-06
0.00313087
7.93665e-08
6.00786e-06
0.00314892
1.03529e-07
5.94588e-06
0.00316381
2.40313e-07
5.93059e-06
0.00317489
2.88182e-07
5.98692e-06
0.00318691
6.77667e-07
5.9039e-06
0.00317471
8.42563e-07
6.07058e-06
1.72955e-06
6.09636e-06
0.00317064
0.00235736
-6.38783e-05
6.22572e-06
0.00248101
-0.000134113
8.15832e-06
0.00261248
-0.000134474
5.74927e-06
0.00271076
-0.000107561
7.19924e-06
0.00279322
-8.60302e-05
5.67538e-06
0.00285449
-6.96342e-05
6.76471e-06
0.00291011
-5.96936e-05
5.79628e-06
0.00295451
-5.22019e-05
6.5101e-06
0.00299599
-4.62972e-05
5.87622e-06
0.00302971
-4.15299e-05
6.29861e-06
0.0030612
-3.71351e-05
5.90559e-06
0.00308703
-3.36861e-05
6.12813e-06
0.0031111
-3.03232e-05
5.92182e-06
0.00313087
-2.76964e-05
6.008e-06
0.00314895
-2.49879e-05
5.94571e-06
0.00316382
-2.29971e-05
5.93094e-06
0.003175
-1.86212e-05
5.9862e-06
0.0031871
-2.00729e-05
5.90454e-06
0.003175
4.80122e-06
6.06671e-06
-3.58906e-06
6.09762e-06
0.00317128
0.00236595
-0.000133672
5.23196e-06
0.00249647
-0.0002725
7.20156e-06
0.00262885
-0.000267113
4.66186e-06
0.00272381
-0.000209151
6.20376e-06
0.00279946
-0.000162522
4.59575e-06
0.00285229
-0.000128191
5.77405e-06
0.00289843
-0.000107214
4.74854e-06
0.00293282
-9.17867e-05
5.526e-06
0.00296396
-7.95898e-05
4.84823e-06
0.00298724
-7.00244e-05
5.31626e-06
0.00300843
-6.13379e-05
4.89016e-06
0.00302415
-5.46794e-05
5.14649e-06
0.00303863
-4.84868e-05
4.91582e-06
0.00304885
-4.33361e-05
5.02702e-06
0.00305884
-3.93909e-05
4.94741e-06
0.00306415
-3.40696e-05
4.9511e-06
0.0030713
-3.08582e-05
4.99137e-06
0.00307318
-2.79141e-05
4.92522e-06
0.0030697
3.01207e-06
5.01251e-06
-1.84392e-05
5.09325e-06
0.00307827
0.00236389
-0.000206648
7.25173e-06
0.00250396
-0.000425911
9.15566e-06
0.00263617
-0.000405068
6.76786e-06
0.00271559
-0.000300516
8.16101e-06
0.00276853
-0.000221739
6.69877e-06
0.00279592
-0.000166585
7.74202e-06
0.00281573
-0.000133793
6.8111e-06
0.00282432
-0.000110858
7.48442e-06
0.00283077
-9.35609e-05
6.87482e-06
0.00283092
-8.06572e-05
7.26698e-06
0.00283069
-6.94244e-05
6.89269e-06
0.0028267
-6.12266e-05
7.09312e-06
0.00282295
-5.37144e-05
6.90092e-06
0.00281693
-4.80161e-05
6.97034e-06
0.00281079
-4.29409e-05
6.91892e-06
0.00280436
-3.85822e-05
6.89044e-06
0.00279377
-3.05013e-05
6.9602e-06
0.00279018
-3.53004e-05
6.85173e-06
0.0027482
3.43309e-05
7.0802e-06
1.90532e-05
7.07217e-06
0.00269926
0.00241152
-0.000318902
4.13949e-06
0.00253842
-0.000558069
6.17176e-06
0.00260038
-0.000464169
3.32056e-06
0.00259937
-0.000303262
5.08043e-06
0.00257785
-0.000198034
3.32355e-06
0.00254343
-0.000135124
4.71696e-06
0.00251235
-0.000101301
3.57517e-06
0.00247903
-8.01661e-05
4.49168e-06
0.00245071
-6.47522e-05
3.72236e-06
0.00242154
-5.41148e-05
4.28317e-06
0.00239664
-4.48706e-05
3.78996e-06
0.00237132
-3.85929e-05
4.11296e-06
0.00234955
-3.30048e-05
3.83421e-06
0.00232712
-2.84142e-05
3.9932e-06
0.00230871
-2.61977e-05
3.88016e-06
0.00228709
-1.98591e-05
3.91729e-06
0.00227586
-2.13166e-05
3.93719e-06
0.00225174
-1.39996e-05
3.88346e-06
0.00225947
2.45593e-05
3.92505e-06
1.2368e-06
4.04147e-06
0.00227416
0.00238815
-0.00041851
8.37504e-06
0.00232697
-0.000513374
1.02397e-05
0.00220415
-0.000349722
7.75139e-06
0.00206864
-0.000182169
9.07975e-06
0.00195839
-9.65444e-05
7.67015e-06
0.00186668
-5.69632e-05
8.69525e-06
0.00179714
-4.12253e-05
7.79428e-06
0.00173691
-3.31641e-05
8.44388e-06
0.00168979
-2.78868e-05
7.85011e-06
0.00164679
-2.4237e-05
8.22411e-06
0.00161211
-2.11041e-05
7.86308e-06
0.00157942
-1.89813e-05
8.05115e-06
0.0015521
-1.71556e-05
7.86909e-06
0.00152624
-1.56065e-05
7.92831e-06
0.00150305
-1.48787e-05
7.88427e-06
0.00148341
-1.31773e-05
7.8458e-06
0.00145939
-9.47976e-06
7.92603e-06
0.00145392
-2.13723e-05
7.78559e-06
0.00136951
9.63607e-05
8.03373e-06
8.21423e-05
8.02558e-06
0.00127511
0.00188568
3.14238e-06
0.00137108
4.94325e-06
0.00102833
2.25524e-06
0.000846741
3.75216e-06
0.000756371
2.26512e-06
0.000700551
3.41549e-06
0.000664627
2.40178e-06
0.000632927
3.16036e-06
0.000609651
2.46209e-06
0.000587134
2.92604e-06
0.0005701
2.48073e-06
0.000553014
2.74496e-06
0.00053948
2.494e-06
0.000525876
2.6215e-06
0.000514234
2.51911e-06
0.000503113
2.54447e-06
0.000496502
2.56969e-06
0.000477183
2.49726e-06
0.000576181
2.60043e-06
2.69882e-06
0.000659786
0.00212638
0.00017037
-3.01024e-11
0.00188206
0.000246858
-3.03721e-11
0.00162122
0.000260791
-3.01941e-11
0.00139201
0.000230743
-3.04541e-11
0.0012071
0.000185012
-3.01835e-11
0.00106991
0.000138406
-3.07008e-11
0.000970769
9.92479e-05
-3.04245e-11
0.000902398
6.91589e-05
-3.09474e-11
0.000853956
4.84855e-05
-3.06854e-11
0.000820153
3.42947e-05
-3.12029e-11
0.00079465
2.55495e-05
-3.07911e-11
0.000775228
1.97415e-05
-3.10252e-11
0.000759116
1.62008e-05
-3.04467e-11
0.000745356
1.40065e-05
-3.06643e-11
0.000733948
1.15866e-05
-3.01908e-11
0.000721681
1.25079e-05
-3.04369e-11
0.000715566
6.40661e-06
-2.99611e-11
0.000700766
1.50622e-05
-3.01998e-11
0.000705725
-4.62648e-06
-2.96427e-11
-5.35028e-06
-3.00436e-11
0.000711576
0.00234956
0.000122796
-3.01935e-11
0.00239274
0.000211551
-3.04486e-11
0.00239816
0.000260847
-3.03315e-11
0.00237319
0.000262592
-3.06202e-11
0.00232695
0.000236847
-3.03814e-11
0.00227322
0.000198872
-3.09046e-11
0.00221696
0.000161317
-3.05014e-11
0.00216362
0.000128835
-3.06638e-11
0.00211342
0.000104288
-3.01234e-11
0.00206793
8.56014e-05
-3.06904e-11
0.00202618
7.26206e-05
-3.05825e-11
0.00198861
6.26878e-05
-3.10883e-11
0.00195434
5.55822e-05
-3.05764e-11
0.00192349
4.99978e-05
-3.06964e-11
0.00189571
4.45186e-05
-3.01689e-11
0.00187026
4.317e-05
-3.04281e-11
0.00184866
3.34128e-05
-2.99711e-11
0.00182675
4.2392e-05
-3.01099e-11
0.00181092
1.6981e-05
-2.92492e-11
3.33754e-05
-2.92892e-11
0.00177807
0.00233768
8.28664e-05
-3.01332e-11
0.00240461
0.000148431
-3.03798e-11
0.00247387
0.00019262
-3.02189e-11
0.00253683
0.000202478
-3.04984e-11
0.00258352
0.000191392
-3.03622e-11
0.00261598
0.000169181
-3.10236e-11
0.00263449
0.000144507
-3.07319e-11
0.00264372
0.000122124
-3.07686e-11
0.00264537
0.000104223
-2.98828e-11
0.0026426
9.03648e-05
-3.00887e-11
0.00263648
8.01089e-05
-2.99859e-11
0.00262836
7.23621e-05
-3.08197e-11
0.00261903
6.60133e-05
-3.06153e-11
0.00260844
6.16778e-05
-3.057e-11
0.00259821
5.56183e-05
-2.96887e-11
0.00258661
5.56937e-05
-2.99158e-11
0.00257718
4.38434e-05
-2.9901e-11
0.00256527
5.54151e-05
-3.07925e-11
0.00255701
2.64909e-05
-3.04962e-11
5.023e-05
-2.99935e-11
0.00254171
0.00232785
5.58695e-05
-3.01418e-11
0.00238501
9.80722e-05
-3.0392e-11
0.00245514
0.000126971
-3.02158e-11
0.00252919
0.000134348
-3.05095e-11
0.00259635
0.00012883
-3.03772e-11
0.00265539
0.000115954
-3.10282e-11
0.00270356
0.000101294
-3.07564e-11
0.00274347
8.77674e-05
-3.0868e-11
0.0027755
7.6952e-05
-3.00047e-11
0.00280226
6.86029e-05
-3.02207e-11
0.00282445
6.24295e-05
-3.01793e-11
0.00284352
5.79066e-05
-3.10536e-11
0.00285982
5.39813e-05
-3.09027e-11
0.00287392
5.17118e-05
-3.07703e-11
0.002886
4.74281e-05
-2.94498e-11
0.0028969
4.8565e-05
-2.93559e-11
0.00290544
3.91419e-05
-2.90645e-11
0.00291497
4.97391e-05
-3.01766e-11
0.00291884
2.68303e-05
-3.07574e-11
5.16144e-05
-3.07744e-11
0.00292173
0.00232843
2.62743e-05
-3.0015e-11
0.00238381
4.7541e-05
-3.02056e-11
0.00245061
6.25455e-05
-3.00239e-11
0.00252257
6.63554e-05
-3.02998e-11
0.00259013
6.37594e-05
-3.01471e-11
0.00265232
5.7615e-05
-3.07013e-11
0.00270596
5.05491e-05
-3.04081e-11
0.0027532
4.41277e-05
-3.05685e-11
0.00279393
3.89604e-05
-2.98763e-11
0.00283048
3.50918e-05
-3.01849e-11
0.00286324
3.21764e-05
-3.01137e-11
0.00289362
3.0214e-05
-3.08279e-11
0.00292161
2.83201e-05
-3.05342e-11
0.00294799
2.75695e-05
-3.04264e-11
0.00297207
2.52737e-05
-2.91486e-11
0.00299593
2.65098e-05
-2.90889e-11
0.00301572
2.11739e-05
-2.8718e-11
0.00303956
2.77208e-05
-2.96293e-11
0.00305342
1.50602e-05
-3.02155e-11
2.92923e-05
-3.04009e-11
0.00307794
0.0023261
-9.64613e-11
-3.00007e-11
0.00237945
2.51392e-10
-3.01989e-11
0.00244545
-2.88055e-10
-3.00133e-11
0.00251677
7.3085e-10
-3.03093e-11
0.0025841
-3.19949e-10
-3.01091e-11
0.00264656
1.94567e-09
-3.05881e-11
0.00270105
1.312e-10
-3.02136e-11
0.00274975
4.57927e-09
-3.04616e-11
0.00279247
2.58792e-09
-2.99348e-11
0.00283158
1.13402e-08
-3.03818e-11
0.00286727
1.07956e-08
-3.02236e-11
0.00290112
3.09324e-08
-3.07527e-11
0.00293275
3.01505e-08
-3.02975e-11
0.00296345
9.22231e-08
-3.02595e-11
0.0029916
6.81872e-08
-2.93854e-11
0.00302061
2.73317e-07
-2.95908e-11
0.00304442
1.70536e-07
-2.92719e-11
0.00307422
6.87749e-07
-2.99459e-11
0.00309179
6.26334e-07
-2.99004e-11
1.39819e-06
-2.98072e-11
0.00312287
0.0023261
-2.62744e-05
-2.98795e-11
0.00237945
-4.75405e-05
-3.00272e-11
0.00244545
-6.25461e-05
-2.98552e-11
0.00251677
-6.63539e-05
-3.01349e-11
0.0025841
-6.37601e-05
-2.99357e-11
0.00264656
-5.7611e-05
-3.03258e-11
0.00270105
-5.0549e-05
-2.99019e-11
0.00274975
-4.41184e-05
-3.01227e-11
0.00279247
-3.89556e-05
-2.97274e-11
0.00283158
-3.50687e-05
-3.02322e-11
0.00286727
-3.21559e-05
-2.99781e-11
0.00290112
-3.01515e-05
-3.02949e-11
0.00293275
-2.82621e-05
-2.97332e-11
0.00296346
-2.73848e-05
-2.97882e-11
0.0029916
-2.51421e-05
-2.94921e-11
0.00302062
-2.59664e-05
-3.00527e-11
0.00304444
-2.08462e-05
-2.98609e-11
0.00307427
-2.63641e-05
-3.03486e-11
0.00309188
-1.3858e-05
-2.95008e-11
-2.65899e-05
-2.91592e-11
0.00312305
0.00232843
-5.58697e-05
-2.98557e-11
0.00238381
-9.80718e-05
-3.00178e-11
0.00245061
-0.000126972
-2.98391e-11
0.00252257
-0.000134347
-3.01402e-11
0.00259013
-0.000128831
-2.9883e-11
0.00265232
-0.00011595
-3.01996e-11
0.00270596
-0.000101294
-2.97018e-11
0.0027532
-8.77585e-05
-3.0024e-11
0.00279393
-7.69473e-05
-2.98008e-11
0.00283048
-6.85808e-05
-3.04211e-11
0.00286325
-6.24096e-05
-3.00515e-11
0.00289363
-5.78471e-05
-3.01744e-11
0.00292162
-5.39254e-05
-2.94525e-11
0.002948
-5.15363e-05
-2.96401e-11
0.0029721
-4.73029e-05
-2.98155e-11
0.00299598
-4.80448e-05
-3.06223e-11
0.00301579
-3.88396e-05
-3.04648e-11
0.00303968
-4.8427e-05
-3.06323e-11
0.00305363
-2.5714e-05
-2.89815e-11
-4.89896e-05
-2.84763e-11
0.00307822
0.00232785
-8.28666e-05
-2.97405e-11
0.00238501
-0.000148431
-2.9838e-11
0.00245514
-0.00019262
-2.96631e-11
0.00252919
-0.000202477
-2.99401e-11
0.00259635
-0.000191392
-2.96474e-11
0.00265539
-0.000169178
-2.9855e-11
0.00270356
-0.000144507
-2.93477e-11
0.00274347
-0.000122116
-2.97643e-11
0.00277551
-0.000104219
-2.97463e-11
0.00280227
-9.03441e-05
-3.04314e-11
0.00282446
-8.0092e-05
-2.99653e-11
0.00284353
-7.23068e-05
-2.98696e-11
0.00285984
-6.59668e-05
-2.89975e-11
0.00287396
-6.15167e-05
-2.93563e-11
0.00288606
-5.55181e-05
-2.97331e-11
0.00289701
-5.52199e-05
-3.05517e-11
0.00290562
-4.36126e-05
-3.02569e-11
0.00291528
-5.42339e-05
-2.99678e-11
0.00291937
-2.56017e-05
-2.80271e-11
-4.80165e-05
-2.80538e-11
0.00292267
0.00233768
-0.000122796
-2.97224e-11
0.00240461
-0.000211551
-2.98372e-11
0.00247387
-0.000260847
-2.96506e-11
0.00253683
-0.000262591
-2.99469e-11
0.00258352
-0.000236848
-2.96231e-11
0.00261598
-0.000198869
-2.97978e-11
0.00263449
-0.000161317
-2.93248e-11
0.00264372
-0.000128829
-2.9893e-11
0.00264538
-0.000104283
-2.99624e-11
0.00264261
-8.5587e-05
-3.0615e-11
0.00263649
-7.26055e-05
-3.00849e-11
0.00262838
-6.26481e-05
-2.99128e-11
0.00261906
-5.55453e-05
-2.91366e-11
0.00260851
-4.98771e-05
-2.9619e-11
0.00259832
-4.44483e-05
-2.97253e-11
0.00258682
-4.28064e-05
-3.01822e-11
0.00257749
-3.32683e-05
-2.9459e-11
0.00256583
-4.14778e-05
-2.90461e-11
0.00255786
-1.6376e-05
-2.79673e-11
-3.17305e-05
-2.8991e-11
0.00254313
0.00234956
-0.00017037
-2.96774e-11
0.00239274
-0.000246858
-2.97697e-11
0.00239816
-0.000260791
-2.95595e-11
0.00237319
-0.000230743
-2.98699e-11
0.00232695
-0.000185012
-2.96386e-11
0.00227322
-0.000138405
-2.99161e-11
0.00221696
-9.92468e-05
-2.95515e-11
0.00216363
-6.91568e-05
-3.0081e-11
0.00211342
-4.84816e-05
-2.98578e-11
0.00206795
-3.42897e-05
-3.00903e-11
0.0020262
-2.55386e-05
-2.93997e-11
0.00198866
-1.97262e-05
-2.95011e-11
0.0019544
-1.61772e-05
-2.91512e-11
0.00192362
-1.39529e-05
-2.96353e-11
0.00189587
-1.15494e-05
-2.94217e-11
0.0018706
-1.23292e-05
-2.97027e-11
0.00184911
-6.35477e-06
-2.93245e-11
0.00182762
-1.45931e-05
-2.96424e-11
0.00181217
4.86202e-06
-2.93798e-11
5.88734e-06
-2.99546e-11
0.00178043
0.00212638
-2.97291e-11
0.00188206
-2.98155e-11
0.00162122
-2.9684e-11
0.00139201
-3.00617e-11
0.0012071
-2.98226e-11
0.00106991
-3.00787e-11
0.000970772
-2.96072e-11
0.000902402
-2.98187e-11
0.000853965
-2.93074e-11
0.000820167
-2.95666e-11
0.000794675
-2.91997e-11
0.000775268
-2.964e-11
0.00075918
-2.93917e-11
0.000745474
-2.97984e-11
0.000734104
-2.94769e-11
0.000722014
-2.97727e-11
0.000715957
-2.93657e-11
0.000701604
-2.9559e-11
0.000706846
-2.90455e-11
-2.91086e-11
0.000713184
0.00212638
0.00017037
-3.14242e-06
0.00188206
0.000246858
-4.9433e-06
0.00162122
0.000260791
-2.25528e-06
0.00139201
0.000230743
-3.75222e-06
0.0012071
0.000185012
-2.26516e-06
0.00106991
0.000138406
-3.41554e-06
0.000970769
9.92479e-05
-2.40182e-06
0.000902397
6.91589e-05
-3.16041e-06
0.000853956
4.84855e-05
-2.46213e-06
0.000820153
3.42947e-05
-2.9261e-06
0.000794649
2.55495e-05
-2.48077e-06
0.000775228
1.97416e-05
-2.74503e-06
0.000759116
1.62009e-05
-2.49402e-06
0.000745356
1.40066e-05
-2.62162e-06
0.000733948
1.15867e-05
-2.51907e-06
0.000721681
1.25079e-05
-2.54469e-06
0.000715566
6.40664e-06
-2.56969e-06
0.000700766
1.50622e-05
-2.49744e-06
0.000705725
-4.62649e-06
-2.6007e-06
-5.3503e-06
-2.69993e-06
0.000711576
0.00234956
0.000122796
-8.37509e-06
0.00239274
0.000211551
-1.02397e-05
0.00239816
0.000260847
-7.75144e-06
0.00237319
0.000262592
-9.07981e-06
0.00232695
0.000236847
-7.67021e-06
0.00227322
0.000198872
-8.6953e-06
0.00221696
0.000161317
-7.79433e-06
0.00216362
0.000128835
-8.44393e-06
0.00211341
0.000104288
-7.85017e-06
0.00206793
8.56015e-05
-8.22416e-06
0.00202618
7.26207e-05
-7.86315e-06
0.00198861
6.2688e-05
-8.05118e-06
0.00195434
5.55825e-05
-7.8692e-06
0.00192349
4.9998e-05
-7.92826e-06
0.00189571
4.45188e-05
-7.88453e-06
0.00187026
4.31702e-05
-7.84556e-06
0.00184866
3.3413e-05
-7.92683e-06
0.00182675
4.23922e-05
-7.78489e-06
0.00181092
1.69812e-05
-8.03683e-06
3.33755e-05
-8.02443e-06
0.00177807
0.00233768
8.28665e-05
-4.13954e-06
0.00240461
0.000148431
-6.17181e-06
0.00247387
0.00019262
-3.32061e-06
0.00253683
0.000202478
-5.08049e-06
0.00258352
0.000191392
-3.3236e-06
0.00261598
0.000169181
-4.71702e-06
0.00263449
0.000144507
-3.57523e-06
0.00264372
0.000122124
-4.49174e-06
0.00264537
0.000104224
-3.72241e-06
0.0026426
9.03649e-05
-4.28323e-06
0.00263648
8.0109e-05
-3.79e-06
0.00262836
7.23622e-05
-4.11304e-06
0.00261903
6.60134e-05
-3.83422e-06
0.00260844
6.16779e-05
-3.99335e-06
0.00259821
5.56184e-05
-3.88007e-06
0.00258661
5.56938e-05
-3.91764e-06
0.00257718
4.38434e-05
-3.9368e-06
0.00256527
5.54151e-05
-3.88406e-06
0.00255701
2.6491e-05
-3.92317e-06
5.02303e-05
-4.04226e-06
0.00254171
0.00232785
5.58696e-05
-7.25179e-06
0.00238501
9.80723e-05
-9.15572e-06
0.00245514
0.000126971
-6.76792e-06
0.00252919
0.000134348
-8.16107e-06
0.00259635
0.00012883
-6.69882e-06
0.00265539
0.000115954
-7.74208e-06
0.00270356
0.000101294
-6.81116e-06
0.00274347
8.77676e-05
-7.48447e-06
0.0027755
7.69522e-05
-6.87489e-06
0.00280226
6.86032e-05
-7.26702e-06
0.00282445
6.24297e-05
-6.89277e-06
0.00284352
5.79068e-05
-7.09314e-06
0.00285982
5.39814e-05
-6.90104e-06
0.00287392
5.17118e-05
-6.9703e-06
0.002886
4.74282e-05
-6.91916e-06
0.0028969
4.8565e-05
-6.89027e-06
0.00290544
3.91418e-05
-6.96102e-06
0.00291497
4.97391e-05
-6.85131e-06
0.00291884
2.68303e-05
-7.08393e-06
5.16145e-05
-7.07198e-06
0.00292173
0.00232843
2.62743e-05
-5.23202e-06
0.00238381
4.7541e-05
-7.20161e-06
0.00245061
6.25455e-05
-4.66192e-06
0.00252257
6.63555e-05
-6.20382e-06
0.00259013
6.37595e-05
-4.5958e-06
0.00265232
5.7615e-05
-5.7741e-06
0.00270596
5.05492e-05
-4.74859e-06
0.0027532
4.4128e-05
-5.52606e-06
0.00279393
3.89607e-05
-4.84828e-06
0.00283048
3.50921e-05
-5.31633e-06
0.00286324
3.21766e-05
-4.8902e-06
0.00289362
3.02141e-05
-5.14659e-06
0.00292161
2.83202e-05
-4.91582e-06
0.00294799
2.75696e-05
-5.02721e-06
0.00297207
2.52738e-05
-4.9473e-06
0.00299593
2.65098e-05
-4.95151e-06
0.00301572
2.11738e-05
-4.9908e-06
0.00303956
2.77206e-05
-4.92591e-06
0.00305342
1.506e-05
-5.0094e-06
2.92923e-05
-5.09453e-06
0.00307794
0.0023261
-7.70809e-11
-6.22577e-06
0.00237945
2.9651e-10
-8.15838e-06
0.00244545
-2.22501e-10
-5.74932e-06
0.00251677
7.86322e-10
-7.19929e-06
0.0025841
-2.91123e-10
-5.67544e-06
0.00264656
1.98332e-09
-6.76476e-06
0.00270105
2.50477e-10
-5.79634e-06
0.00274975
4.81501e-09
-6.51015e-06
0.00279247
2.91586e-09
-5.87628e-06
0.00283158
1.16683e-08
-6.29864e-06
0.00286727
1.10347e-08
-5.90566e-06
0.00290112
3.10745e-08
-6.12813e-06
0.00293275
3.02276e-08
-5.92193e-06
0.00296345
9.23171e-08
-6.00792e-06
0.0029916
6.82941e-08
-5.94594e-06
0.00302061
2.73339e-07
-5.93065e-06
0.00304442
1.70479e-07
-5.98698e-06
0.00307422
6.87564e-07
-5.90396e-06
0.00309179
6.26088e-07
-6.07064e-06
1.39811e-06
-6.09642e-06
0.00312287
0.0023261
-2.62744e-05
-6.22577e-06
0.00237945