/*--------------------------------*- C++ -*----------------------------------*\
  =========                 |
  \\      /  F ield         | OpenFOAM: The Open Source CFD Toolbox
   \\    /   O peration     | Website:  https://openfoam.org
    \\  /    A nd           | Version:  7
     \\/     M anipulation  |
\*---------------------------------------------------------------------------*/
FoamFile
{
    version     2.0;
    format      ascii;
    class       volScalarField;
    location    "3.82";
    object      k_0;
}
// * * * * * * * * * * * * * * * * * * * * * * * * * * * * * * * * * * * * * //

dimensions      [0 2 -2 0 0 0 0];

internalField   nonuniform List<scalar> 
5760
(
1.91422
1.54202
1.19636
0.991665
0.859837
0.778801
0.731777
0.700507
0.674239
0.650727
0.630599
0.61381
0.599586
0.587216
0.576303
0.566631
0.558024
0.550321
0.543389
0.53712
0.531431
0.526251
0.521522
0.517192
0.51322
0.509567
0.506201
0.503095
0.500225
0.49757
0.49511
0.49283
0.490715
0.488752
0.486929
0.485235
0.483662
0.482202
0.480845
0.479587
0.478419
0.477337
0.476335
0.475408
0.474552
0.473763
0.473037
0.472372
0.471763
0.471209
0.470705
0.470251
0.469842
0.469479
0.469159
0.468881
0.468642
0.468443
0.468279
0.468151
0.468058
0.467999
0.46797
0.467975
0.468007
0.46807
0.46816
0.468278
0.468421
0.46859
0.468783
0.468999
0.469237
0.469496
0.469776
0.470076
0.470395
0.470731
0.471085
0.471455
0.471841
0.472242
0.472656
0.473084
0.473525
0.473977
0.47444
0.474914
0.475398
0.47589
0.476392
0.476901
0.477418
0.477941
0.478471
0.479007
0.479548
0.480094
0.480645
0.4812
0.481758
0.48232
0.482885
0.483452
0.484021
0.484592
0.485164
0.485737
0.486311
0.486885
0.487459
0.488033
0.488607
0.48918
0.489753
0.490324
0.490894
0.491463
0.49203
0.492595
0.493159
0.49372
0.494279
0.494836
0.49539
0.495941
0.49649
0.497036
0.497579
0.498119
0.498656
0.49919
0.49972
0.500248
0.500772
0.501293
0.501811
0.502325
0.502837
0.503345
0.50385
0.504351
0.50485
0.505345
0.505837
0.506326
0.506811
0.507294
0.507773
0.50825
0.508723
0.509193
0.50966
0.510125
0.510586
0.511045
0.511501
0.511954
0.512405
0.512853
0.513299
0.513743
0.514184
0.514622
0.515059
0.515493
0.515925
0.516355
0.516783
0.517208
0.517632
0.518053
0.518473
0.518891
0.519307
0.519721
0.520133
0.520544
0.520954
0.521361
0.521768
0.522173
0.522576
0.522978
0.523379
0.523779
0.524177
0.524574
0.52497
0.525365
0.525758
0.526151
0.526542
0.526932
0.527321
0.527709
0.528096
0.528482
0.528868
0.529252
0.529636
0.530019
0.530402
0.530783
0.531164
0.531545
0.531924
0.532304
0.532682
0.53306
0.533437
0.533814
0.53419
0.534565
0.53494
0.535315
0.535689
0.536062
0.536435
0.536808
0.53718
0.537552
0.537924
0.538296
0.538666
0.539038
0.539407
0.53978
0.540145
0.540523
0.54088
0.541269
0.541607
0.542021
0.54232
0.542785
0.543015
0.543564
0.543674
0.544402
0.995467
1.35575
1.32217
1.21383
1.0884
0.991436
0.926441
0.882825
0.84995
0.82237
0.798617
0.778341
0.761034
0.746055
0.732907
0.721267
0.710904
0.701632
0.693295
0.685765
0.678938
0.67273
0.667068
0.661893
0.657151
0.652799
0.648797
0.645111
0.641711
0.638573
0.635673
0.632992
0.630511
0.628215
0.62609
0.624123
0.622303
0.620621
0.619065
0.617628
0.616303
0.615082
0.613959
0.612928
0.611983
0.61112
0.610334
0.60962
0.608976
0.608397
0.607881
0.607423
0.607021
0.606674
0.606379
0.606134
0.605937
0.605788
0.605681
0.605616
0.605595
0.605614
0.605666
0.605759
0.605887
0.606049
0.606244
0.606469
0.606725
0.60701
0.607323
0.607663
0.608028
0.608418
0.608831
0.609267
0.609724
0.610202
0.6107
0.611216
0.61175
0.612301
0.612868
0.613449
0.614044
0.614653
0.615274
0.615906
0.616549
0.617202
0.617865
0.618537
0.619216
0.619904
0.620598
0.621299
0.622006
0.622719
0.623437
0.624159
0.624885
0.625615
0.626348
0.627084
0.627822
0.628561
0.629302
0.630044
0.630786
0.631528
0.632271
0.633013
0.633754
0.634494
0.635234
0.635972
0.636708
0.637443
0.638176
0.638907
0.639635
0.640361
0.641084
0.641804
0.642521
0.643234
0.643945
0.644651
0.645354
0.646053
0.646748
0.64744
0.648127
0.64881
0.64949
0.650165
0.650837
0.651504
0.652168
0.652828
0.653483
0.654135
0.654783
0.655428
0.656068
0.656704
0.657336
0.657964
0.658589
0.659209
0.659826
0.660438
0.661047
0.661653
0.662255
0.662853
0.663448
0.66404
0.664629
0.665215
0.665798
0.666378
0.666955
0.66753
0.668101
0.66867
0.669236
0.669799
0.67036
0.670918
0.671474
0.672027
0.672578
0.673126
0.673672
0.674216
0.674758
0.675298
0.675836
0.676372
0.676907
0.67744
0.677972
0.678502
0.67903
0.679557
0.680082
0.680606
0.681129
0.68165
0.68217
0.682688
0.683205
0.683721
0.684235
0.684748
0.68526
0.685772
0.686282
0.686791
0.6873
0.687808
0.688315
0.688821
0.689327
0.689832
0.690337
0.69084
0.691344
0.691846
0.692348
0.69285
0.69335
0.69385
0.69435
0.694849
0.695347
0.695845
0.696343
0.69684
0.697337
0.697834
0.69833
0.698828
0.699323
0.699821
0.700314
0.700815
0.701303
0.701811
0.702288
0.702812
0.703264
0.703823
0.704224
0.70485
0.705171
0.705888
0.706105
0.706941
0.323536
0.753387
0.901468
0.929581
0.903849
0.847704
0.800202
0.765351
0.739543
0.718775
0.701002
0.685571
0.672208
0.660569
0.650337
0.641264
0.633162
0.625894
0.61935
0.613433
0.608067
0.603186
0.598736
0.59467
0.59095
0.587539
0.584409
0.581533
0.578887
0.576452
0.57421
0.572144
0.570241
0.568487
0.566873
0.565387
0.56402
0.562766
0.561616
0.560562
0.559601
0.558725
0.55793
0.557211
0.556562
0.555981
0.555463
0.555005
0.554604
0.554256
0.553961
0.553713
0.55351
0.553353
0.553238
0.553165
0.553129
0.553137
0.553171
0.553242
0.553351
0.553492
0.553661
0.55386
0.554087
0.554341
0.55462
0.554924
0.555252
0.555602
0.555973
0.556364
0.556775
0.557204
0.557652
0.558116
0.558596
0.559092
0.559602
0.560126
0.560663
0.561212
0.561773
0.562345
0.562927
0.563518
0.564118
0.564726
0.565342
0.565965
0.566595
0.567231
0.567872
0.568519
0.56917
0.569827
0.570487
0.571152
0.57182
0.572491
0.573165
0.573842
0.574521
0.575202
0.575884
0.576568
0.577252
0.577937
0.578622
0.579307
0.579991
0.580676
0.581359
0.582042
0.582723
0.583404
0.584083
0.584761
0.585437
0.586112
0.586785
0.587456
0.588125
0.588791
0.589455
0.590116
0.590775
0.591431
0.592083
0.592733
0.593379
0.594022
0.594662
0.595298
0.595931
0.596561
0.597188
0.597811
0.598431
0.599048
0.599662
0.600272
0.60088
0.601484
0.602085
0.602683
0.603277
0.603868
0.604456
0.60504
0.605621
0.606199
0.606773
0.607345
0.607913
0.608478
0.60904
0.6096
0.610156
0.610711
0.611262
0.611811
0.612358
0.612903
0.613444
0.613984
0.614521
0.615056
0.615589
0.616119
0.616647
0.617173
0.617696
0.618217
0.618736
0.619254
0.619769
0.620282
0.620794
0.621304
0.621813
0.62232
0.622826
0.62333
0.623833
0.624335
0.624835
0.625334
0.625832
0.626329
0.626824
0.627318
0.62781
0.628302
0.628792
0.629281
0.629768
0.630255
0.630741
0.631226
0.63171
0.632194
0.632677
0.633159
0.633641
0.634122
0.634602
0.635082
0.635562
0.636041
0.636519
0.636997
0.637474
0.63795
0.638426
0.638902
0.639376
0.639851
0.640325
0.640798
0.641271
0.641745
0.642217
0.64269
0.643161
0.643636
0.644105
0.644583
0.645047
0.645532
0.645984
0.646486
0.646915
0.647449
0.647832
0.648424
0.648741
0.649407
0.649661
0.650398
0.0550302
0.291932
0.435998
0.544126
0.601371
0.607608
0.601332
0.588254
0.576886
0.567343
0.558862
0.551129
0.544135
0.537822
0.532154
0.527043
0.522401
0.518183
0.514347
0.51085
0.507659
0.504743
0.502075
0.499633
0.497397
0.495348
0.493473
0.491755
0.490182
0.488743
0.487427
0.486226
0.485129
0.484131
0.483224
0.482402
0.481659
0.480993
0.480394
0.47986
0.47939
0.478979
0.478623
0.478319
0.478065
0.477857
0.477693
0.47757
0.477488
0.477441
0.477438
0.477459
0.477511
0.4776
0.477717
0.477862
0.478034
0.478233
0.478455
0.478701
0.47897
0.479262
0.479574
0.479905
0.480255
0.480623
0.481007
0.481407
0.481821
0.482249
0.48269
0.483144
0.483608
0.484084
0.48457
0.485065
0.48557
0.486083
0.486604
0.487132
0.487668
0.488211
0.488759
0.489313
0.489873
0.490437
0.491006
0.491579
0.492155
0.492734
0.493317
0.493902
0.49449
0.49508
0.495672
0.496266
0.496862
0.497459
0.498059
0.49866
0.499262
0.499865
0.500469
0.501074
0.501679
0.502285
0.502891
0.503497
0.504103
0.504709
0.505314
0.505918
0.506521
0.507123
0.507725
0.508325
0.508925
0.509523
0.51012
0.510716
0.511311
0.511904
0.512496
0.513087
0.513675
0.514262
0.514848
0.515431
0.516012
0.516591
0.517167
0.517741
0.518313
0.518882
0.519449
0.520013
0.520575
0.521134
0.521691
0.522246
0.522799
0.523349
0.523897
0.524443
0.524986
0.525527
0.526066
0.526602
0.527136
0.527668
0.528196
0.528723
0.529246
0.529767
0.530286
0.530802
0.531316
0.531827
0.532336
0.532843
0.533348
0.533851
0.534353
0.534852
0.535349
0.535845
0.536339
0.536831
0.537321
0.537809
0.538295
0.538779
0.539262
0.539742
0.540221
0.540697
0.541172
0.541645
0.542117
0.542587
0.543056
0.543523
0.543989
0.544454
0.544918
0.54538
0.545842
0.546302
0.546761
0.547219
0.547676
0.548132
0.548586
0.549039
0.549491
0.549942
0.550391
0.55084
0.551287
0.551733
0.552179
0.552624
0.553068
0.553511
0.553954
0.554396
0.554838
0.555279
0.555719
0.556159
0.556598
0.557037
0.557475
0.557913
0.55835
0.558786
0.559221
0.559656
0.56009
0.560524
0.560957
0.56139
0.561822
0.562255
0.562685
0.56312
0.563547
0.563985
0.564406
0.564852
0.565262
0.565722
0.566112
0.566601
0.56695
0.567488
0.567783
0.568379
0.568635
0.569297
0.00722227
0.0720133
0.140351
0.22242
0.30045
0.347828
0.374404
0.388442
0.396493
0.401332
0.404163
0.405667
0.406377
0.406493
0.406371
0.40605
0.405547
0.404978
0.404375
0.403761
0.403154
0.402565
0.402004
0.401475
0.400984
0.400532
0.400122
0.399754
0.399428
0.399143
0.398899
0.398693
0.398526
0.398395
0.3983
0.398237
0.398208
0.398213
0.398239
0.398297
0.398386
0.398501
0.398641
0.398806
0.398995
0.399207
0.399441
0.399696
0.399971
0.400264
0.400578
0.400908
0.401253
0.401614
0.401991
0.402382
0.402786
0.403204
0.403633
0.404074
0.404526
0.404989
0.405461
0.405942
0.406432
0.406928
0.407432
0.407941
0.408456
0.408975
0.409498
0.410025
0.410554
0.411086
0.411619
0.412155
0.412692
0.41323
0.413769
0.414308
0.414849
0.41539
0.415931
0.416472
0.417014
0.417555
0.418095
0.418636
0.419175
0.419714
0.420253
0.42079
0.421326
0.421862
0.422396
0.42293
0.423462
0.423994
0.424526
0.425057
0.425587
0.426116
0.426646
0.427174
0.427703
0.42823
0.428757
0.429283
0.429809
0.430334
0.430858
0.43138
0.431902
0.432423
0.432943
0.433461
0.433979
0.434495
0.435011
0.435526
0.43604
0.436553
0.437066
0.437577
0.438088
0.438597
0.439106
0.439614
0.44012
0.440625
0.441129
0.441631
0.442132
0.442631
0.443128
0.443624
0.444118
0.444611
0.445102
0.445592
0.446081
0.446568
0.447054
0.447538
0.448021
0.448503
0.448983
0.449462
0.449939
0.450415
0.450889
0.451362
0.451833
0.452302
0.452769
0.453234
0.453698
0.45416
0.45462
0.455078
0.455535
0.455991
0.456445
0.456898
0.45735
0.4578
0.458249
0.458697
0.459143
0.459588
0.460032
0.460474
0.460914
0.461353
0.461791
0.462226
0.462661
0.463094
0.463525
0.463955
0.464384
0.464811
0.465237
0.465662
0.466086
0.46651
0.466932
0.467353
0.467773
0.468192
0.46861
0.469028
0.469444
0.469858
0.470272
0.470685
0.471096
0.471506
0.471915
0.472323
0.47273
0.473136
0.473542
0.473946
0.47435
0.474752
0.475155
0.475556
0.475958
0.476358
0.476758
0.477157
0.477556
0.477954
0.478351
0.478748
0.479143
0.479538
0.479932
0.480326
0.480718
0.481111
0.481501
0.481894
0.482281
0.482675
0.483059
0.483457
0.483835
0.484239
0.484606
0.485024
0.485371
0.485814
0.486128
0.486612
0.486878
0.487409
0.48765
0.488251
0.000775927
0.0121755
0.0283598
0.055141
0.0982661
0.138693
0.171672
0.198183
0.21955
0.236485
0.249749
0.260167
0.2685
0.275239
0.280789
0.285424
0.289319
0.292635
0.295489
0.29797
0.300147
0.302075
0.303795
0.305344
0.306749
0.308035
0.309221
0.310323
0.311354
0.312325
0.313247
0.314125
0.314968
0.31578
0.316566
0.317329
0.318072
0.318801
0.319514
0.320215
0.320906
0.32159
0.322267
0.322939
0.323607
0.324272
0.324935
0.325595
0.326255
0.326914
0.327572
0.32823
0.328887
0.329544
0.330199
0.330854
0.331508
0.332161
0.332813
0.333463
0.334111
0.334757
0.3354
0.336041
0.336678
0.337312
0.337942
0.338568
0.339188
0.339804
0.340414
0.341018
0.341616
0.342207
0.342792
0.343371
0.343943
0.344508
0.345067
0.345619
0.346165
0.346706
0.34724
0.347769
0.348292
0.34881
0.349323
0.349831
0.350334
0.350833
0.351326
0.351816
0.352301
0.352782
0.353259
0.353732
0.354202
0.354668
0.355131
0.355592
0.35605
0.356506
0.356959
0.357411
0.35786
0.358308
0.358755
0.3592
0.359643
0.360086
0.360527
0.360966
0.361404
0.361842
0.362277
0.362712
0.363146
0.363578
0.36401
0.364441
0.364871
0.365301
0.36573
0.366159
0.366587
0.367015
0.367443
0.36787
0.368297
0.368724
0.369149
0.369575
0.37
0.370424
0.370847
0.37127
0.371692
0.372113
0.372533
0.372953
0.373372
0.373791
0.374209
0.374626
0.375043
0.37546
0.375876
0.376292
0.376707
0.377121
0.377535
0.377948
0.37836
0.378772
0.379182
0.379591
0.38
0.380407
0.380814
0.381219
0.381623
0.382027
0.38243
0.382831
0.383232
0.383633
0.384032
0.384431
0.384829
0.385226
0.385622
0.386018
0.386413
0.386806
0.387199
0.38759
0.38798
0.38837
0.388758
0.389144
0.38953
0.389915
0.390298
0.390681
0.391063
0.391444
0.391824
0.392203
0.392582
0.392959
0.393336
0.393713
0.394088
0.394462
0.394836
0.395208
0.39558
0.39595
0.396319
0.396688
0.397055
0.397421
0.397787
0.398151
0.398514
0.398877
0.399239
0.3996
0.399961
0.400321
0.40068
0.401039
0.401397
0.401755
0.402111
0.402468
0.402822
0.403177
0.403531
0.403884
0.404235
0.404588
0.404936
0.405289
0.405634
0.405987
0.406328
0.406684
0.407019
0.407382
0.407705
0.408081
0.408385
0.408784
0.409058
0.409491
0.409726
0.410196
0.410414
0.410955
8.96313e-05
0.00167285
0.00375452
0.00816442
0.0178738
0.0330642
0.049479
0.0665598
0.0839481
0.100765
0.116314
0.130308
0.142764
0.153768
0.163451
0.17197
0.179475
0.186114
0.192016
0.197291
0.20203
0.206311
0.210196
0.213738
0.216983
0.219968
0.222727
0.225286
0.227671
0.229901
0.231996
0.233969
0.235835
0.237604
0.239287
0.240893
0.242428
0.243901
0.245315
0.246677
0.247992
0.249264
0.250496
0.251693
0.252856
0.25399
0.255097
0.256178
0.257236
0.258272
0.259288
0.260285
0.261264
0.262225
0.263169
0.264096
0.265008
0.265903
0.266782
0.267646
0.268494
0.269326
0.270143
0.270944
0.27173
0.2725
0.273254
0.273993
0.274716
0.275424
0.276116
0.276792
0.277453
0.278099
0.278729
0.279345
0.279946
0.280533
0.281106
0.281665
0.282212
0.282746
0.283267
0.283778
0.284277
0.284767
0.285246
0.285716
0.286177
0.286629
0.287074
0.28751
0.28794
0.288362
0.288777
0.289187
0.28959
0.289987
0.29038
0.290767
0.29115
0.291529
0.291903
0.292275
0.292643
0.293008
0.293371
0.293731
0.294089
0.294445
0.2948
0.295153
0.295504
0.295853
0.296202
0.296549
0.296895
0.297239
0.297583
0.297926
0.298269
0.29861
0.298952
0.299293
0.299634
0.299974
0.300315
0.300656
0.300997
0.301338
0.30168
0.302021
0.302363
0.302705
0.303047
0.30339
0.303732
0.304074
0.304416
0.304758
0.305101
0.305443
0.305785
0.306128
0.306471
0.306814
0.307157
0.3075
0.307844
0.308188
0.308532
0.308877
0.309221
0.309566
0.309911
0.310255
0.3106
0.310944
0.311288
0.311631
0.311975
0.312318
0.31266
0.313003
0.313345
0.313686
0.314028
0.314369
0.31471
0.315051
0.315392
0.315733
0.316073
0.316413
0.316752
0.317091
0.31743
0.317768
0.318105
0.318441
0.318777
0.319112
0.319447
0.31978
0.320113
0.320446
0.320777
0.321108
0.321439
0.321769
0.322098
0.322427
0.322756
0.323084
0.323411
0.323738
0.324063
0.324389
0.324713
0.325037
0.32536
0.325681
0.326002
0.326323
0.326642
0.32696
0.327278
0.327595
0.327911
0.328227
0.328542
0.328856
0.32917
0.329483
0.329796
0.330108
0.330419
0.33073
0.33104
0.33135
0.331657
0.331967
0.332272
0.332581
0.332882
0.333193
0.333489
0.333803
0.334091
0.334412
0.334688
0.335021
0.335279
0.335633
0.335865
0.336246
0.336449
0.336857
0.337048
0.337524
2.90129e-05
0.00025021
0.000440492
0.000867537
0.0019152
0.0041564
0.00764211
0.0123309
0.0184321
0.0257789
0.0339937
0.0427235
0.051705
0.0607204
0.0695817
0.0781439
0.086306
0.0940078
0.101221
0.107941
0.114182
0.119967
0.12533
0.130303
0.134923
0.139221
0.14323
0.146976
0.150486
0.153781
0.156884
0.15981
0.162577
0.165199
0.167689
0.170058
0.172317
0.174475
0.17654
0.178519
0.180419
0.182246
0.184005
0.185701
0.18734
0.188924
0.190457
0.191944
0.193386
0.194787
0.196149
0.197474
0.198763
0.200018
0.20124
0.202429
0.203587
0.204713
0.205809
0.206875
0.20791
0.208916
0.209892
0.210839
0.211757
0.212647
0.213509
0.214344
0.215152
0.215933
0.216689
0.217419
0.218125
0.218807
0.219465
0.220101
0.220714
0.221306
0.221877
0.222428
0.22296
0.223473
0.223969
0.224448
0.224912
0.22536
0.225795
0.226216
0.226624
0.227021
0.227406
0.227781
0.228146
0.228502
0.228848
0.229187
0.229518
0.229841
0.230157
0.230467
0.23077
0.231068
0.231361
0.231649
0.231932
0.232211
0.232487
0.23276
0.233029
0.233296
0.233561
0.233823
0.234084
0.234343
0.234601
0.234857
0.235112
0.235366
0.235619
0.235872
0.236123
0.236374
0.236624
0.236874
0.237124
0.237374
0.237624
0.237874
0.238125
0.238376
0.238627
0.23888
0.239133
0.239386
0.239641
0.239896
0.240153
0.240409
0.240667
0.240925
0.241184
0.241443
0.241703
0.241963
0.242224
0.242486
0.242749
0.243012
0.243276
0.243541
0.243807
0.244074
0.244342
0.24461
0.24488
0.24515
0.245421
0.245692
0.245964
0.246237
0.24651
0.246783
0.247056
0.24733
0.247604
0.247878
0.248152
0.248426
0.248701
0.248976
0.249252
0.249527
0.249803
0.250079
0.250356
0.250633
0.25091
0.251187
0.251464
0.251741
0.252018
0.252294
0.252571
0.252847
0.253122
0.253397
0.253672
0.253947
0.254221
0.254495
0.254769
0.255042
0.255315
0.255588
0.255861
0.256134
0.256406
0.256678
0.25695
0.257221
0.257492
0.257763
0.258033
0.258302
0.25857
0.258838
0.259105
0.259372
0.259638
0.259903
0.260168
0.260432
0.260695
0.260959
0.261221
0.261484
0.261745
0.262008
0.262268
0.26253
0.262788
0.263051
0.263306
0.263569
0.263821
0.264085
0.264331
0.264599
0.264838
0.265113
0.26534
0.265626
0.265836
0.266139
0.266328
0.266652
0.266821
0.267162
0.267323
0.267728
2.41489e-05
6.76543e-05
9.40967e-05
0.000126018
0.000201316
0.000360829
0.000661201
0.00115347
0.00197523
0.00324997
0.00504404
0.00738399
0.0102729
0.0136884
0.0175793
0.0218751
0.0264962
0.0313606
0.0363878
0.0415027
0.0466373
0.0517334
0.0567426
0.0616272
0.066359
0.0709189
0.0752955
0.0794838
0.083484
0.0872998
0.0909378
0.0944063
0.0977145
0.100872
0.103889
0.106773
0.109535
0.112181
0.11472
0.117158
0.119501
0.121756
0.123927
0.126019
0.128038
0.129987
0.131869
0.133689
0.13545
0.137153
0.138803
0.1404
0.141947
0.143444
0.144894
0.146297
0.147654
0.148965
0.150231
0.151453
0.152631
0.153765
0.154857
0.155906
0.156914
0.157881
0.158808
0.159697
0.160548
0.161363
0.162142
0.162887
0.163599
0.16428
0.16493
0.165551
0.166144
0.166709
0.167249
0.167764
0.168255
0.168723
0.16917
0.169596
0.170003
0.170392
0.170764
0.171119
0.17146
0.171786
0.172099
0.1724
0.172689
0.172967
0.173236
0.173495
0.173745
0.173987
0.174221
0.174448
0.174667
0.174881
0.175088
0.17529
0.175486
0.175678
0.175865
0.176049
0.176229
0.176406
0.17658
0.176752
0.176922
0.17709
0.177257
0.177423
0.177587
0.17775
0.177913
0.178074
0.178235
0.178396
0.178555
0.178715
0.178874
0.179033
0.179193
0.179352
0.179512
0.179672
0.179833
0.179995
0.180158
0.180322
0.180487
0.180654
0.180821
0.18099
0.18116
0.181331
0.181503
0.181676
0.181851
0.182026
0.182202
0.182379
0.182557
0.182737
0.182917
0.183098
0.183281
0.183465
0.18365
0.183837
0.184025
0.184214
0.184405
0.184597
0.18479
0.184985
0.18518
0.185376
0.185574
0.185771
0.18597
0.186169
0.186369
0.18657
0.186771
0.186972
0.187175
0.187378
0.187581
0.187786
0.187991
0.188197
0.188404
0.188612
0.18882
0.189029
0.189238
0.189447
0.189657
0.189867
0.190078
0.190288
0.190498
0.190708
0.190918
0.191128
0.191338
0.191549
0.191759
0.191969
0.192179
0.19239
0.192601
0.192811
0.193022
0.193234
0.193445
0.193656
0.193867
0.194078
0.194288
0.194499
0.194708
0.194918
0.195127
0.195336
0.195543
0.195751
0.195958
0.196165
0.196371
0.196579
0.196783
0.196991
0.197195
0.197403
0.197605
0.197814
0.198015
0.198225
0.198422
0.198635
0.198827
0.199044
0.199229
0.199452
0.199626
0.199859
0.20002
0.200265
0.20041
0.200669
0.200802
0.201071
0.2012
0.201524
2.34616e-05
4.40419e-05
5.67215e-05
6.12388e-05
6.78853e-05
7.8196e-05
9.38986e-05
0.000118437
0.000162578
0.000243285
0.000381325
0.000601916
0.000935552
0.0014158
0.00207517
0.00294173
0.00403731
0.00537627
0.00696472
0.00880047
0.0108735
0.0131674
0.01566
0.0183257
0.0211362
0.0240626
0.0270758
0.0301483
0.0332543
0.0363705
0.0394766
0.0425553
0.0455922
0.0485759
0.0514974
0.0543504
0.0571304
0.0598348
0.0624623
0.0650126
0.0674865
0.0698851
0.0722099
0.0744629
0.0766457
0.0787603
0.0808083
0.0827914
0.0847108
0.0865681
0.0883643
0.0901002
0.0917766
0.0933942
0.0949536
0.0964552
0.0978995
0.099287
0.100618
0.101894
0.103114
0.10428
0.105392
0.106452
0.107461
0.10842
0.10933
0.110194
0.111012
0.111787
0.11252
0.113214
0.113869
0.114488
0.115073
0.115626
0.116147
0.116638
0.117102
0.117538
0.11795
0.118337
0.118702
0.119045
0.119368
0.119671
0.119957
0.120226
0.12048
0.120718
0.120944
0.121156
0.121357
0.121548
0.121728
0.121899
0.122061
0.122215
0.122362
0.122502
0.122635
0.122762
0.122883
0.122998
0.123108
0.123214
0.123315
0.123413
0.123506
0.123597
0.123685
0.12377
0.123854
0.123936
0.124016
0.124096
0.124174
0.124252
0.124329
0.124405
0.124481
0.124557
0.124632
0.124707
0.124782
0.124857
0.124932
0.125007
0.125082
0.125157
0.125234
0.125311
0.125389
0.125468
0.125549
0.125631
0.125714
0.125799
0.125885
0.125973
0.126062
0.126153
0.126244
0.126337
0.126431
0.126526
0.126623
0.12672
0.126819
0.126918
0.127019
0.127122
0.127226
0.127331
0.127438
0.127547
0.127657
0.127769
0.127883
0.127998
0.128115
0.128233
0.128352
0.128473
0.128594
0.128716
0.12884
0.128964
0.129089
0.129215
0.129341
0.129469
0.129598
0.129727
0.129858
0.129989
0.130122
0.130256
0.130391
0.130527
0.130664
0.130802
0.13094
0.131079
0.131219
0.13136
0.1315
0.131641
0.131782
0.131924
0.132065
0.132207
0.132349
0.132492
0.132635
0.132778
0.132922
0.133066
0.133211
0.133356
0.133502
0.133648
0.133795
0.133942
0.134088
0.134236
0.134382
0.13453
0.134676
0.134823
0.134969
0.135115
0.135261
0.135407
0.135552
0.135699
0.135842
0.13599
0.136133
0.136282
0.136424
0.136575
0.136715
0.136868
0.137006
0.137161
0.137295
0.137455
0.137583
0.137748
0.137869
0.13804
0.138152
0.138331
0.138433
0.13862
0.138715
0.138908
0.139001
0.139238
2.31673e-05
4.14095e-05
5.08854e-05
5.38662e-05
5.61392e-05
5.81906e-05
5.98812e-05
6.15805e-05
6.37067e-05
6.68842e-05
7.20235e-05
8.04672e-05
9.44283e-05
0.00011717
0.000153368
0.000209193
0.000292499
0.000412818
0.000581102
0.000809425
0.00111026
0.00149604
0.00197827
0.00256709
0.00327058
0.00409453
0.00504208
0.00611375
0.00730741
0.00861858
0.0100406
0.0115652
0.0131826
0.0148822
0.0166527
0.0184827
0.0203608
0.0222759
0.0242174
0.0261753
0.0281402
0.0301036
0.0320573
0.0339943
0.0359079
0.0377923
0.0396421
0.0414526
0.0432195
0.0449396
0.0466096
0.0482271
0.0497898
0.0512963
0.0527451
0.0541357
0.0554675
0.0567404
0.0579546
0.0591106
0.0602091
0.0612508
0.0622372
0.0631695
0.0640491
0.0648778
0.0656573
0.0663897
0.0670768
0.0677208
0.0683239
0.068888
0.0694153
0.0699079
0.0703676
0.0707965
0.0711963
0.0715687
0.0719153
0.0722376
0.072537
0.0728148
0.0730722
0.0733105
0.0735308
0.0737341
0.0739217
0.0740945
0.0742535
0.0743997
0.074534
0.0746575
0.0747708
0.0748749
0.0749704
0.0750581
0.0751384
0.0752121
0.0752795
0.0753411
0.0753972
0.0754482
0.0754945
0.0755362
0.0755738
0.0756074
0.0756375
0.0756642
0.075688
0.0757092
0.075728
0.0757448
0.0757599
0.0757737
0.0757863
0.075798
0.0758091
0.0758196
0.0758298
0.0758397
0.0758494
0.075859
0.0758684
0.0758778
0.0758872
0.0758966
0.0759061
0.0759158
0.0759257
0.0759361
0.075947
0.0759586
0.0759711
0.0759845
0.075999
0.0760147
0.0760317
0.0760501
0.0760698
0.076091
0.0761135
0.0761373
0.0761623
0.0761886
0.0762161
0.0762446
0.0762743
0.076305
0.0763368
0.0763697
0.0764038
0.0764391
0.0764757
0.0765137
0.0765531
0.076594
0.0766364
0.0766803
0.0767258
0.0767729
0.0768214
0.0768713
0.0769226
0.0769751
0.0770287
0.0770834
0.0771391
0.0771958
0.0772533
0.0773117
0.077371
0.0774312
0.0774924
0.0775545
0.0776177
0.0776819
0.0777472
0.0778137
0.0778813
0.07795
0.0780198
0.0780906
0.0781624
0.0782351
0.0783085
0.0783826
0.0784574
0.0785327
0.0786084
0.0786846
0.0787612
0.0788382
0.0789156
0.0789935
0.0790718
0.0791508
0.0792302
0.0793103
0.0793909
0.0794724
0.0795542
0.0796371
0.07972
0.079804
0.0798877
0.0799726
0.0800569
0.0801424
0.0802268
0.0803128
0.0803971
0.0804835
0.0805674
0.0806542
0.0807377
0.0808252
0.0809082
0.0809968
0.0810793
0.0811694
0.0812512
0.0813433
0.081424
0.0815185
0.0815974
0.0816947
0.0817711
0.0818716
0.0819445
0.0820486
0.0821173
0.0822252
0.0822891
0.0824008
0.0824605
0.082575
0.0826325
0.0827495
0.082807
0.0829532
2.30302e-05
4.08333e-05
4.9532e-05
5.21639e-05
5.3968e-05
5.54498e-05
5.62927e-05
5.70386e-05
5.757e-05
5.81361e-05
5.85974e-05
5.91239e-05
5.96795e-05
6.04281e-05
6.14419e-05
6.29853e-05
6.52986e-05
6.89498e-05
7.44839e-05
8.30182e-05
9.56479e-05
0.000114318
0.000141009
0.00017876
0.000230705
0.000301067
0.00039416
0.000515202
0.000669405
0.000862525
0.00110009
0.00138775
0.00173059
0.00213342
0.00260008
0.00313384
0.00373664
0.00440969
0.00515255
0.00596411
0.00684141
0.00778103
0.00877772
0.00982607
0.0109191
0.0120499
0.0132106
0.0143937
0.015591
0.0167951
0.0179987
0.0191947
0.020377
0.0215398
0.0226779
0.0237871
0.0248638
0.0259048
0.0269078
0.027871
0.0287931
0.0296734
0.0305115
0.0313075
0.0320617
0.0327748
0.0334477
0.0340817
0.0346779
0.0352379
0.0357632
0.0362555
0.0367163
0.0371473
0.0375503
0.0379267
0.0382782
0.0386062
0.0389122
0.0391973
0.039463
0.0397104
0.0399405
0.0401545
0.0403533
0.040538
0.0407094
0.0408683
0.0410158
0.0411526
0.0412795
0.0413973
0.0415066
0.0416082
0.0417026
0.0417905
0.0418724
0.0419487
0.0420199
0.0420863
0.0421482
0.042206
0.0422599
0.0423102
0.042357
0.0424007
0.0424415
0.0424795
0.0425151
0.0425484
0.0425797
0.0426092
0.0426371
0.0426637
0.0426892
0.0427137
0.0427373
0.0427603
0.0427828
0.0428047
0.0428262
0.0428473
0.042868
0.0428884
0.0429085
0.0429284
0.0429479
0.0429673
0.0429865
0.0430057
0.0430248
0.0430441
0.0430635
0.0430833
0.0431034
0.0431239
0.0431449
0.0431665
0.0431887
0.0432115
0.0432349
0.0432588
0.0432833
0.0433083
0.0433337
0.0433596
0.0433858
0.0434125
0.0434396
0.043467
0.0434949
0.0435233
0.0435522
0.0435816
0.0436117
0.0436424
0.0436738
0.0437059
0.0437388
0.0437723
0.0438066
0.0438416
0.0438772
0.0439133
0.04395
0.0439872
0.0440247
0.0440627
0.044101
0.0441397
0.0441786
0.044218
0.0442577
0.0442978
0.0443383
0.0443793
0.0444208
0.0444629
0.0445054
0.0445485
0.0445922
0.0446363
0.0446809
0.0447259
0.0447713
0.0448171
0.044863
0.0449092
0.0449555
0.0450021
0.0450486
0.0450955
0.0451422
0.0451893
0.0452364
0.0452839
0.0453313
0.0453794
0.0454272
0.045476
0.0455244
0.0455738
0.0456226
0.0456727
0.0457219
0.0457725
0.0458218
0.0458729
0.0459219
0.0459733
0.0460219
0.0460737
0.0461217
0.0461739
0.0462211
0.0462739
0.0463203
0.0463741
0.0464196
0.0464746
0.0465191
0.0465758
0.0466189
0.0466775
0.0467192
0.0467798
0.0468196
0.0468822
0.0469201
0.0469845
0.0470203
0.0470861
0.0471203
0.0471867
0.0472199
0.0472865
0.0473194
0.0473862
0.0474191
0.0475026
2.30269e-05
4.08184e-05
4.9512e-05
5.21114e-05
5.39107e-05
5.53448e-05
5.61913e-05
5.68763e-05
5.74111e-05
5.79035e-05
5.83196e-05
5.87132e-05
5.9121e-05
5.95784e-05
6.01872e-05
6.10266e-05
6.22757e-05
6.42498e-05
6.73118e-05
7.22011e-05
7.97103e-05
9.1237e-05
0.000108397
0.000133615
0.000169733
0.000220514
0.000290269
0.000384153
0.00050787
0.00066768
0.000870177
0.00112208
0.00142998
0.00180015
0.00223811
0.00274863
0.00333518
0.00400017
0.00474429
0.00556709
0.00646614
0.0074381
0.00847761
0.00957888
0.0107342
0.0119362
0.0131757
0.0144447
0.0157335
0.0170346
0.0183402
0.0196425
0.0209339
0.0222081
0.0234593
0.0246825
0.0258736
0.0270293
0.0281469
0.0292246
0.0302608
0.0312548
0.0322062
0.033115
0.0339816
0.0348066
0.0355911
0.0363362
0.0370433
0.0377138
0.0383494
0.0389517
0.0395224
0.0400632
0.0405758
0.0410619
0.041523
0.0419606
0.0423761
0.0427709
0.0431461
0.0435031
0.0438429
0.0441665
0.0444749
0.0447692
0.0450501
0.0453186
0.0455755
0.0458216
0.0460577
0.0462846
0.0465029
0.0467134
0.0469165
0.0471129
0.0473031
0.0474875
0.0476664
0.0478403
0.0480095
0.0481741
0.0483345
0.0484907
0.0486431
0.0487919
0.0489371
0.049079
0.0492178
0.0493537
0.049487
0.0496177
0.0497461
0.0498725
0.0499969
0.0501196
0.0502407
0.0503602
0.0504783
0.050595
0.0507103
0.0508243
0.0509369
0.0510482
0.0511581
0.0512667
0.0513739
0.0514799
0.0515846
0.051688
0.0517904
0.0518917
0.0519921
0.0520916
0.0521904
0.0522885
0.052386
0.052483
0.0525794
0.0526753
0.0527707
0.0528655
0.0529598
0.0530534
0.0531464
0.0532387
0.0533303
0.0534211
0.0535112
0.0536006
0.0536894
0.0537775
0.0538651
0.0539523
0.054039
0.0541255
0.0542116
0.0542975
0.0543833
0.0544688
0.0545541
0.0546392
0.0547241
0.0548086
0.0548927
0.0549764
0.0550597
0.0551425
0.0552248
0.0553065
0.0553878
0.0554686
0.0555489
0.0556289
0.0557086
0.055788
0.0558672
0.0559462
0.0560251
0.0561039
0.0561825
0.0562611
0.0563394
0.0564176
0.0564955
0.0565731
0.0566503
0.0567271
0.0568035
0.0568794
0.0569548
0.0570298
0.0571043
0.0571785
0.0572521
0.0573257
0.0573987
0.0574719
0.0575445
0.0576174
0.0576896
0.0577624
0.0578343
0.0579069
0.0579783
0.0580506
0.0581213
0.0581932
0.058263
0.0583344
0.058403
0.058474
0.0585412
0.0586118
0.0586776
0.0587482
0.0588126
0.0588835
0.0589464
0.0590181
0.0590793
0.0591523
0.0592117
0.0592864
0.0593434
0.0594202
0.0594744
0.0595535
0.0596045
0.0596859
0.0597334
0.0598168
0.0598611
0.0599457
0.059988
0.0600726
0.0601138
0.0601979
0.0602375
0.0603363
2.31573e-05
4.1378e-05
5.07952e-05
5.36809e-05
5.59042e-05
5.77641e-05
5.92811e-05
6.06185e-05
6.22355e-05
6.44315e-05
6.78582e-05
7.33677e-05
8.25176e-05
9.76536e-05
0.00012236
0.00016155
0.000221906
0.00031187
0.000441804
0.000623554
0.000870258
0.00119549
0.00161289
0.00213511
0.00277344
0.0035369
0.00443212
0.00546273
0.0066296
0.00793059
0.00936108
0.0109139
0.0125803
0.0143496
0.0162105
0.0181508
0.0201581
0.0222201
0.0243249
0.0264609
0.0286175
0.0307839