/*--------------------------------*- C++ -*----------------------------------*\
  =========                 |
  \\      /  F ield         | OpenFOAM: The Open Source CFD Toolbox
   \\    /   O peration     | Website:  https://openfoam.org
    \\  /    A nd           | Version:  7
     \\/     M anipulation  |
\*---------------------------------------------------------------------------*/
FoamFile
{
    version     2.0;
    format      ascii;
    class       surfaceScalarField;
    location    "0.1275";
    object      phi;
}
// * * * * * * * * * * * * * * * * * * * * * * * * * * * * * * * * * * * * * //

dimensions      [1 0 -1 0 0 0 0];

internalField   nonuniform List<scalar> 
2748
(
0.00483639
2.33131e-05
0.00477658
5.98138e-05
0.00467955
9.70434e-05
0.00455342
0.000126128
0.00440473
0.000148695
0.00424069
0.000164044
0.0040674
0.000173289
0.00389023
0.000177178
0.00371334
0.000176895
0.00354011
0.000173233
0.00337297
0.00016715
0.00321348
0.000159498
0.0030629
0.000150595
0.00292194
0.000140964
0.00279097
0.000130984
0.00267003
0.000120943
0.002559
0.000111047
0.00245755
0.000101456
0.00236527
9.22847e-05
0.00228166
8.36156e-05
0.00220616
7.55029e-05
0.00213819
6.7975e-05
0.00207715
6.1045e-05
0.00202245
5.47099e-05
0.0019735
4.89549e-05
0.00192975
4.37572e-05
0.00189067
3.90876e-05
0.00185576
3.49131e-05
0.00182457
3.11981e-05
0.00179667
2.79063e-05
0.00177168
2.50004e-05
0.00174924
2.24445e-05
0.00172905
2.02031e-05
0.00171081
1.82427e-05
0.00169429
1.65321e-05
0.00167926
1.50425e-05
0.00166551
1.37477e-05
0.0016529
1.26249e-05
0.00164125
1.16528e-05
0.00163044
1.08146e-05
0.00162036
1.00923e-05
0.00161089
9.47538e-06
0.00160195
8.94597e-06
0.00159345
8.50286e-06
0.00158534
8.12182e-06
0.00157753
7.81999e-06
0.00156998
7.55148e-06
0.00156261
7.3758e-06
0.00155543
7.18727e-06
0.0015483
7.14582e-06
0.00154131
6.99942e-06
0.00153418
7.1353e-06
0.00152721
6.97662e-06
0.00151983
7.38458e-06
0.00151269
7.14727e-06
0.00150472
7.97707e-06
0.00149705
7.68563e-06
0.00148797
9.07903e-06
0.00147867
9.31484e-06
1.13075e-05
0.00146737
0.00486686
1.60417e-05
0.00488453
4.21527e-05
0.00491246
6.91151e-05
0.00494612
9.24733e-05
0.00498145
0.000113372
0.00501484
0.000130658
0.00504358
0.000144554
0.0050659
0.000154854
0.00508094
0.00016186
0.00508843
0.000165753
0.00508866
0.000166923
0.00508232
0.000165851
0.00507012
0.000162797
0.00505291
0.000158191
0.00503152
0.000152381
0.00500678
0.000145699
0.00497941
0.000138428
0.00495006
0.000130813
0.0049193
0.000123059
0.00488759
0.000115335
0.00485533
0.000107774
0.00482283
0.000100482
0.00479035
9.3535e-05
0.00475808
8.69841e-05
0.00472617
8.08625e-05
0.00469475
7.51866e-05
0.00466388
6.9959e-05
0.00463362
6.51724e-05
0.00460401
6.08112e-05
0.00457507
5.68547e-05
0.00454679
5.32776e-05
0.00451919
5.00529e-05
0.00449225
4.71515e-05
0.00446595
4.45453e-05
0.00444029
4.22057e-05
0.00441524
4.01069e-05
0.00439077
3.82234e-05
0.00436688
3.65342e-05
0.00434352
3.50172e-05
0.00432069
3.36571e-05
0.00429836
3.24341e-05
0.00427651
3.13404e-05
0.00425511
3.03546e-05
0.00423414
2.94806e-05
0.00421358
2.86879e-05
0.0041934
2.80038e-05
0.00417358
2.73696e-05
0.0041541
2.68643e-05
0.00413493
2.63596e-05
0.00411603
2.60482e-05
0.00409738
2.56452e-05
0.00407894
2.55786e-05
0.00406068
2.52495e-05
0.00404255
2.55219e-05
0.00402445
2.52626e-05
0.00400644
2.5994e-05
0.00398821
2.59352e-05
0.00397013
2.71721e-05
0.00395157
2.78986e-05
2.93823e-05
0.00393351
0.00486486
1.07459e-05
0.00487742
2.96037e-05
0.00489775
4.87855e-05
0.00492464
6.55917e-05
0.00495719
8.08303e-05
0.00499428
9.35687e-05
0.00503479
0.000104046
0.00507758
0.00011207
0.00512158
0.000117861
0.00516581
0.000121526
0.00520943
0.000123313
0.00525177
0.000123519
0.00529226
0.000122315
0.00533049
0.00011997
0.00536618
0.000116704
0.00539916
0.000112735
0.00542935
0.000108249
0.00545676
0.000103416
0.00548145
9.83807e-05
0.00550353
9.32676e-05
0.00552314
8.81796e-05
0.00554043
8.32008e-05
0.00555557
7.83967e-05
0.00556875
7.38162e-05
0.00558012
6.94938e-05
0.00558986
6.54518e-05
0.00559812
6.17016e-05
0.00560505
5.82463e-05
0.00561078
5.5082e-05
0.00561544
5.21996e-05
0.00561913
4.95857e-05
0.00562196
4.72246e-05
0.00562401
4.50985e-05
0.00562537
4.31892e-05
0.0056261
4.14776e-05
0.00562627
3.99464e-05
0.00562592
3.85779e-05
0.00562511
3.73576e-05
0.00562387
3.62698e-05
0.00562223
3.53044e-05
0.00562023
3.44466e-05
0.0056179
3.36928e-05
0.00561524
3.30256e-05
0.00561228
3.24525e-05
0.00560904
3.19466e-05
0.00560552
3.1537e-05
0.00560173
3.1171e-05
0.00559768
3.09239e-05
0.00559337
3.06831e-05
0.0055888
3.06195e-05
0.00558395
3.04951e-05
0.00557887
3.06644e-05
0.00557346
3.06581e-05
0.00556784
3.11395e-05
0.00556181
3.12918e-05
0.00555563
3.21737e-05
0.00554892
3.26435e-05
0.00554214
3.39536e-05
0.00553489
3.51489e-05
3.67359e-05
0.00552754
0.00486337
6.88891e-06
0.00487351
1.94789e-05
0.00489017
3.21262e-05
0.00491263
4.31313e-05
0.00494041
5.30589e-05
0.00497266
6.13179e-05
0.00500861
6.81049e-05
0.00504737
7.33089e-05
0.00508815
7.70875e-05
0.00513016
7.95196e-05
0.00517272
8.07595e-05
0.00521527
8.09788e-05
0.00525729
8.02989e-05
0.00529839
7.88846e-05
0.00533823
7.68695e-05
0.00537659
7.43905e-05
0.00541329
7.15651e-05
0.00544821
6.85019e-05
0.00548131
6.5294e-05
0.00551257
6.20228e-05
0.00554201
5.87557e-05
0.00556967
5.55489e-05
0.00559563
5.24464e-05
0.00561997
4.94816e-05
0.00564279
4.66787e-05
0.00566419
4.40539e-05
0.00568428
4.16164e-05
0.00570316
3.93695e-05
0.00572093
3.73119e-05
0.00573769
3.5439e-05
0.00575353
3.3743e-05
0.00576854
3.22146e-05
0.0057828
3.08428e-05
0.00579637
2.96166e-05
0.00580933
2.8524e-05
0.00582172
2.75545e-05
0.00583361
2.66965e-05
0.00584504
2.59419e-05
0.00585604
2.52795e-05
0.00586665
2.47053e-05
0.0058769
2.42073e-05
0.00588682
2.37877e-05
0.00589644
2.34307e-05
0.00590576
2.31496e-05
0.0059148
2.29177e-05
0.00592359
2.27695e-05
0.00593212
2.26532e-05
0.00594041
2.26453e-05
0.00594846
2.26413e-05
0.00595629
2.27976e-05
0.00596389
2.29103e-05
0.00597128
2.32746e-05
0.00597842
2.35222e-05
0.0059854
2.41551e-05
0.0059921
2.45901e-05
0.00599872
2.555e-05
0.00600505
2.63033e-05
0.00601141
2.75956e-05
0.00601764
2.89128e-05
3.0419e-05
0.00602395
0.00486301
3.37924e-06
0.004873
9.49729e-06
0.00488953
1.56058e-05
0.00491164
2.1022e-05
0.00493874
2.59646e-05
0.00496993
3.01266e-05
0.00500445
3.35868e-05
0.0050415
3.62664e-05
0.00508036
3.82314e-05
0.00512037
3.9512e-05
0.00516096
4.01814e-05
0.00520162
4.03256e-05
0.00524192
4.00091e-05
0.00528149
3.93169e-05
0.00532006
3.83189e-05
0.00535737
3.70865e-05
0.00539327
3.56803e-05
0.00542763
3.41557e-05
0.00546038
3.25599e-05
0.00549148
3.09337e-05
0.00552094
2.93107e-05
0.00554878
2.77186e-05
0.00557505
2.61794e-05
0.00559983
2.47093e-05
0.0056232
2.33205e-05
0.00564523
2.2021e-05
0.00566604
2.08152e-05
0.0056857
1.97051e-05
0.00570432
1.86902e-05
0.00572199
1.77683e-05
0.0057388
1.69358e-05
0.00575483
1.61886e-05
0.00577015
1.55213e-05
0.00578484
1.49293e-05
0.00579896
1.44065e-05
0.00581257
1.3949e-05
0.00582572
1.35505e-05
0.00583846
1.32091e-05
0.00585083
1.29182e-05
0.00586287
1.2679e-05
0.00587461
1.24833e-05
0.00588608
1.2338e-05
0.0058973
1.22297e-05
0.00590829
1.21763e-05
0.00591907
1.21525e-05
0.00592966
1.21964e-05
0.00594007
1.22589e-05
0.00595031
1.24147e-05
0.0059604
1.25702e-05
0.00597034
1.28636e-05
0.00598013
1.31261e-05
0.00598981
1.35948e-05
0.00599934
1.39913e-05
0.00600882
1.468e-05
0.00601814
1.52637e-05
0.00602748
1.62084e-05
0.0060367
1.70756e-05
0.00604602
1.82714e-05
0.00605538
1.95465e-05
2.09085e-05
0.00606489
0.00486287
9.5157e-11
0.00487237
2.72146e-10
0.00488798
4.75512e-10
0.00490901
6.97125e-10
0.00493497
9.66951e-10
0.0049651
1.28563e-09
0.00499869
1.6678e-09
0.00503496
2.16059e-09
0.00507319
2.7258e-09
0.0051127
3.4753e-09
0.00515289
4.2825e-09
0.00519322
5.4064e-09
0.00523323
6.67672e-09
0.00527255
8.22301e-09
0.00531087
1.00403e-08
0.00534795
1.22521e-08
0.00538363
1.4874e-08
0.00541778
1.7979e-08
0.00545033
2.16357e-08
0.00548126
2.5947e-08
0.00551055
3.10115e-08
0.00553824
3.69529e-08
0.00556438
4.39015e-08
0.00558905
5.20293e-08
0.00561231
6.15103e-08
0.00563426
7.25824e-08
0.005655
8.54661e-08
0.0056746
1.00502e-07
0.00569317
1.17961e-07
0.0057108
1.38337e-07
0.00572758
1.6194e-07
0.00574357
1.89514e-07
0.00575887
2.21355e-07
0.00577355
2.58627e-07
0.00578765
3.01466e-07
0.00580126
3.51805e-07
0.00581441
4.09291e-07
0.00582715
4.77244e-07
0.00583952
5.54121e-07
0.00585157
6.4587e-07
0.00586332
7.48252e-07
0.0058748
8.72226e-07
0.00588604
1.00789e-06
0.00589706
1.17563e-06
0.00590787
1.35434e-06
0.0059185
1.58166e-06
0.00592896
1.81567e-06
0.00593927
2.12394e-06
0.00594942
2.42879e-06
0.00595945
2.84595e-06
0.00596934
3.24247e-06
0.00597913
3.80233e-06
0.0059888
4.32073e-06
0.00599842
5.05794e-06
0.00600794
5.74437e-06
0.00601746
6.68154e-06
0.00602693
7.60113e-06
0.00603647
8.72693e-06
0.00604607
9.93793e-06
1.11857e-05
0.00605579
0.00486287
-3.37905e-06
0.00487237
-9.49676e-06
0.00488798
-1.56049e-05
0.00490901
-2.10206e-05
0.00493497
-2.59628e-05
0.0049651
-3.01241e-05
0.00499869
-3.35836e-05
0.00503496
-3.62622e-05
0.00507319
-3.82261e-05
0.00511271
-3.95052e-05
0.00515289
-4.0173e-05
0.00519322
-4.0315e-05
0.00523323
-3.99961e-05
0.00527255
-3.93007e-05
0.00531087
-3.82992e-05
0.00534796
-3.70624e-05
0.00538364
-3.5651e-05
0.00541779
-3.41203e-05
0.00545034
-3.25173e-05
0.00548126
-3.08825e-05
0.00551055
-2.92495e-05
0.00553825
-2.76457e-05
0.00556439
-2.60927e-05
0.00558906
-2.46066e-05
0.00561232
-2.3199e-05
0.00563428
-2.18775e-05
0.00565501
-2.06462e-05
0.00567462
-1.95064e-05
0.00569319
-1.84568e-05
0.00571082
-1.74946e-05
0.0057276
-1.66153e-05
0.0057436
-1.58135e-05
0.00575891
-1.50832e-05
0.00577359
-1.44173e-05
0.0057877
-1.38096e-05
0.00580131
-1.32524e-05
0.00581447
-1.274e-05
0.00582722
-1.22639e-05
0.0058396
-1.18206e-05
0.00585166
-1.13997e-05
0.00586342
-1.10008e-05
0.00587492
-1.06099e-05
0.00588618
-1.02324e-05
0.00589722
-9.84669e-06
0.00590806
-9.46816e-06
0.00591872
-9.06161e-06
0.00592921
-8.65961e-06
0.00593955
-8.20394e-06
0.00594975
-7.75478e-06
0.00595982
-7.21913e-06
0.00596977
-6.69641e-06
0.00597962
-6.04868e-06
0.00598936
-5.42077e-06
0.00599905
-4.63212e-06
0.00600865
-3.86007e-06
0.00601824
-2.91499e-06
0.00602779
-1.9574e-06
0.00603738
-8.69073e-07
0.00604703
2.90887e-07
1.46653e-06
0.00605674
0.00486301
-6.88874e-06
0.004873
-1.94784e-05
0.00488953
-3.21254e-05
0.00491164
-4.31301e-05
0.00493874
-5.30572e-05
0.00496993
-6.13156e-05
0.00500445
-6.8102e-05
0.0050415
-7.3305e-05
0.00508036
-7.70825e-05
0.00512037
-7.95133e-05
0.00516096
-8.07515e-05
0.00520162
-8.09689e-05
0.00524192
-8.02866e-05
0.0052815
-7.88694e-05
0.00532006
-7.68508e-05
0.00535738
-7.43676e-05
0.00539328
-7.15372e-05
0.00542764
-6.84681e-05
0.00546039
-6.52532e-05
0.00549149
-6.19737e-05
0.00552095
-5.8697e-05
0.0055488
-5.54788e-05
0.00557508
-5.2363e-05
0.00559986
-4.93826e-05
0.00562323
-4.65615e-05
0.00564527
-4.39156e-05
0.00566608
-4.14533e-05
0.00568575
-3.91776e-05
0.00570438
-3.70865e-05
0.00572206
-3.51745e-05
0.00573888
-3.34331e-05
0.00575491
-3.18518e-05
0.00577025
-3.04188e-05
0.00578496
-2.91211e-05
0.00579909
-2.79461e-05
0.00581273
-2.688e-05
0.00582591
-2.59113e-05
0.00583868
-2.50263e-05
0.00585108
-2.42157e-05
0.00586316
-2.34655e-05
0.00587495
-2.27698e-05
0.00588646
-2.21126e-05
0.00589774
-2.14933e-05
0.0059088
-2.08907e-05
0.00591967
-2.03129e-05
0.00593035
-1.97287e-05
0.00594087
-1.916e-05
0.00595123
-1.85587e-05
0.00596146
-1.79678e-05
0.00597156
-1.7315e-05
0.00598154
-1.66712e-05
0.00599143
-1.59347e-05
0.00600122
-1.52063e-05
0.00601095
-1.43603e-05
0.0060206
-1.35147e-05
0.00603023
-1.2548e-05
0.00603982
-1.15593e-05
0.00604943
-1.04858e-05
0.00605908
-9.35606e-06
-8.22317e-06
0.00606876
0.00486337
-1.07457e-05
0.00487351
-2.96033e-05
0.00489017
-4.87848e-05
0.00491264
-6.55907e-05
0.00494041
-8.08289e-05
0.00497266
-9.35667e-05
0.00500861
-0.000104044
0.00504737
-0.000112066
0.00508815
-0.000117856
0.00513016
-0.000121521
0.00517272
-0.000123306
0.00521527
-0.00012351
0.0052573
-0.000122304
0.0052984
-0.000119956
0.00533824
-0.000116687
0.0053766
-0.000112714
0.0054133
-0.000108223
0.00544823
-0.000103385
0.00548133
-9.83429e-05
0.00551259
-9.32221e-05
0.00554203
-8.81249e-05
0.0055697
-8.31354e-05
0.00559567
-7.83189e-05
0.00562001
-7.37237e-05
0.00564284
-6.93843e-05
0.00566425
-6.53225e-05
0.00568435
-6.15492e-05
0.00570324
-5.8067e-05
0.00572103
-5.48714e-05
0.00573781
-5.19525e-05
0.00575367
-4.92964e-05
0.0057687
-4.68862e-05
0.00578299
-4.47032e-05
0.00579659
-4.27276e-05
0.00580959
-4.09395e-05
0.00582203
-3.93189e-05
0.00583398
-3.78477e-05
0.00584547
-3.65072e-05
0.00585654
-3.5282e-05
0.00586725
-3.41548e-05
0.0058776
-3.31141e-05
0.00588765
-3.21422e-05
0.00589741
-3.12327e-05
0.0059069
-3.03653e-05
0.00591614
-2.95406e-05
0.00592516
-2.87319e-05
0.00593397
-2.79507e-05
0.00594258
-2.71592e-05
0.00595101
-2.63847e-05
0.00595928
-2.5573e-05
0.00596738
-2.47715e-05
0.00597536
-2.39074e-05
0.0059832
-2.30482e-05
0.00599095
-2.21082e-05
0.0059986
-2.11647e-05
0.00600619
-2.01404e-05
0.00601372
-1.90979e-05
0.00602123
-1.80039e-05
0.00602875
-1.68754e-05
-1.57543e-05
0.00603628
0.00486486
-1.60416e-05
0.00487742
-4.21524e-05
0.00489775
-6.91145e-05
0.00492464
-9.24725e-05
0.00495719
-0.000113371
0.00499428
-0.000130656
0.00503479
-0.000144552
0.00507758
-0.000154851
0.00512158
-0.000161857
0.00516582
-0.000165748
0.00520943
-0.000166917
0.00525177
-0.000165843
0.00529227
-0.000162788
0.0053305
-0.00015818
0.00536619
-0.000152366
0.00539917
-0.000145682
0.00542937
-0.000138406
0.00545678
-0.000130787
0.00548148
-0.000123027
0.00550357
-0.000115297
0.00552318
-0.000107729
0.00554049
-0.000100428
0.00555565
-9.34706e-05
0.00556884
-8.69079e-05
0.00558023
-8.07725e-05
0.00559
-7.50807e-05
0.00559828
-6.98346e-05
0.00560525
-6.50265e-05
0.00561101
-6.06405e-05
0.00561572
-5.66552e-05
0.00561947
-5.30449e-05
0.00562236
-4.97814e-05
0.0056245
-4.68355e-05
0.00562595
-4.41774e-05
0.00562679
-4.17782e-05
0.00562709
-3.96099e-05
0.00562689
-3.76469e-05
0.00562626
-3.58648e-05
0.00562523
-3.42419e-05
0.00562385
-3.27573e-05
0.00562214
-3.13941e-05
0.00562015
-3.01332e-05
0.00561789
-2.89628e-05
0.00561541
-2.78637e-05
0.00561271
-2.68303e-05
0.00560983
-2.58404e-05
0.00560679
-2.48971e-05
0.00560362
-2.39716e-05
0.00560032
-2.30789e-05
0.00559693
-2.21803e-05
0.00559347
-2.13052e-05
0.00558997
-2.04038e-05
0.00558644
-1.95191e-05
0.00558292
-1.85947e-05
0.00557944
-1.76795e-05
0.00557602
-1.67251e-05
0.00557269
-1.57703e-05
0.00556949
-1.47976e-05
0.00556643
-1.38161e-05
-1.28567e-05
0.00556353
0.00486686
-2.3313e-05
0.00488453
-5.98136e-05
0.00491246
-9.70431e-05
0.00494612
-0.000126128
0.00498145
-0.000148694
0.00501484
-0.000164043
0.00504358
-0.000173288
0.00506591
-0.000177176
0.00508095
-0.000176893
0.00508843
-0.00017323
0.00508867
-0.000167147
0.00508233
-0.000159493
0.00507014
-0.000150589
0.00505293
-0.000140957
0.00503155
-0.000130976
0.00500681
-0.000120933
0.00497945
-0.000111034
0.00495012
-0.000101441
0.00491937
-9.2267e-05
0.00488768
-8.35944e-05
0.00485543
-7.54777e-05
0.00482296
-6.79452e-05
0.00479051
-6.10097e-05
0.00475827
-5.46684e-05
0.00472641
-4.89062e-05
0.00469503
-4.37002e-05
0.00466422
-3.90209e-05
0.00463403
-3.48353e-05
0.0046045
-3.11075e-05
0.00457565
-2.78009e-05
0.00454749
-2.4878e-05
0.00452001
-2.23024e-05
0.00449322
-2.00383e-05
0.00446711
-1.80516e-05
0.00444165
-1.63108e-05
0.00441684
-1.47863e-05
0.00439265
-1.34514e-05
0.00436908
-1.22821e-05
0.00434611
-1.1257e-05
0.00432372
-1.03567e-05
0.0043019
-9.56464e-06
0.00428065
-8.86454e-06
0.00425994
-8.24404e-06
0.00423977
-7.68851e-06
0.00422013
-7.19049e-06
0.00420103
-6.7348e-06
0.00418246
-6.32e-06
0.00416442
-5.9284e-06
0.0041469
-5.56595e-06
0.00412994
-5.2104e-06
0.00411351
-4.8762e-06
0.00409765
-4.53566e-06
0.00408235
-4.21075e-06
0.00406763
-3.87093e-06
0.0040535
-3.54107e-06
0.00403999
-3.19607e-06
0.00402709
-2.85496e-06
0.00401482
-2.51023e-06
0.00400318
-2.16503e-06
-1.83713e-06
0.00399218
0.00483639
0.00477658
0.00467955
0.00455342
0.00440473
0.00424069
0.00406741
0.00389024
0.00371335
0.00354012
0.00337299
0.0032135
0.00306292
0.00292197
0.00279101
0.00267008
0.00255906
0.00245762
0.00236536
0.00228177
0.0022063
0.00213836
0.00207735
0.00202269
0.00197379
0.0019301
0.00189109
0.00185626
0.00182516
0.00179736
0.00177249
0.0017502
0.00173017
0.00171213
0.00169582
0.00168105
0.0016676
0.00165533
0.00164408
0.00163373
0.00162417
0.00161531
0.00160707
0.00159939
0.00159221
0.00158548
0.00157917
0.00157325
0.00156769
0.00156249
0.00155762
0.00155309
0.00154889
0.00154503
0.00154149
0.0015383
0.00153546
0.00153295
0.0015308
0.00152897
0.00145225
1.51065e-05
0.00143687
1.53473e-05
0.0014206
1.62486e-05
0.00140434
1.62633e-05
0.00138788
1.64756e-05
0.00137155
1.63421e-05
0.00135528
1.62642e-05
0.00133925
1.60256e-05
0.00132342
1.58045e-05
0.00130789
1.55099e-05
0.00129266
1.5223e-05
0.00127776
1.49011e-05
0.00126319
1.45792e-05
0.00124896
1.42374e-05
0.00123507
1.38937e-05
0.00122152
1.35424e-05
0.0012083
1.31963e-05
0.00119543
1.28556e-05
0.00118289
1.25267e-05
0.00117068
1.22081e-05
0.00115879
1.19002e-05
0.0011472
1.15997e-05
0.00113591
1.13054e-05
0.00112491
1.10164e-05
0.00111417
1.0734e-05
0.0011037
1.04606e-05
0.00109349
1.01989e-05
0.00108352
9.95024e-06
0.0010738
9.71416e-06
0.00106431
9.48892e-06
0.00105505
9.27129e-06
0.00104601
9.05835e-06
0.00103717
8.84767e-06
0.00102853
8.63951e-06
0.00102009
8.43524e-06
0.00101183
8.23753e-06
0.00100376
8.04887e-06
0.000995869
7.86929e-06
0.000988158
7.6997e-06
0.000980626
7.53359e-06
0.000973264
7.37416e-06
0.000966074
7.20778e-06
0.000959041
7.04979e-06
0.000952175
6.87472e-06
0.000945452
6.72253e-06
0.000938905
6.53985e-06
0.000932491
6.4061e-06
0.000926275
6.21145e-06
0.000920179
6.10165e-06
0.00091432
5.87505e-06
0.000908561
5.78312e-06
0.000903084
5.49922e-06
0.00089769
5.41235e-06
0.00089263
5.06327e-06
0.000887671
4.94999e-06
0.000883085
4.56337e-06
0.00087871
4.34217e-06
0.000874707
3.97215e-06
0.000871115
3.55605e-06
3.07824e-06
0.00391613
3.25028e-05
0.00389771
3.37798e-05
0.00387848
3.54926e-05
0.00385839
3.63608e-05
0.00383753
3.73345e-05
0.00381601
3.78706e-05
0.00379389
3.83851e-05
0.00377127
3.86441e-05
0.00374823
3.88432e-05
0.00372486
3.8883e-05
0.00370122
3.88589e-05
0.00367739
3.87293e-05
0.00365342
3.85416e-05
0.00362938
3.82802e-05
0.00360531
3.79714e-05
0.00358124
3.76129e-05
0.00355722
3.72218e-05
0.00353328
3.68011e-05
0.00350945
3.63613e-05
0.00348576
3.59047e-05
0.00346222
3.54364e-05
0.00343886
3.49569e-05
0.0034157
3.44691e-05
0.00339274
3.39743e-05
0.00337
3.34757e-05
0.00334748
3.29764e-05
0.00332519
3.24794e-05
0.00330315
3.19868e-05
0.00328136
3.14995e-05
0.00325983
3.10175e-05
0.00323856
3.05394e-05
0.00321755
3.00647e-05
0.00319682
2.95922e-05
0.00317634
2.9123e-05
0.00315613
2.86579e-05
0.00313618
2.81991e-05
0.00311649
2.77478e-05
0.00309706
2.73036e-05
0.00307788
2.68684e-05
0.00305897
2.64343e-05
0.00304033
2.60098e-05
0.00302195
2.55739e-05
0.00300384
2.51552e-05
0.00298601
2.47047e-05
0.00296843
2.4297e-05
0.00295115
2.38193e-05
0.00293413
2.34367e-05
0.00291745
2.29044e-05
0.002901
2.25651e-05
0.00288497
2.19257e-05
0.00286913
2.16557e-05
0.00285383
2.08292e-05
0.00283861
2.06695e-05
0.00282417
1.9554e-05
0.00280961
1.9547e-05
0.00279619
1.80198e-05
0.00278238
1.81635e-05
0.0027703
1.60657e-05
0.00275755
1.62803e-05
1.32703e-05
0.0055209
3.91559e-05
0.00551409
4.05978e-05
0.00550722
4.23795e-05
0.00550007
4.35217e-05
0.0054927
4.4721e-05
0.00548505
4.55379e-05
0.00547716
4.63028e-05
0.005469
4.68254e-05
0.0054606
4.72662e-05
0.00545195
4.75451e-05
0.00544309
4.77424e-05
0.00543401
4.78258e-05
0.00542473
4.78369e-05
0.00541526
4.77651e-05
0.0054056
4.76349e-05
0.00539577
4.74462e-05
0.00538578
4.72154e-05
0.00537564
4.69464e-05
0.00536534
4.66494e-05
0.00535491
4.63274e-05
0.00534436
4.59859e-05
0.00533368
4.56266e-05
0.00532288
4.52526e-05
0.00531198
4.48659e-05
0.00530098
4.44697e-05
0.00528988
4.40666e-05
0.0052787
4.36595e-05
0.00526744
4.325e-05
0.0052561
4.28392e-05
0.0052447
4.24271e-05
0.00523323
4.20135e-05
0.00522172
4.15981e-05
0.00521015
4.1181e-05
0.00519853
4.07633e-05
0.00518686
4.03468e-05
0.00517515
3.99326e-05
0.00516339
3.95232e-05
0.0051516
3.91159e-05
0.00513977
3.87147e-05
0.0051279
3.83087e-05
0.00511601
3.791e-05
0.00510409
3.74915e-05
0.00509215
3.70894e-05
0.0050802
3.66417e-05
0.00506824
3.62384e-05
0.00505631
3.57393e-05
0.00504438
3.53467e-05
0.00503251
3.47553e-05
0.00502067
3.43961e-05
0.00500894
3.36378e-05
0.00499724
3.33576e-05
0.00498576
3.23105e-05
0.00497425
3.21962e-05
0.00496315
3.06707e-05
0.00495187
3.08555e-05
0.00494136
2.85566e-05
0.00493038
2.91859e-05
0.0049208
2.56735e-05
0.00491036
2.67583e-05
2.14792e-05
0.00603064
3.2469e-05
0.00603728
3.39554e-05
0.00604401
3.56573e-05
0.00605063
3.69079e-05
0.00605719
3.81753e-05
0.0060636
3.91394e-05
0.00606988
4.00377e-05
0.006076
4.07279e-05
0.00608196
4.13294e-05
0.00608775
4.17828e-05
0.00609337
4.21498e-05
0.00609882
4.24078e-05
0.00610409
4.25904e-05
0.00610919
4.26917e-05
0.00611412
4.27317e-05
0.00611887
4.27123e-05
0.00612346
4.26471e-05
0.00612788
4.25405e-05
0.00613213
4.24017e-05
0.00613623
4.22345e-05
0.00614017
4.20442e-05
0.00614396
4.18335e-05
0.0061476
4.16056e-05
0.00615109
4.13631e-05
0.00615443
4.11086e-05
0.00615764
4.08447e-05
0.00616071
4.05738e-05
0.00616364
4.02977e-05
0.00616645
4.00173e-05
0.00616913
3.97335e-05
0.00617169
3.94465e-05
0.00617413
3.91566e-05
0.00617645
3.88641e-05
0.00617865
3.85698e-05
0.00618073
3.82754e-05
0.0061827
3.79804e-05
0.00618455
3.76878e-05
0.0061863
3.73934e-05
0.00618794
3.71028e-05
0.00618947
3.68033e-05
0.0061909
3.65098e-05
0.00619223
3.61928e-05
0.00619345
3.58906e-05
0.00619458
3.55388e-05
0.00619561
3.52267e-05
0.00619654
3.48168e-05
0.0061974
3.45013e-05
0.00619816
3.39932e-05
0.00619886
3.36912e-05
0.00619947
3.30167e-05
0.00620005
3.27672e-05
0.00620052
3.1814e-05
0.006201
3.16946e-05
0.00620137
3.02789e-05
0.00620178
3.04186e-05
0.00620208
2.82373e-05
0.00620244
2.88016e-05
0.00620272
2.53787e-05
0.00620303
2.64316e-05
2.11806e-05
0.00607478
2.2576e-05
0.00608481
2.39254e-05
0.00609505
2.54177e-05
0.00610536
2.66036e-05
0.00611576
2.77886e-05
0.00612617
2.87415e-05
0.0061366
2.96266e-05
0.00614701
3.03391e-05
0.0061574
3.09646e-05
0.00616775
3.14601e-05
0.00617806
3.18713e-05
0.00618831
3.21833e-05
0.00619851
3.24222e-05
0.00620865
3.25854e-05
0.00621871
3.26894e-05
0.00622871
3.27369e-05
0.00623864
3.27395e-05
0.0062485
3.27018e-05
0.00625828
3.26318e-05
0.00626799
3.25334e-05
0.00627762
3.2412e-05
0.00628718
3.22707e-05
0.00629667
3.21127e-05
0.00630608
3.19408e-05
0.00631541
3.17577e-05
0.00632467
3.15657e-05
0.00633386
3.1367e-05
0.00634297
3.11634e-05
0.00635201
3.09561e-05
0.00636098
3.07458e-05
0.00636987
3.05332e-05
0.0063787
3.03184e-05
0.00638745
3.01021e-05
0.00639614
2.9884e-05
0.00640475
2.96661e-05
0.0064133
2.94464e-05
0.00642177
2.92284e-05
0.00643018
2.9006e-05
0.00643853
2.87864e-05
0.00644681
2.85552e-05
0.00645502
2.83289e-05
0.00646317
2.80775e-05
0.00647126
2.78389e-05
0.00647928
2.75522e-05
0.00648724
2.72988e-05
0.00649513
2.69575e-05
0.00650296
2.66915e-05
0.00651071
2.62648e-05
0.00651841
2.59948e-05
0.006526
2.54339e-05
0.00653358
2.5181e-05
0.00654097
2.44089e-05
0.00654843
2.42152e-05
0.00655557
2.31105e-05
0.0065629
2.30473e-05
0.00656969
2.1412e-05
0.00657687
2.15751e-05
0.00658312
1.90914e-05
0.00658996
1.95487e-05
1.57652e-05
0.00606573
1.26308e-05
0.00607578
1.38813e-05
0.00608598
1.52147e-05
0.00609626
1.63312e-05
0.00610664
1.7428e-05
0.00611705
1.83421e-05
0.00612751
1.91863e-05
0.00613799
1.98847e-05
0.00614848
2.04987e-05
0.00615897
2.09975e-05
0.00616946
2.14155e-05
0.00617993
2.17429e-05
0.00619038
2.20002e-05
0.00620081
2.21873e-05
0.00621121
2.23177e-05
0.00622157
2.23951e-05
0.0062319
2.24292e-05
0.0062422
2.24246e-05
0.00625245
2.23883e-05
0.00626266
2.23246e-05
0.00627284
2.22382e-05
0.00628297
2.21326e-05
0.00629306
2.20113e-05
0.00630311
2.18769e-05
0.00631312
2.17321e-05
0.00632308
2.15794e-05
0.00633301
2.14207e-05
0.00634289
2.12578e-05
0.00635273
2.10921e-05
0.00636253
2.09242e-05
0.00637229
2.07551e-05
0.00638201
2.05848e-05
0.0063917
2.04143e-05
0.00640134
2.02424e-05
0.00641094
2.00713e-05
0.0064205
1.98978e-05
0.00643002
1.97255e-05
0.0064395
1.95475e-05
0.00644895
1.93714e-05
0.00645836
1.91824e-05
0.00646773
1.89971e-05
0.00647706
1.87871e-05
0.00648635
1.85871e-05
0.00649559
1.83438e-05
0.0065048
1.81253e-05
0.00651396
1.78343e-05
0.00652308
1.7596e-05
0.00653212
1.72377e-05
0.00654114
1.69798e-05
0.00655005
1.65269e-05
0.00655897
1.62522e-05
0.00656769
1.56671e-05
0.0065765
1.53826e-05
0.00658496
1.46136e-05
0.00659363
1.43356e-05
0.0066017
1.33036e-05
0.00661015
1.30689e-05
0.00661756
1.16357e-05
0.00662552
1.15388e-05
9.43466e-06
0.00606661
2.75642e-06
0.00607657
3.92082e-06
0.00608666
5.12887e-06
0.00609682
6.17999e-06
0.00610706
7.20106e-06
0.00611734
8.07664e-06
0.00612767
8.8827e-06
0.00613801
9.56443e-06
0.00614837
1.01652e-05
0.00615873
1.06632e-05
0.00616909
1.10839e-05
0.00617944
1.14216e-05
0.00618978
1.16926e-05
0.0062001
1.18982e-05
0.0062104
1.20499e-05
0.00622066
1.21519e-05
0.0062309
1.22126e-05
0.0062411
1.22367e-05
0.00625127
1.22303e-05
0.00626141
1.21977e-05
0.0062715
1.21433e-05
0.00628156
1.20705e-05
0.00629158
1.19827e-05
0.00630155
1.18827e-05
0.00631149
1.17732e-05
0.0063214
1.16567e-05
0.00633126
1.15352e-05
0.00634108
1.14103e-05
0.00635087
1.12835e-05
0.00636062
1.11556e-05
0.00637033
1.10276e-05
0.00638
1.08993e-05
0.00638964
1.07717e-05
0.00639924
1.06435e-05
0.0064088
1.05164e-05
0.00641832
1.03869e-05
0.00642781
1.02583e-05
0.00643726
1.01235e-05
0.00644667
9.98915e-06
0.00645604
9.84168e-06
0.00646538
9.69561e-06
0.00647468
9.52634e-06
0.00648395
9.36284e-06
0.00649317
9.16246e-06
0.00650235
8.97708e-06
0.00651148
8.73667e-06
0.00652058
8.52517e-06
0.00652959
8.23589e-06
0.00653859
7.99147e-06
0.00654747
7.64617e-06
0.00655636
7.35499e-06
0.00656505
6.95285e-06
0.00657382
6.59055e-06
0.00658225
6.14684e-06
0.00659086
5.68041e-06
0.00659889
5.23058e-06
0.00660726
4.64558e-06
0.00661463
4.2254e-06
0.00662247
3.64366e-06
3.16819e-06
0.00607854
-7.02081e-06
0.00608836
-5.90681e-06
0.00609827
-4.77801e-06
0.00610823
-3.7707e-06
0.00611825
-2.80405e-06
0.0061283
-1.9591e-06
0.00613838
-1.18512e-06
0.00614849
-5.2041e-07
0.00615861
6.54965e-08
0.00616875
5.56778e-07
0.00617889
9.74481e-07
0.00618902
1.31599e-06
0.00619915
1.59416e-06
0.00620927
1.81201e-06
0.00621936
1.97913e-06
0.00622944
2.1003e-06
0.00623949
2.1828e-06
0.00624951
2.23139e-06
0.0062595
2.25154e-06
0.00626946
2.2474e-06
0.00627938
2.22316e-06
0.00628927
2.18227e-06
0.00629911
2.12805e-06
0.00630892
2.0634e-06
0.00631869
1.99094e-06
0.00632841
1.91303e-06
0.00633809
1.83171e-06
0.00634773
1.74852e-06
0.00635733
1.665e-06
0.00636688
1.58185e-06
0.00637639
1.50019e-06
0.00638586
1.41963e-06
0.00639528
1.34116e-06
0.00640466
1.26312e-06
0.00641399
1.18688e-06
0.00642328
1.10849e-06
0.00643253
1.03074e-06
0.00644173
9.46497e-07
0.00645088
8.6158e-07
0.00645999
7.6347e-07
0.00646906
6.64487e-07
0.00647808
5.43926e-07
0.00648705
4.25086e-07
0.00649598
2.7528e-07
0.00650486
1.31826e-07
0.00651367
-5.14915e-08
0.00652245
-2.2587e-07
0.00653115
-4.42314e-07
0.00653981
-6.6009e-07
0.00654836
-8.98914e-07
0.00655689
-1.18771e-06
0.00656525
-1.41602e-06
0.00657364
-1.82962e-06
0.00658173
-1.96864e-06
0.00658997
-2.5926e-06
0.00659765
-2.49236e-06
0.00660566
-3.41187e-06
0.00661269
-2.85361e-06
0.00662025
-3.96174e-06
-2.8522e-06
0.00604386
-1.46011e-05
0.00605147
-1.35196e-05
0.00605914
-1.2446e-05
0.00606685
-1.1473e-05
0.00607461
-1.05484e-05
0.00608239
-9.72856e-06
0.0060902
-8.97906e-06
0.00609803
-8.32601e-06
0.00610586
-7.7476e-06
0.0061137
-7.25215e-06
0.00612153
-6.82509e-06
0.00612934
-6.46609e-06
0.00613712
-6.16473e-06
0.00614488
-5.91697e-06
0.0061526
-5.71476e-06
0.00616027
-5.55307e-06
0.0061679
-5.42563e-06
0.00617548
-5.32776e-06
0.00618299
-5.25466e-06
0.00619045
-5.20246e-06
0.00619784
-5.16748e-06
0.00620516
-5.14657e-06
0.00621242
-5.13685e-06
0.00621961
-5.13564e-06
0.00622672
-5.14059e-06
0.00623377
-5.14946e-06
0.00624074
-5.16044e-06
0.00624765
-5.17186e-06
0.00625448
-5.18242e-06
0.00626123
-5.19124e-06
0.00626792
-5.19748e-06
0.00627453
-5.20145e-06
0.00628107
-5.2023e-06
0.00628754
-5.20195e-06
0.00629393
-5.19903e-06
0.00630025
-5.19798e-06
0.0063065
-5.1959e-06
0.00631266
-5.20058e-06
0.00631876
-5.20593e-06
0.00632478
-5.22454e-06
0.00633072
-5.24453e-06
0.00633658
-5.28478e-06
0.00634236
-5.32499e-06
0.00634805
-5.39193e-06
0.00635367
-5.45629e-06
0.00635919
-5.55044e-06
0.00636462
-5.64441e-06
0.00636995
-5.75944e-06
0.00637519
-5.89672e-06
0.0063803
-6.01272e-06
0.00638532
-6.22541e-06
0.00639018
-6.29353e-06
0.00639497
-6.64509e-06
0.00639953
-6.56004e-06
0.00640406
-7.15262e-06
0.00640825
-6.71885e-06
0.00641246
-7.65892e-06
0.00641615
-6.58242e-06
0.00641994
-7.78223e-06
-5.85153e-06
0.00556083
-1.18936e-05
0.00555832
-1.09941e-05
0.005556
-1.01186e-05
0.00555387
-9.32671e-06
0.00555193
-8.58544e-06
0.00555015
-7.93016e-06
0.00554853
-7.33825e-06
0.00554705
-6.82465e-06
0.00554569
-6.37424e-06
0.00554445
-5.99028e-06
0.00554331
-5.66248e-06
0.00554225
-5.3886e-06
0.00554127
-5.16099e-06
0.00554034
-4.97502e-06
0.00553946
-4.82432e-06
0.00553862
-4.70392e-06
0.0055378
-4.60884e-06
0.00553701
-4.53489e-06
0.00553623
-4.47841e-06
0.00553546
-4.43617e-06
0.00553469
-4.4054e-06
0.00553392
-4.38361e-06
0.00553314
-4.36858e-06
0.00553235
-4.3583e-06
0.00553155
-4.35103e-06
0.00553074
-4.34529e-06
0.00552991
-4.33985e-06
0.00552907
-4.33394e-06
0.00552822
-4.32664e-06
0.00552735
-4.3179e-06
0.00552647
-4.30696e-06
0.00552557
-4.29445e-06
0.00552467
-4.27922e-06
0.00552375
-4.26301e-06
0.00552281
-4.24395e-06
0.00552186
-4.22604e-06
0.0055209
-4.20596e-06
0.00551991
-4.19051e-06
0.0055189
-4.17394e-06
0.00551786
-4.16705e-06
0.00551679
-4.15919e-06
0.00551568
-4.16677e-06
0.00551453