/*--------------------------------*- C++ -*----------------------------------*\
  =========                 |
  \\      /  F ield         | OpenFOAM: The Open Source CFD Toolbox
   \\    /   O peration     | Website:  https://openfoam.org
    \\  /    A nd           | Version:  7
     \\/     M anipulation  |
\*---------------------------------------------------------------------------*/
FoamFile
{
    version     2.0;
    format      ascii;
    class       volScalarField;
    location    "1.56";
    object      T;
}
// * * * * * * * * * * * * * * * * * * * * * * * * * * * * * * * * * * * * * //

dimensions      [0 0 0 1 0 0 0];

internalField   nonuniform List<scalar> 
7920
(
282.868
282.994
283.005
283.064
283.048
283.087
283.07
283.096
283.079
283.095
283.079
283.089
283.076
283.083
283.076
283.079
283.082
283.074
283.109
283.025
282.787
282.851
282.892
282.984
283.004
283.065
283.076
283.108
283.107
283.116
283.103
283.1
283.086
283.076
283.072
283.055
283.08
283.028
283.154
282.893
282.726
282.746
282.709
282.807
282.799
282.89
282.895
282.97
282.968
283.011
282.992
283.004
282.978
282.968
282.949
282.92
282.935
282.87
282.972
282.809
282.749
282.762
282.723
282.8
282.795
282.87
282.884
282.955
282.973
283.018
283.019
283.031
283.019
283.004
282.989
282.949
282.944
282.884
282.914
282.839
282.729
282.749
282.686
282.77
282.744
282.822
282.82
282.895
282.904
282.959
282.955
282.98
282.961
282.961
282.936
282.913
282.884
282.845
282.825
282.791
282.734
282.767
282.703
282.792
282.763
282.843
282.836
282.912
282.917
282.975
282.969
282.996
282.977
282.981
282.954
282.937
282.902
282.869
282.835
282.808
282.734
282.767
282.703
282.792
282.763
282.843
282.836
282.912
282.917
282.975
282.969
282.996
282.976
282.981
282.954
282.938
282.902
282.869
282.835
282.808
282.729
282.75
282.686
282.77
282.744
282.822
282.819
282.896
282.903
282.96
282.954
282.98
282.96
282.963
282.934
282.916
282.88
282.849
282.82
282.795
282.749
282.762
282.723
282.8
282.795
282.87
282.884
282.955
282.972
283.018
283.018
283.032
283.016
283.008
282.983
282.958
282.931
282.903
282.888
282.872
282.726
282.746
282.709
282.807
282.799
282.89
282.895
282.97
282.967
283.011
282.99
283.006
282.975
282.974
282.941
282.935
282.91
282.912
282.902
282.92
282.787
282.851
282.892
282.984
283.004
283.065
283.076
283.109
283.107
283.117
283.102
283.101
283.084
283.079
283.066
283.065
283.06
283.067
283.068
283.087
282.868
282.994
283.005
283.064
283.047
283.087
283.07
283.096
283.079
283.095
283.079
283.089
283.075
283.084
283.074
283.082
283.077
283.085
283.083
283.096
283.223
283.218
283.315
283.29
283.358
283.325
283.371
283.335
283.364
283.328
283.347
283.316
283.331
283.304
283.321
283.295
283.326
283.277
283.388
283.075
283.172
283.146
283.216
283.225
283.291
283.307
283.355
283.359
283.375
283.359
283.356
283.326
283.318
283.282
283.287
283.243
283.291
283.198
283.375
283.057
283.22
283.17
283.266
283.246
283.336
283.334
283.415
283.415
283.468
283.445
283.464
283.421
283.42
283.362
283.358
283.286
283.314
283.217
283.325
283.152
283.191
283.133
283.211
283.19
283.259
283.257
283.324
283.333
283.382
283.376
283.393
283.366
283.357
283.314
283.29
283.23
283.213
283.145
283.161
283.09
283.214
283.147
283.243
283.206
283.287
283.27
283.345
283.344
283.403
283.391
283.418
283.388
283.39
283.345
283.328
283.267
283.24
283.172
283.156
283.101
283.207
283.129
283.225
283.182
283.264
283.243
283.318
283.314
283.373
283.36
283.388
283.358
283.361
283.318
283.302
283.244
283.213
283.147
283.119
283.065
283.207
283.129
283.225
283.182
283.264
283.243
283.318
283.314
283.373
283.36
283.388
283.358
283.361
283.318
283.302
283.244
283.213
283.147
283.119
283.065
283.214
283.147
283.243
283.206
283.287
283.271
283.345
283.344
283.402
283.391
283.418
283.388
283.389
283.346
283.326
283.269
283.237
283.175
283.152
283.104
283.191
283.133
283.211
283.19
283.259
283.258
283.324
283.334
283.382
283.377
283.391
283.367
283.355
283.317
283.285
283.238
283.202
283.161
283.141
283.116
283.22
283.17
283.266
283.246
283.336
283.334
283.415
283.415
283.467
283.446
283.463
283.424
283.416
283.368
283.348
283.303
283.287
283.26
283.258
283.252
283.172
283.146
283.216
283.225
283.291
283.307
283.354
283.359
283.375
283.36
283.355
283.329
283.315
283.288
283.277
283.26
283.259
283.258
283.263
283.28
283.223
283.218
283.315
283.29
283.358
283.325
283.371
283.335
283.363
283.329
283.347
283.317
283.33
283.306
283.318
283.301
283.313
283.304
283.314
283.309
283.146
283.153
283.186
283.217
283.261
283.284
283.299
283.29
283.286
283.272
283.272
283.26
283.266
283.25
283.274
283.237
283.319
283.169
283.513
282.771
283.143
283.146
283.172
283.202
283.245
283.288
283.333
283.359
283.376
283.368
283.359
283.32
283.306
283.246
283.263
283.182
283.283
283.135
283.392
283.069
283.145
283.147
283.175
283.2
283.239
283.277
283.325
283.361
283.392
283.399
283.402
283.379
283.363
283.313
283.288
283.222
283.222
283.154
283.205
283.131
283.144
283.146
283.172
283.196
283.232
283.267
283.311
283.347
283.376
283.388
283.39
283.379
283.361
283.328
283.291
283.239
283.201
283.151
283.136
283.104
283.145
283.146
283.174
283.198
283.234
283.269
283.313
283.348
283.377
283.389
283.391
283.381
283.365
283.336
283.3
283.251
283.208
283.158
283.129
283.1
283.145
283.146
283.174
283.197
283.232
283.267
283.31
283.345
283.373
283.383
283.385
283.374
283.358
283.329
283.295
283.246
283.203
283.152
283.121
283.09
283.145
283.146
283.174
283.197
283.232
283.267
283.31
283.345
283.373
283.383
283.385
283.374
283.358
283.329
283.295
283.246
283.203
283.151
283.122
283.089
283.145
283.146
283.174
283.198
283.234
283.269
283.313
283.349
283.377
283.389
283.391
283.381
283.365
283.335
283.3
283.251
283.209
283.157
283.132
283.096
283.144
283.146
283.172
283.197
283.232
283.267
283.311
283.347
283.376
283.388
283.39
283.38
283.36
283.329
283.289
283.241
283.199
283.153
283.135
283.103
283.145
283.147
283.175
283.2
283.239
283.277
283.324
283.361
283.39
283.401
283.399
283.383
283.357
283.32
283.278
283.237
283.202
283.18
283.172
283.171
283.143
283.146
283.172
283.202
283.245
283.288
283.332
283.36
283.374
283.37
283.355
283.327
283.295
283.262
283.238
283.222
283.22
283.232
283.244
283.284
283.146
283.153
283.186
283.217
283.261
283.284
283.299
283.29
283.285
283.273
283.27
283.262
283.261
283.257
283.261
283.262
283.27
283.272
283.281
283.29
283.146
283.153
283.186
283.217
283.261
283.284
283.299
283.29
283.286
283.272
283.272
283.26
283.266
283.25
283.274
283.237
283.319
283.169
283.513
282.771
283.143
283.146
283.172
283.202
283.245
283.288
283.333
283.359
283.376
283.368
283.359
283.32
283.306
283.246
283.263
283.182
283.283
283.135
283.392
283.069
283.145
283.147
283.175
283.2
283.239
283.277
283.325
283.361
283.392
283.399
283.402
283.379
283.363
283.313
283.288
283.222
283.222
283.154
283.205
283.131
283.144
283.146
283.172
283.196
283.232
283.267
283.311
283.347
283.376
283.388
283.39
283.379
283.361
283.328
283.291
283.239
283.201
283.151
283.136
283.104
283.145
283.146
283.174
283.198
283.234
283.269
283.313
283.348
283.377
283.389
283.391
283.381
283.365
283.336
283.3
283.251
283.208
283.158
283.129
283.1
283.145
283.146
283.174
283.197
283.232
283.267
283.31
283.345
283.373
283.383
283.385
283.374
283.358
283.329
283.295
283.246
283.203
283.152
283.121
283.09
283.145
283.146
283.174
283.197
283.232
283.267
283.31
283.345
283.373
283.383
283.385
283.374
283.358
283.329
283.295
283.246
283.203
283.151
283.122
283.089
283.145
283.146
283.174
283.198
283.234
283.269
283.313
283.349
283.377
283.389
283.391
283.381
283.365
283.335
283.3
283.251
283.209
283.157
283.132
283.096
283.144
283.146
283.172
283.197
283.232
283.267
283.311
283.347
283.376
283.388
283.39
283.38
283.36
283.329
283.289
283.241
283.199
283.153
283.135
283.103
283.145
283.147
283.175
283.2
283.239
283.277
283.324
283.361
283.39
283.401
283.399
283.383
283.357
283.32
283.278
283.237
283.202
283.18
283.172
283.171
283.143
283.146
283.172
283.202
283.245
283.288
283.332
283.36
283.374
283.37
283.355
283.327
283.295
283.262
283.238
283.222
283.22
283.232
283.244
283.284
283.146
283.153
283.186
283.217
283.261
283.284
283.299
283.29
283.285
283.273
283.27
283.262
283.261
283.257
283.261
283.262
283.27
283.272
283.281
283.29
283.223
283.218
283.315
283.29
283.358
283.325
283.371
283.335
283.364
283.328
283.347
283.316
283.331
283.304
283.321
283.295
283.326
283.277
283.388
283.075
283.172
283.146
283.216
283.225
283.291
283.307
283.355
283.359
283.375
283.359
283.356
283.326
283.318
283.282
283.287
283.243
283.291
283.198
283.375
283.057
283.22
283.17
283.266
283.246
283.336
283.334
283.415
283.415
283.468
283.445
283.464
283.421
283.42
283.362
283.358
283.286
283.314
283.217
283.325
283.152
283.191
283.133
283.211
283.19
283.259
283.257
283.324
283.333
283.382
283.376
283.393
283.366
283.357
283.314
283.29
283.23
283.213
283.145
283.161
283.09
283.214
283.147
283.243
283.206
283.287
283.27
283.345
283.344
283.403
283.391
283.418
283.388
283.39
283.345
283.328
283.267
283.24
283.172
283.156
283.101
283.207
283.129
283.225
283.182
283.264
283.243
283.318
283.314
283.373
283.36
283.388
283.358
283.361
283.318
283.302
283.244
283.213
283.147
283.119
283.065
283.207
283.129
283.225
283.182
283.264
283.243
283.318
283.314
283.373
283.36
283.388
283.358
283.361
283.318
283.302
283.244
283.213
283.147
283.119
283.065
283.214
283.147
283.243
283.206
283.287
283.271
283.345
283.344
283.402
283.391
283.418
283.388
283.389
283.346
283.326
283.269
283.237
283.175
283.152
283.104
283.191
283.133
283.211
283.19
283.259
283.258
283.324
283.334
283.382
283.377
283.391
283.367
283.355
283.317
283.285
283.238
283.202
283.161
283.141
283.116
283.22
283.17
283.266
283.246
283.336
283.334
283.415
283.415
283.467
283.446
283.463
283.424
283.416
283.368
283.348
283.303
283.287
283.26
283.258
283.252
283.172
283.146
283.216
283.225
283.291
283.307
283.354
283.359
283.375
283.36
283.355
283.329
283.315
283.288
283.277
283.26
283.259
283.258
283.263
283.28
283.223
283.218
283.315
283.29
283.358
283.325
283.371
283.335
283.363
283.329
283.347
283.317
283.33
283.306
283.318
283.301
283.313
283.304
283.314
283.309
282.868
282.994
283.005
283.064
283.048
283.087
283.07
283.096
283.079
283.095
283.079
283.089
283.076
283.083
283.076
283.079
283.082
283.074
283.109
283.025
282.787
282.851
282.892
282.984
283.004
283.065
283.076
283.108
283.107
283.116
283.103
283.1
283.086
283.076
283.072
283.055
283.08
283.028
283.154
282.893
282.726
282.746
282.709
282.807
282.799
282.89
282.895
282.97
282.968
283.011
282.992
283.004
282.978
282.968
282.949
282.92
282.935
282.87
282.972
282.809
282.749
282.762
282.723
282.8
282.795
282.87
282.884
282.955
282.973
283.018
283.019
283.031
283.019
283.004
282.989
282.949
282.944
282.884
282.915
282.839
282.729
282.749
282.686
282.77
282.744
282.822
282.82
282.895
282.904
282.959
282.955
282.98
282.961
282.961
282.936
282.913
282.884
282.845
282.825
282.791
282.734
282.767
282.703
282.792
282.763
282.843
282.836
282.912
282.917
282.975
282.969
282.996
282.977
282.981
282.954
282.937
282.902
282.869
282.835
282.808
282.734
282.767
282.703
282.792
282.763
282.843
282.836
282.912
282.917
282.975
282.969
282.996
282.976
282.981
282.954
282.938
282.902
282.869
282.835
282.808
282.729
282.749
282.686
282.77
282.744
282.822
282.819
282.896
282.903
282.96
282.954
282.98
282.96
282.963
282.934
282.916
282.88
282.849
282.82
282.795
282.749
282.762
282.723
282.8
282.795
282.87
282.884
282.955
282.972
283.018
283.018
283.032
283.016
283.008
282.983
282.958
282.931
282.903
282.888
282.872
282.726
282.746
282.709
282.807
282.799
282.89
282.895
282.97
282.967
283.011
282.99
283.006
282.975
282.974
282.941
282.934
282.91
282.912
282.902
282.92
282.787
282.851
282.892
282.984
283.004
283.065
283.076
283.109
283.107
283.117
283.102
283.101
283.084
283.079
283.066
283.065
283.06
283.067
283.068
283.087
282.868
282.994
283.005
283.064
283.048
283.087
283.07
283.096
283.079
283.095
283.079
283.089
283.075
283.084
283.074
283.082
283.077
283.085
283.083
283.096
285.151
286.705
287.702
288.498
289.161
289.781
290.332
290.834
291.268
291.669
292.038
292.397
292.728
293.032
293.295
293.524
293.72
293.895
294.047
294.179
294.288
294.375
294.44
294.486
294.517
294.537
294.548
294.554
294.557
294.558
294.558
294.557
294.556
294.555
294.553
294.552
294.551
294.549
294.548
294.546
294.545
294.543
294.542
294.54
294.538
294.537
294.535
294.534
294.532
294.53
294.529
294.527
294.525
294.524
294.522
294.52
294.519
294.517
294.515
294.513
294.512
294.51
294.508
294.507
294.505
294.503
294.501
294.5
294.498
294.496
294.494
294.492
294.491
294.489
294.487
294.485
294.483
294.481
294.48
294.478
294.476
294.474
294.472
294.47
294.467
294.466
294.462
294.461
294.455
294.451
284.304
285.741
286.714
287.486
288.128
288.728
289.273
289.775
290.212
290.61
290.975
291.328
291.66
291.967
292.236
292.47
292.671
292.848
293.003
293.139
293.253
293.346
293.417
293.468
293.503
293.526
293.54
293.547
293.551
293.552
293.552
293.552
293.55
293.549
293.548
293.546
293.545
293.543
293.542
293.54
293.538
293.537
293.535
293.534
293.532
293.53
293.529
293.527
293.525
293.524
293.522
293.52
293.519
293.517
293.515
293.513
293.512
293.51
293.508
293.506
293.505
293.503
293.501
293.499
293.497
293.496
293.494
293.492
293.49
293.488
293.487
293.485
293.483
293.481
293.479
293.477
293.476
293.474
293.472
293.47
293.468
293.466
293.464
293.462
293.459
293.458
293.454
293.453
293.447
293.442
283.42
284.514
285.373
286.078
286.652
287.2
287.715
288.211
288.649
289.042
289.392
289.73
290.055
290.367
290.646
290.892
291.101
291.284
291.444
291.588
291.713
291.819
291.903
291.966
292.011
292.041
292.06
292.071
292.077
292.08
292.081
292.08
292.079
292.078
292.077
292.075
292.074
292.072
292.071
292.069
292.068
292.066
292.065
292.063
292.061
292.06
292.058
292.056
292.055
292.053
292.051
292.049
292.048
292.046
292.044
292.042
292.041
292.039
292.037
292.035
292.033
292.032
292.03
292.028
292.026
292.024
292.023
292.021
292.019
292.017
292.015
292.013
292.012
292.01
292.008
292.006
292.004
292.002
292
291.998
291.996
291.994
291.992
291.99
291.987
291.986
291.981
291.981
291.972
291.966
283.02
283.704
284.376
284.951
285.416
285.863
286.315
286.779
287.204
287.578
287.902
288.211
288.516
288.821
289.105
289.358
289.572
289.757
289.92
290.069
290.203
290.321
290.419
290.496
290.552
290.591
290.617
290.632
290.641
290.645
290.647
290.647
290.646
290.645
290.644
290.642
290.641
290.639
290.637
290.636
290.634
290.633
290.631
290.629
290.628
290.626
290.624
290.622
290.621
290.619
290.617
290.616
290.614
290.612
290.61
290.609
290.607
290.605
290.603
290.601
290.6
290.598
290.596
290.594
290.592
290.591
290.589
290.587
290.585
290.583
290.581
290.58
290.578
290.576
290.574
290.572
290.57
290.568
290.567
290.565
290.563
290.561
290.558
290.557
290.554
290.553
290.549
290.549
290.542
290.535
282.806
283.22
283.699
284.142
284.477
284.811
285.176
285.589
285.983
286.33
286.618
286.889
287.162
287.449
287.727
287.978
288.191
288.372
288.531
288.679
288.817
288.942
289.05
289.137
289.203
289.25
289.281
289.301
289.312
289.318
289.32
289.321
289.321
289.32
289.318
289.317
289.315
289.314
289.312
289.311
289.309
289.307
289.306
289.304
289.303
289.301
289.299
289.298
289.296
289.294
289.292
289.291
289.289
289.287
289.285
289.284
289.282
289.28
289.278
289.277
289.275
289.273
289.271
289.269
289.268
289.266
289.264
289.262
289.26
289.259
289.257
289.255
289.253
289.251
289.249
289.248
289.246
289.244
289.242
289.24
289.238
289.236
289.234
289.232
289.229
289.228
289.224
289.223
289.217
289.211
282.77
283.037
283.373
283.691
283.907
284.126
284.4
284.742
285.088
285.39
285.635
285.859
286.094
286.35
286.608
286.844
287.044
287.212
287.36
287.499
287.632
287.757
287.867
287.957
288.027
288.077
288.111
288.133
288.145
288.152
288.155
288.156
288.155
288.154
288.153
288.152
288.15
288.148
288.147
288.145
288.143
288.142
288.14
288.139
288.137
288.135
288.133
288.132
288.13
288.128
288.127
288.125
288.123
288.121
288.12
288.118
288.116
288.114
288.113
288.111
288.109
288.107
288.106
288.104
288.102
288.1
288.099
288.097
288.095
288.093
288.091
288.09
288.088
288.086
288.084
288.082
288.08
288.079
288.077
288.075
288.073
288.071
288.069
288.067
288.065
288.063
288.06
288.059
288.056
288.051
282.773
282.975
283.217
283.433
283.55
283.68
283.876
284.151
284.438
284.687
284.883
285.062
285.256
285.477
285.704
285.913
286.089
286.237
286.368
286.492
286.614
286.73
286.834
286.921
286.988
287.037
287.07
287.091
287.103
287.11
287.112
287.113
287.113
287.112
287.111
287.109
287.108
287.106
287.104
287.103
287.101
287.099
287.098
287.096
287.095
287.093
287.091
287.09
287.088
287.086
287.084
287.083
287.081
287.079
287.078
287.076
287.074
287.072
287.071
287.069
287.067
287.065
287.064
287.062
287.06
287.058
287.057
287.055
287.053
287.051
287.05
287.048
287.046
287.044
287.042
287.041
287.039
287.037
287.035
287.033
287.031
287.03
287.028
287.026
287.024
287.022
287.019
287.017
287.016
287.012
282.793
282.968
283.142
283.277
283.324
283.397
283.536
283.753
283.976
284.169
284.314
284.452
284.607
284.791
284.979
285.152
285.296
285.418
285.526
285.632
285.737
285.838
285.928
286.004
286.062
286.105
286.133
286.151
286.162
286.167
286.17
286.17
286.17
286.169
286.168
286.166
286.165
286.163
286.162
286.16
286.159
286.157
286.156
286.154
286.153
286.151
286.149
286.148
286.146
286.145
286.143
286.141
286.14
286.138
286.136
286.135
286.133
286.131
286.13
286.128
286.126
286.124
286.123
286.121
286.119
286.118
286.116
286.114
286.112
286.111
286.109
286.107
286.105
286.104
286.102
286.1
286.098
286.096
286.095
286.093
286.091
286.089
286.087
286.085
286.083
286.081
286.078
286.076
286.074
286.071
282.898
283.036
283.155
283.221
283.228
283.266
283.365
283.524
283.683
283.814
283.913
284.012
284.13
284.271
284.413
284.542
284.648
284.739
284.821
284.904
284.986
285.065
285.135
285.193
285.238
285.269
285.291
285.304
285.311
285.315
285.317
285.317
285.316
285.315
285.314
285.313
285.311
285.31
285.308
285.307
285.306
285.304
285.303
285.301
285.3
285.298
285.297
285.295
285.294
285.292
285.291
285.289
285.288
285.286
285.285
285.283
285.282
285.28
285.278
285.277
285.275
285.274
285.272
285.271
285.269
285.267
285.266
285.264
285.263
285.261
285.259
285.258
285.256
285.255
285.253
285.251
285.25
285.248
285.246
285.245
285.243
285.241
285.24
285.238
285.236
285.234
285.232
285.23
285.229
285.228
282.937
283.039
283.102
283.134
283.124
283.153
283.22
283.328
283.425
283.505
283.564
283.631
283.711
283.807
283.9
283.984
284.051
284.11
284.165
284.222
284.277
284.331
284.377
284.416
284.444
284.465
284.478
284.486
284.49
284.493
284.493
284.493
284.493
284.492
284.491
284.49
284.489
284.488
284.487
284.486
284.485
284.483
284.482
284.481
284.48
284.479
284.478
284.476
284.475
284.474
284.473
284.472
284.47
284.469
284.468
284.467
284.465
284.464
284.463
284.462
284.46
284.459
284.458
284.457
284.455
284.454
284.453
284.451
284.45
284.449
284.448
284.446
284.445
284.444
284.442
284.441
284.44
284.438
284.437
284.436
284.434
284.433
284.431
284.43
284.428
284.427
284.424
284.422
284.422
284.42
283.063
283.108
283.133
283.141
283.133
283.148
283.185
283.239
283.285
283.321
283.349
283.383
283.426
283.475
283.521
283.562
283.595
283.624
283.653
283.682
283.711
283.738
283.761
283.78
283.794
283.803
283.81
283.813
283.815
283.816
283.816
283.816
283.816
283.815
283.815
283.814
283.814
283.813
283.812
283.812
283.811
283.811
283.81
283.809
283.808
283.808
283.807
283.806
283.806
283.805
283.804
283.803
283.803
283.802
283.801
283.801
283.8
283.799
283.798
283.798
283.797
283.796
283.795
283.795
283.794
283.793
283.792
283.791
283.791
283.79
283.789
283.788
283.788
283.787
283.786
283.785
283.785
283.784
283.783
283.782
283.781
283.781
283.78
283.779
283.778
283.777
283.776
283.775
283.775
283.774
283.076
283.094
283.099
283.103
283.1
283.107
283.118
283.136
283.148
283.159
283.167
283.179
283.191
283.206
283.22
283.232
283.242
283.251
283.259
283.268
283.277
283.285
283.292
283.297
283.301
283.304
283.306
283.307
283.308
283.308
283.308
283.308
283.308
283.308
283.308
283.308
283.308
283.308
283.307
283.307
283.307
283.307
283.307
283.307
283.306
283.306
283.306
283.306
283.306
283.305
283.305
283.305
283.305
283.305
283.304
283.304
283.304
283.304
283.303
283.303
283.303
283.303
283.302
283.302
283.302
283.302
283.302
283.301
283.301
283.301
283.301
283.3
283.3
283.3
283.3
283.299
283.299
283.299
283.299
283.298
283.298
283.298
283.297
283.297
283.297
283.296
283.296
283.296
283.295
283.295
285.817
287.531
288.589
289.383
290.074
290.687
291.249
291.741
292.181
292.577
292.954
293.309
293.643
293.942
294.204
294.429
294.626
294.797
294.948
295.077
295.184
295.267
295.329
295.373
295.402
295.42
295.43
295.435
295.437
295.437
295.437
295.435
295.434
295.432
295.431
295.429
295.427
295.426
295.424
295.422
295.421
295.419
295.417
295.416
295.414
295.412
295.411
295.409
295.407
295.405
295.404
295.402
295.4
295.399
295.397
295.395
295.394
295.392
295.39
295.389
295.387
295.385
295.383
295.382
295.38
295.378
295.377
295.375
295.373
295.371
295.37
295.368
295.366
295.365
295.363
295.361
295.36
295.358
295.356
295.354
295.353
295.351
295.35
295.348
295.347
295.345
295.345
295.342
295.346
295.345
284.439
285.892
286.9
287.67
288.33
288.925
289.479
289.978
290.422
290.819
291.189
291.541
291.876
292.183
292.455
292.69
292.894
293.071
293.227
293.364
293.479
293.572
293.643
293.694
293.73
293.752
293.766
293.773
293.776
293.777
293.777
293.776
293.774
293.773
293.771
293.77
293.768
293.766
293.764
293.763
293.761
293.759
293.757
293.756
293.754
293.752
293.751
293.749
293.747
293.745
293.744
293.742
293.74
293.738
293.737
293.735
293.733
293.731
293.73
293.728
293.726
293.724
293.723
293.721
293.719
293.717
293.715
293.714
293.712
293.71
293.708
293.707
293.705
293.703
293.701
293.699
293.698
293.696
293.694
293.692
293.691
293.689
293.687
293.686
293.684
293.682
293.681
293.679
293.681
293.68
283.666
284.664
285.525
286.196
286.776
287.305
287.826
288.313
288.759
289.147
289.501
289.835
290.163
290.474
290.758
291.005
291.218
291.402
291.565
291.709
291.836
291.943
292.029
292.094
292.14
292.171
292.19
292.201
292.207
292.209
292.21
292.209
292.208
292.206
292.204
292.203
292.201
292.199
292.197
292.195
292.193
292.192
292.19
292.188
292.186
292.185
292.183
292.181
292.179
292.177
292.176
292.174
292.172
292.17
292.168
292.167
292.165
292.163
292.161
292.16
292.158
292.156
292.154
292.152
292.151
292.149
292.147
292.145
292.143
292.142
292.14
292.138
292.136
292.134
292.133
292.131
292.129
292.127
292.126
292.124
292.123
292.121
292.119
292.117
292.116
292.114
292.114
292.112
292.113
292.111
283.221
283.807
284.446
284.978
285.431
285.856
286.305
286.762
287.192
287.566
287.893
288.199
288.505
288.811
289.1
289.357
289.577
289.765
289.931
290.081
290.218
290.339
290.44
290.52
290.579
290.62
290.647
290.663
290.672
290.677
290.678
290.678
290.677
290.676
290.674
290.672
290.67
290.669
290.667
290.665
290.663
290.662
290.66
290.658
290.656
290.654
290.653
290.651
290.649
290.647
290.646
290.644
290.642
290.64
290.638
290.637
290.635
290.633
290.631
290.63
290.628
290.626
290.624
290.622
290.621
290.619
290.617
290.615
290.613
290.612
290.61
290.608
290.606
290.604
290.603
290.601
290.599
290.597
290.596
290.594
290.592
290.59
290.589
290.587
290.586
290.584
290.582
290.581
290.581
290.578
283.099
283.402
283.847
284.217
284.529
284.821
285.173
285.567
285.964
286.306
286.596
286.86
287.132
287.416
287.698
287.952
288.171
288.355
288.517
288.666
288.807
288.935
289.046
289.137
289.207
289.256
289.289
289.31
289.322
289.328
289.331
289.331
289.33
289.329
289.327
289.326
289.324
289.322
289.32
289.318
289.317
289.315
289.313
289.311
289.309
289.308
289.306
289.304
289.302
289.301
289.299
289.297
289.295
289.294
289.292
289.29
289.288
289.286
289.285
289.283
289.281
289.279
289.278
289.276
289.274
289.272
289.271
289.269
289.267
289.265
289.263
289.262
289.26
289.258
289.256
289.255
289.253
289.251
289.25
289.248
289.246
289.244
289.243
289.241
289.24
289.238
289.237
289.236
289.236
289.233
283.032
283.197
283.504
283.743
283.928
284.101
284.352
284.677
285.022
285.322
285.567
285.785
286.016
286.27
286.53
286.771
286.977
287.15
287.301
287.442
287.578
287.706
287.82
287.916
287.99
288.044
288.081
288.105
288.118
288.126
288.129
288.13
288.129
288.128
288.127
288.125
288.123
288.122
288.12
288.118
288.116
288.115
288.113
288.111
288.109
288.108
288.106
288.104
288.102
288.101
288.099
288.097
288.096
288.094
288.092
288.09
288.089
288.087
288.085
288.083
288.082
288.08
288.078
288.076
288.074
288.073
288.071
288.069
288.067
288.066
288.064
288.062
288.06
288.059
288.057
288.055
288.053
288.052
288.05
288.048
288.046
288.045
288.043
288.041
288.04
288.038
288.036
288.035
288.034
288.031
283.035
283.148
283.37
283.513
283.601
283.682
283.851
284.106
284.389
284.633
284.827
284.997
285.186
285.402
285.631
285.844
286.025
286.176
286.309
286.435
286.559
286.679
286.787
286.878
286.95
287.003
287.039
287.061
287.075
287.082
287.085
287.086
287.086
287.085
287.083
287.082
287.08
287.078
287.076
287.075
287.073
287.071
287.07
287.068
287.066
287.064
287.063
287.061
287.059
287.058
287.056
287.054
287.052
287.051
287.049
287.047
287.046
287.044
287.042
287.04
287.039
287.037
287.035
287.033
287.032
287.03
287.028
287.026
287.025
287.023
287.021
287.019
287.018
287.016
287.014
287.012
287.011
287.009
287.007
287.005
287.004
287.002
287
286.999
286.997
286.995
286.994
286.992
286.991
286.989
283.093
283.19
283.354
283.427
283.45
283.475
283.592
283.783
284.002
284.182
284.324
284.449
284.599
284.775
284.964
285.138
285.285
285.407
285.517
285.622
285.729
285.832
285.926
286.005
286.067
286.112
286.142
286.162
286.173
286.179
286.181
286.181
286.181
286.18
286.178
286.176
286.175
286.173
286.171
286.169
286.168
286.166
286.164
286.163
286.161
286.159
286.158
286.156
286.154
286.153
286.151
286.149
286.147
286.146
286.144
286.142
286.141
286.139
286.137
286.136
286.134
286.132
286.13
286.129
286.127
286.125
286.124
286.122
286.12
286.118
286.117
286.115
286.113
286.112
286.11
286.108
286.107
286.105
286.103
286.102
286.1
286.098
286.097
286.095
286.094
286.092
286.092
286.09
286.09
286.089
283.127
283.221
283.331
283.36
283.348
283.354
283.44
283.584
283.739
283.861
283.956
284.047
284.162
284.3
284.445
284.575
284.684
284.775
284.859
284.943
285.028
285.109
285.183
285.245
285.292
285.326
285.349
285.363
285.371
285.375
285.376
285.376
285.376
285.374
285.373
285.371
285.37
285.368
285.367
285.365
285.364
285.362
285.36
285.359
285.357
285.356
285.354
285.352
285.351
285.349
285.348
285.346
285.344
285.343
285.341
285.34
285.338
285.336
285.335
285.333
285.332
285.33
285.328
285.327
285.325
285.323
285.322
285.32
285.319
285.317
285.315
285.314
285.312
285.31
285.309
285.307
285.306
285.304
285.302
285.301
285.299
285.298
285.296
285.294
285.293
285.292
285.291
285.289
285.288
285.287
283.262
283.314
283.378
283.368
283.348
283.347
283.412
283.506
283.604
283.673
283.731
283.791
283.874
283.969
284.067
284.152
284.223
284.283
284.341
284.4
284.46
284.517
284.567
284.608
284.639
284.661
284.675
284.684
284.688
284.69
284.691
284.69
284.689
284.688
284.687
284.685
284.684
284.682
284.681
284.68
284.678
284.677
284.676
284.674
284.673
284.671
284.67
284.669
284.667
284.666
284.664
284.663
284.662
284.66
284.659
284.658
284.656
284.655
284.653
284.652
284.65
284.649
284.648
284.646
284.645
284.643
284.642
284.641
284.639
284.638
284.636
284.635
284.634
284.632
284.631
284.629
284.628
284.627
284.626
284.624
284.623
284.621
284.621
284.619
284.618
284.617
284.617
284.615
284.615
284.615
283.251
283.275
283.301
283.287
283.272
283.277
283.318
283.371
283.422
283.456
283.486
283.522
283.571
283.627
283.681
283.727
283.765
283.799
283.832
283.866
283.901
283.933
283.961
283.983
284
284.011
284.018
284.023
284.025
284.025
284.025
284.025
284.024
284.023
284.022
284.022
284.021
284.02
284.019
284.018
284.017
284.016
284.015
284.014
284.013
284.012
284.011
284.01
284.009
284.008
284.007
284.006
284.005
284.005
284.004
284.003
284.002
284.001
284
283.999
283.998
283.997
283.996
283.995
283.994
283.993
283.992
283.991
283.99
283.989
283.988
283.987
283.986
283.985
283.984
283.983
283.982
283.981
283.98
283.979
283.978
283.977
283.977
283.975
283.975
283.974
283.974
283.972
283.972
283.971
283.282
283.279
283.287
283.274
283.271
283.27
283.285
283.298
283.314
283.321
283.331
283.341
283.358
283.374
283.391
283.404
283.416
283.426
283.437
283.447
283.458
283.468
283.477
283.483
283.488
283.491
283.493
283.494
283.495
283.495
283.495
283.495
283.494
283.494
283.494
283.493
283.493
283.493
283.492
283.492
283.492
283.491
283.491
283.491
283.49
283.49
283.49
283.489
283.489
283.489
283.488
283.488
283.488
283.487
283.487
283.487
283.486
283.486
283.486
283.485
283.485
283.484
283.484
283.484
283.483
283.483
283.483
283.482
283.482
283.482
283.481
283.481
283.481
283.48
283.48
283.48
283.479
283.479
283.479
283.478
283.478
283.478
283.478
283.477
283.477
283.477
283.477
283.477
283.477
283.478
286.402
288.64
289.872
290.768
291.522
292.178
292.757
293.26
293.71
294.122
294.512
294.878
295.214
295.511
295.77
295.993
296.188
296.358
296.506
296.629
296.729
296.804
296.86
296.897
296.921
296.935
296.944
296.947
296.949
296.948
296.947
296.946
296.944
296.942
296.941
296.939
296.938
296.936
296.935
296.933
296.931
296.929
296.928
296.926
296.925
296.923
296.921
296.92
296.918
296.916
296.915
296.913
296.912
296.91
296.908
296.906
296.905
296.903
296.901
296.9
296.898
296.896
296.895
296.893
296.891
296.889
296.888
296.886
296.884
296.883
296.881
296.879
296.878
296.876
296.874
296.872
296.871
296.869
296.867
296.865
296.864
296.862
296.861
296.859
296.858
296.856
296.855
296.852
296.857
296.857
284.165
285.801
286.959
287.821
288.544
289.185
289.769
290.288
290.748
291.161
291.547
291.912
292.257
292.571
292.847
293.087
293.294
293.475
293.633
293.77
293.884
293.976
294.045
294.095
294.128
294.149