/*--------------------------------*- C++ -*----------------------------------*\
  =========                 |
  \\      /  F ield         | OpenFOAM: The Open Source CFD Toolbox
   \\    /   O peration     | Website:  https://openfoam.org
    \\  /    A nd           | Version:  7
     \\/     M anipulation  |
\*---------------------------------------------------------------------------*/
FoamFile
{
    version     2.0;
    format      ascii;
    class       volScalarField;
    location    "1.94";
    object      pPrime2Mean;
}
// * * * * * * * * * * * * * * * * * * * * * * * * * * * * * * * * * * * * * //

dimensions      [2 -2 -4 0 0 0 0];

internalField   nonuniform List<scalar> 
13200
(
1.15827e+06
1.15683e+06
1.15689e+06
1.15543e+06
1.15533e+06
1.15365e+06
1.15332e+06
1.15144e+06
1.15088e+06
1.14885e+06
1.1481e+06
1.14598e+06
1.14506e+06
1.14286e+06
1.1418e+06
1.13952e+06
1.13832e+06
1.13597e+06
1.13467e+06
1.13235e+06
1.15805e+06
1.15664e+06
1.15669e+06
1.15522e+06
1.15511e+06
1.15341e+06
1.15308e+06
1.15119e+06
1.15064e+06
1.14861e+06
1.14786e+06
1.14572e+06
1.14481e+06
1.1426e+06
1.14154e+06
1.13926e+06
1.13806e+06
1.1357e+06
1.13441e+06
1.1321e+06
1.15813e+06
1.15669e+06
1.15671e+06
1.15525e+06
1.15515e+06
1.15347e+06
1.15315e+06
1.15127e+06
1.15072e+06
1.14869e+06
1.14794e+06
1.14581e+06
1.1449e+06
1.14269e+06
1.14163e+06
1.13935e+06
1.13815e+06
1.13579e+06
1.13448e+06
1.13217e+06
1.15805e+06
1.15664e+06
1.15667e+06
1.15519e+06
1.15508e+06
1.15338e+06
1.15305e+06
1.15117e+06
1.15062e+06
1.1486e+06
1.14785e+06
1.14572e+06
1.14481e+06
1.1426e+06
1.14154e+06
1.13926e+06
1.13806e+06
1.13569e+06
1.1344e+06
1.13205e+06
1.15811e+06
1.15668e+06
1.1567e+06
1.15523e+06
1.15512e+06
1.15343e+06
1.15311e+06
1.15123e+06
1.15069e+06
1.14867e+06
1.14793e+06
1.1458e+06
1.14489e+06
1.14269e+06
1.14163e+06
1.13935e+06
1.13815e+06
1.13578e+06
1.13446e+06
1.13211e+06
1.15805e+06
1.15663e+06
1.15666e+06
1.15518e+06
1.15506e+06
1.15337e+06
1.15304e+06
1.15116e+06
1.15062e+06
1.1486e+06
1.14786e+06
1.14574e+06
1.14483e+06
1.14263e+06
1.14157e+06
1.13929e+06
1.13809e+06
1.13572e+06
1.13442e+06
1.13204e+06
1.15809e+06
1.15667e+06
1.15669e+06
1.15522e+06
1.1551e+06
1.15341e+06
1.15308e+06
1.15121e+06
1.15066e+06
1.14865e+06
1.14791e+06
1.14578e+06
1.14488e+06
1.14268e+06
1.14162e+06
1.13935e+06
1.13814e+06
1.13578e+06
1.13445e+06
1.13207e+06
1.15805e+06
1.15663e+06
1.15665e+06
1.15517e+06
1.15506e+06
1.15337e+06
1.15304e+06
1.15116e+06
1.15062e+06
1.14861e+06
1.14787e+06
1.14574e+06
1.14484e+06
1.14264e+06
1.14158e+06
1.1393e+06
1.13811e+06
1.13574e+06
1.13442e+06
1.13203e+06
1.15807e+06
1.15666e+06
1.15667e+06
1.1552e+06
1.15508e+06
1.1534e+06
1.15306e+06
1.15119e+06
1.15065e+06
1.14863e+06
1.14789e+06
1.14577e+06
1.14486e+06
1.14266e+06
1.14161e+06
1.13933e+06
1.13813e+06
1.13577e+06
1.13444e+06
1.13205e+06
1.15806e+06
1.15664e+06
1.15666e+06
1.15518e+06
1.15506e+06
1.15338e+06
1.15305e+06
1.15118e+06
1.15063e+06
1.14862e+06
1.14788e+06
1.14576e+06
1.14485e+06
1.14265e+06
1.1416e+06
1.13932e+06
1.13812e+06
1.13575e+06
1.13443e+06
1.13204e+06
1.15806e+06
1.15664e+06
1.15666e+06
1.15518e+06
1.15506e+06
1.15338e+06
1.15305e+06
1.15118e+06
1.15063e+06
1.14862e+06
1.14788e+06
1.14576e+06
1.14485e+06
1.14265e+06
1.1416e+06
1.13932e+06
1.13812e+06
1.13575e+06
1.13443e+06
1.13204e+06
1.15807e+06
1.15666e+06
1.15667e+06
1.1552e+06
1.15508e+06
1.1534e+06
1.15306e+06
1.15119e+06
1.15065e+06
1.14863e+06
1.14789e+06
1.14577e+06
1.14486e+06
1.14266e+06
1.14161e+06
1.13933e+06
1.13813e+06
1.13577e+06
1.13444e+06
1.13205e+06
1.15805e+06
1.15663e+06
1.15665e+06
1.15517e+06
1.15506e+06
1.15337e+06
1.15304e+06
1.15116e+06
1.15062e+06
1.14861e+06
1.14787e+06
1.14574e+06
1.14484e+06
1.14264e+06
1.14158e+06
1.13931e+06
1.13811e+06
1.13574e+06
1.13442e+06
1.13203e+06
1.15809e+06
1.15667e+06
1.15669e+06
1.15522e+06
1.1551e+06
1.15341e+06
1.15308e+06
1.15121e+06
1.15066e+06
1.14865e+06
1.14791e+06
1.14578e+06
1.14488e+06
1.14268e+06
1.14162e+06
1.13935e+06
1.13814e+06
1.13578e+06
1.13445e+06
1.13207e+06
1.15805e+06
1.15663e+06
1.15666e+06
1.15518e+06
1.15506e+06
1.15337e+06
1.15304e+06
1.15116e+06
1.15062e+06
1.1486e+06
1.14786e+06
1.14574e+06
1.14483e+06
1.14263e+06
1.14157e+06
1.13929e+06
1.13809e+06
1.13572e+06
1.13442e+06
1.13204e+06
1.15811e+06
1.15668e+06
1.1567e+06
1.15523e+06
1.15512e+06
1.15343e+06
1.15311e+06
1.15123e+06
1.15069e+06
1.14867e+06
1.14793e+06
1.1458e+06
1.14489e+06
1.14269e+06
1.14163e+06
1.13935e+06
1.13815e+06
1.13578e+06
1.13445e+06
1.13211e+06
1.15805e+06
1.15664e+06
1.15667e+06
1.15519e+06
1.15508e+06
1.15338e+06
1.15305e+06
1.15117e+06
1.15062e+06
1.1486e+06
1.14785e+06
1.14572e+06
1.14481e+06
1.1426e+06
1.14154e+06
1.13926e+06
1.13806e+06
1.13569e+06
1.1344e+06
1.13205e+06
1.15813e+06
1.15669e+06
1.15671e+06
1.15525e+06
1.15515e+06
1.15347e+06
1.15315e+06
1.15127e+06
1.15072e+06
1.14869e+06
1.14794e+06
1.14581e+06
1.1449e+06
1.14269e+06
1.14163e+06
1.13935e+06
1.13815e+06
1.13579e+06
1.13448e+06
1.13218e+06
1.15805e+06
1.15664e+06
1.15669e+06
1.15522e+06
1.15511e+06
1.15341e+06
1.15308e+06
1.15119e+06
1.15064e+06
1.14861e+06
1.14786e+06
1.14572e+06
1.14481e+06
1.1426e+06
1.14154e+06
1.13926e+06
1.13806e+06
1.1357e+06
1.13441e+06
1.1321e+06
1.15827e+06
1.15683e+06
1.15689e+06
1.15543e+06
1.15533e+06
1.15365e+06
1.15332e+06
1.15144e+06
1.15088e+06
1.14885e+06
1.1481e+06
1.14598e+06
1.14506e+06
1.14286e+06
1.1418e+06
1.13952e+06
1.13832e+06
1.13597e+06
1.13467e+06
1.13236e+06
1.15737e+06
1.15586e+06
1.15603e+06
1.1544e+06
1.15447e+06
1.15266e+06
1.15255e+06
1.15057e+06
1.15024e+06
1.14811e+06
1.14758e+06
1.14536e+06
1.14465e+06
1.14235e+06
1.14149e+06
1.13913e+06
1.1381e+06
1.13567e+06
1.13455e+06
1.13215e+06
1.15752e+06
1.15601e+06
1.15618e+06
1.15457e+06
1.15465e+06
1.15286e+06
1.15276e+06
1.15079e+06
1.15047e+06
1.14835e+06
1.14782e+06
1.1456e+06
1.1449e+06
1.14261e+06
1.14174e+06
1.13938e+06
1.13836e+06
1.13593e+06
1.1348e+06
1.13243e+06
1.15742e+06
1.1559e+06
1.15608e+06
1.15446e+06
1.15453e+06
1.15272e+06
1.15261e+06
1.15064e+06
1.15032e+06
1.1482e+06
1.14767e+06
1.14545e+06
1.14474e+06
1.14245e+06
1.14158e+06
1.13922e+06
1.13819e+06
1.13576e+06
1.13463e+06
1.13221e+06
1.15753e+06
1.15599e+06
1.15615e+06
1.15454e+06
1.15461e+06
1.15283e+06
1.15273e+06
1.15077e+06
1.15045e+06
1.14834e+06
1.14782e+06
1.14561e+06
1.14491e+06
1.14262e+06
1.14175e+06
1.13939e+06
1.13836e+06
1.13593e+06
1.13478e+06
1.13237e+06
1.15745e+06
1.1559e+06
1.15607e+06
1.15445e+06
1.15452e+06
1.15272e+06
1.15261e+06
1.15064e+06
1.15032e+06
1.14821e+06
1.14769e+06
1.14548e+06
1.14478e+06
1.14249e+06
1.14162e+06
1.13926e+06
1.13823e+06
1.1358e+06
1.13466e+06
1.1322e+06
1.15752e+06
1.15598e+06
1.15614e+06
1.15452e+06
1.1546e+06
1.15281e+06
1.1527e+06
1.15074e+06
1.15042e+06
1.14832e+06
1.1478e+06
1.14559e+06
1.14489e+06
1.14261e+06
1.14174e+06
1.13938e+06
1.13836e+06
1.13592e+06
1.13476e+06
1.13232e+06
1.15747e+06
1.15591e+06
1.15607e+06
1.15445e+06
1.15451e+06
1.15272e+06
1.15261e+06
1.15065e+06
1.15033e+06
1.14823e+06
1.14771e+06
1.1455e+06
1.1448e+06
1.14251e+06
1.14165e+06
1.13929e+06
1.13826e+06
1.13583e+06
1.13469e+06
1.13221e+06
1.15752e+06
1.15596e+06
1.15613e+06
1.15451e+06
1.15458e+06
1.15278e+06
1.15268e+06
1.15071e+06
1.1504e+06
1.14829e+06
1.14778e+06
1.14557e+06
1.14487e+06
1.14258e+06
1.14172e+06
1.13937e+06
1.13834e+06
1.1359e+06
1.13474e+06
1.13228e+06
1.15749e+06
1.15592e+06
1.15608e+06
1.15446e+06
1.15453e+06
1.15273e+06
1.15263e+06
1.15066e+06
1.15035e+06
1.14825e+06
1.14773e+06
1.14552e+06
1.14482e+06
1.14253e+06
1.14167e+06
1.13931e+06
1.13829e+06
1.13586e+06
1.1347e+06
1.13223e+06
1.1575e+06
1.15594e+06
1.15611e+06
1.15448e+06
1.15455e+06
1.15276e+06
1.15265e+06
1.15069e+06
1.15038e+06
1.14827e+06
1.14775e+06
1.14554e+06
1.14484e+06
1.14256e+06
1.1417e+06
1.13934e+06
1.13831e+06
1.13588e+06
1.13472e+06
1.13225e+06
1.1575e+06
1.15594e+06
1.15611e+06
1.15448e+06
1.15455e+06
1.15276e+06
1.15265e+06
1.15069e+06
1.15038e+06
1.14827e+06
1.14775e+06
1.14554e+06
1.14484e+06
1.14256e+06
1.1417e+06
1.13934e+06
1.13831e+06
1.13588e+06
1.13472e+06
1.13225e+06
1.15749e+06
1.15592e+06
1.15608e+06
1.15446e+06
1.15453e+06
1.15273e+06
1.15263e+06
1.15066e+06
1.15035e+06
1.14825e+06
1.14773e+06
1.14552e+06
1.14482e+06
1.14253e+06
1.14167e+06
1.13931e+06
1.13829e+06
1.13586e+06
1.13471e+06
1.13223e+06
1.15752e+06
1.15596e+06
1.15613e+06
1.15451e+06
1.15458e+06
1.15278e+06
1.15268e+06
1.15071e+06
1.1504e+06
1.14829e+06
1.14778e+06
1.14557e+06
1.14487e+06
1.14258e+06
1.14172e+06
1.13937e+06
1.13834e+06
1.1359e+06
1.13474e+06
1.13228e+06
1.15747e+06
1.15591e+06
1.15607e+06
1.15445e+06
1.15451e+06
1.15272e+06
1.15261e+06
1.15065e+06
1.15033e+06
1.14823e+06
1.14771e+06
1.1455e+06
1.1448e+06
1.14251e+06
1.14165e+06
1.13929e+06
1.13826e+06
1.13583e+06
1.13469e+06
1.13221e+06
1.15752e+06
1.15598e+06
1.15614e+06
1.15452e+06
1.1546e+06
1.15281e+06
1.1527e+06
1.15074e+06
1.15042e+06
1.14832e+06
1.1478e+06
1.14559e+06
1.14489e+06
1.14261e+06
1.14174e+06
1.13938e+06
1.13836e+06
1.13592e+06
1.13476e+06
1.13232e+06
1.15745e+06
1.1559e+06
1.15607e+06
1.15445e+06
1.15452e+06
1.15272e+06
1.15261e+06
1.15064e+06
1.15032e+06
1.14821e+06
1.14769e+06
1.14548e+06
1.14478e+06
1.14249e+06
1.14162e+06
1.13926e+06
1.13823e+06
1.1358e+06
1.13466e+06
1.1322e+06
1.15753e+06
1.15599e+06
1.15615e+06
1.15454e+06
1.15461e+06
1.15283e+06
1.15273e+06
1.15077e+06
1.15045e+06
1.14834e+06
1.14782e+06
1.14561e+06
1.14491e+06
1.14262e+06
1.14175e+06
1.13939e+06
1.13836e+06
1.13593e+06
1.13478e+06
1.13237e+06
1.15742e+06
1.1559e+06
1.15608e+06
1.15446e+06
1.15453e+06
1.15272e+06
1.15261e+06
1.15064e+06
1.15032e+06
1.1482e+06
1.14767e+06
1.14545e+06
1.14474e+06
1.14245e+06
1.14158e+06
1.13922e+06
1.13819e+06
1.13576e+06
1.13463e+06
1.13221e+06
1.15752e+06
1.15601e+06
1.15618e+06
1.15457e+06
1.15465e+06
1.15286e+06
1.15276e+06
1.15079e+06
1.15047e+06
1.14835e+06
1.14782e+06
1.1456e+06
1.1449e+06
1.14261e+06
1.14174e+06
1.13938e+06
1.13836e+06
1.13594e+06
1.1348e+06
1.13243e+06
1.15737e+06
1.15586e+06
1.15603e+06
1.1544e+06
1.15447e+06
1.15266e+06
1.15255e+06
1.15057e+06
1.15024e+06
1.14811e+06
1.14758e+06
1.14536e+06
1.14465e+06
1.14235e+06
1.14149e+06
1.13913e+06
1.1381e+06
1.13567e+06
1.13454e+06
1.13215e+06
1.15805e+06
1.1566e+06
1.15673e+06
1.15523e+06
1.15522e+06
1.15347e+06
1.15327e+06
1.15134e+06
1.15096e+06
1.14889e+06
1.14832e+06
1.14614e+06
1.1454e+06
1.14312e+06
1.14223e+06
1.13986e+06
1.13882e+06
1.13635e+06
1.13522e+06
1.13272e+06
1.15808e+06
1.1566e+06
1.15673e+06
1.15522e+06
1.1552e+06
1.15346e+06
1.15326e+06
1.15135e+06
1.15097e+06
1.1489e+06
1.14834e+06
1.14616e+06
1.14542e+06
1.14314e+06
1.14225e+06
1.13988e+06
1.13883e+06
1.13636e+06
1.13522e+06
1.13273e+06
1.15808e+06
1.15661e+06
1.15672e+06
1.15521e+06
1.1552e+06
1.15345e+06
1.15326e+06
1.15134e+06
1.15097e+06
1.14891e+06
1.14835e+06
1.14617e+06
1.14544e+06
1.14316e+06
1.14227e+06
1.13989e+06
1.13884e+06
1.13636e+06
1.13522e+06
1.13271e+06
1.1581e+06
1.15661e+06
1.15672e+06
1.1552e+06
1.15519e+06
1.15344e+06
1.15325e+06
1.15133e+06
1.15096e+06
1.1489e+06
1.14835e+06
1.14617e+06
1.14545e+06
1.14317e+06
1.14228e+06
1.1399e+06
1.13885e+06
1.13637e+06
1.13522e+06
1.13271e+06
1.1581e+06
1.15661e+06
1.15672e+06
1.15519e+06
1.15518e+06
1.15344e+06
1.15325e+06
1.15133e+06
1.15096e+06
1.1489e+06
1.14835e+06
1.14617e+06
1.14545e+06
1.14317e+06
1.14228e+06
1.13991e+06
1.13886e+06
1.13638e+06
1.13522e+06
1.1327e+06
1.15812e+06
1.15661e+06
1.15672e+06
1.15519e+06
1.15517e+06
1.15343e+06
1.15324e+06
1.15133e+06
1.15096e+06
1.1489e+06
1.14835e+06
1.14617e+06
1.14545e+06
1.14317e+06
1.14229e+06
1.13991e+06
1.13886e+06
1.13638e+06
1.13523e+06
1.13271e+06
1.15812e+06
1.15661e+06
1.15671e+06
1.15518e+06
1.15517e+06
1.15343e+06
1.15324e+06
1.15133e+06
1.15096e+06
1.1489e+06
1.14835e+06
1.14617e+06
1.14545e+06
1.14317e+06
1.14229e+06
1.13991e+06
1.13886e+06
1.13638e+06
1.13523e+06
1.1327e+06
1.15812e+06
1.15661e+06
1.15672e+06
1.15518e+06
1.15517e+06
1.15343e+06
1.15324e+06
1.15133e+06
1.15096e+06
1.1489e+06
1.14835e+06
1.14617e+06
1.14545e+06
1.14317e+06
1.14229e+06
1.13991e+06
1.13886e+06
1.13638e+06
1.13523e+06
1.13271e+06
1.15812e+06
1.15661e+06
1.15671e+06
1.15518e+06
1.15517e+06
1.15342e+06
1.15324e+06
1.15133e+06
1.15096e+06
1.1489e+06
1.14835e+06
1.14617e+06
1.14545e+06
1.14317e+06
1.14229e+06
1.13991e+06
1.13886e+06
1.13638e+06
1.13522e+06
1.1327e+06
1.15813e+06
1.15661e+06
1.15671e+06
1.15518e+06
1.15516e+06
1.15342e+06
1.15324e+06
1.15133e+06
1.15096e+06
1.1489e+06
1.14835e+06
1.14617e+06
1.14545e+06
1.14317e+06
1.14229e+06
1.13991e+06
1.13886e+06
1.13638e+06
1.13522e+06
1.13271e+06
1.15813e+06
1.15661e+06
1.15671e+06
1.15518e+06
1.15516e+06
1.15342e+06
1.15324e+06
1.15133e+06
1.15096e+06
1.1489e+06
1.14835e+06
1.14617e+06
1.14545e+06
1.14317e+06
1.14229e+06
1.13991e+06
1.13886e+06
1.13638e+06
1.13522e+06
1.13271e+06
1.15812e+06
1.15661e+06
1.15671e+06
1.15518e+06
1.15517e+06
1.15342e+06
1.15324e+06
1.15133e+06
1.15096e+06
1.1489e+06
1.14835e+06
1.14617e+06
1.14545e+06
1.14317e+06
1.14229e+06
1.13991e+06
1.13886e+06
1.13638e+06
1.13522e+06
1.1327e+06
1.15812e+06
1.15661e+06
1.15672e+06
1.15518e+06
1.15517e+06
1.15343e+06
1.15324e+06
1.15133e+06
1.15096e+06
1.1489e+06
1.14835e+06
1.14617e+06
1.14545e+06
1.14317e+06
1.14229e+06
1.13991e+06
1.13886e+06
1.13638e+06
1.13523e+06
1.13271e+06
1.15812e+06
1.15661e+06
1.15671e+06
1.15518e+06
1.15517e+06
1.15343e+06
1.15324e+06
1.15133e+06
1.15096e+06
1.1489e+06
1.14835e+06
1.14617e+06
1.14545e+06
1.14317e+06
1.14229e+06
1.13991e+06
1.13886e+06
1.13638e+06
1.13523e+06
1.1327e+06
1.15812e+06
1.15661e+06
1.15672e+06
1.15519e+06
1.15517e+06
1.15343e+06
1.15324e+06
1.15133e+06
1.15096e+06
1.1489e+06
1.14835e+06
1.14617e+06
1.14545e+06
1.14317e+06
1.14229e+06
1.13991e+06
1.13886e+06
1.13638e+06
1.13523e+06
1.13271e+06
1.1581e+06
1.15661e+06
1.15672e+06
1.15519e+06
1.15518e+06
1.15344e+06
1.15325e+06
1.15133e+06
1.15096e+06
1.1489e+06
1.14835e+06
1.14617e+06
1.14545e+06
1.14317e+06
1.14228e+06
1.13991e+06
1.13886e+06
1.13638e+06
1.13522e+06
1.1327e+06
1.1581e+06
1.15661e+06
1.15672e+06
1.1552e+06
1.15519e+06
1.15344e+06
1.15325e+06
1.15133e+06
1.15096e+06
1.1489e+06
1.14835e+06
1.14617e+06
1.14545e+06
1.14317e+06
1.14228e+06
1.1399e+06
1.13885e+06
1.13638e+06
1.13522e+06
1.13271e+06
1.15808e+06
1.15661e+06
1.15672e+06
1.15521e+06
1.1552e+06
1.15345e+06
1.15326e+06
1.15134e+06
1.15097e+06
1.14891e+06
1.14835e+06
1.14617e+06
1.14544e+06
1.14316e+06
1.14227e+06
1.13989e+06
1.13884e+06
1.13636e+06
1.13522e+06
1.13271e+06
1.15808e+06
1.1566e+06
1.15673e+06
1.15522e+06
1.1552e+06
1.15346e+06
1.15326e+06
1.15135e+06
1.15097e+06
1.1489e+06
1.14834e+06
1.14615e+06
1.14542e+06
1.14314e+06
1.14225e+06
1.13988e+06
1.13883e+06
1.13636e+06
1.13522e+06
1.13274e+06
1.15805e+06
1.1566e+06
1.15673e+06
1.15523e+06
1.15522e+06
1.15347e+06
1.15327e+06
1.15134e+06
1.15096e+06
1.14889e+06
1.14832e+06
1.14614e+06
1.1454e+06
1.14312e+06
1.14223e+06
1.13986e+06
1.13882e+06
1.13635e+06
1.13521e+06
1.13273e+06
1.15805e+06
1.1566e+06
1.15673e+06
1.15523e+06
1.15522e+06
1.15347e+06
1.15327e+06
1.15134e+06
1.15096e+06
1.14889e+06
1.14832e+06
1.14614e+06
1.1454e+06
1.14312e+06
1.14223e+06
1.13986e+06
1.13882e+06
1.13635e+06
1.13522e+06
1.13272e+06
1.15808e+06
1.1566e+06
1.15673e+06
1.15522e+06
1.1552e+06
1.15346e+06
1.15327e+06
1.15135e+06
1.15097e+06
1.1489e+06
1.14834e+06
1.14616e+06
1.14542e+06
1.14314e+06
1.14225e+06
1.13988e+06
1.13883e+06
1.13636e+06
1.13522e+06
1.13273e+06
1.15808e+06
1.15661e+06
1.15672e+06
1.15521e+06
1.1552e+06
1.15345e+06
1.15326e+06
1.15134e+06
1.15097e+06
1.14891e+06
1.14835e+06
1.14617e+06
1.14544e+06
1.14316e+06
1.14227e+06
1.13989e+06
1.13884e+06
1.13636e+06
1.13522e+06
1.13271e+06
1.1581e+06
1.15661e+06
1.15672e+06
1.1552e+06
1.15519e+06
1.15344e+06
1.15325e+06
1.15133e+06
1.15096e+06
1.1489e+06
1.14835e+06
1.14617e+06
1.14545e+06
1.14317e+06
1.14228e+06
1.1399e+06
1.13885e+06
1.13637e+06
1.13522e+06
1.13271e+06
1.1581e+06
1.15661e+06
1.15672e+06
1.15519e+06
1.15518e+06
1.15344e+06
1.15325e+06
1.15133e+06
1.15096e+06
1.1489e+06
1.14835e+06
1.14617e+06
1.14545e+06
1.14317e+06
1.14228e+06
1.13991e+06
1.13886e+06
1.13638e+06
1.13522e+06
1.1327e+06
1.15812e+06
1.15661e+06
1.15672e+06
1.15519e+06
1.15517e+06
1.15343e+06
1.15324e+06
1.15133e+06
1.15096e+06
1.1489e+06
1.14835e+06
1.14617e+06
1.14545e+06
1.14317e+06
1.14229e+06
1.13991e+06
1.13886e+06
1.13638e+06
1.13523e+06
1.13271e+06
1.15812e+06
1.15661e+06
1.15672e+06
1.15518e+06
1.15517e+06
1.15343e+06
1.15324e+06
1.15133e+06
1.15096e+06
1.1489e+06
1.14835e+06
1.14617e+06
1.14545e+06
1.14317e+06
1.14229e+06
1.13991e+06
1.13886e+06
1.13638e+06
1.13523e+06
1.1327e+06
1.15812e+06
1.15661e+06
1.15672e+06
1.15518e+06
1.15517e+06
1.15343e+06
1.15324e+06
1.15133e+06
1.15096e+06
1.1489e+06
1.14835e+06
1.14617e+06
1.14545e+06
1.14317e+06
1.14229e+06
1.13991e+06
1.13886e+06
1.13639e+06
1.13523e+06
1.13271e+06
1.15812e+06
1.15661e+06
1.15671e+06
1.15518e+06
1.15517e+06
1.15342e+06
1.15324e+06
1.15133e+06
1.15096e+06
1.1489e+06
1.14835e+06
1.14617e+06
1.14545e+06
1.14317e+06
1.14229e+06
1.13991e+06
1.13886e+06
1.13638e+06
1.13522e+06
1.1327e+06
1.15813e+06
1.15661e+06
1.15671e+06
1.15518e+06
1.15516e+06
1.15342e+06
1.15324e+06
1.15133e+06
1.15096e+06
1.1489e+06
1.14835e+06
1.14617e+06
1.14545e+06
1.14317e+06
1.14229e+06
1.13991e+06
1.13886e+06
1.13638e+06
1.13522e+06
1.13271e+06
1.15813e+06
1.15661e+06
1.15671e+06
1.15518e+06
1.15516e+06
1.15342e+06
1.15324e+06
1.15133e+06
1.15096e+06
1.1489e+06
1.14835e+06
1.14617e+06
1.14545e+06
1.14317e+06
1.14229e+06
1.13991e+06
1.13886e+06
1.13638e+06
1.13522e+06
1.13271e+06
1.15812e+06
1.15661e+06
1.15671e+06
1.15518e+06
1.15517e+06
1.15342e+06
1.15324e+06
1.15133e+06
1.15096e+06
1.1489e+06
1.14835e+06
1.14617e+06
1.14545e+06
1.14317e+06
1.14229e+06
1.13991e+06
1.13886e+06
1.13638e+06
1.13523e+06
1.1327e+06
1.15812e+06
1.15661e+06
1.15672e+06
1.15518e+06
1.15517e+06
1.15343e+06
1.15324e+06
1.15133e+06
1.15096e+06
1.1489e+06
1.14835e+06
1.14617e+06
1.14545e+06
1.14317e+06
1.14229e+06
1.13991e+06
1.13886e+06
1.13639e+06
1.13523e+06
1.13271e+06
1.15812e+06
1.15661e+06
1.15672e+06
1.15518e+06
1.15517e+06
1.15343e+06
1.15324e+06
1.15133e+06
1.15096e+06
1.1489e+06
1.14835e+06
1.14617e+06
1.14545e+06
1.14317e+06
1.14229e+06
1.13991e+06
1.13886e+06
1.13638e+06
1.13523e+06
1.1327e+06
1.15812e+06
1.15661e+06
1.15672e+06
1.15519e+06
1.15517e+06
1.15343e+06
1.15324e+06
1.15133e+06
1.15096e+06
1.1489e+06
1.14835e+06
1.14617e+06
1.14545e+06
1.14317e+06
1.14229e+06
1.13991e+06
1.13886e+06
1.13638e+06
1.13523e+06
1.13271e+06
1.1581e+06
1.15661e+06
1.15672e+06
1.15519e+06
1.15518e+06
1.15344e+06
1.15325e+06
1.15133e+06
1.15096e+06
1.1489e+06
1.14835e+06
1.14617e+06
1.14545e+06
1.14317e+06
1.14228e+06
1.13991e+06
1.13886e+06
1.13638e+06
1.13522e+06
1.1327e+06
1.1581e+06
1.15661e+06
1.15672e+06
1.1552e+06
1.15519e+06
1.15344e+06
1.15325e+06
1.15133e+06
1.15096e+06
1.1489e+06
1.14835e+06
1.14617e+06
1.14545e+06
1.14317e+06
1.14228e+06
1.1399e+06
1.13885e+06
1.13638e+06
1.13522e+06
1.13271e+06
1.15808e+06
1.15661e+06
1.15672e+06
1.15521e+06
1.1552e+06
1.15345e+06
1.15326e+06
1.15134e+06
1.15097e+06
1.14891e+06
1.14835e+06
1.14617e+06
1.14544e+06
1.14316e+06
1.14227e+06
1.13989e+06
1.13884e+06
1.13636e+06
1.13522e+06
1.13271e+06
1.15808e+06
1.1566e+06
1.15673e+06
1.15522e+06
1.1552e+06
1.15346e+06
1.15327e+06
1.15135e+06
1.15097e+06
1.1489e+06
1.14834e+06
1.14616e+06
1.14542e+06
1.14314e+06
1.14225e+06
1.13988e+06
1.13883e+06
1.13636e+06
1.13522e+06
1.13274e+06
1.15805e+06
1.1566e+06
1.15673e+06
1.15523e+06
1.15522e+06
1.15347e+06
1.15327e+06
1.15134e+06
1.15096e+06
1.14889e+06
1.14832e+06
1.14614e+06
1.1454e+06
1.14312e+06
1.14223e+06
1.13986e+06
1.13882e+06
1.13635e+06
1.13521e+06
1.13273e+06
1.15737e+06
1.15586e+06
1.15603e+06
1.1544e+06
1.15447e+06
1.15266e+06
1.15255e+06
1.15057e+06
1.15024e+06
1.14811e+06
1.14758e+06
1.14536e+06
1.14465e+06
1.14236e+06
1.14149e+06
1.13913e+06
1.13811e+06
1.13567e+06
1.13455e+06
1.13215e+06
1.15753e+06
1.15601e+06
1.15618e+06
1.15457e+06
1.15465e+06
1.15286e+06
1.15276e+06
1.15079e+06
1.15047e+06
1.14835e+06
1.14782e+06
1.1456e+06
1.1449e+06
1.14261e+06
1.14174e+06
1.13938e+06
1.13836e+06
1.13594e+06
1.1348e+06
1.13243e+06
1.15742e+06
1.1559e+06
1.15608e+06
1.15446e+06
1.15453e+06
1.15272e+06
1.15261e+06
1.15064e+06
1.15032e+06
1.1482e+06
1.14767e+06
1.14545e+06
1.14475e+06
1.14245e+06
1.14158e+06
1.13922e+06
1.13819e+06
1.13576e+06
1.13463e+06
1.13221e+06
1.15753e+06
1.15599e+06
1.15615e+06
1.15454e+06
1.15461e+06
1.15283e+06
1.15273e+06
1.15077e+06
1.15045e+06
1.14834e+06
1.14782e+06
1.14561e+06
1.14491e+06
1.14262e+06
1.14175e+06
1.13939e+06
1.13836e+06
1.13593e+06
1.13478e+06
1.13237e+06
1.15745e+06
1.1559e+06
1.15607e+06
1.15445e+06
1.15452e+06
1.15272e+06
1.15261e+06
1.15064e+06
1.15033e+06
1.14821e+06
1.14769e+06
1.14548e+06
1.14478e+06
1.14249e+06
1.14162e+06
1.13926e+06
1.13823e+06
1.1358e+06
1.13466e+06
1.1322e+06
1.15752e+06
1.15598e+06
1.15614e+06
1.15453e+06
1.1546e+06
1.15281e+06
1.1527e+06
1.15074e+06
1.15042e+06
1.14832e+06
1.1478e+06
1.14559e+06
1.14489e+06
1.14261e+06
1.14174e+06
1.13939e+06
1.13836e+06
1.13592e+06
1.13476e+06
1.13232e+06
1.15747e+06
1.15591e+06
1.15607e+06
1.15445e+06
1.15452e+06
1.15272e+06
1.15261e+06
1.15065e+06
1.15033e+06
1.14823e+06
1.14771e+06
1.1455e+06
1.1448e+06
1.14251e+06
1.14165e+06
1.13929e+06
1.13826e+06
1.13583e+06
1.13469e+06
1.13221e+06
1.15752e+06
1.15596e+06
1.15613e+06
1.15451e+06
1.15458e+06
1.15278e+06
1.15268e+06
1.15071e+06
1.1504e+06
1.14829e+06
1.14778e+06
1.14557e+06
1.14487e+06
1.14258e+06
1.14172e+06
1.13937e+06
1.13834e+06
1.1359e+06
1.13474e+06
1.13228e+06
1.15749e+06
1.15592e+06
1.15608e+06
1.15446e+06
1.15453e+06
1.15273e+06
1.15263e+06
1.15066e+06
1.15035e+06
1.14825e+06
1.14773e+06
1.14552e+06
1.14482e+06
1.14253e+06
1.14167e+06
1.13931e+06
1.13829e+06
1.13586e+06
1.1347e+06
1.13223e+06
1.1575e+06
1.15594e+06
1.15611e+06
1.15448e+06
1.15455e+06
1.15276e+06
1.15265e+06
1.15069e+06
1.15038e+06
1.14827e+06
1.14775e+06
1.14554e+06
1.14484e+06
1.14256e+06
1.1417e+06
1.13934e+06
1.13831e+06
1.13588e+06
1.13472e+06
1.13225e+06
1.1575e+06
1.15594e+06
1.15611e+06
1.15448e+06
1.15455e+06
1.15276e+06
1.15265e+06
1.15069e+06
1.15038e+06
1.14827e+06
1.14775e+06
1.14554e+06
1.14484e+06
1.14256e+06
1.1417e+06
1.13934e+06
1.13831e+06
1.13588e+06
1.13472e+06
1.13225e+06
1.15749e+06
1.15592e+06
1.15608e+06
1.15446e+06
1.15453e+06
1.15273e+06
1.15263e+06
1.15066e+06
1.15035e+06
1.14825e+06
1.14773e+06
1.14552e+06
1.14482e+06
1.14253e+06
1.14167e+06
1.13932e+06
1.13829e+06
1.13586e+06
1.13471e+06
1.13223e+06
1.15752e+06
1.15596e+06
1.15613e+06
1.15451e+06
1.15458e+06
1.15278e+06
1.15268e+06
1.15071e+06
1.1504e+06
1.14829e+06
1.14778e+06
1.14557e+06
1.14487e+06
1.14258e+06
1.14172e+06
1.13937e+06
1.13834e+06
1.1359e+06
1.13474e+06
1.13228e+06
1.15747e+06
1.15591e+06
1.15607e+06
1.15445e+06
1.15452e+06
1.15272e+06
1.15261e+06
1.15065e+06
1.15033e+06
1.14823e+06
1.14771e+06
1.1455e+06
1.1448e+06
1.14251e+06
1.14165e+06
1.13929e+06
1.13826e+06
1.13583e+06
1.13469e+06
1.13221e+06
1.15752e+06
1.15598e+06
1.15614e+06
1.15453e+06
1.1546e+06
1.15281e+06
1.1527e+06
1.15074e+06
1.15042e+06
1.14832e+06
1.1478e+06
1.14559e+06
1.14489e+06
1.14261e+06
1.14174e+06
1.13939e+06
1.13836e+06
1.13592e+06
1.13476e+06
1.13232e+06
1.15745e+06
1.1559e+06
1.15607e+06
1.15445e+06
1.15452e+06
1.15272e+06
1.15261e+06
1.15064e+06
1.15032e+06
1.14821e+06
1.14769e+06
1.14548e+06
1.14478e+06
1.14249e+06
1.14162e+06
1.13926e+06
1.13823e+06
1.1358e+06
1.13466e+06
1.1322e+06
1.15753e+06
1.15599e+06
1.15615e+06
1.15454e+06
1.15461e+06
1.15283e+06
1.15273e+06
1.15077e+06
1.15045e+06
1.14834e+06
1.14782e+06
1.14561e+06
1.14491e+06
1.14262e+06
1.14175e+06
1.13939e+06
1.13836e+06
1.13593e+06
1.13478e+06
1.13237e+06
1.15742e+06
1.1559e+06
1.15608e+06
1.15446e+06
1.15453e+06
1.15272e+06
1.15261e+06
1.15064e+06
1.15032e+06
1.1482e+06
1.14767e+06
1.14545e+06
1.14475e+06
1.14245e+06
1.14158e+06
1.13922e+06
1.13819e+06
1.13576e+06
1.13463e+06
1.13221e+06
1.15753e+06
1.15601e+06
1.15618e+06
1.15457e+06
1.15465e+06
1.15286e+06
1.15276e+06
1.15079e+06
1.15047e+06
1.14835e+06
1.14782e+06
1.1456e+06
1.1449e+06
1.14261e+06
1.14174e+06
1.13938e+06
1.13836e+06
1.13594e+06
1.1348e+06
1.13243e+06
1.15737e+06
1.15586e+06
1.15603e+06
1.1544e+06
1.15447e+06
1.15266e+06
1.15255e+06
1.15057e+06
1.15024e+06
1.14811e+06
1.14758e+06
1.14536e+06
1.14465e+06
1.14236e+06
1.14149e+06
1.13913e+06
1.1381e+06
1.13568e+06
1.13454e+06
1.13215e+06
1.15827e+06
1.15683e+06
1.15689e+06
1.15543e+06
1.15533e+06
1.15365e+06
1.15332e+06
1.15144e+06
1.15088e+06
1.14886e+06
1.1481e+06
1.14598e+06
1.14506e+06
1.14286e+06
1.1418e+06
1.13952e+06
1.13833e+06
1.13597e+06
1.13467e+06
1.13236e+06
1.15805e+06
1.15664e+06
1.15669e+06
1.15522e+06
1.15511e+06
1.15342e+06
1.15308e+06
1.15119e+06
1.15064e+06
1.14861e+06
1.14786e+06
1.14572e+06
1.14481e+06
1.1426e+06
1.14154e+06
1.13926e+06
1.13806e+06
1.1357e+06
1.13441e+06
1.1321e+06
1.15814e+06
1.15669e+06
1.15672e+06
1.15525e+06
1.15515e+06
1.15347e+06
1.15315e+06
1.15127e+06
1.15072e+06
1.14869e+06
1.14794e+06
1.14581e+06
1.1449e+06
1.1427e+06
1.14163e+06
1.13935e+06
1.13815e+06
1.13579e+06
1.13448e+06
1.13217e+06
1.15805e+06
1.15664e+06
1.15667e+06
1.15519e+06
1.15508e+06
1.15338e+06
1.15305e+06
1.15117e+06
1.15062e+06
1.1486e+06
1.14785e+06
1.14572e+06
1.14481e+06
1.14261e+06
1.14154e+06
1.13926e+06
1.13806e+06
1.13569e+06
1.1344e+06
1.13205e+06
1.15811e+06
1.15668e+06
1.1567e+06
1.15523e+06
1.15512e+06
1.15343e+06
1.15311e+06
1.15123e+06
1.15069e+06
1.14867e+06
1.14793e+06
1.1458e+06
1.14489e+06
1.14269e+06
1.14163e+06
1.13935e+06
1.13815e+06
1.13578e+06
1.13446e+06
1.13211e+06
1.15805e+06
1.15663e+06
1.15666e+06
1.15518e+06
1.15506e+06
1.15337e+06
1.15304e+06
1.15116e+06
1.15062e+06
1.1486e+06
1.14786e+06
1.14574e+06
1.14483e+06
1.14263e+06
1.14157e+06
1.13929e+06
1.13809e+06
1.13572e+06
1.13442e+06
1.13204e+06
1.15809e+06
1.15667e+06
1.15669e+06
1.15522e+06
1.1551e+06
1.15341e+06
1.15308e+06
1.15121e+06
1.15066e+06
1.14865e+06
1.14791e+06
1.14579e+06
1.14488e+06
1.14268e+06
1.14163e+06
1.13935e+06
1.13814e+06
1.13578e+06
1.13445e+06
1.13207e+06
1.15805e+06
1.15663e+06
1.15665e+06
1.15517e+06
1.15506e+06
1.15337e+06
1.15304e+06
1.15117e+06
1.15062e+06
1.14861e+06
1.14787e+06
1.14575e+06
1.14484e+06
1.14264e+06
1.14158e+06
1.13931e+06
1.13811e+06
1.13574e+06
1.13442e+06
1.13203e+06
1.15807e+06
1.15666e+06
1.15668e+06
1.1552e+06
1.15508e+06
1.1534e+06
1.15307e+06
1.15119e+06
1.15065e+06
1.14863e+06
1.14789e+06
1.14577e+06
1.14486e+06
1.14266e+06
1.14161e+06
1.13933e+06
1.13813e+06
1.13577e+06
1.13444e+06
1.13205e+06
1.15806e+06
1.15664e+06
1.15666e+06
1.15518e+06
1.15506e+06
1.15338e+06
1.15305e+06
1.15118e+06
1.15063e+06
1.14862e+06
1.14788e+06
1.14576e+06
1.14485e+06
1.14265e+06
1.1416e+06
1.13932e+06
1.13812e+06
1.13575e+06
1.13443e+06
1.13204e+06
1.15806e+06
1.15664e+06
1.15666e+06
1.15518e+06
1.15506e+06
1.15338e+06
1.15305e+06
1.15118e+06
1.15063e+06
1.14862e+06
1.14788e+06
1.14576e+06
1.14485e+06
1.14265e+06
1.1416e+06
1.13932e+06
1.13812e+06
1.13575e+06
1.13443e+06
1.13204e+06
1.15807e+06
1.15666e+06
1.15668e+06
1.1552e+06
1.15508e+06
1.1534e+06
1.15307e+06
1.15119e+06
1.15065e+06
1.14863e+06
1.14789e+06
1.14577e+06
1.14486e+06
1.14266e+06
1.14161e+06
1.13933e+06
1.13813e+06
1.13577e+06
1.13444e+06
1.13205e+06
1.15805e+06
1.15663e+06
1.15665e+06
1.15517e+06
1.15506e+06
1.15337e+06
1.15304e+06
1.15117e+06
1.15062e+06
1.14861e+06
1.14787e+06
1.14575e+06
1.14484e+06
1.14264e+06
1.14158e+06
1.13931e+06
1.13811e+06
1.13574e+06
1.13443e+06
1.13203e+06
1.15809e+06
1.15667e+06
1.15669e+06
1.15522e+06
1.1551e+06
1.15341e+06
1.15308e+06
1.15121e+06
1.15066e+06
1.14865e+06
1.14791e+06
1.14579e+06
1.14488e+06
1.14268e+06
1.14163e+06
1.13935e+06
1.13814e+06
1.13578e+06
1.13445e+06
1.13207e+06
1.15805e+06
1.15663e+06
1.15666e+06
1.15518e+06
1.15506e+06
1.15337e+06
1.15304e+06
1.15116e+06
1.15062e+06
1.1486e+06
1.14786e+06
1.14574e+06
1.14483e+06
1.14263e+06
1.14157e+06
1.13929e+06
1.13809e+06
1.13572e+06
1.13442e+06
1.13204e+06
1.15811e+06
1.15668e+06
1.1567e+06
1.15523e+06
1.15512e+06
1.15343e+06
1.15311e+06
1.15123e+06
1.15069e+06
1.14867e+06
1.14793e+06
1.1458e+06
1.14489e+06
1.14269e+06
1.14163e+06
1.13935e+06
1.13815e+06
1.13578e+06
1.13445e+06
1.13211e+06
1.15805e+06
1.15664e+06
1.15667e+06
1.15519e+06
1.15508e+06
1.15338e+06
1.15305e+06
1.15117e+06
1.15062e+06
1.1486e+06
1.14785e+06
1.14572e+06
1.14481e+06
1.14261e+06
1.14154e+06
1.13926e+06
1.13806e+06
1.13569e+06
1.1344e+06
1.13205e+06
1.15814e+06
1.15669e+06
1.15672e+06
1.15525e+06
1.15515e+06
1.15347e+06
1.15315e+06
1.15127e+06
1.15072e+06
1.14869e+06
1.14794e+06
1.14581e+06
1.1449e+06
1.1427e+06
1.14163e+06
1.13935e+06
1.13815e+06
1.13579e+06
1.13448e+06
1.13218e+06
1.15805e+06
1.15664e+06
1.15669e+06
1.15522e+06
1.15511e+06
1.15342e+06
1.15308e+06
1.15119e+06
1.15064e+06
1.14861e+06
1.14786e+06
1.14572e+06
1.14481e+06
1.1426e+06
1.14154e+06
1.13926e+06
1.13806e+06
1.1357e+06
1.13441e+06
1.1321e+06
1.15827e+06
1.15683e+06
1.15689e+06
1.15543e+06
1.15533e+06
1.15365e+06
1.15332e+06
1.15144e+06
1.15088e+06
1.14886e+06
1.1481e+06
1.14598e+06
1.14506e+06
1.14286e+06
1.1418e+06
1.13952e+06
1.13833e+06
1.13597e+06
1.13467e+06
1.13236e+06
1.12917e+06
1.11914e+06
1.11333e+06
1.10262e+06
1.09568e+06
1.08433e+06
1.07648e+06
1.06456e+06
1.05589e+06
1.04347e+06
1.03408e+06
1.0212e+06
1.01114e+06
997853
987191
973526
962309
948302
936576
922259
910066
895467
882847
867994
854985
839905
826543
811262
797581
782124
768158
752551
738334
722601
708166
692333
677712
661807
647036
631089
616205
600246
585273
569297
554222
538249
523151
507257
492189
476407
461413
445776
430890
415427
400684
385420
370853
355816
341457
326674
312558
298056
284219
270028
256506
242658
229491
216017
203248
190186
177858
165246
153411
141292
130004
118430
107750
96776.5
86779
76477.8
67242.6
57698.5
49336.9
40658.3
33288.8
25669.1
19503
13018.3
8190.03
3669.48
1.12861e+06