/*--------------------------------*- C++ -*----------------------------------*\
  =========                 |
  \\      /  F ield         | OpenFOAM: The Open Source CFD Toolbox
   \\    /   O peration     | Website:  https://openfoam.org
    \\  /    A nd           | Version:  7
     \\/     M anipulation  |
\*---------------------------------------------------------------------------*/
FoamFile
{
    version     2.0;
    format      ascii;
    class       volScalarField;
    location    "5.48";
    object      T;
}
// * * * * * * * * * * * * * * * * * * * * * * * * * * * * * * * * * * * * * //

dimensions      [0 0 0 1 0 0 0];

internalField   nonuniform List<scalar> 
5760
(
284.921
288.923
291.925
294.342
296.518
298.482
300.237
301.842
303.351
304.785
306.148
307.448
308.691
309.885
311.035
312.146
313.22
314.261
315.271
316.252
317.207
318.137
319.044
319.929
320.794
321.639
322.466
323.276
324.069
324.847
325.61
326.358
327.093
327.815
328.524
329.221
329.906
330.581
331.245
331.898
332.542
333.176
333.8
334.416
335.023
335.621
336.212
336.794
337.369
337.936
338.496
339.048
339.594
340.134
340.666
341.192
341.712
342.226
342.734
343.236
343.732
344.223
344.708
345.188
345.663
346.133
346.598
347.058
347.513
347.963
348.409
348.851
349.288
349.721
350.15
350.575
350.996
351.413
351.827
352.236
352.643
353.046
353.445
353.842
354.235
354.625
355.012
355.396
355.778
356.156
356.532
356.905
357.276
357.644
358.01
358.373
358.734
359.093
359.45
359.805
360.157
360.508
360.856
361.203
361.547
361.89
362.231
362.57
362.908
363.244
363.578
363.91
364.241
364.571
364.899
365.225
365.55
365.874
366.196
366.517
366.836
367.154
367.471
367.786
368.101
368.414
368.725
369.036
369.345
369.653
369.96
370.266
370.571
370.875
371.178
371.479
371.78
372.079
372.377
372.675
372.971
373.266
373.561
373.854
374.147
374.438
374.728
375.018
375.306
375.594
375.881
376.166
376.451
376.735
377.018
377.3
377.581
377.861
378.14
378.418
378.695
378.971
379.246
379.521
379.794
380.066
380.338
380.608
380.878
381.146
381.413
381.68
381.945
382.209
382.472
382.734
382.995
383.255
383.514
383.772
384.028
384.284
384.538
384.791
385.043
385.293
385.543
385.791
386.038
386.283
386.528
386.771
387.012
387.253
387.491
387.729
387.965
388.2
388.433
388.665
388.896
389.125
389.352
389.578
389.803
390.026
390.247
390.467
390.686
390.902
391.118
391.331
391.543
391.753
391.962
392.169
392.374
392.578
392.78
392.98
393.179
393.376
393.571
393.765
393.956
394.147
394.333
394.522
394.704
394.891
395.066
395.253
395.42
395.612
395.763
395.967
396.092
396.326
396.398
396.702
283.556
285.853
287.936
289.81
291.547
293.15
294.628
296.018
297.345
298.614
299.828
300.992
302.113
303.196
304.243
305.258
306.243
307.2
308.132
309.041
309.926
310.791
311.637
312.463
313.273
314.065
314.842
315.603
316.351
317.084
317.805
318.513
319.209
319.893
320.567
321.229
321.882
322.524
323.157
323.781
324.396
325.002
325.6
326.19
326.772
327.346
327.913
328.473
329.026
329.572
330.111
330.644
331.171
331.691
332.205
332.714
333.217
333.714
334.206
334.693
335.174
335.65
336.122
336.588
337.05
337.507
337.959
338.407
338.851
339.29
339.725
340.156
340.583
341.006
341.426
341.841
342.254
342.662
343.067
343.469
343.868
344.263
344.655
345.044
345.431
345.814
346.195
346.572
346.948
347.32
347.69
348.058
348.423
348.786
349.147
349.505
349.861
350.215
350.567
350.917
351.265
351.611
351.956
352.298
352.639
352.978
353.315
353.65
353.984
354.316
354.647
354.976
355.303
355.629
355.954
356.277
356.599
356.919
357.238
357.556
357.872
358.187
358.501
358.813
359.125
359.435
359.744
360.052
360.358
360.664
360.968
361.272
361.574
361.875
362.175
362.474
362.772
363.069
363.365
363.66
363.954
364.247
364.539
364.831
365.121
365.41
365.698
365.986
366.272
366.557
366.842
367.126
367.408
367.69
367.971
368.251
368.53
368.808
369.086
369.362
369.637
369.912
370.186
370.458
370.73
371.001
371.271
371.539
371.807
372.074
372.34
372.605
372.869
373.132
373.394
373.655
373.915
374.174
374.432
374.688
374.944
375.198
375.452
375.704
375.955
376.205
376.454
376.701
376.948
377.193
377.437
377.679
377.921
378.161
378.4
378.637
378.873
379.108
379.342
379.574
379.804
380.034
380.261
380.488
380.713
380.936
381.158
381.379
381.598
381.815
382.031
382.246
382.459
382.67
382.88
383.088
383.294
383.499
383.702
383.904
384.104
384.302
384.499
384.694
384.887
385.079
385.268
385.458
385.642
385.831
386.008
386.197
386.365
386.56
386.712
386.92
387.045
387.285
387.355
387.665
283.079
284.135
285.365
286.681
287.993
289.231
290.394
291.519
292.623
293.7
294.742
295.751
296.731
297.684
298.613
299.518
300.401
301.264
302.107
302.932
303.739
304.53
305.306
306.066
306.812
307.545
308.265
308.972
309.667
310.351
311.024
311.687
312.339
312.982
313.615
314.239
314.854
315.46
316.059
316.649
317.232
317.807
318.374
318.935
319.489
320.036
320.576
321.111
321.639
322.161
322.677
323.187
323.692
324.191
324.685
325.174
325.657
326.136
326.609
327.078
327.542
328.002
328.457
328.907
329.354
329.796
330.234
330.668
331.098
331.524
331.946
332.365
332.78
333.191
333.599
334.004
334.405
334.803
335.198
335.59
335.979
336.365
336.749
337.129
337.507
337.882
338.255
338.625
338.992
339.357
339.72
340.081
340.439
340.795
341.149
341.501
341.851
342.199
342.545
342.89
343.232
343.572
343.911
344.248
344.584
344.917
345.249
345.58
345.909
346.236
346.562
346.887
347.21
347.531
347.852
348.171
348.488
348.804
349.119
349.433
349.745
350.057
350.367
350.675
350.983
351.29
351.595
351.899
352.202
352.504
352.805
353.105
353.404
353.702
353.999
354.295
354.59
354.884
355.176
355.468
355.759
356.049
356.339
356.627
356.914
357.201
357.486
357.771
358.054
358.337
358.619
358.9
359.18
359.46
359.738
360.015
360.292
360.568
360.843
361.117
361.39
361.663
361.934
362.205
362.474
362.743
363.011
363.278
363.544
363.809
364.073
364.337
364.599
364.861
365.121
365.381
365.639
365.897
366.153
366.409
366.663
366.917
367.169
367.421
367.671
367.92
368.168
368.415
368.661
368.906
369.15
369.392
369.633
369.873
370.112
370.349
370.586
370.821
371.055
371.287
371.518
371.748
371.977
372.204
372.43
372.654
372.877
373.099
373.319
373.538
373.755
373.971
374.185
374.398
374.61
374.82
375.028
375.235
375.44
375.644
375.846
376.047
376.245
376.443
376.638
376.834
377.025
377.218
377.404
377.596
377.776
377.969
378.14
378.338
378.493
378.706
378.831
379.078
379.148
379.466
283.014
283.338
283.882
284.638
285.516
286.391
287.234
288.07
288.915
289.761
290.598
291.422
292.232
293.03
293.815
294.587
295.346
296.093
296.827
297.55
298.261
298.961
299.65
300.328
300.997
301.655
302.304
302.944
303.575
304.198
304.812
305.417
306.015
306.606
307.188
307.764
308.332
308.894
309.449
309.997
310.539
311.075
311.605
312.129
312.647
313.16
313.667
314.169
314.666
315.157
315.644
316.126
316.602
317.075
317.542
318.005
318.464
318.918
319.368
319.814
320.256
320.694
321.128
321.558
321.985
322.407
322.827
323.242
323.654
324.063
324.468
324.87
325.269
325.665
326.058
326.448
326.835
327.219
327.6
327.979
328.355
328.728
329.099
329.468
329.834
330.198
330.559
330.918
331.275
331.63
331.983
332.333
332.682
333.029
333.374
333.717
334.058
334.397
334.735
335.071
335.405
335.738
336.069
336.398
336.726
337.053
337.378
337.701
338.023
338.344
338.663
338.981
339.298
339.613
339.927
340.24
340.551
340.861
341.171
341.478
341.785
342.091
342.395
342.699
343.001
343.302
343.602
343.901
344.2
344.497
344.793
345.088
345.382
345.675
345.967
346.258
346.548
346.838
347.126
347.414
347.7
347.986
348.271
348.555
348.838
349.12
349.401
349.682
349.962
350.241
350.519
350.796
351.072
351.348
351.623
351.897
352.17
352.442
352.713
352.984
353.254
353.523
353.791
354.059
354.325
354.591
354.856
355.12
355.383
355.646
355.907
356.168
356.428
356.687
356.945
357.202
357.459
357.714
357.969
358.222
358.475
358.727
358.977
359.227
359.476
359.724
359.97
360.216
360.461
360.705
360.947
361.189
361.43
361.669
361.907
362.144
362.38
362.615
362.849
363.082
363.313
363.543
363.772
363.999
364.226
364.451
364.675
364.897
365.119
365.339
365.557
365.775
365.99
366.205
366.418
366.63
366.84
367.049
367.256
367.463
367.667
367.87
368.071
368.272
368.47
368.668
368.862
369.059
369.248
369.444
369.626
369.824
369.997
370.201
370.357
370.576
370.703
370.957
371.026
371.354
283.089
283.117
283.249
283.542
284.002
284.531
285.076
285.638
286.224
286.829
287.446
288.067
288.689
289.312
289.935
290.555
291.171
291.783
292.391
292.994
293.592
294.184
294.771
295.353
295.928
296.498
297.063
297.622
298.175
298.723
299.265
299.802
300.334
300.86
301.381
301.897
302.408
302.915
303.416
303.913
304.405
304.892
305.375
305.853
306.328
306.797
307.263
307.725
308.182
308.635
309.085
309.531
309.972
310.41
310.845
311.276
311.703
312.126
312.547
312.963
313.377
313.787
314.194
314.598
314.999
315.396
315.791
316.183
316.572
316.958
317.341
317.721
318.099
318.475
318.848
319.218
319.586
319.951
320.314
320.675
321.034
321.391
321.745
322.097
322.448
322.796
323.142
323.487
323.829
324.17
324.509
324.846
325.182
325.516
325.848
326.178
326.507
326.835
327.161
327.485
327.808
328.13
328.45
328.769
329.087
329.403
329.718
330.031
330.344
330.655
330.965
331.273
331.581
331.887
332.192
332.496
332.799
333.101
333.402
333.701
334
334.298
334.594
334.89
335.185
335.478
335.771
336.063
336.353
336.643
336.932
337.22
337.507
337.794
338.079
338.364
338.647
338.93
339.212
339.493
339.773
340.053
340.332
340.609
340.886
341.163
341.438
341.713
341.987
342.26
342.533
342.804
343.075
343.345
343.615
343.883
344.151
344.418
344.685
344.95
345.215
345.479
345.743
346.006
346.267
346.529
346.789
347.049
347.308
347.566
347.823
348.08
348.336
348.591
348.845
349.099
349.351
349.603
349.854
350.105
350.354
350.603
350.85
351.097
351.343
351.588
351.832
352.076
352.318
352.56
352.8
353.04
353.278
353.516
353.753
353.988
354.223
354.457
354.689
354.921
355.151
355.38
355.609
355.836
356.062
356.287
356.511
356.733
356.955
357.175
357.394
357.612
357.828
358.044
358.258
358.471
358.682
358.893
359.102
359.309
359.516
359.721
359.924
360.127
360.327
360.528
360.724
360.924
361.115
361.314
361.5
361.701
361.876
362.085
362.243
362.468
362.596
362.857
362.927
363.262
283.14
283.12
283.124
283.167
283.308
283.531
283.805
284.118
284.469
284.851
285.255
285.676
286.11
286.555
287.009
287.469
287.934
288.403
288.874
289.347
289.82
290.294
290.767
291.239
291.711
292.181
292.649
293.115
293.58
294.042
294.502
294.959
295.414
295.866
296.315
296.762
297.206
297.647
298.085
298.521
298.954
299.383
299.81
300.234
300.656
301.074
301.49
301.903
302.313
302.72
303.125
303.527
303.926
304.322
304.716
305.107
305.496
305.882
306.265
306.646
307.025
307.401
307.774
308.146
308.514
308.881
309.245
309.607
309.967
310.325
310.68
311.034
311.385
311.735
312.082
312.428
312.771
313.113
313.453
313.791
314.128
314.463
314.796
315.127
315.457
315.785
316.112
316.437
316.761
317.084
317.405
317.724
318.042
318.359
318.675
318.989
319.302
319.613
319.924
320.233
320.541
320.848
321.154
321.458
321.762
322.064
322.365
322.665
322.965
323.263
323.56
323.856
324.151
324.445
324.738
325.031
325.322
325.612
325.901
326.19
326.478
326.764
327.05
327.335
327.619
327.902
328.185
328.466
328.747
329.027
329.306
329.585
329.862
330.139
330.415
330.69
330.965
331.238
331.511
331.784
332.055
332.326
332.596
332.865
333.134
333.402
333.669
333.936
334.202
334.467
334.731
334.995
335.258
335.521
335.783
336.044
336.304
336.564
336.823
337.082
337.339
337.597
337.853
338.109
338.364
338.619
338.873
339.126
339.378
339.63
339.882
340.132
340.382
340.631
340.88
341.128
341.375
341.621
341.867
342.112
342.356
342.599
342.842
343.084
343.325
343.566
343.806
344.045
344.283
344.52
344.757
344.993
345.228
345.462
345.695
345.927
346.159
346.389
346.619
346.848
347.076
347.303
347.529
347.754
347.978
348.201
348.423
348.644
348.864
349.083
349.301
349.518
349.734
349.949
350.162
350.375
350.586
350.797
351.006
351.214
351.42
351.626
351.83
352.034
352.235
352.437
352.635
352.836
353.029
353.23
353.417
353.621
353.797
354.009
354.169
354.398
354.527
354.793
354.864
355.205
283.151
283.142
283.138
283.133
283.144
283.187
283.263
283.375
283.525
283.709
283.924
284.163
284.423
284.701
284.994
285.3
285.617
285.944
286.278
286.619
286.965
287.316
287.672
288.031
288.392
288.756
289.122
289.49
289.858
290.228
290.598
290.968
291.338
291.709
292.079
292.448
292.818
293.186
293.553
293.92
294.286
294.65
295.014
295.376
295.737
296.097
296.455
296.812
297.167
297.522
297.874
298.225
298.575
298.923
299.27
299.615
299.958
300.3
300.64
300.979
301.316
301.651
301.985
302.318
302.649
302.978
303.306
303.633
303.958
304.281
304.604
304.924
305.244
305.562
305.879
306.194
306.508
306.821
307.133
307.443
307.752
308.06
308.367
308.673
308.978
309.281
309.584
309.885
310.185
310.485
310.783
311.08
311.377
311.672
311.966
312.26
312.552
312.844
313.134
313.424
313.713
314.001
314.288
314.574
314.859
315.144
315.427
315.71
315.992
316.274
316.554
316.834
317.113
317.391
317.669
317.945
318.221
318.496
318.771
319.044
319.317
319.589
319.861
320.132
320.402
320.671
320.94
321.208
321.476
321.742
322.009
322.274
322.539
322.803
323.067
323.329
323.592
323.853
324.114
324.374
324.634
324.893
325.152
325.41
325.667
325.924
326.18
326.435
326.69
326.945
327.198
327.452
327.704
327.957
328.208
328.459
328.709
328.959
329.208
329.457
329.705
329.953
330.2
330.446
330.692
330.937
331.182
331.426
331.669
331.913
332.155
332.397
332.638
332.879
333.119
333.359
333.598
333.837
334.074
334.312
334.548
334.784
335.019
335.254
335.488
335.722
335.954
336.187
336.418
336.649
336.879
337.109
337.338
337.566
337.794
338.02
338.246
338.472
338.696
338.92
339.143
339.365
339.586
339.807
340.026
340.245
340.463
340.681
340.897
341.113
341.327
341.541
341.754
341.966
342.177
342.387
342.596
342.804
343.011
343.218
343.423
343.627
343.83
344.032
344.232
344.434
344.63
344.831
345.024
345.225
345.411
345.616
345.792
346.005
346.165
346.396
346.525
346.793
346.864
347.207
283.151
283.148
283.146
283.145
283.142
283.143
283.149
283.165
283.195
283.243
283.312
283.402
283.513
283.644
283.793
283.959
284.14
284.335
284.541
284.757
284.983
285.217
285.458
285.706
285.96
286.218
286.482
286.75
287.021
287.296
287.574
287.855
288.138
288.423
288.71
288.999
289.289
289.58
289.873
290.166
290.46
290.754
291.049
291.344
291.64
291.935
292.231
292.527
292.823
293.118
293.413
293.708
294.003
294.297
294.591
294.884
295.177
295.469
295.761
296.052
296.342
296.632
296.921
297.209
297.497
297.784
298.071
298.356
298.642
298.926
299.21
299.493
299.775
300.057
300.338
300.618
300.898
301.177
301.456
301.733
302.01
302.287
302.563
302.838
303.112
303.386
303.66
303.932
304.205
304.476
304.747
305.017
305.287
305.556
305.825
306.093
306.36
306.627
306.893
307.159
307.424
307.689
307.953
308.216
308.479
308.741
309.003
309.264
309.525
309.785
310.045
310.304
310.562
310.821
311.078
311.335
311.591
311.847
312.103
312.358
312.612
312.866
313.119
313.372
313.624
313.876
314.127
314.378
314.628
314.878
315.127
315.376
315.624
315.872
316.119
316.366
316.613
316.858
317.104
317.349
317.593
317.837
318.08
318.323
318.566
318.808
319.049
319.29
319.531
319.771
320.011
320.25
320.489
320.727
320.965
321.203
321.44
321.676
321.912
322.148
322.383
322.618
322.852
323.086
323.319
323.552
323.784
324.016
324.248
324.479
324.709
324.939
325.169
325.399
325.627
325.856
326.084
326.311
326.538
326.765
326.99
327.216
327.441
327.665
327.889
328.112
328.335
328.557
328.779
329.001
329.221
329.442
329.662
329.881
330.1
330.318
330.535
330.752
330.968
331.184
331.399
331.614
331.827
332.04
332.253
332.464
332.676
332.886
333.096
333.305
333.513
333.721
333.928
334.134
334.339
334.544
334.748
334.951
335.153
335.355
335.555
335.756
335.954
336.153
336.349
336.547
336.74
336.937
337.126
337.325
337.509
337.711
337.885
338.096
338.253
338.483
338.61
338.876
338.947
339.287
283.15
283.149
283.147
283.146
283.146
283.145
283.145
283.145
283.146
283.149
283.157
283.172
283.194
283.226
283.27
283.325
283.394
283.475
283.568
283.673
283.789
283.916
284.052
284.197
284.35
284.51
284.677
284.85
285.029
285.213
285.402
285.596
285.793
285.995
286.2
286.408
286.619
286.833
287.049
287.268
287.489
287.712
287.937
288.163
288.391
288.62
288.851
289.083
289.316
289.549
289.784
290.02
290.256
290.493
290.73
290.969
291.207
291.446
291.685
291.925
292.165
292.405
292.645
292.885
293.126
293.367
293.607
293.848
294.089
294.33
294.571
294.812
295.053
295.294
295.535
295.776
296.017
296.258
296.499
296.739
296.98
297.22
297.46
297.7
297.94
298.18
298.42
298.659
298.898
299.137
299.376
299.615
299.854
300.092
300.33
300.568
300.806
301.043
301.281
301.518
301.754
301.991
302.227
302.463
302.699
302.934
303.169
303.404
303.639
303.873
304.107
304.341
304.575
304.808
305.041
305.274
305.506
305.739
305.97
306.202
306.433
306.664
306.895
307.125
307.355
307.584
307.814
308.043
308.271
308.5
308.728
308.956
309.183
309.41
309.637
309.864
310.09
310.316
310.542
310.767
310.992
311.216
311.44
311.664
311.888
312.111
312.334
312.556
312.778
313
313.222
313.443
313.664
313.885
314.105
314.326
314.545
314.765
314.984
315.202
315.421
315.639
315.856
316.073
316.29
316.507
316.723
316.939
317.154
317.37
317.585
317.799
318.014
318.228
318.442
318.655
318.868
319.081
319.293
319.505
319.716
319.927
320.138
320.348
320.558
320.768
320.977
321.186
321.394
321.602
321.81
322.017
322.224
322.431
322.637
322.842
323.048
323.253
323.457
323.661
323.864
324.067
324.27
324.472
324.673
324.874
325.074
325.274
325.473
325.672
325.87
326.068
326.265
326.462
326.658
326.854
327.049
327.243
327.437
327.63
327.823
328.015
328.205
328.396
328.585
328.776
328.961
329.152
329.335
329.526
329.704
329.899
330.068
330.272
330.425
330.648
330.771
331.031
331.1
331.431
283.15
283.148
283.147
283.146
283.146
283.146
283.145
283.145
283.144
283.144
283.143
283.144
283.144
283.147
283.151
283.158
283.169
283.184
283.205
283.232
283.266
283.307
283.356
283.413
283.477
283.549
283.629
283.716
283.81
283.91
284.017
284.129
284.247
284.37
284.497
284.63
284.766
284.906
285.05
285.197
285.347
285.501
285.657
285.816
285.977
286.141
286.307
286.475
286.645
286.817
286.991
287.166
287.343
287.522
287.702
287.883
288.066
288.25
288.435
288.621
288.808
288.996
289.185
289.375
289.566
289.757
289.949
290.142
290.336
290.53
290.725
290.92
291.117
291.313
291.511
291.708
291.906
292.105
292.304
292.503
292.703
292.903
293.103
293.304
293.504
293.706
293.907
294.108
294.31
294.512
294.714
294.917
295.119
295.322
295.525
295.728
295.931
296.134
296.338
296.541
296.744
296.948
297.151
297.355
297.558
297.762
297.965
298.168
298.372
298.575
298.779
298.982
299.186
299.389
299.593
299.796
299.999
300.203
300.406
300.609
300.812
301.015
301.217
301.42
301.622
301.824
302.027
302.229
302.431
302.633
302.834
303.036
303.238
303.439
303.64
303.842
304.043
304.244
304.444
304.645
304.845
305.045
305.245
305.445
305.644
305.844
306.043
306.242
306.441
306.639
306.838
307.036
307.234
307.432
307.63
307.828
308.026
308.223
308.42
308.617
308.814
309.01
309.206
309.402
309.598
309.793
309.988
310.183
310.378
310.573
310.767
310.961
311.155
311.349
311.543
311.737
311.93
312.123
312.316
312.509
312.701
312.893
313.085
313.277
313.468
313.659
313.849
314.04
314.23
314.42
314.609
314.799
314.988
315.177
315.366
315.555
315.743
315.931
316.119
316.306
316.493
316.68
316.866
317.052
317.238
317.423
317.608
317.792
317.976
318.16
318.343
318.526
318.709
318.891
319.073
319.255
319.436
319.617
319.798
319.978
320.157
320.337
320.515
320.693
320.87
321.048
321.222
321.401
321.572
321.752
321.919
322.103
322.261
322.455
322.598
322.809
322.925
323.172
323.236
323.551
283.15
283.148
283.147
283.146
283.146
283.146
283.145
283.145
283.145
283.144
283.143
283.143
283.142
283.142
283.142
283.142
283.142
283.143
283.144
283.146
283.149
283.154
283.161
283.17
283.182
283.198
283.217
283.24
283.267
283.299
283.336
283.378
283.426
283.478
283.536
283.598
283.665
283.737
283.813
283.894
283.978
284.067
284.158
284.253
284.352
284.453
284.557
284.664
284.774
284.886
285
285.117
285.236
285.357
285.48
285.605
285.731
285.86
285.99
286.122
286.255
286.39
286.526
286.664
286.802
286.942
287.084
287.226
287.37
287.514
287.66
287.807
287.955
288.104
288.253
288.404
288.556
288.708
288.861
289.015
289.169
289.324
289.48
289.636
289.793
289.951
290.109
290.268
290.427
290.586
290.747
290.907
291.068
291.23
291.392
291.555
291.717
291.881
292.044
292.208
292.372
292.537
292.701
292.866
293.031
293.197
293.362
293.528
293.694
293.861
294.027
294.194
294.361
294.528
294.696
294.863
295.031
295.199
295.367
295.535
295.703
295.871
296.039
296.208
296.376
296.544
296.713
296.881
297.05
297.219
297.387
297.556
297.725
297.894
298.063
298.232
298.402
298.571
298.74
298.909
299.078
299.247
299.416
299.585
299.754
299.923
300.091
300.26
300.429
300.597
300.766
300.934
301.103
301.272
301.441
301.609
301.778
301.946
302.115
302.283
302.452
302.62
302.788
302.956
303.124
303.291
303.459
303.626
303.794
303.961
304.128
304.295
304.463
304.63
304.797
304.964
305.131
305.298
305.465
305.632
305.799
305.965
306.131
306.298
306.463
306.629
306.795
306.96
307.125
307.291
307.456
307.621
307.786
307.951
308.116
308.28
308.445
308.61
308.774
308.938
309.103
309.267
309.43
309.594
309.757
309.92
310.082
310.245
310.407
310.569
310.731
310.893
311.054
311.216
311.377
311.538
311.699
311.86
312.02
312.18
312.34
312.5
312.659
312.819
312.976
313.136
313.292
313.452
313.605
313.767
313.917
314.083
314.225
314.399
314.528
314.719
314.824
315.047
315.105
315.391
283.15
283.149
283.147
283.146
283.146
283.146
283.145
283.145
283.145
283.144
283.143
283.143
283.142
283.142
283.142
283.141
283.141
283.141
283.141
283.141
283.141
283.141
283.141
283.141
283.142
283.142
283.143
283.145
283.147
283.151
283.155
283.161
283.168
283.178
283.189
283.203
283.219
283.238
283.26
283.284
283.312
283.343
283.377
283.413
283.453
283.496
283.542
283.591
283.643
283.698
283.755
283.815
283.878
283.943
284.01
284.08
284.152
284.226
284.302
284.38
284.46
284.542
284.625
284.71
284.796
284.884
284.973
285.064
285.156
285.25
285.344
285.44
285.538
285.636
285.736
285.836
285.938
286.041
286.144
286.249
286.355
286.461
286.568
286.676
286.785
286.894
287.005
287.116
287.227
287.339
287.453
287.566
287.681
287.796
287.911
288.028
288.145
288.262
288.38
288.498
288.617
288.737
288.856
288.976
289.097
289.218
289.339
289.461
289.583
289.706
289.829
289.952
290.076
290.2
290.324
290.449
290.574
290.7
290.826
290.952
291.078
291.205
291.331
291.458
291.586
291.713
291.84
291.968
292.096
292.224
292.353
292.481
292.61
292.74
292.869
292.999
293.129
293.259
293.389
293.519
293.65
293.78
293.911
294.041
294.172
294.303
294.434
294.565
294.696
294.827
294.959
295.09
295.222
295.354
295.486
295.618
295.75
295.883
296.015
296.148
296.281
296.413
296.546
296.678
296.811
296.943
297.076
297.209
297.341
297.474
297.607
297.74
297.873
298.006
298.139
298.273
298.406
298.54
298.673
298.807
298.941
299.074
299.208
299.341
299.475
299.608
299.741
299.875
300.008
300.141
300.275
300.408
300.542
300.675
300.809
300.943
301.077
301.21
301.344
301.478
301.612
301.746
301.88
302.014
302.147
302.281
302.414
302.547
302.68
302.814
302.947
303.08
303.213
303.346
303.479
303.612
303.746
303.879
304.012
304.145
304.278
304.411
304.544
304.677
304.809
304.942
305.073
305.207
305.335
305.471
305.597
305.736
305.856
306.003
306.112
306.273
306.361
306.551
306.6
306.843
283.15
283.149
283.147
283.146
283.146
283.146
283.145
283.145
283.145
283.144
283.143
283.143
283.142
283.142
283.142
283.141
283.141
283.141
283.141
283.141
283.141
283.141
283.141
283.14
283.14
283.14
283.139
283.139
283.139
283.139
283.138
283.138
283.139
283.139
283.14
283.141
283.143
283.145
283.147
283.151
283.155
283.16
283.166
283.173
283.181
283.191
283.202
283.215
283.229
283.245
283.263
283.283
283.304
283.328
283.353
283.38
283.409
283.44
283.472
283.506
283.542
283.58
283.619
283.659
283.701
283.745
283.79
283.836
283.884
283.933
283.984
284.036
284.089
284.143
284.198
284.255
284.313
284.371
284.431
284.492
284.554
284.617
284.68
284.745
284.81
284.876
284.943
285.011
285.079
285.149
285.219
285.29
285.362
285.434
285.507
285.581
285.656
285.731
285.807
285.884
285.961
286.038
286.117
286.195
286.275
286.354
286.435
286.516
286.597
286.679
286.761
286.844
286.928
287.012
287.096
287.181
287.267
287.353
287.439
287.526
287.613
287.701
287.788
287.877
287.965
288.054
288.143
288.233
288.323
288.413
288.504
288.595
288.686
288.778
288.871
288.963
289.056
289.15
289.243
289.337
289.431
289.526
289.62
289.715
289.81
289.905
290
290.096
290.192
290.288
290.385
290.481
290.579
290.676
290.774
290.872
290.97
291.068
291.167
291.266
291.365
291.464
291.563
291.663
291.762
291.862
291.962
292.062
292.162
292.262
292.363
292.463
292.564
292.666
292.767
292.869
292.971
293.073
293.176
293.278
293.381
293.483
293.586
293.689
293.792
293.895
293.998
294.101
294.204
294.307
294.411
294.514
294.618
294.722
294.827
294.931
295.036
295.141
295.246
295.351
295.456
295.561
295.667
295.772
295.877
295.982
296.088
296.193
296.298
296.404
296.51
296.615
296.721
296.827
296.933
297.039
297.146
297.252
297.359
297.466
297.572
297.679
297.786
297.893
297.999
298.106
298.212
298.32
298.424
298.534
298.635
298.749
298.845
298.965
299.053
299.185
299.257
299.412
299.452
299.651
283.15
283.148
283.147
283.146
283.146
283.146
283.145
283.145
283.145
283.144
283.143
283.143
283.142
283.142
283.142
283.141
283.141
283.141
283.141
283.141
283.141
283.141
283.141
283.14
283.14
283.14
283.14
283.139
283.139
283.139
283.139
283.139
283.139
283.139
283.139
283.139
283.139
283.14
283.14
283.141
283.141
283.142
283.143
283.144
283.146
283.147
283.15
283.152
283.156
283.159
283.164
283.169
283.176
283.183
283.19
283.199
283.209
283.22
283.232
283.245
283.258
283.273
283.289
283.306
283.324
283.343
283.363
283.384
283.407
283.43
283.454
283.479
283.506
283.533
283.562
283.591
283.622
283.653
283.685
283.718
283.752
283.787
283.823
283.86
283.897
283.935
283.974
284.014
284.054
284.095
284.137
284.18
284.224
284.268
284.313
284.359
284.405
284.453
284.5
284.549
284.598
284.647
284.698
284.748
284.8
284.852
284.904
284.957
285.011
285.065
285.12
285.176
285.232
285.288
285.345
285.403
285.461
285.52
285.579
285.639
285.699
285.759
285.82
285.881
285.943
286.005
286.068
286.131
286.195
286.258
286.323
286.388
286.453
286.519
286.585
286.652
286.719
286.786
286.854
286.922
286.991
287.059
287.128
287.198
287.267
287.337
287.408
287.478
287.549
287.621
287.692
287.764
287.837
287.91
287.983
288.056
288.13
288.204
288.279
288.353
288.428
288.503
288.579
288.654
288.73
288.806
288.882
288.958
289.035
289.112
289.189
289.267
289.345
289.423
289.501
289.58
289.659
289.739
289.818
289.898
289.978
290.058
290.138
290.218
290.299
290.379
290.46
290.541
290.622
290.703
290.785
290.867
290.949
291.031
291.114
291.197
291.28
291.363
291.446
291.53
291.614
291.698
291.782
291.866
291.95
292.034
292.118
292.203
292.287
292.372
292.457
292.542
292.627
292.713
292.798
292.884
292.97
293.056
293.143
293.229
293.316
293.403
293.489
293.576
293.662
293.75
293.835
293.924
294.009
294.099
294.182
294.274
294.354
294.452
294.524
294.633
294.692
294.82
294.853
295.016
283.15
283.148
283.147
283.146
283.146
283.146
283.145
283.145
283.144
283.144
283.143
283.143
283.142
283.142
283.142
283.141
283.141
283.141
283.141
283.141
283.141
283.141
283.141
283.142
283.141
283.141
283.141
283.141
283.141
283.141
283.141
283.141
283.141
283.141
283.141
283.141
283.141
283.142
283.142
283.142
283.142
283.142
283.142
283.143
283.143
283.143
283.144
283.144
283.145
283.146
283.147
283.149
283.151
283.153
283.155
283.158
283.162
283.166
283.17
283.175
283.18
283.186
283.192
283.2
283.207
283.216
283.224
283.234
283.244
283.255
283.267
283.28
283.293
283.307
283.321
283.337
283.353
283.37
283.387
283.405
283.424
283.444
283.464
283.485
283.506
283.529
283.552
283.575
283.599
283.624
283.65
283.676
283.703
283.73
283.759
283.787
283.817
283.847
283.878
283.909
283.941
283.973
284.006
284.039
284.073
284.107
284.142
284.178
284.214
284.251
284.288
284.326
284.364
284.403
284.443
284.483
284.523
284.564
284.605
284.647
284.69
284.732
284.775
284.819
284.863
284.907
284.952
284.998
285.044
285.09
285.137
285.184
285.231
285.28
285.328
285.377
285.426
285.476
285.526
285.577
285.627
285.679
285.73
285.782
285.834
285.887
285.939
285.993
286.046
286.1
286.155
286.209
286.264
286.32
286.376
286.432
286.489
286.545
286.603
286.66
286.718
286.776
286.834
286.892
286.951
287.01
287.069
287.129
287.188
287.249
287.309
287.37
287.431
287.492
287.554
287.616
287.678
287.741
287.804
287.867
287.93
287.993
288.057
288.12
288.184
288.248
288.313
288.377
288.442
288.507
288.572
288.638
288.704
288.77
288.836
288.903
288.97
289.037
289.104
289.172
289.239
289.307
289.375
289.443
289.511
289.579
289.647
289.716
289.785
289.854
289.923
289.992
290.062
290.132
290.202
290.272
290.342
290.413
290.483
290.554
290.625
290.696
290.767
290.839
290.91
290.982
291.052
291.125
291.195
291.27
291.338
291.415
291.48
291.562
291.622
291.712
291.761
291.867
291.894
292.03
283.15
283.148
283.147
283.146
283.146
283.146
283.145
283.145
283.144
283.144
283.143
283.143
283.143
283.142
283.142
283.142
283.142
283.143
283.143
283.143
283.143
283.144
283.144
283.144
283.144
283.144
283.144
283.144
283.143
283.143
283.143
283.143
283.143
283.143
283.144
283.144
283.144
283.144
283.144
283.144
283.144
283.144
283.144
283.144
283.144
283.144
283.144
283.144
283.144
283.145
283.145
283.145
283.146
283.147
283.148
283.149
283.15
283.151
283.153
283.155
283.157
283.159
283.162
283.165
283.168
283.172
283.176
283.181
283.185
283.191
283.197
283.203
283.209
283.217
283.224
283.232
283.241
283.25
283.26
283.27
283.281
283.292
283.303
283.315
283.328
283.341
283.355
283.369
283.384
283.399
283.415
283.431
283.448
283.465
283.483
283.502
283.521
283.54
283.56
283.58
283.601
283.623
283.644
283.667
283.689
283.713
283.737
283.761
283.786
283.811
283.837
283.863
283.89