/*--------------------------------*- C++ -*----------------------------------*\
  =========                 |
  \\      /  F ield         | OpenFOAM: The Open Source CFD Toolbox
   \\    /   O peration     | Website:  https://openfoam.org
    \\  /    A nd           | Version:  7
     \\/     M anipulation  |
\*---------------------------------------------------------------------------*/
FoamFile
{
    version     2.0;
    format      ascii;
    class       volScalarField;
    location    "1.055";
    object      k;
}
// * * * * * * * * * * * * * * * * * * * * * * * * * * * * * * * * * * * * * //

dimensions      [0 2 -2 0 0 0 0];

internalField   nonuniform List<scalar> 
7920
(
52.0796
56.571
56.6116
56.6575
56.574
56.5709
56.5018
56.5037
56.4603
56.4717
56.4456
56.4602
56.4425
56.4574
56.4481
56.4585
56.4606
56.4441
56.5285
56.6621
13.855
14.0228
13.4464
12.8924
12.6268
12.5207
12.4289
12.3989
12.3509
12.3398
12.3105
12.3074
12.293
12.2929
12.2836
12.2831
12.278
12.2724
12.4399
12.4365
8.09401
9.2318
9.34949
9.33312
9.29035
9.27697
9.24698
9.23801
9.21541
9.20942
9.1936
9.19082
9.18072
9.18009
9.17419
9.17489
9.17123
9.17153
9.17594
9.20256
7.49078
8.76259
9.01431
9.10394
9.12526
9.15523
9.15671
9.16747
9.16345
9.16858
9.1644
9.16919
9.1668
9.17191
9.1713
9.17748
9.17866
9.1858
9.1892
9.21619
7.42576
8.7089
8.97338
9.07909
9.11366
9.15755
9.1694
9.19508
9.19951
9.21563
9.21882
9.23304
9.23669
9.24997
9.25374
9.26675
9.27182
9.28522
9.29252
9.32297
7.43268
8.70544
8.96827
9.07549
9.11376
9.16255
9.17901
9.21133
9.22029
9.24282
9.25015
9.27038
9.27776
9.29648
9.30327
9.32064
9.32837
9.34536
9.35673
9.38801
7.43268
8.70544
8.96827
9.07549
9.11376
9.16256
9.17901
9.21134
9.22028
9.24283
9.25015
9.27039
9.27775
9.29649
9.30327
9.32066
9.32838
9.34539
9.35681
9.38807
7.42575
8.7089
8.97338
9.07909
9.11365
9.15756
9.1694
9.19509
9.19949
9.21565
9.2188
9.23308
9.23665
9.25004
9.25371
9.26684
9.27181
9.28535
9.29261
9.32322
7.49078
8.76259
9.01431
9.10395
9.12526
9.15524
9.1567
9.16748
9.16342
9.16863
9.16435
9.16928
9.1667
9.17211
9.17112
9.17787
9.1784
9.18644
9.18886
9.21672
8.09401
9.2318
9.34948
9.33312
9.29034
9.27698
9.24697
9.23802
9.21537
9.20946
9.19353
9.19092
9.18056
9.18036
9.17382
9.17555
9.1703
9.17308
9.17431
9.20524
13.855
14.0228
13.4464
12.8924
12.6268
12.5207
12.4289
12.399
12.3508
12.3399
12.3105
12.3075
12.2928
12.2931
12.2831
12.2839
12.2766
12.2749
12.4334
12.4437
52.0796
56.571
56.6116
56.6575
56.574
56.5709
56.5017
56.5038
56.4602
56.4718
56.4454
56.4606
56.4419
56.4583
56.4466
56.461
56.4561
56.4517
56.5122
56.696
7.68228
9.68438
9.76877
9.63926
9.60166
9.52723
9.52201
9.47895
9.47934
9.4506
9.45285
9.43231
9.43477
9.41917
9.4214
9.40812
9.41152
9.39515
9.39773
9.44347
6.02662
8.26186
8.60432
8.64833
8.6505
8.64765
8.64185
8.63732
8.63326
8.63031
8.62836
8.62681
8.62654
8.62583
8.62641
8.62554
8.62567
8.62411
8.62793
8.63583
5.70839
7.91585
8.26843
8.33895
8.34863
8.36231
8.36347
8.3697
8.37021
8.37551
8.3776
8.38379
8.38746
8.394
8.39941
8.40537
8.41199
8.41526
8.41941
8.45305
5.6999
7.90639
8.25492
8.32168
8.32456
8.33059
8.32662
8.3275
8.32364
8.3246
8.32368
8.32668
8.32882
8.33392
8.33852
8.34475
8.35237
8.35796
8.36545
8.39035
5.68811
7.89084
8.23899
8.30738
8.30945
8.31445
8.30866
8.30791
8.3009
8.29965
8.29544
8.29656
8.2959
8.29863
8.30022
8.30545
8.30958
8.31766
8.3234
8.35037
5.69447
7.89895
8.24614
8.314
8.31589
8.32081
8.31493
8.3141
8.30661
8.30491
8.2997
8.30022
8.29854
8.30051
8.30075
8.30456
8.30748
8.31468
8.31981
8.3453
5.69447
7.89895
8.24613
8.314
8.31588
8.32082
8.31492
8.3141
8.30661
8.30492
8.29969
8.30023
8.29853
8.30053
8.30075
8.30457
8.30748
8.31466
8.31984
8.34523
5.6881
7.89084
8.23899
8.30739
8.30945
8.31446
8.30865
8.30792
8.30088
8.29967
8.29542
8.2966
8.29586
8.2987
8.30017
8.30553
8.30944
8.31776
8.32334
8.35036
5.6999
7.90639
8.25492
8.32168
8.32455
8.3306
8.3266
8.32752
8.32362
8.32464
8.32363
8.32678
8.32873
8.3341
8.33811
8.34525
8.35168
8.35868
8.36499
8.39056
5.70839
7.91586
8.26843
8.33895
8.34863
8.36232
8.36346
8.36972
8.37019
8.37556
8.37754
8.38392
8.38721
8.39439
8.39875
8.40634
8.41051
8.41726
8.41772
8.45458
6.02662
8.26186
8.60432
8.64833
8.6505
8.64765
8.64185
8.63734
8.63323
8.63035
8.62829
8.62691
8.62641
8.62603
8.62606
8.62609
8.62466
8.62582
8.62499
8.64119
7.68228
9.68438
9.76877
9.63926
9.60166
9.52724
9.52201
9.47896
9.47933
9.45061
9.45283
9.43236
9.43472
9.41929
9.42126
9.40847
9.41111
9.39624
9.39617
9.44773
0.477384
1.03561
1.1328
1.10268
1.0284
0.961474
0.909606
0.872661
0.845503
0.824423
0.809125
0.795209
0.785497
0.775111
0.768322
0.760336
0.754586
0.750148
0.741063
0.749306
0.0861987
0.383083
0.527389
0.589392
0.61127
0.62498
0.631749
0.639279
0.643123
0.647324
0.648904
0.650801
0.651143
0.651784
0.651629
0.651649
0.651318
0.650878
0.650243
0.653028
0.0644236
0.300424
0.416898
0.475109
0.49337
0.506722
0.509722
0.515903
0.518087
0.522931
0.525403
0.529892
0.53268
0.536529
0.539487
0.542655
0.545623
0.548131
0.550051
0.554628
0.0682823
0.304079
0.418095
0.473782
0.491628
0.502672
0.504102
0.506888
0.506894
0.507736
0.507998
0.50898
0.509649
0.510857
0.512146
0.513223
0.515032
0.51603
0.51751
0.521044
0.0664456
0.300071
0.412947
0.468606
0.486014
0.497013
0.498205
0.500633
0.500255
0.500639
0.500286
0.500504
0.500404
0.500595
0.50083
0.501185
0.50178
0.502156
0.502649
0.505049
0.0674785
0.30231
0.41559
0.471022
0.488579
0.499465
0.500761
0.503163
0.502817
0.503135
0.502769
0.502889
0.502717
0.502787
0.502841
0.503006
0.503372
0.503542
0.503917
0.506062
0.0674785
0.30231
0.41559
0.471022
0.488579
0.499465
0.500761
0.503163
0.502817
0.503136
0.502769
0.50289
0.502717
0.502788
0.50284
0.503006
0.503371
0.503541
0.503916
0.506061
0.0664455
0.300071
0.412947
0.468606
0.486013
0.497013
0.498205
0.500633
0.500255
0.500639
0.500286
0.500505
0.500404
0.500598
0.500825
0.501186
0.501776
0.50215
0.502646
0.505038
0.0682821
0.304079
0.418095
0.473783
0.491628
0.502672
0.504101
0.506889
0.506894
0.507737
0.507998
0.508987
0.509634
0.510873
0.512119
0.513243
0.515
0.516028
0.517492
0.520997
0.0644234
0.300424
0.416897
0.47511
0.493369
0.506722
0.509722
0.515904
0.518087
0.522936
0.52539
0.529907
0.532651
0.536558
0.539434
0.542694
0.545543
0.548137
0.550007
0.554525
0.0861986
0.383083
0.527389
0.589392
0.611269
0.624981
0.631747
0.639283
0.643117
0.647332
0.648889
0.650817
0.651119
0.651796
0.651591
0.651668
0.651202
0.650935
0.650109
0.653017
0.477384
1.03561
1.1328
1.10268
1.0284
0.961475
0.909605
0.872664
0.845502
0.824432
0.809122
0.795235
0.785492
0.775175
0.768317
0.760497
0.754584
0.750472
0.741165
0.7502
0.477384
1.03561
1.1328
1.10268
1.0284
0.961474
0.909606
0.872661
0.845503
0.824423
0.809124
0.795209
0.785497
0.775111
0.768322
0.760336
0.754586
0.750148
0.741063
0.749306
0.0861988
0.383083
0.527389
0.589392
0.61127
0.62498
0.631749
0.639279
0.643123
0.647324
0.648904
0.650801
0.651143
0.651784
0.651629
0.651649
0.651318
0.650878
0.650243
0.653028
0.0644236
0.300424
0.416898
0.475109
0.49337
0.506722
0.509722
0.515903
0.518088
0.522931
0.525403
0.529892
0.53268
0.536529
0.539487
0.542655
0.545623
0.548131
0.550051
0.554628
0.0682823
0.304079
0.418095
0.473783
0.491628
0.502672
0.504102
0.506889
0.506894
0.507736
0.507998
0.50898
0.509649
0.510857
0.512146
0.513223
0.515032
0.51603
0.51751
0.521044
0.0664456
0.300071
0.412947
0.468606
0.486014
0.497013
0.498205
0.500633
0.500255
0.500639
0.500287
0.500504
0.500404
0.500595
0.500831
0.501185
0.50178
0.502156
0.502649
0.505049
0.0674786
0.30231
0.41559
0.471022
0.488579
0.499465
0.500761
0.503163
0.502817
0.503135
0.502769
0.502889
0.502717
0.502787
0.502841
0.503006
0.503372
0.503542
0.503918
0.506062
0.0674785
0.30231
0.41559
0.471022
0.488579
0.499465
0.500761
0.503163
0.502817
0.503136
0.502769
0.50289
0.502717
0.502788
0.50284
0.503006
0.503371
0.503542
0.503916
0.506061
0.0664455
0.300071
0.412947
0.468606
0.486013
0.497013
0.498205
0.500633
0.500255
0.500639
0.500286
0.500505
0.500404
0.500598
0.500825
0.501186
0.501777
0.50215
0.502646
0.505039
0.0682821
0.304079
0.418095
0.473783
0.491628
0.502673
0.504101
0.506889
0.506894
0.507737
0.507998
0.508988
0.509634
0.510873
0.512119
0.513244
0.515
0.516028
0.517492
0.520998
0.0644234
0.300425
0.416897
0.47511
0.49337
0.506722
0.509722
0.515904
0.518087
0.522936
0.52539
0.529908
0.532651
0.536558
0.539434
0.542694
0.545544
0.548137
0.550007
0.554525
0.0861986
0.383083
0.527389
0.589393
0.611269
0.624981
0.631747
0.639283
0.643117
0.647332
0.648889
0.650817
0.651119
0.651796
0.651591
0.651668
0.651202
0.650935
0.650109
0.653017
0.477384
1.03561
1.1328
1.10268
1.0284
0.961475
0.909605
0.872664
0.845502
0.824433
0.809122
0.795235
0.785492
0.775176
0.768317
0.760497
0.754584
0.750472
0.741165
0.7502
7.68228
9.68438
9.76877
9.63926
9.60166
9.52724
9.52201
9.47896
9.47934
9.4506
9.45285
9.43231
9.43477
9.41917
9.4214
9.40812
9.41152
9.39515
9.39773
9.44347
6.02662
8.26186
8.60432
8.64833
8.65051
8.64765
8.64185
8.63732
8.63326
8.63031
8.62836
8.62681
8.62654
8.62583
8.6264
8.62554
8.62567
8.62411
8.62793
8.63583
5.70839
7.91585
8.26843
8.33895
8.34863
8.36232
8.36347
8.3697
8.37021
8.37551
8.3776
8.38379
8.38746
8.394
8.39941
8.40537
8.41199
8.41525
8.41941
8.45305
5.6999
7.90639
8.25492
8.32168
8.32456
8.33059
8.32662
8.3275
8.32364
8.3246
8.32368
8.32668
8.32882
8.33392
8.33852
8.34475
8.35237
8.35795
8.36545
8.39035
5.68811
7.89084
8.23899
8.30738
8.30945
8.31445
8.30866
8.30791
8.30089
8.29965
8.29544
8.29656
8.2959
8.29863
8.30022
8.30545
8.30958
8.31766
8.32339
8.35037
5.69447
7.89895
8.24614
8.314
8.31589
8.32081
8.31493
8.3141
8.30661
8.30491
8.2997
8.30022
8.29854
8.30051
8.30075
8.30456
8.30748
8.31468
8.31981
8.3453
5.69447
7.89895
8.24613
8.314
8.31588
8.32082
8.31492
8.3141
8.30661
8.30492
8.29969
8.30023
8.29853
8.30052
8.30075
8.30457
8.30748
8.31466
8.31984
8.34523
5.6881
7.89084
8.23899
8.30739
8.30945
8.31446
8.30865
8.30792
8.30088
8.29967
8.29542
8.2966
8.29586
8.2987
8.30017
8.30553
8.30944
8.31776
8.32334
8.35036
5.6999
7.90639
8.25492
8.32168
8.32455
8.3306
8.3266
8.32752
8.32362
8.32464
8.32363
8.32678
8.32873
8.3341
8.33811
8.34525
8.35168
8.35869
8.36499
8.39056
5.70839
7.91586
8.26843
8.33895
8.34863
8.36232
8.36346
8.36972
8.37019
8.37556
8.37754
8.38392
8.38721
8.39439
8.39876
8.40634
8.41051
8.41726
8.41773
8.45459
6.02662
8.26186
8.60432
8.64833
8.6505
8.64765
8.64185
8.63734
8.63323
8.63035
8.6283
8.62691
8.62641
8.62603
8.62606
8.6261
8.62467
8.62582
8.625
8.64119
7.68228
9.68438
9.76877
9.63926
9.60166
9.52724
9.52201
9.47896
9.47933
9.45061
9.45284
9.43236
9.43472
9.4193
9.42126
9.40847
9.41112
9.39624
9.39617
9.44773
52.0796
56.571
56.6116
56.6575
56.574
56.5709
56.5018
56.5038
56.4603
56.4717
56.4456
56.4602
56.4425
56.4574
56.4481
56.4585
56.4606
56.4441
56.5285
56.6621
13.855
14.0228
13.4464
12.8924
12.6268
12.5207
12.4289
12.3989
12.3509
12.3398
12.3105
12.3074
12.293
12.2928
12.2836
12.2831
12.278
12.2724
12.4399
12.4365
8.09401
9.2318
9.34948
9.33311
9.29035
9.27697
9.24698
9.23801
9.21541
9.20942
9.1936
9.19082
9.18072
9.18009
9.17418
9.17489
9.17123
9.17152
9.17594
9.20255
7.49078
8.76259
9.01431
9.10394
9.12526
9.15523
9.15671
9.16747
9.16345
9.16858
9.1644
9.16919
9.1668
9.17191
9.1713
9.17748
9.17866
9.1858
9.18919
9.21618
7.42576
8.7089
8.97338
9.07909
9.11366
9.15755
9.1694
9.19508
9.19951
9.21563
9.21882
9.23304
9.23669
9.24997
9.25374
9.26675
9.27182
9.28522
9.29252
9.32297
7.43268
8.70544
8.96827
9.07549
9.11376
9.16255
9.17901
9.21133
9.22029
9.24282
9.25015
9.27038
9.27776
9.29648
9.30327
9.32064
9.32837
9.34536
9.35673
9.38801
7.43268
8.70544
8.96827
9.07549
9.11376
9.16256
9.17901
9.21134
9.22028
9.24283
9.25015
9.27039
9.27775
9.29649
9.30327
9.32066
9.32838
9.34539
9.35681
9.38807
7.42575
8.7089
8.97338
9.07909
9.11365
9.15756
9.1694
9.19509
9.19949
9.21565
9.2188
9.23308
9.23665
9.25004
9.25371
9.26684
9.27181
9.28535
9.29262
9.32322
7.49078
8.76259
9.01431
9.10395
9.12526
9.15524
9.1567
9.16748
9.16342
9.16863
9.16434
9.16928
9.1667
9.17211
9.17112
9.17787
9.1784
9.18644
9.18886
9.21672
8.09401
9.23181
9.34948
9.33312
9.29034
9.27698
9.24697
9.23802
9.21537
9.20946
9.19353
9.19092
9.18057
9.18036
9.17383
9.17556
9.1703
9.17309
9.17431
9.20524
13.855
14.0228
13.4464
12.8924
12.6268
12.5207
12.4289
12.399
12.3508
12.3399
12.3105
12.3075
12.2928
12.2931
12.2831
12.2839
12.2766
12.2749
12.4334
12.4437
52.0796
56.571
56.6116
56.6575
56.574
56.5709
56.5017
56.5038
56.4602
56.4718
56.4454
56.4606
56.4419
56.4583
56.4466
56.461
56.4562
56.4517
56.5122
56.696
144.182
146.128
147.123
148
148.694
149.308
149.766
150.184
150.528
150.865
151.138
151.378
151.543
151.671
151.742
151.796
151.817
151.835
151.836
151.842
151.837
151.838
151.833
151.833
151.828
151.828
151.824
151.824
151.82
151.82
151.817
151.817
151.814
151.815
151.812
151.813
151.811
151.812
151.81
151.811
151.81
151.811
151.811
151.812
151.812
151.813
151.813
151.815
151.815
151.817
151.817
151.819
151.82
151.822
151.823
151.825
151.826
151.828
151.829
151.831
151.832
151.834
151.835
151.837
151.839
151.841
151.842
151.844
151.846
151.848
151.849
151.851
151.853
151.855
151.856
151.859
151.86
151.862
151.864
151.865
151.868
151.868
151.872
151.87
151.876
151.871
151.877
151.876
151.845
151.839
47.2946
48.9639
49.2654
49.5575
49.759
49.9688
50.0984
50.2413
50.3359
50.4513
50.526
50.6098
50.6514
50.6974
50.7093
50.7293
50.7255
50.733
50.7236
50.7265
50.716
50.7174
50.7074
50.7085
50.6993
50.7003
50.692
50.693
50.6856
50.6866
50.6798
50.6809
50.6749
50.676
50.6706
50.6718
50.667
50.6683
50.6639
50.6653
50.6614
50.6628
50.6594
50.6608
50.6578
50.6593
50.6565
50.658
50.6556
50.6571
50.655
50.6565
50.6546
50.6561
50.6544
50.656
50.6545
50.656
50.6547
50.6562
50.6551
50.6566
50.6556
50.6571
50.6562
50.6577
50.657
50.6585
50.6579
50.6594
50.659
50.6604
50.6601
50.6616
50.6613
50.6628
50.6626
50.6641
50.664
50.6653
50.6656
50.6664
50.6672
50.6673
50.6689
50.6681
50.6694
50.6704
50.6541
50.6488
30.4989
32.4405
32.6034
32.78
32.8795
33.0261
33.0902
33.1862
33.2235
33.2999
33.3326
33.3954
33.4138
33.4532
33.4534
33.4721
33.4615
33.4699
33.455
33.4593
33.4439
33.4468
33.4324
33.4348
33.4216
33.4239
33.412
33.4142
33.4034
33.4057
33.3959
33.3982
33.3894
33.3917
33.3837
33.3861
33.3788
33.3813
33.3747
33.3772
33.3713
33.3737
33.3684
33.3709
33.3661
33.3686
33.3643
33.3667
33.3628
33.3652
33.3617
33.3641
33.3609
33.3633
33.3605
33.3628
33.3602
33.3625
33.3602
33.3625
33.3605
33.3627
33.3609
33.3631
33.3615
33.3637
33.3624
33.3645
33.3633
33.3655
33.3645
33.3667
33.3658
33.368
33.3673
33.3695
33.369
33.371
33.3707
33.3727
33.3726
33.3744
33.3746
33.376
33.3767
33.3777
33.3781
33.38
33.3759
33.36
28.2676
30.6195
30.7608
30.8975
30.9643
31.1044
31.1547
31.2424
31.2595
31.3232
31.3441
31.4067
31.4234
31.4691
31.4696
31.4934
31.4819
31.4931
31.4763
31.4822
31.4644
31.4684
31.4516
31.4552
31.4398
31.4433
31.4294
31.4329
31.4204
31.4239
31.4126
31.4162
31.4061
31.4097
31.4006
31.4044
31.3962
31.4
31.3927
31.3965
31.39
31.3938
31.388
31.3918
31.3866
31.3904
31.3858
31.3895
31.3854
31.3891
31.3855
31.3891
31.3859
31.3895
31.3866
31.3902
31.3876
31.3911
31.3889
31.3923
31.3904
31.3937
31.3921
31.3954
31.394
31.3973
31.3961
31.3993
31.3984
31.4016
31.4008
31.404
31.4034
31.4065
31.4062
31.4093
31.4091
31.4121
31.4121
31.415
31.4152
31.418
31.4185
31.421
31.4217
31.4242
31.4247
31.4275
31.4282
31.4079
28.1
30.705
30.8421
30.9517
30.9929
31.1257
31.1684
31.251
31.2531
31.305
31.3164
31.3772
31.3935
31.4443
31.4463
31.4747
31.4635
31.4772
31.4595
31.4668
31.4477
31.4527
31.4345
31.439
31.4224
31.4268
31.4119
31.4163
31.4029
31.4074
31.3955
31.4001
31.3895
31.3942
31.3847
31.3895
31.3811
31.386
31.3785
31.3835
31.3769
31.3818
31.376
31.381
31.3759
31.3808
31.3764
31.3812
31.3773
31.3822
31.3788
31.3835
31.3806
31.3853
31.3827
31.3873
31.3851
31.3897
31.3878
31.3922
31.3907
31.3951
31.3938
31.3981
31.3971
31.4013
31.4006
31.4047
31.4042
31.4083
31.408
31.412
31.4119
31.4159
31.4159
31.4199
31.4201
31.424
31.4244
31.4281
31.4287
31.4323
31.4331
31.4366
31.4375
31.4409
31.4417
31.4451
31.4473
31.4263
28.1821
30.9458
31.0793
31.1651
31.1842
31.3028
31.337
31.4096
31.3988
31.4388
31.4405
31.4958
31.5101
31.5619
31.5645
31.5949
31.584
31.599
31.581
31.589
31.5693
31.5748
31.5561
31.561
31.5439
31.5487
31.5334
31.5383
31.5247
31.5297
31.5176
31.5227
31.512
31.5173
31.5077
31.5132
31.5048
31.5103
31.5029
31.5085
31.502
31.5076
31.502
31.5076
31.5027
31.5083
31.504
31.5096
31.5059
31.5114
31.5083
31.5137
31.511
31.5164
31.5141
31.5193
31.5175
31.5226
31.5211
31.5261
31.5249
31.5299
31.5289
31.5338
31.5331
31.5379
31.5375
31.5422
31.542
31.5466
31.5466
31.5512
31.5514
31.5559
31.5563
31.5608
31.5613
31.5657
31.5664
31.5707
31.5715
31.5757
31.5767
31.5808
31.5819
31.5859
31.587
31.5905
31.594
31.5713
28.184
30.9377
31.052
31.1162
31.1174
31.2181
31.24
31.2981
31.2767
31.3067
31.3003
31.3487
31.3594
31.408
31.4092
31.4385
31.4272
31.4419
31.4239
31.4319
31.4123
31.4178
31.3991
31.404
31.387
31.3918
31.3766
31.3816
31.368
31.3731
31.361
31.3662
31.3555
31.3608
31.3513
31.3568
31.3485
31.354
31.3467
31.3523
31.3459
31.3515
31.3459
31.3516
31.3467
31.3524
31.3482
31.3538
31.3501
31.3557
31.3526
31.358
31.3554
31.3608
31.3585
31.3638
31.362
31.3672
31.3656
31.3707
31.3695
31.3746
31.3736
31.3786
31.3779
31.3827
31.3823
31.3871
31.3869
31.3915
31.3916
31.3962
31.3964
31.401
31.4014
31.4059
31.4064
31.4109
31.4116
31.4159
31.4168
31.421
31.422
31.4261
31.4272
31.4313
31.4324
31.4359
31.4397
31.4175
28.1046
30.6711
30.7438
30.7868
30.7745
30.8554
30.8617
30.903
30.8744
30.897
30.8856
30.927
30.9327
30.9746
30.9729
30.9982
30.986
30.999
30.9812
30.9884
30.9694
30.9745
30.9565
30.961
30.9447
30.9491
30.9344
30.9389
30.9258
30.9304
30.9186
30.9234
30.9129
30.9177
30.9084
30.9133
30.905
30.91
30.9027
30.9077
30.9013
30.9064
30.9007
30.9058
30.9008
30.9058
30.9015
30.9065
30.9027
30.9076
30.9043
30.9091
30.9063
30.9111
30.9086
30.9133
30.9112
30.9158
30.9141
30.9186
30.9172
30.9216
30.9204
30.9248
30.9239
30.9282
30.9275
30.9317
30.9313
30.9355
30.9352
30.9393
30.9392
30.9433
30.9434
30.9474
30.9477
30.9517
30.9521
30.956
30.9566
30.9604
30.961
30.9648
30.9655
30.9692
30.97
30.9733
30.976
30.9562
28.2559
30.5088
30.5322
30.5573
30.5376
30.5972
30.5888
30.6142
30.5825
30.5995
30.5863
30.6199
30.6205
30.6529
30.6477
30.6671
30.6539
30.6641
30.6469
30.6526
30.635
30.6392
30.6226
30.6263
30.6112
30.6148
30.6011
30.6047
30.5925
30.5961
30.5851
30.5888
30.5789
30.5827
30.5738
30.5776
30.5697
30.5735
30.5664
30.5703
30.564
30.5679
30.5623
30.5662
30.5611
30.565
30.5605
30.5644
30.5604
30.5642
30.5607
30.5644
30.5613
30.5649
30.5622
30.5658
30.5634
30.5669
30.5648
30.5683
30.5664
30.5699
30.5683
30.5717
30.5703
30.5737
30.5725
30.5758
30.5749
30.5782
30.5775
30.5807
30.5802
30.5834
30.583
30.5862
30.586
30.5891
30.5891
30.5921
30.5923
30.5953
30.5955
30.5985
30.5988
30.6017
30.6021
30.6047
30.6061
30.5875
30.4109
32.1452
32.1223
32.1373
32.1145
32.1549
32.1359
32.1505
32.1205
32.134
32.1208
32.1457
32.1415
32.1635
32.1553
32.1683
32.155
32.1617
32.1464
32.1502
32.135
32.1377
32.1235
32.1259
32.113
32.1153
32.1035
32.1058
32.0952
32.0975
32.0878
32.0902
32.0814
32.0838
32.0759
32.0783
32.0712
32.0736
32.0671
32.0696
32.0638
32.0662
32.061
32.0634
32.0586
32.0611
32.0568
32.0592
32.0553
32.0577
32.0542
32.0565
32.0534
32.0557
32.0528
32.0551
32.0525
32.0547
32.0524
32.0546
32.0526
32.0547
32.0529
32.055
32.0534
32.0555
32.0541
32.0561
32.0549
32.057
32.0559
32.058
32.0571
32.0591
32.0584
32.0604
32.0598
32.0618
32.0614
32.0634
32.063
32.065
32.0647
32.0667
32.0664
32.0683
32.068
32.0699
32.0672
32.0527
46.9331
48.1561
48.1205
48.1327
48.116
48.1453
48.1281
48.1367
48.1142
48.1248
48.1166
48.1353
48.133
48.1484
48.1425
48.151
48.1414
48.1453
48.1343
48.136
48.1252
48.1262
48.1161
48.1168
48.1076
48.1083
48.0999
48.1006
48.093
48.0937
48.0868
48.0876
48.0814
48.0822
48.0766
48.0775
48.0724
48.0734
48.0688
48.0698
48.0657
48.0668
48.063
48.0641
48.0607
48.0619
48.0588
48.06
48.0572
48.0583
48.0558
48.057
48.0547
48.0558
48.0538
48.0549
48.053
48.0541
48.0524
48.0535
48.052
48.0531
48.0517
48.0528
48.0515
48.0526
48.0515
48.0525
48.0515
48.0526
48.0517
48.0528
48.052
48.053
48.0523
48.0534
48.0528
48.0538
48.0533
48.0543
48.0538
48.0548
48.0544
48.0553
48.0548
48.0557
48.0549
48.0563
48.0414
48.0362
142.688
143.246
143.222
143.244
143.255
143.307
143.309
143.32
143.306
143.321
143.33
143.362
143.38
143.407
143.416
143.43
143.429
143.434
143.429
143.431
143.425
143.425
143.418
143.418
143.412
143.411
143.406
143.405
143.4
143.399
143.395
143.394
143.39
143.39
143.386
143.386
143.383
143.383
143.38
143.38
143.377
143.378
143.376
143.376
143.374
143.374
143.373
143.373
143.372
143.372
143.371
143.372
143.371
143.372
143.371
143.371
143.371
143.371
143.371
143.371
143.371
143.372
143.371
143.372
143.372
143.372
143.372
143.373
143.372
143.373
143.373
143.374
143.373
143.374
143.374
143.374
143.374
143.375
143.375
143.375
143.375
143.376
143.375
143.376
143.375
143.376
143.375
143.376
143.348
143.341
30.1809
30.8869
31.1004
31.2689
31.4098
31.5254
31.6148
31.6952
31.7618
31.8276
31.8772
31.9223
31.9482
31.9706
31.9775
31.9855
31.9828
31.9845
31.9784
31.978
31.9712
31.9704
31.9639
31.9631
31.957
31.9564
31.9508
31.9504
31.9453
31.945
31.9403
31.9402
31.936
31.936
31.9323
31.9324
31.929
31.9293
31.9263
31.9266
31.924
31.9244
31.9221
31.9226
31.9205
31.9211
31.9192
31.9199
31.9182
31.9189
31.9175
31.9182
31.9169
31.9176
31.9165
31.9173
31.9163
31.917
31.9162
31.917
31.9162
31.917
31.9163
31.9171
31.9165
31.9173
31.9169
31.9177
31.9173
31.9181
31.9178
31.9186
31.9184
31.9192
31.9191
31.92
31.9199
31.9208
31.9209
31.9217
31.922
31.9226
31.9235
31.9236
31.9253
31.9251
31.927
31.9282
31.9255
31.9275
28.0911
29.349
29.5574
29.7253
29.8628
29.9834
30.0728
30.1547
30.2203
30.2873
30.3393
30.3884
30.419
30.4461
30.4577
30.4697
30.471
30.4758
30.4732
30.4753
30.4717
30.473
30.4693
30.4705
30.4671
30.4682
30.465
30.4661
30.4632
30.4643
30.4616
30.4627
30.4603
30.4613
30.4591
30.4602
30.4582
30.4593
30.4575
30.4585
30.4569
30.458
30.4565
30.4575
30.4563
30.4573
30.4561
30.4571
30.4561
30.4571
30.4562
30.4572
30.4564
30.4574
30.4567
30.4576
30.457
30.458
30.4575
30.4584
30.458
30.4589
30.4586
30.4595
30.4592
30.4602
30.46
30.4609
30.4608
30.4617
30.4616
30.4626
30.4625
30.4635
30.4635
30.4645
30.4646
30.4656
30.4658
30.4667
30.4671
30.4678
30.4685
30.4689
30.4701
30.4702
30.4712
30.4724
30.4719
30.4755
25.9187
27.6899
27.9029
28.0498
28.1816
28.3016
28.3928
28.4688
28.5301
28.5912
28.6451
28.6964
28.7349
28.7669
28.7862
28.8015
28.8085
28.8151
28.8165
28.8196
28.8193
28.8212
28.8205
28.822
28.8213
28.8228
28.8222
28.8237
28.8232
28.8246
28.8242
28.8256
28.8253
28.8267
28.8264
28.8278
28.8276
28.8289
28.8288
28.8302
28.8301
28.8314
28.8315
28.8327
28.8328
28.8341
28.8342
28.8355
28.8357
28.8369
28.8371
28.8384
28.8386
28.8398
28.8401
28.8413
28.8416
28.8428
28.8431
28.8443
28.8447
28.8458
28.8462
28.8473
28.8477
28.8488
28.8493
28.8504
28.8508
28.8519
28.8524
28.8535
28.854
28.855
28.8555
28.8566
28.8571
28.8582
28.8587
28.8597
28.8604
28.8612
28.8621
28.8625
28.8637
28.864
28.8647
28.8658
28.8647
28.8495
25.1977
27.2263
27.4193
27.5313
27.6471
27.7648
27.8559
27.9264
27.9795
28.0327
28.0846
28.1377
28.1824
28.2202
28.246
28.2654
28.2764
28.2846
28.2883
28.2918
28.2928
28.2948
28.295
28.2965
28.2967
28.2981
28.2983
28.2996
28.2999
28.3012
28.3015
28.3029
28.3032
28.3045
28.3049
28.3062
28.3067
28.308
28.3085
28.3098
28.3103
28.3116
28.3121
28.3134
28.314
28.3152
28.3159
28.3171
28.3177
28.319
28.3196
28.3209
28.3215
28.3227
28.3234
28.3246
28.3253
28.3265
28.3272
28.3283
28.329
28.3302
28.3309
28.332
28.3327
28.3338
28.3345
28.3356
28.3363
28.3374
28.3381
28.3391
28.3398
28.3409
28.3416
28.3426
28.3433
28.3443
28.345
28.3459
28.3467
28.3474
28.3484
28.3489
28.35
28.3505
28.351
28.3522
28.3519
28.3424
24.7562
26.9542
27.1201
27.1924
27.2827
27.3906
27.4762
27.5387
27.5802
27.6224
27.6673
27.7184
27.7649
27.8059
27.8356
27.8576
27.8709
27.8802
27.8847
27.8883
27.8894
27.8911
27.8912
27.8923
27.8923
27.8933
27.8933
27.8943
27.8944
27.8954
27.8955
27.8965
27.8967
27.8977
27.8979
27.8989
27.8992
27.9003
27.9006
27.9016
27.902
27.9031
27.9035
27.9045
27.905
27.9061
27.9065
27.9076
27.9081
27.9092
27.9097
27.9107
27.9113
27.9123
27.9129
27.9139
27.9145
27.9155
27.9162
27.9172
27.9178
27.9188
27.9194
27.9204
27.921
27.922
27.9226
27.9236
27.9242
27.9251
27.9258
27.9267
27.9274
27.9283
27.9289
27.9298
27.9305
27.9314
27.9321
27.9328
27.9336
27.9343
27.9351
27.9357
27.9364
27.9371
27.9374
27.9384
27.938
27.9199
24.6671
26.9138
27.0502
27.0859
27.1503
27.2433
27.3195
27.3712
27.4008
27.4313
27.4678
27.5142
27.5592
27.601
27.6318
27.6553
27.6695
27.6797
27.6845
27.6884
27.6894
27.6911
27.691
27.692
27.6918
27.6927
27.6925
27.6933
27.6932
27.694
27.694
27.6948
27.6948
27.6957
27.6957
27.6966
27.6967
27.6976
27.6978
27.6987
27.6989
27.6998
27.7
27.701
27.7013
27.7022
27.7025
27.7034
27.7038
27.7047
27.7051
27.706
27.7064
27.7073
27.7078
27.7087
27.7091
27.71
27.7105
27.7114
27.7119
27.7128
27.7133
27.7142
27.7147
27.7155
27.7161
27.7169
27.7175
27.7183
27.7188
27.7197
27.7202
27.7211
27.7216
27.7225
27.7231
27.7239
27.7245
27.7252
27.7259
27.7266
27.7272
27.7279
27.7285
27.7293
27.7295
27.7305
27.7302
27.7144
24.6679
26.9042
27.0214
27.0363
27.0816
27.1598
27.2228
27.2621
27.2806
27.3012
27.3299
27.3703
27.4112
27.4502
27.4794
27.502
27.5157
27.5255
27.5302
27.534
27.535
27.5367
27.5366
27.5376
27.5374
27.5383
27.5381
27.5389
27.5388
27.5397
27.5396
27.5405
27.5405
27.5414
27.5415
27.5424
27.5425
27.5434
27.5435
27.5445
27.5447
27.5456
27.5459
27.5468
27.5471
27.548
27.5484
27.5493
27.5497
27.5506
27.551
27.552
27.5524
27.5533
27.5538
27.5547
27.5551
27.5561
27.5566
27.5575
27.558
27.5589
27.5594
27.5603
27.5608
27.5617
27.5622
27.5631
27.5637
27.5645
27.5651
27.566
27.5665
27.5674
27.5679
27.5688
27.5694
27.5702
27.5708
27.5716
27.5722
27.573
27.5736
27.5744
27.5749
27.5757
27.576
27.577
27.5768
27.5612
24.7578
26.9169
27.0225
27.0323
27.0686
27.1325
27.1804
27.2074
27.2173
27.2315
27.2544
27.2887
27.3238
27.3575
27.3826
27.402
27.4138
27.4223
27.4265
27.4299
27.4309
27.4326
27.4327
27.4338
27.4338
27.4348
27.4349
27.4359
27.436
27.437
27.4371
27.4382
27.4384
27.4394
27.4397
27.4407
27.441
27.4421
27.4425
27.4436
27.444
27.4451
27.4455
27.4466
27.4471
27.4482
27.4487
27.4498
27.4503
27.4514
27.452
27.4531
27.4537
27.4547
27.4554
27.4564
27.457
27.4581
27.4587
27.4598
27.4604
27.4614
27.4621
27.4631
27.4638
27.4648
27.4654
27.4664
27.4671
27.4681
27.4687
27.4697
27.4704
27.4713
27.472
27.473
27.4736
27.4746
27.4753
27.4761
27.4768
27.4777
27.4783
27.4793
27.4797
27.4807
27.4809
27.4818
27.4819
27.4646
25.184
27.1186
27.1991
27.2079
27.2388
27.2869
27.3187
27.334
27.3381
27.3481
27.3664
27.3941
27.4216
27.4481
27.4672
27.4825
27.4914
27.4984
27.5016
27.5048
27.5057
27.5075
27.5078
27.5093
27.5095
27.5109
27.5111
27.5125
27.5127
27.5141
27.5144
27.5158
27.5162
27.5175
27.5179
27.5193
27.5197
27.5211
27.5216
27.5229
27.5234
27.5248
27.5253
27.5266
27.5273
27.5286
27.5292
27.5305
27.5311
27.5324
27.5331
27.5343
27.535
27.5362
27.537
27.5382
27.5389
27.5401
27.5408
27.542
27.5427
27.5438
27.5446
27.5457
27.5464
27.5475
27.5483
27.5493
27.5501
27.5511
27.5519
27.5529
27.5536
27.5547
27.5554
27.5564
27.5571
27.5581
27.5588
27.5598
27.5605
27.5615
27.5621
27.5631
27.5636
27.5646
27.565
27.5659
27.566
27.5574
25.8543
27.4495
27.5001
27.5092
27.5319
27.5626
27.5784
27.5851
27.5853
27.5928
27.6052
27.6252
27.6425
27.6605
27.6715
27.6819
27.6862
27.6913
27.6921
27.6948
27.6944
27.6962
27.6955
27.697
27.6963
27.6978
27.6972
27.6987
27.6981
27.6996
27.6991
27.7005
27.7002
27.7016
27.7013
27.7027
27.7025
27.7038
27.7037
27.705
27.7049
27.7062
27.7062
27.7075
27.7076
27.7088
27.7089
27.7101
27.7103
27.7115
27.7117
27.7128
27.7131
27.7142
27.7145
27.7156
27.7159
27.717
27.7173
27.7184
27.7187
27.7197
27.7201
27.7211
27.7215
27.7225
27.7229
27.7239
27.7243
27.7253
27.7257
27.7267
27.7272
27.7281
27.7286
27.7295
27.73
27.731
27.7314
27.7324
27.7328
27.7338
27.7342
27.7352
27.7355
27.7366
27.7367
27.7377
27.738
27.7237
27.9009
28.896
28.9005
28.9021
28.9095
28.924
28.925
28.9268
28.9219
28.9268
28.9297
28.9413
28.9463
28.9562
28.9576
28.9632
28.9613
28.964
28.9606
28.9622
28.9584
28.9595
28.9558
28.9568
28.9534
28.9544
28.9511
28.9521
28.9491
28.9501
28.9474
28.9483
28.9458
28.9468
28.9445
28.9454
28.9433
28.9442
28.9423
28.9432
28.9414
28.9423
28.9407
28.9416
28.9401
28.941
28.9397
28.9405
28.9393
28.9401
28.9391
28.9398
28.9389
28.9396
28.9388
28.9395
28.9387
28.9395
28.9388
28.9395
28.9389
28.9396
28.939
28.9398
28.9393
28.94
28.9396
28.9403
28.9399
28.9406
28.9403
28.941
28.9408
28.9415
28.9413
28.9421
28.9419
28.9427
28.9426
28.9434
28.9434
28.9442
28.9442
28.9451
28.945
28.9462
28.946
28.9474
28.9475
28.9512
29.833
30.2331
30.2276
30.2157
30.2129
30.2112
30.2046
30.1998
30.1907
30.1892
30.1839
30.1861
30.1818
30.1836
30.1778
30.178
30.1711
30.1704
30.1631
30.1621
30.1551
30.154
30.1474
30.1465
30.1403
30.1396
30.1339
30.1333
30.1281
30.1276
30.1228
30.1225
30.1182
30.1179
30.114
30.1139
30.1103
30.1103
30.1071
30.1072
30.1043
30.1045
30.1018
30.1021
30.0997
30.1
30.0979
30.0982
30.0963
30.0967
30.0949
30.0953
30.0937
30.0941
30.0927
30.0931
30.0918
30.0922
30.091
30.0914
30.0903
30.0908
30.0898
30.0902
30.0893
30.0898
30.089
30.0894
30.0887
30.0891
30.0885
30.0889
30.0884
30.0889
30.0884
30.0889
30.0885
30.089
30.0887
30.0892
30.089
30.0896
30.0896
30.0903
30.0904
30.0913
30.0916
30.0931
30.0904
30.0921
3.59701
3.77852
3.79378
3.79984
3.81148
3.82051
3.82825
3.83767
3.84232
3.85131
3.8525
3.85928
3.85689
3.86128
3.85643
3.85939
3.85331
3.85556
3.84906
3.85097
3.84443
3.84614
3.83975
3.84131
3.83515
3.83658
3.83071
3.83202
3.82646
3.82767
3.82244
3.82356
3.81866
3.8197
3.81512
3.81609
3.81183
3.81274
3.80878
3.80964
3.80595
3.80676
3.80333
3.8041
3.80092
3.80164
3.79868
3.79937
3.79662
3.79728
3.79472
3.79534
3.79296
3.79356
3.79135
3.79193
3.78987