/*--------------------------------*- C++ -*----------------------------------*\
  =========                 |
  \\      /  F ield         | OpenFOAM: The Open Source CFD Toolbox
   \\    /   O peration     | Website:  https://openfoam.org
    \\  /    A nd           | Version:  7
     \\/     M anipulation  |
\*---------------------------------------------------------------------------*/
FoamFile
{
    version     2.0;
    format      ascii;
    class       volScalarField;
    location    "2";
    object      T;
}
// * * * * * * * * * * * * * * * * * * * * * * * * * * * * * * * * * * * * * //

dimensions      [0 0 0 1 0 0 0];

internalField   nonuniform List<scalar> 
6000
(
283.144
283.146
283.149
283.152
283.156
283.159
283.162
283.165
283.168
283.171
283.175
283.178
283.181
283.184
283.188
283.191
283.193
283.196
283.199
283.201
283.203
283.203
283.204
283.207
283.213
283.22
283.226
283.231
283.233
283.234
283.234
283.233
283.232
283.23
283.228
283.227
283.225
283.223
283.221
283.219
283.217
283.216
283.214
283.212
283.209
283.206
283.203
283.2
283.198
283.197
283.196
283.195
283.195
283.195
283.195
283.194
283.194
283.194
283.194
283.194
283.195
283.195
283.196
283.196
283.196
283.196
283.196
283.196
283.196
283.196
283.196
283.196
283.196
283.195
283.195
283.195
283.195
283.195
283.195
283.196
283.196
283.197
283.197
283.198
283.198
283.199
283.2
283.2
283.201
283.201
283.204
283.201
283.207
283.198
283.216
283.186
283.242
283.143
283.322
283.002
283.144
283.147
283.149
283.152
283.155
283.159
283.162
283.165
283.168
283.171
283.174
283.178
283.181
283.185
283.188
283.192
283.195
283.199
283.202
283.205
283.208
283.211
283.214
283.217
283.219
283.222
283.223
283.225
283.227
283.23
283.235
283.241
283.249
283.258
283.265
283.272
283.276
283.279
283.28
283.28
283.279
283.278
283.275
283.273
283.27
283.267
283.264
283.26
283.257
283.253
283.25
283.246
283.243
283.239
283.235
283.232
283.228
283.225
283.221
283.218
283.214
283.211
283.207
283.203
283.199
283.196
283.194
283.193
283.191
283.189
283.186
283.182
283.177
283.171
283.165
283.159
283.154
283.15
283.146
283.144
283.143
283.143
283.143
283.144
283.146
283.147
283.149
283.151
283.153
283.156
283.159
283.161
283.165
283.166
283.171
283.171
283.178
283.177
283.186
283.184
283.145
283.148
283.151
283.154
283.157
283.16
283.163
283.166
283.169
283.172
283.176
283.179
283.182
283.186
283.189
283.192
283.196
283.199
283.203
283.206
283.208
283.211
283.214
283.217
283.22
283.223
283.224
283.224
283.223
283.224
283.226
283.231
283.238
283.247
283.257
283.267
283.276
283.283
283.288
283.291
283.292
283.292
283.291
283.29
283.288
283.285
283.283
283.28
283.276
283.273
283.27
283.267
283.264
283.26
283.257
283.253
283.249
283.246
283.242
283.239
283.235
283.231
283.227
283.224
283.22
283.217
283.213
283.21
283.206
283.202
283.198
283.193
283.189
283.186
283.184
283.182
283.181
283.18
283.179
283.175
283.171
283.164
283.157
283.148
283.14
283.131
283.124
283.117
283.112
283.109
283.106
283.105
283.105
283.106
283.107
283.109
283.112
283.115
283.117
283.121
283.147
283.149
283.152
283.155
283.158
283.161
283.165
283.168
283.171
283.174
283.177
283.18
283.184
283.187
283.191
283.194
283.197
283.201
283.204
283.207
283.21
283.213
283.216
283.219
283.222
283.224
283.225
283.225
283.224
283.225
283.227
283.231
283.239
283.248
283.258
283.268
283.277
283.284
283.289
283.293
283.294
283.295
283.294
283.293
283.291
283.288
283.286
283.283
283.28
283.277
283.274
283.27
283.267
283.264
283.261
283.257
283.253
283.25
283.247
283.243
283.24
283.236
283.233
283.229
283.225
283.222
283.219
283.216
283.213
283.209
283.205
283.2
283.195
283.19
283.187
283.185
283.185
283.186
283.187
283.187
283.186
283.182
283.176
283.168
283.159
283.148
283.137
283.127
283.118
283.11
283.104
283.099
283.096
283.094
283.093
283.093
283.094
283.096
283.098
283.1
283.148
283.151
283.154
283.157
283.16
283.164
283.167
283.17
283.173
283.176
283.179
283.183
283.186
283.189
283.193
283.196
283.199
283.203
283.206
283.209
283.212
283.215
283.218
283.221
283.224
283.226
283.227
283.227
283.226
283.227
283.229
283.234
283.241
283.251
283.261
283.271
283.28
283.287
283.292
283.295
283.297
283.297
283.296
283.295
283.293
283.291
283.288
283.285
283.282
283.279
283.276
283.273
283.27
283.267
283.263
283.26
283.256
283.253
283.25
283.247
283.243
283.24
283.236
283.232
283.229
283.225
283.222
283.22
283.217
283.213
283.208
283.203
283.198
283.194
283.19
283.189
283.189
283.19
283.191
283.192
283.191
283.187
283.181
283.173
283.163
283.152
283.141
283.131
283.121
283.113
283.107
283.102
283.099
283.097
283.096
283.096
283.097
283.099
283.101
283.103
283.15
283.153
283.156
283.16
283.163
283.166
283.169
283.172
283.175
283.179
283.182
283.185
283.188
283.192
283.195
283.198
283.202
283.205
283.209
283.212
283.215
283.217
283.221
283.224
283.227
283.23
283.23
283.23
283.23
283.23
283.232
283.237
283.245
283.254
283.265
283.275
283.284
283.291
283.296
283.299
283.3
283.3
283.299
283.298
283.296
283.294
283.291
283.288
283.285
283.282
283.279
283.276
283.273
283.27
283.267
283.263
283.26
283.257
283.253
283.25
283.247
283.243
283.24
283.236
283.232
283.229
283.226
283.223
283.22
283.216
283.212
283.207
283.202
283.197
283.194
283.193
283.193
283.194
283.196
283.196
283.195
283.191
283.185
283.176
283.166
283.155
283.144
283.134
283.124
283.117
283.11
283.106
283.103
283.101
283.1
283.101
283.102
283.104
283.106
283.108
283.153
283.156
283.159
283.162
283.165
283.168
283.171
283.174
283.178
283.181
283.184
283.187
283.191
283.194
283.197
283.201
283.204
283.207
283.211
283.214
283.217
283.22
283.223
283.227
283.23
283.232
283.233
283.233
283.232
283.232
283.235
283.24
283.247
283.257
283.267
283.277
283.286
283.293
283.298
283.301
283.303
283.303
283.302
283.301
283.299
283.296
283.294
283.291
283.288
283.285
283.282
283.279
283.276
283.273
283.27
283.266
283.263
283.26
283.257
283.254
283.251
283.247
283.243
283.239
283.236
283.233
283.23
283.227
283.224
283.22
283.216
283.211
283.206
283.202
283.198
283.197
283.197
283.198
283.2
283.2
283.199
283.195
283.189
283.181
283.171
283.16
283.148
283.138
283.129
283.121
283.114
283.11
283.107
283.105
283.104
283.105
283.106
283.108
283.11
283.112
283.155
283.158
283.161
283.164
283.167
283.17
283.173
283.177
283.18
283.183
283.186
283.19
283.193
283.196
283.199
283.203
283.206
283.209
283.212
283.216
283.219
283.222
283.225
283.228
283.232
283.234
283.235
283.234
283.233
283.234
283.236
283.241
283.249
283.258
283.269
283.279
283.288
283.295
283.3
283.303
283.305
283.305
283.304
283.303
283.301
283.298
283.296
283.293
283.291
283.288
283.285
283.282
283.279
283.276
283.273
283.27
283.267
283.264
283.261
283.258
283.255
283.251
283.247
283.243
283.24
283.236
283.234
283.231
283.228
283.225
283.22
283.216
283.211
283.206
283.203
283.201
283.201
283.202
283.204
283.204
283.203
283.2
283.194
283.186
283.176
283.165
283.154
283.143
283.134
283.125
283.119
283.114
283.111
283.109
283.108
283.109
283.11
283.111
283.114
283.116
283.156
283.159
283.162
283.166
283.169
283.172
283.175
283.178
283.182
283.185
283.188
283.191
283.194
283.198
283.201
283.204
283.207
283.211
283.214
283.217
283.22
283.223
283.227
283.23
283.233
283.236
283.237
283.236
283.236
283.236
283.238
283.243
283.25
283.26
283.27
283.28
283.289
283.297
283.302
283.305
283.307
283.307
283.306
283.305
283.303
283.301
283.298
283.296
283.293
283.29
283.288
283.285
283.282
283.279
283.276
283.273
283.27
283.267
283.264
283.261
283.258
283.254
283.25
283.247
283.243
283.24
283.237
283.234
283.231
283.228
283.224
283.219
283.214
283.21
283.206
283.205
283.204
283.205
283.206
283.206
283.205
283.202
283.196
283.189
283.179
283.168
283.158
283.147
283.138
283.13
283.123
283.118
283.115
283.113
283.113
283.113
283.114
283.116
283.119
283.121
283.158
283.161
283.164
283.167
283.17
283.174
283.177
283.18
283.183
283.187
283.19
283.193
283.196
283.199
283.203
283.206
283.209
283.212
283.216
283.219
283.222
283.225
283.228
283.232
283.235
283.238
283.239
283.238
283.238
283.238
283.241
283.246
283.253
283.263
283.273
283.283
283.292
283.299
283.304
283.307
283.308
283.308
283.308
283.306
283.304
283.302
283.3
283.297
283.294
283.292
283.289
283.286
283.283
283.28
283.277
283.274
283.271
283.268
283.265
283.261
283.258
283.254
283.25
283.247
283.243
283.24
283.237
283.233
283.23
283.226
283.222
283.218
283.214
283.211
283.209
283.207
283.206
283.205
283.204
283.201
283.196
283.19
283.183
283.174
283.165
283.157
283.149
283.143
283.138
283.134
283.132
283.131
283.131
283.132
283.133
283.136
283.138
283.141
283.144
283.147
283.159
283.162
283.165
283.168
283.171
283.174
283.178
283.181
283.184
283.187
283.191
283.194
283.197
283.201
283.204
283.207
283.21
283.214
283.217
283.221
283.224
283.227
283.231
283.234
283.237
283.239
283.24
283.242
283.244
283.247
283.252
283.259
283.267
283.276
283.283
283.29
283.295
283.298
283.299
283.299
283.298
283.297
283.295
283.292
283.29
283.287
283.285
283.282
283.279
283.276
283.273
283.27
283.267
283.264
283.26
283.257
283.253
283.25
283.247
283.244
283.24
283.237
283.233
283.229
283.226
283.223
283.221
283.22
283.219
283.217
283.214
283.21
283.205
283.199
283.193
283.187
283.182
283.178
283.175
283.173
283.172
283.172
283.172
283.173
283.175
283.176
283.178
283.181
283.183
283.186
283.188
283.191
283.195
283.197
283.2
283.203
283.206
283.21
283.213
283.218
283.159
283.163
283.166
283.169
283.172
283.176
283.179
283.182
283.186
283.189
283.192
283.195
283.198
283.201
283.204
283.207
283.21
283.213
283.216
283.219
283.22
283.221
283.222
283.225
283.231
283.238
283.244
283.249
283.252
283.253
283.252
283.252
283.251
283.249
283.248
283.247
283.245
283.244
283.242
283.24
283.238
283.237
283.236
283.234
283.231
283.228
283.225
283.222
283.22
283.219
283.218
283.218
283.218
283.218
283.218
283.218
283.218
283.217
283.217
283.218
283.218
283.219
283.219
283.22
283.22
283.22
283.22
283.22
283.22
283.22
283.22
283.22
283.219
283.219
283.219
283.219
283.219
283.219
283.219
283.22
283.22
283.22
283.221
283.222
283.222
283.223
283.223
283.224
283.225
283.226
283.226
283.227
283.228
283.228
283.229
283.229
283.229
283.23
283.23
283.233
284.431
286.293
287.771
288.968
289.977
290.867
291.679
292.435
293.145
293.818
294.458
295.071
295.66
296.228
296.778
297.312
297.83
298.335
298.827
299.308
299.777
300.237
300.686
301.126
301.556
301.978
302.391
302.797
303.194
303.585
303.968
304.345
304.715
305.079
305.438
305.791
306.139
306.482
306.82
307.154
307.483
307.808
308.13
308.447
308.761
309.071
309.378
309.681
309.98
310.276
310.569
310.859
311.145
311.428
311.708
311.985
312.258
312.529
312.796
313.06
313.322
313.58
313.836
314.089
314.339
314.586
314.831
315.073
315.312
315.548
315.782
316.013
316.242
316.468
316.691
316.911
317.129
317.344
317.556
317.765
317.972
318.175
318.376
318.573
318.767
318.958
319.146
319.331
319.513
319.691
319.866
320.038
320.207
320.372
320.534
320.692
320.847
320.999
321.147
321.292
321.434
321.572
321.707
321.838
321.967
322.092
322.214
322.332
322.448
322.561
322.67
322.777
322.88
322.981
323.079
323.175
323.267
323.357
323.444
323.529
323.611
323.69
323.768
323.842
323.915
323.985
324.053
324.118
324.182
324.243
324.302
324.36
324.415
324.468
324.52
324.569
324.617
324.663
324.707
324.75
324.791
324.831
324.869
324.905
324.94
324.974
325.007
325.038
325.068
325.097
325.125
325.152
325.178
325.202
325.226
325.249
325.271
325.292
325.312
325.332
325.35
325.368
325.385
325.401
325.417
325.432
325.446
325.459
325.472
325.484
325.496
325.506
325.517
325.526
325.535
325.544
325.552
325.559
325.566
325.573
325.579
325.585
325.59
325.595
325.599
325.604
325.607
325.611
325.614
325.617
325.62
325.623
325.625
325.627
325.629
325.631
325.632
325.634
325.635
325.636
325.637
325.637
325.638
325.638
325.638
325.638
325.638
325.637
325.637
325.636
325.635
325.634
325.632
325.631
325.629
325.627
325.625
325.623
325.621
325.618
325.616
325.613
325.611
325.608
325.605
325.603
325.6
325.597
325.594
325.591
325.589
325.586
325.583
325.58
325.577
325.574
325.572
325.569
325.566
325.563
325.56
325.557
325.554
325.551
325.548
325.545
325.542
325.539
325.535
325.532
325.528
325.525
325.521
325.517
325.513
325.509
325.505
325.501
325.497
325.493
325.488
325.484
325.48
325.475
325.471
325.466
325.462
325.457
325.452
325.448
325.443
325.438
325.434
325.429
325.424
325.42
325.415
325.41
325.406
325.401
325.396
325.391
325.387
325.382
325.377
325.373
325.368
325.363
325.358
325.354
325.349
325.344
325.34
325.335
325.33
325.325
325.321
325.316
325.311
325.307
325.302
325.297
325.292
325.288
325.283
325.278
325.274
325.269
325.264
325.26
325.255
325.25
325.245
325.241
325.236
325.231
325.227
325.222
325.217
325.212
325.208
325.203
325.198
325.194
325.189
325.184
325.18
325.175
325.17
325.166
325.161
325.156
325.151
325.147
325.142
325.137
325.133
325.128
325.123
325.119
325.114
325.109
325.105
325.1
325.095
325.091
325.086
325.081
325.077
325.072
325.067
325.063
325.058
325.053
325.049
325.044
325.04
325.035
325.03
325.026
325.021
325.016
325.012
325.007
325.003
324.998
324.993
324.989
324.984
324.98
324.975
324.97
324.966
324.961
324.957
324.952
324.947
324.943
324.938
324.934
324.929
324.925
324.92
324.915
324.911
324.906
324.902
324.897
324.893
324.888
324.884
324.879
324.875
324.87
324.866
324.86
324.857
324.851
324.849
324.841
283.203
283.417
283.778
284.225
284.712
285.215
285.722
286.224
286.718
287.199
287.668
288.126
288.572
289.009
289.437
289.856
290.266
290.67
291.066
291.457
291.842
292.222
292.597
292.966
293.331
293.692
294.047
294.397
294.742
295.082
295.416
295.746
296.07
296.389
296.704
297.014
297.319
297.62
297.917
298.211
298.5
298.787
299.07
299.351
299.628
299.904
300.177
300.448
300.716
300.982
301.246
301.508
301.768
302.025
302.28
302.534
302.785
303.033
303.28
303.523
303.765
304.004
304.241
304.475
304.707
304.936
305.163
305.388
305.61
305.83
306.048
306.264
306.477
306.689
306.898
307.105
307.31
307.513
307.714
307.913
308.11
308.305
308.498
308.688
308.876
309.062
309.246
309.427
309.606
309.783
309.957
310.129
310.298
310.465
310.628
310.79
310.948
311.103
311.256
311.406
311.553
311.697
311.838
311.977
312.112
312.244
312.374
312.501
312.624
312.745
312.863
312.979
313.091
313.201
313.309
313.414
313.516
313.615
313.713
313.808
313.9
313.99
314.078
314.164
314.248
314.329
314.408
314.486
314.561
314.634
314.705
314.775
314.842
314.907
314.971
315.032
315.092
315.15
315.206
315.26
315.312
315.363
315.412
315.459
315.505
315.549
315.591
315.632
315.672
315.71
315.746
315.782
315.816
315.849
315.881
315.912
315.941
315.97
315.998
316.025
316.051
316.077
316.101
316.125
316.148
316.171
316.192
316.213
316.234
316.254
316.273
316.291
316.308
316.325
316.342
316.357
316.372
316.386
316.399
316.412
316.424
316.436
316.446
316.457
316.466
316.475
316.483
316.491
316.499
316.506
316.512
316.518
316.524
316.53
316.535
316.54
316.545
316.55
316.554
316.558
316.563
316.567
316.571
316.574
316.578
316.582
316.585
316.588
316.591
316.594
316.597
316.6
316.602
316.604
316.606
316.607
316.609
316.61
316.61
316.611
316.611
316.611
316.61
316.61
316.609
316.608
316.607
316.605
316.604
316.602
316.6
316.598
316.597
316.595
316.593
316.591
316.59
316.588
316.587
316.585
316.584
316.583
316.581
316.58
316.579
316.579
316.578
316.577
316.576
316.575
316.574
316.573
316.572
316.571
316.57
316.569
316.567
316.566
316.564
316.562
316.56
316.558
316.556
316.553
316.551
316.548
316.545
316.543
316.54
316.537
316.534
316.531
316.527
316.524
316.521
316.518
316.515
316.511
316.508
316.505
316.501
316.498
316.495
316.492
316.488
316.485
316.482
316.479
316.475
316.472
316.469
316.465
316.462
316.459
316.456
316.452
316.449
316.446
316.442
316.439
316.436
316.433
316.429
316.426
316.423
316.42
316.416
316.413
316.41
316.407
316.403
316.4
316.397
316.394
316.391
316.387
316.384
316.381
316.378
316.374
316.371
316.368
316.365
316.362
316.358
316.355
316.352
316.349
316.346
316.343
316.339
316.336
316.333
316.33
316.327
316.324
316.32
316.317
316.314
316.311
316.308
316.305
316.301
316.298
316.295
316.292
316.289
316.286
316.283
316.28
316.277
316.273
316.27
316.267
316.264
316.261
316.258
316.255
316.252
316.249
316.246
316.243
316.24
316.237
316.233
316.23
316.227
316.224
316.221
316.218
316.215
316.212
316.209
316.206
316.203
316.2
316.197
316.194
316.191
316.188
316.185
316.182
316.179
316.176
316.173
316.17
316.168
316.165
316.162
316.159
316.156
316.153
316.15
316.147
316.144
316.141
316.139
316.134
316.133
316.128
283.128
283.144
283.178
283.237
283.32
283.426
283.558
283.717
283.896
284.089
284.291
284.499
284.711
284.928
285.15
285.377
285.608
285.842
286.078
286.316
286.555
286.795
287.037
287.282
287.529
287.778
288.029
288.282
288.537
288.791
289.045
289.297
289.547
289.795
290.041
290.285
290.527
290.766
291.003
291.236
291.466
291.692
291.916
292.137
292.357
292.574
292.791
293.007
293.221
293.435
293.649
293.861
294.074
294.285
294.497
294.708
294.918
295.129
295.339
295.548
295.757
295.965
296.171
296.376
296.579
296.781
296.981
297.18
297.376
297.571
297.764
297.955
298.144
298.332
298.518
298.701
298.883
299.063
299.242
299.419
299.595
299.769
299.943
300.115
300.286
300.456
300.625
300.792
300.958
301.123
301.287
301.45
301.611
301.771
301.93
302.088
302.244
302.398
302.551
302.702
302.851
302.998
303.143
303.286
303.427
303.566
303.702
303.836
303.968
304.097
304.223
304.347
304.469
304.588
304.705
304.819
304.931
305.04
305.147
305.253
305.356
305.457
305.556
305.654
305.749
305.843
305.935
306.025
306.114
306.202
306.288
306.372
306.455
306.537
306.617
306.695
306.772
306.848
306.922
306.994
307.064
307.132
307.199
307.264
307.327
307.388
307.448
307.505
307.561
307.614
307.666
307.716
307.764
307.811
307.856
307.899
307.941
307.982
308.021
308.06
308.097
308.133
308.169
308.204
308.238
308.271
308.304
308.336
308.368
308.399
308.43
308.46
308.49
308.52
308.548
308.577
308.604
308.631
308.656
308.681
308.706
308.729
308.751
308.773
308.793
308.812
308.83
308.848
308.864
308.879
308.893
308.906
308.919
308.931
308.942
308.952
308.962
308.972
308.981
308.99
308.999
309.007
309.016
309.024
309.033
309.041
309.05
309.058
309.067
309.076
309.084
309.093
309.102
309.111
309.119
309.127
309.135
309.143
309.15
309.157
309.164
309.17
309.175
309.18
309.184
309.188
309.191
309.193
309.195
309.196
309.196
309.197
309.196
309.196
309.195
309.194
309.193
309.192
309.191
309.19
309.189
309.189
309.188
309.188
309.188
309.189
309.19
309.191
309.193
309.195
309.197
309.2
309.203
309.205
309.208
309.211
309.214
309.217
309.22
309.222
309.224
309.226
309.228
309.23
309.231
309.232
309.232
309.232
309.232
309.232
309.231
309.231
309.23
309.229
309.227
309.226
309.225
309.223
309.222
309.22
309.218
309.217
309.215
309.213
309.212
309.21
309.208
309.206
309.204
309.203
309.201
309.199
309.197
309.196
309.194
309.192
309.19
309.188
309.187
309.185
309.183
309.181
309.179
309.178
309.176
309.174
309.172
309.17
309.169
309.167
309.165
309.163
309.161
309.16
309.158
309.156
309.154
309.153
309.151
309.149
309.147
309.145
309.144
309.142
309.14
309.138
309.136
309.135
309.133
309.131
309.129
309.128
309.126
309.124
309.122
309.12
309.119
309.117
309.115
309.113
309.112
309.11
309.108
309.106
309.105
309.103
309.101
309.099
309.097
309.096
309.094
309.092
309.09
309.089
309.087
309.085
309.083
309.082
309.08
309.078
309.077
309.075
309.073
309.071
309.07
309.068
309.066
309.064
309.063
309.061
309.059
309.058
309.056
309.054
309.052
309.051
309.049
309.047
309.046
309.044
309.042
309.041
309.039
309.037
309.036
309.034
309.032
309.03
309.029
309.027
309.026
309.024
309.022
309.02
309.019
309.017
309.016
309.013
309.013
309.01
283.107
283.118
283.13
283.147
283.167
283.185
283.2
283.223
283.26
283.31
283.367
283.425
283.482
283.538
283.594
283.649
283.707
283.771
283.843
283.923
284.008
284.096
284.185
284.276
284.371
284.471
284.58
284.697
284.824
284.959
285.102
285.249
285.398
285.548
285.7
285.853
286.008
286.165
286.324
286.484
286.643
286.8
286.954
287.104
287.25
287.393
287.534
287.674
287.814
287.955
288.095
288.236
288.376
288.517
288.658
288.799
288.941
289.084
289.23
289.378
289.529
289.682
289.838
289.995
290.152
290.31
290.468
290.625
290.782
290.938
291.094
291.25
291.404
291.558
291.711
291.862
292.011
292.157
292.301
292.443
292.583
292.721
292.858
292.995
293.13
293.265
293.4
293.534
293.667
293.8
293.932
294.063
294.195
294.327
294.46
294.594
294.728
294.863
294.998
295.134
295.27
295.405
295.54
295.674
295.808
295.94
296.072
296.203
296.332
296.461
296.587
296.712
296.834
296.955
297.072
297.187
297.299
297.409
297.517
297.622
297.725
297.827
297.926
298.024
298.121
298.215
298.308
298.4
298.491
298.58
298.669
298.757
298.845
298.933
299.021
299.109
299.196
299.283
299.37
299.456
299.54
299.624
299.707
299.789
299.87
299.949
300.027
300.104
300.178
300.251
300.321
300.389
300.454
300.516
300.576
300.634
300.689
300.742
300.794
300.843
300.891
300.937
300.982
301.025
301.068
301.109
301.149
301.189
301.228
301.268
301.307
301.347
301.387
301.428
301.468
301.509
301.549
301.59
301.63
301.67
301.71
301.749
301.787
301.825
301.862
301.898
301.932
301.966
301.997
302.027
302.055
302.08
302.105
302.127
302.148
302.167
302.184
302.201
302.216
302.231
302.244
302.256
302.268
302.279
302.29
302.301
302.312
302.323
302.335
302.347
302.36
302.374
302.388
302.403
302.419
302.434
302.45
302.467
302.483
302.499
302.516
302.532
302.548
302.564
302.579
302.592
302.605
302.617
302.627
302.636
302.644
302.65
302.655
302.659
302.661
302.663
302.664
302.663
302.662
302.661
302.658
302.656
302.653
302.65
302.648
302.646
302.645
302.645
302.645
302.647
302.649
302.652
302.656
302.661
302.667
302.674
302.681
302.689
302.697
302.705
302.714
302.722
302.73
302.738
302.746
302.753
302.76
302.766
302.771
302.775
302.779
302.783
302.786
302.788
302.79
302.791
302.792
302.793
302.794
302.794
302.794
302.794
302.794
302.794
302.794
302.794
302.793
302.793
302.793
302.792
302.792
302.792
302.791
302.791
302.79
302.79
302.789
302.789
302.788
302.788
302.788
302.787
302.787
302.786
302.786
302.785
302.785
302.784
302.784
302.783
302.783
302.782
302.782
302.781
302.781
302.78
302.78
302.779
302.779
302.778
302.778
302.777
302.777
302.776
302.776
302.775
302.775
302.774
302.774
302.773
302.773
302.772
302.772
302.771
302.771
302.77
302.77
302.769
302.769
302.768
302.768
302.767
302.767
302.766
302.766
302.765
302.765
302.764
302.763
302.763
302.762
302.762
302.761
302.761
302.76
302.76
302.759
302.759
302.758
302.758
302.757
302.756
302.756
302.755
302.755
302.754
302.754
302.753
302.753
302.752
302.752
302.751
302.751
302.75
302.749
302.749
302.748
302.748
302.747
302.747
302.746
302.746
302.745
302.745
302.744
302.743
302.743
302.742
302.742
302.741
302.741
302.74
302.74
302.739
302.739
302.738
302.738
302.737
302.737
302.736
283.11
283.12
283.13
283.146
283.165
283.179
283.184
283.187
283.202
283.229
283.261
283.289
283.31
283.326
283.336
283.338
283.333
283.324
283.318
283.319
283.328
283.338
283.346
283.35
283.35
283.349
283.349
283.355
283.368
283.393
283.431
283.481
283.538
283.598
283.659
283.719
283.782
283.848
283.919
283.996
284.08
284.168
284.258
284.349
284.435
284.515
284.588
284.655
284.72
284.783
284.848
284.914
284.982
285.051
285.119
285.186
285.25
285.312
285.373
285.436
285.502
285.575
285.655
285.741
285.834
285.931
286.031
286.133
286.236
286.34
286.444
286.55
286.658
286.769
286.882
286.997
287.113
287.228
287.34
287.447
287.551
287.649
287.745
287.837
287.928
288.018
288.107
288.196
288.285
288.373
288.458
288.543
288.625
288.706
288.787
288.87
288.954
289.042
289.133
289.228
289.327
289.429
289.533
289.638
289.744
289.851
289.959
290.067
290.177
290.288
290.4
290.513
290.627
290.74
290.851
290.959
291.064
291.165
291.262
291.356
291.447
291.535
291.621
291.705
291.788
291.869
291.948
292.025
292.099
292.171
292.241
292.31
292.379
292.449
292.52
292.593
292.669
292.747
292.827
292.908
292.991
293.074
293.157
293.241
293.326
293.411
293.496
293.583
293.67
293.756
293.842
293.927
294.009
294.087
294.162
294.233
294.301
294.364
294.425
294.483
294.538
294.591
294.642
294.69
294.736
294.779
294.82
294.858
294.895
294.93
294.966
295.002
295.039
295.078
295.119
295.162
295.207
295.252
295.299
295.347
295.395
295.444
295.494
295.544
295.596
295.648
295.7
295.753
295.804
295.855
295.903
295.948
295.991
296.03
296.066
296.099
296.13
296.157
296.183
296.206
296.227
296.246
296.263
296.277
296.289
296.299
296.308
296.316
296.324
296.332
296.342
296.353
296.366
296.38
296.397
296.415
296.434
296.454
296.476
296.498
296.522
296.547
296.573
296.6
296.628
296.657
296.686
296.713
296.74
296.765
296.787
296.807
296.825
296.84
296.853
296.864
296.873
296.879
296.884
296.886
296.885
296.883
296.879
296.872
296.865
296.857
296.849
296.841
296.834
296.828
296.823
296.82
296.819
296.82
296.822
296.826
296.833
296.841
296.85
296.862
296.875
296.889
296.904
296.92
296.936
296.952
296.967
296.982
296.997
297.01
297.022
297.033
297.043
297.052
297.059
297.066
297.071
297.076
297.08
297.083
297.086
297.088
297.09
297.092
297.093
297.094
297.095
297.096
297.097
297.098
297.099
297.099
297.1
297.101
297.101
297.102
297.102
297.103
297.104
297.104
297.105
297.105
297.106
297.106
297.107
297.107
297.108
297.108
297.109
297.109
297.11
297.11
297.111
297.112
297.112
297.113
297.113
297.114
297.114
297.115
297.115
297.116
297.116
297.117
297.117
297.118
297.118
297.119
297.119
297.119
297.12
297.12
297.121
297.121
297.122
297.122
297.123
297.123
297.124
297.124
297.125
297.125
297.125
297.126
297.126
297.127
297.127
297.128
297.128
297.128
297.129
297.129
297.13
297.13
297.131
297.131
297.131
297.132
297.132
297.133
297.133
297.133
297.134
297.134
297.135
297.135
297.135
297.136
297.136
297.137
297.137
297.137
297.138
297.138
297.138
297.139
297.139
297.14
297.14
297.14
297.141
297.141
297.141
297.142
297.142
297.142
297.143
297.143
297.144
297.144
297.144
297.145
297.145
297.145
297.146
297.146
297.146
297.147
297.147
297.148
283.115
283.126
283.136
283.152
283.171
283.185
283.189
283.192
283.206
283.233
283.264
283.29
283.309
283.321
283.327
283.325
283.312
283.293
283.274
283.262
283.258
283.254
283.246
283.23
283.208
283.182
283.154
283.125
283.099
283.082
283.077
283.084
283.102
283.122
283.142
283.158
283.173
283.188
283.206
283.229
283.259
283.296
283.34
283.389
283.438
283.483
283.519
283.543
283.559
283.568
283.576
283.584
283.595
283.609
283.624
283.639
283.651
283.658
283.658
283.652
283.641
283.632
283.628
283.632
283.648
283.674
283.709
283.75
283.794
283.84
283.886
283.932
283.979
284.029
284.084
284.146
284.215
284.291
284.371
284.451
284.527
284.597
284.659
284.713
284.76
284.802
284.842
284.882
284.923
284.965
285.006
285.046
285.082
285.112
285.136
285.155
285.172
285.189
285.21
285.236
285.271
285.313
285.362
285.418
285.478
285.54
285.603
285.667
285.732
285.8
285.872
285.949
286.031
286.119
286.21
286.303
286.394
286.482
286.564
286.639
286.708
286.771
286.83
286.886
286.941
286.995
287.049
287.1
287.148
287.192
287.23
287.264
287.293
287.32
287.346
287.375
287.407
287.445
287.488
287.538
287.591
287.649
287.709
287.77
287.833
287.897
287.963
288.033
288.106
288.184
288.265
288.35
288.436
288.521
288.603
288.681
288.754
288.821
288.882
288.939
288.992
289.042
289.091
289.137
289.18
289.22
289.256
289.287
289.313
289.335
289.353
289.369
289.386
289.404
289.424
289.449
289.478
289.511
289.548
289.587
289.629
289.672
289.716
289.763
289.811
289.863
289.918
289.977
290.038
290.102
290.167
290.23
290.292
290.349
290.402
290.451
290.494
290.534
290.57
290.603
290.633
290.661
290.685
290.706
290.723
290.736
290.744
290.748
290.749
290.748
290.747
290.745
290.746
290.75
290.757
290.767
290.781
290.797
290.815
290.835
290.857
290.88
290.906
290.935
290.967
291.003
291.042
291.083
291.126
291.168
291.209
291.248
291.283
291.315
291.344
291.369
291.392
291.411
291.428
291.441
291.451
291.457
291.459
291.456
291.45
291.44
291.426
291.411
291.395
291.379
291.363
291.349
291.336
291.326
291.318
291.313
291.31
291.311
291.315
291.322
291.333
291.346
291.362
291.381
291.402
291.425
291.449
291.473
291.497
291.521
291.544
291.565
291.585
291.603
291.619
291.633
291.645
291.656
291.665
291.673
291.679
291.685
291.69
291.693
291.697
291.7
291.702
291.704
291.706
291.708
291.71
291.711
291.713
291.714
291.716
291.717
291.718
291.72
291.721
291.722
291.724
291.725
291.726
291.727
291.728
291.73
291.731
291.732
291.733
291.734
291.736
291.737
291.738
291.739
291.74
291.742
291.743
291.744
291.745
291.746
291.748
291.749
291.75
291.751
291.752
291.753
291.755
291.756
291.757
291.758
291.759
291.76
291.761
291.763
291.764
291.765
291.766
291.767
291.768
291.769
291.77
291.772
291.773
291.774
291.775
291.776
291.777
291.778
291.779
291.78
291.782
291.783
291.784
291.785
291.786
291.787
291.788
291.789
291.79
291.791
291.792
291.793
291.794
291.795
291.796
291.797
291.798
291.799
291.8
291.801
291.802
291.804
291.805
291.806
291.807
291.808
291.809
291.81
291.811
291.812
291.813
291.814
291.815
291.816
291.817
291.818
291.819
291.819
291.82
291.821
291.822
291.823
291.824
291.825
291.826
291.827
291.828
291.83
291.83
291.832
283.12
283.131
283.141
283.156
283.176
283.19
283.193
283.196
283.211
283.237
283.269
283.295
283.314
283.326
283.332
283.329
283.317
283.297
283.278
283.266
283.26
283.256
283.247
283.23
283.207
283.179
283.148
283.117
283.089
283.068
283.059
283.063
283.075
283.091
283.105
283.115
283.122
283.129
283.139
283.153
283.173
283.199
283.232
283.269
283.307
283.338
283.36
283.37
283.37
283.363
283.353
283.344
283.336
283.33
283.326
283.32
283.311
283.297
283.274
283.244
283.209
283.175
283.145
283.123
283.112
283.11
283.117
283.13
283.146
283.162
283.179
283.195
283.212
283.23
283.254
283.285
283.323
283.368
283.416
283.464
283.508
283.545
283.574
283.595
283.608
283.617
283.623
283.628
283.634
283.642
283.648
283.653
283.653
283.647
283.634
283.617
283.598
283.578
283.563
283.553
283.551
283.556
283.569
283.589
283.612
283.638
283.665
283.693
283.722
283.754
283.79
283.831
283.878
283.931
283.986
284.044
284.1
284.152