/*--------------------------------*- C++ -*----------------------------------*\
  =========                 |
  \\      /  F ield         | OpenFOAM: The Open Source CFD Toolbox
   \\    /   O peration     | Website:  https://openfoam.org
    \\  /    A nd           | Version:  7
     \\/     M anipulation  |
\*---------------------------------------------------------------------------*/
FoamFile
{
    version     2.0;
    format      ascii;
    class       volVectorField;
    location    "0.6525";
    object      U_0;
}
// * * * * * * * * * * * * * * * * * * * * * * * * * * * * * * * * * * * * * //

dimensions      [0 1 -1 0 0 0 0];

internalField   nonuniform List<vector> 
4950
(
(3.51298 0.420322 -27.0263)
(2.80498 0.150679 -27.0592)
(2.05321 0.0453965 -27.0571)
(1.84413 -0.0227192 -27.0598)
(1.56601 -0.043624 -27.0535)
(1.54765 -0.0503632 -27.0545)
(1.39091 -0.0514131 -27.0505)
(1.41391 -0.0503389 -27.0533)
(1.29976 -0.0491025 -27.052)
(1.33086 -0.0478725 -27.0557)
(1.24041 -0.0462855 -27.0561)
(1.2719 -0.0462327 -27.0601)
(1.19803 -0.0431512 -27.061)
(1.22787 -0.0458878 -27.0643)
(1.16588 -0.0369234 -27.0649)
(1.19416 -0.0471006 -27.0663)
(1.13865 -0.0162005 -27.0667)
(1.15436 -0.0453563 -27.0654)
(1.1308 0.0934683 -27.0675)
(0.902806 0.122878 -27.0567)
(4.60249 0.549243 -27.0511)
(4.79581 0.37942 -27.0752)
(4.50549 0.29123 -27.0697)
(4.44927 0.192101 -27.0692)
(4.15655 0.135597 -27.0576)
(4.12382 0.103961 -27.0502)
(3.89842 0.0842401 -27.0403)
(3.89662 0.0728377 -27.0384)
(3.72231 0.0641875 -27.0364)
(3.7374 0.0587115 -27.0396)
(3.5992 0.0534178 -27.0431)
(3.62269 0.051031 -27.0499)
(3.50988 0.0457439 -27.057)
(3.53882 0.0472969 -27.0648)
(3.44179 0.0367231 -27.0723)
(3.48154 0.0470374 -27.0765)
(3.38472 0.0181714 -27.0827)
(3.46768 0.0382188 -27.079)
(3.32946 -0.0156158 -27.088)
(3.67168 -0.0732092 -27.0573)
(4.72205 0.288885 -27.0528)
(5.20743 0.211991 -27.0712)
(5.32569 0.19122 -27.0592)
(5.572 0.131419 -27.0577)
(5.52377 0.0946491 -27.0431)
(5.64859 0.0692876 -27.0323)
(5.56525 0.0510321 -27.0144)
(5.64623 0.0384012 -27.0066)
(5.56343 0.0285613 -26.9985)
(5.62344 0.0206139 -26.9989)
(5.54908 0.0149993 -26.9974)
(5.59544 0.00893795 -27.0016)
(5.53259 0.00647588 -27.006)
(5.56669 0.000519852 -27.0165)
(5.51993 0.00239584 -27.0285)
(5.53347 -0.00541878 -27.0424)
(5.51494 0.00739613 -27.0548)
(5.47623 -0.00447626 -27.0641)
(5.50183 0.039616 -27.072)
(5.35094 0.0549979 -27.0581)
(4.70006 0.169377 -27.0616)
(5.12438 0.131676 -27.0801)
(5.34205 0.124752 -27.0699)
(5.69021 0.0952889 -27.067)
(5.76563 0.0768318 -27.0542)
(5.9946 0.0647079 -27.0416)
(6.01782 0.055868 -27.0235)
(6.1819 0.0500155 -27.0118)
(6.18573 0.0449252 -27.0029)
(6.31117 0.0410834 -27.0006)
(6.30554 0.0373538 -26.9986)
(6.40548 0.0347263 -26.9989)
(6.39302 0.0311895 -26.9997)
(6.47819 0.0302336 -27.0059)
(6.45783 0.0248808 -27.0155)
(6.54186 0.0274392 -27.0318)
(6.50645 0.0157709 -27.0461)
(6.61896 0.0216679 -27.0638)
(6.5552 0.00460147 -27.0727)
(6.79032 -0.0102172 -27.0641)
(4.70142 -9.62882e-09 -27.0568)
(5.12099 7.31283e-08 -27.0737)
(5.3489 3.74502e-08 -27.0605)
(5.71235 3.56006e-07 -27.058)
(5.80295 1.32095e-07 -27.0433)
(6.04827 6.90091e-07 -27.0314)
(6.09094 2.05078e-07 -27.0113)
(6.27398 1.42288e-06 -27.0001)
(6.30065 1.19157e-06 -26.9893)
(6.44512 4.0446e-06 -26.9877)
(6.46401 4.42968e-06 -26.9841)
(6.57891 1.39467e-05 -26.9849)
(6.59413 1.06657e-05 -26.9832)
(6.6828 4.96748e-05 -26.9888)
(6.70213 1.96133e-05 -26.9958)
(6.75761 0.000160763 -27.0129)
(6.79714 5.18425e-05 -27.0264)
(6.78964 0.000433519 -27.0473)
(6.86213 0.000202461 -27.0567)
(6.75347 0.000674678 -27.0507)
(4.70006 -0.169377 -27.0616)
(5.12438 -0.131676 -27.0801)
(5.34205 -0.124752 -27.0699)
(5.69022 -0.0952884 -27.067)
(5.76563 -0.0768315 -27.0542)
(5.9946 -0.0647069 -27.0416)
(6.01782 -0.0558671 -27.0234)
(6.18191 -0.0500137 -27.0118)
(6.18573 -0.0449215 -27.0029)
(6.31118 -0.0410791 -27.0006)
(6.30553 -0.0373408 -26.9985)
(6.4055 -0.0347128 -26.999)
(6.39301 -0.0311547 -26.9996)
(6.47825 -0.0301861 -27.0061)
(6.45786 -0.0248009 -27.0153)
(6.54199 -0.0272749 -27.032)
(6.50661 -0.0155863 -27.0459)
(6.61921 -0.0212153 -27.064)
(6.55567 -0.00396738 -27.0726)
(6.79101 0.011345 -27.0641)
(4.72205 -0.288885 -27.0528)
(5.20743 -0.211991 -27.0712)
(5.32569 -0.19122 -27.0592)
(5.572 -0.131419 -27.0577)
(5.52377 -0.0946487 -27.0431)
(5.6486 -0.0692867 -27.0323)
(5.56525 -0.0510316 -27.0144)
(5.64623 -0.0383993 -27.0066)
(5.56343 -0.0285592 -26.9984)
(5.62346 -0.0206083 -26.999)
(5.54907 -0.0149931 -26.9973)
(5.59549 -0.00891805 -27.0018)
(5.53258 -0.00646467 -27.0057)
(5.56683 -0.000447906 -27.0169)
(5.51994 -0.0023871 -27.0279)
(5.5338 0.00564444 -27.0432)
(5.51515 -0.007393 -27.0538)
(5.47697 0.00505726 -27.0655)
(5.50273 -0.0393989 -27.0701)
(5.35295 -0.0538269 -27.0605)
(4.60249 -0.549243 -27.0511)
(4.79581 -0.37942 -27.0752)
(4.50549 -0.291229 -27.0697)
(4.44927 -0.192101 -27.0692)
(4.15655 -0.135597 -27.0576)
(4.12382 -0.103961 -27.0502)
(3.89842 -0.0842393 -27.0403)
(3.89663 -0.0728374 -27.0384)
(3.72231 -0.0641847 -27.0364)
(3.73742 -0.058711 -27.0397)
(3.5992 -0.0534093 -27.043)
(3.62274 -0.0510287 -27.0501)
(3.50991 -0.0457221 -27.0567)
(3.53895 -0.0472823 -27.0653)
(3.44192 -0.0366736 -27.0716)
(3.48185 -0.0469673 -27.0777)
(3.38519 -0.0180638 -27.0807)
(3.46837 -0.0380163 -27.0822)
(3.33076 0.0159357 -27.0825)
(3.67357 0.0734038 -27.0668)
(3.51298 -0.420322 -27.0263)
(2.80498 -0.150679 -27.0592)
(2.05321 -0.0453964 -27.0571)
(1.84413 0.0227194 -27.0598)
(1.56601 0.0436241 -27.0535)
(1.54766 0.0503635 -27.0545)
(1.39091 0.0514129 -27.0505)
(1.41391 0.0503393 -27.0533)
(1.29976 0.0491018 -27.052)
(1.33087 0.0478735 -27.0558)
(1.24041 0.0462831 -27.056)
(1.27193 0.0462356 -27.0601)
(1.19805 0.0431434 -27.061)
(1.22794 0.0458942 -27.0644)
(1.16596 0.0369048 -27.0647)
(1.19434 0.0471235 -27.0667)
(1.13896 0.0161515 -27.066)
(1.15477 0.0454156 -27.0666)
(1.13172 -0.0934383 -27.0653)
(0.904375 -0.122416 -27.0627)
(4.49878 0.19301 0.00529528)
(3.73443 0.281998 0.00366662)
(3.13307 0.244031 0.00446017)
(2.5487 0.167392 0.00340829)
(2.27669 0.117187 0.00416926)
(1.99468 0.0835673 0.00333524)
(1.91397 0.0676349 0.00401267)
(1.76587 0.058689 0.00330169)
(1.74547 0.0547748 0.00388024)
(1.65042 0.052739 0.00326226)
(1.64615 0.051255 0.00375098)
(1.57766 0.0515857 0.00321375)
(1.57785 0.0489799 0.00362699)
(1.52616 0.052414 0.00316147)
(1.52787 0.0430072 0.00351173)
(1.49071 0.0564003 0.00310811)
(1.48732 0.016078 0.00340899)
(1.49869 0.062335 0.00305286)
(1.42749 -0.124849 0.00335049)
(1.85869 -0.170018 0.00293814)
(4.63539 0.109817 0.00341111)
(4.67047 0.234515 0.00209582)
(4.81467 0.214551 0.00284892)
(4.68331 0.161979 0.0018114)
(4.6608 0.107078 0.00256661)
(4.49205 0.0640004 0.00173029)
(4.44826 0.0353995 0.00240314)
(4.30829 0.0172047 0.00169052)
(4.27405 0.0053113 0.0022656)
(4.16544 -0.0024453 0.00164752)
(4.14077 -0.00783662 0.00213414)
(4.05628 -0.012785 0.00159847)
(4.03958 -0.0141063 0.00200909)
(3.97086 -0.020384 0.00154652)
(3.96404 -0.0146452 0.00188978)
(3.89711 -0.027811 0.00149422)
(3.91466 -0.005497 0.00177156)
(3.80525 -0.0262493 0.00143488)
(3.90371 0.00773859 0.00162769)
(3.4958 0.0655833 0.00124539)
(4.56656 0.0616938 0.00471677)
(4.72714 0.187345 0.0034923)
(5.06503 0.218955 0.00421211)
(5.1818 0.196761 0.00316205)
(5.37834 0.166721 0.00390481)
(5.39876 0.13564 0.00306183)
(5.49607 0.114176 0.00373449)
(5.47822 0.0977091 0.00302163)
(5.53224 0.0861729 0.00359907)
(5.50646 0.077495 0.00298197)
(5.53963 0.070121 0.00347149)
(5.51571 0.0651033 0.00293645)
(5.53561 0.0588563 0.00335218)
(5.51926 0.0568101 0.00288796)
(5.52472 0.0481884 0.00324313)
(5.52721 0.0514388 0.00283745)
(5.50421 0.0286378 0.00315328)
(5.5587 0.0430819 0.0027889)
(5.48602 -0.0355478 0.003138)
(5.63857 -0.0460616 0.00275019)
(4.52405 0.029119 0.00324417)
(4.58966 0.0723833 0.00213721)
(4.95015 0.0767269 0.00284698)
(5.12153 0.0691598 0.00181898)
(5.40178 0.0564584 0.00255846)
(5.50864 0.0441389 0.00171667)
(5.68998 0.0349861 0.00238594)
(5.75267 0.0282577 0.00167194)
(5.87892 0.0233845 0.00224583)
(5.92141 0.0196763 0.00162784)
(6.01586 0.0167059 0.00211379)
(6.0467 0.0138751 0.00157958)
(6.12155 0.0122069 0.00198987)
(6.14239 0.00903594 0.00152953)
(6.20796 0.00953763 0.0018706)
(6.21019 0.00477225 0.0014763)
(6.28199 0.00904944 0.00174599)
(6.22381 0.00475771 0.0014098)
(6.33175 0.00596492 0.00156653)
(6.05397 0.030376 0.00124327)
(4.55627 -1.8926e-08 0.00462769)
(4.67316 4.36892e-08 0.00352198)
(5.00551 7.53523e-09 0.00421963)
(5.16732 2.07478e-07 0.00317506)
(5.43909 6.01221e-08 0.00390926)
(5.5495 4.22791e-07 0.00306227)
(5.73808 2.44897e-07 0.00373274)
(5.81283 1.06274e-06 0.0030185)
(5.95239 1.58011e-06 0.00359547)
(6.01158 2.70558e-06 0.00297798)
(6.12073 5.94122e-06 0.00346755)
(6.17182 6.38243e-06 0.00293279)
(6.25743 1.76128e-05 0.00334878)
(6.30638 1.71649e-05 0.00288495)
(6.36825 4.57164e-05 0.00324061)
(6.42652 4.95371e-05 0.00283456)
(6.45444 0.000119287 0.00315487)
(6.54443 0.000143624 0.00278771)
(6.53876 0.000375938 0.0031553)
(6.64967 0.00054937 0.00277562)
(4.52405 -0.029119 0.00324417)
(4.58966 -0.0723832 0.00213721)
(4.95015 -0.076727 0.00284698)
(5.12153 -0.0691592 0.00181898)
(5.40178 -0.0564585 0.00255846)
(5.50864 -0.0441377 0.00171667)
(5.68998 -0.0349863 0.00238594)
(5.75267 -0.0282542 0.00167194)
(5.87892 -0.0233837 0.00224583)
(5.92142 -0.0196663 0.00162784)
(6.01585 -0.0167014 0.00211379)
(6.04672 -0.0138464 0.00157958)
(6.12154 -0.0121944 0.00198986)
(6.14244 -0.00894856 0.00152953)
(6.20797 -0.00951177 0.00187058)
(6.21031 -0.00450829 0.00147628)
(6.28207 -0.00897862 0.00174597)
(6.22408 -0.00407792 0.00140975)
(6.33216 -0.00563649 0.00156661)
(6.05469 -0.0290106 0.00124313)
(4.56656 -0.0616938 0.00471677)
(4.72714 -0.187345 0.0034923)
(5.06503 -0.218954 0.00421211)
(5.1818 -0.19676 0.00316205)
(5.37834 -0.16672 0.00390481)
(5.39876 -0.135639 0.00306183)
(5.49607 -0.114175 0.00373448)
(5.47822 -0.0977075 0.00302164)
(5.53223 -0.0861695 0.00359906)
(5.50648 -0.0774906 0.00298198)
(5.53963 -0.0701097 0.00347147)
(5.51576 -0.0650916 0.00293648)
(5.53561 -0.058824 0.00335214)
(5.51937 -0.056774 0.00288801)
(5.52475 -0.0481058 0.00324306)
(5.52748 -0.0513197 0.00283755)
(5.50442 -0.0284204 0.00315314)
(5.55929 -0.0427639 0.00278905)
(5.48678 0.0362256 0.00313769)
(5.64005 0.0468007 0.00275021)
(4.63539 -0.109817 0.00341111)
(4.67047 -0.234515 0.00209581)
(4.81467 -0.214551 0.00284892)
(4.68331 -0.161979 0.0018114)
(4.6608 -0.107077 0.00256661)
(4.49205 -0.0639998 0.00173028)
(4.44826 -0.0353991 0.00240314)
(4.3083 -0.0172032 0.00169052)
(4.27405 -0.0053101 0.00226559)
(4.16546 0.00244969 0.00164753)
(4.14077 0.0078396 0.00213413)
(4.05635 0.0127988 0.00159848)
(4.03957 0.0141109 0.00200906)
(3.97104 0.0204302 0.00154656)
(3.96405 0.0146429 0.00188969)
(3.89759 0.0279562 0.00149431)
(3.91478 0.00547661 0.00177139)
(3.80651 0.0266189 0.00143501)
(3.90424 -0.00759665 0.00162747)
(3.49944 -0.0646684 0.00124555)
(4.49878 -0.19301 0.00529527)
(3.73443 -0.281998 0.00366661)
(3.13308 -0.244031 0.00446016)
(2.5487 -0.167392 0.00340828)
(2.27669 -0.117187 0.00416924)
(1.99468 -0.0835673 0.00333523)
(1.91397 -0.0676345 0.00401266)
(1.76587 -0.0586892 0.00330168)
(1.74548 -0.0547735 0.00388023)
(1.65043 -0.0527397 0.00326226)
(1.64617 -0.0512503 0.00375097)
(1.57769 -0.0515881 0.00321376)
(1.57789 -0.0489659 0.00362697)
(1.52625 -0.0524196 0.00316151)
(1.528 -0.0429708 0.00351164)
(1.49092 -0.0564051 0.00310825)
(1.48775 -0.015997 0.00340868)
(1.49921 -0.0623488 0.0030534)
(1.4285 0.124919 0.0033492)
(1.86077 0.169504 0.00294029)
(4.45733 0.0662427 -4.56578e-09)
(4.22724 0.122375 -4.76983e-09)
(3.8526 0.134058 -4.61809e-09)
(3.48861 0.119621 -4.21778e-09)
(3.12997 0.0949471 -4.11417e-09)
(2.83444 0.0709097 -4.24473e-09)
(2.58607 0.0481672 -4.67541e-09)
(2.39526 0.0311514 -4.85554e-09)
(2.24983 0.0168934 -5.03217e-09)
(2.13831 0.00780895 -5.13767e-09)
(2.06082 0.000244528 -5.65561e-09)
(1.99653 -0.00319292 -6.07957e-09)
(1.95673 -0.00742152 -6.46524e-09)
(1.91942 -0.00723667 -6.35943e-09)
(1.89783 -0.0115071 -6.32596e-09)
(1.88239 -0.00708507 -5.98959e-09)
(1.85801 -0.0158988 -5.85535e-09)
(1.88072 -0.00648201 -5.30948e-09)
(1.81768 -0.0272296 -5.10423e-09)
(1.93337 -0.0521262 -4.4377e-09)
(4.51538 0.0583866 -4.8521e-09)
(4.6493 0.112945 -4.94032e-09)
(4.74447 0.145849 -4.98425e-09)
(4.82629 0.157027 -4.99983e-09)
(4.84758 0.153418 -5.19972e-09)
(4.84833 0.138847 -5.43534e-09)
(4.81965 0.12103 -5.51572e-09)
(4.7815 0.101442 -5.03397e-09)
(4.73685 0.0850054 -4.60264e-09)
(4.68743 0.0697833 -4.40648e-09)
(4.64334 0.0589461 -4.86346e-09)
(4.59486 0.0489286 -5.36546e-09)
(4.55774 0.0426895 -5.9591e-09)
(4.51385 0.0360353 -5.96354e-09)
(4.4856 0.0319926 -5.9118e-09)
(4.44656 0.0287448 -5.4441e-09)
(4.42797 0.0232503 -5.41628e-09)
(4.39407 0.0284907 -5.19517e-09)
(4.37953 0.0138646 -5.42662e-09)
(4.35136 0.0369879 -5.14933e-09)
(4.50505 0.0220586 -4.90131e-09)
(4.62632 0.0568928 -4.89363e-09)
(4.74737 0.0840976 -4.62993e-09)
(4.91303 0.0984556 -4.52895e-09)
(5.05498 0.101458 -5.08649e-09)
(5.1965 0.0972516 -5.84066e-09)
(5.3094 0.0879521 -6.21728e-09)
(5.407 0.0778828 -5.76799e-09)
(5.48429 0.0673593 -5.12459e-09)
(5.54581 0.0586273 -4.51892e-09)
(5.59647 0.0505928 -4.54707e-09)
(5.63561 0.0447829 -4.74805e-09)
(5.66969 0.0387873 -5.21394e-09)
(5.69753 0.035524 -5.06161e-09)
(5.72028 0.0293565 -4.6601e-09)
(5.74275 0.029899 -3.88447e-09)
(5.75691 0.0191079 -3.83148e-09)
(5.77597 0.0266808 -3.96643e-09)
(5.78981 0.00398179 -4.92439e-09)
(5.79674 0.00966764 -5.32745e-09)
(4.50344 0.0176611 -4.89806e-09)
(4.60039 0.0346527 -4.89011e-09)
(4.70868 0.0464023 -4.70708e-09)
(4.86948 0.0522192 -4.70096e-09)
(5.02054 0.0541 -5.13171e-09)
(5.18285 0.0523326 -5.56217e-09)
(5.32588 0.0489455 -5.7358e-09)
(5.46026 0.0443222 -5.3563e-09)
(5.57881 0.0400997 -4.98569e-09)
(5.68336 0.035871 -4.69938e-09)
(5.77943 0.0326668 -4.96093e-09)
(5.86177 0.0296502 -5.20806e-09)
(5.94282 0.0274335 -5.50546e-09)
(6.00986 0.0254397 -5.23117e-09)
(6.08228 0.0232506 -4.76008e-09)
(6.13386 0.0230495 -4.03993e-09)
(6.20612 0.0186968 -3.8254e-09)
(6.23005 0.0236049 -3.79304e-09)
(6.31953 0.013248 -4.37404e-09)
(6.28557 0.0285908 -4.75229e-09)
(4.50411 -3.1677e-08 -4.88187e-09)
(4.61281 7.44297e-08 -4.88125e-09)
(4.72214 -5.95202e-08 -4.78557e-09)
(4.88191 2.83297e-07 -4.86073e-09)
(5.02908 -6.68504e-08 -5.18052e-09)
(5.18969 7.23293e-07 -5.28043e-09)
(5.3328 1.10185e-07 -5.17286e-09)
(5.47013 1.81727e-06 -4.81701e-09)
(5.593 1.24696e-06 -4.77273e-09)
(5.70439 4.56003e-06 -4.85624e-09)
(5.80722 4.83249e-06 -5.20251e-09)
(5.89939 1.24623e-05 -5.20498e-09)
(5.98789 1.30455e-05 -5.11877e-09)
(6.0679 3.79885e-05 -4.67115e-09)
(6.1468 2.93719e-05 -4.53168e-09)
(6.21541 0.000112265 -4.46595e-09)
(6.29225 7.65614e-05 -4.81482e-09)
(6.3378 0.000276349 -5.02875e-09)
(6.43854 0.000283097 -5.27132e-09)
(6.42769 0.000552961 -4.87965e-09)
(4.50344 -0.0176612 -4.86191e-09)
(4.60039 -0.0346525 -4.8776e-09)
(4.70868 -0.0464025 -4.88163e-09)
(4.86948 -0.0522186 -5.02478e-09)
(5.02054 -0.0541001 -5.19362e-09)
(5.18285 -0.0523311 -4.93358e-09)
(5.32588 -0.0489456 -4.56188e-09)
(5.46026 -0.0443183 -4.27961e-09)
(5.57881 -0.0400982 -4.60462e-09)
(5.68337 -0.0358606 -5.03909e-09)
(5.77943 -0.0326607 -5.40713e-09)
(5.86178 -0.0296205 -5.11567e-09)
(5.94282 -0.0274179 -4.66198e-09)
(6.00989 -0.0253513 -4.15392e-09)
(6.08231 -0.0232169 -4.47674e-09)
(6.13391 -0.0228003 -5.11799e-09)
(6.20623 -0.0185923 -5.97448e-09)
(6.23017 -0.023021 -6.28283e-09)
(6.31987 -0.0127666 -6.05086e-09)
(6.28593 -0.0274711 -4.951e-09)
(4.50505 -0.0220587 -4.85612e-09)
(4.62632 -0.0568927 -4.89851e-09)
(4.74737 -0.0840977 -4.99876e-09)
(4.91303 -0.0984552 -5.18879e-09)
(5.05498 -0.101458 -5.12521e-09)
(5.1965 -0.0972504 -4.49136e-09)
(5.3094 -0.0879517 -4.01014e-09)
(5.40701 -0.0778797 -3.98042e-09)
(5.48428 -0.067357 -4.6835e-09)
(5.54583 -0.058619 -5.34386e-09)
(5.59645 -0.0505846 -5.73043e-09)
(5.63565 -0.0447602 -5.33218e-09)
(5.66968 -0.038766 -4.78088e-09)
(5.69764 -0.0354553 -4.4295e-09)
(5.72031 -0.0293111 -4.93999e-09)
(5.74296 -0.029698 -5.67798e-09)
(5.7571 -0.0189929 -6.14848e-09)
(5.77643 -0.0261934 -6.00996e-09)
(5.79053 -0.00353431 -5.15964e-09)
(5.79784 -0.00874446 -4.32659e-09)
(4.51538 -0.0583866 -4.89625e-09)
(4.6493 -0.112945 -4.8811e-09)
(4.74447 -0.145849 -4.72316e-09)
(4.82629 -0.157026 -4.71893e-09)
(4.84758 -0.153418 -4.82123e-09)
(4.84833 -0.138847 -4.64949e-09)
(4.81965 -0.121029 -4.64957e-09)
(4.78151 -0.10144 -4.89508e-09)
(4.73685 -0.0850034 -5.45371e-09)
(4.68746 -0.0697775 -5.56141e-09)
(4.64332 -0.0589413 -5.3208e-09)
(4.59495 -0.0489098 -4.55177e-09)
(4.55771 -0.0426819 -4.03632e-09)
(4.51408 -0.0359744 -3.75218e-09)
(4.48558 -0.0319865 -4.05659e-09)
(4.4471 -0.0285711 -4.32733e-09)
(4.42809 -0.0232265 -4.53968e-09)
(4.39524 -0.0281048 -4.62376e-09)
(4.38023 -0.0136324 -4.43594e-09)
(4.35406 -0.0363249 -4.90208e-09)
(4.45733 -0.0662427 -4.93661e-09)
(4.22724 -0.122375 -4.76286e-09)
(3.8526 -0.134058 -4.77347e-09)
(3.48861 -0.119621 -5.21725e-09)
(3.12997 -0.0949469 -5.66401e-09)
(2.83444 -0.0709097 -5.63798e-09)
(2.58607 -0.0481666 -5.37194e-09)
(2.39526 -0.0311516 -4.99487e-09)
(2.24984 -0.0168913 -4.82685e-09)
(2.13833 -0.00780954 -4.44903e-09)
(2.06084 -0.000238749 -4.068e-09)
(1.99659 0.00319221 -3.48136e-09)
(1.95678 0.0074341 -3.33976e-09)
(1.91956 0.00724096 -3.262e-09)
(1.89799 0.0115283 -3.57755e-09)
(1.88274 0.0071136 -3.70289e-09)
(1.85844 0.0159344 -4.11819e-09)
(1.88175 0.00656034 -4.4307e-09)
(1.81841 0.0273462 -4.97186e-09)
(1.93704 0.0521104 -5.42558e-09)
(4.49878 0.19301 -0.00529527)
(3.73443 0.281998 -0.00366662)
(3.13307 0.244031 -0.00446016)
(2.5487 0.167392 -0.00340829)
(2.27669 0.117187 -0.00416925)
(1.99468 0.0835672 -0.00333524)
(1.91397 0.0676349 -0.00401267)
(1.76587 0.058689 -0.00330169)
(1.74547 0.0547748 -0.00388024)
(1.65042 0.0527389 -0.00326226)
(1.64615 0.0512549 -0.00375098)
(1.57766 0.0515856 -0.00321375)
(1.57785 0.0489798 -0.00362699)
(1.52616 0.0524139 -0.00316147)
(1.52787 0.0430071 -0.00351173)
(1.49071 0.0564002 -0.00310811)
(1.48732 0.0160779 -0.00340899)
(1.49869 0.062335 -0.00305285)
(1.42749 -0.124849 -0.00335049)
(1.85869 -0.170018 -0.00293814)
(4.63539 0.109817 -0.00341112)
(4.67047 0.234515 -0.00209582)
(4.81467 0.214551 -0.00284893)
(4.68331 0.161979 -0.00181141)
(4.6608 0.107078 -0.00256662)
(4.49205 0.0640003 -0.00173029)
(4.44826 0.0353995 -0.00240315)
(4.30829 0.0172048 -0.00169053)
(4.27405 0.00531134 -0.0022656)
(4.16544 -0.00244521 -0.00164753)
(4.14077 -0.00783646 -0.00213414)
(4.05628 -0.0127848 -0.00159848)
(4.03958 -0.014106 -0.0020091)
(3.97086 -0.0203837 -0.00154653)
(3.96404 -0.0146449 -0.00188979)
(3.89711 -0.0278108 -0.00149423)
(3.91466 -0.00549686 -0.00177158)
(3.80525 -0.0262492 -0.00143489)
(3.90371 0.00773855 -0.0016277)
(3.4958 0.0655832 -0.0012454)
(4.56656 0.0616938 -0.00471677)
(4.72714 0.187345 -0.00349231)
(5.06503 0.218955 -0.00421212)
(5.1818 0.196761 -0.00316206)
(5.37834 0.166721 -0.00390482)
(5.39876 0.13564 -0.00306184)
(5.49607 0.114176 -0.00373449)
(5.47822 0.0977092 -0.00302164)
(5.53224 0.086173 -0.00359908)
(5.50646 0.0774949 -0.00298198)
(5.53963 0.0701209 -0.0034715)
(5.51571 0.0651032 -0.00293646)
(5.53561 0.0588562 -0.00335219)
(5.51925 0.0568101 -0.00288797)
(5.52472 0.0481883 -0.00324314)
(5.52721 0.0514387 -0.00283746)
(5.50421 0.0286376 -0.00315329)
(5.5587 0.0430818 -0.00278891)
(5.48602 -0.0355478 -0.00313801)
(5.63858 -0.0460615 -0.0027502)
(4.52405 0.029119 -0.00324417)
(4.58966 0.0723833 -0.00213722)
(4.95015 0.0767269 -0.00284699)
(5.12153 0.0691597 -0.00181898)
(5.40178 0.0564584 -0.00255847)
(5.50864 0.044139 -0.00171667)
(5.68998 0.0349863 -0.00238595)
(5.75267 0.0282579 -0.00167195)
(5.87892 0.0233847 -0.00224584)
(5.92141 0.0196765 -0.00162785)
(6.01586 0.016706 -0.0021138)
(6.0467 0.0138753 -0.00157958)
(6.12155 0.0122071 -0.00198988)
(6.14239 0.00903611 -0.00152954)
(6.20796 0.00953771 -0.00187061)
(6.21019 0.00477215 -0.00147631)
(6.28199 0.00904921 -0.001746)
(6.22381 0.0047574 -0.00140981)
(6.33175 0.00596466 -0.00156654)
(6.05397 0.0303759 -0.00124328)
(4.55627 -2.0955e-08 -0.0046277)
(4.67316 4.06654e-08 -0.00352199)
(5.00551 -1.21425e-08 -0.00421964)
(5.16732 1.74223e-07 -0.00317507)
(5.43909 7.0514e-08 -0.00390927)
(5.5495 5.37174e-07 -0.00306227)
(5.73808 4.42153e-07 -0.00373275)
(5.81283 1.24482e-06 -0.00301851)
(5.95239 1.67025e-06 -0.00359548)
(6.01158 2.68785e-06 -0.00297799)
(6.12073 5.8681e-06 -0.00346755)
(6.17182 6.30859e-06 -0.00293279)
(6.25743 1.75643e-05 -0.00334879)
(6.30638 1.71155e-05 -0.00288495)
(6.36825 4.55988e-05 -0.00324062)
(6.42652 4.93103e-05 -0.00283456)
(6.45444 0.000118974 -0.00315488)
(6.54443 0.000143311 -0.00278772)
(6.53876 0.000375683 -0.0031553)
(6.64967 0.000549327 -0.00277563)
(4.52405 -0.029119 -0.00324417)
(4.58966 -0.0723832 -0.00213722)
(4.95015 -0.076727 -0.00284699)
(5.12153 -0.0691593 -0.00181898)
(5.40178 -0.0564585 -0.00255847)
(5.50864 -0.0441376 -0.00171668)
(5.68998 -0.0349861 -0.00238594)
(5.75267 -0.028254 -0.00167195)
(5.87892 -0.0233835 -0.00224584)
(5.92142 -0.0196662 -0.00162785)
(6.01585 -0.0167013 -0.0021138)
(6.04672 -0.0138462 -0.00157959)
(6.12154 -0.0121942 -0.00198987)
(6.14244 -0.00894839 -0.00152954)
(6.20797 -0.0095117 -0.00187059)
(6.21031 -0.00450839 -0.00147629)
(6.28207 -0.00897885 -0.00174597)
(6.22408 -0.00407822 -0.00140976)
(6.33216 -0.00563673 -0.00156662)
(6.05469 -0.0290107 -0.00124313)
(4.56656 -0.0616938 -0.00471677)
(4.72714 -0.187345 -0.00349231)
(5.06503 -0.218954 -0.00421212)
(5.1818 -0.19676 -0.00316206)
(5.37834 -0.16672 -0.00390482)
(5.39876 -0.135639 -0.00306184)
(5.49607 -0.114175 -0.00373449)
(5.47822 -0.0977074 -0.00302164)
(5.53223 -0.0861695 -0.00359907)
(5.50648 -0.0774906 -0.00298199)
(5.53963 -0.0701098 -0.00347148)
(5.51576 -0.0650917 -0.00293649)
(5.53561 -0.0588241 -0.00335215)
(5.51937 -0.056774 -0.00288801)
(5.52475 -0.048106 -0.00324306)
(5.52748 -0.0513199 -0.00283755)
(5.50441 -0.0284206 -0.00315315)
(5.55929 -0.042764 -0.00278905)
(5.48678 0.0362256 -0.0031377)
(5.64005 0.0468008 -0.00275021)
(4.63539 -0.109817 -0.00341112)
(4.67047 -0.234515 -0.00209582)
(4.81467 -0.214551 -0.00284893)
(4.68331 -0.161979 -0.00181141)
(4.6608 -0.107077 -0.00256662)
(4.49205 -0.0639998 -0.00173029)
(4.44826 -0.0353991 -0.00240315)
(4.3083 -0.0172032 -0.00169053)
(4.27405 -0.00531007 -0.0022656)
(4.16546 0.00244977 -0.00164753)
(4.14077 0.00783976 -0.00213413)
(4.05635 0.0127991 -0.00159849)
(4.03957 0.0141112 -0.00200906)
(3.97104 0.0204305 -0.00154657)
(3.96405 0.0146432 -0.0018897)
(3.89759 0.0279564 -0.00149431)
(3.91478 0.00547677 -0.00177139)
(3.80651 0.026619 -0.00143502)
(3.90424 -0.00759664 -0.00162748)
(3.49944 -0.0646686 -0.00124555)
(4.49878 -0.19301 -0.00529528)
(3.73443 -0.281998 -0.00366663)
(3.13308 -0.244031 -0.00446017)
(2.5487 -0.167392 -0.0034083)
(2.27669 -0.117187 -0.00416926)
(1.99468 -0.0835673 -0.00333525)
(1.91397 -0.0676345 -0.00401268)
(1.76587 -0.0586892 -0.0033017)
(1.74548 -0.0547735 -0.00388024)
(1.65043 -0.0527397 -0.00326227)
(1.64617 -0.0512504 -0.00375099)
(1.5777 -0.0515882 -0.00321378)
(1.57789 -0.048966 -0.00362698)
(1.52625 -0.0524197 -0.00316152)
(1.528 -0.0429709 -0.00351166)
(1.49092 -0.0564052 -0.00310826)
(1.48775 -0.0159971 -0.00340869)
(1.49921 -0.0623489 -0.00305342)
(1.4285 0.124919 -0.00334922)
(1.86077 0.169504 -0.00294031)
(3.51298 0.420322 27.0263)
(2.80498 0.150679 27.0592)
(2.05321 0.0453964 27.0571)
(1.84413 -0.0227193 27.0598)
(1.56601 -0.0436241 27.0535)
(1.54765 -0.0503633 27.0545)
(1.39091 -0.0514131 27.0505)
(1.41391 -0.0503389 27.0533)
(1.29976 -0.0491024 27.052)
(1.33086 -0.0478723 27.0557)
(1.24041 -0.0462853 27.0561)
(1.2719 -0.0462325 27.0601)
(1.19803 -0.043151 27.061)
(1.22787 -0.0458875 27.0643)
(1.16587 -0.0369232 27.0649)
(1.19416 -0.0471004 27.0663)
(1.13865 -0.0162004 27.0667)
(1.15436 -0.0453563 27.0654)
(1.1308 0.0934683 27.0675)
(0.902805 0.122878 27.0567)
(4.60249 0.549243 27.0511)
(4.79581 0.37942 27.0752)
(4.50549 0.29123 27.0697)
(4.44927 0.192101 27.0692)
(4.15655 0.135597 27.0576)
(4.12382 0.103961 27.0502)
(3.89842 0.0842401 27.0403)
(3.89662 0.0728377 27.0384)
(3.72231 0.0641876 27.0364)
(3.7374 0.0587115 27.0396)
(3.59919 0.0534179 27.043)
(3.62268 0.0510311 27.0499)
(3.50988 0.045744 27.057)
(3.53881 0.047297 27.0648)
(3.44179 0.0367232 27.0723)
(3.48154 0.0470375 27.0765)
(3.38472 0.0181715 27.0827)
(3.46768 0.0382188 27.079)
(3.32946 -0.0156157 27.088)
(3.67168 -0.0732092 27.0573)
(4.72205 0.288885 27.0528)
(5.20743 0.211991 27.0712)
(5.32569 0.19122 27.0592)
(5.572 0.131419 27.0577)
(5.52377 0.0946488 27.0431)
(5.64859 0.0692875 27.0323)
(5.56525 0.0510321 27.0144)
(5.64623 0.0384014 27.0066)
(5.56343 0.0285616 26.9985)
(5.62344 0.0206142 26.9989)
(5.54908 0.0149998 26.9974)
(5.59544 0.00893841 27.0016)
(5.53259 0.00647639 27.006)
(5.56668 0.000520398 27.0165)
(5.51992 0.00239639 27.0285)
(5.53347 -0.00541829 27.0424)
(5.51494 0.00739656 27.0548)
(5.47623 -0.00447591 27.0641)
(5.50183 0.0396162 27.072)
(5.35094 0.0549981 27.0581)
(4.70006 0.169377 27.0616)
(5.12438 0.131676 27.0801)
(5.34205 0.124752 27.0699)
(5.69021 0.0952887 27.067)
(5.76563 0.0768317 27.0542)
(5.9946 0.0647078 27.0416)
(6.01782 0.055868 27.0235)
(6.1819 0.0500157 27.0118)
(6.18573 0.0449254 27.0029)
(6.31117 0.0410837 27.0006)
(6.30554 0.0373541 26.9986)
(6.40548 0.0347264 26.9989)
(6.39302 0.0311897 26.9997)
(6.47819 0.0302337 27.0059)
(6.45783 0.024881 27.0155)
(6.54186 0.0274394 27.0318)
(6.50645 0.0157711 27.0461)
(6.61896 0.0216682 27.0638)
(6.5552 0.00460168 27.0727)
(6.79032 -0.0102168 27.0641)
(4.70142 -1.93877e-08 27.0568)
(5.12099 5.94746e-08 27.0737)
(5.3489 -6.29835e-08 27.0605)
(5.71235 1.37313e-07 27.058)
(5.80295 -1.14341e-07 27.0433)
(6.04827 5.51302e-07 27.0314)
(6.09094 2.44935e-07 27.0113)
(6.27398 1.65929e-06 27.0001)
(6.30065 1.59013e-06 26.9893)
(6.44512 4.53381e-06 26.9877)
(6.46401 4.94644e-06 26.9841)
(6.57891 1.44445e-05 26.9849)
(6.59413 1.11865e-05 26.9832)
(6.6828 5.0228e-05 26.9888)
(6.70213 2.02561e-05 26.9958)
(6.75761 0.000161396 27.0129)
(6.79714 5.25247e-05 27.0264)
(6.78964 0.000434086 27.0473)
(6.86213 0.000202782 27.0567)
(6.75347 0.000674991 27.0507)
(4.70006 -0.169377 27.0616)
(5.12438 -0.131676 27.0801)
(5.34205 -0.124752 27.0699)
(5.69022 -0.0952885 27.067)
(5.76563 -0.0768317 27.0542)
(5.9946 -0.064707 27.0416)
(6.01782 -0.0558671 27.0234)
(6.18191 -0.0500135 27.0118)
(6.18573 -0.0449212 27.0029)
(6.31118 -0.0410788 27.0006)
(6.30554 -0.0373405 26.9985)
(6.4055 -0.0347127 26.999)
(6.39301 -0.0311545 26.9996)
(6.47825 -0.0301859 27.0061)
(6.45786 -0.0248007 27.0153)
(6.54199 -0.0272746 27.032)
(6.50662 -0.015586 27.0459)
(6.61921 -0.021215 27.064)
(6.55567 -0.00396717 27.0726)
(6.79101 0.0113454 27.0641)
(4.72205 -0.288885 27.0528)
(5.20743 -0.211991 27.0712)
(5.32569 -0.19122 27.0592)
(5.572 -0.131419 27.0577)
(5.52377 -0.0946489 27.0431)
(5.6486 -0.0692869 27.0323)
(5.56525 -0.0510315 27.0144)
(5.64624 -0.0383991 27.0066)
(5.56343 -0.0285589 26.9984)
(5.62346 -0.0206079 26.999)
(5.54907 -0.0149927 26.9973)
(5.59549 -0.00891761 27.0018)
(5.53258 -0.00646416 27.0057)
(5.56683 -0.000447333 27.0169)
(5.51994 -0.00238652 27.0279)
(5.5338 0.00564495 27.0432)
(5.51515 -0.00739255 27.0538)
(5.47697 0.00505759 27.0655)
(5.50273 -0.0393985 27.0701)
(5.35295 -0.0538267 27.0605)
(4.60249 -0.549243 27.0511)
(4.79581 -0.37942 27.0752)
(4.50549 -0.291229 27.0697)
(4.44927 -0.192101 27.0692)
(4.15655 -0.135597 27.0576)
(4.12382 -0.103961 27.0502)
(3.89842 -0.0842393 27.0403)
(3.89663 -0.0728374 27.0384)
(3.72232 -0.0641846 27.0364)
(3.73742 -0.0587109 27.0397)
(3.5992 -0.0534092 27.043)
(3.62274 -0.0510286 27.0501)
(3.50991 -0.0457219 27.0567)
(3.53895 -0.0472822 27.0653)
(3.44192 -0.0366735 27.0716)
(3.48185 -0.0469672 27.0777)
(3.38519 -0.0180636 27.0807)
(3.46837 -0.0380162 27.0822)
(3.33076 0.0159358 27.0825)
(3.67357 0.0734038 27.0668)
(3.51298 -0.420322 27.0263)
(2.80498 -0.150678 27.0592)
(2.05321 -0.0453964 27.0571)
(1.84413 0.0227193 27.0598)
(1.56601 0.043624 27.0535)
(1.54766 0.0503634 27.0545)
(1.39091 0.0514129 27.0505)
(1.41391 0.0503393 27.0533)
(1.29976 0.0491019 27.052)
(1.33087 0.0478736 27.0558)
(1.24041 0.0462832 27.056)
(1.27193 0.0462358 27.0601)
(1.19805 0.0431436 27.061)
(1.22794 0.0458945 27.0644)
(1.16596 0.0369051 27.0647)
(1.19434 0.0471236 27.0667)
(1.13896 0.0161516 27.066)
(1.15477 0.0454157 27.0666)
(1.13172 -0.0934384 27.0653)
(0.904375 -0.122416 27.0627)
(1.04272 -0.156004 -27.084)
(1.14792 -0.143542 -27.1887)
(1.10791 -0.113578 -27.2713)
(1.12714 -0.110494 -27.349)
(1.09766 -0.110475 -27.4099)
(1.11269 -0.110636 -27.4555)
(1.08919 -0.111085 -27.4833)
(1.10093 -0.111082 -27.5011)
(1.08118 -0.111269 -27.5101)
(1.09006 -0.111168 -27.5156)
(1.07248 -0.111252 -27.5179)
(1.0787 -0.11115 -27.5195)
(1.06216 -0.111206 -27.52)
(1.06582 -0.111128 -27.5206)
(1.04948 -0.111178 -27.5207)
(1.05058 -0.111126 -27.5211)
(1.03383 -0.111178 -27.5213)
(1.03234 -0.111148 -27.5217)
(1.01471 -0.111203 -27.5219)
(1.01061 -0.111192 -27.5223)
(0.991776 -0.111252 -27.5226)
(0.985081 -0.111256 -27.5229)
(0.964918 -0.11132 -27.5233)
(0.955844 -0.111335 -27.5237)
(0.934562 -0.111402 -27.5241)
(0.923621 -0.111425 -27.5246)
(0.901743 -0.111493 -27.525)
(0.889664 -0.111521 -27.5255)
(0.867863 -0.111587 -27.526)
(0.855405 -0.111614 -27.5265)
(0.834359 -0.111674 -27.527)
(0.82225 -0.111696 -27.5275)
(0.802648 -0.111746 -27.528)
(0.791647 -0.11176 -27.5285)
(0.774191 -0.111797 -27.529)
(0.765015 -0.1118 -27.5295)
(0.75023 -0.111824 -27.5299)
(0.743281 -0.111816 -27.5304)
(0.731238 -0.111827 -27.5308)
(0.726392 -0.111809 -27.5312)
(0.716653 -0.11181 -27.5316)
(0.713384 -0.111785 -27.5319)
(0.705264 -0.111778 -27.5323)
(0.702961 -0.111748 -27.5327)
(0.695823 -0.111738 -27.533)
(0.693967 -0.111709 -27.5333)
(0.68732 -0.111699 -27.5337)
(0.685501 -0.111674 -27.534)
(0.679008 -0.111668 -27.5344)
(0.676943 -0.111648 -27.5348)
(0.670463 -0.111646 -27.5351)