/*--------------------------------*- C++ -*----------------------------------*\
  =========                 |
  \\      /  F ield         | OpenFOAM: The Open Source CFD Toolbox
   \\    /   O peration     | Website:  https://openfoam.org
    \\  /    A nd           | Version:  7
     \\/     M anipulation  |
\*---------------------------------------------------------------------------*/
FoamFile
{
    version     2.0;
    format      ascii;
    class       volVectorField;
    location    "2.9075";
    object      U_0;
}
// * * * * * * * * * * * * * * * * * * * * * * * * * * * * * * * * * * * * * //

dimensions      [0 1 -1 0 0 0 0];

internalField   nonuniform List<vector> 
7920
(
(2.9299 0.101908 -32.3846)
(2.10466 -0.462226 -32.439)
(1.39236 -0.616812 -32.4407)
(1.28381 -0.673073 -32.4504)
(1.04965 -0.689902 -32.4468)
(1.07555 -0.694858 -32.4526)
(0.934961 -0.698964 -32.4492)
(0.980226 -0.699166 -32.4533)
(0.87523 -0.701402 -32.4506)
(0.920128 -0.70115 -32.4538)
(0.836642 -0.70271 -32.4517)
(0.877305 -0.702198 -32.4542)
(0.80933 -0.703166 -32.4526)
(0.845058 -0.702588 -32.4545)
(0.788985 -0.702949 -32.4536)
(0.819782 -0.70303 -32.4547)
(0.772232 -0.699086 -32.4549)
(0.793694 -0.705585 -32.4543)
(0.759061 -0.647044 -32.4578)
(0.58774 -0.659718 -32.4477)
(4.41116 0.967679 -32.4314)
(4.33346 0.872995 -32.477)
(3.68092 0.818722 -32.4813)
(3.53303 0.751685 -32.4944)
(3.13339 0.72403 -32.4939)
(3.12792 0.710685 -32.5008)
(2.86548 0.704177 -32.4992)
(2.90747 0.700737 -32.5033)
(2.71193 0.698671 -32.5021)
(2.76422 0.696981 -32.5049)
(2.60936 0.695892 -32.5039)
(2.66104 0.694712 -32.5059)
(2.535 0.694029 -32.5055)
(2.58276 0.693066 -32.5068)
(2.4784 0.692425 -32.5075)
(2.52297 0.692478 -32.5072)
(2.43009 0.689266 -32.5105)
(2.49093 0.694105 -32.5052)
(2.37052 0.684459 -32.5186)
(2.64655 0.676387 -32.4798)
(4.75171 0.193195 -32.4358)
(5.25783 -0.229124 -32.4715)
(5.11308 -0.375259 -32.464)
(5.22462 -0.493862 -32.4763)
(4.97999 -0.5589 -32.4715)
(5.02991 -0.595648 -32.4806)
(4.81565 -0.620141 -32.4766)
(4.85829 -0.633991 -32.4834)
(4.68195 -0.64459 -32.4801)
(4.72239 -0.651266 -32.4852)
(4.57754 -0.65672 -32.4828)
(4.61526 -0.660749 -32.4866)
(4.4955 -0.663883 -32.4855)
(4.52959 -0.666607 -32.488)
(4.43081 -0.668706 -32.4887)
(4.45781 -0.669685 -32.489)
(4.38318 -0.672924 -32.4932)
(4.38336 -0.668839 -32.4884)
(4.35711 -0.669667 -32.5006)
(4.26188 -0.691057 -32.4687)
(4.75276 0.649447 -32.4458)
(5.28415 0.749757 -32.4785)
(5.38467 0.797087 -32.469)
(5.68979 0.767436 -32.4775)
(5.63101 0.749578 -32.4722)
(5.80278 0.735264 -32.4791)
(5.70913 0.72495 -32.4754)
(5.82164 0.716935 -32.4805)
(5.72713 0.710875 -32.4779)
(5.80835 0.705273 -32.4817)
(5.72177 0.701319 -32.4801)
(5.78411 0.697146 -32.4827)
(5.70693 0.694652 -32.4823)
(5.75767 0.691185 -32.4837)
(5.68781 0.690324 -32.4848)
(5.73473 0.686357 -32.485)
(5.66432 0.689318 -32.488)
(5.72587 0.682086 -32.4862)
(5.63642 0.696743 -32.4919)
(5.7786 0.707013 -32.4664)
(4.74483 -0.0881729 -32.4449)
(5.24766 -0.387244 -32.4774)
(5.40539 -0.480004 -32.4646)
(5.76607 -0.545945 -32.4731)
(5.77682 -0.581888 -32.4651)
(6.00897 -0.601977 -32.472)
(5.98218 -0.616313 -32.4662)
(6.14751 -0.62432 -32.4716)
(6.11227 -0.631248 -32.4673)
(6.2372 -0.635637 -32.4714)
(6.20117 -0.639846 -32.4683)
(6.2985 -0.642892 -32.4715)
(6.26404 -0.646001 -32.4694)
(6.34138 -0.64789 -32.4719)
(6.30983 -0.651462 -32.4709)
(6.37069 -0.650021 -32.4728)
(6.34656 -0.659233 -32.473)
(6.38497 -0.648073 -32.4745)
(6.38144 -0.671582 -32.4757)
(6.38054 -0.693695 -32.4544)
(4.73231 0.352133 -32.4485)
(5.19097 0.557278 -32.4817)
(5.35874 0.635789 -32.4687)
(5.73487 0.65601 -32.4772)
(5.76948 0.666286 -32.4687)
(6.02538 0.66963 -32.4755)
(6.02538 0.671808 -32.4691)
(6.21526 0.671911 -32.4744)
(6.20737 0.67224 -32.4695)
(6.35581 0.671491 -32.4735)
(6.3459 0.671367 -32.4699)
(6.46468 0.670487 -32.473)
(6.45388 0.670527 -32.4704)
(6.55044 0.669264 -32.4729)
(6.53879 0.670626 -32.4713)
(6.61869 0.667007 -32.4735)
(6.6069 0.67438 -32.4727)
(6.67423 0.663364 -32.4749)
(6.66676 0.686902 -32.4749)
(6.73167 0.709064 -32.4532)
(4.73231 -0.352133 -32.4485)
(5.19097 -0.557278 -32.4817)
(5.35874 -0.635789 -32.4687)
(5.73487 -0.65601 -32.4772)
(5.76948 -0.666286 -32.4687)
(6.02538 -0.669628 -32.4755)
(6.02538 -0.671807 -32.4691)
(6.21526 -0.671907 -32.4744)
(6.20737 -0.672236 -32.4695)
(6.35581 -0.671483 -32.4735)
(6.34591 -0.671352 -32.4698)
(6.46468 -0.670465 -32.473)
(6.4539 -0.670482 -32.4703)
(6.55042 -0.669184 -32.4729)
(6.53887 -0.670535 -32.4712)
(6.61864 -0.6667 -32.4735)
(6.60711 -0.674234 -32.4727)
(6.67409 -0.662425 -32.4749)
(6.66708 -0.686382 -32.4749)
(6.73141 -0.707288 -32.4532)
(4.74483 0.0881729 -32.4449)
(5.24766 0.387244 -32.4774)
(5.40539 0.480004 -32.4646)
(5.76607 0.545945 -32.4731)
(5.77682 0.581888 -32.4651)
(6.00897 0.601978 -32.472)
(5.98218 0.616314 -32.4662)
(6.14751 0.624323 -32.4716)
(6.11227 0.631253 -32.4672)
(6.23721 0.635644 -32.4715)
(6.20115 0.639863 -32.4682)
(6.29854 0.642908 -32.4716)
(6.26402 0.64605 -32.4693)
(6.34149 0.647954 -32.472)
(6.3098 0.651563 -32.4707)
(6.37096 0.650292 -32.4731)
(6.34664 0.659394 -32.4726)
(6.38564 0.648982 -32.4749)
(6.38206 0.672081 -32.4752)
(6.38231 0.695615 -32.4547)
(4.75276 -0.649447 -32.4458)
(5.28415 -0.749757 -32.4785)
(5.38467 -0.797087 -32.469)
(5.68979 -0.767436 -32.4775)
(5.63101 -0.749578 -32.4722)
(5.80278 -0.735262 -32.4791)
(5.70913 -0.724949 -32.4753)
(5.82164 -0.716931 -32.4806)
(5.72713 -0.710872 -32.4779)
(5.80837 -0.705264 -32.4818)
(5.72178 -0.701309 -32.48)
(5.78415 -0.697123 -32.4829)
(5.70695 -0.694621 -32.482)
(5.75779 -0.691108 -32.4842)
(5.68792 -0.69027 -32.4841)
(5.735 -0.686078 -32.486)
(5.66478 -0.689269 -32.4865)
(5.72639 -0.681274 -32.4882)
(5.63777 -0.696481 -32.4892)
(5.77979 -0.705669 -32.4698)
(4.75171 -0.193195 -32.4358)
(5.25783 0.229124 -32.4715)
(5.11308 0.37526 -32.464)
(5.22462 0.493862 -32.4763)
(4.97999 0.5589 -32.4715)
(5.02991 0.595648 -32.4807)
(4.81564 0.620142 -32.4765)
(4.85829 0.633992 -32.4834)
(4.68195 0.644594 -32.48)
(4.72241 0.651267 -32.4853)
(4.57754 0.656734 -32.4827)
(4.61535 0.66075 -32.4869)
(4.4955 0.663923 -32.4851)
(4.52982 0.666624 -32.4886)
(4.43085 0.668789 -32.4876)
(4.45842 0.669804 -32.4907)
(4.38353 0.673057 -32.4904)
(4.38488 0.669365 -32.493)
(4.35862 0.670011 -32.4931)
(4.26634 0.692248 -32.4804)
(4.41116 -0.967679 -32.4314)
(4.33346 -0.872995 -32.477)
(3.68092 -0.818722 -32.4813)
(3.53303 -0.751685 -32.4944)
(3.1334 -0.72403 -32.4939)
(3.12792 -0.710684 -32.5008)
(2.86548 -0.704177 -32.4992)
(2.90748 -0.700735 -32.5033)
(2.71193 -0.698671 -32.5021)
(2.76424 -0.696976 -32.5049)
(2.60938 -0.69589 -32.5038)
(2.6611 -0.694699 -32.5061)
(2.53504 -0.694022 -32.5053)
(2.58294 -0.693021 -32.5072)
(2.47856 -0.692422 -32.5068)
(2.52337 -0.692315 -32.5084)
(2.4308 -0.689341 -32.5083)
(2.49154 -0.693663 -32.5096)
(2.37291 -0.684732 -32.5092)
(2.64709 -0.676518 -32.5006)
(2.9299 -0.101908 -32.3846)
(2.10466 0.462226 -32.439)
(1.39236 0.616812 -32.4407)
(1.28381 0.673073 -32.4504)
(1.04965 0.689903 -32.4468)
(1.07555 0.694857 -32.4526)
(0.934962 0.698964 -32.4492)
(0.980229 0.699165 -32.4533)
(0.875234 0.701403 -32.4506)
(0.920137 0.701147 -32.4538)
(0.83665 0.702714 -32.4517)
(0.877337 0.702188 -32.4542)
(0.809348 0.703176 -32.4526)
(0.845152 0.702558 -32.4546)
(0.78905 0.70298 -32.4534)
(0.820007 0.702942 -32.4551)
(0.772549 0.699213 -32.4543)
(0.794139 0.705427 -32.4556)
(0.760332 0.647688 -32.4549)
(0.589809 0.660475 -32.4553)
(4.32458 0.566032 0.0069214)
(3.07874 0.847769 0.00445386)
(2.31441 0.869689 0.00572662)
(1.7473 0.852925 0.00425048)
(1.60893 0.855662 0.005396)
(1.40492 0.867502 0.00422798)
(1.39807 0.877491 0.00518368)
(1.27613 0.885575 0.00420334)
(1.28308 0.889843 0.00498551)
(1.19687 0.893506 0.0041585)
(1.20475 0.895243 0.00479995)
(1.14174 0.897287 0.00410574)
(1.14801 0.898059 0.00463275)
(1.09997 0.899525 0.00405192)
(1.10509 0.899373 0.00448411)
(1.06501 0.901776 0.00399828)
(1.07193 0.89429 0.00435326)
(1.0488 0.916032 0.00394232)
(1.00411 0.792316 0.00426508)
(1.44613 0.819841 0.00383266)
(4.7587 -0.100034 0.00434495)
(4.61163 -0.277211 0.00231209)
(4.5255 -0.477387 0.00361597)
(4.14305 -0.643459 0.00217352)
(4.00034 -0.739907 0.00332732)
(3.7219 -0.795271 0.00216474)
(3.64764 -0.822781 0.00312431)
(3.46029 -0.839875 0.00214654)
(3.42 -0.850115 0.00293142)
(3.28711 -0.857888 0.00210614)
(3.26122 -0.863202 0.00274945)
(3.16285 -0.867672 0.0020562)
(3.14353 -0.870574 0.0025845)
(3.06726 -0.873862 0.00200426)
(3.05289 -0.874514 0.00243692)
(2.98696 -0.879027 0.0019521)
(2.98663 -0.875861 0.0023024)
(2.90115 -0.883002 0.00189968)
(2.97614 -0.886454 0.00215497)
(2.57354 -0.894851 0.00177682)
(4.63742 0.435303 0.00564337)
(4.82619 0.87147 0.00368744)
(5.14163 0.969695 0.00487341)
(5.08181 0.960526 0.0033908)
(5.14342 0.942393 0.0045189)
(5.00763 0.929225 0.00334373)
(5.01333 0.919887 0.00429744)
(4.89403 0.914058 0.00331613)
(4.88812 0.907642 0.00409917)
(4.79165 0.904047 0.00327199)
(4.78091 0.89952 0.00391402)
(4.7035 0.897402 0.00321938)
(4.69014 0.894453 0.00374655)
(4.62824 0.892974 0.00316515)
(4.61181 0.891483 0.00359745)
(4.56626 0.889368 0.00311096)
(4.53677 0.888249 0.00346685)
(4.53152 0.888197 0.00305425)
(4.45073 0.849321 0.0033782)
(4.56875 0.889738 0.00296796)
(4.57558 -0.201734 0.00446448)
(4.69965 -0.39828 0.00272781)
(5.13026 -0.519011 0.00391827)
(5.23009 -0.623791 0.00246464)
(5.44706 -0.69164 0.00359422)
(5.44784 -0.738855 0.00242325)
(5.5592 -0.765526 0.0033798)
(5.53337 -0.784894 0.00240173)
(5.59741 -0.797495 0.00318747)
(5.56625 -0.808009 0.00236326)
(5.60411 -0.815794 0.00300714)
(5.57376 -0.822585 0.00231468)
(5.59601 -0.827879 0.00284292)
(5.56809 -0.832592 0.00226321)
(5.58127 -0.836536 0.00269547)
(5.55391 -0.839286 0.00221114)
(5.56591 -0.846486 0.0025604)
(5.52215 -0.84086 0.00215696)
(5.56123 -0.876365 0.00241024)
(5.36615 -0.897707 0.00205985)
(4.58865 0.341487 0.00511787)
(4.69568 0.688483 0.00342095)
(5.10625 0.803444 0.00456411)
(5.22691 0.845011 0.00309654)
(5.4841 0.862093 0.00421344)
(5.53394 0.871848 0.00303585)
(5.69614 0.875619 0.00398915)
(5.72278 0.878144 0.00300885)
(5.83545 0.877442 0.00379358)
(5.85235 0.877576 0.00296825)
(5.93269 0.875941 0.0036115)
(5.94377 0.875566 0.00291826)
(6.0016 0.874183 0.00344596)
(6.00946 0.873384 0.00286561)
(6.05006 0.873257 0.00329774)
(6.05878 0.870267 0.00281242)
(6.08046 0.874629 0.00316597)
(6.09837 0.866228 0.00275624)
(6.0979 0.870326 0.00306107)
(6.09605 0.916788 0.00268537)
(4.5826 -0.26912 0.00474695)
(4.66748 -0.539431 0.00311436)
(5.07292 -0.65392 0.0042567)
(5.19493 -0.724795 0.00279618)
(5.46359 -0.765326 0.00391128)
(5.52857 -0.793011 0.00273363)
(5.70877 -0.807665 0.00368685)
(5.75477 -0.818411 0.00270682)
(5.88749 -0.824187 0.00349198)
(5.92512 -0.829528 0.00266721)
(6.02582 -0.832695 0.00331086)
(6.05707 -0.83605 0.00261814)
(6.13452 -0.838334 0.00314609)
(6.16032 -0.840324 0.00256622)
(6.22044 -0.843075 0.00299823)
(6.2411 -0.842062 0.00251369)
(6.28849 -0.85092 0.00286428)
(6.29605 -0.840249 0.00245818)
(6.34641 -0.871002 0.00273414)
(6.26045 -0.905901 0.00238216)
(4.5826 0.26912 0.00474695)
(4.66748 0.539431 0.00311436)
(5.07292 0.65392 0.0042567)
(5.19493 0.724796 0.00279618)
(5.46359 0.765327 0.00391128)
(5.52857 0.793012 0.00273363)
(5.70876 0.807666 0.00368685)
(5.75478 0.818415 0.00270682)
(5.88748 0.824191 0.00349198)
(5.92513 0.829538 0.0026672)
(6.02581 0.832711 0.00331087)
(6.05709 0.83608 0.00261812)
(6.13449 0.838379 0.0031461)
(6.16037 0.840418 0.00256616)
(6.22037 0.843194 0.00299828)
(6.24129 0.842346 0.00251352)
(6.28837 0.851257 0.00286452)
(6.29667 0.841048 0.00245779)
(6.34665 0.87197 0.00273522)
(6.26153 0.907981 0.00238174)
(4.58865 -0.341487 0.00511787)
(4.69568 -0.688482 0.00342095)
(5.10625 -0.803444 0.0045641)
(5.22691 -0.84501 0.00309654)
(5.4841 -0.862093 0.00421344)
(5.53394 -0.871846 0.00303585)
(5.69614 -0.875618 0.00398915)
(5.72278 -0.878139 0.00300885)
(5.83545 -0.877439 0.00379358)
(5.85236 -0.877564 0.00296826)
(5.93269 -0.875929 0.00361149)
(5.94378 -0.875533 0.00291829)
(6.00163 -0.874149 0.00344592)
(6.00949 -0.873279 0.00286567)
(6.05019 -0.873172 0.00329764)
(6.05879 -0.869967 0.0028126)
(6.08085 -0.8744 0.00316564)
(6.09825 -0.865527 0.00275656)
(6.09867 -0.869623 0.00305998)
(6.0962 -0.914943 0.00268537)
(4.57558 0.201734 0.00446448)
(4.69965 0.39828 0.00272781)
(5.13026 0.519011 0.00391827)
(5.2301 0.623791 0.00246464)
(5.44706 0.69164 0.00359422)
(5.44784 0.738856 0.00242326)
(5.5592 0.765527 0.0033798)
(5.53337 0.784896 0.00240173)
(5.5974 0.7975 0.00318747)
(5.56628 0.808015 0.00236326)
(5.6041 0.815811 0.00300713)
(5.57382 0.822604 0.00231468)
(5.596 0.827925 0.00284292)
(5.56826 0.832653 0.0022632)
(5.58129 0.836662 0.00269547)
(5.55438 0.839483 0.00221109)
(5.56609 0.846847 0.00256049)
(5.52348 0.841526 0.00215678)
(5.56228 0.877396 0.00241116)
(5.36967 0.899545 0.00205949)
(4.63742 -0.435303 0.00564337)
(4.82619 -0.87147 0.00368744)
(5.14163 -0.969695 0.00487341)
(5.08181 -0.960525 0.0033908)
(5.14342 -0.942393 0.0045189)
(5.00763 -0.929224 0.00334374)
(5.01333 -0.919886 0.00429743)
(4.89404 -0.914055 0.00331614)
(4.88812 -0.907641 0.00409916)
(4.79167 -0.904038 0.00327201)
(4.78091 -0.899514 0.00391399)
(4.70357 -0.897374 0.00321943)
(4.69018 -0.894437 0.00374647)
(4.62841 -0.892888 0.00316526)
(4.61198 -0.891458 0.00359724)
(4.56667 -0.889127 0.00311127)
(4.53736 -0.888209 0.00346626)
(4.53246 -0.887727 0.00305487)
(4.45228 -0.84918 0.00337662)
(4.57131 -0.889065 0.00296835)
(4.7587 0.100034 0.00434495)
(4.61163 0.277211 0.00231209)
(4.52549 0.477388 0.00361597)
(4.14305 0.643459 0.00217352)
(4.00034 0.739908 0.00332732)
(3.7219 0.795271 0.00216474)
(3.64764 0.822782 0.00312431)
(3.4603 0.839875 0.00214655)
(3.42 0.850119 0.00293142)
(3.28714 0.857887 0.00210614)
(3.26123 0.863214 0.00274945)
(3.16294 0.867669 0.00205621)
(3.14356 0.870608 0.00258449)
(3.0675 0.873852 0.00200428)
(3.05301 0.87461 0.00243686)
(2.98764 0.879011 0.00195219)
(2.98701 0.87615 0.00230225)
(2.90327 0.883136 0.00189988)
(2.97689 0.887323 0.00215503)
(2.58165 0.896342 0.00177742)
(4.32458 -0.566032 0.0069214)
(3.07874 -0.847769 0.00445387)
(2.31441 -0.869689 0.00572662)
(1.7473 -0.852925 0.00425048)
(1.60893 -0.855662 0.005396)
(1.40492 -0.867502 0.00422798)
(1.39807 -0.877491 0.00518368)
(1.27614 -0.885573 0.00420334)
(1.28308 -0.889844 0.00498551)
(1.19689 -0.893502 0.00415851)
(1.20477 -0.895247 0.00479994)
(1.14178 -0.897273 0.00410576)
(1.14806 -0.898072 0.00463272)
(1.10008 -0.899479 0.004052)
(1.10525 -0.899422 0.00448399)
(1.0653 -0.901641 0.00399853)
(1.07245 -0.894497 0.00435283)
(1.04944 -0.915806 0.00394298)
(1.0057 -0.793403 0.00426338)
(1.44664 -0.821242 0.00383575)
(4.37814 0.0972696 0.00137209)
(3.96602 0.149144 0.0019159)
(3.42998 0.163062 0.000961168)
(2.95198 0.156796 0.0015041)
(2.53908 0.145176 0.00098077)
(2.23492 0.136576 0.00139752)
(2.0103 0.131591 0.00105357)
(1.85747 0.13123 0.00131616)
(1.75443 0.133609 0.00108415)
(1.68038 0.138082 0.00123832)
(1.63403 0.143093 0.00109469)
(1.59251 0.148479 0.00117699)
(1.56931 0.153087 0.00110237)
(1.54113 0.157952 0.0011354)
(1.52664 0.16071 0.00111439)
(1.5078 0.16599 0.00111058)
(1.49053 0.164414 0.00113572)
(1.49355 0.174621 0.00109681)
(1.44607 0.160083 0.00114989)
(1.52113 0.166953 0.00116606)
(4.54116 0.0879776 0.00316441)
(4.67766 0.119608 0.00388763)
(4.71956 0.120983 0.00292703)
(4.70753 0.0946661 0.00344561)
(4.62956 0.0564061 0.00289807)
(4.53322 0.0138865 0.00330082)
(4.42494 -0.0241823 0.0029482)
(4.31911 -0.0568683 0.00320704)
(4.22266 -0.0817876 0.00297246)
(4.13024 -0.101618 0.00312589)
(4.0527 -0.116038 0.00298136)
(3.97592 -0.127676 0.0030636)
(3.91506 -0.136157 0.00298871)
(3.8519 -0.143394 0.00302159)
(3.80459 -0.148775 0.00300112)
(3.75304 -0.153288 0.00299622)
(3.71559 -0.157803 0.00302533)
(3.67665 -0.159425 0.00298033)
(3.64073 -0.165512 0.00307676)
(3.62089 -0.171278 0.0030818)
(4.51645 0.0458471 0.00172928)
(4.65575 0.110604 0.00233654)
(4.78777 0.163057 0.00140748)
(4.93595 0.191527 0.00192973)
(5.04324 0.201829 0.0013884)
(5.12704 0.202699 0.00179795)
(5.17722 0.19944 0.00145367)
(5.20572 0.196405 0.0017177)
(5.21915 0.194509 0.0014885)
(5.21881 0.194056 0.00164392)
(5.21523 0.194433 0.00150209)
(5.2028 0.195329 0.00158472)
(5.19177 0.196025 0.00151102)
(5.17582 0.197187 0.00154402)
(5.1604 0.196652 0.0015233)
(5.14667 0.199271 0.00152012)
(5.12565 0.194078 0.00154231)
(5.12053 0.204051 0.00151252)
(5.08875 0.184039 0.00153925)
(5.09786 0.207925 0.00157335)
(4.51248 0.044255 0.00274787)
(4.62124 0.0509646 0.0034652)
(4.74533 0.0467106 0.00256116)
(4.90472 0.0291834 0.00308902)
(5.04425 0.00692808 0.00253371)
(5.17635 -0.0182651 0.00293166)
(5.28289 -0.0421336 0.00257656)
(5.37193 -0.063705 0.00283549)
(5.44567 -0.0813605 0.00260184)
(5.50478 -0.0959565 0.0027556)
(5.55809 -0.107465 0.00261166)
(5.60017 -0.116772 0.00269363)
(5.64127 -0.124504 0.00261873)
(5.67345 -0.130409 0.0026513)
(5.70638 -0.136485 0.00263021)
(5.73191 -0.139414 0.00262644)
(5.75983 -0.146304 0.00265233)
(5.77752 -0.144955 0.00261887)
(5.80692 -0.15501 0.00270634)
(5.8044 -0.153271 0.0027114)
(4.5136 0.0166267 0.00204723)
(4.62242 0.0557534 0.00271885)
(4.73951 0.0915364 0.00182433)
(4.89286 0.117217 0.00234316)
(5.03017 0.133545 0.00178562)
(5.16606 0.144642 0.00218372)
(5.28121 0.1524 0.00183135)
(5.3833 0.15911 0.00209252)
(5.47302 0.164966 0.00186161)
(5.55062 0.170511 0.00201667)
(5.62426 0.175332 0.00187445)
(5.68788 0.179738 0.00195697)
(5.75211 0.183101 0.00188309)
(5.80716 0.186514 0.00191598)
(5.86543 0.187903 0.00189518)
(5.91284 0.191782 0.00189236)
(5.96981 0.18899 0.00191402)
(6.00295 0.198304 0.00188893)
(6.07342 0.184353 0.00192479)
(6.06908 0.209301 0.00195721)
(4.51234 0.0119453 0.00238028)
(4.61456 -0.00400581 0.00308118)
(4.73023 -0.0234272 0.00219449)
(4.88186 -0.0449003 0.00271931)
(5.01831 -0.0640165 0.00216038)
(5.15408 -0.0818368 0.00255681)
(5.27033 -0.0973513 0.00220196)
(5.37466 -0.111109 0.00246209)
(5.46794 -0.122595 0.00223008)
(5.5499 -0.132328 0.00238483)
(5.62933 -0.140304 0.00224209)
(5.69881 -0.146833 0.00232446)
(5.771 -0.152314 0.00225029)
(5.8325 -0.156556 0.002283)
(5.90139 -0.160471 0.00226219)
(5.95413 -0.163146 0.00225909)
(6.02605 -0.165889 0.00228274)
(6.06003 -0.168488 0.00225617)
(6.15324 -0.167879 0.0023203)
(6.14069 -0.177455 0.00233574)
(4.51234 -0.0119455 0.00238028)
(4.61456 0.00400614 0.00308118)
(4.73023 0.023427 0.00219449)
(4.88186 0.0449012 0.00271931)
(5.01831 0.0640164 0.00216038)
(5.15408 0.0818388 0.00255681)
(5.27033 0.097352 0.00220196)
(5.37466 0.111114 0.0024621)
(5.46794 0.122599 0.00223008)
(5.5499 0.13234 0.00238483)
(5.62933 0.140318 0.00224208)
(5.69882 0.146868 0.00232448)
(5.771 0.152348 0.00225027)
(5.83251 0.156664 0.00228305)
(5.90139 0.160545 0.00226212)
(5.95416 0.163463 0.00225923)
(6.02607 0.166079 0.00228243)
(6.0601 0.169277 0.0022564)
(6.15336 0.168582 0.00231856)
(6.14093 0.179054 0.00233613)
(4.5136 -0.0166268 0.00204723)
(4.62242 -0.0557531 0.00271885)
(4.73951 -0.0915366 0.00182433)
(4.89286 -0.117216 0.00234316)
(5.03017 -0.133545 0.00178562)
(5.16606 -0.144639 0.00218372)
(5.28121 -0.1524 0.00183135)
(5.3833 -0.159105 0.00209252)
(5.47302 -0.164963 0.00186161)
(5.55062 -0.170499 0.00201666)
(5.62426 -0.175319 0.00187446)
(5.68788 -0.179702 0.00195696)
(5.75213 -0.183069 0.00188311)
(5.80717 -0.186406 0.00191593)
(5.8655 -0.187834 0.00189524)
(5.91285 -0.191469 0.00189222)
(5.97001 -0.188815 0.00191428)
(6.00302 -0.19754 0.00188869)
(6.07386 -0.183705 0.0019262)
(6.06943 -0.207817 0.00195681)
(4.51248 -0.0442551 0.00274787)
(4.62124 -0.0509643 0.0034652)
(4.74533 -0.0467108 0.00256115)
(4.90472 -0.0291827 0.00308902)
(5.04425 -0.00692819 0.00253371)
(5.17635 0.0182669 0.00293166)
(5.28289 0.0421344 0.00257655)
(5.37194 0.0637093 0.0028355)
(5.44566 0.0813647 0.00260183)
(5.50479 0.0959671 0.00275561)
(5.55808 0.107479 0.00261165)
(5.6002 0.116802 0.00269366)
(5.64128 0.124537 0.00261869)
(5.67353 0.130505 0.00265135)
(5.70645 0.136555 0.00263011)
(5.73208 0.1397 0.00262655)
(5.76011 0.146471 0.00265197)
(5.77794 0.145687 0.00261908)
(5.80782 0.155621 0.00270467)
(5.80563 0.154782 0.00271141)
(4.51645 -0.0458471 0.00172928)
(4.65575 -0.110604 0.00233654)
(4.78777 -0.163058 0.00140748)
(4.93595 -0.191527 0.00192973)
(5.04324 -0.201829 0.0013884)
(5.12705 -0.202697 0.00179795)
(5.17722 -0.199439 0.00145367)
(5.20573 -0.1964 0.0017177)
(5.21914 -0.194506 0.0014885)
(5.21884 -0.194045 0.00164393)
(5.21522 -0.194424 0.00150208)
(5.20289 -0.195298 0.00158473)
(5.19176 -0.196003 0.00151101)
(5.17602 -0.197097 0.00154403)
(5.16048 -0.196611 0.00152328)
(5.14709 -0.199014 0.0015201)
(5.12605 -0.193982 0.00154234)
(5.12145 -0.203442 0.00151249)
(5.0901 -0.183645 0.00153985)
(5.1001 -0.206919 0.00157329)
(4.54116 -0.0879775 0.00316441)
(4.67766 -0.119608 0.00388763)
(4.71956 -0.120983 0.00292703)
(4.70753 -0.094666 0.00344561)
(4.62956 -0.0564057 0.00289807)
(4.53323 -0.0138859 0.00330082)
(4.42493 0.0241836 0.00294819)
(4.31912 0.0568697 0.00320706)
(4.22265 0.0817919 0.00297244)
(4.13029 0.101622 0.00312592)
(4.05269 0.11605 0.00298131)
(3.97605 0.127687 0.00306368)
(3.91505 0.136183 0.00298858)
(3.85223 0.143435 0.0030218)
(3.80464 0.148823 0.00300077)
(3.75384 0.153428 0.00299675)
(3.7159 0.1579 0.00302436)
(3.67857 0.159805 0.00298162)
(3.64183 0.165858 0.00307384)
(3.62571 0.17206 0.00308449)
(4.37814 -0.0972696 0.00137209)
(3.96602 -0.149144 0.0019159)
(3.42998 -0.163062 0.000961168)
(2.95198 -0.156796 0.0015041)
(2.53908 -0.145176 0.00098077)
(2.23492 -0.136575 0.00139752)
(2.0103 -0.131591 0.00105357)
(1.85748 -0.131229 0.00131616)
(1.75444 -0.133608 0.00108414)
(1.68041 -0.138081 0.00123832)
(1.63406 -0.143091 0.00109469)
(1.59259 -0.148474 0.001177)
(1.56938 -0.153084 0.00110236)
(1.54134 -0.157935 0.00113541)
(1.52688 -0.160712 0.00111436)
(1.50826 -0.165936 0.00111063)
(1.49129 -0.164439 0.00113553)
(1.49469 -0.174492 0.00109713)
(1.4477 -0.160166 0.00114898)
(1.52536 -0.167083 0.00116763)
(4.37814 0.0972696 -0.00137209)
(3.96602 0.149144 -0.00191591)
(3.42998 0.163062 -0.000961174)
(2.95198 0.156796 -0.0015041)
(2.53908 0.145176 -0.000980776)
(2.23492 0.136576 -0.00139752)
(2.0103 0.131591 -0.00105357)
(1.85747 0.13123 -0.00131617)
(1.75443 0.133609 -0.00108415)
(1.68038 0.138082 -0.00123833)
(1.63403 0.143093 -0.0010947)
(1.59251 0.148479 -0.001177)
(1.56931 0.153087 -0.00110237)
(1.54113 0.157952 -0.00113541)
(1.52664 0.16071 -0.00111439)
(1.5078 0.16599 -0.00111059)
(1.49053 0.164414 -0.00113572)
(1.49355 0.174621 -0.00109682)
(1.44607 0.160083 -0.0011499)
(1.52113 0.166953 -0.00116606)
(4.54116 0.0879776 -0.00316442)
(4.67766 0.119608 -0.00388764)
(4.71956 0.120983 -0.00292704)
(4.70753 0.0946661 -0.00344562)
(4.62956 0.0564061 -0.00289808)
(4.53322 0.0138865 -0.00330082)
(4.42494 -0.0241823 -0.00294821)
(4.31911 -0.0568683 -0.00320705)
(4.22266 -0.0817876 -0.00297247)
(4.13024 -0.101618 -0.00312589)
(4.0527 -0.116038 -0.00298137)
(3.97592 -0.127676 -0.0030636)
(3.91506 -0.136157 -0.00298872)
(3.8519 -0.143394 -0.0030216)
(3.80459 -0.148775 -0.00300113)
(3.75304 -0.153288 -0.00299623)
(3.71559 -0.157803 -0.00302533)
(3.67665 -0.159425 -0.00298034)
(3.64073 -0.165512 -0.00307676)
(3.62089 -0.171278 -0.00308181)
(4.51645 0.0458471 -0.00172928)
(4.65575 0.110604 -0.00233654)
(4.78777 0.163057 -0.00140749)
(4.93595 0.191527 -0.00192974)
(5.04324 0.201829 -0.0013884)
(5.12704 0.202699 -0.00179796)
(5.17722 0.19944 -0.00145368)
(5.20572 0.196405 -0.0017177)
(5.21915 0.194509 -0.00148851)
(5.21881 0.194056 -0.00164392)
(5.21523 0.194433 -0.0015021)
(5.2028 0.195329 -0.00158472)
(5.19177 0.196025 -0.00151103)
(5.17582 0.197187 -0.00154403)
(5.1604 0.196652 -0.0015233)
(5.14667 0.199271 -0.00152013)
(5.12565 0.194078 -0.00154231)
(5.12053 0.204051 -0.00151252)
(5.08875 0.184039 -0.00153926)
(5.09786 0.207925 -0.00157335)
(4.51248 0.044255 -0.00274787)
(4.62124 0.0509646 -0.0034652)
(4.74533 0.0467106 -0.00256116)
(4.90472 0.0291834 -0.00308902)
(5.04425 0.00692808 -0.00253372)
(5.17635 -0.0182651 -0.00293166)
(5.28289 -0.0421336 -0.00257656)
(5.37193 -0.063705 -0.00283549)
(5.44567 -0.0813605 -0.00260185)
(5.50478 -0.0959565 -0.00275561)
(5.55809 -0.107465 -0.00261167)
(5.60017 -0.116772 -0.00269364)
(5.64127 -0.124504 -0.00261873)
(5.67345 -0.130409 -0.00265131)
(5.70638 -0.136485 -0.00263021)
(5.73191 -0.139414 -0.00262644)
(5.75983 -0.146304 -0.00265234)
(5.77752 -0.144955 -0.00261887)
(5.80692 -0.15501 -0.00270634)
(5.8044 -0.153271 -0.00271141)
(4.5136 0.0166267 -0.00204723)
(4.62242 0.0557534 -0.00271886)
(4.73951 0.0915364 -0.00182434)
(4.89286 0.117217 -0.00234316)
(5.03017 0.133545 -0.00178562)
(5.16606 0.144642 -0.00218372)
(5.28121 0.1524 -0.00183135)
(5.3833 0.15911 -0.00209253)
(5.47302 0.164966 -0.00186161)
(5.55062 0.170511 -0.00201667)
(5.62426 0.175332 -0.00187446)
(5.68788 0.179738 -0.00195698)
(5.75211 0.183101 -0.0018831)
(5.80716 0.186514 -0.00191598)
(5.86543 0.187903 -0.00189518)
(5.91284 0.191782 -0.00189236)
(5.96981 0.18899 -0.00191403)
(6.00295 0.198304 -0.00188894)
(6.07342 0.184353 -0.00192479)
(6.06908 0.209301 -0.00195722)
(4.51234 0.0119453 -0.00238028)
(4.61456 -0.00400581 -0.00308118)
(4.73023 -0.0234272 -0.00219449)
(4.88186 -0.0449003 -0.00271932)
(5.01831 -0.0640165 -0.00216038)
(5.15408 -0.0818368 -0.00255682)
(5.27033 -0.0973513 -0.00220197)
(5.37466 -0.111109 -0.0024621)
(5.46794 -0.122595 -0.00223009)
(5.5499 -0.132328 -0.00238483)
(5.62933 -0.140304 -0.0022421)
(5.69881 -0.146833 -0.00232447)
(5.771 -0.152314 -0.00225029)
(5.8325 -0.156556 -0.002283)
(5.90139 -0.160471 -0.00226219)
(5.95413 -0.163146 -0.0022591)
(6.02605 -0.165889 -0.00228275)
(6.06003 -0.168488 -0.00225617)
(6.15324 -0.167879 -0.0023203)
(6.14069 -0.177455 -0.00233575)
(4.51234 -0.0119455 -0.00238028)
(4.61456 0.00400614 -0.00308118)
(4.73023 0.023427 -0.00219449)
(4.88186 0.0449012 -0.00271932)
(5.01831 0.0640164 -0.00216038)
(5.15408 0.0818388 -0.00255682)
(5.27033 0.0973521 -0.00220197)
(5.37466 0.111114 -0.0024621)
(5.46794 0.122599 -0.00223008)
(5.5499 0.13234 -0.00238484)
(5.62933 0.140318 -0.00224209)
(5.69882 0.146868 -0.00232449)
(5.771 0.152348 -0.00225027)
(5.83251 0.156664 -0.00228305)
(5.90139 0.160545 -0.00226213)
(5.95416 0.163463 -0.00225924)
(6.02607 0.166079 -0.00228243)
(6.0601 0.169277 -0.00225641)
(6.15336 0.168582 -0.00231857)
(6.14093 0.179054 -0.00233613)
(4.5136 -0.0166268 -0.00204723)
(4.62242 -0.0557531 -0.00271886)
(4.73951 -0.0915366 -0.00182434)
(4.89286 -0.117216 -0.00234316)
(5.03017 -0.133545 -0.00178562)
(5.16606 -0.144639 -0.00218372)
(5.28121 -0.1524 -0.00183135)
(5.3833 -0.159105 -0.00209253)
(5.47302 -0.164963 -0.00186161)
(5.55062 -0.170499 -0.00201667)
(5.62426 -0.175319 -0.00187446)
(5.68788 -0.179702 -0.00195696)
(5.75213 -0.183069 -0.00188312)
(5.80717 -0.186406 -0.00191593)
(5.8655 -0.187834 -0.00189524)
(5.91285 -0.191469 -0.00189223)
(5.97001 -0.188815 -0.00191428)
(6.00302 -0.19754 -0.00188869)
(6.07386 -0.183705 -0.00192621)
(6.06943 -0.207817 -0.00195681)
(4.51248 -0.0442551 -0.00274787)
(4.62124 -0.0509643 -0.0034652)
(4.74533 -0.0467108 -0.00256116)
(4.90472 -0.0291827 -0.00308902)
(5.04425 -0.00692819 -0.00253372)
(5.17635 0.0182669 -0.00293167)
(5.28289 0.0421344 -0.00257656)
(5.37194 0.0637093 -0.0028355)
(5.44566 0.0813647 -0.00260184)
(5.50479 0.0959671 -0.00275562)
(5.55808 0.107479 -0.00261165)
(5.6002 0.116802 -0.00269367)
(5.64128 0.124537 -0.0026187)
(5.67353 0.130505 -0.00265136)
(5.70645 0.136555 -0.00263012)
(5.73208 0.1397 -0.00262656)
(5.76011 0.146471 -0.00265197)
(5.77794 0.145687 -0.00261908)
(5.80782 0.155621 -0.00270467)
(5.80563 0.154782 -0.00271142)
(4.51645 -0.0458471 -0.00172928)
(4.65575 -0.110604 -0.00233655)
(4.78777 -0.163058 -0.00140749)
(4.93595 -0.191527 -0.00192974)
(5.04324 -0.201829 -0.0013884)
(5.12705 -0.202697 -0.00179796)
(5.17722 -0.199439 -0.00145368)
(5.20573 -0.1964 -0.00171771)
(5.21914 -0.194506 -0.0014885)
(5.21884 -0.194045 -0.00164393)
(5.21522 -0.194424 -0.00150209)
(5.20289 -0.195298 -0.00158473)
(5.19176 -0.196003 -0.00151101)
(5.17602 -0.197097 -0.00154403)
(5.16048 -0.196611 -0.00152329)
(5.14709 -0.199014 -0.00152011)
(5.12605 -0.193982 -0.00154235)
(5.12145 -0.203442 -0.00151249)
(5.0901 -0.183645 -0.00153985)
(5.1001 -0.206919 -0.0015733)
(4.54116 -0.0879775 -0.00316442)
(4.67766 -0.119608 -0.00388764)
(4.71956 -0.120983 -0.00292703)
(4.70753 -0.094666 -0.00344562)
(4.62956 -0.0564057 -0.00289808)
(4.53323 -0.0138859 -0.00330083)
(4.42493 0.0241836 -0.0029482)
(4.31912 0.0568697 -0.00320707)
(4.22265 0.0817919 -0.00297245)
(4.13029 0.101622 -0.00312593)
(4.05269 0.11605 -0.00298131)
(3.97605 0.127687 -0.00306369)
(3.91505 0.136183 -0.00298858)
(3.85223 0.143435 -0.00302181)
(3.80464 0.148823 -0.00300078)
(3.75384 0.153428 -0.00299676)
(3.7159 0.1579 -0.00302436)
(3.67857 0.159805 -0.00298163)
(3.64183 0.165858 -0.00307385)
(3.62571 0.17206 -0.0030845)
(4.37814 -0.0972696 -0.00137209)
(3.96602 -0.149144 -0.00191591)
(3.42998 -0.163062 -0.000961174)
(2.95198 -0.156796 -0.0015041)
(2.53908 -0.145176 -0.000980776)
(2.23492 -0.136575 -0.00139752)
(2.0103 -0.131591 -0.00105357)
(1.85748 -0.131229 -0.00131617)
(1.75444 -0.133609 -0.00108415)
(1.68041 -0.138081 -0.00123833)
(1.63406 -0.143091 -0.00109469)
(1.59259 -0.148474 -0.00117701)
(1.56938 -0.153084 -0.00110237)
(1.54134 -0.157935 -0.00113542)
(1.52688 -0.160712 -0.00111436)
(1.50826 -0.165936 -0.00111063)
(1.49129 -0.164439 -0.00113553)
(1.49469 -0.174492 -0.00109714)
(1.4477 -0.160166 -0.00114899)
(1.52536 -0.167083 -0.00116763)
(4.32458 0.566032 -0.00692141)
(3.07874 0.847769 -0.00445387)
(2.31441 0.869689 -0.00572663)
(1.7473 0.852925 -0.00425048)
(1.60893 0.855662 -0.00539601)
(1.40492 0.867502 -0.00422798)
(1.39807 0.877491 -0.00518369)
(1.27613 0.885575 -0.00420334)
(1.28308 0.889843 -0.00498552)
(1.19687 0.893506 -0.00415851)
(1.20475 0.895243 -0.00479995)
(1.14174 0.897287 -0.00410574)
(1.14801 0.898059 -0.00463276)
(1.09997 0.899525 -0.00405193)