/*--------------------------------*- C++ -*----------------------------------*\
  =========                 |
  \\      /  F ield         | OpenFOAM: The Open Source CFD Toolbox
   \\    /   O peration     | Website:  https://openfoam.org
    \\  /    A nd           | Version:  7
     \\/     M anipulation  |
\*---------------------------------------------------------------------------*/
FoamFile
{
    version     2.0;
    format      ascii;
    class       surfaceScalarField;
    location    "0.0175";
    object      phi_0;
}
// * * * * * * * * * * * * * * * * * * * * * * * * * * * * * * * * * * * * * //

dimensions      [1 0 -1 0 0 0 0];

internalField   nonuniform List<scalar> 
2058
(
0.00484511
5.82251e-05
0.00472577
0.000139272
0.00452945
0.000215496
0.0042822
0.00026524
0.00400845
0.000290286
0.00373354
0.00029003
0.00347281
0.000274693
0.00323596
0.000250171
0.00303056
0.000219039
0.00286024
0.000185218
0.00272602
0.000150758
0.00262703
0.000117015
0.00256074
8.53466e-05
0.00252281
5.73699e-05
0.00250727
3.47037e-05
0.00250747
1.81578e-05
0.00251734
7.50145e-06
0.00253204
1.79057e-06
0.00254827
-4.48788e-07
0.00256425
-7.35501e-07
0.002579
4.97181e-08
0.00259237
1.16812e-06
0.00260461
2.26281e-06
0.00261626
3.06848e-06
0.00262816
3.18868e-06
0.0026409
2.73206e-06
0.00265428
2.38603e-06
0.00266778
2.39987e-06
0.00268127
2.4162e-06
0.00269472
2.35894e-06
0.00270816
2.23135e-06
0.00272166
2.03634e-06
0.00273552
1.58631e-06
0.00274944
1.376e-06
0.00276348
1.26358e-06
0.00277695
1.62982e-06
0.00279044
1.58404e-06
0.00280381
1.9222e-06
0.00281637
1.81219e-06
2.37048e-06
0.00282912
0.00492129
4.0109e-05
0.00498062
9.9911e-05
0.00505476
0.000160566
0.00512901
0.000208949
0.00519026
0.00024548
0.00523048
0.000264669
0.005249
0.000269379
0.00524922
0.00026158
0.0052357
0.000243189
0.00521421
0.000217314
0.00519013
0.000186024
0.00516752
0.000151645
0.00514976
0.000116538
0.00513991
8.31168e-05
0.00513967
5.37549e-05
0.00514851
3.0378e-05
0.00516421
1.4009e-05
0.00518465
4.37577e-06
0.00520835
8.40939e-08
0.00523336
-5.56437e-07
0.00525717
7.60031e-07
0.00527705
2.69293e-06
0.00529134
4.55599e-06
0.00530028
5.92898e-06
0.00530575
6.44331e-06
0.00531025
6.2041e-06
0.00531613
5.64398e-06
0.00532466
5.07532e-06
0.00533581
4.53447e-06
0.00534876
4.1423e-06
0.00536272
3.78917e-06
0.00537705
3.45647e-06
0.00539141
2.93099e-06
0.00540573
2.58109e-06
0.00542007
2.26688e-06
0.00543441
2.50129e-06
0.00544847
2.59073e-06
0.0054622
3.20048e-06
0.00547535
3.55351e-06
3.98873e-06
0.00548854
0.00491666
2.65833e-05
0.0049668
6.97706e-05
0.00503324
0.000113357
0.00511212
0.00014796
0.00519904
0.000175009
0.00528822
0.000190529
0.0053746
0.000196374
0.0054545
0.000193171
0.00552586
0.00018201
0.00558836
0.000164832
0.00564201
0.000142988
0.00568657
0.000118141
0.00572257
9.20652e-05
0.00575224
6.6666e-05
0.00577869
4.39937e-05
0.00580377
2.58806e-05
0.00582743
1.3451e-05
0.00584923
6.69276e-06
0.00587011
4.42861e-06
0.00589197
4.95012e-06
0.00591548
6.60729e-06
0.00593883
8.10653e-06
0.00595883
8.93005e-06
0.00597313
8.98091e-06
0.00598163
8.25559e-06
0.00598642
7.07027e-06
0.00599052
5.85257e-06
0.00599647
4.87001e-06
0.00600549
4.11246e-06
0.00601759
3.62303e-06
0.00603197
3.24097e-06
0.00604765
2.92684e-06
0.0060638
2.48626e-06
0.00607994
2.19906e-06
0.00609586
1.95631e-06
0.00611163
2.14758e-06
0.00612717
2.29274e-06
0.00614266
2.8082e-06
0.00615801
3.1885e-06
3.53833e-06
0.00617335
0.00491232
1.73325e-05
0.00495609
4.60056e-05
0.0050143
7.43596e-05
0.00508373
9.63888e-05
0.00516174
0.000113451
0.00524405
0.000123294
0.00532658
0.000127171
0.00540572
0.000125357
0.00547922
0.000118578
0.00554624
0.000107925
0.00560572
9.42143e-05
0.00565627
7.85234e-05
0.00569758
6.20285e-05
0.00573151
4.59752e-05
0.00576101
3.16115e-05
0.00578803
2.00518e-05
0.00581304
1.20371e-05
0.00583664
7.60122e-06
0.00586076
6.00103e-06
0.00588756
6.08244e-06
0.00591725
6.68373e-06
0.00594709
7.01765e-06
0.00597306
6.86148e-06
0.00599228
6.30348e-06
0.00600448
5.46968e-06
0.00601183
4.58245e-06
0.00601764
3.81064e-06
0.00602475
3.23589e-06
0.00603464
2.7912e-06
0.00604746
2.49751e-06
0.00606248
2.22916e-06
0.00607871
2.0151e-06
0.00609527
1.73479e-06
0.0061117
1.60562e-06
0.00612782
1.48236e-06
0.00614374
1.64664e-06
0.00615952
1.75298e-06
0.00617532
2.09199e-06
0.00619111
2.38575e-06
2.61758e-06
0.00620691
0.00491208
8.29967e-06
0.00495582
2.22773e-05
0.00501325
3.61411e-05
0.00508039
4.71002e-05
0.00515455
5.57513e-05
0.0052321
6.08339e-05
0.00530964
6.29081e-05
0.00538419
6.20792e-05
0.00545411
5.87381e-05
0.00551875
5.34542e-05
0.00557697
4.66885e-05
0.00562735
3.8997e-05
0.00566973
3.09539e-05
0.00570604
2.31504e-05
0.00573894
1.61796e-05
0.0057699
1.05686e-05
0.00579901
6.66612e-06
0.00582671
4.49587e-06
0.00585477
3.70821e-06
0.00588507
3.74221e-06
0.00591737
4.04262e-06
0.00594869
4.2094e-06
0.00597498
4.1052e-06
0.00599364
3.76387e-06
0.00600491
3.24829e-06
0.00601146
2.68544e-06
0.00601681
2.17389e-06
0.00602383
1.79277e-06
0.00603387
1.49325e-06
0.00604693
1.3137e-06
0.00606216
1.16245e-06
0.00607852
1.07599e-06
0.00609517
9.49979e-07
0.0061117
9.32984e-07
0.00612794
8.92288e-07
0.00614397
1.02804e-06
0.00615984
1.11667e-06
0.00617568
1.34075e-06
0.00619149
1.5502e-06
1.70638e-06
0.00620729
0.00491133
-8.33812e-12
0.00495361
-1.64217e-10
0.00500896
-2.85585e-10
0.00507392
-3.00398e-10
0.00514613
-3.37038e-10
0.00522204
-4.10242e-10
0.0052982
-4.93632e-10
0.00537153
-4.79815e-10
0.00544036
-3.56861e-10
0.005504
-2.0712e-10
0.00556137
6.30917e-11
0.00561119
1.44377e-10
0.00565348
4.55052e-10
0.00569025
8.39908e-11
0.0057241
3.65329e-10
0.00575628
-5.88753e-10
0.00578675
-1.12451e-10
0.0058159
-1.16901e-09
0.00584546
-7.85666e-10
0.00587723
-8.52537e-10
0.00591092
-1.50915e-09
0.00594346
6.9747e-12
0.00597081
-1.93091e-09
0.00599039
8.25077e-10
0.00600247
-1.30474e-09
0.00600969
1.95415e-10
0.00601559
-4.87474e-09
0.00602302
1.01108e-08
0.00603336
2.31293e-09
0.00604661
3.02016e-08
0.00606197
4.12921e-08
0.00607842
9.16227e-08
0.00609515
1.18643e-07
0.00611172
2.24923e-07
0.00612799
2.74508e-07
0.00614403
4.04241e-07
0.00615991
4.64716e-07
0.00617574
5.90042e-07
0.00619156
7.0903e-07
7.86392e-07
0.00620737
0.00491133
-8.29969e-06
0.00495361
-2.22776e-05
0.00500896
-3.61416e-05
0.00507392
-4.71008e-05
0.00514613
-5.57519e-05
0.00522204
-6.08347e-05
0.0052982
-6.2909e-05
0.00537153
-6.20801e-05
0.00544036
-5.87388e-05
0.005504
-5.34546e-05
0.00556137
-4.66884e-05
0.00561119
-3.89967e-05
0.00565348
-3.0953e-05
0.00569025
-2.31502e-05
0.0057241
-1.61788e-05
0.00575628
-1.05698e-05
0.00578675
-6.66622e-06
0.0058159
-4.49826e-06
0.00584546
-3.70967e-06
0.00587723
-3.74392e-06
0.00591092
-4.04549e-06
0.00594346
-4.20914e-06
0.00597081
-4.10912e-06
0.00599039
-3.76138e-06
0.00600246
-3.24921e-06
0.00600969
-2.68612e-06
0.00601559
-2.18541e-06
0.00602302
-1.77207e-06
0.00603336
-1.49331e-06
0.00604663
-1.26216e-06
0.00606199
-1.08768e-06
0.00607845
-9.04916e-07
0.0060952
-7.29724e-07
0.00611179
-5.00314e-07
0.00612807
-3.57355e-07
0.00614411
-2.23137e-07
0.00615999
-1.89146e-07
0.00617582
-1.5042e-07
0.00619164
-1.32824e-07
-1.38053e-07
0.00620745
0.00491208
-1.73325e-05
0.00495582
-4.60059e-05
0.00501325
-7.43601e-05
0.00508039
-9.63894e-05
0.00515455
-0.000113452
0.0052321
-0.000123295
0.00530964
-0.000127172
0.00538419
-0.000125357
0.00545411
-0.000118579
0.00551875
-0.000107925
0.00557697
-9.42142e-05
0.00562735
-7.85231e-05
0.00566973
-6.20276e-05
0.00570604
-4.59749e-05
0.00573894
-3.16107e-05
0.0057699
-2.00529e-05
0.00579901
-1.2037e-05
0.00582671
-7.60381e-06
0.00585477
-6.00228e-06
0.00588507
-6.08436e-06
0.00591737
-6.68696e-06
0.00594869
-7.01771e-06
0.00597498
-6.8662e-06
0.00599364
-6.30081e-06
0.00600491
-5.46997e-06
0.00601146
-4.58776e-06
0.00601682
-3.82639e-06
0.00602384
-3.2212e-06
0.0060339
-2.80471e-06
0.00604698
-2.45945e-06
0.00606222
-2.16916e-06
0.0060786
-1.87126e-06
0.00609528
-1.54267e-06
0.00611182
-1.17883e-06
0.00612806
-9.56618e-07
0.0061441
-8.39082e-07
0.00616
-8.5911e-07
0.00617585
-9.14114e-07
0.00619169
-1.00168e-06
-1.07701e-06
0.00620752
0.00491232
-2.65833e-05
0.00495609
-6.97707e-05
0.0050143
-0.000113358
0.00508373
-0.000147961
0.00516174
-0.000175009
0.00524405
-0.00019053
0.00532658
-0.000196375
0.00540572
-0.000193172
0.00547922
-0.000182011
0.00554624
-0.000164832
0.00560572
-0.000142988
0.00565627
-0.000118141
0.00569758
-9.20645e-05
0.00573151
-6.66656e-05
0.00576102
-4.39925e-05
0.00578803
-2.58814e-05
0.00581304
-1.34502e-05
0.00583664
-6.69561e-06
0.00586076
-4.42944e-06
0.00588756
-4.95249e-06
0.00591724
-6.61039e-06
0.00594709
-8.10668e-06
0.00597307
-8.93694e-06
0.00599228
-8.97467e-06
0.00600447
-8.24935e-06
0.00601183
-7.08513e-06
0.00601765
-5.87613e-06
0.00602476
-4.85461e-06
0.00603468
-4.14992e-06
0.00604753
-3.61973e-06
0.00606257
-3.20774e-06
0.00607885
-2.83315e-06
0.00609548
-2.36148e-06
0.00611196
-1.82188e-06
0.00612812
-1.47075e-06
0.00614404
-1.33981e-06
0.00615984
-1.42139e-06
0.00617561
-1.59714e-06
0.00619144
-1.84439e-06
-2.03475e-06
0.00620728
0.00491666
-4.0109e-05
0.0049668
-9.99111e-05
0.00503324
-0.000160567
0.00511212
-0.000208949
0.00519904
-0.00024548
0.00528822
-0.000264669
0.0053746
-0.000269379
0.0054545
-0.00026158
0.00552586
-0.00024319
0.00558836
-0.000217315
0.00564201
-0.000186024
0.00568657
-0.000151645
0.00572257
-0.000116538
0.00575225
-8.31166e-05
0.00577869
-5.37537e-05
0.00580377
-3.03787e-05
0.00582743
-1.40074e-05
0.00584924
-4.37845e-06
0.00587011
-8.38548e-08
0.00589198
5.54069e-07
0.00591548
-7.62569e-07
0.00593883
-2.69246e-06
0.00595883
-4.5649e-06
0.00597313
-5.91945e-06
0.00598162
-6.43238e-06
0.00598642
-6.22918e-06
0.00599053
-5.67292e-06
0.00599648
-5.06611e-06
0.00600553
-4.59225e-06
0.00601765
-4.16852e-06
0.00603207
-3.79513e-06
0.00604782
-3.42943e-06
0.00606404
-2.88485e-06
0.00608023
-2.24672e-06
0.00609622
-1.84235e-06
0.00611201
-1.72205e-06
0.00612767
-1.83797e-06
0.00614326
-2.08988e-06
0.00615884
-2.43738e-06
-2.68875e-06
0.00617439
0.00492129
-5.82251e-05
0.00498062
-0.000139272
0.00505476
-0.000215496
0.00512901
-0.00026524
0.00519026
-0.000290286
0.00523048
-0.00029003
0.005249
-0.000274693
0.00524922
-0.000250171
0.0052357
-0.00021904
0.0052142
-0.000185219
0.00519013
-0.000150758
0.00516752
-0.000117016
0.00514977
-8.53465e-05
0.00513991
-5.73696e-05
0.00513968
-3.47026e-05
0.00514851
-1.81581e-05
0.00516421
-7.4998e-06
0.00518465
-1.79178e-06
0.00520834
4.50825e-07
0.00523336
7.33345e-07
0.00525716
-4.77798e-08
0.00527704
-1.16712e-06
0.00529133
-2.27604e-06
0.00530027
-3.04862e-06
0.00530573
-3.1707e-06
0.00531025
-2.77264e-06
0.00531611
-2.39929e-06
0.00532462
-2.36854e-06
0.00533576
-2.46716e-06
0.00534873
-2.40115e-06
0.00536268
-2.23687e-06
0.00537708
-2.07231e-06
0.00539156
-1.6657e-06
0.00540596
-1.11713e-06
0.00542034
-8.80099e-07
0.00543478
-9.63216e-07
0.00544919
-1.15913e-06
0.00546345
-1.36e-06
0.00547752
-1.59457e-06
-1.73174e-06
0.00549139
0.00484511
0.00472577
0.00452945
0.0042822
0.00400845
0.00373354
0.00347281
0.00323596
0.00303056
0.00286024
0.00272602
0.00262703
0.00256073
0.00252281
0.00250726
0.00250746
0.00251734
0.00253203
0.00254827
0.00256424
0.002579
0.00259237
0.0026046
0.00261627
0.00262818
0.00264088
0.00265425
0.00266778
0.00268122
0.00269463
0.00270807
0.00272153
0.00273529
0.0027495
0.00276387
0.00277808
0.00279201
0.00280567
0.00281901
0.00283213
0.0028413
3.587e-06
0.00285243
2.83708e-06
0.00286147
1.80359e-06
0.0028695
1.22196e-06
0.00287646
2.35316e-06
0.00288455
3.46686e-06
0.00289314
4.87429e-06
0.00290183
5.55821e-06
0.00291241
6.47361e-06
6.17534e-06
0.00292213
0.00550185
5.04268e-06
0.00551449
4.8853e-06
0.00552601
4.76317e-06
0.00553683
4.64914e-06
0.00554746
5.72175e-06
0.005558
6.73971e-06
0.00556848
8.29822e-06
0.00557871
9.31482e-06
0.00558925
1.01076e-05
1.02111e-05
0.00559957
0.00618892
4.27579e-06
0.00620428
4.2439e-06
0.00621931
4.33787e-06
0.0062341
4.39365e-06
0.006249
5.28793e-06
0.00626397
6.15782e-06
0.00627925
7.35989e-06
0.00629469
8.17662e-06
0.00631034
8.72513e-06
8.8059e-06
0.00632591
0.00622287
3.12015e-06
0.00623867
3.15989e-06
0.00625426
3.37384e-06
0.00626969
3.50822e-06
0.00628526
4.17976e-06
0.00630101
4.78887e-06
0.00631705
5.64845e-06
0.00633322
6.25454e-06
0.0063495
6.62733e-06
6.7597e-06
0.00636563
0.00622316
2.05144e-06
0.00623893
2.10292e-06
0.00625462
2.31817e-06
0.00627022
2.45753e-06
0.0062859
2.96001e-06
0.00630164
3.42614e-06
0.00631754
4.05807e-06
0.00633348
4.53338e-06
0.00634941
4.83401e-06
4.95558e-06
0.00636526
0.00622321
1.00852e-06
0.00623899
1.03978e-06
0.00625473
1.21474e-06
0.00627041
1.32612e-06
0.00628615
1.68762e-06
0.00630193
2.02683e-06
0.00631777
2.50337e-06
0.00633363
2.88745e-06
0.00634945
3.12726e-06
3.23493e-06
0.00636519
0.00622328
-2.16478e-08
0.00623907
-3.16741e-08
0.00625485
7.25884e-08
0.00627059
1.32289e-07
0.00628638
3.6437e-07
0.00630218
6.03113e-07
0.006318
9.71675e-07
0.00633377
1.31392e-06
0.00634945
1.55805e-06
1.66854e-06
0.00636503
0.00622334
-1.04266e-06
0.00623914
-1.11359e-06
0.00625495
-1.09837e-06
0.00627075
-1.11152e-06
0.00628658
-1.00008e-06
0.0063024
-8.39971e-07
0.00631818
-5.24001e-07
0.00633388
-1.86835e-07
0.00634947
6.53139e-08
1.6026e-07
0.00636499
0.00622313
-2.08145e-06
0.00623894
-2.20895e-06
0.00625476
-2.28402e-06
0.00627058
-2.37835e-06
0.00628646
-2.40719e-06
0.00630235
-2.36242e-06
0.00631821
-2.09484e-06
0.00633392
-1.70146e-06
0.00634943
-1.33678e-06
-1.18761e-06
0.00636478
0.0061899
-2.78049e-06
0.00620536
-2.94355e-06
0.00622082
-3.1087e-06
0.0062363
-3.29795e-06
0.0062518
-3.43951e-06
0.0062673
-3.48003e-06
0.00628274
-3.25043e-06
0.00629808
-2.84434e-06
0.00631332
-2.46701e-06
-2.32612e-06
0.00632847
0.00550498
-1.62807e-06
0.00551826
-1.55639e-06
0.00553146
-1.72897e-06
0.00554466
-2.0001e-06
0.00555779
-2.16198e-06
0.00557081
-2.1762e-06
0.00558367
-1.88208e-06
0.00559648
-1.52194e-06
0.00560947
-1.40757e-06
-1.5566e-06
0.00562266
0.00284528
0.00285841
0.00287129
0.0028838
0.00289606
0.00290821
0.00292057
0.0029332
0.00294584
0.00295824
0.00293126
4.56778e-06
0.00294179
5.47271e-06
0.002956
6.25355e-06
0.00297234
6.11756e-06
0.00298839
4.80555e-06
0.00300264
3.3673e-06
0.00301519
2.23528e-06
0.00302675
1.55578e-06
0.00303793
1.26998e-06
0.0030491
1.15621e-06
0.00306061
8.27739e-07
0.00307246
4.59551e-07
0.00308433
4.67486e-07
0.00309618
6.39513e-07
0.00310826
6.96547e-07
0.00312079
5.36745e-07
0.00313365
3.42421e-07
0.00314648
3.16071e-07
0.00315919
2.24509e-07
0.00317163
1.76816e-07
0.00318329
6.04099e-07
0.00319384
1.36351e-06
0.00320324
2.19664e-06
0.00321178
2.79749e-06
0.00322018
2.71936e-06
0.00322882
2.30049e-06
0.00323736
2.2673e-06
0.00324572
2.31998e-06
0.00325387
2.40524e-06
0.00326185
2.4539e-06
0.00326981
2.35095e-06
0.00327806
1.92189e-06
0.00328666
1.44655e-06
0.00329519
1.37542e-06
0.00330399
9.64335e-07
0.00331202
1.59255e-06
0.00332112
3.79429e-07
0.00332921
1.25329e-06
0.00333681
1.57601e-06
-7.16151e-07
0.00560947
9.01427e-06
0.00562015
9.18605e-06
0.00563196
9.09219e-06
0.00564446
8.54274e-06
0.00565726
7.08896e-06
0.00567033
5.37583e-06
0.00568373
3.80745e-06
0.00569732
2.75117e-06
0.00571077
2.2733e-06
0.00572368
2.1722e-06
0.00573567
2.04032e-06
0.00574682
1.73415e-06
0.00575774
1.49667e-06
0.00576887
1.51389e-06
0.00578032
1.76744e-06
0.00579195
2.01233e-06
0.00580366
2.07968e-06
0.00581551
1.94957e-06
0.00582756
1.64035e-06
0.00583974
1.55572e-06
0.00585202
2.09716e-06
0.0058642
3.10877e-06
0.00587588
4.31361e-06
0.00588672
5.2914e-06
0.00589648
5.60484e-06
0.00590528
5.38496e-06
0.00591367
5.11642e-06
0.00592191
4.84676e-06
0.00593006
4.74126e-06
0.00593815
4.68171e-06
0.00594618
4.54653e-06
0.00595424
4.00313e-06
0.00596243
3.31392e-06
0.00597077
2.98649e-06
0.00597945
2.13311e-06
0.00598805
2.71847e-06
0.00599619
1.80548e-06
0.0060048
2.09897e-06
0.00601294
2.72805e-06
2.85756e-07
0.00634095
8.04442e-06
0.00635609
8.03741e-06
0.00637142
7.70162e-06
0.00638674
7.06243e-06
0.00640174
5.77039e-06
0.00641628
4.32121e-06
0.00643042
2.99577e-06
0.00644431
2.0791e-06
0.00645809
1.61505e-06
0.00647179
1.45194e-06
0.00648525
1.32503e-06
0.00649832
1.13705e-06
0.00651102
1.02718e-06
0.00652361
1.11931e-06
0.00653636
1.37105e-06
0.0065494
1.57469e-06
0.00656261
1.6303e-06
0.00657574
1.5545e-06
0.00658856
1.38872e-06
0.00660109
1.44544e-06
0.00661352
1.97374e-06
0.00662605
2.83551e-06
0.00663867
3.83342e-06
0.00665123
4.64942e-06
0.00666347
4.93869e-06
0.00667523
4.7745e-06
0.00668662
4.49797e-06
0.00669772
4.22047e-06
0.00670867
4.07986e-06
0.00671954
3.99205e-06
0.00673039
3.83245e-06
0.00674111
3.36274e-06
0.00675173
2.72193e-06
0.00676229
2.38312e-06
0.00677259
1.68555e-06
0.00678297
2.08114e-06
0.00679292
1.45779e-06
0.00680287
1.63675e-06
0.00681283
2.09131e-06
2.29034e-07
0.00638137
6.29482e-06
0.00639712
6.1782e-06
0.00641289
5.73491e-06
0.0064285
5.13785e-06
0.00644366
4.15335e-06
0.00645828
3.1016e-06
0.00647242
2.12221e-06
0.00648623
1.40885e-06
0.00649988
9.8936e-07
0.00651343
7.81312e-07
0.00652683
6.38261e-07
0.00654003
4.89129e-07
0.0065531
4.01467e-07
0.00656618
4.44171e-07
0.00657939
5.90003e-07
0.0065927
7.21761e-07
0.00660596
7.79748e-07
0.00661903
7.71674e-07
0.00663181
7.43048e-07
0.00664436
8.86005e-07
0.00665688
1.31075e-06
0.00666954
1.91085e-06
0.00668241
2.56587e-06
0.00669539
3.08688e-06
0.00670821
3.30036e-06
0.00672068
3.2602e-06
0.00673279
3.14792e-06
0.00674459
3.00754e-06
0.00675624
2.90718e-06
0.00676782
2.78672e-06
0.00677937
2.58994e-06
0.0067907
2.24559e-06
0.00680175
1.78911e-06
0.00681255
1.58835e-06
0.00682299
1.11953e-06
0.00683349
1.33713e-06
0.00684357
9.7518e-07
0.0068537
1.00049e-06
0.00686389
1.21336e-06
7.05111e-08
0.00638085
4.64076e-06
0.0063964
4.48285e-06
0.00641183
4.04932e-06
0.0064271
3.51509e-06
0.00644207
2.70903e-06
0.00645671
1.86551e-06
0.00647105
1.06523e-06
0.00648518
4.52543e-07
0.00649917
5.81328e-08
0.00651304
-1.60391e-07
0.00652676
-2.90805e-07
0.0065403
-3.87999e-07
0.0065537
-4.26213e-07
0.00656703
-3.79111e-07
0.00658033
-2.5786e-07
0.00659357
-1.27025e-07
0.00660668
-2.26738e-08
0.00661956
6.03177e-08
0.00663221
1.1946e-07
0.00664474
2.58378e-07
0.00665726
5.57661e-07
0.00666986
9.66981e-07
0.00668252
1.41786e-06
0.00669515
1.79981e-06
0.00670763
1.98995e-06
0.0067199
1.99639e-06
0.00673197
1.91765e-06
0.0067439
1.79835e-06
0.00675572
1.68905e-06
0.00676743
1.57308e-06
0.00677899
1.41327e-06
0.00679034
1.17855e-06
0.0068014
8.77842e-07
0.00681231
7.06563e-07
0.00682289
4.28688e-07
0.00683349
4.97531e-07
0.00684374
3.22049e-07
0.00685388
3.46686e-07
0.00686396
4.49376e-07
-4.01862e-08
0.00638075
3.00433e-06
0.00639624
2.81981e-06
0.00641162
2.4038e-06
0.00642684
1.92057e-06
0.0064418
1.25803e-06
0.00645648
5.92551e-07
0.00647088
-3.17976e-08
0.00648503
-5.10603e-07
0.00649898
-8.22911e-07
0.00651279
-1.00837e-06
0.00652646
-1.12417e-06
0.00654
-1.21025e-06
0.00655345
-1.24442e-06
0.0065668
-1.19943e-06
0.00658008
-1.07969e-06
0.00659325
-9.35501e-07
0.00660627
-7.98183e-07
0.00661912
-6.74654e-07
0.00663181
-5.85151e-07
0.00664438
-4.53102e-07
0.0066569
-2.32337e-07
0.00666945
3.68197e-08
0.00668202
3.16495e-07
0.00669461
5.45386e-07
0.00670713
6.53826e-07
0.0067195
6.586e-07
0.00673171
6.09557e-07
0.00674375
5.37016e-07
0.00675565
4.58571e-07
0.00676739
3.65778e-07
0.00677899
2.37516e-07
0.00679039
7.71137e-08
0.00680151
-7.73076e-08
0.00681245
-2.03523e-07
0.00682304
-2.73371e-07
0.0068336
-2.9617e-07
0.0068438
-2.8286e-07
0.00685387
-2.28864e-07
0.00686382
-1.98302e-07
-8.6754e-08
0.00638046
1.48739e-06
0.00639581
1.28875e-06
0.00641103
9.02152e-07
0.00642611
4.58756e-07
0.006441
-1.20382e-07
0.0064557
-6.92167e-07
0.00647019
-1.22321e-06
0.0064845
-1.62796e-06
0.00649864
-1.877e-06
0.00651262
-2.01324e-06
0.00652645
-2.09067e-06
0.00654014
-2.15098e-06
0.00655371
-2.17065e-06
0.00656717
-2.11276e-06
0.0065805
-1.96778e-06
0.00659368
-1.77772e-06
0.00660667
-1.57281e-06
0.00661947
-1.37816e-06
0.00663211
-1.26027e-06
0.00664466
-1.15778e-06
0.00665716
-1.01866e-06
0.00666967
-8.69662e-07
0.00668217
-7.21226e-07
0.00669464
-5.9283e-07
0.00670703
-5.41447e-07
0.00671931
-5.57842e-07
0.00673147
-6.17713e-07
0.0067435
-6.85099e-07
0.0067554
-7.57057e-07
0.00676715
-8.25253e-07
0.00677874
-9.16026e-07
0.00679012
-1.00993e-06
0.00680125
-1.03848e-06
0.00681223
-1.14765e-06
0.00682287
-1.02806e-06
0.00683348
-1.14861e-06
0.00684374
-9.41553e-07
0.00685385
-8.46617e-07
0.00686384
-8.84189e-07
-1.53074e-07
0.0063804
-1.33782e-08
0.00639574
-2.29619e-07
0.00641095
-5.92263e-07
0.00642603
-1.00711e-06
0.00644094
-1.52321e-06
0.00645567
-2.01058e-06
0.0064702
-2.44248e-06
0.00648451
-2.74596e-06
0.00649862
-2.89313e-06
0.00651255
-2.9605e-06
0.00652633
-3.00665e-06
0.00654001
-3.06745e-06
0.00655359
-3.09608e-06
0.00656705
-3.01996e-06
0.00658034
-2.82533e-06
0.00659346
-2.57786e-06
0.0066064
-2.31204e-06
0.00661918
-2.07274e-06
0.00663185
-1.96751e-06
0.00664444
-1.91025e-06
0.00665698
-1.84101e-06
0.0066695
-1.7978e-06
0.00668201
-1.76839e-06
0.00669449
-1.74417e-06
0.00670693
-1.77046e-06
0.00671927
-1.82129e-06
0.00673149
-1.89335e-06
0.00674357
-1.93987e-06
0.00675549
-1.98616e-06
0.00676725
-2.01931e-06
0.00677885
-2.08362e-06
0.00679025
-2.10668e-06
0.00680139
-2.01225e-06
0.00681238
-2.09899e-06
0.006823
-1.76903e-06
0.00683363
-2.01635e-06
0.00684388
-1.59702e-06
0.00685402
-1.49537e-06
0.00686407
-1.62763e-06
-2.40122e-07
0.00638005
-1.36532e-06
0.00639525
-1.62131e-06
0.00641036
-1.9783e-06
0.00642535
-2.38582e-06
0.00644022
-2.88353e-06
0.00645497
-3.34891e-06
0.00646959
-3.75257e-06
0.00648406
-4.01089e-06
0.00649831
-4.05675e-06
0.00651234
-4.0062e-06
0.00652619
-3.97754e-06
0.00653993
-4.03577e-06
0.00655359
-4.10055e-06
0.00656715
-4.03481e-06
0.00658055
-3.79693e-06
0.00659375
-3.46343e-06
0.0066067
-3.06255e-06
0.0066194
-2.69624e-06
0.00663198
-2.58223e-06
0.00664449
-2.5891e-06
0.00665696
-2.59775e-06
0.00666943
-2.67058e-06
0.00668189
-2.76863e-06
0.00669432
-2.83196e-06
0.00670668
-2.92419e-06
0.00671897
-3.02526e-06
0.00673116
-3.12776e-06
0.00674322
-3.17325e-06
0.00675514
-3.20611e-06
0.00676689
-3.2033e-06
0.00677852
-3.26936e-06
0.00678993
-3.21699e-06
0.00680111
-3.02709e-06
0.0068121
-3.06153e-06
0.00682275
-2.52967e-06
0.00683343
-2.93758e-06
0.00684364
-2.20355e-06
0.00685384
-2.2147e-06
0.00686408
-2.55903e-06
-4.13152e-07
0.00634353
-2.50182e-06
0.00635844
-2.72002e-06
0.0063732
-3.0127e-06
0.00638783
-3.40073e-06
0.00640232
-3.8487e-06
0.00641662
-4.23024e-06
0.00643071
-4.53718e-06
0.00644463
-4.71837e-06
0.00645835
-4.6828e-06
0.00647189
-4.55057e-06
0.00648529
-4.49369e-06
0.0064986
-4.57834e-06
0.00651182
-4.65644e-06
0.00652489
-4.55711e-06
0.00653782
-4.28377e-06
0.0065506
-3.92642e-06
0.00656321
-3.47177e-06
0.00657567
-3.07245e-06
0.00658805
-2.99764e-06
0.00660034
-3.04041e-06
0.00661252
-3.05626e-06
0.00662462
-3.17194e-06
0.00663669
-3.36131e-06
0.0066487
-3.49849e-06
0.00666064
-3.64446e-06
0.00667249
-3.77723e-06
0.00668422
-3.89633e-06
0.00669581
-3.92903e-06
0.00670729
-3.97814e-06
0.00671863
-3.96357e-06
0.00672985
-4.04645e-06
0.00674085
-3.91646e-06
0.00675163
-3.6365e-06
0.00676226
-3.64736e-06
0.00677257
-2.94651e-06
0.00678295
-3.54782e-06
0.00679288
-2.53384e-06
0.00680283
-2.66746e-06
0.00681277
-3.18537e-06
-4.68656e-07
0.00563582
-1.80221e-06
0.00564862
-1.75307e-06
0.00566102
-1.7487e-06
0.00567328
-2.10283e-06
0.00568541
-2.50478e-06
0.00569716
-2.62085e-06
0.00570843
-2.55128e-06
0.00571942
-2.55703e-06
0.0057303
-2.51838e-06
0.00574107
-2.38005e-06
0.0057518
-2.39436e-06
0.00576254
-2.59484e-06
0.00577314
-2.65347e-06
0.0057835
-2.41503e-06
0.00579369
-2.09322e-06
0.00580386
-1.83586e-06
0.0058141
-1.55988e-06
0.0058245
-1.43596e-06
0.00583506
-1.64057e-06
0.00584558
-1.75481e-06
0.00585578
-1.5812e-06
0.00586567
-1.51652e-06
0.00587543
-1.6866e-06
0.00588505
-1.81702e-06
0.00589451
-1.92644e-06
0.00590376
-1.98137e-06
0.00591276
-1.9705e-06
0.00592153
-1.90754e-06
0.00593023
-2.00829e-06
0.00593891
-2.11405e-06
0.00594753
-2.26633e-06
0.005956
-2.12161e-06
0.00596424
-1.74325e-06
0.0059723
-1.70922e-06
0.00598051
-1.2959e-06
0.00598862
-1.93108e-06
0.00599637
-7.13778e-07
0.0060047
-1.53728e-06
0.00601259
-1.78608e-06
6.44118e-07
0.00297029
0.0029823
0.00299421
0.00300566
0.0030166
0.00302732
0.00303801
0.00304858
0.00305908
0.00306961
0.00308002
0.00309011
0.00310003
0.00311006
0.00312031
0.0031307
0.00314124
0.00315179
0.00316201
0.00317199
0.00318203
0.003192
0.00320168
0.00321109
0.00322028
0.00322927
0.00323815
0.00324696
0.00325553
0.00326386
0.00327191
0.00327997
0.00328826
0.00329646
0.00330492
0.00331262
0.00332138
0.00332918
0.00333657
)
;

boundaryField
{
    upperWall
    {
        type            calculated;
        value           uniform 0;
    }
    lowerWall
    {
        type            calculated;
        value           uniform 0;
    }
    heatedWall
    {
        type            calculated;
        value           uniform 0;
    }
    inlet
    {
        type            calculated;
        value           nonuniform List<scalar> 
12
(
-0.00488306
-0.0048829
-0.00488288
-0.00488281
-0.00488279
-0.00488277
-0.00488277
-0.00488279
-0.00488281
-0.00488288
-0.0048829
-0.00488306
)
;
    }
    outlet
    {
        type            calculated;
        value           nonuniform List<scalar> 
12
(
0.00334658
0.00602111
0.00682209
0.00687325
0.00687327
0.00687307
0.00687311
0.00687336
0.00687346
0.00682204
0.00602065
0.00334628
)
;
    }
    frontAndBack
    {
        type            empty;
        value           nonuniform 0();
    }
}


// ************************************************************************* //
