/*--------------------------------*- C++ -*----------------------------------*\
  =========                 |
  \\      /  F ield         | OpenFOAM: The Open Source CFD Toolbox
   \\    /   O peration     | Website:  https://openfoam.org
    \\  /    A nd           | Version:  7
     \\/     M anipulation  |
\*---------------------------------------------------------------------------*/
FoamFile
{
    version     2.0;
    format      ascii;
    class       volScalarField;
    location    "0.3325";
    object      k;
}
// * * * * * * * * * * * * * * * * * * * * * * * * * * * * * * * * * * * * * //

dimensions      [0 2 -2 0 0 0 0];

internalField   nonuniform List<scalar> 
7920
(
52.0632
56.5338
56.569
56.61
56.5052
56.4706
56.3688
56.3503
56.2924
56.2974
56.2656
56.2808
56.269
56.2945
56.2957
56.3182
56.3275
56.3192
56.4078
56.5598
13.8495
14.0173
13.4419
12.8886
12.6168
12.5018
12.4002
12.3628
12.3062
12.2885
12.2617
12.2637
12.2564
12.2644
12.2623
12.2707
12.2696
12.2729
12.4332
12.4521
8.08957
9.22601
9.34345
9.32832
9.28569
9.26466
9.22086
9.2004
9.16642
9.15529
9.13533
9.13285
9.12528
9.12941
9.13023
9.14001
9.14326
9.15151
9.15958
9.19355
7.48641
8.75646
9.00716
9.09991
9.12315
9.14603
9.13639
9.13213
9.11395
9.11029
9.09828
9.09681
9.08801
9.08914
9.08811
9.09716
9.10403
9.11577
9.12364
9.15164
7.42148
8.70248
8.9659
9.0749
9.11212
9.1514
9.15254
9.15912
9.15096
9.15514
9.15019
9.15377
9.14744
9.14889
9.14667
9.15402
9.1624
9.17358
9.18465
9.21332
7.42842
8.69891
8.9607
9.07135
9.1124
9.15697
9.16273
9.17558
9.17187
9.18114
9.18067
9.18808
9.18381
9.1858
9.18319
9.18964
9.19893
9.20952
9.22411
9.25043
7.42842
8.69891
8.9607
9.07135
9.1124
9.15697
9.16273
9.17559
9.17187
9.18115
9.18066
9.18809
9.1838
9.18582
9.18319
9.18963
9.19896
9.20948
9.22419
9.25042
7.42148
8.70248
8.9659
9.07491
9.11212
9.15141
9.15254
9.15914
9.15095
9.15516
9.15015
9.15381
9.1474
9.14895
9.14665
9.15407
9.16237
9.1736
9.18478
9.21333
7.48641
8.75646
9.00715
9.09992
9.12315
9.14604
9.13637
9.13215
9.11392
9.11034
9.09822
9.0969
9.08792
9.08932
9.088
9.09738
9.10366
9.11617
9.12358
9.15186
8.08957
9.22601
9.34345
9.32832
9.28568
9.26467
9.22085
9.20043
9.16637
9.15535
9.13523
9.13298
9.12512
9.12976
9.12994
9.14049
9.14272
9.1525
9.15842
9.19491
13.8495
14.0173
13.4419
12.8886
12.6168
12.5019
12.4002
12.3628
12.3061
12.2885
12.2616
12.2639
12.2562
12.2647
12.2618
12.2715
12.2685
12.2744
12.4288
12.4565
52.0632
56.5338
56.569
56.61
56.5052
56.4707
56.3688
56.3504
56.2924
56.2976
56.2653
56.2812
56.2683
56.2956
56.2939
56.3207
56.3235
56.3251
56.396
56.5839
7.68083
9.68147
9.76554
9.63534
9.59422
9.51678
9.50928
9.46631
9.46818
9.44287
9.44943
9.43437
9.44243
9.43273
9.43971
9.43163
9.43772
9.42689
9.42783
9.48412
6.02401
8.25576
8.59794
8.64037
8.63806
8.62661
8.61234
8.60206
8.59413
8.58893
8.58653
8.58594
8.58806
8.591
8.5961
8.59922
8.6028
8.60482
8.61074
8.62178
5.70557
7.90852
8.26052
8.33198
8.33961
8.34262
8.33186
8.32569
8.31618
8.31547
8.31248
8.31345
8.31444
8.3193
8.32645
8.33405
8.34392
8.34764
8.35315
8.3838
5.69702
7.8987
8.24636
8.3149
8.3181
8.31739
8.30008
8.28588
8.26856
8.26337
8.25669
8.2555
8.25269
8.25402
8.25853
8.26774
8.27955
8.28862
8.29904
8.32554
5.68535
7.8829
8.23017
8.30042
8.30371
8.30333
8.28474
8.2679
8.24644
8.23886
8.22993
8.22806
8.22311
8.22299
8.22464
8.23328
8.24435
8.25781
8.26671
8.2973
5.69175
7.89092
8.23729
8.30703
8.31026
8.31001
8.29149
8.27446
8.25223
8.24409
8.23452
8.23232
8.22632
8.2252
8.22525
8.23263
8.24314
8.25808
8.26802
8.29909
5.69175
7.89092
8.23729
8.30703
8.31026
8.31002
8.29149
8.27446
8.25222
8.2441
8.23451
8.23233
8.22632
8.22521
8.22525
8.23262
8.24315
8.25803
8.26805
8.29908
5.68535
7.8829
8.23017
8.30042
8.30371
8.30333
8.28473
8.26792
8.24641
8.23889
8.22988
8.22809
8.22308
8.22303
8.22462
8.23334
8.2443
8.25782
8.26678
8.2972
5.69702
7.8987
8.24636
8.31491
8.3181
8.3174
8.30007
8.28591
8.26851
8.26343
8.2566
8.25557
8.25262
8.25415
8.2583
8.26802
8.27916
8.28892
8.29886
8.32556
5.70557
7.90852
8.26052
8.33198
8.33961
8.34263
8.33185
8.32572
8.31614
8.31552
8.3124
8.31361
8.31428
8.3196
8.32582
8.33483
8.3429
8.34883
8.35219
8.38468
6.02401
8.25576
8.59794
8.64037
8.63806
8.62662
8.61233
8.60207
8.5941
8.58897
8.58646
8.58602
8.58786
8.59135
8.59555
8.6
8.60177
8.60621
8.60872
8.6251
7.68083
9.68147
9.76554
9.63534
9.59422
9.51678
9.50928
9.46631
9.46817
9.44289
9.4494
9.43441
9.44235
9.43287
9.43952
9.43199
9.43728
9.4278
9.42654
9.48743
0.477899
1.03744
1.13543
1.1064
1.03262
0.970209
0.92743
0.904516
0.892158
0.886633
0.884755
0.884192
0.884948
0.886279
0.886943
0.890443
0.888457
0.896472
0.884274
0.905362
0.0867193
0.384453
0.528462
0.589798
0.61013
0.620477
0.62278
0.62401
0.622889
0.62236
0.62152
0.6219
0.622351
0.623912
0.624836
0.626748
0.627725
0.629627
0.63088
0.635461
0.0644531
0.301901
0.418819
0.476031
0.492898
0.503594
0.504805
0.507716
0.507833
0.509088
0.509192
0.509993
0.510257
0.511082
0.511822
0.512281
0.513388
0.513317
0.514172
0.516664
0.0682829
0.30553
0.420022
0.474788
0.491314
0.500364
0.500605
0.501434
0.500729
0.500947
0.500605
0.500813
0.500855
0.501257
0.501907
0.502317
0.503207
0.503339
0.503927
0.50643
0.0664833
0.301546
0.414918
0.46963
0.485786
0.494883
0.494989
0.495624
0.4947
0.494739
0.494138
0.494178
0.493991
0.494211
0.494648
0.495207
0.4959
0.496294
0.496611
0.498949
0.067517
0.303778
0.417529
0.472025
0.488303
0.497321
0.4975
0.498171
0.497307
0.497327
0.496764
0.496761
0.496555
0.496709
0.497102
0.497624
0.498337
0.49871
0.499156
0.501499
0.067517
0.303778
0.417529
0.472025
0.488303
0.497321
0.4975
0.498171
0.497306
0.497327
0.496763
0.496762
0.496555
0.49671
0.497101
0.497625
0.498337
0.49871
0.499156
0.501498
0.0664833
0.301546
0.414918
0.46963
0.485786
0.494883
0.494989
0.495624
0.4947
0.494739
0.494138
0.494179
0.493991
0.494215
0.49464
0.495209
0.495902
0.496289
0.496616
0.498951
0.0682829
0.30553
0.420022
0.474788
0.491314
0.500364
0.500605
0.501434
0.500728
0.500948
0.500604
0.500818
0.500855
0.501265
0.501886
0.502325
0.503201
0.503337
0.503927
0.50642
0.0644531
0.301901
0.418819
0.476032
0.492898
0.503594
0.504805
0.507717
0.507832
0.50909
0.509191
0.509999
0.510254
0.511097
0.511789
0.512276
0.513374
0.513322
0.514166
0.516631
0.0867193
0.384453
0.528462
0.589798
0.61013
0.620477
0.622779
0.624011
0.622886
0.622365
0.621515
0.621911
0.622342
0.623929
0.624815
0.62677
0.627683
0.629635
0.630787
0.635349
0.477899
1.03744
1.13543
1.1064
1.03262
0.97021
0.927429
0.904517
0.892156
0.886637
0.884749
0.884206
0.884927
0.886331
0.886928
0.890528
0.888429
0.896727
0.884245
0.906023
0.477899
1.03744
1.13543
1.1064
1.03262
0.97021
0.92743
0.904516
0.892157
0.886633
0.884754
0.884192
0.884948
0.886278
0.886943
0.890443
0.888456
0.896472
0.884274
0.905362
0.0867194
0.384453
0.528462
0.589798
0.61013
0.620477
0.62278
0.62401
0.622889
0.62236
0.62152
0.6219
0.622351
0.623912
0.624836
0.626748
0.627725
0.629627
0.63088
0.635461
0.0644532
0.301901
0.418819
0.476032
0.492898
0.503594
0.504806
0.507717
0.507833
0.509088
0.509192
0.509993
0.510257
0.511082
0.511822
0.512281
0.513388
0.513317
0.514172
0.516664
0.068283
0.30553
0.420022
0.474788
0.491314
0.500364
0.500605
0.501434
0.500729
0.500947
0.500605
0.500813
0.500855
0.501257
0.501907
0.502317
0.503207
0.503339
0.503927
0.50643
0.0664834
0.301546
0.414918
0.46963
0.485786
0.494883
0.494989
0.495624
0.4947
0.494739
0.494139
0.494178
0.493991
0.494211
0.494648
0.495207
0.4959
0.496294
0.496612
0.498949
0.0675171
0.303778
0.417529
0.472025
0.488303
0.497321
0.4975
0.498171
0.497307
0.497327
0.496764
0.496761
0.496555
0.496709
0.497103
0.497624
0.498338
0.49871
0.499157
0.501499
0.0675171
0.303778
0.417529
0.472025
0.488303
0.497321
0.4975
0.498172
0.497307
0.497327
0.496764
0.496762
0.496555
0.49671
0.497101
0.497625
0.498338
0.49871
0.499156
0.501498
0.0664834
0.301546
0.414918
0.469631
0.485786
0.494884
0.494989
0.495624
0.4947
0.494739
0.494138
0.494179
0.493991
0.494215
0.494641
0.495209
0.495902
0.49629
0.496616
0.498951
0.068283
0.30553
0.420022
0.474788
0.491314
0.500364
0.500605
0.501435
0.500728
0.500948
0.500604
0.500818
0.500855
0.501266
0.501886
0.502325
0.503201
0.503337
0.503927
0.50642
0.0644532
0.301901
0.418819
0.476032
0.492898
0.503594
0.504805
0.507717
0.507832
0.50909
0.509191
0.509999
0.510254
0.511098
0.511789
0.512276
0.513375
0.513322
0.514166
0.516631
0.0867194
0.384453
0.528462
0.589798
0.61013
0.620477
0.622779
0.624011
0.622886
0.622366
0.621515
0.621911
0.622342
0.623929
0.624815
0.62677
0.627683
0.629636
0.630787
0.63535
0.477899
1.03744
1.13543
1.1064
1.03262
0.97021
0.927429
0.904517
0.892156
0.886638
0.884749
0.884206
0.884927
0.886331
0.886928
0.890528
0.888429
0.896727
0.884245
0.906023
7.68083
9.68147
9.76554
9.63534
9.59422
9.51678
9.50928
9.46631
9.46818
9.44287
9.44943
9.43436
9.44243
9.43273
9.43971
9.43163
9.43772
9.42688
9.42783
9.48412
6.02401
8.25576
8.59794
8.64037
8.63806
8.62662
8.61234
8.60206
8.59413
8.58893
8.58653
8.58593
8.58806
8.591
8.5961
8.59922
8.6028
8.60482
8.61073
8.62178
5.70557
7.90852
8.26052
8.33198
8.33961
8.34262
8.33187
8.32569
8.31618
8.31547
8.31248
8.31344
8.31444
8.31929
8.32645
8.33405
8.34391
8.34764
8.35315
8.3838
5.69702
7.8987
8.24636
8.3149
8.3181
8.3174
8.30008
8.28588
8.26856
8.26337
8.25669
8.2555
8.25269
8.25402
8.25853
8.26773
8.27955
8.28862
8.29904
8.32554
5.68535
7.8829
8.23017
8.30042
8.30371
8.30333
8.28474
8.2679
8.24643
8.23886
8.22993
8.22806
8.22311
8.22299
8.22464
8.23328
8.24434
8.25781
8.26671
8.2973
5.69175
7.89092
8.23729
8.30703
8.31026
8.31001
8.29149
8.27446
8.25222
8.24409
8.23452
8.23232
8.22632
8.2252
8.22525
8.23263
8.24314
8.25808
8.26802
8.29909
5.69175
7.89092
8.23729
8.30703
8.31026
8.31002
8.29148
8.27446
8.25222
8.2441
8.23451
8.23233
8.22632
8.22521
8.22525
8.23262
8.24315
8.25804
8.26805
8.29908
5.68535
7.8829
8.23017
8.30042
8.30371
8.30333
8.28473
8.26792
8.24641
8.23889
8.22988
8.22809
8.22308
8.22303
8.22462
8.23334
8.24431
8.25782
8.26678
8.29721
5.69702
7.8987
8.24636
8.31491
8.3181
8.3174
8.30007
8.28591
8.26851
8.26343
8.2566
8.25557
8.25262
8.25415
8.25831
8.26803
8.27917
8.28893
8.29886
8.32556
5.70557
7.90852
8.26052
8.33198
8.33961
8.34263
8.33185
8.32572
8.31614
8.31552
8.3124
8.31361
8.31428
8.31961
8.32583
8.33484
8.34291
8.34884
8.3522
8.38469
6.02401
8.25576
8.59794
8.64037
8.63806
8.62662
8.61233
8.60207
8.5941
8.58897
8.58647
8.58603
8.58786
8.59136
8.59555
8.60001
8.60178
8.60621
8.60872
8.62511
7.68083
9.68147
9.76554
9.63534
9.59422
9.51678
9.50928
9.46631
9.46817
9.44289
9.4494
9.43442
9.44236
9.43287
9.43952
9.43199
9.43728
9.4278
9.42654
9.48743
52.0632
56.5338
56.569
56.61
56.5052
56.4707
56.3688
56.3503
56.2924
56.2974
56.2655
56.2808
56.269
56.2945
56.2956
56.3182
56.3274
56.3192
56.4078
56.5597
13.8495
14.0173
13.4419
12.8886
12.6168
12.5018
12.4002
12.3628
12.3062
12.2885
12.2617
12.2637
12.2564
12.2644
12.2623
12.2707
12.2696
12.2729
12.4332
12.452
8.08957
9.22601
9.34345
9.32832
9.28569
9.26466
9.22087
9.2004
9.16642
9.15528
9.13533
9.13285
9.12528
9.12941
9.13022
9.14
9.14326
9.1515
9.15957
9.19354
7.48641
8.75646
9.00716
9.09991
9.12315
9.14603
9.13639
9.13213
9.11395
9.11029
9.09828
9.09681
9.088
9.08913
9.08811
9.09716
9.10402
9.11576
9.12364
9.15163
7.42148
8.70248
8.9659
9.0749
9.11212
9.1514
9.15254
9.15912
9.15096
9.15514
9.15019
9.15377
9.14744
9.14888
9.14666
9.15402
9.1624
9.17358
9.18465
9.21332
7.42842
8.69891
8.9607
9.07135
9.1124
9.15697
9.16273
9.17558
9.17187
9.18114
9.18067
9.18808
9.18381
9.1858
9.18319
9.18964
9.19893
9.20952
9.22411
9.25043
7.42842
8.69891
8.9607
9.07135
9.1124
9.15697
9.16273
9.17559
9.17186
9.18115
9.18066
9.18809
9.1838
9.18581
9.18319
9.18963
9.19896
9.20948
9.22419
9.25042
7.42147
8.70248
8.9659
9.07491
9.11212
9.15141
9.15254
9.15913
9.15094
9.15516
9.15015
9.15381
9.1474
9.14895
9.14665
9.15407
9.16238
9.1736
9.18479
9.21333
7.48641
8.75646
9.00715
9.09992
9.12315
9.14604
9.13637
9.13214
9.11392
9.11034
9.09822
9.0969
9.08792
9.08932
9.088
9.09738
9.10366
9.11618
9.12358
9.15187
8.08957
9.22601
9.34345
9.32832
9.28568
9.26467
9.22085
9.20043
9.16637
9.15535
9.13523
9.13298
9.12512
9.12976
9.12995
9.1405
9.14273
9.15251
9.15843
9.19492
13.8495
14.0173
13.4419
12.8887
12.6168
12.5018
12.4002
12.3628
12.3061
12.2885
12.2616
12.2639
12.2562
12.2647
12.2618
12.2715
12.2685
12.2744
12.4288
12.4565
52.0632
56.5338
56.569
56.61
56.5052
56.4706
56.3688
56.3503
56.2924
56.2976
56.2653
56.2812
56.2683
56.2956
56.294
56.3207
56.3235
56.3251
56.396
56.5839
143.475
145.349
146.087
146.421
146.496
146.547
146.541
146.562
146.557
146.574
146.573
146.589
146.591
146.605
146.609
146.621
146.625
146.635
146.64
146.648
146.653
146.661
146.666
146.673
146.679
146.687
146.694
146.702
146.709
146.717
146.723
146.73
146.736
146.742
146.746
146.751
146.756
146.761
146.766
146.771
146.776
146.781
146.787
146.792
146.797
146.801
146.805
146.809
146.812
146.816
146.82
146.824
146.829
146.833
146.837
146.841
146.845
146.848
146.852
146.855
146.859
146.862
146.866
146.869
146.873
146.877
146.881
146.884
146.887
146.89
146.893
146.897
146.901
146.905
146.909
146.912
146.916
146.919
146.922
146.926
146.929
146.934
146.938
146.942
146.947
146.95
146.955
146.958
146.914
146.798
47.0895
48.7903
48.99
49.0944
49.0816
49.0981
49.0661
49.0698
49.0387
49.0372
49.008
49.0032
48.976
48.9693
48.9443
48.9366
48.9138
48.9059
48.8855
48.8779
48.8597
48.8528
48.8367
48.8305
48.8164
48.8109
48.7984
48.7934
48.7823
48.7777
48.7677
48.7634
48.7544
48.7505
48.7425
48.7391
48.7322
48.7294
48.7234
48.721
48.7158
48.7138
48.7092
48.7074
48.7033
48.7017
48.698
48.6966
48.6934
48.6924
48.6898
48.6891
48.6869
48.6863
48.6844
48.684
48.6823
48.682
48.6807
48.6806
48.6795
48.6797
48.6789
48.6792
48.6787
48.679
48.6787
48.6792
48.679
48.6796
48.6796
48.6804
48.6807
48.6816
48.6821
48.6831
48.6837
48.6847
48.6854
48.6867
48.6876
48.6891
48.6904
48.692
48.6936
48.6952
48.6973
48.6996
48.6676
48.6253
30.3504
32.3785
32.5056
32.5899
32.5625
32.5817
32.5395
32.5442
32.5017
32.4999
32.459
32.4528
32.4135
32.4045
32.3672
32.3566
32.3216
32.3103
32.2777
32.2664
32.2362
32.2252
32.1971
32.1864
32.1602
32.1496
32.1249
32.1144
32.0911
32.0807
32.0586
32.0485
32.0278
32.0181
31.999
31.99
31.9724
31.964
31.9477
31.9398
31.9247
31.9171
31.903
31.8958
31.8826
31.8758
31.8637
31.8574
31.8464
31.8407
31.8306
31.8255
31.8162
31.8114
31.8028
31.7983
31.7906
31.7866
31.7796
31.7761
31.7699
31.7668
31.7612
31.7585
31.7535
31.7512
31.7469
31.7449
31.7411
31.7396
31.7364
31.7353
31.7327
31.732
31.7299
31.7294
31.7277
31.7276
31.7264
31.7268
31.7261
31.7269
31.7267
31.7278
31.7282
31.7293
31.7305
31.7321
31.7234
31.6924
28.0838
30.5126
30.6878
30.7954
30.7709
30.7959
30.7481
30.753
30.7026
30.6996
30.6502
30.6419
30.5939
30.5823
30.5363
30.5229
30.4796
30.4658
30.4254
30.4119
30.3745
30.3616
30.3269
30.3145
30.282
30.2698
30.2389
30.2266
30.1972
30.1849
30.1569
30.145
30.1187
30.1073
30.083
30.0725
30.0501
30.0405
30.0197
30.0106
29.991
29.9822
29.9638
29.9554
29.9382
29.9302
29.9143
29.907
29.8925
29.886
29.8728
29.8668
29.8545
29.8488
29.8374
29.8321
29.8218
29.8171
29.8078
29.8038
29.7954
29.7919
29.7843
29.7813
29.7746
29.7719
29.766
29.7638
29.7588
29.7571
29.7529
29.7519
29.7483
29.7479
29.7449
29.7446
29.7423
29.7424
29.7408
29.7415
29.7406
29.7419
29.7414
29.7428
29.743
29.7443
29.7454
29.7469
29.7488
29.7294
27.8632
30.5161
30.7436
30.8812
30.8607
30.892
30.8409
30.8469
30.7916
30.7883
30.7336
30.7242
30.6706
30.6574
30.6058
30.5905
30.5417
30.526
30.4804
30.4652
30.4229
30.4086
30.3693
30.3556
30.3186
30.3051
30.2699
30.2562
30.2225
30.2088
30.1767
30.1633
30.1331
30.1205
30.0926
30.0812
30.0555
30.0451
30.0212
30.0113
29.9889
29.9793
29.9582
29.949
29.9292
29.9206
29.9024
29.8946
29.8781
29.8713
29.8563
29.8501
29.8361
29.8302
29.8172
29.8118
29.8
29.7953
29.7849
29.7809
29.7716
29.7683
29.7598
29.757
29.7495
29.7472
29.7407
29.7388
29.7333
29.7321
29.7276
29.7272
29.7234
29.7235
29.7204
29.7208
29.7184
29.7191
29.7176
29.7191
29.7184
29.7204
29.7202
29.7222
29.7226
29.7245
29.7258
29.7281
29.7305
29.7221
27.9087
30.7012
30.9574
31.104
31.0834
31.1164
31.0637
31.0696
31.0122
31.0084
30.9514
30.9413
30.8853
30.8712
30.817
30.8009
30.7496
30.7331
30.6851
30.6693
30.6248
30.6098
30.5685
30.5543
30.5154
30.5013
30.4641
30.45
30.4143
30.4
30.366
30.352
30.32
30.3069
30.2773
30.2655
30.2383
30.2276
30.2022
30.1921
30.1683
30.1585
30.136
30.1265
30.1055
30.0967
30.0774
30.0695
30.052
30.0451
30.0292
30.023
30.0082
30.0023
29.9885
29.9831
29.9707
29.9661
29.9552
29.9513
29.9415
29.9383
29.9295
29.9269
29.9191
29.917
29.9103
29.9086
29.903
29.9021
29.8975
29.8974
29.8937
29.8942
29.8911
29.8918
29.8895
29.8907
29.8893
29.8912
29.8907
29.8932
29.8931
29.8955
29.896
29.8983
29.8998
29.9025
29.9062
29.8992
27.9113
30.6947
30.9338
31.0662
31.0386
31.0683
31.0148
31.0204
30.963
30.9593
30.9023
30.8923
30.8364
30.8223
30.7683
30.7523
30.701
30.6846
30.6367
30.6209
30.5765
30.5617
30.5204
30.5063
30.4674
30.4534
30.4163
30.4022
30.3666
30.3524
30.3184
30.3045
30.2725
30.2595
30.2299
30.2182
30.191
30.1804
30.1551
30.1451
30.1213
30.1115
30.0891
30.0797
30.0587
30.0499
30.0307
30.0228
30.0054
29.9986
29.9827
29.9766
29.9618
29.9559
29.9422
29.9368
29.9245
29.9199
29.909
29.9052
29.8954
29.8923
29.8835
29.8809
29.8732
29.8711
29.8644
29.8628
29.8572
29.8564
29.8518
29.8518
29.8481
29.8487
29.8456
29.8464
29.8441
29.8453
29.844
29.8459
29.8454
29.848
29.8479
29.8504
29.8509
29.8533
29.8548
29.8575
29.8615
29.8554
27.869
30.4874
30.6624
30.7575
30.7174
30.7402
30.6866
30.692
30.6368
30.6336
30.5791
30.5698
30.5165
30.5034
30.452
30.4369
30.3883
30.3728
30.3274
30.3124
30.2703
30.2562
30.2171
30.2036
30.1668
30.1535
30.1184
30.105
30.0714
30.0579
30.026
30.0127
29.9827
29.9703
29.9425
29.9312
29.9057
29.8954
29.8717
29.862
29.8396
29.8303
29.8092
29.8002
29.7805
29.772
29.7539
29.7463
29.7299
29.7232
29.7083
29.7022
29.6884
29.6826
29.6697
29.6643
29.6527
29.6481
29.6378
29.6339
29.6247
29.6214
29.6131
29.6104
29.603
29.6007
29.5943
29.5926
29.5871
29.586
29.5815
29.5812
29.5776
29.5778
29.5747
29.5752
29.5728
29.5737
29.5722
29.5738
29.5731
29.5752
29.575
29.5771
29.5775
29.5796
29.5808
29.5834
29.5856
29.5796
28.0815
30.4248
30.5052
30.5499
30.4992
30.5139
30.4634
30.4675
30.4174
30.4144
30.3653
30.3572
30.3095
30.298
30.2524
30.2393
30.1963
30.1826
30.1426
30.1292
30.0921
30.0795
30.045
30.0329
30.0006
29.9885
29.9579
29.9458
29.9165
29.9044
29.8766
29.8648
29.8387
29.8275
29.8032
29.793
29.7707
29.7612
29.7405
29.7315
29.712
29.7033
29.6849
29.6766
29.6594
29.6515
29.6356
29.6284
29.6139
29.6075
29.5943
29.5883
29.576
29.5703
29.5589
29.5536
29.5433
29.5386
29.5293
29.5252
29.5168
29.5133
29.5057
29.5026
29.4958
29.4932
29.4872
29.4849
29.4798
29.4781
29.4737
29.4727
29.4691
29.4685
29.4654
29.4651
29.4627
29.4627
29.461
29.4617
29.4606
29.4618
29.4613
29.4626
29.4626
29.4639
29.4646
29.4663
29.4684
29.4555
30.3002
32.148
32.1336
32.1413
32.0878
32.0975
32.0534
32.0572
32.015
32.013
31.9723
31.9661
31.927
31.918
31.8809
31.8704
31.8355
31.8243
31.7918
31.7806
31.7505
31.7396
31.7116
31.7009
31.6748
31.6642
31.6395
31.629
31.6056
31.5951
31.5729
31.5627
31.5419
31.532
31.5127
31.5035
31.4857
31.4771
31.4606
31.4524
31.437
31.4291
31.4147
31.4071
31.3936
31.3865
31.3739
31.3673
31.3558
31.3497
31.3392
31.3336
31.3239
31.3186
31.3096
31.3046
31.2964
31.2919
31.2844
31.2804
31.2736
31.27
31.2639
31.2607
31.2552
31.2523
31.2474
31.2449
31.2406
31.2385
31.2347
31.2331
31.2299
31.2287
31.226
31.225
31.2227
31.222
31.2202
31.22
31.2187
31.219
31.2182
31.2187
31.2184
31.2191
31.2193
31.2207
31.2116
31.1986
46.8611
48.1609
48.117
48.1108
48.0647
48.0697
48.0358
48.0373
48.0059
48.003
47.9735
47.9675
47.9398
47.9319
47.9062
47.8975
47.8739
47.8649
47.8434
47.8347
47.8154
47.8072
47.7899
47.7824
47.7669
47.76
47.746
47.7395
47.7269
47.7207
47.7091
47.7033
47.6927
47.6872
47.6775
47.6725
47.6639
47.6594
47.6517
47.6478
47.6408
47.6372
47.6308
47.6274
47.6216
47.6183
47.6129
47.6099
47.6051
47.6024
47.5981
47.5958
47.5919
47.5898
47.5862
47.5842
47.5809
47.5791
47.5761
47.5745
47.5718
47.5704
47.5681
47.5668
47.5648
47.5636
47.5618
47.5608
47.559
47.5582
47.5567
47.556
47.5548
47.5543
47.5533
47.5529
47.5519
47.5516
47.5508
47.5506
47.5501
47.5502
47.5499
47.5502
47.5501
47.5504
47.5504
47.5519
47.5184
47.5337
142.505
143.101
143.096
143.105
143.08
143.093
143.078
143.088
143.077
143.084
143.078
143.083
143.079
143.083
143.08
143.082
143.079
143.081
143.078
143.078
143.075
143.075
143.073
143.073
143.072
143.073
143.073
143.074
143.074
143.075
143.076
143.076
143.075
143.075
143.074
143.073
143.071
143.071
143.07
143.07
143.069
143.069
143.069
143.069
143.069
143.068
143.067
143.066
143.065
143.064
143.063
143.063
143.062
143.062
143.062
143.061
143.06
143.059
143.058
143.057
143.056
143.056
143.055
143.054
143.054
143.053
143.053
143.052
143.051
143.05
143.049
143.049
143.048
143.048
143.048
143.048
143.047
143.047
143.046
143.045
143.045
143.045
143.045
143.045
143.045
143.045
143.044
143.045
142.994
143.121
30.0588
30.7594
30.8895
30.928
30.9292
30.9226
30.9081
30.8981
30.8818
30.8716
30.8553
30.8456
30.8302
30.8211
30.8071
30.7989
30.7865
30.7795
30.7689
30.763
30.754
30.7493
30.7421
30.7385
30.7327
30.73
30.7254
30.7233
30.7195
30.7178
30.7147
30.7132
30.7106
30.7093
30.7071
30.7061
30.7045
30.704
30.703
30.7029
30.7022
30.7023
30.7019
30.7019
30.7016
30.7016
30.7014
30.7014
30.7012
30.7015
30.7016
30.7021
30.7025
30.703
30.7033
30.7037
30.704
30.7043
30.7047
30.7052
30.7057
30.7062
30.7068
30.7073
30.7079
30.7085
30.7091
30.7096
30.7102
30.7107
30.7112
30.7118
30.7125
30.7132
30.714
30.7147
30.7154
30.7159
30.7165
30.7171
30.7179
30.7186
30.7197
30.7202
30.7216
30.7217
30.7236
30.7235
30.72
30.4621
27.8832
29.2504
29.4112
29.4757
29.4921
29.5048
29.5041
29.5107
29.5079
29.5129
29.5089
29.5123
29.5071
29.5089
29.5025
29.5028
29.4954
29.4946
29.4867
29.4849
29.4768
29.4746
29.4667
29.4644
29.4568
29.4545
29.4473
29.4448
29.4379
29.4352
29.4283
29.4254
29.4185
29.4153
29.4087
29.4055
29.3993
29.3963
29.3907
29.3881
29.383
29.3804
29.3757
29.3732
29.3686
29.3661
29.3617
29.3593
29.3553
29.3532
29.3496
29.3479
29.3448
29.3432
29.3403
29.3387
29.336
29.3346
29.3322
29.3309
29.3289
29.3279
29.3261
29.3253
29.3238
29.3231
29.3219
29.3213
29.3201
29.3197
29.3187
29.3185
29.3179
29.318
29.3177
29.3178
29.3175
29.3176
29.3175
29.3178
29.318
29.3186
29.3191
29.3198
29.3206
29.321
29.3222
29.3225
29.3256
29.3006
25.6632
27.5505
27.7724
27.8576
27.8894
27.908
27.9149
27.9244
27.9287
27.9369
27.9406
27.948
27.951
27.9575
27.9596
27.9652
27.9665
27.9713
27.9721
27.9762
27.9766
27.9803
27.9806
27.984
27.9844
27.9877
27.988
27.9909
27.9911
27.9936
27.9934
27.9954
27.9949
27.9963
27.9955
27.9967
27.9958
27.997
27.9962
27.9973
27.9966
27.9975
27.9968
27.9974
27.9965
27.9969
27.9959
27.9961
27.995
27.9952
27.9944
27.9947
27.994
27.9943
27.9935
27.9936
27.9928
27.9928
27.9921
27.9923
27.9917
27.9919
27.9914
27.9916
27.9913
27.9915
27.9912
27.9915
27.9912
27.9915
27.9913
27.9917
27.9918
27.9924
27.9927
27.9933
27.9936
27.9941
27.9944
27.9952
27.9958
27.9967
27.9978
27.9987
28.0001
28.0008
28.0025
28.0034
28.0035
28.001
25.0039
27.0753
27.3073
27.3956
27.4314
27.4526
27.4612
27.4707
27.4759
27.4838
27.4885
27.4957
27.4999
27.5062
27.5097
27.5152
27.5181
27.5229
27.5254
27.5298
27.532
27.5362
27.5384
27.5426
27.5449
27.5491
27.5515
27.5555
27.5578
27.5615
27.5636
27.5669
27.5686
27.5715
27.5731
27.5758
27.5773
27.58
27.5817
27.5844
27.5861
27.5887
27.5904
27.5928
27.5942
27.5964
27.5976
27.5996
27.6008
27.6027
27.604
27.6061
27.6075
27.6095
27.6108
27.6125
27.6137
27.6153
27.6165
27.6181
27.6193
27.621
27.6222
27.6238
27.6251
27.6266
27.6279
27.6293
27.6305
27.6319
27.633
27.6345
27.6357
27.6373
27.6387
27.6401
27.6414
27.6428
27.6439
27.6453
27.6466
27.6482
27.6498
27.6513
27.653
27.6542
27.6561
27.6576
27.6622
27.6669
24.65
26.8125
27.0253
27.1034
27.1379
27.1598
27.1682
27.1773
27.1817
27.1887
27.1925
27.1985
27.2017
27.2067
27.2092
27.2133
27.2153
27.2187
27.2202
27.2232
27.2244
27.2273
27.2286
27.2315
27.2329
27.2359
27.2373
27.2402
27.2416
27.2443
27.2455
27.2478
27.2487
27.2507
27.2514
27.2532
27.254
27.2559
27.2568
27.2588
27.2599
27.2618
27.2628
27.2646
27.2655
27.267
27.2678
27.2692
27.2699
27.2714
27.2724
27.274
27.2751
27.2766
27.2776
27.279
27.2799
27.2812
27.2821
27.2835
27.2845
27.2859
27.2869
27.2883
27.2894
27.2908
27.2919
27.2932
27.2942
27.2955
27.2965
27.2979
27.299
27.3005
27.3018
27.3032
27.3044
27.3056
27.3067
27.3081
27.3094
27.3109
27.3125
27.3139
27.3158
27.3169
27.3189
27.3203
27.3214
27.3135
24.6187
26.7855
26.9711
27.0296
27.0542
27.0731
27.0806
27.0887
27.0923
27.0983
27.1013
27.1065
27.1089
27.1133
27.1151
27.1187
27.1198
27.1227
27.1234
27.1259
27.1263
27.1286
27.129
27.1313
27.1319
27.1342
27.1348
27.137
27.1376
27.1395
27.1399
27.1414
27.1415
27.1427
27.1426
27.1437
27.1436
27.1448
27.1449
27.1461
27.1463
27.1475
27.1477
27.1488
27.1489
27.1497
27.1497
27.1504
27.1504
27.1512
27.1514
27.1523
27.1527
27.1536
27.1539
27.1547
27.1549
27.1556
27.1559
27.1567
27.157
27.1579
27.1584
27.1593
27.1598
27.1607
27.1613
27.1621
27.1626
27.1635
27.1641
27.1651
27.1658
27.1669
27.1678
27.1688
27.1697
27.1706
27.1714
27.1725
27.1735
27.1748
27.176
27.1772
27.1787
27.1797
27.1812
27.1826
27.1838
27.1774
24.6204
26.7779
26.9471
26.9921
27.0092
27.0252
27.0318
27.0396
27.0431
27.0491
27.0521
27.0573
27.0597
27.0641
27.0659
27.0695
27.0706
27.0735
27.0742
27.0767
27.0772
27.0795
27.0799
27.0822
27.0828
27.0851
27.0858
27.088
27.0886
27.0905
27.0909
27.0925
27.0926
27.0939
27.0937
27.0948
27.0948
27.096
27.0961
27.0974
27.0976
27.0988
27.0991
27.1001
27.1003
27.1011
27.1011
27.1019
27.1019
27.1027
27.1029
27.1039
27.1043
27.1052
27.1056
27.1063
27.1066
27.1073
27.1076
27.1085
27.1089
27.1098
27.1102
27.1112
27.1117
27.1126
27.1132
27.1141
27.1147
27.1156
27.1161
27.1172
27.1179
27.1191
27.12
27.1211
27.1219
27.1229
27.1237
27.1249
27.1258
27.1272
27.1285
27.1297
27.1312
27.1322
27.1337
27.1352
27.1364
27.1303
24.6548
26.7826
26.9445
26.9844
26.9992
27.0135
27.0197
27.0281
27.0323
27.0392
27.043
27.0489
27.0522
27.0571
27.0597
27.0638
27.0658
27.0692
27.0707
27.0738
27.075
27.078
27.0792
27.0822
27.0836
27.0867
27.0882
27.0911
27.0925
27.0952
27.0965
27.0988
27.0998
27.1018
27.1025
27.1044
27.1052
27.1072
27.1082
27.1103
27.1114
27.1133
27.1144
27.1162
27.1172
27.1188
27.1196
27.1211
27.1218
27.1234
27.1244
27.126
27.1272
27.1288
27.1298
27.1312
27.1322
27.1335
27.1345
27.1359
27.137
27.1384
27.1395
27.141
27.1421
27.1435
27.1447
27.146
27.147
27.1484
27.1494
27.1509
27.1521
27.1536
27.1549
27.1563
27.1575
27.1589
27.16
27.1614
27.1627
27.1643
27.1659
27.1674
27.1693
27.1705
27.1724
27.174
27.1756
27.1691
25.0011
26.9914
27.1333
27.1626
27.1726
27.1843
27.1905
27.1991
27.2042
27.2119
27.2166
27.2237
27.2278
27.2341
27.2376
27.243
27.246
27.2508
27.2533
27.2577
27.26
27.2642
27.2665
27.2707
27.2731
27.2772
27.2797
27.2837
27.2861
27.2898
27.292
27.2953
27.2971
27.3001
27.3016
27.3043
27.3059
27.3087
27.3104
27.3131
27.3148
27.3175
27.3191
27.3215
27.323
27.3252
27.3264
27.3284
27.3296
27.3315
27.3328
27.3349
27.3363
27.3383
27.3396
27.3412
27.3424
27.344
27.3451
27.3467
27.3479
27.3495
27.3506
27.3522
27.3534
27.3549
27.3561
27.3574
27.3585
27.3599
27.3609
27.3623
27.3635
27.365
27.3663
27.3676
27.3688
27.3701
27.3711
27.3724
27.3736
27.3751
27.3766
27.378
27.3796
27.3807
27.3823
27.3839
27.3871
27.3959
25.6284
27.3633
27.4612
27.4797
27.4866
27.4969
27.5018
27.5104
27.5146
27.5224
27.526
27.5332
27.5361
27.5425
27.5445
27.55
27.5513
27.556
27.5568
27.5608
27.5612
27.5649
27.5652
27.5686
27.5689
27.5722
27.5724
27.5753
27.5754
27.5779
27.5776
27.5796
27.5789
27.5803
27.5794
27.5804
27.5795
27.5805
27.5796
27.5805
27.5797
27.5804
27.5795
27.5799
27.5788
27.579
27.5777
27.5777
27.5764
27.5764
27.5752
27.5753
27.5743
27.5743
27.5733
27.5731
27.5719
27.5717
27.5706
27.5704
27.5695
27.5693
27.5685
27.5683
27.5676
27.5675
27.5668
27.5667
27.566
27.5659
27.5653
27.5654
27.565
27.5652
27.5651
27.5652
27.5651
27.5652
27.5651
27.5654
27.5655
27.566
27.5666
27.5671
27.5679
27.5683
27.5692
27.57
27.5691
27.5787
27.765
28.8964
28.9102
28.9091
28.905
28.9108
28.9091
28.9147
28.9119
28.9162
28.9122
28.9151
28.9098
28.9113
28.9048
28.9047
28.8973
28.8961
28.888
28.8859
28.8776
28.875
28.8668
28.864
28.8561
28.8533
28.8456
28.8426
28.8352
28.8319
28.8245
28.8209
28.8135
28.8096
28.8023
28.7984
28.7915
28.7879
28.7816
28.7782
28.7722
28.7689
28.7633
28.7601
28.7547
28.7514
28.7461
28.7429
28.738
28.735
28.7306
28.728
28.724
28.7215
28.7178
28.7153
28.7117
28.7093
28.706
28.7039
28.7009
28.6991
28.6964
28.6947
28.6923
28.6907
28.6885
28.687
28.685
28.6837
28.6818
28.6807
28.6792
28.6784
28.6772
28.6764
28.6752
28.6745
28.6734
28.6729
28.6721
28.6719
28.6715
28.6713
28.6711
28.6707
28.6705
28.6704
28.6708
28.6765
29.8267
30.2447
30.2214
30.197
30.1801
30.1676
30.152
30.1405
30.1237
30.1123
30.0953
30.0843
30.0679
30.0575
30.0423
30.0328
30.0191
30.0106
29.9986
29.9912
29.9808
29.9746
29.9659
29.9608
29.9535
29.9493
29.9431
29.9395
29.9342
29.931
29.9263
29.9234
29.9192
29.9164
29.9127
29.9103
29.9072
29.9054
29.9029
29.9014
29.8994
29.898
29.8963
29.895
29.8934
29.8921
29.8905
29.8893
29.8879
29.8869
29.8858
29.8851
29.8843
29.8836
29.8828
29.882
29.8811
29.8804
29.8796
29.879
29.8783
29.8778
29.8773
29.8768
29.8763
29.8758
29.8754
29.8749
29.8744
29.8739
29.8734
29.873
29.8727
29.8724
29.8722
29.8719
29.8716
29.8712
29.8708
29.8705
29.8703
29.8701
29.8701
29.8698
29.87
29.8693
29.8697
29.869
29.8624
29.6711
3.73618
3.86771
3.83395
3.811
3.802
3.79763
3.79046
3.78732
3.7769
3.77311
3.7605
3.75619
3.74235
3.73765
3.72337
3.71848
3.70432
3.6994
3.68573
3.68087
3.66792
3.66319
3.65105
3.64647
3.63517
3.63075
3.62028
3.61603
3.6064
3.60237
3.59358
3.58979
3.58182
3.57831
3.57113
3.56792
3.5615
3.55859
3.55287
3.55026
3.54519
3.54285
3.53836
3.53627
3.53231
3.53046
3.52699
3.52538
3.52236
3.52098
3.51841
3.51728
3.51512
3.51423