/*--------------------------------*- C++ -*----------------------------------*\
  =========                 |
  \\      /  F ield         | OpenFOAM: The Open Source CFD Toolbox
   \\    /   O peration     | Website:  https://openfoam.org
    \\  /    A nd           | Version:  7
     \\/     M anipulation  |
\*---------------------------------------------------------------------------*/
FoamFile
{
    version     2.0;
    format      ascii;
    class       volScalarField;
    location    "4.95";
    object      T;
}
// * * * * * * * * * * * * * * * * * * * * * * * * * * * * * * * * * * * * * //

dimensions      [0 0 0 1 0 0 0];

internalField   nonuniform List<scalar> 
3960
(
283.154
283.152
283.152
283.153
283.154
283.154
283.154
283.155
283.155
283.155
283.155
283.154
283.154
283.154
283.154
283.153
283.153
283.153
283.153
283.153
283.153
283.152
283.152
283.152
283.152
283.152
283.152
283.152
283.152
283.152
283.152
283.152
283.152
283.152
283.152
283.152
283.152
283.152
283.152
283.152
283.152
283.152
283.152
283.152
283.152
283.151
283.152
283.151
283.153
283.149
283.155
283.144
283.164
283.128
283.195
283.067
283.31
282.847
283.736
282.036
283.154
283.151
283.15
283.151
283.151
283.151
283.15
283.15
283.151
283.151
283.151
283.151
283.151
283.151
283.151
283.152
283.152
283.152
283.152
283.152
283.152
283.153
283.153
283.153
283.153
283.153
283.153
283.153
283.153
283.153
283.153
283.153
283.153
283.153
283.153
283.153
283.153
283.153
283.153
283.153
283.153
283.153
283.153
283.153
283.153
283.152
283.154
283.151
283.155
283.15
283.157
283.146
283.162
283.139
283.172
283.124
283.191
283.099
283.219
283.069
283.154
283.152
283.151
283.151
283.151
283.15
283.15
283.15
283.15
283.149
283.149
283.149
283.149
283.149
283.148
283.148
283.148
283.148
283.149
283.149
283.149
283.149
283.149
283.149
283.149
283.149
283.149
283.149
283.149
283.149
283.15
283.15
283.15
283.15
283.15
283.15
283.15
283.15
283.15
283.15
283.15
283.15
283.15
283.15
283.15
283.15
283.15
283.15
283.15
283.15
283.15
283.15
283.15
283.15
283.15
283.15
283.15
283.152
283.147
283.155
283.154
283.152
283.151
283.151
283.151
283.151
283.15
283.15
283.15
283.149
283.149
283.149
283.149
283.148
283.148
283.148
283.148
283.148
283.148
283.148
283.148
283.148
283.147
283.147
283.147
283.147
283.147
283.148
283.148
283.148
283.148
283.147
283.147
283.147
283.147
283.147
283.147
283.147
283.147
283.147
283.147
283.147
283.147
283.147
283.147
283.147
283.147
283.147
283.147
283.146
283.146
283.146
283.146
283.146
283.146
283.146
283.146
283.146
283.146
283.146
283.154
283.152
283.151
283.151
283.151
283.151
283.15
283.15
283.15
283.15
283.149
283.149
283.149
283.149
283.148
283.148
283.148
283.148
283.148
283.148
283.148
283.148
283.148
283.147
283.147
283.147
283.148
283.148
283.147
283.147
283.147
283.147
283.147
283.147
283.147
283.147
283.147
283.147
283.147
283.147
283.146
283.146
283.146
283.146
283.146
283.146
283.146
283.146
283.146
283.146
283.146
283.146
283.146
283.145
283.145
283.145
283.145
283.145
283.145
283.145
283.154
283.152
283.151
283.151
283.151
283.151
283.15
283.15
283.15
283.15
283.149
283.149
283.149
283.149
283.148
283.148
283.148
283.148
283.148
283.148
283.148
283.148
283.148
283.148
283.148
283.148
283.148
283.148
283.148
283.148
283.148
283.147
283.147
283.147
283.147
283.147
283.147
283.147
283.147
283.147
283.147
283.146
283.146
283.146
283.146
283.146
283.146
283.146
283.146
283.146
283.146
283.146
283.146
283.145
283.145
283.145
283.145
283.145
283.145
283.145
283.154
283.152
283.151
283.151
283.151
283.151
283.15
283.15
283.15
283.15
283.149
283.149
283.149
283.149
283.148
283.148
283.148
283.148
283.148
283.148
283.148
283.148
283.148
283.148
283.148
283.148
283.148
283.148
283.148
283.148
283.148
283.147
283.147
283.147
283.147
283.147
283.147
283.147
283.147
283.147
283.147
283.146
283.146
283.146
283.146
283.146
283.146
283.146
283.146
283.146
283.146
283.146
283.146
283.145
283.145
283.145
283.145
283.145
283.145
283.145
283.154
283.152
283.151
283.151
283.151
283.151
283.15
283.15
283.15
283.15
283.149
283.149
283.149
283.149
283.148
283.148
283.148
283.148
283.148
283.148
283.148
283.148
283.148
283.147
283.147
283.147
283.148
283.148
283.148
283.147
283.147
283.147
283.147
283.147
283.147
283.147
283.147
283.147
283.147
283.147
283.146
283.146
283.146
283.146
283.146
283.146
283.146
283.146
283.146
283.146
283.146
283.146
283.146
283.145
283.145
283.145
283.145
283.145
283.145
283.145
283.154
283.152
283.151
283.151
283.151
283.151
283.15
283.15
283.15
283.149
283.149
283.149
283.149
283.148
283.148
283.148
283.148
283.148
283.148
283.148
283.148
283.148
283.147
283.147
283.147
283.147
283.147
283.148
283.148
283.148
283.148
283.147
283.147
283.147
283.147
283.147
283.147
283.147
283.147
283.147
283.147
283.147
283.147
283.147
283.147
283.147
283.147
283.147
283.147
283.146
283.146
283.146
283.146
283.146
283.146
283.146
283.146
283.146
283.146
283.146
283.154
283.152
283.151
283.151
283.151
283.15
283.15
283.15
283.15
283.149
283.149
283.149
283.149
283.149
283.148
283.148
283.148
283.148
283.149
283.149
283.149
283.149
283.149
283.149
283.149
283.149
283.149
283.149
283.149
283.149
283.15
283.15
283.15
283.15
283.15
283.15
283.15
283.15
283.15
283.15
283.15
283.15
283.15
283.15
283.15
283.15
283.15
283.15
283.15
283.15
283.15
283.15
283.15
283.15
283.15
283.15
283.15
283.15
283.15
283.15
283.154
283.151
283.15
283.151
283.151
283.151
283.15
283.15
283.151
283.151
283.151
283.151
283.151
283.151
283.151
283.152
283.152
283.152
283.152
283.152
283.152
283.153
283.153
283.153
283.153
283.153
283.153
283.153
283.153
283.153
283.153
283.153
283.153
283.153
283.153
283.153
283.153
283.153
283.153
283.153
283.153
283.153
283.153
283.153
283.153
283.153
283.153
283.153
283.153
283.153
283.152
283.152
283.152
283.152
283.152
283.152
283.152
283.152
283.152
283.152
283.154
283.152
283.152
283.153
283.154
283.154
283.154
283.155
283.155
283.155
283.155
283.154
283.154
283.154
283.154
283.153
283.153
283.153
283.153
283.153
283.153
283.152
283.152
283.152
283.152
283.152
283.152
283.152
283.152
283.152
283.152
283.152
283.152
283.152
283.152
283.152
283.152
283.152
283.152
283.152
283.152
283.152
283.152
283.152
283.152
283.152
283.151
283.151
283.151
283.151
283.151
283.151
283.151
283.151
283.151
283.151
283.151
283.151
283.151
283.151
289.492
297.18
302.653
307.003
310.739
314.081
317.138
319.986
322.669
325.216
327.646
329.974
332.21
334.366
336.448
338.464
340.418
342.316
344.161
345.958
347.71
349.418
351.086
352.716
354.31
355.87
357.397
358.893
360.359
361.797
363.208
364.593
365.953
367.289
368.602
369.892
371.162
372.41
373.639
374.849
376.041
377.214
378.371
379.511
380.636
381.745
382.839
383.919
384.986
386.039
387.08
388.108
389.124
390.129
391.123
392.106
393.078
394.041
394.994
395.938
396.873
397.798
398.716
399.625
400.526
401.42
402.306
403.185
404.057
404.922
405.78
406.632
407.477
408.317
409.151
409.978
410.801
411.617
412.429
413.235
414.036
414.832
415.623
416.41
417.192
417.969
418.742
419.511
420.275
421.035
421.791
422.544
423.292
424.036
424.776
425.513
426.246
426.975
427.7
428.422
429.141
429.856
430.568
431.276
431.981
432.682
433.381
434.076
434.768
435.457
436.143
436.826
437.506
438.183
438.857
439.528
440.196
440.862
441.525
442.184
442.842
443.496
444.148
444.797
445.443
446.087
446.728
447.367
448.003
448.637
449.269
449.898
450.524
451.148
451.77
452.39
453.007
453.622
454.235
454.845
455.454
456.06
456.664
457.266
457.866
458.464
459.06
459.653
460.245
460.835
461.422
462.008
462.592
463.174
463.754
464.332
464.908
465.482
466.054
466.625
467.193
467.76
468.325
468.887
469.448
470.008
470.565
471.12
471.674
472.226
472.776
473.324
473.87
474.415
474.957
475.498
476.038
476.575
477.111
477.645
478.177
478.708
479.237
479.765
480.291
480.815
481.338
481.859
482.379
482.897
483.413
483.929
484.442
484.955
485.465
485.975
486.483
486.989
487.494
487.998
488.5
489
489.5
489.997
490.494
490.988
491.482
491.974
492.464
492.953
493.44
493.926
494.411
494.893
495.375
495.855
496.333
496.81
497.285
497.759
498.231
498.702
499.171
499.639
500.106
500.571
501.034
501.496
501.957
502.416
502.874
503.33
503.785
504.238
504.69
505.14
505.589
506.037
506.483
506.928
507.371
507.812
508.252
508.691
509.128
509.564
509.997
510.43
510.86
511.289
511.716
512.142
512.565
512.988
513.407
513.827
514.242
514.66
515.068
515.486
515.886
516.306
516.692
517.124
517.485
517.944
518.253
518.781
518.977
519.667
283.416
285.349
287.912
290.595
293.208
295.692
298.047
300.293
302.449
304.525
306.531
308.472
310.353
312.181
313.958
315.69
317.378
319.026
320.636
322.211
323.753
325.262
326.742
328.192
329.616
331.013
332.385
333.733
335.058
336.361
337.643
338.905
340.146
341.369
342.573
343.76
344.929
346.082
347.219
348.341
349.448
350.54
351.618
352.684
353.736
354.775
355.802
356.818
357.822
358.816
359.799
360.771
361.734
362.687
363.63
364.565
365.491
366.408
367.317
368.218
369.112
369.998
370.877
371.748
372.613
373.471
374.322
375.167
376.006
376.839
377.666
378.488
379.303
380.114
380.919
381.719
382.514
383.304
384.089
384.87
385.646
386.418
387.185
387.948
388.706
389.461
390.212
390.958
391.701
392.44
393.176
393.907
394.635
395.36
396.081
396.798
397.512
398.223
398.93
399.634
400.335
401.033
401.727
402.419
403.107
403.792
404.475
405.154
405.83
406.504
407.174
407.842
408.507
409.169
409.828
410.485
411.139
411.79
412.439
413.085
413.728
414.369
415.007
415.643
416.277
416.907
417.536
418.162
418.786
419.407
420.026
420.643
421.258
421.87
422.48
423.088
423.694
424.298
424.899
425.499
426.096
426.692
427.285
427.876
428.466
429.053
429.639
430.222
430.804
431.383
431.961
432.537
433.111
433.683
434.254
434.822
435.389
435.954
436.517
437.078
437.637
438.195
438.751
439.305
439.857
440.408
440.956
441.503
442.048
442.592
443.133
443.673
444.212
444.748
445.283
445.816
446.347
446.877
447.405
447.932
448.456
448.98
449.501
450.021
450.54
451.057
451.572
452.086
452.599
453.11
453.619
454.127
454.634
455.139
455.643
456.146
456.647
457.147
457.645
458.142
458.638
459.132
459.625
460.116
460.606
461.095
461.582
462.068
462.553
463.036
463.517
463.998
464.476
464.954
465.43
465.904
466.377
466.849
467.319
467.787
468.255
468.72
469.185
469.648
470.109
470.569
471.028
471.485
471.941
472.396
472.849
473.301
473.751
474.2
474.648
475.094
475.539
475.983
476.425
476.866
477.305
477.743
478.18
478.615
479.049
479.481
479.912
480.341
480.769
481.196
481.62
482.044
482.465
482.886
483.303
483.722
484.134
484.551
484.958
485.375
485.773
486.195
486.577
487.013
487.366
487.835
488.132
488.675
488.853
489.56
283.124
283.239
283.636
284.32
285.234
286.307
287.478
288.711
289.98
291.271
292.57
293.872
295.17
296.462
297.745
299.017
300.279
301.528
302.764
303.987
305.197
306.394
307.577
308.746
309.902
311.045
312.174
313.291
314.395
315.486
316.565
317.632
318.687
319.731
320.763
321.784
322.794
323.794
324.783
325.762
326.732
327.692
328.642
329.584
330.517
331.441
332.357
333.265
334.164
335.057
335.942
336.819
337.69
338.554
339.411
340.261
341.106
341.944
342.776
343.602
344.423
345.238
346.048
346.852
347.651
348.445
349.234
350.018
350.798
351.573
352.343
353.109
353.87
354.628
355.381
356.13
356.875
357.616
358.353
359.087
359.817
360.543
361.266
361.985
362.701
363.413
364.123
364.829
365.531
366.231
366.928
367.621
368.312
368.999
369.684
370.365
371.044
371.72
372.394
373.064
373.732
374.397
375.059
375.718
376.375
377.03
377.681
378.33
378.977
379.621
380.262
380.901
381.538
382.172
382.803
383.432
384.059
384.683
385.305
385.925
386.542
387.157
387.77
388.381
388.989
389.595
390.199
390.801
391.401
391.998
392.594
393.187
393.779
394.369
394.956
395.542
396.125
396.707
397.287
397.865
398.441
399.016
399.588
400.159
400.728
401.295
401.86
402.424
402.985
403.545
404.104
404.66
405.215
405.768
406.32
406.87
407.418
407.964
408.509
409.052
409.593
410.133
410.671
411.208
411.742
412.276
412.807
413.337
413.865
414.392
414.917
415.44
415.962
416.482
417.001
417.518
418.034
418.548
419.06
419.571
420.081
420.589
421.095
421.6
422.104
422.606
423.106
423.606
424.104
424.6
425.095
425.589
426.082
426.573
427.063
427.551
428.039
428.524
429.009
429.493
429.975
430.456
430.935
431.414
431.891
432.366
432.841
433.314
433.786
434.256
434.726
435.194
435.66
436.126
436.59
437.052
437.514
437.974
438.432
438.89
439.346
439.8
440.253
440.705
441.156
441.605
442.053
442.5
442.946
443.39
443.833
444.274
444.714
445.153
445.591
446.028
446.463
446.897
447.33
447.762
448.192
448.621
449.049
449.476
449.901
450.325
450.748
451.169
451.589
452.008
452.425
452.842
453.256
453.67
454.08
454.493
454.899
455.311
455.71
456.124
456.514
456.934
457.307
457.744
458.086
458.559
458.842
459.392
459.557
460.267
283.146
283.142
283.154
283.206
283.323
283.515
283.786
284.132
284.549
285.028
285.562
286.142
286.761
287.413
288.093
288.795
289.517
290.253
291.003
291.762
292.53
293.305
294.085
294.869
295.656
296.445
297.236
298.026
298.817
299.607
300.396
301.183
301.969
302.753
303.534
304.313
305.089
305.862
306.632
307.399
308.163
308.924
309.682
310.436
311.187
311.935
312.679
313.42
314.158
314.893
315.624
316.352
317.078
317.799
318.518
319.234
319.946
320.656
321.363
322.067
322.767
323.465
324.161
324.853
325.542
326.229
326.913
327.595
328.273
328.949
329.623
330.294
330.962
331.628
332.291
332.952
333.61
334.266
334.92
335.571
336.22
336.866
337.511
338.153
338.793
339.43
340.066
340.699
341.331
341.96
342.587
343.212
343.835
344.456
345.075
345.692
346.307
346.92
347.531
348.14
348.747
349.352
349.956
350.557
351.156
351.754
352.349
352.942
353.534
354.124
354.711
355.297
355.881
356.463
357.043
357.621
358.197
358.772
359.344
359.915
360.484
361.051
361.616
362.179
362.741
363.301
363.859
364.415
364.97
365.523
366.074
366.624
367.172
367.719
368.264
368.807
369.349
369.889
370.428
370.965
371.501
372.035
372.568
373.099
373.629
374.157
374.684
375.209
375.733
376.256
376.777
377.297
377.815
378.331
378.847
379.361
379.873
380.384
380.893
381.402
381.908
382.414
382.917
383.42
383.921
384.421
384.919
385.416
385.911
386.405
386.898
387.389
387.879
388.367
388.854
389.34
389.825
390.308
390.79
391.27
391.749
392.227
392.704
393.179
393.653
394.126
394.598
395.068
395.537
396.005
396.472
396.938
397.402
397.865
398.327
398.788
399.248
399.707
400.164
400.621
401.076
401.53
401.984
402.436
402.886
403.336
403.785
404.232
404.679
405.124
405.568
406.011
406.453
406.894
407.333
407.771
408.209
408.645
409.079
409.513
409.946
410.377
410.807
411.236
411.664
412.091
412.516
412.94
413.364
413.786
414.207
414.626
415.045
415.463
415.879
416.295
416.709
417.122
417.534
417.946
418.356
418.765
419.172
419.579
419.985
420.39
420.793
421.196
421.597
421.998
422.396
422.795
423.191
423.588
423.981
424.377
424.766
425.162
425.544
425.943
426.316
426.723
427.078
427.503
427.828
428.289
428.555
429.093
429.246
429.936
283.145
283.144
283.143
283.142
283.145
283.153
283.173
283.207
283.26
283.334
283.432
283.557
283.707
283.885
284.088
284.317
284.571
284.847
285.145
285.464
285.801
286.157
286.528
286.914
287.315
287.727
288.151
288.585
289.029
289.481
289.941
290.409
290.882
291.362
291.847
292.337
292.831
293.329
293.831
294.336
294.844
295.355
295.868
296.384
296.901
297.42
297.94
298.462
298.986
299.51
300.035
300.561
301.088
301.616
302.144
302.672
303.201
303.73
304.26
304.789
305.319
305.848
306.378
306.907
307.436
307.966
308.494
309.023
309.551
310.079
310.606
311.133
311.659
312.185
312.71
313.235
313.759
314.283
314.805
315.328
315.849
316.37
316.89
317.409
317.928
318.446
318.963
319.48
319.995
320.51
321.025
321.538
322.051
322.562
323.073
323.583
324.093
324.601
325.108
325.615
326.121
326.625
327.129
327.632
328.134
328.635
329.135
329.633
330.131
330.628
331.124
331.618
332.112
332.604
333.095
333.585
334.074
334.562
335.049
335.534
336.019
336.502
336.984
337.465
337.945
338.424
338.902
339.378
339.854
340.328
340.802
341.274
341.745
342.215
342.684
343.153
343.62
344.086
344.551
345.015
345.478
345.941
346.402
346.862
347.322
347.78
348.237
348.694
349.149
349.603
350.057
350.509
350.961
351.411
351.861
352.309
352.756
353.203
353.648
354.092
354.536
354.978
355.419
355.859
356.298
356.736
357.173
357.609
358.044
358.478
358.91
359.342
359.773
360.203
360.631
361.059
361.486
361.911
362.336
362.76
363.182
363.604
364.025
364.445
364.864
365.282
365.699
366.115
366.53
366.944
367.358
367.77
368.182
368.592
369.002
369.411
369.819
370.226
370.633
371.038
371.443
371.847
372.249
372.651
373.053
373.453
373.852
374.251
374.648
375.045
375.441
375.836
376.23
376.623
377.016
377.407
377.797
378.187
378.576
378.963
379.35
379.736
380.121
380.505
380.888
381.27
381.651
382.031
382.411
382.789
383.167
383.543
383.919
384.294
384.668
385.041
385.414
385.785
386.156
386.526
386.895
387.263
387.63
387.996
388.362
388.727
389.091
389.454
389.816
390.178
390.538
390.899
391.257
391.616
391.971
392.331
392.682
393.042
393.388
393.752
394.088
394.46
394.781
395.17
395.462
395.887
396.125
396.621
396.756
397.389
283.145
283.144
283.143
283.142
283.142
283.141
283.141
283.14
283.141
283.143
283.147
283.154
283.165
283.181
283.202
283.23
283.265
283.308
283.359
283.419
283.488
283.567
283.656
283.755
283.864
283.984
284.113
284.251
284.399
284.556
284.723
284.897
285.081
285.272
285.471
285.678
285.892
286.113
286.341
286.574
286.814
287.059
287.31
287.566
287.827
288.092
288.362
288.636
288.915
289.197
289.482
289.771
290.064
290.359
290.657
290.959
291.263
291.569
291.878
292.189
292.502
292.818
293.135
293.455
293.776
294.099
294.423
294.749
295.077
295.406
295.736
296.068
296.4
296.734
297.069
297.405
297.742
298.08
298.419
298.759
299.1
299.441
299.783
300.126
300.469
300.813
301.158
301.503
301.849
302.195
302.542
302.89
303.238
303.586
303.934
304.284
304.633
304.983
305.333
305.683
306.033
306.384
306.735
307.086
307.437
307.788
308.139
308.491
308.842
309.193
309.544
309.896
310.247
310.598
310.948
311.299
311.649
312
312.35
312.699
313.049
313.398
313.747
314.096
314.445
314.793
315.141
315.489
315.836
316.183
316.53
316.877
317.223
317.569
317.915
318.26
318.606
318.951
319.295
319.64
319.984
320.328
320.672
321.015
321.358
321.701
322.044
322.386
322.728
323.07
323.411
323.752
324.093
324.433
324.773
325.112
325.451
325.79
326.128
326.466
326.803
327.14
327.476
327.812
328.147
328.482
328.816
329.15
329.483
329.816
330.148
330.48
330.811
331.142
331.472
331.802
332.131
332.459
332.787
333.115
333.442
333.769
334.095
334.421
334.746
335.071
335.395
335.719
336.042
336.365
336.687
337.009
337.331
337.652
337.972
338.293
338.612
338.931
339.25
339.568
339.886
340.204
340.52
340.837
341.153
341.468
341.783
342.097
342.411
342.724
343.037
343.349
343.661
343.972
344.283
344.593
344.903
345.212
345.52
345.828
346.135
346.442
346.748
347.054
347.358
347.663
347.967
348.27
348.573
348.875
349.176
349.477
349.777
350.077
350.377
350.675
350.974
351.271
351.568
351.865
352.161
352.457
352.752
353.047
353.341
353.634
353.927
354.22
354.512
354.804
355.094
355.386
355.675
355.966
356.253
356.544
356.828
357.12
357.4
357.696
357.969
358.272
358.531
358.85
359.086
359.434
359.626
360.033
360.14
360.66
283.145
283.144
283.143
283.142
283.142
283.141
283.141
283.14
283.139
283.138
283.138
283.137
283.136
283.136
283.136
283.137
283.138
283.14
283.143
283.147
283.152
283.158
283.167
283.178
283.191
283.207
283.226
283.248
283.273
283.301
283.332
283.367
283.406
283.449
283.495
283.546
283.6
283.659
283.721
283.788
283.858
283.932
284.01
284.092
284.178
284.268
284.361
284.458
284.558
284.661
284.768
284.879
284.992
285.109
285.229
285.351
285.477
285.605
285.736
285.87
286.007
286.146
286.287
286.431
286.578
286.727
286.878
287.031
287.186
287.344
287.503
287.665
287.828
287.994
288.161
288.33
288.501
288.674
288.848
289.024
289.202
289.381
289.562
289.744
289.928
290.113
290.3
290.489
290.678
290.869
291.062
291.256
291.451
291.647
291.845
292.044
292.244
292.445
292.648
292.851
293.056
293.261
293.468
293.676
293.884
294.094
294.304
294.515
294.727
294.94
295.154
295.368
295.583
295.799
296.015
296.232
296.45
296.668
296.887
297.106
297.326
297.547
297.768
297.989
298.211
298.433
298.656
298.879
299.103
299.327
299.552
299.777
300.002
300.228
300.455
300.681
300.908
301.136
301.364
301.592
301.821
302.05
302.28
302.509
302.74
302.97
303.201
303.432
303.663
303.895
304.127
304.359
304.591
304.823
305.056
305.288
305.521
305.754
305.987
306.221
306.454
306.687
306.921
307.154
307.387
307.621
307.854
308.088
308.321
308.555
308.788
309.021
309.255
309.488
309.721
309.954
310.187
310.421
310.654
310.887
311.119
311.352
311.585
311.818
312.051
312.283
312.516
312.748
312.981
313.213
313.446
313.678
313.91
314.142
314.374
314.606
314.838
315.07
315.301
315.533
315.764
315.996
316.227
316.458
316.689
316.919
317.15
317.38
317.611
317.841
318.07
318.3
318.529
318.759
318.988
319.216
319.445
319.673
319.901
320.129
320.356
320.583
320.81
321.037
321.263
321.489
321.715
321.94
322.166
322.39
322.615
322.839
323.063
323.287
323.511
323.734
323.957
324.18
324.402
324.625
324.846
325.068
325.29
325.511
325.732
325.953
326.173
326.393
326.613
326.833
327.052
327.272
327.49
327.709
327.926
328.146
328.361
328.582
328.794
329.018
329.225
329.455
329.652
329.893
330.072
330.337
330.483
330.792
330.874
331.27
283.145
283.144
283.143
283.143
283.142
283.142
283.142
283.141
283.141
283.14
283.14
283.139
283.139
283.138
283.138
283.138
283.138
283.138
283.138
283.138
283.138
283.139
283.14
283.141
283.143
283.145
283.147
283.151
283.155
283.16
283.165
283.172
283.18
283.189
283.199
283.21
283.223
283.238
283.254
283.272
283.291
283.312
283.334
283.359
283.385
283.414
283.444
283.476
283.51
283.546
283.584
283.624
283.666
283.71
283.756
283.804
283.853
283.905
283.959
284.015
284.073
284.132
284.194
284.258
284.323
284.39
284.459
284.53
284.603
284.678
284.754
284.832
284.912
284.994
285.077
285.162
285.249
285.337
285.427
285.519
285.612
285.707
285.803
285.901
286
286.101
286.204
286.308
286.414
286.521
286.629
286.739
286.85
286.963
287.077
287.193
287.31
287.428
287.547
287.668
287.79
287.913
288.037
288.162
288.289
288.416
288.545
288.675
288.806
288.938
289.07
289.204
289.339
289.474
289.61
289.748
289.886
290.025
290.164
290.305
290.446
290.588
290.731
290.875
291.019
291.164
291.31
291.456
291.603
291.751
291.899
292.048
292.198
292.349
292.5
292.651
292.804
292.957
293.11
293.265
293.42
293.575
293.731
293.887
294.045
294.202
294.36
294.519
294.678
294.837
294.997
295.158
295.319
295.48
295.641
295.803
295.966
296.128
296.291
296.454
296.618
296.782
296.946
297.11
297.275
297.44
297.605
297.77
297.936
298.101
298.267
298.433
298.599
298.766
298.932
299.099
299.266
299.433
299.6
299.767
299.935
300.102
300.27
300.438
300.605
300.774
300.942
301.11
301.278
301.447
301.615
301.784
301.953
302.122
302.291
302.46
302.629
302.798
302.967
303.136
303.306
303.475
303.645
303.814
303.983
304.153
304.322
304.492
304.661
304.83
305
305.169
305.338
305.508
305.677
305.846
306.015
306.183
306.352
306.521
306.689
306.858
307.026
307.194
307.362
307.53
307.698
307.865
308.033
308.2
308.367
308.534
308.701
308.868
309.035
309.201
309.368
309.534
309.7
309.866
310.032
310.198
310.364
310.53
310.695
310.861
311.026
311.191
311.356
311.521
311.686
311.851
312.014
312.18
312.343
312.508
312.67
312.836
312.996
313.165
313.32
313.493
313.642
313.824
313.959
314.159
314.269
314.502
314.564
314.863
283.146
283.146
283.145
283.145
283.145
283.145
283.145
283.145
283.145
283.144
283.144
283.143
283.143
283.143
283.143
283.142
283.142
283.142
283.141
283.141
283.141
283.141
283.141
283.142
283.142
283.143
283.143
283.144
283.145
283.146
283.148
283.149
283.151
283.154
283.157
283.16
283.164
283.168
283.173
283.179
283.185
283.192
283.199
283.207
283.217
283.227
283.238
283.25
283.262
283.276
283.291
283.307
283.324
283.343
283.362
283.383
283.404
283.427
283.451
283.477
283.504
283.531
283.561
283.591
283.623
283.656
283.69
283.725
283.762
283.8
283.84
283.88
283.922
283.965
284.009
284.055
284.102
284.15
284.2
284.25
284.302
284.356
284.41
284.466
284.523
284.581
284.64
284.701
284.763
284.826
284.891
284.956
285.023
285.091
285.16
285.23
285.301
285.374
285.447
285.522
285.597
285.674
285.752
285.83
285.91
285.99
286.072
286.154
286.238
286.322
286.407
286.492
286.579
286.667
286.755
286.844
286.934
287.024
287.115
287.207
287.3
287.393
287.487
287.582
287.678
287.774
287.871
287.968
288.066
288.165
288.264
288.364
288.465
288.566
288.668
288.771
288.874
288.977
289.082
289.187
289.292
289.398
289.505
289.612
289.719
289.827
289.936
290.045
290.154
290.264
290.375
290.485
290.597
290.708
290.82
290.933
291.045
291.159
291.272
291.386
291.5
291.614
291.729
291.844
291.959
292.075
292.191
292.307
292.423
292.54
292.656
292.773
292.891
293.008
293.126
293.243
293.361
293.48
293.598
293.717
293.835
293.954
294.073
294.192
294.312
294.431
294.551
294.671
294.791
294.911
295.031
295.152
295.272
295.393
295.514
295.634
295.755
295.877
295.998
296.119
296.241
296.362
296.484
296.606
296.728
296.85
296.971
297.093
297.215
297.338
297.46
297.582
297.704
297.826
297.948
298.07
298.192
298.314
298.436
298.558
298.68
298.801
298.923
299.045
299.166
299.288
299.409
299.531
299.652
299.773
299.894
300.016
300.137
300.258
300.379
300.5
300.621
300.742
300.862
300.983
301.104
301.225
301.345
301.466
301.587
301.707
301.828
301.948
302.068
302.189
302.309
302.429
302.549
302.669
302.789
302.909
303.028
303.149
303.266
303.389
303.503
303.629
303.738
303.87
303.97
304.115
304.196
304.366
304.412
304.63
283.15
283.15
283.15
283.149
283.149
283.149
283.148
283.148
283.147
283.147
283.146
283.146
283.145
283.145
283.145
283.144
283.144
283.144
283.144
283.144
283.144
283.144
283.144
283.144
283.144
283.145
283.145
283.145
283.146
283.146
283.147
283.147
283.148
283.149
283.15
283.151
283.153
283.154
283.156
283.158
283.161
283.163
283.166
283.169
283.173
283.177
283.182
283.187
283.192
283.198
283.205
283.212
283.22
283.228
283.237
283.247
283.257
283.268
283.28
283.293
283.306
283.32
283.335
283.35
283.367
283.384
283.402
283.421
283.44
283.461
283.482
283.504
283.527
283.551
283.575
283.601
283.627
283.654
283.682
283.711
283.741
283.772
283.804
283.836
283.869
283.904
283.939
283.975
284.012
284.05
284.088
284.128
284.168
284.21
284.252
284.295
284.338
284.383
284.428
284.474
284.521
284.569
284.617
284.666
284.716
284.767
284.818
284.87
284.922
284.975
285.029
285.083
285.138
285.194
285.25
285.307
285.364
285.422
285.48
285.539
285.599
285.659
285.719
285.78
285.842
285.904
285.966
286.029
286.093
286.157
286.222
286.287
286.352
286.418
286.485
286.552
286.619
286.687
286.755
286.824
286.893
286.963
287.033
287.103
287.174
287.245
287.317
287.389
287.461
287.534
287.607
287.68
287.754
287.828
287.902
287.977
288.052
288.127
288.202
288.278
288.354
288.43
288.507
288.584
288.661
288.738
288.815
288.893
288.971
289.049
289.127
289.205
289.284
289.362
289.441
289.52
289.599
289.679
289.758
289.838
289.917
289.997
290.077
290.157
290.238
290.318
290.399
290.479
290.56
290.641
290.722
290.803
290.885
290.966
291.048
291.129
291.211
291.293
291.375
291.457
291.539
291.621
291.704
291.786
291.869
291.951
292.034
292.117
292.2
292.282
292.365
292.448
292.531
292.614
292.697
292.779
292.862
292.945
293.028
293.111
293.193
293.276
293.359
293.441
293.524
293.607
293.689
293.772
293.854
293.937
294.019
294.101
294.184
294.266
294.349
294.431
294.513
294.596
294.678
294.76
294.843
294.925
295.007
295.09
295.172
295.254
295.336
295.419
295.501
295.583
295.665
295.747
295.829
295.911
295.993
296.075
296.156
296.239
296.319
296.403
296.481
296.567
296.642
296.731
296.8
296.898
296.955
297.069
297.102
297.25
283.151
283.151
283.15
283.15
283.15
283.149
283.149
283.148
283.148
283.148
283.147
283.147
283.147
283.146
283.146
283.146
283.146
283.146
283.146
283.146
283.146
283.146
283.146
283.146
283.146
283.146
283.146
283.147
283.147
283.147
283.148
283.148
283.148
283.149
283.149
283.15
283.15
283.151
283.152
283.153
283.154
283.155
283.156
283.158
283.16
283.161
283.164
283.166
283.168
283.171
283.174
283.178
283.182
283.186
283.19
283.195
283.2
283.206
283.212
283.218
283.225
283.232
283.239
283.247
283.256
283.265
283.274
283.284
283.294
283.304
283.316
283.327
283.339
283.352
283.365
283.378
283.392
283.407
283.422
283.438
283.454
283.471
283.488
283.506
283.524
283.543
283.562
283.582
283.602
283.623
283.645
283.667
283.69
283.713
283.736
283.761
283.785
283.81
283.836
283.862
283.889
283.916
283.943
283.971
284
284.029
284.058
284.087
284.117
284.148
284.179
284.21
284.241
284.273
284.305
284.338
284.371
284.404
284.438
284.471
284.506
284.54
284.575
284.61
284.646
284.681
284.718
284.754
284.791
284.828
284.865
284.902
284.94
284.978
285.017
285.055
285.094
285.134
285.173
285.213
285.253
285.294
285.334
285.375
285.416
285.458
285.499
285.541
285.583
285.625
285.668
285.711
285.754
285.797
285.84
285.884
285.928
285.972
286.016
286.06
286.105
286.15
286.194
286.239
286.285
286.33
286.375
286.421
286.466
286.512
286.558
286.604
286.65
286.696
286.742
286.788
286.835
286.881
286.928
286.974
287.021
287.068
287.115
287.162
287.209
287.256
287.303
287.35
287.398
287.445
287.493
287.54
287.588
287.636
287.684
287.732
287.78
287.828
287.876
287.925
287.973
288.022
288.07
288.119
288.167
288.216
288.265
288.314
288.362
288.411
288.46
288.509
288.558
288.607
288.655
288.704
288.753
288.802
288.851
288.899
288.948
288.997
289.046
289.094
289.143
289.192
289.24
289.289
289.337
289.386
289.435
289.483
289.532
289.58
289.629
289.678
289.726
289.775
289.823
289.872
289.921
289.969
290.018
290.066
290.115
290.164
290.212
290.261
290.309
290.358
290.407
290.455
290.503
290.552
290.6
290.649
290.697
290.746
290.793
290.842
290.888
290.939
290.983
291.036
291.077
291.134
291.168
291.235
291.255
291.342
283.151
283.15
283.15
283.15
283.15
283.149
283.149
283.149
283.149
283.148
283.148
283.148
283.148
283.148
283.148
283.147
283.147
283.147
283.147
283.147
283.147
283.147
283.147
283.147
283.147
283.147
283.147
283.147