/*--------------------------------*- C++ -*----------------------------------*\
  =========                 |
  \\      /  F ield         | OpenFOAM: The Open Source CFD Toolbox
   \\    /   O peration     | Website:  https://openfoam.org
    \\  /    A nd           | Version:  7
     \\/     M anipulation  |
\*---------------------------------------------------------------------------*/
FoamFile
{
    version     2.0;
    format      ascii;
    class       volVectorField;
    location    "2.52";
    object      U;
}
// * * * * * * * * * * * * * * * * * * * * * * * * * * * * * * * * * * * * * //

dimensions      [0 1 -1 0 0 0 0];

internalField   nonuniform List<vector> 
7920
(
(2.92903 0.101175 -32.3668)
(2.10327 -0.462576 -32.4079)
(1.39097 -0.616867 -32.3986)
(1.28219 -0.672904 -32.4102)
(1.04789 -0.689598 -32.3997)
(1.07357 -0.694444 -32.4078)
(0.932848 -0.698463 -32.4004)
(0.977931 -0.698645 -32.4082)
(0.872806 -0.700918 -32.4039)
(0.917509 -0.700673 -32.4102)
(0.83388 -0.702224 -32.4067)
(0.87434 -0.701712 -32.411)
(0.806216 -0.702669 -32.409)
(0.841732 -0.702087 -32.4115)
(0.785531 -0.702447 -32.412)
(0.816082 -0.702515 -32.4111)
(0.76847 -0.698587 -32.4164)
(0.789556 -0.705039 -32.4071)
(0.75507 -0.646676 -32.4267)
(0.583217 -0.659247 -32.3903)
(4.41069 0.967301 -32.4282)
(4.33173 0.872798 -32.4673)
(3.67867 0.818455 -32.4629)
(3.53026 0.751354 -32.4728)
(3.1303 0.723622 -32.4671)
(3.1244 0.710217 -32.4722)
(2.86166 0.703667 -32.4677)
(2.90325 0.700219 -32.472)
(2.70737 0.698126 -32.4701)
(2.75927 0.696438 -32.4738)
(2.60405 0.695343 -32.4726)
(2.65532 0.694165 -32.475)
(2.5289 0.693469 -32.4749)
(2.57627 0.692506 -32.4758)
(2.47152 0.69186 -32.4779)
(2.5157 0.691911 -32.4756)
(2.42246 0.688706 -32.4829)
(2.48279 0.69352 -32.4716)
(2.36236 0.68397 -32.4941)
(2.63743 0.675701 -32.4442)
(4.75139 0.192728 -32.4357)
(5.25682 -0.229333 -32.4707)
(5.11157 -0.375187 -32.4603)
(5.22242 -0.493624 -32.4705)
(4.9773 -0.558514 -32.4631)
(5.02657 -0.595194 -32.47)
(4.81181 -0.619636 -32.4635)
(4.85387 -0.633488 -32.4685)
(4.67709 -0.644075 -32.4637)
(4.71701 -0.650768 -32.468)
(4.57174 -0.656233 -32.465)
(4.60898 -0.66027 -32.4684)
(4.48881 -0.663418 -32.4673)
(4.52239 -0.666129 -32.4692)
(4.42325 -0.668271 -32.4707)
(4.44971 -0.669196 -32.4701)
(4.37476 -0.672526 -32.476)
(4.37441 -0.668347 -32.4693)
(4.34782 -0.669284 -32.4839)
(4.25202 -0.690697 -32.4499)
(4.75233 0.64921 -32.446)
(5.28286 0.749538 -32.4792)
(5.38292 0.796726 -32.4695)
(5.68747 0.766971 -32.4776)
(5.62826 0.74901 -32.4715)
(5.79949 0.734645 -32.4772)
(5.70537 0.7243 -32.4722)
(5.81734 0.716308 -32.4758)
(5.72234 0.710253 -32.4718)
(5.80305 0.704687 -32.4742)
(5.71599 0.700748 -32.4716)
(5.77784 0.696602 -32.4732)
(5.70021 0.694112 -32.4723)
(5.75049 0.690667 -32.4731)
(5.6802 0.689809 -32.4742)
(5.72669 0.685859 -32.4741)
(5.65586 0.688838 -32.4775)
(5.71702 0.681568 -32.4756)
(5.6271 0.696295 -32.4819)
(5.76898 0.70636 -32.4565)
(4.74445 -0.0883645 -32.4451)
(5.2466 -0.387299 -32.4782)
(5.40386 -0.479853 -32.4658)
(5.76394 -0.545648 -32.4745)
(5.77422 -0.581446 -32.4664)
(6.00579 -0.601465 -32.473)
(5.97849 -0.615745 -32.4665)
(6.14326 -0.623749 -32.471)
(6.10751 -0.630665 -32.4657)
(6.23191 -0.635072 -32.4688)
(6.19538 -0.639293 -32.4646)
(6.29221 -0.642349 -32.4669)
(6.25728 -0.645481 -32.464)
(6.33413 -0.647359 -32.4658)
(6.30216 -0.650985 -32.4644)
(6.36254 -0.649489 -32.4662)
(6.33807 -0.658804 -32.4664)
(6.37605 -0.647541 -32.4682)
(6.37206 -0.67117 -32.4696)
(6.37093 -0.693255 -32.4489)
(4.73191 0.352099 -32.4487)
(5.18985 0.55719 -32.4825)
(5.35713 0.635534 -32.47)
(5.73267 0.655629 -32.4788)
(5.76683 0.665776 -32.4704)
(6.02219 0.669054 -32.477)
(6.02168 0.671181 -32.4703)
(6.21103 0.671289 -32.4749)
(6.20262 0.671611 -32.4693)
(6.35054 0.670887 -32.4725)
(6.34011 0.670776 -32.468)
(6.45839 0.669919 -32.4703)
(6.44707 0.669971 -32.4668)
(6.54316 0.668725 -32.4688)
(6.53104 0.670104 -32.4666)
(6.61051 0.666493 -32.4687)
(6.5983 0.673887 -32.4678)
(6.66523 0.66286 -32.4703)
(6.65731 0.686427 -32.4706)
(6.72195 0.708554 -32.4496)
(4.73191 -0.352099 -32.4487)
(5.18985 -0.55719 -32.4825)
(5.35713 -0.635534 -32.47)
(5.73267 -0.655629 -32.4788)
(5.76683 -0.665776 -32.4704)
(6.02219 -0.669052 -32.477)
(6.02168 -0.671181 -32.4703)
(6.21103 -0.671285 -32.4749)
(6.20262 -0.671608 -32.4693)
(6.35053 -0.670877 -32.4725)
(6.34012 -0.670762 -32.4679)
(6.45838 -0.669893 -32.4703)
(6.44711 -0.669932 -32.4668)
(6.54314 -0.668633 -32.4688)
(6.53114 -0.67003 -32.4665)
(6.61044 -0.666156 -32.4687)
(6.59854 -0.673784 -32.4678)
(6.66508 -0.661864 -32.4704)
(6.65763 -0.68596 -32.4706)
(6.72176 -0.70673 -32.4495)
(4.74445 0.0883645 -32.4451)
(5.2466 0.387299 -32.4782)
(5.40386 0.479853 -32.4658)
(5.76394 0.545648 -32.4745)
(5.77421 0.581446 -32.4664)
(6.0058 0.601467 -32.473)
(5.97849 0.615746 -32.4665)
(6.14327 0.623752 -32.471)
(6.10751 0.63067 -32.4656)
(6.23193 0.635078 -32.4688)
(6.19536 0.639309 -32.4645)
(6.29226 0.642368 -32.467)
(6.25724 0.645525 -32.4638)
(6.33426 0.647433 -32.466)
(6.30211 0.651068 -32.4642)
(6.36284 0.649792 -32.4666)
(6.33811 0.658916 -32.466)
(6.37673 0.648518 -32.4687)
(6.3727 0.671588 -32.4691)
(6.37265 0.695221 -32.4493)
(4.75233 -0.64921 -32.446)
(5.28286 -0.749538 -32.4793)
(5.38292 -0.796726 -32.4695)
(5.68747 -0.76697 -32.4776)
(5.62826 -0.749011 -32.4715)
(5.79949 -0.734643 -32.4772)
(5.70537 -0.7243 -32.4721)
(5.81734 -0.716304 -32.4759)
(5.72234 -0.710252 -32.4717)
(5.80307 -0.704677 -32.4744)
(5.716 -0.70074 -32.4714)
(5.77789 -0.696574 -32.4735)
(5.70023 -0.694089 -32.4718)
(5.75062 -0.690577 -32.4737)
(5.68031 -0.689774 -32.4733)
(5.72696 -0.685551 -32.4753)
(5.65634 -0.688824 -32.4758)
(5.71753 -0.680713 -32.4779)
(5.62848 -0.696064 -32.4789)
(5.77024 -0.704977 -32.4601)
(4.75139 -0.192728 -32.4357)
(5.25682 0.229333 -32.4707)
(5.11157 0.375187 -32.4603)
(5.22243 0.493624 -32.4705)
(4.9773 0.558514 -32.4631)
(5.02658 0.595194 -32.4701)
(4.8118 0.619638 -32.4635)
(4.85389 0.633488 -32.4686)
(4.67708 0.64408 -32.4636)
(4.71705 0.650768 -32.4682)
(4.57172 0.656248 -32.4648)
(4.60908 0.660271 -32.4688)
(4.48878 0.663457 -32.4666)
(4.52267 0.66615 -32.4702)
(4.42324 0.668343 -32.4692)
(4.45039 0.669337 -32.4725)
(4.37504 0.672618 -32.4722)
(4.37599 0.668931 -32.4752)
(4.34933 0.669529 -32.4751)
(4.25645 0.691869 -32.4627)
(4.41069 -0.967301 -32.4282)
(4.33173 -0.872798 -32.4673)
(3.67867 -0.818455 -32.4629)
(3.53026 -0.751354 -32.4728)
(3.1303 -0.723622 -32.4671)
(3.1244 -0.710216 -32.4723)
(2.86166 -0.703667 -32.4677)
(2.90326 -0.700216 -32.4721)
(2.70738 -0.698127 -32.47)
(2.75929 -0.696431 -32.4739)
(2.60406 -0.695343 -32.4723)
(2.65538 -0.694147 -32.4754)
(2.52893 -0.693469 -32.4742)
(2.57646 -0.69245 -32.4768)
(2.47167 -0.691871 -32.4762)
(2.51611 -0.691726 -32.4785)
(2.42315 -0.6888 -32.478)
(2.48342 -0.693052 -32.4799)
(2.3647 -0.68425 -32.4791)
(2.63803 -0.675844 -32.4707)
(2.92903 -0.101175 -32.3668)
(2.10327 0.462576 -32.4079)
(1.39097 0.616868 -32.3985)
(1.28219 0.672904 -32.4102)
(1.04789 0.689598 -32.3997)
(1.07357 0.694444 -32.4078)
(0.932849 0.698464 -32.4004)
(0.977935 0.698643 -32.4083)
(0.872807 0.700921 -32.4038)
(0.917523 0.700668 -32.4103)
(0.833882 0.70223 -32.4065)
(0.874381 0.701698 -32.4114)
(0.80622 0.702684 -32.4084)
(0.841847 0.702049 -32.4125)
(0.785567 0.702487 -32.4104)
(0.81635 0.702415 -32.4137)
(0.768725 0.698717 -32.4121)
(0.790099 0.704885 -32.4147)
(0.756198 0.647267 -32.4131)
(0.585325 0.660004 -32.4146)
(4.32492 0.565813 0.00691099)
(3.07888 0.847643 0.00444411)
(2.31449 0.869451 0.00571614)
(1.7467 0.852658 0.00423997)
(1.60809 0.855239 0.00538451)
(1.40362 0.867043 0.00421642)
(1.39666 0.876935 0.00517164)
(1.27434 0.885037 0.00419194)
(1.2811 0.889286 0.00497411)
(1.19446 0.892997 0.00414747)
(1.2021 0.894725 0.00478874)
(1.13868 0.896793 0.00409462)
(1.14472 0.897553 0.00462172)
(1.09632 0.899037 0.00404084)
(1.10118 0.898886 0.00447342)
(1.0608 0.90129 0.00398696)
(1.06741 0.893836 0.0043431)
(1.04397 0.915474 0.00393024)
(0.999402 0.791733 0.00425629)
(1.44031 0.819255 0.00381965)
(4.75838 -0.100161 0.00433444)
(4.61118 -0.277259 0.00230334)
(4.52499 -0.477233 0.00360671)
(4.14223 -0.643194 0.00216506)
(3.99916 -0.739552 0.00331809)
(3.72015 -0.79489 0.00215607)
(3.6454 -0.822335 0.00311484)
(3.45745 -0.83943 0.00213771)
(3.41673 -0.849648 0.00292207)
(3.28329 -0.857452 0.00209745)
(3.25702 -0.862766 0.00274041)
(3.15809 -0.867254 0.00204768)
(3.1384 -0.87016 0.00257572)
(3.06153 -0.873437 0.00199583)
(3.04685 -0.874126 0.00242831)
(2.98029 -0.878578 0.00194369)
(2.9797 -0.875499 0.00229391)
(2.89351 -0.882542 0.00189125)
(2.96839 -0.886036 0.00214652)
(2.56488 -0.894673 0.00176874)
(4.63708 0.435077 0.00563269)
(4.82527 0.87115 0.00367769)
(5.14025 0.969292 0.00486274)
(5.0801 0.960145 0.00338085)
(5.14134 0.941919 0.00450818)
(5.00512 0.928748 0.00333358)
(5.01038 0.919364 0.00428659)
(4.8906 0.913573 0.0033058)
(4.88425 0.907158 0.00408824)
(4.78729 0.903605 0.00326157)
(4.77612 0.899071 0.00390318)
(4.69822 0.896976 0.003209)
(4.68446 0.89401 0.00373593)
(4.62205 0.892559 0.00315487)
(4.60523 0.891044 0.0035871)
(4.5592 0.888965 0.00310075)
(4.52931 0.887823 0.00345677)
(4.52363 0.887725 0.00304402)
(4.44235 0.849006 0.00336823)
(4.56019 0.888969 0.00295785)
(4.57531 -0.201734 0.00445407)
(4.69893 -0.398273 0.00271877)
(5.12892 -0.518899 0.00390869)
(5.2283 -0.623592 0.00245586)
(5.44477 -0.691342 0.0035849)
(5.44504 -0.73851 0.00241453)
(5.55589 -0.765106 0.00337062)
(5.52953 -0.784458 0.00239305)
(5.5931 -0.797031 0.00317835)
(5.56145 -0.807564 0.00235453)
(5.59887 -0.815353 0.00299802)
(5.56803 -0.822155 0.00230594)
(5.58989 -0.827468 0.00283388)
(5.56148 -0.832157 0.00225452)
(5.57432 -0.836165 0.00268655)
(5.54645 -0.838825 0.00220254)
(5.55816 -0.846147 0.0025516)
(5.51389 -0.840417 0.00214852)
(5.55262 -0.875984 0.00240154)
(5.35723 -0.897511 0.00205169)
(4.58837 0.341338 0.00510733)
(4.69491 0.688269 0.00341139)
(5.10483 0.803132 0.00455382)
(5.22501 0.844673 0.003087)
(5.48166 0.861652 0.0042033)
(5.53098 0.871382 0.00302631)
(5.69265 0.875093 0.00397919)
(5.71877 0.877632 0.0029994)
(5.83095 0.876921 0.00378376)
(5.84735 0.877091 0.00295881)
(5.92721 0.87546 0.00360173)
(5.93779 0.875113 0.00290881)
(5.99517 0.873728 0.00343626)
(6.00257 0.872954 0.00285616)
(6.04276 0.872821 0.00328817)
(6.05102 0.869854 0.002803)
(6.07235 0.874214 0.00315658)
(6.08982 0.865769 0.00274683)
(6.08898 0.869991 0.00305187)
(6.08676 0.916148 0.00267611)
(4.58233 -0.26904 0.0047365)
(4.66677 -0.539317 0.00310502)
(5.07157 -0.653715 0.00424676)
(5.19309 -0.724538 0.00278702)
(5.4612 -0.764971 0.00390156)
(5.52563 -0.792619 0.00272453)
(5.70528 -0.807206 0.00367734)
(5.75073 -0.817947 0.00269783)
(5.88293 -0.823702 0.00348265)
(5.92004 -0.829065 0.00265827)
(6.02025 -0.832237 0.00330161)
(6.05098 -0.835604 0.00260922)
(6.12797 -0.837907 0.0031369)
(6.15326 -0.839878 0.00255734)
(6.21299 -0.842688 0.00298912)
(6.23314 -0.841601 0.00250486)
(6.28024 -0.850565 0.00285525)
(6.28726 -0.839793 0.00244943)
(6.33731 -0.870633 0.00272521)
(6.2509 -0.905564 0.00237363)
(4.58233 0.26904 0.0047365)
(4.66677 0.539318 0.00310502)
(5.07157 0.653715 0.00424676)
(5.19309 0.724538 0.00278702)
(5.4612 0.764971 0.00390156)
(5.52563 0.792621 0.00272452)
(5.70527 0.807207 0.00367734)
(5.75074 0.817951 0.00269782)
(5.88293 0.823706 0.00348266)
(5.92005 0.829076 0.00265826)
(6.02023 0.83225 0.00330162)
(6.05101 0.835639 0.00260918)
(6.12793 0.837941 0.00313694)
(6.15333 0.839993 0.00255724)
(6.21291 0.842776 0.00298923)
(6.23335 0.841931 0.00250461)
(6.2801 0.850861 0.0028556)
(6.28791 0.840617 0.00244887)
(6.33757 0.871652 0.00272649)
(6.25196 0.907556 0.00237292)
(4.58837 -0.341338 0.00510733)
(4.69491 -0.688269 0.00341139)
(5.10483 -0.803132 0.00455382)
(5.22501 -0.844672 0.00308701)
(5.48166 -0.861652 0.0042033)
(5.53098 -0.87138 0.00302631)
(5.69265 -0.875093 0.00397918)
(5.71877 -0.877627 0.0029994)
(5.83095 -0.876918 0.00378375)
(5.84735 -0.877077 0.00295883)
(5.92722 -0.875451 0.00360171)
(5.9378 -0.875072 0.00290885)
(5.99521 -0.873706 0.0034362)
(6.00258 -0.872828 0.00285627)
(6.0429 -0.872767 0.00328801)
(6.051 -0.869512 0.00280327)
(6.07278 -0.874022 0.00315613)
(6.08966 -0.865062 0.00274731)
(6.08976 -0.869227 0.0030506)
(6.08688 -0.914406 0.0026763)
(4.57531 0.201734 0.00445407)
(4.69893 0.398273 0.00271877)
(5.12892 0.518899 0.00390869)
(5.2283 0.623593 0.00245586)
(5.44477 0.691342 0.0035849)
(5.44505 0.738511 0.00241454)
(5.55589 0.765107 0.00337062)
(5.52954 0.78446 0.00239305)
(5.59309 0.797036 0.00317835)
(5.56148 0.807571 0.00235453)
(5.59885 0.815369 0.00299802)
(5.56811 0.822178 0.00230593)
(5.58986 0.827506 0.00283389)
(5.56167 0.832235 0.00225448)
(5.57431 0.836263 0.00268658)
(5.54695 0.839066 0.00220243)
(5.55833 0.846467 0.00255178)
(5.51525 0.841119 0.00214817)
(5.55372 0.877069 0.00240269)
(5.36066 0.899271 0.00205094)
(4.63708 -0.435077 0.00563269)
(4.82527 -0.87115 0.00367769)
(5.14025 -0.969292 0.00486274)
(5.0801 -0.960144 0.00338085)
(5.14134 -0.94192 0.00450818)
(5.00513 -0.928746 0.00333358)
(5.01038 -0.919365 0.00428658)
(4.89062 -0.913569 0.00330582)
(4.88425 -0.907158 0.00408822)
(4.78732 -0.903593 0.0032616)
(4.77612 -0.89907 0.00390313)
(4.69829 -0.89694 0.00320908)
(4.68449 -0.894008 0.0037358)
(4.62223 -0.89245 0.00315505)
(4.60541 -0.891052 0.00358679)
(4.5596 -0.888683 0.0031012)
(4.52993 -0.887821 0.003456)
(4.52451 -0.887266 0.00304486)
(4.44396 -0.848772 0.00336646)
(4.56263 -0.888408 0.00295833)
(4.75838 0.100161 0.00433444)
(4.61118 0.277259 0.00230334)
(4.52499 0.477234 0.00360671)
(4.14223 0.643194 0.00216506)
(3.99916 0.739553 0.00331809)
(3.72015 0.79489 0.00215607)
(3.6454 0.822337 0.00311483)
(3.45747 0.839429 0.00213771)
(3.41673 0.849653 0.00292206)
(3.28334 0.85745 0.00209745)
(3.25701 0.862779 0.0027404)
(3.1582 0.867249 0.00204769)
(3.1384 0.870193 0.00257569)
(3.06183 0.873432 0.00199587)
(3.04693 0.874213 0.00242821)
(2.98104 0.878582 0.0019438)
(2.98001 0.875766 0.0022937)
(2.89577 0.882716 0.00189145)
(2.96906 0.88696 0.00214666)
(2.5731 0.896096 0.00176899)
(4.32492 -0.565813 0.006911)
(3.07888 -0.847643 0.00444412)
(2.31449 -0.869451 0.00571615)
(1.7467 -0.852658 0.00423998)
(1.60809 -0.855239 0.00538451)
(1.40363 -0.867042 0.00421643)
(1.39666 -0.876936 0.00517163)
(1.27435 -0.885035 0.00419197)
(1.2811 -0.889289 0.00497409)
(1.19448 -0.89299 0.00414751)
(1.20211 -0.894733 0.00478868)
(1.13872 -0.896773 0.00409473)
(1.14478 -0.897574 0.00462156)
(1.09643 -0.898978 0.00404111)
(1.10137 -0.898952 0.00447298)
(1.06105 -0.901137 0.00398768)
(1.06799 -0.894058 0.00434186)
(1.04459 -0.91528 0.0039321)
(1.00075 -0.792859 0.00425247)
(1.4415 -0.820622 0.00382488)
(4.37837 0.0970674 0.00136782)
(3.96649 0.148992 0.00191144)
(3.43079 0.162966 0.000957589)
(2.9527 0.156775 0.00150035)
(2.53948 0.145201 0.000977226)
(2.23465 0.136626 0.00139369)
(2.00934 0.131633 0.00104993)
(1.85581 0.13125 0.00131262)
(1.75219 0.1336 0.00108087)
(1.67753 0.138059 0.00123507)
(1.63063 0.143063 0.00109137)
(1.58851 0.148455 0.00117358)
(1.56488 0.153059 0.00109897)
(1.53616 0.15794 0.00113193)
(1.52137 0.160688 0.00111101)
(1.50189 0.166011 0.0011069)
(1.48449 0.164404 0.00113234)
(1.48658 0.174661 0.00109282)
(1.43952 0.160127 0.00114661)
(1.51302 0.166861 0.00116175)
(4.54085 0.0877795 0.00315923)
(4.67686 0.119398 0.0038819)
(4.71854 0.120806 0.00292157)
(4.70635 0.094576 0.0034399)
(4.62826 0.0564128 0.00289232)
(4.53169 0.013969 0.00329487)
(4.42311 -0.0240579 0.00294211)
(4.31691 -0.0567328 0.00320087)
(4.22012 -0.0816597 0.00296623)
(4.12731 -0.101505 0.00311971)
(4.04942 -0.115948 0.0029752)
(3.9722 -0.127602 0.00305751)
(3.91099 -0.136116 0.00298266)
(3.8473 -0.143351 0.00301551)
(3.79962 -0.148779 0.00299515)
(3.74751 -0.153259 0.00299002)
(3.70961 -0.157828 0.00301934)
(3.67019 -0.159457 0.0029739)
(3.63364 -0.165486 0.00307063)
(3.61365 -0.171551 0.00307497)
(4.51619 0.045733 0.00172483)
(4.65487 0.110427 0.0023318)
(4.78631 0.162839 0.00140331)
(4.93397 0.191342 0.00192535)
(5.04084 0.201688 0.00138422)
(5.12429 0.202606 0.00179371)
(5.17414 0.199365 0.00144951)
(5.2023 0.19634 0.00171351)
(5.2154 0.194443 0.00148425)
(5.21471 0.194003 0.00163964)
(5.2108 0.194386 0.00149773)
(5.19801 0.195303 0.0015804)
(5.18665 0.196 0.00150662)
(5.17035 0.197197 0.00153971)
(5.15459 0.196648 0.00151885)
(5.14051 0.199326 0.00151581)
(5.1191 0.194097 0.00153777)
(5.11368 0.204095 0.00150821)
(5.08134 0.184123 0.00153455)
(5.09037 0.207785 0.00156888)
(4.51224 0.044159 0.00274286)
(4.62046 0.0508683 0.00345973)
(4.74395 0.0466177 0.00255598)
(4.90274 0.0291203 0.00308358)
(5.04173 0.00690571 0.00252832)
(5.17334 -0.0182502 0.00292621)
(5.27942 -0.0420949 0.00257111)
(5.368 -0.0636581 0.00283009)
(5.44129 -0.0813183 0.00259635)
(5.49994 -0.095922 0.00275013)
(5.5528 -0.107448 0.00260604)
(5.59444 -0.116761 0.00268803)
(5.63512 -0.12452 0.002613)
(5.66689 -0.130411 0.00264561)
(5.69943 -0.136532 0.00262445)
(5.72458 -0.139413 0.00262068)
(5.75218 -0.146365 0.0026466)
(5.76947 -0.144992 0.00261306)
(5.79852 -0.15503 0.00270069)
(5.79574 -0.153477 0.00270536)
(4.51335 0.0165833 0.00204258)
(4.62163 0.0556722 0.00271386)
(4.73813 0.0914255 0.00181978)
(4.89091 0.117114 0.00233837)
(5.02766 0.133449 0.00178098)
(5.16304 0.14456 0.00217904)
(5.27769 0.152317 0.00182674)
(5.3793 0.159027 0.00208795)
(5.46851 0.164879 0.001857)
(5.54561 0.170433 0.00201209)
(5.61873 0.175259 0.00186975)
(5.68187 0.179683 0.00195232)
(5.74559 0.183051 0.0018783)
(5.80017 0.186493 0.00191126)
(5.85798 0.187878 0.00189028)
(5.90495 0.191799 0.00188759)
(5.96156 0.18899 0.00190902)
(5.99422 0.198324 0.00188413)
(6.06438 0.184393 0.0019197)
(6.05963 0.209243 0.00195235)
(4.51209 0.0119224 0.00237545)
(4.61379 -0.00401053 0.00307595)
(4.72888 -0.0234171 0.00218962)
(4.87994 -0.0448786 0.0027142)
(5.01583 -0.0639798 0.00215537)
(5.15108 -0.0817888 0.00255175)
(5.26683 -0.0972927 0.00219694)
(5.37066 -0.111047 0.00245712)
(5.46344 -0.122535 0.00222506)
(5.54488 -0.132276 0.00237984)
(5.62378 -0.140267 0.00223699)
(5.69274 -0.146803 0.0023194)
(5.7644 -0.152309 0.00224511)
(5.82541 -0.156545 0.00227785)
(5.89381 -0.160499 0.00225695)
(5.94608 -0.16315 0.00225384)
(6.01762 -0.165933 0.00227748)
(6.05109 -0.168523 0.0022508)
(6.14397 -0.167903 0.00231511)
(6.13097 -0.177553 0.00233024)
(4.51209 -0.0119227 0.00237545)
(4.61379 0.00401104 0.00307595)
(4.72888 0.0234166 0.00218962)
(4.87994 0.0448798 0.0027142)
(5.01583 0.0639792 0.00215537)
(5.15108 0.0817914 0.00255175)
(5.26683 0.0972927 0.00219693)
(5.37066 0.111053 0.00245712)
(5.46344 0.122538 0.00222505)
(5.54488 0.13229 0.00237985)
(5.62378 0.140277 0.00223697)
(5.69275 0.146844 0.00231944)
(5.7644 0.152332 0.00224507)
(5.82542 0.15667 0.00227794)
(5.89381 0.160552 0.00225683)
(5.94611 0.163489 0.00225406)
(6.01764 0.166108 0.00227705)
(6.05116 0.169312 0.00225117)
(6.14409 0.168627 0.00231312)
(6.13121 0.179117 0.00233081)
(4.51335 -0.0165835 0.00204258)
(4.62163 -0.0556717 0.00271386)
(4.73813 -0.0914261 0.00181978)
(4.89091 -0.117113 0.00233837)
(5.02766 -0.13345 0.00178098)
(5.16304 -0.144557 0.00217903)
(5.27769 -0.152318 0.00182674)
(5.3793 -0.159021 0.00208795)
(5.46851 -0.164877 0.001857)
(5.54561 -0.170418 0.00201207)
(5.61874 -0.17525 0.00186977)
(5.68187 -0.179641 0.00195229)
(5.74561 -0.18303 0.00187834)
(5.80017 -0.186369 0.00191117)
(5.85806 -0.187829 0.00189039)
(5.90496 -0.191464 0.00188737)
(5.96176 -0.188829 0.00190941)
(5.99429 -0.19756 0.00188373)
(6.06482 -0.183723 0.00192138)
(6.05997 -0.207795 0.00195178)
(4.51224 -0.0441591 0.00274286)
(4.62046 -0.0508679 0.00345973)
(4.74394 -0.0466181 0.00255598)
(4.90275 -0.0291192 0.00308358)
(5.04173 -0.00690622 0.00252832)
(5.17334 0.0182525 0.00292622)
(5.27941 0.042095 0.00257111)
(5.36801 0.0636633 0.0028301)
(5.44128 0.0813212 0.00259634)
(5.49996 0.0959348 0.00275015)
(5.55279 0.107458 0.00260601)
(5.59448 0.116797 0.00268807)
(5.63512 0.124543 0.00261294)
(5.66697 0.130522 0.0026457)
(5.6995 0.136581 0.0026243)
(5.72475 0.139722 0.00262087)
(5.75246 0.146516 0.00264613)
(5.76988 0.145725 0.00261337)
(5.79944 0.155662 0.0026988)
(5.79693 0.154951 0.00270561)
(4.51619 -0.0457332 0.00172483)
(4.65488 -0.110427 0.0023318)
(4.7863 -0.162839 0.00140331)
(4.93398 -0.191341 0.00192535)
(5.04084 -0.201688 0.00138421)
(5.1243 -0.202603 0.00179372)
(5.17413 -0.199365 0.00144951)
(5.20232 -0.196334 0.00171351)
(5.21539 -0.194442 0.00148425)
(5.21475 -0.193989 0.00163965)
(5.21077 -0.194381 0.00149772)
(5.19811 -0.195265 0.0015804)
(5.18664 -0.195989 0.00150662)
(5.17055 -0.197091 0.00153969)
(5.15467 -0.196627 0.00151888)
(5.14092 -0.199047 0.00151572)
(5.11953 -0.194013 0.00153794)
(5.11456 -0.203489 0.001508)
(5.08275 -0.183702 0.00153543)
(5.09254 -0.20682 0.00156867)
(4.54085 -0.0877795 0.00315923)
(4.67687 -0.119398 0.0038819)
(4.71854 -0.120806 0.00292157)
(4.70636 -0.0945757 0.0034399)
(4.62826 -0.0564126 0.00289231)
(4.5317 -0.0139682 0.00329489)
(4.4231 0.024059 0.00294209)
(4.31693 0.0567346 0.0032009)
(4.2201 0.0816635 0.00296619)
(4.12737 0.101509 0.00311978)
(4.04939 0.115957 0.00297511)
(3.97236 0.127618 0.00305765)
(3.91094 0.136135 0.00298246)
(3.84768 0.143404 0.00301582)
(3.79962 0.148812 0.00299466)
(3.74836 0.153414 0.00299073)
(3.70989 0.157917 0.00301816)
(3.67213 0.159833 0.00297541)
(3.63478 0.165856 0.00306743)
(3.61835 0.172294 0.00307792)
(4.37837 -0.0970674 0.00136782)
(3.96649 -0.148992 0.00191144)
(3.43079 -0.162966 0.000957589)
(2.9527 -0.156774 0.00150035)
(2.53948 -0.145201 0.000977226)
(2.23466 -0.136625 0.00139369)
(2.00934 -0.131633 0.00104993)
(1.85583 -0.131249 0.00131263)
(1.75219 -0.1336 0.00108087)
(1.67757 -0.138056 0.00123508)
(1.63064 -0.143063 0.00109135)
(1.58862 -0.148446 0.00117361)
(1.56491 -0.153062 0.00109892)
(1.53642 -0.157912 0.00113201)
(1.52153 -0.160704 0.00111087)
(1.50248 -0.165936 0.00110711)
(1.48503 -0.164452 0.00113191)
(1.48808 -0.174511 0.00109341)
(1.44063 -0.160223 0.00114529)
(1.5177 -0.166988 0.0011638)
(4.37837 0.0970674 -0.00136783)
(3.96649 0.148992 -0.00191145)
(3.43079 0.162966 -0.000957597)
(2.9527 0.156775 -0.00150035)
(2.53948 0.145201 -0.000977234)
(2.23465 0.136626 -0.0013937)
(2.00934 0.131633 -0.00104994)
(1.85581 0.13125 -0.00131263)
(1.75219 0.1336 -0.00108088)
(1.67753 0.138059 -0.00123507)
(1.63063 0.143063 -0.00109138)
(1.58851 0.148455 -0.00117359)
(1.56488 0.153059 -0.00109898)
(1.53616 0.15794 -0.00113194)
(1.52137 0.160688 -0.00111102)
(1.50189 0.166011 -0.00110691)
(1.48449 0.164404 -0.00113235)
(1.48658 0.174661 -0.00109282)
(1.43952 0.160127 -0.00114661)
(1.51302 0.166861 -0.00116176)
(4.54085 0.0877795 -0.00315924)
(4.67686 0.119398 -0.0038819)
(4.71854 0.120806 -0.00292158)
(4.70635 0.094576 -0.00343991)
(4.62826 0.0564128 -0.00289233)
(4.53169 0.013969 -0.00329488)
(4.42311 -0.0240579 -0.00294212)
(4.31691 -0.0567328 -0.00320088)
(4.22012 -0.0816598 -0.00296624)
(4.12731 -0.101505 -0.00311972)
(4.04942 -0.115948 -0.00297521)
(3.9722 -0.127602 -0.00305751)
(3.91099 -0.136116 -0.00298267)
(3.8473 -0.143351 -0.00301552)
(3.79962 -0.148779 -0.00299516)
(3.74751 -0.153259 -0.00299003)
(3.70961 -0.157828 -0.00301935)
(3.67019 -0.159457 -0.00297391)
(3.63364 -0.165486 -0.00307064)
(3.61365 -0.171551 -0.00307497)
(4.51619 0.045733 -0.00172483)
(4.65487 0.110427 -0.00233181)
(4.78631 0.162839 -0.00140331)
(4.93397 0.191342 -0.00192535)
(5.04084 0.201688 -0.00138422)
(5.12429 0.202606 -0.00179372)
(5.17414 0.199365 -0.00144952)
(5.2023 0.19634 -0.00171352)
(5.2154 0.194443 -0.00148426)
(5.21471 0.194003 -0.00163965)
(5.2108 0.194386 -0.00149774)
(5.19801 0.195303 -0.00158041)
(5.18665 0.196 -0.00150663)
(5.17035 0.197197 -0.00153971)
(5.15459 0.196648 -0.00151886)
(5.14051 0.199326 -0.00151582)
(5.1191 0.194097 -0.00153778)
(5.11368 0.204095 -0.00150822)
(5.08134 0.184123 -0.00153456)
(5.09037 0.207785 -0.00156888)
(4.51224 0.044159 -0.00274287)
(4.62046 0.0508683 -0.00345973)
(4.74395 0.0466177 -0.00255598)
(4.90274 0.0291203 -0.00308359)
(5.04173 0.0069057 -0.00252833)
(5.17334 -0.0182502 -0.00292622)
(5.27942 -0.0420949 -0.00257112)
(5.368 -0.0636581 -0.00283009)
(5.44129 -0.0813183 -0.00259636)
(5.49994 -0.0959221 -0.00275014)
(5.5528 -0.107448 -0.00260605)
(5.59444 -0.116761 -0.00268804)
(5.63512 -0.12452 -0.00261301)
(5.66689 -0.130411 -0.00264562)
(5.69943 -0.136532 -0.00262445)
(5.72458 -0.139413 -0.00262069)
(5.75218 -0.146365 -0.00264661)
(5.76947 -0.144992 -0.00261307)
(5.79852 -0.15503 -0.0027007)
(5.79574 -0.153477 -0.00270537)
(4.51335 0.0165833 -0.00204259)
(4.62163 0.0556722 -0.00271386)
(4.73813 0.0914255 -0.00181978)
(4.89091 0.117114 -0.00233838)
(5.02766 0.133449 -0.00178099)
(5.16304 0.14456 -0.00217904)
(5.27769 0.152317 -0.00182674)
(5.3793 0.159027 -0.00208796)
(5.46851 0.164879 -0.00185701)
(5.54561 0.170433 -0.00201209)
(5.61873 0.175259 -0.00186976)
(5.68187 0.179683 -0.00195233)
(5.74559 0.183051 -0.0018783)
(5.80017 0.186493 -0.00191127)
(5.85798 0.187878 -0.00189029)
(5.90495 0.191799 -0.00188759)
(5.96156 0.18899 -0.00190903)
(5.99422 0.198324 -0.00188414)
(6.06438 0.184393 -0.00191971)
(6.05963 0.209243 -0.00195236)
(4.51209 0.0119224 -0.00237546)
(4.61379 -0.00401054 -0.00307596)
(4.72888 -0.0234171 -0.00218963)
(4.87994 -0.0448786 -0.00271421)
(5.01583 -0.0639798 -0.00215537)
(5.15108 -0.0817888 -0.00255176)
(5.26683 -0.0972927 -0.00219694)
(5.37066 -0.111047 -0.00245712)
(5.46344 -0.122535 -0.00222506)
(5.54488 -0.132276 -0.00237985)
(5.62378 -0.140267 -0.002237)
(5.69274 -0.146803 -0.00231941)
(5.7644 -0.152309 -0.00224512)
(5.82541 -0.156545 -0.00227786)
(5.89381 -0.160499 -0.00225696)
(5.94608 -0.16315 -0.00225385)
(6.01762 -0.165933 -0.00227749)
(6.05109 -0.168523 -0.00225081)
(6.14397 -0.167903 -0.00231512)
(6.13097 -0.177553 -0.00233025)
(4.51209 -0.0119227 -0.00237546)
(4.61379 0.00401104 -0.00307596)
(4.72888 0.0234166 -0.00218963)
(4.87994 0.0448798 -0.00271421)
(5.01583 0.0639792 -0.00215537)
(5.15108 0.0817914 -0.00255176)
(5.26683 0.0972927 -0.00219694)
(5.37066 0.111053 -0.00245713)
(5.46343 0.122538 -0.00222506)
(5.54488 0.13229 -0.00237986)
(5.62378 0.140277 -0.00223698)
(5.69275 0.146845 -0.00231944)
(5.7644 0.152332 -0.00224507)
(5.82542 0.15667 -0.00227795)
(5.89381 0.160552 -0.00225683)
(5.94611 0.163489 -0.00225406)
(6.01764 0.166108 -0.00227706)
(6.05116 0.169312 -0.00225118)
(6.14409 0.168627 -0.00231313)
(6.13121 0.179117 -0.00233082)
(4.51335 -0.0165835 -0.00204259)
(4.62163 -0.0556717 -0.00271386)
(4.73813 -0.0914261 -0.00181978)
(4.89091 -0.117113 -0.00233838)
(5.02766 -0.13345 -0.00178099)
(5.16304 -0.144557 -0.00217904)
(5.27769 -0.152318 -0.00182674)
(5.3793 -0.159021 -0.00208796)
(5.46851 -0.164877 -0.00185701)
(5.54561 -0.170418 -0.00201208)
(5.61874 -0.17525 -0.00186977)
(5.68187 -0.179641 -0.0019523)
(5.74561 -0.18303 -0.00187834)
(5.80017 -0.186369 -0.00191118)
(5.85806 -0.187829 -0.0018904)
(5.90496 -0.191464 -0.00188738)
(5.96176 -0.188829 -0.00190941)
(5.99429 -0.19756 -0.00188374)
(6.06482 -0.183723 -0.00192139)
(6.05997 -0.207795 -0.00195179)
(4.51224 -0.0441591 -0.00274287)
(4.62046 -0.0508679 -0.00345974)
(4.74394 -0.0466181 -0.00255598)
(4.90275 -0.0291192 -0.00308359)
(5.04173 -0.00690622 -0.00252832)
(5.17334 0.0182525 -0.00292622)
(5.27941 0.042095 -0.00257111)
(5.36801 0.0636632 -0.0028301)
(5.44128 0.0813212 -0.00259634)
(5.49996 0.0959348 -0.00275016)
(5.55279 0.107458 -0.00260602)
(5.59448 0.116797 -0.00268808)
(5.63512 0.124543 -0.00261294)
(5.66697 0.130522 -0.00264571)
(5.6995 0.136581 -0.0026243)
(5.72475 0.139722 -0.00262087)
(5.75246 0.146516 -0.00264614)
(5.76988 0.145725 -0.00261338)
(5.79944 0.155662 -0.0026988)
(5.79693 0.154951 -0.00270561)
(4.51619 -0.0457332 -0.00172483)
(4.65488 -0.110427 -0.00233181)
(4.7863 -0.162839 -0.00140331)
(4.93398 -0.191341 -0.00192535)
(5.04084 -0.201688 -0.00138422)
(5.1243 -0.202603 -0.00179372)
(5.17413 -0.199365 -0.00144952)
(5.20232 -0.196334 -0.00171352)
(5.21539 -0.194442 -0.00148425)
(5.21475 -0.193989 -0.00163966)
(5.21077 -0.194381 -0.00149773)
(5.19811 -0.195265 -0.00158041)
(5.18664 -0.195989 -0.00150662)
(5.17055 -0.197091 -0.0015397)
(5.15467 -0.196627 -0.00151889)
(5.14092 -0.199047 -0.00151573)
(5.11953 -0.194013 -0.00153794)
(5.11456 -0.203489 -0.001508)
(5.08275 -0.183702 -0.00153544)
(5.09254 -0.20682 -0.00156868)
(4.54085 -0.0877795 -0.00315924)
(4.67687 -0.119398 -0.00388191)
(4.71854 -0.120806 -0.00292158)
(4.70636 -0.0945757 -0.00343991)
(4.62826 -0.0564126 -0.00289232)
(4.5317 -0.0139682 -0.00329489)
(4.4231 0.024059 -0.0029421)
(4.31693 0.0567346 -0.00320091)
(4.2201 0.0816634 -0.0029662)
(4.12737 0.101509 -0.00311978)
(4.04939 0.115957 -0.00297512)
(3.97236 0.127618 -0.00305765)
(3.91094 0.136135 -0.00298246)
(3.84768 0.143404 -0.00301583)
(3.79962 0.148812 -0.00299467)
(3.74836 0.153414 -0.00299073)
(3.70989 0.157917 -0.00301816)
(3.67213 0.159833 -0.00297542)
(3.63478 0.165856 -0.00306743)
(3.61835 0.172294 -0.00307792)
(4.37837 -0.0970674 -0.00136783)
(3.96649 -0.148992 -0.00191145)
(3.43079 -0.162966 -0.000957596)
(2.9527 -0.156774 -0.00150035)
(2.53948 -0.145201 -0.000977233)
(2.23466 -0.136625 -0.0013937)
(2.00934 -0.131633 -0.00104993)
(1.85583 -0.131249 -0.00131263)
(1.75219 -0.1336 -0.00108087)
(1.67757 -0.138056 -0.00123509)
(1.63064 -0.143063 -0.00109136)
(1.58862 -0.148446 -0.00117362)
(1.56491 -0.153062 -0.00109893)
(1.53642 -0.157912 -0.00113202)
(1.52153 -0.160704 -0.00111088)
(1.50248 -0.165936 -0.00110711)
(1.48503 -0.164452 -0.00113192)
(1.48808 -0.174511 -0.00109342)
(1.44063 -0.160223 -0.0011453)
(1.5177 -0.166988 -0.00116381)
(4.32492 0.565813 -0.00691101)
(3.07888 0.847643 -0.00444412)
(2.31449 0.869451 -0.00571615)
(1.7467 0.852658 -0.00423998)
(1.60809 0.855239 -0.00538452)
(1.40362 0.867043 -0.00421643)
(1.39666 0.876935 -0.00517165)
(1.27434 0.885037 -0.00419195)
(1.2811 0.889286 -0.00497413)
(1.19446 0.892997 -0.00414748)
(1.2021 0.894725 -0.00478875)
(1.13868 0.896793 -0.00409464)
(1.14472 0.897553 -0.00462173)
(1.09632 0.899037 -0.00404085)