/*--------------------------------*- C++ -*----------------------------------*\
  =========                 |
  \\      /  F ield         | OpenFOAM: The Open Source CFD Toolbox
   \\    /   O peration     | Website:  https://openfoam.org
    \\  /    A nd           | Version:  7
     \\/     M anipulation  |
\*---------------------------------------------------------------------------*/
FoamFile
{
    version     2.0;
    format      ascii;
    class       volVectorField;
    location    "0.0225";
    object      U_0;
}
// * * * * * * * * * * * * * * * * * * * * * * * * * * * * * * * * * * * * * //

dimensions      [0 1 -1 0 0 0 0];

internalField   nonuniform List<vector> 
7920
(
(3.23645 0.0318324 -32.407)
(3.16687 -0.3638 -32.5071)
(2.92418 -0.389854 -32.5222)
(3.0016 -0.395898 -32.5272)
(2.89051 -0.396036 -32.5254)
(2.96161 -0.39565 -32.5275)
(2.87922 -0.396307 -32.5263)
(2.95965 -0.395468 -32.5276)
(2.91654 -0.396203 -32.5269)
(3.01909 -0.395412 -32.528)
(2.99092 -0.396219 -32.5279)
(3.08336 -0.395512 -32.5287)
(3.03652 -0.396214 -32.5285)
(3.11653 -0.395565 -32.5291)
(3.06596 -0.396122 -32.5297)
(3.0834 -0.395637 -32.5294)
(3.03742 -0.393635 -32.5303)
(3.03165 -0.396683 -32.5299)
(2.99138 -0.367396 -32.5314)
(2.84249 -0.287338 -32.5168)
(4.51969 0.633683 -32.4716)
(4.70435 0.410887 -32.5717)
(4.45962 0.394857 -32.591)
(4.58539 0.379129 -32.5965)
(4.41477 0.378669 -32.5951)
(4.5317 0.378899 -32.5966)
(4.39486 0.377848 -32.5957)
(4.51523 0.378625 -32.5965)
(4.4232 0.377604 -32.596)
(4.55979 0.378279 -32.5967)
(4.48759 0.377272 -32.5966)
(4.60811 0.377818 -32.5973)
(4.52155 0.376878 -32.5971)
(4.62419 0.377414 -32.5976)
(4.53776 0.376339 -32.5981)
(4.57307 0.377258 -32.5979)
(4.49362 0.375375 -32.5986)
(4.51384 0.381095 -32.5985)
(4.41547 0.376812 -32.5993)
(4.5303 0.420004 -32.5791)
(4.65834 -0.0341637 -32.4816)
(4.84226 -0.342702 -32.579)
(4.59731 -0.357541 -32.5981)
(4.72238 -0.373546 -32.6045)
(4.54627 -0.373462 -32.6028)
(4.66763 -0.374011 -32.605)
(4.52496 -0.374222 -32.6038)
(4.64933 -0.373806 -32.6052)
(4.55201 -0.374096 -32.6045)
(4.69183 -0.373653 -32.6057)
(4.61485 -0.374018 -32.6056)
(4.73784 -0.373641 -32.6065)
(4.647 -0.373993 -32.6064)
(4.75127 -0.373606 -32.607)
(4.66123 -0.373963 -32.6076)
(4.69618 -0.37323 -32.6074)
(4.61719 -0.373383 -32.6083)
(4.61969 -0.367563 -32.608)
(4.57162 -0.375065 -32.6088)
(4.4443 -0.270296 -32.5909)
(4.61708 0.435491 -32.4898)
(4.77738 0.384194 -32.5865)
(4.58984 0.383199 -32.6056)
(4.72167 0.365449 -32.6117)
(4.5487 0.363803 -32.61)
(4.67044 0.363247 -32.612)
(4.52789 0.362379 -32.6108)
(4.65237 0.36293 -32.612)
(4.55489 0.362078 -32.6113)
(4.69482 0.362629 -32.6123)
(4.61766 0.36177 -32.6122)
(4.74077 0.362219 -32.613)
(4.64975 0.361437 -32.6128)
(4.75424 0.361832 -32.6135)
(4.66387 0.361166 -32.614)
(4.70046 0.361665 -32.6138)
(4.61865 0.362466 -32.6146)
(4.63865 0.363662 -32.6144)
(4.56697 0.381157 -32.6151)
(4.60234 0.39008 -32.5966)
(4.60903 -0.160594 -32.4881)
(4.76923 -0.342202 -32.583)
(4.58953 -0.351583 -32.6018)
(4.72034 -0.361246 -32.608)
(4.5487 -0.360655 -32.6062)
(4.67029 -0.361125 -32.6084)
(4.52776 -0.360857 -32.6072)
(4.65225 -0.360814 -32.6086)
(4.55478 -0.360577 -32.608)
(4.69469 -0.360539 -32.6091)
(4.61755 -0.360352 -32.6091)
(4.74062 -0.360335 -32.61)
(4.64965 -0.360211 -32.6098)
(4.754 -0.360144 -32.6105)
(4.66387 -0.360224 -32.611)
(4.69927 -0.359657 -32.6108)
(4.62036 -0.361606 -32.6117)
(4.62771 -0.354434 -32.6114)
(4.58103 -0.377462 -32.6123)
(4.51024 -0.31374 -32.5947)
(4.59629 0.286697 -32.4908)
(4.75006 0.358402 -32.5851)
(4.58653 0.36381 -32.6039)
(4.71902 0.358982 -32.6099)
(4.54855 0.357697 -32.6082)
(4.67027 0.357549 -32.6104)
(4.52786 0.356975 -32.6092)
(4.65236 0.357278 -32.6105)
(4.55487 0.356721 -32.6099)
(4.6948 0.357022 -32.611)
(4.61764 0.356478 -32.6109)
(4.74074 0.356725 -32.6117)
(4.64973 0.35623 -32.6116)
(4.75417 0.356407 -32.6122)
(4.66394 0.35615 -32.6127)
(4.70002 0.35603 -32.6126)
(4.62003 0.358246 -32.6134)
(4.63413 0.35425 -32.6132)
(4.57964 0.380381 -32.6141)
(4.56114 0.353414 -32.5964)
(4.59629 -0.286971 -32.4908)
(4.75007 -0.358651 -32.5851)
(4.58654 -0.364016 -32.6039)
(4.71903 -0.359132 -32.6099)
(4.54856 -0.357787 -32.6082)
(4.67029 -0.357554 -32.6104)
(4.52787 -0.356904 -32.6092)
(4.65237 -0.357125 -32.6105)
(4.55489 -0.356492 -32.6099)
(4.69481 -0.356736 -32.611)
(4.61764 -0.356162 -32.6108)
(4.74073 -0.356406 -32.6117)
(4.64972 -0.355926 -32.6116)
(4.75416 -0.356133 -32.6122)
(4.66393 -0.355899 -32.6127)
(4.70003 -0.355796 -32.6126)
(4.62004 -0.35801 -32.6134)
(4.63422 -0.35398 -32.6132)
(4.57963 -0.379937 -32.6142)
(4.56131 -0.35275 -32.5964)
(4.60904 0.160337 -32.4881)
(4.76925 0.341966 -32.583)
(4.58954 0.351381 -32.6018)
(4.72037 0.361105 -32.608)
(4.54873 0.360572 -32.6062)
(4.67032 0.361121 -32.6084)
(4.52779 0.360915 -32.6072)
(4.65228 0.360955 -32.6086)
(4.5548 0.360776 -32.608)
(4.69471 0.36078 -32.6091)
(4.61756 0.360627 -32.609)
(4.74062 0.360608 -32.61)
(4.64964 0.360479 -32.6098)
(4.754 0.360385 -32.6105)
(4.66387 0.36045 -32.611)
(4.69925 0.359865 -32.6108)
(4.62035 0.361806 -32.6117)
(4.62769 0.354729 -32.6114)
(4.58115 0.377825 -32.6123)
(4.51037 0.314381 -32.5947)
(4.61709 -0.43571 -32.4898)
(4.7774 -0.384394 -32.5865)
(4.58988 -0.38336 -32.6056)
(4.72172 -0.365568 -32.6117)
(4.54875 -0.363875 -32.61)
(4.6705 -0.363251 -32.612)
(4.52794 -0.362316 -32.6108)
(4.65243 -0.362805 -32.612)
(4.55493 -0.36189 -32.6113)
(4.69485 -0.362381 -32.6123)
(4.61767 -0.361511 -32.6122)
(4.74076 -0.361949 -32.613)
(4.64973 -0.361188 -32.6128)
(4.75422 -0.361609 -32.6135)
(4.66385 -0.360967 -32.614)
(4.70046 -0.361474 -32.6138)
(4.61869 -0.36226 -32.6146)
(4.63878 -0.363393 -32.6144)
(4.56706 -0.380736 -32.6151)
(4.60277 -0.389491 -32.5966)
(4.65835 0.0339946 -32.4816)
(4.84229 0.342549 -32.579)
(4.59735 0.357408 -32.5981)
(4.72242 0.373453 -32.6045)
(4.54633 0.373408 -32.6028)
(4.66769 0.374008 -32.605)
(4.52502 0.374254 -32.6038)
(4.6494 0.373891 -32.6052)
(4.55206 0.374221 -32.6045)
(4.69187 0.373815 -32.6057)
(4.61486 0.37419 -32.6056)
(4.73783 0.373818 -32.6065)
(4.64698 0.374162 -32.6064)
(4.75126 0.373762 -32.607)
(4.66122 0.374112 -32.6076)
(4.69616 0.373385 -32.6074)
(4.61722 0.373507 -32.6083)
(4.61973 0.367715 -32.608)
(4.57184 0.375239 -32.6088)
(4.44476 0.270806 -32.5911)
(4.5197 -0.633788 -32.4716)
(4.70439 -0.410987 -32.5717)
(4.45967 -0.394941 -32.591)
(4.58545 -0.379185 -32.5965)
(4.41484 -0.378704 -32.5951)
(4.53178 -0.378901 -32.5966)
(4.39494 -0.377809 -32.5957)
(4.51531 -0.378555 -32.5965)
(4.42327 -0.377506 -32.596)
(4.55983 -0.378155 -32.5967)
(4.4876 -0.377136 -32.5967)
(4.6081 -0.37768 -32.5973)
(4.52153 -0.376748 -32.5971)
(4.62417 -0.377301 -32.5976)
(4.53774 -0.376241 -32.5981)
(4.57306 -0.377184 -32.5979)
(4.49365 -0.375265 -32.5987)
(4.51398 -0.380966 -32.5985)
(4.41567 -0.376527 -32.5991)
(4.53107 -0.419594 -32.5808)
(3.23647 -0.031868 -32.407)
(3.1669 0.363772 -32.5071)
(2.92423 0.389845 -32.5222)
(3.00166 0.395875 -32.5272)
(2.89059 0.396012 -32.5254)
(2.9617 0.395648 -32.5275)
(2.87931 0.396302 -32.5263)
(2.95973 0.395491 -32.5276)
(2.91661 0.396217 -32.5269)
(3.01914 0.395441 -32.528)
(2.99093 0.396239 -32.5279)
(3.08335 0.395537 -32.5288)
(3.0365 0.396237 -32.5286)
(3.1165 0.39559 -32.5291)
(3.06595 0.396152 -32.5297)
(3.08339 0.395687 -32.5294)
(3.03745 0.39366 -32.5303)
(3.03173 0.396714 -32.53)
(2.99161 0.367324 -32.5308)
(2.84333 0.287518 -32.5218)
(4.53854 0.335037 0.00762634)
(4.15985 0.486088 0.00567978)
(4.0221 0.449666 0.00648221)
(4.02772 0.435237 0.00531175)
(3.97612 0.430711 0.00582657)
(4.02418 0.430704 0.00493881)
(3.97413 0.429777 0.00528846)
(4.04867 0.430151 0.00462749)
(4.02108 0.429433 0.00485545)
(4.12688 0.429768 0.00437256)
(4.10358 0.429099 0.0044948)
(4.20302 0.429381 0.00415208)
(4.15436 0.428748 0.00420682)
(4.24173 0.42904 0.00399494)
(4.1854 0.428219 0.00397714)
(4.20844 0.42909 0.00386572)
(4.15301 0.424817 0.00382535)
(4.16434 0.4352 0.00377681)
(4.07844 0.376043 0.00373218)
(4.27912 0.382608 0.00367603)
(4.49258 -0.244778 0.00507406)
(4.5391 -0.342109 0.00353172)
(4.48696 -0.402815 0.00429354)
(4.52014 -0.411865 0.00313641)
(4.45634 -0.413518 0.00365185)
(4.51617 -0.413923 0.00276309)
(4.45239 -0.413619 0.00311457)
(4.53759 -0.413752 0.0024512)
(4.49669 -0.413466 0.00267818)
(4.61182 -0.413489 0.00219155)
(4.57602 -0.413325 0.0023151)
(4.68316 -0.413291 0.00197149)
(4.62305 -0.413188 0.00202862)
(4.71634 -0.413097 0.00181421)
(4.64985 -0.412984 0.00179999)
(4.676 -0.412875 0.00168969)
(4.61444 -0.412031 0.00164721)
(4.60736 -0.409937 0.00160068)
(4.57725 -0.414766 0.00150871)
(4.32167 -0.32837 0.0015044)
(4.46332 0.285438 0.00629422)
(4.54993 0.438527 0.00478384)
(4.49763 0.418145 0.00549752)
(4.53367 0.411047 0.00434267)
(4.46872 0.406515 0.00485194)
(4.52864 0.406486 0.00396367)
(4.46439 0.405621 0.004314)
(4.54982 0.405976 0.00365124)
(4.50852 0.405395 0.00387869)
(4.62387 0.405698 0.00339307)
(4.58769 0.405176 0.00351547)
(4.69501 0.405409 0.00317291)
(4.63452 0.40494 0.0032288)
(4.72804 0.405131 0.00301517)
(4.66102 0.404612 0.00299946)
(4.68859 0.405045 0.00288951)
(4.62386 0.403557 0.00284922)
(4.63772 0.406834 0.00279653)
(4.56913 0.401451 0.00274342)
(4.62627 0.400397 0.00269203)
(4.45382 -0.238556 0.00515953)
(4.53177 -0.345725 0.00385204)
(4.48534 -0.384056 0.00454292)
(4.52902 -0.39092 0.00340297)
(4.46705 -0.393414 0.00391308)
(4.52805 -0.394162 0.0030249)
(4.46409 -0.393931 0.00337581)
(4.54955 -0.3941 0.00271158)
(4.50833 -0.393754 0.00293607)
(4.62363 -0.393819 0.00244857)
(4.58751 -0.393573 0.00257081)
(4.69477 -0.393598 0.00222806)
(4.63436 -0.39343 0.00228583)
(4.72772 -0.393388 0.00207089)
(4.66104 -0.393395 0.00205904)
(4.68693 -0.392903 0.00195012)
(4.62609 -0.39476 0.00190731)
(4.61776 -0.388217 0.001858)
(4.58517 -0.416272 0.00175617)
(4.42013 -0.3556 0.00172852)
(4.46111 0.25847 0.00578385)
(4.54091 0.39174 0.00450078)
(4.48744 0.392091 0.00517019)
(4.53084 0.391905 0.00403245)
(4.46774 0.3903 0.00453785)
(4.52845 0.390757 0.00365009)
(4.46435 0.390103 0.00400067)
(4.54981 0.390486 0.00333654)
(4.50854 0.389991 0.00356298)
(4.62386 0.39027 0.00307538)
(4.58769 0.389843 0.00319821)
(4.69498 0.390022 0.00285542)
(4.63452 0.389653 0.00291283)
(4.72798 0.389746 0.00269816)
(4.66109 0.389524 0.00268495)
(4.68818 0.389407 0.0025759)
(4.62507 0.390805 0.00253416)
(4.63168 0.388292 0.00247983)
(4.58073 0.41158 0.00240811)
(4.5623 0.391373 0.00235205)
(4.45818 -0.243158 0.0054172)
(4.53466 -0.36182 0.00418992)
(4.48307 -0.380716 0.00485192)
(4.52896 -0.38473 0.00371994)
(4.46697 -0.385765 0.00422586)
(4.52815 -0.38657 0.00333815)
(4.46418 -0.386106 0.00368811)
(4.54965 -0.386395 0.00302409)
(4.50841 -0.385916 0.00324715)
(4.62371 -0.386085 0.00275991)
(4.58756 -0.385722 0.00288083)
(4.69484 -0.385838 0.00253915)
(4.6344 -0.385581 0.0025963)
(4.72779 -0.38562 0.00238154)
(4.66105 -0.385618 0.00237016)
(4.6874 -0.385142 0.0022619)
(4.62587 -0.387829 0.0022203)
(4.62385 -0.381667 0.00216869)
(4.58434 -0.415142 0.00207766)
(4.49618 -0.375827 0.00203176)
(4.45818 0.242878 0.00541729)
(4.53467 0.361567 0.00419021)
(4.48309 0.380497 0.0048524)
(4.52897 0.384564 0.00371997)
(4.46697 0.385674 0.0042257)
(4.52816 0.386569 0.00333808)
(4.4642 0.386187 0.00368882)
(4.54967 0.386558 0.00302435)
(4.50842 0.386155 0.0032494)
(4.62372 0.386382 0.00276183)
(4.58757 0.386047 0.00288379)
(4.69484 0.386166 0.00254175)
(4.6344 0.385891 0.00259905)
(4.72779 0.385894 0.0023843)
(4.66104 0.385863 0.00237257)
(4.68739 0.385359 0.00226382)
(4.62585 0.388058 0.00222066)
(4.62382 0.38192 0.00216719)
(4.58432 0.41555 0.00207663)
(4.49594 0.376276 0.00203157)
(4.46111 -0.258724 0.00578393)
(4.54092 -0.391972 0.00450068)
(4.48745 -0.392278 0.00516994)
(4.53086 -0.392028 0.00403254)
(4.46778 -0.390387 0.00453803)
(4.5285 -0.390756 0.00365003)
(4.46439 -0.390028 0.00399915)
(4.54985 -0.390336 0.0033355)
(4.50856 -0.389772 0.00355881)
(4.62387 -0.389998 0.00307112)
(4.58769 -0.389545 0.0031926)
(4.69498 -0.389721 0.00285003)
(4.63451 -0.389368 0.00290768)
(4.72797 -0.389495 0.00269334)
(4.66108 -0.389295 0.0026813)
(4.68819 -0.389206 0.00257293)
(4.6251 -0.390582 0.00253329)
(4.63176 -0.388052 0.00248014)
(4.5808 -0.41115 0.00240888)
(4.56274 -0.390862 0.00235142)
(4.45383 0.238337 0.00515977)
(4.53179 0.345524 0.00385239)
(4.48538 0.383891 0.00454349)
(4.52906 0.390823 0.00340305)
(4.46708 0.393348 0.003913)
(4.5281 0.394161 0.00302471)
(4.46415 0.393997 0.00337562)
(4.5496 0.394234 0.00271094)
(4.50837 0.393949 0.00293607)
(4.62366 0.394061 0.00244825)
(4.58752 0.393838 0.00257072)
(4.69477 0.393866 0.00222814)
(4.63435 0.393681 0.00228577)
(4.72769 0.393611 0.00207125)
(4.66102 0.393589 0.00205969)
(4.68692 0.393078 0.00195069)
(4.62608 0.394934 0.00190717)
(4.61779 0.388386 0.0018566)
(4.58522 0.416575 0.00175532)
(4.42017 0.355874 0.00172759)
(4.46333 -0.285609 0.00629445)
(4.54996 -0.438681 0.00478394)
(4.49766 -0.418278 0.00549756)
(4.53372 -0.411168 0.00434281)
(4.46879 -0.406584 0.00485209)
(4.52872 -0.406485 0.00396348)
(4.46446 -0.405573 0.00431212)
(4.54989 -0.40588 0.00364969)
(4.50858 -0.405256 0.00387387)
(4.62391 -0.405526 0.00338767)
(4.5877 -0.404988 0.00350898)
(4.695 -0.405218 0.003166)
(4.6345 -0.404757 0.00322282)
(4.72801 -0.40497 0.0030096)
(4.661 -0.404459 0.00299562)
(4.6886 -0.404914 0.00288611)
(4.62388 -0.403397 0.00284821)
(4.63783 -0.406637 0.00279636)
(4.56925 -0.401097 0.00274376)
(4.62685 -0.399938 0.0026909)
(4.49259 0.244677 0.0050744)
(4.53914 0.342012 0.00353205)
(4.48702 0.402746 0.00429396)
(4.5202 0.411823 0.00313646)
(4.45641 0.413501 0.00365193)
(4.51625 0.413922 0.0027628)
(4.45247 0.413654 0.00311345)
(4.53767 0.413822 0.00244992)
(4.49675 0.413569 0.00267577)
(4.61186 0.413616 0.002189)
(4.57603 0.413466 0.00231183)
(4.68315 0.413432 0.00196829)
(4.62302 0.41332 0.00202565)
(4.71631 0.413213 0.00181179)
(4.64982 0.413075 0.00179866)
(4.67599 0.41296 0.00168847)
(4.61445 0.412101 0.00164662)
(4.60744 0.409994 0.00159907)
(4.57736 0.414885 0.00150802)
(4.32217 0.328395 0.00150341)
(4.53856 -0.335077 0.0076267)
(4.15989 -0.486121 0.00568005)
(4.02215 -0.449704 0.00648262)
(4.02779 -0.435276 0.00531209)
(3.9762 -0.43074 0.00582655)
(4.02428 -0.430705 0.0049386)
(3.97422 -0.429763 0.00528673)
(4.04876 -0.430119 0.00462556)
(4.02115 -0.429387 0.00485127)
(4.12693 -0.42971 0.00436764)
(4.1036 -0.429036 0.0044892)
(4.20301 -0.429318 0.00414636)
(4.15433 -0.428689 0.00420166)
(4.24169 -0.428985 0.00399033)
(4.18537 -0.428182 0.00397417)
(4.20843 -0.429037 0.00386294)
(4.15303 -0.424764 0.0038245)
(4.16446 -0.435124 0.00377569)
(4.0785 -0.375884 0.00373253)
(4.28044 -0.38226 0.00367342)
(4.40691 0.00926325 0.000955026)
(4.46393 0.00224926 0.0013724)
(4.34426 -0.000270224 0.000750378)
(4.42701 -0.000864164 0.00102372)
(4.34036 -0.000988372 0.000661036)
(4.42875 -0.00089943 0.000800149)
(4.35699 -0.000978153 0.000580638)
(4.45897 -0.000855497 0.000640722)
(4.41947 -0.000946827 0.00051555)
(4.5449 -0.00083613 0.000534003)
(4.51612 -0.000921386 0.000463894)
(4.63041 -0.000826456 0.000469368)
(4.58068 -0.000903436 0.000439097)
(4.68 -0.000819127 0.000460708)
(4.62636 -0.000891418 0.000448352)
(4.65917 -0.000797903 0.000502594)
(4.61182 -0.00091661 0.000515683)
(4.62214 -0.000566742 0.000612394)
(4.58588 -0.00191333 0.000619298)
(4.55596 0.00473167 0.00079813)
(4.44098 0.00961183 0.00268484)
(4.52569 0.000885592 0.00319688)
(4.40349 -0.00147377 0.00260908)
(4.49126 -0.00236455 0.00288712)
(4.39811 -0.00228773 0.00252313)
(4.49034 -0.00236612 0.0026632)
(4.4129 -0.00228641 0.00244203)
(4.51799 -0.00226937 0.00250317)
(4.4736 -0.00225481 0.00237546)
(4.60151 -0.00221975 0.00239457)
(4.56856 -0.00223784 0.00232243)
(4.68471 -0.00220628 0.00232938)
(4.63145 -0.00224335 0.00229787)
(4.73212 -0.00221875 0.00232027)
(4.67552 -0.00226787 0.00230792)
(4.70918 -0.00223637 0.00236339)
(4.65948 -0.00229262 0.00237796)
(4.6699 -0.00195986 0.00247226)
(4.63367 -0.0024604 0.00253028)
(4.59511 0.00522549 0.0026955)
(4.43955 0.00672982 0.00132273)
(4.52498 0.00414812 0.00174813)
(4.40336 0.00274188 0.00117554)
(4.49136 0.00203196 0.00144392)
(4.39823 0.00192509 0.00108215)
(4.49048 0.00191325 0.00122103)
(4.41302 0.00190789 0.00100102)
(4.51812 0.0019647 0.00106144)
(4.47372 0.00194283 0.000934784)
(4.60163 0.00200113 0.000953298)
(4.56867 0.00196076 0.000882047)
(4.68483 0.00200363 0.000888165)
(4.63155 0.00195007 0.000857266)
(4.73222 0.0019839 0.00087903)
(4.67562 0.00192571 0.000866449)
(4.7093 0.00198442 0.000921652)
(4.65961 0.00190864 0.000932594)
(4.67024 0.00231636 0.00102987)
(4.63436 0.00190254 0.00102482)
(4.59893 0.00583564 0.00117797)
(4.43865 0.00323849 0.00230909)
(4.52351 -0.00193762 0.00279663)
(4.40296 -0.00318388 0.00224449)
(4.49121 -0.00394379 0.00252126)
(4.39822 -0.00389153 0.00216)
(4.49049 -0.0039874 0.00229948)
(4.41305 -0.00388622 0.00207861)
(4.51814 -0.00388062 0.00213956)
(4.47374 -0.00382577 0.00201144)
(4.60165 -0.00379872 0.00203025)
(4.56868 -0.00378776 0.00195811)
(4.68484 -0.00376968 0.00196494)
(4.63156 -0.00379283 0.00193384)
(4.73223 -0.00378217 0.00195585)
(4.67563 -0.00382008 0.00194402)
(4.70929 -0.00378064 0.00199968)
(4.65968 -0.00383797 0.00201471)
(4.67 -0.00345914 0.00210696)
(4.6349 -0.00400928 0.0021663)
(4.59703 0.000318263 0.00229075)
(4.43837 0.00426731 0.00163826)
(4.52309 0.00441547 0.00208067)
(4.40282 0.00407864 0.001534)
(4.49117 0.00370927 0.00180331)
(4.39821 0.00371032 0.00144261)
(4.49048 0.00367237 0.00158174)
(4.41305 0.00372074 0.00136161)
(4.51814 0.00373164 0.00142216)
(4.47374 0.00376012 0.00129473)
(4.60164 0.00377652 0.00131318)
(4.56867 0.00377348 0.00124154)
(4.68483 0.00377423 0.00124799)
(4.63155 0.00374416 0.00121716)
(4.73222 0.00373417 0.00123893)
(4.67562 0.00369733 0.0012269)
(4.7093 0.00370487 0.0012826)
(4.6597 0.00370256 0.00129425)
(4.6702 0.00387736 0.0013897)
(4.63528 0.00416654 0.0014005)
(4.59934 0.00534792 0.00152938)
(4.43815 -0.00133118 0.00196372)
(4.5227 -0.00382389 0.00242735)
(4.40269 -0.00431524 0.00188823)
(4.49111 -0.00443189 0.00216175)
(4.39822 -0.00445049 0.00180134)
(4.49049 -0.00437341 0.00194002)
(4.41307 -0.00435055 0.00171947)
(4.51816 -0.00426411 0.00178019)
(4.47376 -0.00423688 0.00165201)
(4.60165 -0.00417321 0.00167058)
(4.56868 -0.00416387 0.00159851)
(4.68483 -0.00413706 0.00160526)
(4.63155 -0.00414905 0.0015744)
(4.73222 -0.00414816 0.00159627)
(4.67562 -0.00416714 0.0015846)
(4.70929 -0.00415864 0.00164033)
(4.65973 -0.0041909 0.00165411)
(4.67012 -0.0040627 0.00174619)
(4.63543 -0.00451311 0.00178516)
(4.59866 -0.00308385 0.00190037)
(4.43815 0.00105541 0.00196331)
(4.5227 0.00357191 0.00242717)
(4.4027 0.00410723 0.00188736)
(4.49112 0.00428552 0.00215993)
(4.39823 0.00437244 0.0018002)
(4.4905 0.0043789 0.00193987)
(4.41308 0.00443764 0.00171943)
(4.51817 0.00443454 0.00178017)
(4.47376 0.00448251 0.00165211)
(4.60166 0.00447569 0.00167066)
(4.56868 0.00449588 0.00159863)
(4.68483 0.00447071 0.00160535)
(4.63155 0.00446335 0.00157452)
(4.73221 0.00442338 0.00159641)
(4.67562 0.004411 0.00158475)
(4.70929 0.0043675 0.00164053)
(4.65973 0.00442118 0.0016541)
(4.67012 0.00426904 0.00174741)
(4.63544 0.00492081 0.00178434)
(4.59867 0.00338739 0.00190059)
(4.43837 -0.00452446 0.00163871)
(4.52311 -0.00465027 0.0020809)
(4.40284 -0.00427303 0.00153486)
(4.49119 -0.00384704 0.00180469)
(4.39825 -0.00378493 0.0014438)
(4.49051 -0.00366725 0.00158183)
(4.41309 -0.00363961 0.00136141)
(4.51817 -0.00357298 0.00142184)
(4.47377 -0.00353126 0.0012939)
(4.60166 -0.00349453 0.0013122)
(4.56868 -0.00346395 0.00124039)
(4.68482 -0.00346314 0.00124683)
(4.63154 -0.00345117 0.0012162)
(4.7322 -0.00347781 0.00123803)
(4.67561 -0.0034695 0.00122635)
(4.7093 -0.00351043 0.00128197)
(4.6597 -0.00348582 0.00129411)
(4.67025 -0.00368682 0.00138794)
(4.63531 -0.00377554 0.00140111)
(4.59951 -0.00506535 0.00152861)
(4.43866 -0.00345902 0.00230889)
(4.52354 0.001736 0.00279658)
(4.40299 0.00301783 0.00224397)
(4.49125 0.00382718 0.00252022)
(4.39827 0.00382932 0.0021593)
(4.49054 0.00399205 0.00229932)
(4.41311 0.00395638 0.0020784)
(4.5182 0.00401758 0.00213931)
(4.47379 0.00402319 0.002011)
(4.60168 0.00404184 0.0020297)
(4.56869 0.00405474 0.00195751)
(4.68483 0.00403804 0.00196433)
(4.63154 0.00404508 0.00193329)
(4.73221 0.00400335 0.00195543)
(4.67561 0.00401518 0.00194375)
(4.70929 0.00394811 0.0019995)
(4.65968 0.00402132 0.00201453)
(4.67005 0.00361922 0.00210763)
(4.63494 0.00434483 0.00216555)
(4.59723 -0.000109625 0.00229029)
(4.43956 -0.00689942 0.00132317)
(4.52501 -0.0043029 0.00174838)
(4.40341 -0.00287037 0.00117635)
(4.49142 -0.00212372 0.00144511)
(4.39829 -0.00197417 0.00108307)
(4.49055 -0.00190986 0.001221)
(4.4131 -0.00185427 0.00100056)
(4.51819 -0.00185996 0.00106074)
(4.47377 -0.00179193 0.000933323)
(4.60167 -0.00181521 0.000951599)
(4.56868 -0.0017567 0.00088006)
(4.68482 -0.00179871 0.000886147)
(4.63153 -0.00175682 0.000855553)
(4.7322 -0.0018148 0.000877477)
(4.67559 -0.00177507 0.000865654)
(4.7093 -0.00185655 0.000920693)
(4.65961 -0.00176294 0.00093237)
(4.67032 -0.00219189 0.00102832)
(4.6344 -0.001614 0.00102513)
(4.5993 -0.00568754 0.00117683)
(4.441 -0.00971817 0.00268487)
(4.52573 -0.000982669 0.00319696)
(4.40354 0.00139376 0.002609)
(4.49133 0.00230997 0.00288652)
(4.39819 0.00225833 0.00252296)
(4.49042 0.0023685 0.0026631)
(4.41299 0.00232032 0.00244173)
(4.51807 0.00233549 0.00250274)
(4.47367 0.00234999 0.0023746)
(4.60155 0.00233697 0.00239359)
(4.56857 0.00236666 0.00232129)
(4.6847 0.00233583 0.00232825)
(4.63142 0.00236538 0.00229686)
(4.73208 0.00232573 0.00231943)
(4.67549 0.00236181 0.0023073)
(4.70918 0.002317 0.00236282)
(4.65948 0.00237946 0.00237768)
(4.66999 0.00203145 0.00247198)
(4.63372 0.00264343 0.00252971)
(4.59551 -0.00522468 0.00269478)
(4.40692 -0.0093 0.00095532)
(4.46397 -0.00228249 0.0013726)
(4.34432 0.000241808 0.000750856)
(4.42708 0.000842766 0.00102404)
(4.34044 0.000976569 0.00066148)
(4.42884 0.000900116 0.000799949)
(4.35708 0.000989745 0.000580025)
(4.45905 0.000878134 0.000639837)
(4.41953 0.000979631 0.000513885)
(4.54495 0.00087676 0.000532087)
(4.51614 0.000966133 0.000461598)
(4.6304 0.000871439 0.000467107)
(4.58065 0.000945775 0.000437068)
(4.67996 0.000856145 0.000458971)
(4.62633 0.000924455 0.000447529)
(4.65917 0.000825378 0.000501633)
(4.61181 0.000951533 0.000515405)
(4.62226 0.000590748 0.000611278)
(4.58579 0.00201868 0.000619424)
(4.5574 -0.00477699 0.000796136)
(4.40691 0.00926343 -0.000955482)
(4.46393 0.00224945 -0.00137278)
(4.34426 -0.000269977 -0.000750717)
(4.42701 -0.000864 -0.00102404)
(4.34036 -0.000988149 -0.000661288)
(4.42875 -0.000899277 -0.000800389)
(4.35699 -0.000977956 -0.000580863)
(4.45897 -0.000855342 -0.000640891)
(4.41946 -0.000946649 -0.000515625)
(4.5449 -0.000835976 -0.000534027)
(4.51612 -0.000921221 -0.000463908)
(4.63041 -0.000826311 -0.000469436)
(4.58068 -0.0009033 -0.0004393)
(4.68 -0.00081899 -0.000460845)
(4.62636 -0.000891288 -0.000448536)
(4.65917 -0.000797803 -0.000502955)
(4.61181 -0.000916517 -0.000516097)
(4.62214 -0.000566666 -0.00061275)
(4.58588 -0.00191326 -0.000619505)
(4.55596 0.00473175 -0.000798534)
(4.44098 0.00961189 -0.00268529)
(4.52569 0.000885487 -0.00319726)
(4.40349 -0.00147378 -0.00260942)
(4.49126 -0.00236467 -0.00288744)
(4.39811 -0.00228777 -0.00252338)
(4.49034 -0.00236625 -0.00266344)
(4.4129 -0.0022865 -0.00244225)
(4.51799 -0.00226951 -0.00250334)
(4.4736 -0.00225495 -0.00237554)
(4.60151 -0.00221989 -0.00239459)
(4.56856 -0.00223797 -0.00232244)
(4.68471 -0.0022064 -0.00232944)
(4.63145 -0.00224349 -0.00229808)
(4.73211 -0.00221887 -0.00232041)
(4.67552 -0.00226797 -0.0023081)
(4.70918 -0.0022365 -0.00236374)
(4.65948 -0.00229273 -0.00237837)
(4.6699 -0.00195997 -0.00247262)
(4.63367 -0.00246039 -0.00253048)
(4.59511 0.00522538 -0.0026959)
(4.43955 0.00672993 -0.00132318)
(4.52498 0.0041482 -0.00174851)
(4.40336 0.00274203 -0.00117588)
(4.49136 0.00203206 -0.00144424)
(4.39823 0.00192525 -0.0010824)
(4.49048 0.00191335 -0.00122126)
(4.41302 0.00190799 -0.00100124)
(4.51812 0.00196476 -0.00106161)
(4.47372 0.00194288 -0.000934864)
(4.60163 0.00200117 -0.000953326)
(4.56867 0.00196083 -0.000882064)
(4.68483 0.00200369 -0.000888231)
(4.63155 0.0019501 -0.000857472)
(4.73222 0.00198396 -0.000879172)
(4.67562 0.00192579 -0.000866627)
(4.7093 0.00198444 -0.000922003)
(4.65961 0.00190867 -0.000933007)
(4.67024 0.00231642 -0.00103023)
(4.63436 0.0019027 -0.00102502)
(4.59893 0.00583568 -0.00117836)
(4.43865 0.00323853 -0.00230954)
(4.52351 -0.00193765 -0.00279701)
(4.40296 -0.00318387 -0.00224483)
(4.49121 -0.00394384 -0.00252158)
(4.39822 -0.00389154 -0.00216025)
(4.49049 -0.00398748 -0.00229971)
(4.41305 -0.00388629 -0.00207883)
(4.51814 -0.00388075 -0.00213973)
(4.47374 -0.0038259 -0.00201153)
(4.60165 -0.00379886 -0.00203029)
(4.56868 -0.00378787 -0.00195812)
(4.68484 -0.00376981 -0.00196501)
(4.63156 -0.00379298 -0.00193405)
(4.73223 -0.0037823 -0.00195599)
(4.67563 -0.00382017 -0.00194419)
(4.70929 -0.0037808 -0.00200002)
(4.65968 -0.00383812 -0.00201513)
(4.66999 -0.00345924 -0.00210732)
(4.6349 -0.00400927 -0.00216651)
(4.59702 0.000318276 -0.00229113)
(4.43837 0.00426742 -0.00163871)
(4.52309 0.00441555 -0.00208104)
(4.40282 0.00407877 -0.00153433)
(4.49117 0.00370935 -0.00180363)
(4.39821 0.00371046 -0.00144287)
(4.49048 0.00367243 -0.00158197)
(4.41305 0.00372079 -0.00136183)
(4.51814 0.00373163 -0.00142232)
(4.47374 0.0037601 -0.00129482)
(4.60164 0.0037765 -0.00131322)
(4.56867 0.0037735 -0.00124156)
(4.68482 0.00377424 -0.00124806)
(4.63155 0.00374413 -0.00121737)
(4.73222 0.00373417 -0.00123908)
(4.67562 0.00369738 -0.00122707)
(4.7093 0.00370484 -0.00128294)
(4.6597 0.00370254 -0.00129467)
(4.6702 0.00387739 -0.00139007)
(4.63528 0.0041667 -0.0014007)
(4.59933 0.00534805 -0.00152976)
(4.43815 -0.00133111 -0.00196416)
(4.5227 -0.00382388 -0.00242772)
(4.40269 -0.00431518 -0.00188857)
(4.49111 -0.0044319 -0.00216206)
(4.39822 -0.00445045 -0.00180159)
(4.49049 -0.00437343 -0.00194025)
(4.41307 -0.00435058 -0.00171968)
(4.51816 -0.00426422 -0.00178035)
(4.47375 -0.00423699 -0.00165211)
(4.60165 -0.00417332 -0.00167062)
(4.56868 -0.00416393 -0.00159853)
(4.68483 -0.00413714 -0.00160533)
(4.63155 -0.00414917 -0.00157461)
(4.73222 -0.00414824 -0.00159641)
(4.67562 -0.00416718 -0.00158476)
(4.70929 -0.00415878 -0.00164067)
(4.65973 -0.00419102 -0.00165454)
(4.67012 -0.00406274 -0.00174656)
(4.63543 -0.00451307 -0.00178537)
(4.59866 -0.0030838 -0.00190074)
(4.43815 0.00105552 -0.00196375)
(4.5227 0.00357197 -0.00242753)
(4.4027 0.00410734 -0.00188769)
(4.49112 0.00428557 -0.00216025)
(4.39823 0.00437254 -0.00180045)
(4.4905 0.00437894 -0.00194009)
(4.41308 0.00443765 -0.00171963)
(4.51817 0.00443448 -0.00178033)
(4.47376 0.00448244 -0.00165221)
(4.60166 0.00447562 -0.0016707)
(4.56868 0.00449586 -0.00159865)
(4.68483 0.00447067 -0.00160541)
(4.63155 0.00446327 -0.00157473)
(4.73221 0.00442333 -0.00159656)
(4.67562 0.004411 -0.00158491)
(4.70929 0.00436742 -0.00164086)
(4.65973 0.00442112 -0.00165453)
(4.67012 0.00426906 -0.00174779)
(4.63544 0.00492094 -0.00178454)
(4.59867 0.00338751 -0.00190094)
(4.43837 -0.00452436 -0.00163914)
(4.52311 -0.00465022 -0.00208126)
(4.40284 -0.00427292 -0.00153519)
(4.49119 -0.00384698 -0.00180501)
(4.39825 -0.00378483 -0.00144405)
(4.49051 -0.00366721 -0.00158205)
(4.41309 -0.00363959 -0.00136162)
(4.51817 -0.00357303 -0.001422)
(4.47377 -0.00353131 -0.001294)
(4.60166 -0.00349458 -0.00131225)
(4.56868 -0.00346396 -0.00124042)
(4.68482 -0.00346316 -0.00124689)
(4.63154 -0.00345122 -0.00121641)
(4.7322 -0.00347783 -0.00123818)
(4.67561 -0.0034695 -0.0012265)
(4.7093 -0.00351051 -0.00128231)
(4.6597 -0.00348588 -0.00129454)
(4.67024 -0.0036868 -0.00138832)
(4.63531 -0.00377544 -0.00140131)
(4.59951 -0.00506524 -0.00152896)
(4.43866 -0.00345892 -0.00230932)
(4.52354 0.00173602 -0.00279694)
(4.40299 0.0030179 -0.0022443)
(4.49125 0.00382719 -0.00252054)
(4.39827 0.00382937 -0.00215955)
(4.49054 0.00399204 -0.00229954)
(4.41311 0.00395635 -0.00207861)
(4.5182 0.00401747 -0.00213948)
(4.47378 0.00402308 -0.0020111)
(4.60168 0.00404173 -0.00202975)
(4.56869 0.00405467 -0.00195753)
(4.68483 0.00403796 -0.00196439)
(4.63154 0.00404497 -0.00193351)
(4.73221 0.00400326 -0.00195559)
(4.67561 0.00401512 -0.0019439)
(4.70929 0.00394798 -0.00199983)
(4.65968 0.00402121 -0.00201496)
(4.67005 0.00361921 -0.00210802)
(4.63494 0.0043449 -0.00216574)
(4.59723 -0.000109518 -0.00229063)
(4.43956 -0.00689931 -0.00132359)
(4.52501 -0.00430281 -0.00174874)
(4.40341 -0.00287022 -0.00117668)
(4.49142 -0.0021236 -0.00144543)
(4.39829 -0.00197402 -0.00108332)
(4.49055 -0.00190975 -0.00122122)
(4.4131 -0.00185418 -0.00100076)
(4.51819 -0.00185993 -0.00106091)
(4.47377 -0.00179189 -0.000933429)
(4.60167 -0.00181519 -0.000951652)
(4.56868 -0.00175664 -0.000880085)
(4.68482 -0.00179866 -0.000886203)
(4.63153 -0.00175679 -0.000855768)
(4.73219 -0.00181475 -0.000877632)
(4.67559 -0.001775 -0.000865796)
(4.7093 -0.00185655 -0.000921021)
(4.65961 -0.00176293 -0.000932806)
(4.67032 -0.0021918 -0.00102871)
(4.6344 -0.00161387 -0.00102533)
(4.59929 -0.0056874 -0.00117716)
(4.441 -0.00971813 -0.00268529)
(4.52573 -0.000982725 -0.00319732)
(4.40354 0.00139376 -0.00260933)
(4.49133 0.00230992 -0.00288684)
(4.39819 0.0022583 -0.00252321)
(4.49042 0.00236843 -0.00266332)
(4.41299 0.00232024 -0.00244193)
(4.51807 0.00233536 -0.00250292)
(4.47367 0.00234986 -0.0023747)
(4.60155 0.00233685 -0.00239364)
(4.56857 0.00236655 -0.00232132)
(4.6847 0.00233573 -0.00232831)
(4.63142 0.00236526 -0.00229708)
(4.73208 0.00232564 -0.00231959)
(4.67549 0.00236173 -0.00230744)
(4.70918 0.0023169 -0.00236315)
(4.65948 0.00237937 -0.00237811)
(4.66999 0.00203143 -0.00247237)
(4.63372 0.00264343 -0.0025299)
(4.59551 -0.00522466 -0.0026951)
(4.40692 -0.00929982 -0.00095574)
(4.46397 -0.00228228 -0.00137295)
(4.34432 0.00024206 -0.000751183)
(4.42708 0.000842966 -0.00102436)
(4.34044 0.000976785 -0.000661732)