/*--------------------------------*- C++ -*----------------------------------*\
  =========                 |
  \\      /  F ield         | OpenFOAM: The Open Source CFD Toolbox
   \\    /   O peration     | Website:  https://openfoam.org
    \\  /    A nd           | Version:  7
     \\/     M anipulation  |
\*---------------------------------------------------------------------------*/
FoamFile
{
    version     2.0;
    format      ascii;
    class       volScalarField;
    location    "0.24";
    object      pPrime2Mean;
}
// * * * * * * * * * * * * * * * * * * * * * * * * * * * * * * * * * * * * * //

dimensions      [2 -2 -4 0 0 0 0];

internalField   nonuniform List<scalar> 
4950
(
1.84923e+06
1.85302e+06
1.85443e+06
1.85783e+06
1.85979e+06
1.86188e+06
1.86375e+06
1.86457e+06
1.86611e+06
1.86599e+06
1.86728e+06
1.86658e+06
1.86768e+06
1.86659e+06
1.86756e+06
1.86612e+06
1.86695e+06
1.86517e+06
1.86613e+06
1.86488e+06
1.84933e+06
1.8529e+06
1.85421e+06
1.85746e+06
1.85939e+06
1.8614e+06
1.86329e+06
1.86406e+06
1.86562e+06
1.86545e+06
1.86672e+06
1.86595e+06
1.86702e+06
1.86586e+06
1.8668e+06
1.8653e+06
1.86608e+06
1.86425e+06
1.86507e+06
1.86382e+06
1.84922e+06
1.85285e+06
1.85419e+06
1.85757e+06
1.85954e+06
1.86163e+06
1.8635e+06
1.86433e+06
1.86588e+06
1.86577e+06
1.86706e+06
1.86634e+06
1.86744e+06
1.86633e+06
1.86729e+06
1.86583e+06
1.86666e+06
1.86486e+06
1.86582e+06
1.86431e+06
1.84937e+06
1.85288e+06
1.85415e+06
1.85737e+06
1.85928e+06
1.86128e+06
1.86316e+06
1.86396e+06
1.86555e+06
1.86541e+06
1.8667e+06
1.86593e+06
1.867e+06
1.86583e+06
1.86676e+06
1.86525e+06
1.86602e+06
1.86419e+06
1.86496e+06
1.86352e+06
1.84924e+06
1.85285e+06
1.85417e+06
1.85754e+06
1.85949e+06
1.86158e+06
1.86346e+06
1.86429e+06
1.86586e+06
1.86577e+06
1.86707e+06
1.86635e+06
1.86745e+06
1.86633e+06
1.86729e+06
1.86583e+06
1.86665e+06
1.86485e+06
1.8658e+06
1.86423e+06
1.84937e+06
1.85288e+06
1.85415e+06
1.85737e+06
1.85928e+06
1.86128e+06
1.86316e+06
1.86396e+06
1.86555e+06
1.86541e+06
1.8667e+06
1.86593e+06
1.867e+06
1.86583e+06
1.86676e+06
1.86525e+06
1.86602e+06
1.86419e+06
1.86496e+06
1.86352e+06
1.84922e+06
1.85285e+06
1.85419e+06
1.85757e+06
1.85954e+06
1.86163e+06
1.8635e+06
1.86433e+06
1.86588e+06
1.86577e+06
1.86706e+06
1.86634e+06
1.86744e+06
1.86633e+06
1.86729e+06
1.86583e+06
1.86665e+06
1.86486e+06
1.86582e+06
1.86431e+06
1.84933e+06
1.8529e+06
1.85421e+06
1.85746e+06
1.85939e+06
1.8614e+06
1.86329e+06
1.86406e+06
1.86562e+06
1.86545e+06
1.86672e+06
1.86595e+06
1.86702e+06
1.86586e+06
1.8668e+06
1.8653e+06
1.86608e+06
1.86425e+06
1.86506e+06
1.86382e+06
1.84923e+06
1.85302e+06
1.85443e+06
1.85783e+06
1.85979e+06
1.86188e+06
1.86375e+06
1.86457e+06
1.86611e+06
1.866e+06
1.86728e+06
1.86658e+06
1.86768e+06
1.86659e+06
1.86756e+06
1.86612e+06
1.86695e+06
1.86517e+06
1.86613e+06
1.86488e+06
1.84845e+06
1.85096e+06
1.85293e+06
1.85545e+06
1.85811e+06
1.85959e+06
1.86206e+06
1.86239e+06
1.8645e+06
1.864e+06
1.86581e+06
1.8648e+06
1.86637e+06
1.86501e+06
1.86639e+06
1.86473e+06
1.8659e+06
1.86393e+06
1.86518e+06
1.86341e+06
1.84849e+06
1.85095e+06
1.85298e+06
1.85561e+06
1.85829e+06
1.85985e+06
1.86235e+06
1.86277e+06
1.86491e+06
1.86449e+06
1.8663e+06
1.86534e+06
1.86692e+06
1.86562e+06
1.86701e+06
1.86542e+06
1.86662e+06
1.86469e+06
1.86609e+06
1.86414e+06
1.84858e+06
1.851e+06
1.85296e+06
1.85546e+06
1.8581e+06
1.85958e+06
1.86209e+06
1.86247e+06
1.86462e+06
1.86415e+06
1.86597e+06
1.86494e+06
1.8665e+06
1.86513e+06
1.8665e+06
1.86484e+06
1.866e+06
1.864e+06
1.8652e+06
1.86331e+06
1.84855e+06
1.85098e+06
1.85299e+06
1.85556e+06
1.85821e+06
1.85976e+06
1.86228e+06
1.86274e+06
1.8649e+06
1.8645e+06
1.86633e+06
1.86537e+06
1.86695e+06
1.86564e+06
1.86702e+06
1.86542e+06
1.86662e+06
1.86468e+06
1.86607e+06
1.86409e+06
1.84861e+06
1.851e+06
1.85295e+06
1.85542e+06
1.85804e+06
1.85952e+06
1.86204e+06
1.86244e+06
1.86461e+06
1.86416e+06
1.86597e+06
1.86495e+06
1.86651e+06
1.86514e+06
1.8665e+06
1.86483e+06
1.86599e+06
1.86399e+06
1.86517e+06
1.86327e+06
1.84855e+06
1.85098e+06
1.85299e+06
1.85556e+06
1.85821e+06
1.85976e+06
1.86228e+06
1.86274e+06
1.8649e+06
1.8645e+06
1.86633e+06
1.86537e+06
1.86695e+06
1.86564e+06
1.86702e+06
1.86542e+06
1.86662e+06
1.86468e+06
1.86607e+06
1.86409e+06
1.84858e+06
1.851e+06
1.85296e+06
1.85546e+06
1.8581e+06
1.85958e+06
1.86209e+06
1.86247e+06
1.86462e+06
1.86415e+06
1.86597e+06
1.86494e+06
1.8665e+06
1.86513e+06
1.8665e+06
1.86484e+06
1.866e+06
1.864e+06
1.86519e+06
1.86331e+06
1.84849e+06
1.85095e+06
1.85298e+06
1.85561e+06
1.85829e+06
1.85985e+06
1.86235e+06
1.86277e+06
1.86491e+06
1.86449e+06
1.8663e+06
1.86534e+06
1.86692e+06
1.86562e+06
1.86701e+06
1.86542e+06
1.86661e+06
1.86469e+06
1.86609e+06
1.86415e+06
1.84845e+06
1.85096e+06
1.85293e+06
1.85545e+06
1.85811e+06
1.85959e+06
1.86206e+06
1.86239e+06
1.8645e+06
1.864e+06
1.86581e+06
1.8648e+06
1.86637e+06
1.86501e+06
1.86639e+06
1.86473e+06
1.8659e+06
1.86393e+06
1.86518e+06
1.86342e+06
1.8489e+06
1.85126e+06
1.85292e+06
1.85538e+06
1.85782e+06
1.85939e+06
1.86184e+06
1.86231e+06
1.86445e+06
1.86405e+06
1.86591e+06
1.86494e+06
1.86656e+06
1.8652e+06
1.86664e+06
1.86491e+06
1.86617e+06
1.86405e+06
1.86545e+06
1.86356e+06
1.849e+06
1.85131e+06
1.85295e+06
1.85541e+06
1.85783e+06
1.85939e+06
1.86184e+06
1.86232e+06
1.86449e+06
1.8641e+06
1.86595e+06
1.86498e+06
1.8666e+06
1.86523e+06
1.86666e+06
1.86494e+06
1.86619e+06
1.86407e+06
1.86546e+06
1.86343e+06
1.84899e+06
1.85133e+06
1.85296e+06
1.85539e+06
1.85779e+06
1.85933e+06
1.8618e+06
1.86231e+06
1.86449e+06
1.86411e+06
1.86597e+06
1.86499e+06
1.86661e+06
1.86524e+06
1.86667e+06
1.86494e+06
1.8662e+06
1.86408e+06
1.86547e+06
1.86352e+06
1.84905e+06
1.85136e+06
1.85298e+06
1.8554e+06
1.85779e+06
1.85933e+06
1.86179e+06
1.86229e+06
1.86448e+06
1.86411e+06
1.86597e+06
1.86499e+06
1.86661e+06
1.86523e+06
1.86667e+06
1.86494e+06
1.86619e+06
1.86407e+06
1.86545e+06
1.86348e+06
1.84902e+06
1.85135e+06
1.85297e+06
1.85539e+06
1.85777e+06
1.85931e+06
1.86178e+06
1.86229e+06
1.86448e+06
1.86411e+06
1.86598e+06
1.865e+06
1.86662e+06
1.86524e+06
1.86667e+06
1.86494e+06
1.8662e+06
1.86409e+06
1.86547e+06
1.86355e+06
1.84905e+06
1.85136e+06
1.85298e+06
1.8554e+06
1.85779e+06
1.85933e+06
1.86179e+06
1.86229e+06
1.86448e+06
1.86411e+06
1.86597e+06
1.86499e+06
1.86661e+06
1.86523e+06
1.86667e+06
1.86494e+06
1.86619e+06
1.86407e+06
1.86545e+06
1.86348e+06
1.84899e+06
1.85133e+06
1.85296e+06
1.85539e+06
1.85779e+06
1.85933e+06
1.8618e+06
1.86231e+06
1.86449e+06
1.86411e+06
1.86597e+06
1.86499e+06
1.86661e+06
1.86524e+06
1.86667e+06
1.86494e+06
1.8662e+06
1.86408e+06
1.86547e+06
1.86352e+06
1.849e+06
1.85131e+06
1.85295e+06
1.85541e+06
1.85783e+06
1.85939e+06
1.86184e+06
1.86232e+06
1.86449e+06
1.8641e+06
1.86595e+06
1.86497e+06
1.8666e+06
1.86523e+06
1.86666e+06
1.86494e+06
1.86618e+06
1.86407e+06
1.86545e+06
1.86344e+06
1.8489e+06
1.85126e+06
1.85292e+06
1.85538e+06
1.85782e+06
1.85939e+06
1.86184e+06
1.86231e+06
1.86445e+06
1.86405e+06
1.86591e+06
1.86494e+06
1.86656e+06
1.8652e+06
1.86664e+06
1.86492e+06
1.86616e+06
1.86406e+06
1.86544e+06
1.86357e+06
1.84845e+06
1.85096e+06
1.85293e+06
1.85545e+06
1.85811e+06
1.85959e+06
1.86206e+06
1.86239e+06
1.8645e+06
1.86401e+06
1.86581e+06
1.8648e+06
1.86637e+06
1.86501e+06
1.86639e+06
1.86473e+06
1.8659e+06
1.86393e+06
1.86518e+06
1.86341e+06
1.84849e+06
1.85095e+06
1.85298e+06
1.85561e+06
1.85829e+06
1.85985e+06
1.86235e+06
1.86277e+06
1.86491e+06
1.86449e+06
1.8663e+06
1.86534e+06
1.86692e+06
1.86562e+06
1.86701e+06
1.86542e+06
1.86662e+06
1.86469e+06
1.86609e+06
1.86414e+06
1.84858e+06
1.851e+06
1.85296e+06
1.85546e+06
1.8581e+06
1.85958e+06
1.86209e+06
1.86247e+06
1.86462e+06
1.86415e+06
1.86597e+06
1.86494e+06
1.8665e+06
1.86513e+06
1.8665e+06
1.86484e+06
1.866e+06
1.864e+06
1.8652e+06
1.86331e+06
1.84856e+06
1.85098e+06
1.85299e+06
1.85556e+06
1.85821e+06
1.85976e+06
1.86228e+06
1.86274e+06
1.8649e+06
1.8645e+06
1.86633e+06
1.86537e+06
1.86695e+06
1.86564e+06
1.86702e+06
1.86542e+06
1.86662e+06
1.86468e+06
1.86607e+06
1.86409e+06
1.84861e+06
1.851e+06
1.85295e+06
1.85542e+06
1.85804e+06
1.85952e+06
1.86204e+06
1.86244e+06
1.86461e+06
1.86416e+06
1.86597e+06
1.86495e+06
1.86651e+06
1.86514e+06
1.8665e+06
1.86483e+06
1.86599e+06
1.86399e+06
1.86517e+06
1.86327e+06
1.84856e+06
1.85098e+06
1.85299e+06
1.85556e+06
1.85821e+06
1.85976e+06
1.86228e+06
1.86274e+06
1.8649e+06
1.8645e+06
1.86633e+06
1.86537e+06
1.86695e+06
1.86564e+06
1.86703e+06
1.86542e+06
1.86662e+06
1.86468e+06
1.86607e+06
1.86409e+06
1.84858e+06
1.851e+06
1.85296e+06
1.85546e+06
1.8581e+06
1.85958e+06
1.86209e+06
1.86247e+06
1.86462e+06
1.86416e+06
1.86597e+06
1.86494e+06
1.8665e+06
1.86513e+06
1.8665e+06
1.86484e+06
1.866e+06
1.864e+06
1.86519e+06
1.86331e+06
1.84849e+06
1.85095e+06
1.85298e+06
1.85561e+06
1.85829e+06
1.85985e+06
1.86235e+06
1.86277e+06
1.86491e+06
1.86449e+06
1.8663e+06
1.86534e+06
1.86692e+06
1.86562e+06
1.86701e+06
1.86542e+06
1.86661e+06
1.86469e+06
1.86609e+06
1.86415e+06
1.84845e+06
1.85096e+06
1.85293e+06
1.85545e+06
1.85811e+06
1.85959e+06
1.86206e+06
1.86239e+06
1.8645e+06
1.86401e+06
1.86582e+06
1.8648e+06
1.86637e+06
1.86501e+06
1.86639e+06
1.86473e+06
1.8659e+06
1.86393e+06
1.86518e+06
1.86342e+06
1.84923e+06
1.85302e+06
1.85443e+06
1.85783e+06
1.85979e+06
1.86188e+06
1.86375e+06
1.86457e+06
1.86611e+06
1.866e+06
1.86728e+06
1.86658e+06
1.86768e+06
1.86659e+06
1.86756e+06
1.86612e+06
1.86695e+06
1.86517e+06
1.86613e+06
1.86488e+06
1.84933e+06
1.8529e+06
1.85421e+06
1.85746e+06
1.85939e+06
1.8614e+06
1.86329e+06
1.86406e+06
1.86562e+06
1.86545e+06
1.86672e+06
1.86595e+06
1.86702e+06
1.86586e+06
1.8668e+06
1.8653e+06
1.86608e+06
1.86425e+06
1.86507e+06
1.86382e+06
1.84922e+06
1.85285e+06
1.85419e+06
1.85757e+06
1.85954e+06
1.86163e+06
1.8635e+06
1.86433e+06
1.86588e+06
1.86577e+06
1.86706e+06
1.86634e+06
1.86744e+06
1.86633e+06
1.86729e+06
1.86583e+06
1.86666e+06
1.86486e+06
1.86582e+06
1.86431e+06
1.84937e+06
1.85288e+06
1.85415e+06
1.85737e+06
1.85928e+06
1.86128e+06
1.86316e+06
1.86396e+06
1.86555e+06
1.86541e+06
1.8667e+06
1.86593e+06
1.867e+06
1.86583e+06
1.86676e+06
1.86525e+06
1.86602e+06
1.86419e+06
1.86496e+06
1.86352e+06
1.84924e+06
1.85285e+06
1.85417e+06
1.85754e+06
1.85949e+06
1.86158e+06
1.86346e+06
1.86429e+06
1.86586e+06
1.86577e+06
1.86707e+06
1.86635e+06
1.86745e+06
1.86633e+06
1.86729e+06
1.86583e+06
1.86665e+06
1.86485e+06
1.8658e+06
1.86423e+06
1.84937e+06
1.85288e+06
1.85415e+06
1.85737e+06
1.85928e+06
1.86128e+06
1.86316e+06
1.86396e+06
1.86555e+06
1.86541e+06
1.8667e+06
1.86593e+06
1.867e+06
1.86583e+06
1.86676e+06
1.86525e+06
1.86602e+06
1.86419e+06
1.86496e+06
1.86352e+06
1.84922e+06
1.85285e+06
1.85419e+06
1.85757e+06
1.85954e+06
1.86163e+06
1.8635e+06
1.86433e+06
1.86588e+06
1.86577e+06
1.86706e+06
1.86634e+06
1.86744e+06
1.86633e+06
1.86729e+06
1.86583e+06
1.86666e+06
1.86486e+06
1.86582e+06
1.86431e+06
1.84933e+06
1.8529e+06
1.85421e+06
1.85746e+06
1.85939e+06
1.8614e+06
1.86329e+06
1.86406e+06
1.86562e+06
1.86545e+06
1.86672e+06
1.86595e+06
1.86702e+06
1.86586e+06
1.8668e+06
1.8653e+06
1.86608e+06
1.86425e+06
1.86506e+06
1.86382e+06
1.84923e+06
1.85302e+06
1.85443e+06
1.85783e+06
1.85979e+06
1.86188e+06
1.86375e+06
1.86457e+06
1.86611e+06
1.866e+06
1.86728e+06
1.86658e+06
1.86768e+06
1.86659e+06
1.86756e+06
1.86612e+06
1.86695e+06
1.86517e+06
1.86613e+06
1.86488e+06
1.86609e+06
1.85369e+06
1.85355e+06
1.84101e+06
1.83909e+06
1.82525e+06
1.82156e+06
1.8063e+06
1.80096e+06
1.78469e+06
1.77821e+06
1.76123e+06
1.75367e+06
1.73575e+06
1.7268e+06
1.70776e+06
1.69746e+06
1.67764e+06
1.66641e+06
1.64609e+06
1.63403e+06
1.61311e+06
1.6e+06
1.57825e+06
1.56392e+06
1.54129e+06
1.52581e+06
1.50255e+06
1.48629e+06
1.46274e+06
1.44593e+06
1.42205e+06
1.40436e+06
1.37973e+06
1.36083e+06
1.33534e+06
1.31541e+06
1.28943e+06
1.26891e+06
1.24285e+06
1.22204e+06
1.19599e+06
1.17473e+06
1.14817e+06
1.1257e+06
1.09816e+06
1.0746e+06
1.04647e+06
1.02225e+06
993972
969623
941647
917563
890099
866284
839101
815208
787880
763585
735822
710952
682707
657431
628963
603701
575448
550668
523027
499123
472294
449398
423386
401460
376051
354923
329864
309304
284312
264211
239095
219310
193945
174586
148875
129888
104259
86227.6
59325.7
41367.4
18033.1
1.86333e+06
1.85037e+06
1.84997e+06
1.83714e+06
1.83502e+06
1.82095e+06
1.81708e+06
1.80165e+06
1.79618e+06
1.77977e+06
1.77318e+06
1.75612e+06
1.74848e+06
1.7305e+06
1.7215e+06
1.70243e+06
1.6921e+06
1.67227e+06
1.66102e+06
1.64072e+06
1.62866e+06
1.60777e+06
1.59468e+06
1.57297e+06
1.55866e+06
1.53608e+06
1.52064e+06
1.49743e+06
1.48121e+06
1.45773e+06
1.44096e+06
1.41716e+06
1.39952e+06
1.37496e+06
1.35612e+06
1.33071e+06
1.31083e+06
1.28494e+06
1.26448e+06
1.23849e+06
1.21776e+06
1.19179e+06
1.1706e+06
1.14412e+06
1.12172e+06
1.09426e+06
1.07077e+06
1.04272e+06
1.01858e+06
990384
966109
938216
914207
886827
863088
835989
812173
784928
760710
733032
708240
680079
654881
626497
601315
573147
548446
520889
497066
470322
447507
421582
399738
374416
353373
328403
307929
283027
263014
237989
218295
193022
173755
148137
129243
103706
85768.7
58959.6
41101.1
17851.4
1.86464e+06
1.85251e+06
1.85229e+06
1.83972e+06
1.83776e+06
1.82391e+06
1.82018e+06
1.80491e+06
1.79955e+06
1.78327e+06
1.77677e+06
1.7598e+06
1.75223e+06
1.73432e+06
1.72537e+06
1.70635e+06
1.69605e+06
1.67625e+06
1.66502e+06
1.64473e+06
1.63268e+06
1.61178e+06
1.5987e+06
1.57697e+06
1.56265e+06
1.54006e+06
1.5246e+06
1.50136e+06
1.48512e+06
1.4616e+06
1.44481e+06
1.42096e+06
1.40329e+06
1.37869e+06
1.35981e+06
1.33435e+06
1.31444e+06
1.28849e+06
1.26799e+06
1.24195e+06
1.22117e+06
1.19514e+06
1.17391e+06
1.14737e+06
1.12492e+06
1.0974e+06
1.07387e+06
1.04576e+06
1.02156e+06
993305
968976
941021
916956
889513
865717
838553
814679
787369
763092
735348
710496
682269
657011
628560
603316
575081
550318
522693
498804
471991
449110
423113
401201
375806
354692
329646
309099
284120
264033
238930
219158
193806
174461
148763
129789
104174
86156.5
59268.1
41320.8
18001
1.86284e+06
1.84987e+06
1.84943e+06
1.83657e+06
1.83443e+06
1.82035e+06
1.81646e+06
1.80101e+06
1.79552e+06
1.7791e+06
1.77249e+06
1.75542e+06
1.74776e+06
1.72978e+06
1.72077e+06
1.70169e+06
1.69135e+06
1.67152e+06
1.66026e+06
1.63996e+06
1.6279e+06
1.607e+06
1.59391e+06
1.5722e+06
1.55789e+06
1.53532e+06
1.51987e+06
1.49668e+06
1.48046e+06
1.45699e+06
1.44022e+06
1.41642e+06
1.39879e+06
1.37424e+06
1.35541e+06
1.33e+06
1.31014e+06
1.28426e+06
1.26381e+06
1.23783e+06
1.2171e+06
1.19115e+06
1.16997e+06
1.1435e+06
1.12111e+06
1.09367e+06
1.07019e+06
1.04216e+06
1.01802e+06
989842
965580
937701
913704
886338
862612
835526
811724
784493
760289
732625
707847
679701
654517
626148
600979
572826
548140
520597
496788
470057
447256
421344
399514
374205
353174
328216
307755
282865
262865
237851
218169
192907
173653
148046
129164
103639
85713.5
58915.8
41070.8
17831.1
1.86455e+06
1.85244e+06
1.85219e+06
1.83962e+06
1.83766e+06
1.82379e+06
1.82006e+06
1.80479e+06
1.79943e+06
1.78314e+06
1.77664e+06
1.75966e+06
1.75209e+06
1.73418e+06
1.72523e+06
1.7062e+06
1.6959e+06
1.67609e+06
1.66487e+06
1.64457e+06
1.63252e+06
1.61162e+06
1.59852e+06
1.5768e+06
1.56248e+06
1.53988e+06
1.52441e+06
1.50118e+06
1.48494e+06
1.46142e+06
1.44462e+06
1.42077e+06
1.4031e+06
1.37849e+06
1.35962e+06
1.33415e+06
1.31424e+06
1.2883e+06
1.2678e+06
1.24176e+06
1.22097e+06
1.19495e+06
1.17371e+06
1.14718e+06
1.12473e+06
1.09721e+06
1.07368e+06
1.04557e+06
1.02138e+06
993123
968797
940845
916782
889342
865548
838388
814517
787211
762937
735197
710349
682127
656872
628427
603187
574956
550198
522577
498694
471885
449009
423017
401109
375719
354610
329569
309027
284053
263970
238872
219105
193758
174418
148724
129756
104145
86132.5
59248.9
41305.7
17991
1.86283e+06
1.84985e+06
1.84941e+06
1.83656e+06
1.83442e+06
1.82033e+06
1.81644e+06
1.801e+06
1.79551e+06
1.77909e+06
1.77248e+06
1.75541e+06
1.74775e+06
1.72977e+06
1.72076e+06
1.70168e+06
1.69134e+06
1.67151e+06
1.66025e+06
1.63995e+06
1.62789e+06
1.60699e+06
1.5939e+06
1.57219e+06
1.55788e+06
1.53531e+06
1.51987e+06
1.49667e+06
1.48045e+06
1.45698e+06
1.44021e+06
1.41642e+06
1.39878e+06
1.37423e+06
1.3554e+06
1.33e+06
1.31013e+06
1.28425e+06
1.2638e+06
1.23782e+06
1.2171e+06
1.19114e+06
1.16996e+06
1.1435e+06
1.1211e+06
1.09366e+06
1.07019e+06
1.04215e+06
1.01802e+06
989837
965575
937696
913700
886334
862608
835523
811720
784490
760286
732622
707844
679698
654515
626146
600977
572824
548138
520596
496787
470056
447256
421343
399513
374205
353174
328216
307755
282865
262865
237852
218170
192908
173654
148047
129165
103640
85714.4
58916.5
41071.7
17831.4
1.86464e+06
1.8525e+06
1.85228e+06
1.83972e+06
1.83776e+06
1.82391e+06
1.82018e+06
1.80491e+06
1.79955e+06
1.78327e+06
1.77677e+06
1.7598e+06
1.75223e+06
1.73432e+06
1.72537e+06
1.70634e+06
1.69605e+06
1.67624e+06
1.66502e+06
1.64473e+06
1.63268e+06
1.61178e+06
1.59869e+06
1.57697e+06
1.56265e+06
1.54005e+06
1.52459e+06
1.50135e+06
1.48512e+06
1.4616e+06
1.4448e+06
1.42096e+06
1.40329e+06
1.37868e+06
1.3598e+06
1.33434e+06
1.31443e+06
1.28849e+06
1.26799e+06
1.24194e+06
1.22116e+06
1.19514e+06
1.1739e+06
1.14737e+06
1.12491e+06
1.0974e+06
1.07386e+06
1.04575e+06
1.02156e+06
993299
968971
941016
916951
889508
865712
838549
814675
787366
763089
735345
710493
682266
657008
628558
603313
575079
550316
522691
498803
471990
449109
423113
401201
375806
354692
329647
309101
284122
264035
238932
219160
193808
174464
148765
129792
104176
86159.3
59270.4
41323.1
18001.9
1.86329e+06
1.85029e+06
1.84989e+06
1.83706e+06
1.83494e+06
1.82088e+06
1.817e+06
1.80158e+06
1.7961e+06
1.7797e+06
1.77311e+06
1.75604e+06
1.74841e+06
1.73043e+06
1.72143e+06
1.70236e+06
1.69203e+06
1.6722e+06
1.66096e+06
1.64066e+06
1.6286e+06
1.60771e+06
1.59462e+06
1.57291e+06
1.5586e+06
1.53602e+06
1.52058e+06
1.49738e+06
1.48116e+06
1.45768e+06
1.44091e+06
1.41711e+06
1.39947e+06
1.37491e+06
1.35607e+06
1.33066e+06
1.31079e+06
1.28489e+06
1.26444e+06
1.23845e+06
1.21771e+06
1.19175e+06
1.17056e+06
1.14408e+06
1.12168e+06
1.09422e+06
1.07074e+06
1.04269e+06
1.01855e+06
990351
966077
938185
914177
886798
863060
835962
812147
784904
760687
733009
708218
680058
654861
626478
601297
573130
548430
520874
497052
470309
447495
421570
399728
374407
353365
328395
307922
283021
263010
237985
218292
193019
173753
148136
129243
103706
85769.6
58960.6
41102.8
17851.9
1.86604e+06
1.85366e+06
1.85354e+06
1.84101e+06
1.8391e+06
1.82526e+06
1.82156e+06
1.80631e+06
1.80097e+06
1.7847e+06
1.77821e+06
1.76123e+06
1.75368e+06
1.73576e+06
1.72681e+06
1.70776e+06
1.69747e+06
1.67764e+06
1.66641e+06
1.6461e+06
1.63404e+06
1.61311e+06
1.60001e+06
1.57825e+06
1.56392e+06
1.5413e+06
1.52582e+06
1.50255e+06
1.48629e+06
1.46275e+06
1.44593e+06
1.42205e+06
1.40436e+06
1.37973e+06
1.36083e+06
1.33534e+06
1.31541e+06
1.28943e+06
1.26891e+06
1.24285e+06
1.22204e+06
1.19599e+06
1.17473e+06
1.14817e+06
1.1257e+06
1.09816e+06
1.0746e+06
1.04647e+06
1.02225e+06
993970
969622
941645
917561
890097
866283
839099
815207
787878
763583
735820
710950
682705
657428
628960
603698
575446
550666
523024
499121
472292
449396
423384
401458
376050
354922
329863
309303
284311
264210
239094
219309
193944
174586
148874
129888
104259
86228.2
59326.9
41369.2
18034.3
1.86424e+06
1.85147e+06
1.85165e+06
1.83882e+06
1.83714e+06
1.82307e+06
1.81954e+06
1.8041e+06
1.79888e+06
1.78245e+06
1.77606e+06
1.75895e+06
1.75146e+06
1.73343e+06
1.72454e+06
1.7054e+06
1.69516e+06
1.67524e+06
1.66406e+06
1.64368e+06
1.63167e+06
1.61068e+06
1.59763e+06
1.57583e+06
1.56155e+06
1.53889e+06
1.52346e+06
1.50017e+06
1.48396e+06
1.4604e+06
1.44364e+06
1.41976e+06
1.40213e+06
1.3775e+06
1.35866e+06
1.33318e+06
1.31331e+06
1.28735e+06
1.26689e+06
1.24084e+06
1.2201e+06
1.19408e+06
1.17288e+06
1.14635e+06
1.12394e+06
1.09643e+06
1.07293e+06
1.04482e+06
1.02066e+06
992409
968116
940171
916144
888716
864962
837818
813988
786701
762467
734743
709932
681721
656501
628063
602855
574631
549906
522292
498447
471648
448817
422837
400981
375605
354550
329523
309036
284070
264037
238940
219211
193852
174534
148814
129846
104193
86163.7
59208.6
41247
17874.7
1.86642e+06
1.85436e+06
1.85481e+06
1.84225e+06
1.84075e+06
1.82693e+06
1.82356e+06
1.80831e+06
1.80324e+06
1.78696e+06
1.78068e+06
1.76368e+06
1.75629e+06
1.73833e+06
1.72952e+06
1.71042e+06
1.70023e+06
1.68034e+06
1.6692e+06
1.64882e+06
1.63682e+06
1.61583e+06
1.60278e+06
1.58096e+06
1.56667e+06
1.54397e+06
1.52852e+06
1.50519e+06
1.48895e+06
1.46534e+06
1.44854e+06
1.42461e+06
1.40693e+06
1.38224e+06
1.36335e+06
1.3378e+06
1.31787e+06
1.29184e+06
1.27132e+06
1.2452e+06
1.2244e+06
1.19829e+06
1.17704e+06
1.15043e+06
1.12795e+06
1.10035e+06
1.07678e+06
1.0486e+06
1.02436e+06
996027
971659
943631
919528
892016
868186
840957
817050
789677
765365
737555
712665
684369
659069
630545
605257
576947
552141
524441
500514
473627
450712
424645
402704
377238
356098
330980
310404
285347
265224
240034
220214
194762
175351
149538
130476
104730
86607.9
59559.1
41500.3
18040
1.86433e+06
1.85177e+06
1.85194e+06
1.83915e+06
1.83747e+06
1.82342e+06
1.81989e+06
1.80446e+06
1.79924e+06
1.78282e+06
1.77643e+06
1.75932e+06
1.75184e+06
1.73381e+06
1.72493e+06
1.70579e+06
1.69555e+06
1.67564e+06
1.66446e+06
1.64407e+06
1.63206e+06
1.61108e+06
1.59803e+06
1.57623e+06
1.56194e+06
1.53928e+06
1.52385e+06
1.50055e+06
1.48434e+06
1.46078e+06
1.44402e+06
1.42013e+06
1.40249e+06
1.37786e+06
1.35901e+06
1.33353e+06
1.31365e+06
1.28768e+06
1.26721e+06
1.24116e+06
1.22041e+06
1.19438e+06
1.17318e+06
1.14664e+06
1.12422e+06
1.0967e+06
1.07319e+06
1.04508e+06
1.02091e+06
992651
968350
940397
916362
888927
865165
838014
814176
786881
762640
734908
710090
681873
656645
628200
602986
574755
550023
522403
498551
471745
448908
422922
401060
375678
354618
329585
309093
284122
264084
238982
219249
193885
174563
148839
129867
104209
86177.4
59218.7
41255.3
17878.9
1.86633e+06
1.85442e+06
1.8549e+06
1.84233e+06
1.84083e+06
1.82701e+06
1.82364e+06
1.80839e+06
1.80331e+06
1.78703e+06
1.78075e+06
1.76375e+06
1.75635e+06
1.73839e+06
1.72958e+06
1.71048e+06
1.70029e+06
1.6804e+06
1.66925e+06
1.64887e+06
1.63687e+06
1.61588e+06
1.60283e+06
1.581e+06
1.56671e+06
1.54401e+06
1.52856e+06
1.50522e+06
1.48899e+06
1.46537e+06
1.44857e+06
1.42463e+06
1.40696e+06
1.38226e+06
1.36337e+06
1.33782e+06
1.31789e+06
1.29186e+06
1.27134e+06
1.24521e+06
1.22441e+06
1.19831e+06
1.17705e+06
1.15044e+06
1.12796e+06
1.10036e+06
1.07679e+06
1.0486e+06
1.02437e+06
996032
971664
943634
919531
892018
868187
840957
817049
789675
765362
737552
712662
684366
659065
630541
605252
576942
552135
524435
500508
473621
450706
424638
402697
377231
356091
330972
310397
285340
265218
240027
220208
194756
175346
149533
130472
104726
86605.1
59556.7
41497.8
18037.6
1.86427e+06
1.85172e+06
1.85189e+06
1.83911e+06
1.83744e+06
1.82339e+06
1.81986e+06
1.80443e+06
1.79922e+06
1.78279e+06
1.7764e+06
1.7593e+06
1.75182e+06
1.73379e+06
1.72491e+06
1.70577e+06
1.69553e+06
1.67562e+06
1.66444e+06
1.64406e+06
1.63205e+06
1.61106e+06
1.59801e+06
1.57621e+06
1.56193e+06
1.53927e+06
1.52384e+06
1.50054e+06
1.48434e+06
1.46077e+06
1.44401e+06
1.42012e+06
1.40249e+06
1.37785e+06
1.35901e+06
1.33352e+06
1.31365e+06
1.28768e+06
1.26721e+06
1.24116e+06
1.22041e+06
1.19438e+06
1.17318e+06
1.14664e+06
1.12422e+06
1.0967e+06
1.0732e+06
1.04508e+06
1.02092e+06
992656
968356
940403
916369
888933
865172
838021
814184
786888
762648
734916
710099
681881
656654
628209
602995
574764
550032
522412
498561
471755
448917
422931
401069
375686
354627
329593
309100
284129
264091
238988
219255
193891
174568
148843
129871
104213
86180.7
59221.3
41258
17880.1
1.86633e+06
1.85442e+06
1.85491e+06
1.84235e+06
1.84085e+06
1.82703e+06
1.82366e+06
1.80841e+06
1.80333e+06
1.78705e+06
1.78077e+06
1.76376e+06
1.75637e+06
1.73841e+06
1.7296e+06
1.7105e+06
1.70031e+06
1.68041e+06
1.66926e+06
1.64888e+06
1.63689e+06
1.61589e+06
1.60284e+06
1.58101e+06
1.56672e+06
1.54402e+06
1.52857e+06
1.50523e+06
1.489e+06
1.46538e+06
1.44859e+06
1.42464e+06
1.40697e+06
1.38227e+06
1.36338e+06
1.33783e+06
1.3179e+06
1.29187e+06
1.27135e+06
1.24522e+06
1.22442e+06
1.19832e+06
1.17706e+06
1.15045e+06
1.12796e+06
1.10037e+06
1.0768e+06
1.04861e+06
1.02438e+06
996039
971671
943641
919537
892024
868193
840963
817055
789681
765368
737558
712667
684371
659069
630545
605256
576946
552139
524439
500511
473624
450709
424641
402700
377234
356093
330975
310400
285342
265220
240029
220210
194758
175348
149534
130474
104727
86606.7
59558
41498.8
18038.1
1.86432e+06
1.85174e+06
1.85191e+06
1.83913e+06
1.83746e+06
1.82341e+06
1.81988e+06
1.80445e+06
1.79923e+06
1.78281e+06
1.77642e+06
1.75931e+06
1.75183e+06
1.7338e+06
1.72492e+06
1.70578e+06
1.69554e+06
1.67563e+06
1.66445e+06
1.64406e+06
1.63206e+06
1.61107e+06
1.59802e+06
1.57622e+06
1.56194e+06
1.53927e+06
1.52384e+06
1.50055e+06
1.48434e+06
1.46077e+06
1.44401e+06
1.42012e+06
1.40249e+06
1.37785e+06
1.35901e+06
1.33352e+06
1.31364e+06
1.28768e+06
1.26721e+06
1.24115e+06
1.22041e+06
1.19438e+06
1.17318e+06
1.14664e+06
1.12422e+06
1.0967e+06
1.07319e+06
1.04508e+06
1.02091e+06
992649
968348
940395
916361
888925
865164
838013
814176
786880
762640
734908
710090
681873
656645
628200
602986
574755
550023
522403
498552
471746
448909
422923
401061
375679
354620
329587
309095
284123
264086
238983
219251
193887
174565
148840
129869
104211
86179.5
59220.5
41257.5
17879.7
1.86639e+06
1.85434e+06
1.85481e+06
1.84226e+06
1.84076e+06
1.82694e+06
1.82357e+06
1.80832e+06
1.80325e+06
1.78696e+06
1.78069e+06
1.76369e+06
1.75629e+06
1.73833e+06
1.72952e+06
1.71042e+06
1.70024e+06
1.68034e+06
1.6692e+06
1.64882e+06
1.63682e+06
1.61583e+06
1.60278e+06
1.58096e+06
1.56667e+06
1.54397e+06
1.52852e+06
1.50518e+06
1.48895e+06
1.46534e+06
1.44854e+06
1.4246e+06
1.40693e+06
1.38223e+06
1.36334e+06
1.3378e+06
1.31787e+06
1.29183e+06
1.27132e+06
1.24519e+06
1.22439e+06
1.19829e+06
1.17703e+06
1.15042e+06
1.12794e+06
1.10035e+06
1.07678e+06
1.04859e+06
1.02436e+06
996021
971654
943625
919523
892011
868181
840953
817045
789672
765361
737551
712661
684366
659065
630542
605253
576944
552137
524438
500511
473625
450710
424642
402702
377237
356097
330979
310404
285347
265225
240034
220215
194763
175353
149539
130479
104732
86610.7
59561.6
41503
18041
1.86419e+06
1.85137e+06
1.85154e+06
1.83872e+06
1.83704e+06
1.82298e+06
1.81945e+06
1.80401e+06
1.79879e+06
1.78236e+06
1.77597e+06
1.75886e+06
1.75138e+06
1.73335e+06
1.72447e+06
1.70532e+06
1.69508e+06
1.67517e+06
1.66399e+06
1.64361e+06
1.6316e+06
1.61062e+06
1.59757e+06
1.57577e+06
1.56149e+06
1.53883e+06
1.5234e+06
1.50011e+06
1.48391e+06
1.46035e+06
1.44359e+06
1.41971e+06
1.40208e+06
1.37745e+06
1.35862e+06
1.33314e+06
1.31326e+06
1.2873e+06
1.26685e+06
1.2408e+06
1.22006e+06
1.19404e+06
1.17285e+06
1.14632e+06
1.1239e+06
1.09639e+06
1.07289e+06
1.04479e+06
1.02063e+06
992378
968085
940141
916115
888688
864936
837793
813964
786677
762444
734721
709911
681701
656481
628044
602837
574614
549889
522277
498433
471634
448804
422825
400969
375594
354540
329514
309027
284062
264030
238933
219205
193847
174529
148811
129843
104191
86162.8
59208.8
41248.4
17875.1
1.86556e+06
1.85424e+06
1.85437e+06
1.84218e+06
1.84051e+06
1.82687e+06
1.82343e+06
1.80827e+06
1.80319e+06
1.78692e+06
1.78067e+06
1.76366e+06
1.75631e+06
1.73831e+06
1.72954e+06
1.7104e+06
1.70025e+06
1.6803e+06
1.6692e+06
1.64876e+06
1.6368e+06
1.61576e+06
1.60275e+06
1.58087e+06
1.56661e+06
1.54387e+06
1.52846e+06
1.50508e+06
1.48888e+06
1.46523e+06
1.44847e+06
1.4245e+06
1.40686e+06
1.38215e+06
1.36329e+06
1.33772e+06
1.31782e+06
1.29178e+06
1.27129e+06
1.24515e+06
1.22438e+06
1.19827e+06
1.17704e+06
1.15042e+06
1.12797e+06
1.10037e+06
1.07682e+06
1.04863e+06
1.02441e+06
996070
971721
943687
919604
892090
868280
841053
817166
789795
765502
737693
712820
684522
659236
630708
605432
577116
552322
524615
500703
473810
450911
424838
402914
377443
356318
331193
310629
285561
265447
240240
220428
194951
175553
149705
130664
104869
86772.9
59646.3
41602.5
18051.9
1.86537e+06
1.85419e+06
1.85433e+06
1.84216e+06
1.84048e+06
1.82684e+06
1.82341e+06
1.80824e+06
1.80316e+06
1.7869e+06
1.78066e+06
1.76364e+06
1.75629e+06
1.7383e+06
1.72953e+06
1.71039e+06
1.70024e+06
1.6803e+06
1.66919e+06
1.64876e+06
1.63681e+06
1.61576e+06
1.60275e+06
1.58088e+06
1.56662e+06
1.54388e+06
1.52847e+06
1.5051e+06
1.4889e+06
1.46525e+06
1.44849e+06
1.42452e+06
1.40688e+06
1.38217e+06
1.36331e+06
1.33775e+06
1.31785e+06
1.2918e+06
1.27131e+06
1.24518e+06
1.22441e+06
1.1983e+06
1.17707e+06
1.15046e+06
1.128e+06
1.1004e+06
1.07685e+06
1.04866e+06
1.02445e+06
996104
971755
943721
919638
892124
868314
841086
817199
789828
765535
737726
712853
684554
659268
630739
605463
577146
552351
524644
500730
473837
450937
424863
402938
377466
356340
331213
310649
285579
265464
240256
220442
194964
175565
149715
130673
104876
86779.8
59651.4
41606.2
18054.1
1.86551e+06
1.85422e+06
1.85438e+06
1.84219e+06
1.84052e+06
1.82687e+06
1.82344e+06
1.80827e+06
1.80319e+06
1.78693e+06
1.78068e+06
1.76366e+06
1.75632e+06
1.73832e+06
1.72955e+06
1.7104e+06
1.70026e+06
1.68031e+06
1.6692e+06
1.64877e+06
1.63681e+06
1.61577e+06
1.60275e+06
1.58088e+06
1.56662e+06
1.54388e+06
1.52846e+06
1.50509e+06
1.48889e+06
1.46524e+06
1.44848e+06
1.42451e+06
1.40687e+06
1.38215e+06
1.3633e+06
1.33773e+06
1.31783e+06
1.29178e+06
1.27129e+06
1.24516e+06
1.22438e+06
1.19827e+06
1.17705e+06
1.15043e+06
1.12797e+06
1.10037e+06
1.07682e+06
1.04863e+06
1.02442e+06
996075
971726
943692
919609
892095
868284
841057
817170
789798
765506
737697
712824
684526
659240
630712
605436
577119
552326
524619
500706
473813
450914
424841
402917
377446
356320
331195
310631
285563
265449
240242
220429
194953
175554
149706
130665
104870
86774.3
59647.4
41603.8
18052.2
1.86534e+06
1.85411e+06
1.85428e+06
1.84212e+06
1.84045e+06
1.82681e+06
1.82338e+06
1.80821e+06
1.80313e+06
1.78687e+06
1.78062e+06
1.76361e+06
1.75626e+06
1.73827e+06
1.7295e+06
1.71036e+06
1.70021e+06
1.68027e+06
1.66917e+06
1.64873e+06
1.63678e+06
1.61573e+06
1.60272e+06
1.58085e+06
1.5666e+06
1.54386e+06