/*--------------------------------*- C++ -*----------------------------------*\
  =========                 |
  \\      /  F ield         | OpenFOAM: The Open Source CFD Toolbox
   \\    /   O peration     | Website:  https://openfoam.org
    \\  /    A nd           | Version:  7
     \\/     M anipulation  |
\*---------------------------------------------------------------------------*/
FoamFile
{
    version     2.0;
    format      ascii;
    class       volScalarField;
    location    "0.0525";
    object      pPrime2Mean;
}
// * * * * * * * * * * * * * * * * * * * * * * * * * * * * * * * * * * * * * //

dimensions      [2 -2 -4 0 0 0 0];

internalField   nonuniform List<scalar> 
1440
(
6.66817e+06
6.62742e+06
6.59296e+06
6.56593e+06
6.54313e+06
6.52099e+06
6.49803e+06
6.47443e+06
6.45073e+06
6.42726e+06
6.40399e+06
6.38074e+06
6.35737e+06
6.33373e+06
6.3097e+06
6.28518e+06
6.26007e+06
6.23428e+06
6.20775e+06
6.18043e+06
6.15231e+06
6.1234e+06
6.09369e+06
6.06323e+06
6.03203e+06
6.00015e+06
5.96762e+06
5.93449e+06
5.90081e+06
5.86661e+06
5.83194e+06
5.79682e+06
5.76129e+06
5.72537e+06
5.68907e+06
5.65241e+06
5.61539e+06
5.57803e+06
5.54033e+06
5.5023e+06
5.46394e+06
5.42526e+06
5.38626e+06
5.34695e+06
5.30735e+06
5.26744e+06
5.22725e+06
5.18678e+06
5.14604e+06
5.10502e+06
5.06375e+06
5.02221e+06
4.98043e+06
4.93839e+06
4.89612e+06
4.8536e+06
4.81085e+06
4.76787e+06
4.72466e+06
4.68123e+06
4.63758e+06
4.59372e+06
4.54965e+06
4.50537e+06
4.4609e+06
4.41623e+06
4.37138e+06
4.32633e+06
4.28111e+06
4.23571e+06
4.19015e+06
4.14441e+06
4.09852e+06
4.05247e+06
4.00627e+06
3.95992e+06
3.91342e+06
3.86679e+06
3.82003e+06
3.77313e+06
3.72611e+06
3.67896e+06
3.6317e+06
3.58432e+06
3.53684e+06
3.48924e+06
3.44155e+06
3.39376e+06
3.34587e+06
3.2979e+06
3.24985e+06
3.20172e+06
3.15351e+06
3.10523e+06
3.05688e+06
3.00847e+06
2.95998e+06
2.91143e+06
2.86281e+06
2.8141e+06
2.76532e+06
2.71644e+06
2.66746e+06
2.61837e+06
2.56918e+06
2.51989e+06
2.4705e+06
2.42103e+06
2.37151e+06
2.32197e+06
2.27245e+06
2.22302e+06
2.17374e+06
2.12469e+06
2.07593e+06
2.02757e+06
1.97969e+06
1.93238e+06
1.8857e+06
1.83999e+06
6.66831e+06
6.62797e+06
6.59393e+06
6.56714e+06
6.54447e+06
6.52244e+06
6.49959e+06
6.47599e+06
6.45221e+06
6.42857e+06
6.4051e+06
6.38167e+06
6.35811e+06
6.33429e+06
6.31007e+06
6.28537e+06
6.26011e+06
6.23422e+06
6.20761e+06
6.18024e+06
6.15209e+06
6.12315e+06
6.09343e+06
6.06296e+06
6.03177e+06
5.9999e+06
5.96738e+06
5.93427e+06
5.9006e+06
5.86641e+06
5.83176e+06
5.79666e+06
5.76114e+06
5.72523e+06
5.68894e+06
5.65229e+06
5.61529e+06
5.57793e+06
5.54024e+06
5.50222e+06
5.46387e+06
5.42519e+06
5.3862e+06
5.3469e+06
5.30729e+06
5.26739e+06
5.22721e+06
5.18674e+06
5.146e+06
5.10499e+06
5.06372e+06
5.02219e+06
4.98041e+06
4.93838e+06
4.89611e+06
4.85359e+06
4.81084e+06
4.76786e+06
4.72466e+06
4.68123e+06
4.63758e+06
4.59372e+06
4.54965e+06
4.50538e+06
4.4609e+06
4.41624e+06
4.37138e+06
4.32634e+06
4.28112e+06
4.23572e+06
4.19015e+06
4.14442e+06
4.09853e+06
4.05247e+06
4.00627e+06
3.95992e+06
3.91343e+06
3.8668e+06
3.82003e+06
3.77314e+06
3.72611e+06
3.67897e+06
3.6317e+06
3.58433e+06
3.53684e+06
3.48925e+06
3.44155e+06
3.39376e+06
3.34588e+06
3.29791e+06
3.24985e+06
3.20172e+06
3.15351e+06
3.10523e+06
3.05688e+06
3.00847e+06
2.95998e+06
2.91143e+06
2.86281e+06
2.8141e+06
2.76531e+06
2.71643e+06
2.66745e+06
2.61837e+06
2.56918e+06
2.51989e+06
2.4705e+06
2.42103e+06
2.3715e+06
2.32196e+06
2.27245e+06
2.22302e+06
2.17374e+06
2.12468e+06
2.07593e+06
2.02756e+06
1.97967e+06
1.93235e+06
1.88563e+06
1.83985e+06
6.66866e+06
6.62846e+06
6.5946e+06
6.56796e+06
6.54539e+06
6.52347e+06
6.50071e+06
6.47717e+06
6.45336e+06
6.4296e+06
6.40593e+06
6.38223e+06
6.35837e+06
6.3342e+06
6.30962e+06
6.28456e+06
6.25898e+06
6.23283e+06
6.20603e+06
6.17854e+06
6.15034e+06
6.1214e+06
6.09174e+06
6.06137e+06
6.03031e+06
5.99858e+06
5.96623e+06
5.93327e+06
5.89976e+06
5.86572e+06
5.83119e+06
5.79621e+06
5.76078e+06
5.72494e+06
5.68871e+06
5.6521e+06
5.61512e+06
5.57779e+06
5.54011e+06
5.50209e+06
5.46375e+06
5.42508e+06
5.38609e+06
5.3468e+06
5.3072e+06
5.26731e+06
5.22713e+06
5.18667e+06
5.14594e+06
5.10494e+06
5.06367e+06
5.02214e+06
4.98036e+06
4.93834e+06
4.89606e+06
4.85355e+06
4.8108e+06
4.76782e+06
4.72461e+06
4.68118e+06
4.63754e+06
4.59367e+06
4.5496e+06
4.50533e+06
4.46086e+06
4.41619e+06
4.37133e+06
4.32629e+06
4.28107e+06
4.23567e+06
4.19011e+06
4.14437e+06
4.09848e+06
4.05243e+06
4.00623e+06
3.95988e+06
3.91339e+06
3.86676e+06
3.81999e+06
3.77309e+06
3.72607e+06
3.67893e+06
3.63166e+06
3.58429e+06
3.5368e+06
3.48921e+06
3.44151e+06
3.39372e+06
3.34584e+06
3.29787e+06
3.24981e+06
3.20168e+06
3.15347e+06
3.10519e+06
3.05684e+06
3.00843e+06
2.95995e+06
2.91139e+06
2.86277e+06
2.81407e+06
2.76528e+06
2.7164e+06
2.66742e+06
2.61834e+06
2.56915e+06
2.51985e+06
2.47046e+06
2.42099e+06
2.37147e+06
2.32193e+06
2.27242e+06
2.22299e+06
2.1737e+06
2.12465e+06
2.07589e+06
2.02752e+06
1.97963e+06
1.9323e+06
1.88556e+06
1.83975e+06
6.66897e+06
6.62883e+06
6.59507e+06
6.56854e+06
6.54605e+06
6.5242e+06
6.50148e+06
6.47794e+06
6.45407e+06
6.43019e+06
6.40633e+06
6.38242e+06
6.35832e+06
6.33393e+06
6.30913e+06
6.28388e+06
6.25814e+06
6.23187e+06
6.20501e+06
6.1775e+06
6.14931e+06
6.12041e+06
6.09081e+06
6.06051e+06
6.02953e+06
5.9979e+06
5.96563e+06
5.93276e+06
5.89933e+06
5.86536e+06
5.83089e+06
5.79595e+06
5.76057e+06
5.72476e+06
5.68855e+06
5.65195e+06
5.61499e+06
5.57766e+06
5.53999e+06
5.50197e+06
5.46363e+06
5.42496e+06
5.38598e+06
5.34669e+06
5.3071e+06
5.26722e+06
5.22705e+06
5.18659e+06
5.14586e+06
5.10486e+06
5.0636e+06
5.02208e+06
4.9803e+06
4.93827e+06
4.896e+06
4.85349e+06
4.81074e+06
4.76776e+06
4.72456e+06
4.68113e+06
4.63748e+06
4.59362e+06
4.54955e+06
4.50527e+06
4.4608e+06
4.41614e+06
4.37128e+06
4.32624e+06
4.28102e+06
4.23562e+06
4.19006e+06
4.14432e+06
4.09843e+06
4.05238e+06
4.00618e+06
3.95983e+06
3.91334e+06
3.86671e+06
3.81995e+06
3.77305e+06
3.72603e+06
3.67888e+06
3.63162e+06
3.58425e+06
3.53676e+06
3.48917e+06
3.44147e+06
3.39368e+06
3.3458e+06
3.29783e+06
3.24977e+06
3.20164e+06
3.15343e+06
3.10515e+06
3.05681e+06
3.00839e+06
2.95991e+06
2.91136e+06
2.86273e+06
2.81403e+06
2.76524e+06
2.71636e+06
2.66738e+06
2.6183e+06
2.56911e+06
2.51982e+06
2.47043e+06
2.42096e+06
2.37144e+06
2.3219e+06
2.27238e+06
2.22295e+06
2.17367e+06
2.12462e+06
2.07586e+06
2.02749e+06
1.97959e+06
1.93225e+06
1.8855e+06
1.83967e+06
6.66921e+06
6.62909e+06
6.59539e+06
6.56892e+06
6.54649e+06
6.52467e+06
6.50197e+06
6.47842e+06
6.45451e+06
6.43055e+06
6.4066e+06
6.38257e+06
6.35836e+06
6.33385e+06
6.30893e+06
6.28357e+06
6.25773e+06
6.23138e+06
6.20446e+06
6.1769e+06
6.14868e+06
6.11977e+06
6.09017e+06
6.05989e+06
6.02894e+06
5.99734e+06
5.96511e+06
5.93229e+06
5.89891e+06
5.86499e+06
5.83057e+06
5.79567e+06
5.76032e+06
5.72455e+06
5.68836e+06
5.65179e+06
5.61484e+06
5.57752e+06
5.53986e+06
5.50185e+06
5.46352e+06
5.42486e+06
5.38588e+06
5.3466e+06
5.30702e+06
5.26714e+06
5.22697e+06
5.18652e+06
5.1458e+06
5.1048e+06
5.06354e+06
5.02202e+06
4.98025e+06
4.93822e+06
4.89595e+06
4.85344e+06
4.8107e+06
4.76772e+06
4.72451e+06
4.68108e+06
4.63744e+06
4.59358e+06
4.54951e+06
4.50524e+06
4.46076e+06
4.4161e+06
4.37124e+06
4.3262e+06
4.28098e+06
4.23559e+06
4.19002e+06
4.14429e+06
4.0984e+06
4.05235e+06
4.00615e+06
3.9598e+06
3.91331e+06
3.86668e+06
3.81992e+06
3.77302e+06
3.726e+06
3.67886e+06
3.6316e+06
3.58422e+06
3.53673e+06
3.48914e+06
3.44145e+06
3.39366e+06
3.34578e+06
3.2978e+06
3.24975e+06
3.20162e+06
3.15341e+06
3.10513e+06
3.05678e+06
3.00837e+06
2.95989e+06
2.91133e+06
2.86271e+06
2.81401e+06
2.76522e+06
2.71634e+06
2.66736e+06
2.61828e+06
2.56909e+06
2.5198e+06
2.47041e+06
2.42094e+06
2.37142e+06
2.32187e+06
2.27236e+06
2.22293e+06
2.17365e+06
2.12459e+06
2.07584e+06
2.02746e+06
1.97956e+06
1.93221e+06
1.88546e+06
1.83962e+06
6.66934e+06
6.62923e+06
6.59555e+06
6.56911e+06
6.54671e+06
6.52491e+06
6.50222e+06
6.47866e+06
6.45473e+06
6.43074e+06
6.40675e+06
6.38267e+06
6.35839e+06
6.33382e+06
6.30884e+06
6.28341e+06
6.25751e+06
6.2311e+06
6.20414e+06
6.17655e+06
6.14831e+06
6.1194e+06
6.08981e+06
6.05955e+06
6.02863e+06
5.99706e+06
5.96487e+06
5.93209e+06
5.89874e+06
5.86485e+06
5.83046e+06
5.79559e+06
5.76026e+06
5.7245e+06
5.68832e+06
5.65176e+06
5.61481e+06
5.5775e+06
5.53983e+06
5.50183e+06
5.46349e+06
5.42483e+06
5.38585e+06
5.34657e+06
5.30698e+06
5.26711e+06
5.22694e+06
5.18649e+06
5.14577e+06
5.10478e+06
5.06352e+06
5.022e+06
4.98023e+06
4.9382e+06
4.89594e+06
4.85343e+06
4.81068e+06
4.7677e+06
4.7245e+06
4.68107e+06
4.63742e+06
4.59356e+06
4.54949e+06
4.50522e+06
4.46075e+06
4.41608e+06
4.37122e+06
4.32618e+06
4.28096e+06
4.23557e+06
4.19e+06
4.14427e+06
4.09838e+06
4.05233e+06
4.00613e+06
3.95978e+06
3.91329e+06
3.86666e+06
3.8199e+06
3.773e+06
3.72598e+06
3.67884e+06
3.63158e+06
3.5842e+06
3.53671e+06
3.48912e+06
3.44143e+06
3.39364e+06
3.34576e+06
3.29779e+06
3.24973e+06
3.2016e+06
3.15339e+06
3.10511e+06
3.05677e+06
3.00835e+06
2.95987e+06
2.91132e+06
2.86269e+06
2.81399e+06
2.7652e+06
2.71632e+06
2.66734e+06
2.61826e+06
2.56907e+06
2.51978e+06
2.47039e+06
2.42092e+06
2.3714e+06
2.32186e+06
2.27235e+06
2.22292e+06
2.17364e+06
2.12458e+06
2.07582e+06
2.02745e+06
1.97954e+06
1.93219e+06
1.88544e+06
1.83959e+06
6.66935e+06
6.62924e+06
6.59556e+06
6.56912e+06
6.54672e+06
6.52492e+06
6.50223e+06
6.47867e+06
6.45474e+06
6.43075e+06
6.40676e+06
6.38267e+06
6.35839e+06
6.33382e+06
6.30883e+06
6.2834e+06
6.25749e+06
6.23108e+06
6.20412e+06
6.17653e+06
6.14829e+06
6.11938e+06
6.0898e+06
6.05954e+06
6.02863e+06
5.99706e+06
5.96488e+06
5.9321e+06
5.89875e+06
5.86487e+06
5.83048e+06
5.79561e+06
5.76028e+06
5.72452e+06
5.68834e+06
5.65177e+06
5.61482e+06
5.5775e+06
5.53984e+06
5.50183e+06
5.46349e+06
5.42482e+06
5.38585e+06
5.34656e+06
5.30698e+06
5.2671e+06
5.22693e+06
5.18649e+06
5.14576e+06
5.10477e+06
5.06351e+06
5.022e+06
4.98022e+06
4.9382e+06
4.89593e+06
4.85342e+06
4.81068e+06
4.7677e+06
4.72449e+06
4.68107e+06
4.63742e+06
4.59356e+06
4.54949e+06
4.50522e+06
4.46075e+06
4.41608e+06
4.37122e+06
4.32618e+06
4.28096e+06
4.23557e+06
4.19e+06
4.14427e+06
4.09838e+06
4.05233e+06
4.00613e+06
3.95978e+06
3.91329e+06
3.86666e+06
3.8199e+06
3.773e+06
3.72598e+06
3.67883e+06
3.63157e+06
3.5842e+06
3.53671e+06
3.48912e+06
3.44142e+06
3.39363e+06
3.34575e+06
3.29778e+06
3.24973e+06
3.20159e+06
3.15339e+06
3.10511e+06
3.05676e+06
3.00835e+06
2.95986e+06
2.91131e+06
2.86269e+06
2.81398e+06
2.7652e+06
2.71632e+06
2.66734e+06
2.61826e+06
2.56907e+06
2.51977e+06
2.47038e+06
2.42092e+06
2.37139e+06
2.32185e+06
2.27234e+06
2.22291e+06
2.17363e+06
2.12457e+06
2.07581e+06
2.02744e+06
1.97954e+06
1.93218e+06
1.88543e+06
1.83958e+06
6.66923e+06
6.62911e+06
6.59541e+06
6.56894e+06
6.54652e+06
6.5247e+06
6.50201e+06
6.47846e+06
6.45455e+06
6.43059e+06
6.40663e+06
6.38259e+06
6.35837e+06
6.33384e+06
6.30891e+06
6.28353e+06
6.25768e+06
6.23132e+06
6.20439e+06
6.17684e+06
6.14862e+06
6.11971e+06
6.09013e+06
6.05987e+06
6.02893e+06
5.99735e+06
5.96514e+06
5.93234e+06
5.89896e+06
5.86506e+06
5.83064e+06
5.79574e+06
5.76039e+06
5.72461e+06
5.68842e+06
5.65183e+06
5.61487e+06
5.57755e+06
5.53987e+06
5.50186e+06
5.46351e+06
5.42484e+06
5.38586e+06
5.34658e+06
5.30699e+06
5.26711e+06
5.22695e+06
5.1865e+06
5.14578e+06
5.10478e+06
5.06352e+06
5.02201e+06
4.98023e+06
4.93821e+06
4.89594e+06
4.85343e+06
4.81069e+06
4.76771e+06
4.72451e+06
4.68108e+06
4.63743e+06
4.59357e+06
4.5495e+06
4.50523e+06
4.46076e+06
4.41609e+06
4.37124e+06
4.3262e+06
4.28098e+06
4.23558e+06
4.19002e+06
4.14429e+06
4.09839e+06
4.05234e+06
4.00614e+06
3.95979e+06
3.9133e+06
3.86667e+06
3.81991e+06
3.77301e+06
3.72599e+06
3.67884e+06
3.63158e+06
3.5842e+06
3.53672e+06
3.48912e+06
3.44143e+06
3.39364e+06
3.34576e+06
3.29779e+06
3.24973e+06
3.2016e+06
3.15339e+06
3.10511e+06
3.05677e+06
3.00835e+06
2.95987e+06
2.91132e+06
2.86269e+06
2.81399e+06
2.7652e+06
2.71632e+06
2.66734e+06
2.61826e+06
2.56907e+06
2.51978e+06
2.47039e+06
2.42092e+06
2.3714e+06
2.32186e+06
2.27234e+06
2.22291e+06
2.17363e+06
2.12457e+06
2.07582e+06
2.02744e+06
1.97954e+06
1.93219e+06
1.88544e+06
1.8396e+06
6.669e+06
6.62886e+06
6.59511e+06
6.56858e+06
6.5461e+06
6.52425e+06
6.50154e+06
6.47801e+06
6.45413e+06
6.43024e+06
6.40638e+06
6.38245e+06
6.35834e+06
6.33392e+06
6.3091e+06
6.28381e+06
6.25805e+06
6.23177e+06
6.2049e+06
6.17739e+06
6.1492e+06
6.12032e+06
6.09074e+06
6.06047e+06
6.02952e+06
5.99791e+06
5.96567e+06
5.93283e+06
5.89942e+06
5.86547e+06
5.83102e+06
5.79608e+06
5.76069e+06
5.72487e+06
5.68865e+06
5.65203e+06
5.61505e+06
5.5777e+06
5.54001e+06
5.50198e+06
5.46362e+06
5.42494e+06
5.38595e+06
5.34666e+06
5.30706e+06
5.26718e+06
5.22701e+06
5.18656e+06
5.14583e+06
5.10484e+06
5.06358e+06
5.02206e+06
4.98028e+06
4.93826e+06
4.89599e+06
4.85348e+06
4.81073e+06
4.76775e+06
4.72455e+06
4.68112e+06
4.63747e+06
4.59361e+06
4.54954e+06
4.50527e+06
4.4608e+06
4.41613e+06
4.37128e+06
4.32623e+06
4.28101e+06
4.23562e+06
4.19005e+06
4.14432e+06
4.09842e+06
4.05237e+06
4.00617e+06
3.95982e+06
3.91333e+06
3.86669e+06
3.81993e+06
3.77303e+06
3.72601e+06
3.67886e+06
3.6316e+06
3.58422e+06
3.53673e+06
3.48914e+06
3.44145e+06
3.39366e+06
3.34577e+06
3.2978e+06
3.24975e+06
3.20161e+06
3.15341e+06
3.10513e+06
3.05678e+06
3.00837e+06
2.95988e+06
2.91133e+06
2.86271e+06
2.814e+06
2.76522e+06
2.71634e+06
2.66736e+06
2.61827e+06
2.56908e+06
2.51979e+06
2.4704e+06
2.42093e+06
2.37141e+06
2.32187e+06
2.27235e+06
2.22292e+06
2.17364e+06
2.12459e+06
2.07583e+06
2.02746e+06
1.97956e+06
1.93222e+06
1.88547e+06
1.83964e+06
6.66869e+06
6.6285e+06
6.59465e+06
6.56802e+06
6.54547e+06
6.52355e+06
6.5008e+06
6.47726e+06
6.45345e+06
6.42968e+06
6.406e+06
6.38228e+06
6.35838e+06
6.33418e+06
6.30957e+06
6.28447e+06
6.25885e+06
6.23267e+06
6.20586e+06
6.17838e+06
6.15018e+06
6.12127e+06
6.09164e+06
6.06131e+06
6.03029e+06
5.99861e+06
5.9663e+06
5.93339e+06
5.89991e+06
5.86589e+06
5.83138e+06
5.79639e+06
5.76096e+06
5.7251e+06
5.68885e+06
5.65221e+06
5.6152e+06
5.57784e+06
5.54013e+06
5.50209e+06
5.46372e+06
5.42504e+06
5.38604e+06
5.34674e+06
5.30714e+06
5.26725e+06
5.22707e+06
5.18662e+06
5.14589e+06
5.10489e+06
5.06363e+06
5.02211e+06
4.98033e+06
4.93831e+06
4.89604e+06
4.85353e+06
4.81078e+06
4.7678e+06
4.7246e+06
4.68117e+06
4.63752e+06
4.59366e+06
4.54959e+06
4.50532e+06
4.46085e+06
4.41618e+06
4.37132e+06
4.32628e+06
4.28106e+06
4.23566e+06
4.19009e+06
4.14436e+06
4.09846e+06
4.05241e+06
4.00621e+06
3.95986e+06
3.91336e+06
3.86673e+06
3.81996e+06
3.77306e+06
3.72604e+06
3.67889e+06
3.63163e+06
3.58425e+06
3.53676e+06
3.48917e+06
3.44147e+06
3.39368e+06
3.3458e+06
3.29782e+06
3.24977e+06
3.20164e+06
3.15343e+06
3.10515e+06
3.0568e+06
3.00839e+06
2.95991e+06
2.91135e+06
2.86273e+06
2.81403e+06
2.76524e+06
2.71636e+06
2.66738e+06
2.6183e+06
2.5691e+06
2.51981e+06
2.47042e+06
2.42095e+06
2.37143e+06
2.32188e+06
2.27237e+06
2.22294e+06
2.17366e+06
2.1246e+06
2.07584e+06
2.02748e+06
1.97958e+06
1.93225e+06
1.88551e+06
1.83971e+06
6.66835e+06
6.62802e+06
6.59399e+06
6.56722e+06
6.54457e+06
6.52256e+06
6.49972e+06
6.47613e+06
6.45234e+06
6.42869e+06
6.40521e+06
6.38174e+06
6.35814e+06
6.33426e+06
6.30999e+06
6.28524e+06
6.25993e+06
6.234e+06
6.20737e+06
6.18e+06
6.15186e+06
6.12295e+06
6.09328e+06
6.06287e+06
6.03174e+06
5.99993e+06
5.96748e+06
5.93442e+06
5.90079e+06
5.86664e+06
5.832e+06
5.7969e+06
5.76137e+06
5.72544e+06
5.68912e+06
5.65244e+06
5.61539e+06
5.578e+06
5.54028e+06
5.50222e+06
5.46384e+06
5.42514e+06
5.38614e+06
5.34683e+06
5.30722e+06
5.26732e+06
5.22714e+06
5.18668e+06
5.14595e+06
5.10495e+06
5.06368e+06
5.02216e+06
4.98038e+06
4.93836e+06
4.89609e+06
4.85357e+06
4.81083e+06
4.76785e+06
4.72464e+06
4.68122e+06
4.63757e+06
4.59371e+06
4.54964e+06
4.50537e+06
4.4609e+06
4.41623e+06
4.37137e+06
4.32633e+06
4.28111e+06
4.23571e+06
4.19014e+06
4.1444e+06
4.09851e+06
4.05245e+06
4.00625e+06
3.9599e+06
3.9134e+06
3.86677e+06
3.82e+06
3.7731e+06
3.72607e+06
3.67893e+06
3.63166e+06
3.58428e+06
3.53679e+06
3.4892e+06
3.44151e+06
3.39371e+06
3.34583e+06
3.29786e+06
3.2498e+06
3.20167e+06
3.15346e+06
3.10518e+06
3.05684e+06
3.00842e+06
2.95994e+06
2.91139e+06
2.86276e+06
2.81406e+06
2.76527e+06
2.71639e+06
2.66741e+06
2.61832e+06
2.56913e+06
2.51984e+06
2.47045e+06
2.42098e+06
2.37145e+06
2.32191e+06
2.2724e+06
2.22296e+06
2.17368e+06
2.12462e+06
2.07587e+06
2.0275e+06
1.97961e+06
1.9323e+06
1.88558e+06
1.8398e+06
6.66821e+06
6.62748e+06
6.59304e+06
6.56603e+06
6.54325e+06
6.52114e+06
6.49821e+06
6.47461e+06
6.45091e+06
6.42743e+06
6.40413e+06
6.38085e+06
6.35742e+06
6.33372e+06
6.30962e+06
6.28503e+06
6.25986e+06
6.23403e+06
6.20747e+06
6.18015e+06
6.15205e+06
6.12317e+06
6.09352e+06
6.06312e+06
6.03199e+06
6.00018e+06
5.96772e+06
5.93465e+06
5.90101e+06
5.86685e+06
5.83219e+06
5.79708e+06
5.76153e+06
5.72558e+06
5.68925e+06
5.65254e+06
5.61549e+06
5.57808e+06
5.54034e+06
5.50228e+06
5.46389e+06
5.42519e+06
5.38618e+06
5.34687e+06
5.30726e+06
5.26736e+06
5.22717e+06
5.18671e+06
5.14597e+06
5.10496e+06
5.0637e+06
5.02217e+06
4.98039e+06
4.93836e+06
4.89609e+06
4.85357e+06
4.81082e+06
4.76784e+06
4.72463e+06
4.6812e+06
4.63756e+06
4.5937e+06
4.54963e+06
4.50535e+06
4.46088e+06
4.41621e+06
4.37135e+06
4.32631e+06
4.28108e+06
4.23568e+06
4.19012e+06
4.14438e+06
4.09848e+06
4.05243e+06
4.00622e+06
3.95987e+06
3.91338e+06
3.86674e+06
3.81997e+06
3.77307e+06
3.72605e+06
3.6789e+06
3.63164e+06
3.58426e+06
3.53677e+06
3.48918e+06
3.44148e+06
3.39369e+06
3.34581e+06
3.29784e+06
3.24978e+06
3.20165e+06
3.15344e+06
3.10516e+06
3.05681e+06
3.0084e+06
2.95992e+06
2.91137e+06
2.86274e+06
2.81404e+06
2.76525e+06
2.71637e+06
2.66739e+06
2.61831e+06
2.56912e+06
2.51982e+06
2.47043e+06
2.42096e+06
2.37144e+06
2.3219e+06
2.27238e+06
2.22295e+06
2.17367e+06
2.12461e+06
2.07586e+06
2.0275e+06
1.97962e+06
1.93231e+06
1.88563e+06
1.83993e+06
)
;

boundaryField
{
    upperWall
    {
        type            calculated;
        value           nonuniform List<scalar> 
120
(
6.66821e+06
6.62748e+06
6.59304e+06
6.56603e+06
6.54325e+06
6.52114e+06
6.49821e+06
6.47461e+06
6.45091e+06
6.42743e+06
6.40413e+06
6.38085e+06
6.35742e+06
6.33372e+06
6.30962e+06
6.28503e+06
6.25986e+06
6.23403e+06
6.20747e+06
6.18015e+06
6.15205e+06
6.12317e+06
6.09352e+06
6.06312e+06
6.03199e+06
6.00018e+06
5.96772e+06
5.93465e+06
5.90101e+06
5.86685e+06
5.83219e+06
5.79708e+06
5.76153e+06
5.72558e+06
5.68925e+06
5.65254e+06
5.61549e+06
5.57808e+06
5.54034e+06
5.50228e+06
5.46389e+06
5.42519e+06
5.38618e+06
5.34687e+06
5.30726e+06
5.26736e+06
5.22717e+06
5.18671e+06
5.14597e+06
5.10496e+06
5.0637e+06
5.02217e+06
4.98039e+06
4.93836e+06
4.89609e+06
4.85357e+06
4.81082e+06
4.76784e+06
4.72463e+06
4.6812e+06
4.63756e+06
4.5937e+06
4.54963e+06
4.50535e+06
4.46088e+06
4.41621e+06
4.37135e+06
4.32631e+06
4.28108e+06
4.23568e+06
4.19012e+06
4.14438e+06
4.09848e+06
4.05243e+06
4.00622e+06
3.95987e+06
3.91338e+06
3.86674e+06
3.81997e+06
3.77307e+06
3.72605e+06
3.6789e+06
3.63164e+06
3.58426e+06
3.53677e+06
3.48918e+06
3.44148e+06
3.39369e+06
3.34581e+06
3.29784e+06
3.24978e+06
3.20165e+06
3.15344e+06
3.10516e+06
3.05681e+06
3.0084e+06
2.95992e+06
2.91137e+06
2.86274e+06
2.81404e+06
2.76525e+06
2.71637e+06
2.66739e+06
2.61831e+06
2.56912e+06
2.51982e+06
2.47043e+06
2.42096e+06
2.37144e+06
2.3219e+06
2.27238e+06
2.22295e+06
2.17367e+06
2.12461e+06
2.07586e+06
2.0275e+06
1.97962e+06
1.93231e+06
1.88563e+06
1.83993e+06
)
;
    }
    lowerWall
    {
        type            calculated;
        value           nonuniform List<scalar> 
120
(
6.66817e+06
6.62742e+06
6.59296e+06
6.56593e+06
6.54313e+06
6.52099e+06
6.49803e+06
6.47443e+06
6.45073e+06
6.42726e+06
6.40399e+06
6.38074e+06
6.35737e+06
6.33373e+06
6.3097e+06
6.28518e+06
6.26007e+06
6.23428e+06
6.20775e+06
6.18043e+06
6.15231e+06
6.1234e+06
6.09369e+06
6.06323e+06
6.03203e+06
6.00015e+06
5.96762e+06
5.93449e+06
5.90081e+06
5.86661e+06
5.83194e+06
5.79682e+06
5.76129e+06
5.72537e+06
5.68907e+06
5.65241e+06
5.61539e+06
5.57803e+06
5.54033e+06
5.5023e+06
5.46394e+06
5.42526e+06
5.38626e+06
5.34695e+06
5.30735e+06
5.26744e+06
5.22725e+06
5.18678e+06
5.14604e+06
5.10502e+06
5.06375e+06
5.02221e+06
4.98043e+06
4.93839e+06
4.89612e+06
4.8536e+06
4.81085e+06
4.76787e+06
4.72466e+06
4.68123e+06
4.63758e+06
4.59372e+06
4.54965e+06
4.50537e+06
4.4609e+06
4.41623e+06
4.37138e+06
4.32633e+06
4.28111e+06
4.23571e+06
4.19015e+06
4.14441e+06
4.09852e+06
4.05247e+06
4.00627e+06
3.95992e+06
3.91342e+06
3.86679e+06
3.82003e+06
3.77313e+06
3.72611e+06
3.67896e+06
3.6317e+06
3.58432e+06
3.53684e+06
3.48924e+06
3.44155e+06
3.39376e+06
3.34587e+06
3.2979e+06
3.24985e+06
3.20172e+06
3.15351e+06
3.10523e+06
3.05688e+06
3.00847e+06
2.95998e+06
2.91143e+06
2.86281e+06
2.8141e+06
2.76532e+06
2.71644e+06
2.66746e+06
2.61837e+06
2.56918e+06
2.51989e+06
2.4705e+06
2.42103e+06
2.37151e+06
2.32197e+06
2.27245e+06
2.22302e+06
2.17374e+06
2.12469e+06
2.07593e+06
2.02757e+06
1.97969e+06
1.93238e+06
1.8857e+06
1.83999e+06
)
;
    }
    inlet
    {
        type            calculated;
        value           nonuniform List<scalar> 
12
(
6.66817e+06
6.66831e+06
6.66866e+06
6.66897e+06
6.66921e+06
6.66934e+06
6.66935e+06
6.66923e+06
6.669e+06
6.66869e+06
6.66835e+06
6.66821e+06
)
;
    }
    outlet
    {
        type            calculated;
        value           nonuniform List<scalar> 
12
(
1.81661e+06
1.81637e+06
1.81626e+06
1.81618e+06
1.81613e+06
1.8161e+06
1.81609e+06
1.81611e+06
1.81615e+06
1.81622e+06
1.81632e+06
1.81657e+06
)
;
    }
    frontAndBack
    {
        type            empty;
    }
}


// ************************************************************************* //
