/*--------------------------------*- C++ -*----------------------------------*\
  =========                 |
  \\      /  F ield         | OpenFOAM: The Open Source CFD Toolbox
   \\    /   O peration     | Website:  https://openfoam.org
    \\  /    A nd           | Version:  7
     \\/     M anipulation  |
\*---------------------------------------------------------------------------*/
FoamFile
{
    version     2.0;
    format      ascii;
    class       volScalarField;
    location    "1.88";
    object      rho;
}
// * * * * * * * * * * * * * * * * * * * * * * * * * * * * * * * * * * * * * //

dimensions      [1 -3 0 0 0 0 0];

internalField   nonuniform List<scalar> 
7920
(
1.23513
1.23436
1.2344
1.23404
1.2342
1.23396
1.23411
1.23393
1.23406
1.23393
1.23404
1.23393
1.23401
1.23392
1.23396
1.2339
1.2339
1.2339
1.23377
1.23409
1.23528
1.23478
1.2347
1.23421
1.23425
1.23396
1.23404
1.23387
1.23397
1.23388
1.23397
1.23391
1.23398
1.23394
1.23394
1.23394
1.23382
1.23399
1.23345
1.23453
1.23564
1.23534
1.23558
1.23506
1.23522
1.23479
1.23493
1.23463
1.23478
1.2346
1.23475
1.23465
1.23478
1.23473
1.23478
1.2348
1.23467
1.23485
1.23437
1.23499
1.23545
1.23519
1.23545
1.23502
1.23515
1.23478
1.23487
1.23459
1.23468
1.23452
1.23463
1.23456
1.23466
1.23467
1.23472
1.23477
1.23473
1.23484
1.23463
1.23482
1.23559
1.2353
1.23566
1.2352
1.23542
1.23503
1.23518
1.23487
1.23501
1.23481
1.23496
1.23485
1.23499
1.23495
1.23508
1.23508
1.23516
1.23517
1.23516
1.23515
1.23554
1.2352
1.23556
1.23508
1.23531
1.23492
1.23508
1.23477
1.23492
1.23472
1.23487
1.23476
1.23491
1.23486
1.235
1.23499
1.2351
1.23511
1.23514
1.2351
1.23554
1.2352
1.23556
1.23508
1.23531
1.23492
1.23508
1.23477
1.23492
1.23472
1.23488
1.23476
1.23491
1.23486
1.235
1.23499
1.23511
1.2351
1.23514
1.2351
1.23559
1.2353
1.23566
1.2352
1.23542
1.23503
1.23518
1.23487
1.23501
1.23481
1.23496
1.23485
1.235
1.23494
1.23509
1.23507
1.23517
1.23515
1.23517
1.23513
1.23545
1.23519
1.23545
1.23502
1.23515
1.23478
1.23487
1.23459
1.23468
1.23452
1.23463
1.23456
1.23467
1.23465
1.23474
1.23474
1.23479
1.23476
1.23473
1.23469
1.23564
1.23534
1.23558
1.23506
1.23522
1.23479
1.23493
1.23462
1.23478
1.23459
1.23476
1.23464
1.23479
1.23471
1.23482
1.23473
1.23478
1.23467
1.23466
1.23453
1.23528
1.23478
1.2347
1.23421
1.23425
1.23396
1.23404
1.23387
1.23397
1.23388
1.23397
1.23391
1.23399
1.23392
1.23397
1.23389
1.2339
1.23382
1.23381
1.23372
1.23513
1.23436
1.2344
1.23404
1.2342
1.23396
1.23411
1.23393
1.23406
1.23393
1.23404
1.23393
1.23401
1.23391
1.23397
1.23389
1.23392
1.23385
1.23387
1.2338
1.23316
1.23317
1.23268
1.23284
1.23253
1.23274
1.23253
1.23272
1.23258
1.23274
1.23262
1.23275
1.23265
1.23276
1.23265
1.23276
1.23261
1.23282
1.23234
1.23368
1.23351
1.23361
1.23323
1.23325
1.23297
1.233
1.23286
1.23293
1.23289
1.233
1.23299
1.2331
1.23307
1.23318
1.23309
1.23323
1.23297
1.23334
1.23257
1.23394
1.23319
1.23339
1.23289
1.23303
1.23264
1.23274
1.23246
1.23259
1.23244
1.23262
1.23256
1.23276
1.23272
1.23293
1.23286
1.23307
1.23286
1.23319
1.23266
1.23336
1.23339
1.23363
1.23322
1.23337
1.23305
1.23314
1.23291
1.233
1.23288
1.23302
1.23299
1.23315
1.23318
1.23335
1.23339
1.23355
1.23352
1.23368
1.23352
1.23371
1.23324
1.23351
1.23303
1.23324
1.23287
1.23302
1.23275
1.23289
1.23273
1.23289
1.23283
1.23301
1.23301
1.2332
1.23324
1.23343
1.23345
1.2336
1.23355
1.23366
1.23329
1.23362
1.23313
1.23337
1.233
1.23317
1.23289
1.23304
1.23288
1.23305
1.23299
1.23317
1.23317
1.23336
1.2334
1.23359
1.23363
1.23379
1.23378
1.23389
1.23329
1.23362
1.23313
1.23337
1.233
1.23317
1.23289
1.23304
1.23288
1.23305
1.23299
1.23317
1.23317
1.23336
1.23341
1.23359
1.23364
1.23378
1.23378
1.23389
1.23324
1.23351
1.23303
1.23324
1.23287
1.23302
1.23275
1.23289
1.23273
1.23289
1.23283
1.23301
1.23301
1.2332
1.23325
1.23342
1.23346
1.23359
1.23356
1.23365
1.23339
1.23363
1.23322
1.23337
1.23305
1.23314
1.23291
1.233
1.23289
1.23301
1.233
1.23314
1.23319
1.23333
1.23341
1.23352
1.23357
1.23362
1.2336
1.23361
1.23319
1.23339
1.23289
1.23303
1.23264
1.23274
1.23246
1.23259
1.23244
1.23262
1.23256
1.23274
1.23274
1.2329
1.2329
1.233
1.23297
1.23301
1.23294
1.23294
1.23351
1.23361
1.23323
1.23325
1.23297
1.233
1.23286
1.23293
1.23289
1.23299
1.23299
1.23309
1.23309
1.23315
1.23313
1.23315
1.2331
1.23309
1.23304
1.23301
1.23316
1.23317
1.23268
1.23284
1.23253
1.23274
1.23253
1.23272
1.23258
1.23273
1.23262
1.23275
1.23266
1.23275
1.23267
1.23273
1.23267
1.2327
1.23265
1.2327
1.23339
1.2333
1.23315
1.23305
1.23293
1.23291
1.23289
1.23294
1.23293
1.23297
1.23294
1.23297
1.23292
1.23297
1.23285
1.23301
1.23264
1.23331
1.23183
1.23504
1.23339
1.23332
1.23319
1.23309
1.23295
1.23285
1.23277
1.23277
1.23278
1.23286
1.23289
1.23303
1.23301
1.23318
1.23299
1.23326
1.23275
1.23337
1.23225
1.23369
1.23339
1.23331
1.23319
1.23309
1.23295
1.23286
1.23276
1.23273
1.23271
1.23276
1.23279
1.23291
1.23296
1.23311
1.23311
1.23327
1.23314
1.23331
1.23301
1.23323
1.23338
1.23332
1.2332
1.23311
1.23299
1.2329
1.23281
1.23278
1.23276
1.2328
1.23284
1.23293
1.23301
1.23313
1.23322
1.23333
1.23337
1.23342
1.23339
1.23338
1.23338
1.23331
1.23319
1.2331
1.23297
1.23289
1.2328
1.23277
1.23276
1.2328
1.23284
1.23292
1.233
1.23312
1.23322
1.23332
1.23339
1.23345
1.23345
1.23345
1.23338
1.23332
1.23319
1.23311
1.23298
1.2329
1.23281
1.23279
1.23278
1.23282
1.23287
1.23295
1.23303
1.23315
1.23325
1.23336
1.23343
1.2335
1.2335
1.23352
1.23338
1.23332
1.23319
1.23311
1.23298
1.2329
1.23281
1.23279
1.23278
1.23282
1.23287
1.23295
1.23303
1.23315
1.23325
1.23336
1.23343
1.2335
1.23349
1.23352
1.23338
1.23331
1.23319
1.2331
1.23297
1.23289
1.2328
1.23277
1.23276
1.2328
1.23284
1.23292
1.233
1.23312
1.23322
1.23333
1.23339
1.23345
1.23344
1.23347
1.23339
1.23332
1.2332
1.23311
1.23299
1.2329
1.23281
1.23278
1.23277
1.2328
1.23285
1.23293
1.23302
1.23313
1.23323
1.23332
1.23338
1.23341
1.23339
1.23339
1.23339
1.23331
1.23319
1.23309
1.23296
1.23286
1.23276
1.23273
1.23271
1.23275
1.2328
1.23289
1.23298
1.23308
1.23316
1.23321
1.23322
1.2332
1.23314
1.23306
1.23339
1.23332
1.23319
1.23308
1.23295
1.23285
1.23278
1.23277
1.23278
1.23285
1.23291
1.233
1.23306
1.23311
1.2331
1.23309
1.23302
1.23296
1.23287
1.23278
1.23339
1.2333
1.23315
1.23305
1.23293
1.23291
1.23289
1.23294
1.23294
1.23297
1.23295
1.23296
1.23294
1.23294
1.23291
1.2329
1.23286
1.23286
1.23283
1.23283
1.23339
1.2333
1.23315
1.23305
1.23293
1.23291
1.23289
1.23294
1.23293
1.23297
1.23294
1.23297
1.23292
1.23297
1.23285
1.23301
1.23264
1.23331
1.23183
1.23504
1.23339
1.23332
1.23319
1.23309
1.23295
1.23285
1.23277
1.23277
1.23278
1.23286
1.23289
1.23303
1.23301
1.23318
1.23299
1.23326
1.23275
1.23337
1.23225
1.23369
1.23339
1.23331
1.23319
1.23309
1.23295
1.23286
1.23276
1.23273
1.23271
1.23276
1.23279
1.23291
1.23296
1.23311
1.23311
1.23327
1.23314
1.23331
1.23301
1.23323
1.23338
1.23332
1.2332
1.23311
1.23299
1.2329
1.23281
1.23278
1.23276
1.2328
1.23284
1.23293
1.23301
1.23313
1.23322
1.23333
1.23337
1.23342
1.23339
1.23338
1.23338
1.23331
1.23319
1.2331
1.23297
1.23289
1.2328
1.23277
1.23276
1.2328
1.23284
1.23292
1.233
1.23312
1.23322
1.23332
1.23339
1.23345
1.23345
1.23345
1.23338
1.23332
1.23319
1.23311
1.23298
1.2329
1.23281
1.23279
1.23278
1.23282
1.23287
1.23295
1.23303
1.23315
1.23325
1.23336
1.23343
1.2335
1.2335
1.23352
1.23338
1.23332
1.23319
1.23311
1.23298
1.2329
1.23281
1.23279
1.23278
1.23282
1.23287
1.23295
1.23303
1.23315
1.23325
1.23336
1.23343
1.2335
1.23349
1.23352
1.23338
1.23331
1.23319
1.2331
1.23297
1.23289
1.2328
1.23277
1.23276
1.2328
1.23284
1.23292
1.233
1.23312
1.23322
1.23333
1.23339
1.23345
1.23344
1.23347
1.23339
1.23332
1.2332
1.23311
1.23299
1.2329
1.23281
1.23278
1.23277
1.2328
1.23285
1.23293
1.23302
1.23313
1.23323
1.23332
1.23338
1.23341
1.23339
1.23339
1.23339
1.23331
1.23319
1.23309
1.23296
1.23286
1.23276
1.23273
1.23271
1.23275
1.2328
1.23289
1.23298
1.23308
1.23316
1.23321
1.23322
1.2332
1.23314
1.23306
1.23339
1.23332
1.23319
1.23308
1.23295
1.23285
1.23278
1.23277
1.23278
1.23285
1.23291
1.233
1.23306
1.23311
1.2331
1.23309
1.23302
1.23296
1.23287
1.23278
1.23339
1.2333
1.23315
1.23305
1.23293
1.23291
1.23289
1.23294
1.23294
1.23297
1.23295
1.23296
1.23294
1.23294
1.23291
1.2329
1.23286
1.23286
1.23283
1.23283
1.23316
1.23317
1.23268
1.23284
1.23253
1.23274
1.23253
1.23272
1.23258
1.23274
1.23262
1.23275
1.23265
1.23276
1.23265
1.23276
1.23261
1.23282
1.23234
1.23368
1.23351
1.23361
1.23323
1.23325
1.23297
1.233
1.23286
1.23293
1.23289
1.233
1.23299
1.2331
1.23307
1.23318
1.23309
1.23323
1.23297
1.23334
1.23257
1.23394
1.23319
1.23339
1.23289
1.23303
1.23264
1.23274
1.23246
1.23259
1.23244
1.23262
1.23256
1.23276
1.23272
1.23293
1.23286
1.23307
1.23286
1.23319
1.23266
1.23336
1.23339
1.23363
1.23322
1.23337
1.23305
1.23314
1.23291
1.233
1.23288
1.23302
1.23299
1.23315
1.23318
1.23335
1.23339
1.23355
1.23352
1.23368
1.23352
1.23371
1.23324
1.23351
1.23303
1.23324
1.23287
1.23302
1.23275
1.23289
1.23273
1.23289
1.23283
1.23301
1.23301
1.2332
1.23324
1.23343
1.23345
1.2336
1.23355
1.23366
1.23329
1.23362
1.23313
1.23337
1.233
1.23317
1.23289
1.23304
1.23288
1.23305
1.23299
1.23317
1.23317
1.23336
1.2334
1.23359
1.23363
1.23379
1.23378
1.23389
1.23329
1.23362
1.23313
1.23337
1.233
1.23317
1.23289
1.23304
1.23288
1.23305
1.23299
1.23317
1.23317
1.23336
1.23341
1.23359
1.23364
1.23378
1.23378
1.23389
1.23324
1.23351
1.23303
1.23324
1.23287
1.23302
1.23275
1.23289
1.23273
1.23289
1.23283
1.23301
1.23301
1.2332
1.23325
1.23342
1.23346
1.23359
1.23356
1.23365
1.23339
1.23363
1.23322
1.23337
1.23305
1.23314
1.23291
1.233
1.23289
1.23301
1.233
1.23314
1.23319
1.23333
1.23341
1.23352
1.23357
1.23362
1.2336
1.23361
1.23319
1.23339
1.23289
1.23303
1.23264
1.23274
1.23246
1.23259
1.23244
1.23262
1.23256
1.23274
1.23274
1.2329
1.2329
1.233
1.23297
1.23301
1.23294
1.23294
1.23351
1.23361
1.23323
1.23325
1.23297
1.233
1.23286
1.23293
1.23289
1.23299
1.23299
1.23309
1.23309
1.23315
1.23313
1.23315
1.2331
1.23309
1.23304
1.23301
1.23316
1.23317
1.23268
1.23284
1.23253
1.23274
1.23253
1.23272
1.23258
1.23273
1.23262
1.23275
1.23266
1.23275
1.23267
1.23273
1.23267
1.2327
1.23265
1.2327
1.23513
1.23436
1.2344
1.23404
1.2342
1.23396
1.23411
1.23393
1.23406
1.23393
1.23404
1.23393
1.23401
1.23392
1.23396
1.2339
1.2339
1.2339
1.23377
1.23409
1.23528
1.23478
1.2347
1.23421
1.23425
1.23396
1.23404
1.23387
1.23397
1.23388
1.23397
1.23391
1.23398
1.23394
1.23394
1.23394
1.23382
1.23399
1.23345
1.23453
1.23564
1.23534
1.23558
1.23506
1.23522
1.23479
1.23493
1.23463
1.23478
1.2346
1.23475
1.23465
1.23478
1.23473
1.23478
1.2348
1.23467
1.23485
1.23437
1.23499
1.23545
1.23519
1.23545
1.23502
1.23515
1.23478
1.23487
1.23459
1.23468
1.23452
1.23463
1.23456
1.23466
1.23467
1.23472
1.23477
1.23473
1.23484
1.23463
1.23482
1.23559
1.2353
1.23566
1.2352
1.23542
1.23503
1.23518
1.23487
1.23501
1.23481
1.23496
1.23485
1.23499
1.23495
1.23508
1.23508
1.23516
1.23517
1.23516
1.23515
1.23554
1.2352
1.23556
1.23508
1.23531
1.23492
1.23508
1.23477
1.23492
1.23472
1.23487
1.23476
1.23491
1.23486
1.235
1.23499
1.2351
1.23511
1.23514
1.2351
1.23554
1.2352
1.23556
1.23508
1.23531
1.23492
1.23508
1.23477
1.23492
1.23472
1.23488
1.23476
1.23491
1.23486
1.235
1.23499
1.23511
1.2351
1.23514
1.2351
1.23559
1.2353
1.23566
1.2352
1.23542
1.23503
1.23518
1.23487
1.23501
1.23481
1.23496
1.23485
1.235
1.23494
1.23509
1.23507
1.23517
1.23515
1.23517
1.23513
1.23545
1.23519
1.23545
1.23502
1.23515
1.23478
1.23487
1.23459
1.23468
1.23452
1.23463
1.23456
1.23467
1.23465
1.23474
1.23474
1.23479
1.23476
1.23473
1.23469
1.23564
1.23534
1.23558
1.23506
1.23522
1.23479
1.23493
1.23462
1.23478
1.23459
1.23476
1.23464
1.23479
1.23471
1.23482
1.23473
1.23478
1.23467
1.23466
1.23453
1.23528
1.23478
1.2347
1.23421
1.23425
1.23396
1.23404
1.23387
1.23397
1.23388
1.23397
1.23391
1.23399
1.23392
1.23397
1.23389
1.2339
1.23382
1.23381
1.23372
1.23513
1.23436
1.2344
1.23404
1.2342
1.23396
1.23411
1.23393
1.23406
1.23393
1.23404
1.23393
1.23401
1.23391
1.23397
1.23389
1.23392
1.23385
1.23387
1.2338
1.22534
1.21868
1.21448
1.21091
1.20806
1.20534
1.20307
1.2009
1.19907
1.19725
1.19562
1.19396
1.19248
1.19102
1.18975
1.18848
1.18737
1.18625
1.18529
1.18436
1.18359
1.18286
1.18226
1.18169
1.18123
1.18079
1.18046
1.18015
1.17993
1.17973
1.1796
1.17946
1.17938
1.17929
1.17923
1.17915
1.1791
1.17903
1.17899
1.17891
1.17887
1.1788
1.17875
1.17868
1.17863
1.17856
1.17851
1.17845
1.17839
1.17833
1.17827
1.17821
1.17815
1.17809
1.17803
1.17797
1.17791
1.17784
1.17779
1.17772
1.17767
1.1776
1.17754
1.17748
1.17742
1.17735
1.1773
1.17723
1.17717
1.17711
1.17705
1.17698
1.17692
1.17686
1.1768
1.17673
1.17668
1.17661
1.17655
1.17649
1.17643
1.17636
1.17631
1.17624
1.17618
1.17612
1.17607
1.176
1.17596
1.1759
1.22852
1.22233
1.21824
1.21478
1.21198
1.2093
1.20703
1.20485
1.20302
1.20121
1.19959
1.19793
1.19645
1.19498
1.19369
1.19241
1.19129
1.19017
1.18919
1.18824
1.18744
1.18669
1.18607
1.18548
1.185
1.18455
1.1842
1.18387
1.18364
1.18342
1.18328
1.18313
1.18305
1.18295
1.18289
1.18281
1.18276
1.18269
1.18264
1.18257
1.18252
1.18245
1.18241
1.18234
1.18229
1.18222
1.18217
1.1821
1.18205
1.18198
1.18193
1.18186
1.18181
1.18174
1.18169
1.18162
1.18157
1.1815
1.18144
1.18138
1.18132
1.18126
1.1812
1.18113
1.18108
1.18101
1.18095
1.18089
1.18083
1.18076
1.1807
1.18064
1.18058
1.18051
1.18045
1.18039
1.18033
1.18026
1.18021
1.18014
1.18008
1.18002
1.17996
1.17989
1.17984
1.17977
1.17972
1.17965
1.17961
1.17956
1.23248
1.22776
1.22423
1.22108
1.21853
1.21599
1.21378
1.21162
1.20981
1.20804
1.20648
1.20485
1.20338
1.20189
1.20059
1.19931
1.19818
1.19705
1.19605
1.19506
1.19422
1.19343
1.19277
1.19215
1.19164
1.19115
1.19076
1.1904
1.19013
1.18987
1.18971
1.18954
1.18944
1.18933
1.18926
1.18918
1.18913
1.18905
1.189
1.18893
1.18889
1.18882
1.18877
1.1887
1.18865
1.18858
1.18853
1.18846
1.18841
1.18834
1.18829
1.18822
1.18817
1.1881
1.18805
1.18798
1.18792
1.18786
1.1878
1.18773
1.18768
1.18761
1.18756
1.18749
1.18743
1.18737
1.18731
1.18724
1.18718
1.18712
1.18706
1.18699
1.18693
1.18687
1.18681
1.18674
1.18668
1.18662
1.18656
1.18649
1.18644
1.18637
1.18631
1.18625
1.18619
1.18612
1.18607
1.186
1.18597
1.18592
1.23394
1.23095
1.2283
1.22578
1.2237
1.2215
1.21948
1.21744
1.21572
1.21406
1.21261
1.21109
1.20967
1.20821
1.20692
1.20567
1.20456
1.20345
1.20245
1.20145
1.20058
1.19975
1.19906
1.19841
1.19787
1.19735
1.19692
1.19652
1.19621
1.19592
1.19572
1.19553
1.19541
1.19528
1.19521
1.19512
1.19506
1.19498
1.19494
1.19486
1.19482
1.19475
1.1947
1.19463
1.19458
1.19451
1.19446
1.19439
1.19434
1.19427
1.19422
1.19415
1.1941
1.19403
1.19397
1.19391
1.19385
1.19378
1.19373
1.19366
1.1936
1.19354
1.19348
1.19341
1.19336
1.19329
1.19323
1.19316
1.19311
1.19304
1.19298
1.19291
1.19286
1.19279
1.19273
1.19266
1.1926
1.19254
1.19248
1.19241
1.19235
1.19229
1.19223
1.19216
1.19211
1.19204
1.19199
1.19191
1.19188
1.19183
1.23494
1.23307
1.23132
1.22946
1.22795
1.22617
1.22446
1.22261
1.22104
1.21953
1.21825
1.21688
1.21557
1.21418
1.21295
1.21174
1.2107
1.20964
1.20868
1.20769
1.20681
1.20597
1.20528
1.20461
1.20407
1.20353
1.20308
1.20264
1.2023
1.20198
1.20176
1.20154
1.20141
1.20127
1.20119
1.20109
1.20103
1.20095
1.2009
1.20083
1.20078
1.20071
1.20066
1.20059
1.20054
1.20047
1.20042
1.20035
1.2003
1.20023
1.20018
1.20011
1.20006
1.19999
1.19993
1.19987
1.19981
1.19974
1.19969
1.19962
1.19956
1.1995
1.19944
1.19937
1.19931
1.19925
1.19919
1.19912
1.19906
1.199
1.19894
1.19887
1.19881
1.19874
1.19868
1.19862
1.19856
1.19849
1.19843
1.19837
1.19831
1.19824
1.19818
1.19811
1.19806
1.19799
1.19794
1.19787
1.19783
1.19778
1.23502
1.23373
1.23264
1.23138
1.2304
1.22909
1.22772
1.22615
1.2248
1.22351
1.22243
1.22125
1.22009
1.21883
1.2177
1.2166
1.21565
1.21468
1.21379
1.21285
1.21202
1.2112
1.21053
1.20989
1.20936
1.20883
1.20838
1.20794
1.20759
1.20726
1.20702
1.2068
1.20665
1.20651
1.20642
1.20632
1.20626
1.20618
1.20613
1.20606
1.20601
1.20594
1.20589
1.20582
1.20577
1.2057
1.20565
1.20558
1.20553
1.20546
1.20541
1.20534
1.20528
1.20521
1.20516
1.20509
1.20504
1.20497
1.20491
1.20484
1.20479
1.20472
1.20466
1.20459
1.20454
1.20447
1.20441
1.20434
1.20428
1.20422
1.20416
1.20409
1.20403
1.20396
1.2039
1.20384
1.20378
1.20371
1.20365
1.20358
1.20352
1.20345
1.20339
1.20333
1.20327
1.2032
1.20315
1.20308
1.20303
1.20297
1.235
1.23399
1.23332
1.23251
1.23196
1.23102
1.22998
1.2287
1.2276
1.22655
1.22569
1.2247
1.22371
1.22261
1.22162
1.22065
1.21983
1.21898
1.21819
1.21734
1.21658
1.21584
1.21522
1.21463
1.21414
1.21365
1.21323
1.21281
1.21247
1.21215
1.21192
1.2117
1.21155
1.21141
1.21132
1.21122
1.21116
1.21108
1.21103
1.21096
1.21091
1.21084
1.21079
1.21072
1.21067
1.2106
1.21055
1.21048
1.21043
1.21036
1.2103
1.21023
1.21018
1.21011
1.21006
1.20999
1.20993
1.20986
1.20981
1.20974
1.20968
1.20961
1.20956
1.20949
1.20943
1.20936
1.2093
1.20924
1.20918
1.20911
1.20905
1.20898
1.20892
1.20885
1.20879
1.20873
1.20867
1.2086
1.20854
1.20847
1.20841
1.20834
1.20828
1.20822
1.20816
1.20809
1.20803
1.20797
1.20791
1.20785
1.23499
1.23413
1.23372
1.23322
1.23295
1.23228
1.23152
1.2305
1.22967
1.22884
1.22818
1.22737
1.22657
1.22564
1.22483
1.22402
1.22335
1.22263
1.22196
1.22123
1.22058
1.21994
1.21941
1.2189
1.21848
1.21804
1.21767
1.21729
1.21699
1.2167
1.21649
1.21629
1.21616
1.21602
1.21594
1.21584
1.21578
1.2157
1.21565
1.21558
1.21553
1.21546
1.21541
1.21534
1.21529
1.21522
1.21517
1.2151
1.21504
1.21497
1.21492
1.21485
1.2148
1.21473
1.21467
1.2146
1.21455
1.21448
1.21442
1.21435
1.21429
1.21423
1.21417
1.2141
1.21404
1.21397
1.21391
1.21385
1.21379
1.21372
1.21366
1.21359
1.21353
1.21346
1.2134
1.21334
1.21328
1.21321
1.21315
1.21308
1.21302
1.21295
1.21289
1.21283
1.21277
1.2127
1.21265
1.21258
1.21252
1.21246
1.23444
1.23377
1.23355
1.23326
1.23315
1.23267
1.23213
1.23138
1.23081
1.23021
1.22974
1.22911
1.2285
1.22778
1.22717
1.22655
1.22603
1.22546
1.22494
1.22435
1.22385
1.22334
1.22293
1.22251
1.22218
1.22182
1.22152
1.22121
1.22096
1.22072
1.22055
1.22037
1.22026
1.22014
1.22007
1.21998
1.21992
1.21984
1.2198
1.21972
1.21967
1.2196
1.21955
1.21948
1.21943
1.21936
1.21931
1.21924
1.21918
1.21911
1.21906
1.21899
1.21893
1.21886
1.21881
1.21874
1.21868
1.21861
1.21856
1.21849
1.21843
1.21836
1.2183
1.21823
1.21818
1.21811
1.21805
1.21798
1.21792
1.21785
1.21779
1.21772
1.21766
1.2176
1.21753
1.21747
1.21741
1.21734
1.21728
1.21721
1.21715
1.21708
1.21702
1.21695
1.21689
1.21683
1.21677
1.2167
1.21664
1.21657
1.23451
1.234
1.23392
1.23371
1.23367
1.23329
1.23294
1.23242
1.23207
1.23166
1.23135
1.23089
1.23048
1.22996
1.22956
1.22912
1.22878
1.22836
1.228
1.22757
1.22723
1.22686
1.22658
1.22628
1.22604
1.22577
1.22555
1.22532
1.22514
1.22495
1.22482
1.22468
1.2246
1.22449
1.22443
1.22435
1.22429
1.22422
1.22417
1.22409
1.22404
1.22397
1.22392
1.22385
1.2238
1.22372
1.22367
1.2236
1.22355
1.22348
1.22342
1.22335
1.2233
1.22323
1.22317
1.2231
1.22304
1.22297
1.22291
1.22284
1.22279
1.22272
1.22266
1.22259
1.22253
1.22246
1.2224
1.22233
1.22227
1.2222
1.22214
1.22207
1.22201
1.22194
1.22188
1.22181
1.22175
1.22168
1.22162
1.22155
1.22149
1.22142
1.22136
1.22129
1.22124
1.22117
1.22111
1.22104
1.22098
1.22091
1.23375
1.23345
1.23344
1.23328
1.23326
1.23301
1.23283
1.23252
1.23236
1.23211
1.23194
1.23166
1.23143
1.23113
1.23092
1.23066
1.23047
1.23021
1.23001
1.22975
1.22956
1.22933
1.22917
1.22898
1.22884
1.22866
1.22853
1.22837
1.22826
1.22812
1.22804
1.22793
1.22787
1.22778
1.22772
1.22764
1.22759
1.22752
1.22747
1.22739
1.22734
1.22727
1.22722
1.22714
1.22709
1.22702
1.22696
1.22689
1.22684
1.22676
1.22671
1.22663
1.22658
1.22651
1.22645
1.22638
1.22632
1.22625
1.22619
1.22612
1.22606
1.22599
1.22593
1.22586
1.2258
1.22573
1.22566
1.22559
1.22553
1.22546
1.2254
1.22533
1.22527
1.2252
1.22513
1.22506
1.225
1.22493
1.22487
1.2248
1.22473
1.22466
1.2246
1.22453
1.22447
1.2244
1.22434
1.22427
1.22421
1.22414
1.23414
1.23392
1.23394
1.23378
1.23378
1.23361
1.23355
1.23338
1.23332
1.23317
1.23311
1.23295
1.23287
1.23271
1.23263
1.23249
1.23241
1.23227
1.23219
1.23205
1.23197
1.23185
1.23177
1.23166
1.23159
1.23148
1.23141
1.2313
1.23124
1.23115
1.23109
1.231
1.23095
1.23087
1.23082
1.23074
1.23069
1.23061
1.23056
1.23048
1.23043
1.23036
1.2303
1.23023
1.23017
1.2301
1.23004
1.22997
1.22991
1.22984
1.22978
1.22971
1.22965
1.22958
1.22952
1.22944
1.22938
1.22931
1.22925
1.22918
1.22912
1.22904
1.22898
1.22891
1.22885
1.22877
1.22871
1.22864
1.22858
1.2285
1.22844
1.22837
1.2283
1.22823
1.22817
1.2281
1.22803
1.22796
1.22789
1.22782
1.22776
1.22769
1.22762
1.22755
1.22748
1.22741
1.22735
1.22728
1.22721
1.22715
1.22183
1.21458
1.21011
1.20662
1.20368
1.20104
1.19874
1.19664
1.19479
1.193
1.19136
1.18973
1.18825
1.18682
1.18555
1.1843
1.18318
1.18209
1.18113
1.18022
1.17946
1.17874
1.17815
1.17759
1.17714
1.17671
1.17639
1.17609
1.17588
1.17568
1.17556
1.17543
1.17535
1.17526
1.17521
1.17513
1.17509
1.17501
1.17497
1.1749
1.17485
1.17478
1.17474
1.17467
1.17462
1.17455
1.1745
1.17444
1.17439
1.17432
1.17427
1.1742
1.17415
1.17408
1.17403
1.17396
1.1739
1.17384
1.17378
1.17372
1.17366
1.17359
1.17354
1.17347
1.17341
1.17335
1.17329
1.17323
1.17317
1.1731
1.17304
1.17298
1.17292
1.17285
1.17279
1.17273
1.17267
1.1726
1.17254
1.17248
1.17241
1.17235
1.17229
1.17222
1.17216
1.17209
1.17203
1.17196
1.17188
1.17181
1.22809
1.22192
1.21767
1.21427
1.2114
1.20877
1.20646
1.20432
1.20246
1.20067
1.19903
1.19739
1.1959
1.19444
1.19313
1.19187
1.19073
1.18962
1.18863
1.18768
1.18688
1.18612
1.1855
1.18491
1.18443
1.18398
1.18363
1.1833
1.18306
1.18284
1.1827
1.18256
1.18248
1.18238
1.18232
1.18224
1.18219
1.18212
1.18207
1.182
1.18196
1.18189
1.18184
1.18177
1.18172
1.18166
1.18161
1.18154
1.18149
1.18142
1.18137
1.1813
1.18125
1.18118
1.18113
1.18106
1.18101
1.18094
1.18088
1.18082
1.18076
1.18069
1.18064
1.18057
1.18051
1.18045
1.18039
1.18032
1.18027
1.1802
1.18014
1.18008
1.18002
1.17995
1.17989
1.17983
1.17977
1.1797
1.17964
1.17957
1.17951
1.17945
1.17939
1.17932
1.17926
1.17919
1.17913
1.17906
1.17898
1.17892
1.23101
1.22679
1.22324
1.22029
1.21771
1.21527
1.21303
1.21093
1.2091
1.20737
1.20579
1.2042
1.20271
1.20123
1.19991
1.19864
1.1975
1.19638
1.19536
1.19438
1.19353
1.19272
1.19206
1.19143
1.19091
1.19042
1.19003
1.18965
1.18938
1.18912
1.18895
1.18879
1.18868
1.18857
1.18851
1.18842
1.18837
1.1883
1.18825
1.18818
1.18813
1.18806
1.18802
1.18795
1.1879
1.18783
1.18778
1.18771
1.18766
1.1876
1.18754
1.18748
1.18742
1.18736
1.1873
1.18723
1.18718
1.18711
1.18706
1.18699
1.18694
1.18687
1.18681
1.18674
1.18669
1.18662
1.18656
1.1865
1.18644
1.18637
1.18631
1.18625
1.18619
1.18612
1.18606
1.186
1.18593
1.18587
1.18581
1.18574
1.18568
1.18561
1.18555
1.18549
1.18542
1.18536
1.18529
1.18522
1.18515
1.18508
1.23305
1.2306
1.2281
1.22582
1.22378
1.22169
1.21968
1.21768
1.21594
1.21431
1.21285
1.21136
1.20993
1.20847
1.20716
1.2059
1.20479
1.20368
1.20266
1.20165
1.20076
1.19992
1.19922
1.19856
1.19801
1.19748
1.19704
1.19662
1.1963
1.19601
1.1958
1.1956
1.19548
1.19535
1.19528
1.19519
1.19513
1.19505
1.19501
1.19493
1.19489
1.19482
1.19477
1.1947
1.19465
1.19458
1.19453
1.19447
1.19441
1.19435
1.19429
1.19423
1.19417
1.1941
1.19405
1.19398
1.19393
1.19386
1.19381
1.19374
1.19368
1.19361
1.19356
1.19349
1.19343
1.19337
1.19331
1.19324
1.19318
1.19312
1.19306
1.19299
1.19293
1.19286
1.1928
1.19274
1.19268
1.19261
1.19255
1.19248
1.19242
1.19236
1.19229
1.19223
1.19216
1.1921
1.19203
1.19196
1.19189
1.19183
1.23337
1.23208
1.23049
1.22901
1.22758
1.22601
1.22433
1.22257
1.221
1.21954
1.21826
1.21693
1.21562
1.21425
1.213
1.21179
1.21074
1.20968
1.20871
1.20771
1.20682
1.20596
1.20525
1.20458
1.20402
1.20347
1.20301
1.20256
1.20221
1.20188
1.20164
1.20142
1.20128
1.20114
1.20105
1.20095
1.2009
1.20082
1.20077
1.2007
1.20065
1.20058
1.20053
1.20046
1.20041
1.20034
1.20029
1.20022
1.20017
1.2001
1.20005
1.19998
1.19993
1.19986
1.19981
1.19974
1.19968
1.19962
1.19956
1.19949
1.19944
1.19937
1.19931
1.19924
1.19919
1.19912
1.19906
1.19899
1.19893
1.19887
1.19881
1.19874
1.19868
1.19861
1.19855
1.19849
1.19842
1.19836
1.1983
1.19823
1.19817
1.1981
1.19804
1.19797
1.19791
1.19784
1.19777
1.19771
1.19763
1.19757
1.23371
1.23298
1.23202
1.23117
1.23032
1.22922
1.22793
1.22644
1.2251
1.22386
1.22279
1.22164
1.22049
1.21924
1.2181
1.21699
1.21603
1.21506
1.21416
1.21322
1.21237
1.21154
1.21084
1.21019
1.20964
1.2091
1.20864
1.20819
1.20782
1.20748
1.20722
1.20699
1.20684
1.20669
1.2066
1.20649
1.20643
1.20635
1.2063
1.20623
1.20618
1.20611
1.20606
1.20599
1.20594
1.20587
1.20582
1.20575
1.2057
1.20563
1.20558
1.20551
1.20546
1.20539
1.20533
1.20527
1.20521
1.20514
1.20509
1.20502
1.20496
1.20489
1.20484
1.20477
1.20471
1.20464
1.20458
1.20452
1.20446
1.20439
1.20433
1.20426
1.2042
1.20413
1.20407
1.20401
1.20395
1.20388
1.20382
1.20375
1.20369
1.20362
1.20356
1.20349
1.20343
1.20336
1.2033
1.20323
1.20316
1.20309
1.23369
1.23318
1.2326
1.23217
1.23174
1.23104
1.23009
1.2289
1.22783
1.22683
1.22598
1.22504
1.22407
1.22299
1.22199
1.22102
1.22019
1.21934
1.21855
1.21769
1.21692
1.21616
1.21553
1.21492
1.21442
1.21392
1.21348
1.21305
1.2127
1.21236
1.21212
1.21189
1.21173
1.21159
1.2115
1.21139
1.21133
1.21125
1.2112
1.21113
1.21108
1.21101
1.21096
1.21089
1.21084
1.21077
1.21072
1.21065
1.2106
1.21053
1.21047
1.21041
1.21035
1.21028
1.21023
1.21016
1.2101
1.21003
1.20998
1.20991
1.20985
1.20978
1.20973
1.20966
1.2096
1.20953
1.20947
1.20941
1.20935
1.20928
1.20922
1.20915
1.20909
1.20902
1.20896
1.20889
1.20883
1.20877
1.2087
1.20864
1.20857
1.20851
1.20844
1.20838
1.20831
1.20825
1.20818
1.20811
1.20805
1.20798
1.23339
1.23297
1.23262
1.23245
1.23228
1.23183
1.23114
1.23025
1.22945
1.2287
1.22807
1.22732
1.22654
1.22564
1.22483
1.22404
1.22336
1.22265
1.22198
1.22125
1.22059
1.21994
1.2194
1.21888
1.21845
1.218
1.21762
1.21724
1.21692
1.21662
1.2164
1.21619
1.21605
1.21591
1.21583
1.21573
1.21567
1.21559
1.21554
1.21547
1.21542
1.21535
1.2153
1.21523
1.21518
1.21511
1.21506
1.21499
1.21494
1.21487
1.21482
1.21475
1.21469
1.21462
1.21457
1.2145
1.21444
1.21437
1.21432
1.21425
1.21419
1.21412
1.21407
1.214
1.21394
1.21387
1.21381
1.21374
1.21368
1.21362
1.21355
1.21349
1.21343
1.21336
1.2133
1.21323
1.21317
1.2131
1.21304
1.21297
1.21291
1.21284
1.21277
1.21271
1.21264
1.21258
1.21251
1.21244
1.21237
1.21229
1.23343
1.23307
1.23289
1.23283
1.23278
1.23245
1.23196
1.2313
1.23075
1.23021
1.22976
1.22917
1.22857
1.22786
1.22725
1.22663
1.22611
1.22555
1.22501
1.22442
1.22391
1.22338
1.22296
1.22254
1.22219
1.22182
1.22151
1.22119
1.22093
1.22068
1.2205
1.22032
1.22021
1.22008
1.22001
1.21992
1.21986
1.21978
1.21973
1.21966
1.21961
1.21954
1.21949
1.21942
1.21937
1.2193
1.21925
1.21918
1.21913
1.21905
1.219
1.21893
1.21888
1.21881
1.21875
1.21868
1.21863
1.21856
1.2185
1.21843
1.21837
1.21831
1.21825
1.21818
1.21812
1.21805
1.21799
1.21792
1.21786
1.2178
1.21774
1.21767
1.21761
1.21754
1.21748
1.21741
1.21735
1.21728
1.21722
1.21715
1.21709
1.21702
1.21695
1.21689
1.21682
1.21676
1.21669
1.21662
1.21655
1.21648
1.2327
1.23251
1.23242
1.23244
1.23242
1.23219
1.23185
1.23142
1.23108
1.23073
1.23042
1.23
1.22957
1.22907
1.22865
1.22821
1.22785
1.22743
1.22705
1.22662
1.22625
1.22587
1.22557
1.22526
1.22501
1.22473
1.2245
1.22425
1.22406
1.22386
1.22373
1.22359
1.2235
1.22339
1.22333
1.22324
1.22319
1.22311
1.22307
1.22299
1.22294
1.22287
1.22282
1.22275
1.2227
1.22263
1.22258
1.22251
1.22245
1.22238
1.22233
1.22226
1.2222
1.22213
1.22208
1.22201
1.22195
1.22188
1.22182
1.22176
1.2217
1.22163
1.22157
1.2215
1.22144
1.22137
1.22131
1.22124
1.22118
1.22111
1.22105
1.22098
1.22092
1.22085
1.22079
1.22072
1.22066
1.22059
1.22053
1.22046
1.2204
1.22033
1.22026
1.2202
1.22013
1.22006
1.21999
1.21993
1.21985
1.21978
1.23311
1.23299
1.23297
1.23296
1.23294
1.23275
1.23256
1.23228
1.2321
1.23187
1.23169
1.23141
1.23115
1.23083
1.23059
1.23031
1.23009
1.22982
1.22958
1.2293
1.22908
1.22883
1.22865
1.22844
1.22828
1.22808
1.22793
1.22776
1.22763
1.22749
1.2274
1.22729
1.22722
1.22713
1.22707
1.22699
1.22694
1.22687
1.22682
1.22674
1.22669
1.22662
1.22657
1.2265
1.22645
1.22637
1.22632
1.22625
1.22619
1.22612
1.22607
1.226
1.22594
1.22587
1.22581
1.22574
1.22568
1.22561
1.22556
1.22549
1.22543
1.22536
1.2253
1.22523
1.22517
1.2251
1.22504
1.22497
1.2249
1.22483
1.22477
1.2247
1.22464
1.22457
1.22451
1.22444
1.22438
1.22431
1.22424
1.22417
1.22411
1.22404
1.22397
1.22391
1.22384
1.22377
1.2237
1.22363
1.22356
1.22349
1.23257
1.23252
1.23251
1.23247
1.23245
1.23234
1.23227
1.23214
1.23207
1.23195
1.23188
1.23173
1.23164
1.23148
1.23139
1.23125
1.23116
1.23102
1.23092
1.23078
1.23068
1.23055
1.23047
1.23035
1.23027
1.23016
1.23008
1.22997
1.22991
1.22981
1.22975
1.22966
1.22961
1.22953
1.22948
1.2294
1.22935
1.22928
1.22923
1.22915
1.2291
1.22902
1.22897
1.2289
1.22884
1.22877
1.22872
1.22864
1.22859
1.22851
1.22846
1.22838
1.22833
1.22825
1.22819
1.22812
1.22806
1.22799
1.22793
1.22786
1.2278
1.22772
1.22766
1.22759
1.22753
1.22746
1.22739
1.22732
1.22726
1.22719
1.22712
1.22705
1.22699
1.22692
1.22685
1.22678
1.22671
1.22664
1.22658
1.22651
1.22644
1.22637
1.2263
1.22623
1.22616
1.22609
1.22602
1.22595
1.22588
1.22581
1.21949
1.21004
1.20482
1.20096
1.19781
1.19506
1.1927
1.19057
1.18867
1.18685
1.18517
1.18353
1.18205
1.18063
1.17935
1.1781
1.17698
1.1759
1.17496
1.17408
1.17333
1.17264
1.17206
1.17152
1.17109
1.17069
1.17039
1.17011
1.16992
1.16974
1.16963
1.16952
1.16945
1.16936
1.16931
1.16923
1.16919
1.16912
1.16907
1.16901
1.16896
1.16889
1.16884
1.16878
1.16873
1.16866
1.16861
1.16854
1.16849
1.16843
1.16838
1.16831
1.16826
1.16819
1.16814
1.16807
1.16802
1.16795
1.16789
1.16783
1.16777
1.16771
1.16765
1.16758
1.16753
1.16746
1.1674
1.16734
1.16728
1.16722
1.16716
1.16709
1.16703
1.16697
1.16691
1.16684
1.16678
1.16672
1.16666
1.16659
1.16653
1.16647
1.16641
1.16634
1.16628
1.16621
1.16615
1.16609
1.166
1.16593
1.22901
1.22205
1.21712
1.21334
1.2102
1.20742
1.20499
1.20278
1.20084
1.199
1.1973
1.19562
1.19409
1.19261
1.19128
1.18999
1.18883
1.1877
1.1867
1.18574
1.18493
1.18418
1.18355