/*--------------------------------*- C++ -*----------------------------------*\
  =========                 |
  \\      /  F ield         | OpenFOAM: The Open Source CFD Toolbox
   \\    /   O peration     | Website:  https://openfoam.org
    \\  /    A nd           | Version:  7
     \\/     M anipulation  |
\*---------------------------------------------------------------------------*/
FoamFile
{
    version     2.0;
    format      ascii;
    class       volScalarField;
    location    "4.92";
    object      rho_0;
}
// * * * * * * * * * * * * * * * * * * * * * * * * * * * * * * * * * * * * * //

dimensions      [1 -3 0 0 0 0 0];

internalField   nonuniform List<scalar> 
5760
(
1.2207
1.20374
1.19134
1.18154
1.17286
1.16514
1.15833
1.15216
1.14642
1.14103
1.13594
1.13114
1.12658
1.12223
1.11808
1.11409
1.11027
1.10659
1.10304
1.09961
1.0963
1.09309
1.08998
1.08696
1.08403
1.08118
1.0784
1.0757
1.07306
1.07049
1.06798
1.06553
1.06313
1.06079
1.0585
1.05625
1.05406
1.0519
1.04979
1.04772
1.04569
1.0437
1.04175
1.03983
1.03794
1.03609
1.03426
1.03247
1.03071
1.02898
1.02728
1.0256
1.02395
1.02232
1.02072
1.01915
1.01759
1.01606
1.01456
1.01307
1.01161
1.01016
1.00874
1.00733
1.00595
1.00458
1.00323
1.0019
1.00058
0.999288
0.998006
0.996741
0.995491
0.994257
0.993037
0.991831
0.99064
0.989462
0.988297
0.987145
0.986006
0.984878
0.983763
0.982659
0.981567
0.980485
0.979414
0.978353
0.977303
0.976262
0.975231
0.974209
0.973197
0.972193
0.971198
0.970211
0.969232
0.968262
0.967299
0.966344
0.965397
0.964456
0.963523
0.962597
0.961677
0.960764
0.959858
0.958958
0.958064
0.957177
0.956295
0.955419
0.954549
0.953685
0.952826
0.951973
0.951125
0.950282
0.949445
0.948612
0.947785
0.946963
0.946145
0.945332
0.944524
0.943721
0.942922
0.942128
0.941338
0.940553
0.939772
0.938996
0.938225
0.937457
0.936694
0.935935
0.935181
0.934431
0.933685
0.932944
0.932206
0.931473
0.930744
0.93002
0.9293
0.928584
0.927872
0.927165
0.926462
0.925763
0.925069
0.924379
0.923693
0.923012
0.922336
0.921664
0.920997
0.920334
0.919676
0.919022
0.918373
0.917729
0.917089
0.916455
0.915825
0.915199
0.914579
0.913964
0.913354
0.912748
0.912148
0.911552
0.910962
0.910377
0.909797
0.909223
0.908653
0.908089
0.90753
0.906976
0.906428
0.905885
0.905347
0.904815
0.904288
0.903766
0.90325
0.902739
0.902234
0.901734
0.90124
0.900751
0.900267
0.89979
0.899317
0.89885
0.898389
0.897933
0.897483
0.897038
0.896599
0.896165
0.895737
0.895314
0.894896
0.894484
0.894078
0.893676
0.89328
0.89289
0.892505
0.892125
0.89175
0.891381
0.891017
0.890658
0.890305
0.889956
0.889613
0.889275
0.888942
0.888614
0.888292
0.887973
0.887661
0.887352
0.887051
0.886749
0.886461
0.886165
0.885891
0.885599
0.885342
0.885047
0.884818
0.884506
0.884324
0.883966
0.883873
0.883404
1.22657
1.21667
1.20784
1.20002
1.19286
1.18633
1.18038
1.17483
1.16958
1.1646
1.15988
1.15539
1.1511
1.14699
1.14304
1.13923
1.13556
1.13202
1.12859
1.12527
1.12205
1.11893
1.11589
1.11293
1.11005
1.10725
1.10451
1.10185
1.09924
1.09669
1.0942
1.09177
1.08939
1.08705
1.08477
1.08252
1.08033
1.07817
1.07606
1.07398
1.07194
1.06994
1.06798
1.06604
1.06414
1.06227
1.06043
1.05862
1.05684
1.05509
1.05336
1.05166
1.04999
1.04834
1.04671
1.04511
1.04353
1.04197
1.04044
1.03892
1.03743
1.03595
1.0345
1.03306
1.03165
1.03025
1.02886
1.0275
1.02615
1.02482
1.02351
1.02221
1.02092
1.01966
1.0184
1.01716
1.01593
1.01472
1.01352
1.01233
1.01116
1.00999
1.00884
1.0077
1.00657
1.00546
1.00435
1.00325
1.00216
1.00109
1.00002
0.99896
0.997911
0.996871
0.995839
0.994816
0.993801
0.992794
0.991796
0.990804
0.989821
0.988844
0.987875
0.986913
0.985958
0.98501
0.984068
0.983132
0.982203
0.981281
0.980364
0.979453
0.978548
0.977649
0.976756
0.975868
0.974986
0.974109
0.973238
0.972371
0.97151
0.970654
0.969803
0.968957
0.968115
0.967279
0.966447
0.96562
0.964797
0.963979
0.963166
0.962357
0.961553
0.960753
0.959958
0.959167
0.958381
0.957599
0.956821
0.956048
0.955279
0.954514
0.953754
0.952998
0.952247
0.9515
0.950757
0.950018
0.949284
0.948555
0.947829
0.947109
0.946393
0.945681
0.944974
0.944271
0.943573
0.94288
0.942192
0.941508
0.940829
0.940154
0.939485
0.93882
0.93816
0.937505
0.936855
0.93621
0.93557
0.934935
0.934305
0.93368
0.93306
0.932446
0.931836
0.931232
0.930634
0.93004
0.929452
0.92887
0.928292
0.927721
0.927154
0.926593
0.926038
0.925488
0.924943
0.924404
0.923871
0.923343
0.922821
0.922304
0.921793
0.921288
0.920788
0.920294
0.919805
0.919322
0.918845
0.918373
0.917907
0.917446
0.916992
0.916542
0.916099
0.91566
0.915228
0.914801
0.914379
0.913963
0.913552
0.913147
0.912748
0.912353
0.911965
0.911581
0.911203
0.91083
0.910463
0.910101
0.909744
0.909392
0.909046
0.908704
0.90837
0.908037
0.907713
0.907389
0.907078
0.90676
0.906464
0.906148
0.905872
0.905552
0.905305
0.904966
0.90477
0.90438
0.904282
0.903772
1.22863
1.22402
1.21872
1.21312
1.20759
1.20241
1.19759
1.19296
1.18845
1.18409
1.1799
1.17587
1.17198
1.16822
1.16459
1.16106
1.15764
1.15433
1.1511
1.14796
1.14491
1.14193
1.13903
1.13619
1.13343
1.13072
1.12808
1.12549
1.12296
1.12049
1.11806
1.11568
1.11335
1.11106
1.10881
1.10661
1.10444
1.10232
1.10023
1.09817
1.09615
1.09417
1.09221
1.09029
1.0884
1.08653
1.0847
1.08289
1.08111
1.07936
1.07763
1.07593
1.07425
1.07259
1.07095
1.06934
1.06775
1.06618
1.06464
1.06311
1.0616
1.06011
1.05864
1.05719
1.05575
1.05433
1.05293
1.05155
1.05018
1.04883
1.04749
1.04617
1.04486
1.04357
1.04229
1.04103
1.03977
1.03854
1.03731
1.0361
1.03489
1.0337
1.03253
1.03136
1.0302
1.02906
1.02792
1.0268
1.02568
1.02457
1.02348
1.02239
1.02131
1.02024
1.01918
1.01813
1.01708
1.01605
1.01502
1.014
1.01299
1.01198
1.01098
1.00999
1.009
1.00803
1.00705
1.00609
1.00513
1.00418
1.00323
1.00229
1.00135
1.00043
0.999503
0.998585
0.997674
0.996767
0.995866
0.99497
0.99408
0.993195
0.992314
0.991439
0.990568
0.989703
0.988842
0.987986
0.987134
0.986287
0.985445
0.984607
0.983774
0.982945
0.982121
0.981302
0.980487
0.979676
0.97887
0.978068
0.97727
0.976477
0.975689
0.974904
0.974124
0.973348
0.972577
0.97181
0.971047
0.970289
0.969535
0.968785
0.96804
0.9673
0.966564
0.965832
0.965106
0.964383
0.963666
0.962953
0.962245
0.961542
0.960843
0.960149
0.95946
0.958776
0.958096
0.957422
0.956752
0.956088
0.955428
0.954773
0.954124
0.95348
0.95284
0.952207
0.951578
0.950955
0.950337
0.949724
0.949117
0.948515
0.947919
0.947328
0.946742
0.946162
0.945588
0.945019
0.944455
0.943897
0.943345
0.942798
0.942256
0.941721
0.941191
0.940666
0.940148
0.939635
0.939127
0.938626
0.93813
0.937639
0.937155
0.936676
0.936202
0.935735
0.935273
0.934816
0.934365
0.93392
0.93348
0.933046
0.932617
0.932194
0.931776
0.931364
0.930957
0.930556
0.93016
0.929769
0.929385
0.929004
0.928631
0.928261
0.927899
0.927538
0.927188
0.926835
0.926498
0.926152
0.925831
0.925487
0.925187
0.924836
0.924569
0.924196
0.923985
0.923555
0.92345
0.92289
1.22891
1.22746
1.22509
1.22183
1.21807
1.21433
1.21076
1.20724
1.2037
1.20018
1.19672
1.19333
1.19002
1.18678
1.1836
1.1805
1.17746
1.17449
1.17158
1.16873
1.16594
1.1632
1.16053
1.1579
1.15533
1.1528
1.15032
1.14789
1.1455
1.14315
1.14085
1.13858
1.13635
1.13416
1.13201
1.12989
1.1278
1.12575
1.12373
1.12174
1.11978
1.11785
1.11594
1.11407
1.11222
1.11039
1.1086
1.10682
1.10507
1.10335
1.10164
1.09996
1.0983
1.09666
1.09505
1.09345
1.09187
1.09031
1.08877
1.08725
1.08575
1.08427
1.0828
1.08135
1.07991
1.0785
1.07709
1.07571
1.07434
1.07298
1.07164
1.07031
1.06899
1.06769
1.0664
1.06512
1.06386
1.06261
1.06137
1.06014
1.05893
1.05772
1.05653
1.05534
1.05417
1.05301
1.05186
1.05071
1.04958
1.04845
1.04734
1.04623
1.04513
1.04404
1.04296
1.04188
1.04082
1.03976
1.03871
1.03766
1.03663
1.0356
1.03457
1.03356
1.03255
1.03155
1.03055
1.02956
1.02858
1.0276
1.02663
1.02567
1.02471
1.02376
1.02281
1.02187
1.02093
1.02
1.01907
1.01815
1.01723
1.01632
1.01542
1.01452
1.01362
1.01273
1.01185
1.01096
1.01009
1.00922
1.00835
1.00748
1.00663
1.00577
1.00492
1.00408
1.00323
1.0024
1.00157
1.00074
0.999915
0.999096
0.998281
0.997471
0.996665
0.995863
0.995065
0.994271
0.993482
0.992697
0.991916
0.99114
0.990368
0.9896
0.988836
0.988077
0.987323
0.986573
0.985827
0.985086
0.98435
0.983618
0.982891
0.982169
0.981451
0.980738
0.98003
0.979326
0.978627
0.977933
0.977244
0.976559
0.97588
0.975205
0.974535
0.973871
0.973211
0.972557
0.971908
0.971264
0.970626
0.969993
0.969365
0.968743
0.968125
0.967514
0.966907
0.966306
0.965711
0.96512
0.964535
0.963956
0.963382
0.962814
0.962251
0.961693
0.961142
0.960595
0.960055
0.95952
0.958991
0.958467
0.95795
0.957438
0.956931
0.95643
0.955935
0.955445
0.954961
0.954483
0.95401
0.953542
0.953081
0.952624
0.952173
0.951728
0.951288
0.950853
0.950425
0.950001
0.949584
0.949171
0.948765
0.948362
0.947967
0.947574
0.947192
0.946807
0.946439
0.94606
0.945709
0.945331
0.945002
0.944616
0.944324
0.943911
0.943681
0.943204
0.943089
0.942472
1.22858
1.22842
1.22783
1.22655
1.22456
1.22228
1.21993
1.21752
1.21502
1.21245
1.20984
1.20723
1.20463
1.20203
1.19944
1.19688
1.19434
1.19183
1.18935
1.1869
1.18448
1.18209
1.17973
1.17741
1.17511
1.17285
1.17062
1.16842
1.16625
1.16411
1.16199
1.15991
1.15785
1.15583
1.15382
1.15185
1.1499
1.14797
1.14607
1.1442
1.14234
1.14052
1.13871
1.13693
1.13516
1.13342
1.1317
1.13
1.12832
1.12666
1.12502
1.1234
1.1218
1.12021
1.11864
1.11709
1.11556
1.11404
1.11254
1.11106
1.10959
1.10814
1.1067
1.10528
1.10387
1.10247
1.10109
1.09973
1.09837
1.09703
1.09571
1.09439
1.09309
1.0918
1.09052
1.08925
1.088
1.08675
1.08552
1.08429
1.08308
1.08187
1.08068
1.0795
1.07832
1.07716
1.076
1.07485
1.07371
1.07258
1.07146
1.07035
1.06924
1.06814
1.06705
1.06596
1.06489
1.06382
1.06276
1.0617
1.06065
1.05961
1.05858
1.05755
1.05653
1.05551
1.0545
1.0535
1.0525
1.05151
1.05052
1.04954
1.04856
1.04759
1.04663
1.04567
1.04471
1.04376
1.04282
1.04188
1.04095
1.04002
1.0391
1.03818
1.03726
1.03635
1.03545
1.03455
1.03365
1.03276
1.03187
1.03099
1.03011
1.02924
1.02837
1.0275
1.02664
1.02578
1.02493
1.02408
1.02324
1.0224
1.02156
1.02073
1.0199
1.01908
1.01826
1.01744
1.01663
1.01582
1.01502
1.01422
1.01343
1.01263
1.01185
1.01106
1.01029
1.00951
1.00874
1.00797
1.00721
1.00646
1.0057
1.00496
1.00421
1.00347
1.00274
1.00201
1.00128
1.00056
0.999845
0.999132
0.998425
0.997722
0.997023
0.99633
0.995641
0.994957
0.994278
0.993604
0.992936
0.992272
0.991613
0.99096
0.990312
0.989669
0.989031
0.988398
0.987771
0.987149
0.986531
0.985919
0.985313
0.984711
0.984115
0.983524
0.982938
0.982358
0.981783
0.981214
0.980651
0.980093
0.97954
0.978993
0.978452
0.977916
0.977386
0.976862
0.976343
0.975829
0.975321
0.974818
0.974321
0.973829
0.973343
0.972861
0.972386
0.971916
0.971451
0.970991
0.970538
0.970089
0.969647
0.969209
0.968779
0.96835
0.967933
0.967512
0.96711
0.966694
0.966309
0.965894
0.965534
0.965108
0.964788
0.964331
0.964078
0.96355
0.963422
0.962742
1.22836
1.22841
1.22837
1.22818
1.22756
1.22659
1.2254
1.22404
1.22252
1.22087
1.21914
1.21733
1.21548
1.21359
1.21167
1.20973
1.20777
1.20581
1.20384
1.20187
1.1999
1.19794
1.19598
1.19404
1.1921
1.19018
1.18827
1.18638
1.1845
1.18264
1.18079
1.17895
1.17714
1.17534
1.17355
1.17178
1.17003
1.16829
1.16657
1.16486
1.16317
1.1615
1.15984
1.1582
1.15658
1.15497
1.15337
1.15179
1.15023
1.14868
1.14714
1.14562
1.14412
1.14262
1.14114
1.13968
1.13822
1.13678
1.13536
1.13395
1.13255
1.13116
1.12978
1.12842
1.12707
1.12573
1.1244
1.12308
1.12178
1.12048
1.1192
1.11792
1.11666
1.11541
1.11416
1.11293
1.1117
1.11049
1.10928
1.10808
1.10689
1.10571
1.10454
1.10337
1.10222
1.10107
1.09993
1.0988
1.09767
1.09656
1.09544
1.09434
1.09324
1.09215
1.09107
1.08999
1.08892
1.08786
1.0868
1.08575
1.0847
1.08366
1.08263
1.0816
1.08058
1.07956
1.07855
1.07755
1.07655
1.07555
1.07456
1.07358
1.0726
1.07162
1.07065
1.06969
1.06873
1.06777
1.06682
1.06588
1.06493
1.064
1.06307
1.06214
1.06122
1.0603
1.05938
1.05848
1.05757
1.05667
1.05577
1.05488
1.05399
1.0531
1.05222
1.05134
1.05047
1.0496
1.04873
1.04787
1.04701
1.04616
1.04531
1.04447
1.04362
1.04279
1.04195
1.04112
1.0403
1.03947
1.03866
1.03784
1.03703
1.03622
1.03542
1.03462
1.03382
1.03303
1.03224
1.03145
1.03067
1.0299
1.02912
1.02836
1.02759
1.02683
1.02608
1.02533
1.02458
1.02384
1.0231
1.02236
1.02163
1.02091
1.02018
1.01947
1.01875
1.01804
1.01734
1.01664
1.01594
1.01525
1.01457
1.01389
1.01321
1.01254
1.01187
1.01121
1.01056
1.0099
1.00926
1.00862
1.00798
1.00735
1.00672
1.0061
1.00548
1.00487
1.00426
1.00366
1.00306
1.00247
1.00189
1.00131
1.00073
1.00016
0.999597
0.999039
0.998485
0.997937
0.997395
0.996857
0.996325
0.995798
0.995277
0.99476
0.994249
0.993742
0.993242
0.992745
0.992256
0.99177
0.991292
0.990816
0.99035
0.989884
0.989431
0.988972
0.988534
0.98808
0.987661
0.987207
0.986814
0.986347
0.985997
0.985494
0.985218
0.984636
0.984493
0.983748
1.22831
1.22832
1.22831
1.22832
1.22827
1.22808
1.22774
1.22725
1.22659
1.22579
1.22485
1.22382
1.22269
1.22149
1.22023
1.21892
1.21757
1.21617
1.21475
1.21331
1.21184
1.21035
1.20885
1.20734
1.20582
1.2043
1.20277
1.20124
1.19971
1.19818
1.19665
1.19512
1.1936
1.19209
1.19057
1.18907
1.18756
1.18607
1.18458
1.1831
1.18162
1.18016
1.1787
1.17725
1.17581
1.17438
1.17296
1.17155
1.17014
1.16875
1.16736
1.16599
1.16462
1.16326
1.16191
1.16057
1.15924
1.15792
1.1566
1.1553
1.154
1.15272
1.15144
1.15017
1.14891
1.14766
1.14642
1.14518
1.14396
1.14274
1.14153
1.14032
1.13913
1.13794
1.13676
1.13558
1.13442
1.13326
1.1321
1.13096
1.12982
1.12869
1.12756
1.12644
1.12533
1.12422
1.12312
1.12203
1.12094
1.11986
1.11878
1.11771
1.11665
1.11559
1.11453
1.11348
1.11244
1.1114
1.11036
1.10933
1.10831
1.10729
1.10628
1.10527
1.10426
1.10327
1.10227
1.10128
1.1003
1.09932
1.09834
1.09737
1.09641
1.09544
1.09448
1.09353
1.09258
1.09163
1.09069
1.08975
1.08881
1.08788
1.08696
1.08603
1.08512
1.0842
1.0833
1.08239
1.08149
1.08059
1.0797
1.07881
1.07792
1.07704
1.07615
1.07528
1.0744
1.07353
1.07266
1.0718
1.07094
1.07008
1.06923
1.06838
1.06754
1.0667
1.06586
1.06503
1.0642
1.06337
1.06255
1.06173
1.06091
1.0601
1.05928
1.05848
1.05767
1.05687
1.05607
1.05528
1.05449
1.0537
1.05292
1.05214
1.05136
1.05059
1.04983
1.04906
1.0483
1.04755
1.0468
1.04605
1.0453
1.04456
1.04382
1.04309
1.04236
1.04163
1.04091
1.04019
1.03948
1.03877
1.03806
1.03736
1.03666
1.03597
1.03528
1.0346
1.03392
1.03325
1.03258
1.03191
1.03125
1.0306
1.02995
1.0293
1.02866
1.02802
1.02738
1.02675
1.02613
1.02551
1.02489
1.02429
1.02368
1.02308
1.02249
1.0219
1.02131
1.02074
1.02016
1.01959
1.01903
1.01847
1.01792
1.01737
1.01683
1.01629
1.01575
1.01522
1.0147
1.01418
1.01367
1.01316
1.01265
1.01215
1.01167
1.01117
1.0107
1.01021
1.00976
1.00926
1.00884
1.00833
1.00795
1.00741
1.00711
1.00647
1.00631
1.0055
1.22831
1.22829
1.22828
1.22827
1.22828
1.22827
1.22823
1.22816
1.22802
1.2278
1.2275
1.2271
1.22662
1.22605
1.2254
1.22468
1.22389
1.22305
1.22217
1.22124
1.22026
1.21926
1.21823
1.21716
1.21608
1.21497
1.21385
1.21271
1.21156
1.2104
1.20923
1.20805
1.20686
1.20566
1.20446
1.20326
1.20205
1.20084
1.19962
1.19841
1.19719
1.19597
1.19476
1.19354
1.19233
1.19112
1.18991
1.18871
1.1875
1.18631
1.18511
1.18392
1.18273
1.18155
1.18037
1.17919
1.17802
1.17685
1.17568
1.17453
1.17337
1.17222
1.17108
1.16994
1.1688
1.16767
1.16655
1.16543
1.16432
1.16321
1.1621
1.161
1.15991
1.15882
1.15773
1.15665
1.15557
1.1545
1.15343
1.15236
1.1513
1.15024
1.14919
1.14814
1.1471
1.14606
1.14503
1.144
1.14298
1.14196
1.14094
1.13993
1.13892
1.13792
1.13691
1.13592
1.13492
1.13393
1.13294
1.13196
1.13098
1.13
1.12903
1.12806
1.1271
1.12614
1.12519
1.12423
1.12329
1.12234
1.1214
1.12046
1.11953
1.1186
1.11767
1.11675
1.11582
1.11491
1.11399
1.11308
1.11217
1.11126
1.11036
1.10946
1.10856
1.10767
1.10679
1.1059
1.10502
1.10415
1.10327
1.1024
1.10153
1.10067
1.0998
1.09894
1.09809
1.09723
1.09638
1.09553
1.09468
1.09384
1.093
1.09216
1.09133
1.0905
1.08967
1.08885
1.08803
1.08721
1.0864
1.08559
1.08478
1.08397
1.08317
1.08237
1.08157
1.08077
1.07998
1.07919
1.0784
1.07762
1.07684
1.07606
1.07528
1.07451
1.07375
1.07298
1.07222
1.07147
1.07071
1.06997
1.06922
1.06848
1.06773
1.067
1.06626
1.06553
1.0648
1.06408
1.06335
1.06263
1.06192
1.06121
1.0605
1.0598
1.0591
1.05841
1.05772
1.05703
1.05635
1.05567
1.055
1.05433
1.05366
1.053
1.05234
1.05168
1.05103
1.05038
1.04974
1.0491
1.04847
1.04784
1.04721
1.04659
1.04597
1.04536
1.04475
1.04415
1.04356
1.04296
1.04238
1.04179
1.04122
1.04064
1.04007
1.03951
1.03895
1.03839
1.03784
1.03729
1.03675
1.03621
1.03568
1.03514
1.03463
1.0341
1.0336
1.03308
1.0326
1.03207
1.03162
1.03107
1.03067
1.03008
1.02976
1.02908
1.02891
1.02805
1.22831
1.22829
1.22827
1.22826
1.22826
1.22826
1.22825
1.22825
1.22823
1.22821
1.22817
1.2281
1.228
1.22785
1.22766
1.22741
1.22712
1.22676
1.22636
1.2259
1.2254
1.22485
1.22426
1.22363
1.22297
1.22227
1.22155
1.2208
1.22003
1.21924
1.21843
1.2176
1.21676
1.2159
1.21503
1.21414
1.21325
1.21234
1.21142
1.2105
1.20956
1.20862
1.20767
1.20672
1.20576
1.2048
1.20383
1.20287
1.20189
1.20092
1.19995
1.19897
1.198
1.19702
1.19604
1.19506
1.19408
1.1931
1.19211
1.19113
1.19015
1.18917
1.18819
1.18721
1.18623
1.18525
1.18428
1.18331
1.18234
1.18137
1.1804
1.17943
1.17847
1.17751
1.17654
1.17558
1.17463
1.17367
1.17271
1.17176
1.1708
1.16985
1.1689
1.16796
1.16701
1.16607
1.16513
1.1642
1.16326
1.16233
1.16141
1.16048
1.15956
1.15863
1.15771
1.1568
1.15588
1.15497
1.15405
1.15314
1.15223
1.15132
1.15042
1.14952
1.14862
1.14772
1.14683
1.14594
1.14506
1.14417
1.14329
1.14241
1.14154
1.14066
1.13979
1.13892
1.13805
1.13718
1.13632
1.13546
1.13459
1.13373
1.13288
1.13202
1.13117
1.13033
1.12948
1.12864
1.1278
1.12697
1.12613
1.1253
1.12448
1.12365
1.12283
1.122
1.12118
1.12036
1.11955
1.11873
1.11792
1.1171
1.11629
1.11549
1.11468
1.11388
1.11309
1.11229
1.1115
1.11071
1.10993
1.10915
1.10836
1.10759
1.10681
1.10603
1.10526
1.10449
1.10372
1.10295
1.10218
1.10142
1.10065
1.0999
1.09914
1.09839
1.09764
1.09689
1.09615
1.09541
1.09467
1.09394
1.0932
1.09247
1.09175
1.09102
1.0903
1.08958
1.08886
1.08814
1.08743
1.08672
1.08601
1.0853
1.0846
1.0839
1.08321
1.08252
1.08183
1.08115
1.08047
1.07979
1.07912
1.07845
1.07778
1.07712
1.07646
1.0758
1.07515
1.0745
1.07385
1.0732
1.07256
1.07192
1.07129
1.07065
1.07003
1.06941
1.06879
1.06818
1.06757
1.06696
1.06637
1.06577
1.06518
1.06459
1.06401
1.06343
1.06285
1.06228
1.06171
1.06115
1.06059
1.06003
1.05948
1.05892
1.05838
1.05784
1.05731
1.05677
1.05627
1.05571
1.05524
1.05467
1.05425
1.05364
1.0533
1.05259
1.05241
1.05149
1.22831
1.22829
1.22827
1.22826
1.22826
1.22826
1.22825
1.22825
1.22824
1.22823
1.22823
1.22822
1.22821
1.2282
1.22817
1.22814
1.22809
1.22802
1.22793
1.22781
1.22766
1.22748
1.22727
1.22702
1.22673
1.22641
1.22606
1.22568
1.22527
1.22483
1.22437
1.22388
1.22337
1.22284
1.22229
1.22173
1.22114
1.22054
1.21992
1.21929
1.21864
1.21798
1.21731
1.21663
1.21594
1.21524
1.21453
1.21381
1.21309
1.21236
1.21162
1.21088
1.21014
1.20939
1.20863
1.20787
1.2071
1.20633
1.20555
1.20477
1.20398
1.2032
1.2024
1.20161
1.20081
1.20002
1.19922
1.19842
1.19762
1.19682
1.19601
1.19521
1.1944
1.1936
1.19279
1.19198
1.19117
1.19036
1.18954
1.18873
1.18791
1.1871
1.18628
1.18547
1.18465
1.18383
1.18302
1.18221
1.18139
1.18058
1.17977
1.17896
1.17816
1.17735
1.17654
1.17573
1.17492
1.17411
1.17331
1.1725
1.17169
1.17088
1.17007
1.16927
1.16846
1.16766
1.16686
1.16606
1.16526
1.16447
1.16368
1.16288
1.1621
1.16131
1.16052
1.15973
1.15895
1.15816
1.15737
1.15659
1.1558
1.15502
1.15423
1.15345
1.15267
1.15189
1.15112
1.15034
1.14958
1.14881
1.14804
1.14728
1.14652
1.14576
1.145
1.14424
1.14349
1.14273
1.14197
1.14122
1.14046
1.13971
1.13895
1.1382
1.13745
1.1367
1.13596
1.13522
1.13448
1.13374
1.13301
1.13228
1.13155
1.13082
1.1301
1.12937
1.12865
1.12792
1.1272
1.12647
1.12575
1.12503
1.12431
1.12359
1.12288
1.12216
1.12145
1.12074
1.12004
1.11934
1.11864
1.11794
1.11725
1.11655
1.11586
1.11517
1.11449
1.1138
1.11311
1.11243
1.11174
1.11106
1.11038
1.1097
1.10902
1.10835
1.10768
1.10701
1.10635
1.10568
1.10503
1.10437
1.10372
1.10307
1.10243
1.10178
1.10114
1.1005
1.09987
1.09923
1.0986
1.09796
1.09733
1.09671
1.09608
1.09546
1.09484
1.09423
1.09362
1.09301
1.09241
1.09181
1.09122
1.09063
1.09004
1.08946
1.08888
1.0883
1.08772
1.08715
1.08658
1.08602
1.08545
1.08489
1.08434
1.08378
1.08323
1.08268
1.08215
1.08159
1.08108
1.08052
1.08004
1.07946
1.07903
1.0784
1.07806
1.07733
1.07715
1.07622
1.22831
1.22829
1.22827
1.22826
1.22826
1.22826
1.22825
1.22824
1.22824
1.22823
1.22823
1.22822
1.22822
1.22822
1.22821
1.22821
1.22821
1.2282
1.2282
1.22818
1.22817
1.22814
1.22811
1.22807
1.22801
1.22794
1.22785
1.22774
1.22762
1.22747
1.22731
1.22712
1.22692
1.22669
1.22644
1.22617
1.22588
1.22557
1.22524
1.22489
1.22452
1.22414
1.22374
1.22332
1.22289
1.22245
1.222
1.22153
1.22106
1.22058
1.22008
1.21958
1.21908
1.21856
1.21803
1.2175
1.21696
1.21641
1.21586
1.2153
1.21473
1.21415
1.21357
1.21298
1.21239
1.21179
1.21119
1.21058
1.20997
1.20936
1.20875
1.20813
1.20751
1.20689
1.20627
1.20564
1.205
1.20437
1.20373
1.20308
1.20244
1.20179
1.20113
1.20048
1.19982
1.19916
1.19851
1.19785
1.19719
1.19653
1.19587
1.19521
1.19455
1.19389
1.19323
1.19256
1.1919
1.19123
1.19056
1.18989
1.18922
1.18854
1.18787
1.18719
1.18651
1.18584
1.18516
1.18449
1.18382
1.18315
1.18248
1.18181
1.18114
1.18047
1.1798
1.17913
1.17847
1.1778
1.17712
1.17645
1.17578
1.1751
1.17443
1.17375
1.17308
1.1724
1.17173
1.17106
1.17039
1.16973
1.16906
1.1684
1.16774
1.16708
1.16642
1.16577
1.16511
1.16445
1.16378
1.16312
1.16246
1.16179
1.16113
1.16047
1.1598
1.15914
1.15849
1.15783
1.15718
1.15652
1.15587
1.15523
1.15458
1.15394
1.15329
1.15265
1.15201
1.15136
1.15072
1.15007
1.14943
1.14878
1.14813
1.14749
1.14684
1.1462
1.14556
1.14492
1.14429
1.14365
1.14302
1.14239
1.14177
1.14114
1.14052
1.13989
1.13927
1.13865
1.13803
1.1374
1.13678
1.13616
1.13553
1.13491
1.13429
1.13367
1.13305
1.13244
1.13183
1.13122
1.13061
1.13
1.1294
1.1288
1.12821
1.12761
1.12702
1.12643
1.12583
1.12524
1.12465
1.12406
1.12347
1.12288
1.1223
1.12171
1.12113
1.12055
1.11997
1.1194
1.11883
1.11826
1.1177
1.11714
1.11658
1.11602
1.11547
1.11492
1.11438
1.11383
1.11328
1.11274
1.1122
1.11166
1.11112
1.11058
1.11005
1.10952
1.109
1.10846
1.10796
1.10741
1.10695
1.10638
1.10596
1.10534
1.10501
1.10429
1.10411
1.1032
1.22831
1.22829
1.22827
1.22826
1.22826
1.22826
1.22825
1.22824
1.22824
1.22823
1.22823
1.22822
1.22822
1.22822
1.22821
1.22821
1.22821
1.22821
1.22821
1.22821
1.22821
1.2282
1.2282
1.22819
1.22819
1.22818
1.22817
1.22816
1.22814
1.22812
1.22809
1.22807
1.22803
1.22799
1.22794
1.22788
1.22781
1.22773
1.22763
1.22752
1.2274
1.22727
1.22712
1.22695
1.22677
1.22658
1.22637
1.22615
1.22593
1.22569
1.22544
1.22517
1.2249
1.22462
1.22433
1.22404
1.22373
1.22341
1.22308
1.22274
1.22239
1.22204
1.22168
1.22131
1.22093
1.22055
1.22016
1.21976
1.21936
1.21896
1.21856
1.21815
1.21773
1.21731
1.21689
1.21647
1.21603
1.2156
1.21516
1.21471
1.21426
1.2138
1.21334
1.21288
1.21241
1.21194
1.21147
1.21099
1.21052
1.21005
1.20957
1.20909
1.20861
1.20813
1.20765
1.20716
1.20668
1.20618
1.20569
1.20519
1.20469
1.20419
1.20368
1.20317
1.20266
1.20215
1.20164
1.20113
1.20062
1.20011
1.1996
1.19909
1.19858
1.19807
1.19756
1.19705
1.19654
1.19602
1.19551
1.19499
1.19446
1.19394
1.19341
1.19288
1.19235
1.19182
1.19129
1.19076
1.19024
1.18971
1.18919
1.18867
1.18815
1.18763
1.18711
1.18659
1.18606
1.18554
1.18501
1.18448
1.18395
1.18342
1.18288
1.18235
1.18181
1.18128
1.18074
1.18021
1.17968
1.17915
1.17863
1.1781
1.17758
1.17705
1.17653
1.17601
1.17548
1.17496
1.17443
1.1739
1.17337
1.17284
1.1723
1.17177
1.17123
1.1707
1.17017
1.16964
1.16911
1.16858
1.16805
1.16753
1.16701
1.16648
1.16596
1.16544
1.16492
1.1644
1.16388
1.16335
1.16283
1.1623
1.16177
1.16125
1.16072
1.16019
1.15966
1.15914
1.15861
1.15809
1.15757
1.15705
1.15654
1.15602
1.15551
1.155
1.15449
1.15398
1.15347
1.15295
1.15244
1.15193
1.15142
1.1509
1.15039
1.14987
1.14936
1.14885
1.14834
1.14783
1.14733
1.14683
1.14633
1.14583
1.14534
1.14484
1.14435
1.14386
1.14338
1.14289
1.1424
1.14191
1.14143
1.14094
1.14045
1.13996
1.13949
1.13899
1.13852
1.13803
1.13758
1.13707
1.13664
1.13612
1.13574
1.13517
1.13486
1.1342
1.13403
1.13319
1.22831
1.22829
1.22827
1.22826
1.22826
1.22826
1.22825
1.22824
1.22824
1.22823
1.22823
1.22822
1.22822
1.22822
1.22821
1.22821
1.22821
1.22821
1.22821
1.22821
1.22821
1.2282
1.2282
1.2282
1.22819
1.22819
1.22818
1.22818
1.22818
1.22817
1.22817
1.22816
1.22816
1.22816
1.22815
1.22815
1.22814
1.22813
1.22812
1.2281
1.22808
1.22806
1.22803
1.22799
1.22795
1.2279
1.22784
1.22778
1.22772
1.22764
1.22756
1.22748
1.22738
1.22728
1.22718
1.22706
1.22693
1.2268
1.22666
1.22651
1.22635
1.22618
1.22601
1.22583
1.22564
1.22544
1.22524
1.22504
1.22483
1.22461
1.22439
1.22417
1.22394
1.22371
1.22348
1.22323
1.22299
1.22273
1.22247
1.22221
1.22194
1.22167
1.22139
1.2211
1.22082
1.22053
1.22023
1.21994
1.21964
1.21934
1.21904
1.21874
1.21843
1.21813
1.21782
1.2175
1.21719
1.21687
1.21654
1.21621
1.21588
1.21555
1.21521
1.21486
1.21452
1.21417
1.21383
1.21348
1.21313
1.21278
1.21243
1.21208
1.21173
1.21138
1.21103
1.21067
1.21032
1.20995
1.20959
1.20922
1.20885
1.20848
1.2081
1.20772
1.20734
1.20696
1.20658
1.2062
1.20582
1.20544
1.20506
1.20468
1.2043
1.20392
1.20354
1.20316
1.20277
1.20239
1.202
1.2016
1.20121
1.20081
1.20041
1.20001
1.1996
1.1992
1.1988
1.1984
1.19799
1.19759
1.1972
1.1968
1.1964
1.196
1.1956
1.1952
1.1948
1.1944
1.19399
1.19358
1.19317
1.19276
1.19234
1.19193
1.19151
1.19109
1.19067
1.19026
1.18984
1.18943
1.18902
1.1886
1.18819
1.18778
1.18737
1.18696
1.18655
1.18613
1.18572
1.1853
1.18488
1.18446
1.18403
1.18361
1.18318
1.18276
1.18233
1.18191
1.18148
1.18106
1.18064
1.18022
1.1798
1.17938
1.17896
1.17855
1.17813
1.17771
1.17729
1.17687
1.17645
1.17603
1.1756
1.17517
1.17475
1.17432
1.17389
1.17347
1.17304
1.17262
1.1722
1.17178
1.17136
1.17094
1.17053
1.17011
1.1697
1.16928
1.16887
1.16846
1.16804
1.16763
1.16721
1.16679
1.16638
1.16596
1.16555
1.16512
1.16472
1.16429
1.1639
1.16346
1.16309
1.16264
1.16231
1.16181
1.16154
1.16097
1.16082
1.16008
1.22831
1.22829
1.22827
1.22826
1.22826
1.22826
1.22825
1.22824
1.22824
1.22823
1.22823
1.22822
1.22822
1.22822
1.22821
1.22821
1.22821
1.22821
1.22821
1.22821
1.22821
1.2282
1.2282
1.2282
1.22819
1.22819
1.22818
1.22818
1.22817
1.22817
1.22817
1.22816
1.22816
1.22816
1.22816
1.22816
1.22816
1.22815
1.22815
1.22815
1.22814
1.22813
1.22813
1.22812
1.2281
1.22809
1.22807
1.22805
1.22804
1.22802
1.22799
1.22797
1.22794
1.22791
1.22788
1.22784
1.2278
1.22775
1.2277
1.22764
1.22758
1.22751
1.22743
1.22735
1.22727
1.22718
1.22709
1.22699
1.22689
1.22679
1.22669
1.22658
1.22646
1.22634
1.22622
1.2261
1.22596
1.22583
1.22569
1.22554
1.22539
1.22523
1.22507
1.22491
1.22474
1.22457
1.2244
1.22422
1.22405
1.22387
1.22369
1.2235
1.22332
1.22313
1.22293
1.22274
1.22254
1.22234
1.22213
1.22192
1.2217
1.22148
1.22126
1.22103
1.22081
1.22058
1.22035
1.22012
1.21988
1.21965
1.21942
1.21918
1.21894
1.2187
1.21846
1.21822
1.21797
1.21772
1.21747
1.21721
1.21695
1.21668
1.21641
1.21615
1.21587
1.2156
1.21533
1.21506
1.21479
1.21451
1.21424
1.21397
1.2137
1.21342
1.21314
1.21286
1.21258
1.21229
1.21201
1.21171
1.21142
1.21112
1.21082
1.21052
1.21022
1.20992
1.20961
1.20931
1.20901
1.20871
1.20841
1.20811
1.20781
1.2075
1.2072
1.20689
1.20658
1.20627
1.20596
1.20564
1.20532
1.205
1.20468
1.20435
1.20403
1.20371
1.20338
1.20306
1.20273
1.20241
1.20208
1.20176
1.20144
1.20111
1.20079
1.20046
1.20014
1.19981
1.19947
1.19914
1.1988
1.19847
1.19813
1.19779
1.19744
1.1971
1.19676
1.19642
1.19608
1.19574
1.1954
1.19506
1.19472
1.19438
1.19404
1.1937
1.19336
1.19302
1.19268
1.19233
1.19198
1.19164
1.19129
1.19094
1.19058
1.19023
1.18988
1.18953
1.18918
1.18883
1.18848
1.18813
1.18778
1.18743
1.18709
1.18674
1.1864
1.18605
1.1857
1.18535
1.18501
1.18466
1.18431
1.18395
1.1836
1.18325
1.1829
1.18254
1.1822
1.18183
1.1815
1.18113
1.18082
1.18043
1.18014
1.17972
1.17949
1.17899
1.17887
1.17823
1.22831
1.22829
1.22827
1.22826
1.22826
1.22826
1.22825
1.22825
1.22824
1.22823
1.22823
1.22822
1.22822
1.22822
1.22821
1.22821
1.22821
1.22821
1.22821
1.22821
1.2282
1.2282
1.2282
1.22819
1.22819
1.22818
1.22818
1.22817
1.22816
1.22816
1.22816
1.22815
1.22815
1.22815
1.22815
1.22815
1.22815
1.22815
1.22814
1.22814
1.22814
1.22813
1.22813
1.22812
1.22811
1.2281
1.2281
1.22809
1.22808
1.22808
1.22807
1.22806
1.22806
1.22805
1.22804
1.22802
1.22801
1.22799
1.22796
1.22794
1.22791
1.22788
1.22785
1.22781
1.22777
1.22773
1.22769
1.22765
1.2276
1.22755
1.2275
1.22745
1.22739
1.22733
1.22726
1.2272
1.22713
1.22705
1.22697
1.22689
1.2268
1.22671
1.22662
1.22652
1.22643
1.22633
1.22622
1.22612
1.22601
1.2259
1.22579
1.22568
1.22556
1.22545
1.22532
1.2252
1.22507
1.22494
1.2248
1.22467
1.22452
1.22438
1.22423
1.22408
1.22393
1.22378
1.22362
1.22347
1.22331
1.22315
1.22299
1.22283
1.22266
1.2225
1.22233
1.22216
1.22198
1.22181
1.22162
1.22144
1.22125
1.22106
1.22087
1.22068
1.22048
1.22029
1.22009
1.2199
1.2197
1.2195
1.2193
1.2191
1.2189
1.21869
1.21849
1.21828
1.21807
1.21785
1.21764
1.21742
1.21719
1.21697
1.21674
1.21652
1.21629
1.21606
1.21583
1.2156
1.21537
1.21514
1.21491
1.21468
1.21445
1.21421
1.21398
1.21374
1.2135
1.21325
1.21301
1.21276
1.21251
1.21226
1.21201
1.21175
1.2115
1.21124
1.21099
1.21073
1.21048
1.21022
1.20997
1.20971
1.20945
1.20919
1.20893
1.20867
1.20841
1.20815
1.20788
1.20761
1.20734
1.20707
1.20679
1.20652
1.20624
1.20597
1.20569
1.20541
1.20514
1.20486
1.20459
1.20431
1.20404
1.20376
1.20348
1.2032
1.20292
1.20264
1.20236
1.20208
1.20179
1.2015
1.20121
1.20092
1.20063
1.20034
1.20005
1.19976
1.19947
1.19918
1.19889
1.1986
1.19832
1.19803
1.19774
1.19745
1.19716
1.19687
1.19658
1.19628
1.19599
1.19569
1.1954
1.1951
1.19481
1.19451
1.19421
1.19391
1.19362
1.19331
1.19303
1.19272
1.19245
1.19212
1.19188
1.19152
1.19133
1.1909
1.19079
1.19025
1.22831
1.22829
1.22827
1.22827
1.22826
1.22826
1.22825
1.22825
1.22824
1.22823
1.22823
1.22822
1.22822
1.22822
1.22821
1.22821
1.22821
1.2282
1.2282
1.2282
1.22819
1.22819
1.22819
1.22818
1.22818
1.22817
1.22816
1.22816
1.22815
1.22815
1.22815
1.22815
1.22814
1.22814
1.22814
1.22814
1.22814