/*--------------------------------*- C++ -*----------------------------------*\
  =========                 |
  \\      /  F ield         | OpenFOAM: The Open Source CFD Toolbox
   \\    /   O peration     | Website:  https://openfoam.org
    \\  /    A nd           | Version:  7
     \\/     M anipulation  |
\*---------------------------------------------------------------------------*/
FoamFile
{
    version     2.0;
    format      ascii;
    class       volScalarField;
    location    "0.885";
    object      nut;
}
// * * * * * * * * * * * * * * * * * * * * * * * * * * * * * * * * * * * * * //

dimensions      [0 2 -1 0 0 0 0];

internalField   nonuniform List<scalar> 
4950
(
0.00876788
0.00934035
0.00936082
0.00936998
0.00936603
0.0093702
0.00936636
0.00936896
0.00936532
0.00936686
0.00936329
0.00936405
0.00936066
0.00936094
0.00935802
0.00935785
0.00935656
0.00935477
0.0093602
0.00938268
0.00461087
0.00491349
0.00488111
0.00479152
0.00472405
0.00469102
0.00466792
0.00465831
0.00464771
0.0046435
0.00463644
0.0046336
0.00462812
0.00462586
0.00462175
0.00461962
0.0046198
0.00461345
0.00465837
0.0046737
0.00366509
0.00406163
0.00414934
0.00417192
0.00417587
0.00418273
0.00418479
0.00419013
0.00419192
0.00419609
0.00419693
0.00419932
0.00419933
0.00420048
0.0041999
0.00420029
0.00419926
0.00419877
0.00419964
0.00420695
0.00358382
0.00397863
0.00408168
0.00412317
0.00414235
0.00415995
0.00417011
0.00418268
0.00419008
0.00419996
0.00420527
0.00421267
0.00421618
0.00422166
0.004224
0.00422782
0.00422924
0.00423085
0.00423206
0.00423863
0.00357187
0.00397034
0.00407405
0.00411727
0.00413735
0.00415627
0.00416729
0.00418123
0.00418968
0.00420111
0.00420768
0.00421667
0.00422147
0.00422844
0.00423204
0.0042373
0.00423982
0.00424298
0.00424454
0.00425198
0.00358382
0.00397863
0.00408168
0.00412317
0.00414235
0.00415995
0.00417011
0.00418268
0.00419007
0.00419997
0.00420526
0.00421268
0.00421616
0.00422169
0.00422397
0.00422788
0.00422918
0.00423093
0.00423206
0.00423869
0.00366509
0.00406163
0.00414934
0.00417192
0.00417587
0.00418274
0.00418479
0.00419013
0.00419191
0.0041961
0.00419693
0.00419934
0.00419931
0.00420052
0.00419983
0.00420038
0.00419905
0.00419908
0.00419951
0.00420719
0.00461087
0.00491349
0.00488111
0.00479152
0.00472405
0.00469102
0.00466791
0.00465832
0.0046477
0.0046435
0.00463642
0.00463361
0.00462808
0.00462591
0.00462162
0.00461974
0.00461951
0.00461394
0.00465692
0.00467455
0.00876788
0.00934035
0.00936082
0.00936998
0.00936603
0.0093702
0.00936636
0.00936897
0.00936532
0.00936687
0.00936328
0.00936408
0.00936063
0.009361
0.00935791
0.00935809
0.00935611
0.00935563
0.00935859
0.00938607
0.00344665
0.00414475
0.00423513
0.00422075
0.00421003
0.00419134
0.00418757
0.00417669
0.00417525
0.00416792
0.00416719
0.0041617
0.00416131
0.00415695
0.00415698
0.00415307
0.00415414
0.00414913
0.00414917
0.00416581
0.00297148
0.003764
0.00391956
0.00395212
0.00396053
0.00396489
0.00396792
0.00397077
0.0039725
0.00397397
0.00397453
0.00397491
0.00397479
0.00397462
0.00397402
0.00397378
0.00397302
0.0039727
0.00397411
0.00397862
0.00289766
0.0036836
0.00384325
0.00388153
0.00388982
0.00389467
0.00389659
0.00390036
0.00390253
0.00390579
0.00390744
0.00390961
0.0039106
0.00391178
0.00391228
0.00391247
0.00391248
0.00391197
0.00391124
0.00391889
0.00290077
0.00368533
0.00384332
0.00388124
0.00388938
0.00389334
0.0038942
0.0038964
0.00389748
0.00389957
0.00390039
0.00390162
0.00390193
0.00390244
0.00390248
0.00390234
0.00390185
0.00390077
0.00389997
0.00390516
0.00289405
0.0036777
0.00383672
0.00387547
0.00388362
0.00388776
0.0038884
0.00389046
0.0038913
0.00389325
0.00389382
0.0038949
0.00389499
0.00389531
0.00389517
0.00389496
0.00389409
0.00389315
0.00389113
0.00389577
0.00290077
0.00368534
0.00384332
0.00388124
0.00388938
0.00389334
0.0038942
0.0038964
0.00389748
0.00389958
0.00390038
0.00390163
0.00390192
0.00390246
0.00390246
0.00390236
0.00390179
0.00390083
0.00389989
0.00390515
0.00289766
0.0036836
0.00384325
0.00388153
0.00388982
0.00389467
0.00389658
0.00390036
0.00390252
0.0039058
0.00390743
0.00390963
0.00391056
0.00391184
0.00391219
0.00391256
0.00391236
0.00391214
0.00391095
0.00391904
0.00297148
0.003764
0.00391956
0.00395212
0.00396053
0.00396489
0.00396792
0.00397077
0.0039725
0.00397397
0.00397452
0.00397492
0.00397477
0.00397465
0.00397394
0.00397388
0.00397279
0.00397309
0.00397353
0.00397946
0.00344665
0.00414475
0.00423513
0.00422075
0.00421003
0.00419134
0.00418757
0.00417669
0.00417525
0.00416792
0.00416718
0.00416171
0.00416131
0.00415697
0.00415696
0.00415314
0.00415406
0.00414945
0.00414869
0.00416703
0.000824514
0.00150705
0.00169276
0.00172209
0.00170875
0.00167873
0.00164828
0.0016231
0.00160316
0.00158662
0.00157452
0.00156338
0.00155594
0.00154786
0.00154316
0.00153709
0.00153359
0.00153035
0.00152357
0.00153485
0.000386028
0.000921869
0.00116853
0.0012704
0.00131136
0.00133181
0.00134197
0.00135078
0.00135692
0.00136318
0.00136758
0.00137194
0.00137478
0.00137766
0.00137944
0.00138126
0.00138283
0.00138345
0.00138484
0.00138892
0.0003569
0.000847906
0.00107016
0.00117316
0.00121184
0.00123361
0.00124007
0.00124706
0.00124896
0.00125301
0.00125462
0.00125801
0.00125973
0.00126275
0.00126465
0.00126723
0.00126911
0.00127157
0.00127278
0.00127784
0.000361992
0.000858896
0.00108039
0.0011798
0.00121777
0.00123746
0.0012436
0.00124844
0.00124929
0.00125084
0.001251
0.00125148
0.00125157
0.0012518
0.00125196
0.00125201
0.00125224
0.00125223
0.00125265
0.00125584
0.000356235
0.000846492
0.00106555
0.00116721
0.00120475
0.00122586
0.00123136
0.00123686
0.00123737
0.00123881
0.00123859
0.00123894
0.00123863
0.00123869
0.00123837
0.0012382
0.00123762
0.0012374
0.0012365
0.00123906
0.000361992
0.000858897
0.00108039
0.0011798
0.00121777
0.00123746
0.0012436
0.00124844
0.00124929
0.00125084
0.001251
0.00125148
0.00125157
0.0012518
0.00125196
0.00125201
0.00125223
0.00125223
0.00125263
0.00125582
0.0003569
0.000847907
0.00107015
0.00117316
0.00121184
0.00123361
0.00124007
0.00124706
0.00124896
0.00125301
0.00125462
0.00125802
0.00125971
0.00126276
0.00126462
0.00126725
0.00126906
0.00127156
0.00127274
0.00127775
0.000386028
0.000921869
0.00116853
0.0012704
0.00131136
0.00133181
0.00134197
0.00135078
0.00135692
0.00136319
0.00136757
0.00137195
0.00137475
0.00137769
0.00137939
0.00138131
0.00138272
0.00138348
0.00138478
0.00138885
0.000824514
0.00150705
0.00169276
0.00172209
0.00170875
0.00167873
0.00164828
0.0016231
0.00160316
0.00158663
0.00157452
0.0015634
0.00155593
0.0015479
0.00154316
0.0015372
0.00153359
0.0015306
0.00152358
0.00153548
0.00344665
0.00414475
0.00423513
0.00422075
0.00421003
0.00419134
0.00418757
0.00417669
0.00417525
0.00416792
0.00416719
0.0041617
0.00416131
0.00415695
0.00415698
0.00415307
0.00415414
0.00414913
0.00414917
0.00416581
0.00297148
0.003764
0.00391956
0.00395212
0.00396053
0.00396489
0.00396792
0.00397076
0.0039725
0.00397397
0.00397454
0.00397491
0.00397479
0.00397462
0.00397402
0.00397378
0.00397302
0.0039727
0.00397411
0.00397862
0.00289766
0.0036836
0.00384325
0.00388153
0.00388982
0.00389467
0.00389659
0.00390036
0.00390253
0.00390579
0.00390744
0.00390961
0.0039106
0.00391178
0.00391228
0.00391247
0.00391248
0.00391197
0.00391124
0.00391889
0.00290077
0.00368533
0.00384332
0.00388124
0.00388938
0.00389334
0.0038942
0.0038964
0.00389748
0.00389957
0.00390039
0.00390162
0.00390193
0.00390244
0.00390248
0.00390234
0.00390185
0.00390077
0.00389997
0.00390516
0.00289405
0.0036777
0.00383672
0.00387547
0.00388362
0.00388776
0.0038884
0.00389046
0.0038913
0.00389325
0.00389382
0.0038949
0.00389499
0.00389531
0.00389517
0.00389496
0.00389409
0.00389315
0.00389113
0.00389577
0.00290077
0.00368534
0.00384332
0.00388124
0.00388938
0.00389334
0.0038942
0.0038964
0.00389748
0.00389958
0.00390038
0.00390163
0.00390192
0.00390246
0.00390246
0.00390236
0.00390179
0.00390083
0.00389989
0.00390515
0.00289766
0.0036836
0.00384325
0.00388153
0.00388982
0.00389467
0.00389658
0.00390036
0.00390252
0.0039058
0.00390743
0.00390963
0.00391056
0.00391184
0.00391219
0.00391256
0.00391236
0.00391214
0.00391095
0.00391904
0.00297148
0.003764
0.00391956
0.00395212
0.00396053
0.00396489
0.00396792
0.00397077
0.0039725
0.00397397
0.00397452
0.00397492
0.00397477
0.00397465
0.00397394
0.00397388
0.00397279
0.00397309
0.00397353
0.00397946
0.00344665
0.00414475
0.00423513
0.00422075
0.00421003
0.00419134
0.00418757
0.00417669
0.00417525
0.00416792
0.00416718
0.00416171
0.00416131
0.00415697
0.00415696
0.00415314
0.00415406
0.00414945
0.00414869
0.00416703
0.00876788
0.00934035
0.00936082
0.00936998
0.00936603
0.0093702
0.00936636
0.00936896
0.00936532
0.00936686
0.00936329
0.00936405
0.00936066
0.00936094
0.00935802
0.00935785
0.00935656
0.00935477
0.0093602
0.00938268
0.00461087
0.00491349
0.00488111
0.00479152
0.00472405
0.00469102
0.00466792
0.00465831
0.00464771
0.0046435
0.00463644
0.0046336
0.00462812
0.00462587
0.00462175
0.00461962
0.0046198
0.00461345
0.00465837
0.0046737
0.00366509
0.00406163
0.00414934
0.00417192
0.00417587
0.00418273
0.00418479
0.00419013
0.00419192
0.00419609
0.00419693
0.00419932
0.00419933
0.00420048
0.0041999
0.00420029
0.00419926
0.00419877
0.00419964
0.00420695
0.00358382
0.00397863
0.00408168
0.00412317
0.00414235
0.00415995
0.00417011
0.00418268
0.00419008
0.00419996
0.00420527
0.00421267
0.00421618
0.00422166
0.004224
0.00422782
0.00422924
0.00423085
0.00423206
0.00423863
0.00357187
0.00397034
0.00407405
0.00411727
0.00413735
0.00415627
0.00416729
0.00418123
0.00418968
0.00420111
0.00420768
0.00421667
0.00422147
0.00422844
0.00423204
0.0042373
0.00423982
0.00424298
0.00424454
0.00425197
0.00358382
0.00397863
0.00408168
0.00412317
0.00414235
0.00415995
0.00417011
0.00418268
0.00419007
0.00419997
0.00420526
0.00421268
0.00421616
0.00422169
0.00422397
0.00422788
0.00422918
0.00423093
0.00423206
0.00423869
0.00366509
0.00406163
0.00414934
0.00417192
0.00417587
0.00418274
0.00418479
0.00419013
0.00419191
0.0041961
0.00419693
0.00419934
0.00419931
0.00420052
0.00419983
0.00420038
0.00419905
0.00419908
0.00419951
0.00420719
0.00461087
0.00491349
0.00488111
0.00479152
0.00472405
0.00469102
0.00466791
0.00465832
0.0046477
0.0046435
0.00463642
0.00463361
0.00462808
0.00462591
0.00462162
0.00461974
0.0046195
0.00461394
0.00465692
0.00467455
0.00876788
0.00934035
0.00936082
0.00936998
0.00936603
0.0093702
0.00936636
0.00936897
0.00936532
0.00936687
0.00936328
0.00936408
0.00936063
0.009361
0.00935791
0.00935809
0.00935611
0.00935563
0.00935859
0.00938607
0.027499
0.0277511
0.0278384
0.0279019
0.0279433
0.0279911
0.0280314
0.0280752
0.0281066
0.0281351
0.0281512
0.0281655
0.0281716
0.0281783
0.02818
0.0281838
0.0281841
0.0281868
0.028187
0.0281894
0.0281896
0.0281918
0.0281921
0.0281942
0.0281945
0.0281965
0.0281969
0.0281988
0.0281991
0.0282009
0.0282012
0.0282028
0.0282031
0.0282046
0.0282048
0.0282062
0.0282064
0.0282076
0.0282077
0.0282088
0.0282089
0.0282098
0.0282098
0.0282107
0.0282106
0.0282114
0.0282113
0.028212
0.0282118
0.0282124
0.0282123
0.0282128
0.0282126
0.0282131
0.0282129
0.0282133
0.028213
0.0282134
0.0282132
0.0282135
0.0282133
0.0282136
0.0282133
0.0282136
0.0282134
0.0282136
0.0282133
0.0282136
0.0282133
0.0282135
0.0282132
0.0282134
0.0282131
0.0282132
0.0282129
0.0282131
0.0282128
0.0282128
0.0282125
0.0282126
0.0282122
0.0282122
0.0282119
0.0282118
0.0282116
0.0282111
0.0282111
0.0282107
0.0282061
0.0282017
0.0160444
0.0165658
0.0166269
0.0166712
0.0166914
0.0167244
0.0167449
0.0167761
0.0167929
0.0168154
0.0168238
0.0168374
0.0168403
0.0168488
0.0168494
0.0168558
0.0168558
0.0168613
0.0168613
0.0168664
0.0168665
0.0168713
0.0168716
0.0168762
0.0168766
0.0168809
0.0168813
0.0168854
0.0168858
0.0168897
0.0168901
0.0168937
0.0168941
0.0168975
0.0168979
0.016901
0.0169014
0.0169043
0.0169046
0.0169073
0.0169076
0.0169102
0.0169104
0.0169128
0.016913
0.0169152
0.0169155
0.0169175
0.0169177
0.0169197
0.0169199
0.0169217
0.0169219
0.0169237
0.0169238
0.0169255
0.0169257
0.0169273
0.0169274
0.0169289
0.0169291
0.0169305
0.0169307
0.0169321
0.0169322
0.0169336
0.0169337
0.016935
0.0169351
0.0169363
0.0169364
0.0169376
0.0169377
0.0169388
0.0169388
0.0169399
0.0169399
0.0169409
0.0169409
0.0169419
0.0169418
0.0169427
0.0169427
0.0169434
0.0169434
0.016944
0.016944
0.0169447
0.0169416
0.016941
0.0134717
0.0142064
0.014278
0.0143224
0.0143336
0.0143607
0.0143716
0.0143999
0.0144124
0.0144373
0.0144446
0.0144615
0.0144641
0.0144753
0.0144757
0.0144844
0.0144841
0.0144917
0.0144914
0.0144984
0.0144984
0.0145051
0.0145052
0.0145116
0.0145119
0.014518
0.0145184
0.0145241
0.0145246
0.01453
0.0145305
0.0145356
0.0145361
0.0145409
0.0145415
0.014546
0.0145465
0.0145507
0.0145512
0.0145551
0.0145556
0.0145593
0.0145598
0.0145633
0.0145637
0.0145671
0.0145675
0.0145706
0.014571
0.014574
0.0145745
0.0145773
0.0145778
0.0145805
0.0145809
0.0145836
0.014584
0.0145865
0.014587
0.0145894
0.0145899
0.0145922
0.0145927
0.0145949
0.0145954
0.0145976
0.014598
0.0146002
0.0146006
0.0146027
0.0146031
0.0146051
0.0146055
0.0146074
0.0146078
0.0146096
0.01461
0.0146118
0.0146121
0.0146138
0.0146141
0.0146157
0.014616
0.0146175
0.0146177
0.0146191
0.0146193
0.0146206
0.0146211
0.0146159
0.0131607
0.0140403
0.0141349
0.014183
0.0141906
0.0142125
0.0142172
0.0142412
0.014252
0.0142778
0.0142857
0.0143047
0.0143078
0.0143206
0.0143212
0.0143309
0.0143305
0.0143389
0.0143385
0.0143462
0.014346
0.0143533
0.0143534
0.0143604
0.0143606
0.0143672
0.0143676
0.0143739
0.0143743
0.0143802
0.0143807
0.0143863
0.0143868
0.014392
0.0143925
0.0143974
0.0143979
0.0144025
0.014403
0.0144073
0.0144077
0.0144118
0.0144122
0.0144161
0.0144165
0.0144201
0.0144205
0.014424
0.0144244
0.0144277
0.0144281
0.0144313
0.0144317
0.0144348
0.0144352
0.0144381
0.0144386
0.0144414
0.0144419
0.0144446
0.0144451
0.0144478
0.0144483
0.0144509
0.0144514
0.0144539
0.0144544
0.0144569
0.0144574
0.0144597
0.0144603
0.0144626
0.0144631
0.0144653
0.0144658
0.014468
0.0144685
0.0144706
0.014471
0.0144731
0.0144735
0.0144755
0.0144759
0.0144778
0.0144782
0.01448
0.0144803
0.0144819
0.0144828
0.014478
0.0131568
0.0140477
0.0141426
0.014189
0.0141927
0.0142099
0.0142098
0.0142296
0.014238
0.0142624
0.0142699
0.014289
0.0142922
0.0143054
0.014306
0.014316
0.0143157
0.0143242
0.0143238
0.0143317
0.0143315
0.014339
0.014339
0.0143462
0.0143463
0.0143532
0.0143535
0.0143599
0.0143603
0.0143664
0.0143668
0.0143726
0.014373
0.0143784
0.0143789
0.0143839
0.0143843
0.0143891
0.0143895
0.0143939
0.0143943
0.0143985
0.0143989
0.0144028
0.0144032
0.0144069
0.0144073
0.0144108
0.0144112
0.0144146
0.014415
0.0144182
0.0144187
0.0144218
0.0144222
0.0144252
0.0144257
0.0144286
0.0144291
0.0144319
0.0144324
0.0144351
0.0144356
0.0144383
0.0144388
0.0144414
0.0144419
0.0144445
0.014445
0.0144475
0.014448
0.0144504
0.014451
0.0144533
0.0144538
0.0144561
0.0144566
0.0144588
0.0144593
0.0144615
0.0144619
0.014464
0.0144645
0.0144664
0.0144669
0.0144688
0.0144692
0.0144708
0.0144728
0.0144668
0.0131601
0.01403
0.0141137
0.0141515
0.0141506
0.0141631
0.0141602
0.0141768
0.0141827
0.0142039
0.0142099
0.0142272
0.0142297
0.014242
0.0142424
0.0142519
0.0142515
0.0142598
0.0142594
0.0142671
0.0142669
0.0142742
0.0142742
0.0142812
0.0142814
0.014288
0.0142883
0.0142946
0.014295
0.0143009
0.0143014
0.014307
0.0143074
0.0143127
0.0143132
0.0143181
0.0143185
0.0143232
0.0143236
0.014328
0.0143284
0.0143325
0.0143329
0.0143367
0.0143371
0.0143408
0.0143412
0.0143446
0.014345
0.0143483
0.0143488
0.0143519
0.0143524
0.0143554
0.0143559
0.0143588
0.0143593
0.0143621
0.0143626
0.0143653
0.0143658
0.0143685
0.014369
0.0143716
0.0143721
0.0143746
0.0143751
0.0143776
0.0143781
0.0143805
0.014381
0.0143833
0.0143839
0.0143861
0.0143866
0.0143888
0.0143893
0.0143914
0.0143919
0.014394
0.0143944
0.0143964
0.0143968
0.0143987
0.0143991
0.0144009
0.0144013
0.0144029
0.0144039
0.0143993
0.0134618
0.0141665
0.0142134
0.0142376
0.0142325
0.0142419
0.0142382
0.0142523
0.0142559
0.0142728
0.0142765
0.0142903
0.0142917
0.0143021
0.0143021
0.0143106
0.0143102
0.0143177
0.0143174
0.0143244
0.0143243
0.014331
0.0143311
0.0143375
0.0143378
0.0143439
0.0143442
0.01435
0.0143505
0.0143559
0.0143564
0.0143615
0.014362
0.0143668
0.0143674
0.0143719
0.0143724
0.0143766
0.0143771
0.0143811
0.0143816
0.0143854
0.0143858
0.0143894
0.0143898
0.0143932
0.0143936
0.0143968
0.0143972
0.0144003
0.0144007
0.0144036
0.0144041
0.0144069
0.0144073
0.01441
0.0144104
0.014413
0.0144135
0.014416
0.0144165
0.0144189
0.0144193
0.0144217
0.0144222
0.0144244
0.0144249
0.0144271
0.0144275
0.0144297
0.0144301
0.0144322
0.0144326
0.0144346
0.014435
0.0144369
0.0144373
0.0144391
0.0144395
0.0144413
0.0144416
0.0144433
0.0144436
0.0144452
0.0144454
0.014447
0.0144471
0.0144485
0.0144492
0.0144444
0.0159957
0.0164505
0.0164692
0.0164828
0.0164774
0.0164841
0.0164815
0.0164919
0.0164941
0.0165055
0.0165076
0.0165168
0.0165176
0.0165248
0.0165249
0.0165309
0.0165309
0.0165363
0.0165364
0.0165415
0.0165417
0.0165465
0.0165469
0.0165515
0.0165519
0.0165563
0.0165568
0.016561
0.0165615
0.0165654
0.0165659
0.0165696
0.0165701
0.0165736
0.016574
0.0165773
0.0165777
0.0165808
0.0165812
0.016584
0.0165844
0.016587
0.0165874
0.0165899
0.0165902
0.0165926
0.0165929
0.0165951
0.0165954
0.0165975
0.0165978
0.0165997
0.0166
0.0166019
0.0166022
0.016604
0.0166043
0.016606
0.0166063
0.0166079
0.0166082
0.0166098
0.01661
0.0166115
0.0166118
0.0166133
0.0166135
0.0166149
0.0166152
0.0166165
0.0166168
0.0166181
0.0166183
0.0166195
0.0166197
0.0166209
0.016621
0.0166222
0.0166223
0.0166234
0.0166235
0.0166245
0.0166246
0.0166255
0.0166256
0.0166264
0.0166263
0.0166275
0.0166245
0.0166243
0.0273685
0.0274936
0.0275041
0.0275134
0.0275098
0.0275128
0.0275115
0.0275185
0.0275218
0.02753
0.0275331
0.0275392
0.0275407
0.0275449
0.0275454
0.0275485
0.0275487
0.0275513
0.0275516
0.027554
0.0275543
0.0275567
0.0275571
0.0275593
0.0275598
0.027562
0.0275625
0.0275645
0.027565
0.027567
0.0275675
0.0275693
0.0275698
0.0275715
0.0275719
0.0275735
0.0275739
0.0275753
0.0275756
0.027577
0.0275772
0.0275784
0.0275787
0.0275798
0.0275799
0.0275809
0.0275811
0.027582
0.0275821
0.0275829
0.027583
0.0275838
0.0275839
0.0275846
0.0275846
0.0275853
0.0275853
0.0275859
0.027586
0.0275866
0.0275866
0.0275871
0.0275871
0.0275877
0.0275877
0.0275882
0.0275882
0.0275886
0.0275886
0.0275891
0.0275891
0.0275895
0.0275895
0.0275899
0.0275898
0.0275902
0.0275902
0.0275905
0.0275905
0.0275908
0.0275907
0.027591
0.0275909
0.0275912
0.0275911
0.0275913
0.027591
0.0275914
0.027587
0.0275831
0.013458
0.0137182
0.013767
0.0137973
0.0138212
0.0138467
0.0138693
0.0138929
0.0139092
0.0139251
0.0139334
0.0139429
0.0139463
0.0139525
0.0139539
0.0139588
0.0139596
0.013964
0.0139647
0.013969
0.0139697
0.0139738
0.0139745
0.0139785
0.0139792
0.013983
0.0139837
0.0139873
0.013988
0.0139914
0.013992
0.0139952
0.0139958
0.0139988
0.0139993
0.0140021
0.0140026
0.0140051
0.0140055
0.0140079
0.0140083
0.0140104
0.0140107
0.0140128
0.014013
0.0140149
0.0140151
0.0140168
0.014017
0.0140186
0.0140188
0.0140203
0.0140204
0.0140218
0.014022
0.0140233
0.0140234
0.0140247
0.0140248
0.014026
0.014026
0.0140272
0.0140273
0.0140284
0.0140284
0.0140295
0.0140295
0.0140305
0.0140306
0.0140315
0.0140316
0.0140325
0.0140325
0.0140334
0.0140334
0.0140342
0.0140342
0.0140351
0.014035
0.0140359
0.0140358
0.0140366
0.0140366
0.0140374
0.0140374
0.0140382
0.0140382
0.0140395
0.0140378
0.0140389
0.0128267
0.0133349
0.0133972
0.0134279
0.0134487
0.0134709
0.0134907
0.0135121
0.013528
0.0135428
0.0135511
0.013559
0.0135622
0.0135663
0.0135671
0.0135696
0.0135697
0.0135715
0.0135715
0.0135731
0.013573
0.0135746
0.0135745
0.013576
0.0135759
0.0135773
0.0135772
0.0135785
0.0135784
0.0135796
0.0135796
0.0135807
0.0135807
0.0135818
0.0135817
0.0135827
0.0135827
0.0135836
0.0135836
0.0135845
0.0135845
0.0135853
0.0135853
0.0135861
0.0135861
0.0135868
0.0135868
0.0135876
0.0135875
0.0135882
0.0135882
0.0135889
0.0135889
0.0135895
0.0135895
0.0135901
0.0135901
0.0135907
0.0135907
0.0135913
0.0135913
0.0135918
0.0135919
0.0135924
0.0135924
0.0135929
0.0135929
0.0135934
0.0135935
0.0135939
0.013594
0.0135944
0.0135944
0.0135949
0.0135949
0.0135953
0.0135953
0.0135957
0.0135958
0.0135962
0.0135962
0.0135966
0.0135966
0.013597
0.013597
0.0135973
0.0135974
0.0135977
0.0135981
0.0135978
0.01221
0.012921
0.0130098
0.0130427
0.0130603
0.0130761
0.0130912
0.0131092
0.0131251
0.0131399
0.0131499
0.0131579
0.0131621
0.0131656
0.0131668
0.0131682
0.0131683
0.013169
0.0131688
0.0131692
0.0131689
0.0131693
0.013169
0.0131694
0.0131691
0.0131694
0.0131692
0.0131695
0.0131692
0.0131695
0.0131693
0.0131695
0.0131693
0.0131695
0.0131693
0.0131696
0.0131693
0.0131695
0.0131694
0.0131695
0.0131693
0.0131695
0.0131693
0.0131695
0.0131693
0.0131694
0.0131693
0.0131694
0.0131693
0.0131694
0.0131692
0.0131693
0.0131692
0.0131693
0.0131692
0.0131693
0.0131692
0.0131693
0.0131691
0.0131692
0.0131691
0.0131692
0.0131691
0.0131692
0.0131691
0.0131692
0.0131692
0.0131693
0.0131692
0.0131693
0.0131692
0.0131693
0.0131692
0.0131693
0.0131693
0.0131694
0.0131693
0.0131694
0.0131694
0.0131695
0.0131694
0.0131695
0.0131695
0.0131696
0.0131696
0.0131696
0.0131696
0.0131697
0.0131699
0.0131651
0.0120356
0.0128035
0.0129002
0.012932
0.0129457
0.0129555
0.0129649
0.0129791
0.0129939
0.013009
0.0130202
0.0130294
0.0130348
0.0130389
0.0130407
0.0130423
0.0130426
0.0130433
0.0130432
0.0130435
0.0130433
0.0130436
0.0130434
0.0130436
0.0130435
0.0130437
0.0130435
0.0130437
0.0130435
0.0130437
0.0130435
0.0130437
0.0130435
0.0130436
0.0130435
0.0130436
0.0130434
0.0130435
0.0130433
0.0130434
0.0130433
0.0130434
0.0130432
0.0130433
0.0130431
0.0130431
0.013043
0.013043
0.0130429
0.0130429
0.0130428
0.0130428
0.0130426
0.0130427
0.0130425
0.0130425
0.0130424
0.0130424
0.0130423
0.0130423
0.0130422
0.0130422
0.0130421
0.0130421
0.013042
0.013042
0.0130419
0.0130419
0.0130418
0.0130418
0.0130417
0.0130418
0.0130417
0.0130417
0.0130416
0.0130416
0.0130415
0.0130416
0.0130415
0.0130415
0.0130414
0.0130414
0.0130414
0.0130414
0.0130413
0.0130413
0.0130412
0.0130412
0.0130409
0.013037
0.0119251
0.012734
0.0128323
0.0128604
0.0128695
0.012874
0.0128784
0.0128884
0.0129008
0.0129146
0.0129255
0.0129345
0.0129401
0.0129444
0.0129464
0.0129481
0.0129485
0.0129492
0.0129492
0.0129496
0.0129495
0.0129497
0.0129496
0.0129499
0.0129497
0.01295
0.0129499
0.0129501
0.01295
0.0129502
0.01295
0.0129502
0.0129501
0.0129503
0.0129501
0.0129503
0.0129502
0.0129503
0.0129502
0.0129503
0.0129502
0.0129503
0.0129501
0.0129502
0.0129501
0.0129502
0.0129501
0.0129501
0.01295
0.0129501
0.0129499
0.01295
0.0129499
0.0129499
0.0129498
0.0129498
0.0129497
0.0129497
0.0129496
0.0129497
0.0129496
0.0129496
0.0129495
0.0129495
0.0129494
0.0129494
0.0129493
0.0129494
0.0129493
0.0129493
0.0129492
0.0129492
0.0129492
0.0129492
0.0129491
0.0129491
0.012949
0.0129491
0.012949
0.012949
0.0129489
0.0129489
0.0129489
0.0129489
0.0129488
0.0129488
0.0129486
0.0129486
0.0129488
0.0129436
0.0120346
0.012792
0.0128776
0.0128995
0.0129042
0.0129053
0.0129067
0.0129134
0.0129232
0.0129346
0.0129435
0.0129512
0.0129558
0.0129595
0.0129611
0.0129626
0.0129629
0.0129635
0.0129635
0.0129638
0.0129636
0.0129639
0.0129637
0.012964
0.0129638
0.012964
0.0129638
0.0129641
0.0129639
0.0129641
0.0129639
0.0129641
0.0129639
0.0129641
0.0129639
0.012964
0.0129639
0.012964
0.0129639
0.012964
0.0129638
0.0129639
0.0129637
0.0129638
0.0129637
0.0129637
0.0129636
0.0129637
0.0129635
0.0129636
0.0129634
0.0129635
0.0129633
0.0129634
0.0129632
0.0129633
0.0129632
0.0129632
0.0129631
0.0129631
0.012963
0.012963
0.0129629
0.012963
0.0129629
0.0129629
0.0129628
0.0129628
0.0129627
0.0129628
0.0129627
0.0129627
0.0129626
0.0129627
0.0129626
0.0129626
0.0129626
0.0129626
0.0129625
0.0129626
0.0129625
0.0129625
0.0129625
0.0129625
0.0129624
0.0129625
0.0129623
0.0129624
0.0129622
0.0129584
0.0122017
0.0128846
0.01295
0.0129639
0.012965
0.0129647
0.0129652
0.0129702
0.012977
0.0129853
0.0129912
0.0129967
0.0129996
0.0130024
0.0130033
0.0130045
0.0130046
0.0130052
0.013005
0.0130054
0.0130052
0.0130056
0.0130053
0.0130057
0.0130055
0.0130058
0.0130056
0.0130059
0.0130057
0.013006
0.0130058
0.0130061
0.0130059
0.0130062
0.013006
0.0130062
0.0130061
0.0130063
0.0130061
0.0130063
0.0130062
0.0130064
0.0130062
0.0130064
0.0130063
0.0130065
0.0130063
0.0130065
0.0130064
0.0130065
0.0130064
0.0130066
0.0130065
0.0130066
0.0130065
0.0130067
0.0130066
0.0130067
0.0130066
0.0130068
0.0130067
0.0130069
0.0130068
0.0130069
0.0130069
0.013007
0.013007
0.0130071
0.0130071
0.0130072
0.0130072
0.0130073
0.0130073
0.0130075
0.0130074
0.0130076
0.0130076
0.0130077
0.0130077
0.0130079
0.0130078
0.013008
0.013008
0.0130081
0.0130081
0.0130083
0.0130082
0.0130084
0.0130088
0.0130042
0.0127926
0.0132492
0.0132779
0.0132838
0.0132833
0.0132843
0.0132852
0.0132902
0.0132943
0.0133007
0.0133039
0.0133085
0.01331
0.0133131
0.0133136
0.0133158
0.0133159
0.0133177
0.0133177
0.0133193
0.0133193
0.0133209
0.0133208
0.0133223
0.0133223
0.0133237
0.0133237
0.0133251
0.0133251
0.0133263
0.0133263
0.0133276
0.0133276
0.0133287
0.0133287
0.0133298
0.0133298
0.0133309
0.0133309
0.0133319
0.0133319
0.0133328
0.0133329
0.0133338
0.0133338
0.0133347
0.0133347
0.0133355
0.0133356
0.0133364
0.0133365
0.0133372
0.0133373
0.013338
0.0133381
0.0133388
0.0133389
0.0133395
0.0133396
0.0133403
0.0133404
0.013341
0.0133411
0.0133417
0.0133418
0.0133424
0.0133425
0.0133431
0.0133432
0.0133438
0.0133439
0.0133445
0.0133446
0.0133451
0.0133452
0.0133457
0.0133458
0.0133464
0.0133465
0.013347
0.0133471
0.0133476
0.0133477
0.0133482
0.0133482
0.0133488
0.0133488
0.0133493
0.0133499
0.0133497
0.0133839
0.0135792
0.0135905
0.0135943
0.0135956
0.0135988
0.0136006
0.0136062
0.013609
0.0136153
0.0136174
0.013623
0.0136244
0.0136294
0.0136303
0.0136349
0.0136356
0.0136401
0.0136408
0.0136451
0.0136459
0.0136501
0.0136508
0.0136549
0.0136557
0.0136595
0.0136603
0.013664
0.0136648
0.0136683
0.013669
0.0136723
0.013673
0.0136761
0.0136767
0.0136796
0.0136801
0.0136828
0.0136833
0.0136858
0.0136863
0.0136886
0.013689
0.0136912
0.0136915
0.0136935
0.0136938
0.0136957
0.013696
0.0136978
0.013698
0.0136997
0.0136999
0.0137015
0.0137017
0.0137032
0.0137034
0.0137049
0.0137051
0.0137064
0.0137066
0.0137079
0.0137081
0.0137094
0.0137095
0.0137107
0.0137109
0.0137121
0.0137122
0.0137133
0.0137135
0.0137146
0.0137147
0.0137157
0.0137159
0.0137169
0.013717
0.013718
0.0137181
0.0137191
0.0137191
0.0137201
0.0137202
0.0137212
0.0137212
0.0137223
0.0137223
0.013724
0.0137223
0.0137237
0.00605386
0.00631074
0.006344
0.0063597
0.00637801
0.0063959
0.00641264
0.00643049
0.00644249
0.00645742
0.00646474
0.00647731
0.00648189
0.00649312
0.00649638
0.00650693
0.00650952
0.00651965
0.00652186
0.00653162
0.00653357
0.00654293
0.00654471
0.00655364
0.00655528
0.00656377
0.00656529
0.00657333
0.00657474
0.00658234
0.00658364
0.00659079
0.006592
0.00659872
0.00659984
0.00660615
0.00660718
0.0066131
0.00661405
0.00661961
0.00662049
0.00662571
0.00662653
0.00663144
0.00663221
0.00663685
0.00663758
0.00664197
0.00664267
0.00664683
0.00664751
0.00665146
0.00665212
0.00665589
0.00665654
0.00666014
0.00666077
0.00666422
0.00666484
0.00666815
0.00666876
0.00667193
0.00667252
0.00667558
0.00667615
0.0066791
0.00667964
0.00668249
0.006683
0.00668576
0.00668623
0.00668891
0.00668934
0.00669195
0.00669234
0.00669489
0.00669522
0.00669773
0.00669801
0.00670047
0.00670069
0.00670311
0.00670328
0.00670563
0.00670576
0.00670798
0.006708
0.00671042
0.00670916
0.00671102
0.00578518
0.0063997
0.00647376
0.00649202
0.00650347
0.0065152
0.00652554
0.00653659
0.00654402
0.0065516
0.00655504
0.00655942
0.00656043
0.00656297
0.00656297
0.00656474
0.00656434
0.00656584
0.00656529
0.00656666
0.00656605
0.00656733
0.0065667
0.0065679
0.00656728
0.0065684
0.0065678
0.00656885
0.00656827
0.00656926
0.00656871
0.00656965
0.00656913
0.00657002
0.00656954
0.00657038
0.00656994
0.00657075
0.00657035
0.00657112
0.00657076
0.0065715
0.00657118
0.0065719
0.00657161
0.00657231
0.00657207
0.00657275
0.00657254
0.00657321
0.00657303
0.00657369
0.00657355
0.00657419
0.00657408
0.00657472
0.00657464
0.00657527
0.00657522
0.00657584
0.00657582
0.00657644
0.00657645
0.00657706
0.00657709
0.00657771
0.00657776
0.00657837
0.00657844
0.00657906
0.00657915
0.00657977
0.00657988
0.00658051
0.00658063
0.00658127
0.0065814
0.00658206
0.0065822
0.00658287
0.00658303
0.00658371
0.00658388
0.00658457
0.00658476
0.00658542
0.00658568
0.00658613
0.00658669
0.00658764
0.00521026
0.00605708
0.00618862
0.00621826
0.00622889
0.00623745
0.00624511
0.00625402
0.00626129
0.00626795
0.00627206
0.00627537
0.00627678
0.00627798
0.00627808
0.00627831
0.00627797
0.00627788
0.00627734
0.00627718
0.0062766
0.00627642
0.00627583
0.00627564
0.00627506
0.00627486
0.00627429
0.00627408
0.00627353
0.00627332
0.00627278
0.00627258
0.00627205
0.00627185
0.00627135
0.00627115
0.00627066
0.00627047
0.00627001
0.00626982
0.00626938
0.0062692
0.00626878
0.0062686
0.00626821
0.00626804
0.00626767
0.00626751
0.00626716
0.00626702
0.00626669
0.00626656
0.00626626
0.00626614
0.00626585
0.00626575
0.00626549
0.0062654
0.00626516
0.00626508
0.00626487
0.00626481
0.00626462
0.00626457
0.0062644
0.00626437
0.00626422
0.0062642
0.00626408
0.00626408
0.00626397
0.00626399
0.00626391
0.00626394
0.00626388
0.00626392
0.00626389
0.00626395
0.00626394
0.00626402
0.00626403
0.00626413
0.00626417
0.00626427
0.00626434
0.00626445
0.00626452
0.00626469
0.00626495
0.00626346
0.0049943
0.00590295
0.00605999
0.00609161
0.00610116
0.00610492
0.00611042
0.0061165
0.00612393
0.00612995
0.00613512
0.00613829
0.00614057
0.00614159
0.00614222
0.00614226
0.00614222
0.00614195
0.0061417
0.00614137
0.00614108
0.00614079
0.00614049
0.00614022
0.00613993
0.00613969
0.00613941
0.00613919
0.00613891
0.00613872
0.00613845
0.00613826
0.006138
0.00613783
0.00613758
0.00613742
0.00613717
0.00613702
0.00613679
0.00613664
0.00613642
0.00613628
0.00613606
0.00613593
0.00613572
0.00613559
0.00613539
0.00613527