/*--------------------------------*- C++ -*----------------------------------*\
  =========                 |
  \\      /  F ield         | OpenFOAM: The Open Source CFD Toolbox
   \\    /   O peration     | Website:  https://openfoam.org
    \\  /    A nd           | Version:  7
     \\/     M anipulation  |
\*---------------------------------------------------------------------------*/
FoamFile
{
    version     2.0;
    format      ascii;
    class       volScalarField;
    location    "1.845";
    object      k_0;
}
// * * * * * * * * * * * * * * * * * * * * * * * * * * * * * * * * * * * * * //

dimensions      [0 2 -2 0 0 0 0];

internalField   nonuniform List<scalar> 
7920
(
52.028
56.4858
56.5098
56.5714
56.4758
56.4779
56.3994
56.4123
56.3687
56.3907
56.3612
56.3776
56.354
56.3647
56.3549
56.3549
56.3696
56.3267
56.4562
56.5174
13.8433
14.0113
13.4346
12.8844
12.619
12.5147
12.4229
12.3949
12.3476
12.338
12.3086
12.3037
12.2879
12.2861
12.2759
12.2728
12.2693
12.2594
12.4332
12.4339
8.0902
9.22877
9.34825
9.33424
9.29502
9.2845
9.25817
9.25211
9.23268
9.22795
9.21259
9.2089
9.19694
9.19406
9.18507
9.18264
9.17648
9.17314
9.17756
9.20249
7.48842
8.7609
9.01498
9.10822
9.13339
9.16742
9.17269
9.18944
9.1892
9.19761
9.19515
9.20008
9.19661
9.19959
9.19627
9.1986
9.19605
9.1981
9.19857
9.22184
7.42354
8.70738
8.97441
9.08404
9.12263
9.17083
9.18662
9.21839
9.22717
9.24888
9.2542
9.26987
9.27295
9.28448
9.28646
9.29568
9.29749
9.30488
9.30829
9.33378
7.43046
8.70395
8.96936
9.0806
9.12296
9.1761
9.19693
9.23488
9.24856
9.2773
9.28715
9.30938
9.3165
9.33382
9.33917
9.35328
9.35798
9.3692
9.37622
9.40217
7.43046
8.70395
8.96936
9.08061
9.12296
9.17611
9.19693
9.23489
9.24855
9.2773
9.28714
9.30939
9.3165
9.33384
9.33916
9.35331
9.35798
9.36926
9.37628
9.40225
7.42354
8.70739
8.97441
9.08404
9.12263
9.17084
9.18661
9.2184
9.22716
9.24891
9.25418
9.26992
9.27291
9.28456
9.2864
9.29583
9.29743
9.30511
9.30832
9.33409
7.48841
8.7609
9.01497
9.10823
9.13337
9.16744
9.17268
9.18945
9.18916
9.19766
9.19508
9.20019
9.19647
9.19981
9.19599
9.19907
9.19553
9.19912
9.19793
9.22271
8.09019
9.22877
9.34825
9.33424
9.29501
9.28451
9.25815
9.25213
9.23263
9.22801
9.21248
9.20904
9.19668
9.1944
9.18444
9.18347
9.17501
9.17586
9.17518
9.2059
13.8433
14.0113
13.4346
12.8844
12.619
12.5147
12.4228
12.395
12.3475
12.3381
12.3084
12.304
12.2874
12.2867
12.2747
12.2746
12.2662
12.2648
12.4217
12.4458
52.028
56.4858
56.5097
56.5714
56.4758
56.478
56.3993
56.4125
56.3684
56.3912
56.3604
56.379
56.3518
56.3681
56.3493
56.3639
56.3543
56.3527
56.4083
56.5978
7.67378
9.67089
9.75369
9.6267
9.5867
9.51274
9.50613
9.46482
9.46584
9.43914
9.44143
9.42148
9.42378
9.40821
9.41138
9.39705
9.40368
9.38288
9.39427
9.42854
6.02242
8.254
8.59509
8.64107
8.64366
8.64175
8.63636
8.63294
8.62914
8.62676
8.62409
8.62139
8.61964
8.61672
8.6163
8.61311
8.61381
8.60941
8.61723
8.62085
5.70587
7.91201
8.26548
8.33839
8.35045
8.3669
8.37049
8.3801
8.38228
8.38896
8.39067
8.39546
8.39713
8.40059
8.40317
8.4051
8.40931
8.40923
8.41241
8.44407
5.69761
7.90332
8.25388
8.3236
8.32936
8.33935
8.3386
8.34334
8.34311
8.34661
8.34672
8.34929
8.34987
8.35201
8.35367
8.35536
8.35899
8.35952
8.36355
8.38456
5.68581
7.88787
8.23832
8.30999
8.31503
8.32436
8.32176
8.32513
8.3227
8.32468
8.32253
8.32364
8.32188
8.32257
8.32161
8.32249
8.32277
8.32431
8.32607
8.34769
5.69215
7.89599
8.24554
8.31679
8.32165
8.33107
8.32836
8.33172
8.32902
8.33083
8.32818
8.32892
8.32638
8.32646
8.32443
8.32462
8.32377
8.32444
8.32496
8.34455
5.69214
7.89599
8.24554
8.31679
8.32165
8.33107
8.32836
8.33172
8.32902
8.33084
8.32818
8.32893
8.32637
8.32648
8.32441
8.32464
8.32375
8.32445
8.32498
8.3445
5.68581
7.88787
8.23832
8.30999
8.31502
8.32437
8.32176
8.32514
8.32268
8.3247
8.3225
8.32368
8.32183
8.32265
8.32151
8.32264
8.32266
8.32443
8.32591
8.34771
5.69761
7.90332
8.25387
8.32361
8.32935
8.33936
8.33859
8.34336
8.34308
8.34666
8.34666
8.3494
8.34977
8.35224
8.35324
8.35595
8.35809
8.36013
8.36305
8.38509
5.70587
7.91201
8.26547
8.3384
8.35043
8.36691
8.37047
8.38013
8.38225
8.38903
8.39059
8.39562
8.39693
8.40102
8.40238
8.40632
8.40746
8.41141
8.41005
8.44642
6.02242
8.25401
8.59509
8.64108
8.64366
8.64176
8.63634
8.63298
8.62907
8.62686
8.62393
8.62164
8.61924
8.61733
8.61551
8.61442
8.61164
8.61277
8.61149
8.62889
7.67378
9.67089
9.75368
9.6267
9.58669
9.51275
9.50611
9.46486
9.46579
9.43923
9.4413
9.4217
9.42347
9.40877
9.41056
9.39854
9.40138
9.38725
9.38751
9.44022
0.477141
1.03551
1.13276
1.10297
1.02842
0.961073
0.908948
0.871948
0.844852
0.823804
0.808479
0.794442
0.784707
0.77424
0.767573
0.759464
0.754083
0.749156
0.740942
0.748395
0.0858746
0.38244
0.52655
0.588593
0.610421
0.624139
0.630887
0.638389
0.642102
0.646165
0.647523
0.649178
0.649275
0.649555
0.649243
0.649067
0.648537
0.648063
0.647329
0.65018
0.0641643
0.299968
0.416486
0.474844
0.493216
0.506717
0.50981
0.516137
0.518349
0.523194
0.525572
0.529939
0.532555
0.536198
0.538958
0.541909
0.544723
0.547181
0.549033
0.553625
0.068019
0.303614
0.417763
0.473659
0.491672
0.502951
0.504565
0.50749
0.507568
0.50845
0.508658
0.509504
0.510007
0.510995
0.512064
0.512865
0.51447
0.515253
0.516648
0.520094
0.0661732
0.299606
0.412614
0.468515
0.486106
0.497367
0.498714
0.501343
0.501045
0.501454
0.501062
0.501185
0.500947
0.501009
0.500998
0.501058
0.50134
0.501473
0.501825
0.504082
0.0672087
0.301845
0.415265
0.47094
0.488683
0.49983
0.501339
0.503901
0.503653
0.504011
0.503618
0.50365
0.503354
0.503281
0.50311
0.503006
0.50305
0.502991
0.503154
0.505105
0.0672086
0.301845
0.415265
0.47094
0.488683
0.49983
0.501339
0.503901
0.503653
0.504011
0.503618
0.50365
0.503353
0.503281
0.50311
0.503007
0.503049
0.502992
0.503152
0.505103
0.066173
0.299606
0.412614
0.468515
0.486106
0.497367
0.498714
0.501344
0.501045
0.501454
0.501062
0.501186
0.500946
0.501011
0.500997
0.501058
0.501338
0.50147
0.501821
0.504069
0.0680186
0.303614
0.417762
0.473659
0.491671
0.502952
0.504564
0.507491
0.507568
0.508451
0.508658
0.50951
0.510001
0.511008
0.512032
0.51289
0.514432
0.515246
0.516625
0.520048
0.0641638
0.299969
0.416485
0.474845
0.493214
0.506718
0.50981
0.516138
0.518348
0.523199
0.52556
0.529954
0.53253
0.536229
0.538898
0.541958
0.544632
0.547189
0.548981
0.553523
0.0858742
0.38244
0.526549
0.588595
0.610419
0.624142
0.630882
0.638396
0.642092
0.646179
0.647502
0.649197
0.649263
0.649567
0.649182
0.649083
0.64842
0.648138
0.647159
0.650178
0.477141
1.03551
1.13276
1.10297
1.02842
0.961077
0.908944
0.871956
0.844843
0.823825
0.808461
0.794492
0.784669
0.774359
0.767493
0.759745
0.753914
0.749757
0.740771
0.74951
0.477141
1.03551
1.13276
1.10297
1.02842
0.961073
0.908948
0.871948
0.844852
0.823804
0.808479
0.794442
0.784707
0.77424
0.767573
0.759464
0.754083
0.749156
0.740942
0.748395
0.0858746
0.38244
0.52655
0.588594
0.610421
0.624139
0.630887
0.638389
0.642102
0.646165
0.647523
0.649178
0.649275
0.649555
0.649243
0.649067
0.648537
0.648063
0.647329
0.65018
0.0641643
0.299968
0.416486
0.474844
0.493216
0.506717
0.50981
0.516137
0.518349
0.523194
0.525572
0.529939
0.532555
0.536198
0.538958
0.541909
0.544723
0.547181
0.549033
0.553625
0.068019
0.303614
0.417763
0.473659
0.491672
0.502951
0.504565
0.50749
0.507568
0.50845
0.508659
0.509504
0.510007
0.510995
0.512064
0.512865
0.51447
0.515253
0.516648
0.520094
0.0661732
0.299606
0.412614
0.468515
0.486106
0.497367
0.498714
0.501343
0.501045
0.501454
0.501062
0.501185
0.500947
0.501009
0.500998
0.501058
0.50134
0.501473
0.501825
0.504082
0.0672087
0.301845
0.415265
0.47094
0.488683
0.49983
0.501339
0.503901
0.503653
0.504011
0.503618
0.50365
0.503354
0.503281
0.50311
0.503006
0.50305
0.502991
0.503154
0.505105
0.0672086
0.301845
0.415265
0.47094
0.488683
0.49983
0.501339
0.503901
0.503653
0.504011
0.503618
0.50365
0.503354
0.503281
0.50311
0.503007
0.503049
0.502992
0.503152
0.505103
0.066173
0.299606
0.412614
0.468515
0.486106
0.497367
0.498714
0.501344
0.501045
0.501454
0.501062
0.501186
0.500946
0.501011
0.500997
0.501058
0.501339
0.50147
0.501821
0.504069
0.0680186
0.303614
0.417762
0.47366
0.491671
0.502952
0.504564
0.507491
0.507568
0.508452
0.508658
0.50951
0.510001
0.511008
0.512032
0.51289
0.514432
0.515247
0.516625
0.520048
0.0641638
0.299969
0.416485
0.474845
0.493214
0.506718
0.50981
0.516138
0.518348
0.523199
0.52556
0.529954
0.53253
0.536229
0.538898
0.541958
0.544632
0.547189
0.548981
0.553523
0.0858743
0.38244
0.526549
0.588595
0.610419
0.624142
0.630882
0.638396
0.642092
0.646179
0.647502
0.649197
0.649263
0.649567
0.649182
0.649083
0.64842
0.648138
0.647159
0.650178
0.477141
1.03551
1.13276
1.10297
1.02842
0.961077
0.908944
0.871956
0.844843
0.823825
0.808461
0.794492
0.784669
0.774359
0.767493
0.759746
0.753914
0.749757
0.740771
0.74951
7.67378
9.67089
9.75369
9.6267
9.5867
9.51274
9.50613
9.46482
9.46584
9.43914
9.44143
9.42148
9.42378
9.40821
9.41138
9.39705
9.40368
9.38288
9.39427
9.42854
6.02242
8.254
8.59509
8.64107
8.64366
8.64175
8.63636
8.63294
8.62914
8.62676
8.62409
8.62139
8.61964
8.61672
8.6163
8.61311
8.61381
8.60941
8.61723
8.62085
5.70587
7.91201
8.26548
8.33839
8.35045
8.3669
8.37049
8.3801
8.38228
8.38896
8.39067
8.39546
8.39713
8.40059
8.40317
8.4051
8.40931
8.40922
8.41241
8.44407
5.69761
7.90332
8.25388
8.3236
8.32936
8.33935
8.3386
8.34334
8.34311
8.34661
8.34672
8.3493
8.34987
8.35201
8.35367
8.35536
8.35899
8.35952
8.36355
8.38456
5.68581
7.88787
8.23832
8.30999
8.31503
8.32436
8.32176
8.32513
8.3227
8.32468
8.32253
8.32364
8.32188
8.32258
8.32161
8.32249
8.32277
8.32431
8.32607
8.34769
5.69215
7.89599
8.24554
8.31679
8.32165
8.33107
8.32836
8.33172
8.32902
8.33083
8.32818
8.32892
8.32638
8.32646
8.32443
8.32462
8.32377
8.32444
8.32496
8.34455
5.69214
7.89599
8.24554
8.31679
8.32165
8.33107
8.32836
8.33172
8.32902
8.33084
8.32818
8.32893
8.32637
8.32648
8.32441
8.32464
8.32375
8.32445
8.32498
8.3445
5.68581
7.88787
8.23832
8.30999
8.31502
8.32437
8.32176
8.32514
8.32268
8.3247
8.3225
8.32368
8.32183
8.32265
8.32151
8.32264
8.32266
8.32443
8.32591
8.34771
5.69761
7.90332
8.25387
8.32361
8.32935
8.33936
8.33859
8.34336
8.34308
8.34666
8.34666
8.3494
8.34977
8.35224
8.35324
8.35595
8.35809
8.36013
8.36305
8.38509
5.70587
7.91201
8.26547
8.3384
8.35043
8.36691
8.37047
8.38013
8.38225
8.38903
8.39058
8.39562
8.39693
8.40102
8.40238
8.40632
8.40746
8.41141
8.41005
8.44642
6.02242
8.25401
8.59509
8.64108
8.64366
8.64176
8.63633
8.63298
8.62907
8.62686
8.62393
8.62164
8.61924
8.61733
8.61552
8.61442
8.61164
8.61277
8.61149
8.62889
7.67378
9.67089
9.75368
9.6267
9.58669
9.51275
9.50611
9.46486
9.46579
9.43923
9.4413
9.4217
9.42347
9.40877
9.41056
9.39854
9.40138
9.38725
9.38751
9.44021
52.028
56.4858
56.5098
56.5714
56.4758
56.4779
56.3994
56.4123
56.3688
56.3907
56.3612
56.3776
56.354
56.3647
56.3549
56.3549
56.3696
56.3267
56.4562
56.5174
13.8433
14.0113
13.4346
12.8844
12.619
12.5147
12.4229
12.3949
12.3476
12.338
12.3086
12.3037
12.2879
12.2861
12.2759
12.2728
12.2693
12.2594
12.4332
12.4339
8.0902
9.22877
9.34825
9.33424
9.29502
9.2845
9.25817
9.25211
9.23268
9.22795
9.21259
9.2089
9.19694
9.19406
9.18507
9.18264
9.17648
9.17314
9.17756
9.20249
7.48842
8.7609
9.01498
9.10822
9.13339
9.16742
9.17269
9.18944
9.1892
9.19761
9.19515
9.20008
9.19661
9.19959
9.19627
9.1986
9.19605
9.1981
9.19857
9.22184
7.42354
8.70738
8.97441
9.08404
9.12263
9.17083
9.18662
9.21839
9.22717
9.24888
9.2542
9.26987
9.27295
9.28448
9.28646
9.29568
9.29749
9.30488
9.30829
9.33378
7.43046
8.70395
8.96936
9.0806
9.12296
9.1761
9.19693
9.23488
9.24856
9.2773
9.28715
9.30938
9.3165
9.33382
9.33917
9.35328
9.35798
9.3692
9.37622
9.40217
7.43046
8.70395
8.96936
9.08061
9.12296
9.17611
9.19693
9.23489
9.24855
9.2773
9.28714
9.30939
9.3165
9.33384
9.33916
9.35331
9.35798
9.36926
9.37628
9.40225
7.42354
8.70739
8.97441
9.08404
9.12263
9.17084
9.18661
9.2184
9.22716
9.24891
9.25418
9.26991
9.27291
9.28456
9.2864
9.29583
9.29743
9.30511
9.30832
9.33409
7.48841
8.7609
9.01497
9.10823
9.13337
9.16744
9.17268
9.18945
9.18916
9.19766
9.19508
9.20019
9.19647
9.19981
9.19599
9.19907
9.19553
9.19912
9.19793
9.22271
8.09019
9.22877
9.34825
9.33424
9.29501
9.28451
9.25815
9.25213
9.23263
9.22801
9.21247
9.20904
9.19667
9.1944
9.18444
9.18347
9.17501
9.17586
9.17518
9.2059
13.8433
14.0113
13.4346
12.8844
12.619
12.5147
12.4228
12.395
12.3475
12.3381
12.3084
12.304
12.2874
12.2867
12.2747
12.2746
12.2662
12.2648
12.4217
12.4459
52.028
56.4858
56.5097
56.5714
56.4757
56.478
56.3993
56.4125
56.3684
56.3912
56.3604
56.379
56.3518
56.3681
56.3493
56.3639
56.3543
56.3527
56.4083
56.5978
144.206
146.356
147.382
148.238
148.923
149.577
150.113
150.624
151.062
151.503
151.902
152.305
152.665
153.019
153.338
153.654
153.944
154.228
154.483
154.727
154.94
155.14
155.311
155.468
155.596
155.708
155.792
155.861
155.906
155.941
155.961
155.977
155.982
155.988
155.988
155.99
155.987
155.988
155.985
155.985
155.982
155.983
155.979
155.98
155.977
155.977
155.974
155.974
155.971
155.971
155.968
155.968
155.965
155.965
155.962
155.962
155.959
155.959
155.957
155.956
155.954
155.953
155.951
155.95
155.948
155.947
155.945
155.944
155.942
155.941
155.939
155.938
155.936
155.935
155.933
155.932
155.929
155.928
155.926
155.925
155.922
155.921
155.918
155.917
155.914
155.913
155.908
155.907
155.872
155.853
47.3099
49.0738
49.3932
49.6834
49.8835
50.1099
50.2682
50.447
50.5759
50.7299
50.8489
50.9897
51.098
51.2221
51.3178
51.4286
51.5158
51.6157
51.6928
51.7789
51.8428
51.914
51.9647
52.0213
52.0584
52.0998
52.1226
52.1493
52.1596
52.1749
52.177
52.1851
52.1829
52.1876
52.1837
52.1868
52.1824
52.185
52.1807
52.183
52.1789
52.181
52.1773
52.1792
52.1757
52.1776
52.1743
52.176
52.173
52.1746
52.1718
52.1734
52.1707
52.1722
52.1697
52.1712
52.1689
52.1703
52.1681
52.1695
52.1675
52.1688
52.1669
52.1682
52.1664
52.1677
52.166
52.1672
52.1657
52.1669
52.1655
52.1666
52.1653
52.1664
52.1652
52.1663
52.1651
52.1661
52.165
52.166
52.1648
52.1659
52.1646
52.1656
52.1641
52.1651
52.1631
52.1648
52.1467
52.1388
30.5074
32.5199
32.7107
32.892
32.9854
33.1355
33.2152
33.3375
33.4006
33.5041
33.5631
33.6594
33.7161
33.8024
33.8525
33.9293
33.9753
34.0458
34.0878
34.1502
34.1852
34.2379
34.2653
34.3085
34.3282
34.3617
34.373
34.3963
34.3997
34.4141
34.412
34.4207
34.4155
34.4212
34.4148
34.4191
34.4125
34.4162
34.4099
34.4133
34.4073
34.4105
34.405
34.408
34.4029
34.4058
34.4011
34.4038
34.3994
34.4021
34.398
34.4006
34.3969
34.3994
34.3959
34.3984
34.3952
34.3976
34.3946
34.397
34.3943
34.3967
34.3942
34.3965
34.3943
34.3966
34.3946
34.3969
34.3951
34.3974
34.3958
34.3981
34.3966
34.3989
34.3976
34.4
34.3988
34.4011
34.4001
34.4024
34.4014
34.4038
34.4028
34.4052
34.4042
34.4066
34.4053
34.4081
34.4028
34.385
28.27
30.6838
30.8678
31.0179
31.0732
31.2022
31.2593
31.3708
31.414
31.5052
31.5457
31.6331
31.6762
31.7576
31.796
31.8682
31.9038
31.9715
32.0062
32.0684
32.0984
32.1521
32.1759
32.2211
32.2389
32.2755
32.2863
32.3131
32.3166
32.3339
32.3315
32.3423
32.3362
32.3434
32.3358
32.3413
32.3334
32.3381
32.3305
32.3348
32.3278
32.3318
32.3253
32.3291
32.3231
32.3268
32.3212
32.3248
32.3197
32.3231
32.3184
32.3218
32.3175
32.3208
32.3168
32.3201
32.3165
32.3197
32.3164
32.3196
32.3167
32.3198
32.3172
32.3203
32.318
32.3211
32.319
32.3222
32.3204
32.3235
32.3219
32.3251
32.3238
32.327
32.3258
32.3291
32.3281
32.3314
32.3306
32.3339
32.3333
32.3366
32.336
32.3394
32.3389
32.3424
32.3418
32.3453
32.3453
32.324
28.0994
30.7592
30.9497
31.0825
31.1103
31.2204
31.2619
31.3641
31.3943
31.4757
31.5041
31.584
31.6191
31.6973
31.7294
31.7989
31.8291
31.8954
31.9268
31.9903
32.0187
32.0746
32.0977
32.1455
32.1635
32.2033
32.2152
32.2454
32.2499
32.2701
32.2681
32.2808
32.2747
32.2831
32.2752
32.2815
32.2731
32.2784
32.2703
32.2752
32.2677
32.2723
32.2653
32.2698
32.2634
32.2677
32.2618
32.266
32.2606
32.2647
32.2598
32.2638
32.2593
32.2632
32.2592
32.263
32.2594
32.2632
32.2599
32.2637
32.2608
32.2646
32.262
32.2658
32.2635
32.2673
32.2654
32.2692
32.2675
32.2714
32.27
32.2739
32.2727
32.2767
32.2758
32.2797
32.279
32.283
32.2825
32.2866
32.2862
32.2903
32.2901
32.2943
32.2941
32.2983
32.2982
32.3022
32.3039
32.2806
28.1803
30.9923
31.1857
31.3017
31.3069
31.3961
31.4228
31.5117
31.5304
31.6002
31.6185
31.6894
31.7176
31.7905
31.8176
31.8831
31.9092
31.9731
32.0022
32.0653
32.0928
32.1494
32.1721
32.2211
32.2394
32.2809
32.2936
32.3257
32.3309
32.3527
32.3512
32.3649
32.359
32.3681
32.36
32.3668
32.3582
32.3639
32.3556
32.3609
32.3531
32.3581
32.351
32.3558
32.3492
32.3539
32.3479
32.3524
32.347
32.3514
32.3465
32.3508
32.3463
32.3506
32.3465
32.3508
32.3471
32.3513
32.3481
32.3522
32.3494
32.3536
32.3511
32.3552
32.3531
32.3573
32.3554
32.3596
32.3581
32.3624
32.3611
32.3654
32.3644
32.3688
32.3681
32.3724
32.372
32.3764
32.3761
32.3805
32.3805
32.385
32.385
32.3895
32.3897
32.3943
32.3946
32.3987
32.402
32.3771
28.1818
30.9823
31.1564
31.2507
31.2373
31.3085
31.3204
31.3939
31.4021
31.4603
31.4706
31.5328
31.555
31.6213
31.644
31.7048
31.728
31.7887
31.816
31.8772
31.9037
31.9592
31.9814
32.0298
32.0479
32.0891
32.1016
32.1335
32.1387
32.1604
32.1589
32.1725
32.1667
32.1757
32.1677
32.1744
32.1659
32.1716
32.1633
32.1685
32.1608
32.1658
32.1587
32.1635
32.157
32.1616
32.1557
32.1602
32.1548
32.1592
32.1543
32.1586
32.1541
32.1584
32.1544
32.1586
32.155
32.1591
32.1559
32.1601
32.1573
32.1614
32.1589
32.1631
32.161
32.1652
32.1633
32.1676
32.166
32.1703
32.1691
32.1734
32.1724
32.1767
32.176
32.1804
32.1799
32.1843
32.1841
32.1885
32.1884
32.1929
32.193
32.1975
32.1977
32.2023
32.2027
32.2067
32.21
32.1854
28.1021
30.7174
30.844
30.9106
30.8828
30.9385
30.9375
30.996
30.9958
31.0445
31.0497
31.1046
31.1223
31.1819
31.2013
31.2575
31.279
31.3366
31.3627
31.421
31.4464
31.4994
31.5209
31.5671
31.5843
31.6233
31.6347
31.6645
31.6688
31.6887
31.6867
31.6992
31.6932
31.7015
31.6936
31.6998
31.6915
31.6968
31.6888
31.6937
31.6862
31.6908
31.6839
31.6883
31.682
31.6863
31.6805
31.6846
31.6793
31.6834
31.6785
31.6825
31.6781
31.682
31.678
31.6818
31.6782
31.682
31.6788
31.6826
31.6797
31.6835
31.681
31.6847
31.6825
31.6863
31.6844
31.6882
31.6866
31.6905
31.6891
31.693
31.6919
31.6958
31.6949
31.6989
31.6982
31.7022
31.7017
31.7058
31.7055
31.7096
31.7094
31.7135
31.7134
31.7176
31.7176
31.7213
31.7238
31.7015
28.2508
30.5541
30.6201
30.66
30.6255
30.668
30.6589
30.7045
30.6993
30.741
30.7449
30.7943
30.81
30.8635
30.8819
30.9345
30.9567
31.0118
31.0381
31.0932
31.1184
31.1682
31.1894
31.2324
31.2488
31.2842
31.2943
31.3204
31.3235
31.3404
31.3379
31.3485
31.3425
31.3496
31.3421
31.3474
31.3397
31.3442
31.3368
31.341
31.3341
31.338
31.3316
31.3354
31.3295
31.3331
31.3277
31.3312
31.3262
31.3296
31.325
31.3283
31.3241
31.3274
31.3235
31.3267
31.3232
31.3264
31.3232
31.3263
31.3234
31.3266
31.324
31.3271
31.3248
31.328
31.3259
31.3291
31.3273
31.3304
31.3289
31.3321
31.3308
31.334
31.3329
31.3361
31.3352
31.3385
31.3377
31.341
31.3404
31.3437
31.3432
31.3466
31.3461
31.3495
31.3491
31.3523
31.3531
31.333
30.3944
32.1783
32.1825
32.2064
32.1742
32.2097
32.1986
32.2362
32.2322
32.2715
32.2799
32.3277
32.3461
32.3972
32.4198
32.4723
32.5
32.5554
32.5863
32.64
32.6688
32.7166
32.7407
32.7812
32.799
32.8309
32.8411
32.8635
32.8664
32.8803
32.878
32.8864
32.8811
32.8867
32.8803
32.8845
32.878
32.8816
32.8753
32.8787
32.8728
32.8759
32.8705
32.8735
32.8684
32.8713
32.8666
32.8693
32.865
32.8676
32.8636
32.8661
32.8624
32.8649
32.8615
32.8639
32.8608
32.8632
32.8603
32.8626
32.86
32.8623
32.8599
32.8622
32.86
32.8623
32.8604
32.8627
32.8609
32.8632
32.8616
32.8639
32.8624
32.8647
32.8635
32.8658
32.8646
32.867
32.866
32.8683
32.8674
32.8697
32.8688
32.8712
32.8703
32.8726
32.8716
32.8739
32.8705
32.8543
46.8679
48.1412
48.1225
48.1438
48.1259
48.1645
48.1661
48.2072
48.22
48.2707
48.3016
48.3646
48.4068
48.4741
48.523
48.5952
48.652
48.7278
48.7867
48.8589
48.9126
48.976
49.021
49.0731
49.1068
49.1455
49.1663
49.1914
49.2006
49.215
49.2166
49.2243
49.2219
49.2263
49.2223
49.2253
49.2209
49.2233
49.2191
49.2213
49.2172
49.2193
49.2155
49.2174
49.2139
49.2157
49.2124
49.2142
49.2111
49.2127
49.2099
49.2115
49.2088
49.2103
49.2078
49.2093
49.207
49.2083
49.2062
49.2075
49.2055
49.2068
49.205
49.2062
49.2045
49.2057
49.2041
49.2053
49.2038
49.205
49.2036
49.2047
49.2034
49.2046
49.2033
49.2044
49.2032
49.2043
49.2032
49.2042
49.2031
49.2041
49.2029
49.2039
49.2026
49.2034
49.2017
49.203
49.1866
49.1799
142.42
143.045
143.037
143.079
143.097
143.185
143.242
143.339
143.42
143.55
143.68
143.848
144.007
144.19
144.366
144.566
144.762
144.974
145.174
145.376
145.557
145.733
145.887
146.03
146.147
146.251
146.328
146.392
146.434
146.467
146.484
146.499
146.503
146.509
146.508
146.51
146.507
146.508
146.504
146.505
146.501
146.502
146.498
146.498
146.495
146.495
146.492
146.492
146.49
146.489
146.487
146.486
146.484
146.483
146.481
146.48
146.478
146.477
146.475
146.475
146.472
146.472
146.469
146.469
146.466
146.466
146.463
146.463
146.46
146.46
146.458
146.457
146.455
146.454
146.451
146.451
146.448
146.447
146.445
146.444
146.442
146.441
146.438
146.437
146.433
146.432
146.428
146.427
146.395
146.38
30.1995
30.9633
31.1836
31.3505
31.4947
31.6247
31.7345
31.8379
31.9265
32.018
32.0982
32.1824
32.2535
32.3281
32.3904
32.4578
32.514
32.5749
32.6237
32.6759
32.7159
32.7589
32.7904
32.8245
32.8471
32.8716
32.885
32.9005
32.9063
32.9151
32.916
32.9207
32.9191
32.9219
32.9193
32.9213
32.9186
32.9202
32.9176
32.9191
32.9166
32.918
32.9157
32.917
32.9148
32.9161
32.9141
32.9153
32.9134
32.9146
32.9128
32.9139
32.9123
32.9134
32.9118
32.9129
32.9114
32.9124
32.9111
32.9121
32.9108
32.9117
32.9106
32.9115
32.9104
32.9113
32.9103
32.9111
32.9102
32.911
32.9101
32.911
32.9101
32.911
32.9102
32.911
32.9103
32.9112
32.9105
32.9114
32.9108
32.9118
32.9113
32.9123
32.9119
32.9133
32.9129
32.9152
32.9113
32.912
28.0799
29.3965
29.6141
29.7779
29.9128
30.0409
30.1463
30.2476
30.3324
30.4203
30.4973
30.5784
30.6477
30.7195
30.7802
30.8446
30.8995
30.958
31.0063
31.0567
31.0967
31.1383
31.1701
31.2032
31.2266
31.2506
31.2652
31.2805
31.2874
31.2959
31.2977
31.3019
31.3011
31.3032
31.3013
31.3025
31.3003
31.3012
31.2989
31.2997
31.2975
31.2982
31.2962
31.2968
31.2949
31.2955
31.2936
31.2942
31.2925
31.293
31.2914
31.2919
31.2904
31.2908
31.2894
31.2898
31.2885
31.2889
31.2877
31.2881
31.2869
31.2874
31.2863
31.2867
31.2857
31.2861
31.2851
31.2856
31.2847
31.2851
31.2843
31.2848
31.284
31.2845
31.2838
31.2843
31.2837
31.2842
31.2836
31.2842
31.2836
31.2842
31.2837
31.2844
31.2838
31.2848
31.2839
31.2853
31.2841
31.2856
25.891
27.714
27.9464
28.0906
28.2111
28.327
28.4271
28.5201
28.5995
28.6778
28.7498
28.8238
28.8909
28.9576
29.0166
29.076
29.1296
29.1844
29.2332
29.2817
29.3232
29.3638
29.3975
29.4304
29.4565
29.4813
29.4992
29.5155
29.5255
29.5346
29.5389
29.5433
29.5442
29.5461
29.5455
29.5463
29.5453
29.5456
29.5444
29.5447
29.5435
29.5437
29.5426
29.5427
29.5416
29.5418
29.5408
29.5409
29.5399
29.5401
29.5391
29.5393
29.5384
29.5385
29.5377
29.5378
29.537
29.5371
29.5364
29.5365
29.5358
29.5359
29.5353
29.5354
29.5349
29.535
29.5344
29.5346
29.5341
29.5342
29.5338
29.5339
29.5335
29.5337
29.5333
29.5335
29.5332
29.5334
29.5331
29.5333
29.533
29.5333
29.5329
29.5333
29.5328
29.5333
29.5325
29.5332
29.5315
29.5135
25.1603
27.2385
27.4654
27.582
27.6806
27.7823
27.8743
27.9609
28.0342
28.1049
28.1711
28.2401
28.3053
28.3696
28.4274
28.4843
28.537
28.5907
28.6405
28.6898
28.7336
28.7755
28.812
28.8467
28.8762
28.9036
28.9252
28.9442
28.9576
28.9686
28.9752
28.9806
28.9831
28.9854
28.9858
28.9866
28.9862
28.9865
28.9859
28.986
28.9853
28.9854
28.9847
28.9848
28.9842
28.9842
28.9836
28.9836
28.983
28.9831
28.9825
28.9825
28.982
28.982
28.9816
28.9816
28.9811
28.9811
28.9807
28.9807
28.9803
28.9803
28.9799
28.98
28.9796
28.9796
28.9793
28.9793
28.979
28.9791
28.9788
28.9788
28.9786
28.9786
28.9784
28.9785
28.9782
28.9784
28.9781
28.9783
28.978
28.9782
28.9779
28.9781
28.9777
28.9779
28.9773
28.9778
28.9768
28.9638
24.7123
26.9572
27.1691
27.2552
27.326
27.408
27.4869
27.5636
27.6276
27.6888
27.7464
27.8086
27.869
27.9293
27.9839
28.0372
28.0873
28.1387
28.1879
28.237
28.2815
28.3242
28.3619
28.3979
28.4293
28.4586
28.4827
28.5038
28.5194
28.5321
28.5403
28.5467
28.55
28.5527
28.5535
28.5545
28.5542
28.5545
28.554
28.5541
28.5535
28.5535
28.5529
28.5529
28.5524
28.5523
28.5518
28.5518
28.5513
28.5513
28.5508
28.5508
28.5503
28.5503
28.5498
28.5498
28.5494
28.5494
28.549
28.549
28.5486
28.5486
28.5482
28.5482
28.5479
28.5478
28.5475
28.5475
28.5472
28.5472
28.5469
28.547
28.5467
28.5467
28.5465
28.5465
28.5463
28.5463
28.5461
28.5462
28.5459
28.546
28.5457
28.5458
28.5454
28.5456
28.5448
28.5451
28.5441
28.5233
24.6197
26.9101
27.0991
27.155
27.1994
27.2605
27.3241
27.3882
27.4416
27.4924
27.541
27.5953
27.6498
27.7057
27.7562
27.8061
27.853
27.9023
27.95
27.9986
28.0429
28.0859
28.1239
28.1607
28.1928
28.2233
28.2485
28.271
28.2877
28.3016
28.3105
28.3176
28.3213
28.3243
28.3252
28.3264
28.3262
28.3265
28.326
28.326
28.3254
28.3254
28.3248
28.3248
28.3242
28.3242
28.3236
28.3236
28.323
28.323
28.3225
28.3224
28.3219
28.3219
28.3214
28.3213
28.3209
28.3208
28.3204
28.3203
28.3199
28.3199
28.3195
28.3194
28.3191
28.319
28.3187
28.3186
28.3183
28.3183
28.3179
28.3179
28.3176
28.3176
28.3173
28.3173
28.317
28.3171
28.3168
28.3168
28.3165
28.3166
28.3162
28.3163
28.3159
28.3161
28.3154
28.3157
28.3147
28.2963
24.6199
26.8983
27.0682
27.1033
27.1289
27.1732
27.2222
27.2732
27.3154
27.3563
27.3965
27.4434
27.4915
27.5417
27.5876
27.6335
27.6772
27.7239
27.7695
27.8165
27.8596
27.9017
27.9391
27.9753
28.0071
28.0373
28.0623
28.0846
28.1012
28.115
28.1239
28.1309
28.1345
28.1375
28.1385
28.1396
28.1394
28.1397
28.1392
28.1392
28.1386
28.1386
28.138
28.138
28.1374
28.1373
28.1368
28.1367
28.1362
28.1361
28.1356
28.1356
28.1351
28.135
28.1345
28.1345
28.134
28.134
28.1336
28.1335
28.1331
28.133
28.1327
28.1326
28.1322
28.1322
28.1318
28.1318
28.1315
28.1314
28.1311
28.1311
28.1308
28.1308
28.1305
28.1305
28.1302
28.1302
28.13
28.13
28.1297
28.1298
28.1294
28.1295
28.1291
28.1293
28.1287
28.1288
28.128
28.1099
24.7117
26.9123
27.0642
27.0888
27.1046
27.1377
27.1745
27.214
27.2463
27.2796
27.3132
27.3541
27.3963
27.4411
27.4825
27.5245
27.5655
27.6096
27.6531
27.6978
27.739
27.7793
27.8152
27.8499
27.8802
27.9088
27.9322
27.9529
27.9681
27.9806
27.9886
27.9948
27.998
28.0007
28.0014
28.0024
28.0022
28.0024
28.0019
28.002
28.0014
28.0014
28.0008
28.0008
28.0002
28.0002
27.9997
27.9997
27.9992
27.9991
27.9987
27.9986
27.9982
27.9982
27.9977
27.9977
27.9973
27.9973
27.9969
27.9969
27.9965
27.9965
27.9961
27.9961
27.9958
27.9958
27.9955
27.9955
27.9952
27.9952
27.9949
27.9949
27.9947
27.9947
27.9945
27.9945
27.9943
27.9943
27.9941
27.9942
27.9939
27.994
27.9937
27.9939
27.9935
27.9936
27.993
27.993
27.9925
27.9728
25.1391
27.1125
27.2275
27.243
27.2541
27.279
27.3058
27.335
27.3594
27.3869
27.4161
27.4523
27.4895
27.5295
27.567
27.6068
27.6459
27.6886
27.7301
27.7728
27.8118
27.8501
27.8839
27.9167
27.9446
27.9708
27.9916
28.0098
28.0227
28.0333
28.0397
28.0449
28.0472
28.0494
28.0498
28.0506
28.0502
28.0504
28.0498
28.0499
28.0492
28.0493
28.0486
28.0487
28.0481
28.0481
28.0475
28.0475
28.047
28.047
28.0465
28.0465
28.046
28.046
28.0455
28.0455
28.0451
28.0451
28.0447
28.0447
28.0443
28.0443
28.044
28.044
28.0437
28.0437
28.0434
28.0434
28.0431
28.0432
28.0429
28.043
28.0427
28.0428
28.0426
28.0427
28.0424
28.0425
28.0423
28.0425
28.0422
28.0424
28.0421
28.0423
28.042
28.0422
28.0417
28.0419
28.0412
28.0296
25.8065
27.4358
27.5066
27.5165
27.5244
27.5434
27.5615
27.5832
27.6017
27.6266
27.6525
27.6861
27.7186
27.7555
27.7896
27.8285
27.8657
27.9076
27.9464
27.9874
28.0233
28.0597
28.0903
28.1208
28.1451
28.1684
28.1853
28.2007
28.2102
28.2189
28.2228
28.227
28.2278
28.2296
28.229
28.2297
28.2287
28.229
28.2278
28.2281
28.2269
28.2271
28.226
28.2261
28.2251
28.2252
28.2242
28.2243
28.2234
28.2235
28.2226
28.2227
28.2219
28.222
28.2212
28.2213
28.2206
28.2207
28.22
28.2201
28.2195
28.2196
28.219
28.2191
28.2185
28.2187
28.2182
28.2183
28.2178
28.218
28.2176
28.2177
28.2173
28.2175
28.2172
28.2174
28.217
28.2173
28.217
28.2173
28.217
28.2173
28.2169
28.2173
28.2169
28.2174
28.2167
28.2172
28.2168
28.2004
27.8454
28.8746
28.8889
28.8922
28.8956
28.9117
28.9225
28.9419
28.9565
28.983
29.0068
29.0415
29.0709
29.1088
29.1414
29.1828
29.2194
29.2635
29.3009
29.343
29.3769
29.4139
29.4422
29.4726
29.494
29.5164
29.5298
29.5441
29.5504
29.5584
29.5599
29.5638
29.5629
29.5649
29.5629
29.5641
29.5618
29.5627
29.5605
29.5612
29.5591
29.5597
29.5577
29.5583
29.5564
29.557
29.5552
29.5557
29.5541
29.5546
29.553
29.5534
29.552
29.5524
29.551
29.5515
29.5502
29.5506
29.5494
29.5498
29.5486
29.549
29.548
29.5484
29.5474
29.5478
29.5469
29.5473
29.5465
29.5469
29.5461
29.5466
29.5458
29.5463
29.5456
29.5461
29.5455
29.5461
29.5455
29.5461
29.5455
29.5462
29.5456
29.5464
29.5458
29.5467
29.546
29.5472
29.5468
29.5491
29.7899
30.2191
30.2187
30.2138
30.2168
30.2276
30.2362
30.2524
30.2659
30.2919
30.3152
30.35
30.3786
30.4172
30.4497
30.4927
30.5297
30.5754
30.6128
30.6562
30.6899
30.728
30.7558
30.787
30.8074
30.8302
30.8424
30.8568
30.8619
30.8701
30.8707
30.8751
30.8734
30.876
30.8735
30.8753
30.8726
30.8742
30.8715
30.873
30.8705
30.8719
30.8696
30.8709
30.8687
30.8699
30.8679
30.8691
30.8672
30.8684
30.8666
30.8677
30.8661
30.8671
30.8656
30.8666
30.8652
30.8661
30.8648
30.8657
30.8645
30.8654
30.8642
30.8651
30.864
30.8649
30.8639
30.8647
30.8638
30.8646
30.8638
30.8646
30.8638
30.8646
30.8638
30.8646
30.8639
30.8648
30.8641
30.865
30.8644
30.8653
30.8649
30.8659
30.8655
30.8668
30.8666
30.8686
30.865
30.8659
3.61433
3.80848
3.82719
3.83566
3.8513
3.86521
3.87837
3.89326
3.90341
3.91867
3.92653
3.9414
3.94704
3.96087
3.9648
3.97768
3.98037
3.99214
3.99359
4.00399
4.00426
4.01325
4.01248
4.02009
4.01828
4.02445
4.02168
4.02655
4.02306
4.02695
4.02311
4.02635
4.02242
4.02525
4.02141
4.02397
4.0203
4.02265
4.01916
4.02135
4.01806
4.02009
4.017
4.0189
4.016
4.01779
4.01506
4.01675
4.01421
4.01581
4.01343
4.01496
4.01275
4.01421