/*--------------------------------*- C++ -*----------------------------------*\
  =========                 |
  \\      /  F ield         | OpenFOAM: The Open Source CFD Toolbox
   \\    /   O peration     | Website:  https://openfoam.org
    \\  /    A nd           | Version:  7
     \\/     M anipulation  |
\*---------------------------------------------------------------------------*/
FoamFile
{
    version     2.0;
    format      ascii;
    class       volVectorField;
    location    "1.845";
    object      UMean;
}
// * * * * * * * * * * * * * * * * * * * * * * * * * * * * * * * * * * * * * //

dimensions      [0 1 -1 0 0 0 0];

internalField   nonuniform List<vector> 
7920
(
(2.94025 0.0991668 -32.3668)
(2.13734 -0.459511 -32.406)
(1.44051 -0.61106 -32.3962)
(1.34401 -0.665941 -32.4087)
(1.11724 -0.682293 -32.4002)
(1.15005 -0.687082 -32.4098)
(1.01407 -0.691046 -32.4034)
(1.06395 -0.691224 -32.4111)
(0.962281 -0.693423 -32.4065)
(1.01057 -0.693102 -32.4125)
(0.929706 -0.694582 -32.4092)
(0.973058 -0.694007 -32.4137)
(0.907228 -0.694966 -32.4119)
(0.945222 -0.694387 -32.4147)
(0.890803 -0.694779 -32.415)
(0.923849 -0.694859 -32.4148)
(0.876912 -0.691179 -32.4198)
(0.901825 -0.697476 -32.4118)
(0.864786 -0.640976 -32.4303)
(0.703055 -0.650484 -32.3958)
(4.41038 0.956849 -32.4283)
(4.34199 0.859266 -32.4661)
(3.7064 0.805116 -32.4606)
(3.57788 0.739183 -32.4705)
(3.1958 0.712517 -32.4657)
(3.20512 0.699834 -32.4725)
(2.95632 0.693777 -32.4691)
(3.00875 0.690663 -32.4742)
(2.82395 0.688748 -32.4722)
(2.8841 0.687257 -32.4761)
(2.73818 0.686236 -32.475)
(2.79618 0.685183 -32.4776)
(2.67776 0.684552 -32.4776)
(2.73092 0.683786 -32.4787)
(2.6328 0.683121 -32.4807)
(2.68268 0.683551 -32.4788)
(2.59352 0.680207 -32.4856)
(2.66207 0.685793 -32.4754)
(2.53701 0.676456 -32.4966)
(2.82308 0.671222 -32.4489)
(4.74783 0.187842 -32.4358)
(5.24819 -0.234205 -32.4698)
(5.10044 -0.379923 -32.4587)
(5.21519 -0.497414 -32.4683)
(4.97467 -0.560754 -32.4611)
(5.03189 -0.596239 -32.4685)
(4.82433 -0.619408 -32.4631)
(4.87511 -0.632405 -32.4692)
(4.70612 -0.642212 -32.4654)
(4.75435 -0.648333 -32.4703)
(4.61666 -0.653326 -32.468)
(4.66148 -0.656904 -32.4718)
(4.54835 -0.659778 -32.471)
(4.58891 -0.662038 -32.4732)
(4.49596 -0.664141 -32.4746)
(4.52935 -0.664321 -32.4741)
(4.45883 -0.668278 -32.4794)
(4.46692 -0.661708 -32.4732)
(4.44018 -0.665187 -32.4867)
(4.35909 -0.67661 -32.4534)
(4.74855 0.642307 -32.446)
(5.27155 0.738326 -32.4786)
(5.35966 0.783202 -32.4682)
(5.6572 0.752852 -32.4759)
(5.58932 0.734934 -32.4696)
(5.7574 0.720679 -32.4756)
(5.6581 0.710608 -32.4711)
(5.7697 0.702908 -32.4758)
(5.67188 0.697155 -32.4727)
(5.75372 0.691933 -32.4763)
(5.66529 0.68826 -32.4746)
(5.72902 0.684461 -32.4772)
(5.65097 0.682176 -32.4769)
(5.70339 0.679175 -32.4785)
(5.63341 0.678242 -32.4796)
(5.68176 0.675171 -32.4798)
(5.61234 0.67721 -32.4828)
(5.6741 0.672106 -32.4809)
(5.58849 0.685211 -32.4865)
(5.72811 0.700349 -32.461)
(4.74059 -0.0891093 -32.4451)
(5.2365 -0.386828 -32.4773)
(5.38026 -0.479418 -32.4645)
(5.73036 -0.545213 -32.4727)
(5.72701 -0.580639 -32.4646)
(5.95 -0.600412 -32.4712)
(5.91058 -0.614226 -32.4654)
(6.06852 -0.622013 -32.4706)
(6.02227 -0.628632 -32.4663)
(6.14118 -0.632875 -32.4704)
(6.09558 -0.636887 -32.4675)
(6.18788 -0.639752 -32.4708)
(6.14514 -0.642747 -32.4691)
(6.21811 -0.644378 -32.4717)
(6.17966 -0.647933 -32.471)
(6.2362 -0.645954 -32.4731)
(6.20749 -0.655498 -32.4734)
(6.23953 -0.64242 -32.475)
(6.23792 -0.668021 -32.476)
(6.22434 -0.682675 -32.4552)
(4.72796 0.349163 -32.4488)
(5.1806 0.551577 -32.4814)
(5.33475 0.62862 -32.4686)
(5.7001 0.648257 -32.4768)
(5.71961 0.658092 -32.4684)
(5.96488 0.661166 -32.4751)
(5.95002 0.663078 -32.469)
(6.1301 0.663112 -32.4743)
(6.10804 0.663356 -32.4697)
(6.24738 0.662665 -32.4739)
(6.22417 0.66254 -32.4707)
(6.33446 0.661747 -32.4741)
(6.31143 0.66181 -32.4719)
(6.39993 0.660696 -32.4748)
(6.37758 0.661967 -32.4735)
(6.44914 0.658631 -32.476)
(6.42961 0.665559 -32.4755)
(6.48603 0.654774 -32.4779)
(6.4787 0.678673 -32.4778)
(6.52643 0.699557 -32.457)
(4.72796 -0.349163 -32.4488)
(5.1806 -0.551577 -32.4814)
(5.33475 -0.62862 -32.4686)
(5.7001 -0.648256 -32.4768)
(5.71961 -0.658092 -32.4684)
(5.96488 -0.661164 -32.4751)
(5.95002 -0.663078 -32.469)
(6.1301 -0.663109 -32.4743)
(6.10804 -0.663353 -32.4697)
(6.24738 -0.662657 -32.4739)
(6.22418 -0.662529 -32.4707)
(6.33445 -0.661725 -32.4741)
(6.31146 -0.661779 -32.4719)
(6.3999 -0.660616 -32.4748)
(6.37768 -0.66191 -32.4735)
(6.44907 -0.658332 -32.4761)
(6.42983 -0.665483 -32.4754)
(6.48585 -0.653879 -32.4779)
(6.47894 -0.678272 -32.4778)
(6.52611 -0.697877 -32.457)
(4.74059 0.0891092 -32.4451)
(5.2365 0.386828 -32.4773)
(5.38026 0.479418 -32.4645)
(5.73036 0.545213 -32.4727)
(5.72701 0.580639 -32.4646)
(5.95 0.600413 -32.4712)
(5.91058 0.614227 -32.4653)
(6.06853 0.622015 -32.4706)
(6.02226 0.628635 -32.4663)
(6.1412 0.63288 -32.4705)
(6.09556 0.636901 -32.4674)
(6.18793 0.639767 -32.4709)
(6.14511 0.642784 -32.4689)
(6.21822 0.64444 -32.4719)
(6.17961 0.648002 -32.4708)
(6.23646 0.646218 -32.4734)
(6.20751 0.655589 -32.473)
(6.24014 0.643297 -32.4754)
(6.23849 0.668398 -32.4755)
(6.22599 0.684499 -32.4556)
(4.74855 -0.642307 -32.446)
(5.27155 -0.738326 -32.4786)
(5.35966 -0.783202 -32.4682)
(5.6572 -0.752852 -32.4759)
(5.58932 -0.734934 -32.4696)
(5.7574 -0.720678 -32.4757)
(5.6581 -0.710608 -32.4711)
(5.76971 -0.702905 -32.4758)
(5.67188 -0.697154 -32.4726)
(5.75374 -0.691924 -32.4764)
(5.66529 -0.688254 -32.4744)
(5.72906 -0.684437 -32.4775)
(5.65099 -0.682159 -32.4765)
(5.70348 -0.679095 -32.479)
(5.63352 -0.678217 -32.4789)
(5.68197 -0.674887 -32.4809)
(5.61276 -0.677215 -32.4813)
(5.67448 -0.671314 -32.483)
(5.58966 -0.685047 -32.4837)
(5.72904 -0.699143 -32.4643)
(4.74783 -0.187842 -32.4358)
(5.24819 0.234205 -32.4698)
(5.10043 0.379923 -32.4587)
(5.21519 0.497414 -32.4683)
(4.97467 0.560755 -32.4611)
(5.03189 0.596239 -32.4686)
(4.82433 0.619409 -32.4631)
(4.87512 0.632405 -32.4692)
(4.70611 0.642216 -32.4653)
(4.75438 0.648333 -32.4705)
(4.61665 0.653339 -32.4678)
(4.66157 0.656905 -32.4722)
(4.54832 0.659812 -32.4704)
(4.58916 0.662054 -32.4741)
(4.49594 0.664205 -32.4732)
(4.52994 0.664439 -32.4763)
(4.45905 0.668363 -32.4759)
(4.46831 0.66224 -32.4786)
(4.44148 0.665439 -32.4785)
(4.36315 0.67783 -32.4654)
(4.41038 -0.956849 -32.4282)
(4.34199 -0.859266 -32.4661)
(3.7064 -0.805116 -32.4606)
(3.57788 -0.739183 -32.4705)
(3.1958 -0.712517 -32.4657)
(3.20512 -0.699833 -32.4725)
(2.95632 -0.693778 -32.469)
(3.00876 -0.69066 -32.4742)
(2.82395 -0.688749 -32.4721)
(2.88412 -0.687251 -32.4762)
(2.73819 -0.686237 -32.4747)
(2.79624 -0.685167 -32.478)
(2.67779 -0.684553 -32.477)
(2.73108 -0.683736 -32.4797)
(2.63293 -0.683135 -32.4791)
(2.68302 -0.683382 -32.4814)
(2.59413 -0.680304 -32.4811)
(2.6626 -0.685361 -32.4831)
(2.53908 -0.676753 -32.4826)
(2.82355 -0.671417 -32.4738)
(2.94025 -0.0991668 -32.3668)
(2.13734 0.459511 -32.406)
(1.44051 0.61106 -32.3962)
(1.34401 0.665941 -32.4087)
(1.11724 0.682293 -32.4002)
(1.15005 0.687081 -32.4099)
(1.01407 0.691047 -32.4034)
(1.06396 0.691222 -32.4112)
(0.962281 0.693426 -32.4064)
(1.01058 0.693098 -32.4126)
(0.929707 0.694588 -32.409)
(0.973092 0.693994 -32.414)
(0.907231 0.694981 -32.4114)
(0.945321 0.694352 -32.4155)
(0.890832 0.69482 -32.4137)
(0.924085 0.694767 -32.4171)
(0.877138 0.691313 -32.4159)
(0.902318 0.697339 -32.4188)
(0.865821 0.641566 -32.4176)
(0.70505 0.651285 -32.4192)
(4.32893 0.558607 0.00701762)
(3.11297 0.837392 0.00457015)
(2.37299 0.858799 0.00582734)
(1.83472 0.842875 0.00436322)
(1.70673 0.845616 0.00548884)
(1.5201 0.857083 0.00432841)
(1.51714 0.866578 0.00526414)
(1.40817 0.874311 0.00429046)
(1.41714 0.878276 0.00505454)
(1.3414 0.881732 0.00423417)
(1.35039 0.883265 0.00485931)
(1.29599 0.885143 0.00417141)
(1.30282 0.885754 0.00468335)
(1.26213 0.887101 0.00410802)
(1.26729 0.886825 0.00452601)
(1.23418 0.889267 0.00404462)
(1.23941 0.881558 0.00438627)
(1.22597 0.90393 0.00397871)
(1.17161 0.783296 0.00428918)
(1.6201 0.808216 0.00385767)
(4.75097 -0.103339 0.00445085)
(4.6122 -0.281779 0.00243789)
(4.52996 -0.481399 0.00372552)
(4.16985 -0.64425 0.00229538)
(4.03804 -0.737783 0.00342919)
(3.7826 -0.790863 0.00227459)
(3.71819 -0.816853 0.00321401)
(3.55107 -0.832913 0.00224313)
(3.51889 -0.842308 0.00300974)
(3.40345 -0.849457 0.00219125)
(3.38425 -0.854194 0.00281804)
(3.30096 -0.858202 0.00213123)
(3.28725 -0.860729 0.00264408)
(3.22423 -0.863602 0.00206953)
(3.21439 -0.864171 0.00248748)
(3.16084 -0.868045 0.0020076)
(3.16286 -0.865536 0.00234384)
(3.09175 -0.870784 0.0019456)
(3.16065 -0.876808 0.00218724)
(2.79291 -0.876384 0.00181437)
(4.63202 0.430086 0.00574239)
(4.81973 0.858109 0.00380334)
(5.12084 0.951707 0.00497349)
(5.06467 0.941731 0.0035036)
(5.12167 0.923378 0.00461181)
(4.99549 0.910511 0.00344476)
(5.00138 0.901366 0.00437832)
(4.8934 0.895888 0.00340402)
(4.88958 0.889817 0.00416875)
(4.80455 0.886579 0.00334852)
(4.79673 0.882381 0.00397402)
(4.73027 0.880556 0.00328596)
(4.72014 0.877836 0.0037978)
(4.66849 0.876654 0.0032222)
(4.65519 0.875145 0.00363986)
(4.61936 0.873693 0.00315838)
(4.59234 0.871658 0.00349976)
(4.59655 0.874277 0.0030924)
(4.51712 0.832543 0.00340084)
(4.64444 0.877936 0.00299939)
(4.57154 -0.201842 0.0045691)
(4.6973 -0.398522 0.00284955)
(5.10948 -0.520352 0.00402464)
(5.20461 -0.624434 0.00258389)
(5.40642 -0.691381 0.00369417)
(5.40505 -0.737552 0.00253154)
(5.50558 -0.763472 0.00346821)
(5.47967 -0.78218 0.00249698)
(5.53589 -0.794201 0.00326448)
(5.50603 -0.804194 0.00244695)
(5.53822 -0.811484 0.00307435)
(5.50996 -0.81778 0.00238825)
(5.52809 -0.822722 0.00290115)
(5.50263 -0.82685 0.00232712)
(5.51283 -0.830782 0.00274478)
(5.48796 -0.832454 0.00226537)
(5.49811 -0.840487 0.00260061)
(5.45587 -0.831968 0.00220158)
(5.49681 -0.869458 0.00244108)
(5.29642 -0.881085 0.00209639)
(4.58424 0.338235 0.0052191)
(4.6939 0.680167 0.00353804)
(5.08674 0.792061 0.0046658)
(5.2017 0.832164 0.00321113)
(5.44096 0.848168 0.00430864)
(5.48455 0.857325 0.00313941)
(5.63089 0.860603 0.00407276)
(5.65155 0.862881 0.00309933)
(5.75019 0.862018 0.00386577)
(5.76163 0.862107 0.00304711)
(5.82967 0.860471 0.00367385)
(5.83584 0.860132 0.00298694)
(5.88297 0.858793 0.00349934)
(5.88627 0.858105 0.00292464)
(5.91788 0.857937 0.00334218)
(5.92159 0.855319 0.00286177)
(5.9371 0.85902 0.00320092)
(5.94705 0.851904 0.00279609)
(5.94798 0.854159 0.00308568)
(5.93327 0.901739 0.00271628)
(4.57823 -0.267499 0.0048498)
(4.66636 -0.535285 0.003233)
(5.05459 -0.648841 0.00436001)
(5.17129 -0.718765 0.00291248)
(5.42172 -0.758516 0.00400841)
(5.47957 -0.785571 0.00283932)
(5.64247 -0.799788 0.00377273)
(5.68054 -0.810224 0.00279963)
(5.79689 -0.815762 0.00356656)
(5.8263 -0.820917 0.00274845)
(5.91174 -0.823932 0.00337561)
(5.9348 -0.827115 0.0026892)
(5.99823 -0.82932 0.00320184)
(6.01588 -0.831083 0.00262762)
(6.06355 -0.833887 0.00304503)
(6.07555 -0.832453 0.00256546)
(6.11339 -0.84146 0.00290182)
(6.10941 -0.829708 0.00250048)
(6.15858 -0.860371 0.00276172)
(6.05376 -0.891228 0.00241484)
(4.57823 0.267499 0.0048498)
(4.66636 0.535286 0.003233)
(5.05459 0.648841 0.00436001)
(5.17129 0.718766 0.00291248)
(5.42172 0.758516 0.00400841)
(5.47958 0.785572 0.00283932)
(5.64247 0.799788 0.00377274)
(5.68055 0.810228 0.00279962)
(5.79689 0.815765 0.00356657)
(5.82631 0.820927 0.00274844)
(5.91172 0.823942 0.00337563)
(5.93482 0.827145 0.00268917)
(5.99819 0.829346 0.00320188)
(6.01594 0.83118 0.00262754)
(6.06346 0.833958 0.00304513)
(6.07574 0.832741 0.00256524)
(6.11326 0.841707 0.00290217)
(6.11 0.830446 0.00249997)
(6.15882 0.861263 0.00276302)
(6.05482 0.89305 0.00241433)
(4.58424 -0.338235 0.0052191)
(4.6939 -0.680167 0.00353804)
(5.08674 -0.792061 0.00466579)
(5.2017 -0.832163 0.00321113)
(5.44096 -0.848168 0.00430863)
(5.48455 -0.857323 0.00313941)
(5.63089 -0.860603 0.00407275)
(5.65155 -0.862876 0.00309933)
(5.75019 -0.862016 0.00386576)
(5.76163 -0.862096 0.00304713)
(5.82967 -0.860465 0.00367383)
(5.83584 -0.860097 0.00298698)
(5.88301 -0.858777 0.00349928)
(5.88627 -0.857996 0.00292474)
(5.91801 -0.857898 0.00334203)
(5.92155 -0.855017 0.00286202)
(5.93747 -0.858867 0.00320049)
(5.94687 -0.851265 0.00279654)
(5.94864 -0.853473 0.00308439)
(5.93323 -0.900186 0.0027163)
(4.57154 0.201842 0.0045691)
(4.69731 0.398522 0.00284955)
(5.10948 0.520352 0.00402464)
(5.20461 0.624434 0.00258389)
(5.40642 0.691381 0.00369417)
(5.40505 0.737553 0.00253155)
(5.50557 0.763473 0.00346821)
(5.47968 0.782181 0.00249698)
(5.53588 0.794205 0.00326448)
(5.50605 0.804199 0.00244694)
(5.5382 0.811496 0.00307435)
(5.51002 0.817798 0.00238824)
(5.52806 0.822754 0.00290116)
(5.5028 0.826913 0.00232708)
(5.51281 0.830864 0.00274481)
(5.48839 0.832655 0.00226527)
(5.49822 0.840762 0.00260078)
(5.45706 0.83259 0.00220127)
(5.49774 0.870413 0.00244222)
(5.29949 0.882761 0.00209581)
(4.63202 -0.430086 0.00574239)
(4.81973 -0.858108 0.00380334)
(5.12084 -0.951707 0.00497348)
(5.06467 -0.941731 0.0035036)
(5.12167 -0.923379 0.00461181)
(4.9955 -0.91051 0.00344476)
(5.00138 -0.901366 0.00437832)
(4.89341 -0.895884 0.00340403)
(4.88958 -0.889817 0.00416873)
(4.80457 -0.886569 0.00334854)
(4.79673 -0.882381 0.00397398)
(4.73033 -0.880524 0.00328602)
(4.72017 -0.877838 0.00379769)
(4.66864 -0.876556 0.00322237)
(4.65533 -0.875156 0.00363958)
(4.61968 -0.873431 0.00315878)
(4.59287 -0.871669 0.00349903)
(4.59727 -0.873836 0.00309317)
(4.51848 -0.832359 0.00339912)
(4.64643 -0.877419 0.00299978)
(4.75097 0.103339 0.00445085)
(4.6122 0.281779 0.00243789)
(4.52996 0.481399 0.00372552)
(4.16985 0.64425 0.00229538)
(4.03803 0.737784 0.00342919)
(3.7826 0.790863 0.00227459)
(3.71819 0.816855 0.003214)
(3.55109 0.832912 0.00224313)
(3.51888 0.842312 0.00300973)
(3.40348 0.849455 0.00219126)
(3.38424 0.854206 0.00281803)
(3.30105 0.858196 0.00213124)
(3.28724 0.860758 0.00264405)
(3.22447 0.863592 0.00206956)
(3.21443 0.864248 0.00248739)
(3.16149 0.868037 0.0020077)
(3.16308 0.865777 0.00234365)
(3.09376 0.87094 0.00194578)
(3.16114 0.877659 0.00218738)
(2.80037 0.877766 0.00181469)
(4.32893 -0.558607 0.00701762)
(3.11297 -0.837392 0.00457015)
(2.37299 -0.858799 0.00582734)
(1.83472 -0.842875 0.00436322)
(1.70673 -0.845616 0.00548884)
(1.5201 -0.857082 0.00432841)
(1.51714 -0.86658 0.00526413)
(1.40817 -0.874308 0.00429048)
(1.41715 -0.878278 0.00505452)
(1.34141 -0.881726 0.0042342)
(1.3504 -0.883272 0.00485926)
(1.29603 -0.885124 0.00417149)
(1.30287 -0.885773 0.00468321)
(1.26222 -0.887044 0.00410825)
(1.26745 -0.886885 0.00452561)
(1.2344 -0.889119 0.00404525)
(1.23992 -0.881765 0.00438515)
(1.2265 -0.903733 0.0039804)
(1.17283 -0.784334 0.0042856)
(1.62127 -0.809494 0.00386259)
(4.37833 0.0941005 0.00142075)
(3.98825 0.142721 0.00195987)
(3.47685 0.15476 0.00101698)
(3.03781 0.147925 0.00155199)
(2.65778 0.136553 0.00103237)
(2.39169 0.128642 0.00143858)
(2.19355 0.124373 0.00109555)
(2.06899 0.124605 0.00134983)
(1.98253 0.127281 0.00111864)
(1.92757 0.131811 0.00126703)
(1.89062 0.136636 0.00112404)
(1.86253 0.141659 0.00120236)
(1.84476 0.145848 0.00112779)
(1.82726 0.150148 0.001158)
(1.81591 0.152493 0.00113628)
(1.80722 0.157169 0.00113051)
(1.78984 0.155262 0.00115413)
(1.80643 0.165013 0.00111439)
(1.74783 0.150362 0.00116346)
(1.84894 0.159024 0.00117805)
(4.53777 0.0850912 0.00320387)
(4.67505 0.113328 0.00391896)
(4.71035 0.111768 0.00296974)
(4.70583 0.0838786 0.00348071)
(4.63145 0.0454889 0.0029372)
(4.55134 0.00417706 0.00333019)
(4.45389 -0.0320182 0.0029787)
(4.36841 -0.0624447 0.00322975)
(4.28571 -0.0852443 0.00299611)
(4.21448 -0.103032 0.00314414)
(4.15115 -0.115816 0.00300032)
(4.09497 -0.12588 0.00307878)
(4.04761 -0.133302 0.00300394)
(4.0042 -0.139203 0.00303411)
(3.96864 -0.144195 0.00301284)
(3.93691 -0.147003 0.00300609)
(3.90735 -0.152396 0.00303332)
(3.89129 -0.150224 0.00298804)
(3.85399 -0.159886 0.00307984)
(3.86478 -0.154792 0.00308636)
(4.51383 0.0444824 0.00177668)
(4.65427 0.106018 0.00237795)
(4.77437 0.154617 0.00146103)
(4.91812 0.179798 0.00197597)
(5.01189 0.187808 0.00143909)
(5.09222 0.187458 0.00183868)
(5.13287 0.183657 0.00149534)
(5.16194 0.180518 0.00175116)
(5.17077 0.178583 0.00152262)
(5.17464 0.178152 0.00167233)
(5.17029 0.178396 0.001531)
(5.16445 0.17922 0.00160975)
(5.15528 0.179623 0.00153594)
(5.14732 0.180793 0.00156628)
(5.13559 0.17973 0.0015446)
(5.13042 0.182885 0.00153982)
(5.11479 0.176473 0.00156001)
(5.11739 0.188548 0.00153034)
(5.09471 0.166345 0.00155339)
(5.10635 0.196288 0.00158665)
(4.50985 0.0427 0.00278984)
(4.621 0.0479207 0.00349903)
(4.73409 0.0421959 0.00260581)
(4.88872 0.0236337 0.00312563)
(5.01243 0.000882223 0.00257479)
(5.13647 -0.0241282 0.00296323)
(5.2271 -0.0473553 0.00260945)
(5.30875 -0.0679512 0.00286056)
(5.36899 -0.0845959 0.00262778)
(5.42248 -0.0981259 0.00277609)
(5.46489 -0.108761 0.00263279)
(5.50276 -0.117141 0.00271106)
(5.53517 -0.124293 0.0026362)
(5.56391 -0.129295 0.00266624)
(5.59032 -0.135229 0.00264435)
(5.61217 -0.136861 0.00263895)
(5.6369 -0.144467 0.00266287)
(5.6482 -0.140304 0.00262919)
(5.68206 -0.152546 0.00271199)
(5.66508 -0.143717 0.00271849)
(4.51091 0.0162136 0.002093)
(4.62202 0.0537893 0.00275703)
(4.72847 0.0875991 0.00187365)
(4.87757 0.111444 0.00238488)
(4.99943 0.126284 0.00183228)
(5.1271 0.136288 0.00222096)
(5.2256 0.143204 0.00187001)
(5.31885 0.149239 0.00212324)
(5.39298 0.154459 0.00189311)
(5.46222 0.159399 0.00204255)
(5.52167 0.163594 0.00190086)
(5.57725 0.167401 0.00197956)
(5.62845 0.170162 0.0019056)
(5.67528 0.173057 0.00193589)
(5.72179 0.173886 0.00191418)
(5.76005 0.17745 0.00190987)
(5.80768 0.174098 0.00192955)
(5.82901 0.183454 0.00190461)
(5.89623 0.169464 0.00193721)
(5.87508 0.194921 0.00196763)
(4.50967 0.0114181 0.00242431)
(4.61442 -0.00449299 0.00311719)
(4.71958 -0.0236665 0.00224138)
(4.86717 -0.0447276 0.00275832)
(4.98838 -0.0633482 0.00220424)
(5.11613 -0.0805515 0.00259132)
(5.21581 -0.0953604 0.00223793)
(5.31123 -0.108345 0.00249019)
(5.38865 -0.119062 0.002259)
(5.4618 -0.128024 0.00240817)
(5.5263 -0.135311 0.00226599)
(5.58687 -0.141149 0.00234456)
(5.64475 -0.146098 0.00227035)
(5.69681 -0.149709 0.00230047)
(5.75203 -0.153319 0.00227884)
(5.7942 -0.155293 0.00227413)
(5.85406 -0.158107 0.00229585)
(5.87497 -0.159509 0.00226902)
(5.96096 -0.159781 0.002329)
(5.93166 -0.166585 0.00234369)
(4.50967 -0.0114183 0.00242431)
(4.61442 0.00449337 0.00311719)
(4.71958 0.0236661 0.00224138)
(4.86717 0.0447285 0.00275832)
(4.98838 0.0633476 0.00220424)
(5.11613 0.0805535 0.00259132)
(5.21581 0.0953602 0.00223793)
(5.31123 0.10835 0.00249019)
(5.38865 0.119064 0.00225899)
(5.4618 0.128036 0.00240818)
(5.5263 0.135317 0.00226597)
(5.58688 0.141183 0.00234459)
(5.64475 0.146113 0.00227032)
(5.69682 0.149813 0.00230055)
(5.75202 0.153354 0.00227873)
(5.79422 0.155583 0.00227434)
(5.85407 0.15824 0.00229544)
(5.87504 0.160203 0.00226937)
(5.96107 0.160406 0.00232716)
(5.93188 0.168006 0.00234409)
(4.51091 -0.0162138 0.002093)
(4.62202 -0.0537889 0.00275703)
(4.72847 -0.0875995 0.00187365)
(4.87757 -0.111443 0.00238488)
(4.99943 -0.126285 0.00183228)
(5.1271 -0.136286 0.00222096)
(5.2256 -0.143205 0.00187001)
(5.31885 -0.149234 0.00212323)
(5.39298 -0.154458 0.00189312)
(5.46222 -0.159387 0.00204254)
(5.52168 -0.163589 0.00190087)
(5.57725 -0.167366 0.00197953)
(5.62847 -0.17015 0.00190563)
(5.67527 -0.172953 0.00193581)
(5.72186 -0.173856 0.00191428)
(5.76005 -0.177163 0.00190966)
(5.80785 -0.173979 0.00192991)
(5.82907 -0.182784 0.00190423)
(5.89659 -0.168889 0.00193878)
(5.87539 -0.193602 0.00196719)
(4.50985 -0.0427002 0.00278984)
(4.621 -0.0479204 0.00349903)
(4.73409 -0.0421962 0.00260581)
(4.88872 -0.0236329 0.00312564)
(5.01243 -0.000882642 0.00257479)
(5.13647 0.02413 0.00296324)
(5.2271 0.0473552 0.00260944)
(5.30876 0.0679552 0.00286056)
(5.36899 0.0845977 0.00262777)
(5.4225 0.098136 0.00277611)
(5.46489 0.108767 0.00263277)
(5.50279 0.117171 0.0027111)
(5.53518 0.124309 0.00263614)
(5.56397 0.129387 0.00266632)
(5.59038 0.135261 0.00264422)
(5.6123 0.137125 0.00263913)
(5.63713 0.144579 0.00266242)
(5.64854 0.140952 0.00262949)
(5.68282 0.153087 0.00271021)
(5.66612 0.145073 0.00271866)
(4.51383 -0.0444825 0.00177668)
(4.65427 -0.106018 0.00237795)
(4.77437 -0.154617 0.00146103)
(4.91812 -0.179797 0.00197597)
(5.01189 -0.187809 0.00143909)
(5.09223 -0.187456 0.00183868)
(5.13286 -0.183658 0.00149534)
(5.16195 -0.180513 0.00175116)
(5.17076 -0.178582 0.00152261)
(5.17467 -0.178141 0.00167233)
(5.17027 -0.178394 0.00153099)
(5.16452 -0.179189 0.00160975)
(5.15527 -0.179618 0.00153593)
(5.14747 -0.180704 0.00156626)
(5.13565 -0.179721 0.00154462)
(5.13074 -0.182644 0.00153974)
(5.11513 -0.17642 0.00156015)
(5.11808 -0.188009 0.00153014)
(5.09587 -0.16599 0.00155422)
(5.10814 -0.195372 0.00158652)
(4.53777 -0.0850912 0.00320387)
(4.67505 -0.113328 0.00391896)
(4.71035 -0.111768 0.00296973)
(4.70583 -0.0838784 0.00348071)
(4.63145 -0.0454887 0.00293719)
(4.55134 -0.00417649 0.00333019)
(4.45389 0.032019 0.00297868)
(4.36843 0.062446 0.00322977)
(4.28569 0.0852471 0.00299608)
(4.21453 0.103035 0.00314419)
(4.15112 0.115823 0.00300024)
(4.0951 0.125892 0.0030789)
(4.04757 0.133316 0.00300376)
(4.00451 0.139247 0.00303438)
(3.96862 0.14422 0.0030124)
(3.93762 0.147138 0.00300672)
(3.90753 0.152462 0.00303224)
(3.89292 0.150572 0.00298941)
(3.85487 0.160208 0.00307689)
(3.86885 0.155534 0.00308905)
(4.37833 -0.0941005 0.00142075)
(3.98825 -0.142721 0.00195987)
(3.47685 -0.15476 0.00101698)
(3.03782 -0.147925 0.00155199)
(2.65778 -0.136553 0.00103237)
(2.3917 -0.128642 0.00143859)
(2.19355 -0.124373 0.00109555)
(2.069 -0.124604 0.00134984)
(1.98253 -0.127281 0.00111863)
(1.92761 -0.131809 0.00126704)
(1.89062 -0.136636 0.00112402)
(1.86262 -0.141652 0.00120238)
(1.84478 -0.145851 0.00112775)
(1.82747 -0.150125 0.00115807)
(1.81602 -0.152509 0.00113616)
(1.80772 -0.157102 0.00113069)
(1.79023 -0.155309 0.00115374)
(1.80777 -0.164871 0.00111493)
(1.74864 -0.150447 0.00116225)
(1.85337 -0.1591 0.00117996)
(4.37833 0.0941005 -0.00142079)
(3.98825 0.142721 -0.00195991)
(3.47685 0.15476 -0.00101702)
(3.03781 0.147925 -0.00155203)
(2.65778 0.136553 -0.00103242)
(2.39169 0.128642 -0.00143863)
(2.19355 0.124373 -0.00109559)
(2.06899 0.124605 -0.00134988)
(1.98253 0.127281 -0.00111868)
(1.92757 0.131811 -0.00126707)
(1.89062 0.136636 -0.00112408)
(1.86253 0.141659 -0.0012024)
(1.84476 0.145848 -0.00112783)
(1.82726 0.150148 -0.00115804)
(1.81591 0.152493 -0.00113633)
(1.80722 0.157169 -0.00113056)
(1.78984 0.155263 -0.00115417)
(1.80643 0.165013 -0.00111444)
(1.74783 0.150362 -0.0011635)
(1.84894 0.159024 -0.00117809)
(4.53777 0.0850912 -0.00320392)
(4.67505 0.113328 -0.003919)
(4.71035 0.111768 -0.00296978)
(4.70583 0.0838786 -0.00348075)
(4.63145 0.0454888 -0.00293724)
(4.55134 0.00417703 -0.00333023)
(4.45389 -0.0320182 -0.00297874)
(4.36841 -0.0624447 -0.00322979)
(4.28571 -0.0852443 -0.00299616)
(4.21448 -0.103032 -0.00314418)
(4.15115 -0.115816 -0.00300036)
(4.09497 -0.12588 -0.00307883)
(4.04761 -0.133302 -0.00300399)
(4.0042 -0.139203 -0.00303415)
(3.96864 -0.144196 -0.00301288)
(3.93691 -0.147003 -0.00300613)
(3.90735 -0.152396 -0.00303337)
(3.89129 -0.150224 -0.00298808)
(3.85399 -0.159886 -0.00307988)
(3.86478 -0.154792 -0.0030864)
(4.51383 0.0444824 -0.00177673)
(4.65427 0.106018 -0.00237799)
(4.77437 0.154617 -0.00146107)
(4.91812 0.179798 -0.00197602)
(5.01189 0.187808 -0.00143914)
(5.09222 0.187458 -0.00183872)
(5.13287 0.183657 -0.00149538)
(5.16194 0.180518 -0.0017512)
(5.17077 0.178583 -0.00152266)
(5.17464 0.178152 -0.00167237)
(5.17029 0.178396 -0.00153104)
(5.16445 0.17922 -0.00160979)
(5.15528 0.179623 -0.00153598)
(5.14732 0.180794 -0.00156632)
(5.13559 0.17973 -0.00154465)
(5.13042 0.182885 -0.00153987)
(5.11478 0.176473 -0.00156006)
(5.11739 0.188548 -0.00153039)
(5.09471 0.166345 -0.00155344)
(5.10635 0.196288 -0.00158669)
(4.50985 0.0427 -0.00278988)
(4.621 0.0479207 -0.00349908)
(4.73409 0.0421959 -0.00260586)
(4.88872 0.0236337 -0.00312568)
(5.01243 0.000882194 -0.00257483)
(5.13647 -0.0241283 -0.00296327)
(5.2271 -0.0473553 -0.00260949)
(5.30875 -0.0679512 -0.0028606)
(5.36899 -0.0845959 -0.00262782)
(5.42248 -0.0981259 -0.00277614)
(5.46489 -0.108761 -0.00263284)
(5.50276 -0.117141 -0.00271111)
(5.53517 -0.124293 -0.00263624)
(5.56391 -0.129295 -0.00266628)
(5.59032 -0.135229 -0.0026444)
(5.61217 -0.136861 -0.00263899)
(5.6369 -0.144467 -0.00266291)
(5.6482 -0.140304 -0.00262924)
(5.68206 -0.152546 -0.00271203)
(5.66508 -0.143718 -0.00271853)
(4.51091 0.0162136 -0.00209305)
(4.62202 0.0537893 -0.00275707)
(4.72847 0.0875991 -0.0018737)
(4.87757 0.111444 -0.00238492)
(4.99943 0.126284 -0.00183232)
(5.1271 0.136288 -0.00222101)
(5.2256 0.143204 -0.00187005)
(5.31885 0.149239 -0.00212328)
(5.39298 0.154459 -0.00189316)
(5.46222 0.159399 -0.00204259)
(5.52167 0.163594 -0.0019009)
(5.57725 0.167401 -0.0019796)
(5.62845 0.170162 -0.00190564)
(5.67528 0.173057 -0.00193594)
(5.72179 0.173886 -0.00191422)
(5.76005 0.17745 -0.00190991)
(5.80768 0.174098 -0.0019296)
(5.82901 0.183454 -0.00190466)
(5.89622 0.169464 -0.00193726)
(5.87508 0.194921 -0.00196768)
(4.50967 0.0114181 -0.00242435)
(4.61442 -0.004493 -0.00311723)
(4.71958 -0.0236665 -0.00224142)
(4.86717 -0.0447277 -0.00275836)
(4.98838 -0.0633482 -0.00220429)
(5.11613 -0.0805515 -0.00259136)
(5.21581 -0.0953604 -0.00223798)
(5.31123 -0.108345 -0.00249023)
(5.38865 -0.119062 -0.00225904)
(5.4618 -0.128024 -0.00240821)
(5.5263 -0.135311 -0.00226603)
(5.58687 -0.141149 -0.0023446)
(5.64475 -0.146098 -0.0022704)
(5.69681 -0.149709 -0.00230051)
(5.75203 -0.153319 -0.00227888)
(5.7942 -0.155293 -0.00227417)
(5.85405 -0.158107 -0.0022959)
(5.87497 -0.159509 -0.00226906)
(5.96096 -0.159781 -0.00232905)
(5.93166 -0.166585 -0.00234373)
(4.50967 -0.0114183 -0.00242435)
(4.61442 0.00449338 -0.00311723)
(4.71958 0.0236662 -0.00224142)
(4.86717 0.0447286 -0.00275836)
(4.98838 0.0633477 -0.00220428)
(5.11613 0.0805535 -0.00259137)
(5.21581 0.0953602 -0.00223797)
(5.31123 0.10835 -0.00249023)
(5.38865 0.119064 -0.00225903)
(5.4618 0.128036 -0.00240822)
(5.5263 0.135317 -0.00226602)
(5.58688 0.141183 -0.00234463)
(5.64475 0.146113 -0.00227036)
(5.69682 0.149813 -0.0023006)
(5.75202 0.153354 -0.00227877)
(5.79422 0.155583 -0.00227438)
(5.85407 0.15824 -0.00229548)
(5.87504 0.160203 -0.00226941)
(5.96107 0.160406 -0.00232721)
(5.93188 0.168006 -0.00234413)
(4.51091 -0.0162138 -0.00209305)
(4.62202 -0.053789 -0.00275707)
(4.72847 -0.0875995 -0.0018737)
(4.87757 -0.111443 -0.00238492)
(4.99943 -0.126285 -0.00183232)
(5.1271 -0.136286 -0.00222101)
(5.2256 -0.143205 -0.00187005)
(5.31885 -0.149234 -0.00212328)
(5.39298 -0.154458 -0.00189316)
(5.46222 -0.159387 -0.00204258)
(5.52168 -0.163589 -0.00190092)
(5.57725 -0.167366 -0.00197957)
(5.62847 -0.17015 -0.00190568)
(5.67527 -0.172953 -0.00193586)
(5.72186 -0.173856 -0.00191432)
(5.76005 -0.177163 -0.0019097)
(5.80785 -0.173979 -0.00192996)
(5.82907 -0.182784 -0.00190428)
(5.89659 -0.168889 -0.00193883)
(5.87539 -0.193602 -0.00196723)
(4.50985 -0.0427002 -0.00278988)
(4.621 -0.0479204 -0.00349908)
(4.73409 -0.0421962 -0.00260586)
(4.88872 -0.0236329 -0.00312568)
(5.01243 -0.000882626 -0.00257483)
(5.13647 0.02413 -0.00296328)
(5.2271 0.0473552 -0.00260949)
(5.30876 0.0679552 -0.00286061)
(5.36899 0.0845977 -0.00262781)
(5.42249 0.098136 -0.00277615)
(5.46489 0.108767 -0.00263281)
(5.50279 0.117171 -0.00271114)
(5.53518 0.124309 -0.00263619)
(5.56397 0.129387 -0.00266636)
(5.59038 0.135261 -0.00264426)
(5.6123 0.137125 -0.00263917)
(5.63713 0.144579 -0.00266247)
(5.64854 0.140952 -0.00262954)
(5.68282 0.153087 -0.00271026)
(5.66612 0.145073 -0.00271871)
(4.51383 -0.0444825 -0.00177673)
(4.65427 -0.106018 -0.00237799)
(4.77437 -0.154617 -0.00146107)
(4.91812 -0.179798 -0.00197602)
(5.01189 -0.187809 -0.00143914)
(5.09223 -0.187456 -0.00183872)
(5.13286 -0.183658 -0.00149538)
(5.16195 -0.180513 -0.0017512)
(5.17076 -0.178582 -0.00152266)
(5.17467 -0.178141 -0.00167238)
(5.17027 -0.178394 -0.00153104)
(5.16452 -0.179189 -0.00160979)
(5.15527 -0.179618 -0.00153598)
(5.14747 -0.180704 -0.00156631)
(5.13565 -0.179721 -0.00154467)
(5.13073 -0.182644 -0.00153978)
(5.11513 -0.17642 -0.0015602)
(5.11808 -0.188009 -0.00153018)
(5.09587 -0.16599 -0.00155427)
(5.10814 -0.195372 -0.00158657)
(4.53777 -0.0850912 -0.00320392)
(4.67505 -0.113328 -0.003919)
(4.71035 -0.111768 -0.00296978)
(4.70583 -0.0838784 -0.00348076)
(4.63145 -0.0454887 -0.00293724)
(4.55134 -0.00417646 -0.00333024)
(4.45389 0.032019 -0.00297873)
(4.36843 0.062446 -0.00322981)
(4.28569 0.0852471 -0.00299613)
(4.21453 0.103035 -0.00314423)
(4.15112 0.115823 -0.00300029)
(4.0951 0.125892 -0.00307895)
(4.04756 0.133316 -0.00300381)
(4.00451 0.139247 -0.00303443)
(3.96862 0.14422 -0.00301245)
(3.93762 0.147138 -0.00300676)
(3.90753 0.152462 -0.00303229)
(3.89292 0.150572 -0.00298945)
(3.85487 0.160208 -0.00307693)
(3.86885 0.155534 -0.00308909)
(4.37833 -0.0941005 -0.00142079)
(3.98825 -0.142721 -0.00195991)
(3.47685 -0.15476 -0.00101702)
(3.03782 -0.147925 -0.00155203)
(2.65778 -0.136553 -0.00103242)
(2.3917 -0.128642 -0.00143863)
(2.19355 -0.124373 -0.00109559)
(2.069 -0.124604 -0.00134988)
(1.98253 -0.127281 -0.00111868)
(1.92761 -0.131809 -0.00126708)
(1.89062 -0.136636 -0.00112407)
(1.86262 -0.141652 -0.00120243)
(1.84478 -0.145851 -0.00112779)
(1.82747 -0.150125 -0.00115811)
(1.81602 -0.152509 -0.0011362)
(1.80772 -0.157102 -0.00113073)
(1.79023 -0.155309 -0.00115378)
(1.80777 -0.164871 -0.00111498)
(1.74864 -0.150447 -0.0011623)
(1.85337 -0.1591 -0.00118)
(4.32893 0.558607 -0.00701766)
(3.11297 0.837392 -0.00457018)
(2.37299 0.858799 -0.00582738)
(1.83472 0.842875 -0.00436325)
(1.70673 0.845616 -0.00548887)
(1.5201 0.857083 -0.00432844)
(1.51714 0.866578 -0.00526417)
(1.40817 0.874311 -0.0042905)
(1.41714 0.878276 -0.00505457)
(1.3414 0.881732 -0.0042342)
(1.35038 0.883265 -0.00485934)
(1.29599 0.885143 -0.00417145)