/*--------------------------------*- C++ -*----------------------------------*\
  =========                 |
  \\      /  F ield         | OpenFOAM: The Open Source CFD Toolbox
   \\    /   O peration     | Website:  https://openfoam.org
    \\  /    A nd           | Version:  7
     \\/     M anipulation  |
\*---------------------------------------------------------------------------*/
FoamFile
{
    version     2.0;
    format      ascii;
    class       volScalarField;
    location    "0.755";
    object      pPrime2Mean;
}
// * * * * * * * * * * * * * * * * * * * * * * * * * * * * * * * * * * * * * //

dimensions      [2 -2 -4 0 0 0 0];

internalField   nonuniform List<scalar> 
13200
(
2.52414e+06
2.52093e+06
2.52108e+06
2.51779e+06
2.5176e+06
2.51376e+06
2.51306e+06
2.50871e+06
2.50749e+06
2.50279e+06
2.50113e+06
2.49619e+06
2.49417e+06
2.48906e+06
2.48672e+06
2.48144e+06
2.4788e+06
2.47334e+06
2.47048e+06
2.46515e+06
2.52369e+06
2.52053e+06
2.52068e+06
2.51734e+06
2.51714e+06
2.51326e+06
2.51255e+06
2.50818e+06
2.50696e+06
2.50225e+06
2.50059e+06
2.49564e+06
2.49361e+06
2.48849e+06
2.48614e+06
2.48086e+06
2.47821e+06
2.47274e+06
2.46991e+06
2.46459e+06
2.52385e+06
2.5206e+06
2.52069e+06
2.51739e+06
2.51721e+06
2.51336e+06
2.51267e+06
2.50833e+06
2.50712e+06
2.50242e+06
2.50076e+06
2.49582e+06
2.4938e+06
2.48868e+06
2.48634e+06
2.48105e+06
2.4784e+06
2.47293e+06
2.47005e+06
2.46474e+06
2.52368e+06
2.52051e+06
2.52063e+06
2.51729e+06
2.51707e+06
2.51319e+06
2.51248e+06
2.50812e+06
2.50692e+06
2.50222e+06
2.50057e+06
2.49563e+06
2.49361e+06
2.48849e+06
2.48614e+06
2.48085e+06
2.47821e+06
2.47272e+06
2.46988e+06
2.46447e+06
2.52381e+06
2.52059e+06
2.52066e+06
2.51734e+06
2.51714e+06
2.51328e+06
2.51258e+06
2.50825e+06
2.50706e+06
2.50237e+06
2.50073e+06
2.49579e+06
2.49378e+06
2.48867e+06
2.48633e+06
2.48104e+06
2.47838e+06
2.47291e+06
2.46999e+06
2.46459e+06
2.52368e+06
2.52049e+06
2.52059e+06
2.51724e+06
2.51704e+06
2.51316e+06
2.51245e+06
2.50811e+06
2.50692e+06
2.50223e+06
2.50059e+06
2.49566e+06
2.49365e+06
2.48853e+06
2.4862e+06
2.48091e+06
2.47826e+06
2.47278e+06
2.46991e+06
2.46443e+06
2.52377e+06
2.52057e+06
2.52064e+06
2.51731e+06
2.5171e+06
2.51324e+06
2.51253e+06
2.5082e+06
2.50701e+06
2.50232e+06
2.50069e+06
2.49576e+06
2.49375e+06
2.48864e+06
2.48631e+06
2.48103e+06
2.47837e+06
2.4729e+06
2.46997e+06
2.46449e+06
2.52369e+06
2.52049e+06
2.52057e+06
2.51722e+06
2.51701e+06
2.51315e+06
2.51244e+06
2.50811e+06
2.50692e+06
2.50224e+06
2.50061e+06
2.49567e+06
2.49367e+06
2.48856e+06
2.48622e+06
2.48094e+06
2.47829e+06
2.47281e+06
2.46992e+06
2.46441e+06
2.52373e+06
2.52054e+06
2.52061e+06
2.51728e+06
2.51706e+06
2.5132e+06
2.5125e+06
2.50817e+06
2.50697e+06
2.50229e+06
2.50066e+06
2.49573e+06
2.49372e+06
2.48861e+06
2.48628e+06
2.481e+06
2.47834e+06
2.47287e+06
2.46995e+06
2.46444e+06
2.52371e+06
2.52051e+06
2.52058e+06
2.51724e+06
2.51703e+06
2.51316e+06
2.51246e+06
2.50813e+06
2.50694e+06
2.50226e+06
2.50063e+06
2.4957e+06
2.49369e+06
2.48858e+06
2.48625e+06
2.48097e+06
2.47832e+06
2.47284e+06
2.46993e+06
2.46442e+06
2.52371e+06
2.52051e+06
2.52058e+06
2.51724e+06
2.51703e+06
2.51316e+06
2.51246e+06
2.50813e+06
2.50694e+06
2.50226e+06
2.50063e+06
2.4957e+06
2.49369e+06
2.48858e+06
2.48625e+06
2.48097e+06
2.47832e+06
2.47284e+06
2.46993e+06
2.46441e+06
2.52373e+06
2.52054e+06
2.52061e+06
2.51728e+06
2.51706e+06
2.5132e+06
2.5125e+06
2.50817e+06
2.50697e+06
2.50229e+06
2.50066e+06
2.49573e+06
2.49372e+06
2.48861e+06
2.48628e+06
2.481e+06
2.47834e+06
2.47287e+06
2.46994e+06
2.46444e+06
2.52369e+06
2.52049e+06
2.52057e+06
2.51722e+06
2.51701e+06
2.51315e+06
2.51244e+06
2.50811e+06
2.50692e+06
2.50224e+06
2.50061e+06
2.49567e+06
2.49367e+06
2.48856e+06
2.48622e+06
2.48094e+06
2.47829e+06
2.47281e+06
2.46992e+06
2.46441e+06
2.52377e+06
2.52057e+06
2.52064e+06
2.51731e+06
2.5171e+06
2.51324e+06
2.51253e+06
2.5082e+06
2.50701e+06
2.50232e+06
2.50069e+06
2.49576e+06
2.49375e+06
2.48864e+06
2.48631e+06
2.48103e+06
2.47837e+06
2.4729e+06
2.46996e+06
2.46449e+06
2.52368e+06
2.52049e+06
2.52059e+06
2.51724e+06
2.51704e+06
2.51316e+06
2.51245e+06
2.50811e+06
2.50692e+06
2.50223e+06
2.50059e+06
2.49566e+06
2.49365e+06
2.48853e+06
2.4862e+06
2.48091e+06
2.47826e+06
2.47278e+06
2.46991e+06
2.46443e+06
2.52381e+06
2.52059e+06
2.52066e+06
2.51734e+06
2.51714e+06
2.51328e+06
2.51258e+06
2.50825e+06
2.50706e+06
2.50237e+06
2.50073e+06
2.49579e+06
2.49378e+06
2.48867e+06
2.48633e+06
2.48104e+06
2.47838e+06
2.47291e+06
2.46999e+06
2.46459e+06
2.52368e+06
2.52051e+06
2.52063e+06
2.51729e+06
2.51707e+06
2.51319e+06
2.51248e+06
2.50812e+06
2.50692e+06
2.50222e+06
2.50057e+06
2.49563e+06
2.49361e+06
2.48849e+06
2.48614e+06
2.48085e+06
2.4782e+06
2.47273e+06
2.46988e+06
2.46448e+06
2.52385e+06
2.5206e+06
2.52069e+06
2.51739e+06
2.51721e+06
2.51336e+06
2.51267e+06
2.50833e+06
2.50712e+06
2.50242e+06
2.50076e+06
2.49582e+06
2.4938e+06
2.48868e+06
2.48634e+06
2.48105e+06
2.4784e+06
2.47293e+06
2.47004e+06
2.46475e+06
2.52369e+06
2.52053e+06
2.52068e+06
2.51734e+06
2.51714e+06
2.51326e+06
2.51255e+06
2.50818e+06
2.50696e+06
2.50225e+06
2.50059e+06
2.49564e+06
2.49361e+06
2.48849e+06
2.48614e+06
2.48086e+06
2.47821e+06
2.47274e+06
2.46991e+06
2.4646e+06
2.52414e+06
2.52093e+06
2.52108e+06
2.51779e+06
2.5176e+06
2.51376e+06
2.51306e+06
2.50871e+06
2.50749e+06
2.50279e+06
2.50113e+06
2.49619e+06
2.49417e+06
2.48906e+06
2.48672e+06
2.48144e+06
2.4788e+06
2.47334e+06
2.47047e+06
2.46515e+06
2.52198e+06
2.51849e+06
2.51898e+06
2.51523e+06
2.51549e+06
2.5113e+06
2.51115e+06
2.50653e+06
2.50588e+06
2.50092e+06
2.49981e+06
2.49462e+06
2.49312e+06
2.48778e+06
2.48591e+06
2.48042e+06
2.47821e+06
2.47257e+06
2.47013e+06
2.46459e+06
2.52229e+06
2.51879e+06
2.51928e+06
2.51557e+06
2.51586e+06
2.51172e+06
2.5116e+06
2.50701e+06
2.50638e+06
2.50144e+06
2.50034e+06
2.49516e+06
2.49366e+06
2.48833e+06
2.48646e+06
2.48099e+06
2.47878e+06
2.47315e+06
2.4707e+06
2.46522e+06
2.5221e+06
2.51859e+06
2.51911e+06
2.51537e+06
2.51563e+06
2.51144e+06
2.5113e+06
2.5067e+06
2.50607e+06
2.50112e+06
2.50002e+06
2.49484e+06
2.49333e+06
2.48799e+06
2.48612e+06
2.48063e+06
2.47841e+06
2.47277e+06
2.47033e+06
2.46473e+06
2.52231e+06
2.51875e+06
2.51923e+06
2.5155e+06
2.51579e+06
2.51165e+06
2.51154e+06
2.50696e+06
2.50635e+06
2.50143e+06
2.50034e+06
2.49517e+06
2.49368e+06
2.48835e+06
2.48648e+06
2.481e+06
2.47878e+06
2.47314e+06
2.47066e+06
2.46509e+06
2.52215e+06
2.51858e+06
2.51908e+06
2.51534e+06
2.5156e+06
2.51142e+06
2.51129e+06
2.5067e+06
2.50608e+06
2.50115e+06
2.50007e+06
2.49489e+06
2.4934e+06
2.48806e+06
2.48619e+06
2.48071e+06
2.47849e+06
2.47284e+06
2.47039e+06
2.46472e+06
2.52231e+06
2.51873e+06
2.51921e+06
2.51548e+06
2.51576e+06
2.5116e+06
2.51148e+06
2.5069e+06
2.5063e+06
2.50137e+06
2.50029e+06
2.49513e+06
2.49364e+06
2.48832e+06
2.48646e+06
2.48098e+06
2.47876e+06
2.47311e+06
2.47061e+06
2.46496e+06
2.5222e+06
2.51859e+06
2.51907e+06
2.51532e+06
2.51559e+06
2.51141e+06
2.51129e+06
2.50671e+06
2.5061e+06
2.50118e+06
2.5001e+06
2.49493e+06
2.49344e+06
2.48812e+06
2.48625e+06
2.48077e+06
2.47855e+06
2.47291e+06
2.47043e+06
2.46474e+06
2.5223e+06
2.5187e+06
2.51918e+06
2.51544e+06
2.51572e+06
2.51155e+06
2.51143e+06
2.50685e+06
2.50625e+06
2.50132e+06
2.50024e+06
2.49508e+06
2.49359e+06
2.48827e+06
2.48641e+06
2.48094e+06
2.47871e+06
2.47307e+06
2.47056e+06
2.46488e+06
2.52224e+06
2.51861e+06
2.51909e+06
2.51534e+06
2.51561e+06
2.51144e+06
2.51132e+06
2.50674e+06
2.50614e+06
2.50122e+06
2.50014e+06
2.49498e+06
2.49349e+06
2.48816e+06
2.48631e+06
2.48083e+06
2.47861e+06
2.47296e+06
2.47047e+06
2.46477e+06
2.52227e+06
2.51866e+06
2.51913e+06
2.51539e+06
2.51566e+06
2.5115e+06
2.51137e+06
2.5068e+06
2.50619e+06
2.50127e+06
2.50019e+06
2.49503e+06
2.49354e+06
2.48822e+06
2.48636e+06
2.48089e+06
2.47866e+06
2.47302e+06
2.47052e+06
2.46482e+06
2.52227e+06
2.51866e+06
2.51913e+06
2.51539e+06
2.51566e+06
2.5115e+06
2.51137e+06
2.5068e+06
2.50619e+06
2.50127e+06
2.50019e+06
2.49503e+06
2.49354e+06
2.48822e+06
2.48636e+06
2.48088e+06
2.47866e+06
2.47301e+06
2.47051e+06
2.46482e+06
2.52224e+06
2.51861e+06
2.51909e+06
2.51534e+06
2.51561e+06
2.51144e+06
2.51132e+06
2.50674e+06
2.50614e+06
2.50122e+06
2.50014e+06
2.49498e+06
2.49349e+06
2.48816e+06
2.48631e+06
2.48083e+06
2.47861e+06
2.47296e+06
2.47048e+06
2.46477e+06
2.5223e+06
2.5187e+06
2.51918e+06
2.51544e+06
2.51572e+06
2.51155e+06
2.51143e+06
2.50685e+06
2.50625e+06
2.50132e+06
2.50024e+06
2.49508e+06
2.49359e+06
2.48827e+06
2.48641e+06
2.48094e+06
2.47871e+06
2.47307e+06
2.47055e+06
2.46488e+06
2.5222e+06
2.51859e+06
2.51907e+06
2.51532e+06
2.51559e+06
2.51141e+06
2.51129e+06
2.50671e+06
2.5061e+06
2.50118e+06
2.5001e+06
2.49493e+06
2.49344e+06
2.48812e+06
2.48625e+06
2.48077e+06
2.47855e+06
2.47291e+06
2.47044e+06
2.46473e+06
2.52231e+06
2.51873e+06
2.51921e+06
2.51548e+06
2.51576e+06
2.5116e+06
2.51148e+06
2.5069e+06
2.5063e+06
2.50137e+06
2.50029e+06
2.49513e+06
2.49364e+06
2.48832e+06
2.48646e+06
2.48098e+06
2.47876e+06
2.47311e+06
2.4706e+06
2.46496e+06
2.52215e+06
2.51858e+06
2.51908e+06
2.51534e+06
2.5156e+06
2.51142e+06
2.51129e+06
2.5067e+06
2.50608e+06
2.50115e+06
2.50007e+06
2.49489e+06
2.4934e+06
2.48806e+06
2.48619e+06
2.48071e+06
2.47848e+06
2.47285e+06
2.47039e+06
2.46472e+06
2.52231e+06
2.51875e+06
2.51923e+06
2.5155e+06
2.51579e+06
2.51165e+06
2.51154e+06
2.50696e+06
2.50635e+06
2.50143e+06
2.50034e+06
2.49517e+06
2.49368e+06
2.48835e+06
2.48648e+06
2.481e+06
2.47878e+06
2.47315e+06
2.47065e+06
2.4651e+06
2.5221e+06
2.51859e+06
2.51911e+06
2.51537e+06
2.51563e+06
2.51144e+06
2.5113e+06
2.5067e+06
2.50607e+06
2.50112e+06
2.50002e+06
2.49484e+06
2.49333e+06
2.48799e+06
2.48612e+06
2.48063e+06
2.47841e+06
2.47277e+06
2.47033e+06
2.46474e+06
2.52229e+06
2.51879e+06
2.51928e+06
2.51557e+06
2.51586e+06
2.51172e+06
2.5116e+06
2.50701e+06
2.50638e+06
2.50144e+06
2.50034e+06
2.49516e+06
2.49366e+06
2.48833e+06
2.48647e+06
2.48099e+06
2.47878e+06
2.47315e+06
2.47069e+06
2.46523e+06
2.52198e+06
2.51849e+06
2.51898e+06
2.51523e+06
2.51549e+06
2.5113e+06
2.51115e+06
2.50653e+06
2.50588e+06
2.50092e+06
2.49981e+06
2.49462e+06
2.49312e+06
2.48778e+06
2.48591e+06
2.48042e+06
2.47821e+06
2.47257e+06
2.47012e+06
2.4646e+06
2.52345e+06
2.52011e+06
2.52049e+06
2.51703e+06
2.5171e+06
2.51305e+06
2.51269e+06
2.50821e+06
2.50743e+06
2.5026e+06
2.50142e+06
2.49633e+06
2.49476e+06
2.48946e+06
2.48755e+06
2.48204e+06
2.47978e+06
2.47404e+06
2.47159e+06
2.46585e+06
2.52352e+06
2.52012e+06
2.52049e+06
2.51701e+06
2.51707e+06
2.51302e+06
2.51268e+06
2.50821e+06
2.50745e+06
2.50264e+06
2.50145e+06
2.49637e+06
2.4948e+06
2.4895e+06
2.48758e+06
2.48207e+06
2.47981e+06
2.47407e+06
2.47161e+06
2.46586e+06
2.52352e+06
2.52012e+06
2.52047e+06
2.51699e+06
2.51706e+06
2.51301e+06
2.51267e+06
2.50821e+06
2.50745e+06
2.50264e+06
2.50147e+06
2.49639e+06
2.49483e+06
2.48953e+06
2.48761e+06
2.48209e+06
2.47982e+06
2.47408e+06
2.4716e+06
2.46581e+06
2.52357e+06
2.52012e+06
2.52047e+06
2.51697e+06
2.51703e+06
2.51298e+06
2.51264e+06
2.50819e+06
2.50744e+06
2.50264e+06
2.50147e+06
2.4964e+06
2.49485e+06
2.48955e+06
2.48764e+06
2.48212e+06
2.47985e+06
2.4741e+06
2.47161e+06
2.46582e+06
2.52357e+06
2.52013e+06
2.52046e+06
2.51695e+06
2.51702e+06
2.51298e+06
2.51264e+06
2.50819e+06
2.50744e+06
2.50264e+06
2.50147e+06
2.4964e+06
2.49485e+06
2.48956e+06
2.48764e+06
2.48213e+06
2.47985e+06
2.4741e+06
2.47161e+06
2.46579e+06
2.52361e+06
2.52013e+06
2.52046e+06
2.51694e+06
2.517e+06
2.51296e+06
2.51263e+06
2.50818e+06
2.50744e+06
2.50263e+06
2.50147e+06
2.4964e+06
2.49485e+06
2.48956e+06
2.48765e+06
2.48213e+06
2.47986e+06
2.47411e+06
2.47161e+06
2.46581e+06
2.52361e+06
2.52013e+06
2.52045e+06
2.51692e+06
2.51699e+06
2.51296e+06
2.51263e+06
2.50818e+06
2.50744e+06
2.50263e+06
2.50147e+06
2.49639e+06
2.49485e+06
2.48956e+06
2.48765e+06
2.48213e+06
2.47986e+06
2.47411e+06
2.47161e+06
2.46579e+06
2.52363e+06
2.52014e+06
2.52045e+06
2.51692e+06
2.51698e+06
2.51295e+06
2.51262e+06
2.50818e+06
2.50743e+06
2.50263e+06
2.50147e+06
2.4964e+06
2.49485e+06
2.48956e+06
2.48765e+06
2.48213e+06
2.47986e+06
2.47411e+06
2.47161e+06
2.4658e+06
2.52363e+06
2.52014e+06
2.52044e+06
2.51691e+06
2.51698e+06
2.51295e+06
2.51262e+06
2.50818e+06
2.50743e+06
2.50263e+06
2.50147e+06
2.49639e+06
2.49485e+06
2.48956e+06
2.48765e+06
2.48213e+06
2.47986e+06
2.47411e+06
2.4716e+06
2.4658e+06
2.52363e+06
2.52014e+06
2.52044e+06
2.51691e+06
2.51698e+06
2.51294e+06
2.51262e+06
2.50818e+06
2.50743e+06
2.50263e+06
2.50147e+06
2.4964e+06
2.49485e+06
2.48956e+06
2.48765e+06
2.48213e+06
2.47986e+06
2.47411e+06
2.4716e+06
2.4658e+06
2.52363e+06
2.52014e+06
2.52044e+06
2.51691e+06
2.51698e+06
2.51294e+06
2.51262e+06
2.50818e+06
2.50743e+06
2.50263e+06
2.50147e+06
2.4964e+06
2.49485e+06
2.48956e+06
2.48765e+06
2.48213e+06
2.47986e+06
2.47411e+06
2.4716e+06
2.4658e+06
2.52363e+06
2.52014e+06
2.52044e+06
2.51691e+06
2.51698e+06
2.51295e+06
2.51262e+06
2.50818e+06
2.50743e+06
2.50263e+06
2.50147e+06
2.49639e+06
2.49485e+06
2.48956e+06
2.48765e+06
2.48213e+06
2.47986e+06
2.47411e+06
2.4716e+06
2.4658e+06
2.52363e+06
2.52014e+06
2.52045e+06
2.51692e+06
2.51698e+06
2.51295e+06
2.51262e+06
2.50818e+06
2.50743e+06
2.50263e+06
2.50147e+06
2.4964e+06
2.49485e+06
2.48956e+06
2.48765e+06
2.48213e+06
2.47986e+06
2.47411e+06
2.47161e+06
2.4658e+06
2.52361e+06
2.52013e+06
2.52045e+06
2.51692e+06
2.51699e+06
2.51296e+06
2.51263e+06
2.50818e+06
2.50744e+06
2.50263e+06
2.50147e+06
2.49639e+06
2.49485e+06
2.48956e+06
2.48765e+06
2.48213e+06
2.47986e+06
2.47411e+06
2.47161e+06
2.46579e+06
2.52361e+06
2.52013e+06
2.52046e+06
2.51694e+06
2.517e+06
2.51296e+06
2.51263e+06
2.50818e+06
2.50744e+06
2.50263e+06
2.50147e+06
2.4964e+06
2.49485e+06
2.48956e+06
2.48765e+06
2.48213e+06
2.47986e+06
2.47411e+06
2.47161e+06
2.46581e+06
2.52357e+06
2.52013e+06
2.52046e+06
2.51695e+06
2.51702e+06
2.51298e+06
2.51264e+06
2.50819e+06
2.50744e+06
2.50264e+06
2.50147e+06
2.49639e+06
2.49485e+06
2.48956e+06
2.48764e+06
2.48213e+06
2.47985e+06
2.4741e+06
2.47161e+06
2.46579e+06
2.52357e+06
2.52012e+06
2.52047e+06
2.51697e+06
2.51703e+06
2.51298e+06
2.51264e+06
2.50819e+06
2.50744e+06
2.50264e+06
2.50147e+06
2.4964e+06
2.49485e+06
2.48955e+06
2.48764e+06
2.48212e+06
2.47985e+06
2.4741e+06
2.47161e+06
2.46582e+06
2.52352e+06
2.52012e+06
2.52047e+06
2.51699e+06
2.51706e+06
2.51301e+06
2.51267e+06
2.50821e+06
2.50745e+06
2.50264e+06
2.50147e+06
2.49639e+06
2.49483e+06
2.48953e+06
2.48761e+06
2.48209e+06
2.47982e+06
2.47408e+06
2.4716e+06
2.46581e+06
2.52352e+06
2.52012e+06
2.52049e+06
2.51701e+06
2.51707e+06
2.51302e+06
2.51268e+06
2.50821e+06
2.50745e+06
2.50264e+06
2.50145e+06
2.49637e+06
2.4948e+06
2.4895e+06
2.48758e+06
2.48207e+06
2.4798e+06
2.47407e+06
2.4716e+06
2.46587e+06
2.52345e+06
2.52011e+06
2.52049e+06
2.51703e+06
2.5171e+06
2.51305e+06
2.51269e+06
2.50821e+06
2.50743e+06
2.5026e+06
2.50142e+06
2.49633e+06
2.49476e+06
2.48946e+06
2.48755e+06
2.48204e+06
2.47978e+06
2.47405e+06
2.47158e+06
2.46586e+06
2.52345e+06
2.52011e+06
2.52049e+06
2.51703e+06
2.5171e+06
2.51305e+06
2.51269e+06
2.50821e+06
2.50743e+06
2.5026e+06
2.50142e+06
2.49633e+06
2.49476e+06
2.48947e+06
2.48755e+06
2.48204e+06
2.47978e+06
2.47404e+06
2.47159e+06
2.46585e+06
2.52352e+06
2.52012e+06
2.52049e+06
2.51701e+06
2.51707e+06
2.51302e+06
2.51268e+06
2.50821e+06
2.50745e+06
2.50264e+06
2.50145e+06
2.49637e+06
2.4948e+06
2.4895e+06
2.48758e+06
2.48207e+06
2.47981e+06
2.47407e+06
2.47161e+06
2.46586e+06
2.52352e+06
2.52012e+06
2.52047e+06
2.51699e+06
2.51706e+06
2.51301e+06
2.51267e+06
2.50821e+06
2.50745e+06
2.50264e+06
2.50147e+06
2.49639e+06
2.49483e+06
2.48953e+06
2.48761e+06
2.48209e+06
2.47982e+06
2.47408e+06
2.4716e+06
2.46581e+06
2.52357e+06
2.52013e+06
2.52047e+06
2.51697e+06
2.51703e+06
2.51298e+06
2.51264e+06
2.50819e+06
2.50744e+06
2.50264e+06
2.50147e+06
2.4964e+06
2.49485e+06
2.48955e+06
2.48764e+06
2.48212e+06
2.47985e+06
2.4741e+06
2.47161e+06
2.46582e+06
2.52357e+06
2.52013e+06
2.52046e+06
2.51695e+06
2.51702e+06
2.51298e+06
2.51264e+06
2.50819e+06
2.50744e+06
2.50264e+06
2.50147e+06
2.4964e+06
2.49485e+06
2.48956e+06
2.48764e+06
2.48213e+06
2.47985e+06
2.4741e+06
2.47161e+06
2.46579e+06
2.52361e+06
2.52013e+06
2.52046e+06
2.51694e+06
2.517e+06
2.51296e+06
2.51263e+06
2.50818e+06
2.50744e+06
2.50263e+06
2.50147e+06
2.4964e+06
2.49485e+06
2.48956e+06
2.48765e+06
2.48213e+06
2.47986e+06
2.47411e+06
2.47161e+06
2.46581e+06
2.52361e+06
2.52013e+06
2.52045e+06
2.51693e+06
2.51699e+06
2.51296e+06
2.51263e+06
2.50818e+06
2.50744e+06
2.50263e+06
2.50147e+06
2.49639e+06
2.49485e+06
2.48956e+06
2.48765e+06
2.48213e+06
2.47986e+06
2.47411e+06
2.47161e+06
2.46579e+06
2.52363e+06
2.52014e+06
2.52045e+06
2.51692e+06
2.51698e+06
2.51295e+06
2.51262e+06
2.50818e+06
2.50743e+06
2.50263e+06
2.50147e+06
2.4964e+06
2.49485e+06
2.48956e+06
2.48765e+06
2.48213e+06
2.47986e+06
2.47411e+06
2.47161e+06
2.4658e+06
2.52363e+06
2.52014e+06
2.52044e+06
2.51691e+06
2.51698e+06
2.51295e+06
2.51262e+06
2.50818e+06
2.50743e+06
2.50263e+06
2.50147e+06
2.4964e+06
2.49485e+06
2.48956e+06
2.48765e+06
2.48213e+06
2.47986e+06
2.47411e+06
2.4716e+06
2.4658e+06
2.52363e+06
2.52014e+06
2.52044e+06
2.51691e+06
2.51698e+06
2.51294e+06
2.51262e+06
2.50818e+06
2.50743e+06
2.50263e+06
2.50147e+06
2.4964e+06
2.49485e+06
2.48956e+06
2.48765e+06
2.48213e+06
2.47986e+06
2.47411e+06
2.4716e+06
2.4658e+06
2.52363e+06
2.52014e+06
2.52044e+06
2.51691e+06
2.51698e+06
2.51294e+06
2.51262e+06
2.50818e+06
2.50743e+06
2.50263e+06
2.50147e+06
2.4964e+06
2.49485e+06
2.48956e+06
2.48765e+06
2.48213e+06
2.47986e+06
2.47411e+06
2.4716e+06
2.4658e+06
2.52363e+06
2.52014e+06
2.52044e+06
2.51691e+06
2.51698e+06
2.51295e+06
2.51262e+06
2.50818e+06
2.50743e+06
2.50263e+06
2.50147e+06
2.4964e+06
2.49485e+06
2.48956e+06
2.48765e+06
2.48213e+06
2.47986e+06
2.47411e+06
2.4716e+06
2.4658e+06
2.52363e+06
2.52014e+06
2.52045e+06
2.51692e+06
2.51698e+06
2.51295e+06
2.51262e+06
2.50818e+06
2.50743e+06
2.50263e+06
2.50147e+06
2.4964e+06
2.49485e+06
2.48956e+06
2.48765e+06
2.48213e+06
2.47986e+06
2.47411e+06
2.47161e+06
2.4658e+06
2.52361e+06
2.52013e+06
2.52045e+06
2.51693e+06
2.51699e+06
2.51296e+06
2.51263e+06
2.50818e+06
2.50744e+06
2.50263e+06
2.50147e+06
2.49639e+06
2.49485e+06
2.48956e+06
2.48765e+06
2.48213e+06
2.47986e+06
2.47411e+06
2.47161e+06
2.46579e+06
2.52361e+06
2.52013e+06
2.52046e+06
2.51694e+06
2.517e+06
2.51296e+06
2.51263e+06
2.50818e+06
2.50744e+06
2.50263e+06
2.50147e+06
2.4964e+06
2.49485e+06
2.48956e+06
2.48765e+06
2.48213e+06
2.47986e+06
2.47411e+06
2.47161e+06
2.46581e+06
2.52357e+06
2.52013e+06
2.52046e+06
2.51695e+06
2.51702e+06
2.51298e+06
2.51264e+06
2.50819e+06
2.50744e+06
2.50264e+06
2.50147e+06
2.4964e+06
2.49485e+06
2.48956e+06
2.48764e+06
2.48213e+06
2.47985e+06
2.4741e+06
2.47161e+06
2.46579e+06
2.52357e+06
2.52013e+06
2.52047e+06
2.51697e+06
2.51703e+06
2.51298e+06
2.51264e+06
2.50819e+06
2.50744e+06
2.50264e+06
2.50147e+06
2.4964e+06
2.49485e+06
2.48955e+06
2.48764e+06
2.48212e+06
2.47985e+06
2.4741e+06
2.47161e+06
2.46582e+06
2.52352e+06
2.52012e+06
2.52047e+06
2.51699e+06
2.51706e+06
2.51301e+06
2.51267e+06
2.50821e+06
2.50745e+06
2.50264e+06
2.50147e+06
2.49639e+06
2.49483e+06
2.48953e+06
2.48761e+06
2.48209e+06
2.47982e+06
2.47408e+06
2.4716e+06
2.46581e+06
2.52352e+06
2.52012e+06
2.52049e+06
2.51701e+06
2.51707e+06
2.51302e+06
2.51268e+06
2.50821e+06
2.50745e+06
2.50264e+06
2.50145e+06
2.49637e+06
2.4948e+06
2.4895e+06
2.48758e+06
2.48207e+06
2.4798e+06
2.47407e+06
2.4716e+06
2.46587e+06
2.52345e+06
2.52011e+06
2.52049e+06
2.51703e+06
2.5171e+06
2.51305e+06
2.51269e+06
2.50821e+06
2.50743e+06
2.5026e+06
2.50142e+06
2.49633e+06
2.49476e+06
2.48947e+06
2.48755e+06
2.48204e+06
2.47978e+06
2.47405e+06
2.47158e+06
2.46586e+06
2.52198e+06
2.51849e+06
2.51898e+06
2.51523e+06
2.51549e+06
2.5113e+06
2.51115e+06
2.50653e+06
2.50589e+06
2.50092e+06
2.49981e+06
2.49462e+06
2.49312e+06
2.48778e+06
2.48591e+06
2.48042e+06
2.47821e+06
2.47257e+06
2.47013e+06
2.46459e+06
2.5223e+06
2.51879e+06
2.51928e+06
2.51557e+06
2.51586e+06
2.51173e+06
2.5116e+06
2.50701e+06
2.50638e+06
2.50144e+06
2.50034e+06
2.49516e+06
2.49366e+06
2.48833e+06
2.48647e+06
2.48099e+06
2.47878e+06
2.47315e+06
2.4707e+06
2.46523e+06
2.5221e+06
2.51859e+06
2.51911e+06
2.51537e+06
2.51563e+06
2.51144e+06
2.5113e+06
2.5067e+06
2.50607e+06
2.50112e+06
2.50002e+06
2.49484e+06
2.49334e+06
2.48799e+06
2.48612e+06
2.48063e+06
2.47841e+06
2.47277e+06
2.47033e+06
2.46473e+06
2.52231e+06
2.51875e+06
2.51923e+06
2.51551e+06
2.51579e+06
2.51165e+06
2.51154e+06
2.50697e+06
2.50636e+06
2.50143e+06
2.50034e+06
2.49517e+06
2.49368e+06
2.48835e+06
2.48648e+06
2.481e+06
2.47878e+06
2.47314e+06
2.47066e+06
2.4651e+06
2.52215e+06
2.51858e+06
2.51908e+06
2.51534e+06
2.5156e+06
2.51142e+06
2.51129e+06
2.5067e+06
2.50609e+06
2.50115e+06
2.50007e+06
2.49489e+06
2.4934e+06
2.48806e+06
2.48619e+06
2.48071e+06
2.47849e+06
2.47284e+06
2.47039e+06
2.46472e+06
2.52231e+06
2.51873e+06
2.51921e+06
2.51548e+06
2.51576e+06
2.5116e+06
2.51148e+06
2.5069e+06
2.5063e+06
2.50137e+06
2.50029e+06
2.49513e+06
2.49364e+06
2.48832e+06
2.48646e+06
2.48098e+06
2.47876e+06
2.47311e+06
2.47061e+06
2.46496e+06
2.5222e+06
2.51859e+06
2.51907e+06
2.51532e+06
2.51559e+06
2.51141e+06
2.51129e+06
2.50671e+06
2.5061e+06
2.50118e+06
2.5001e+06
2.49493e+06
2.49345e+06
2.48812e+06
2.48625e+06
2.48077e+06
2.47855e+06
2.47291e+06
2.47043e+06
2.46474e+06
2.5223e+06
2.5187e+06
2.51918e+06
2.51544e+06
2.51572e+06
2.51155e+06
2.51143e+06
2.50685e+06
2.50625e+06
2.50132e+06
2.50024e+06
2.49508e+06
2.49359e+06
2.48827e+06
2.48642e+06
2.48094e+06
2.47872e+06
2.47307e+06
2.47056e+06
2.46488e+06
2.52224e+06
2.51862e+06
2.51909e+06
2.51534e+06
2.51561e+06
2.51144e+06
2.51132e+06
2.50674e+06
2.50614e+06
2.50122e+06
2.50014e+06
2.49498e+06
2.49349e+06
2.48817e+06
2.48631e+06
2.48083e+06
2.47861e+06
2.47296e+06
2.47047e+06
2.46477e+06
2.52227e+06
2.51866e+06
2.51913e+06
2.51539e+06
2.51566e+06
2.5115e+06
2.51137e+06
2.5068e+06
2.50619e+06
2.50127e+06
2.50019e+06
2.49503e+06
2.49354e+06
2.48822e+06
2.48636e+06
2.48089e+06
2.47866e+06
2.47302e+06
2.47052e+06
2.46482e+06
2.52227e+06
2.51866e+06
2.51913e+06
2.51539e+06
2.51566e+06
2.5115e+06
2.51137e+06
2.5068e+06
2.50619e+06
2.50127e+06
2.5002e+06
2.49503e+06
2.49354e+06
2.48822e+06
2.48636e+06
2.48089e+06
2.47866e+06
2.47302e+06
2.47051e+06
2.46482e+06
2.52224e+06
2.51862e+06
2.51909e+06
2.51534e+06
2.51561e+06
2.51144e+06
2.51132e+06
2.50674e+06
2.50614e+06
2.50122e+06
2.50014e+06
2.49498e+06
2.49349e+06
2.48817e+06
2.48631e+06
2.48083e+06
2.47861e+06
2.47296e+06
2.47048e+06
2.46477e+06
2.5223e+06
2.5187e+06
2.51918e+06
2.51544e+06
2.51572e+06
2.51155e+06
2.51143e+06
2.50685e+06
2.50625e+06
2.50132e+06
2.50024e+06
2.49508e+06
2.49359e+06
2.48827e+06
2.48641e+06
2.48094e+06
2.47872e+06
2.47307e+06
2.47056e+06
2.46488e+06
2.5222e+06
2.51859e+06
2.51907e+06
2.51532e+06
2.51559e+06
2.51141e+06
2.51129e+06
2.50671e+06
2.5061e+06
2.50118e+06
2.5001e+06
2.49494e+06
2.49344e+06
2.48812e+06
2.48625e+06
2.48077e+06
2.47855e+06
2.47291e+06
2.47044e+06
2.46474e+06
2.52231e+06
2.51873e+06
2.51921e+06
2.51548e+06
2.51576e+06
2.5116e+06
2.51148e+06
2.5069e+06
2.5063e+06
2.50137e+06
2.50029e+06
2.49513e+06
2.49364e+06
2.48832e+06
2.48646e+06
2.48098e+06
2.47876e+06
2.47311e+06
2.4706e+06
2.46496e+06
2.52215e+06
2.51858e+06
2.51908e+06
2.51534e+06
2.5156e+06
2.51142e+06
2.51129e+06
2.5067e+06
2.50609e+06
2.50115e+06
2.50007e+06
2.49489e+06
2.4934e+06
2.48807e+06
2.48619e+06
2.48071e+06
2.47849e+06
2.47285e+06
2.47039e+06
2.46472e+06
2.52231e+06
2.51875e+06
2.51923e+06
2.51551e+06
2.51579e+06
2.51165e+06
2.51154e+06
2.50697e+06
2.50636e+06
2.50143e+06
2.50034e+06
2.49517e+06
2.49368e+06
2.48835e+06
2.48648e+06
2.481e+06
2.47878e+06
2.47315e+06
2.47065e+06
2.4651e+06
2.5221e+06
2.51859e+06
2.51911e+06
2.51537e+06
2.51563e+06
2.51144e+06
2.5113e+06
2.5067e+06
2.50607e+06
2.50112e+06
2.50002e+06
2.49484e+06
2.49333e+06
2.48799e+06
2.48612e+06
2.48063e+06
2.47841e+06
2.47278e+06
2.47033e+06
2.46474e+06
2.5223e+06
2.51879e+06
2.51928e+06
2.51557e+06
2.51586e+06
2.51173e+06
2.5116e+06
2.50701e+06
2.50638e+06
2.50144e+06
2.50034e+06
2.49516e+06
2.49366e+06
2.48833e+06
2.48647e+06
2.48099e+06
2.47878e+06
2.47315e+06
2.47069e+06
2.46523e+06
2.52198e+06
2.51849e+06
2.51898e+06
2.51523e+06
2.51549e+06
2.5113e+06
2.51115e+06
2.50653e+06
2.50589e+06
2.50092e+06
2.49981e+06
2.49462e+06
2.49312e+06
2.48778e+06
2.48591e+06
2.48043e+06
2.47821e+06
2.47257e+06
2.47013e+06
2.4646e+06
2.52414e+06
2.52093e+06
2.52108e+06
2.51779e+06
2.51761e+06
2.51376e+06
2.51306e+06
2.50871e+06
2.50749e+06
2.50279e+06
2.50113e+06
2.49619e+06
2.49417e+06
2.48906e+06
2.48672e+06
2.48144e+06
2.4788e+06
2.47334e+06
2.47048e+06
2.46515e+06
2.5237e+06
2.52054e+06
2.52068e+06
2.51734e+06
2.51714e+06
2.51326e+06
2.51255e+06
2.50819e+06
2.50697e+06
2.50225e+06
2.50059e+06
2.49564e+06
2.49361e+06
2.48849e+06
2.48615e+06
2.48086e+06
2.47822e+06
2.47274e+06
2.46991e+06
2.46459e+06
2.52385e+06
2.52061e+06
2.5207e+06
2.51739e+06
2.51721e+06
2.51337e+06
2.51267e+06
2.50833e+06
2.50712e+06
2.50242e+06
2.50077e+06
2.49582e+06
2.4938e+06
2.48869e+06
2.48634e+06
2.48105e+06
2.4784e+06
2.47293e+06
2.47005e+06
2.46474e+06
2.52368e+06
2.52052e+06
2.52063e+06
2.51729e+06
2.51707e+06
2.51319e+06
2.51248e+06
2.50813e+06
2.50692e+06
2.50222e+06
2.50057e+06
2.49563e+06
2.49361e+06
2.48849e+06
2.48614e+06
2.48085e+06
2.47821e+06
2.47272e+06
2.46989e+06
2.46448e+06
2.52381e+06
2.52059e+06
2.52067e+06
2.51734e+06
2.51714e+06
2.51328e+06
2.51259e+06
2.50826e+06
2.50706e+06
2.50237e+06
2.50073e+06
2.49579e+06
2.49378e+06
2.48867e+06
2.48633e+06
2.48104e+06
2.47838e+06
2.47291e+06
2.46999e+06
2.4646e+06
2.52368e+06
2.5205e+06
2.52059e+06
2.51725e+06
2.51704e+06
2.51316e+06
2.51245e+06
2.50811e+06
2.50692e+06
2.50223e+06
2.50059e+06
2.49566e+06
2.49365e+06
2.48853e+06
2.4862e+06
2.48091e+06
2.47826e+06
2.47278e+06
2.46991e+06
2.46443e+06
2.52377e+06
2.52057e+06
2.52064e+06
2.51731e+06
2.5171e+06
2.51324e+06
2.51254e+06
2.5082e+06
2.50701e+06
2.50233e+06
2.50069e+06
2.49576e+06
2.49375e+06
2.48864e+06
2.48631e+06
2.48103e+06
2.47837e+06
2.4729e+06
2.46997e+06
2.4645e+06
2.52369e+06
2.52049e+06
2.52057e+06
2.51722e+06
2.51701e+06
2.51315e+06
2.51245e+06
2.50811e+06
2.50692e+06
2.50224e+06
2.50061e+06
2.49568e+06
2.49367e+06
2.48856e+06
2.48623e+06
2.48094e+06
2.4783e+06
2.47281e+06
2.46992e+06
2.46441e+06
2.52374e+06
2.52054e+06
2.52061e+06
2.51728e+06
2.51707e+06
2.5132e+06
2.5125e+06
2.50817e+06
2.50698e+06
2.50229e+06
2.50066e+06
2.49573e+06
2.49372e+06
2.48861e+06
2.48628e+06
2.481e+06
2.47835e+06
2.47287e+06
2.46995e+06
2.46444e+06
2.52371e+06
2.52051e+06
2.52058e+06
2.51724e+06
2.51703e+06
2.51316e+06
2.51246e+06
2.50813e+06
2.50695e+06
2.50226e+06
2.50063e+06
2.4957e+06
2.49369e+06
2.48858e+06
2.48625e+06
2.48097e+06
2.47832e+06
2.47284e+06
2.46993e+06
2.46442e+06
2.52371e+06
2.52051e+06
2.52058e+06
2.51724e+06
2.51703e+06
2.51316e+06
2.51246e+06
2.50813e+06
2.50695e+06
2.50226e+06
2.50063e+06
2.4957e+06
2.49369e+06
2.48858e+06
2.48625e+06
2.48097e+06
2.47832e+06
2.47284e+06
2.46993e+06
2.46442e+06
2.52374e+06
2.52054e+06
2.52061e+06
2.51728e+06
2.51707e+06
2.5132e+06
2.5125e+06
2.50817e+06
2.50698e+06
2.50229e+06
2.50066e+06
2.49573e+06
2.49372e+06
2.48861e+06
2.48628e+06
2.481e+06
2.47835e+06
2.47287e+06
2.46994e+06
2.46444e+06
2.52369e+06
2.52049e+06
2.52057e+06
2.51722e+06
2.51701e+06
2.51315e+06
2.51245e+06
2.50811e+06
2.50692e+06
2.50224e+06
2.50061e+06
2.49568e+06
2.49367e+06
2.48856e+06
2.48623e+06
2.48094e+06
2.4783e+06
2.47282e+06
2.46992e+06
2.46441e+06
2.52377e+06
2.52057e+06
2.52064e+06
2.51731e+06
2.5171e+06
2.51324e+06
2.51254e+06
2.5082e+06
2.50701e+06
2.50233e+06
2.50069e+06
2.49576e+06
2.49375e+06
2.48864e+06
2.48631e+06
2.48103e+06
2.47837e+06
2.4729e+06
2.46997e+06
2.46449e+06
2.52368e+06
2.5205e+06
2.52059e+06
2.51725e+06
2.51704e+06
2.51316e+06
2.51245e+06
2.50811e+06
2.50692e+06
2.50223e+06
2.50059e+06
2.49566e+06
2.49365e+06
2.48854e+06
2.4862e+06
2.48091e+06
2.47826e+06
2.47278e+06
2.46991e+06
2.46443e+06
2.52381e+06
2.52059e+06
2.52067e+06
2.51734e+06
2.51714e+06
2.51328e+06
2.51259e+06
2.50826e+06
2.50706e+06
2.50237e+06
2.50073e+06
2.49579e+06
2.49378e+06
2.48867e+06
2.48633e+06
2.48104e+06
2.47838e+06
2.47291e+06
2.46999e+06
2.46459e+06
2.52368e+06
2.52052e+06
2.52063e+06
2.51729e+06
2.51707e+06
2.51319e+06
2.51248e+06
2.50813e+06
2.50692e+06
2.50222e+06
2.50057e+06
2.49563e+06
2.49361e+06
2.48849e+06
2.48614e+06
2.48085e+06
2.47821e+06
2.47273e+06
2.46988e+06
2.46448e+06
2.52385e+06
2.52061e+06
2.5207e+06
2.51739e+06
2.51721e+06
2.51337e+06
2.51267e+06
2.50833e+06
2.50712e+06
2.50242e+06
2.50077e+06
2.49582e+06
2.4938e+06
2.48869e+06
2.48634e+06
2.48105e+06
2.4784e+06
2.47293e+06
2.47004e+06
2.46475e+06
2.5237e+06
2.52054e+06
2.52068e+06
2.51734e+06
2.51714e+06
2.51326e+06
2.51255e+06
2.50818e+06
2.50697e+06
2.50225e+06
2.50059e+06
2.49564e+06
2.49361e+06
2.48849e+06
2.48615e+06
2.48086e+06
2.47821e+06
2.47274e+06
2.46991e+06
2.4646e+06
2.52414e+06
2.52093e+06
2.52108e+06
2.51779e+06
2.51761e+06
2.51376e+06
2.51306e+06
2.50871e+06
2.50749e+06
2.50279e+06
2.50113e+06
2.49619e+06
2.49417e+06
2.48906e+06
2.48672e+06
2.48144e+06
2.4788e+06
2.47334e+06
2.47048e+06
2.46515e+06
2.45807e+06
2.43498e+06
2.42223e+06
2.39776e+06
2.38255e+06
2.35675e+06
2.33961e+06
2.31271e+06
2.29388e+06
2.266e+06
2.24567e+06
2.21693e+06
2.19524e+06
2.16574e+06
2.14282e+06
2.11262e+06
2.08858e+06
2.05776e+06
2.03269e+06
2.00131e+06
1.9753e+06
1.94342e+06
1.91655e+06
1.88422e+06
1.85656e+06
1.82383e+06
1.79546e+06
1.76238e+06
1.73337e+06
1.69998e+06
1.67039e+06
1.63674e+06
1.60663e+06
1.57277e+06
1.5422e+06
1.50817e+06
1.47721e+06
1.44307e+06
1.41179e+06
1.37758e+06
1.34606e+06
1.31185e+06
1.28012e+06
1.24587e+06
1.21388e+06
1.17963e+06
1.14755e+06
1.11347e+06
1.08143e+06
1.04758e+06
1.01567e+06
982117
950398
917190
885730
852915
821777
789400
758647
726754
696451
665092
635306
604533
575337
545205
516675
487245
459466