/*--------------------------------*- C++ -*----------------------------------*\
  =========                 |
  \\      /  F ield         | OpenFOAM: The Open Source CFD Toolbox
   \\    /   O peration     | Website:  https://openfoam.org
    \\  /    A nd           | Version:  7
     \\/     M anipulation  |
\*---------------------------------------------------------------------------*/
FoamFile
{
    version     2.0;
    format      ascii;
    class       volVectorField;
    location    "0.02";
    object      U;
}
// * * * * * * * * * * * * * * * * * * * * * * * * * * * * * * * * * * * * * //

dimensions      [0 1 -1 0 0 0 0];

internalField   nonuniform List<vector> 
1352
(
(7.81658 0.338919 0)
(5.53796 0.265892 0)
(4.24441 0.0485388 0)
(3.49105 -0.0499457 0)
(3.11041 -0.0612102 0)
(2.76821 -0.145065 0)
(9.88432 0.821726 0)
(10.0136 0.909653 0)
(9.82541 0.673352 0)
(9.44902 0.474769 0)
(9.10358 0.342566 0)
(8.7683 0.21352 0)
(10.0834 0.434907 0)
(10.5503 0.642318 0)
(10.9675 0.544888 0)
(11.1664 0.421611 0)
(11.2521 0.326727 0)
(11.2366 0.234621 0)
(10.3281 0.267101 0)
(10.6202 0.42415 0)
(10.9975 0.35 0)
(11.2788 0.254195 0)
(11.4326 0.183655 0)
(11.5118 0.141075 0)
(9.96128 0.130941 0)
(10.2418 0.291657 0)
(10.5666 0.280069 0)
(10.7869 0.226117 0)
(10.8932 0.178252 0)
(10.9458 0.151439 0)
(10.0318 -0.0939217 0)
(10.2565 -0.108402 0)
(10.5321 -0.0780067 0)
(10.7554 -0.0354244 0)
(10.9028 -0.00178327 0)
(10.9805 0.0197045 0)
(10.0651 -0.255367 0)
(10.2633 -0.313742 0)
(10.5598 -0.227323 0)
(10.8079 -0.130534 0)
(10.988 -0.0701338 0)
(11.097 -0.038725 0)
(10.212 -0.408953 0)
(10.5915 -0.602873 0)
(10.9427 -0.507169 0)
(11.1194 -0.372066 0)
(11.196 -0.279678 0)
(11.2372 -0.213773 0)
(9.89144 -0.797113 0)
(10.0389 -0.967853 0)
(9.87389 -0.742835 0)
(9.52539 -0.526739 0)
(9.17697 -0.386377 0)
(8.89323 -0.28685 0)
(7.97406 -0.328801 0)
(5.55741 -0.270553 0)
(4.16697 -0.044212 0)
(3.3918 0.0589098 0)
(2.98877 0.0813063 0)
(2.77977 0.102119 0)
(0.189577 -0.500676 1.26809e-16)
(0.612717 -0.662142 -5.92252e-17)
(1.04414 -0.615552 -8.46116e-18)
(1.42332 -0.532601 1.1591e-17)
(1.72096 -0.442498 8.61515e-17)
(1.92534 -0.35781 1.94772e-16)
(2.00079 -0.348443 -3.35456e-16)
(1.90419 -0.449032 -1.8235e-16)
(1.60071 -0.392481 -1.16935e-16)
(0.955413 0.153788 -3.68674e-17)
(-0.117522 0.852972 -2.13171e-17)
(-1.48749 1.20267 -7.61334e-17)
(-2.91392 1.26406 2.90405e-16)
(-4.24579 1.18511 -8.67195e-18)
(-5.42213 1.0328 5.1112e-17)
(-6.39613 0.846418 -1.68078e-16)
(-7.14637 0.649914 -2.52077e-16)
(-7.66528 0.459522 3.55137e-16)
(-7.95815 0.287995 -2.45958e-17)
(-8.03872 0.139099 1.61511e-16)
(-7.94244 0.00923868 -4.00929e-16)
(-7.71289 -0.0908822 -2.82346e-17)
(-7.36184 -0.167801 -1.60212e-16)
(-6.91525 -0.228421 1.93727e-16)
(-6.37257 -0.286816 4.36958e-16)
(-5.71749 -0.355379 4.22434e-17)
(-4.91864 -0.443907 -1.86681e-16)
(-3.93641 -0.546333 1.25227e-16)
(-2.75537 -0.632509 2.75432e-16)
(-1.41232 -0.651444 -2.04538e-16)
(-0.0253132 -0.596484 -1.68534e-16)
(1.26403 -0.45407 2.10567e-16)
(2.33827 -0.266768 -6.83381e-16)
(3.08239 -0.0760941 -2.84334e-16)
(3.47361 0.0762931 -2.3737e-16)
(3.56978 0.170688 6.73952e-17)
(3.46697 0.206122 2.50944e-16)
(3.26395 0.196025 -4.58556e-16)
(3.02424 0.161648 -8.81899e-17)
(2.78812 0.121129 1.30379e-16)
(2.57653 0.0845465 -5.39309e-18)
(2.39732 0.0559406 -5.75502e-17)
(2.25132 0.0357715 6.16855e-16)
(2.1352 0.022621 -2.38206e-16)
(2.04373 0.0146282 1.66679e-16)
(1.97126 0.0100446 -3.25617e-16)
(1.9129 0.00755895 -6.62849e-17)
(1.86464 0.00617929 -1.0738e-15)
(1.82348 0.00540556 -7.5069e-16)
(1.78743 0.00482112 -2.11123e-16)
(1.75464 0.00443602 5.94786e-16)
(1.72476 0.00402143 -8.95821e-17)
(1.69554 0.0038151 2.0751e-16)
(1.66853 0.00362853 -9.28009e-16)
(1.63921 0.00366623 5.40622e-16)
(1.61114 0.00432413 -1.18429e-16)
(1.57849 0.00484475 -8.39205e-16)
(1.53262 0.00727084 7.28836e-17)
(1.51332 0.0137803 -3.23969e-16)
(1.33007 0.00237466 4.72705e-16)
(0.162989 -1.30292 -2.87387e-16)
(0.422146 -1.46074 3.84272e-18)
(0.640623 -1.24847 -3.27598e-16)
(0.747891 -0.992815 -1.2608e-17)
(0.72026 -0.688569 -8.43995e-16)
(0.500465 -0.217363 1.96788e-16)
(0.0756217 0.425159 5.35737e-16)
(-0.647377 1.17758 -1.82271e-16)
(-1.60769 1.91982 -1.15366e-16)
(-2.638 2.53154 -4.68811e-17)
(-3.68651 2.90385 1.24502e-16)
(-4.68701 2.95335 6.96578e-16)
(-5.57325 2.76869 -8.8947e-16)
(-6.32007 2.42376 -4.5136e-16)
(-6.90725 1.98626 5.07347e-17)
(-7.32652 1.50824 -9.11844e-17)
(-7.57718 1.02948 -2.52958e-16)
(-7.66532 0.57653 3.6433e-16)
(-7.60498 0.163519 9.29002e-18)
(-7.42883 -0.198165 -1.18333e-15)
(-7.13957 -0.504457 2.30483e-16)
(-6.74385 -0.748076 2.97074e-16)
(-6.28138 -0.932322 -2.27019e-16)
(-5.77261 -1.07537 2.31558e-17)
(-5.22485 -1.20956 2.59962e-16)
(-4.6193 -1.38223 4.24866e-17)
(-3.91244 -1.62742 -2.41643e-16)
(-3.05306 -1.93467 -6.44756e-16)
(-1.99472 -2.22073 2.75236e-16)
(-0.778783 -2.32067 -7.05522e-16)
(0.497806 -2.20306 2.27554e-16)
(1.73345 -1.85346 1.55172e-16)
(2.83778 -1.37781 1.56843e-15)
(3.71826 -0.886484 1.54583e-16)
(4.32438 -0.466886 -2.3683e-16)
(4.6921 -0.156524 3.03818e-16)
(4.89387 0.0464773 -1.93296e-16)
(4.98319 0.158926 4.64028e-16)
(5.00369 0.207851 1.00185e-15)
(4.98275 0.216812 5.42517e-17)
(4.93607 0.202305 1.05688e-15)
(4.87392 0.175931 -4.81052e-17)
(4.80408 0.145715 -9.88234e-16)
(4.73244 0.116701 1.28117e-15)
(4.66311 0.0916058 4.08238e-16)
(4.59844 0.071421 -3.24135e-16)
(4.53905 0.0560297 -2.11891e-16)
(4.48508 0.0446621 -5.47408e-16)
(4.43532 0.0365497 4.04333e-16)
(4.38966 0.0306517 -4.57083e-17)
(4.3462 0.0266563 5.92808e-16)
(4.30527 0.0234647 1.37203e-16)
(4.26465 0.0219891 2.06922e-16)
(4.22439 0.0199493 -5.52129e-16)
(4.18452 0.0214144 -2.50034e-15)
(4.13705 0.0192623 4.23665e-16)
(4.10161 0.0279147 -8.37592e-16)
(4.02036 0.0231034 -7.32049e-17)
(4.01424 0.0557565 4.55926e-16)
(3.80077 0.0433585 3.50152e-16)
(0.0215329 -1.52929 1.50239e-16)
(-0.103625 -1.42976 -1.41426e-17)
(-0.248078 -0.992705 6.53392e-16)
(-0.509116 -0.407722 -1.26092e-16)
(-0.857789 0.282239 8.92563e-16)
(-1.29427 1.06003 3.18376e-16)
(-1.82394 1.89286 8.51003e-17)
(-2.44347 2.70428 -8.07751e-17)
(-3.09915 3.3962 7.57612e-16)
(-3.70997 3.87729 -1.08558e-15)
(-4.23027 4.08209 2.28618e-16)
(-4.63781 3.98796 -5.90759e-16)
(-4.94809 3.65437 1.76891e-15)
(-5.17595 3.14899 6.29745e-16)
(-5.32818 2.54137 -1.32939e-16)
(-5.3983 1.88789 1.12925e-16)
(-5.38372 1.23377 1.20453e-15)
(-5.29461 0.611955 4.18073e-16)
(-5.12101 0.0351331 2.30048e-16)
(-4.84469 -0.489341 1.95905e-15)
(-4.45741 -0.920697 -8.82832e-17)
(-3.98084 -1.24508 -6.01804e-16)
(-3.45038 -1.44911 -3.93168e-16)
(-2.90567 -1.55831 1.52242e-16)
(-2.38892 -1.64712 -7.6243e-16)
(-1.90021 -1.83076 5.46495e-16)
(-1.39116 -2.19073 2.93498e-16)
(-0.796658 -2.70714 9.43473e-16)
(-0.027642 -3.2161 -6.23472e-16)
(0.877801 -3.48203 7.22053e-16)
(1.79583 -3.36487 1.18711e-15)
(2.66528 -2.89449 -2.3384e-16)
(3.44514 -2.21134 3.98785e-16)
(4.10719 -1.47129 6.4071e-16)
(4.60421 -0.816828 -2.36475e-16)
(4.91485 -0.339544 6.66369e-16)
(5.08186 -0.0496292 -5.13465e-16)
(5.17555 0.0988392 -1.24121e-15)
(5.24204 0.161405 -3.16318e-15)
(5.29846 0.178063 -9.22095e-16)
(5.347 0.171937 -3.68834e-15)
(5.38522 0.155425 -1.50425e-15)
(5.4111 0.135105 1.62636e-16)
(5.42533 0.114649 -1.634e-15)
(5.42986 0.0959897 3.64928e-17)
(5.42764 0.0799372 6.89414e-16)
(5.42075 0.066745 5.93969e-16)
(5.41152 0.0560395 4.09613e-16)
(5.40081 0.0478138 9.65677e-16)
(5.38977 0.0411621 -7.35473e-16)
(5.37848 0.0366057 5.92352e-16)
(5.36688 0.032483 1.37098e-16)
(5.35585 0.0309986 -2.15589e-15)
(5.34248 0.0280795 1.15937e-15)
(5.33224 0.0307459 1.33044e-15)
(5.31227 0.0277707 5.32242e-16)
(5.30625 0.0390954 4.42191e-15)
(5.26526 0.0365606 1.1533e-15)
(5.27516 0.0709475 1.17285e-15)
(5.17659 0.0792849 9.0027e-16)
(-0.0708548 -1.10706 4.78035e-16)
(-0.421416 -0.873209 3.84307e-18)
(-0.704506 -0.375026 5.66445e-16)
(-0.999138 0.250567 -4.64334e-16)
(-1.31445 1.00993 -7.69994e-16)
(-1.66144 1.84722 -7.73411e-16)
(-2.01257 2.69293 -1.74283e-15)
(-2.33846 3.45642 -2.75489e-16)
(-2.6049 4.05019 6.89519e-16)
(-2.78951 4.40377 9.62737e-16)
(-2.89375 4.47627 5.14294e-16)
(-2.93303 4.26792 8.26432e-16)
(-2.93536 3.82945 -2.40921e-15)
(-2.91517 3.22753 -1.11872e-15)
(-2.87467 2.51635 -2.77206e-16)
(-2.8074 1.75908 1.14713e-16)
(-2.70276 0.994068 -1.47064e-15)
(-2.54546 0.241317 -8.13986e-16)
(-2.36752 -0.485736 -1.87664e-16)
(-2.09431 -1.14669 -2.04233e-15)
(-1.73624 -1.71623 -8.8038e-16)
(-1.29058 -2.14607 1.39826e-15)
(-0.790069 -2.3852 -4.8362e-20)
(-0.257889 -2.4242 -2.43267e-16)
(0.262222 -2.34445 -4.92602e-16)
(0.748792 -2.33944 1.10759e-16)
(1.25162 -2.62281 -2.4344e-16)
(1.82457 -3.22853 1.27542e-15)
(2.45065 -3.88491 1.31114e-15)
(3.06294 -4.2479 -1.11086e-15)
(3.60386 -4.09749 -7.4762e-16)
(4.05573 -3.52102 -7.35283e-17)
(4.40053 -2.74198 -3.95261e-15)
(4.6896 -1.91267 9.48638e-16)
(4.94685 -1.14459 2.85146e-15)
(5.13447 -0.545428 -2.16319e-15)
(5.23834 -0.16398 -5.84814e-16)
(5.28677 0.0307981 4.47391e-16)
(5.31506 0.106817 -6.02285e-16)
(5.344 0.125001 -3.26242e-16)
(5.37891 0.121742 4.20876e-15)
(5.41664 0.112348 4.51146e-15)
(5.45199 0.101398 2.26515e-15)
(5.48133 0.0900147 1.70027e-15)
(5.50348 0.0788068 -1.33547e-15)
(5.51904 0.0682487 -8.41156e-16)
(5.52937 0.0588944 -7.2662e-16)
(5.53605 0.0507078 2.08034e-15)
(5.54039 0.0440782 -2.99831e-15)
(5.54342 0.0383099 1.12128e-15)
(5.5458 0.0342529 -6.61776e-16)
(5.54785 0.0303561 -2.3622e-15)
(5.55009 0.0289313 6.42015e-15)
(5.55196 0.0262561 -2.15592e-15)
(5.55476 0.0286512 2.79167e-15)
(5.55635 0.0268591 2.4569e-15)
(5.5605 0.0369772 -4.90635e-15)
(5.56076 0.0392955 -2.1638e-15)
(5.57009 0.0687601 4.56033e-16)
(5.57175 0.0927084 -1.18839e-15)
(-0.0220299 -0.585243 -5.83204e-16)
(-0.288912 -0.205986 -8.34083e-16)
(-0.517271 0.166356 -2.43642e-17)
(-0.708277 0.787881 1.60697e-15)
(-0.864572 1.47217 -7.05587e-17)
(-0.978231 2.21136 -9.57737e-16)
(-1.03786 2.95777 4.32474e-16)
(-1.03513 3.61565 -3.48563e-16)
(-0.957883 4.10368 -1.47435e-15)
(-0.811123 4.36163 1.02567e-15)
(-0.616372 4.35865 -1.60468e-15)
(-0.401877 4.10533 -1.96247e-15)
(-0.178357 3.64832 7.67875e-16)
(0.0274934 3.04641 1.65873e-15)
(0.217274 2.35668 -1.41658e-15)
(0.419264 1.62055 1.44179e-15)
(0.634995 0.863228 3.20257e-16)
(0.840215 0.105576 -8.33416e-16)
(1.02957 -0.642184 -4.36191e-16)
(1.29521 -1.35615 1.7694e-15)
(1.59447 -1.99983 3.08362e-15)
(1.90768 -2.51882 -2.34297e-15)
(2.19326 -2.86615 1.12643e-15)
(2.4358 -3.0141 6.8545e-17)
(2.69167 -3.00187 -1.28986e-17)
(3.03403 -2.98098 -1.28424e-16)
(3.53812 -3.21571 5.16808e-16)
(4.17753 -3.81266 -1.48638e-15)
(4.78129 -4.48008 -4.44033e-15)
(5.16331 -4.77042 -1.56737e-15)
(5.30177 -4.46049 -3.15581e-15)
(5.31856 -3.69805 4.49288e-16)
(5.26488 -2.80493 5.8401e-15)
(5.19507 -1.96686 -6.02006e-16)
(5.18924 -1.21849 -2.36535e-16)
(5.23643 -0.608387 -1.7617e-16)
(5.28461 -0.19559 -2.2335e-16)
(5.3183 0.0225433 -1.47473e-15)
(5.3459 0.105651 5.45178e-15)
(5.37284 0.120256 7.34009e-16)
(5.39961 0.110648 -3.07726e-15)
(5.42583 0.0970614 -2.99967e-15)
(5.45129 0.0853938 -3.83828e-15)
(5.47505 0.0758848 -5.41243e-15)
(5.49568 0.0676609 4.96915e-15)
(5.51214 0.0600371 -1.15415e-15)
(5.52442 0.0530042 5.08262e-15)
(5.53334 0.0464245 -3.14237e-15)
(5.53985 0.0407062 -2.43732e-15)
(5.54505 0.0355205 -4.14116e-15)
(5.54924 0.0315649 -4.31551e-15)
(5.55356 0.0279443 1.31985e-15)
(5.55716 0.0261227 -1.27673e-15)
(5.56231 0.023893 4.09583e-15)
(5.56583 0.0251149 -1.74307e-15)
(5.57373 0.0246842 -2.59597e-15)
(5.57717 0.0318678 5.10089e-15)
(5.59226 0.0376191 -2.16538e-15)
(5.59804 0.0597818 -3.82962e-15)
(5.63541 0.0874625 7.19426e-16)
(-0.0236824 -0.513953 -1.2222e-15)
(-0.0262191 0.0898454 8.65909e-16)
(-0.171867 0.428257 -1.59842e-15)
(-0.184856 0.853963 -4.3683e-16)
(-0.104177 1.40662 5.45103e-16)
(0.0943633 2.01304 -2.36828e-16)
(0.391748 2.62228 4.16324e-16)
(0.740174 3.16695 1.71688e-15)
(1.14351 3.58596 -3.73172e-16)
(1.59006 3.82741 -3.55851e-16)
(2.05095 3.85545 1.59606e-15)
(2.49625 3.66892 1.86364e-15)
(2.90748 3.29353 4.29017e-16)
(3.27696 2.75289 -9.73614e-16)
(3.58951 2.10008 1.49694e-15)
(3.88093 1.37298 -1.68918e-15)
(4.12746 0.607712 1.62526e-15)
(4.35692 -0.186938 2.74903e-16)
(4.58864 -0.949481 -1.23979e-15)
(4.78569 -1.65572 1.01936e-15)
(4.94995 -2.28028 -1.07853e-15)
(5.06041 -2.75827 -4.01199e-16)
(5.10761 -3.04566 6.25757e-16)
(5.12413 -3.1696 2.24395e-16)
(5.18815 -3.21421 7.25361e-16)
(5.43013 -3.33955 6.01087e-17)
(5.95397 -3.73303 -3.28583e-15)
(6.61608 -4.38061 2.7498e-15)
(7.05439 -4.91609 2.06908e-15)
(7.05121 -4.94139 2.40912e-15)
(6.69651 -4.38104 2.58716e-15)
(6.24498 -3.4772 -9.80882e-18)
(5.85283 -2.54773 -6.27716e-15)
(5.53865 -1.77064 -8.63756e-16)
(5.34246 -1.13 -6.58592e-16)
(5.27735 -0.59777 1.87577e-15)
(5.28342 -0.2194 5.00797e-16)
(5.31037 -0.0137835 5.12871e-15)
(5.3457 0.0665017 -3.70403e-15)
(5.38532 0.0855385 1.2519e-15)
(5.42115 0.0831653 6.59857e-15)
(5.44772 0.0750606 -3.4343e-16)
(5.46648 0.0662374 -1.4895e-15)
(5.48175 0.0586554 4.48117e-15)
(5.49594 0.0529226 -4.68639e-15)
(5.50902 0.0484479 3.68213e-15)
(5.52008 0.0444661 -3.02206e-16)
(5.52888 0.0403531 -2.01749e-15)
(5.53563 0.0362548 4.90701e-15)
(5.54128 0.0321344 3.85577e-15)
(5.54591 0.0286119 -2.24706e-16)
(5.55085 0.0253484 1.32652e-15)
(5.55484 0.0232879 -9.6893e-15)
(5.56082 0.021328 -1.09638e-15)
(5.56463 0.0215566 -9.15116e-15)
(5.57425 0.0217811 -1.55365e-15)
(5.57839 0.0263871 -5.54891e-16)
(5.59784 0.0330047 2.32928e-15)
(5.60605 0.0486591 -1.59222e-15)
(5.65287 0.0741258 2.29964e-15)
(-0.240681 -0.470103 1.26762e-15)
(-0.0981963 0.162362 -9.41882e-16)
(-0.0168256 0.485011 1.61002e-15)
(0.159327 0.713616 -1.87842e-16)
(0.450621 1.0388 -1.14068e-16)
(0.860016 1.45893 1.95092e-15)
(1.36944 1.90873 1.19802e-15)
(1.94579 2.33268 -2.97149e-15)
(2.57207 2.67893 1.22325e-15)
(3.23075 2.90054 -8.08573e-16)
(3.89084 2.95975 -1.71513e-15)
(4.5206 2.84798 -3.85404e-15)
(5.09313 2.56529 1.50499e-15)
(5.60306 2.12752 2.9625e-15)
(6.02972 1.56718 2.89962e-15)
(6.40067 0.915595 8.45283e-16)
(6.69361 0.211066 -1.4732e-15)
(6.93413 -0.507898 -6.69741e-16)
(7.12273 -1.21157 3.60604e-15)
(7.22353 -1.86041 3.3869e-16)
(7.21891 -2.40778 1.29534e-15)
(7.11125 -2.81126 1.86312e-16)
(6.96619 -3.06972 -1.79596e-15)
(6.92009 -3.25234 -1.63555e-15)
(7.10607 -3.47259 2.14593e-17)
(7.57837 -3.83936 -2.09409e-15)
(8.22379 -4.36669 5.80228e-15)
(8.70899 -4.8656 1.47935e-16)
(8.68907 -5.02155 2.5453e-15)
(8.13602 -4.65149 2.4424e-15)
(7.34005 -3.86451 2.86406e-15)
(6.61574 -2.95376 -2.21443e-15)
(6.11429 -2.12941 7.24985e-15)
(5.77985 -1.46923 4.74869e-16)
(5.53688 -0.954014 -2.88655e-15)
(5.40413 -0.530639 -1.32644e-15)
(5.37514 -0.20901 -4.58148e-16)
(5.39004 -0.0239279 -6.06598e-15)
(5.4084 0.0463181 2.08577e-15)
(5.42557 0.060662 -3.46895e-15)
(5.44541 0.0616916 -7.84277e-15)
(5.46528 0.0614846 -3.31854e-16)
(5.48089 0.0587783 1.81175e-15)
(5.49219 0.053404 3.16129e-15)
(5.50153 0.0476752 -4.12401e-15)
(5.51042 0.0430745 -1.96166e-15)
(5.51882 0.0395152 -4.68399e-15)
(5.5264 0.0361978 6.99309e-15)
(5.53283 0.0328046 3.17221e-15)
(5.53865 0.0292575 2.11021e-15)
(5.54356 0.0259426 7.41585e-15)
(5.54897 0.0229129 2.66747e-15)
(5.5533 0.0206651 1.04641e-14)
(5.55996 0.018744 -3.28681e-15)
(5.56421 0.0182628 1.32013e-14)
(5.57496 0.0182312 4.58671e-15)
(5.58024 0.020854 -1.08349e-14)
(5.60214 0.0261319 4.18959e-15)
(5.61338 0.0364341 1.36195e-15)
(5.66496 0.0556445 -5.80229e-15)
(-0.39914 -0.0266479 1.05247e-15)
(-0.444567 -0.112598 2.36417e-15)
(-0.271416 0.166316 -1.02681e-15)
(0.07142 0.339107 -1.13722e-16)
(0.530907 0.559984 2.1229e-16)
(1.10317 0.84763 1.09211e-15)
(1.77496 1.1869 1.03498e-15)
(2.51562 1.53714 4.49046e-15)
(3.29357 1.85094 9.86192e-16)
(4.07973 2.0741 9.85794e-16)
(4.84694 2.16424 -1.81567e-15)
(5.56826 2.10444 4.62074e-15)
(6.22458 1.8942 -2.29496e-15)
(6.8061 1.54012 -2.13853e-15)
(7.30162 1.06754 -2.14253e-15)
(7.71088 0.508806 4.93681e-16)
(8.02448 -0.103326 8.63954e-16)
(8.24732 -0.723165 1.20221e-16)
(8.35097 -1.32679 -2.5388e-15)
(8.31953 -1.87628 -4.02627e-15)
(8.19073 -2.34005 -4.01394e-15)
(8.06804 -2.71637 2.6221e-15)
(8.10876 -3.05627 -1.03166e-15)
(8.41743 -3.42965 2.91662e-15)
(8.95501 -3.86308 1.30113e-15)
(9.55619 -4.32516 3.05727e-15)
(9.95465 -4.71092 -2.72299e-15)
(9.87816 -4.84773 -4.88086e-15)
(9.26926 -4.61166 -3.1057e-15)
(8.36671 -4.02793 -5.06057e-15)
(7.49256 -3.25763 -3.9366e-15)
(6.81504 -2.51506 2.26311e-15)
(6.36839 -1.88201 -3.95627e-15)
(6.09573 -1.32718 1.23135e-15)
(5.87937 -0.855306 1.41152e-15)
(5.69881 -0.483462 -1.15296e-16)
(5.60578 -0.209543 1.67265e-15)
(5.58515 -0.0367058 1.73709e-15)
(5.57345 0.0413965 9.51615e-16)
(5.54355 0.0595539 2.65031e-15)
(5.51176 0.057001 1.38906e-15)
(5.49547 0.0534021 -5.6148e-16)
(5.49432 0.05071 6.20767e-15)
(5.49995 0.0469677 -4.64547e-15)
(5.50669 0.0425024 2.59012e-15)
(5.51309 0.0385165 2.56745e-15)
(5.51916 0.0353191 -1.59592e-15)
(5.52517 0.0323898 -4.65446e-15)
(5.53082 0.029354 -6.79048e-15)
(5.5365 0.0261125 -3.75072e-15)
(5.54156 0.0229371 -1.81109e-15)
(5.54732 0.0199976 -3.39185e-15)
(5.55195 0.0175756 -1.97722e-15)
(5.55908 0.0155759 6.22649e-15)
(5.56361 0.0144153 9.92353e-16)
(5.57518 0.0138254 -2.17172e-16)
(5.58121 0.0146684 4.63372e-15)
(5.60468 0.0173768 -5.19826e-15)
(5.61816 0.0229409 1.98545e-15)
(5.67267 0.03411 -1.39187e-15)
(0.299196 0.216337 2.36007e-17)
(0.266039 0.0744474 -1.39838e-15)
(0.340415 -0.00441582 4.67176e-16)
(0.530643 0.000827953 -1.17573e-15)
(0.820855 0.0980751 3.74729e-16)
(1.25002 0.288032 -1.82845e-15)
(1.83814 0.551436 -2.12409e-15)
(2.57036 0.856044 -2.29744e-15)
(3.40771 1.16126 -2.09184e-15)
(4.29398 1.41372 -9.86231e-16)
(5.17221 1.56188 3.38474e-15)
(5.99721 1.57776 -1.18222e-15)
(6.73575 1.44849 3.87335e-16)
(7.37533 1.18269 -1.79288e-15)
(7.9005 0.794524 -2.06953e-15)
(8.3133 0.309496 -1.3033e-15)
(8.59917 -0.219266 -1.44086e-15)
(8.74895 -0.7713 1.43879e-15)
(8.78138 -1.32274 8.76512e-16)
(8.77239 -1.84728 8.06526e-16)
(8.83812 -2.34203 1.23229e-15)
(9.08257 -2.82748 -1.75496e-17)
(9.52816 -3.32199 2.17306e-15)
(10.0821 -3.80994 -1.89933e-15)
(10.5758 -4.24081 -2.06939e-15)
(10.8224 -4.54524 -1.81122e-15)
(10.6614 -4.64543 7.04335e-16)
(10.0804 -4.4927 -9.90983e-17)
(9.25751 -4.11069 1.90435e-15)
(8.41557 -3.55676 3.07439e-15)
(7.69649 -2.89603 4.21868e-16)
(7.13403 -2.25167 -3.25072e-16)
(6.71043 -1.69884 5.21589e-17)
(6.41703 -1.19798 -2.08479e-15)
(6.19563 -0.742943 2.96458e-16)
(5.99457 -0.390811 9.37852e-16)
(5.84959 -0.158327 -4.33649e-18)
(5.78341 -0.0155518 1.36075e-15)
(5.74425 0.0617336 -1.99243e-15)
(5.68272 0.0879345 1.06884e-16)
(5.60618 0.0827511 5.62302e-16)
(5.54679 0.0677579 1.75345e-15)
(5.51783 0.0546367 -4.25319e-15)
(5.51082 0.0457706 7.69416e-16)
(5.51275 0.0399882 3.03914e-15)
(5.51651 0.0359832 -2.91214e-15)
(5.52032 0.0328147 1.36993e-15)
(5.5246 0.0298426 2.49404e-15)
(5.52924 0.0267634 3.33791e-15)
(5.53456 0.0235525 1.68987e-15)
(5.53962 0.0203836 -2.25348e-15)
(5.5456 0.0174244 -3.67874e-17)
(5.55047 0.0148664 -1.91342e-15)
(5.55796 0.0126274 -3.47072e-15)
(5.56273 0.010899 -5.22112e-15)
(5.57476 0.0094414 -3.70591e-15)
(5.58116 0.00847035 4.05427e-15)
(5.6055 0.00815641 1.82758e-15)
(5.62001 0.00885913 4.10449e-16)
(5.6761 0.0111488 3.63883e-15)
(3.03767 -0.255268 -1.53664e-15)
(3.14552 -0.182671 -1.45255e-15)
(3.21429 -0.116932 -1.32346e-15)
(3.24441 -0.0771449 7.35621e-16)
(3.24765 -0.0262537 2.67328e-15)
(3.26426 0.0630081 2.03632e-15)
(3.34299 0.196724 -3.55401e-15)
(3.55212 0.372179 4.87442e-16)
(3.94135 0.570127 2.99054e-15)
(4.50283 0.756365 -2.08747e-15)
(5.18236 0.886133 1.32443e-15)
(5.90412 0.929021 -1.73841e-15)
(6.60989 0.859781 -1.52129e-15)
(7.24796 0.67196 2.567e-15)
(7.80001 0.376965 -2.21462e-15)
(8.25585 -0.00908225 1.62298e-15)
(8.63236 -0.472876 -4.9612e-16)
(8.95872 -0.990721 8.22782e-16)
(9.28828 -1.52649 -1.59584e-15)
(9.67498 -2.06278 3.75528e-15)
(10.1408 -2.59873 -9.90198e-16)
(10.6554 -3.1294 1.25288e-16)
(11.1304 -3.62288 7.20968e-16)
(11.4524 -4.03034 -6.50174e-16)
(11.5226 -4.30233 1.16365e-15)
(11.2768 -4.39802 -3.98039e-16)
(10.7386 -4.30957 -2.15311e-16)
(10.0359 -4.06141 -1.1659e-16)
(9.29744 -3.67701 -1.82267e-16)
(8.58681 -3.1651 1.6934e-15)
(7.95423 -2.55886 -1.42983e-15)
(7.43811 -1.971 8.5047e-16)
(7.03094 -1.48146 2.96461e-16)
(6.72301 -1.03884 1.01634e-15)
(6.4871 -0.615106 1.78816e-15)
(6.2756 -0.285384 -4.10293e-15)
(6.09884 -0.0889154 1.95493e-15)
(5.98864 0.0221471 -8.9417e-16)
(5.91463 0.0959 2.99187e-15)
(5.82233 0.132248 -3.80726e-15)
(5.70816 0.127428 -1.86443e-15)
(5.60874 0.0987478 2.21308e-15)
(5.54903 0.0689552 -2.81617e-16)
(5.52495 0.0492839 3.48577e-16)
(5.51952 0.0392294 5.81908e-16)
(5.52007 0.0342596 -3.5827e-16)
(5.52177 0.0308361 2.36925e-15)
(5.52438 0.0275308 1.87095e-15)
(5.52791 0.0240613 4.47807e-15)
(5.53273 0.0205913 -1.8594e-15)
(5.53771 0.0172897 -2.02272e-15)
(5.54386 0.0142931 -1.87355e-15)
(5.54895 0.0116377 -2.30137e-16)
(5.55665 0.00924014 2.81742e-15)
(5.56156 0.00698263 -3.88249e-16)
(5.57368 0.00455533 -4.43506e-16)
(5.58011 0.0017906 -2.17372e-15)
(5.60448 -0.0021759 6.66226e-17)
(5.61899 -0.00677471 1.53828e-15)
(5.67536 -0.0144687 2.00465e-15)
(8.65007 0.120154 5.21423e-16)
(8.5435 0.0824111 5.34364e-16)
(8.41982 0.0704532 3.01203e-16)
(8.31262 0.0895339 1.25985e-15)
(8.21911 0.148824 -1.68251e-15)
(8.12317 0.237275 2.67268e-15)
(8.02855 0.343007 5.22666e-15)
(7.95534 0.45376 1.0908e-15)
(7.9287 0.554724 -4.14489e-15)
(7.97201 0.627939 5.89606e-15)
(8.1119 0.655944 -2.44997e-15)
(8.34438 0.620614 -1.04735e-16)
(8.66906 0.514192 5.04974e-15)
(9.04386 0.320553 2.2508e-15)
(9.46964 0.040255 1.02365e-15)
(9.91496 -0.315488 -2.16385e-15)
(10.3629 -0.74675 2.2826e-15)
(10.8219 -1.23244 -2.37686e-15)
(11.2822 -1.7506 1.87845e-15)
(11.7159 -2.28361 -4.48757e-15)
(12.0802 -2.80975 -4.41327e-15)
(12.3171 -3.29467 -4.31174e-16)
(12.3688 -3.69239 4.34375e-16)
(12.2019 -3.96305 -2.38285e-15)
(11.8164 -4.08252 -4.90989e-15)
(11.2595 -4.04925 2.78236e-15)
(10.6242 -3.8881 7.13192e-16)
(9.9861 -3.61666 -4.83779e-15)
(9.3694 -3.23753 -4.20207e-15)
(8.78451 -2.76136 -2.7302e-15)
(8.2652 -2.21859 2.62047e-15)
(7.83609 -1.69488 4.21328e-17)
(7.46893 -1.26184 -2.45853e-15)
(7.14461 -0.870832 -1.55146e-15)
(6.87147 -0.475911 3.04845e-15)
(6.62842 -0.15799 1.13112e-15)
(6.40606 0.0135992 2.09851e-16)
(6.23122 0.0947262 5.28267e-16)
(6.09822 0.160548 -1.48045e-15)
(5.96322 0.208167 8.14475e-15)
(5.81271 0.205654 1.30983e-15)
(5.67702 0.158513 2.04719e-16)
(5.5862 0.101945 1.67163e-15)
(5.54182 0.062051 1.78666e-15)
(5.52639 0.0422913 3.99365e-15)
(5.52282 0.0342713 -2.57763e-15)
(5.52261 0.0299522 1.63309e-15)
(5.52398 0.0259515 -2.49125e-15)
(5.52671 0.0216959 -6.85698e-15)
(5.53111 0.017639 2.00399e-15)
(5.53601 0.013911 1.1389e-14)
(5.54221 0.0106939 2.87511e-15)
(5.54748 0.00773795 2.13924e-15)
(5.55521 0.00511629 1.77978e-15)
(5.56017 0.00218081 1.50401e-15)
(5.57189 -0.00112867 2.56254e-15)
(5.57772 -0.00598263 -5.23033e-15)
(5.60099 -0.0135705 4.3503e-15)
(5.61391 -0.0241937 -6.15382e-16)
(5.66847 -0.0428356 -4.84666e-17)
(11.2327 0.168906 4.3664e-16)
(11.221 0.137726 -2.53979e-15)
(11.2033 0.140473 3.39892e-15)
(11.1908 0.176705 1.35693e-16)
(11.1805 0.24077 -1.30324e-15)
(11.172 0.32015 -6.11387e-15)
(11.1749 0.410098 -6.95689e-16)
(11.199 0.501248 -4.12279e-15)
(11.2541 0.578644 3.76012e-15)
(11.3469 0.625852 -3.96773e-15)
(11.4827 0.623565 -2.96575e-16)
(11.662 0.557248 -1.83064e-15)
(11.8783 0.414517 -3.72154e-15)
(12.1201 0.199341 -2.69958e-15)
(12.3794 -0.0929914 -1.25637e-15)
(12.6379 -0.460869 1.25386e-15)
(12.8757 -0.888646 2.95497e-15)
(13.076 -1.36151 4.43689e-15)
(13.2121 -1.86114 7.46689e-16)
(13.2493 -2.35913 5.69278e-15)
(13.154 -2.81806 8.52067e-15)
(12.9035 -3.19731 2.3799e-15)
(12.5029 -3.46479 -1.41758e-15)
(11.9911 -3.60799 4.38293e-15)
(11.4331 -3.63423 4.95291e-15)
(10.901 -3.56292 -1.32071e-15)
(10.4329 -3.40875 1.31338e-16)
(10.0138 -3.16408 6.97981e-15)
(9.60981 -2.81985 3.08909e-15)
(9.19733 -2.38992 1.90876e-15)
(8.78048 -1.902 1.11908e-15)
(8.3804 -1.41795 -1.93487e-15)
(7.98471 -1.00291 -5.12174e-15)
(7.58241 -0.63228 -1.56347e-15)
(7.21538 -0.265757 -3.0023e-15)
(6.90624 0.02997 -3.68056e-16)
(6.63698 0.175774 -5.53307e-15)
(6.40397 0.225512 3.33401e-15)
(6.20744 0.270624 -6.24314e-15)
(6.02865 0.315664 -1.4628e-15)
(5.85764 0.309648 3.81052e-15)
(5.71131 0.242102 -4.79367e-15)
(5.60948 0.153914 -1.58264e-15)
(5.55361 0.0863671 -4.09873e-15)
(5.52993 0.0506999 -1.13906e-15)
(5.52245 0.0362885 -5.01859e-15)
(5.5211 0.0298754 -6.87051e-15)
(5.52226 0.0249036 2.25852e-15)
(5.52494 0.0197346 9.2882e-15)
(5.52928 0.0150479 5.81017e-15)
(5.53425 0.010855 -2.4244e-15)
(5.54054 0.00761745 -1.90441e-15)
(5.546 0.00448843 -4.51906e-15)
(5.5536 0.00203326 -1.58286e-15)
(5.55843 -0.0015153 -2.60653e-15)
(5.56927 -0.00502067 -1.43571e-15)
(5.5739 -0.012069 -3.92973e-16)
(5.59489 -0.0219906 -5.90365e-15)
(5.60439 -0.039136 -7.19017e-15)
(5.65531 -0.0677549 -6.29269e-15)
(11.5338 0.125376 -3.62041e-15)
(11.5399 0.129313 8.44222e-15)
(11.5465 0.154078 -9.14961e-16)
(11.5615 0.198536 -6.75687e-16)
(11.5865 0.259517 -1.96457e-15)
(11.6282 0.334048 8.60546e-15)
(11.6956 0.414315 -6.71931e-15)
(11.7892 0.488393 9.43508e-15)
(11.9119 0.54075 -8.58407e-15)
(12.0626 0.554553 -1.05447e-15)
(12.2346 0.512618 3.64937e-15)
(12.4181 0.405427 9.85679e-15)
(12.6074 0.224714 2.14181e-15)
(12.7952 -0.0232482 1.40398e-15)
(12.9601 -0.333483 -6.49588e-16)
(13.0871 -0.699595 6.47074e-15)
(13.1599 -1.10592 -1.15893e-14)
(13.1605 -1.53336 1.93694e-15)
(13.0692 -1.95783 2.67452e-15)
(12.8695 -2.34883 -5.37958e-15)
(12.5615 -2.67829 -1.12838e-15)
(12.1729 -2.93067 -7.25818e-15)
(11.7576 -3.10618 -5.10817e-15)
(11.3741 -3.21412 -6.88883e-15)
(11.061 -3.26131 -1.24786e-14)
(10.8193 -3.24297 -5.27322e-15)
(10.6115 -3.138 5.78618e-15)
(10.3798 -2.91607 4.16182e-16)
(10.0801 -2.56684 -7.96854e-16)
(9.69229 -2.11686 -8.95968e-15)
(9.23053 -1.61451 -7.28713e-15)
(8.73857 -1.11974 -2.48408e-15)
(8.23757 -0.693004 1.76126e-14)
(7.73167 -0.326467 7.24977e-16)
(7.26707 0.0111759 -6.91032e-15)
(6.88794 0.262952 3.32129e-15)
(6.58554 0.369553 8.15272e-15)
(6.3326 0.389453 -8.00099e-15)
(6.11366 0.413366 1.47829e-14)
(5.92763 0.44073 -6.5195e-15)
(5.77795 0.413949 8.05939e-16)
(5.66752 0.319628 3.44817e-15)
(5.59367 0.202992 -1.0493e-14)
(5.54973 0.112106 4.37603e-15)
(5.52773 0.0613586 3.61041e-15)
(5.5194 0.0393484 1.104e-14)
(5.51816 0.0296926 1.37175e-15)
(5.52027 0.0233328 -9.29012e-15)
(5.52396 0.0171874 -1.49602e-15)
(5.52887 0.0119012 -7.86874e-15)
(5.53417 0.00706033 -9.17684e-15)
(5.54047 0.00373711 -1.90991e-15)
(5.54608 8.25037e-05 1.91238e-14)
(5.55334 -0.00200231 5.67177e-15)
(5.55812 -0.00652811 -3.35222e-15)
(5.56769 -0.00930144 7.09615e-15)
(5.57086 -0.0189033 5.18923e-15)
(5.58834 -0.0285988 -4.08596e-15)
(5.59287 -0.053562 1.05075e-14)
(5.63736 -0.0886204 3.62913e-15)
(10.9561 0.140319 3.28018e-16)
(10.959 0.138938 5.1939e-16)
(10.9679 0.145921 -1.50517e-15)
(10.9907 0.161755 -3.75235e-15)
(11.0345 0.185544 1.48509e-15)
(11.104 0.217203 8.0543e-16)
(11.2021 0.249895 -1.55884e-15)
(11.331 0.275705 9.00756e-16)
(11.4885 0.284948 3.30486e-15)
(11.6678 0.264502 4.53954e-15)
(11.8617 0.203799 -3.67387e-15)
(12.0598 0.0958185 -6.56707e-15)
(12.2496 -0.0610349 -3.13068e-15)
(12.4165 -0.272007 1.72448e-15)
(12.5435 -0.531678 -4.24191e-16)
(12.6175 -0.830139 -1.96007e-15)
(12.6283 -1.15317 5.30637e-15)
(12.5689 -1.48311 -2.17691e-15)
(12.4373 -1.80155 -1.35183e-15)
(12.2428 -2.09505 1.28151e-15)
(12.011 -2.36067 -4.94823e-15)
(11.7795 -2.60386 4.58013e-15)
(11.5803 -2.82659 5.22243e-15)
(11.4212 -3.01327 6.04613e-15)
(11.2814 -3.13013 1.04719e-14)
(11.1244 -3.13765 -2.10379e-15)
(10.9135 -3.00068 1.36422e-15)
(10.6171 -2.70226 -4.11157e-15)
(10.2238 -2.26078 1.48436e-15)
(9.72735 -1.72793 2.53141e-15)
(9.14195 -1.17431 -4.47865e-16)
(8.52124 -0.667543 5.0711e-15)
(7.908 -0.253343 -1.20994e-14)
(7.33276 0.0729731 3.34116e-15)
(6.83501 0.3358 5.14178e-15)
(6.44636 0.501744 4.25835e-15)
(6.15993 0.548929 3.85846e-17)
(5.93904 0.537443 -8.24664e-15)
(5.76361 0.537306 -1.86222e-14)
(5.64137 0.534942 -2.52228e-16)
(5.57721 0.478251 -1.26088e-14)
(5.55308 0.362112 5.31705e-15)
(5.54222 0.231533 5.15421e-15)
(5.53088 0.130222 -1.98943e-15)
(5.52026 0.0709749 -4.02029e-15)
(5.51467 0.042693 4.74378e-15)
(5.51482 0.029202 5.11977e-15)
(5.51874 0.0209936 6.18139e-15)
(5.52449 0.0139504 -4.9628e-15)
(5.53075 0.00836246 -2.4152e-15)
(5.53723 0.00309421 -2.02623e-15)
(5.54354 -7.38086e-05 5.18894e-15)
(5.54987 -0.00425451 -4.46093e-15)
(5.55572 -0.00557787 -1.04627e-14)
(5.56138 -0.0114038 8.30147e-15)
(5.56654 -0.0120786 -2.26465e-15)
(5.57075 -0.0253561 1.27761e-14)
(5.57674 -0.0302778 4.898e-16)
(5.58026 -0.0659 4.84501e-15)
(5.59994 -0.0978567 4.42752e-15)
(11.0178 0.029005 1.42387e-15)
(11.0401 0.0329201 -1.03923e-15)
(11.0648 0.0348294 2.228e-16)
(11.0956 0.0361496 1.66207e-15)
(11.1316 0.0372137 7.98757e-16)
(11.1728 0.036791 -1.51046e-15)
(11.2212 0.0330892 1.37133e-15)
(11.2791 0.0234968 -2.26864e-15)
(11.347 0.00396702 -4.59419e-16)
(11.4238 -0.0304366 -2.21092e-15)
(11.506 -0.0861507 1.33271e-15)
(11.5886 -0.170853 2.04005e-15)
(11.6656 -0.290609 1.7753e-15)
(11.7313 -0.449147 -5.75028e-16)
(11.7795 -0.64442 1.92929e-15)
(11.8048 -0.869099 -1.23005e-15)
(11.8031 -1.11367 9.6203e-16)
(11.7728 -1.36877 9.7355e-17)
(11.7153 -1.6296 -1.0407e-16)
(11.634 -1.89628 -1.08664e-15)
(11.5358 -2.16937 2.89482e-15)
(11.4269 -2.44546 9.21121e-16)
(11.3037 -2.70267 -7.63731e-16)
(11.1502 -2.90334 -1.41067e-15)
(10.9376 -3.003 -2.6698e-15)
(10.6355 -2.9505 1.38404e-15)
(10.2327 -2.70096 -3.8875e-15)
(9.73794 -2.26024 4.11921e-16)
(9.1738 -1.67553 -3.8947e-16)
(8.55373 -1.03867 2.1654e-15)
(7.8663 -0.433454 9.95532e-16)
(7.19731 0.0524907 1.03428e-15)
(6.58292 0.402174 7.94981e-15)
(6.05388 0.648096 -2.78706e-15)
(5.6642 0.794964 -3.40838e-15)
(5.42717 0.822795 -7.53023e-16)
(5.29155 0.761377 -1.15999e-15)
(5.20946 0.682343 6.97463e-15)