/*--------------------------------*- C++ -*----------------------------------*\
  =========                 |
  \\      /  F ield         | OpenFOAM: The Open Source CFD Toolbox
   \\    /   O peration     | Website:  https://openfoam.org
    \\  /    A nd           | Version:  7
     \\/     M anipulation  |
\*---------------------------------------------------------------------------*/
FoamFile
{
    version     2.0;
    format      ascii;
    class       volVectorField;
    location    "0.805";
    object      U;
}
// * * * * * * * * * * * * * * * * * * * * * * * * * * * * * * * * * * * * * //

dimensions      [0 1 -1 0 0 0 0];

internalField   nonuniform List<vector> 
2400
(
(9.21495e-12 -4.12713e-12 0)
(-3.65901e-11 1.97448e-11 0)
(-1.27672e-10 4.1282e-11 0)
(-2.4581e-10 6.21075e-11 0)
(-3.66862e-10 1.46332e-10 0)
(-4.99279e-10 1.65759e-10 0)
(-5.83466e-10 1.53998e-10 0)
(-6.36498e-10 7.07455e-11 0)
(-6.61493e-10 1.36179e-10 0)
(-6.29576e-10 7.6755e-11 0)
(-5.57603e-10 1.39022e-10 0)
(-4.59427e-10 7.87951e-11 0)
(-2.98837e-10 1.38657e-10 0)
(-1.50576e-10 7.72606e-11 0)
(6.74046e-11 6.36373e-11 0)
(3.21163e-10 5.58154e-11 0)
(5.54981e-10 6.15253e-11 0)
(8.4608e-10 1.32768e-10 0)
(1.08512e-09 5.87445e-11 0)
(1.40646e-09 5.50811e-11 0)
(1.68773e-09 5.11624e-11 0)
(1.96353e-09 1.29704e-10 0)
(2.23357e-09 4.99e-11 0)
(2.52059e-09 3.63152e-11 0)
(2.79007e-09 4.16076e-11 0)
(3.06397e-09 1.10265e-10 0)
(3.28921e-09 3.59447e-11 0)
(3.5297e-09 3.47207e-11 0)
(3.74451e-09 3.28549e-11 0)
(3.95225e-09 3.5411e-11 0)
(4.15918e-09 3.16952e-11 0)
(4.33347e-09 2.17513e-11 0)
(4.47677e-09 2.48238e-11 0)
(4.65264e-09 2.95587e-11 0)
(4.81226e-09 1.96303e-11 0)
(4.96308e-09 -6.52097e-11 0)
(5.04947e-09 1.35146e-11 0)
(5.20066e-09 2.00313e-11 0)
(5.2851e-09 1.71619e-11 0)
(5.38826e-09 1.92473e-11 0)
(5.4834e-09 1.44365e-11 0)
(5.56758e-09 4.42364e-12 0)
(5.62661e-09 -7.18521e-11 0)
(5.73834e-09 1.21971e-11 0)
(5.79739e-09 8.02175e-12 0)
(5.81613e-09 1.21001e-11 0)
(5.91534e-09 6.8092e-12 0)
(5.90985e-09 1.41284e-11 0)
(5.98559e-09 1.41287e-11 0)
(6.02303e-09 5.50162e-12 0)
(6.0998e-09 -7.53777e-11 0)
(6.11624e-09 -9.0578e-14 0)
(6.14354e-09 6.11464e-12 0)
(6.15818e-09 -4.24932e-13 0)
(6.16396e-09 4.04919e-12 0)
(6.23244e-09 3.65811e-12 0)
(6.21514e-09 -1.06051e-12 0)
(6.21775e-09 2.95757e-12 0)
(6.26299e-09 7.04721e-12 0)
(6.28975e-09 5.50469e-12 0)
(6.29315e-09 3.07684e-12 0)
(6.30313e-09 5.58617e-12 0)
(6.29912e-09 9.81738e-13 0)
(6.31263e-09 1.95124e-12 0)
(6.30819e-09 1.79803e-12 0)
(6.31852e-09 1.38941e-12 0)
(6.33926e-09 -3.07408e-12 0)
(6.30416e-09 -2.95589e-12 0)
(6.31748e-09 1.87599e-13 0)
(6.32856e-09 3.89558e-12 0)
(6.32167e-09 -5.10481e-12 0)
(6.28643e-09 -1.14903e-12 0)
(6.31778e-09 -7.66653e-13 0)
(6.31993e-09 -1.0338e-12 0)
(6.32747e-09 -6.14216e-12 0)
(6.29634e-09 -3.39904e-13 0)
(6.32535e-09 -3.86361e-12 0)
(6.28756e-09 -2.18149e-12 0)
(6.27346e-09 4.16066e-13 0)
(6.2939e-09 -2.89096e-12 0)
(6.27177e-09 1.5024e-12 0)
(6.29565e-09 -3.9913e-13 0)
(6.28551e-09 -4.45943e-12 0)
(6.25474e-09 -3.08388e-12 0)
(6.25941e-09 -2.39337e-12 0)
(6.24111e-09 -3.45647e-13 0)
(6.24469e-09 2.89127e-12 0)
(6.23168e-09 2.27991e-12 0)
(6.23252e-09 -1.56811e-12 0)
(6.21423e-09 -2.48758e-12 0)
(6.20979e-09 -3.50121e-12 0)
(6.21513e-09 8.83144e-13 0)
(6.22704e-09 -5.93836e-12 0)
(6.18276e-09 -2.47804e-12 0)
(6.19145e-09 -1.71823e-12 0)
(6.18892e-09 -5.22272e-12 0)
(6.18793e-09 -3.30109e-12 0)
(6.17122e-09 6.98064e-14 0)
(6.16432e-09 -3.01701e-12 0)
(6.15944e-09 -7.72747e-13 0)
(6.14565e-09 4.10531e-12 0)
(6.15346e-09 3.25568e-12 0)
(6.15544e-09 -1.98905e-12 0)
(6.1199e-09 -1.15506e-12 0)
(6.10498e-09 5.17934e-12 0)
(6.138e-09 -2.78024e-12 0)
(6.10447e-09 -5.11769e-12 0)
(6.11052e-09 -2.30978e-13 0)
(6.11373e-09 1.78213e-12 0)
(6.0994e-09 1.48133e-12 0)
(6.12481e-09 -1.19549e-13 0)
(6.06275e-09 -6.85988e-12 0)
(6.08166e-09 6.62311e-12 0)
(6.0858e-09 -5.34234e-12 0)
(6.07439e-09 1.05904e-12 0)
(6.11003e-09 2.41634e-12 0)
(6.06788e-09 6.18371e-13 0)
(6.06893e-09 1.37111e-12 0)
(6.04791e-09 1.10903e-13 0)
(6.02625e-09 8.43201e-12 0)
(-4.90202e-12 8.24044e-11 0)
(-1.55031e-10 2.63637e-10 0)
(-3.60466e-10 3.96107e-10 0)
(-5.89631e-10 4.83036e-10 0)
(-7.88523e-10 5.24976e-10 0)
(-9.27025e-10 5.34959e-10 0)
(-9.61182e-10 5.59898e-10 0)
(-9.31099e-10 5.54805e-10 0)
(-8.07154e-10 5.41815e-10 0)
(-5.70239e-10 4.85156e-10 0)
(-2.1536e-10 4.49318e-10 0)
(2.23619e-10 3.99595e-10 0)
(8.03758e-10 3.69515e-10 0)
(1.41011e-09 3.20461e-10 0)
(2.13758e-09 2.76109e-10 0)
(2.91944e-09 2.43901e-10 0)
(3.69416e-09 1.90329e-10 0)
(4.60447e-09 1.64486e-10 0)
(5.45496e-09 1.26217e-10 0)
(6.39718e-09 9.54694e-11 0)
(7.25991e-09 7.9315e-11 0)
(8.16068e-09 7.23373e-11 0)
(9.03327e-09 4.37366e-11 0)
(9.89048e-09 3.58222e-11 0)
(1.06854e-08 2.53744e-11 0)
(1.1527e-08 2.87118e-11 0)
(1.22827e-08 1.41738e-11 0)
(1.2987e-08 9.99541e-12 0)
(1.3653e-08 1.7687e-11 0)
(1.43045e-08 2.61283e-11 0)
(1.4886e-08 1.73813e-11 0)
(1.54191e-08 2.0619e-11 0)
(1.59199e-08 8.3724e-12 0)
(1.64285e-08 1.14194e-11 0)
(1.69128e-08 2.10569e-11 0)
(1.73097e-08 6.90893e-12 0)
(1.76541e-08 2.19739e-11 0)
(1.80279e-08 1.91817e-11 0)
(1.83495e-08 1.48364e-11 0)
(1.86563e-08 1.47236e-11 0)
(1.89362e-08 8.58956e-12 0)
(1.92042e-08 1.2943e-11 0)
(1.94335e-08 1.0444e-11 0)
(1.9665e-08 1.91161e-11 0)
(1.98429e-08 1.26349e-11 0)
(2.00124e-08 1.17691e-11 0)
(2.02262e-08 1.30084e-11 0)
(2.02979e-08 -3.04175e-12 0)
(2.04875e-08 -4.36723e-12 0)
(2.06277e-08 9.36394e-13 0)
(2.07713e-08 -6.47555e-13 0)
(2.08316e-08 1.10405e-11 0)
(2.09281e-08 1.36597e-11 0)
(2.10103e-08 1.23813e-11 0)
(2.10561e-08 9.22871e-12 0)
(2.11712e-08 3.47403e-12 0)
(2.11859e-08 -4.69486e-12 0)
(2.1252e-08 -6.02864e-12 0)
(2.13332e-08 -9.16304e-12 0)
(2.13859e-08 -3.66723e-12 0)
(2.13979e-08 -9.03008e-14 0)
(2.14139e-08 8.57012e-12 0)
(2.14374e-08 1.4323e-13 0)
(2.14796e-08 -5.2369e-12 0)
(2.14606e-08 -8.8419e-12 0)
(2.14744e-08 2.1635e-12 0)
(2.15339e-08 1.07486e-11 0)
(2.14878e-08 9.39032e-12 0)
(2.15042e-08 4.43343e-12 0)
(2.15216e-08 8.57407e-12 0)
(2.1506e-08 4.60638e-13 0)
(2.14609e-08 -3.69199e-12 0)
(2.14875e-08 -3.0801e-12 0)
(2.14846e-08 -1.82984e-12 0)
(2.14796e-08 1.38528e-12 0)
(2.14407e-08 2.81513e-12 0)
(2.14578e-08 2.94992e-12 0)
(2.14001e-08 -9.82496e-13 0)
(2.13868e-08 2.61896e-13 0)
(2.14108e-08 -6.00627e-12 0)
(2.13475e-08 -5.38228e-12 0)
(2.13558e-08 -3.34498e-12 0)
(2.13411e-08 -4.61905e-13 0)
(2.1312e-08 -1.05385e-11 0)
(2.13111e-08 6.77863e-13 0)
(2.12851e-08 4.22271e-13 0)
(2.12622e-08 7.13083e-12 0)
(2.12305e-08 6.28022e-12 0)
(2.12071e-08 2.41084e-12 0)
(2.11844e-08 -7.00205e-12 0)
(2.11619e-08 -4.2882e-12 0)
(2.11517e-08 -5.82457e-12 0)
(2.11368e-08 4.30801e-12 0)
(2.11102e-08 -8.09189e-13 0)
(2.10813e-08 -7.86149e-12 0)
(2.10751e-08 -3.31586e-12 0)
(2.10537e-08 2.7799e-12 0)
(2.10214e-08 -3.30266e-12 0)
(2.10061e-08 6.0045e-12 0)
(2.09826e-08 5.43605e-12 0)
(2.09625e-08 5.98505e-12 0)
(2.09593e-08 2.31837e-12 0)
(2.09436e-08 1.63089e-12 0)
(2.08853e-08 7.48105e-12 0)
(2.08747e-08 -1.14032e-12 0)
(2.08937e-08 -2.16196e-13 0)
(2.08462e-08 -1.21348e-11 0)
(2.08337e-08 -3.1465e-12 0)
(2.08374e-08 5.7483e-12 0)
(2.08106e-08 5.10965e-13 0)
(2.08285e-08 -8.46692e-13 0)
(2.07685e-08 1.27267e-11 0)
(2.07684e-08 3.82734e-13 0)
(2.07558e-08 -7.81939e-13 0)
(2.07007e-08 -2.40677e-12 0)
(2.07677e-08 1.66865e-12 0)
(2.06881e-08 5.22558e-12 0)
(2.07182e-08 6.6242e-12 0)
(2.06778e-08 2.1157e-11 0)
(2.06661e-08 2.89388e-11 0)
(-4.16203e-12 2.64812e-10 0)
(-1.81757e-10 7.18285e-10 0)
(-3.77665e-10 1.05643e-09 0)
(-5.13547e-10 1.28027e-09 0)
(-5.99382e-10 1.44162e-09 0)
(-5.54368e-10 1.51454e-09 0)
(-3.62471e-10 1.5283e-09 0)
(-3.64384e-11 1.50723e-09 0)
(4.59723e-10 1.44777e-09 0)
(1.1057e-09 1.37069e-09 0)
(1.90198e-09 1.28095e-09 0)
(2.86559e-09 1.15836e-09 0)
(3.9775e-09 1.05143e-09 0)
(5.15642e-09 9.24463e-10 0)
(6.50295e-09 8.01187e-10 0)
(7.89824e-09 6.9885e-10 0)
(9.32135e-09 6.14516e-10 0)
(1.08747e-08 5.27589e-10 0)
(1.23619e-08 4.36812e-10 0)
(1.39423e-08 3.66552e-10 0)
(1.54649e-08 3.12296e-10 0)
(1.69753e-08 2.67364e-10 0)
(1.84395e-08 2.22485e-10 0)
(1.98833e-08 1.80159e-10 0)
(2.12857e-08 1.44355e-10 0)
(2.2644e-08 1.26489e-10 0)
(2.38573e-08 1.12334e-10 0)
(2.50635e-08 9.91261e-11 0)
(2.61989e-08 9.02261e-11 0)
(2.72622e-08 7.84916e-11 0)
(2.82817e-08 7.65107e-11 0)
(2.91684e-08 6.60173e-11 0)
(2.99999e-08 6.2033e-11 0)
(3.08433e-08 5.13529e-11 0)
(3.1625e-08 4.51501e-11 0)
(3.22796e-08 3.9431e-11 0)
(3.28756e-08 4.50495e-11 0)
(3.34962e-08 5.49448e-11 0)
(3.40587e-08 3.8652e-11 0)
(3.45719e-08 3.53975e-11 0)
(3.50136e-08 3.26806e-11 0)
(3.54567e-08 2.2446e-11 0)
(3.58427e-08 1.63436e-11 0)
(3.62325e-08 2.82922e-11 0)
(3.65395e-08 3.52903e-11 0)
(3.68066e-08 3.30037e-11 0)
(3.71393e-08 3.2316e-11 0)
(3.73386e-08 2.356e-11 0)
(3.76091e-08 3.77507e-12 0)
(3.78098e-08 -5.12305e-12 0)
(3.80344e-08 -3.33034e-12 0)
(3.81732e-08 1.15099e-11 0)
(3.83399e-08 1.8871e-11 0)
(3.84747e-08 2.48633e-11 0)
(3.85851e-08 1.23346e-11 0)
(3.87109e-08 5.21232e-12 0)
(3.88166e-08 5.30299e-12 0)
(3.89026e-08 -9.53679e-12 0)
(3.89963e-08 -1.21459e-11 0)
(3.90767e-08 -6.6681e-12 0)
(3.91297e-08 5.86395e-12 0)
(3.91355e-08 7.51027e-12 0)
(3.92238e-08 7.05581e-12 0)
(3.92456e-08 6.50423e-12 0)
(3.92294e-08 1.49677e-12 0)
(3.92699e-08 -8.7922e-12 0)
(3.93297e-08 -9.95983e-12 0)
(3.92737e-08 -3.46595e-12 0)
(3.93049e-08 -3.55045e-13 0)
(3.93236e-08 -5.44939e-13 0)
(3.93188e-08 3.44107e-12 0)
(3.92715e-08 -5.83742e-12 0)
(3.9261e-08 -1.03616e-11 0)
(3.92441e-08 -1.43951e-11 0)
(3.92272e-08 -9.89823e-14 0)
(3.92092e-08 8.80816e-13 0)
(3.92141e-08 5.46565e-12 0)
(3.91638e-08 -3.05227e-12 0)
(3.90992e-08 -6.00909e-12 0)
(3.91237e-08 -3.35439e-12 0)
(3.90624e-08 -5.22321e-12 0)
(3.90327e-08 -1.52429e-11 0)
(3.90229e-08 -1.92396e-11 0)
(3.89759e-08 -1.37333e-11 0)
(3.89635e-08 -9.61114e-12 0)
(3.89213e-08 -4.21347e-12 0)
(3.88786e-08 -1.66422e-12 0)
(3.8859e-08 2.05867e-12 0)
(3.88184e-08 4.64258e-12 0)
(3.8759e-08 1.79162e-12 0)
(3.87174e-08 -4.22478e-12 0)
(3.86924e-08 -4.74237e-12 0)
(3.86581e-08 -3.94073e-12 0)
(3.86272e-08 -6.25601e-12 0)
(3.8595e-08 -1.01288e-11 0)
(3.85563e-08 -4.46014e-12 0)
(3.85332e-08 -5.06118e-13 0)
(3.84918e-08 3.27401e-13 0)
(3.84379e-08 -8.03705e-13 0)
(3.84057e-08 3.27571e-12 0)
(3.83777e-08 -9.31564e-12 0)
(3.83595e-08 -4.05412e-12 0)
(3.83257e-08 4.58601e-13 0)
(3.83053e-08 -9.77504e-13 0)
(3.82494e-08 -9.3116e-12 0)
(3.82768e-08 -1.09678e-11 0)
(3.82132e-08 -4.52145e-12 0)
(3.81423e-08 -6.32974e-13 0)
(3.81594e-08 -6.46018e-12 0)
(3.81163e-08 -7.30948e-12 0)
(3.81122e-08 1.01217e-11 0)
(3.80582e-08 2.23779e-12 0)
(3.80495e-08 2.69571e-12 0)
(3.80625e-08 -7.98299e-12 0)
(3.7971e-08 -1.38943e-12 0)
(3.80229e-08 -9.15965e-13 0)
(3.79688e-08 -1.47147e-12 0)
(3.79697e-08 1.37758e-11 0)
(3.79242e-08 3.42189e-11 0)
(3.79131e-08 3.80702e-11 0)
(-4.42266e-12 4.81814e-10 0)
(-1.1604e-10 1.23043e-09 0)
(-1.49415e-10 1.7696e-09 0)
(-3.25561e-11 2.13163e-09 0)
(1.99711e-10 2.34666e-09 0)
(6.37015e-10 2.46303e-09 0)
(1.30362e-09 2.49982e-09 0)
(2.13463e-09 2.47718e-09 0)
(3.19028e-09 2.38001e-09 0)
(4.43767e-09 2.24923e-09 0)
(5.86703e-09 2.08945e-09 0)
(7.4868e-09 1.89945e-09 0)
(9.2695e-09 1.71432e-09 0)
(1.11628e-08 1.51996e-09 0)
(1.3201e-08 1.33826e-09 0)
(1.52804e-08 1.16297e-09 0)
(1.74176e-08 9.91307e-10 0)
(1.96529e-08 8.37253e-10 0)
(2.18217e-08 7.02446e-10 0)
(2.40517e-08 5.79465e-10 0)
(2.62228e-08 4.77593e-10 0)
(2.83671e-08 3.99908e-10 0)
(3.04565e-08 3.23656e-10 0)
(3.24612e-08 2.60734e-10 0)
(3.4402e-08 2.08559e-10 0)
(3.62677e-08 1.79706e-10 0)
(3.79772e-08 1.53816e-10 0)
(3.96707e-08 1.35671e-10 0)
(4.122e-08 1.19823e-10 0)
(4.26957e-08 1.09773e-10 0)
(4.40941e-08 1.0868e-10 0)
(4.5352e-08 9.4348e-11 0)
(4.65181e-08 7.89415e-11 0)
(4.76605e-08 6.98762e-11 0)
(4.87217e-08 7.17081e-11 0)
(4.96489e-08 7.68235e-11 0)
(5.05062e-08 6.82258e-11 0)
(5.13419e-08 6.00802e-11 0)
(5.21139e-08 5.98239e-11 0)
(5.28061e-08 4.63368e-11 0)
(5.34512e-08 3.85894e-11 0)
(5.40485e-08 3.68256e-11 0)
(5.45998e-08 3.48228e-11 0)
(5.5088e-08 3.91754e-11 0)
(5.55548e-08 5.11344e-11 0)
(5.59416e-08 3.46571e-11 0)
(5.63618e-08 2.81198e-11 0)
(5.66934e-08 1.99027e-11 0)
(5.70289e-08 8.83139e-12 0)
(5.73193e-08 4.55798e-12 0)
(5.75807e-08 7.27033e-12 0)
(5.78291e-08 1.85743e-11 0)
(5.80557e-08 2.34704e-11 0)
(5.82262e-08 2.76812e-11 0)
(5.84182e-08 2.09142e-11 0)
(5.85699e-08 7.20223e-12 0)
(5.87141e-08 -6.87106e-12 0)
(5.88212e-08 -1.61308e-11 0)
(5.89458e-08 -1.33681e-11 0)
(5.90308e-08 -1.00259e-12 0)
(5.91071e-08 1.50656e-11 0)
(5.91862e-08 8.74809e-12 0)
(5.92565e-08 6.1172e-13 0)
(5.92984e-08 7.37409e-12 0)
(5.92918e-08 8.00517e-12 0)
(5.93455e-08 -5.47627e-12 0)
(5.93754e-08 -1.1934e-11 0)
(5.93737e-08 -1.05058e-11 0)
(5.93854e-08 1.29148e-12 0)
(5.94175e-08 1.07774e-12 0)
(5.9365e-08 7.34889e-12 0)
(5.93623e-08 2.71707e-12 0)
(5.93421e-08 -5.84174e-12 0)
(5.9299e-08 -6.64932e-12 0)
(5.92685e-08 -5.24479e-12 0)
(5.92251e-08 6.45289e-13 0)
(5.9252e-08 6.12253e-14 0)
(5.91604e-08 8.12243e-13 0)
(5.91213e-08 -1.51036e-12 0)
(5.91239e-08 -4.01139e-12 0)
(5.90176e-08 -8.90931e-12 0)
(5.90225e-08 -1.05873e-11 0)
(5.89965e-08 -1.13131e-11 0)
(5.89056e-08 -1.05318e-11 0)
(5.8898e-08 -1.16622e-11 0)
(5.88026e-08 -5.65997e-12 0)
(5.87792e-08 1.69671e-12 0)
(5.87462e-08 6.65499e-12 0)
(5.86886e-08 8.75416e-12 0)
(5.86683e-08 6.95323e-12 0)
(5.8572e-08 5.66268e-13 0)
(5.8532e-08 -4.94869e-12 0)
(5.84581e-08 -1.22125e-11 0)
(5.8429e-08 -1.6484e-11 0)
(5.83898e-08 -1.17189e-11 0)
(5.83021e-08 3.15639e-12 0)
(5.82799e-08 -4.66989e-12 0)
(5.82276e-08 -2.87062e-12 0)
(5.81659e-08 4.74319e-12 0)
(5.81389e-08 -1.73012e-11 0)
(5.80978e-08 -1.84325e-11 0)
(5.80523e-08 -9.88663e-12 0)
(5.80066e-08 -6.26937e-12 0)
(5.79951e-08 -7.97288e-12 0)
(5.79124e-08 -1.50376e-11 0)
(5.79073e-08 -1.86971e-11 0)
(5.78431e-08 -6.08392e-12 0)
(5.7769e-08 6.49318e-14 0)
(5.77573e-08 -8.80774e-12 0)
(5.77133e-08 -1.74066e-12 0)
(5.77073e-08 -2.87128e-12 0)
(5.76677e-08 2.94391e-12 0)
(5.76277e-08 4.85081e-13 0)
(5.76124e-08 6.80177e-12 0)
(5.75456e-08 7.81771e-12 0)
(5.75743e-08 -1.53703e-12 0)
(5.75333e-08 5.60712e-12 0)
(5.74827e-08 1.28727e-11 0)
(5.74935e-08 3.24367e-11 0)
(5.74853e-08 5.10387e-11 0)
(-7.40148e-11 6.73922e-10 0)
(5.66242e-11 1.67066e-09 0)
(3.04269e-10 2.35741e-09 0)
(8.16307e-10 2.81873e-09 0)
(1.57124e-09 3.12087e-09 0)
(2.58246e-09 3.27543e-09 0)
(3.88464e-09 3.32224e-09 0)
(5.40781e-09 3.27581e-09 0)
(7.19023e-09 3.16971e-09 0)
(9.2122e-09 2.9892e-09 0)
(1.14166e-08 2.78536e-09 0)
(1.38107e-08 2.5494e-09 0)
(1.63693e-08 2.28994e-09 0)
(1.90398e-08 2.03535e-09 0)
(2.18376e-08 1.79055e-09 0)
(2.46817e-08 1.55197e-09 0)
(2.75655e-08 1.33234e-09 0)
(3.04801e-08 1.11783e-09 0)
(3.33815e-08 9.3791e-10 0)
(3.62397e-08 7.70792e-10 0)
(3.90507e-08 6.38576e-10 0)
(4.17771e-08 5.22264e-10 0)
(4.44847e-08 4.20534e-10 0)
(4.70003e-08 3.48362e-10 0)
(4.94857e-08 2.7778e-10 0)
(5.17936e-08 2.38051e-10 0)
(5.39981e-08 2.02754e-10 0)
(5.61152e-08 1.74152e-10 0)
(5.80502e-08 1.58539e-10 0)
(5.99143e-08 1.38811e-10 0)
(6.16562e-08 1.34004e-10 0)
(6.3308e-08 1.238e-10 0)
(6.47683e-08 1.0489e-10 0)
(6.61708e-08 8.90511e-11 0)
(6.74653e-08 8.47766e-11 0)
(6.86848e-08 9.11283e-11 0)
(6.97772e-08 9.02224e-11 0)
(7.07825e-08 8.08626e-11 0)
(7.17955e-08 8.01854e-11 0)
(7.26701e-08 6.25007e-11 0)
(7.34544e-08 5.8316e-11 0)
(7.4199e-08 4.63312e-11 0)
(7.48686e-08 4.55378e-11 0)
(7.5486e-08 5.70624e-11 0)
(7.60993e-08 5.28625e-11 0)
(7.66288e-08 4.40646e-11 0)
(7.71249e-08 3.82176e-11 0)
(7.7545e-08 2.02568e-11 0)
(7.79729e-08 1.90116e-11 0)
(7.83377e-08 1.66481e-11 0)
(7.86544e-08 9.96953e-12 0)
(7.89539e-08 2.05656e-11 0)
(7.92209e-08 2.363e-11 0)
(7.94609e-08 2.13082e-11 0)
(7.97444e-08 2.04207e-11 0)
(7.99105e-08 4.53011e-12 0)
(8.00693e-08 -5.14456e-12 0)
(8.01995e-08 -9.56663e-12 0)
(8.03739e-08 -7.74474e-12 0)
(8.04465e-08 -4.51704e-12 0)
(8.05456e-08 2.67202e-12 0)
(8.06866e-08 3.69786e-12 0)
(8.07136e-08 8.28801e-12 0)
(8.07715e-08 2.75201e-13 0)
(8.08378e-08 3.03736e-12 0)
(8.09098e-08 -1.24439e-11 0)
(8.09041e-08 -1.80448e-11 0)
(8.08637e-08 -1.29411e-11 0)
(8.09309e-08 -6.74226e-12 0)
(8.09186e-08 -7.2009e-14 0)
(8.09119e-08 6.16451e-12 0)
(8.08842e-08 4.95865e-15 0)
(8.08565e-08 -7.06242e-12 0)
(8.08184e-08 -1.00175e-12 0)
(8.07855e-08 -4.72754e-12 0)
(8.07162e-08 -4.27829e-13 0)
(8.07182e-08 2.14915e-13 0)
(8.06548e-08 3.43148e-12 0)
(8.06086e-08 1.88873e-12 0)
(8.05476e-08 -1.20738e-11 0)
(8.04603e-08 -1.07829e-11 0)
(8.04724e-08 -8.43061e-12 0)
(8.03886e-08 -2.52604e-11 0)
(8.02785e-08 -1.21465e-11 0)
(8.0291e-08 -1.64443e-11 0)
(8.01878e-08 -7.12993e-12 0)
(8.01491e-08 -3.12352e-13 0)
(8.00952e-08 6.24106e-12 0)
(8.00354e-08 3.69196e-12 0)
(8.00141e-08 2.00401e-12 0)
(7.98798e-08 7.17041e-12 0)
(7.98722e-08 -3.12882e-13 0)
(7.97548e-08 -8.75713e-12 0)
(7.97258e-08 -9.4415e-12 0)
(7.9633e-08 -1.36656e-11 0)
(7.95199e-08 -5.60605e-12 0)
(7.95027e-08 9.67669e-12 0)
(7.94428e-08 -7.34706e-14 0)
(7.93883e-08 -1.5014e-11 0)
(7.93271e-08 -1.37332e-11 0)
(7.92844e-08 -1.03095e-11 0)
(7.92559e-08 -2.3905e-11 0)
(7.91438e-08 -1.09838e-11 0)
(7.91617e-08 -1.1492e-11 0)
(7.90723e-08 -8.24516e-12 0)
(7.90108e-08 -2.30143e-12 0)
(7.89466e-08 -2.77234e-12 0)
(7.88615e-08 -3.31186e-12 0)
(7.88698e-08 -2.70926e-12 0)
(7.87907e-08 -3.8837e-13 0)
(7.87459e-08 -4.37859e-12 0)
(7.87169e-08 -6.11058e-12 0)
(7.86921e-08 -1.35623e-12 0)
(7.86648e-08 6.13786e-12 0)
(7.86162e-08 -2.40748e-12 0)
(7.86352e-08 -1.80582e-12 0)
(7.85894e-08 1.0672e-12 0)
(7.85217e-08 1.23541e-11 0)
(7.85382e-08 1.30533e-11 0)
(7.85366e-08 1.66554e-11 0)
(-6.56776e-11 8.07469e-10 0)
(2.99364e-10 1.92649e-09 0)
(9.33427e-10 2.69613e-09 0)
(1.95746e-09 3.21949e-09 0)
(3.32746e-09 3.54143e-09 0)
(5.03466e-09 3.71728e-09 0)
(7.10849e-09 3.76561e-09 0)
(9.41475e-09 3.72173e-09 0)
(1.20623e-08 3.60441e-09 0)
(1.49056e-08 3.41294e-09 0)
(1.79757e-08 3.16989e-09 0)
(2.12069e-08 2.90357e-09 0)
(2.45993e-08 2.6196e-09 0)
(2.80848e-08 2.32875e-09 0)
(3.1653e-08 2.03424e-09 0)
(3.52587e-08 1.76703e-09 0)
(3.88845e-08 1.51567e-09 0)
(4.25066e-08 1.28462e-09 0)
(4.6072e-08 1.06883e-09 0)
(4.95455e-08 8.85622e-10 0)
(5.29566e-08 7.28207e-10 0)
(5.62453e-08 5.88235e-10 0)
(5.94665e-08 4.80257e-10 0)
(6.24753e-08 3.74884e-10 0)
(6.54599e-08 3.09945e-10 0)
(6.81926e-08 2.56315e-10 0)
(7.08213e-08 2.22489e-10 0)
(7.32975e-08 1.92615e-10 0)
(7.56186e-08 1.59764e-10 0)
(7.78117e-08 1.55649e-10 0)
(7.98613e-08 1.43096e-10 0)
(8.17721e-08 1.33097e-10 0)
(8.35628e-08 1.20725e-10 0)
(8.52015e-08 1.08422e-10 0)
(8.67269e-08 9.57391e-11 0)
(8.81589e-08 9.11884e-11 0)
(8.94739e-08 9.13225e-11 0)
(9.06584e-08 8.8443e-11 0)
(9.18628e-08 8.71401e-11 0)
(9.28686e-08 7.44331e-11 0)
(9.3815e-08 6.71374e-11 0)
(9.46825e-08 6.44201e-11 0)
(9.54887e-08 6.02115e-11 0)
(9.62137e-08 5.37935e-11 0)
(9.6942e-08 4.70589e-11 0)
(9.7582e-08 4.63242e-11 0)
(9.81499e-08 3.4159e-11 0)
(9.86505e-08 3.02517e-11 0)
(9.91466e-08 2.30605e-11 0)
(9.95843e-08 1.18314e-11 0)
(9.99706e-08 1.7829e-11 0)
(1.00316e-07 2.35835e-11 0)
(1.00627e-07 2.76057e-11 0)
(1.0092e-07 2.03949e-11 0)
(1.01252e-07 1.89717e-11 0)
(1.01439e-07 1.57736e-12 0)
(1.01635e-07 4.45152e-13 0)
(1.0181e-07 3.33245e-12 0)
(1.01971e-07 -3.48496e-12 0)
(1.02089e-07 4.5508e-12 0)
(1.02174e-07 -2.30687e-12 0)
(1.02351e-07 -1.49316e-12 0)
(1.02384e-07 -4.78476e-12 0)
(1.02451e-07 1.22064e-12 0)
(1.02555e-07 -8.75947e-12 0)
(1.0261e-07 -1.16549e-11 0)
(1.02613e-07 -1.0953e-11 0)
(1.02586e-07 -1.46621e-11 0)
(1.0263e-07 -8.31429e-12 0)
(1.02602e-07 -3.42242e-13 0)
(1.02609e-07 2.9788e-12 0)
(1.02605e-07 4.33359e-13 0)
(1.02551e-07 9.69198e-12 0)
(1.02519e-07 1.16599e-11 0)
(1.02463e-07 -3.20012e-12 0)
(1.02412e-07 -5.92778e-12 0)
(1.02385e-07 6.67724e-13 0)
(1.02316e-07 7.54907e-13 0)
(1.02265e-07 1.93469e-12 0)
(1.02186e-07 1.725e-13 0)
(1.02122e-07 -5.49006e-12 0)
(1.02075e-07 -1.34252e-11 0)
(1.01991e-07 -2.02194e-11 0)
(1.01891e-07 -2.99501e-11 0)
(1.0187e-07 -1.2313e-11 0)
(1.01755e-07 -1.12514e-11 0)
(1.0171e-07 -1.88601e-11 0)
(1.01656e-07 -1.04255e-11 0)
(1.01577e-07 -1.40341e-12 0)
(1.01548e-07 5.04932e-12 0)
(1.01412e-07 9.47262e-12 0)
(1.01382e-07 5.70134e-12 0)
(1.01264e-07 4.97791e-12 0)
(1.01197e-07 -1.36254e-12 0)
(1.01095e-07 8.96323e-12 0)
(1.00992e-07 1.24287e-12 0)
(1.0097e-07 -8.5376e-12 0)
(1.00878e-07 -2.67993e-12 0)
(1.00813e-07 -1.40134e-11 0)
(1.00753e-07 -2.51043e-11 0)
(1.00651e-07 -2.49683e-11 0)
(1.0065e-07 -1.64191e-11 0)
(1.00526e-07 -1.84487e-11 0)
(1.00529e-07 -1.57675e-11 0)
(1.00434e-07 -1.75379e-11 0)
(1.00361e-07 -1.97349e-12 0)
(1.00273e-07 2.64993e-12 0)
(1.00207e-07 4.22245e-12 0)
(1.00201e-07 2.91295e-12 0)
(1.00099e-07 -3.83934e-12 0)
(1.00033e-07 -5.7131e-12 0)
(1.00029e-07 7.94906e-13 0)
(1.00002e-07 -1.61271e-12 0)
(9.9946e-08 -4.7097e-12 0)
(9.98953e-08 -4.27374e-12 0)
(9.99098e-08 -6.41851e-12 0)
(9.98629e-08 -4.75335e-12 0)
(9.97995e-08 1.40794e-12 0)
(9.98e-08 6.71739e-12 0)
(9.98041e-08 7.87452e-12 0)
(-3.74612e-11 8.16741e-10 0)
(5.68133e-10 1.90547e-09 0)
(1.62946e-09 2.67212e-09 0)
(3.22944e-09 3.17417e-09 0)
(5.23425e-09 3.5043e-09 0)
(7.68789e-09 3.67222e-09 0)
(1.05245e-08 3.72032e-09 0)
(1.36597e-08 3.67625e-09 0)
(1.71622e-08 3.55602e-09 0)
(2.08394e-08 3.3676e-09 0)
(2.47569e-08 3.13151e-09 0)
(2.88137e-08 2.86527e-09 0)
(3.30205e-08 2.59117e-09 0)
(3.72914e-08 2.30561e-09 0)
(4.15908e-08 2.02995e-09 0)
(4.59411e-08 1.76059e-09 0)
(5.02173e-08 1.49173e-09 0)
(5.44775e-08 1.2665e-09 0)
(5.86318e-08 1.05424e-09 0)
(6.26961e-08 8.73388e-10 0)
(6.6614e-08 7.12507e-10 0)
(7.0389e-08 5.7384e-10 0)
(7.40938e-08 4.58222e-10 0)
(7.75385e-08 3.60332e-10 0)
(8.08848e-08 2.99767e-10 0)
(8.40124e-08 2.53639e-10 0)
(8.69741e-08 2.23368e-10 0)
(8.97994e-08 1.81005e-10 0)
(9.23961e-08 1.52103e-10 0)
(9.48903e-08 1.33143e-10 0)
(9.72132e-08 1.15932e-10 0)
(9.94033e-08 1.09204e-10 0)
(1.01377e-07 1.03651e-10 0)
(1.03239e-07 9.17209e-11 0)
(1.04963e-07 9.06054e-11 0)
(1.06598e-07 9.7571e-11 0)
(1.0807e-07 8.99994e-11 0)
(1.09423e-07 7.98495e-11 0)
(1.10744e-07 7.70229e-11 0)
(1.11911e-07 7.99729e-11 0)
(1.12974e-07 7.61234e-11 0)
(1.13963e-07 7.299e-11 0)
(1.14861e-07 5.48154e-11 0)
(1.15703e-07 3.75446e-11 0)
(1.1652e-07 4.23578e-11 0)
(1.17215e-07 3.41455e-11 0)
(1.17881e-07 2.3664e-11 0)
(1.18435e-07 1.72003e-11 0)
(1.19015e-07 1.19175e-11 0)
(1.19488e-07 1.90628e-11 0)
(1.19936e-07 1.72827e-11 0)
(1.2033e-07 1.94976e-11 0)
(1.20684e-07 1.08187e-11 0)
(1.21009e-07 1.37553e-11 0)
(1.21365e-07 1.19614e-11 0)
(1.21591e-07 7.45254e-12 0)
(1.21813e-07 1.20259e-11 0)
(1.21998e-07 -6.43171e-13 0)
(1.22194e-07 1.12196e-12 0)
(1.22319e-07 -1.00376e-11 0)
(1.22443e-07 -4.77376e-12 0)
(1.22625e-07 -7.97279e-12 0)
(1.22654e-07 -5.19501e-12 0)
(1.22736e-07 -1.21196e-11 0)
(1.22825e-07 -1.65651e-11 0)
(1.22901e-07 -6.31083e-12 0)
(1.22896e-07 -1.13159e-11 0)
(1.22873e-07 -1.32307e-11 0)
(1.22931e-07 -1.05088e-11 0)
(1.22914e-07 -9.93485e-12 0)
(1.22918e-07 -1.63804e-12 0)
(1.22874e-07 1.50006e-11 0)
(1.22833e-07 1.69988e-11 0)
(1.22798e-07 -1.30445e-12 0)
(1.22744e-07 3.397e-12 0)
(1.22678e-07 6.08383e-12 0)
(1.22655e-07 7.74472e-12 0)
(1.22571e-07 -2.43211e-12 0)
(1.22507e-07 -7.17906e-12 0)
(1.22434e-07 -8.50583e-12 0)
(1.22334e-07 -6.07866e-12 0)
(1.22326e-07 -6.69373e-12 0)
(1.22211e-07 -1.47567e-11 0)
(1.22095e-07 -2.07685e-11 0)
(1.22065e-07 -1.93268e-11 0)
(1.21956e-07 -1.56826e-11 0)
(1.21892e-07 -3.30157e-12 0)
(1.2182e-07 -8.41199e-12 0)
(1.21736e-07 -8.05584e-12 0)
(1.21696e-07 4.81882e-12 0)
(1.21531e-07 -1.35333e-13 0)
(1.21507e-07 4.46963e-12 0)
(1.21377e-07 1.21263e-12 0)
(1.2131e-07 7.54209e-12 0)
(1.21198e-07 7.18478e-12 0)
(1.21082e-07 -8.21617e-13 0)
(1.21029e-07 -1.96877e-12 0)
(1.20956e-07 -1.07893e-11 0)
(1.20872e-07 -2.43332e-11 0)
(1.20798e-07 -2.40652e-11 0)
(1.2072e-07 -2.55272e-11 0)
(1.20677e-07 -3.0618e-11 0)
(1.20543e-07 -3.02756e-11 0)
(1.20532e-07 -2.30383e-11 0)
(1.20435e-07 -4.92612e-12 0)
(1.2036e-07 1.01514e-11 0)
(1.2027e-07 1.60198e-11 0)
(1.20175e-07 1.45922e-11 0)
(1.2016e-07 5.80192e-12 0)
(1.20079e-07 -8.5823e-12 0)
(1.20001e-07 -1.66305e-11 0)
(1.19966e-07 -2.4019e-11 0)
(1.19925e-07 -1.61141e-11 0)
(1.199e-07 -1.15078e-11 0)
(1.19845e-07 -1.3818e-11 0)
(1.19856e-07 -3.87406e-12 0)
(1.19796e-07 1.33998e-12 0)
(1.19717e-07 -6.61877e-12 0)
(1.19722e-07 -1.03067e-11 0)
(1.19713e-07 -8.51076e-12 0)
(7.38519e-11 6.95227e-10 0)
(8.13699e-10 1.63585e-09 0)
(2.2901e-09 2.2649e-09 0)
(4.40486e-09 2.70209e-09 0)
(7.02804e-09 2.96178e-09 0)
(1.01347e-08 3.09574e-09 0)
(1.36722e-08 3.14061e-09 0)
(1.75691e-08 3.1051e-09 0)
(2.17805e-08 3.00412e-09 0)
(2.62298e-08 2.85471e-09 0)
(3.08777e-08 2.65534e-09 0)
(3.56649e-08 2.42528e-09 0)
(4.05955e-08 2.20323e-09 0)
(4.55188e-08 1.9557e-09 0)
(5.04766e-08 1.72216e-09 0)
(5.54068e-08 1.49318e-09 0)
(6.02629e-08 1.2735e-09 0)
(6.50506e-08 1.07309e-09 0)
(6.96976e-08 8.93156e-10 0)
(7.42284e-08 7.37274e-10 0)
(7.8569e-08 6.03292e-10 0)
(8.27717e-08 4.83073e-10 0)
(8.68e-08 3.79904e-10 0)
(9.0615e-08 3.044e-10 0)
(9.42571e-08 2.5263e-10 0)
(9.77228e-08 2.16317e-10 0)
(1.00931e-07 1.78304e-10 0)
(1.04035e-07 1.56322e-10 0)
(1.06874e-07 1.33493e-10 0)
(1.09568e-07 1.13862e-10 0)
(1.12076e-07 1.09576e-10 0)
(1.14442e-07 1.08953e-10 0)
(1.16594e-07 9.35808e-11 0)
(1.1866e-07 7.76834e-11 0)
(1.20572e-07 7.38491e-11 0)
(1.2232e-07 7.36164e-11 0)
(1.23903e-07 7.12722e-11 0)
(1.25407e-07 7.39326e-11 0)
(1.26819e-07 6.82196e-11 0)
(1.28106e-07 6.82082e-11 0)
(1.29252e-07 7.09272e-11 0)
(1.30352e-07 5.90283e-11 0)
(1.31349e-07 4.38391e-11 0)
(1.32288e-07 2.94866e-11 0)
(1.33132e-07 1.97369e-11 0)
(1.33856e-07 1.66951e-11 0)
(1.34587e-07 2.11562e-11 0)
(1.35241e-07 1.70685e-11 0)
(1.35839e-07 2.09701e-11 0)
(1.3636e-07 1.5704e-11 0)
(1.36853e-07 1.59765e-11 0)
(1.373e-07 1.23828e-11 0)
(1.37721e-07 6.79066e-12 0)
(1.38015e-07 6.50925e-12 0)
(1.38363e-07 9.93388e-13 0)
(1.3865e-07 1.32343e-11 0)
(1.38903e-07 3.4189e-12 0)
(1.39141e-07 3.51232e-12 0)
(1.39285e-07 5.17814e-12 0)
(1.39465e-07 2.50393e-12 0)
(1.39605e-07 -1.18334e-11 0)
(1.39758e-07 -1.23805e-11 0)
(1.39854e-07 -1.43679e-11 0)
(1.39917e-07 -9.82968e-12 0)
(1.39976e-07 -3.60995e-12 0)
(1.40016e-07 -1.03768e-11 0)
(1.40084e-07 -6.76371e-12 0)
(1.4006e-07 -1.00437e-11 0)
(1.40106e-07 -8.85413e-12 0)
(1.40116e-07 -5.58273e-13 0)
(1.4005e-07 5.9624e-12 0)
(1.40032e-07 6.13784e-12 0)
(1.39987e-07 4.09655e-12 0)
(1.39957e-07 1.05468e-11 0)
(1.399e-07 7.77054e-12 0)
(1.39864e-07 5.37106e-12 0)
(1.39819e-07 -1.22394e-12 0)
(1.39698e-07 6.15224e-12 0)
(1.39644e-07 3.15341e-12 0)
(1.3958e-07 1.22246e-11 0)
(1.39485e-07 -4.24793e-14 0)
(1.39426e-07 -6.45418e-12 0)
(1.39344e-07 -1.45702e-11 0)
(1.39226e-07 -2.38426e-11 0)
(1.39159e-07 -2.83025e-11 0)
(1.39067e-07 -1.89072e-11 0)
(1.3899e-07 -1.69839e-11 0)
(1.38894e-07 -1.64841e-11 0)
(1.38801e-07 -1.20383e-11 0)
(1.38709e-07 1.27105e-12 0)
(1.38607e-07 1.67181e-11 0)
(1.3852e-07 1.72869e-11 0)
(1.3843e-07 1.51263e-11 0)
(1.38325e-07 2.06489e-11 0)
(1.38231e-07 1.55474e-11 0)
(1.3813e-07 1.45043e-11 0)
(1.38052e-07 1.72037e-12 0)
(1.37964e-07 -1.53074e-11 0)
(1.37868e-07 -1.98349e-11 0)
(1.37782e-07 -2.91001e-11 0)
(1.37704e-07 -3.42924e-11 0)
(1.37614e-07 -3.07994e-11 0)
(1.37525e-07 -3.64485e-11 0)
(1.37478e-07 -2.38301e-11 0)
(1.37344e-07 -6.63489e-13 0)
(1.37307e-07 1.06907e-11 0)
(1.37201e-07 2.03445e-11 0)
(1.37132e-07 4.2176e-12 0)
(1.37074e-07 1.24543e-11 0)
(1.37009e-07 -5.09054e-12 0)
(1.36953e-07 -1.35517e-11 0)
(1.36871e-07 -2.26269e-11 0)
(1.3683e-07 -2.86006e-11 0)
(1.36793e-07 -1.35249e-11 0)
(1.36749e-07 -8.65161e-12 0)
(1.36747e-07 -1.24499e-11 0)
(1.3668e-07 -1.09906e-11 0)
(1.36611e-07 -1.35451e-11 0)
(1.36597e-07 -2.46227e-11 0)
(1.36578e-07 -3.55092e-11 0)
(1.50363e-11 4.71399e-10 0)
(1.00993e-09 1.09237e-09 0)
(2.81586e-09 1.52311e-09 0)
(5.29318e-09 1.80516e-09 0)
(8.40114e-09 1.98421e-09 0)
(1.19982e-08 2.07823e-09 0)
(1.60998e-08 2.10388e-09 0)
(2.05313e-08 2.08071e-09 0)
(2.53192e-08 2.01612e-09 0)
(3.03244e-08 1.91742e-09 0)
(3.55221e-08 1.78472e-09 0)
(4.08547e-08 1.63033e-09 0)
(4.62897e-08 1.46753e-09 0)
(5.17164e-08 1.30387e-09 0)
(5.71372e-08 1.14036e-09 0)
(6.24933e-08 9.93567e-10 0)
(6.78119e-08 8.55724e-10 0)
(7.29542e-08 7.19971e-10 0)
(7.79406e-08 6.01612e-10 0)
(8.28178e-08 4.9009e-10 0)
(8.74518e-08 4.007e-10 0)
(9.19392e-08 3.17295e-10 0)
(9.62431e-08 2.51615e-10 0)
(1.00281e-07 1.952e-10 0)
(1.04121e-07 1.63634e-10 0)
(1.07779e-07 1.41404e-10 0)
(1.11185e-07 1.23272e-10 0)
(1.14489e-07 1.05897e-10 0)
(1.17492e-07 8.4583e-11 0)
(1.20325e-07 7.39468e-11 0)
(1.23e-07 7.03708e-11 0)
(1.25477e-07 6.52801e-11 0)
(1.2779e-07 5.34843e-11 0)
(1.29941e-07 4.37871e-11 0)
(1.31931e-07 4.27378e-11 0)
(1.33781e-07 4.47902e-11 0)
(1.3549e-07 4.94492e-11 0)
(1.37069e-07 4.72415e-11 0)
(1.38544e-07 4.97948e-11 0)
(1.39907e-07 5.28403e-11 0)
(1.41132e-07 4.69047e-11 0)
(1.42311e-07 4.38186e-11 0)
(1.43361e-07 2.20618e-11 0)
(1.44319e-07 2.53263e-11 0)
(1.45218e-07 1.69873e-11 0)
(1.4602e-07 9.42136e-12 0)
(1.4677e-07 2.25851e-12 0)
(1.4745e-07 -1.10072e-12 0)
(1.4808e-07 -1.56282e-12 0)
(1.48642e-07 8.75457e-12 0)
(1.49166e-07 1.34052e-11 0)
(1.4962e-07 -1.75286e-12 0)
(1.50038e-07 1.03288e-11 0)
(1.50411e-07 1.18847e-12 0)
(1.50753e-07 -8.24067e-12 0)
(1.51049e-07 -8.50249e-14 0)
(1.51303e-07 6.98324e-12 0)
(1.5155e-07 8.78848e-12 0)
(1.51749e-07 6.51031e-12 0)
(1.51923e-07 1.72504e-12 0)
(1.52076e-07 -6.11555e-12 0)
(1.52203e-07 -1.48621e-11 0)
(1.52292e-07 -1.06702e-11 0)
(1.52365e-07 -7.73222e-12 0)
(1.52491e-07 -4.68305e-13 0)
(1.52514e-07 -7.67583e-12 0)
(1.52549e-07 -8.53545e-12 0)
(1.52554e-07 -9.08962e-12 0)
(1.52573e-07 -6.35933e-12 0)
(1.52556e-07 -1.27127e-12 0)
(1.52533e-07 9.87831e-12 0)
(1.52493e-07 2.00157e-11 0)
(1.52465e-07 2.23505e-11 0)
(1.52445e-07 1.38598e-11 0)
(1.52362e-07 4.72131e-12 0)
(1.52306e-07 -1.31075e-12 0)
(1.52299e-07 6.70915e-12 0)
(1.52165e-07 -1.19924e-12 0)
(1.52105e-07 -1.01558e-12 0)
(1.5205e-07 -8.79096e-14 0)
(1.51929e-07 -4.05587e-12 0)