/*--------------------------------*- C++ -*----------------------------------*\
  =========                 |
  \\      /  F ield         | OpenFOAM: The Open Source CFD Toolbox
   \\    /   O peration     | Website:  https://openfoam.org
    \\  /    A nd           | Version:  7
     \\/     M anipulation  |
\*---------------------------------------------------------------------------*/
FoamFile
{
    version     2.0;
    format      ascii;
    class       volScalarField;
    location    "0.22";
    object      p;
}
// * * * * * * * * * * * * * * * * * * * * * * * * * * * * * * * * * * * * * //

dimensions      [1 -1 -2 0 0 0 0];

internalField   nonuniform List<scalar> 
4950
(
99410.7
99398.6
99405.1
99398.8
99406
99402.5
99409.9
99408.1
99415.2
99414.3
99420.5
99419.8
99424.5
99423.4
99426.4
99424.5
99425.7
99422.8
99422.5
99418.1
99396.6
99387.1
99393.3
99387.1
99394.3
99390.7
99398.1
99396.3
99403.3
99402.5
99408.6
99407.9
99412.6
99411.5
99414.5
99412.6
99413.7
99411
99409.9
99405.9
99406.1
99397.2
99403.3
99397
99404.1
99400.5
99407.9
99406.1
99413.2
99412.3
99418.4
99417.7
99422.5
99421.3
99424.4
99422.5
99423.8
99420.8
99420.9
99416.6
99395.2
99387.3
99393.3
99387.2
99394.3
99390.7
99398
99396.2
99403.2
99402.3
99408.4
99407.7
99412.4
99411.3
99414.3
99412.5
99413.5
99410.8
99409.4
99405.7
99405.3
99397.4
99403.3
99397.1
99404.1
99400.5
99407.9
99406.1
99413.1
99412.3
99418.4
99417.7
99422.4
99421.3
99424.4
99422.4
99423.8
99420.8
99421
99416.6
99395.2
99387.3
99393.3
99387.2
99394.3
99390.7
99398
99396.2
99403.2
99402.3
99408.4
99407.7
99412.4
99411.3
99414.3
99412.5
99413.5
99410.8
99409.4
99405.7
99406.1
99397.2
99403.3
99397
99404.1
99400.5
99407.9
99406.1
99413.2
99412.3
99418.4
99417.7
99422.5
99421.3
99424.4
99422.5
99423.8
99420.8
99420.9
99416.6
99396.6
99387.1
99393.3
99387.1
99394.3
99390.7
99398.1
99396.3
99403.3
99402.5
99408.6
99407.9
99412.6
99411.5
99414.5
99412.6
99413.7
99411
99409.9
99405.9
99410.7
99398.6
99405.1
99398.8
99406
99402.5
99409.9
99408.1
99415.2
99414.3
99420.5
99419.8
99424.5
99423.4
99426.4
99424.5
99425.7
99422.8
99422.5
99418.1
99378
99380.6
99376.5
99380.2
99378.8
99383.5
99384
99389
99390.6
99395.2
99396.9
99400.7
99401.9
99404.5
99404.8
99405.9
99404.9
99404.6
99402
99400.9
99386.6
99390.5
99386.6
99390.4
99389
99393.7
99394.2
99399.2
99400.8
99405.4
99407.1
99411
99412.2
99414.8
99415
99416.1
99415.3
99414.9
99412.9
99412
99377.6
99380.6
99376.9
99380.6
99379.2
99383.8
99384.3
99389.2
99390.7
99395.4
99397
99400.9
99402.1
99404.7
99404.9
99406.1
99405
99404.8
99401.8
99400.9
99386.2
99390.2
99386.5
99390.5
99389.1
99393.8
99394.3
99399.2
99400.7
99405.4
99407.1
99410.9
99412.1
99414.7
99415
99416.1
99415.3
99414.9
99413.3
99411.9
99377.4
99380.6
99376.9
99380.7
99379.3
99383.9
99384.4
99389.3
99390.8
99395.4
99397.1
99400.9
99402.1
99404.7
99404.9
99406.1
99405
99404.8
99401.7
99400.7
99386.2
99390.2
99386.5
99390.5
99389.1
99393.8
99394.3
99399.2
99400.7
99405.4
99407.1
99410.9
99412.1
99414.7
99415
99416.1
99415.3
99414.9
99413.3
99411.9
99377.6
99380.6
99376.9
99380.6
99379.2
99383.8
99384.3
99389.2
99390.7
99395.4
99397
99400.9
99402.1
99404.7
99404.9
99406.1
99405
99404.8
99401.8
99400.9
99386.6
99390.5
99386.6
99390.4
99389
99393.7
99394.2
99399.2
99400.8
99405.4
99407.1
99411
99412.2
99414.8
99415
99416.1
99415.3
99414.9
99412.9
99412
99378
99380.6
99376.5
99380.2
99378.8
99383.5
99384
99389
99390.6
99395.2
99396.9
99400.7
99401.9
99404.5
99404.8
99405.9
99404.9
99404.6
99402
99400.9
99367.8
99367.7
99368.4
99369.8
99371.5
99374.2
99376.7
99380.4
99383.3
99387.1
99389.7
99393.1
99394.8
99397.2
99397.8
99399
99398.1
99397.9
99395.5
99394.3
99367.5
99367.6
99368.4
99369.8
99371.5
99374.2
99376.8
99380.4
99383.3
99387.1
99389.7
99393.1
99394.8
99397.2
99397.8
99399
99398.1
99398
99395.6
99394.5
99367.5
99367.6
99368.4
99369.8
99371.5
99374.2
99376.8
99380.4
99383.3
99387
99389.6
99393
99394.8
99397.2
99397.7
99398.9
99398
99397.9
99395.5
99394.1
99367.4
99367.6
99368.4
99369.8
99371.5
99374.3
99376.8
99380.4
99383.3
99387.1
99389.7
99393.1
99394.8
99397.3
99397.8
99399
99398.1
99398
99395.6
99394.2
99367.4
99367.5
99368.3
99369.8
99371.5
99374.2
99376.8
99380.4
99383.3
99387
99389.6
99393
99394.8
99397.2
99397.7
99398.9
99398
99397.9
99395.4
99394
99367.4
99367.6
99368.4
99369.8
99371.5
99374.3
99376.8
99380.4
99383.3
99387.1
99389.7
99393.1
99394.8
99397.3
99397.8
99399
99398.1
99398
99395.6
99394.2
99367.5
99367.6
99368.4
99369.8
99371.5
99374.2
99376.8
99380.4
99383.3
99387
99389.6
99393
99394.8
99397.2
99397.7
99398.9
99398
99397.9
99395.5
99394.1
99367.5
99367.6
99368.4
99369.8
99371.5
99374.2
99376.8
99380.4
99383.3
99387.1
99389.7
99393.1
99394.8
99397.2
99397.8
99399
99398.1
99397.9
99395.6
99394.5
99367.8
99367.7
99368.4
99369.8
99371.5
99374.2
99376.7
99380.4
99383.3
99387.1
99389.7
99393.1
99394.8
99397.2
99397.8
99399
99398.1
99397.9
99395.6
99394.3
99378
99380.6
99376.5
99380.2
99378.8
99383.5
99384
99389
99390.6
99395.2
99396.9
99400.7
99401.9
99404.5
99404.8
99405.9
99404.9
99404.6
99402
99400.9
99386.6
99390.5
99386.6
99390.4
99389
99393.7
99394.2
99399.2
99400.8
99405.4
99407.1
99411
99412.2
99414.8
99415
99416.1
99415.3
99414.9
99412.9
99412
99377.6
99380.6
99376.9
99380.6
99379.2
99383.8
99384.3
99389.2
99390.7
99395.4
99397
99400.9
99402.1
99404.7
99404.9
99406.1
99405
99404.8
99401.8
99400.9
99386.2
99390.2
99386.5
99390.5
99389.1
99393.8
99394.3
99399.2
99400.7
99405.4
99407.1
99410.9
99412.1
99414.7
99415
99416.1
99415.3
99414.9
99413.3
99411.9
99377.4
99380.6
99376.9
99380.7
99379.3
99383.9
99384.4
99389.3
99390.8
99395.4
99397.1
99400.9
99402.1
99404.7
99404.9
99406.1
99405
99404.8
99401.7
99400.7
99386.2
99390.2
99386.5
99390.5
99389.1
99393.8
99394.3
99399.2
99400.7
99405.4
99407.1
99410.9
99412.1
99414.7
99415
99416.1
99415.3
99414.9
99413.3
99411.9
99377.6
99380.6
99376.9
99380.6
99379.2
99383.8
99384.3
99389.2
99390.7
99395.4
99397
99400.9
99402.1
99404.7
99404.9
99406.1
99405
99404.8
99401.8
99400.9
99386.6
99390.5
99386.6
99390.4
99389
99393.7
99394.2
99399.2
99400.8
99405.4
99407.1
99411
99412.2
99414.8
99415
99416.1
99415.3
99414.9
99412.9
99412
99378
99380.6
99376.5
99380.2
99378.8
99383.5
99384
99389
99390.6
99395.2
99396.9
99400.7
99401.9
99404.5
99404.8
99405.9
99404.9
99404.6
99402
99400.9
99410.7
99398.6
99405.1
99398.8
99406
99402.5
99409.9
99408.1
99415.2
99414.3
99420.5
99419.8
99424.5
99423.4
99426.4
99424.5
99425.7
99422.8
99422.5
99418.1
99396.6
99387.1
99393.3
99387.1
99394.3
99390.7
99398.1
99396.3
99403.3
99402.5
99408.6
99407.9
99412.6
99411.5
99414.5
99412.6
99413.7
99411
99409.9
99405.9
99406.1
99397.2
99403.3
99397
99404.1
99400.5
99407.9
99406.1
99413.2
99412.3
99418.4
99417.7
99422.5
99421.3
99424.4
99422.5
99423.8
99420.8
99420.9
99416.6
99395.2
99387.3
99393.3
99387.2
99394.3
99390.7
99398
99396.2
99403.2
99402.3
99408.4
99407.7
99412.4
99411.3
99414.3
99412.5
99413.5
99410.8
99409.4
99405.7
99405.3
99397.4
99403.3
99397.1
99404.1
99400.5
99407.9
99406.1
99413.1
99412.3
99418.4
99417.7
99422.4
99421.3
99424.4
99422.4
99423.8
99420.8
99421
99416.6
99395.2
99387.3
99393.3
99387.2
99394.3
99390.7
99398
99396.2
99403.2
99402.3
99408.4
99407.7
99412.4
99411.3
99414.3
99412.5
99413.5
99410.8
99409.4
99405.7
99406.1
99397.2
99403.3
99397
99404.1
99400.5
99407.9
99406.1
99413.2
99412.3
99418.4
99417.7
99422.5
99421.3
99424.4
99422.5
99423.8
99420.8
99420.9
99416.6
99396.6
99387.1
99393.3
99387.1
99394.3
99390.7
99398.1
99396.3
99403.3
99402.5
99408.6
99407.9
99412.6
99411.5
99414.5
99412.6
99413.7
99411
99409.9
99405.9
99410.7
99398.6
99405.1
99398.8
99406
99402.5
99409.9
99408.1
99415.2
99414.3
99420.5
99419.8
99424.5
99423.4
99426.4
99424.5
99425.7
99422.8
99422.5
99418.1
99428.8
99400.4
99391.7
99377.2
99383
99385.1
99398.8
99398.5
99403.3
99391
99385.1
99369.1
99361.8
99351
99351.1
99350.5
99363
99373
99391.3
99398.1
99401.4
99388.1
99371.3
99347.7
99334.3
99326.9
99336.4
99351
99375.6
99397.3
99422.4
99439.5
99453.3
99453.6
99445.6
99425
99402.5
99377.3
99362
99353.8
99358.9
99372.6
99400.5
99439
99493.7
99556.6
99627.6
99700
99775.2
99848.1
99921.7
99989.1
100052
100106
100154
100192
100226
100252
100273
100287
100295
100298
100301
100301
100297
100290
100282
100273
100267
100258
100245
100234
100225
100215
100205
100193
100180
100169
100161
100150
100137
100126
100115
100105
100097
100084
100070
100061
100052
100041
99397.5
99368.3
99359
99344.4
99350.2
99352.3
99366
99365.6
99370.4
99358.2
99352.3
99336.3
99329
99318.2
99318.3
99317.7
99330.2
99340.2
99358.4
99365.3
99368.6
99355.3
99338.6
99314.9
99301.5
99294.1
99303.6
99318.3
99342.8
99364.5
99389.6
99406.7
99420.5
99420.8
99412.8
99392.2
99369.7
99344.5
99329.3
99321
99326.1
99339.8
99367.7
99406.1
99460.8
99523.7
99594.6
99667
99742.1
99815
99888.6
99956
100019
100073
100121
100159
100192
100219
100239
100253
100262
100265
100268
100268
100264
100257
100249
100240
100233
100224
100212
100201
100191
100181
100172
100160
100147
100136
100128
100117
100104
100093
100082
100072
100063
100051
100036
100027
100019
100008
99422.7
99394.4
99386
99371.5
99377.4
99379.4
99393.2
99392.8
99397.6
99385.4
99379.5
99363.5
99356.2
99345.5
99345.5
99344.9
99357.4
99367.4
99385.7
99392.6
99395.9
99382.5
99365.8
99342.2
99328.8
99321.4
99330.9
99345.6
99370.1
99391.8
99416.9
99434
99447.8
99448.2
99440.2
99419.6
99397.1
99371.9
99356.7
99348.4
99353.5
99367.2
99395.1
99433.6
99488.3
99551.3
99622.2
99694.6
99769.8
99842.6
99916.3
99983.7
100046
100101
100149
100187
100220
100246
100267
100281
100290
100293
100296
100296
100292
100285
100277
100268
100261
100252
100240
100228
100219
100209
100199
100188
100175
100164
100156
100145
100132
100120
100110
100100
100091
100078
100064
100055
100047
100035
99397.3
99368
99358.6
99344
99349.8
99351.9
99365.6
99365.3
99370.1
99357.8
99352
99335.9
99328.7
99317.9
99318
99317.3
99329.8
99339.9
99358.1
99365
99368.3
99355
99338.3
99314.6
99301.2
99293.9
99303.4
99318
99342.5
99364.2
99389.3
99406.4
99420.3
99420.6
99412.6
99392
99369.5
99344.3
99329.1
99320.8
99325.9
99339.6
99367.5
99405.9
99460.6
99523.6
99594.5
99666.8
99742
99814.8
99888.5
99955.9
100019
100073
100121
100159
100192
100219
100239
100253
100262
100265
100268
100268
100264
100257
100249
100240
100233
100224
100212
100201
100191
100181
100172
100160
100147
100136
100128
100117
100104
100093
100082
100072
100063
100051
100036
100027
100019
100008
99422.2
99394.1
99385.7
99371.3
99377.1
99379.2
99392.9
99392.6
99397.4
99385.1
99379.3
99363.2
99356
99345.2
99345.3
99344.6
99357.1
99367.2
99385.4
99392.3
99395.6
99382.3
99365.6
99342
99328.6
99321.2
99330.7
99345.3
99369.9
99391.6
99416.7
99433.8
99447.6
99448
99440
99419.4
99396.9
99371.7
99356.5
99348.2
99353.3
99367
99394.9
99433.4
99488.1
99551.1
99622
99694.4
99769.6
99842.4
99916.1
99983.5
100046
100101
100148
100186
100220
100246
100267
100281
100289
100293
100296
100295
100291
100284
100276
100268
100261
100252
100240
100228
100219
100209
100199
100188
100174
100164
100156
100144
100131
100120
100110
100100
100091
100078
100064
100055
100046
100035
99397.3
99368
99358.6
99344
99349.9
99351.9
99365.7
99365.3
99370.1
99357.8
99352
99336
99328.7
99317.9
99318
99317.3
99329.9
99339.9
99358.2
99365
99368.3
99355
99338.3
99314.7
99301.3
99293.9
99303.4
99318
99342.5
99364.2
99389.4
99406.5
99420.3
99420.6
99412.6
99392
99369.6
99344.3
99329.1
99320.8
99326
99339.7
99367.5
99406
99460.6
99523.6
99594.5
99666.8
99742
99814.8
99888.5
99955.9
100019
100073
100121
100159
100192
100219
100239
100253
100262
100265
100268
100268
100264
100257
100249
100240
100233
100224
100212
100201
100191
100181
100172
100160
100147
100136
100128
100117
100104
100093
100082
100072
100063
100051
100036
100027
100019
100008
99422.7
99394.4
99386
99371.5
99377.4
99379.4
99393.2
99392.8
99397.6
99385.3
99379.5
99363.4
99356.2
99345.4
99345.5
99344.8
99357.4
99367.4
99385.7
99392.5
99395.8
99382.5
99365.8
99342.1
99328.7
99321.3
99330.9
99345.5
99370
99391.8
99416.9
99434
99447.8
99448.2
99440.2
99419.5
99397.1
99371.8
99356.6
99348.3
99353.5
99367.2
99395.1
99433.5
99488.2
99551.2
99622.2
99694.5
99769.7
99842.6
99916.3
99983.7
100046
100101
100149
100187
100220
100246
100267
100281
100290
100293
100296
100295
100292
100285
100277
100268
100261
100252
100240
100228
100219
100209
100199
100188
100174
100164
100156
100145
100132
100120
100110
100100
100091
100078
100064
100055
100047
100035
99397.6
99368.3
99359
99344.5
99350.3
99352.3
99366.1
99365.7
99370.5
99358.3
99352.4
99336.3
99329.1
99318.3
99318.4
99317.7
99330.2
99340.3
99358.5
99365.4
99368.7
99355.4
99338.6
99315
99301.6
99294.2
99303.7
99318.4
99342.9
99364.6
99389.7
99406.8
99420.6
99420.9
99412.9
99392.3
99369.8
99344.5
99329.3
99321
99326.2
99339.9
99367.7
99406.2
99460.8
99523.8
99594.7
99667
99742.2
99815.1
99888.7
99956.1
100019
100073
100121
100159
100193
100219
100239
100253
100262
100265
100268
100268
100264
100257
100249
100240
100233
100224
100212
100201
100191
100181
100172
100160
100147
100136
100128
100117
100104
100093
100082
100072
100063
100051
100036
100027
100019
100008
99428.8
99400.3
99391.6
99377.1
99382.9
99385
99398.7
99398.4
99403.2
99390.9
99385
99369
99361.7
99350.9
99351
99350.3
99362.9
99372.9
99391.2
99398
99401.3
99388
99371.2
99347.6
99334.2
99326.8
99336.3
99351
99375.5
99397.2
99422.3
99439.4
99453.2
99453.5
99445.5
99424.9
99402.4
99377.1
99361.9
99353.7
99358.8
99372.5
99400.4
99438.9
99493.6
99556.6
99627.6
99699.9
99775.1
99848
99921.7
99989.1
100052
100106
100154
100192
100226
100252
100273
100287
100295
100298
100301
100301
100297
100290
100282
100273
100267
100257
100245
100234
100225
100214
100205
100193
100180
100169
100161
100150
100137
100126
100115
100105
100097
100084
100069
100060
100052
100041
99381.1
99357.7
99347
99336.6
99341.5
99346.5
99359.8
99361.4
99366.1
99355.2
99349.2
99334.1
99326.8
99316.7
99316.8
99316.6
99329.2
99339.6
99358.1
99365.3
99368.7
99355.5
99338.8
99315.2
99301.7
99294.3
99303.8
99318.5
99343.1
99364.9
99390.2
99407.4
99421.3
99421.6
99413.6
99392.9
99370.2
99344.8
99329.4
99320.9
99325.8
99339.4
99367.2
99405.6
99460.3
99523.3
99594.4
99666.9
99742.3
99815.4
99889.3
99956.9
100020
100075
100122
100161
100194
100221
100242
100256
100264
100267
100271
100270
100266
100259
100251
100243
100236
100227
100215
100203
100194
100184
100174
100163
100149
100139
100131
100119
100106
100095
100084
100075
100066
100053
100039
100030
100021
100009
99409.8
99386.5
99376.2
99365.9
99370.9
99375.8
99389.1
99390.7
99395.4
99384.5
99378.5
99363.4
99356.1
99346
99346.1
99345.9
99358.5
99368.9
99387.4
99394.6
99398
99384.9
99368.1
99344.5
99331
99323.6
99333.1
99347.9
99372.5
99394.3
99419.5
99436.7
99450.6
99451
99443
99422.3
99399.7
99374.2
99358.8
99350.3
99355.3
99368.9
99396.7
99435.1
99489.8
99552.9
99624
99696.6
99772
99845.1
99919
99986.7
100050
100104
100152
100191
100224
100251
100272
100286
100294
100297
100301
100300
100296
100289
100281
100273
100266
100257
100245
100233
100224
100214
100204
100193
100179
100169
100161
100149
100136
100125
100114
100105
100096
100083
100068
100060
100050
100039
99382.8
99359
99348
99337.6
99342.5
99347.4
99360.7
99362.4
99367
99356.1
99350.2
99335.1
99327.7
99317.7
99317.7
99317.6
99330.1
99340.6
99359
99366.2
99369.6
99356.5
99339.8
99316.1
99302.7
99295.3
99304.8
99319.5
99344.1
99365.9
99391.1
99408.4
99422.3
99422.6
99414.6
99393.9
99371.3
99345.8
99330.4
99321.9
99326.9
99340.5
99368.3
99406.6
99461.4
99524.4
99595.5
99668
99743.4
99816.4
99890.3
99958
100021
100076
100123
100162
100196
100222
100243
100257
100265
100269
100272
100271
100268
100261
100253
100244
100237
100228
100216
100205
100195
100185
100175
100164
100151
100140
100132
100121
100107
100096
100086
100076
100067
100054
100040
100031
100022
100010
99409.1
99386.1
99375.8
99365.5
99370.5
99375.4
99388.8
99390.4
99395
99384.1
99378.2
99363.1
99355.8
99345.7
99345.7
99345.6
99358.2
99368.6
99387
99394.3
99397.7
99384.5
99367.8
99344.2
99330.7
99323.3
99332.8
99347.6
99372.2
99394
99419.2
99436.4
99450.3
99450.7
99442.7
99422
99399.4
99373.9
99358.5
99350
99355
99368.6
99396.4
99434.8
99489.5
99552.6
99623.7
99696.3
99771.7
99844.8
99918.7
99986.4
100049
100104
100152
100190
100224
100250
100271
100285
100294
100297
100300
100300
100296
100289
100281
100272
100266
100257
100245
100233
100224
100214
100204
100192
100179
100169
100160
100149
100136
100125
100114
100104
100095
100083
100068
100059
100050
100039
99383.2
99359.4
99348.3
99337.8
99342.8
99347.7
99361
99362.6
99367.3
99356.4
99350.4
99335.3
99328
99317.9
99318
99317.8
99330.4
99340.9
99359.3
99366.5
99369.9
99356.8
99340
99316.4
99303
99295.6
99305.1
99319.8
99344.4
99366.2
99391.4
99408.6
99422.5
99422.9
99414.9
99394.2
99371.6
99346.1
99330.7
99322.2
99327.2
99340.8
99368.5
99406.9
99461.6
99524.7
99595.8
99668.3
99743.6
99816.7
99890.6
99958.3
100021
100076
100124
100162
100196
100222
100243
100257
100266
100269
100272
100272
100268
100261
100253
100244
100238
100229
100216
100205
100196
100186
100176
100164
100151
100140
100132
100121
100108
100097
100086
100076
100067
100055
100040
100031
100022
100011
99409.1
99386
99375.8
99365.5
99370.5
99375.4
99388.7
99390.3
99395
99384.1
99378.1
99363.1
99355.7
99345.6
99345.7
99345.5
99358.1
99368.6
99387
99394.2
99397.6
99384.5
99367.8
99344.1
99330.7
99323.3
99332.8
99347.5
99372.1
99393.9
99419.2
99436.4
99450.3
99450.7
99442.7
99421.9
99399.3
99373.9
99358.5
99350
99355
99368.5
99396.3
99434.8
99489.5
99552.6
99623.7
99696.2
99771.6
99844.7
99918.7
99986.3
100049
100104
100152
100190
100224
100250
100271
100285
100294
100297
100300
100300
100296
100289
100281
100272
100266
100257
100245
100233
100224
100214
100204
100192
100179
100169
100160
100149
100136
100125
100114
100104
100095
100083
100068
100059
100050
100039
99382.8
99359
99348
99337.6
99342.5
99347.4
99360.8
99362.4
99367
99356.1
99350.2
99335.1
99327.8
99317.7
99317.7
99317.6
99330.2
99340.6
99359
99366.2
99369.7
99356.5
99339.8
99316.2
99302.7
99295.3
99304.8
99319.5
99344.1
99365.9
99391.2
99408.4
99422.3
99422.6
99414.6
99393.9
99371.3
99345.8
99330.4
99321.9
99326.9
99340.5
99368.3
99406.7
99461.4
99524.4
99595.5
99668
99743.4
99816.4
99890.4
99958
100021
100076
100123
100162
100196
100222
100243
100257
100265
100269
100272
100271
100268
100261
100253
100244
100237
100228
100216
100205
100195
100185
100176
100164
100151
100140
100132
100121
100107
100096
100086
100076
100067
100054
100040
100031
100022
100010
99409.8
99386.4
99376.1
99365.8
99370.7
99375.7
99389
99390.6
99395.3
99384.4
99378.4
99363.3
99356
99345.9
99346
99345.8
99358.4
99368.8
99387.3
99394.5
99397.9
99384.8
99368
99344.4
99330.9
99323.5
99333
99347.8
99372.4
99394.2
99419.4
99436.6
99450.5
99450.9
99442.9
99422.2
99399.5
99374.1
99358.7
99350.2
99355.2
99368.7
99396.6
99435
99489.7
99552.8
99623.9
99696.4
99771.9
99845
99918.9
99986.6
100050
100104
100152
100190
100224
100251
100271
100286
100294
100297
100300
100300
100296
100289
100281
100273
100266
100257
100245
100233
100224
100214
100204
100193
100179
100169
100161
100149
100136
100125
100114
100105
100096
100083
100068
100059
100050
100039
99381.1
99357.7
99347
99336.6
99341.6
99346.5
99359.8
99361.5
99366.1
99355.2
99349.3
99334.2
99326.8
99316.7
99316.8
99316.6
99329.2
99339.7
99358.1
99365.3
99368.7
99355.6
99338.8
99315.2
99301.7
99294.3
99303.9
99318.6
99343.2
99365
99390.2
99407.4
99421.3
99421.7
99413.6
99392.9
99370.3
99344.8
99329.4
99320.9
99325.9
99339.5
99367.3
99405.7
99460.4
99523.4
99594.5
99667
99742.4
99815.4
99889.3
99956.9
100020
100075
100122
100161
100194
100221
100242
100256
100264
100267
100271
100270
100266
100259
100251
100243
100236
100227
100215
100203
100194
100184
100174
100163
100149
100139
100131
100119
100106
100095
100084
100075
100066
100053
100039
100030
100021
100009
99386.1
99364.1
99352.6
99343.6
99348
99354.2
99367.2
99369.9
99374.3
99364.2
99358.2
99343.7
99336.3
99326.6
99326.7
99326.8
99339.5
99350.2
99368.8
99376.2
99379.7
99366.7
99350
99326.4
99312.9
99305.5
99315
99329.8
99354.4
99376.3
99401.7
99418.9
99432.9
99433.3
99425.3
99404.5
99381.8
99356.2
99340.7
99332.1
99337
99350.5
99378.3
99416.7
99471.4
99534.5
99605.8
99678.4
99753.9
99827.1
99901.2
99969
100032
100087
100135
100173
100207
100234
100255
100269
100278
100281
100284
100284
100280
100273
100265
100256
100250
100241
100228
100217
100208
100198
100188
100176
100163
100152
100144
100133
100120
100109
100098
100088
100079
100066
100052
100043
100034
100023
99386.5
99364.3
99352.8
99343.8
99348.2
99354.4
99367.4
99370.1
99374.5
99364.5
99358.4
99343.9
99336.5
99326.9
99326.9
99327.1
99339.7
99350.5
99369
99376.4
99379.9
99366.9
99350.2
99326.6
99313.1
99305.7
99315.3
99330
99354.7
99376.6
99401.9
99419.2
99433.1
99433.6
99425.5
99404.8
99382.1
99356.5
99341
99332.4
99337.3
99350.8
99378.5
99416.9
99471.7
99534.8
99606
99678.6
99754.2
99827.4
99901.5
99969.3
100032
100087
100135
100174
100208
100234
100255
100269
100278
100281
100284
100284
100280
100273
100265
100257
100250
100241
100229
100217
100208
100198
100188
100176
100163
100153
100144
100133
100120
100109
100098
100088
100080
100067
100052
100043
100035
100023
99385.8
99364
99352.4
99343.4
99347.8
99354
99367
99369.7
99374.1
99364
99358
99343.5
99336.1
99326.4
99326.5
99326.7
99339.3
99350
99368.6
99376
99379.5
99366.5
99349.8
99326.2
99312.7
99305.3
99314.8
99329.6
99354.3
99376.1
99401.5
99418.8
99432.7
99433.1
99425.1
99404.3
99381.6
99356.1
99340.5
99332
99336.9
99350.3
99378.1
99416.5
99471.2
99534.4
99605.6
99678.2
99753.7
99826.9
99901
99968.9
100032
100087
100135
100173
100207
100234
100255
100269
100277
100281
100284
100284
100280
100273
100265
100256
100249
100240
100228
100217
100207
100197
100188
100176
100163
100152
100144
100133
100120
100108
100098
100088
100079
100066
100052
100043
100034
100023
99386.5
99364.5
99352.9
99343.9
99348.3
99354.5
99367.5
99370.2
99374.6
99364.5
99358.5
99344
99336.6
99327
99327
99327.2
99339.8
99350.5
99369.1
99376.5
99380
99367
99350.3
99326.7
99313.2
99305.8
99315.4
99330.1
99354.8
99376.7
99402
99419.3
99433.2
99433.7
99425.6
99404.9
99382.2
99356.6
99341.1
99332.5
99337.4
99350.9
99378.6
99417
99471.8
99534.9
99606.1
99678.7
99754.3
99827.5
99901.6
99969.4
100033
100087
100135
100174
100208
100234
100255
100269
100278
100281
100284
100284
100280
100273
100265
100257
100250
100241
100229
100217
100208
100198
100188
100177
100163
100153
100145
100133
100120
100109
100098
100089
100080
100067
100052
100043
100035
100023
99385.7
99364
99352.4
99343.4
99347.8
99353.9
99366.9
99369.6
99374.1
99364
99357.9
99343.4
99336
99326.4
99326.4
99326.6
99339.2
99350
99368.5
99376
99379.5
99366.5
99349.7
99326.1
99312.6
99305.2
99314.8
99329.5
99354.2
99376.1
99401.4
99418.7
99432.6
99433.1
99425
99404.3
99381.6
99356
99340.5
99331.9
99336.8
99350.3
99378
99416.4
99471.2
99534.3
99605.5
99678.1
99753.6
99826.9
99901
99968.8
100032
100087
100135
100173
100207
100234
100255
100269
100277
100280
100284
100283
100280
100273
100265
100256
100249
100240
100228
100217
100207
100197
100188
100176
100163
100152
100144
100133
100120
100108
100098
100088
100079
100066
100052
100043
100034
100023
99386.5
99364.5
99352.9
99343.9
99348.3
99354.5
99367.5
99370.2
99374.6
99364.5
99358.5
99344
99336.6
99326.9
99327
99327.2
99339.8
99350.5
99369.1
99376.5
99380
99367
99350.3
99326.7
99313.2
99305.8
99315.4
99330.1
99354.8
99376.7
99402
99419.3
99433.2
99433.6
99425.6
99404.8
99382.1
99356.6
99341.1
99332.5
99337.4
99350.9
99378.6
99417
99471.8
99534.9
99606.1
99678.7
99754.2
99827.5
99901.6
99969.4
100033
100087
100135
100174
100208
100234
100255
100269
100278
100281
100284
100284
100280
100273
100265
100257
100250
100241
100229
100217
100208
100198
100188
100177
100163
100153
100145
100133
100120
100109
100098
100089
100080
100067
100052
100043
100035
100023
99385.8
99364
99352.4
99343.4
99347.8
99354
99367
99369.7
99374.1
99364
99358
99343.5
99336.1
99326.4
99326.5
99326.6
99339.3
99350
99368.6
99376
99379.5
99366.5
99349.8
99326.2
99312.7
99305.3
99314.8
99329.6
99354.2
99376.1
99401.4
99418.7
99432.7
99433.1
99425.1
99404.3
99381.6
99356
99340.5
99331.9
99336.8
99350.3
99378.1
99416.5
99471.2
99534.3
99605.5
99678.2
99753.7
99826.9
99901
99968.8
100032
100087
100135
100173
100207
100234
100255
100269
100277
100281
100284
100284
100280
100273
100265
100256
100249
100240
100228
100217
100207
100197
100188
100176
100163
100152
100144
100133
100120
100108
100098
100088
100079
100066
100052
100043
100034
100023
99386.5
99364.3
99352.8
99343.8
99348.2
99354.4
99367.4
99370.1
99374.5
99364.4
99358.4
99343.9
99336.5
99326.8
99326.9
99327.1
99339.7
99350.4
99369
99376.4
99379.9
99366.9
99350.2
99326.6
99313.1
99305.7
99315.2
99330
99354.7
99376.6
99401.9
99419.2
99433.1
99433.6
99425.5
99404.7
99382
99356.5
99340.9
99332.4
99337.3
99350.7
99378.5
99416.9
99471.7
99534.8
99606
99678.6
99754.2
99827.4
99901.5
99969.3
100032
100087
100135
100174
100208
100234
100255
100269
100278
100281
100284
100284
100280
100273
100265
100256
100250
100241
100229
100217
100208
100198
100188
100176
100163
100153
100144
100133
100120
100109
100098
100088
100079
100067
100052
100043
100035
100023
99386.1
99364.1
99352.6
99343.6
99348
99354.2
99367.2
99369.9
99374.3
99364.2
99358.2
99343.6
99336.3
99326.6
99326.6
99326.8
99339.5
99350.2
99368.8
99376.2
99379.7
99366.7
99350
99326.4
99312.9
99305.5
99315
99329.8
99354.4
99376.3
99401.7
99418.9
99432.9
99433.3
99425.3
99404.5
99381.8
99356.2
99340.7
99332.1
99337
99350.5
99378.3
99416.7
99471.4
99534.5
99605.7
99678.4
99753.9
99827.1
99901.2
99969
100032
100087
100135
100173
100207
100234
100255
100269
100278
100281
100284
100284
100280
100273
100265
100256
100250
100241
100228
100217
100208
100198
100188
100176
100163
100152
100144
100133
100120
100109
100098
100088
100079
100066
100052
100043
100034
100023
99381.1
99357.7
99347
99336.6
99341.5
99346.5
99359.8
99361.4
99366.1
99355.2
99349.2
99334.1
99326.8
99316.7
99316.8
99316.6
99329.2
99339.6
99358.1
99365.3
99368.7
99355.5
99338.8
99315.2
99301.7
99294.3
99303.8
99318.5
99343.1
99364.9
99390.2
99407.4
99421.3
99421.6
99413.6
99392.9
99370.2
99344.8
99329.4
99320.9
99325.8
99339.4
99367.2
99405.6
99460.3
99523.3
99594.4
99666.9
99742.3
99815.4
99889.3
99956.9
100020
100075
100122
100161
100194
100221
100242
100256
100264
100267
100271
100270
100266
100259
100251
100243
100236
100227
100215
100203
100194
100184
100174
100163
100149
100139
100131
100119
100106
100095
100084
100075
100066
100053
100039
100030
100021
100009
99409.8
99386.5
99376.2
99365.9
99370.9
99375.8
99389.1
99390.7
99395.4
99384.5
99378.5
99363.4
99356.1
99346
99346.1
99345.9
99358.5
99368.9
99387.4
99394.6
99398
99384.9
99368.1
99344.5
99331
99323.6
99333.1
99347.9
99372.5
99394.3
99419.5
99436.7
99450.6
99451
99443
99422.3
99399.7
99374.2
99358.8
99350.3
99355.3
99368.9
99396.7
99435.1
99489.8
99552.9
99624
99696.6
99772
99845.1
99919
99986.7
100050
100104
100152
100191
100224
100251
100272
100286
100294
100297
100301
100300
100296
100289
100281
100273
100266
100257
100245
100233
100224
100214
100204
100193
100179
100169
100161
100149
100136
100125
100114
100105
100096
100083
100068
100060
100050
100039
99382.8
99359
99348
99337.6
99342.5
99347.4
99360.7
99362.4
99367
99356.1
99350.2
99335.1
99327.7
99317.7
99317.7
99317.6
99330.1
99340.6
99359
99366.2
99369.6
99356.5
99339.8
99316.1
99302.7
99295.3
99304.8
99319.5
99344.1
99365.9
99391.1
99408.4
99422.3
99422.6
99414.6
99393.9
99371.3
99345.8
99330.4
99321.9
99326.9
99340.5
99368.3
99406.6
99461.4
99524.4
99595.5
99668
99743.4
99816.4
99890.3
99958
100021
100076
100123
100162
100196
100222
100243
100257
100265
100269
100272
100271
100268
100261
100253
100244
100237
100228
100216
100205
100195
100185
100175
100164
100151
100140
100132
100121
100107
100096
100086
100076
100067
100054
100040
100031
100022
100010
99409.1
99386.1
99375.8
99365.5
99370.5
99375.4
99388.8
99390.4
99395
99384.1
99378.2
99363.1
99355.8
99345.7
99345.7
99345.6
99358.2
99368.6
99387
99394.3
99397.7
99384.5
99367.8
99344.2
99330.7
99323.3
99332.8
99347.6
99372.2
99394
99419.2
99436.4
99450.3
99450.7
99442.7
99422
99399.4
99373.9
99358.5
99350
99355
99368.6
99396.4
99434.8
99489.5
99552.6
99623.7
99696.3
99771.7
99844.8
99918.7
99986.4
100049
100104
100152
100190
100224
100250
100271
100285
100294
100297
100300
100300
100296
100289
100281
100272
100266
100257
100245
100233
100224
100214
100204
100192
100179
100169
100160
100149
100136
100125
100114
100104
100095
100083
100068
100059
100050
100039
99383.2
99359.4
99348.3
99337.8
99342.8
99347.7
99361
99362.6
99367.3
99356.4
99350.4
99335.3
99328
99317.9
99318
99317.8
99330.4
99340.9
99359.3
99366.5
99369.9
99356.8
99340
99316.4
99303
99295.6
99305.1
99319.8
99344.4
99366.2
99391.4
99408.6
99422.5
99422.9
99414.9
99394.2
99371.6
99346.1
99330.7
99322.2
99327.2
99340.8
99368.5
99406.9
99461.6
99524.7
99595.8
99668.3
99743.6
99816.7
99890.6
99958.3
100021
100076
100124
100162
100196
100222
100243
100257
100266
100269
100272
100272
100268
100261
100253
100244
100238
100229
100216
100205
100196
100186
100176
100164
100151
100140
100132
100121
100108
100097
100086
100076
100067
100055
100040
100031
100022
100011
99409.1
99386
99375.8
99365.5
99370.5
99375.4
99388.7
99390.3
99395
99384.1
99378.1
99363.1
99355.7
99345.6
99345.7
99345.5
99358.1
99368.6
99387
99394.2
99397.6
99384.5
99367.8
99344.1
99330.7
99323.3
99332.8
99347.5
99372.1
99393.9
99419.2
99436.4
99450.3
99450.7
99442.7
99421.9
99399.3
99373.9
99358.5
99350
99355
99368.5
99396.3
99434.8
99489.5
99552.6
99623.7
99696.2
99771.6
99844.7
99918.7
99986.3
100049
100104
100152
100190
100224
100250
100271
100285
100294
100297
100300
100300
100296
100289
100281
100272
100266
100257
100245
100233
100224
100214
100204
100192
100179
100169
100160
100149
100136
100125
100114
100104
100095
100083
100068
100059
100050
100039
99382.8
99359
99348
99337.6
99342.5
99347.4
99360.8
99362.4
99367
99356.1
99350.2
99335.1
99327.8
99317.7
99317.7
99317.6
99330.2
99340.6
99359
99366.2
99369.7