/*--------------------------------*- C++ -*----------------------------------*\
  =========                 |
  \\      /  F ield         | OpenFOAM: The Open Source CFD Toolbox
   \\    /   O peration     | Website:  https://openfoam.org
    \\  /    A nd           | Version:  7
     \\/     M anipulation  |
\*---------------------------------------------------------------------------*/
FoamFile
{
    version     2.0;
    format      ascii;
    class       volSymmTensorField;
    location    "0.01";
    object      UPrime2Mean;
}
// * * * * * * * * * * * * * * * * * * * * * * * * * * * * * * * * * * * * * //

dimensions      [0 2 -2 0 0 0 0];

internalField   nonuniform List<symmTensor> 
27000
(
(0.134995 0.00369626 -0.0175235 0.0348432 -0.106846 1.11548)
(0.192879 0.134255 0.327354 0.328196 0.2984 0.990892)
(0.366175 0.200683 0.612078 0.774733 0.856893 2.28435)
(0.69644 0.353107 1.00915 1.31644 1.72661 4.03238)
(0.863059 0.420469 1.14917 1.80871 2.46354 5.26055)
(1.201 0.541131 1.43844 2.26401 3.2781 6.51216)
(1.41671 0.612832 1.62263 2.63141 4.02129 7.65316)
(1.73416 0.705808 1.98184 2.93409 4.77526 9.0766)
(1.99942 0.754775 2.30032 3.15603 5.42679 10.5573)
(2.30873 0.771967 2.62387 3.2896 5.90903 11.9016)
(2.57005 0.723417 2.78725 3.33666 6.15701 12.7819)
(2.8219 0.636854 2.83401 3.35132 6.25476 13.2128)
(3.02746 0.51093 2.75057 3.3391 6.24755 13.3227)
(3.22754 0.376167 2.61857 3.32527 6.20558 13.2752)
(3.42297 0.24335 2.46708 3.31843 6.16357 13.1736)
(3.63285 0.116734 2.32424 3.31507 6.12759 13.0721)
(3.85148 -0.00402284 2.19113 3.31619 6.10012 12.9822)
(4.08217 -0.121677 2.06648 3.31774 6.07584 12.9028)
(4.31954 -0.236612 1.94716 3.32195 6.0566 12.833)
(4.56405 -0.352056 1.83036 3.32058 6.03399 12.777)
(4.81403 -0.465529 1.71708 3.31632 6.00719 12.7163)
(5.07111 -0.575901 1.60654 3.31857 5.98826 12.6562)
(5.33261 -0.686653 1.49657 3.31758 5.96799 12.6073)
(5.60057 -0.796333 1.38885 3.31413 5.9453 12.5597)
(5.87398 -0.904431 1.28255 3.31137 5.92442 12.5141)
(6.15302 -1.01126 1.17784 3.30903 5.90496 12.4729)
(6.43756 -1.11644 1.07481 3.3096 5.89005 12.4369)
(6.72696 -1.22159 0.972184 3.3077 5.87373 12.4076)
(7.02148 -1.32525 0.871876 3.30436 5.85534 12.3763)
(7.32131 -1.42699 0.773574 3.30386 5.84053 12.3458)
(7.62574 -1.52809 0.676766 3.30249 5.826 12.322)
(7.93508 -1.62809 0.582037 3.29954 5.80961 12.2981)
(8.24939 -1.72664 0.489648 3.29711 5.79389 12.2746)
(8.56863 -1.8239 0.399324 3.29593 5.77994 12.2527)
(8.89238 -1.92043 0.310185 3.29417 5.7652 12.231)
(9.22054 -2.01587 0.222564 3.29282 5.75121 12.211)
(9.553 -2.11029 0.136822 3.29083 5.73696 12.1933)
(9.8895 -2.20371 0.0526517 3.28839 5.7219 12.1744)
(10.2305 -2.29586 -0.0296181 3.28758 5.70897 12.1568)
(10.5762 -2.3871 -0.109442 3.28577 5.69571 12.1439)
(0.115862 0.0366438 0.21388 0.0898518 0.185595 0.67938)
(0.172086 0.100104 0.245576 0.301089 -0.00255501 0.734447)
(0.483456 0.407323 0.336705 0.787601 -0.177993 1.36297)
(0.795272 0.54508 0.465394 1.22369 -0.279084 1.92713)
(1.11279 0.872448 0.40773 1.71458 -0.320609 2.25194)
(1.42802 1.01297 0.385871 2.08351 -0.288181 2.32253)
(1.74384 1.24087 0.246616 2.41888 -0.267159 2.2003)
(2.05518 1.33746 0.140745 2.64474 -0.289124 2.00198)
(2.38198 1.45793 0.00347427 2.78893 -0.395098 1.77616)
(2.71591 1.51631 -0.0934226 2.81015 -0.560406 1.55911)
(3.0721 1.60576 -0.171292 2.75468 -0.752445 1.38874)
(3.43626 1.69856 -0.2068 2.67054 -0.921625 1.29393)
(3.80756 1.81623 -0.220009 2.60642 -1.03546 1.26696)
(4.18194 1.93244 -0.217768 2.57714 -1.09757 1.28031)
(4.5614 2.04919 -0.210136 2.57625 -1.12262 1.30474)
(4.94689 2.16026 -0.203459 2.58459 -1.11959 1.31406)
(5.33784 2.2687 -0.19772 2.59451 -1.09991 1.30122)
(5.73542 2.37455 -0.193836 2.60175 -1.07361 1.27571)
(6.13805 2.47936 -0.190339 2.60544 -1.04868 1.24899)
(6.54508 2.5817 -0.18631 2.60662 -1.02822 1.22625)
(6.9589 2.6849 -0.180612 2.60673 -1.00882 1.20423)
(7.37934 2.78789 -0.172774 2.60693 -0.991105 1.18425)
(7.80347 2.88895 -0.162123 2.60678 -0.975134 1.16816)
(8.2341 2.98978 -0.150137 2.60579 -0.958873 1.15243)
(8.67031 3.09048 -0.136457 2.60439 -0.94244 1.13737)
(9.11292 3.19158 -0.120953 2.60307 -0.924687 1.12194)
(9.56028 3.29212 -0.103945 2.60216 -0.906834 1.10646)
(10.0115 3.39145 -0.085671 2.60116 -0.88981 1.09284)
(10.4688 3.49099 -0.0659875 2.59993 -0.871715 1.07868)
(10.9313 3.59023 -0.0450595 2.59879 -0.853396 1.06442)
(11.3977 3.68839 -0.0227939 2.59791 -0.835727 1.05124)
(11.8692 3.78579 0.000777095 2.59673 -0.818095 1.03857)
(12.3462 3.88297 0.0253197 2.59536 -0.80096 1.02652)
(12.8281 3.97996 0.0518178 2.59431 -0.783464 1.01464)
(13.314 4.07614 0.0796858 2.5929 -0.765981 1.00328)
(13.8043 4.17191 0.108755 2.59153 -0.749025 0.993002)
(14.2987 4.26706 0.139209 2.59017 -0.732047 0.983329)
(14.7977 4.3618 0.170852 2.58861 -0.715226 0.974066)
(15.3011 4.45606 0.204317 2.58741 -0.698451 0.965529)
(15.8083 4.54927 0.239317 2.58623 -0.682299 0.95804)
(0.109653 -0.00642972 0.168142 0.00883834 -0.0686094 0.997391)
(0.130878 0.00745249 0.229791 0.142511 0.012866 0.75842)
(0.31855 -0.13244 0.373862 0.409833 0.0259035 1.40682)
(0.617286 -0.226037 0.46662 0.758023 0.137037 1.96664)
(0.87865 -0.476439 0.427097 1.13537 0.109062 2.21771)
(1.2406 -0.645723 0.390542 1.48944 0.12444 2.22198)
(1.58226 -0.896206 0.305425 1.79941 0.109924 2.02113)
(1.94768 -1.07444 0.249514 2.04819 0.153058 1.76886)
(2.30233 -1.28204 0.178604 2.23977 0.236331 1.49817)
(2.64791 -1.43502 0.118246 2.38631 0.383356 1.24681)
(2.98736 -1.57902 0.0549201 2.48785 0.569891 1.04303)
(3.32033 -1.67891 0.0151659 2.54134 0.773473 0.945915)
(3.6611 -1.76949 0.0033205 2.55197 0.944825 0.970241)
(4.01188 -1.85162 0.0242985 2.5418 1.05209 1.06357)
(4.37445 -1.94065 0.0609255 2.52628 1.09203 1.15389)
(4.74626 -2.03384 0.0974765 2.51511 1.08756 1.2002)
(5.12556 -2.13343 0.128162 2.50942 1.0574 1.19742)
(5.51136 -2.23417 0.153919 2.50713 1.02055 1.17146)
(5.90203 -2.33571 0.177252 2.50813 0.98933 1.14556)
(6.29962 -2.43718 0.200695 2.50788 0.962245 1.12505)
(6.70187 -2.53737 0.226617 2.50744 0.938863 1.11048)
(7.10957 -2.63704 0.254287 2.50836 0.919947 1.1029)
(7.52279 -2.73646 0.283601 2.5078 0.901147 1.0978)
(7.94127 -2.83511 0.314267 2.50744 0.882577 1.09288)
(8.36447 -2.93294 0.346416 2.50657 0.864521 1.08958)
(8.7929 -3.03008 0.379778 2.50537 0.846088 1.08587)
(9.22626 -3.12712 0.414274 2.50541 0.828497 1.08288)
(9.66545 -3.22377 0.44985 2.50425 0.81059 1.08064)
(10.1093 -3.31955 0.486745 2.5031 0.792672 1.07799)
(10.558 -3.41498 0.525043 2.50255 0.775684 1.077)
(11.012 -3.51005 0.564371 2.5013 0.758629 1.07656)
(11.4706 -3.60463 0.605146 2.50024 0.741609 1.07624)
(11.9336 -3.69864 0.64739 2.49891 0.724765 1.07697)
(12.4011 -3.79218 0.690943 2.4978 0.707952 1.07804)
(12.873 -3.8853 0.73553 2.49686 0.691705 1.0801)
(13.3496 -3.97802 0.781537 2.49566 0.675517 1.08301)
(13.8302 -4.07011 0.828965 2.49461 0.659333 1.08634)
(14.315 -4.16151 0.877668 2.49337 0.643587 1.0907)
(14.8043 -4.25268 0.928044 2.49232 0.627855 1.09597)
(15.2981 -4.34327 0.980117 2.49125 0.612241 1.10206)
(0.109902 0.00830585 0.19523 0.018101 0.0876782 0.734783)
(0.144384 0.0382927 0.247046 0.138203 0.0296261 0.747061)
(0.403842 0.229379 0.345877 0.422478 -0.0811224 1.39564)
(0.708884 0.335677 0.457022 0.735177 -0.166927 1.99489)
(1.014 0.602027 0.375879 1.11568 -0.219291 2.34489)
(1.35205 0.738557 0.334439 1.44118 -0.222113 2.43562)
(1.69279 0.963665 0.189215 1.74758 -0.232192 2.34419)
(2.03686 1.08863 0.0845668 1.97563 -0.268006 2.18208)
(2.39228 1.24924 -0.0556559 2.14215 -0.363536 1.98791)
(2.74176 1.34912 -0.17336 2.22787 -0.521195 1.78257)
(3.10194 1.45864 -0.29272 2.25348 -0.729423 1.58987)
(3.46149 1.54044 -0.379247 2.23265 -0.948999 1.46335)
(3.83067 1.63139 -0.437538 2.19871 -1.1369 1.43829)
(4.2036 1.71801 -0.465426 2.16819 -1.25974 1.48568)
(4.58317 1.80926 -0.477447 2.14921 -1.32019 1.54907)
(4.96805 1.89849 -0.483354 2.14157 -1.33573 1.58476)
(5.35853 1.98817 -0.48885 2.14046 -1.32526 1.58239)
(5.75479 2.07568 -0.496074 2.14138 -1.30561 1.55843)
(6.15677 2.16358 -0.503035 2.1437 -1.2848 1.52758)
(6.56407 2.24978 -0.508968 2.14546 -1.26659 1.49902)
(6.97679 2.33553 -0.513155 2.14605 -1.25165 1.47652)
(7.39603 2.42159 -0.51513 2.14696 -1.23797 1.45703)
(7.81951 2.50649 -0.514447 2.14761 -1.22483 1.43938)
(8.24894 2.59106 -0.512094 2.14724 -1.21182 1.42358)
(8.68384 2.67595 -0.507384 2.1471 -1.19758 1.40702)
(9.1241 2.76031 -0.501098 2.14621 -1.1826 1.39036)
(9.5695 2.84469 -0.493417 2.14572 -1.16795 1.37478)
(10.0196 2.92864 -0.484417 2.14529 -1.15309 1.35895)
(10.4749 3.01227 -0.474073 2.14412 -1.13824 1.34389)
(10.9356 3.09628 -0.461847 2.14354 -1.12304 1.32919)
(11.4005 3.17963 -0.448106 2.14292 -1.10774 1.31427)
(11.8704 3.26261 -0.432952 2.14202 -1.09286 1.30082)
(12.3453 3.34577 -0.416537 2.1414 -1.07801 1.2877)
(12.8247 3.42844 -0.398434 2.14029 -1.06287 1.27462)
(13.3086 3.51106 -0.378651 2.13935 -1.04781 1.26248)
(13.7968 3.59351 -0.357465 2.13852 -1.03291 1.25088)
(14.2891 3.67549 -0.335102 2.13728 -1.01839 1.24056)
(14.786 3.75758 -0.311104 2.1363 -1.00388 1.23087)
(15.2869 3.83928 -0.285244 2.13537 -0.989199 1.22142)
(15.7921 3.92051 -0.257662 2.13433 -0.975047 1.21348)
(0.108052 -0.00260202 0.177514 0.00846074 -0.0645332 0.828045)
(0.132833 -0.00631425 0.237603 0.108092 -0.0244655 0.753333)
(0.336395 -0.1364 0.358981 0.332099 0.0287454 1.4329)
(0.63159 -0.216548 0.449121 0.611133 0.135324 2.02993)
(0.901469 -0.442117 0.348824 0.948705 0.200934 2.38847)
(1.25356 -0.577363 0.268848 1.2581 0.267633 2.47)
(1.59955 -0.800398 0.0924606 1.54807 0.344949 2.36008)
(1.96907 -0.946646 -0.0382538 1.77222 0.453676 2.19409)
(2.34227 -1.1331 -0.19914 1.94267 0.613932 2.00948)
(2.71054 -1.2706 -0.329299 2.05589 0.818586 1.84113)
(3.07877 -1.41327 -0.461231 2.12738 1.05808 1.72096)
(3.43809 -1.51856 -0.561872 2.16147 1.30157 1.69922)
(3.80113 -1.61746 -0.637214 2.16676 1.50564 1.78012)
(4.16569 -1.69981 -0.677353 2.15646 1.64316 1.91795)
(4.53801 -1.78244 -0.697651 2.14266 1.71512 2.04667)
(4.91769 -1.8635 -0.708661 2.1317 1.73594 2.11633)
(5.30472 -1.94771 -0.719092 2.12561 1.72642 2.12327)
(5.6987 -2.03216 -0.731561 2.12194 1.70552 2.09825)
(6.0983 -2.11784 -0.745055 2.12152 1.68474 2.06562)
(6.50435 -2.20354 -0.758321 2.12215 1.66667 2.03601)
(6.91534 -2.28875 -0.769482 2.12201 1.6511 2.01342)
(7.3324 -2.37389 -0.778612 2.12257 1.63705 1.99478)
(7.75454 -2.45878 -0.785788 2.12317 1.62339 1.97759)
(8.18215 -2.54315 -0.790945 2.12299 1.609 1.96083)
(8.61476 -2.62709 -0.794535 2.12247 1.5943 1.94427)
(9.05256 -2.71073 -0.796861 2.12233 1.58039 1.92913)
(9.49562 -2.79437 -0.797653 2.12208 1.56569 1.91316)
(9.94396 -2.87755 -0.796828 2.12138 1.5502 1.89593)
(10.3971 -2.96037 -0.794784 2.12068 1.53594 1.88186)
(10.8556 -3.0432 -0.791295 2.12001 1.52148 1.86795)
(11.3189 -3.12578 -0.785986 2.11938 1.50652 1.85302)
(11.7871 -3.20814 -0.77909 2.11846 1.49169 1.83958)
(12.2598 -3.2902 -0.770983 2.11732 1.4769 1.82657)
(12.7369 -3.37209 -0.761651 2.11662 1.46321 1.81564)
(13.2189 -3.45399 -0.750123 2.11581 1.44863 1.80423)
(13.7051 -3.53552 -0.736845 2.11485 1.43378 1.79288)
(14.1953 -3.61669 -0.72241 2.11396 1.41982 1.78377)
(14.69 -3.69769 -0.70649 2.11298 1.40591 1.77547)
(15.189 -3.77852 -0.688403 2.11218 1.39166 1.76706)
(15.6927 -3.85901 -0.668432 2.11117 1.37751 1.75997)
(0.10805 0.00260343 0.177517 0.00846047 0.0645304 0.82804)
(0.13283 0.00631199 0.23759 0.108093 0.0244573 0.753278)
(0.33639 0.136394 0.358919 0.332092 -0.0287493 1.43291)
(0.631582 0.216535 0.449025 0.611203 -0.13537 2.02991)
(0.901447 0.442053 0.348777 0.948735 -0.200881 2.38814)
(1.25352 0.577291 0.268786 1.25842 -0.267595 2.4697)
(1.59948 0.800231 0.0922635 1.54857 -0.345473 2.36067)
(1.96911 0.946636 -0.0386494 1.77251 -0.454192 2.19418)
(2.34262 1.13351 -0.19947 1.94292 -0.613474 2.00857)
(2.71073 1.27059 -0.329256 2.05658 -0.818722 1.8412)
(3.07901 1.41325 -0.461544 2.12725 -1.05898 1.72284)
(3.43863 1.51913 -0.562281 2.16126 -1.30135 1.69934)
(3.80132 1.61774 -0.637057 2.16743 -1.5054 1.77902)
(4.16588 1.70004 -0.677257 2.15644 -1.64275 1.91751)
(4.53817 1.78292 -0.697594 2.14338 -1.71435 2.04451)
(4.91765 1.86374 -0.708955 2.13248 -1.73602 2.1155)
(5.30476 1.94781 -0.719538 2.12547 -1.72641 2.12333)
(5.69862 2.03219 -0.731424 2.12268 -1.70526 2.09663)
(6.09818 2.11768 -0.745345 2.12157 -1.68528 2.06641)
(6.50415 2.20339 -0.758745 2.12175 -1.66729 2.03751)
(6.91532 2.28895 -0.76929 2.12241 -1.65063 2.01175)
(7.3323 2.3739 -0.778562 2.12259 -1.63685 1.99406)
(7.75403 2.45845 -0.785928 2.12292 -1.62406 1.97921)
(8.18181 2.54301 -0.790925 2.12303 -1.60939 1.96155)
(8.61457 2.62704 -0.794294 2.1226 -1.59427 1.94411)
(9.05245 2.71071 -0.79668 2.12243 -1.58038 1.92934)
(9.49577 2.79438 -0.797634 2.12207 -1.56566 1.91344)
(9.94405 2.87749 -0.796784 2.12138 -1.55013 1.89591)
(10.3972 2.96035 -0.794804 2.12066 -1.53586 1.88182)
(10.8557 3.04328 -0.79143 2.11991 -1.52139 1.86793)
(11.3188 3.12579 -0.786127 2.11927 -1.50649 1.85313)
(11.7868 3.20814 -0.779223 2.11843 -1.49162 1.83949)
(12.2596 3.29028 -0.771141 2.11755 -1.47685 1.82618)
(12.7368 3.37208 -0.761938 2.11671 -1.46326 1.81552)
(13.2188 3.45393 -0.750374 2.11586 -1.44875 1.80424)
(13.705 3.53544 -0.736934 2.11497 -1.43391 1.79288)
(14.1954 3.61662 -0.722444 2.11397 -1.4199 1.78385)
(14.6902 3.69772 -0.706533 2.11299 -1.40597 1.77557)
(15.1891 3.77852 -0.688467 2.11212 -1.39173 1.76728)
(15.6927 3.85903 -0.668472 2.11114 -1.37753 1.76008)
(0.109902 -0.00830435 0.195228 0.0181024 -0.0876791 0.734763)
(0.144389 -0.0382968 0.247058 0.138213 -0.0296158 0.747065)
(0.403869 -0.229415 0.34592 0.422504 0.0811487 1.39571)
(0.708907 -0.335723 0.457106 0.735246 0.16688 1.99485)
(1.0141 -0.602214 0.375906 1.11572 0.219046 2.34477)
(1.35222 -0.738905 0.334539 1.44136 0.221626 2.43478)
(1.69292 -0.96399 0.189507 1.74794 0.231819 2.34397)
(2.03676 -1.08861 0.0845969 1.97567 0.268656 2.18301)
(2.392 -1.24916 -0.0555999 2.14263 0.36433 1.9882)
(2.74152 -1.34927 -0.173128 2.22864 0.520919 1.78186)
(3.10144 -1.45815 -0.292977 2.25326 0.730453 1.59154)
(3.46117 -1.54019 -0.379489 2.23338 0.950529 1.46518)
(3.83047 -1.63131 -0.437013 2.19936 1.13604 1.43619)
(4.20333 -1.71749 -0.464639 2.1673 1.25789 1.48294)
(4.58331 -1.80932 -0.477225 2.14947 1.31975 1.54823)
(4.96778 -1.89805 -0.483752 2.14161 1.33689 1.58633)
(5.35841 -1.98797 -0.489232 2.14003 1.32579 1.58264)
(5.755 -2.07611 -0.495791 2.14193 1.30495 1.55642)
(6.15648 -2.16323 -0.503075 2.14378 1.28545 1.52826)
(6.56446 -2.24996 -0.509351 2.14545 1.26741 1.49994)
(6.97699 -2.33587 -0.512413 2.14677 1.25099 1.47468)
(7.3958 -2.42118 -0.514532 2.1469 1.23767 1.45639)
(7.82006 -2.50668 -0.514649 2.14738 1.22552 1.44069)
(8.24938 -2.59152 -0.511589 2.14743 1.21142 1.42321)
(8.68407 -2.67603 -0.506828 2.14687 1.19667 1.40595)
(9.12418 -2.7605 -0.501084 2.14657 1.18307 1.3913)
(9.5692 -2.84478 -0.493551 2.14601 1.16828 1.37553)
(10.0196 -2.92871 -0.484425 2.14527 1.15278 1.35855)
(10.4748 -3.01233 -0.473887 2.14445 1.13812 1.34385)
(10.9354 -3.09606 -0.461869 2.14367 1.12306 1.32927)
(11.4007 -3.17952 -0.448221 2.14308 1.10794 1.31441)
(11.8708 -3.2627 -0.432701 2.14216 1.0925 1.30034)
(12.3457 -3.34575 -0.416361 2.14116 1.07736 1.28672)
(12.8247 -3.42848 -0.398851 2.1403 1.06314 1.27474)
(13.3088 -3.51125 -0.379076 2.13931 1.04807 1.26275)
(13.797 -3.59373 -0.357588 2.13847 1.03284 1.25078)
(14.289 -3.67569 -0.335167 2.13751 1.01848 1.24071)
(14.7858 -3.75755 -0.311311 2.13642 1.00405 1.231)
(15.2867 -3.83926 -0.285411 2.1356 0.989548 1.22178)
(15.7922 -3.92057 -0.257477 2.13454 0.974993 1.2136)
(0.109652 0.0064304 0.168145 0.00883912 0.0686085 0.997385)
(0.130877 -0.00745711 0.229788 0.142515 -0.0128958 0.758421)
(0.318546 0.132436 0.373791 0.409891 -0.0259784 1.40679)
(0.617284 0.226032 0.466527 0.758106 -0.137104 1.96663)
(0.878624 0.476328 0.427103 1.13527 -0.109163 2.2178)
(1.2405 0.645578 0.390535 1.49014 -0.124677 2.22194)
(1.58217 0.896273 0.305319 1.80084 -0.110014 2.02087)
(1.94771 1.07461 0.249299 2.04916 -0.152979 1.76879)
(2.3025 1.28248 0.178298 2.2417 -0.236633 1.4982)
(2.64823 1.43537 0.11817 2.38752 -0.383107 1.24665)
(2.98769 1.57904 0.0548569 2.48788 -0.570043 1.0438)
(3.32055 1.67927 0.0148297 2.54284 -0.774945 0.947285)
(3.66145 1.77032 0.00346458 2.55313 -0.943781 0.968813)
(4.01192 1.85159 0.024519 2.54125 -1.05064 1.06266)
(4.37418 1.94039 0.0603867 2.52665 -1.09336 1.15566)
(4.74652 2.03453 0.096959 2.51643 -1.08762 1.19953)
(5.12562 2.1335 0.127917 2.50997 -1.05705 1.19663)
(5.51127 2.2339 0.153454 2.50745 -1.02177 1.17283)
(5.90231 2.33575 0.176813 2.50741 -0.989771 1.14647)
(6.29927 2.4371 0.200438 2.50846 -0.962848 1.12528)
(6.70178 2.5377 0.226371 2.5083 -0.939207 1.11058)
(7.10978 2.6371 0.253981 2.50723 -0.919214 1.10255)
(7.5222 2.73615 0.283182 2.50807 -0.901793 1.09818)
(7.94102 2.83522 0.313913 2.50802 -0.883176 1.09346)
(8.36428 2.93286 0.346063 2.50637 -0.86438 1.08927)
(8.79262 3.03029 0.379165 2.50647 -0.84713 1.08654)
(9.22667 3.12751 0.41377 2.50584 -0.82903 1.08352)
(9.66563 3.22363 0.44972 2.50417 -0.810599 1.0805)
(10.1094 3.31961 0.486643 2.50353 -0.793003 1.07829)
(10.5583 3.41504 0.524749 2.50238 -0.775599 1.07685)
(11.0117 3.50995 0.564054 2.50132 -0.75883 1.07645)
(11.4702 3.60465 0.605027 2.50025 -0.741663 1.07633)
(11.9332 3.6987 0.647266 2.49912 -0.724499 1.07654)
(12.4009 3.79222 0.6903 2.49808 -0.708479 1.0784)
(12.8732 3.88536 0.734958 2.4969 -0.692144 1.08046)
(13.3496 3.97804 0.781382 2.49591 -0.675627 1.08301)
(13.8305 4.07026 0.828821 2.49487 -0.659538 1.08665)
(14.3153 4.16171 0.877487 2.49354 -0.643503 1.09058)
(14.8042 4.25281 0.92766 2.49263 -0.627996 1.09588)
(15.2981 4.34337 0.979623 2.49144 -0.612424 1.10205)
(0.115863 -0.0366412 0.213877 0.0898556 -0.1856 0.679383)
(0.172098 -0.100122 0.245556 0.301102 0.00258573 0.734461)
(0.483539 -0.407412 0.336748 0.787705 0.178089 1.36292)
(0.795258 -0.545071 0.465512 1.22383 0.279129 1.92723)
(1.11304 -0.872899 0.407352 1.71451 0.320569 2.25186)
(1.42867 -1.01418 0.385428 2.08445 0.288126 2.32162)
(1.74422 -1.24155 0.247033 2.42044 0.267311 2.19977)
(2.05521 -1.33782 0.141246 2.64616 0.289743 2.00238)
(2.38176 -1.45824 0.00408106 2.79092 0.395697 1.77651)
(2.71507 -1.5158 -0.0926094 2.81147 0.560776 1.55995)
(3.07133 -1.60543 -0.171222 2.75557 0.7525 1.38919)
(3.43615 -1.69866 -0.206994 2.67184 0.921505 1.29365)
(3.80705 -1.81528 -0.219471 2.60753 1.03631 1.26816)
(4.18153 -1.93166 -0.217594 2.5774 1.09864 1.28186)
(4.5621 -2.04984 -0.210308 2.57572 1.12172 1.30411)
(4.94679 -2.16012 -0.202871 2.58483 1.11856 1.31305)
(5.33743 -2.26847 -0.197746 2.59527 1.10038 1.30197)
(5.73487 -2.37433 -0.194498 2.6018 1.07456 1.27758)
(6.13762 -2.47892 -0.191262 2.60535 1.04962 1.25022)
(6.54637 -2.5827 -0.186633 2.60771 1.02791 1.22507)
(6.95858 -2.68453 -0.180064 2.60731 1.00872 1.20426)
(7.37878 -2.78703 -0.17312 2.60638 0.991981 1.18583)
(7.80496 -2.88993 -0.162565 2.60698 0.975271 1.16827)
(8.23456 -2.99032 -0.149918 2.60625 0.958801 1.15273)
(8.67082 -3.09105 -0.136789 2.60488 0.942683 1.13804)
(9.11326 -3.19225 -0.121309 2.6041 0.925363 1.12259)
(9.55908 -3.29197 -0.10375 2.60284 0.907313 1.10774)
(10.0112 -3.39161 -0.0858708 2.60124 0.889364 1.09339)
(10.4687 -3.49106 -0.0668354 2.60029 0.871815 1.079)
(10.9308 -3.58987 -0.0459166 2.59942 0.854018 1.06496)
(11.3979 -3.68803 -0.0235099 2.59797 0.835964 1.05126)
(11.8701 -3.78584 -0.00020037 2.59665 0.818734 1.03882)
(12.3471 -3.8835 0.0248208 2.59584 0.801506 1.02666)
(12.8278 -3.98005 0.0515815 2.59436 0.783728 1.015)
(13.3141 -4.07639 0.0792697 2.59273 0.76615 1.0037)
(13.8047 -4.17248 0.108456 2.59175 0.748899 0.992999)
(14.2985 -4.26732 0.138754 2.5905 0.732149 0.983312)
(14.7975 -4.36185 0.170362 2.58914 0.715569 0.973879)
(15.3008 -4.456 0.204117 2.58793 0.698908 0.965405)
(15.8081 -4.54916 0.239421 2.58643 0.682533 0.958108)
(0.134992 -0.00369439 -0.0175192 0.0348448 0.106843 1.11546)
(0.192892 -0.134254 0.327361 0.328226 -0.298459 0.990877)
(0.366256 -0.200766 0.612084 0.775055 -0.857218 2.28449)
(0.69648 -0.353038 1.00916 1.31626 -1.72649 4.03271)
(0.863477 -0.420349 1.14967 1.80709 -2.46136 5.25857)
(1.20227 -0.543046 1.44017 2.2675 -3.28047 6.51001)
(1.41759 -0.614678 1.62405 2.63644 -4.02683 7.65581)
(1.7349 -0.707053 1.98279 2.93755 -4.77917 9.07789)
(2.00002 -0.756663 2.30077 3.16232 -5.43335 10.5578)
(2.30863 -0.772338 2.62357 3.29194 -5.91263 11.9062)
(2.57037 -0.723667 2.78766 3.33628 -6.15612 12.781)
(2.82254 -0.638753 2.835 3.35567 -6.25838 13.2092)
(3.02753 -0.511827 2.75104 3.34266 -6.2526 13.3276)
(3.2277 -0.375559 2.61891 3.32365 -6.20423 13.2768)
(3.424 -0.244105 2.46804 3.31933 -6.1631 13.1664)
(3.63334 -0.117589 2.32424 3.31833 -6.13078 13.0692)
(3.85129 0.00426566 2.1899 3.31747 -6.10152 12.9814)
(4.08206 0.121903 2.06556 3.31832 -6.0761 12.9014)
(4.31918 0.23709 1.94668 3.31946 -6.05329 12.8315)
(4.56431 0.350728 1.83131 3.32366 -6.03662 12.7726)
(4.81378 0.465379 1.71623 3.31922 -6.01079 12.7173)
(5.07058 0.577394 1.60551 3.31424 -5.98339 12.6579)
(5.33325 0.685717 1.49824 3.31886 -5.96859 12.604)
(5.60075 0.796164 1.389 3.31613 -5.94748 12.559)
(5.87422 0.904552 1.28291 3.31147 -5.92406 12.513)
(6.15389 1.01016 1.17901 3.31357 -5.90988 12.4722)
(6.43756 1.11685 1.07425 3.31112 -5.89239 12.4406)
(6.72677 1.22196 0.971733 3.30623 -5.87176 12.4067)
(7.0215 1.32466 0.871889 3.30575 -5.85659 12.3741)
(7.32102 1.42705 0.77358 3.30427 -5.84142 12.3482)
(7.62574 1.52815 0.677392 3.30141 -5.82478 12.3226)
(7.93545 1.62787 0.583088 3.29958 -5.8094 12.2972)
(8.2499 1.72647 0.490408 3.29922 -5.79609 12.2742)
(8.56892 1.82419 0.398897 3.29662 -5.7807 12.253)
(8.8924 1.92079 0.309767 3.29352 -5.76439 12.2311)
(9.22052 2.01584 0.222447 3.29334 -5.7515 12.2094)
(9.55278 2.11049 0.136501 3.29155 -5.73754 12.1926)
(9.88945 2.20371 0.0529 3.28894 -5.72261 12.1753)
(10.2308 2.29575 -0.0289007 3.28833 -5.70999 12.1581)
(10.5764 2.38689 -0.109106 3.28598 -5.69604 12.1442)
(1.22725 0.311943 0.317338 0.099474 0.0635849 0.163435)
(0.235415 -0.158957 0.13308 0.700808 0.124773 0.169905)
(0.703323 0.699551 0.2971 1.49303 0.182391 0.173964)
(0.744581 0.0558503 0.289172 2.20764 0.189953 0.170772)
(0.91504 0.267783 0.314594 2.75233 0.213702 0.172154)
(1.26337 -0.215144 0.312397 3.09106 0.21231 0.170667)
(1.50761 -0.33687 0.312618 3.29568 0.220052 0.170981)
(2.04523 -0.670995 0.310626 3.39179 0.217962 0.170412)
(2.57656 -0.804815 0.308564 3.41413 0.219658 0.170484)
(3.25051 -0.894267 0.309897 3.37891 0.217709 0.170265)
(3.74779 -0.815617 0.312513 3.34015 0.217909 0.17026)
(4.11742 -0.693871 0.317642 3.3497 0.217695 0.170151)
(4.33242 -0.538794 0.323127 3.38265 0.218245 0.170113)
(4.51965 -0.386505 0.329084 3.4192 0.218429 0.170035)
(4.70598 -0.232289 0.334324 3.44584 0.218599 0.169976)
(4.93074 -0.0809401 0.339252 3.45805 0.218443 0.169906)
(5.1775 0.069767 0.343485 3.46293 0.218297 0.169846)
(5.4488 0.218384 0.347404 3.46293 0.218018 0.169785)
(5.73025 0.364407 0.350899 3.46477 0.217764 0.169729)
(6.02155 0.510518 0.354262 3.45915 0.217404 0.169674)
(6.31895 0.655568 0.357326 3.45265 0.217127 0.169622)
(6.625 0.797146 0.360123 3.45379 0.216891 0.16957)
(6.93942 0.937374 0.362841 3.4513 0.216532 0.169522)
(7.26061 1.07805 0.365393 3.4465 0.216205 0.169476)
(7.58747 1.21684 0.367755 3.44295 0.215891 0.16943)
(7.92116 1.35425 0.369961 3.44055 0.215598 0.169386)
(8.26027 1.48998 0.371979 3.44111 0.215312 0.169343)
(8.60642 1.6239 0.373943 3.43913 0.214951 0.169304)
(8.9578 1.75708 0.375752 3.43599 0.214635 0.169265)
(9.31497 1.88758 0.377402 3.43583 0.214338 0.169228)
(9.67854 2.01649 0.378983 3.43454 0.213997 0.169193)
(10.0486 2.14392 0.380468 3.43185 0.21366 0.16916)
(10.4248 2.26997 0.381839 3.42922 0.213353 0.169128)
(10.8064 2.39488 0.383091 3.4281 0.213048 0.169097)
(11.1938 2.51784 0.384278 3.42716 0.212723 0.169067)
(11.5858 2.63933 0.385388 3.42616 0.212405 0.169039)
(11.9824 2.75954 0.386427 3.42412 0.212089 0.169012)
(12.3842 2.87786 0.387398 3.42252 0.211779 0.168987)
(12.7913 2.99415 0.388303 3.42238 0.211471 0.168962)
(13.2046 3.10932 0.389178 3.42042 0.211156 0.168939)
(1.01085 -0.136531 0.261792 0.0253248 -0.021972 0.1503)
(0.437327 0.191918 0.12161 0.157699 -0.0361943 0.159023)
(0.62147 -0.268243 0.274856 0.323162 -0.0581512 0.161366)
(0.749272 -0.0801772 0.300294 0.555054 -0.0639996 0.15918)
(1.15143 -0.442457 0.341565 0.755247 -0.0775432 0.160021)
(1.47164 -0.464676 0.357975 0.979621 -0.0814734 0.158893)
(1.90903 -0.73017 0.372254 1.17995 -0.0898089 0.159023)
(2.27589 -0.862598 0.378956 1.37499 -0.0933989 0.158582)
(2.66682 -1.08219 0.383831 1.57993 -0.0990998 0.158604)
(3.02172 -1.21465 0.386235 1.80749 -0.103054 0.158446)
(3.39176 -1.33643 0.387673 2.03095 -0.107595 0.158439)
(3.76487 -1.40401 0.388317 2.22171 -0.110108 0.158373)
(4.15734 -1.47344 0.388678 2.34349 -0.111801 0.158348)
(4.56276 -1.54125 0.389029 2.39196 -0.112238 0.158291)
(4.97935 -1.62939 0.389377 2.39106 -0.11204 0.158252)
(5.40343 -1.7276 0.389815 2.37044 -0.111559 0.158205)
(5.83309 -1.83442 0.390203 2.35148 -0.11118 0.158165)
(6.27025 -1.94301 0.390549 2.33833 -0.110883 0.158127)
(6.71491 -2.05314 0.390765 2.32967 -0.110716 0.158092)
(7.17013 -2.16486 0.390872 2.32458 -0.110536 0.158061)
(7.63162 -2.27528 0.390911 2.32051 -0.110386 0.158033)
(8.10125 -2.38661 0.390889 2.31715 -0.110253 0.158005)
(8.57916 -2.4998 0.39078 2.31383 -0.110142 0.157979)
(9.06431 -2.61232 0.390646 2.31195 -0.110037 0.157954)
(9.55657 -2.72484 0.390451 2.3103 -0.10987 0.157933)
(10.0557 -2.83713 0.390226 2.30832 -0.109723 0.157912)
(10.5617 -2.9499 0.389978 2.30738 -0.109604 0.157892)
(11.0757 -3.0633 0.389682 2.30641 -0.109439 0.157874)
(11.5955 -3.17581 0.389381 2.30543 -0.10928 0.157858)
(12.1218 -3.28812 0.389077 2.30422 -0.109137 0.157842)
(12.655 -3.40108 0.388761 2.30351 -0.108993 0.157827)
(13.1939 -3.51338 0.388448 2.30264 -0.108855 0.157813)
(13.7383 -3.62512 0.388119 2.30133 -0.108694 0.157801)
(14.2883 -3.73683 0.387795 2.30143 -0.108533 0.15779)
(14.8439 -3.8476 0.387488 2.30113 -0.108397 0.157778)
(15.4055 -3.95783 0.387164 2.30063 -0.108233 0.157768)
(15.9724 -4.0677 0.386845 2.3006 -0.10807 0.157759)
(16.5444 -4.17677 0.386546 2.30024 -0.107914 0.15775)
(17.1216 -4.28517 0.386264 2.29962 -0.107752 0.157742)
(17.7049 -4.39343 0.386005 2.29931 -0.107595 0.157734)
(1.05948 0.091265 0.285071 0.0106888 0.0172059 0.157099)
(0.267999 -0.108829 0.130279 0.171511 0.0501468 0.165694)
(0.791805 0.422251 0.303411 0.43704 0.082285 0.168754)
(0.798115 0.260709 0.318729 0.815901 0.0947856 0.166107)
(1.29714 0.711232 0.366715 1.17212 0.114502 0.167279)
(1.59225 0.754871 0.381643 1.49813 0.119102 0.165928)
(2.071 1.05971 0.399813 1.74952 0.127974 0.166158)
(2.44297 1.17646 0.408488 1.93203 0.129368 0.165619)
(2.85895 1.38464 0.416726 2.04866 0.132526 0.165648)
(3.20132 1.50138 0.421711 2.12451 0.132678 0.165432)
(3.55401 1.62543 0.425539 2.18207 0.13383 0.165412)
(3.88842 1.69752 0.428133 2.23841 0.134264 0.165307)
(4.25152 1.76557 0.430267 2.28321 0.134789 0.16527)
(4.6364 1.82662 0.432478 2.30899 0.13481 0.165203)
(5.04727 1.90505 0.434895 2.31683 0.134872 0.165156)
(5.47168 1.99573 0.437559 2.31454 0.134567 0.165101)
(5.90569 2.09853 0.440266 2.31006 0.134343 0.165055)
(6.34618 2.20541 0.443012 2.30611 0.134204 0.165006)
(6.79401 2.3157 0.445582 2.30434 0.133988 0.164964)
(7.25037 2.42613 0.448031 2.30203 0.133807 0.164922)
(7.71357 2.53577 0.450345 2.29976 0.133721 0.164881)
(8.18499 2.64603 0.452509 2.29883 0.133531 0.164843)
(8.66342 2.75628 0.454547 2.29708 0.133335 0.164807)
(9.14963 2.86675 0.456483 2.29506 0.133191 0.164771)
(9.64273 2.9772 0.4583 2.29358 0.133029 0.164736)
(10.1428 3.08717 0.460029 2.29202 0.132883 0.164702)
(10.6498 3.19771 0.461637 2.29141 0.132681 0.164671)
(11.1632 3.30788 0.463165 2.29027 0.132488 0.16464)
(11.683 3.41776 0.464623 2.28907 0.132348 0.16461)
(12.2088 3.52741 0.465983 2.28875 0.132147 0.164582)
(12.7408 3.63667 0.467265 2.28788 0.131949 0.164555)
(13.2785 3.74569 0.468486 2.28713 0.131774 0.164529)
(13.8216 3.85399 0.469639 2.28626 0.131599 0.164504)
(14.3702 3.96206 0.470728 2.28569 0.131438 0.164479)
(14.9237 4.06966 0.47174 2.28533 0.131237 0.164456)
(15.4826 4.17675 0.472696 2.28485 0.131046 0.164434)
(16.0463 4.28315 0.473614 2.28443 0.130883 0.164411)
(16.6147 4.38873 0.474466 2.28403 0.130689 0.164391)
(17.1882 4.49386 0.475281 2.28388 0.130493 0.164371)
(17.767 4.59829 0.476077 2.28347 0.13031 0.164352)
(1.01693 -0.0513552 0.268162 0.00392189 -0.0071711 0.152597)
(0.397043 0.115389 0.120413 0.0691193 -0.0207774 0.161431)
(0.587157 -0.161575 0.274154 0.169086 -0.0369659 0.16384)
(0.732746 0.0015272 0.29502 0.331782 -0.0435929 0.161593)
(1.04924 -0.248066 0.337097 0.477218 -0.0551023 0.162497)
(1.36313 -0.248165 0.354466 0.642972 -0.0592488 0.161332)
(1.76811 -0.46316 0.371501 0.785529 -0.0663436 0.161483)
(2.15524 -0.576869 0.381279 0.927151 -0.0695431 0.161022)
(2.58504 -0.781119 0.38949 1.06432 -0.0742165 0.161036)
(2.98945 -0.929097 0.395042 1.21299 -0.0772045 0.160858)
(3.40995 -1.09321 0.399362 1.36122 -0.0806154 0.160842)
(3.81451 -1.218 0.402569 1.4977 -0.0829818 0.160756)
(4.2238 -1.33727 0.405055 1.60741 -0.0848275 0.160725)
(4.6272 -1.43375 0.407052 1.68561 -0.0857894 0.160667)
(5.0366 -1.52391 0.408635 1.7331 -0.0863833 0.160623)
(5.451 -1.6043 0.409965 1.75642 -0.0865228 0.160572)
(5.87426 -1.68334 0.41107 1.76379 -0.0865289 0.160528)
(6.30688 -1.76164 0.412028 1.7623 -0.0863445 0.160487)
(6.74833 -1.84185 0.412843 1.75746 -0.0861716 0.160449)
(7.19933 -1.92407 0.413581 1.75242 -0.0860835 0.16041)
(7.65776 -2.00758 0.414189 1.74786 -0.0859096 0.160377)
(8.1244 -2.0924 0.414715 1.74453 -0.0857543 0.160345)
(8.59881 -2.17877 0.415161 1.74162 -0.0856936 0.160313)
(9.08031 -2.26529 0.415518 1.7394 -0.085552 0.160284)
(9.56876 -2.35247 0.415803 1.73844 -0.0854155 0.160258)
(10.0642 -2.44008 0.416035 1.73724 -0.085333 0.160231)
(10.5663 -2.52813 0.416197 1.73659 -0.0852223 0.160206)
(11.0752 -2.61646 0.416314 1.73594 -0.0851272 0.160183)
(11.5902 -2.70491 0.416367 1.73543 -0.084993 0.160162)