/*--------------------------------*- C++ -*----------------------------------*\
  =========                 |
  \\      /  F ield         | OpenFOAM: The Open Source CFD Toolbox
   \\    /   O peration     | Website:  https://openfoam.org
    \\  /    A nd           | Version:  7
     \\/     M anipulation  |
\*---------------------------------------------------------------------------*/
FoamFile
{
    version     2.0;
    format      ascii;
    class       volScalarField;
    location    "1.605";
    object      rho_0;
}
// * * * * * * * * * * * * * * * * * * * * * * * * * * * * * * * * * * * * * //

dimensions      [1 -3 0 0 0 0 0];

internalField   nonuniform List<scalar> 
7920
(
1.23501
1.23434
1.23443
1.23407
1.23423
1.23396
1.23409
1.23389
1.23399
1.23384
1.23394
1.23383
1.23391
1.23384
1.2339
1.23385
1.23387
1.23388
1.23375
1.2341
1.23517
1.23485
1.2349
1.23446
1.2345
1.23415
1.23416
1.23391
1.23391
1.23375
1.23379
1.23371
1.23377
1.23376
1.2338
1.23385
1.23378
1.23402
1.2335
1.23465
1.23553
1.23541
1.23581
1.23536
1.23555
1.2351
1.23517
1.23476
1.23477
1.23443
1.23445
1.23424
1.2343
1.23424
1.2343
1.23437
1.23432
1.23462
1.23424
1.23499
1.23533
1.23526
1.23567
1.23532
1.2355
1.23512
1.23517
1.2348
1.23476
1.23443
1.23436
1.23412
1.23409
1.23401
1.23401
1.23408
1.23407
1.23428
1.23419
1.23454
1.23547
1.23537
1.23588
1.23551
1.23576
1.23537
1.23549
1.23512
1.23514
1.23478
1.23474
1.23445
1.23443
1.23428
1.23431
1.23428
1.23435
1.23441
1.23452
1.23463
1.23542
1.23528
1.23578
1.23539
1.23566
1.23526
1.23539
1.23503
1.23507
1.23471
1.23468
1.23438
1.23437
1.23419
1.23423
1.23416
1.23425
1.23426
1.23441
1.23446
1.23542
1.23528
1.23578
1.23539
1.23566
1.23526
1.23539
1.23503
1.23507
1.23471
1.23468
1.23438
1.23437
1.23419
1.23423
1.23416
1.23425
1.23426
1.23441
1.23446
1.23547
1.23537
1.23588
1.23551
1.23576
1.23537
1.23549
1.23512
1.23514
1.23478
1.23474
1.23445
1.23444
1.23427
1.23432
1.23426
1.23437
1.23439
1.23454
1.23461
1.23533
1.23526
1.23567
1.23532
1.2355
1.23512
1.23517
1.2348
1.23477
1.23443
1.23436
1.23412
1.2341
1.23399
1.23404
1.23403
1.23413
1.23419
1.23431
1.2344
1.23553
1.23541
1.23581
1.23536
1.23555
1.2351
1.23517
1.23476
1.23477
1.23443
1.23445
1.23423
1.23432
1.23421
1.23434
1.2343
1.23444
1.23442
1.23455
1.23451
1.23517
1.23485
1.2349
1.23446
1.2345
1.23415
1.23417
1.23391
1.23391
1.23374
1.23379
1.2337
1.23378
1.23374
1.23382
1.2338
1.23387
1.23384
1.23389
1.23381
1.23501
1.23434
1.23443
1.23407
1.23423
1.23396
1.23409
1.23389
1.23399
1.23384
1.23394
1.23383
1.23392
1.23383
1.23391
1.23384
1.23389
1.23383
1.23387
1.23379
1.23304
1.23319
1.23277
1.23296
1.23263
1.2328
1.23254
1.23269
1.23251
1.23265
1.23253
1.23266
1.23258
1.2327
1.23263
1.23275
1.23263
1.23285
1.23237
1.23375
1.23339
1.23368
1.23344
1.23353
1.23325
1.23324
1.23299
1.23295
1.23278
1.23278
1.23269
1.23276
1.23274
1.23288
1.23285
1.23308
1.2329
1.23336
1.23262
1.23407
1.23306
1.23346
1.23311
1.23333
1.23296
1.23304
1.23269
1.2327
1.23238
1.23239
1.23217
1.23225
1.23215
1.23233
1.23228
1.23258
1.23246
1.23294
1.23252
1.23337
1.23327
1.23371
1.23344
1.23367
1.23338
1.23347
1.23318
1.23318
1.23291
1.23286
1.23264
1.23264
1.23254
1.23263
1.23263
1.23282
1.23284
1.23314
1.23312
1.2335
1.23311
1.23359
1.23324
1.23354
1.2332
1.23334
1.23303
1.23309
1.23279
1.23277
1.23251
1.23252
1.23238
1.23247
1.23243
1.23259
1.23263
1.23287
1.23297
1.23324
1.23317
1.23369
1.23335
1.23367
1.23333
1.23349
1.23318
1.23325
1.23295
1.23295
1.23269
1.2327
1.23255
1.23263
1.23258
1.23273
1.23277
1.23298
1.23311
1.23335
1.23317
1.23369
1.23335
1.23367
1.23333
1.23349
1.23318
1.23325
1.23295
1.23295
1.23269
1.2327
1.23255
1.23263
1.23258
1.23272
1.23277
1.23298
1.23311
1.23336
1.23311
1.23359
1.23324
1.23354
1.2332
1.23334
1.23303
1.23309
1.23279
1.23277
1.23252
1.23252
1.23238
1.23246
1.23243
1.23258
1.23264
1.23285
1.23298
1.23322
1.23327
1.23371
1.23344
1.23367
1.23338
1.23347
1.23318
1.23318
1.23291
1.23285
1.23265
1.23263
1.23255
1.23262
1.23265
1.23278
1.23289
1.23307
1.23321
1.23339
1.23306
1.23346
1.23311
1.23333
1.23296
1.23304
1.23269
1.2327
1.23239
1.23238
1.23218
1.23224
1.23217
1.2323
1.23233
1.2325
1.23258
1.23275
1.23282
1.23294
1.23339
1.23368
1.23344
1.23353
1.23325
1.23324
1.23299
1.23295
1.23278
1.23277
1.2327
1.23275
1.23276
1.23286
1.2329
1.23299
1.23304
1.23309
1.23312
1.2331
1.23304
1.23319
1.23277
1.23296
1.23263
1.2328
1.23254
1.23269
1.23251
1.23265
1.23253
1.23266
1.23258
1.23269
1.23264
1.23272
1.23268
1.23273
1.2327
1.23273
1.23327
1.23336
1.23334
1.23328
1.23312
1.23299
1.23286
1.23283
1.2328
1.23284
1.23282
1.23287
1.23285
1.23293
1.23284
1.23302
1.23266
1.23334
1.23181
1.23507
1.23327
1.2334
1.23343
1.2334
1.23328
1.23314
1.23294
1.23277
1.23259
1.2325
1.23241
1.23247
1.23245
1.23268
1.23261
1.23302
1.23265
1.2334
1.23235
1.23383
1.23326
1.23339
1.23342
1.2334
1.23329
1.23319
1.23301
1.23285
1.23264
1.23248
1.23233
1.23229
1.23223
1.23234
1.23235
1.23261
1.2326
1.23299
1.23284
1.2333
1.23326
1.2334
1.23343
1.23342
1.23332
1.23322
1.23308
1.23293
1.23274
1.23257
1.23242
1.23235
1.23229
1.23232
1.23235
1.23249
1.23259
1.23282
1.23296
1.23317
1.23326
1.23339
1.23342
1.23341
1.23331
1.23321
1.23307
1.23292
1.23274
1.23258
1.23243
1.23235
1.23229
1.23231
1.23234
1.23244
1.23255
1.23273
1.23292
1.2331
1.23326
1.2334
1.23343
1.23342
1.23332
1.23323
1.23308
1.23294
1.23276
1.2326
1.23245
1.23237
1.23232
1.23234
1.23237
1.23246
1.23257
1.23274
1.23294
1.23312
1.23326
1.2334
1.23343
1.23342
1.23332
1.23323
1.23308
1.23294
1.23276
1.2326
1.23245
1.23237
1.23232
1.23234
1.23237
1.23246
1.23257
1.23275
1.23293
1.23312
1.23326
1.23339
1.23342
1.23341
1.23331
1.23321
1.23307
1.23292
1.23274
1.23258
1.23243
1.23235
1.23229
1.23231
1.23234
1.23244
1.23255
1.23274
1.23291
1.23312
1.23326
1.2334
1.23343
1.23342
1.23332
1.23322
1.23308
1.23293
1.23274
1.23257
1.23242
1.23234
1.2323
1.23232
1.23236
1.23248
1.2326
1.23281
1.23296
1.23318
1.23326
1.23339
1.23342
1.2334
1.23329
1.23318
1.23302
1.23285
1.23264
1.23248
1.23234
1.23228
1.23226
1.23231
1.23239
1.23254
1.23269
1.23287
1.23298
1.23312
1.23327
1.2334
1.23343
1.2334
1.23328
1.23314
1.23295
1.23277
1.23259
1.23249
1.23243
1.23244
1.2325
1.23261
1.23272
1.23284
1.23293
1.23296
1.233
1.2329
1.23327
1.23336
1.23334
1.23328
1.23312
1.23299
1.23286
1.23283
1.2328
1.23283
1.23283
1.23286
1.23287
1.2329
1.23289
1.23291
1.23288
1.23288
1.23285
1.23279
1.23327
1.23336
1.23334
1.23328
1.23312
1.23299
1.23286
1.23283
1.2328
1.23284
1.23282
1.23287
1.23285
1.23293
1.23284
1.23302
1.23266
1.23334
1.23181
1.23507
1.23327
1.2334
1.23343
1.2334
1.23328
1.23314
1.23294
1.23277
1.23259
1.2325
1.23241
1.23247
1.23245
1.23268
1.23261
1.23302
1.23265
1.2334
1.23235
1.23383
1.23326
1.23339
1.23342
1.2334
1.23329
1.23319
1.23301
1.23285
1.23264
1.23248
1.23233
1.23229
1.23223
1.23234
1.23235
1.23261
1.2326
1.23299
1.23284
1.2333
1.23326
1.2334
1.23343
1.23342
1.23332
1.23322
1.23308
1.23293
1.23274
1.23257
1.23242
1.23235
1.23229
1.23232
1.23235
1.23249
1.23259
1.23282
1.23296
1.23318
1.23326
1.23339
1.23342
1.23341
1.23331
1.23321
1.23307
1.23292
1.23274
1.23258
1.23243
1.23235
1.23229
1.23231
1.23234
1.23244
1.23255
1.23273
1.23292
1.2331
1.23326
1.2334
1.23343
1.23342
1.23332
1.23323
1.23308
1.23294
1.23276
1.2326
1.23245
1.23237
1.23232
1.23234
1.23237
1.23246
1.23257
1.23274
1.23294
1.23312
1.23326
1.2334
1.23343
1.23342
1.23332
1.23323
1.23308
1.23294
1.23276
1.2326
1.23245
1.23237
1.23232
1.23234
1.23237
1.23246
1.23257
1.23275
1.23293
1.23312
1.23326
1.23339
1.23342
1.23341
1.23331
1.23321
1.23307
1.23292
1.23274
1.23258
1.23243
1.23235
1.23229
1.23231
1.23234
1.23244
1.23255
1.23274
1.23291
1.23312
1.23326
1.2334
1.23343
1.23342
1.23332
1.23322
1.23308
1.23293
1.23274
1.23257
1.23242
1.23234
1.2323
1.23232
1.23236
1.23248
1.2326
1.23281
1.23296
1.23318
1.23326
1.23339
1.23342
1.2334
1.23329
1.23318
1.23302
1.23285
1.23264
1.23248
1.23234
1.23228
1.23226
1.23231
1.23239
1.23254
1.23269
1.23287
1.23298
1.23312
1.23327
1.2334
1.23343
1.2334
1.23328
1.23314
1.23295
1.23277
1.23259
1.23249
1.23243
1.23244
1.2325
1.23261
1.23272
1.23284
1.23293
1.23296
1.233
1.2329
1.23327
1.23336
1.23334
1.23328
1.23312
1.23299
1.23286
1.23283
1.2328
1.23283
1.23283
1.23286
1.23287
1.2329
1.23289
1.23291
1.23288
1.23288
1.23285
1.23279
1.23304
1.23319
1.23277
1.23296
1.23263
1.2328
1.23254
1.23269
1.23251
1.23265
1.23253
1.23266
1.23258
1.2327
1.23263
1.23275
1.23263
1.23285
1.23237
1.23375
1.23339
1.23368
1.23344
1.23353
1.23325
1.23324
1.23299
1.23295
1.23278
1.23278
1.23269
1.23276
1.23274
1.23288
1.23285
1.23308
1.2329
1.23336
1.23262
1.23407
1.23306
1.23346
1.23311
1.23333
1.23296
1.23304
1.23269
1.2327
1.23238
1.23239
1.23217
1.23225
1.23215
1.23233
1.23228
1.23258
1.23246
1.23294
1.23252
1.23337
1.23327
1.23371
1.23344
1.23367
1.23338
1.23347
1.23318
1.23318
1.23291
1.23286
1.23264
1.23264
1.23254
1.23263
1.23263
1.23282
1.23284
1.23314
1.23312
1.2335
1.23311
1.23359
1.23324
1.23354
1.2332
1.23334
1.23303
1.23309
1.23279
1.23277
1.23251
1.23252
1.23238
1.23247
1.23243
1.23259
1.23263
1.23287
1.23297
1.23324
1.23317
1.23369
1.23335
1.23367
1.23333
1.23349
1.23318
1.23325
1.23295
1.23295
1.23269
1.2327
1.23255
1.23263
1.23258
1.23273
1.23277
1.23298
1.23311
1.23335
1.23317
1.23369
1.23335
1.23367
1.23333
1.23349
1.23318
1.23325
1.23295
1.23295
1.23269
1.2327
1.23255
1.23263
1.23258
1.23272
1.23277
1.23298
1.23311
1.23336
1.23311
1.23359
1.23324
1.23354
1.2332
1.23334
1.23303
1.23309
1.23279
1.23277
1.23252
1.23252
1.23238
1.23246
1.23243
1.23258
1.23264
1.23285
1.23298
1.23322
1.23327
1.23371
1.23344
1.23367
1.23338
1.23347
1.23318
1.23318
1.23291
1.23285
1.23265
1.23263
1.23255
1.23262
1.23265
1.23278
1.23289
1.23307
1.23321
1.23339
1.23306
1.23346
1.23311
1.23333
1.23296
1.23304
1.23269
1.2327
1.23239
1.23238
1.23218
1.23224
1.23217
1.2323
1.23233
1.2325
1.23258
1.23275
1.23282
1.23294
1.23339
1.23368
1.23344
1.23353
1.23325
1.23324
1.23299
1.23295
1.23278
1.23277
1.2327
1.23275
1.23276
1.23286
1.2329
1.23299
1.23304
1.23309
1.23312
1.2331
1.23304
1.23319
1.23277
1.23296
1.23263
1.2328
1.23254
1.23269
1.23251
1.23265
1.23253
1.23266
1.23258
1.23269
1.23264
1.23272
1.23268
1.23273
1.2327
1.23273
1.23501
1.23434
1.23443
1.23407
1.23423
1.23396
1.23409
1.23389
1.23399
1.23384
1.23394
1.23383
1.23391
1.23384
1.2339
1.23385
1.23387
1.23388
1.23375
1.2341
1.23517
1.23485
1.2349
1.23446
1.2345
1.23415
1.23416
1.23391
1.23391
1.23375
1.23379
1.23371
1.23377
1.23376
1.2338
1.23385
1.23378
1.23402
1.2335
1.23465
1.23553
1.23541
1.23581
1.23536
1.23555
1.2351
1.23517
1.23476
1.23477
1.23443
1.23445
1.23424
1.2343
1.23424
1.2343
1.23437
1.23432
1.23462
1.23424
1.23499
1.23533
1.23526
1.23567
1.23532
1.2355
1.23512
1.23517
1.2348
1.23476
1.23443
1.23436
1.23412
1.23409
1.23401
1.23401
1.23408
1.23407
1.23428
1.23419
1.23454
1.23547
1.23537
1.23588
1.23551
1.23576
1.23537
1.23549
1.23512
1.23514
1.23478
1.23474
1.23445
1.23443
1.23428
1.23431
1.23428
1.23435
1.23441
1.23452
1.23463
1.23542
1.23528
1.23578
1.23539
1.23566
1.23526
1.23539
1.23503
1.23507
1.23471
1.23468
1.23438
1.23437
1.23419
1.23423
1.23416
1.23425
1.23426
1.23441
1.23446
1.23542
1.23528
1.23578
1.23539
1.23566
1.23526
1.23539
1.23503
1.23507
1.23471
1.23468
1.23438
1.23437
1.23419
1.23423
1.23416
1.23425
1.23426
1.23441
1.23446
1.23547
1.23537
1.23588
1.23551
1.23576
1.23537
1.23549
1.23512
1.23514
1.23478
1.23474
1.23445
1.23444
1.23427
1.23432
1.23426
1.23437
1.23439
1.23454
1.23461
1.23533
1.23526
1.23567
1.23532
1.2355
1.23512
1.23517
1.2348
1.23477
1.23443
1.23436
1.23412
1.2341
1.23399
1.23404
1.23403
1.23413
1.23419
1.23431
1.2344
1.23553
1.23541
1.23581
1.23536
1.23555
1.2351
1.23517
1.23476
1.23477
1.23443
1.23445
1.23423
1.23432
1.23421
1.23434
1.2343
1.23444
1.23442
1.23455
1.23451
1.23517
1.23485
1.2349
1.23446
1.2345
1.23415
1.23417
1.23391
1.23391
1.23374
1.23379
1.2337
1.23378
1.23374
1.23382
1.2338
1.23387
1.23384
1.23389
1.23381
1.23501
1.23434
1.23443
1.23407
1.23423
1.23396
1.23409
1.23389
1.23399
1.23384
1.23394
1.23383
1.23392
1.23383
1.23391
1.23384
1.23389
1.23383
1.23387
1.23379
1.22542
1.21852
1.21419
1.21065
1.20793
1.2053
1.20304
1.20082
1.19896
1.19717
1.19565
1.1941
1.19273
1.19137
1.19022
1.18913
1.18826
1.18743
1.18676
1.1861
1.18559
1.18511
1.18476
1.18445
1.18425
1.18406
1.18396
1.18384
1.18379
1.1837
1.18366
1.18359
1.18355
1.18349
1.18345
1.18338
1.18334
1.18328
1.18324
1.18317
1.18313
1.18307
1.18303
1.18296
1.18292
1.18285
1.18281
1.18274
1.1827
1.18263
1.18258
1.18252
1.18247
1.18241
1.18235
1.18229
1.18224
1.18217
1.18212
1.18206
1.182
1.18194
1.18188
1.18181
1.18176
1.18169
1.18163
1.18157
1.18151
1.18144
1.18138
1.18131
1.18125
1.18118
1.18112
1.18105
1.18099
1.18092
1.18086
1.18079
1.18072
1.18066
1.18059
1.18052
1.18046
1.18039
1.18033
1.18026
1.18021
1.18015
1.22864
1.22224
1.21798
1.21449
1.2118
1.20924
1.20701
1.20479
1.20291
1.20111
1.19958
1.19804
1.19667
1.1953
1.19412
1.19301
1.19211
1.19126
1.19056
1.18989
1.18936
1.18885
1.18848
1.18814
1.18793
1.18772
1.18761
1.18748
1.18742
1.18733
1.18729
1.18722
1.18718
1.18711
1.18708
1.18701
1.18697
1.18691
1.18687
1.1868
1.18676
1.1867
1.18665
1.18659
1.18655
1.18648
1.18644
1.18637
1.18633
1.18626
1.18621
1.18615
1.1861
1.18604
1.18598
1.18592
1.18587
1.1858
1.18575
1.18569
1.18563
1.18557
1.18551
1.18544
1.18539
1.18532
1.18526
1.1852
1.18514
1.18507
1.18501
1.18494
1.18488
1.18481
1.18475
1.18468
1.18462
1.18455
1.18449
1.18442
1.18435
1.18429
1.18422
1.18415
1.18409
1.18402
1.18396
1.18388
1.18384
1.18378
1.23264
1.22783
1.22405
1.22074
1.21824
1.21586
1.21378
1.21162
1.20973
1.20791
1.20639
1.20489
1.20355
1.20217
1.20095
1.19978
1.19883
1.19794
1.19721
1.19651
1.19593
1.19538
1.19495
1.19456
1.1943
1.19406
1.19391
1.19377
1.19369
1.1936
1.19355
1.19347
1.19343
1.19336
1.19333
1.19326
1.19322
1.19316
1.19312
1.19305
1.19301
1.19294
1.1929
1.19284
1.19279
1.19273
1.19268
1.19262
1.19257
1.19251
1.19246
1.19239
1.19235
1.19228
1.19223
1.19217
1.19211
1.19205
1.192
1.19193
1.19188
1.19181
1.19175
1.19169
1.19163
1.19157
1.19151
1.19144
1.19138
1.19131
1.19125
1.19119
1.19112
1.19106
1.19099
1.19093
1.19086
1.19079
1.19073
1.19066
1.1906
1.19053
1.19046
1.19039
1.19033
1.19026
1.1902
1.19013
1.19009
1.19004
1.23406
1.23119
1.22826
1.22542
1.22327
1.22126
1.21948
1.2175
1.21568
1.21389
1.21242
1.21101
1.20976
1.20843
1.20721
1.206
1.20501
1.20408
1.20334
1.20262
1.20201
1.20141
1.20093
1.20048
1.20016
1.19988
1.1997
1.19953
1.19943
1.19933
1.19927
1.19919
1.19915
1.19908
1.19905
1.19898
1.19894
1.19888
1.19884
1.19877
1.19873
1.19866
1.19862
1.19856
1.19851
1.19845
1.1984
1.19834
1.19829
1.19823
1.19818
1.19811
1.19806
1.198
1.19795
1.19788
1.19783
1.19777
1.19771
1.19765
1.19759
1.19753
1.19747
1.1974
1.19735
1.19728
1.19722
1.19716
1.1971
1.19703
1.19697
1.1969
1.19684
1.19677
1.19671
1.19664
1.19658
1.19651
1.19644
1.19637
1.19631
1.19624
1.19617
1.1961
1.19604
1.19597
1.19591
1.19583
1.19579
1.19574
1.23498
1.23344
1.23142
1.22911
1.22742
1.22583
1.22443
1.22272
1.22106
1.21936
1.21799
1.21671
1.21558
1.21434
1.21317
1.21197
1.21097
1.21004
1.20931
1.20858
1.20797
1.20735
1.20683
1.20634
1.20598
1.20565
1.20544
1.20525
1.20514
1.20502
1.20496
1.20488
1.20484
1.20476
1.20473
1.20466
1.20462
1.20455
1.20451
1.20445
1.20441
1.20434
1.2043
1.20423
1.20419
1.20412
1.20408
1.20401
1.20397
1.2039
1.20385
1.20379
1.20374
1.20367
1.20362
1.20356
1.2035
1.20344
1.20338
1.20332
1.20326
1.2032
1.20314
1.20307
1.20302
1.20295
1.20289
1.20282
1.20276
1.2027
1.20264
1.20257
1.20251
1.20244
1.20237
1.20231
1.20224
1.20217
1.20211
1.20204
1.20197
1.2019
1.20184
1.20177
1.2017
1.20163
1.20157
1.2015
1.20145
1.2014
1.23499
1.23417
1.23283
1.23104
1.22981
1.22867
1.22767
1.22629
1.22485
1.22334
1.22212
1.22101
1.22004
1.21894
1.21787
1.21674
1.21578
1.2149
1.2142
1.21352
1.21293
1.21232
1.2118
1.21129
1.21091
1.21057
1.21034
1.21014
1.21002
1.2099
1.20983
1.20975
1.20971
1.20963
1.2096
1.20953
1.20949
1.20942
1.20938
1.20932
1.20928
1.20921
1.20917
1.2091
1.20906
1.20899
1.20895
1.20888
1.20883
1.20877
1.20872
1.20865
1.2086
1.20854
1.20849
1.20842
1.20837
1.2083
1.20825
1.20818
1.20813
1.20806
1.208
1.20794
1.20788
1.20781
1.20775
1.20769
1.20763
1.20756
1.2075
1.20743
1.20737
1.2073
1.20723
1.20716
1.2071
1.20703
1.20696
1.20689
1.20683
1.20676
1.20669
1.20662
1.20656
1.20648
1.20642
1.20635
1.20629
1.20623
1.23498
1.23445
1.23353
1.23218
1.23137
1.2306
1.22994
1.22886
1.22767
1.22638
1.22537
1.22444
1.22364
1.2227
1.22175
1.22073
1.21988
1.21908
1.21846
1.21784
1.2173
1.21672
1.21623
1.21575
1.21538
1.21504
1.21482
1.21462
1.2145
1.21438
1.21432
1.21423
1.21419
1.21412
1.21408
1.21401
1.21397
1.2139
1.21386
1.2138
1.21376
1.21369
1.21365
1.21358
1.21354
1.21347
1.21342
1.21336
1.21331
1.21325
1.2132
1.21313
1.21308
1.21301
1.21296
1.2129
1.21284
1.21278
1.21272
1.21266
1.2126
1.21253
1.21248
1.21241
1.21235
1.21228
1.21222
1.21216
1.2121
1.21203
1.21197
1.2119
1.21183
1.21176
1.2117
1.21163
1.21157
1.2115
1.21143
1.21136
1.21129
1.21122
1.21116
1.21108
1.21102
1.21095
1.21088
1.21081
1.21074
1.21068
1.23502
1.23455
1.23389
1.2329
1.23242
1.23194
1.23152
1.23066
1.22972
1.22867
1.22789
1.22715
1.22652
1.22573
1.22494
1.22407
1.22335
1.22268
1.22216
1.22162
1.22115
1.22064
1.22021
1.21977
1.21945
1.21914
1.21894
1.21876
1.21865
1.21854
1.21848
1.21839
1.21835
1.21828
1.21824
1.21817
1.21813
1.21806
1.21802
1.21795
1.21791
1.21784
1.2178
1.21773
1.21769
1.21762
1.21757
1.21751
1.21746
1.21739
1.21734
1.21728
1.21722
1.21716
1.21711
1.21704
1.21699
1.21692
1.21686
1.2168
1.21674
1.21667
1.21661
1.21655
1.21649
1.21642
1.21636
1.21629
1.21623
1.21616
1.2161
1.21603
1.21597
1.2159
1.21583
1.21576
1.2157
1.21563
1.21556
1.21549
1.21542
1.21535
1.21528
1.21521
1.21515
1.21507
1.21501
1.21494
1.21487
1.21481
1.23456
1.23412
1.23363
1.23297
1.23274
1.23246
1.23219
1.23153
1.23084
1.23006
1.22952
1.22897
1.2285
1.22787
1.22726
1.22658
1.22603
1.22551
1.22511
1.22468
1.22431
1.22389
1.22354
1.22318
1.22292
1.22267
1.22251
1.22235
1.22226
1.22216
1.2221
1.22202
1.22198
1.22191
1.22187
1.2218
1.22176
1.22169
1.22165
1.22158
1.22154
1.22147
1.22142
1.22136
1.22131
1.22124
1.2212
1.22113
1.22108
1.22101
1.22096
1.22089
1.22084
1.22077
1.22072
1.22065
1.2206
1.22053
1.22048
1.22041
1.22035
1.22028
1.22022
1.22015
1.22009
1.22003
1.21996
1.21989
1.21983
1.21976
1.2197
1.21963
1.21956
1.21949
1.21943
1.21936
1.21929
1.21922
1.21915
1.21908
1.21901
1.21894
1.21887
1.2188
1.21873
1.21866
1.21859
1.21852
1.21844
1.21837
1.23468
1.23425
1.23395
1.23349
1.23343
1.23322
1.23304
1.23255
1.2321
1.23157
1.23123
1.23085
1.23053
1.23007
1.22965
1.22917
1.22881
1.22844
1.22817
1.22784
1.22758
1.22727
1.22702
1.22676
1.22658
1.22639
1.22627
1.22614
1.22607
1.22598
1.22593
1.22585
1.22581
1.22574
1.2257
1.22563
1.22559
1.22552
1.22547
1.2254
1.22536
1.22529
1.22524
1.22517
1.22513
1.22506
1.22501
1.22494
1.22489
1.22482
1.22477
1.2247
1.22465
1.22458
1.22452
1.22445
1.2244
1.22433
1.22427
1.2242
1.22414
1.22407
1.22401
1.22394
1.22388
1.22381
1.22375
1.22368
1.22361
1.22354
1.22348
1.2234
1.22334
1.22326
1.2232
1.22312
1.22306
1.22298
1.22291
1.22284
1.22277
1.2227
1.22263
1.22255
1.22249
1.22241
1.22234
1.22227
1.2222
1.22212
1.23386
1.23355
1.23341
1.23315
1.23315
1.23299
1.2329
1.23258
1.23236
1.23205
1.23189
1.23165
1.23148
1.23119
1.23097
1.23068
1.2305
1.23027
1.23012
1.22992
1.22977
1.22957
1.22943
1.22926
1.22915
1.22902
1.22894
1.22884
1.22879
1.22871
1.22867
1.22859
1.22855
1.22848
1.22844
1.22836
1.22832
1.22825
1.22821
1.22814
1.22809
1.22802
1.22797
1.2279
1.22785
1.22778
1.22773
1.22766
1.22761
1.22754
1.22749
1.22742
1.22736
1.22729
1.22724
1.22717
1.22711
1.22704
1.22698
1.22691
1.22685
1.22677
1.22671
1.22664
1.22658
1.22651
1.22644
1.22637
1.2263
1.22623
1.22616
1.22609
1.22602
1.22595
1.22588
1.2258
1.22573
1.22566
1.22559
1.22551
1.22544
1.22536
1.22529
1.22521
1.22514
1.22507
1.22499
1.22492
1.22484
1.22477
1.23407
1.23385
1.23383
1.23365
1.23366
1.23351
1.23349
1.23331
1.23324
1.23307
1.23302
1.23288
1.23282
1.23266
1.23258
1.23244
1.23237
1.23224
1.23218
1.23206
1.232
1.23188
1.23182
1.23171
1.23166
1.23157
1.23152
1.23144
1.2314
1.23132
1.23128
1.23121
1.23117
1.2311
1.23105
1.23098
1.23094
1.23087
1.23082
1.23075
1.23071
1.23063
1.23059
1.23052
1.23047
1.2304
1.23035
1.23028
1.23022
1.23015
1.2301
1.23003
1.22997
1.2299
1.22985
1.22977
1.22972
1.22964
1.22958
1.22951
1.22945
1.22938
1.22932
1.22924
1.22918
1.22911
1.22904
1.22897
1.2289
1.22883
1.22876
1.22869
1.22862
1.22854
1.22847
1.2284
1.22832
1.22825
1.22818
1.2281
1.22803
1.22795
1.22788
1.2278
1.22772
1.22765
1.22757
1.2275
1.22742
1.22735
1.22189
1.2144
1.20982
1.20638
1.20355
1.20099
1.19869
1.19654
1.19467
1.19293
1.19139
1.18988
1.1885
1.18717
1.18602
1.18497
1.1841
1.1833
1.18263
1.18199
1.18149
1.18103
1.18069
1.1804
1.18021
1.18003
1.17993
1.17983
1.17977
1.17969
1.17965
1.17959
1.17955
1.17949
1.17945
1.17939
1.17935
1.17929
1.17925
1.17918
1.17914
1.17908
1.17904
1.17897
1.17893
1.17887
1.17882
1.17876
1.17871
1.17865
1.1786
1.17854
1.17849
1.17842
1.17837
1.17831
1.17826
1.17819
1.17814
1.17807
1.17802
1.17796
1.1779
1.17783
1.17778
1.17771
1.17765
1.17759
1.17753
1.17746
1.1774
1.17733
1.17727
1.1772
1.17714
1.17707
1.17701
1.17694
1.17687
1.17681
1.17674
1.17667
1.1766
1.17653
1.17646
1.17639
1.17632
1.17625
1.17616
1.17609
1.22822
1.22183
1.21741
1.21397
1.21121
1.2087
1.20643
1.20426
1.20235
1.20057
1.19901
1.1975
1.19611
1.19475
1.19356
1.19245
1.19154
1.19069
1.18999
1.18933
1.18879
1.18829
1.18791
1.18758
1.18736
1.18716
1.18704
1.18692
1.18686
1.18677
1.18673
1.18666
1.18663
1.18656
1.18652
1.18646
1.18642
1.18636
1.18632
1.18625
1.18621
1.18615
1.18611
1.18604
1.186
1.18594
1.18589
1.18583
1.18578
1.18572
1.18567
1.18561
1.18556
1.18549
1.18544
1.18538
1.18533
1.18526
1.18521
1.18514
1.18509
1.18502
1.18497
1.1849
1.18485
1.18478
1.18472
1.18466
1.1846
1.18453
1.18447
1.1844
1.18434
1.18427
1.18421
1.18414
1.18408
1.18401
1.18394
1.18387
1.18381
1.18374
1.18367
1.1836
1.18353
1.18346
1.18339
1.18332
1.18323
1.18316
1.2312
1.22687
1.22306
1.21993
1.21739
1.21513
1.21303
1.21093
1.20901
1.20722
1.20568
1.20421
1.20286
1.20149
1.20026
1.19909
1.19812
1.19723
1.19649
1.19579
1.19521
1.19465
1.19422
1.19382
1.19355
1.19331
1.19316
1.19302
1.19294
1.19285
1.1928
1.19273
1.19269
1.19262
1.19259
1.19252
1.19249
1.19242
1.19238
1.19232
1.19228
1.19222
1.19218
1.19211
1.19207
1.192
1.19196
1.19189
1.19185
1.19178
1.19174
1.19167
1.19162
1.19156
1.19151
1.19144
1.19139
1.19133
1.19127
1.19121
1.19116
1.19109
1.19103
1.19097
1.19091
1.19085
1.19079
1.19072
1.19066
1.19059
1.19053
1.19047
1.1904
1.19034
1.19027
1.1902
1.19014
1.19007
1.19
1.18994
1.18987
1.1898
1.18973
1.18966
1.18959
1.18952
1.18944
1.18938
1.18929
1.18922
1.23323
1.23087
1.22806
1.22544
1.22332
1.22143
1.21966
1.21775
1.21591
1.21414
1.21265
1.21126
1.20999
1.20867
1.20744
1.20623
1.20521
1.20428
1.20352
1.20279
1.20217
1.20156
1.20107
1.20061
1.20028
1.19999
1.1998
1.19963
1.19953
1.19942
1.19937
1.19929
1.19925
1.19918
1.19915
1.19908
1.19904
1.19898
1.19894
1.19888
1.19884
1.19877
1.19873
1.19867
1.19862
1.19856
1.19851
1.19845
1.1984
1.19834
1.19829
1.19823
1.19818
1.19811
1.19806
1.198
1.19794
1.19788
1.19783
1.19776
1.19771
1.19764
1.19758
1.19752
1.19746
1.19739
1.19734
1.19727
1.19721
1.19714
1.19708
1.19701
1.19695
1.19688
1.19682
1.19675
1.19669
1.19662
1.19655
1.19648
1.19641
1.19634
1.19628
1.19621
1.19614
1.19606
1.19599
1.19592
1.19584
1.19577
1.23349
1.23249
1.2306
1.22863
1.22701
1.22563
1.22428
1.22269
1.22103
1.21937
1.21798
1.21673
1.2156
1.21439
1.21321
1.21201
1.21098
1.21005
1.20929
1.20857
1.20794
1.20731
1.20678
1.20628
1.2059
1.20556
1.20534
1.20514
1.20503
1.20491
1.20485
1.20477
1.20473
1.20466
1.20462
1.20456
1.20452
1.20445
1.20442
1.20435
1.20431
1.20425
1.2042
1.20414
1.2041
1.20403
1.20399
1.20392
1.20387
1.20381
1.20376
1.2037
1.20365
1.20358
1.20353
1.20347
1.20342
1.20335
1.2033
1.20323
1.20318
1.20311
1.20305
1.20299
1.20293
1.20286
1.2028
1.20274
1.20268
1.20261
1.20255
1.20248
1.20242
1.20235
1.20228
1.20222
1.20215
1.20208
1.20201
1.20194
1.20188
1.20181
1.20174
1.20167
1.2016
1.20152
1.20145
1.20138
1.2013
1.20123
1.23378
1.23346
1.23223
1.23081
1.22968
1.22876
1.22785
1.2266
1.22518
1.22369
1.22247
1.22137
1.22042
1.21934
1.21826
1.21713
1.21615
1.21525
1.21453
1.21384
1.21324
1.21262
1.21208
1.21156
1.21116
1.2108
1.21056
1.21035
1.21022
1.2101
1.21003
1.20995
1.2099
1.20983
1.20979
1.20973
1.20969
1.20962
1.20959
1.20952
1.20948
1.20942
1.20937
1.20931
1.20926
1.2092
1.20915
1.20909
1.20904
1.20898
1.20893
1.20886
1.20881
1.20875
1.2087
1.20863
1.20858
1.20851
1.20846
1.20839
1.20834
1.20827
1.20822
1.20815
1.20809
1.20802
1.20796
1.2079
1.20784
1.20777
1.20771
1.20764
1.20758
1.20751
1.20744
1.20737
1.20731
1.20724
1.20717
1.2071
1.20703
1.20696
1.20689
1.20682
1.20675
1.20668
1.20661
1.20654
1.20646
1.20639
1.23376
1.23368
1.23282
1.23182
1.2311
1.23057
1.23002
1.22906
1.22791
1.22666
1.22565
1.22475
1.22397
1.22306
1.22211
1.2211
1.22022
1.21941
1.21877
1.21815
1.2176
1.21702
1.21651
1.21601
1.21562
1.21527
1.21503
1.21482
1.2147
1.21457
1.21451
1.21442
1.21438
1.21431
1.21427
1.2142
1.21416
1.2141
1.21406
1.21399
1.21395
1.21389
1.21384
1.21378
1.21373
1.21367
1.21362
1.21356
1.21351
1.21344
1.2134
1.21333
1.21328
1.21321
1.21316
1.2131
1.21304
1.21298
1.21292
1.21286
1.2128
1.21274
1.21268
1.21261
1.21255
1.21249
1.21243
1.21236
1.2123
1.21223
1.21217
1.2121
1.21204
1.21197
1.2119
1.21183
1.21177
1.2117
1.21163
1.21156
1.21149
1.21142
1.21135
1.21128
1.21121
1.21114
1.21106
1.21099
1.21091
1.21085
1.23351
1.23343
1.23278
1.23209
1.23169
1.23144
1.23111
1.2304
1.2295
1.22852
1.22775
1.22706
1.22645
1.2257
1.22492
1.22406
1.22333
1.22266
1.22213
1.22159
1.22112
1.22061
1.22016
1.21972
1.21937
1.21906
1.21885
1.21866
1.21855
1.21843
1.21837
1.21829
1.21824
1.21817
1.21814
1.21807
1.21803
1.21796
1.21793
1.21786
1.21782
1.21775
1.21771
1.21764
1.2176
1.21753
1.21749
1.21742
1.21737
1.21731
1.21726
1.21719
1.21714
1.21708
1.21702
1.21696
1.2169
1.21684
1.21678
1.21672
1.21666
1.21659
1.21654
1.21647
1.21641
1.21634
1.21628
1.21621
1.21615
1.21608
1.21602
1.21595
1.21589
1.21582
1.21575
1.21568
1.21562
1.21554
1.21548
1.21541
1.21534
1.21527
1.21519
1.21512
1.21505
1.21498
1.2149
1.21483
1.21475
1.21467
1.23362
1.23344
1.23296
1.23249
1.23232
1.2322
1.23199
1.23144
1.23077
1.23004
1.2295
1.22899
1.22854
1.22793
1.22732
1.22664
1.22608
1.22556
1.22515
1.22471
1.22433
1.22391
1.22355
1.22318
1.2229
1.22264
1.22247
1.22231
1.22222
1.22211
1.22206
1.22198
1.22194
1.22187
1.22183
1.22176
1.22172
1.22166
1.22162
1.22155
1.22151
1.22144
1.2214
1.22133
1.22128
1.22122
1.22117
1.2211
1.22106
1.22099
1.22094
1.22087
1.22082
1.22075
1.2207
1.22063
1.22058
1.22051
1.22046
1.22039
1.22033
1.22026
1.22021
1.22014
1.22008
1.22001
1.21995
1.21988
1.21982
1.21975
1.21968
1.21961
1.21955
1.21948
1.21941
1.21934
1.21927
1.2192
1.21914
1.21906
1.21899
1.21892
1.21885
1.21878
1.2187
1.21863
1.21856
1.21849
1.2184
1.21833
1.23291
1.23276
1.23242
1.23217
1.23214
1.23209
1.23194
1.23153
1.23108
1.2306
1.23027
1.22992
1.2296
1.22915
1.22871
1.22823
1.22785
1.22748
1.22719
1.22687
1.22659
1.22627
1.22601
1.22573
1.22554
1.22534
1.22522
1.22509
1.22502
1.22493
1.22488
1.2248
1.22476
1.22469
1.22465
1.22459
1.22455
1.22448
1.22444
1.22437
1.22433
1.22426
1.22421
1.22415
1.2241
1.22403
1.22398
1.22391
1.22387
1.2238
1.22375
1.22368
1.22363
1.22356
1.2235
1.22344
1.22338
1.22331
1.22325
1.22319
1.22313
1.22306
1.223
1.22293
1.22287
1.2228
1.22274
1.22267
1.2226
1.22253
1.22247
1.2224
1.22233
1.22226
1.22219
1.22212
1.22205
1.22198
1.22191
1.22183
1.22176
1.22169
1.22162
1.22154
1.22147
1.22139
1.22131
1.22124
1.22116
1.22108
1.23325
1.23312
1.23294
1.2328
1.23281
1.23275
1.23264
1.23236
1.2321
1.23181
1.23164
1.23141
1.23121
1.23091
1.23065
1.23034
1.23013
1.22989
1.22972
1.2295
1.22932
1.2291
1.22894
1.22875
1.22863
1.22849
1.22841
1.22831
1.22826
1.22817
1.22813
1.22806
1.22802
1.22795
1.22791
1.22784
1.2278
1.22773
1.22768
1.22761
1.22757
1.2275
1.22745
1.22738
1.22733
1.22727
1.22722
1.22715
1.2271
1.22703
1.22697
1.2269
1.22685
1.22678
1.22672
1.22665
1.2266
1.22653
1.22647
1.2264
1.22634
1.22627
1.22621
1.22614
1.22607
1.226
1.22594
1.22586
1.2258
1.22573
1.22566
1.22559
1.22552
1.22545
1.22538
1.2253
1.22523
1.22516
1.22509
1.22501
1.22494
1.22486
1.22479
1.22471
1.22464
1.22456
1.22448
1.22441
1.22433
1.22425
1.23255
1.23248
1.23242
1.23235
1.23236
1.23229
1.23224
1.2321
1.23202
1.23188
1.23182
1.23169
1.23162
1.23147
1.23137
1.23122
1.23114
1.23102
1.23095
1.23082
1.23075
1.23063
1.23056
1.23045
1.23039
1.2303
1.23025
1.23017
1.23013
1.23005
1.23002
1.22994
1.2299
1.22983
1.22979
1.22972
1.22968
1.22961
1.22956
1.22949
1.22945
1.22938
1.22933
1.22926
1.22921
1.22914
1.22909
1.22902
1.22897
1.2289
1.22884
1.22877
1.22872
1.22865
1.22859
1.22852
1.22846
1.22839
1.22833
1.22826
1.2282
1.22813
1.22806
1.22799
1.22793
1.22785
1.22779
1.22772
1.22765
1.22758
1.22751
1.22743
1.22736
1.22729
1.22722
1.22714
1.22707
1.22699
1.22692
1.22684
1.22677
1.22669
1.22662
1.22654
1.22646
1.22638
1.2263
1.22623
1.22614
1.22606
1.2195
1.20981
1.20456
1.2008
1.19775
1.19504
1.19265
1.19048
1.1886
1.18685
1.18527
1.18374
1.18235
1.18103
1.17991
1.17889
1.17804
1.17725
1.1766
1.17599
1.17552
1.17509
1.17479
1.17452
1.17436
1.1742
1.17412
1.17402
1.17397
1.1739
1.17386
1.1738
1.17376
1.1737
1.17367
1.1736
1.17357
1.1735
1.17346
1.1734
1.17336
1.1733
1.17326
1.1732
1.17315
1.17309
1.17305
1.17298
1.17294
1.17287
1.17283
1.17276
1.17271
1.17265
1.1726
1.17254
1.17249
1.17242
1.17237
1.17231
1.17225
1.17219
1.17213
1.17207
1.17201
1.17194
1.17189
1.17182
1.17176
1.1717
1.17164
1.17157
1.17151
1.17144
1.17138
1.17131
1.17125
1.17118
1.17111
1.17105
1.17098
1.17091
1.17084
1.17077
1.1707
1.17063
1.17056
1.1705
1.1704
1.17033
1.22912
1.22193
1.21684
1.21307
1.21004
1.20736
1.20495
1.2027
1.20073
1.19891
1.1973
1.19574
1.19431
1.19292
1.19172
1.1906
1.18968
1.18882
1.18811