/*--------------------------------*- C++ -*----------------------------------*\
  =========                 |
  \\      /  F ield         | OpenFOAM: The Open Source CFD Toolbox
   \\    /   O peration     | Website:  https://openfoam.org
    \\  /    A nd           | Version:  7
     \\/     M anipulation  |
\*---------------------------------------------------------------------------*/
FoamFile
{
    version     2.0;
    format      ascii;
    class       volSymmTensorField;
    location    "2.09";
    object      UPrime2Mean;
}
// * * * * * * * * * * * * * * * * * * * * * * * * * * * * * * * * * * * * * //

dimensions      [0 2 -2 0 0 0 0];

internalField   nonuniform List<symmTensor> 
4950
(
(0.00672612 -0.00235053 -0.000494724 0.00153056 0.000349789 0.00013358)
(0.0351088 -0.00376616 -0.00192872 0.000504837 0.000248677 0.000304979)
(0.0656169 -0.00223787 -0.00285517 9.61646e-05 0.00013278 0.000437013)
(0.0993163 -0.000101451 -0.00348733 5.1927e-06 2.90781e-05 0.000500219)
(0.112289 0.000956585 -0.00381919 1.44658e-05 -1.37584e-05 0.000556784)
(0.131565 0.0014429 -0.00402384 2.56134e-05 -2.38927e-05 0.000559575)
(0.135746 0.00148463 -0.00416034 2.78162e-05 -2.24545e-05 0.000558431)
(0.148783 0.00150049 -0.00420318 2.7441e-05 -1.39983e-05 0.00051881)
(0.150372 0.00134543 -0.0042361 2.47981e-05 -7.40451e-06 0.000488542)
(0.160411 0.00129421 -0.00419151 2.26809e-05 -3.26306e-06 0.000441087)
(0.161104 0.00111029 -0.00416618 1.92343e-05 -9.6445e-07 0.000411254)
(0.169124 0.00109416 -0.00407779 1.77318e-05 -2.36707e-06 0.00037556)
(0.169465 0.00087377 -0.00402066 1.41412e-05 2.97808e-07 0.000358067)
(0.175857 0.000961851 -0.00391287 1.45414e-05 -5.68489e-06 0.000340113)
(0.176234 0.000627528 -0.00383582 9.30667e-06 2.15008e-06 0.000335565)
(0.181231 0.000904432 -0.00372999 1.32078e-05 -1.18313e-05 0.000335788)
(0.181905 9.66991e-05 -0.00363754 2.95026e-06 1.21482e-05 0.000336018)
(0.186802 0.000632836 -0.00358703 1.13675e-05 -1.97782e-05 0.000354041)
(0.183106 -0.00353825 -0.00340221 0.000115037 7.62907e-05 0.00034287)
(0.21089 -0.000248489 -0.00280066 0.000120453 4.20123e-05 0.000362149)
(0.00385011 0.00122038 0.000277941 0.00267584 0.000428807 0.000133074)
(0.00449368 0.000622499 0.000263869 0.00262802 0.000629806 0.000432773)
(0.00868632 -0.000135154 0.000236427 0.00202143 0.000698649 0.000800674)
(0.0127884 -0.00158459 -0.000440488 0.00121561 0.000604472 0.00112354)
(0.0203958 -0.00200011 -0.000907453 0.00071368 0.000492219 0.00148318)
(0.0303842 -0.00235822 -0.00166337 0.000456004 0.000386116 0.00174481)
(0.0409196 -0.00234055 -0.00217773 0.000298131 0.000284708 0.00195217)
(0.05347 -0.00233272 -0.00287615 0.000208967 0.000204694 0.00199923)
(0.0647119 -0.00217816 -0.00328776 0.000150946 0.00014092 0.00196145)
(0.0773442 -0.00203211 -0.00379345 0.000113858 9.7188e-05 0.00182642)
(0.0879797 -0.00183879 -0.00401568 8.81724e-05 6.74763e-05 0.00165309)
(0.0996111 -0.00165994 -0.00430175 7.09252e-05 5.21224e-05 0.0014635)
(0.109145 -0.00146137 -0.00436278 5.75852e-05 3.90877e-05 0.00127533)
(0.119581 -0.00129167 -0.00445729 5.00781e-05 4.63209e-05 0.00111852)
(0.127882 -0.00112995 -0.00437471 3.9517e-05 3.48958e-05 0.000974943)
(0.137709 -0.000876992 -0.00429679 3.69994e-05 5.91894e-05 0.000901378)
(0.143676 -0.000880732 -0.00409558 2.39988e-05 3.94287e-05 0.000813437)
(0.155415 0.00030903 -0.00395562 1.97017e-05 2.00703e-05 0.000843589)
(0.15282 -0.000444659 -0.0036106 2.78991e-05 7.52835e-05 0.000782386)
(0.164742 0.00549273 -0.00285167 0.000409649 -0.000308099 0.000866756)
(0.00459095 0.00104243 0.00038374 0.000910864 0.000241886 0.000132269)
(0.00877127 0.00208423 0.00097608 0.00108429 0.000404737 0.000457528)
(0.0230776 0.00379451 0.00232476 0.00117616 0.000572051 0.00087579)
(0.0294343 0.00358164 0.00294799 0.000922331 0.00057015 0.00126947)
(0.041309 0.0033289 0.00397449 0.000677205 0.000534749 0.00173131)
(0.0447065 0.00262126 0.00423707 0.000511141 0.000455906 0.00216494)
(0.0534429 0.00214064 0.00479198 0.000374141 0.000364512 0.00260298)
(0.0560524 0.00159175 0.00454838 0.000282395 0.000269836 0.00291297)
(0.0634821 0.00127586 0.00457342 0.000210916 0.000192647 0.00311039)
(0.0665881 0.000927279 0.00401353 0.000158727 0.000124642 0.00314373)
(0.0735581 0.000768576 0.00385265 0.000121565 8.17813e-05 0.00306965)
(0.07743 0.000548531 0.00330806 9.06917e-05 4.75029e-05 0.00289519)
(0.0842681 0.000499919 0.00314992 7.31813e-05 3.06984e-05 0.0026614)
(0.0886684 0.000329171 0.00272824 5.21515e-05 2.18277e-05 0.0023856)
(0.0956548 0.000347861 0.00265248 4.86061e-05 1.42978e-05 0.00209176)
(0.0999409 0.000207242 0.00250278 2.80319e-05 1.40113e-05 0.00180741)
(0.107816 0.000307643 0.00260767 4.15521e-05 2.67235e-05 0.00154744)
(0.110842 0.000108677 0.00283756 9.96171e-06 -3.64521e-05 0.00135312)
(0.119809 0.000810914 0.00297915 5.10976e-05 8.74849e-05 0.00118199)
(0.122251 0.000526207 0.00391349 0.000261603 -0.000335898 0.00114284)
(0.00450901 0.000576062 0.000348977 0.00026096 0.00012147 0.000121422)
(0.00797038 0.00107121 0.000846127 0.000320438 0.000215571 0.000435783)
(0.0243837 0.00235337 0.00229862 0.000373285 0.000314146 0.000853701)
(0.0364035 0.00263841 0.00335678 0.000317771 0.000338041 0.00124886)
(0.058714 0.00295707 0.00497114 0.000256945 0.000330495 0.00171844)
(0.0719345 0.00287327 0.00600276 0.000216106 0.000304157 0.0021731)
(0.0943169 0.00291764 0.00729623 0.000178278 0.000257698 0.00265412)
(0.106372 0.00276813 0.00779405 0.000152075 0.000211713 0.00304265)
(0.127316 0.00275191 0.00839715 0.000127767 0.000163639 0.00332782)
(0.138304 0.00259056 0.00834591 0.000108698 0.000124299 0.0034717)
(0.157495 0.00253698 0.00854858 9.1775e-05 9.03333e-05 0.00348823)
(0.167868 0.00239521 0.00832345 7.75441e-05 6.77168e-05 0.00340892)
(0.18515 0.00230427 0.00839281 6.60236e-05 4.74133e-05 0.00325084)
(0.195508 0.00221742 0.00812209 5.49267e-05 4.43586e-05 0.00302107)
(0.210616 0.00202957 0.00813758 4.80611e-05 3.01981e-05 0.00276341)
(0.221728 0.00201913 0.00798808 3.67976e-05 3.71907e-05 0.00243898)
(0.233771 0.00168349 0.00814114 3.55255e-05 3.14495e-05 0.00215275)
(0.247586 0.00135367 0.00839237 1.65515e-05 -1.73848e-08 0.00184864)
(0.251977 0.00144007 0.0085917 2.74596e-05 4.92928e-05 0.00159852)
(0.278755 -0.00176135 0.0102757 3.80827e-05 -0.000202176 0.00149486)
(0.00449159 -8.6913e-09 0.000360523 1.43863e-10 -1.80162e-11 0.000126486)
(0.00773636 2.46255e-09 0.0008442 1.52816e-10 -1.35576e-09 0.00045254)
(0.0244539 7.42915e-11 0.0023905 1.11551e-10 -2.43806e-09 0.000875921)
(0.0374031 4.08738e-09 0.00349209 5.3116e-11 -3.91903e-09 0.00127622)
(0.0615201 -1.9825e-08 0.00530109 4.9046e-11 -3.98037e-09 0.00174532)
(0.0769105 1.85894e-08 0.00641407 6.43851e-11 -7.39994e-09 0.00220342)
(0.102774 -2.25318e-08 0.00797929 8.64968e-11 -8.97021e-09 0.00269212)
(0.118301 5.02062e-08 0.0085789 1.06076e-10 -4.01979e-09 0.00309246)
(0.144383 1.14232e-07 0.00948709 1.27149e-10 -1.71774e-08 0.00340359)
(0.159641 3.80311e-07 0.0095246 1.4796e-10 1.92493e-08 0.00356312)
(0.18509 5.38068e-07 0.0100165 1.74348e-10 -4.36955e-08 0.00361656)
(0.199792 1.22555e-06 0.00985259 1.98016e-10 1.02829e-07 0.00355097)
(0.224233 1.69557e-06 0.0101895 2.5975e-10 -9.45068e-08 0.00343016)
(0.238111 5.33516e-06 0.00993627 4.03354e-10 2.54061e-07 0.00321018)
(0.261629 3.22963e-06 0.0102006 5.68147e-10 -5.45518e-08 0.00298147)
(0.274054 1.83712e-05 0.00997402 2.11438e-09 3.7095e-07 0.00265413)
(0.296572 6.18814e-06 0.0103958 1.9579e-09 4.38311e-07 0.00237369)
(0.308214 4.48143e-05 0.0104967 1.2555e-08 3.13153e-07 0.00205365)
(0.323287 1.16733e-05 0.011011 7.4454e-09 1.20139e-06 0.00177601)
(0.342173 3.63053e-05 0.0126977 1.91218e-08 5.35873e-07 0.00168642)
(0.00450902 -0.000576078 0.000348981 0.000260957 -0.000121473 0.000121422)
(0.00797038 -0.00107119 0.000846113 0.000320436 -0.000215568 0.000435789)
(0.0243837 -0.00235337 0.00229866 0.000373282 -0.000314159 0.000853687)
(0.0364035 -0.0026384 0.00335668 0.00031777 -0.000338033 0.00124889)
(0.058714 -0.00295711 0.00497133 0.000256942 -0.000330524 0.0017184)
(0.0719347 -0.00287326 0.00600242 0.000216099 -0.000304135 0.00217312)
(0.0943168 -0.00291767 0.00729684 0.000178269 -0.000257758 0.00265419)
(0.106372 -0.00276814 0.00779306 0.000152058 -0.000211651 0.00304238)
(0.127316 -0.00275165 0.00839884 0.000127735 -0.000163734 0.00332848)
(0.138306 -0.00259022 0.00834327 0.000108669 -0.000124201 0.00347049)
(0.157495 -0.00253589 0.00855274 9.16862e-05 -9.04306e-05 0.00349015)
(0.167872 -0.00239428 0.00831722 7.74721e-05 -6.75885e-05 0.0034064)
(0.18515 -0.00230097 0.00840227 6.58326e-05 -4.74632e-05 0.00325369)
(0.19552 -0.002213 0.00810846 5.47239e-05 -4.41525e-05 0.00301864)
(0.210622 -0.00202231 0.00815727 4.77386e-05 -3.01002e-05 0.0027648)
(0.221758 -0.00200425 0.00796192 3.62777e-05 -3.6637e-05 0.0024395)
(0.233801 -0.00166963 0.00817438 3.50144e-05 -3.07547e-05 0.00215023)
(0.247646 -0.00131657 0.00835709 1.589e-05 1.60243e-06 0.00185348)
(0.252064 -0.00139927 0.00862662 2.64135e-05 -4.67464e-05 0.00159163)
(0.278865 0.00181979 0.010268 3.92326e-05 0.000204536 0.00150521)
(0.00459097 -0.00104244 0.000383745 0.00091086 -0.000241891 0.00013227)
(0.00877129 -0.00208423 0.00097606 0.00108429 -0.000404727 0.000457533)
(0.0230776 -0.00379451 0.00232482 0.00117616 -0.000572077 0.000875778)
(0.0294343 -0.00358164 0.00294788 0.000922326 -0.00057012 0.00126952)
(0.041309 -0.00332894 0.00397468 0.000677202 -0.000534807 0.00173124)
(0.0447067 -0.00262127 0.00423677 0.000511129 -0.000455843 0.002165)
(0.0534429 -0.00214069 0.00479248 0.000374133 -0.000364629 0.00260301)
(0.0560528 -0.00159182 0.00454768 0.000282368 -0.0002697 0.00291268)
(0.0634821 -0.00127581 0.0045746 0.000210891 -0.000192851 0.00311135)
(0.0665892 -0.000927174 0.00401174 0.000158681 -0.000124415 0.00314183)
(0.0735579 -0.000768375 0.00385581 0.000121499 -8.20675e-05 0.00307315)
(0.0774334 -0.000548248 0.00330266 9.06048e-05 -4.71382e-05 0.00289015)
(0.0842675 -0.000499549 0.00316023 7.30454e-05 -3.11381e-05 0.00266819)
(0.0886787 -0.000326828 0.00271022 5.19601e-05 -2.10984e-05 0.00237816)
(0.0956531 -0.000348798 0.00268521 4.84175e-05 -1.5024e-05 0.00209927)
(0.0999664 -0.000198557 0.00245033 2.76462e-05 -1.25393e-05 0.00180145)
(0.107816 -0.000314865 0.0026919 4.12815e-05 -2.75992e-05 0.00155159)
(0.110897 -8.64329e-05 0.00272241 9.69144e-06 3.83411e-05 0.00135119)
(0.119831 -0.000828181 0.00313692 5.01936e-05 -8.82644e-05 0.00118076)
(0.122358 -0.000488887 0.0037471 0.000260134 0.000336848 0.00115033)
(0.00385013 -0.0012204 0.000277943 0.00267583 -0.000428809 0.000133075)
(0.00449371 -0.000622483 0.000263865 0.00262802 -0.000629797 0.000432776)
(0.00868634 0.000135137 0.000236417 0.00202142 -0.000698664 0.000800676)
(0.0127884 0.00158458 -0.000440467 0.00121561 -0.000604451 0.00112357)
(0.0203958 0.00200004 -0.000907576 0.000713675 -0.000492252 0.00148315)
(0.0303841 0.00235819 -0.00166312 0.000456002 -0.000386076 0.0017449)
(0.0409194 0.00234044 -0.00217828 0.000298122 -0.000284773 0.00195216)
(0.0534694 0.0023326 -0.00287507 0.000208963 -0.000204613 0.0019993)
(0.0647115 0.00217792 -0.00328982 0.000150925 -0.00014103 0.00196182)
(0.077342 0.00203201 -0.0037899 0.000113852 -9.7058e-05 0.00182576)
(0.0879783 0.0018381 -0.00402165 8.81265e-05 -6.76164e-05 0.00165492)
(0.0996035 0.00165946 -0.00429261 7.0906e-05 -5.19539e-05 0.00146056)
(0.10914 0.00145981 -0.00437609 5.75033e-05 -3.9248e-05 0.00128052)
(0.119561 0.00129013 -0.00443972 5.00098e-05 -4.59822e-05 0.00111101)
(0.127861 0.00112675 -0.00439549 3.9389e-05 -3.52906e-05 0.000986082)
(0.137664 0.000871585 -0.00427689 3.68194e-05 -5.79377e-05 0.000886193)
(0.143598 0.000874694 -0.00410818 2.3809e-05 -4.04745e-05 0.000833371)
(0.155332 -0.000314006 -0.00396439 1.95653e-05 -1.75129e-05 0.000819803)
(0.152612 0.000426708 -0.00358634 2.7647e-05 -7.76244e-05 0.000800534)
(0.164662 -0.00545747 -0.00291741 0.000405724 0.000286558 0.000874231)
(0.00672616 0.00235051 -0.000494704 0.00153055 -0.000349777 0.00013358)
(0.035109 0.00376617 -0.00192869 0.000504832 -0.000248671 0.000304988)
(0.0656169 0.00223785 -0.00285515 9.61639e-05 -0.00013278 0.000437029)
(0.0993164 0.00010149 -0.00348738 5.19234e-06 -2.90818e-05 0.000500251)
(0.112289 -0.000956585 -0.0038194 1.4465e-05 1.37564e-05 0.000556821)
(0.131565 -0.00144287 -0.00402388 2.56131e-05 2.38854e-05 0.000559636)
(0.135746 -0.00148461 -0.00416075 2.78148e-05 2.24551e-05 0.000558481)
(0.148782 -0.00150052 -0.00420295 2.74417e-05 1.39844e-05 0.000518889)
(0.150371 -0.00134537 -0.00423701 2.47956e-05 7.41106e-06 0.000488608)
(0.160409 -0.00129425 -0.00419044 2.26829e-05 3.24139e-06 0.000441122)
(0.161102 -0.00111004 -0.0041685 1.92283e-05 9.74618e-07 0.000411419)
(0.169119 -0.00109437 -0.00407442 1.77335e-05 2.34734e-06 0.000375375)
(0.169461 -0.000873017 -0.00402666 1.413e-05 -3.03075e-07 0.000358629)
(0.175844 -0.000962149 -0.0039037 1.45419e-05 5.67445e-06 0.00033916)
(0.176219 -0.000625696 -0.0038507 9.29282e-06 -2.22779e-06 0.000337499)
(0.181203 -0.000905269 -0.00370784 1.32112e-05 1.18256e-05 0.000332371)
(0.181854 -9.27881e-05 -0.00367004 2.94011e-06 -1.2509e-05 0.000342067)
(0.186752 -0.000634593 -0.00354852 1.13753e-05 1.95152e-05 0.000344203)
(0.182989 0.00352836 -0.00340469 0.000114668 -7.76077e-05 0.000356296)
(0.210759 0.000232791 -0.00304473 0.00011929 -3.13176e-05 0.000350129)
(0.0035564 0.000113575 1.76715e-05 0.000534324 3.72158e-06 3.55226e-07)
(0.0147485 -0.00325317 7.18845e-07 0.00101695 2.2275e-06 2.8881e-07)
(0.0365858 -0.0052939 1.38083e-05 0.000995 1.97454e-06 3.24241e-07)
(0.0903656 -0.00625666 2.95798e-05 0.000503175 -1.0498e-06 2.82625e-07)
(0.116366 -0.00479451 3.29026e-05 0.000235867 -1.67171e-08 3.09829e-07)
(0.168468 -0.00367017 5.22658e-05 9.68711e-05 -3.64702e-07 2.6751e-07)
(0.177273 -0.00253679 4.35091e-05 4.88467e-05 4.67573e-07 2.89849e-07)
(0.215959 -0.00206842 6.02817e-05 2.90831e-05 3.82511e-07 2.4902e-07)
(0.215024 -0.00164879 4.66593e-05 2.19732e-05 8.11558e-07 2.69691e-07)
(0.245218 -0.00159043 6.24015e-05 1.90732e-05 6.51077e-07 2.32416e-07)
(0.241054 -0.00140141 4.74225e-05 1.72295e-05 8.90043e-07 2.51204e-07)
(0.265909 -0.0014727 6.29456e-05 1.72926e-05 7.31972e-07 2.17375e-07)
(0.260977 -0.00127362 4.7696e-05 1.53555e-05 8.65716e-07 2.33253e-07)
(0.281986 -0.0014331 6.32755e-05 1.78268e-05 8.47864e-07 2.0237e-07)
(0.276938 -0.00109492 4.80952e-05 1.31586e-05 7.07735e-07 2.15056e-07)
(0.295376 -0.00138361 6.42559e-05 2.12916e-05 1.13881e-06 1.87052e-07)
(0.288991 -0.00048129 4.85313e-05 7.09912e-06 -4.45633e-08 1.96948e-07)
(0.306771 -0.000801546 6.79341e-05 3.05153e-05 1.73039e-06 1.71709e-07)
(0.291314 0.00488493 4.63957e-05 0.000206643 -2.03586e-06 1.80553e-07)
(0.286272 0.00844469 7.98943e-05 0.000472672 -1.44728e-06 1.52688e-07)
(0.00438063 0.000552484 1.50613e-05 0.000296166 9.71426e-07 2.73168e-07)
(0.00442825 0.000560918 6.99206e-06 0.00122434 -1.87532e-06 2.34943e-07)
(0.0112115 0.00205793 2.67219e-05 0.00171207 -3.92939e-06 2.5657e-07)
(0.0104781 0.000395796 2.34593e-05 0.00146928 -7.71847e-06 2.27623e-07)
(0.0156525 6.55367e-05 4.05682e-05 0.00101722 -6.13491e-06 2.42722e-07)
(0.0190063 -0.0011404 4.22343e-05 0.000606167 -6.00362e-06 2.118e-07)
(0.0255946 -0.00127525 5.60108e-05 0.000355773 -4.30053e-06 2.23506e-07)
(0.0345244 -0.00156027 5.90685e-05 0.000209799 -3.67988e-06 1.93369e-07)
(0.0426554 -0.00141753 6.90978e-05 0.000128216 -2.65415e-06 2.04714e-07)
(0.0548926 -0.00137482 7.21822e-05 8.21205e-05 -2.16933e-06 1.77358e-07)
(0.0633697 -0.00118165 7.89465e-05 5.37082e-05 -1.5733e-06 1.88053e-07)
(0.0767997 -0.00107004 8.16447e-05 3.66857e-05 -1.26997e-06 1.63349e-07)
(0.0848338 -0.000910437 8.5642e-05 2.59334e-05 -9.19047e-07 1.72123e-07)
(0.098295 -0.000798263 8.79444e-05 1.81914e-05 -7.94019e-07 1.49724e-07)
(0.105549 -0.000718794 8.97808e-05 1.42225e-05 -5.27575e-07 1.56038e-07)
(0.11895 -0.000463548 9.20179e-05 1.05243e-05 -4.89797e-07 1.36282e-07)
(0.124647 -0.000736803 9.22708e-05 1.16579e-05 -2.89079e-07 1.40099e-07)
(0.13967 0.000613633 9.48495e-05 1.27832e-05 3.16068e-07 1.23573e-07)
(0.140052 -0.000677881 9.34743e-05 2.75878e-05 -2.31426e-07 1.24871e-07)
(0.171148 0.00482227 0.000100857 0.000328286 3.88717e-06 1.12741e-07)
(0.00384529 0.000174535 1.6367e-05 4.75248e-05 9.89231e-07 3.28707e-07)
(0.00461904 0.000502036 9.46871e-06 0.000533267 1.07669e-06 2.80506e-07)
(0.0171309 0.00310716 3.2974e-05 0.00109409 1.36187e-07 3.10842e-07)
(0.0208979 0.00339991 1.73968e-05 0.00113926 -3.87619e-06 2.70038e-07)
(0.0390238 0.00460856 3.62599e-05 0.00101303 -3.2387e-06 2.96327e-07)
(0.0407944 0.00381364 2.12693e-05 0.000783334 -4.61284e-06 2.55587e-07)
(0.0562243 0.00383221 4.1841e-05 0.000615298 -3.31836e-06 2.77489e-07)
(0.0557284 0.00304902 2.96819e-05 0.000480384 -3.67169e-06 2.38187e-07)
(0.0684054 0.00291097 5.05466e-05 0.000385379 -2.50039e-06 2.58499e-07)
(0.0677103 0.00239255 4.03554e-05 0.000314215 -2.53469e-06 2.22308e-07)
(0.0788609 0.00228396 6.02216e-05 0.000257837 -1.58034e-06 2.40884e-07)
(0.0790027 0.00196524 5.14607e-05 0.000215061 -1.51502e-06 2.07815e-07)
(0.0890515 0.00187225 6.96919e-05 0.000180936 -8.0631e-07 2.23689e-07)
(0.0904198 0.00169778 6.21209e-05 0.000148157 -6.74956e-07 1.93251e-07)
(0.0992185 0.00154249 7.83976e-05 0.000135865 -3.72028e-07 2.06119e-07)
(0.102345 0.00153042 7.21413e-05 9.41914e-05 5.3447e-08 1.78185e-07)
(0.109198 0.00107124 8.64148e-05 0.000116806 -5.99222e-07 1.88754e-07)
(0.115226 0.00127038 8.17282e-05 4.50028e-05 8.59529e-07 1.63193e-07)
(0.119337 -0.000333993 9.60966e-05 0.00011339 -1.73979e-06 1.73973e-07)
(0.129147 -0.00134726 9.0212e-05 0.000111463 7.7204e-07 1.49773e-07)
(0.00361564 8.08789e-05 1.27928e-05 1.99095e-05 2.88954e-07 2.6558e-07)
(0.00416245 4.33235e-05 7.66784e-06 0.000112915 -4.21756e-07 2.34383e-07)
(0.0143671 0.00109505 2.44555e-05 0.000210083 -1.24132e-06 2.53761e-07)
(0.019479 0.00142962 1.02337e-05 0.000239793 -2.93684e-06 2.24689e-07)
(0.0414498 0.00219361 2.26304e-05 0.000225356 -2.65861e-06 2.39684e-07)
(0.0493478 0.00212044 5.32566e-06 0.00018533 -3.12709e-06 2.09333e-07)
(0.0742909 0.00229508 2.06622e-05 0.00015187 -2.52872e-06 2.20985e-07)
(0.0817296 0.00210987 4.13381e-06 0.000123745 -2.58272e-06 1.91245e-07)
(0.106027 0.00213656 2.19253e-05 0.000103181 -2.05471e-06 2.0218e-07)
(0.112956 0.00199806 6.72373e-06 8.72837e-05 -2.0009e-06 1.75007e-07)
(0.13601 0.00199781 2.5761e-05 7.44348e-05 -1.55015e-06 1.85412e-07)
(0.142701 0.00187591 1.20327e-05 6.36024e-05 -1.45898e-06 1.60955e-07)
(0.164465 0.00186902 3.14994e-05 5.54795e-05 -1.08061e-06 1.69714e-07)
(0.170986 0.00171406 1.92578e-05 4.59365e-05 -9.95869e-07 1.47601e-07)
(0.191536 0.00173941 3.8673e-05 4.29768e-05 -6.9081e-07 1.53962e-07)
(0.197745 0.00146723 2.74848e-05 3.03963e-05 -5.8393e-07 1.34412e-07)
(0.216851 0.00152339 4.70574e-05 3.40247e-05 -4.12382e-07 1.3816e-07)
(0.222998 0.000913248 3.46987e-05 1.27311e-05 2.54864e-08 1.21967e-07)
(0.237428 0.000704022 5.65639e-05 1.94729e-05 -1.88428e-07 1.22007e-07)
(0.240097 -0.000353054 3.67607e-05 3.86942e-05 1.34536e-06 1.10896e-07)
(0.00377503 -2.0591e-09 1.59251e-05 1.06099e-10 -2.86111e-12 3.25092e-07)
(0.00430992 3.06602e-09 9.76054e-06 8.53677e-11 -7.16319e-12 2.8174e-07)
(0.0153997 3.90073e-09 3.32695e-05 6.50637e-11 7.03593e-12 3.10916e-07)
(0.0204184 5.04602e-09 1.77389e-05 4.38948e-11 -5.11232e-12 2.69915e-07)
(0.0430863 4.93241e-09 3.49899e-05 4.85947e-11 1.629e-11 2.96213e-07)
(0.0517848 3.44702e-08 1.59045e-05 6.49473e-11 -2.63991e-11 2.55561e-07)
(0.078769 2.86925e-08 3.486e-05 8.82242e-11 -9.84509e-12 2.77565e-07)
(0.0882104 4.67219e-08 1.64523e-05 1.08436e-10 -3.29677e-11 2.38309e-07)
(0.115774 1.78527e-07 3.73372e-05 1.32265e-10 -7.6479e-11 2.58488e-07)
(0.125714 2.73379e-07 2.02528e-05 1.51742e-10 -9.10051e-11 2.2222e-07)
(0.152954 5.66929e-07 4.21524e-05 1.7971e-10 -2.43686e-10 2.40676e-07)
(0.163614 6.53377e-07 2.6669e-05 2.01996e-10 -1.41396e-10 2.07577e-07)
(0.189891 1.82226e-06 4.89418e-05 2.63295e-10 -5.06139e-10 2.2346e-07)
(0.201548 2.13489e-06 3.52959e-05 3.12321e-10 -4.79344e-10 1.9304e-07)
(0.225743 5.06984e-06 5.75023e-05 5.26751e-10 -8.38063e-10 2.05998e-07)
(0.239225 4.50872e-06 4.57505e-05 6.01591e-10 -1.06116e-09 1.78078e-07)
(0.258667 1.27231e-05 6.8017e-05 1.58661e-09 -1.61208e-09 1.88863e-07)
(0.275822 1.02735e-05 5.72235e-05 1.54634e-09 -1.49408e-09 1.63287e-07)
(0.284809 3.24836e-05 8.35973e-05 8.79055e-09 -2.51886e-09 1.74468e-07)
(0.303553 4.68979e-05 6.99998e-05 1.55816e-08 1.50442e-09 1.50001e-07)
(0.00361564 -8.08861e-05 1.27931e-05 1.99094e-05 -2.8895e-07 2.6558e-07)
(0.00416245 -4.3314e-05 7.66794e-06 0.000112915 4.21726e-07 2.34383e-07)
(0.0143671 -0.00109504 2.44557e-05 0.000210084 1.24134e-06 2.53761e-07)
(0.019479 -0.0014296 1.02342e-05 0.00023979 2.9368e-06 2.24689e-07)
(0.0414498 -0.00219361 2.2631e-05 0.000225357 2.65866e-06 2.39684e-07)
(0.0493479 -0.00212036 5.32622e-06 0.000185321 3.12698e-06 2.09334e-07)
(0.0742908 -0.00229507 2.06626e-05 0.00015187 2.52876e-06 2.20985e-07)
(0.08173 -0.00210972 4.13415e-06 0.000123721 2.58249e-06 1.91245e-07)
(0.106027 -0.00213636 2.19257e-05 0.000103168 2.05467e-06 2.0218e-07)
(0.112957 -0.00199726 6.72364e-06 8.72333e-05 2.00043e-06 1.75007e-07)
(0.13601 -0.00199721 2.57612e-05 7.4383e-05 1.54985e-06 1.85412e-07)
(0.142705 -0.00187372 1.20324e-05 6.34958e-05 1.45809e-06 1.60956e-07)
(0.164464 -0.00186721 3.14993e-05 5.53399e-05 1.07944e-06 1.69714e-07)
(0.170995 -0.00170643 1.92575e-05 4.57081e-05 9.94136e-07 1.47603e-07)
(0.191538 -0.0017352 3.86702e-05 4.26654e-05 6.86963e-07 1.5396e-07)
(0.197769 -0.00144601 2.74806e-05 2.9955e-05 5.82488e-07 1.34416e-07)
(0.216867 -0.00151432 4.70496e-05 3.33707e-05 4.00806e-07 1.38157e-07)
(0.223062 -0.000860922 3.46902e-05 1.20772e-05 -2.16355e-08 1.2197e-07)
(0.237514 -0.000696919 5.65679e-05 1.87526e-05 1.61692e-07 1.22015e-07)
(0.240269 0.000434891 3.67477e-05 3.78745e-05 -1.33543e-06 1.10907e-07)
(0.0038453 -0.000174539 1.63674e-05 4.75252e-05 -9.89244e-07 3.28707e-07)
(0.00461904 -0.00050203 9.46862e-06 0.000533268 -1.0767e-06 2.80506e-07)
(0.0171309 -0.00310715 3.29747e-05 0.00109409 -1.36172e-07 3.10842e-07)
(0.0208979 -0.0033999 1.73982e-05 0.00113926 3.87619e-06 2.70039e-07)
(0.0390238 -0.00460854 3.6262e-05 0.00101303 3.23874e-06 2.96329e-07)
(0.0407945 -0.00381361 2.12714e-05 0.000783325 4.61282e-06 2.55588e-07)
(0.0562242 -0.00383214 4.18428e-05 0.000615283 3.31836e-06 2.7749e-07)
(0.0557288 -0.00304902 2.96836e-05 0.000480362 3.67163e-06 2.38187e-07)
(0.0684053 -0.00291073 5.05482e-05 0.00038533 2.50029e-06 2.585e-07)
(0.0677115 -0.00239234 4.03559e-05 0.000314168 2.5345e-06 2.22308e-07)
(0.0788608 -0.00228342 6.02232e-05 0.000257712 1.57996e-06 2.40885e-07)
(0.0790062 -0.00196491 5.14625e-05 0.000214937 1.51469e-06 2.07814e-07)
(0.0890523 -0.00187082 6.96914e-05 0.000180667 8.05443e-07 2.23687e-07)
(0.0904295 -0.00169628 6.21195e-05 0.000147866 6.73885e-07 1.93254e-07)
(0.0992219 -0.00153894 7.83919e-05 0.000135287 3.70611e-07 2.06113e-07)
(0.10237 -0.00152721 7.21475e-05 9.3645e-05 -5.59198e-08 1.78197e-07)
(0.10921 -0.00106295 8.64016e-05 0.000115504 5.96713e-07 1.88735e-07)
(0.115279 -0.00126288 8.17347e-05 4.4384e-05 -8.60561e-07 1.63229e-07)
(0.119376 0.000349879 9.60606e-05 0.000111949 1.73591e-06 1.73936e-07)
(0.129244 0.00136309 9.02033e-05 0.000111782 -7.58313e-07 1.49836e-07)
(0.00438064 -0.000552484 1.50618e-05 0.000296168 -9.71436e-07 2.73167e-07)
(0.00442825 -0.000560911 6.99231e-06 0.00122435 1.87529e-06 2.34942e-07)
(0.0112116 -0.00205792 2.67227e-05 0.00171208 3.92938e-06 2.5657e-07)
(0.0104781 -0.000395794 2.34609e-05 0.00146928 7.71845e-06 2.27624e-07)
(0.0156525 -6.55269e-05 4.05702e-05 0.00101722 6.13493e-06 2.42723e-07)
(0.0190062 0.0011404 4.22361e-05 0.000606158 6.00358e-06 2.11801e-07)
(0.0255946 0.00127526 5.60123e-05 0.00035577 4.30056e-06 2.23507e-07)
(0.034524 0.00156017 5.90697e-05 0.000209783 3.67975e-06 1.93369e-07)
(0.0426556 0.00141753 6.90995e-05 0.000128206 2.65415e-06 2.04715e-07)
(0.0548907 0.00137462 7.21815e-05 8.20952e-05 2.16902e-06 1.77357e-07)
(0.0633696 0.0011815 7.89485e-05 5.36854e-05 1.57323e-06 1.88055e-07)
(0.076793 0.00106915 8.16426e-05 3.66459e-05 1.2693e-06 1.63347e-07)
(0.0848315 0.000909972 8.56441e-05 2.5891e-05 9.18796e-07 1.72125e-07)
(0.0982772 0.000796281 8.79389e-05 1.81361e-05 7.92946e-07 1.49723e-07)
(0.105532 0.000716964 8.97767e-05 1.41574e-05 5.26155e-07 1.56035e-07)
(0.118909 0.000459637 9.2012e-05 1.04985e-05 4.89663e-07 1.36289e-07)
(0.124581 0.000729132 9.22448e-05 1.15217e-05 2.8203e-07 1.4008e-07)
(0.139571 -0.000613447 9.48569e-05 1.28438e-05 -3.07968e-07 1.23604e-07)
(0.139878 0.000652109 9.34072e-05 2.68075e-05 2.09952e-07 1.24835e-07)
(0.17082 -0.00480976 0.000100855 0.000326223 -3.86253e-06 1.12799e-07)
(0.00355641 -0.000113577 1.76721e-05 0.000534322 -3.72156e-06 3.55222e-07)
(0.0147485 0.00325318 7.19187e-07 0.00101695 -2.22753e-06 2.88809e-07)
(0.0365858 0.0052939 1.38095e-05 0.000994999 -1.97457e-06 3.2424e-07)
(0.0903655 0.00625667 2.95827e-05 0.000503177 1.04976e-06 2.82626e-07)
(0.116366 0.00479449 3.2906e-05 0.000235866 1.66916e-08 3.0983e-07)
(0.168467 0.0036702 5.22691e-05 9.68721e-05 3.64703e-07 2.6751e-07)
(0.177273 0.00253674 4.35118e-05 4.88445e-05 -4.67598e-07 2.89849e-07)
(0.215958 0.00206846 6.02841e-05 2.90842e-05 -3.82501e-07 2.49019e-07)
(0.215022 0.00164861 4.66613e-05 2.19701e-05 -8.11658e-07 2.6969e-07)
(0.245215 0.00159052 6.24017e-05 1.90728e-05 -6.50941e-07 2.32414e-07)
(0.24105 0.00140081 4.7425e-05 1.7222e-05 -8.90248e-07 2.51204e-07)
(0.2659 0.00147293 6.29447e-05 1.72953e-05 -7.31859e-07 2.17371e-07)
(0.260966 0.001272 4.76996e-05 1.53377e-05 -8.66095e-07 2.33252e-07)
(0.281961 0.00143334 6.32651e-05 1.78325e-05 -8.479e-07 2.02365e-07)
(0.276903 0.00109102 4.81039e-05 1.31129e-05 -7.07961e-07 2.15056e-07)
(0.29532 0.00138424 6.42317e-05 2.13088e-05 -1.13884e-06 1.87051e-07)
(0.288889 0.000474282 4.85552e-05 7.0131e-06 4.57226e-08 1.9693e-07)
(0.306673 0.00080744 6.78867e-05 3.05543e-05 -1.73075e-06 1.71763e-07)
(0.291059 -0.00487101 4.64372e-05 0.000205932 2.03737e-06 1.80397e-07)
(0.28633 -0.00835126 7.9889e-05 0.000465573 1.45329e-06 1.53023e-07)
(0.00336616 0.000105642 1.74182e-10 0.000104884 9.85986e-11 1.09967e-15)
(0.00665927 -0.00111028 -3.38223e-10 0.000520636 2.57374e-10 5.24246e-16)
(0.017208 -0.00276878 -6.96973e-10 0.000799189 3.30372e-10 1.38599e-15)
(0.0474485 -0.00538081 -2.06828e-09 0.000795058 3.28666e-10 8.26098e-16)
(0.0815798 -0.00648171 -2.48796e-09 0.00063187 2.80112e-10 1.6412e-15)
(0.140549 -0.00708053 -3.32766e-09 0.000429669 2.14721e-10 1.25343e-15)
(0.186144 -0.00622264 -3.24152e-09 0.00025345 1.53011e-10 2.44133e-15)
(0.249741 -0.00509379 -3.60071e-09 0.000132897 1.07006e-10 2.22284e-15)
(0.286787 -0.00356029 -3.6613e-09 6.11417e-05 7.44448e-11 2.37215e-15)
(0.338645 -0.00232121 -3.88966e-09 2.54696e-05 5.23255e-11 2.19225e-15)
(0.36153 -0.00123366 -4.01344e-09 9.49237e-06 3.37904e-11 1.90286e-15)
(0.400579 -0.000587607 -4.10426e-09 4.1137e-06 2.12329e-11 1.99364e-15)
(0.413453 -3.65533e-05 -4.16442e-09 2.55484e-06 7.92232e-12 1.94047e-15)
(0.44386 9.66645e-05 -4.12618e-09 2.51716e-06 3.9182e-12 2.25609e-15)
(0.451432 0.000390287 -4.15835e-09 2.41998e-06 -6.37391e-12 2.20415e-15)
(0.477 0.000286381 -4.06606e-09 3.05409e-06 -4.71592e-13 2.42326e-15)
(0.480147 0.000351946 -4.10807e-09 3.03003e-06 -1.23431e-11 2.41117e-15)
(0.506871 0.00111142 -3.78483e-09 6.21159e-06 -7.83513e-12 3.14214e-15)
(0.49189 0.00012476 -3.52351e-09 1.09159e-05 -1.32682e-11 3.23908e-15)
(0.536281 0.0112814 -3.49198e-09 0.000273161 -1.47646e-10 2.66986e-15)
(0.00356999 0.000132154 1.86402e-10 5.98285e-05 7.02878e-11 9.39879e-16)
(0.0043535 0.000237557 3.56123e-10 0.000362797 2.11161e-10 4.78183e-16)
(0.0108728 0.001405 9.69702e-10 0.000802324 3.28602e-10 1.11544e-15)
(0.0125298 0.0014627 8.36398e-10 0.00117303 3.93322e-10 7.34543e-16)
(0.0193022 0.00201775 1.40006e-09 0.0013519 3.97954e-10 1.38259e-15)
(0.0202624 0.00110661 1.41558e-09 0.00129354 3.56488e-10 1.19024e-15)
(0.026052 0.000793511 2.02116e-09 0.00110696 3.03561e-10 2.14343e-15)
(0.0285731 -0.000199045 2.07441e-09 0.00085606 2.50559e-10 2.13632e-15)
(0.035318 -0.000468454 2.30509e-09 0.000639785 2.13535e-10 2.25702e-15)
(0.0411116 -0.000979022 2.27121e-09 0.000454338 1.80715e-10 2.21026e-15)
(0.0495457 -0.00101195 2.31811e-09 0.000330202 1.60888e-10 1.93297e-15)
(0.058336 -0.00120043 2.28771e-09 0.000231501 1.38633e-10 2.08289e-15)
(0.0679819 -0.00114765 2.30461e-09 0.000176563 1.27042e-10 1.99338e-15)
(0.0789145 -0.0011699 2.30663e-09 0.000121481 1.09557e-10 2.30971e-15)
(0.0890034 -0.00120481 2.31448e-09 0.000106828 1.00527e-10 2.24473e-15)
(0.101776 -0.000880905 2.31343e-09 6.17814e-05 8.91013e-11 2.47696e-15)
(0.111068 -0.00142987 2.30908e-09 7.94608e-05 7.74992e-11 2.4522e-15)
(0.12671 0.00015908 2.4832e-09 2.90374e-05 6.71768e-11 3.19401e-15)
(0.132664 -0.00151707 2.80696e-09 5.88999e-05 6.1972e-11 3.24084e-15)
(0.152561 0.00380656 2.67992e-09 0.000196637 -1.53478e-11 2.68287e-15)
(0.0035226 4.85967e-05 1.42629e-10 1.11576e-05 3.12465e-11 7.39815e-16)
(0.00426591 8.54329e-05 3.08167e-10 0.000108449 1.15631e-10 4.39106e-16)
(0.0109318 0.000859073 9.52716e-10 0.000301893 2.01383e-10 9.65477e-16)
(0.0145375 0.00137467 1.08879e-09 0.000512456 2.60183e-10 7.11881e-16)
(0.0272869 0.00260118 1.91786e-09 0.000663063 2.79666e-10 1.16937e-15)
(0.0338029 0.0030152 2.32597e-09 0.000714922 2.67598e-10 1.09394e-15)
(0.0500213 0.00372699 3.24289e-09 0.000679533 2.42183e-10 1.83294e-15)
(0.0566607 0.00365224 3.66774e-09 0.000596825 2.15689e-10 1.96072e-15)
(0.0725555 0.00380273 4.21752e-09 0.000500385 1.94704e-10 2.04267e-15)
(0.0778492 0.00349468 4.50679e-09 0.000410977 1.76687e-10 2.12033e-15)
(0.091911 0.00340462 4.84264e-09 0.000337599 1.63248e-10 1.87484e-15)
(0.0960872 0.00308921 5.08013e-09 0.000277527 1.5077e-10 2.07571e-15)
(0.108203 0.00293381 5.34766e-09 0.000236406 1.41537e-10 1.97501e-15)
(0.111974 0.00268759 5.58184e-09 0.000193515 1.33066e-10 2.30246e-15)