/*--------------------------------*- C++ -*----------------------------------*\
  =========                 |
  \\      /  F ield         | OpenFOAM: The Open Source CFD Toolbox
   \\    /   O peration     | Website:  https://openfoam.org
    \\  /    A nd           | Version:  7
     \\/     M anipulation  |
\*---------------------------------------------------------------------------*/
FoamFile
{
    version     2.0;
    format      ascii;
    class       volScalarField;
    location    "0.47";
    object      alphat;
}
// * * * * * * * * * * * * * * * * * * * * * * * * * * * * * * * * * * * * * //

dimensions      [1 -1 -1 0 0 0 0];

internalField   nonuniform List<scalar> 
8640
(
0.00418623
0.00406036
0.00401392
0.00400558
0.00400092
0.00399965
0.00399753
0.00399685
0.00399548
0.00399503
0.00399397
0.00399372
0.00399309
0.00399323
0.00399304
0.00399338
0.00399326
0.00399342
0.00399315
0.00399307
0.00399267
0.00399249
0.00399206
0.00399184
0.0039914
0.00399111
0.00399063
0.00399031
0.00398987
0.00398957
0.00398914
0.00398875
0.0039882
0.00398772
0.00398715
0.00398666
0.0039861
0.00398562
0.00398511
0.0039847
0.0039843
0.00398402
0.00398373
0.00398352
0.00398321
0.00398282
0.00398236
0.00398219
0.00398208
0.00398224
0.00398241
0.00398257
0.0039829
0.00398267
0.00398317
0.00398228
0.00398373
0.00398249
0.0039846
0.00401797
0.0026082
0.00216929
0.00193814
0.00185812
0.00183294
0.00181546
0.00179989
0.00178408
0.00176716
0.00175101
0.0017353
0.00172122
0.0017089
0.00169813
0.0016894
0.00168166
0.00167581
0.00167048
0.0016667
0.00166306
0.00166059
0.00165799
0.00165625
0.00165425
0.00165289
0.00165126
0.00165015
0.00164879
0.00164781
0.00164656
0.00164559
0.00164439
0.00164344
0.00164237
0.00164153
0.00164062
0.0016399
0.00163913
0.0016385
0.00163787
0.00163748
0.00163726
0.00163715
0.00163678
0.00163617
0.00163585
0.00163567
0.00163558
0.00163556
0.00163557
0.00163561
0.00163563
0.0016364
0.00163594
0.00164153
0.00163849
0.00165842
0.00164873
0.00170054
0.00175998
0.00251809
0.00205048
0.0017315
0.00160781
0.00155961
0.00154099
0.00153308
0.00153002
0.00152808
0.00152722
0.00152635
0.00152597
0.00152569
0.00152556
0.00152551
0.00152561
0.00152556
0.00152559
0.00152549
0.00152549
0.00152543
0.00152547
0.00152548
0.00152555
0.00152558
0.00152562
0.00152566
0.00152569
0.0015257
0.0015257
0.00152564
0.00152558
0.00152549
0.00152542
0.00152534
0.00152527
0.00152514
0.00152497
0.00152474
0.00152449
0.00152424
0.00152405
0.00152392
0.00152386
0.00152382
0.0015238
0.00152377
0.00152373
0.00152368
0.00152364
0.0015236
0.00152357
0.0015235
0.00152352
0.0015235
0.00152364
0.00152389
0.00152415
0.001525
0.00153654
0.00251711
0.00204508
0.00172097
0.00159472
0.00154466
0.00152554
0.001518
0.00151569
0.0015153
0.00151548
0.00151592
0.00151683
0.0015175
0.00151849
0.00151918
0.00152001
0.0015205
0.00152105
0.00152134
0.00152174
0.00152197
0.00152235
0.00152262
0.001523
0.00152327
0.00152361
0.00152386
0.00152417
0.0015244
0.00152468
0.00152486
0.00152504
0.00152516
0.00152528
0.00152542
0.00152556
0.00152569
0.00152578
0.00152579
0.00152572
0.00152555
0.00152536
0.00152516
0.00152504
0.00152498
0.001525
0.00152504
0.00152516
0.00152523
0.00152534
0.00152537
0.00152545
0.00152546
0.00152546
0.0015254
0.00152542
0.0015254
0.00152545
0.00152583
0.00153383
0.0025169
0.00204466
0.00172032
0.00159394
0.00154374
0.00152453
0.00151694
0.00151462
0.00151425
0.00151446
0.00151493
0.00151591
0.00151663
0.00151768
0.00151841
0.00151929
0.00151982
0.00152042
0.00152075
0.0015212
0.00152149
0.00152194
0.00152227
0.00152272
0.00152305
0.00152346
0.00152378
0.00152416
0.00152448
0.00152483
0.00152509
0.00152535
0.00152554
0.00152574
0.00152593
0.00152616
0.00152638
0.00152657
0.00152667
0.00152667
0.00152659
0.00152644
0.00152625
0.00152614
0.00152608
0.00152615
0.00152626
0.00152643
0.00152656
0.00152671
0.00152681
0.00152691
0.00152699
0.00152702
0.00152701
0.00152702
0.00152702
0.00152706
0.00152752
0.00153529
0.00251718
0.00204415
0.0017195
0.00159316
0.00154314
0.00152405
0.00151654
0.00151425
0.00151389
0.0015141
0.00151457
0.00151555
0.00151628
0.00151733
0.00151806
0.00151893
0.00151944
0.00152004
0.00152037
0.00152083
0.00152114
0.0015216
0.00152195
0.00152241
0.00152276
0.00152319
0.00152352
0.00152393
0.00152426
0.00152464
0.00152491
0.00152519
0.00152539
0.00152563
0.00152585
0.00152612
0.00152636
0.00152658
0.0015267
0.00152672
0.00152664
0.00152652
0.00152634
0.00152624
0.00152622
0.00152631
0.00152644
0.00152663
0.00152679
0.00152697
0.0015271
0.00152723
0.00152734
0.00152738
0.00152743
0.0015274
0.0015275
0.00152746
0.00152805
0.00153568
0.00251718
0.00204415
0.0017195
0.00159316
0.00154314
0.00152405
0.00151654
0.00151425
0.00151389
0.0015141
0.00151457
0.00151555
0.00151628
0.00151733
0.00151806
0.00151893
0.00151944
0.00152004
0.00152037
0.00152083
0.00152114
0.0015216
0.00152195
0.00152241
0.00152276
0.00152319
0.00152352
0.00152393
0.00152426
0.00152464
0.00152491
0.00152519
0.00152539
0.00152563
0.00152585
0.00152612
0.00152636
0.00152658
0.0015267
0.00152672
0.00152664
0.00152652
0.00152634
0.00152624
0.00152622
0.00152631
0.00152644
0.00152663
0.00152679
0.00152697
0.0015271
0.00152723
0.00152734
0.00152738
0.00152743
0.00152741
0.00152751
0.00152746
0.00152806
0.00153568
0.0025169
0.00204466
0.00172032
0.00159394
0.00154374
0.00152453
0.00151694
0.00151462
0.00151425
0.00151446
0.00151493
0.00151591
0.00151663
0.00151768
0.00151841
0.00151929
0.00151982
0.00152042
0.00152075
0.0015212
0.00152149
0.00152194
0.00152227
0.00152272
0.00152305
0.00152346
0.00152378
0.00152416
0.00152448
0.00152483
0.00152509
0.00152535
0.00152554
0.00152574
0.00152593
0.00152616
0.00152638
0.00152657
0.00152667
0.00152667
0.00152659
0.00152644
0.00152625
0.00152614
0.00152608
0.00152615
0.00152626
0.00152643
0.00152656
0.00152671
0.00152681
0.00152692
0.00152699
0.00152702
0.00152702
0.00152702
0.00152704
0.00152705
0.00152755
0.00153526
0.00251711
0.00204508
0.00172097
0.00159472
0.00154466
0.00152554
0.001518
0.00151569
0.0015153
0.00151548
0.00151592
0.00151683
0.0015175
0.00151849
0.00151918
0.00152001
0.0015205
0.00152105
0.00152134
0.00152174
0.00152197
0.00152235
0.00152262
0.001523
0.00152327
0.00152361
0.00152386
0.00152417
0.0015244
0.00152468
0.00152486
0.00152504
0.00152516
0.00152528
0.00152542
0.00152556
0.00152569
0.00152578
0.00152579
0.00152572
0.00152555
0.00152536
0.00152516
0.00152505
0.00152498
0.001525
0.00152504
0.00152516
0.00152523
0.00152534
0.00152537
0.00152546
0.00152546
0.00152547
0.00152543
0.00152542
0.00152543
0.00152544
0.00152591
0.00153376
0.00251809
0.00205048
0.0017315
0.00160781
0.00155961
0.00154099
0.00153308
0.00153002
0.00152808
0.00152722
0.00152635
0.00152597
0.00152569
0.00152556
0.00152551
0.00152561
0.00152556
0.00152559
0.00152549
0.00152549
0.00152543
0.00152547
0.00152548
0.00152555
0.00152558
0.00152562
0.00152566
0.00152569
0.0015257
0.0015257
0.00152564
0.00152558
0.00152549
0.00152542
0.00152534
0.00152527
0.00152514
0.00152498
0.00152474
0.00152449
0.00152424
0.00152405
0.00152392
0.00152386
0.00152382
0.0015238
0.00152377
0.00152373
0.00152368
0.00152365
0.00152361
0.00152358
0.00152351
0.00152352
0.00152352
0.00152361
0.00152393
0.00152408
0.00152512
0.0015363
0.0026082
0.00216929
0.00193814
0.00185812
0.00183294
0.00181546
0.00179989
0.00178408
0.00176716
0.00175101
0.0017353
0.00172122
0.0017089
0.00169813
0.0016894
0.00168166
0.00167581
0.00167048
0.0016667
0.00166306
0.00166059
0.00165799
0.00165625
0.00165425
0.00165289
0.00165126
0.00165015
0.00164879
0.00164781
0.00164656
0.00164559
0.00164439
0.00164344
0.00164236
0.00164153
0.00164062
0.0016399
0.00163912
0.00163849
0.00163786
0.00163747
0.00163725
0.00163714
0.00163677
0.00163617
0.00163585
0.00163567
0.00163558
0.00163556
0.00163557
0.00163562
0.00163562
0.00163635
0.00163591
0.00164145
0.0016383
0.00165821
0.00164839
0.00169995
0.00175881
0.00418623
0.00406036
0.00401392
0.00400558
0.00400092
0.00399965
0.00399753
0.00399685
0.00399548
0.00399503
0.00399397
0.00399372
0.00399309
0.00399323
0.00399304
0.00399338
0.00399326
0.00399342
0.00399315
0.00399307
0.00399267
0.00399249
0.00399206
0.00399184
0.0039914
0.00399111
0.00399063
0.00399031
0.00398987
0.00398957
0.00398914
0.00398875
0.00398821
0.00398772
0.00398715
0.00398666
0.0039861
0.00398562
0.00398511
0.0039847
0.0039843
0.00398402
0.00398373
0.00398352
0.00398321
0.00398282
0.00398236
0.00398218
0.00398208
0.00398224
0.00398239
0.00398256
0.0039829
0.00398267
0.00398315
0.00398234
0.00398368
0.00398262
0.00398445
0.00401779
0.000864143
0.00134137
0.0015033
0.001554
0.00157336
0.00157555
0.00157617
0.00157378
0.00157235
0.00156902
0.0015674
0.00156379
0.00156179
0.00155826
0.00155652
0.00155354
0.00155215
0.00154969
0.00154854
0.00154646
0.00154544
0.00154374
0.00154296
0.00154165
0.00154104
0.00153993
0.00153937
0.00153843
0.00153794
0.00153715
0.00153673
0.00153607
0.00153573
0.0015352
0.00153497
0.00153459
0.00153443
0.00153412
0.00153396
0.00153367
0.00153351
0.00153325
0.00153312
0.00153289
0.00153277
0.00153256
0.00153247
0.00153228
0.00153223
0.00153203
0.00153206
0.0015318
0.00153191
0.00153154
0.00153169
0.00153129
0.00153097
0.00153109
0.00152776
0.00154711
0.000496561
0.00111537
0.00133259
0.0014176
0.00145032
0.00146379
0.00146867
0.00147116
0.00147186
0.00147269
0.00147297
0.00147373
0.00147411
0.00147484
0.00147511
0.00147561
0.00147569
0.00147606
0.00147617
0.00147658
0.00147676
0.00147718
0.00147739
0.00147778
0.00147796
0.00147824
0.00147834
0.00147855
0.0014787
0.00147889
0.00147895
0.00147891
0.0014787
0.00147852
0.00147834
0.00147834
0.00147844
0.00147869
0.00147899
0.00147933
0.00147961
0.00147986
0.00148002
0.00148013
0.00148015
0.00148014
0.00148009
0.00148006
0.00147999
0.00147997
0.00147992
0.00147995
0.00147994
0.00148003
0.00148012
0.00148015
0.00148036
0.00147996
0.00148011
0.0014904
0.000531898
0.00111853
0.00132564
0.00140776
0.0014394
0.00145278
0.00145746
0.00145995
0.00146039
0.00146102
0.00146096
0.0014613
0.00146131
0.00146162
0.00146153
0.00146169
0.00146147
0.0014615
0.00146131
0.00146138
0.00146131
0.00146142
0.0014614
0.00146153
0.00146158
0.00146171
0.00146177
0.00146186
0.0014619
0.00146198
0.00146206
0.00146218
0.00146226
0.00146234
0.00146232
0.00146228
0.00146219
0.00146215
0.00146215
0.00146225
0.0014624
0.00146261
0.00146282
0.00146302
0.00146319
0.00146332
0.0014634
0.00146343
0.00146342
0.00146339
0.00146338
0.00146338
0.00146341
0.00146343
0.00146339
0.00146338
0.00146317
0.00146334
0.00146293
0.00147116
0.000499951
0.00111089
0.00132369
0.00140765
0.0014399
0.00145344
0.00145817
0.00146067
0.00146112
0.00146174
0.00146166
0.00146198
0.00146195
0.0014622
0.00146207
0.00146218
0.0014619
0.00146187
0.00146162
0.00146161
0.00146147
0.00146148
0.00146139
0.00146139
0.00146135
0.00146139
0.00146137
0.00146138
0.00146131
0.00146128
0.00146124
0.00146129
0.00146132
0.0014614
0.00146139
0.00146134
0.0014612
0.00146106
0.00146095
0.00146096
0.00146106
0.00146126
0.00146147
0.00146165
0.00146178
0.00146184
0.00146185
0.0014618
0.00146173
0.0014616
0.00146151
0.00146139
0.0014614
0.00146141
0.00146146
0.00146147
0.00146138
0.00146134
0.00146109
0.00146815
0.000519247
0.00111491
0.00132453
0.00140751
0.00143942
0.00145285
0.00145752
0.00145998
0.00146041
0.00146101
0.00146092
0.00146122
0.00146119
0.00146144
0.00146132
0.00146141
0.00146113
0.00146109
0.00146083
0.00146081
0.00146066
0.00146065
0.00146055
0.00146054
0.0014605
0.00146053
0.00146049
0.0014605
0.0014604
0.00146037
0.00146031
0.00146035
0.00146038
0.00146046
0.00146045
0.00146039
0.00146023
0.00146007
0.00145995
0.00145994
0.00146006
0.00146027
0.0014605
0.0014607
0.00146083
0.00146089
0.00146088
0.00146081
0.00146072
0.00146056
0.00146043
0.00146028
0.00146025
0.00146023
0.00146026
0.00146031
0.00146018
0.00146017
0.00145988
0.00146637
0.000508974
0.00111256
0.00132404
0.00140761
0.00143973
0.00145322
0.00145792
0.0014604
0.00146083
0.00146144
0.00146135
0.00146165
0.00146162
0.00146188
0.00146176
0.00146186
0.00146158
0.00146153
0.00146127
0.00146123
0.00146107
0.00146106
0.00146096
0.00146095
0.0014609
0.00146093
0.00146089
0.0014609
0.0014608
0.00146077
0.00146071
0.00146075
0.00146078
0.00146086
0.00146085
0.00146079
0.00146063
0.00146047
0.00146035
0.00146035
0.00146046
0.00146067
0.0014609
0.00146109
0.00146122
0.00146126
0.00146125
0.00146118
0.00146108
0.00146093
0.00146079
0.00146064
0.00146061
0.0014606
0.00146065
0.00146071
0.00146062
0.00146058
0.00146035
0.0014668
0.000508974
0.00111256
0.00132404
0.00140761
0.00143973
0.00145322
0.00145792
0.0014604
0.00146083
0.00146144
0.00146135
0.00146165
0.00146162
0.00146188
0.00146176
0.00146186
0.00146158
0.00146153
0.00146127
0.00146123
0.00146107
0.00146106
0.00146096
0.00146095
0.0014609
0.00146093
0.00146089
0.0014609
0.0014608
0.00146077
0.00146071
0.00146075
0.00146078
0.00146086
0.00146085
0.00146079
0.00146063
0.00146047
0.00146035
0.00146035
0.00146046
0.00146067
0.0014609
0.00146109
0.00146122
0.00146126
0.00146125
0.00146118
0.00146108
0.00146093
0.00146079
0.00146064
0.00146061
0.0014606
0.00146065
0.00146071
0.00146062
0.00146058
0.00146036
0.00146679
0.000519247
0.00111491
0.00132453
0.00140751
0.00143942
0.00145285
0.00145752
0.00145998
0.00146041
0.00146101
0.00146092
0.00146122
0.00146119
0.00146144
0.00146132
0.00146141
0.00146113
0.00146109
0.00146083
0.00146081
0.00146066
0.00146065
0.00146055
0.00146054
0.0014605
0.00146053
0.00146049
0.0014605
0.0014604
0.00146037
0.00146031
0.00146035
0.00146038
0.00146046
0.00146045
0.00146039
0.00146023
0.00146007
0.00145995
0.00145994
0.00146006
0.00146027
0.0014605
0.0014607
0.00146084
0.00146089
0.00146088
0.00146082
0.00146072
0.00146056
0.00146043
0.00146028
0.00146026
0.00146023
0.00146026
0.00146031
0.00146019
0.00146016
0.00145989
0.00146634
0.000499951
0.00111089
0.00132369
0.00140765
0.0014399
0.00145344
0.00145817
0.00146067
0.00146112
0.00146174
0.00146166
0.00146198
0.00146195
0.0014622
0.00146207
0.00146218
0.0014619
0.00146187
0.00146162
0.00146161
0.00146147
0.00146148
0.00146139
0.00146139
0.00146135
0.00146139
0.00146137
0.00146138
0.00146131
0.00146128
0.00146124
0.00146128
0.00146132
0.0014614
0.00146139
0.00146134
0.0014612
0.00146106
0.00146095
0.00146096
0.00146106
0.00146126
0.00146147
0.00146165
0.00146178
0.00146184
0.00146185
0.0014618
0.00146173
0.0014616
0.0014615
0.00146139
0.0014614
0.0014614
0.00146146
0.00146146
0.00146139
0.00146131
0.00146113
0.00146805
0.000531898
0.00111853
0.00132564
0.00140776
0.0014394
0.00145278
0.00145746
0.00145995
0.00146039
0.00146102
0.00146096
0.0014613
0.00146131
0.00146161
0.00146153
0.00146169
0.00146147
0.0014615
0.00146131
0.00146138
0.00146131
0.00146142
0.0014614
0.00146153
0.00146158
0.00146171
0.00146177
0.00146186
0.0014619
0.00146198
0.00146206
0.00146218
0.00146226
0.00146234
0.00146232
0.00146228
0.00146219
0.00146215
0.00146215
0.00146224
0.0014624
0.00146261
0.00146282
0.00146302
0.00146319
0.00146332
0.0014634
0.00146343
0.00146342
0.00146338
0.00146338
0.00146337
0.00146341
0.00146342
0.00146341
0.00146336
0.00146321
0.00146328
0.001463
0.00147093
0.000496561
0.00111537
0.00133259
0.00141761
0.00145032
0.00146379
0.00146867
0.00147116
0.00147186
0.00147269
0.00147297
0.00147373
0.00147411
0.00147484
0.00147511
0.00147561
0.00147569
0.00147606
0.00147617
0.00147658
0.00147676
0.00147718
0.00147739
0.00147778
0.00147797
0.00147824
0.00147834
0.00147855
0.0014787
0.00147889
0.00147895
0.00147891
0.0014787
0.00147852
0.00147835
0.00147834
0.00147844
0.00147869
0.00147899
0.00147933
0.00147961
0.00147986
0.00148002
0.00148013
0.00148015
0.00148014
0.00148009
0.00148005
0.00147999
0.00147996
0.00147992
0.00147994
0.00147995
0.00148001
0.00148012
0.00148008
0.00148041
0.00147986
0.00148025
0.00148997
0.000864143
0.00134137
0.0015033
0.001554
0.00157336
0.00157555
0.00157617
0.00157378
0.00157235
0.00156902
0.0015674
0.00156379
0.00156179
0.00155826
0.00155652
0.00155354
0.00155215
0.00154969
0.00154854
0.00154646
0.00154544
0.00154374
0.00154296
0.00154165
0.00154104
0.00153993
0.00153937
0.00153843
0.00153794
0.00153715
0.00153673
0.00153607
0.00153573
0.00153521
0.00153497
0.00153459
0.00153444
0.00153412
0.00153397
0.00153367
0.00153352
0.00153326
0.00153312
0.00153289
0.00153278
0.00153257
0.00153248
0.00153228
0.00153224
0.00153204
0.00153208
0.00153182
0.00153194
0.00153156
0.00153175
0.0015313
0.00153111
0.00153102
0.00152818
0.00154641
7.55243e-05
0.000180559
0.000286682
0.000369409
0.000427023
0.000467012
0.000492837
0.000509801
0.000520018
0.000526034
0.000529126
0.00053003
0.000529612
0.00052856
0.000526594
0.000524295
0.000521715
0.000519018
0.000516215
0.00051336
0.000510438
0.000507435
0.000504418
0.00050141
0.00049846
0.000495491
0.000492525
0.00048956
0.000486719
0.000484059
0.000481628
0.000479403
0.000477335
0.000475454
0.000473743
0.000472312
0.000471102
0.000470216
0.000469516
0.000469118
0.000468845
0.000468795
0.000468796
0.000468879
0.000468939
0.000469063
0.000469053
0.000469068
0.000468931
0.000468882
0.000468664
0.000468634
0.000468328
0.00046837
0.000467845
0.000467998
0.00046691
0.0004671
0.000464688
0.000468569
1.36385e-05
5.36045e-05
9.4095e-05
0.000137435
0.000168188
0.000195127
0.000214464
0.000231072
0.000242977
0.000253304
0.000260533
0.00026688
0.000271061
0.000274857
0.000277228
0.000279533
0.000280925
0.000282435
0.000283341
0.000284406
0.000285034
0.000285805
0.000286267
0.000286868
0.000287266
0.000287778
0.000288137
0.000288558
0.00028886
0.000289183
0.000289398
0.000289557
0.000289601
0.000289519
0.000289162
0.000288693
0.000288101
0.000287503
0.000286893
0.000286361
0.000285922
0.000285644
0.000285544
0.000285598
0.000285697
0.000285825
0.000285955
0.000286148
0.000286255
0.000286469
0.000286568
0.000286791
0.000286853
0.000287121
0.000287139
0.000287621
0.000287659
0.000288666
0.000288764
0.000293563
1.43519e-05
5.27345e-05
8.98784e-05
0.000131613
0.000157586
0.000182223
0.00019769
0.000212212
0.00022124
0.000229995
0.000235332
0.00024071
0.000243794
0.000247024
0.000248696
0.000250605
0.000251506
0.000252679
0.000253183
0.0002539
0.000254161
0.000254558
0.000254656
0.000254837
0.000254872
0.000254939
0.000254944
0.000254964
0.000254951
0.000254964
0.000254969
0.000255004
0.000255001
0.000255001
0.000254926
0.000254853
0.000254757
0.000254708
0.000254699
0.000254749
0.000254844
0.000254964
0.000255105
0.000255242
0.000255383
0.000255503
0.000255615
0.000255678
0.000255749
0.000255779
0.000255859
0.000255914
0.000256009
0.000256099
0.000256137
0.000256234
0.000256206
0.000256373
0.00025633
0.000259793
1.35841e-05
5.23842e-05
8.97808e-05
0.000132278
0.000159001
0.000183995
0.000199721
0.000214292
0.000223332
0.000231981
0.000237228
0.000242454
0.000245433
0.000248525
0.000250112
0.00025191
0.000252743
0.000253829
0.000254287
0.000254941
0.000255173
0.000255524
0.000255607
0.000255756
0.000255779
0.000255822
0.000255815
0.000255817
0.000255789
0.00025579
0.000255786
0.000255826
0.000255843
0.00025586
0.000255823
0.000255774
0.000255706
0.000255674
0.000255684
0.000255743
0.000255845
0.000255955
0.000256084
0.000256193
0.00025631
0.000256394
0.00025647
0.000256504
0.000256531
0.000256536
0.000256578
0.000256608
0.000256687
0.000256724
0.000256784
0.00025679
0.000256817
0.000256866
0.00025691
0.000260097
1.40243e-05
5.24944e-05
8.96048e-05
0.000131784
0.000158037
0.000182862
0.000198387
0.000212928
0.000221897
0.000230572
0.000235804
0.000241069
0.000244049
0.000247173
0.000248761
0.00025058
0.000251413
0.00025251
0.000252964
0.000253619
0.000253845
0.00025419
0.000254265
0.000254396
0.00025441
0.000254445
0.000254433
0.000254429
0.000254389
0.000254383
0.000254367
0.000254404
0.000254411
0.000254422
0.000254375
0.000254322
0.000254252
0.000254225
0.000254242
0.000254309
0.000254417
0.00025453
0.000254659
0.000254764
0.000254876
0.000254951
0.00025502
0.000255044
0.000255065
0.000255065
0.000255098
0.000255126
0.000255191
0.000255238
0.000255262
0.000255291
0.000255252
0.00025532
0.000255278
0.000258246
1.37784e-05
5.23946e-05
8.96386e-05
0.000131999
0.000158514
0.000183438
0.000199073
0.000213638
0.000222645
0.000231311
0.000236549
0.000241794
0.00024477
0.000247875
0.000249457
0.00025126
0.000252088
0.000253175
0.000253626
0.000254275
0.0002545
0.000254844
0.000254921
0.000255057
0.000255074
0.000255112
0.000255102
0.0002551
0.000255066
0.000255065
0.000255056
0.000255096
0.000255109
0.000255122
0.00025508
0.000255028
0.00025496
0.000254932
0.000254949
0.000255015
0.000255122
0.000255235
0.000255364
0.00025547
0.000255583
0.000255658
0.000255728
0.000255752
0.000255773
0.000255773
0.000255809
0.000255837
0.00025591
0.000255943
0.000255996
0.000255996
0.000256004
0.000256047
0.00025607
0.000259059
1.37784e-05
5.23946e-05
8.96386e-05
0.000131999
0.000158514
0.000183438
0.000199073
0.000213638
0.000222645
0.000231311
0.000236549
0.000241794
0.00024477
0.000247875
0.000249457
0.00025126
0.000252088
0.000253175
0.000253626
0.000254275
0.0002545
0.000254844
0.000254921
0.000255057
0.000255074
0.000255112
0.000255102
0.0002551
0.000255066
0.000255065
0.000255056
0.000255096
0.000255109
0.000255122
0.00025508
0.000255028
0.00025496
0.000254932
0.000254949
0.000255015
0.000255122
0.000255235
0.000255364
0.00025547
0.000255583
0.000255658
0.000255728
0.000255752
0.000255773
0.000255773
0.000255809
0.000255837
0.00025591
0.000255944
0.000255995
0.000255996
0.000256003
0.000256048
0.000256069
0.000259056
1.40243e-05
5.24944e-05
8.96048e-05
0.000131784
0.000158037
0.000182862
0.000198387
0.000212928
0.000221897
0.000230572
0.000235804
0.000241069
0.000244049
0.000247173
0.000248761
0.00025058
0.000251413
0.00025251
0.000252964
0.000253619
0.000253845
0.00025419
0.000254265
0.000254396
0.00025441
0.000254445
0.000254433
0.000254429
0.000254389
0.000254383
0.000254367
0.000254404
0.000254411
0.000254422
0.000254375
0.000254322
0.000254252
0.000254225
0.000254242
0.000254309
0.000254417
0.00025453
0.000254659
0.000254764
0.000254876
0.00025495
0.00025502
0.000255044
0.000255064
0.000255064
0.000255098
0.000255126
0.000255192
0.000255237
0.000255263
0.00025529
0.000255253
0.000255319
0.000255279
0.000258243
1.35841e-05
5.23842e-05
8.97807e-05
0.000132278
0.000159001
0.000183995
0.000199721
0.000214292
0.000223332
0.000231981
0.000237228
0.000242454
0.000245433
0.000248525
0.000250112
0.00025191
0.000252743
0.000253829
0.000254287
0.000254941
0.000255173
0.000255524
0.000255607
0.000255756
0.000255779
0.000255822
0.000255815
0.000255817
0.000255789
0.00025579
0.000255786
0.000255827
0.000255843
0.00025586
0.000255823
0.000255774
0.000255706
0.000255674
0.000255684
0.000255743
0.000255845
0.000255956
0.000256084
0.000256193
0.00025631
0.000256394
0.000256471
0.000256504
0.000256531
0.000256536
0.000256577
0.000256607
0.000256686
0.000256722
0.000256784
0.000256787
0.000256818
0.00025686
0.000256913
0.000260078
1.43519e-05
5.27344e-05
8.98784e-05
0.000131613
0.000157586
0.000182223
0.00019769
0.000212212
0.00022124
0.000229995
0.000235332
0.00024071
0.000243794
0.000247024
0.000248696
0.000250605
0.000251506
0.000252679
0.000253183
0.0002539
0.000254161
0.000254558
0.000254656
0.000254837
0.000254872
0.000254939
0.000254944
0.000254964
0.000254951
0.000254964
0.000254969
0.000255004
0.000255002
0.000255001
0.000254926
0.000254853
0.000254757
0.000254707
0.000254699
0.000254748
0.000254844
0.000254963
0.000255104
0.000255241
0.000255383
0.000255501
0.000255614
0.000255677
0.000255748
0.000255776
0.000255856
0.000255909
0.000256004
0.000256091
0.000256136
0.000256223
0.000256206
0.000256351
0.000256333
0.000259733
1.36385e-05
5.36045e-05
9.4095e-05
0.000137435
0.000168188
0.000195127
0.000214464
0.000231072
0.000242977
0.000253304
0.000260533
0.00026688
0.000271061
0.000274857
0.000277228
0.000279533
0.000280925
0.000282435
0.000283341
0.000284405
0.000285034
0.000285805
0.000286267
0.000286868
0.000287266
0.000287778
0.000288137
0.000288558
0.00028886
0.000289182
0.000289398
0.000289558
0.000289601
0.000289519
0.000289162
0.000288693
0.0002881
0.000287502
0.000286892
0.000286359
0.00028592
0.000285641
0.000285542
0.000285596
0.000285695
0.000285821
0.000285951
0.000286137
0.000286244
0.00028645
0.000286551
0.000286759
0.000286826
0.00028707
0.000287099
0.000287535
0.000287602
0.000288526
0.000288686
0.000293307
7.55243e-05
0.000180559
0.000286682
0.000369409
0.000427023
0.000467012
0.000492837
0.000509801
0.000520018
0.000526034
0.000529126
0.00053003
0.000529612
0.00052856
0.000526594
0.000524295
0.000521714
0.000519017
0.000516214
0.000513359
0.000510438
0.000507435
0.000504418
0.00050141
0.00049846
0.000495491
0.000492525
0.00048956
0.000486719
0.000484059
0.000481628
0.000479403
0.000477336
0.000475455
0.000473743
0.000472313
0.000471103
0.000470218
0.000469518
0.00046912
0.000468847
0.000468798
0.000468801
0.000468883
0.000468945
0.00046907
0.000469065
0.000469081
0.000468953
0.000468902
0.000468702
0.000468665
0.000468394
0.000468417
0.00046796
0.000468061
0.000467113
0.000467177
0.000465057
0.000468549
7.55243e-05
0.000180559
0.000286682
0.000369409
0.000427024
0.000467012
0.000492837
0.000509801
0.000520018
0.000526034
0.000529126
0.00053003
0.000529612
0.00052856
0.000526594
0.000524295
0.000521715
0.000519018
0.000516215
0.00051336
0.000510438
0.000507435
0.000504418
0.00050141
0.00049846
0.000495491
0.000492525
0.00048956
0.000486719
0.000484059
0.000481628
0.000479403
0.000477336
0.000475454
0.000473743
0.000472312
0.000471102
0.000470216
0.000469516
0.000469118
0.000468844
0.000468795
0.000468796
0.000468879
0.000468939
0.000469063
0.000469053
0.000469068
0.000468931
0.000468882
0.000468664
0.000468634
0.000468328
0.00046837
0.000467845
0.000467998
0.00046691
0.0004671
0.000464688
0.000468569
1.36385e-05
5.36046e-05
9.40951e-05
0.000137435
0.000168188
0.000195127
0.000214464
0.000231072
0.000242977
0.000253305
0.000260533
0.000266881
0.000271061
0.000274857
0.000277228
0.000279533
0.000280925
0.000282435
0.000283341
0.000284406
0.000285034
0.000285805
0.000286267
0.000286869
0.000287266
0.000287779
0.000288137
0.000288559
0.00028886
0.000289183
0.000289398
0.000289558
0.000289601
0.00028952
0.000289163
0.000288694
0.000288101
0.000287503
0.000286893
0.000286361
0.000285922
0.000285644
0.000285544
0.000285598
0.000285697
0.000285825
0.000285955
0.000286148
0.000286255
0.000286469
0.000286568
0.000286791
0.000286853
0.000287122
0.000287139
0.000287621
0.000287659
0.000288666
0.000288764
0.000293563
1.43519e-05
5.27345e-05
8.98785e-05
0.000131613
0.000157586
0.000182223
0.00019769
0.000212212
0.00022124
0.000229995
0.000235332
0.00024071
0.000243794
0.000247024
0.000248696
0.000250605
0.000251506
0.000252679
0.000253183
0.0002539
0.000254162
0.000254558
0.000254656
0.000254837
0.000254872
0.000254939
0.000254945
0.000254964
0.000254951
0.000254965
0.000254969
0.000255004
0.000255002
0.000255001
0.000254927
0.000254854
0.000254757
0.000254708
0.000254699
0.000254749
0.000254845
0.000254964
0.000255105
0.000255242
0.000255384
0.000255503
0.000255616
0.000255679
0.00025575
0.000255779
0.000255859
0.000255913
0.000256007
0.0002561
0.000256138
0.000256236
0.000256207
0.000256374
0.00025633
0.000259793
1.35841e-05
5.23843e-05
8.97808e-05
0.000132278
0.000159001
0.000183995
0.000199721
0.000214292
0.000223332
0.000231981
0.000237228
0.000242454
0.000245433
0.000248525
0.000250112
0.00025191
0.000252743
0.000253829
0.000254287
0.000254942
0.000255173
0.000255524
0.000255607
0.000255756
0.000255779
0.000255822
0.000255816
0.000255818
0.00025579
0.000255791
0.000255786
0.000255827
0.000255843
0.00025586
0.000255823
0.000255774
0.000255706
0.000255674
0.000255685
0.000255744
0.000255845
0.000255956
0.000256084
0.000256193
0.000256311
0.000256394
0.000256471
0.000256504
0.000256531
0.000256536
0.000256578
0.000256608
0.000256687
0.000256724
0.000256784
0.00025679
0.000256818
0.000256866
0.00025691
0.000260097
1.40243e-05
5.24944e-05
8.96049e-05
0.000131784
0.000158038
0.000182863
0.000198387
0.000212928
0.000221898
0.000230572
0.000235804
0.000241069
0.000244049
0.000247174
0.000248761
0.00025058
0.000251413
0.000252511
0.000252964
0.000253619
0.000253845
0.00025419
0.000254265
0.000254397
0.00025441
0.000254446
0.000254433
0.000254429
0.000254389
0.000254383
0.000254368
0.000254404
0.000254411
0.000254423
0.000254375
0.000254322
0.000254252
0.000254225
0.000254242
0.000254309
0.000254417
0.000254531
0.00025466
0.000254764
0.000254877
0.000254951
0.000255021
0.000255044
0.000255065
0.000255065
0.000255098
0.000255126
0.000255191
0.000255238
0.000255263
0.000255291
0.000255252
0.00025532
0.000255278
0.000258245
1.37784e-05
5.23947e-05
8.96387e-05
0.000131999
0.000158514
0.000183438
0.000199073
0.000213638
0.000222646
0.000231311
0.000236549
0.000241794
0.00024477
0.000247875
0.000249457
0.000251261
0.000252089
0.000253175
0.000253626
0.000254275
0.0002545
0.000254844
0.000254921
0.000255058
0.000255075
0.000255112
0.000255102
0.0002551
0.000255067
0.000255065
0.000255056
0.000255096
0.000255109
0.000255123
0.00025508
0.000255028
0.00025496
0.000254932
0.000254949
0.000255015
0.000255122
0.000255235
0.000255364
0.00025547
0.000255583
0.000255658
0.000255728
0.000255752
0.000255773
0.000255773
0.000255809
0.000255837
0.000255911
0.000255944
0.000255996
0.000255997
0.000256005
0.000256047
0.00025607
0.000259059
1.37785e-05
5.23947e-05
8.96387e-05
0.000131999
0.000158514
0.000183438
0.000199073
0.000213638
0.000222646
0.000231311
0.000236549
0.000241794
0.00024477
0.000247875
0.000249457
0.000251261
0.000252089
0.000253175
0.000253626
0.000254275
0.0002545
0.000254844
0.000254921
0.000255058
0.000255075
0.000255112
0.000255102
0.0002551
0.000255067
0.000255065
0.000255056
0.000255096
0.000255109
0.000255123
0.00025508
0.000255028
0.00025496
0.000254932
0.000254949
0.000255015
0.000255123
0.000255236
0.000255364
0.00025547
0.000255583
0.000255659
0.000255728
0.000255752
0.000255773
0.000255773
0.000255809
0.000255837
0.00025591
0.000255944
0.000255996
0.000255997
0.000256003
0.000256048
0.00025607
0.000259058
1.40243e-05
5.24945e-05
8.96049e-05
0.000131784
0.000158038