/*--------------------------------*- C++ -*----------------------------------*\
  =========                 |
  \\      /  F ield         | OpenFOAM: The Open Source CFD Toolbox
   \\    /   O peration     | Website:  https://openfoam.org
    \\  /    A nd           | Version:  7
     \\/     M anipulation  |
\*---------------------------------------------------------------------------*/
FoamFile
{
    version     2.0;
    format      ascii;
    class       volVectorField;
    location    "1.3925";
    object      U_0;
}
// * * * * * * * * * * * * * * * * * * * * * * * * * * * * * * * * * * * * * //

dimensions      [0 1 -1 0 0 0 0];

internalField   nonuniform List<vector> 
7920
(
(2.92813 0.101001 -32.3695)
(2.10065 -0.462886 -32.4093)
(1.38699 -0.616992 -32.3904)
(1.2764 -0.672741 -32.3905)
(1.04057 -0.689211 -32.3729)
(1.06441 -0.693984 -32.3809)
(0.922165 -0.698049 -32.3782)
(0.965499 -0.698317 -32.3918)
(0.858794 -0.700667 -32.3912)
(0.901686 -0.700442 -32.3986)
(0.816366 -0.701985 -32.3949)
(0.854988 -0.701466 -32.3992)
(0.785193 -0.702444 -32.3976)
(0.818908 -0.701881 -32.4004)
(0.760999 -0.702251 -32.4006)
(0.789849 -0.7023 -32.399)
(0.740345 -0.698361 -32.4036)
(0.759974 -0.704706 -32.3934)
(0.723406 -0.646246 -32.4121)
(0.549598 -0.659454 -32.3758)
(4.40979 0.967328 -32.4308)
(4.32816 0.872741 -32.4705)
(3.67267 0.818299 -32.4605)
(3.52141 0.751007 -32.4611)
(3.11926 0.723108 -32.4463)
(3.11079 0.709597 -32.4466)
(2.84583 0.703023 -32.4421)
(2.88472 0.699634 -32.4495)
(2.6863 0.697598 -32.4513)
(2.73531 0.695972 -32.4576)
(2.5774 0.694897 -32.4579)
(2.62585 0.69372 -32.4612)
(2.49682 0.693048 -32.4622)
(2.5414 0.692126 -32.4642)
(2.43396 0.691478 -32.4672)
(2.47553 0.691576 -32.4651)
(2.37932 0.688302 -32.4724)
(2.43747 0.69307 -32.4606)
(2.31432 0.683558 -32.4821)
(2.58754 0.67396 -32.4323)
(4.75063 0.192703 -32.4381)
(5.25365 -0.229472 -32.4744)
(5.1063 -0.375158 -32.4612)
(5.21439 -0.493374 -32.4663)
(4.96692 -0.558007 -32.4522)
(5.01341 -0.594534 -32.4527)
(4.79636 -0.618946 -32.4407)
(4.83587 -0.63283 -32.4422)
(4.65705 -0.643484 -32.4363)
(4.69467 -0.650209 -32.4412)
(4.54748 -0.655697 -32.4402)
(4.58246 -0.659731 -32.446)
(4.46036 -0.662893 -32.4478)
(4.49174 -0.665579 -32.4527)
(4.39067 -0.66778 -32.4572)
(4.41505 -0.668587 -32.4595)
(4.33788 -0.67204 -32.4677)
(4.33586 -0.667821 -32.4632)
(4.30629 -0.668716 -32.4781)
(4.20946 -0.691688 -32.445)
(4.75159 0.649241 -32.4484)
(5.27967 0.749536 -32.4829)
(5.37764 0.796594 -32.471)
(5.67951 0.766591 -32.4753)
(5.61809 0.748444 -32.4645)
(5.78677 0.734002 -32.4651)
(5.6905 0.723706 -32.4544)
(5.79999 0.715845 -32.4523)
(5.70293 0.709894 -32.4434)
(5.78136 0.704402 -32.4429)
(5.6925 0.700472 -32.4395)
(5.75234 0.696307 -32.4424)
(5.6731 0.693803 -32.4439)
(5.72153 0.690373 -32.4482)
(5.64973 0.689462 -32.4531)
(5.69439 0.685585 -32.4578)
(5.6222 0.688393 -32.4656)
(5.68142 0.681248 -32.469)
(5.58999 0.695836 -32.4783)
(5.73058 0.705073 -32.4569)
(4.74371 -0.0883822 -32.4475)
(5.24348 -0.387362 -32.4818)
(5.39877 -0.479767 -32.4672)
(5.75621 -0.545371 -32.4723)
(5.76423 -0.580958 -32.4602)
(5.99315 -0.600862 -32.4624)
(5.96354 -0.615123 -32.4509)
(6.1257 -0.623181 -32.4496)
(6.08774 -0.630166 -32.4385)
(6.20975 -0.634626 -32.437)
(6.17131 -0.638881 -32.4302)
(6.26609 -0.641947 -32.4322)
(6.2295 -0.645097 -32.4307)
(6.30451 -0.646956 -32.4353)
(6.27106 -0.650622 -32.4372)
(6.32967 -0.649034 -32.4439)
(6.30403 -0.658432 -32.4489)
(6.34003 -0.647106 -32.4576)
(6.33505 -0.670876 -32.464)
(6.33147 -0.693684 -32.4498)
(4.73116 0.352114 -32.4512)
(5.18667 0.557212 -32.486)
(5.35196 0.635425 -32.4713)
(5.72486 0.655307 -32.4765)
(5.75679 0.665257 -32.4641)
(6.00953 0.66843 -32.4666)
(6.00673 0.670559 -32.4551)
(6.19344 0.670748 -32.4542)
(6.18272 0.671158 -32.4427)
(6.32814 0.670508 -32.4408)
(6.31565 0.670434 -32.4331)
(6.43178 0.669586 -32.4345)
(6.41867 0.669647 -32.4317)
(6.51286 0.668405 -32.436)
(6.49918 0.669775 -32.4365)
(6.57679 0.666164 -32.4433)
(6.56349 0.673494 -32.447)
(6.62829 0.662508 -32.4568)
(6.61967 0.686055 -32.4628)
(6.68168 0.708216 -32.4493)
(4.73116 -0.352114 -32.4512)
(5.18667 -0.557212 -32.486)
(5.35196 -0.635425 -32.4713)
(5.72486 -0.655306 -32.4765)
(5.75679 -0.665257 -32.4641)
(6.00953 -0.668428 -32.4666)
(6.00673 -0.670558 -32.4551)
(6.19344 -0.670744 -32.4542)
(6.18272 -0.671154 -32.4427)
(6.32813 -0.670498 -32.4409)
(6.31566 -0.67042 -32.4331)
(6.43177 -0.66956 -32.4345)
(6.41871 -0.669608 -32.4317)
(6.51283 -0.668314 -32.4361)
(6.49928 -0.6697 -32.4364)
(6.57672 -0.665827 -32.4434)
(6.56374 -0.673389 -32.447)
(6.62814 -0.661504 -32.4568)
(6.62004 -0.685583 -32.4628)
(6.68152 -0.706396 -32.4492)
(4.74371 0.0883822 -32.4475)
(5.24349 0.387362 -32.4818)
(5.39877 0.479767 -32.4672)
(5.75622 0.545372 -32.4723)
(5.76423 0.580958 -32.4602)
(5.99315 0.600864 -32.4624)
(5.96353 0.615124 -32.4509)
(6.12571 0.623184 -32.4497)
(6.08773 0.630171 -32.4385)
(6.20977 0.634633 -32.437)
(6.17129 0.638897 -32.4301)
(6.26614 0.641966 -32.4323)
(6.22945 0.645141 -32.4305)
(6.30464 0.647028 -32.4355)
(6.271 0.650707 -32.4369)
(6.32997 0.649334 -32.4443)
(6.30406 0.658547 -32.4485)
(6.3407 0.648082 -32.4581)
(6.33563 0.671291 -32.4635)
(6.33314 0.695659 -32.4502)
(4.75159 -0.649241 -32.4484)
(5.27967 -0.749535 -32.4829)
(5.37764 -0.796594 -32.471)
(5.67951 -0.76659 -32.4753)
(5.61809 -0.748444 -32.4645)
(5.78678 -0.734 -32.4652)
(5.6905 -0.723706 -32.4543)
(5.8 -0.715841 -32.4524)
(5.70292 -0.709892 -32.4433)
(5.78138 -0.704391 -32.443)
(5.6925 -0.700464 -32.4393)
(5.75239 -0.696279 -32.4427)
(5.67312 -0.69378 -32.4435)
(5.72165 -0.690282 -32.4488)
(5.64985 -0.689425 -32.4523)
(5.69465 -0.685276 -32.459)
(5.62269 -0.688377 -32.4639)
(5.68193 -0.680375 -32.4712)
(5.59144 -0.695593 -32.4754)
(5.73187 -0.703591 -32.4604)
(4.75063 -0.192703 -32.4381)
(5.25365 0.229472 -32.4744)
(5.1063 0.375158 -32.4612)
(5.21439 0.493374 -32.4663)
(4.96692 0.558008 -32.4522)
(5.01341 0.594534 -32.4527)
(4.79635 0.618948 -32.4406)
(4.83588 0.632831 -32.4423)
(4.65704 0.643489 -32.4361)
(4.69471 0.650209 -32.4414)
(4.54746 0.655712 -32.4399)
(4.58256 0.659732 -32.4464)
(4.46033 0.662932 -32.4471)
(4.49203 0.665599 -32.4537)
(4.39065 0.667854 -32.4556)
(4.41573 0.668726 -32.4619)
(4.33816 0.672132 -32.4639)
(4.33743 0.668394 -32.469)
(4.30779 0.668949 -32.4695)
(4.21386 0.692741 -32.4576)
(4.40979 -0.967328 -32.4308)
(4.32816 -0.872741 -32.4705)
(3.67267 -0.818299 -32.4605)
(3.52141 -0.751007 -32.4611)
(3.11926 -0.723108 -32.4463)
(3.11079 -0.709596 -32.4466)
(2.84584 -0.703023 -32.442)
(2.88473 -0.699631 -32.4496)
(2.6863 -0.697599 -32.4512)
(2.73534 -0.695966 -32.4578)
(2.57741 -0.694898 -32.4576)
(2.62591 -0.693703 -32.4616)
(2.49686 -0.693048 -32.4615)
(2.54159 -0.69207 -32.4653)
(2.43412 -0.691489 -32.4655)
(2.47594 -0.691388 -32.468)
(2.38002 -0.688395 -32.4675)
(2.43811 -0.692577 -32.469)
(2.31672 -0.683825 -32.4673)
(2.58812 -0.673991 -32.4585)
(2.92813 -0.101001 -32.3695)
(2.10065 0.462886 -32.4093)
(1.38699 0.616993 -32.3904)
(1.2764 0.672741 -32.3905)
(1.04057 0.689212 -32.3729)
(1.06441 0.693983 -32.381)
(0.922165 0.69805 -32.3782)
(0.965504 0.698315 -32.3919)
(0.858795 0.70067 -32.3911)
(0.901699 0.700436 -32.3987)
(0.816368 0.701992 -32.3947)
(0.855028 0.701452 -32.3996)
(0.785197 0.70246 -32.397)
(0.819023 0.701841 -32.4014)
(0.761035 0.702292 -32.3991)
(0.790118 0.702197 -32.4016)
(0.7406 0.698489 -32.3992)
(0.760516 0.704532 -32.401)
(0.724547 0.646821 -32.3986)
(0.551687 0.660083 -32.3997)
(4.32394 0.565914 0.00689154)
(3.07528 0.847752 0.00442464)
(2.3085 0.869427 0.00569512)
(1.73836 0.852369 0.00421646)
(1.59799 0.854609 0.00535748)
(1.39153 0.866161 0.00418942)
(1.38267 0.875977 0.00514485)
(1.25778 0.88415 0.0041668)
(1.26214 0.888527 0.00494873)
(1.17264 0.892324 0.0041211)
(1.17794 0.894085 0.00476124)
(1.11182 0.896167 0.00406635)
(1.11567 0.896969 0.00459303)
(1.06456 0.898497 0.00401113)
(1.06716 0.898394 0.00444284)
(1.02417 0.900802 0.00395484)
(1.02832 0.893377 0.00431016)
(1.00275 0.914751 0.00389552)
(0.956467 0.791014 0.00422149)
(1.39553 0.817926 0.00378304)
(4.7575 -0.100139 0.00431466)
(4.60789 -0.277281 0.00228352)
(4.51936 -0.477199 0.00358693)
(4.13393 -0.642943 0.00214472)
(3.98838 -0.739 0.00329593)
(3.70654 -0.794088 0.00213294)
(3.62933 -0.821388 0.00308995)
(3.43874 -0.838485 0.00211307)
(3.39581 -0.848768 0.00289691)
(3.25979 -0.856648 0.00207244)
(3.23123 -0.862005 0.00271487)
(3.12954 -0.866516 0.00202155)
(3.10754 -0.869443 0.00254896)
(3.02791 -0.872728 0.00196797)
(3.0109 -0.873477 0.00239967)
(2.94169 -0.877853 0.00191353)
(2.93841 -0.874941 0.0022629)
(2.85035 -0.881919 0.00185831)
(2.92128 -0.88546 0.00211334)
(2.51687 -0.895529 0.00173275)
(4.63621 0.435193 0.00561296)
(4.82211 0.871307 0.00365772)
(5.13475 0.969211 0.00484241)
(5.07188 0.959721 0.00335976)
(5.13077 0.941219 0.00448561)
(4.99202 0.927976 0.0033099)
(4.99517 0.918672 0.00426098)
(4.87306 0.913017 0.00327973)
(4.86476 0.906726 0.00406093)
(4.76557 0.903215 0.00323435)
(4.75259 0.89869 0.00387529)
(4.67255 0.896582 0.00318096)
(4.65706 0.893642 0.00370749)
(4.59255 0.892219 0.00312594)
(4.57401 0.890709 0.00355786)
(4.5259 0.888702 0.00307046)
(4.49417 0.887421 0.00342595)
(4.48645 0.887402 0.00301133)
(4.40295 0.848424 0.00333531)
(4.52008 0.887341 0.0029221)
(4.57442 -0.201732 0.00443427)
(4.69589 -0.398251 0.00269873)
(5.12382 -0.5188 0.00388862)
(5.22058 -0.623323 0.00243549)
(5.4346 -0.690842 0.00356362)
(5.43206 -0.737812 0.00239247)
(5.54053 -0.764285 0.00334698)
(5.51159 -0.783633 0.0023688)
(5.57314 -0.79626 0.00315269)
(5.53928 -0.806878 0.00232858)
(5.57501 -0.814719 0.00297085)
(5.54219 -0.82156 0.00227832)
(5.56249 -0.826888 0.00280547)
(5.53224 -0.831565 0.00222561)
(5.54362 -0.835634 0.0026573)
(5.51402 -0.838163 0.00217245)
(5.52433 -0.845697 0.00252117)
(5.47816 -0.839788 0.00211638)
(5.5153 -0.875781 0.0023694)
(5.31736 -0.897664 0.00201709)
(4.58747 0.341397 0.00508756)
(4.69179 0.688353 0.00339137)
(5.09958 0.803041 0.00453352)
(5.2171 0.844306 0.00306614)
(5.47134 0.86101 0.00418135)
(5.5179 0.870606 0.00300353)
(5.67723 0.874306 0.00395496)
(5.7007 0.876932 0.00297468)
(5.8107 0.876339 0.0037577)
(5.82468 0.8766 0.0029324)
(5.90262 0.875024 0.00357391)
(5.91107 0.874703 0.00288041)
(5.96676 0.873346 0.00340683)
(5.97225 0.872594 0.00282627)
(6.01094 0.872457 0.00325787)
(6.01739 0.869514 0.00277206)
(6.0376 0.873767 0.00312532)
(6.05284 0.865354 0.00271415)
(6.05109 0.869455 0.00301922)
(6.04599 0.91514 0.0026415)
(4.58142 -0.269066 0.0047167)
(4.66367 -0.539336 0.00308502)
(5.06639 -0.653608 0.00422657)
(5.1853 -0.72422 0.00276641)
(5.451 -0.76442 0.00387993)
(5.5126 -0.791915 0.00270214)
(5.68981 -0.806439 0.00365354)
(5.7325 -0.817215 0.0026736)
(5.86242 -0.823053 0.00345715)
(5.89701 -0.828504 0.00263245)
(5.99521 -0.831737 0.00327433)
(6.02372 -0.835143 0.0025813)
(6.09891 -0.837475 0.00310781)
(6.12222 -0.839451 0.00252772)
(6.18038 -0.842295 0.00295898)
(6.19869 -0.841148 0.00247404)
(6.24464 -0.85017 0.00282402)
(6.24947 -0.839301 0.00241676)
(6.29872 -0.870314 0.00269256)
(6.2089 -0.905173 0.002339)
(4.58142 0.269066 0.0047167)
(4.66367 0.539336 0.00308502)
(5.06639 0.653608 0.00422657)
(5.1853 0.724221 0.00276641)
(5.451 0.76442 0.00387993)
(5.5126 0.791917 0.00270213)
(5.68981 0.806439 0.00365354)
(5.73251 0.81722 0.00267359)
(5.86241 0.823056 0.00345716)
(5.89702 0.828515 0.00263243)
(5.99519 0.831749 0.00327434)
(6.02375 0.835178 0.00258126)
(6.09887 0.837509 0.00310785)
(6.12229 0.839565 0.00252762)
(6.1803 0.842384 0.00295909)
(6.19889 0.841479 0.00247378)
(6.2445 0.850464 0.00282437)
(6.25011 0.84013 0.00241615)
(6.29897 0.871331 0.00269375)
(6.20995 0.907165 0.00233803)
(4.58747 -0.341397 0.00508756)
(4.69179 -0.688352 0.00339137)
(5.09958 -0.803041 0.00453352)
(5.2171 -0.844305 0.00306614)
(5.47134 -0.86101 0.00418134)
(5.5179 -0.870604 0.00300353)
(5.67723 -0.874306 0.00395495)
(5.7007 -0.876927 0.00297468)
(5.8107 -0.876337 0.00375769)
(5.82468 -0.876586 0.00293242)
(5.90263 -0.875015 0.00357389)
(5.91108 -0.874662 0.00288045)
(5.9668 -0.873324 0.00340677)
(5.97226 -0.872469 0.00282638)
(6.01109 -0.872402 0.00325771)
(6.01737 -0.869172 0.00277234)
(6.03802 -0.873575 0.00312489)
(6.05269 -0.864637 0.00271468)
(6.05189 -0.868672 0.00301804)
(6.04611 -0.913368 0.00264196)
(4.57442 0.201732 0.00443427)
(4.69589 0.398251 0.00269874)
(5.12382 0.5188 0.00388862)
(5.22058 0.623323 0.00243549)
(5.4346 0.690843 0.00356362)
(5.43207 0.737813 0.00239247)
(5.54053 0.764286 0.00334698)
(5.5116 0.783635 0.0023688)
(5.57313 0.796265 0.00315269)
(5.53931 0.806885 0.00232857)
(5.57499 0.814734 0.00297085)
(5.54227 0.821582 0.00227831)
(5.56246 0.826927 0.00280548)
(5.53244 0.831642 0.00222557)
(5.54361 0.835732 0.00265734)
(5.51451 0.838405 0.00217233)
(5.52449 0.846013 0.00252135)
(5.47949 0.840494 0.00211598)
(5.51641 0.876843 0.00237048)
(5.32075 0.89938 0.0020161)
(4.63621 -0.435193 0.00561296)
(4.82211 -0.871307 0.00365772)
(5.13475 -0.969211 0.0048424)
(5.07188 -0.95972 0.00335976)
(5.13076 -0.941219 0.0044856)
(4.99202 -0.927974 0.0033099)
(4.99517 -0.918673 0.00426097)
(4.87307 -0.913012 0.00327975)
(4.86475 -0.906726 0.00406091)
(4.7656 -0.903203 0.00323438)
(4.75259 -0.898689 0.00387524)
(4.67262 -0.896545 0.00318104)
(4.65709 -0.893641 0.00370737)
(4.59273 -0.89211 0.00312612)
(4.57418 -0.890716 0.00355755)
(4.5263 -0.888419 0.00307091)
(4.4948 -0.887418 0.00342521)
(4.48733 -0.886933 0.00301218)
(4.40459 -0.848172 0.00333363)
(4.52248 -0.886725 0.00292273)
(4.7575 0.100139 0.00431466)
(4.60789 0.27728 0.00228352)
(4.51936 0.477199 0.00358693)
(4.13393 0.642943 0.00214472)
(3.98837 0.739001 0.00329593)
(3.70654 0.794088 0.00213294)
(3.62933 0.82139 0.00308995)
(3.43876 0.838485 0.00211307)
(3.39581 0.848773 0.0028969)
(3.25983 0.856646 0.00207244)
(3.23122 0.862018 0.00271486)
(3.12965 0.866511 0.00202156)
(3.10754 0.869476 0.00254892)
(3.0282 0.872723 0.00196801)
(3.01097 0.873564 0.00239957)
(2.94244 0.87786 0.00191364)
(2.93872 0.875203 0.00226269)
(2.85259 0.882094 0.00185846)
(2.922 0.886368 0.0021135)
(2.52503 0.896881 0.00173282)
(4.32394 -0.565914 0.00689154)
(3.07528 -0.847752 0.00442464)
(2.3085 -0.869427 0.00569512)
(1.73836 -0.852369 0.00421646)
(1.59799 -0.854609 0.00535747)
(1.39153 -0.86616 0.00418942)
(1.38267 -0.875978 0.00514484)
(1.25778 -0.884148 0.00416682)
(1.26215 -0.888531 0.0049487)
(1.17266 -0.892317 0.00412114)
(1.17795 -0.894092 0.00476118)
(1.11187 -0.896146 0.00406645)
(1.11572 -0.896991 0.00459287)
(1.06467 -0.898439 0.00401139)
(1.06736 -0.898459 0.00444239)
(1.02442 -0.900651 0.00395556)
(1.0289 -0.893593 0.00430891)
(1.00336 -0.914553 0.00389741)
(0.95785 -0.792124 0.00421768)
(1.39669 -0.819237 0.00378815)
(4.37744 0.0970893 0.00136117)
(3.9631 0.149027 0.00190495)
(3.42506 0.162979 0.000951033)
(2.94448 0.156757 0.00149322)
(2.5291 0.145201 0.000969043)
(2.22196 0.136667 0.00138463)
(1.99456 0.131686 0.0010412)
(1.83856 0.131275 0.00130429)
(1.73224 0.133592 0.00107214)
(1.6544 0.138046 0.00122536)
(1.60442 0.143053 0.00108049)
(1.55928 0.148447 0.001162)
(1.53297 0.153057 0.00108686)
(1.50136 0.157942 0.00111904)
(1.48393 0.160734 0.00109724)
(1.46147 0.16608 0.00109193)
(1.44097 0.164449 0.00111652)
(1.44123 0.174783 0.00107561)
(1.38941 0.16014 0.00112937)
(1.4631 0.165945 0.00114255)
(4.53996 0.0878095 0.00315283)
(4.67365 0.119436 0.00387555)
(4.71303 0.120782 0.00291455)
(4.69823 0.0944562 0.00343199)
(4.61783 0.0562819 0.00288298)
(4.51882 0.0139404 0.00328402)
(4.40816 -0.0239272 0.00293009)
(4.2999 -0.0564551 0.00318823)
(4.20143 -0.0812948 0.00295354)
(4.10683 -0.101116 0.00310706)
(4.02728 -0.115569 0.00296253)
(3.94809 -0.12726 0.00304466)
(3.88506 -0.135774 0.00296954)
(3.81919 -0.143024 0.00300183)
(3.76953 -0.148478 0.00298083)
(3.71514 -0.15285 0.00297458)
(3.67479 -0.157702 0.00300288)
(3.63371 -0.158951 0.00295569)
(3.59352 -0.16541 0.00305185)
(3.5735 -0.171979 0.00305321)
(4.51529 0.0457505 0.00171821)
(4.65172 0.110495 0.00232522)
(4.78097 0.162881 0.0013965)
(4.92601 0.191275 0.00191848)
(5.03039 0.201518 0.00137689)
(5.11115 0.202394 0.00178565)
(5.1586 0.199161 0.00144038)
(5.18436 0.196176 0.00170335)
(5.19546 0.19432 0.00147329)
(5.19278 0.193909 0.00162804)
(5.1872 0.194309 0.0014857)
(5.17263 0.195228 0.00156791)
(5.15973 0.195963 0.00149377)
(5.14166 0.197174 0.00152634)
(5.12443 0.196648 0.00150509)
(5.10848 0.199422 0.00150123)
(5.08553 0.193957 0.00152262)
(5.07789 0.204329 0.00149157)
(5.04392 0.183808 0.00151771)
(5.05071 0.207409 0.0015499)
(4.51133 0.0441711 0.00273638)
(4.61729 0.0508864 0.00345329)
(4.73863 0.04661 0.00254891)
(4.89486 0.0290589 0.0030759)
(5.03135 0.00681883 0.00251979)
(5.16014 -0.0183061 0.00291685)
(5.2636 -0.0420802 0.00256076)
(5.34944 -0.0635686 0.00281881)
(5.42035 -0.0811779 0.00258424)
(5.47664 -0.0957667 0.00273722)
(5.5275 -0.107287 0.00259247)
(5.56707 -0.116621 0.00267381)
(5.60595 -0.124354 0.00259835)
(5.6359 -0.13025 0.00263052)
(5.66682 -0.136373 0.00260918)
(5.69034 -0.139148 0.00260497)
(5.71653 -0.146326 0.00263066)
(5.73171 -0.144603 0.00259614)
(5.75984 -0.155095 0.00268365)
(5.75374 -0.153407 0.00268653)
(4.51244 0.0165897 0.00203601)
(4.61846 0.0557083 0.00270734)
(4.7328 0.0914562 0.00181288)
(4.88301 0.117097 0.00233118)
(5.01729 0.133371 0.00177321)
(5.14986 0.14443 0.00217059)
(5.26187 0.15215 0.00181745)
(5.36066 0.158843 0.00207785)
(5.44739 0.164692 0.00184616)
(5.52197 0.170253 0.00200047)
(5.59291 0.17509 0.0018574)
(5.65379 0.179527 0.00193915)
(5.7155 0.182927 0.00186449)
(5.76812 0.186392 0.0018968)
(5.82411 0.187805 0.00187546)
(5.86941 0.191771 0.00187212)
(5.92455 0.188871 0.0018932)
(5.95511 0.198341 0.00186721)
(6.02444 0.184176 0.00190276)
(6.01633 0.209075 0.00193391)
(4.51118 0.0119248 0.00236892)
(4.61062 -0.00401895 0.00306947)
(4.72355 -0.0234343 0.00218265)
(4.87205 -0.0448965 0.00270676)
(5.00549 -0.0639789 0.0021472)
(5.13794 -0.0817494 0.00254282)
(5.25105 -0.0972045 0.00218714)
(5.35204 -0.110918 0.00244652)
(5.4423 -0.122383 0.00221378)
(5.52117 -0.132121 0.0023678)
(5.59783 -0.140116 0.00222421)
(5.66449 -0.146671 0.00230579)
(5.73405 -0.15218 0.00223086)
(5.79304 -0.15643 0.00226297)
(5.85953 -0.160396 0.00224172)
(5.91011 -0.163017 0.00223801)
(5.98011 -0.165862 0.00226129)
(6.01151 -0.168344 0.00223354)
(6.10355 -0.167838 0.00229778)
(6.08715 -0.177408 0.00231147)
(4.51118 -0.011925 0.00236892)
(4.61062 0.00401948 0.00306947)
(4.72355 0.0234338 0.00218265)
(4.87205 0.0448977 0.00270676)
(5.00549 0.0639782 0.0021472)
(5.13794 0.081752 0.00254282)
(5.25105 0.0972045 0.00218713)
(5.35205 0.110924 0.00244653)
(5.4423 0.122385 0.00221377)
(5.52118 0.132136 0.00236781)
(5.59783 0.140125 0.00222419)
(5.6645 0.146713 0.00230583)
(5.73405 0.152203 0.00223082)
(5.79305 0.156553 0.00226306)
(5.85953 0.160451 0.0022416)
(5.91014 0.163355 0.00223822)
(5.98014 0.166039 0.00226087)
(6.01158 0.169142 0.00223392)
(6.10367 0.168563 0.00229585)
(6.08738 0.178995 0.00231208)
(4.51244 -0.01659 0.00203601)
(4.61846 -0.0557078 0.00270734)
(4.7328 -0.0914567 0.00181288)
(4.88301 -0.117095 0.00233118)
(5.01729 -0.133371 0.00177321)
(5.14986 -0.144427 0.00217059)
(5.26187 -0.152151 0.00181745)
(5.36066 -0.158837 0.00207784)
(5.44739 -0.16469 0.00184617)
(5.52197 -0.170238 0.00200046)
(5.59291 -0.175082 0.00185741)
(5.65379 -0.179485 0.00193912)
(5.71552 -0.182907 0.00186453)
(5.76812 -0.186269 0.00189672)
(5.82419 -0.187755 0.00187558)
(5.86941 -0.191438 0.0018719)
(5.92475 -0.188709 0.00189359)
(5.95518 -0.197568 0.00186679)
(6.02488 -0.183505 0.00190438)
(6.01669 -0.207604 0.00193332)
(4.51133 -0.0441713 0.00273638)
(4.61729 -0.050886 0.00345329)
(4.73863 -0.0466104 0.00254891)
(4.89486 -0.0290579 0.00307591)
(5.03135 -0.00681939 0.00251979)
(5.16014 0.0183084 0.00291686)
(5.2636 0.0420803 0.00256076)
(5.34945 0.0635738 0.00281882)
(5.42035 0.0811806 0.00258422)
(5.47666 0.0957794 0.00273724)
(5.52749 0.107296 0.00259244)
(5.56711 0.116658 0.00267385)
(5.60595 0.124377 0.00259829)
(5.63598 0.13036 0.00263061)
(5.66689 0.136424 0.00260904)
(5.69051 0.139456 0.00260515)
(5.71682 0.146478 0.00263021)
(5.73212 0.145344 0.00259645)
(5.76077 0.155727 0.0026818)
(5.75495 0.154899 0.00268681)
(4.51529 -0.0457506 0.00171821)
(4.65172 -0.110494 0.00232522)
(4.78097 -0.162882 0.0013965)
(4.92602 -0.191274 0.00191848)
(5.03039 -0.201519 0.00137688)
(5.11115 -0.202392 0.00178565)
(5.15859 -0.199162 0.00144038)
(5.18438 -0.19617 0.00170336)
(5.19544 -0.194319 0.00147328)
(5.19282 -0.193895 0.00162805)
(5.18718 -0.194305 0.0014857)
(5.17272 -0.19519 0.00156791)
(5.15972 -0.195953 0.00149377)
(5.14186 -0.197068 0.00152632)
(5.1245 -0.196625 0.00150512)
(5.10889 -0.199144 0.00150113)
(5.08596 -0.193872 0.00152279)
(5.07877 -0.203716 0.00149133)
(5.04534 -0.183389 0.00151858)
(5.05288 -0.20643 0.00154971)
(4.53996 -0.0878095 0.00315283)
(4.67365 -0.119436 0.00387555)
(4.71303 -0.120782 0.00291455)
(4.69823 -0.0944559 0.003432)
(4.61782 -0.0562817 0.00288297)
(4.51882 -0.0139396 0.00328403)
(4.40815 0.0239283 0.00293007)
(4.29993 0.056457 0.00318826)
(4.20141 0.0812985 0.0029535)
(4.10689 0.101121 0.00310712)
(4.02725 0.115578 0.00296244)
(3.94825 0.127276 0.0030448)
(3.88501 0.135792 0.00296933)
(3.81956 0.143077 0.00300215)
(3.76953 0.148512 0.00298033)
(3.71599 0.153006 0.00297529)
(3.67507 0.157789 0.0030017)
(3.63563 0.159335 0.00295718)
(3.59472 0.165777 0.00304872)
(3.57815 0.172724 0.00305614)
(4.37744 -0.0970892 0.00136117)
(3.9631 -0.149026 0.00190496)
(3.42506 -0.162979 0.000951033)
(2.94448 -0.156757 0.00149322)
(2.5291 -0.145201 0.000969042)
(2.22197 -0.136666 0.00138463)
(1.99456 -0.131686 0.0010412)
(1.83858 -0.131274 0.0013043)
(1.73224 -0.133592 0.00107213)
(1.65444 -0.138043 0.00122538)
(1.60443 -0.143053 0.00108047)
(1.55939 -0.148438 0.00116203)
(1.533 -0.15306 0.00108681)
(1.50162 -0.157915 0.00111912)
(1.48409 -0.16075 0.0010971)
(1.46206 -0.166004 0.00109213)
(1.44152 -0.164497 0.00111609)
(1.44272 -0.174628 0.00107622)
(1.3906 -0.160242 0.00112806)
(1.46768 -0.166078 0.00114449)
(4.37744 0.0970893 -0.0013612)
(3.9631 0.149027 -0.00190498)
(3.42506 0.162979 -0.000951061)
(2.94448 0.156757 -0.00149325)
(2.5291 0.145201 -0.000969071)
(2.22196 0.136667 -0.00138466)
(1.99456 0.131686 -0.00104123)
(1.83856 0.131276 -0.00130432)
(1.73224 0.133592 -0.00107216)
(1.6544 0.138046 -0.00122539)
(1.60442 0.143053 -0.00108052)
(1.55928 0.148447 -0.00116203)
(1.53296 0.153057 -0.00108689)
(1.50136 0.157942 -0.00111907)
(1.48393 0.160734 -0.00109727)
(1.46147 0.16608 -0.00109196)
(1.44097 0.164449 -0.00111655)
(1.44123 0.174783 -0.00107563)
(1.38941 0.16014 -0.0011294)
(1.4631 0.165945 -0.00114258)
(4.53996 0.0878095 -0.00315286)
(4.67365 0.119436 -0.00387557)
(4.71303 0.120782 -0.00291458)
(4.69823 0.0944562 -0.00343202)
(4.61783 0.0562818 -0.00288301)
(4.51882 0.0139404 -0.00328405)
(4.40816 -0.0239273 -0.00293012)
(4.2999 -0.0564552 -0.00318826)
(4.20143 -0.0812949 -0.00295356)
(4.10683 -0.101116 -0.00310709)
(4.02728 -0.115569 -0.00296256)
(3.94809 -0.12726 -0.00304469)
(3.88505 -0.135774 -0.00296957)
(3.81919 -0.143024 -0.00300186)
(3.76953 -0.148478 -0.00298085)
(3.71514 -0.15285 -0.00297461)
(3.67479 -0.157702 -0.0030029)
(3.63371 -0.158951 -0.00295572)
(3.59352 -0.16541 -0.00305188)
(3.5735 -0.171979 -0.00305324)
(4.51529 0.0457505 -0.00171824)
(4.65172 0.110495 -0.00232525)
(4.78097 0.162881 -0.00139653)
(4.92601 0.191275 -0.00191851)
(5.03039 0.201518 -0.00137691)
(5.11115 0.202394 -0.00178568)
(5.1586 0.199161 -0.00144041)
(5.18436 0.196176 -0.00170338)
(5.19546 0.19432 -0.00147332)
(5.19278 0.193909 -0.00162807)
(5.1872 0.194309 -0.00148573)
(5.17263 0.195228 -0.00156794)
(5.15973 0.195964 -0.0014938)
(5.14166 0.197174 -0.00152637)
(5.12443 0.196648 -0.00150512)
(5.10848 0.199422 -0.00150125)
(5.08553 0.193957 -0.00152265)
(5.07789 0.204329 -0.0014916)
(5.04392 0.183808 -0.00151773)
(5.05071 0.207409 -0.00154993)
(4.51133 0.0441711 -0.00273641)
(4.61729 0.0508864 -0.00345332)
(4.73863 0.0466099 -0.00254893)
(4.89486 0.0290589 -0.00307593)
(5.03135 0.0068188 -0.00251982)
(5.16014 -0.0183061 -0.00291688)
(5.2636 -0.0420802 -0.00256079)
(5.34944 -0.0635686 -0.00281884)
(5.42035 -0.0811779 -0.00258426)
(5.47664 -0.0957666 -0.00273725)
(5.5275 -0.107287 -0.0025925)
(5.56707 -0.116621 -0.00267384)
(5.60595 -0.124354 -0.00259838)
(5.6359 -0.13025 -0.00263055)
(5.66682 -0.136373 -0.00260921)
(5.69034 -0.139149 -0.002605)
(5.71653 -0.146326 -0.00263069)
(5.73171 -0.144603 -0.00259617)
(5.75984 -0.155095 -0.00268368)
(5.75374 -0.153407 -0.00268656)
(4.51244 0.0165897 -0.00203604)
(4.61846 0.0557083 -0.00270737)
(4.7328 0.0914562 -0.00181291)
(4.88301 0.117097 -0.00233121)
(5.01729 0.133371 -0.00177324)
(5.14986 0.14443 -0.00217062)
(5.26187 0.15215 -0.00181747)
(5.36066 0.158843 -0.00207788)
(5.44739 0.164692 -0.00184619)
(5.52196 0.170253 -0.0020005)
(5.59291 0.17509 -0.00185743)
(5.65379 0.179527 -0.00193918)
(5.7155 0.182927 -0.00186452)
(5.76812 0.186392 -0.00189683)
(5.82411 0.187805 -0.00187549)
(5.86941 0.191771 -0.00187215)
(5.92455 0.188871 -0.00189323)
(5.95511 0.198341 -0.00186723)
(6.02444 0.184176 -0.00190279)
(6.01633 0.209076 -0.00193394)
(4.51118 0.0119248 -0.00236895)
(4.61062 -0.00401897 -0.0030695)
(4.72355 -0.0234344 -0.00218268)
(4.87205 -0.0448965 -0.00270679)
(5.00549 -0.0639789 -0.00214723)
(5.13794 -0.0817494 -0.00254284)
(5.25105 -0.0972046 -0.00218717)
(5.35204 -0.110918 -0.00244655)
(5.4423 -0.122383 -0.00221381)
(5.52117 -0.132121 -0.00236782)
(5.59783 -0.140116 -0.00222424)
(5.66449 -0.146671 -0.00230582)
(5.73405 -0.15218 -0.00223089)
(5.79304 -0.15643 -0.002263)
(5.85953 -0.160396 -0.00224175)
(5.91011 -0.163017 -0.00223804)
(5.98011 -0.165862 -0.00226132)
(6.01151 -0.168344 -0.00223357)
(6.10355 -0.167838 -0.0022978)
(6.08715 -0.177408 -0.00231149)
(4.51118 -0.011925 -0.00236895)
(4.61062 0.00401947 -0.0030695)
(4.72355 0.0234338 -0.00218268)
(4.87205 0.0448977 -0.00270679)
(5.00549 0.0639782 -0.00214723)
(5.13794 0.081752 -0.00254285)
(5.25105 0.0972045 -0.00218716)
(5.35205 0.110924 -0.00244656)
(5.4423 0.122385 -0.0022138)
(5.52118 0.132136 -0.00236784)
(5.59783 0.140126 -0.00222422)
(5.6645 0.146713 -0.00230586)
(5.73405 0.152203 -0.00223084)
(5.79305 0.156553 -0.00226309)
(5.85953 0.160451 -0.00224163)
(5.91014 0.163355 -0.00223825)
(5.98014 0.166039 -0.0022609)
(6.01158 0.169142 -0.00223395)
(6.10367 0.168563 -0.00229588)
(6.08738 0.178995 -0.00231211)
(4.51244 -0.01659 -0.00203604)
(4.61846 -0.0557078 -0.00270737)
(4.7328 -0.0914568 -0.00181291)
(4.88301 -0.117095 -0.00233121)
(5.01729 -0.133371 -0.00177324)
(5.14986 -0.144428 -0.00217062)
(5.26187 -0.152151 -0.00181748)
(5.36066 -0.158837 -0.00207787)
(5.44739 -0.16469 -0.0018462)
(5.52197 -0.170238 -0.00200048)
(5.59291 -0.175082 -0.00185744)
(5.65379 -0.179485 -0.00193914)
(5.71552 -0.182907 -0.00186456)
(5.76812 -0.186269 -0.00189675)
(5.82419 -0.187755 -0.00187561)
(5.86941 -0.191438 -0.00187193)
(5.92475 -0.188709 -0.00189361)
(5.95518 -0.197568 -0.00186682)
(6.02488 -0.183505 -0.00190441)
(6.01669 -0.207604 -0.00193334)
(4.51133 -0.0441713 -0.00273641)
(4.61729 -0.050886 -0.00345332)
(4.73863 -0.0466104 -0.00254893)
(4.89486 -0.0290579 -0.00307593)
(5.03135 -0.0068194 -0.00251982)
(5.16014 0.0183084 -0.00291688)
(5.2636 0.0420802 -0.00256078)
(5.34945 0.0635738 -0.00281885)
(5.42035 0.0811806 -0.00258425)
(5.47666 0.0957795 -0.00273727)
(5.52749 0.107296 -0.00259247)
(5.56711 0.116658 -0.00267388)
(5.60595 0.124377 -0.00259832)
(5.63598 0.13036 -0.00263064)
(5.66689 0.136424 -0.00260906)
(5.69051 0.139456 -0.00260518)
(5.71682 0.146478 -0.00263024)
(5.73212 0.145344 -0.00259648)
(5.76076 0.155727 -0.00268183)
(5.75495 0.154899 -0.00268684)
(4.51529 -0.0457506 -0.00171824)
(4.65172 -0.110494 -0.00232525)
(4.78097 -0.162882 -0.00139653)
(4.92602 -0.191274 -0.00191851)
(5.03039 -0.201519 -0.00137691)
(5.11115 -0.202392 -0.00178568)
(5.15859 -0.199162 -0.00144041)
(5.18438 -0.19617 -0.00170339)
(5.19544 -0.194319 -0.00147331)
(5.19282 -0.193895 -0.00162808)
(5.18718 -0.194305 -0.00148572)
(5.17272 -0.19519 -0.00156794)
(5.15972 -0.195953 -0.0014938)
(5.14186 -0.197068 -0.00152635)
(5.1245 -0.196625 -0.00150515)
(5.10889 -0.199144 -0.00150116)
(5.08596 -0.193872 -0.00152282)
(5.07877 -0.203716 -0.00149136)
(5.04534 -0.183389 -0.0015186)
(5.05288 -0.20643 -0.00154974)
(4.53996 -0.0878095 -0.00315286)
(4.67365 -0.119436 -0.00387558)
(4.71303 -0.120782 -0.00291458)
(4.69823 -0.0944558 -0.00343202)
(4.61782 -0.0562817 -0.002883)
(4.51882 -0.0139396 -0.00328406)
(4.40815 0.0239282 -0.0029301)
(4.29993 0.0564569 -0.00318829)
(4.20141 0.0812984 -0.00295353)
(4.10689 0.101121 -0.00310715)
(4.02725 0.115578 -0.00296247)
(3.94826 0.127276 -0.00304483)
(3.88501 0.135792 -0.00296936)
(3.81956 0.143077 -0.00300218)
(3.76953 0.148512 -0.00298036)
(3.71599 0.153006 -0.00297532)
(3.67507 0.157789 -0.00300173)
(3.63563 0.159335 -0.0029572)
(3.59471 0.165777 -0.00304875)
(3.57815 0.172724 -0.00305617)
(4.37744 -0.0970892 -0.0013612)
(3.9631 -0.149026 -0.00190498)
(3.42506 -0.162979 -0.000951061)
(2.94448 -0.156757 -0.00149325)
(2.5291 -0.145201 -0.00096907)
(2.22197 -0.136666 -0.00138466)
(1.99456 -0.131686 -0.00104123)
(1.83858 -0.131274 -0.00130433)
(1.73224 -0.133592 -0.00107216)
(1.65444 -0.138043 -0.0012254)
(1.60443 -0.143053 -0.0010805)
(1.55939 -0.148438 -0.00116206)
(1.533 -0.15306 -0.00108684)
(1.50162 -0.157915 -0.00111915)
(1.48409 -0.16075 -0.00109713)
(1.46206 -0.166004 -0.00109216)
(1.44152 -0.164497 -0.00111612)
(1.44272 -0.174628 -0.00107624)
(1.3906 -0.160242 -0.00112809)
(1.46768 -0.166078 -0.00114452)
(4.32394 0.565914 -0.00689156)
(3.07528 0.847752 -0.00442466)
(2.3085 0.869427 -0.00569514)
(1.73836 0.852369 -0.00421648)
(1.59799 0.854609 -0.0053575)
(1.39153 0.866161 -0.00418944)
(1.38267 0.875977 -0.00514487)
(1.25778 0.88415 -0.00416682)
(1.26214 0.888528 -0.00494875)
(1.17264 0.892324 -0.00412112)
(1.17794 0.894084 -0.00476126)
(1.11182 0.896166 -0.00406637)
(1.11567 0.896969 -0.00459305)