/*--------------------------------*- C++ -*----------------------------------*\
  =========                 |
  \\      /  F ield         | OpenFOAM: The Open Source CFD Toolbox
   \\    /   O peration     | Website:  https://openfoam.org
    \\  /    A nd           | Version:  7
     \\/     M anipulation  |
\*---------------------------------------------------------------------------*/
FoamFile
{
    version     2.0;
    format      ascii;
    class       surfaceScalarField;
    location    "0.125";
    object      phi_0;
}
// * * * * * * * * * * * * * * * * * * * * * * * * * * * * * * * * * * * * * //

dimensions      [1 0 -1 0 0 0 0];

internalField   nonuniform List<scalar> 
2748
(
0.00597244
2.86761e-05
0.00589332
7.91227e-05
0.00577157
0.000121749
0.00561479
0.000156779
0.00543092
0.000183873
0.00522824
0.00020268
0.00501448
0.000213756
0.00479624
0.00021824
0.00457864
0.000217603
0.00436568
0.000212953
0.00416026
0.000205422
0.00396425
0.000196007
0.00377911
0.000185148
0.0036057
0.000173409
0.00344444
0.000161256
0.00329542
0.000149019
0.00315847
0.00013695
0.00303323
0.000125242
0.00291919
0.000114036
0.00281576
0.000103432
0.00272227
9.34965e-05
0.002638
8.42699e-05
0.00256223
7.57687e-05
0.00249424
6.79904e-05
0.00243332
6.09211e-05
0.0023788
5.45178e-05
0.00233013
4.86718e-05
0.00228665
4.34749e-05
0.00224776
3.88877e-05
0.00221294
3.48228e-05
0.00218171
3.12284e-05
0.00215365
2.80595e-05
0.00212838
2.52726e-05
0.00210555
2.28262e-05
0.00208487
2.0682e-05
0.00206607
1.88053e-05
0.0020489
1.71646e-05
0.00203317
1.57319e-05
0.00201869
1.44813e-05
0.0020053
1.339e-05
0.00199286
1.24376e-05
0.00198126
1.16059e-05
0.00197038
1.0879e-05
0.00196013
1.0243e-05
0.00195045
9.6855e-06
0.00194125
9.19597e-06
0.00193249
8.76517e-06
0.0019241
8.3851e-06
0.00191605
8.049e-06
0.0019083
7.75088e-06
0.00190082
7.48541e-06
0.00189357
7.24793e-06
0.00188653
7.03448e-06
0.00187969
6.84164e-06
0.00187303
6.66651e-06
0.00186652
6.50658e-06
0.00186016
6.35971e-06
0.00185394
6.22403e-06
0.00184784
6.09797e-06
0.00184186
5.98015e-06
0.00183599
5.86942e-06
0.00183022
5.76477e-06
0.00182456
5.66536e-06
0.00181899
5.57043e-06
0.00181351
5.47939e-06
0.00180812
5.3917e-06
0.00180281
5.30694e-06
0.00179758
5.22476e-06
0.00179244
5.14486e-06
0.00178737
5.06697e-06
0.00178238
4.99087e-06
0.00177747
4.91638e-06
0.00177262
4.84335e-06
0.00176785
4.77163e-06
0.00176315
4.70115e-06
0.00175852
4.63184e-06
0.00175395
4.56364e-06
0.00174946
4.49649e-06
0.00174503
4.43035e-06
0.00174066
4.36514e-06
0.00173636
4.30084e-06
0.00173212
4.23739e-06
0.00172795
4.17483e-06
0.00172384
4.11315e-06
0.00171978
4.05241e-06
0.00171579
3.9926e-06
0.00171186
3.93374e-06
0.00170798
3.87574e-06
0.00170416
3.81858e-06
0.0017004
3.76216e-06
0.00169669
3.70652e-06
0.00169304
3.65166e-06
0.00168945
3.59775e-06
0.0016859
3.54484e-06
0.00168241
3.493e-06
0.00167897
3.44213e-06
0.00167557
3.39207e-06
0.00167223
3.34262e-06
0.00166894
3.29363e-06
0.00166569
3.24534e-06
0.00166249
3.19767e-06
0.00165934
3.15137e-06
0.00165624
3.1058e-06
0.00165317
3.06209e-06
0.00165016
3.01797e-06
0.00164718
2.97605e-06
0.00164425
2.93135e-06
0.00164136
2.89099e-06
0.00163851
2.84418e-06
0.00163571
2.8079e-06
0.00163295
2.75702e-06
0.00163022
2.72943e-06
0.00162755
2.66727e-06
0.0016249
2.65378e-06
0.00162234
2.56235e-06
0.00161977
2.57078e-06
0.00161735
2.42006e-06
0.00161487
2.47185e-06
0.00161263
2.24758e-06
2.47753e-06
0.00601218
1.74636e-05
0.00603859
5.27102e-05
0.00607528
8.5059e-05
0.00611819
0.000113873
0.00616263
0.000139428
0.00620407
0.000161245
0.00623913
0.000178687
0.00626585
0.000191528
0.00628341
0.000200038
0.00629169
0.000204674
0.00629114
0.000205968
0.00628267
0.000204481
0.00626715
0.000200673
0.00624557
0.000194986
0.00621897
0.00018786
0.00618829
0.00017969
0.00615442
0.000170823
0.00611811
0.000161549
0.00608004
0.00015211
0.00604077
0.000142707
0.00600077
0.000133497
0.00596043
0.000124609
0.00592006
0.000116134
0.00587992
0.00010813
0.00584021
0.000100635
0.00580106
9.36623e-05
0.00576252
8.72139e-05
0.00572469
8.13066e-05
0.00568765
7.59311e-05
0.00565142
7.10527e-05
0.00561601
6.66326e-05
0.00558144
6.26349e-05
0.00554768
5.90251e-05
0.00551474
5.57688e-05
0.00548259
5.28325e-05
0.00545121
5.01836e-05
0.00542058
4.77921e-05
0.00539069
4.56302e-05
0.0053615
4.36719e-05
0.00533299
4.1894e-05
0.00530515
4.02754e-05
0.00527796
3.87968e-05
0.0052514
3.74419e-05
0.00522545
3.61956e-05
0.00520009
3.50446e-05
0.00517531
3.39774e-05
0.00515109
3.29839e-05
0.00512742
3.20557e-05
0.00510428
3.1186e-05
0.00508166
3.03679e-05
0.00505955
2.95955e-05
0.00503794
2.88635e-05
0.00501681
2.81676e-05
0.00499614
2.75039e-05
0.00497594
2.68691e-05
0.00495619
2.62605e-05
0.00493687
2.56756e-05
0.00491798
2.51124e-05
0.00489951
2.4569e-05
0.00488145
2.40438e-05
0.00486378
2.35355e-05
0.0048465
2.30429e-05
0.0048296
2.25649e-05
0.00481307
2.21006e-05
0.0047969
2.16491e-05
0.00478109
2.12099e-05
0.00476561
2.07823e-05
0.00475047
2.03658e-05
0.00473565
1.996e-05
0.00472116
1.95643e-05
0.00470697
1.91786e-05
0.00469308
1.88023e-05
0.00467949
1.84353e-05
0.00466619
1.80772e-05
0.00465316
1.77277e-05
0.0046404
1.73867e-05
0.00462791
1.70539e-05
0.00461568
1.67291e-05
0.0046037
1.64122e-05
0.00459196
1.61029e-05
0.00458046
1.58011e-05
0.00456919
1.55065e-05
0.00455815
1.5219e-05
0.00454732
1.49385e-05
0.00453671
1.46649e-05
0.00452631
1.4398e-05
0.0045161
1.41377e-05
0.00450609
1.38838e-05
0.00449628
1.36362e-05
0.00448664
1.33945e-05
0.00447719
1.31587e-05
0.00446791
1.29287e-05
0.00445881
1.27044e-05
0.00444987
1.24857e-05
0.00444109
1.22726e-05
0.00443246
1.20649e-05
0.00442399
1.18624e-05
0.00441567
1.16646e-05
0.00440749
1.14716e-05
0.00439946
1.12828e-05
0.00439156
1.10989e-05
0.00438379
1.09193e-05
0.00437615
1.07448e-05
0.00436864
1.05742e-05
0.00436125
1.04084e-05
0.00435398
1.02454e-05
0.00434682
1.00867e-05
0.00433978
9.92933e-06
0.00433285
9.77686e-06
0.00432603
9.62429e-06
0.00431931
9.4786e-06
0.00431271
9.32889e-06
0.00430619
9.18915e-06
0.00429981
9.03442e-06
0.00429348
8.89643e-06
0.00428733
8.71623e-06
0.00428118
8.57408e-06
0.00427532
8.32513e-06
0.00426937
8.19895e-06
7.93201e-06
0.00600589
1.24481e-05
0.00602108
3.75142e-05
0.00604513
6.10171e-05
0.00607708
8.19135e-05
0.00611631
0.0001002
0.00616174
0.000115817
0.00621188
0.000128552
0.00626511
0.000138294
0.00631998
0.000145175
0.00637515
0.000149504
0.0064295
0.000151611
0.00648217
0.000151812
0.00653243
0.00015041
0.00657977
0.000147654
0.00662384
0.000143786
0.00666448
0.000139051
0.00670163
0.000133677
0.00673531
0.000127861
0.00676565
0.000121778
0.00679278
0.000115577
0.00681688
0.00010939
0.00683817
0.000103325
0.00685684
9.74613e-05
0.00687311
9.18589e-05
0.00688719
8.65588e-05
0.00689926
8.15893e-05
0.00690951
7.69643e-05
0.00691813
7.26899e-05
0.00692529
6.87702e-05
0.00693114
6.5197e-05
0.00693582
6.19514e-05
0.00693945
5.90098e-05
0.00694213
5.63495e-05
0.00694395
5.39473e-05
0.006945
5.17808e-05
0.00694535
4.98272e-05
0.00694508
4.8065e-05
0.00694424
4.64736e-05
0.00694288
4.50342e-05
0.00694104
4.37294e-05
0.00693877
4.25434e-05
0.00693611
4.14619e-05
0.00693308
4.04721e-05
0.00692971
3.95628e-05
0.00692603
3.87237e-05
0.00692206
3.79459e-05
0.00691783
3.72211e-05
0.00691334
3.65429e-05
0.00690862
3.59075e-05
0.00690368
3.53086e-05
0.00689853
3.47417e-05
0.00689319
3.42025e-05
0.00688767
3.36877e-05
0.00688198
3.31942e-05
0.00687613
3.27196e-05
0.00687013
3.22614e-05
0.00686399
3.18179e-05
0.00685771
3.13874e-05
0.00685131
3.09687e-05
0.0068448
3.05604e-05
0.00683817
3.01617e-05
0.00683144
2.97716e-05
0.00682462
2.93894e-05
0.0068177
2.90143e-05
0.00681071
2.86459e-05
0.00680363
2.82837e-05
0.00679649
2.79275e-05
0.00678928
2.75769e-05
0.006782
2.72317e-05
0.00677468
2.68916e-05
0.0067673
2.65566e-05
0.00675987
2.62263e-05
0.00675241
2.59007e-05
0.00674491
2.55795e-05
0.00673737
2.52629e-05
0.00672981
2.49506e-05
0.00672222
2.46426e-05
0.00671461
2.43388e-05
0.00670698
2.40393e-05
0.00669934
2.37438e-05
0.00669169
2.34525e-05
0.00668403
2.31651e-05
0.00667637
2.28818e-05
0.00666871
2.26024e-05
0.00666104
2.2327e-05
0.00665339
2.20554e-05
0.00664574
2.17879e-05
0.0066381
2.15241e-05
0.00663047
2.12642e-05
0.00662285
2.10079e-05
0.00661526
2.07555e-05
0.00660768
2.05064e-05
0.00660012
2.02613e-05
0.00659259
2.00195e-05
0.00658508
1.97817e-05
0.0065776
1.9547e-05
0.00657014
1.93162e-05
0.00656272
1.90882e-05
0.00655533
1.8864e-05
0.00654797
1.86422e-05
0.00654064
1.84246e-05
0.00653335
1.82088e-05
0.0065261
1.79982e-05
0.00651889
1.77881e-05
0.00651171
1.75847e-05
0.00650458
1.73785e-05
0.00649748
1.71826e-05
0.00649043
1.69772e-05
0.00648342
1.67908e-05
0.00647646
1.65813e-05
0.00646953
1.64099e-05
0.00646267
1.61857e-05
0.00645582
1.60398e-05
0.00644908
1.57764e-05
0.0064423
1.56758e-05
0.0064357
1.53222e-05
0.00642896
1.53067e-05
0.00642253
1.47537e-05
0.00641588
1.4855e-05
1.39395e-05
0.00600518
8.07105e-06
0.00601856
2.41411e-05
0.00604012
3.94575e-05
0.00606878
5.3253e-05
0.00610368
6.53005e-05
0.00614393
7.55651e-05
0.00618849
8.39872e-05
0.00623627
9.05114e-05
0.00628627
9.51815e-05
0.00633761
9.81623e-05
0.00638955
9.96687e-05
0.00644145
9.99122e-05
0.00649277
9.90932e-05
0.00654304
9.73819e-05
0.00659189
9.49396e-05
0.00663901
9.19244e-05
0.0066842
8.8487e-05
0.0067273
8.47611e-05
0.00676822
8.08592e-05
0.00680693
7.68665e-05
0.00684344
7.28804e-05
0.00687779
6.89746e-05
0.00691006
6.51981e-05
0.00694033
6.15896e-05
0.00696871
5.81758e-05
0.00699533
5.4971e-05
0.00702031
5.19843e-05
0.00704378
4.92205e-05
0.00706586
4.66832e-05
0.00708669
4.43694e-05
0.00710637
4.2269e-05
0.00712502
4.03672e-05
0.00714272
3.86491e-05
0.00715956
3.70996e-05
0.00717564
3.57044e-05
0.00719102
3.4449e-05
0.00720576
3.33197e-05
0.00721993
3.23031e-05
0.00723358
3.13871e-05
0.00724675
3.05603e-05
0.00725948
2.98125e-05
0.00727181
2.91344e-05
0.00728376
2.85178e-05
0.00729537
2.79551e-05
0.00730666
2.74399e-05
0.00731763
2.6966e-05
0.00732833
2.65284e-05
0.00733875
2.61229e-05
0.00734891
2.57461e-05
0.00735882
2.53942e-05
0.0073685
2.50643e-05
0.00737795
2.47532e-05
0.00738718
2.44587e-05
0.0073962
2.41786e-05
0.007405
2.39113e-05
0.00741361
2.3655e-05
0.00742202
2.34087e-05
0.00743024
2.31709e-05
0.00743826
2.2941e-05
0.00744611
2.27178e-05
0.00745377
2.25009e-05
0.00746125
2.22895e-05
0.00746855
2.20832e-05
0.00747569
2.18811e-05
0.00748265
2.16832e-05
0.00748945
2.14888e-05
0.00749608
2.1298e-05
0.00750254
2.11104e-05
0.00750885
2.0926e-05
0.00751499
2.07445e-05
0.00752099
2.05659e-05
0.00752682
2.03898e-05
0.00753251
2.02163e-05
0.00753804
2.00451e-05
0.00754343
1.98764e-05
0.00754867
1.97098e-05
0.00755377
1.95455e-05
0.00755872
1.93833e-05
0.00756354
1.92233e-05
0.00756822
1.90653e-05
0.00757276
1.89094e-05
0.00757717
1.87554e-05
0.00758145
1.86035e-05
0.0075856
1.84534e-05
0.00758962
1.83053e-05
0.00759351
1.81591e-05
0.00759729
1.80148e-05
0.00760094
1.78723e-05
0.00760447
1.77318e-05
0.00760789
1.75928e-05
0.00761119
1.74558e-05
0.00761437
1.73203e-05
0.00761745
1.71868e-05
0.00762041
1.70547e-05
0.00762327
1.69246e-05
0.00762602
1.67958e-05
0.00762867
1.6669e-05
0.00763121
1.65432e-05
0.00763366
1.64194e-05
0.007636
1.62962e-05
0.00763825
1.61755e-05
0.00764041
1.60547e-05
0.00764247
1.59375e-05
0.00764444
1.58186e-05
0.00764631
1.57053e-05
0.00764811
1.55869e-05
0.00764981
1.54782e-05
0.00765143
1.53572e-05
0.00765297
1.52556e-05
0.00765442
1.51267e-05
0.00765579
1.50379e-05
0.00765709
1.48904e-05
0.0076583
1.48258e-05
0.00765944
1.46371e-05
0.0076605
1.46167e-05
0.00766148
1.434e-05
0.00766239
1.43967e-05
0.00766321
1.39364e-05
0.00766396
1.41061e-05
1.32652e-05
0.00600487
3.96525e-06
0.00601718
1.18294e-05
0.00603727
1.93695e-05
0.0060643
2.62262e-05
0.00609737
3.22245e-05
0.00613561
3.73283e-05
0.00617806
4.15342e-05
0.00622375
4.48278e-05
0.00627171
4.72128e-05
0.00632112
4.87576e-05
0.00637123
4.95629e-05
0.0064214
4.97354e-05
0.00647112
4.93733e-05
0.00651994
4.8565e-05
0.00656749
4.73909e-05
0.00661348
4.59291e-05
0.00665772
4.42518e-05
0.00670005
4.24302e-05
0.00674039
4.05185e-05
0.00677869
3.8562e-05
0.00681497
3.66064e-05
0.00684926
3.46875e-05
0.00688162
3.28293e-05
0.00691216
3.10525e-05
0.00694096
2.93736e-05
0.00696814
2.77904e-05
0.00699382
2.631e-05
0.0070181
2.49369e-05
0.00704111
2.36734e-05
0.00706296
2.25185e-05
0.00708376
2.14682e-05
0.00710361
2.05162e-05
0.00712261
1.96549e-05
0.00714083
1.88773e-05
0.00715836
1.81762e-05
0.00717526
1.75448e-05
0.00719161
1.69762e-05
0.00720745
1.64639e-05
0.00722283
1.60016e-05
0.00723781
1.55839e-05
0.00725242
1.52055e-05
0.00726669
1.4862e-05
0.00728066
1.45494e-05
0.00729435
1.42641e-05
0.00730778
1.40029e-05
0.00732099
1.37631e-05
0.00733397
1.3542e-05
0.00734676
1.33376e-05
0.00735936
1.3148e-05
0.00737178
1.29716e-05
0.00738404
1.28067e-05
0.00739614
1.2652e-05
0.00740809
1.2506e-05
0.0074199
1.23678e-05
0.00743158
1.22365e-05
0.00744312
1.21111e-05
0.00745454
1.19911e-05
0.00746583
1.18759e-05
0.00747701
1.17648e-05
0.00748807
1.16575e-05
0.00749902
1.15535e-05
0.00750985
1.14526e-05
0.00752058
1.13543e-05
0.00753121
1.12585e-05
0.00754172
1.11647e-05
0.00755214
1.1073e-05
0.00756245
1.09832e-05
0.00757267
1.0895e-05
0.00758279
1.08086e-05
0.00759281
1.07239e-05
0.00760273
1.06406e-05
0.00761256
1.05587e-05
0.0076223
1.04781e-05
0.00763195
1.03988e-05
0.0076415
1.03207e-05
0.00765097
1.02437e-05
0.00766035
1.01679e-05
0.00766964
1.00932e-05
0.00767884
1.00195e-05
0.00768796
9.94686e-06
0.007697
9.87525e-06
0.00770595
9.80464e-06
0.00771481
9.73502e-06
0.0077236
9.66638e-06
0.00773231
9.59873e-06
0.00774093
9.53203e-06
0.00774948
9.46629e-06
0.00775795
9.40149e-06
0.00776635
9.33761e-06
0.00777467
9.27462e-06
0.00778291
9.21253e-06
0.00779108
9.15127e-06
0.00779918
9.0909e-06
0.0078072
9.03133e-06
0.00781515
8.97267e-06
0.00782303
8.91476e-06
0.00783084
8.85777e-06
0.00783858
8.80135e-06
0.00784626
8.74587e-06
0.00785386
8.69072e-06
0.0078614
8.63669e-06
0.00786887
8.58264e-06
0.00787628
8.53026e-06
0.00788362
8.47711e-06
0.0078909
8.42664e-06
0.00789812
8.37364e-06
0.00790527
8.32538e-06
0.00791235
8.27098e-06
0.00791938
8.2259e-06
0.00792634
8.16752e-06
0.00793325
8.12811e-06
0.00794008
8.06089e-06
0.00794688
8.03189e-06
0.00795357
7.94586e-06
0.00796025
7.93488e-06
0.00796678
7.80924e-06
0.00797335
7.82341e-06
0.00797968
7.60958e-06
0.00798615
7.63895e-06
7.28315e-06
0.0060047
4.26284e-09
0.00601652
1.26925e-08
0.00603587
2.05948e-08
0.00606207
2.73908e-08
0.00609426
3.32933e-08
0.00613155
3.98749e-08
0.00617303
4.88e-08
0.0062178
6.12365e-08
0.00626494
7.75485e-08
0.0063136
9.75125e-08
0.00636304
1.2068e-07
0.00641263
1.47415e-07
0.00646182
1.77575e-07
0.00651018
2.10695e-07
0.00655732
2.46175e-07
0.00660297
2.83342e-07
0.0066469
3.21705e-07
0.00668897
3.60928e-07
0.00672909
3.99657e-07
0.00676721
4.37367e-07
0.00680334
4.73786e-07
0.00683752
5.08415e-07
0.00686981
5.40312e-07
0.00690029
5.68759e-07
0.00692908
5.92706e-07
0.00695625
6.11436e-07
0.00698194
6.25402e-07
0.00700624
6.3641e-07
0.00702927
6.45778e-07
0.00705113
6.54001e-07
0.00707194
6.61393e-07
0.00709179
6.6775e-07
0.00711077
6.72608e-07
0.00712897
6.75649e-07
0.00714647
6.76798e-07
0.00716334
6.76123e-07
0.00717964
6.73675e-07
0.00719544
6.69462e-07
0.00721077
6.63473e-07
0.0072257
6.55783e-07
0.00724026
6.46648e-07
0.00725449
6.36516e-07
0.00726841
6.25877e-07
0.00728206
6.15144e-07
0.00729546
6.04608e-07
0.00730863
5.94485e-07
0.00732158
5.84966e-07
0.00733434
5.76226e-07
0.00734692
5.684e-07
0.00735933
5.61555e-07
0.00737159
5.55667e-07
0.00738369
5.5066e-07
0.00739565
5.46451e-07
0.00740747
5.42971e-07
0.00741917
5.40158e-07
0.00743074
5.37954e-07
0.0074422
5.36296e-07
0.00745354
5.35121e-07
0.00746477
5.34369e-07
0.00747589
5.33981e-07
0.00748691
5.33904e-07
0.00749783
5.34081e-07
0.00750865
5.34462e-07
0.00751937
5.34987e-07
0.00753
5.35591e-07
0.00754054
5.36286e-07
0.00755098
5.37093e-07
0.00756134
5.37999e-07
0.00757161
5.38987e-07
0.00758179
5.39993e-07
0.00759189
5.40954e-07
0.00760191
5.41838e-07
0.00761185
5.42627e-07
0.0076217
5.43308e-07
0.00763148
5.43869e-07
0.00764118
5.443e-07
0.0076508
5.44594e-07
0.00766035
5.4475e-07
0.00766982
5.44767e-07
0.00767923
5.44646e-07
0.00768856
5.44388e-07
0.00769782
5.43992e-07
0.00770701
5.43459e-07
0.00771613
5.42792e-07
0.00772519
5.41995e-07
0.00773418
5.41075e-07
0.00774311
5.40038e-07
0.00775197
5.38885e-07
0.00776077
5.37612e-07
0.00776951
5.36215e-07
0.00777819
5.34688e-07
0.0077868
5.33032e-07
0.00779536
5.31249e-07
0.00780387
5.29344e-07
0.00781231
5.27324e-07
0.0078207
5.25185e-07
0.00782904
5.22922e-07
0.00783732
5.20511e-07
0.00784554
5.17944e-07
0.00785372
5.15192e-07
0.00786184
5.12271e-07
0.00786992
5.09167e-07
0.00787794
5.05933e-07
0.00788592
5.02523e-07
0.00789384
4.98997e-07
0.00790172
4.95219e-07
0.00790956
4.91294e-07
0.00791734
4.86968e-07
0.00792508
4.82527e-07
0.00793277
4.77539e-07
0.00794043
4.72665e-07
0.00794802
4.67034e-07
0.00795559
4.6197e-07
0.00796308
4.55526e-07
0.00797057
4.50456e-07
0.00797794
4.42649e-07
0.00798532
4.37958e-07
0.0079925
4.27118e-07
0.00799972
4.22629e-07
4.09412e-07
0.0060047
-3.95605e-06
0.00601652
-1.18026e-05
0.00603587
-1.93273e-05
0.00606207
-2.61717e-05
0.00609426
-3.21594e-05
0.00613155
-3.72512e-05
0.00617304
-4.144e-05
0.00621781
-4.47089e-05
0.00626495
-4.70612e-05
0.00631361
-4.8566e-05
0.00636306
-4.93244e-05
0.00641265
-4.94429e-05
0.00646184
-4.90201e-05
0.0065102
-4.81452e-05
0.00655735
-4.68996e-05
0.00660299
-4.53629e-05
0.00664692
-4.36085e-05
0.00668899
-4.17076e-05
0.00672911
-3.97186e-05
0.00676723
-3.76874e-05
0.00680337
-3.56572e-05
0.00683754
-3.36678e-05
0.00686983
-3.17453e-05
0.00690031
-2.99105e-05
0.00692908
-2.81827e-05
0.00695626
-2.65626e-05
0.00698194
-2.5054e-05
0.00700623
-2.36596e-05
0.00702926
-2.23781e-05
0.00705112
-2.12068e-05
0.00707192
-2.01411e-05
0.00709176
-1.91756e-05
0.00711074
-1.83042e-05
0.00712893
-1.75204e-05
0.00714643
-1.68172e-05
0.00716329
-1.61873e-05
0.00717959
-1.56238e-05
0.00719538
-1.51202e-05
0.00721071
-1.46704e-05
0.00722564
-1.42687e-05
0.00724019
-1.39094e-05
0.00725442
-1.35869e-05
0.00726834
-1.32962e-05
0.00728199
-1.30329e-05
0.00729539
-1.27932e-05
0.00730855
-1.25739e-05
0.00732151
-1.23721e-05
0.00733427
-1.21854e-05
0.00734685
-1.20116e-05
0.00735926
-1.18488e-05
0.00737151
-1.16957e-05
0.00738362
-1.15509e-05
0.00739558
-1.14132e-05
0.0074074
-1.12819e-05
0.0074191
-1.11561e-05
0.00743067
-1.10351e-05
0.00744212
-1.09182e-05
0.00745346
-1.08052e-05
0.00746469
-1.06955e-05
0.00747582
-1.05889e-05
0.00748684
-1.0485e-05
0.00749775
-1.03836e-05
0.00750857
-1.02845e-05
0.0075193
-1.01874e-05
0.00752992
-1.00924e-05
0.00754046
-9.99921e-06
0.0075509
-9.90763e-06
0.00756126
-9.81763e-06
0.00757153
-9.72923e-06
0.00758171
-9.64243e-06
0.00759181
-9.55721e-06
0.00760182
-9.47352e-06
0.00761176
-9.39133e-06
0.00762161
-9.31062e-06
0.00763139
-9.23136e-06
0.00764108
-9.15351e-06
0.00765071
-9.07706e-06
0.00766025
-9.00198e-06
0.00766973
-8.92825e-06
0.00767913
-8.85584e-06
0.00768846
-8.78474e-06
0.00769771
-8.71493e-06
0.0077069
-8.64638e-06
0.00771603
-8.57908e-06
0.00772508
-8.51302e-06
0.00773407
-8.44817e-06
0.00774299
-8.38451e-06
0.00775186
-8.32203e-06
0.00776065
-8.26072e-06
0.00776939
-8.20054e-06
0.00777807
-8.14152e-06
0.00778668
-8.08361e-06
0.00779524
-8.02683e-06
0.00780374
-7.97111e-06
0.00781219
-7.91652e-06
0.00782057
-7.86291e-06
0.00782891
-7.81046e-06
0.00783719
-7.75891e-06
0.00784541
-7.7086e-06
0.00785359
-7.65902e-06
0.00786171
-7.61089e-06
0.00786978
-7.56313e-06
0.00787781
-7.51724e-06
0.00788578
-7.47096e-06
0.00789371
-7.42754e-06
0.00790158
-7.38215e-06
0.00790942
-7.34178e-06
0.0079172
-7.29616e-06
0.00792494
-7.26003e-06
0.00793263
-7.21178e-06
0.00794029
-7.18214e-06
0.00794788
-7.12629e-06
0.00795545
-7.10741e-06
0.00796294
-7.03434e-06
0.00797042
-7.03369e-06
0.00797779
-6.92376e-06
0.00798518
-6.94807e-06
0.00799236
-6.75367e-06
0.00799957
-6.79053e-06
-6.46612e-06
0.00600487
-8.06008e-06
0.00601717
-2.41087e-05
0.00603726
-3.94114e-05
0.00606429
-5.31983e-05
0.00609737
-6.52398e-05
0.00613561
-7.5496e-05
0.00617807
-8.39029e-05
0.00622377
-9.04034e-05
0.00627175
-9.50414e-05
0.00632116
-9.79825e-05
0.00637128
-9.94411e-05
0.00642147
-9.96286e-05
0.00647119
-9.87465e-05
0.00652001
-9.69665e-05
0.00656757
-9.44508e-05
0.00661356
-9.13584e-05
0.00665779
-8.78414e-05
0.00670012
-8.40342e-05
0.00674046
-8.00527e-05
0.00677876
-7.5988e-05
0.00681502
-7.19225e-05
0.0068493
-6.79437e-05
0.00688165
-6.41011e-05
0.00691218
-6.04344e-05
0.00694097
-5.69722e-05
0.00696813
-5.37295e-05
0.00699379
-5.07155e-05
0.00701807
-4.79332e-05
0.00704107
-4.53806e-05
0.00706291
-4.30507e-05
0.00708371
-4.09339e-05
0.00710355
-3.90178e-05
0.00712253
-3.7289e-05
0.00714075
-3.57329e-05
0.00715827
-3.43351e-05
0.00717516
-3.3081e-05
0.00719149
-3.19566e-05
0.00720732
-3.09485e-05
0.0072227
-3.00454e-05
0.00723766
-2.92358e-05
0.00725226
-2.85086e-05
0.00726653
-2.78528e-05
0.00728049
-2.72593e-05
0.00729418
-2.67197e-05
0.00730761
-2.6227e-05
0.00732081
-2.57748e-05
0.0073338
-2.53575e-05
0.00734658
-2.49703e-05
0.00735918
-2.46096e-05
0.0073716
-2.42717e-05
0.00738386
-2.39536e-05
0.00739596
-2.36527e-05
0.00740792
-2.33668e-05
0.00741973
-2.30938e-05
0.0074314
-2.28322e-05
0.00744295
-2.25805e-05
0.00745437
-2.23376e-05
0.00746567
-2.21024e-05
0.00747685
-2.18741e-05
0.00748791
-2.16519e-05
0.00749886
-2.14354e-05
0.0075097
-2.12239e-05
0.00752043
-2.10171e-05
0.00753106
-2.08145e-05
0.00754158
-2.06157e-05
0.007552
-2.04202e-05
0.00756232
-2.0228e-05
0.00757254
-2.00388e-05
0.00758267
-1.98528e-05
0.0075927
-1.96697e-05
0.00760263
-1.94896e-05
0.00761247
-1.93123e-05
0.00762221
-1.91377e-05
0.00763187
-1.89657e-05
0.00764143
-1.87965e-05
0.00765091
-1.86296e-05
0.0076603
-1.84654e-05
0.0076696
-1.83035e-05
0.00767882
-1.81441e-05
0.00768795
-1.79869e-05
0.00769699
-1.78322e-05
0.00770596
-1.76797e-05
0.00771484
-1.75295e-05
0.00772364
-1.73814e-05
0.00773237
-1.72357e-05
0.00774101
-1.70919e-05
0.00774958
-1.69505e-05
0.00775807
-1.6811e-05
0.00776648
-1.66737e-05
0.00777482
-1.65383e-05
0.00778308
-1.64051e-05
0.00779127
-1.62737e-05
0.00779939
-1.61444e-05
0.00780743
-1.60169e-05
0.00781541
-1.58915e-05
0.00782331
-1.57677e-05
0.00783115
-1.56461e-05
0.00783892
-1.55259e-05
0.00784662
-1.54081e-05
0.00785425
-1.52912e-05
0.00786181
-1.51772e-05
0.00786931
-1.50634e-05
0.00787675
-1.49533e-05
0.00788412
-1.4842e-05
0.00789143
-1.47363e-05
0.00789867
-1.46261e-05
0.00790586
-1.4526e-05
0.00791298
-1.44147e-05
0.00792004
-1.43227e-05
0.00792703
-1.42049e-05
0.00793398
-1.41262e-05
0.00794084
-1.39911e-05
0.00794767
-1.39365e-05
0.0079544
-1.3762e-05
0.00796112
-1.37517e-05
0.00796769
-1.34929e-05
0.0079743
-1.35598e-05
0.00798067
-1.31218e-05
0.00798717
-1.32937e-05
-1.2489e-05
0.00600518
-1.24364e-05
0.00601854
-3.74691e-05
0.0060401
-6.09633e-05
0.00606875
-8.18573e-05
0.00610366
-0.000100146
0.00614393
-0.00011576
0.00618851
-0.000128482
0.0062363
-0.000138202
0.00628632
-0.000145054
0.00633768
-0.000149345
0.00638964
-0.000151405
0.00644156
-0.000151547
0.00649289
-0.000150078
0.00654317
-0.000147246
0.00659202
-0.000143299
0.00663914
-0.000138482
0.00668433
-0.000133023
0.00672741
-0.000127123
0.00676832
-0.000120956
0.006807
-0.000114674
0.00684349
-0.000108408
0.00687781
-0.000102267
0.00691005
-9.63377e-05
0.0069403
-9.06789e-05
0.00696866
-8.53347e-05
0.00699526
-8.03323e-05
0.00702023
-7.56862e-05
0.0070437
-7.13999e-05
0.00706579
-6.74689e-05
0.00708662
-6.38814e-05
0.0071063
-6.06213e-05
0.00712496
-5.76686e-05
0.00714267
-5.50015e-05
0.00715953
-5.25966e-05
0.00717563
-5.04305e-05
0.00719103
-4.84807e-05
0.0072058
-4.67257e-05
0.00721999
-4.51457e-05
0.00723367
-4.37235e-05
0.00724688
-4.24409e-05
0.00725965
-4.128e-05
0.00727202
-4.02247e-05
0.00728402
-3.92615e-05
0.00729568
-3.83784e-05
0.00730702
-3.75652e-05
0.00731806
-3.68123e-05
0.00732881
-3.61106e-05
0.00733929
-3.54535e-05
0.00734952
-3.4836e-05
0.0073595
-3.42527e-05
0.00736925
-3.36994e-05
0.00737876
-3.31721e-05
0.00738807
-3.26676e-05
0.00739715
-3.21829e-05
0.00740604
-3.17157e-05
0.00741472
-3.12638e-05
0.00742321
-3.08256e-05
0.00743151
-3.03994e-05
0.00743962
-2.99841e-05
0.00744754
-2.95787e-05
0.00745529
-2.91824e-05
0.00746286
-2.87944e-05
0.00747026
-2.84142e-05
0.00747748
-2.80409e-05
0.00748454
-2.76738e-05
0.00749143
-2.73122e-05
0.00749816
-2.69561e-05
0.00750473
-2.66056e-05
0.00751114
-2.62606e-05
0.00751739
-2.59209e-05
0.00752349
-2.55865e-05
0.00752943
-2.52569e-05
0.00753522
-2.49324e-05
0.00754087
-2.46126e-05
0.00754637
-2.42976e-05
0.00755173
-2.39871e-05
0.00755695
-2.36813e-05
0.00756202
-2.33799e-05
0.00756696
-2.3083e-05
0.00757177
-2.27905e-05
0.00757644
-2.25023e-05
0.00758097
-2.22184e-05
0.00758538
-2.19388e-05
0.00758967
-2.16633e-05
0.00759382
-2.1392e-05
0.00759785
-2.11248e-05
0.00760177
-2.08618e-05
0.00760556
-2.06027e-05
0.00760923
-2.03478e-05
0.00761279
-2.00966e-05
0.00761623
-1.98496e-05
0.00761957
-1.96062e-05
0.00762279
-1.93669e-05
0.0076259
-1.91311e-05
0.00762891
-1.88994e-05
0.00763181
-1.8671e-05
0.00763462
-1.84468e-05
0.00763732
-1.82256e-05
0.00763992
-1.80086e-05
0.00764242
-1.77944e-05
0.00764483
-1.75846e-05
0.00764714
-1.73769e-05
0.00764936
-1.71744e-05
0.00765149
-1.69726e-05
0.00765353
-1.67776e-05
0.00765549
-1.65805e-05
0.00765735
-1.6394e-05
0.00765914
-1.61991e-05
0.00766084
-1.60232e-05
0.00766246
-1.58253e-05
0.007664
-1.56647e-05
0.00766546
-1.54528e-05
0.00766684
-1.53174e-05
0.00766815
-1.50677e-05
0.00766937
-1.4978e-05
0.00767052
-1.46411e-05
0.0076716
-1.46374e-05
0.00767259
-1.41076e-05
0.00767352
-1.42239e-05
-1.33205e-05
0.00600589
-1.74502e-05
0.00602107
-5.26534e-05
0.00604509
-8.49874e-05
0.00607705
-0.000113813
0.00611628
-0.00013938
0.00616172
-0.000161193
0.00621185
-0.000178618
0.00626508
-0.000191434
0.00631995
-0.000199916
0.00637512
-0.000204516
0.00642948
-0.000205768
0.00648216
-0.000204228
0.00653244
-0.000200357
0.00657979
-0.000194601
0.00662389
-0.000187398
0.00666456
-0.00017915
0.00670174
-0.000170203
0.00673547
-0.000160849
0.00676584
-0.000151333
0.00679302
-0.000141855
0.00681719
-0.000132576
0.00683855
-0.000123624
0.00685731
-0.000115093
0.00687367
-0.000107045
0.00688786
-9.95201e-05
0.00690006
-9.2538e-05
0.00691048
-8.61016e-05
0.00691928
-8.02014e-05
0.00692663
-7.48187e-05
0.00693268
-6.99276e-05
0.00693755
-6.54978e-05
0.00694138
-6.14959e-05
0.00694426
-5.78872e-05
0.0069463
-5.46364e-05
0.00694758
-5.17083e-05
0.00694817
-4.90688e-05
0.00694813
-4.66865e-05
0.00694753
-4.45411e-05
0.00694641
-4.2609e-05
0.00694483
-4.0862e-05
0.00694283
-3.92751e-05
0.00694043
-3.78284e-05
0.00693768
-3.65045e-05
0.00693458
-3.52882e-05
0.00693119
-3.41662e-05
0.0069275
-3.31271e-05
0.00692355
-3.21598e-05
0.00691935
-3.12538e-05
0.00691492
-3.04035e-05
0.00691027
-2.96025e-05
0.00690541
-2.88451e-05
0.00690037
-2.81264e-05
0.00689514
-2.74422e-05
0.00688975
-2.67889e-05
0.0068842
-2.61634e-05
0.0068785
-2.55629e-05
0.00687265
-2.49852e-05
0.00686668
-2.44282e-05
0.00686059
-2.38903e-05
0.00685438
-2.33699e-05
0.00684806
-2.2866e-05
0.00684165
-2.23778e-05
0.00683514
-2.19047e-05
0.00682854
-2.14454e-05
0.00682187
-2.09974e-05
0.00681511
-2.05605e-05
0.00680829
-2.01345e-05
0.00680141
-1.97197e-05
0.00679446
-1.93157e-05
0.00678746
-1.89221e-05
0.00678042
-1.85386e-05
0.00677332
-1.81647e-05
0.00676619
-1.78004e-05
0.00675902
-1.74451e-05
0.00675183
-1.70988e-05
0.0067446
-1.6761e-05
0.00673735
-1.64317e-05
0.00673008
-1.61106e-05
0.00672279
-1.57975e-05
0.0067155
-1.54921e-05
0.00670819
-1.51944e-05
0.00670087
-1.49041e-05
0.00669356
-1.46212e-05
0.00668624
-1.43453e-05
0.00667892
-1.40764e-05
0.00667161
-1.38142e-05
0.00666431
-1.35588e-05
0.00665702
-1.33098e-05
0.00664974
-1.30673e-05
0.00664247
-1.28308e-05
0.00663522
-1.26005e-05
0.00662799
-1.23761e-05
0.00662078
-1.21575e-05
0.0066136
-1.19445e-05
0.00660643
-1.17372e-05
0.0065993
-1.1535e-05
0.00659219
-1.13384e-05
0.00658511
-1.11466e-05
0.00657806
-1.09601e-05
0.00657105
-1.07782e-05
0.00656406
-1.06013e-05
0.00655711
-1.04287e-05
0.0065502
-1.02611e-05
0.00654333
-1.00971e-05
0.00653649
-9.9382e-06
0.00652969
-9.78228e-06
0.00652292
-9.63156e-06
0.00651621
-9.48267e-06
0.00650952
-9.33958e-06
0.0065029
-9.19611e-06
0.00649629
-9.05975e-06
0.00648976
-8.91859e-06
0.00648323
-8.78726e-06
0.0064768
-8.64182e-06
0.00647033
-8.51206e-06
0.00646404
-8.34685e-06
0.00645761
-8.21118e-06
0.0064515
-7.98921e-06
0.00644513
-7.85672e-06
-7.60087e-06
0.00601205
-2.85394e-05
0.00603829
-7.88943e-05
0.00607485
-0.000121541
0.00611765
-0.000156619
0.00616202
-0.000183745
0.00620339
-0.000202568
0.00623842
-0.000213648
0.00626513
-0.000218138
0.00628272
-0.000217504
0.00629105
-0.000212851
0.00629061
-0.000205325
0.00628228
-0.000195903
0.00626695
-0.000185026
0.00624562
-0.000173264
0.0062193
-0.000161079
0.00618895
-0.000148804
0.00615544
-0.000136694
0.00611953
-0.000124942
0.00608189
-0.000113691
0.00604308
-0.000103044
0.00600357
-9.30665e-05
0.00596375
-8.38012e-05
0.00592392
-7.52649e-05
0.00588433
-6.74555e-05
0.00584517
-6.03576e-05
0.00580657
-5.39437e-05
0.00576865
-4.8178e-05
0.00573147
-4.30199e-05
0.00569508
-3.84255e-05
0.0056595
-3.43496e-05
0.00562475
-3.07467e-05
0.00559082
-2.75722e-05
0.00555772
-2.47832e-05
0.00552542
-2.2339e-05
0.00549391
-2.02017e-05
0.00546318
-1.83327e-05
0.00543317
-1.66822e-05
0.00540389
-1.52542e-05
0.0053753
-1.40257e-05
0.0053474
-1.29583e-05
0.00532016
-1.20297e-05
0.00529355
-1.12216e-05
0.00526756
-1.05175e-05
0.00524218
-9.9029e-06
0.00521738
-9.36537e-06
0.00519314
-8.89395e-06
0.00516946
-8.47909e-06
0.00514632
-8.11265e-06
0.0051237
-7.78821e-06
0.0051016
-7.5001e-06
0.00508
-7.24326e-06
0.00505889
-7.01323e-06
0.00503825
-6.80619e-06
0.00501808
-6.61884e-06
0.00499837
-6.44838e-06
0.0049791
-6.29238e-06
0.00496026
-6.14876e-06
0.00494185
-6.01574e-06
0.00492385
-5.8918e-06
0.00490625
-5.77566e-06
0.00488905
-5.66625e-06
0.00487224
-5.56285e-06
0.0048558
-5.46624e-06
0.00483973
-5.37621e-06
0.00482402
-5.28655e-06
0.00480866