/*--------------------------------*- C++ -*----------------------------------*\
  =========                 |
  \\      /  F ield         | OpenFOAM: The Open Source CFD Toolbox
   \\    /   O peration     | Website:  https://openfoam.org
    \\  /    A nd           | Version:  7
     \\/     M anipulation  |
\*---------------------------------------------------------------------------*/
FoamFile
{
    version     2.0;
    format      ascii;
    class       volScalarField;
    location    "0.11";
    object      T;
}
// * * * * * * * * * * * * * * * * * * * * * * * * * * * * * * * * * * * * * //

dimensions      [0 0 0 1 0 0 0];

internalField   nonuniform List<scalar> 
1352
(
299.99
299.99
299.986
299.983
299.98
299.984
299.974
299.976
299.981
299.984
299.984
299.984
299.974
299.97
299.969
299.97
299.969
299.969
299.976
299.972
299.97
299.969
299.967
299.965
299.977
299.973
299.973
299.972
299.97
299.967
299.974
299.974
299.976
299.975
299.972
299.969
299.977
299.975
299.975
299.974
299.971
299.968
299.976
299.972
299.975
299.98
299.984
299.986
299.973
300.018
300.085
300.148
300.2
300.246
300.095
300.355
300.611
300.842
301.055
301.213
299.972
299.956
299.943
299.936
299.932
299.93
299.93
299.93
299.931
299.932
299.935
299.939
299.947
299.952
299.958
299.973
299.969
299.961
299.961
299.962
299.962
299.961
299.96
299.958
299.956
299.953
299.952
299.956
299.96
299.961
299.962
299.964
299.969
299.982
299.977
299.96
299.952
299.946
299.942
299.945
299.953
299.963
299.972
299.979
299.982
299.982
299.98
299.979
299.977
299.976
299.977
299.981
299.986
299.988
299.986
299.982
299.978
299.976
299.974
299.972
299.965
299.925
299.912
299.911
299.916
299.922
299.926
299.929
299.929
299.929
299.928
299.926
299.927
299.932
299.936
299.948
299.959
299.96
299.956
299.96
299.963
299.961
299.958
299.959
299.957
299.95
299.941
299.934
299.936
299.948
299.961
299.974
299.979
299.973
299.959
299.947
299.942
299.938
299.94
299.946
299.959
299.975
299.99
300.002
300.011
300.013
300.011
300.009
300.006
299.996
299.985
299.984
300.002
300.028
300.042
300.039
300.023
299.99
299.959
299.947
299.94
299.9
299.91
299.931
299.95
299.962
299.97
299.975
299.976
299.977
299.973
299.968
299.96
299.953
299.95
299.952
299.955
299.95
299.944
299.948
299.953
299.954
299.955
299.956
299.955
299.95
299.943
299.94
299.946
299.96
299.974
299.983
299.975
299.96
299.947
299.938
299.929
299.922
299.919
299.923
299.935
299.953
299.967
299.973
299.984
299.997
299.995
299.991
300.004
300.01
299.98
299.948
299.955
299.989
300.016
300.018
300.021
300.035
300.015
299.97
299.925
299.913
299.939
299.953
299.958
299.956
299.959
299.963
299.968
299.971
299.973
299.97
299.965
299.958
299.954
299.951
299.945
299.941
299.951
299.962
299.969
299.974
299.977
299.98
299.981
299.981
299.977
299.971
299.969
299.972
299.979
299.981
299.966
299.951
299.942
299.933
299.922
299.914
299.917
299.93
299.949
299.973
299.991
299.979
299.957
299.965
299.969
299.943
299.948
299.977
299.955
299.932
299.975
300.008
299.982
299.956
299.948
299.989
300.021
299.984
299.924
299.911
299.917
299.933
299.946
299.949
299.952
299.95
299.95
299.949
299.95
299.953
299.956
299.957
299.958
299.96
299.964
299.968
299.973
299.977
299.978
299.976
299.975
299.976
299.981
299.988
299.991
299.988
299.984
299.982
299.984
299.98
299.963
299.95
299.942
299.931
299.916
299.906
299.917
299.941
299.972
300.014
300.043
300.037
300
299.983
299.969
299.931
299.942
299.963
299.894
299.885
299.983
299.976
299.851
299.883
300.037
300.176
300.281
300.196
299.92
299.913
299.922
299.924
299.933
299.941
299.949
299.953
299.956
299.956
299.956
299.956
299.958
299.961
299.965
299.969
299.973
299.976
299.976
299.974
299.966
299.956
299.944
299.938
299.943
299.965
299.989
299.997
299.996
299.991
299.987
299.982
299.97
299.958
299.948
299.933
299.914
299.895
299.902
299.918
299.951
300.013
300.054
300.05
300.034
300.033
299.996
299.929
299.949
299.939
299.852
299.931
300.016
299.839
299.72
300.017
300.454
300.657
300.829
300.794
299.926
299.925
299.926
299.926
299.93
299.933
299.939
299.944
299.949
299.953
299.957
299.959
299.96
299.963
299.966
299.971
299.975
299.977
299.977
299.973
299.962
299.945
299.924
299.902
299.884
299.888
299.938
299.989
300.001
300.001
300
299.991
299.975
299.96
299.948
299.939
299.926
299.901
299.896
299.9
299.933
300.002
300.036
300.034
300.046
300.045
299.981
299.952
299.989
299.892
299.854
300.03
299.934
299.658
299.895
300.518
301.015
301.099
301.139
301.243
299.913
299.897
299.901
299.901
299.903
299.905
299.911
299.92
299.927
299.934
299.942
299.952
299.961
299.966
299.97
299.973
299.976
299.977
299.978
299.975
299.967
299.951
299.929
299.909
299.897
299.866
299.854
299.928
299.996
299.998
299.99
299.989
299.982
299.971
299.956
299.952
299.945
299.921
299.905
299.904
299.946
300.012
300.032
300.053
300.082
300.015
299.938
299.988
299.958
299.833
299.962
300.066
299.731
299.687
300.357
300.973
301.179
301.106
300.965
301.082
299.937
299.91
299.904
299.902
299.903
299.904
299.906
299.908
299.909
299.911
299.915
299.921
299.932
299.946
299.959
299.968
299.973
299.974
299.974
299.97
299.961
299.945
299.925
299.897
299.891
299.898
299.868
299.871
299.95
300.004
300.002
299.991
299.983
299.972
299.953
299.947
299.951
299.937
299.921
299.922
299.965
300.016
300.031
300.087
300.118
300.003
299.966
299.994
299.873
299.868
300.043
299.949
299.627
299.952
300.786
301.144
301.108
301.034
300.884
300.839
299.978
299.968
299.958
299.949
299.942
299.937
299.934
299.931
299.93
299.928
299.927
299.925
299.923
299.923
299.928
299.938
299.948
299.954
299.956
299.955
299.945
299.923
299.907
299.896
299.875
299.881
299.883
299.865
299.906
299.974
299.998
299.991
299.981
299.97
299.946
299.946
299.967
299.96
299.94
299.945
299.982
300.019
300.052
300.127
300.124
300.023
300.037
299.97
299.839
299.951
300.031
299.841
299.691
300.281
301.134
301.236
301.048
301.024
300.98
300.862
299.983
299.982
299.98
299.978
299.975
299.973
299.97
299.968
299.966
299.963
299.961
299.958
299.954
299.949
299.942
299.936
299.93
299.927
299.924
299.917
299.911
299.901
299.886
299.888
299.883
299.871
299.889
299.882
299.869
299.91
299.971
300
299.997
299.978
299.948
299.957
299.972
299.955
299.951
299.971
299.997
300.034
300.109
300.205
300.164
300.087
300.098
299.951
299.895
300.029
299.971
299.813
299.863
300.665
301.503
301.312
300.917
300.929
300.983
300.904
299.967
299.966
299.964
299.963
299.961
299.96
299.959
299.958
299.957
299.956
299.954
299.953
299.95
299.947
299.943
299.937
299.931
299.924
299.916
299.91
299.9
299.896
299.894
299.885
299.887
299.883
299.88
299.892
299.891
299.891
299.919
299.957
299.988
299.988
299.974
299.985
299.982
299.975
299.998
300.003
300.011
300.093
300.248
300.348
300.279
300.234
300.166
299.976
300.023
300.073
299.937
299.897
300.125
301.067
301.86
301.476
300.834
300.804
300.893
300.839
299.963
299.962
299.96
299.958
299.957
299.956
299.955
299.954
299.953
299.951
299.949
299.947
299.943
299.939
299.934
299.928
299.921
299.915
299.908
299.901
299.897
299.893
299.89
299.887
299.882
299.881
299.879
299.886
299.905
299.917
299.926
299.943
299.969
299.976
299.985
299.996
299.992
300.014
300.025
299.992
300.055
300.29
300.538
300.595
300.507
300.446
300.242
300.126
300.219
300.092
299.995
300.102
300.48
301.463
302.34
301.97
300.943
300.707
300.782
300.798
299.965
299.963
299.962
299.96
299.959
299.958
299.957
299.956
299.955
299.954
299.952
299.949
299.946
299.942
299.937
299.931
299.924
299.918
299.912
299.907
299.902
299.899
299.895
299.889
299.884
299.882
299.881
299.881
299.888
299.905
299.926
299.947
299.967
299.978
299.998
299.999
300.011
300.034
299.992
300.036
300.353
300.798
301.027
300.98
300.853
300.648
300.404
300.454
300.342
300.117
300.22
300.48
300.9
301.889
303.069
302.904
301.401
300.74
300.767
300.8
299.966
299.964
299.962
299.96
299.958
299.957
299.956
299.955
299.953
299.952
299.949
299.946
299.942
299.938
299.933
299.927
299.921
299.915
299.909
299.904
299.899
299.895
299.89
299.886
299.883
299.882
299.882
299.884
299.886
299.893
299.909
299.927
299.952
299.971
299.991
299.998
300.031
300.037
300.141
300.692
301.439
301.855
301.756
301.546
301.181
300.901
300.897
300.585
300.235
300.421
300.806
301.027
301.415
302.438
303.917
304.278
302.484
301.01
300.807
300.84
299.965
299.963
299.961
299.959
299.958
299.957
299.956
299.956
299.955
299.953
299.951
299.949
299.946
299.943
299.939
299.935
299.93
299.927
299.924
299.923
299.925
299.93
299.937
299.944
299.95
299.955
299.959
299.963
299.956
299.95
299.941
299.945
299.957
299.975
300.023
300.083
300.261
300.605
301.54
302.919
303.438
302.894
302.249
301.842
301.255
300.619
300.572
300.872
301.109
301.189
301.247
301.327
301.476
301.962
303.734
305.454
304.165
301.874
301.023
300.85
299.989
299.99
299.992
299.994
299.997
300
300.003
300.008
300.012
300.017
300.022
300.029
300.036
300.045
300.056
300.069
300.086
300.108
300.135
300.171
300.217
300.274
300.335
300.388
300.427
300.449
300.455
300.436
300.403
300.369
300.346
300.363
300.397
300.522
300.735
301.209
301.996
303.169
304.939
305.566
304.334
303.139
302.957
302.589
301.955
301.585
301.537
301.628
301.706
301.754
301.887
301.998
301.788
301.899
303.903
306.241
305.649
303.436
302.014
301.37
300.272
300.295
300.319
300.345
300.373
300.404
300.438
300.476
300.517
300.563
300.612
300.667
300.729
300.796
300.87
300.952
301.042
301.141
301.25
301.376
301.519
301.662
301.775
301.832
301.836
301.806
301.764
301.729
301.711
301.746
301.831
301.955
302.208
302.65
303.413
304.536
305.35
305.951
306.867
307.427
307.286
306.457
305.724
305.169
304.679
304.262
304.14
304.312
304.553
304.824
305.098
305.12
304.915
305.763
307.703
308.314
306.746
304.827
303.613
302.95
301.359
301.481
301.602
301.721
301.84
301.96
302.081
302.201
302.316
302.426
302.53
302.63
302.728
302.829
302.932
303.04
303.151
303.264
303.375
303.479
303.568
303.634
303.672
303.684
303.679
303.67
303.67
303.688
303.743
303.851
304.026
304.314
304.771
305.418
306.25
307.231
308.267
309.286
310.054
310.496
310.382
309.752
309.281
309.104
308.966
308.771
308.814
308.985
309.028
308.983
308.792
308.384
308.169
309.018
310.005
309.338
307.633
306.147
305.007
304.323
299.973
299.971
299.966
299.957
299.941
299.926
299.938
299.976
299.957
299.969
299.964
299.955
299.932
299.883
299.863
299.941
299.943
299.957
299.967
299.96
299.968
299.932
299.841
299.919
299.935
299.935
299.964
299.956
299.975
300.02
299.905
299.922
300.028
299.908
299.937
299.954
299.946
300.054
299.984
299.95
300.534
300.098
299.932
299.941
299.918
300.03
300.014
299.975
301.189
300.607
300.107
299.976
299.912
299.99
300.012
299.984
301.371
301.072
300.415
300.112
299.937
299.977
300.026
299.989
301.185
301.279
300.728
300.313
300.008
300.064
300.07
299.988
301.026
301.275
300.966
300.574
300.21
300.21
300.072
299.978
300.972
301.186
301.03
300.775
300.429
300.32
300.083
300.024
300.868
301.046
301.032
300.867
300.471
300.266
300.088
300.128
300.84
300.881
300.753
300.75
300.388
300.334
300.258
300.283
300.793
300.719
300.753
300.802
300.218
300.58
300.323
300.418
300.852
300.828
300.88
300.519
300.597
300.941
300.177
300.848
300.858
300.841
300.833
300.667
300.957
300.531
300.747
301.973
301.161
300.922
300.857
300.863
301.005
301.225
302.293
303.049
302.648
302.266
302.019
301.85
302.21
302.65
303.561
303.81
304.059
303.785
303.796
304.049
303.994
303.844
304.485
304.426
)
;

boundaryField
{
    inlet
    {
        type            fixedValue;
        value           uniform 300;
    }
    outlet
    {
        type            inletOutlet;
        inletValue      uniform 300;
        value           nonuniform List<scalar> 
19
(
299.976
299.941
299.919
299.922
299.95
299.975
299.984
299.989
299.988
299.978
300.024
300.128
300.283
300.418
300.848
301.973
303.049
303.81
304.426
)
;
    }
    upperWall
    {
        type            externalWallHeatFluxTemperature;
        mode            flux;
        kappaMethod     fluidThermo;
        kappa           none;
        alphaAni        Anialpha;
        q               uniform 500;
        qr              none;
        refValue        nonuniform List<scalar> 
74
(
300.469
300.732
301.048
301.378
301.695
301.949
302.362
302.523
302.659
302.78
302.895
303.009
303.122
303.233
303.34
303.442
303.539
303.633
303.727
303.825
303.928
304.039
304.156
304.281
304.409
304.538
304.658
304.761
304.832
304.864
304.86
304.833
304.792
304.754
304.747
304.793
304.91
305.152
305.586
306.235
307.126
308.26
309.576
310.96
312.099
312.662
312.141
311.087
310.412
310.159
310.057
310.037
310.425
311.011
311.316
311.115
310.524
309.701
309.155
309.813
310.735
310.055
308.383
307.179
306.073
305.057
304.665
304.313
304.377
305.051
304.833
304.285
304.826
304.701
)
;
        refGradient     nonuniform List<scalar> 
74
(
675.138
678.445
784.729
962.097
1150.5
1323.71
1804.6
1878.62
1910.79
1920.61
1918.77
1911.52
1902.29
1892.71
1883.39
1874.95
1867.91
1862.84
1860.55
1861.76
1867.46
1878.97
1898
1926.67
1967.61
2022.84
2091.75
2169.47
2242.6
2292.32
2304.88
2278.83
2210.98
2111.71
1999.28
1885.09
1779.93
1698.05
1659.11
1675.42
1807.83
2135.44
2734.23
3525.19
4337.54
4627.47
3785.72
2895.66
2472.34
2325.92
2424.87
2838.31
3645
4628.52
5279.24
4969.61
4079.04
3137.55
2375.41
1937.48
1800.9
1788.61
1898.48
2646.24
2770.88
1935.55
1641.39
1471.46
1673.49
3003.82
2637.41
1470.13
1219.43
1070.8
)
;
        valueFraction   uniform 0;
        value           nonuniform List<scalar> 
74
(
300.472
300.733
301.049
301.379
301.696
301.951
302.364
302.525
302.661
302.783
302.898
303.011
303.124
303.235
303.342
303.444
303.541
303.635
303.729
303.826
303.93
304.04
304.157
304.281
304.41
304.538
304.658
304.761
304.832
304.864
304.86
304.832
304.791
304.754
304.746
304.793
304.909
305.152
305.585
306.235
307.126
308.259
309.575
310.96
312.099
312.663
312.141
311.087
310.411
310.159
310.056
310.036
310.424
311.01
311.316
311.115
310.524
309.701
309.156
309.813
310.735
310.055
308.384
307.18
306.074
305.057
304.665
304.313
304.377
305.051
304.833
304.286
304.826
304.701
)
;
    }
    lowerWall
    {
        type            fixedValue;
        value           uniform 300;
    }
    frontAndBack
    {
        type            empty;
    }
}


// ************************************************************************* //
