/*--------------------------------*- C++ -*----------------------------------*\
  =========                 |
  \\      /  F ield         | OpenFOAM: The Open Source CFD Toolbox
   \\    /   O peration     | Website:  https://openfoam.org
    \\  /    A nd           | Version:  7
     \\/     M anipulation  |
\*---------------------------------------------------------------------------*/
FoamFile
{
    version     2.0;
    format      ascii;
    class       volVectorField;
    location    "0.05";
    object      U;
}
// * * * * * * * * * * * * * * * * * * * * * * * * * * * * * * * * * * * * * //

dimensions      [0 1 -1 0 0 0 0];

internalField   nonuniform List<vector> 
1440
(
(2.7544 0.10671 0)
(2.16828 0.0387754 0)
(2.10744 0.00390768 0)
(2.09214 -0.00826027 0)
(2.1664 -0.00629591 0)
(2.22752 -0.00236231 0)
(2.2471 -0.00109756 0)
(2.25367 -0.000870673 0)
(2.25967 -0.000819097 0)
(2.26654 -0.000848445 0)
(2.27394 -0.000897283 0)
(2.28204 -0.000955613 0)
(2.29108 -0.00101224 0)
(2.30073 -0.00107248 0)
(2.31134 -0.00114521 0)
(2.32279 -0.00120849 0)
(2.33477 -0.00127186 0)
(2.34738 -0.0013418 0)
(2.36042 -0.0014101 0)
(2.37373 -0.00148039 0)
(2.38725 -0.00154819 0)
(2.40077 -0.00161573 0)
(2.41437 -0.0016833 0)
(2.4279 -0.00174916 0)
(2.44144 -0.00181575 0)
(2.45502 -0.00188085 0)
(2.46878 -0.00194399 0)
(2.48285 -0.00200659 0)
(2.49752 -0.00206868 0)
(2.513 -0.0021306 0)
(2.52965 -0.00219357 0)
(2.5478 -0.00225451 0)
(2.56776 -0.00231498 0)
(2.58991 -0.00237897 0)
(2.61458 -0.00244526 0)
(2.64211 -0.00251481 0)
(2.67281 -0.00259366 0)
(2.70694 -0.00265792 0)
(2.74473 -0.00272931 0)
(2.78637 -0.00280599 0)
(2.83196 -0.00288406 0)
(2.88154 -0.00296248 0)
(2.9351 -0.00304138 0)
(2.99255 -0.00311999 0)
(3.05376 -0.00319717 0)
(3.11849 -0.00327074 0)
(3.18648 -0.00334511 0)
(3.2574 -0.00341931 0)
(3.33085 -0.00349943 0)
(3.40641 -0.00356409 0)
(3.48357 -0.00359684 0)
(3.56182 -0.00363738 0)
(3.6406 -0.0036722 0)
(3.71935 -0.00369736 0)
(3.79748 -0.00371074 0)
(3.8744 -0.00371157 0)
(3.94952 -0.00369886 0)
(4.02225 -0.00367233 0)
(4.09202 -0.00363481 0)
(4.1583 -0.00358831 0)
(4.22054 -0.00354174 0)
(4.27826 -0.00344322 0)
(4.33103 -0.00332716 0)
(4.37844 -0.00321642 0)
(4.42012 -0.00309852 0)
(4.45577 -0.00297181 0)
(4.48513 -0.00283665 0)
(4.508 -0.00269381 0)
(4.52422 -0.00254408 0)
(4.53369 -0.00239021 0)
(4.53637 -0.00223575 0)
(4.53226 -0.00209254 0)
(4.5214 -0.00192976 0)
(4.50391 -0.00173377 0)
(4.47992 -0.00155742 0)
(4.44963 -0.00139365 0)
(4.41325 -0.00123625 0)
(4.37106 -0.00108438 0)
(4.32334 -0.000938661 0)
(4.27041 -0.000798906 0)
(4.21262 -0.000665587 0)
(4.15032 -0.000539324 0)
(4.0839 -0.000420457 0)
(4.01373 -0.00030901 0)
(3.94021 -0.000205057 0)
(3.86374 -0.000108825 0)
(3.78472 -2.01778e-05 0)
(3.70356 6.12541e-05 0)
(3.62064 0.000135645 0)
(3.53636 0.000203394 0)
(3.45109 0.000264886 0)
(3.3652 0.000320432 0)
(3.27905 0.000370384 0)
(3.19299 0.000415225 0)
(3.10733 0.000455398 0)
(3.02241 0.000491201 0)
(2.9385 0.000522999 0)
(2.85591 0.000551243 0)
(2.7749 0.000576337 0)
(2.69572 0.00059849 0)
(2.6186 0.00061799 0)
(2.54378 0.0006352 0)
(2.47144 0.000650445 0)
(2.40179 0.000663835 0)
(2.33499 0.000675545 0)
(2.27122 0.000685853 0)
(2.21061 0.00069498 0)
(2.15332 0.000702997 0)
(2.09945 0.000709989 0)
(2.04913 0.00071613 0)
(2.00245 0.000721594 0)
(1.95952 0.00072642 0)
(1.9204 0.00073064 0)
(1.88517 0.000734377 0)
(1.8539 0.000737723 0)
(1.82664 0.000740706 0)
(1.80344 0.000743415 0)
(1.78433 0.000745808 0)
(1.76945 0.00074773 0)
(1.75606 0.000752137 0)
(4.12344 0.221263 0)
(4.41271 0.0705323 0)
(4.61306 0.0104375 0)
(4.50172 -0.00896134 0)
(4.47752 -0.0114593 0)
(4.50953 -0.00515827 0)
(4.51721 -0.0015951 0)
(4.51251 -0.000841195 0)
(4.50868 -0.000769314 0)
(4.50581 -0.000831348 0)
(4.50292 -0.000908718 0)
(4.50015 -0.00100298 0)
(4.49765 -0.00109286 0)
(4.49524 -0.00117391 0)
(4.49304 -0.00127975 0)
(4.49091 -0.00136954 0)
(4.48866 -0.00145461 0)
(4.48625 -0.00154903 0)
(4.48351 -0.00163639 0)
(4.48028 -0.00172209 0)
(4.47646 -0.00179907 0)
(4.4719 -0.0018709 0)
(4.4666 -0.0019409 0)
(4.46049 -0.00200676 0)
(4.45361 -0.00207192 0)
(4.44602 -0.00213283 0)
(4.43787 -0.00218845 0)
(4.42931 -0.00224067 0)
(4.42061 -0.00228992 0)
(4.41201 -0.00233755 0)
(4.40383 -0.00238368 0)
(4.3964 -0.00242797 0)
(4.39004 -0.00247146 0)
(4.38511 -0.00250354 0)
(4.38191 -0.0025326 0)
(4.38077 -0.00256279 0)
(4.38195 -0.0025945 0)
(4.38571 -0.00259766 0)
(4.39223 -0.00261333 0)
(4.40166 -0.00263753 0)
(4.41406 -0.00266331 0)
(4.42947 -0.00268883 0)
(4.44785 -0.002715 0)
(4.4691 -0.0027428 0)
(4.49307 -0.00277308 0)
(4.51953 -0.00281079 0)
(4.54823 -0.00282643 0)
(4.57887 -0.00283954 0)
(4.61109 -0.00286297 0)
(4.6445 -0.00284633 0)
(4.6787 -0.00280941 0)
(4.71324 -0.00279271 0)
(4.74767 -0.00277728 0)
(4.78152 -0.00275805 0)
(4.81434 -0.0027333 0)
(4.84567 -0.00270486 0)
(4.87506 -0.00267542 0)
(4.90206 -0.0026417 0)
(4.92629 -0.00257788 0)
(4.94734 -0.00250905 0)
(4.96486 -0.00243168 0)
(4.97853 -0.00229866 0)
(4.98806 -0.00216702 0)
(4.99319 -0.00205251 0)
(4.99368 -0.00193881 0)
(4.98937 -0.0018233 0)
(4.9801 -0.00170671 0)
(4.96579 -0.00159186 0)
(4.94636 -0.00148937 0)
(4.92179 -0.00135785 0)
(4.89209 -0.00122566 0)
(4.8573 -0.00110714 0)
(4.81752 -0.000943848 0)
(4.77287 -0.000762915 0)
(4.72347 -0.000609975 0)
(4.66949 -0.000473181 0)
(4.61113 -0.000344445 0)
(4.54861 -0.000221854 0)
(4.48217 -0.000105426 0)
(4.41207 5.44754e-06 0)
(4.33858 0.000110753 0)
(4.26199 0.000210011 0)
(4.18259 0.000303057 0)
(4.1007 0.000390019 0)
(4.01662 0.000470921 0)
(3.93068 0.000545608 0)
(3.84319 0.000614219 0)
(3.75447 0.000677162 0)
(3.66483 0.000734493 0)
(3.57458 0.000786624 0)
(3.48404 0.000833929 0)
(3.3935 0.000876586 0)
(3.30327 0.000914825 0)
(3.21362 0.000949119 0)
(3.12483 0.000979868 0)
(3.03717 0.00100719 0)
(2.95089 0.00103133 0)
(2.86624 0.00105276 0)
(2.78344 0.00107183 0)
(2.70271 0.00108858 0)
(2.62426 0.0011032 0)
(2.54829 0.00111607 0)
(2.47497 0.0011275 0)
(2.40448 0.00113748 0)
(2.33697 0.00114606 0)
(2.27259 0.00115356 0)
(2.21147 0.00116023 0)
(2.15374 0.00116604 0)
(2.09951 0.00117096 0)
(2.04888 0.0011752 0)
(2.00195 0.001179 0)
(1.9588 0.00118231 0)
(1.91951 0.00118507 0)
(1.88415 0.00118745 0)
(1.85277 0.00118956 0)
(1.82542 0.00119134 0)
(1.80216 0.00119291 0)
(1.783 0.00119419 0)
(1.76809 0.00119408 0)
(1.75479 0.00119208 0)
(4.28757 0.189709 0)
(4.94065 0.0605248 0)
(5.28994 0.00876905 0)
(5.11443 -0.00826317 0)
(5.00533 -0.0108678 0)
(5.0017 -0.00466493 0)
(4.99646 -0.00106906 0)
(4.98382 -0.000337222 0)
(4.97348 -0.000276962 0)
(4.96405 -0.000344399 0)
(4.95428 -0.000409482 0)
(4.9443 -0.000492893 0)
(4.9342 -0.000570624 0)
(4.92396 -0.000646351 0)
(4.91353 -0.000748236 0)
(4.90282 -0.00084322 0)
(4.89173 -0.000934943 0)
(4.88018 -0.00102658 0)
(4.86803 -0.00110827 0)
(4.85515 -0.00118948 0)
(4.84145 -0.00126758 0)
(4.82684 -0.00135115 0)
(4.81126 -0.0014334 0)
(4.79472 -0.00150432 0)
(4.77727 -0.00157136 0)
(4.759 -0.00163264 0)
(4.74007 -0.00168892 0)
(4.72069 -0.00174247 0)
(4.70111 -0.00179375 0)
(4.68163 -0.00184145 0)
(4.66256 -0.00189628 0)
(4.64425 -0.00194902 0)
(4.62707 -0.00200111 0)
(4.61138 -0.0020354 0)
(4.59753 -0.00206421 0)
(4.58585 -0.00209226 0)
(4.57663 -0.00210416 0)
(4.57013 -0.00211801 0)
(4.56656 -0.00214157 0)
(4.56609 -0.00216686 0)
(4.56881 -0.00219126 0)
(4.57476 -0.00221552 0)
(4.58394 -0.00224107 0)
(4.59626 -0.00226701 0)
(4.61157 -0.00230088 0)
(4.62968 -0.0023444 0)
(4.65034 -0.00235754 0)
(4.67325 -0.00236557 0)
(4.69807 -0.00236835 0)
(4.72442 -0.0023415 0)
(4.7519 -0.00233321 0)
(4.78006 -0.00232519 0)
(4.80847 -0.0023131 0)
(4.83666 -0.00229716 0)
(4.86417 -0.00227761 0)
(4.89054 -0.00225135 0)
(4.91532 -0.00223712 0)
(4.93806 -0.00221642 0)
(4.95836 -0.00216184 0)
(4.9758 -0.00209797 0)
(4.99002 -0.00201019 0)
(5.00068 -0.00191392 0)
(5.00748 -0.00182744 0)
(5.01013 -0.00173921 0)
(5.00842 -0.00164808 0)
(5.00213 -0.00155468 0)
(4.99111 -0.00145961 0)
(4.97525 -0.00136844 0)
(4.95445 -0.00129183 0)
(4.92869 -0.00118395 0)
(4.89795 -0.00107199 0)
(4.86227 -0.000958098 0)
(4.82171 -0.000818976 0)
(4.77638 -0.000697438 0)
(4.72639 -0.00058393 0)
(4.67192 -0.000475304 0)
(4.61315 -0.000371125 0)
(4.55028 -0.000271232 0)
(4.48355 -0.000175799 0)
(4.4132 -8.51079e-05 0)
(4.33951 9.02058e-07 0)
(4.26276 8.18847e-05 0)
(4.18323 0.000157709 0)
(4.10122 0.000228411 0)
(4.01705 0.000294048 0)
(3.93103 0.000354737 0)
(3.84347 0.000410546 0)
(3.7547 0.000461729 0)
(3.66501 0.000508333 0)
(3.57473 0.000550649 0)
(3.48416 0.000589026 0)
(3.39361 0.000623597 0)
(3.30335 0.000654533 0)
(3.21369 0.000682218 0)
(3.12489 0.000707004 0)
(3.03723 0.000728976 0)
(2.95094 0.000748315 0)
(2.86628 0.000765421 0)
(2.78348 0.000780611 0)
(2.70275 0.000793892 0)
(2.6243 0.000805392 0)
(2.54832 0.000815465 0)
(2.475 0.000824393 0)
(2.40451 0.000832126 0)
(2.337 0.0008387 0)
(2.27262 0.000844396 0)
(2.2115 0.000849442 0)
(2.15377 0.000853801 0)
(2.09954 0.000857431 0)
(2.04891 0.000860509 0)
(2.00198 0.000863284 0)
(1.95883 0.000865721 0)
(1.91954 0.000867665 0)
(1.88418 0.000869309 0)
(1.8528 0.00087084 0)
(1.82545 0.000872056 0)
(1.80219 0.000873137 0)
(1.78303 0.00087409 0)
(1.76812 0.000872948 0)
(1.7548 0.00086395 0)
(4.28159 0.128254 0)
(4.95914 0.0404192 0)
(5.32922 0.00615581 0)
(5.14764 -0.00499886 0)
(5.03034 -0.00682712 0)
(5.02372 -0.00248561 0)
(5.01722 -9.91025e-05 0)
(5.0038 0.000323198 0)
(4.99289 0.000346395 0)
(4.98292 0.000319018 0)
(4.9726 0.000295172 0)
(4.96204 0.00025075 0)
(4.95135 0.000205115 0)
(4.9405 0.000147864 0)
(4.92944 7.79296e-05 0)
(4.91809 1.80271e-05 0)
(4.90637 -3.76748e-05 0)
(4.89417 -9.13827e-05 0)
(4.88135 -0.000142373 0)
(4.86782 -0.000198745 0)
(4.85346 -0.000255845 0)
(4.83819 -0.000316641 0)
(4.82196 -0.00037378 0)
(4.80478 -0.000422985 0)
(4.7867 -0.000470822 0)
(4.76781 -0.000516391 0)
(4.74828 -0.000552767 0)
(4.72831 -0.000588487 0)
(4.70816 -0.000622335 0)
(4.68812 -0.000651533 0)
(4.66853 -0.000686131 0)
(4.64972 -0.000713449 0)
(4.63206 -0.000735015 0)
(4.61592 -0.000758334 0)
(4.60164 -0.000780919 0)
(4.58955 -0.000801169 0)
(4.57996 -0.000823019 0)
(4.57311 -0.000846151 0)
(4.56922 -0.000867234 0)
(4.56845 -0.000886656 0)
(4.5709 -0.000903824 0)
(4.57661 -0.000918985 0)
(4.58556 -0.000933146 0)
(4.59767 -0.000944394 0)
(4.61279 -0.000957853 0)
(4.63074 -0.000965941 0)
(4.65126 -0.000975324 0)
(4.67404 -0.000984578 0)
(4.69874 -0.000990543 0)
(4.725 -0.000999264 0)
(4.75238 -0.0010049 0)
(4.78047 -0.00100508 0)
(4.80882 -0.00100176 0)
(4.83695 -0.00099499 0)
(4.86442 -0.00098448 0)
(4.89075 -0.000965449 0)
(4.91549 -0.000951659 0)
(4.93821 -0.000928574 0)
(4.95848 -0.0009024 0)
(4.9759 -0.000871383 0)
(4.9901 -0.000836967 0)
(5.00075 -0.000801174 0)
(5.00754 -0.000760177 0)
(5.01019 -0.000714534 0)
(5.00846 -0.000665526 0)
(5.00217 -0.000613382 0)
(4.99114 -0.00055764 0)
(4.97527 -0.000500913 0)
(4.95448 -0.000442132 0)
(4.92871 -0.00038226 0)
(4.89797 -0.000320788 0)
(4.86229 -0.000256762 0)
(4.82173 -0.000194676 0)
(4.77639 -0.000132681 0)
(4.72641 -7.00709e-05 0)
(4.67194 -8.24136e-06 0)
(4.61316 5.21815e-05 0)
(4.55029 0.000110946 0)
(4.48356 0.000167713 0)
(4.41321 0.000222097 0)
(4.33952 0.000274101 0)
(4.26277 0.00032337 0)
(4.18323 0.000369682 0)
(4.10123 0.000413085 0)
(4.01706 0.000453577 0)
(3.93104 0.000491182 0)
(3.84348 0.000525875 0)
(3.7547 0.000557818 0)
(3.66502 0.000587004 0)
(3.57474 0.000613555 0)
(3.48417 0.000637728 0)
(3.39361 0.000659559 0)
(3.30336 0.000679114 0)
(3.2137 0.000696635 0)
(3.1249 0.000712368 0)
(3.03723 0.000726323 0)
(2.95094 0.000738576 0)
(2.86628 0.000749414 0)
(2.78348 0.000759065 0)
(2.70275 0.000767483 0)
(2.6243 0.000774716 0)
(2.54833 0.000781036 0)
(2.47501 0.000786657 0)
(2.40451 0.000791506 0)
(2.337 0.000795559 0)
(2.27262 0.00079904 0)
(2.2115 0.000802127 0)
(2.15377 0.000804782 0)
(2.09954 0.000806927 0)
(2.04891 0.000808685 0)
(2.00198 0.00081029 0)
(1.95883 0.000811731 0)
(1.91954 0.000812762 0)
(1.88418 0.000813555 0)
(1.8528 0.00081438 0)
(1.82545 0.000814911 0)
(1.80219 0.000815324 0)
(1.78303 0.000815731 0)
(1.76812 0.000813566 0)
(1.75478 0.000802465 0)
(4.27626 0.0764214 0)
(4.95053 0.0256222 0)
(5.32702 0.00456043 0)
(5.14723 -0.00248782 0)
(5.03057 -0.00348294 0)
(5.02412 -0.000749101 0)
(5.01744 0.000628792 0)
(5.00392 0.000846549 0)
(4.99298 0.000863378 0)
(4.983 0.000842943 0)
(4.97268 0.000828997 0)
(4.96211 0.00080397 0)
(4.95142 0.000781914 0)
(4.94057 0.00075701 0)
(4.92951 0.00071653 0)
(4.91816 0.000692224 0)
(4.90643 0.000666558 0)
(4.89422 0.000631266 0)
(4.88141 0.000601488 0)
(4.86787 0.000570759 0)
(4.85351 0.000544847 0)
(4.83823 0.000518782 0)
(4.822 0.000489706 0)
(4.80482 0.000463673 0)
(4.78673 0.000436975 0)
(4.76784 0.000410421 0)
(4.74831 0.000391178 0)
(4.72834 0.000371068 0)
(4.70818 0.000351088 0)
(4.68814 0.000330437 0)
(4.66854 0.000311877 0)
(4.64973 0.000295857 0)
(4.63207 0.000281171 0)
(4.61592 0.000266766 0)
(4.60164 0.000254738 0)
(4.58955 0.000244116 0)
(4.57996 0.000233717 0)
(4.57311 0.000224378 0)
(4.56922 0.000215746 0)
(4.56844 0.000207248 0)
(4.57089 0.000200232 0)
(4.5766 0.000194775 0)
(4.58555 0.000189969 0)
(4.59766 0.000185256 0)
(4.61279 0.000181915 0)
(4.63074 0.000179225 0)
(4.65125 0.000175318 0)
(4.67403 0.000172393 0)
(4.69874 0.00016995 0)
(4.72499 0.000166758 0)
(4.75238 0.000165238 0)
(4.78047 0.000164933 0)
(4.80882 0.000165124 0)
(4.83695 0.000165878 0)
(4.86442 0.000167398 0)
(4.89075 0.000168873 0)
(4.91549 0.000172332 0)
(4.93821 0.000176608 0)
(4.95848 0.000180849 0)
(4.9759 0.000187089 0)
(4.99011 0.000194196 0)
(5.00076 0.000201316 0)
(5.00754 0.000210455 0)
(5.01019 0.000220868 0)
(5.00846 0.000232147 0)
(5.00217 0.00024439 0)
(4.99115 0.000257389 0)
(4.97528 0.000271436 0)
(4.95448 0.000287743 0)
(4.92872 0.000303216 0)
(4.89798 0.000320171 0)
(4.86229 0.000339096 0)
(4.82174 0.000357003 0)
(4.7764 0.000375883 0)
(4.72641 0.000395843 0)
(4.67194 0.000416098 0)
(4.61317 0.000436318 0)
(4.5503 0.000456408 0)
(4.48356 0.000476218 0)
(4.41322 0.000495483 0)
(4.33953 0.000514278 0)
(4.26277 0.000532337 0)
(4.18324 0.000549437 0)
(4.10123 0.000565674 0)
(4.01706 0.000581022 0)
(3.93104 0.00059545 0)
(3.84348 0.000608869 0)
(3.7547 0.000621372 0)
(3.66502 0.000632906 0)
(3.57474 0.000643442 0)
(3.48417 0.00065315 0)
(3.39361 0.000661978 0)
(3.30336 0.000669897 0)
(3.2137 0.000677007 0)
(3.1249 0.000683451 0)
(3.03723 0.000689165 0)
(2.95094 0.000694126 0)
(2.86628 0.000698508 0)
(2.78348 0.000702443 0)
(2.70275 0.000705839 0)
(2.6243 0.000708663 0)
(2.54833 0.000711103 0)
(2.47501 0.000713302 0)
(2.40451 0.000715163 0)
(2.337 0.000716608 0)
(2.27262 0.000717798 0)
(2.2115 0.000718856 0)
(2.15377 0.000719743 0)
(2.09954 0.000720358 0)
(2.04891 0.000720758 0)
(2.00198 0.000721148 0)
(1.95883 0.000721554 0)
(1.91954 0.000721657 0)
(1.88418 0.000721578 0)
(1.8528 0.000721666 0)
(1.82545 0.000721519 0)
(1.80219 0.000721264 0)
(1.78303 0.000721079 0)
(1.76812 0.000718078 0)
(1.75476 0.000704175 0)
(4.2739 0.0259524 0)
(4.94641 0.00999696 0)
(5.32578 0.00261888 0)
(5.14693 -0.000157185 0)
(5.03066 -0.000153689 0)
(5.02429 0.0010499 0)
(5.0175 0.00141983 0)
(5.00392 0.00140492 0)
(4.99298 0.00139972 0)
(4.983 0.00139419 0)
(4.97268 0.0014075 0)
(4.96211 0.00141231 0)
(4.95142 0.00141884 0)
(4.94057 0.00142161 0)
(4.92951 0.00141135 0)
(4.91815 0.00141505 0)
(4.90643 0.00141432 0)
(4.89422 0.00140629 0)
(4.88141 0.0014036 0)
(4.86787 0.00139789 0)
(4.85351 0.00139518 0)
(4.83823 0.00139065 0)
(4.822 0.00138181 0)
(4.80482 0.00137494 0)
(4.78673 0.00136688 0)
(4.76784 0.00135922 0)
(4.74831 0.00135274 0)
(4.72834 0.00134674 0)
(4.70818 0.00134017 0)
(4.68814 0.00133281 0)
(4.66854 0.00132534 0)
(4.64973 0.00131934 0)
(4.63207 0.00131468 0)
(4.61592 0.00131005 0)
(4.60164 0.00130726 0)
(4.58955 0.00130592 0)
(4.57996 0.00130486 0)
(4.57311 0.00130466 0)
(4.56922 0.00130514 0)
(4.56844 0.00130594 0)
(4.57089 0.00130819 0)
(4.5766 0.00131197 0)
(4.58555 0.00131625 0)
(4.59766 0.00132067 0)
(4.61279 0.00132594 0)
(4.63074 0.00133097 0)
(4.65125 0.00133452 0)
(4.67403 0.00133758 0)
(4.69874 0.00133989 0)
(4.72499 0.00134012 0)
(4.75238 0.00133977 0)
(4.78047 0.00133838 0)
(4.80882 0.00133521 0)
(4.83695 0.00133 0)
(4.86442 0.00132259 0)
(4.89075 0.00131261 0)
(4.91549 0.00130129 0)
(4.93821 0.00128735 0)
(4.95848 0.00127059 0)
(4.9759 0.00125249 0)
(4.99011 0.00123219 0)
(5.00076 0.00120918 0)
(5.00754 0.00118523 0)
(5.01019 0.00115999 0)
(5.00846 0.00113339 0)
(5.00217 0.00110577 0)
(4.99115 0.00107732 0)
(4.97528 0.00104859 0)
(4.95448 0.00102084 0)
(4.92872 0.000991928 0)
(4.89797 0.000964092 0)
(4.86229 0.000938056 0)
(4.82173 0.000911696 0)
(4.7764 0.000886822 0)
(4.72641 0.000863822 0)
(4.67194 0.00084231 0)
(4.61317 0.000822174 0)
(4.5503 0.000803463 0)
(4.48356 0.000786204 0)
(4.41322 0.000770252 0)
(4.33953 0.000755751 0)
(4.26277 0.00074252 0)
(4.18324 0.000730339 0)
(4.10123 0.000719346 0)
(4.01706 0.000709492 0)
(3.93104 0.00070069 0)
(3.84348 0.000692787 0)
(3.7547 0.000685807 0)
(3.66502 0.000679645 0)
(3.57474 0.00067413 0)
(3.48417 0.000669339 0)
(3.39361 0.000665132 0)
(3.30336 0.000661385 0)
(3.2137 0.000658058 0)
(3.1249 0.000655187 0)
(3.03723 0.000652635 0)
(2.95094 0.000650284 0)
(2.86628 0.000648189 0)
(2.78348 0.000646388 0)
(2.70275 0.000644742 0)
(2.6243 0.000643142 0)
(2.54833 0.000641687 0)
(2.47501 0.000640448 0)
(2.40451 0.000639304 0)
(2.337 0.000638129 0)
(2.27262 0.000637018 0)
(2.2115 0.000636034 0)
(2.15377 0.00063514 0)
(2.09954 0.000634216 0)
(2.04891 0.000633256 0)
(2.00198 0.000632417 0)
(1.95883 0.000631767 0)
(1.91954 0.000630945 0)
(1.88418 0.000629991 0)
(1.8528 0.000629318 0)
(1.82545 0.000628508 0)
(1.80219 0.000627599 0)
(1.78303 0.000626801 0)
(1.76812 0.000623149 0)
(1.75475 0.000608012 0)
(4.2739 -0.0245208 0)
(4.94635 -0.00595356 0)
(5.3257 0.000655487 0)
(5.14692 0.0021676 0)
(5.03072 0.00318105 0)
(5.0243 0.00285949 0)
(5.01749 0.0022125 0)
(5.00392 0.0019638 0)
(4.99298 0.00193772 0)
(4.98301 0.00194753 0)
(4.97268 0.0019886 0)
(4.96212 0.00202226 0)
(4.95142 0.0020568 0)
(4.94057 0.00208677 0)
(4.92951 0.00210576 0)
(4.91816 0.00213781 0)
(4.90643 0.00216297 0)
(4.89422 0.00218149 0)
(4.88141 0.00220436 0)
(4.86787 0.00222258 0)
(4.85351 0.00224323 0)
(4.83823 0.00226146 0)
(4.822 0.00227388 0)
(4.80482 0.00228656 0)
(4.78673 0.00229678 0)
(4.76784 0.00230583 0)
(4.74831 0.00231488 0)
(4.72834 0.00232338 0)
(4.70818 0.00233018 0)
(4.68814 0.00233509 0)
(4.66854 0.00233909 0)
(4.64973 0.00234362 0)
(4.63207 0.00234896 0)
(4.61593 0.0023538 0)
(4.60164 0.00236012 0)
(4.58955 0.00236797 0)
(4.57996 0.00237602 0)
(4.57311 0.00238488 0)
(4.56922 0.00239454 0)
(4.56845 0.00240469 0)
(4.57089 0.00241619 0)
(4.5766 0.00242916 0)
(4.58555 0.0024426 0)
(4.59766 0.002456 0)
(4.61279 0.00246977 0)
(4.63074 0.00248267 0)
(4.65125 0.00249341 0)
(4.67403 0.00250255 0)
(4.69874 0.00250961 0)
(4.72499 0.00251314 0)
(4.75238 0.00251402 0)
(4.78047 0.00251165 0)
(4.80882 0.00250517 0)
(4.83695 0.00249403 0)
(4.86442 0.00247785 0)
(4.89075 0.00245623 0)
(4.91549 0.00243 0)
(4.9382 0.00239807 0)
(4.95847 0.00236027 0)
(4.9759 0.00231781 0)
(4.9901 0.00227013 0)
(5.00075 0.00221697 0)
(5.00754 0.00215998 0)
(5.01018 0.00209913 0)
(5.00846 0.00203465 0)
(5.00216 0.00196721 0)
(4.99114 0.00189729 0)
(4.97527 0.00182574 0)
(4.95448 0.00175395 0)
(4.92871 0.00168067 0)
(4.89797 0.00160804 0)
(4.86229 0.00153707 0)
(4.82173 0.00146641 0)
(4.77639 0.00139777 0)
(4.72641 0.00133183 0)
(4.67194 0.00126855 0)
(4.61316 0.00120806 0)
(4.55029 0.00115055 0)
(4.48356 0.00109622 0)
(4.41322 0.00104505 0)
(4.33952 0.000997249 0)
(4.26277 0.000952727 0)
(4.18324 0.000911269 0)
(4.10123 0.000873044 0)
(4.01706 0.000837987 0)
(3.93104 0.000805954 0)
(3.84348 0.000776729 0)
(3.7547 0.000750265 0)
(3.66502 0.000726405 0)
(3.57474 0.00070484 0)
(3.48417 0.000685548 0)
(3.39361 0.000668305 0)
(3.30336 0.000652891 0)
(3.2137 0.000639128 0)
(3.1249 0.000626941 0)
(3.03723 0.000616121 0)
(2.95094 0.000606456 0)
(2.86628 0.000597886 0)
(2.78348 0.000590348 0)
(2.70275 0.000583657 0)
(2.6243 0.000577632 0)
(2.54833 0.000572284 0)
(2.47501 0.000567605 0)
(2.40451 0.000563454 0)
(2.337 0.000559658 0)
(2.27262 0.000556246 0)
(2.2115 0.000553221 0)
(2.15377 0.000550541 0)
(2.09954 0.00054808 0)
(2.04891 0.000545766 0)
(2.00198 0.000543692 0)
(1.95883 0.000541971 0)
(1.91954 0.000540233 0)
(1.88418 0.000538416 0)
(1.8528 0.000536958 0)
(1.82545 0.0005355 0)
(1.80219 0.000533957 0)
(1.78303 0.000532542 0)
(1.76812 0.000528419 0)
(1.75474 0.000513152 0)
(4.27625 -0.0750063 0)
(4.95036 -0.0215526 0)
(5.32677 -0.00133317 0)
(5.14721 0.00447638 0)
(5.03075 0.00652054 0)
(5.02418 0.00466408 0)
(5.0174 0.00299958 0)
(5.0039 0.0025204 0)
(4.99298 0.0024736 0)
(4.98301 0.00249844 0)
(4.97269 0.0025678 0)
(4.96212 0.00262999 0)
(4.95143 0.00269272 0)
(4.94057 0.00274981 0)
(4.92951 0.00279783 0)
(4.91816 0.00285858 0)
(4.90643 0.00290947 0)
(4.89423 0.00295438 0)
(4.88141 0.00300295 0)
(4.86787 0.00304507 0)
(4.85351 0.00308929 0)
(4.83824 0.00313036 0)
(4.82201 0.00316401 0)
(4.80482 0.00319633 0)
(4.78673 0.00322483 0)
(4.76784 0.00325072 0)
(4.74831 0.00327545 0)
(4.72834 0.00329852 0)
(4.70818 0.00331878 0)
(4.68814 0.00333608 0)
(4.66854 0.00335172 0)
(4.64973 0.0033669 0)
(4.63207 0.00338235 0)
(4.61593 0.00339673 0)
(4.60165 0.00341229 0)
(4.58956 0.00342942 0)
(4.57996 0.0034467 0)
(4.57311 0.0034647 0)
(4.56922 0.0034836 0)
(4.56845 0.00350315 0)
(4.5709 0.00352396 0)
(4.57661 0.00354618 0)
(4.58556 0.00356879 0)
(4.59767 0.0035912 0)
(4.61279 0.00361352 0)
(4.63074 0.0036343 0)
(4.65125 0.00365223 0)
(4.67404 0.00366748 0)
(4.69874 0.00367929 0)
(4.72499 0.0036861 0)
(4.75238 0.00368823 0)
(4.78047 0.0036849 0)
(4.80882 0.0036751 0)
(4.83695 0.00365804 0)
(4.86441 0.00363309 0)
(4.89074 0.00359982 0)
(4.91548 0.0035587 0)
(4.9382 0.00350879 0)
(4.95847 0.00344994 0)
(4.97589 0.00338315 0)
(4.99009 0.0033081 0)
(5.00074 0.00322479 0)
(5.00753 0.00313477 0)
(5.01017 0.0030383 0)
(5.00845 0.00293596 0)
(5.00215 0.00282868 0)
(4.99113 0.0027173 0)
(4.97526 0.00260293 0)
(4.95446 0.00248713 0)
(4.9287 0.00236945 0)
(4.89796 0.00225202 0)
(4.86228 0.00213614 0)
(4.82172 0.00202115 0)
(4.77638 0.00190876 0)
(4.7264 0.00179987 0)
(4.67193 0.00169483 0)
(4.61315 0.00159397 0)
(4.55028 0.00149766 0)
(4.48355 0.00140625 0)
(4.41321 0.00131986 0)
(4.33952 0.00123876 0)
(4.26276 0.00116295 0)
(4.18323 0.00109221 0)
(4.10122 0.00102675 0)
(4.01706 0.000966488 0)
(3.93103 0.000911221 0)
(3.84348 0.000860671 0)
(3.7547 0.000814724 0)
(3.66501 0.000773164 0)
(3.57473 0.000735547 0)
(3.48417 0.000701754 0)
(3.39361 0.000671474 0)
(3.30336 0.000644391 0)
(3.21369 0.000620192 0)
(3.1249 0.000598689 0)
(3.03723 0.0005796 0)
(2.95094 0.000562621 0)
(2.86628 0.000547575 0)
(2.78348 0.0005343 0)
(2.70275 0.000522563 0)
(2.6243 0.000512114 0)
(2.54832 0.000502872 0)
(2.47501 0.000494754 0)
(2.40451 0.000487593 0)
(2.337 0.000481175 0)
(2.27262 0.000475465 0)
(2.2115 0.0004704 0)
(2.15377 0.000465933 0)
(2.09954 0.000461933 0)
(2.04891 0.000458271 0)
(2.00198 0.000454962 0)
(1.95883 0.000452153 0)
(1.91954 0.000449504 0)
(1.88418 0.000446842 0)
(1.8528 0.00044458 0)
(1.82545 0.000442476 0)
(1.80219 0.000440322 0)
(1.78303 0.000438295 0)
(1.76812 0.000433854 0)
(1.75473 0.000419375 0)
(4.28157 -0.126841 0)
(4.95882 -0.0362628 0)
(5.32877 -0.00295355 0)
(5.14762 0.00697233 0)
(5.03064 0.00991759 0)
(5.02383 0.00644229 0)
(5.01717 0.00375534 0)
(5.00378 0.00306419 0)
(4.99291 0.00300616 0)
(4.98295 0.00304881 0)
(4.97262 0.00314775 0)
(4.96206 0.00323817 0)
(4.95137 0.00332923 0)
(4.94052 0.00341329 0)
(4.92946 0.00349009 0)
(4.91811 0.00357987 0)
(4.90639 0.00365621 0)
(4.89418 0.00372745 0)
(4.88137 0.00380184 0)
(4.86783 0.0038677 0)
(4.85347 0.00393562 0)
(4.8382 0.0039996 0)
(4.82197 0.00405448 0)
(4.80479 0.00410655 0)
(4.7867 0.00415341 0)
(4.76782 0.0041963 0)
(4.74829 0.00423693 0)
(4.72832 0.00427478 0)
(4.70817 0.00430873 0)
(4.68813 0.00433867 0)
(4.66853 0.00436619 0)
(4.64972 0.00439227 0)
(4.63207 0.0044181 0)
(4.61592 0.00444227 0)
(4.60164 0.0044673 0)
(4.58956 0.00449394 0)
(4.57996 0.00452062 0)
(4.57311 0.00454789 0)
(4.56923 0.00457614 0)
(4.56845 0.00460514 0)
(4.5709 0.00463526 0)
(4.57661 0.00466669 0)
(4.58556 0.00469837 0)
(4.59768 0.00472965 0)
(4.6128 0.00476036 0)
(4.63075 0.00478881 0)
(4.65126 0.00481367 0)
(4.67404 0.00483475 0)
(4.69875 0.00485102 0)
(4.725 0.0048608 0)
(4.75238 0.00486385 0)
(4.78047 0.00485925 0)
(4.80882 0.00484583 0)
(4.83695 0.00482255 0)
(4.86441 0.00478856 0)
(4.89074 0.00474337 0)
(4.91548 0.00468713 0)
(4.93819 0.00461903 0)
(4.95846 0.00453894 0)
(4.97588 0.00444768 0)
(4.99008 0.00434513 0)
(5.00073 0.00423155 0)
(5.00751 0.00410844 0)
(5.01016 0.00397633 0)
(5.00843 0.00383609 0)
(5.00214 0.00368899 0)
(4.99112 0.00353616 0)
(4.97525 0.00337898 0)
(4.95445 0.00321923 0)
(4.92868 0.00305718 0)
(4.89794 0.00289501 0)
(4.86226 0.00273429 0)
(4.8217 0.00257504 0)
(4.77637 0.00241895 0)
(4.72639 0.00226719 0)
(4.67191 0.00212045 0)
(4.61314 0.00197929 0)
(4.55027 0.00184423 0)
(4.48354 0.00171581 0)
(4.4132 0.00159424 0)
(4.33951 0.00147989 0)
(4.26275 0.00137282 0)
(4.18322 0.00127285 0)
(4.10122 0.00118019 0)
(4.01705 0.00109475 0)
(3.93103 0.00101628 0)
(3.84347 0.000944429 0)
(3.75469 0.00087902 0)
(3.66501 0.000819777 0)
(3.57473 0.000766127 0)
(3.48416 0.000717847 0)
(3.3936 0.000674543 0)
(3.30335 0.000635802 0)
(3.21369 0.000601177 0)
(3.12489 0.000570368 0)
(3.03723 0.000543016 0)
(2.95094 0.00051873 0)
(2.86628 0.000497215 0)
(2.78348 0.000478208 0)
(2.70275 0.000461427 0)
(2.6243 0.000446558 0)
(2.54832 0.000433428 0)
(2.47501 0.000421875 0)
(2.40451 0.000411706 0)
(2.337 0.000402667 0)
(2.27262 0.000394663 0)
(2.2115 0.000387565 0)
(2.15377 0.00038131 0)
(2.09954 0.000375768 0)
(2.04891 0.000370764 0)
(2.00198 0.000366226 0)
(1.95883 0.000362314 0)
(1.91954 0.000358754 0)
(1.88418 0.000355272 0)
(1.8528 0.000352195 0)
(1.82545 0.000349434 0)
(1.80219 0.000346693 0)
(1.78303 0.000344067 0)
(1.76812 0.000339437 0)
(1.75472 0.000326475 0)
(4.28736 -0.188319 0)
(4.94053 -0.0561729 0)
(5.29 -0.00575639 0)
(5.11425 0.0100696 0)
(5.00545 0.0139511 0)
(5.00194 0.00867427 0)
(4.99665 0.00477308 0)
(4.98408 0.0037586 0)
(4.9738 0.00365732 0)
(4.96437 0.00371745 0)
(4.95461 0.00385292 0)
(4.94462 0.00397802 0)
(4.93452 0.00410347 0)
(4.92427 0.00421998 0)
(4.91383 0.00433021 0)
(4.90311 0.00445438 0)
(4.89202 0.0045608 0)
(4.88046 0.00466223 0)
(4.8683 0.00476637 0)
(4.85541 0.00485916 0)
(4.8417 0.00495371 0)
(4.82708 0.00504334 0)
(4.81149 0.00512165 0)
(4.79494 0.00519533 0)
(4.77748 0.00526195 0)
(4.7592 0.00532287 0)
(4.74027 0.00538014 0)
(4.72088 0.00543321 0)
(4.70129 0.00548096 0)
(4.68179 0.00552331 0)
(4.66271 0.0055622 0)
(4.6444 0.00559834 0)
(4.62722 0.00563346 0)
(4.61152 0.00566601 0)
(4.59766 0.00569881 0)
(4.58597 0.005733 0)
(4.57674 0.00576686 0)
(4.57023 0.00580087 0)
(4.56666 0.00583563 0)
(4.56618 0.00587096 0)
(4.56889 0.00590699 0)
(4.57485 0.0059439 0)
(4.58402 0.00598065 0)
(4.59633 0.00601649 0)
(4.61163 0.00605099 0)
(4.62974 0.00608221 0)
(4.65039 0.00610882 0)
(4.67329 0.00613028 0)
(4.69811 0.00614534 0)
(4.72446 0.00615216 0)
(4.75193 0.00615006 0)
(4.78009 0.00613791 0)
(4.80849 0.00611449 0)
(4.83667 0.0060785 0)
(4.86418 0.00602894 0)
(4.89054 0.00596528 0)
(4.91532 0.00588744 0)
(4.93806 0.00579474 0)
(4.95834 0.0056871 0)
(4.97578 0.00556526 0)
(4.99 0.0054293 0)
(5.00066 0.00527978 0)
(5.00745 0.00511818 0)
(5.0101 0.00494533 0)
(5.00838 0.00476243 0)
(5.00209 0.00457108 0)
(4.99108 0.00437273 0)
(4.97521 0.00416904 0)
(4.95441 0.00396201 0)
(4.92865 0.00375261 0)
(4.89791 0.00354308 0)
(4.86223 0.00333525 0)
(4.82168 0.00312975 0)
(4.77634 0.00292831 0)
(4.72636 0.00273232 0)
(4.67189 0.00254277 0)
(4.61312 0.00236044 0)
(4.55025 0.00218597 0)
(4.48352 0.00202006 0)
(4.41318 0.00186301 0)
(4.33949 0.00171524 0)
(4.26274 0.00157686 0)
(4.18321 0.00144769 0)
(4.1012 0.00132796 0)
(4.01704 0.00121754 0)
(3.93102 0.00111609 0)
(3.84346 0.00102321 0)
(3.75468 0.00093863 0)
(3.665 0.000862011 0)
(3.57472 0.000792641 0)
(3.48415 0.000730187 0)
(3.3936 0.000674163 0)
(3.30335 0.000624061 0)
(3.21369 0.000579295 0)
(3.12489 0.000539448 0)
(3.03722 0.000504085 0)
(2.95094 0.000472726 0)
(2.86628 0.000444962 0)
(2.78347 0.000420423 0)
(2.70275 0.000398782 0)
(2.6243 0.000379659 0)
(2.54832 0.000362793 0)
(2.475 0.000347943 0)
(2.40451 0.000334887 0)
(2.337 0.000323335 0)
(2.27262 0.000313137 0)
(2.2115 0.0003041 0)
(2.15377 0.000296137 0)
(2.09954 0.000289116 0)
(2.04891 0.000282838 0)
(2.00198 0.000277135 0)
(1.95883 0.000272155 0)
(1.91954 0.000267719 0)
(1.88418 0.000263487 0)
(1.8528 0.000259635 0)
(1.82545 0.000256224 0)
(1.80219 0.000252944 0)
(1.78303 0.000249774 0)
(1.76812 0.000245079 0)
(1.75471 0.000234219 0)
(4.12133 -0.220176 0)
(4.41038 -0.0669716 0)
(4.61313 -0.00804618 0)
(4.49628 0.0103387 0)
(4.47041 0.0139407 0)
(4.50583 0.00842379 0)
(4.51564 0.00459375 0)
(4.51141 0.00362383 0)
(4.50793 0.00352314 0)
(4.50494 0.00358683 0)
(4.50205 0.00372667 0)
(4.49931 0.00385735 0)
(4.49676 0.00398896 0)
(4.49446 0.00411247 0)
(4.49222 0.00423209 0)
(4.49006 0.00436454 0)
(4.48787 0.00448014 0)
(4.48543 0.0045923 0)
(4.48271 0.00470674 0)
(4.47948 0.00481024 0)
(4.47565 0.00491522 0)
(4.47114 0.00501559 0)
(4.46584 0.0051053 0)
(4.45974 0.0051901 0)
(4.45287 0.00526777 0)
(4.44528 0.00533948 0)
(4.43713 0.00540719 0)
(4.42859 0.0054705 0)
(4.4199 0.00552852 0)
(4.41132 0.00558129 0)
(4.40316 0.00563073 0)
(4.39574 0.0056774 0)
(4.38939 0.00572313 0)
(4.38447 0.00576657 0)
(4.38128 0.00581044 0)
(4.38015 0.00585613 0)
(4.38135 0.00590197 0)
(4.38512 0.00594855 0)
(4.39165 0.00599652 0)
(4.40107 0.00604562 0)
(4.41347 0.00609584 0)
(4.42888 0.00614735 0)
(4.44726 0.00619908 0)
(4.46851 0.00625018 0)
(4.49248 0.00630006 0)
(4.51895 0.00634675 0)
(4.54766 0.00638884 0)
(4.57831 0.00642545 0)
(4.61053 0.00645515 0)
(4.64395 0.00647604 0)
(4.67815 0.00648697 0)