/*--------------------------------*- C++ -*----------------------------------*\
  =========                 |
  \\      /  F ield         | OpenFOAM: The Open Source CFD Toolbox
   \\    /   O peration     | Website:  https://openfoam.org
    \\  /    A nd           | Version:  7
     \\/     M anipulation  |
\*---------------------------------------------------------------------------*/
FoamFile
{
    version     2.0;
    format      ascii;
    class       volScalarField;
    location    "2.3";
    object      k;
}
// * * * * * * * * * * * * * * * * * * * * * * * * * * * * * * * * * * * * * //

dimensions      [0 2 -2 0 0 0 0];

internalField   nonuniform List<scalar> 
600
(
2.17515
2.19866
1.67932
1.50736
1.40919
1.34197
1.28727
1.26288
1.22129
1.23048
0.862932
1.58651
1.62973
1.58377
1.52203
1.47827
1.43364
1.41634
1.37954
1.38145
0.143305
0.585579
0.879452
0.986955
1.03074
1.05301
1.0543
1.06048
1.05517
1.0608
0.0134549
0.0969186
0.257441
0.378631
0.469875
0.545069
0.591929
0.634135
0.659855
0.678911
0.000829759
0.00859385
0.0299474
0.0710518
0.114755
0.166366
0.212066
0.255349
0.298029
0.322782
6.99142e-05
0.000438703
0.00151896
0.00428916
0.010788
0.0191239
0.0365554
0.0495979
0.075628
0.0905469
6.99103e-05
0.000440282
0.00155444
0.00429679
0.0109793
0.0191258
0.0367712
0.0494135
0.0755302
0.0896985
0.000829032
0.00860941
0.0308688
0.0699494
0.11608
0.164768
0.213493
0.25345
0.298211
0.320835
0.0134384
0.0970322
0.25751
0.378422
0.470319
0.544297
0.592725
0.632711
0.659782
0.677059
0.143126
0.585916
0.879218
0.987432
1.0302
1.05354
1.05411
1.06034
1.05456
1.06055
0.862841
1.58684
1.6294
1.58444
1.52084
1.47981
1.43217
1.4176
1.37961
1.38493
2.17505
2.19886
1.67898
1.50798
1.40843
1.34314
1.28632
1.26518
1.2216
1.23538
1.95922
2.27335
2.2658
2.30668
2.31887
2.32997
2.34029
2.34957
2.35822
2.3663
2.37383
2.38085
2.38741
2.39354
2.39926
2.40461
2.4096
2.41426
2.41858
2.42259
2.42629
2.42971
2.43291
2.43591
2.43877
2.44154
2.44425
2.44692
2.44956
2.45222
2.45484
2.45752
2.46009
2.46285
2.4653
2.46828
2.4704
2.47391
2.4753
2.47998
2.69239
3.20305
3.23246
3.27683
3.29614
3.31153
3.32611
3.3394
3.35176
3.36329
3.37403
3.38406
3.39343
3.40217
3.41033
3.41797
3.42511
3.43177
3.43797
3.44374
3.44908
3.45406
3.4587
3.46308
3.46726
3.4713
3.47524
3.47914
3.48297
3.48683
3.49062
3.49451
3.49823
3.50224
3.50578
3.51011
3.51314
3.51827
3.5203
3.52698
2.32853
2.88765
2.95004
2.98285
3.00065
3.01417
3.0271
3.03904
3.05017
3.06055
3.07025
3.07931
3.08777
3.09568
3.10306
3.10997
3.11643
3.12247
3.12811
3.13338
3.13831
3.14291
3.14724
3.15133
3.15524
3.15901
3.16268
3.1663
3.16986
3.17344
3.17694
3.18054
3.18397
3.18769
3.19094
3.19496
3.19773
3.2025
3.20441
3.21048
1.69273
2.25515
2.34555
2.37072
2.38478
2.3951
2.40493
2.41416
2.42277
2.43082
2.43835
2.44539
2.45196
2.45811
2.46385
2.46923
2.47426
2.47897
2.4834
2.48757
2.49149
2.49518
2.49868
2.50201
2.50519
2.50827
2.51125
2.5142
2.51708
2.51997
2.5228
2.52572
2.52848
2.53149
2.53409
2.53737
2.53956
2.54344
2.54503
2.54984
1.02068
1.57183
1.69591
1.72463
1.73665
1.74424
1.75113
1.75761
1.76368
1.76937
1.77468
1.77966
1.78431
1.78866
1.79273
1.79654
1.80011
1.80347
1.80663
1.80963
1.81247
1.81518
1.81776
1.82023
1.8226
1.8249
1.82713
1.82933
1.83147
1.83363
1.83573
1.8379
1.83995
1.84219
1.8441
1.84657
1.84816
1.85107
1.85229
1.8558
0.508443
1.07116
1.23912
1.28049
1.29383
1.30041
1.30569
1.31059
1.3152
1.31955
1.32363
1.32745
1.33103
1.33439
1.33753
1.34046
1.34321
1.34579
1.34823
1.35053
1.35273
1.35481
1.3568
1.35869
1.36052
1.36228
1.36398
1.36566
1.3673
1.36894
1.37054
1.3722
1.37375
1.37548
1.37692
1.37884
1.38
1.38225
1.38322
1.38584
0.510655
1.07315
1.24397
1.28567
1.2997
1.3069
1.31274
1.31815
1.32324
1.32802
1.33252
1.33672
1.34065
1.34434
1.34778
1.351
1.354
1.35682
1.35947
1.36196
1.36429
1.36649
1.36856
1.37052
1.37238
1.37417
1.37589
1.37758
1.37923
1.38088
1.38249
1.38416
1.38571
1.38745
1.38889
1.39081
1.39199
1.39424
1.39521
1.39784
1.02607
1.57687
1.70565
1.73385
1.74664
1.7549
1.76246
1.7696
1.77629
1.78255
1.78841
1.79389
1.79901
1.8038
1.80827
1.81246
1.81638
1.82005
1.82349
1.82672
1.82975
1.83261
1.83529
1.83784
1.84026
1.84259
1.84484
1.84705
1.84922
1.85139
1.8535
1.85568
1.85773
1.85999
1.86191
1.86439
1.86598
1.86891
1.87013
1.87365
1.69903
2.2624
2.35171
2.37381
2.38659
2.39591
2.40503
2.4137
2.42185
2.42951
2.43668
2.44339
2.44966
2.45553
2.46102
2.46616
2.47098
2.47549
2.47974
2.48375
2.48754
2.49113
2.49455
2.49782
2.50097
2.50402
2.507
2.50993
2.51281
2.5157
2.51853
2.52145
2.52421
2.52722
2.52982
2.53309
2.53529
2.53917
2.54075
2.54556
2.33332
2.8914
2.94496
2.97164
2.98535
2.99554
3.00574
3.01532
3.02434
3.03282
3.04076
3.04821
3.05517
3.06169
3.06779
3.07351
3.07887
3.08392
3.08868
3.0932
3.0975
3.10162
3.10559
3.10943
3.11317
3.11684
3.12044
3.12401
3.12754
3.13109
3.13457
3.13815
3.14157
3.14526
3.14849
3.15249
3.15524
3.15999
3.1619
3.16793
2.69081
3.19631
3.2115
3.2475
3.26048
3.27058
3.28065
3.28994
3.29868
3.30689
3.31458
3.32179
3.32854
3.33486
3.34078
3.34633
3.35155
3.35648
3.36114
3.36558
3.36986
3.37399
3.37802
3.38196
3.38585
3.3897
3.39351
3.39732
3.4011
3.40491
3.40866
3.41251
3.41619
3.42016
3.42365
3.42794
3.43094
3.43602
3.43804
3.44465
1.94714
2.2545
2.23559
2.26977
2.27622
2.28252
2.28861
2.29406
2.29921
2.30406
2.30861
2.31288
2.31687
2.32062
2.32413
2.32743
2.33054
2.33348
2.33629
2.33898
2.3416
2.34417
2.34672
2.34926
2.3518
2.35436
2.35692
2.3595
2.36207
2.36467
2.36723
2.36987
2.37239
2.37511
2.37752
2.38045
2.38253
2.38599
2.38736
2.39196
)
;

boundaryField
{
    upperWall
    {
        type            fixedValue;
        value           uniform 0;
    }
    lowerWall
    {
        type            fixedValue;
        value           uniform 0;
    }
    heatedWall
    {
        type            fixedValue;
        value           uniform 0;
    }
    inlet
    {
        type            fixedValue;
        value           uniform 2e-05;
    }
    outlet
    {
        type            inletOutlet;
        inletValue      uniform 0;
        value           nonuniform List<scalar> 
12
(
2.47998
3.52698
3.21048
2.54984
1.8558
1.38584
1.39784
1.87365
2.54556
3.16793
3.44465
2.39196
)
;
    }
    frontAndBack
    {
        type            empty;
    }
}


// ************************************************************************* //
