/*--------------------------------*- C++ -*----------------------------------*\
  =========                 |
  \\      /  F ield         | OpenFOAM: The Open Source CFD Toolbox
   \\    /   O peration     | Website:  https://openfoam.org
    \\  /    A nd           | Version:  7
     \\/     M anipulation  |
\*---------------------------------------------------------------------------*/
FoamFile
{
    version     2.0;
    format      ascii;
    class       volVectorField;
    location    "10";
    object      UMean;
}
// * * * * * * * * * * * * * * * * * * * * * * * * * * * * * * * * * * * * * //

dimensions      [0 1 -1 0 0 0 0];

internalField   nonuniform List<vector> 
7920
(
(-3.09828 -9.02911 -243.67)
(2.4104 -10.2675 -250.307)
(-0.355487 -10.6737 -249.752)
(1.24094 -10.4877 -250.146)
(0.371632 -10.625 -249.965)
(0.954673 -10.56 -250.058)
(0.631995 -10.6074 -249.994)
(0.866216 -10.5832 -250.02)
(0.741983 -10.5991 -249.993)
(0.847939 -10.5885 -249.999)
(0.801184 -10.5912 -249.986)
(0.864934 -10.5853 -249.983)
(0.850243 -10.5798 -249.974)
(0.917225 -10.5756 -249.967)
(0.915352 -10.5589 -249.959)
(1.03376 -10.5558 -249.945)
(1.03384 -10.5141 -249.943)
(1.29165 -10.5119 -249.905)
(1.29099 -10.3823 -249.916)
(1.562 -10.3543 -250.134)
(-2.1207 5.57061 -271.367)
(5.35689 5.42477 -278.543)
(0.389439 5.35526 -281.047)
(3.33115 5.42739 -281.063)
(1.58609 5.3489 -281.546)
(2.73848 5.39054 -281.434)
(2.08194 5.36256 -281.554)
(2.55854 5.37825 -281.487)
(2.30357 5.36795 -281.499)
(2.52345 5.3742 -281.447)
(2.42703 5.37097 -281.406)
(2.56207 5.37303 -281.354)
(2.53071 5.37363 -281.262)
(2.67345 5.37269 -281.202)
(2.66381 5.37728 -281.025)
(2.91134 5.37093 -280.943)
(2.88953 5.38563 -280.583)
(3.44138 5.36108 -280.431)
(3.35123 5.42271 -279.511)
(4.81866 5.48959 -278.414)
(-2.8149 -2.60025 -272.622)
(7.56044 -3.2871 -282.192)
(1.45013 -4.1063 -284.679)
(5.22 -3.88214 -285.934)
(3.07054 -4.10878 -286.059)
(4.49897 -4.03586 -286.203)
(3.71328 -4.10266 -286.173)
(4.29955 -4.07643 -286.169)
(4.00067 -4.09699 -286.109)
(4.2738 -4.0856 -286.065)
(4.16385 -4.08883 -285.975)
(4.33935 -4.08303 -285.911)
(4.30579 -4.07536 -285.771)
(4.5037 -4.07293 -285.693)
(4.49161 -4.05024 -285.461)
(4.84771 -4.05411 -285.353)
(4.80068 -3.99744 -284.949)
(5.61224 -4.02103 -284.715)
(5.36969 -3.89451 -283.798)
(7.55463 -3.8691 -281.467)
(-2.59489 1.918 -273.067)
(8.21015 1.98792 -279.213)
(2.61673 1.88182 -282.954)
(6.27608 1.82798 -282.97)
(4.31428 1.75815 -283.842)
(5.67828 1.74323 -283.651)
(4.94836 1.73165 -283.868)
(5.50465 1.73001 -283.742)
(5.22422 1.72897 -283.753)
(5.48569 1.72986 -283.651)
(5.38281 1.73102 -283.554)
(5.55509 1.73188 -283.453)
(5.52471 1.73411 -283.251)
(5.72254 1.7339 -283.149)
(5.71082 1.73718 -282.78)
(6.06261 1.73335 -282.659)
(6.01067 1.73729 -281.984)
(6.7807 1.72576 -281.69)
(6.55617 1.68289 -280.526)
(8.32063 1.80518 -277.389)
(-2.87777 -0.948771 -272.16)
(8.43978 -1.1962 -278.218)
(2.9919 -1.67779 -282.108)
(6.88307 -1.56002 -282.009)
(5.01624 -1.69052 -283.009)
(6.39865 -1.66543 -282.775)
(5.70433 -1.70136 -283.027)
(6.25642 -1.69326 -282.877)
(5.98961 -1.70325 -282.889)
(6.24841 -1.69953 -282.769)
(6.15152 -1.70076 -282.657)
(6.32535 -1.69867 -282.543)
(6.29816 -1.69442 -282.312)
(6.50353 -1.69353 -282.201)
(6.49315 -1.68098 -281.785)
(6.86458 -1.6833 -281.654)
(6.80729 -1.65032 -280.934)
(7.6313 -1.66378 -280.553)
(7.37345 -1.58625 -279.559)
(9.25733 -1.61068 -275.786)
(-2.85672 0.862742 -272.389)
(8.46317 0.99642 -277.627)
(3.2247 1.14087 -281.535)
(7.12126 1.05788 -281.12)
(5.37312 1.06212 -282.118)
(6.74576 1.03518 -281.856)
(6.08896 1.04178 -282.111)
(6.62834 1.03517 -281.95)
(6.37285 1.03903 -281.958)
(6.62442 1.03751 -281.83)
(6.53142 1.03908 -281.709)
(6.70136 1.03874 -281.589)
(6.67602 1.03846 -281.344)
(6.87796 1.03831 -281.229)
(6.86944 1.03486 -280.797)
(7.23343 1.03448 -280.659)
(7.18057 1.02142 -279.937)
(7.97511 1.02379 -279.506)
(7.74682 0.956274 -278.638)
(9.4606 1.03551 -274.626)
(-2.85672 -0.862742 -272.389)
(8.46317 -0.99642 -277.627)
(3.2247 -1.14087 -281.535)
(7.12126 -1.05788 -281.12)
(5.37312 -1.06212 -282.119)
(6.74576 -1.03518 -281.856)
(6.08896 -1.04178 -282.111)
(6.62834 -1.03517 -281.95)
(6.37285 -1.03903 -281.958)
(6.62442 -1.03752 -281.83)
(6.53142 -1.03908 -281.709)
(6.70136 -1.03876 -281.589)
(6.67602 -1.03847 -281.344)
(6.87796 -1.03838 -281.229)
(6.86944 -1.03483 -280.797)
(7.23341 -1.03483 -280.659)
(7.18052 -1.02095 -279.938)
(7.97517 -1.0253 -279.503)
(7.74651 -0.954034 -278.646)
(9.46045 -1.03618 -274.61)
(-2.87778 0.948771 -272.16)
(8.43978 1.1962 -278.218)
(2.9919 1.67779 -282.108)
(6.88307 1.56002 -282.009)
(5.01624 1.69052 -283.009)
(6.39865 1.66543 -282.775)
(5.70433 1.70136 -283.027)
(6.25642 1.69326 -282.877)
(5.98961 1.70324 -282.889)
(6.24841 1.69953 -282.769)
(6.15151 1.70075 -282.657)
(6.32535 1.69866 -282.543)
(6.29814 1.69442 -282.312)
(6.50352 1.69347 -282.201)
(6.49304 1.681 -281.786)
(6.86462 1.68298 -281.653)
(6.8068 1.65071 -280.938)
(7.63171 1.6624 -280.544)
(7.3723 1.58838 -279.583)
(9.25649 1.6103 -275.734)
(-2.59489 -1.918 -273.067)
(8.21015 -1.98792 -279.213)
(2.61673 -1.88182 -282.954)
(6.27608 -1.82798 -282.97)
(4.31428 -1.75815 -283.842)
(5.67827 -1.74323 -283.651)
(4.94836 -1.73165 -283.868)
(5.50465 -1.73001 -283.742)
(5.22422 -1.72897 -283.753)
(5.48569 -1.72986 -283.651)
(5.38281 -1.73103 -283.554)
(5.55508 -1.73189 -283.453)
(5.52469 -1.73412 -283.251)
(5.72251 -1.73394 -283.149)
(5.71072 -1.73716 -282.781)
(6.06259 -1.73358 -282.658)
(6.01013 -1.73691 -281.989)
(6.78121 -1.72691 -281.677)
(6.55408 -1.68021 -280.563)
(8.32174 -1.80596 -277.299)
(-2.8149 2.60025 -272.622)
(7.56044 3.2871 -282.192)
(1.45013 4.1063 -284.679)
(5.22 3.88213 -285.934)
(3.07054 4.10877 -286.059)
(4.49897 4.03586 -286.203)
(3.71328 4.10266 -286.173)
(4.29955 4.07643 -286.169)
(4.00066 4.09699 -286.109)
(4.27379 4.08559 -286.065)
(4.16385 4.08882 -285.975)
(4.33934 4.08302 -285.911)
(4.30576 4.07535 -285.771)
(4.50368 4.07289 -285.693)
(4.49147 4.05025 -285.462)
(4.8478 4.05394 -285.352)
(4.79992 3.99769 -284.955)
(5.61366 4.02013 -284.702)
(5.36638 3.89702 -283.84)
(7.56083 3.86828 -281.338)
(-2.1207 -5.57061 -271.367)
(5.35689 -5.42477 -278.543)
(0.389438 -5.35526 -281.047)
(3.33115 -5.42739 -281.063)
(1.58609 -5.3489 -281.546)
(2.73848 -5.39054 -281.434)
(2.08195 -5.36256 -281.554)
(2.55854 -5.37825 -281.487)
(2.30357 -5.36795 -281.499)
(2.52345 -5.3742 -281.447)
(2.42703 -5.37097 -281.406)
(2.56206 -5.37303 -281.354)
(2.53069 -5.37363 -281.262)
(2.67343 -5.37269 -281.202)
(2.66371 -5.37728 -281.025)
(2.91135 -5.37095 -280.942)
(2.88906 -5.38562 -280.585)
(3.44223 -5.36121 -280.425)
(3.34856 -5.42204 -279.533)
(4.8306 -5.48973 -278.324)
(-3.09828 9.0291 -243.67)
(2.4104 10.2675 -250.307)
(-0.355487 10.6737 -249.752)
(1.24094 10.4877 -250.146)
(0.371632 10.625 -249.965)
(0.954673 10.56 -250.058)
(0.631996 10.6074 -249.994)
(0.866216 10.5832 -250.02)
(0.741984 10.5991 -249.994)
(0.84794 10.5885 -249.999)
(0.801182 10.5912 -249.986)
(0.864931 10.5853 -249.983)
(0.850237 10.5798 -249.974)
(0.917219 10.5756 -249.967)
(0.915321 10.5589 -249.96)
(1.03379 10.5557 -249.945)
(1.03369 10.5142 -249.943)
(1.29207 10.5116 -249.904)
(1.28982 10.3826 -249.92)
(1.56632 10.3521 -250.143)
(9.11799 13.0857 0.836782)
(0.809453 14.9134 0.361021)
(1.85658 14.5789 0.687768)
(0.720602 14.5301 0.493862)
(1.00737 14.5029 0.623834)
(0.820565 14.5179 0.541338)
(0.835078 14.5031 0.594432)
(0.807988 14.5111 0.558264)
(0.792238 14.5026 0.578614)
(0.788924 14.5062 0.561739)
(0.777448 14.5012 0.567122)
(0.769784 14.5023 0.558156)
(0.764192 14.4981 0.555208)
(0.737104 14.4985 0.54934)
(0.736548 14.492 0.539196)
(0.655004 14.4927 0.534548)
(0.669726 14.4774 0.514035)
(0.422616 14.4779 0.510075)
(0.546069 14.3325 0.471371)
(1.09431 14.3315 0.463635)
(12.3228 -4.96121 0.0328163)
(2.10419 -7.20934 -0.464494)
(4.73973 -7.14262 -0.144777)
(2.32329 -7.58681 -0.343287)
(2.73886 -7.45212 -0.211057)
(2.30343 -7.48497 -0.294902)
(2.29988 -7.44479 -0.24088)
(2.22868 -7.44299 -0.27746)
(2.18206 -7.43206 -0.256713)
(2.16912 -7.42682 -0.273679)
(2.13924 -7.42564 -0.268079)
(2.11838 -7.42173 -0.277)
(2.10474 -7.42907 -0.279789)
(2.03552 -7.4254 -0.285521)
(2.03506 -7.45236 -0.295523)
(1.82121 -7.44568 -0.299882)
(1.85539 -7.52824 -0.320343)
(1.21961 -7.51581 -0.323539)
(1.45011 -8.02816 -0.364678)
(-0.438323 -7.9019 -0.368747)
(12.575 5.19557 0.332336)
(4.03055 6.68507 -0.173774)
(6.36972 6.24275 0.149546)
(4.19637 6.08558 -0.0540036)
(4.37453 5.918 0.0794538)
(4.0001 5.93549 -0.00629584)
(3.91727 5.89766 0.0483502)
(3.86583 5.91412 0.0110731)
(3.78916 5.90248 0.0320671)
(3.78315 5.91098 0.0148088)
(3.74207 5.90696 0.0204657)
(3.72386 5.9116 0.011389)
(3.70742 5.90956 0.00856132)
(3.63656 5.91354 0.00270463)
(3.63807 5.90907 -0.00738486)
(3.40881 5.91408 -0.0119121)
(3.44697 5.89483 -0.0324637)
(2.74851 5.89068 -0.0359901)
(2.95511 5.80568 -0.0772894)
(0.316002 5.84149 -0.0805201)
(12.3497 -0.927426 0.153235)
(4.01525 -1.84594 -0.353275)
(7.44803 -1.84614 -0.036913)
(5.48622 -2.34956 -0.234047)
(5.74509 -2.40486 -0.102858)
(5.34755 -2.44542 -0.185254)
(5.24415 -2.4424 -0.132048)
(5.16957 -2.43349 -0.16782)
(5.07921 -2.42999 -0.147463)
(5.06134 -2.42167 -0.164014)
(5.01426 -2.42216 -0.158506)
(4.98712 -2.41682 -0.167193)
(4.971 -2.42443 -0.169881)
(4.88328 -2.41921 -0.175463)
(4.8935 -2.44607 -0.18518)
(4.61258 -2.43725 -0.18944)
(4.67568 -2.52417 -0.209341)
(3.79503 -2.51938 -0.212487)
(4.04047 -2.88528 -0.252509)
(1.37577 -2.82809 -0.253817)
(12.2261 1.7153 0.250364)
(4.27935 2.65591 -0.248768)
(7.90849 2.50577 0.071309)
(6.39143 2.51447 -0.129245)
(6.6412 2.41482 0.00210487)
(6.31824 2.42406 -0.0816871)
(6.20057 2.39154 -0.0284166)
(6.13747 2.39723 -0.0645737)
(6.042 2.38864 -0.0441921)
(6.02498 2.39116 -0.0608667)
(5.97691 2.38935 -0.0553745)
(5.951 2.39104 -0.0641207)
(5.93668 2.39248 -0.0668483)
(5.85328 2.39431 -0.0724818)
(5.86971 2.39938 -0.0822684)
(5.59873 2.4015 -0.0866023)
(5.67619 2.41337 -0.106684)
(4.81575 2.40888 -0.10991)
(5.06216 2.432 -0.151354)
(2.14532 2.44902 -0.151818)
(12.0897 -0.596607 0.208666)
(4.04325 -1.18731 -0.294111)
(8.03389 -1.12228 0.0243)
(6.70356 -1.39075 -0.174385)
(7.0745 -1.42807 -0.0432747)
(6.79842 -1.46644 -0.12579)
(6.69616 -1.46277 -0.0728416)
(6.634 -1.46267 -0.108439)
(6.53887 -1.45915 -0.0882318)
(6.51884 -1.45649 -0.104651)
(6.47035 -1.45626 -0.0992002)
(6.44183 -1.45444 -0.107811)
(6.42853 -1.45878 -0.110497)
(6.34129 -1.45687 -0.116039)
(6.36195 -1.47191 -0.12572)
(6.07967 -1.46837 -0.129964)
(6.16718 -1.51552 -0.149878)
(5.26674 -1.51402 -0.152965)
(5.52094 -1.6713 -0.193912)
(2.75012 -1.66694 -0.193821)
(12.0897 0.596604 0.208666)
(4.04325 1.18731 -0.29411)
(8.03389 1.12228 0.0243)
(6.70356 1.39075 -0.174385)
(7.0745 1.42807 -0.0432746)
(6.79842 1.46644 -0.12579)
(6.69617 1.46277 -0.0728416)
(6.634 1.46267 -0.108439)
(6.53887 1.45915 -0.0882319)
(6.51884 1.45649 -0.104651)
(6.47035 1.45625 -0.0992004)
(6.44182 1.45441 -0.107812)
(6.42853 1.45875 -0.110497)
(6.34128 1.45674 -0.11604)
(6.36191 1.47172 -0.125722)
(6.07965 1.46792 -0.129967)
(6.16698 1.51422 -0.149883)
(5.26658 1.51282 -0.152974)
(5.52019 1.66277 -0.193934)
(2.746 1.66513 -0.193826)
(12.2261 -1.7153 0.250364)
(4.27935 -2.65591 -0.248768)
(7.90849 -2.50577 0.0713091)
(6.39143 -2.51447 -0.129245)
(6.6412 -2.41482 0.00210474)
(6.31824 -2.42406 -0.0816871)
(6.20057 -2.39154 -0.0284166)
(6.13747 -2.39723 -0.0645737)
(6.042 -2.38864 -0.0441922)
(6.02497 -2.39117 -0.0608666)
(5.9769 -2.38936 -0.0553745)
(5.95098 -2.39107 -0.0641208)
(5.93664 -2.39251 -0.0668483)
(5.85321 -2.39442 -0.0724811)
(5.86952 -2.39955 -0.0822688)
(5.59837 -2.40188 -0.0865994)
(5.67547 -2.41453 -0.106691)
(4.81347 -2.40994 -0.109892)
(5.05985 -2.44016 -0.151421)
(2.13498 -2.45085 -0.151724)
(12.3497 0.927427 0.153235)
(4.01525 1.84594 -0.353275)
(7.44803 1.84614 -0.036913)
(5.48622 2.34956 -0.234047)
(5.74509 2.40486 -0.102858)
(5.34755 2.44542 -0.185254)
(5.24415 2.4424 -0.132049)
(5.16957 2.43348 -0.16782)
(5.07921 2.42999 -0.147463)
(5.06134 2.42166 -0.164014)
(5.01425 2.42215 -0.158507)
(4.9871 2.4168 -0.167194)
(4.97094 2.42441 -0.169882)
(4.8832 2.41912 -0.175464)
(4.89326 2.44594 -0.185183)
(4.61217 2.43697 -0.189443)
(4.67471 2.52329 -0.209354)
(3.79218 2.51878 -0.212485)
(4.03717 2.87983 -0.252606)
(1.3569 2.82773 -0.253737)
(12.575 -5.19557 0.332336)
(4.03055 -6.68507 -0.173774)
(6.36972 -6.24275 0.149546)
(4.19637 -6.08558 -0.0540035)
(4.37453 -5.918 0.079454)
(4.0001 -5.93549 -0.00629586)
(3.91727 -5.89766 0.0483501)
(3.86583 -5.91411 0.0110732)
(3.78916 -5.90248 0.0320671)
(3.78314 -5.91098 0.0148088)
(3.74206 -5.90696 0.0204655)
(3.72384 -5.91161 0.0113887)
(3.70736 -5.90958 0.0085611)
(3.63647 -5.91359 0.00270421)
(3.63779 -5.90918 -0.00738624)
(3.40832 -5.91426 -0.0119124)
(3.44591 -5.89554 -0.0324792)
(2.74564 -5.89104 -0.0359719)
(2.95206 -5.81005 -0.0774305)
(0.29041 -5.84164 -0.0803466)
(12.3228 4.9612 0.0328164)
(2.10419 7.20934 -0.464494)
(4.73973 7.14262 -0.144777)
(2.3233 7.58681 -0.343287)
(2.73886 7.45211 -0.211057)
(2.30343 7.48497 -0.294902)
(2.29988 7.44479 -0.24088)
(2.22867 7.44298 -0.27746)
(2.18206 7.43206 -0.256713)
(2.16912 7.42682 -0.27368)
(2.13923 7.42563 -0.26808)
(2.11836 7.42173 -0.277)
(2.10468 7.42907 -0.279789)
(2.03545 7.42538 -0.285522)
(2.03482 7.45235 -0.295525)
(1.82073 7.44564 -0.299886)
(1.85457 7.52812 -0.320357)
(1.2163 7.51579 -0.323539)
(1.44824 8.02883 -0.364809)
(-0.464854 7.90305 -0.36865)
(9.11799 -13.0858 0.836783)
(0.809451 -14.9134 0.361021)
(1.85658 -14.5789 0.687768)
(0.720604 -14.5301 0.493862)
(1.00737 -14.5029 0.623834)
(0.820564 -14.5179 0.541338)
(0.835077 -14.5031 0.594432)
(0.807989 -14.511 0.558264)
(0.792239 -14.5026 0.578614)
(0.788922 -14.5061 0.561739)
(0.777442 -14.5011 0.567121)
(0.769779 -14.5023 0.558156)
(0.764167 -14.4981 0.555208)
(0.737073 -14.4985 0.549339)
(0.736435 -14.492 0.539196)
(0.654828 -14.4927 0.534543)
(0.669341 -14.4776 0.514027)
(0.421473 -14.4778 0.510068)
(0.545272 -14.3322 0.471309)
(1.09629 -14.3277 0.463643)
(2.25159 -0.0552489 -0.62278)
(1.82478 0.211616 -0.353825)
(2.42361 0.280212 -0.472844)
(1.10758 0.132511 -0.479361)
(2.26459 0.182805 -0.469914)
(1.35837 0.146521 -0.498901)
(2.01896 0.155409 -0.483697)
(1.54088 0.138408 -0.502168)
(1.85931 0.138076 -0.49405)
(1.61351 0.129822 -0.503893)
(1.75268 0.127514 -0.500885)
(1.60752 0.122944 -0.506162)
(1.66095 0.119898 -0.505337)
(1.5588 0.116258 -0.508509)
(1.57541 0.113447 -0.50626)
(1.5284 0.109771 -0.508601)
(1.52895 0.10782 -0.496642)
(1.69963 0.119112 -0.500037)
(1.55708 0.065026 -0.452726)
(3.04531 0.129496 -0.466279)
(4.85902 -0.0673563 0.169287)
(3.34655 -1.11788 0.510414)
(4.87551 -1.13811 0.378313)
(2.99212 -1.28942 0.375476)
(4.05996 -1.32624 0.38123)
(3.08153 -1.30856 0.353688)
(3.67081 -1.33976 0.367275)
(3.20781 -1.31566 0.349175)
(3.48591 -1.3321 0.356482)
(3.25064 -1.31706 0.346684)
(3.36877 -1.32401 0.349211)
(3.21844 -1.31569 0.343876)
(3.25976 -1.31922 0.344303)
(3.12936 -1.31461 0.341032)
(3.13592 -1.32139 0.342752)
(3.01155 -1.3185 0.340228)
(3.00614 -1.34506 0.351145)
(2.96231 -1.32939 0.347193)
(2.95551 -1.50224 0.389908)
(3.29649 -1.51787 0.369944)
(4.47184 0.504376 -0.225977)
(4.13191 1.22037 0.0555811)
(5.67172 1.27397 -0.0622747)
(4.19615 1.09441 -0.0741682)
(5.28033 1.03771 -0.0628147)
(4.443 0.969705 -0.0931551)
(5.03383 0.934789 -0.0775082)
(4.61926 0.915504 -0.0963919)
(4.89315 0.899292 -0.088306)
(4.67319 0.892244 -0.0983325)
(4.78705 0.884015 -0.0955059)
(4.64109 0.880343 -0.10093)
(4.67661 0.875358 -0.100425)
(4.55187 0.871475 -0.10377)
(4.54605 0.868749 -0.102137)
(4.45029 0.862314 -0.104741)
(4.40828 0.859232 -0.0941632)
(4.47704 0.859564 -0.0980129)
(4.35277 0.793508 -0.0557042)
(4.97368 0.857239 -0.0714185)
(4.42192 -0.329259 -0.0457459)
(3.92278 -1.09103 0.290534)
(6.15752 -1.01214 0.161666)
(5.04107 -1.2147 0.16257)
(6.16675 -1.26961 0.168096)
(5.49511 -1.28987 0.140339)
(6.00364 -1.32564 0.15364)
(5.66062 -1.31443 0.135449)
(5.88379 -1.33049 0.142611)
(5.69846 -1.32056 0.132771)
(5.78864 -1.32753 0.135281)
(5.65984 -1.32133 0.129928)
(5.68692 -1.32583 0.130492)
(5.56541 -1.32186 0.127182)
(5.56158 -1.33193 0.129363)
(5.43555 -1.32732 0.126714)
(5.41538 -1.36594 0.139047)
(5.32432 -1.34566 0.13491)
(5.30849 -1.5207 0.183344)
(5.34918 -1.56012 0.164031)
(4.37722 0.438544 -0.135849)
(4.04498 1.15713 0.175495)
(6.21402 1.23478 0.0487337)
(5.36576 1.21593 0.0407984)
(6.59364 1.18047 0.0473565)
(6.0674 1.13001 0.017767)
(6.62799 1.09069 0.0318513)
(6.35134 1.06739 0.0133495)
(6.59128 1.04944 0.0207732)
(6.43223 1.04102 0.0109305)
(6.52614 1.03342 0.0134979)
(6.40926 1.02941 0.008159)
(6.43552 1.02673 0.00863652)
(6.32504 1.02293 0.0053251)
(6.31605 1.02535 0.00716363)
(6.21366 1.01821 0.00450889)
(6.1762 1.02944 0.015766)
(6.1468 1.01971 0.0116766)
(6.08063 1.01497 0.0563974)
(6.20138 1.0857 0.039512)
(4.31305 -0.391151 -0.104871)
(3.86176 -1.05813 0.219776)
(6.22325 -1.02912 0.0912696)
(5.49796 -1.15409 0.0889367)
(6.82037 -1.17421 0.0947483)
(6.38765 -1.16901 0.0661624)
(6.96224 -1.16861 0.0797)
(6.72219 -1.1554 0.0613964)
(6.9595 -1.1555 0.0685721)
(6.81499 -1.14783 0.0587721)
(6.90576 -1.14802 0.0612594)
(6.795 -1.14348 0.0559333)
(6.82019 -1.14488 0.0564644)
(6.71111 -1.14121 0.0531507)
(6.70381 -1.14838 0.0552567)
(6.59383 -1.14233 0.0525594)
(6.56312 -1.16992 0.0646688)
(6.49615 -1.15531 0.0605058)
(6.44299 -1.2387 0.10791)
(6.48682 -1.30284 0.0900487)
(4.31305 0.391146 -0.104871)
(3.86176 1.05814 0.219776)
(6.22325 1.02913 0.0912696)
(5.49796 1.15409 0.0889368)
(6.82037 1.1742 0.0947483)
(6.38765 1.16901 0.0661624)
(6.96224 1.16861 0.0796999)
(6.72219 1.1554 0.0613963)
(6.9595 1.1555 0.0685721)
(6.81499 1.14781 0.0587719)
(6.90575 1.14801 0.0612592)
(6.79499 1.14344 0.0559328)
(6.82017 1.14485 0.0564639)
(6.71106 1.14108 0.053149)
(6.70377 1.14815 0.0552538)
(6.59364 1.14217 0.052555)
(6.56299 1.16862 0.0646525)
(6.4956 1.15537 0.0604978)
(6.44244 1.23464 0.107836)
(6.48515 1.29964 0.0900239)
(4.37722 -0.438542 -0.135849)
(4.04499 -1.15713 0.175495)
(6.21402 -1.23478 0.0487335)
(5.36576 -1.21593 0.0407984)
(6.59364 -1.18047 0.0473566)
(6.0674 -1.13001 0.017767)
(6.62799 -1.09069 0.0318513)
(6.35134 -1.06739 0.0133496)
(6.59127 -1.04945 0.0207733)
(6.43223 -1.04103 0.0109307)
(6.52613 -1.03343 0.013498)
(6.40925 -1.02946 0.00815934)
(6.43547 -1.02675 0.00863731)
(6.32502 -1.02306 0.00532615)
(6.31587 -1.02557 0.00716778)
(6.21349 -1.01835 0.00451221)
(6.17585 -1.03082 0.0157887)
(6.14548 -1.01952 0.0116908)
(6.08047 -1.01935 0.0565114)
(6.19592 -1.08923 0.0395056)
(4.42192 0.329262 -0.0457459)
(3.92278 1.09103 0.290534)
(6.15752 1.01214 0.161666)
(5.04107 1.2147 0.16257)
(6.16675 1.26961 0.168096)
(5.49511 1.28987 0.140339)
(6.00364 1.32564 0.15364)
(5.66062 1.31442 0.135449)
(5.88379 1.33049 0.142611)
(5.69845 1.32056 0.132771)
(5.78862 1.32752 0.135281)
(5.65981 1.32129 0.129928)
(5.68684 1.32581 0.130492)
(5.56532 1.32176 0.12718)
(5.56134 1.33174 0.129364)
(5.43508 1.32722 0.126711)
(5.4149 1.36497 0.139052)
(5.3219 1.34578 0.134912)
(5.30783 1.51811 0.183411)
(5.34014 1.55776 0.164003)
(4.47184 -0.504375 -0.225977)
(4.13191 -1.22037 0.0555812)
(5.67172 -1.27397 -0.0622747)
(4.19615 -1.09441 -0.0741682)
(5.28033 -1.0377 -0.0628147)
(4.44299 -0.969704 -0.0931551)
(5.03383 -0.934792 -0.0775082)
(4.61926 -0.915506 -0.0963918)
(4.89315 -0.899291 -0.088306)
(4.67318 -0.892251 -0.0983323)
(4.78702 -0.884019 -0.0955058)
(4.64107 -0.880372 -0.10093)
(4.67651 -0.875373 -0.100425)
(4.5518 -0.871551 -0.10377)
(4.54573 -0.868893 -0.102135)
(4.44983 -0.86235 -0.104738)
(4.40777 -0.860151 -0.0941524)
(4.47439 -0.859204 -0.0979926)
(4.35305 -0.796305 -0.0556514)
(4.96389 -0.859765 -0.0714197)
(4.85901 0.0673531 0.169287)
(3.34655 1.11788 0.510414)
(4.87551 1.13811 0.378313)
(2.99212 1.28942 0.375476)
(4.05996 1.32624 0.381229)
(3.08153 1.30856 0.353688)
(3.67081 1.33976 0.367275)
(3.2078 1.31566 0.349175)
(3.48591 1.3321 0.356482)
(3.25063 1.31706 0.346684)
(3.36874 1.324 0.34921)
(3.21842 1.31568 0.343875)
(3.25966 1.31921 0.344304)
(3.12927 1.31458 0.341031)
(3.13559 1.32132 0.342756)
(3.01098 1.31849 0.340226)
(3.00568 1.3447 0.351168)
(2.95879 1.32947 0.347193)
(2.95647 1.5018 0.390069)
(3.28126 1.51702 0.369823)
(2.25158 0.0552443 -0.62278)
(1.82478 -0.211614 -0.353825)
(2.42361 -0.280208 -0.472844)
(1.10758 -0.132511 -0.479361)
(2.26459 -0.182808 -0.469914)
(1.35837 -0.146521 -0.498901)
(2.01896 -0.155409 -0.483696)
(1.54087 -0.138408 -0.502167)
(1.85931 -0.138075 -0.49405)
(1.61351 -0.129825 -0.503892)
(1.75266 -0.127516 -0.500885)
(1.6075 -0.122949 -0.506162)
(1.66087 -0.119896 -0.505337)
(1.55874 -0.116273 -0.508509)
(1.57518 -0.113462 -0.50626)
(1.52804 -0.109756 -0.508596)
(1.5288 -0.107923 -0.49664)
(1.69761 -0.119065 -0.500005)
(1.55787 -0.0645173 -0.452675)
(3.04401 -0.129809 -0.466139)
(2.25159 -0.0552486 0.622779)
(1.82478 0.211616 0.353825)
(2.4236 0.280211 0.472844)
(1.10758 0.13251 0.479361)
(2.26459 0.182806 0.469913)
(1.35837 0.146521 0.4989)
(2.01896 0.15541 0.483696)
(1.54087 0.138409 0.502167)
(1.85931 0.138074 0.494049)
(1.61352 0.129823 0.503893)
(1.75268 0.127516 0.500885)
(1.60753 0.122942 0.506162)
(1.66096 0.119898 0.505337)
(1.55879 0.11626 0.508509)
(1.57541 0.113447 0.50626)
(1.5284 0.109771 0.508601)
(1.52895 0.10782 0.496642)
(1.69963 0.119112 0.500037)
(1.55708 0.0650257 0.452726)
(3.04531 0.129495 0.466279)
(4.85902 -0.0673575 -0.169287)
(3.34655 -1.11788 -0.510414)
(4.87551 -1.13811 -0.378313)
(2.99212 -1.28942 -0.375476)
(4.05996 -1.32624 -0.381229)
(3.08153 -1.30856 -0.353688)
(3.67081 -1.33976 -0.367275)
(3.20781 -1.31566 -0.349174)
(3.48591 -1.33211 -0.356482)
(3.25064 -1.31706 -0.346684)
(3.36877 -1.32401 -0.34921)
(3.21844 -1.31569 -0.343876)
(3.25976 -1.31922 -0.344303)
(3.12936 -1.31461 -0.341031)
(3.13592 -1.32139 -0.342752)
(3.01155 -1.3185 -0.340228)
(3.00614 -1.34506 -0.351145)
(2.96231 -1.32939 -0.347192)
(2.95551 -1.50224 -0.389908)
(3.29649 -1.51787 -0.369944)
(4.47184 0.504375 0.225977)
(4.13191 1.22037 -0.0555811)
(5.67172 1.27397 0.0622747)
(4.19615 1.09441 0.0741683)
(5.28033 1.03771 0.0628146)
(4.443 0.969705 0.0931551)
(5.03383 0.93479 0.0775082)
(4.61926 0.915505 0.0963917)
(4.89315 0.89929 0.088306)
(4.6732 0.892244 0.0983324)
(4.78705 0.884016 0.0955058)
(4.64109 0.880342 0.10093)
(4.67661 0.875359 0.100425)
(4.55187 0.871476 0.10377)
(4.54605 0.868749 0.102137)
(4.45029 0.862314 0.104741)
(4.40828 0.859233 0.0941633)
(4.47704 0.859564 0.0980129)
(4.35277 0.793507 0.0557043)
(4.97368 0.857239 0.0714185)
(4.42192 -0.329259 0.045746)
(3.92278 -1.09103 -0.290534)
(6.15752 -1.01214 -0.161666)
(5.04107 -1.21469 -0.16257)
(6.16675 -1.26961 -0.168096)
(5.49511 -1.28987 -0.140339)
(6.00364 -1.32564 -0.15364)
(5.66062 -1.31443 -0.135449)
(5.88379 -1.33049 -0.142611)
(5.69846 -1.32056 -0.132771)
(5.78864 -1.32753 -0.135281)
(5.65984 -1.32133 -0.129928)
(5.68692 -1.32583 -0.130492)
(5.56541 -1.32185 -0.127182)
(5.56159 -1.33193 -0.129363)
(5.43555 -1.32732 -0.126714)
(5.41538 -1.36594 -0.139047)
(5.32432 -1.34566 -0.13491)
(5.30849 -1.5207 -0.183344)
(5.34918 -1.56012 -0.164031)
(4.37722 0.438544 0.135848)
(4.04498 1.15713 -0.175495)
(6.21402 1.23478 -0.0487337)
(5.36576 1.21593 -0.0407983)
(6.59364 1.18047 -0.0473564)
(6.0674 1.13001 -0.017767)
(6.62799 1.09069 -0.0318514)
(6.35134 1.06739 -0.0133496)
(6.59128 1.04944 -0.0207733)
(6.43223 1.04102 -0.0109306)
(6.52614 1.03342 -0.0134979)
(6.40926 1.02941 -0.00815901)
(6.43552 1.02673 -0.00863651)
(6.32504 1.02293 -0.00532508)
(6.31605 1.02534 -0.00716361)
(6.21367 1.01821 -0.00450888)
(6.1762 1.02944 -0.015766)
(6.1468 1.01971 -0.0116765)
(6.08063 1.01497 -0.0563973)
(6.20138 1.0857 -0.039512)
(4.31305 -0.39115 0.104871)
(3.86176 -1.05813 -0.219776)
(6.22325 -1.02912 -0.0912697)
(5.49796 -1.15409 -0.0889367)
(6.82037 -1.1742 -0.0947482)
(6.38765 -1.16901 -0.0661624)
(6.96224 -1.16861 -0.0797)
(6.72219 -1.1554 -0.0613963)
(6.9595 -1.1555 -0.0685722)
(6.81499 -1.14783 -0.0587721)
(6.90576 -1.14802 -0.0612593)
(6.795 -1.14348 -0.0559333)
(6.82019 -1.14487 -0.0564644)
(6.71111 -1.14121 -0.0531507)
(6.70381 -1.14838 -0.0552566)
(6.59383 -1.14233 -0.0525593)
(6.56312 -1.16992 -0.0646687)
(6.49615 -1.15531 -0.0605058)
(6.44299 -1.2387 -0.10791)
(6.48682 -1.30284 -0.0900487)
(4.31305 0.391146 0.104871)
(3.86176 1.05814 -0.219776)
(6.22325 1.02913 -0.0912696)
(5.49796 1.15409 -0.0889367)
(6.82037 1.1742 -0.0947483)
(6.38765 1.16901 -0.0661624)
(6.96224 1.16861 -0.0796999)
(6.72219 1.1554 -0.0613963)
(6.9595 1.1555 -0.068572)
(6.81499 1.14781 -0.0587719)
(6.90575 1.14801 -0.0612592)
(6.79499 1.14344 -0.0559328)
(6.82017 1.14485 -0.0564639)
(6.71106 1.14108 -0.053149)
(6.70377 1.14815 -0.0552539)
(6.59364 1.14217 -0.0525549)
(6.56299 1.16862 -0.0646524)
(6.4956 1.15537 -0.0604978)
(6.44244 1.23464 -0.107836)
(6.48515 1.29964 -0.0900239)
(4.37722 -0.438543 0.135848)
(4.04499 -1.15713 -0.175495)
(6.21402 -1.23478 -0.0487336)
(5.36576 -1.21593 -0.0407984)
(6.59364 -1.18047 -0.0473565)
(6.0674 -1.13001 -0.017767)
(6.62799 -1.09069 -0.0318513)
(6.35134 -1.06739 -0.0133495)
(6.59127 -1.04945 -0.0207732)
(6.43223 -1.04103 -0.0109305)
(6.52613 -1.03343 -0.0134979)
(6.40925 -1.02946 -0.0081593)
(6.43547 -1.02675 -0.00863726)
(6.32502 -1.02306 -0.00532608)
(6.31587 -1.02557 -0.00716784)
(6.21349 -1.01835 -0.00451222)
(6.17585 -1.03082 -0.0157885)
(6.14548 -1.01952 -0.0116908)
(6.08047 -1.01935 -0.0565114)
(6.19592 -1.08923 -0.0395056)
(4.42192 0.329262 0.0457459)
(3.92278 1.09102 -0.290534)
(6.15752 1.01214 -0.161666)
(5.04107 1.2147 -0.16257)
(6.16675 1.26961 -0.168096)
(5.49511 1.28987 -0.140339)
(6.00364 1.32564 -0.15364)
(5.66062 1.31442 -0.135449)
(5.88379 1.33049 -0.142611)
(5.69845 1.32056 -0.132771)
(5.78862 1.32753 -0.135281)
(5.65981 1.32129 -0.129928)
(5.68684 1.32581 -0.130492)
(5.56532 1.32176 -0.12718)
(5.56134 1.33174 -0.129364)
(5.43508 1.32722 -0.12671)
(5.4149 1.36497 -0.139052)
(5.3219 1.34578 -0.134912)
(5.30783 1.51811 -0.183411)
(5.34014 1.55776 -0.164003)
(4.47184 -0.504375 0.225977)
(4.13191 -1.22037 -0.0555811)
(5.67172 -1.27398 0.0622747)
(4.19615 -1.09441 0.0741682)
(5.28033 -1.0377 0.0628147)
(4.443 -0.969705 0.0931551)
(5.03383 -0.934791 0.0775082)
(4.61926 -0.915506 0.0963919)
(4.89315 -0.899293 0.0883061)
(4.67318 -0.892251 0.0983325)
(4.78702 -0.884018 0.0955059)
(4.64107 -0.880373 0.10093)
(4.67651 -0.875372 0.100425)
(4.5518 -0.871549 0.10377)
(4.54573 -0.868893 0.102135)
(4.44983 -0.86235 0.104738)
(4.40777 -0.860151 0.0941525)
(4.47439 -0.859204 0.0979927)
(4.35305 -0.796304 0.0556514)
(4.96389 -0.859765 0.0714197)
(4.85901 0.0673542 -0.169287)
(3.34655 1.11788 -0.510414)
(4.87551 1.13811 -0.378313)
(2.99212 1.28942 -0.375476)
(4.05996 1.32624 -0.381229)
(3.08153 1.30856 -0.353688)
(3.67081 1.33976 -0.367275)
(3.2078 1.31566 -0.349175)
(3.48591 1.3321 -0.356482)
(3.25063 1.31706 -0.346684)
(3.36874 1.324 -0.349211)
(3.21842 1.31568 -0.343875)
(3.25966 1.31921 -0.344303)
(3.12927 1.31458 -0.341031)
(3.13559 1.32132 -0.342756)
(3.01098 1.31849 -0.340226)
(3.00568 1.3447 -0.351168)
(2.95879 1.32947 -0.347192)
(2.95647 1.5018 -0.390069)
(3.28126 1.51702 -0.369823)
(2.25158 0.0552444 0.62278)
(1.82477 -0.211614 0.353825)
(2.42361 -0.280208 0.472844)
(1.10758 -0.132511 0.479361)
(2.26459 -0.182808 0.469914)
(1.35837 -0.146522 0.498901)
(2.01896 -0.155408 0.483697)
(1.54088 -0.138407 0.502167)
(1.85931 -0.138077 0.49405)
(1.6135 -0.129824 0.503893)
(1.75267 -0.127513 0.500885)
(1.60751 -0.122949 0.506163)
(1.66087 -0.119896 0.505337)
(1.55874 -0.116272 0.508508)
(1.57519 -0.113461 0.50626)
(1.52804 -0.109757 0.508597)
(1.5288 -0.107923 0.49664)
(1.69761 -0.119065 0.500005)
(1.55787 -0.064517 0.452675)
(3.04401 -0.129809 0.466139)
(9.11799 13.0857 -0.836782)
(0.809454 14.9134 -0.361021)
(1.85658 14.5789 -0.687769)
(0.720599 14.5301 -0.493862)
(1.00736 14.5028 -0.623833)
(0.82057 14.5179 -0.541338)
(0.835076 14.5031 -0.594432)
(0.807987 14.511 -0.558263)
(0.792246 14.5026 -0.578614)
(0.788927 14.5062 -0.561739)
(0.777446 14.5011 -0.567122)
(0.769785 14.5023 -0.558156)
(0.764194 14.4981 -0.555208)
(0.737104 14.4985 -0.54934)
(0.736547 14.492 -0.539196)
(0.655003 14.4927 -0.534547)
(0.669727 14.4774 -0.514034)
(0.422618 14.4779 -0.510075)
(0.546069 14.3326 -0.471372)
(1.09431 14.3315 -0.463635)
(12.3228 -4.96121 -0.0328163)
(2.10419 -7.20933 0.464494)
(4.73973 -7.14262 0.144777)
(2.3233 -7.58681 0.343287)
(2.73886 -7.45211 0.211057)
(2.30343 -7.48496 0.294902)
(2.29988 -7.44479 0.24088)
(2.22868 -7.44298 0.27746)
(2.18206 -7.43206 0.256712)
(2.16912 -7.42682 0.273679)
(2.13924 -7.42563 0.268079)
(2.11838 -7.42173 0.277)
(2.10474 -7.42907 0.279789)
(2.03552 -7.4254 0.285521)
(2.03506 -7.45236 0.295523)
(1.82121 -7.44567 0.299882)
(1.85539 -7.52823 0.320343)
(1.21961 -7.5158 0.323539)
(1.45011 -8.02816 0.364678)
(-0.438322 -7.9019 0.368747)
(12.575 5.19557 -0.332336)
(4.03055 6.68507 0.173774)
(6.36972 6.24275 -0.149546)
(4.19637 6.08558 0.0540035)
(4.37453 5.918 -0.0794539)
(4.0001 5.93549 0.00629594)
(3.91727 5.89766 -0.0483501)
(3.86583 5.91411 -0.0110731)
(3.78916 5.90248 -0.0320671)
(3.78315 5.91098 -0.0148088)
(3.74208 5.90695 -0.0204656)
(3.72386 5.9116 -0.0113889)
(3.70742 5.90956 -0.00856124)
(3.63656 5.91354 -0.00270463)
(3.63807 5.90907 0.0073849)
(3.40881 5.91408 0.0119121)
(3.44697 5.89482 0.0324637)
(2.74851 5.89068 0.03599)
(2.95511 5.80568 0.0772894)
(0.316003 5.84149 0.0805201)
(12.3497 -0.927425 -0.153236)
(4.01525 -1.84594 0.353275)
(7.44803 -1.84614 0.0369132)
(5.48622 -2.34956 0.234047)
(5.74509 -2.40486 0.102858)
(5.34756 -2.44542 0.185254)
(5.24415 -2.4424 0.132049)
(5.16957 -2.43349 0.16782)
(5.07921 -2.42999 0.147463)
(5.06134 -2.42167 0.164014)
(5.01426 -2.42216 0.158506)
(4.98712 -2.41682 0.167194)
(4.971 -2.42443 0.169881)
(4.88328 -2.4192 0.175463)
(4.8935 -2.44607 0.185181)
(4.61258 -2.43725 0.18944)
(4.67568 -2.52416 0.209341)
(3.79503 -2.51938 0.212487)
(4.04047 -2.88528 0.252509)
(1.37577 -2.82809 0.253817)