/*--------------------------------*- C++ -*----------------------------------*\
  =========                 |
  \\      /  F ield         | OpenFOAM: The Open Source CFD Toolbox
   \\    /   O peration     | Website:  https://openfoam.org
    \\  /    A nd           | Version:  7
     \\/     M anipulation  |
\*---------------------------------------------------------------------------*/
FoamFile
{
    version     2.0;
    format      ascii;
    class       surfaceScalarField;
    location    "2.28";
    object      phi_0;
}
// * * * * * * * * * * * * * * * * * * * * * * * * * * * * * * * * * * * * * //

dimensions      [1 0 -1 0 0 0 0];

internalField   nonuniform List<scalar> 
21708
(
0.0012955
0.00100317
1.36799e-05
0.00089818
0.000391163
6.26648e-06
0.000689099
0.000197439
1.17456e-05
0.000599586
8.28375e-05
6.77685e-06
0.000547617
4.11871e-05
1.08827e-05
0.000517039
2.3697e-05
6.98384e-06
0.000493855
1.31077e-05
1.01814e-05
0.000477651
9.18971e-06
7.12355e-06
0.000463323
4.82068e-06
9.61873e-06
0.000452747
3.48624e-06
7.20473e-06
0.000442694
1.03271e-06
9.13615e-06
0.000435169
4.17027e-07
7.22561e-06
0.000427692
-1.11249e-06
8.70574e-06
0.000422083
-1.47051e-06
7.19531e-06
0.000416279
-2.39143e-06
8.31032e-06
0.000411697
-2.43e-06
7.12425e-06
0.000405594
-1.72192e-06
7.93589e-06
0.000401979
-3.29794e-06
7.02035e-06
0.000349925
4.44785e-05
7.68401e-06
2.48199e-05
6.58324e-06
0.000318626
0.00224979
0.00106243
2.92785e-06
0.00206013
0.000584791
-3.86292e-06
0.001856
0.000399937
1.71466e-06
0.00171371
0.000228317
-3.11831e-06
0.00161112
0.00014277
1.0731e-06
0.00154115
9.65186e-05
-2.78396e-06
0.00148586
6.80219e-05
4.49121e-07
0.00144559
5.21428e-05
-2.59789e-06
0.00140998
4.06158e-05
-8.58991e-08
0.00138304
3.30226e-05
-2.4975e-06
0.00135759
2.71607e-05
-5.56064e-07
0.00133806
2.2525e-05
-2.467e-06
0.00131887
1.91797e-05
-9.80247e-07
0.00130404
1.59725e-05
-2.49136e-06
0.00128949
1.36552e-05
-1.37378e-06
0.00127688
1.28515e-05
-2.55734e-06
0.00126938
7.64547e-06
-1.76388e-06
0.00125382
1.50073e-05
-2.64767e-06
0.00129466
5.9836e-06
-2.25261e-06
-2.20055e-05
-3.20178e-06
0.00134478
0.00257597
0.000788959
9.65947e-06
0.00266757
0.000489946
3.34649e-06
0.00266082
0.000398212
8.55456e-06
0.00262502
0.000260556
3.61574e-06
0.00257642
0.000183699
7.72711e-06
0.00253292
0.000136248
3.82356e-06
0.00249004
0.000103938
7.02033e-06
0.00245471
8.35833e-05
3.95291e-06
0.00242086
6.81013e-05
6.44599e-06
0.0023933
5.66528e-05
4.02573e-06
0.00236672
4.78973e-05
5.95635e-06
0.00234511
4.02308e-05
4.04185e-06
0.00232394
3.49749e-05
5.52177e-06
0.00230691
2.9141e-05
4.00849e-06
0.00228922
2.638e-05
5.1242e-06
0.00227665
2.16373e-05
3.93408e-06
0.00225822
2.14619e-05
4.75542e-06
0.00225116
1.83874e-05
3.81382e-06
0.00222084
3.18805e-05
4.54398e-06
2.16324e-05
3.45293e-06
0.00217386
0.00258257
0.000514124
4.24757e-06
0.00274392
0.000330504
-1.79789e-06
0.0028501
0.000288746
3.36169e-06
0.00291196
0.000200281
-1.52102e-06
0.00294251
0.000150569
2.6301e-06
0.00296134
0.000118704
-1.23592e-06
0.0029674
9.59311e-05
1.9959e-06
0.002971
8.10894e-05
-1.05231e-06
0.0029686
6.9106e-05
1.45955e-06
0.00296643
5.98619e-05
-9.50476e-07
0.0029611
5.23482e-05
9.90957e-07
0.00295669
4.56838e-05
-9.17541e-07
0.0029507
4.05426e-05
5.68974e-07
0.00294535
3.55958e-05
-9.39991e-07
0.00294018
3.15538e-05
1.77439e-07
0.00293381
2.91915e-05
-1.00683e-06
0.00293217
2.34948e-05
-2.09872e-07
0.00292476
2.70932e-05
-1.12125e-06
0.00293882
1.8695e-05
-7.13028e-07
8.6703e-06
-1.5886e-06
0.00295352
0.00257139
0.000247234
7.58238e-06
0.00274022
0.000160025
1.74845e-06
0.00287549
0.000146793
6.76671e-06
0.0029696
0.000104356
1.87338e-06
0.00303365
8.05744e-05
5.99785e-06
0.00308526
6.50224e-05
2.11628e-06
0.00312216
5.37469e-05
5.33265e-06
0.00315463
4.64e-05
2.27429e-06
0.00317874
4.02777e-05
4.77634e-06
0.00320081
3.55016e-05
2.36101e-06
0.00321748
3.14826e-05
4.29614e-06
0.00323306
2.78364e-05
2.38487e-06
0.0032449
2.49892e-05
3.86709e-06
0.00325625
2.20538e-05
2.35621e-06
0.0032645
2.00114e-05
3.47231e-06
0.00327363
1.79612e-05
2.28349e-06
0.00327793
1.62923e-05
3.10136e-06
0.00328667
1.63936e-05
2.15377e-06
0.00328612
1.6614e-05
2.81662e-06
1.67144e-05
1.81132e-06
0.00327645
0.00255341
-2.94325e-11
5.84847e-06
0.00271344
1.2054e-10
1.0058e-07
0.00285521
-9.25909e-11
5.09812e-06
0.00295942
4.31825e-10
2.06963e-07
0.00303572
-2.70027e-13
4.33089e-06
0.00310033
1.25513e-09
4.52884e-07
0.00315045
6.89867e-10
3.67555e-06
0.00319628
3.18467e-09
6.20076e-07
0.00323348
3.79404e-09
3.1262e-06
0.00326834
7.56621e-09
7.1273e-07
0.00329725
1.46584e-08
2.6504e-06
0.00332444
2.05044e-08
7.40528e-07
0.00334731
4.19132e-08
2.22438e-06
0.00336873
7.45558e-08
7.14868e-07
0.00338701
8.45786e-08
1.83092e-06
0.00340423
2.87066e-07
6.44469e-07
0.00341914
1.32213e-07
1.45041e-06
0.00343434
8.80749e-07
5.15169e-07
0.00344965
4.6925e-07
1.03735e-06
1.66638e-06
1.3213e-07
0.00346476
0.00255341
-0.000247234
5.84847e-06
0.00271344
-0.000160025
1.0058e-07
0.00285521
-0.000146793
5.09812e-06
0.00295942
-0.000104355
2.06961e-07
0.00303572
-8.05743e-05
4.33089e-06
0.00310033
-6.50201e-05
4.52879e-07
0.00315045
-5.37454e-05
3.67555e-06
0.00319628
-4.63942e-05
6.20063e-07
0.00323348
-4.02697e-05
3.12622e-06
0.00326834
-3.54882e-05
7.12694e-07
0.00329725
-3.14522e-05
2.65044e-06
0.00332445
-2.78007e-05
7.40427e-07
0.00334731
-2.4902e-05
2.22447e-06
0.00336875
-2.192e-05
7.14587e-07
0.00338702
-1.98323e-05
1.83123e-06
0.00340427
-1.7419e-05
6.43713e-07
0.00341916
-1.60049e-05
1.45182e-06
0.00343438
-1.46518e-05
5.13625e-07
0.00344965
-1.5654e-05
1.04451e-06
-1.32195e-05
1.30262e-07
0.0034646
0.00257139
-0.000514124
7.58238e-06
0.00274022
-0.000330504
1.74845e-06
0.00287549
-0.000288746
6.76671e-06
0.0029696
-0.00020028
1.87338e-06
0.00303365
-0.000150569
5.99784e-06
0.00308526
-0.000118701
2.11628e-06
0.00312216
-9.59297e-05
5.33264e-06
0.00315463
-8.10837e-05
2.2743e-06
0.00317874
-6.90991e-05
4.77633e-06
0.00320081
-5.98486e-05
2.36104e-06
0.00321749
-5.23222e-05
4.29611e-06
0.00323307
-4.56484e-05
2.38496e-06
0.00324492
-4.04685e-05
3.867e-06
0.00325627
-3.54666e-05
2.35647e-06
0.00326456
-3.14096e-05
3.47197e-06
0.00327373
-2.86838e-05
2.28421e-06
0.00327812
-2.33029e-05
3.09998e-06
0.00328701
-2.55021e-05
2.15504e-06
0.00328675
-1.80192e-05
2.81038e-06
-5.85348e-06
1.81202e-06
0.00327775
0.00258257
-0.000788959
4.24757e-06
0.00274392
-0.000489946
-1.79789e-06
0.0028501
-0.000398212
3.36169e-06
0.00291196
-0.000260555
-1.52102e-06
0.00294251
-0.000183699
2.6301e-06
0.00296134
-0.000136247
-1.23593e-06
0.0029674
-0.000103937
1.99591e-06
0.002971
-8.35794e-05
-1.05232e-06
0.00296861
-6.80948e-05
1.45957e-06
0.00296644
-5.6644e-05
-9.50507e-07
0.00296111
-4.78738e-05
9.91004e-07
0.00295671
-4.0208e-05
-9.17622e-07
0.00295073
-3.49087e-05
5.69091e-07
0.00294543
-2.90522e-05
-9.40192e-07
0.00294026
-2.62498e-05
1.77756e-07
0.00293402
-2.12541e-05
-1.00733e-06
0.0029324
-2.12897e-05
-2.08531e-07
0.00292528
-1.70808e-05
-1.12247e-06
0.00293945
-3.13239e-05
-7.0604e-07
-1.91452e-05
-1.58985e-06
0.00295448
0.00257597
-0.00106243
9.65947e-06
0.00266757
-0.000584791
3.34649e-06
0.00266082
-0.000399937
8.55456e-06
0.00262502
-0.000228317
3.61574e-06
0.00257642
-0.00014277
7.72711e-06
0.00253292
-9.65177e-05
3.82356e-06
0.00249004
-6.80209e-05
7.02032e-06
0.00245471
-5.21405e-05
3.95292e-06
0.00242086
-4.06118e-05
6.44598e-06
0.00239331
-3.30173e-05
4.02575e-06
0.00236674
-2.71461e-05
5.95633e-06
0.00234514
-2.25116e-05
4.0419e-06
0.00232399
-1.91394e-05
5.52169e-06
0.002307
-1.59186e-05
4.00868e-06
0.00228936
-1.35832e-05
5.12391e-06
0.00227694
-1.26119e-05
3.93464e-06
0.00225864
-7.60238e-06
4.7544e-06
0.00225205
-1.41703e-05
3.81467e-06
0.00222224
-5.93801e-06
4.53994e-06
2.30294e-05
3.45203e-06
0.00217672
0.00224979
-0.00100317
2.92785e-06
0.00206013
-0.000391163
-3.86292e-06
0.001856
-0.000197439
1.71466e-06
0.00171371
-8.28375e-05
-3.11831e-06
0.00161112
-4.1187e-05
1.0731e-06
0.00154115
-2.36968e-05
-2.78396e-06
0.00148586
-1.31073e-05
4.49127e-07
0.00144559
-9.1891e-06
-2.5979e-06
0.00140998
-4.81914e-06
-8.58848e-08
0.00138305
-3.48495e-06
-2.49752e-06
0.0013576
-1.02718e-06
-5.56026e-07
0.00133809
-4.14079e-07
-2.46706e-06
0.00131893
1.1281e-06
-9.80153e-07
0.00130414
1.48389e-06
-2.49148e-06
0.00128962
2.42318e-06
-1.37354e-06
0.00127718
2.49919e-06
-2.55768e-06
0.00126968
1.7721e-06
-1.76286e-06
0.00125469
3.56033e-06
-2.64886e-06
0.00129519
-4.40972e-05
-2.24692e-06
-2.42224e-05
-3.20466e-06
0.00134574
0.0012955
1.36799e-05
0.00089818
6.26648e-06
0.000689099
1.17456e-05
0.000599586
6.77685e-06
0.000547618
1.08827e-05
0.00051704
6.98383e-06
0.000493856
1.01814e-05
0.000477652
7.12355e-06
0.000463326
9.61872e-06
0.000452751
7.20474e-06
0.000442704
9.13613e-06
0.000435181
7.22565e-06
0.000427721
8.70567e-06
0.000422125
7.19547e-06
0.000416353
8.31011e-06
0.00041184
7.12473e-06
0.000405787
7.93529e-06
0.000402435
7.02126e-06
0.000350762
7.68235e-06
6.58468e-06
0.000320061
0.00190088
0.0004212
3.1637e-06
0.00138547
0.000516805
4.9741e-06
0.00104297
0.000352073
2.27273e-06
0.00086275
0.000183306
3.77593e-06
0.000774475
9.69605e-05
2.2859e-06
0.00072108
5.703e-05
3.44086e-06
0.000687842
4.10898e-05
2.42667e-06
0.000658932
3.29473e-05
3.18896e-06
0.00063856
2.7607e-05
2.4919e-06
0.000618961
2.39529e-05
2.96136e-06
0.000604884
2.08074e-05
2.51869e-06
0.000590741
1.86906e-05
2.79081e-06
0.000580169
1.68479e-05
2.54306e-06
0.000569509
1.52846e-05
2.68047e-06
0.00056074
1.46051e-05
2.58179e-06
0.000552536
1.28146e-05
2.6187e-06
0.000548626
9.2988e-06
2.64822e-06
0.000531385
2.17707e-05
2.58926e-06
0.000633558
-9.70842e-05
2.69418e-06
-7.89596e-05
2.81561e-06
0.000716379
0.00240663
0.000320877
8.42874e-06
0.00234768
0.000561683
1.0307e-05
0.00222653
0.000467218
7.8031e-06
0.0020925
0.000305136
9.14255e-06
0.0019839
0.000198974
7.72737e-06
0.00189404
0.000135398
8.76295e-06
0.00182667
0.00010112
7.86011e-06
0.00176884
7.97427e-05
8.5166e-06
0.00172437
6.41702e-05
7.92233e-06
0.00168413
5.35021e-05
8.30228e-06
0.00165234
4.42279e-05
7.94276e-06
0.00162257
3.79836e-05
8.13723e-06
0.00159822
3.23958e-05
7.95844e-06
0.00157532
2.77993e-05
8.02556e-06
0.00155496
2.57305e-05
7.98701e-06
0.00153824
1.91465e-05
7.95807e-06
0.00151656
2.12786e-05
8.04591e-06
0.00151398
1.38875e-05
7.9166e-06
0.00143061
-2.40527e-05
8.17372e-06
4.21624e-06
8.18166e-06
0.00133613
0.00243008
0.000207897
4.16324e-06
0.0025604
0.000428601
6.21127e-06
0.00262522
0.000407695
3.3402e-06
0.00262649
0.000302427
5.11376e-06
0.00260691
0.00022299
3.3465e-06
0.00257415
0.000167283
4.75323e-06
0.00254467
0.000134062
3.606e-06
0.00251306
0.000110842
4.53271e-06
0.00248667
9.33269e-05
3.76141e-06
0.00245963
8.0348e-05
4.33075e-06
0.00243706
6.90416e-05
3.83885e-06
0.00241419
6.08695e-05
4.17005e-06
0.00239504
5.33265e-05
3.89405e-06
0.0023753
4.76536e-05
4.06142e-06
0.00235966
4.27152e-05
3.95254e-06
0.00234066
3.82335e-05
4.00015e-06
0.00233209
3.0739e-05
4.02503e-06
0.00231017
3.57757e-05
3.98522e-06
0.00231995
-3.31958e-05
4.02721e-06
-1.43691e-05
4.16349e-06
0.00233793
0.0023821
0.000134493
7.29783e-06
0.00252557
0.000274215
9.21559e-06
0.00266105
0.000268846
6.81236e-06
0.0027433
0.000210494
8.21695e-06
0.00279874
0.000163489
6.74824e-06
0.00282822
0.000128812
7.80171e-06
0.0028499
0.000107565
6.86813e-06
0.00286026
9.1944e-05
7.54827e-06
0.00286858
7.95934e-05
6.93828e-06
0.00287077
6.99621e-05
7.33725e-06
0.00287274
6.12167e-05
6.96563e-06
0.0028711
5.45641e-05
7.17343e-06
0.00286981
4.83585e-05
6.98465e-06
0.00286641
4.3223e-05
7.06138e-06
0.00286303
3.94469e-05
7.01453e-06
0.0028594
3.40519e-05
6.99527e-06
0.00285156
3.14851e-05
7.07187e-06
0.0028506
2.88096e-05
6.97472e-06
0.00281085
-1.21068e-06
7.21216e-06
2.34061e-05
7.21613e-06
0.00276441
0.00238419
6.42681e-05
5.26331e-06
0.00251806
0.000134947
7.24818e-06
0.00265373
0.000135334
4.69041e-06
0.00275167
0.000108244
6.2456e-06
0.00283003
8.6551e-05
4.6287e-06
0.00288518
7.00066e-05
5.81852e-06
0.00293339
5.99496e-05
4.78861e-06
0.00296972
5.23712e-05
5.57387e-06
0.00300287
4.63894e-05
4.89472e-06
0.00302832
4.15928e-05
5.3707e-06
0.00305183
3.71641e-05
4.94702e-06
0.00306997
3.37331e-05
5.21168e-06
0.00308701
3.03559e-05
4.98417e-06
0.00309988
2.77889e-05
5.10347e-06
0.00311281
2.51488e-05
5.0278e-06
0.00312098
2.33162e-05
5.04229e-06
0.00313147
1.92079e-05
5.08742e-06
0.00313631
2.12863e-05
5.03585e-06
0.00313592
-2.94256e-06
5.12236e-06
7.62504e-06
5.22234e-06
0.00314846
0.00237554
-7.19452e-11
6.26456e-06
0.00250248
1.83329e-10
8.21152e-06
0.0026372
-4.21624e-11
5.78628e-06
0.00273847
5.20871e-10
7.24837e-06
0.00282369
1.29935e-10
5.71704e-06
0.00288738
1.35241e-09
6.81694e-06
0.00294521
1.03e-09
5.84488e-06
0.00299169
3.42907e-09
6.56565e-06
0.00303533
4.43118e-09
5.93082e-06
0.00307136
9.17155e-09
6.3606e-06
0.00310529
1.47187e-08
5.97035e-06
0.00313367
2.74433e-08
6.20074e-06
0.00316037
4.12852e-08
5.99778e-06
0.00318287
8.73745e-08
6.09132e-06
0.00320389
1.10362e-07
6.03358e-06
0.00322176
2.64223e-07
6.0286e-06
0.00323621
3.16573e-07
6.09127e-06
0.00325145
7.42452e-07
6.02173e-06
0.00324263
9.16437e-07
6.19317e-06
1.94523e-06
6.23298e-06
0.0032424
0.00237554
-6.42683e-05
6.26456e-06
0.00250248
-0.000134946
8.21152e-06
0.0026372
-0.000135334
5.78628e-06
0.00273847
-0.000108243
7.24837e-06
0.00282369
-8.65508e-05
5.71704e-06
0.00288738
-7.00038e-05
6.81694e-06
0.00294521
-5.99478e-05
5.84487e-06
0.00299169
-5.2364e-05
6.56565e-06
0.00303534
-4.63813e-05
5.93081e-06
0.00307135
-4.15733e-05
6.36062e-06
0.00310529
-3.71375e-05
5.97033e-06
0.00313367
-3.36747e-05
6.20079e-06
0.00316037
-3.02827e-05
5.99772e-06
0.00318286
-2.76046e-05
6.09146e-06
0.00320392
-2.49608e-05
6.0334e-06
0.00322177
-2.27738e-05
6.02897e-06
0.00323634
-1.86866e-05
6.0904e-06
0.00325168
-1.98976e-05
6.02237e-06
0.00324298
4.66092e-06
6.1884e-06
-4.14529e-06
6.23398e-06
0.00324316
0.00238419
-0.000134493
5.26331e-06
0.00251806
-0.000274214
7.24818e-06
0.00265373
-0.000268847
4.69041e-06
0.00275167
-0.000210493
6.2456e-06
0.00283003
-0.000163489
4.6287e-06
0.00288518
-0.000128809
5.81852e-06
0.00293339
-0.000107563
4.78862e-06
0.00296972
-9.19377e-05
5.57387e-06
0.00300288
-7.95853e-05
4.89473e-06
0.00302832
-6.99454e-05
5.37069e-06
0.00305184
-6.11899e-05
4.94704e-06
0.00306998
-5.45147e-05
5.21163e-06
0.00308703
-4.82843e-05
4.98422e-06
0.00309992
-4.30667e-05
5.10333e-06
0.00311284
-3.92517e-05
5.02797e-06
0.00312109
-3.35821e-05
5.04192e-06
0.00313154
-3.09293e-05
5.08813e-06
0.00313648
-2.7514e-05
5.03522e-06
0.00313616
2.84504e-06
5.12628e-06
-1.9864e-05
5.2214e-06
0.00314864
0.0023821
-0.000207898
7.29783e-06
0.00252557
-0.000428601
9.21559e-06
0.00266105
-0.000407695
6.81236e-06
0.00274331
-0.000302426
8.21695e-06
0.00279874
-0.000222989
6.74824e-06
0.00282822
-0.000167281
7.80171e-06
0.0028499
-0.000134061
6.86813e-06
0.00286026
-0.000110837
7.54827e-06
0.00286859
-9.33201e-05
6.93827e-06
0.00287078
-8.03337e-05
7.33727e-06
0.00287275
-6.90201e-05
6.9656e-06
0.00287111
-6.08271e-05
7.17347e-06
0.00286984
-5.32693e-05
6.98458e-06
0.00286647
-4.7519e-05
7.06148e-06
0.00286314
-4.25758e-05
7.01431e-06
0.00285958
-3.78338e-05
6.99553e-06
0.00285193
-3.03715e-05
7.07092e-06
0.00285124
-3.47458e-05
6.97525e-06
0.00281201
3.4316e-05
7.20765e-06
1.68737e-05
7.21614e-06
0.00276661
0.00243008
-0.000320877
4.16324e-06
0.0025604
-0.000561683
6.21127e-06
0.00262522
-0.000467218
3.3402e-06
0.00262649
-0.000305135
5.11376e-06
0.00260691
-0.000198974
3.3465e-06
0.00257415
-0.000135396
4.75323e-06
0.00254468
-0.000101119
3.606e-06
0.00251306
-7.97396e-05
4.53271e-06
0.00248668
-6.41646e-05
3.76142e-06
0.00245964
-5.34941e-05
4.33074e-06
0.00243707
-4.42104e-05
3.83887e-06
0.00241422
-3.79604e-05
4.17001e-06
0.00239509
-3.2349e-05
3.89409e-06
0.00237541
-2.77243e-05
4.06132e-06
0.00235978
-2.56114e-05
3.95267e-06
0.00234096
-1.89206e-05
3.99986e-06
0.00233242
-2.09463e-05
4.02546e-06
0.0023109
-1.32552e-05
3.98475e-06
0.00232089
2.496e-05
4.02953e-06
-2.19109e-06
4.16284e-06
0.00233935
0.00240663
-0.0004212
8.42874e-06
0.00234768
-0.000516805
1.0307e-05
0.00222653
-0.000352073
7.8031e-06
0.0020925
-0.000183306
9.14255e-06
0.0019839
-9.69603e-05
7.72737e-06
0.00189404
-5.70295e-05
8.76295e-06
0.00182667
-4.10891e-05
7.86011e-06
0.00176885
-3.2946e-05
8.5166e-06
0.00172437
-2.76047e-05
7.92232e-06
0.00168414
-2.39495e-05
8.3023e-06
0.00165236
-2.08004e-05
7.94274e-06
0.00162261
-1.86809e-05
8.13726e-06
0.00159828
-1.683e-05
7.9584e-06
0.00157543
-1.52527e-05
8.02564e-06
0.00155515
-1.45648e-05
7.98683e-06
0.00153855
-1.27156e-05
7.95831e-06
0.00151713
-9.2282e-06
8.04513e-06
0.00151485
-2.14382e-05
7.91733e-06
0.00143263
9.68574e-05
8.17011e-06
7.89832e-05
8.18279e-06
0.00134015
0.00190088
3.1637e-06
0.00138547
4.9741e-06
0.00104297
2.27273e-06
0.00086275
3.77593e-06
0.000774475
2.2859e-06
0.000721081
3.44086e-06
0.000687844
2.42667e-06
0.000658935
3.18896e-06
0.000638565
2.4919e-06
0.00061897
2.96136e-06
0.000604899
2.5187e-06
0.000590767
2.79079e-06
0.000580212
2.54308e-06
0.000569584
2.6804e-06
0.000560855
2.58185e-06
0.000552751
2.61853e-06
0.000548911
2.64828e-06
0.000532004
2.58892e-06
0.000633946
2.6944e-06
2.81397e-06
0.000716797
0.00214307
0.000171457
-5.83204e-12
0.00189973
0.000248417
-5.9063e-12
0.00163953
0.000262557
-5.97061e-12
0.00141092
0.000232458
-6.03111e-12
0.00122693
0.000186347
-6.0354e-12
0.00109139
0.000139062
-6.07385e-12
0.000994702
9.92046e-05
-6.03621e-12
0.000929382
6.86143e-05
-5.99231e-12
0.000884217
4.77677e-05
-5.80541e-12
0.000853701
3.35888e-05
-5.66159e-12
0.000831421
2.49099e-05
-5.46093e-12
0.000815171
1.91513e-05
-5.37143e-12
0.000802251
1.55699e-05
-5.297e-12
0.000791648
1.33865e-05
-5.35583e-12
0.000783371
1.0958e-05
-5.44953e-12
0.000774438
1.16481e-05
-5.6352e-12
0.0007711
6.07937e-06
-5.817e-12
0.000759861
1.39197e-05
-5.98409e-12
0.000767681
-5.02841e-06
-6.14956e-12
-3.79736e-06
-6.17776e-12
0.000774384
0.00236768
0.000123564
-5.8341e-12
0.00241367
0.000212836
-5.77551e-12
0.00242152
0.000262586
-5.6281e-12
0.00239856
0.000264617
-5.5414e-12
0.0023539
0.000238789
-5.5203e-12
0.0023015
0.000200273
-5.7314e-12
0.00224661
0.000162013
-5.91349e-12
0.00219488
0.000128942
-6.05927e-12
0.00214654
0.00010413
-5.98674e-12
0.00210317
8.53888e-05
-5.89144e-12
0.00206375
7.24147e-05
-5.71179e-12
0.00202869
6.25007e-05
-5.60837e-12
0.00199709
5.52894e-05
-5.46764e-12
0.00196899
4.96765e-05
-5.40772e-12
0.00194389
4.41954e-05
-5.32874e-12
0.00192123
4.24026e-05
-5.38936e-12
0.00190196
3.3515e-05
-5.45319e-12
0.00188279
4.10995e-05
-5.64817e-12
0.00186893
1.70966e-05
-5.9004e-12
3.41812e-05
-6.09386e-12
0.00183921
0.0023557
8.3387e-05
-5.83973e-12
0.00242552
0.00014932
-5.85119e-12
0.00249765
0.000193881
-5.78572e-12
0.00256341
0.000204023
-5.75292e-12
0.00261261
0.000192993
-5.67665e-12
0.00264718
0.000170503
-5.72851e-12
0.00266746
0.000145385
-5.73487e-12
0.0026784
0.000122602
-5.83149e-12
0.00268186
0.000104513
-5.88041e-12
0.00268107
9.06126e-05
-6.0024e-12
0.00267713
8.03335e-05
-6.08558e-12
0.00267138
7.25758e-05
-6.20766e-12
0.00266467
6.60652e-05
-6.2177e-12
0.00265691
6.16817e-05
-6.19575e-12
0.00264968
5.55719e-05
-6.04901e-12
0.00264103
5.52357e-05
-5.9492e-12
0.00263457
4.41769e-05
-5.79891e-12
0.00262534
5.44678e-05
-5.79851e-12
0.0026197
2.68981e-05
-5.80083e-12
5.06189e-05
-5.9526e-12
0.00260753
0.00234582
5.62222e-05
-5.83148e-12
0.00240579
9.86617e-05
-5.85822e-12
0.00247876
0.000127801
-5.82532e-12
0.0025557
0.00013536
-5.8472e-12
0.00262559
0.000129895
-5.80269e-12
0.00268708
0.000116868
-5.83641e-12
0.00273742
0.000101959
-5.76697e-12
0.00277943
8.82015e-05
-5.76104e-12
0.00281367
7.72852e-05
-5.68734e-12
0.0028428
6.89235e-05
-5.75125e-12
0.00286748
6.27448e-05
-5.80734e-12
0.00288916
5.82223e-05
-5.98358e-12
0.0029082
5.41727e-05
-6.09549e-12
0.00292527
5.18651e-05
-6.23181e-12
0.00294053
4.75248e-05
-6.27988e-12
0.0029546
4.83661e-05
-6.3155e-12
0.00296656
3.94838e-05
-6.32364e-12
0.00297897
4.92233e-05
-6.27978e-12
0.00298607
2.71761e-05
-6.2908e-12
5.18954e-05
-6.16848e-12
0.00299216
0.0023464
2.64397e-05
-5.83072e-12
0.00240458
4.78254e-05
-5.8763e-12
0.0024742
6.29519e-05
-5.84147e-12
0.00254901
6.68498e-05
-5.88849e-12
0.00261931
6.42785e-05
-5.84894e-12
0.00268398
5.8063e-05
-5.90474e-12
0.0027399
5.08824e-05
-5.8332e-12
0.00278938
4.43572e-05
-5.84442e-12
0.00283248
3.91494e-05
-5.75003e-12
0.00287159
3.5282e-05
-5.78881e-12
0.00290704
3.23693e-05
-5.77817e-12
0.00294021
3.0413e-05
-5.89108e-12
0.00297108
2.84519e-05
-5.94546e-12
0.00300055
2.76861e-05
-6.06143e-12
0.00302795
2.5348e-05
-6.13967e-12
0.00305512
2.64448e-05
-6.23594e-12
0.00307854
2.13627e-05
-6.34855e-12
0.00310548
2.75126e-05
-6.40395e-12
0.00312271
1.52551e-05
-6.45822e-12
2.94657e-05
-6.43406e-12
0.00315053
0.00234406
-1.16481e-10
-5.83121e-12
0.00240019
3.06637e-10
-5.86487e-12
0.00246901
-2.18557e-10
-5.8429e-12
0.00254316
7.77776e-10
-5.88143e-12
0.00261321
-1.33643e-10
-5.8554e-12
0.00267814
1.87046e-09
-5.90191e-12
0.00273492
7.28336e-10
-5.85716e-12
0.00278589
4.40209e-09
-5.88634e-12
0.00283104
4.03149e-09
-5.83779e-12
0.00287277
1.10835e-08
-5.88306e-12
0.00291122
1.29836e-08
-5.86956e-12
0.00294795
3.22332e-08
-5.93146e-12
0.00298254
3.15806e-08
-5.937e-12
0.0030164
1.00715e-07
-5.9947e-12
0.00304791
6.75183e-08
-6.02636e-12
0.0030803
2.94678e-07
-6.09482e-12
0.00310778
1.76239e-07
-6.1532e-12
0.00314079
7.3021e-07
-6.21332e-12
0.00316177
6.53231e-07
-6.24075e-12
1.48424e-06
-6.24437e-12
0.00319616
0.00234406
-2.644e-05
-5.83564e-12
0.00240019
-4.78247e-05
-5.86475e-12
0.00246901
-6.29524e-05
-5.85146e-12
0.00254316
-6.68482e-05
-5.88248e-12
0.00261321
-6.42788e-05
-5.85752e-12
0.00267814
-5.80592e-05
-5.89971e-12
0.00273492
-5.08811e-05
-5.87318e-12
0.00278589
-4.43482e-05
-5.92989e-12
0.00283104
-3.91418e-05
-5.92985e-12
0.00287277
-3.52595e-05
-6.0023e-12
0.00291122
-3.23443e-05
-5.99656e-12
0.00294795
-3.0348e-05
-6.0337e-12
0.00298254
-2.83908e-05
-5.9949e-12
0.0030164
-2.74848e-05
-6.01016e-12
0.00304792
-2.52179e-05
-5.97485e-12
0.00308031
-2.58591e-05
-5.99696e-12
0.00310781
-2.10245e-05
-5.95455e-12
0.00314084
-2.6074e-05
-5.96073e-12
0.00316187
-1.40027e-05
-5.92781e-12
-2.66042e-05
-5.89716e-12
0.00319636
0.0023464
-5.62224e-05
-5.83549e-12
0.00240458
-9.86611e-05
-5.85344e-12
0.0024742
-0.000127802
-5.85284e-12
0.00254901
-0.000135358
-5.87478e-12
0.00261931
-0.000129896
-5.86233e-12
0.00268398
-0.000116864
-5.89738e-12
0.0027399
-0.000101957
-5.89981e-12
0.00278938
-8.81928e-05
-5.97754e-12
0.00283248
-7.72779e-05
-6.02312e-12
0.00287159
-6.89022e-05
-6.09954e-12
0.00290704
-6.27202e-05
-6.08722e-12
0.00294021
-5.81613e-05
-6.06889e-12
0.00297109
-5.41125e-05
-5.981e-12
0.00300057
-5.16756e-05
-5.93513e-12
0.00302797
-4.73988e-05
-5.85397e-12
0.00305517
-4.78088e-05
-5.84304e-12
0.00307861
-3.91671e-05
-5.74332e-12
0.00310561
-4.78373e-05
-5.75805e-12
0.00312292
-2.6006e-05
-5.69694e-12
-4.91129e-05
-5.73185e-12
0.00315082
0.00234582
-8.33872e-05
-5.83388e-12
0.00240579
-0.00014932
-5.87122e-12
0.00247876
-0.000193881
-5.86851e-12
0.0025557
-0.000204021
-5.91542e-12
0.0026256
-0.000192993
-5.90903e-12
0.00268708
-0.000170499
-5.96958e-12
0.00273743
-0.000145384
-5.97494e-12
0.00277943
-0.000122594
-6.07413e-12
0.00281368
-0.000104507
-6.09514e-12
0.0028428
-9.05926e-05
-6.13852e-12
0.00286749
-8.03122e-05
-6.04755e-12
0.00288917
-7.252e-05
-5.9591e-12
0.00290822
-6.60136e-05
-5.814e-12
0.00292531
-6.15099e-05
-5.74776e-12
0.00294059
-5.54692e-05
-5.70684e-12
0.00295471
-5.47321e-05
-5.74472e-12
0.00296675
-4.39304e-05
-5.76329e-12
0.0029793
-5.32304e-05
-5.87134e-12
0.00298663
-2.5959e-05
-5.86743e-12
-4.82904e-05
-6.0368e-12
0.00299317
0.0023557
-0.000123564
-5.82771e-12
0.00242552
-0.000212836
-5.88055e-12
0.00249765
-0.000262587
-5.91075e-12
0.00256342
-0.000264616
-6.01202e-12
0.00261261
-0.000238789
-6.03633e-12
0.00264718
-0.00020027
-6.07942e-12
0.00266747
-0.000162011
-6.01301e-12
0.0026784
-0.000128936
-6.0099e-12
0.00268186
-0.000104124
-5.90175e-12
0.00268108
-8.53744e-05
-5.87534e-12
0.00267714
-7.23965e-05
-5.74323e-12
0.0026714
-6.24604e-05
-5.71093e-12
0.00266471
-5.52474e-05
-5.67278e-12
0.00265699
-4.955e-05
-5.78486e-12
0.00264979
-4.41192e-05
-5.94995e-12
0.00264127
-4.20238e-05
-6.11715e-12
0.00263489
-3.33495e-05
-6.32128e-12
0.00262595
-4.0159e-05
-6.3329e-12
0.0026206
-1.64405e-05
-6.40639e-12
-3.24611e-05
-6.24325e-12
0.00260903
0.00236768
-0.000171457
-5.83371e-12
0.00241367
-0.000248417
-5.95691e-12
0.00242152
-0.000262557
-6.06464e-12
0.00239856
-0.000232457
-6.21092e-12
0.0023539
-0.000186347
-6.16752e-12
0.0023015
-0.000139061
-6.0487e-12
0.00224662
-9.92034e-05
-5.81363e-12
0.00219489
-6.86119e-05
-5.76633e-12
0.00214655
-4.77634e-05
-5.78511e-12
0.00210318
-3.35834e-05
-5.97485e-12
0.00206377
-2.4898e-05
-6.11267e-12
0.00202874
-1.91349e-05
-6.31743e-12
0.00199716
-1.55444e-05
-6.44489e-12
0.00196912
-1.33299e-05
-6.61051e-12
0.00194406
-1.09185e-05
-6.68424e-12
0.00192159
-1.14636e-05
-6.70747e-12
0.00190242
-6.01482e-06
-6.64638e-12
0.00188373
-1.34492e-05
-6.45086e-12
0.00187024
5.29778e-06
-6.34559e-12
4.33378e-06
-5.95492e-12
0.00184171
0.00214307
-5.85513e-12
0.00189973
-5.8718e-12
0.00163953
-5.78222e-12
0.00141092
-5.76801e-12
0.00122693
-5.6643e-12
0.00109139
-5.69069e-12
0.000994705
-5.68408e-12
0.000929387
-5.85649e-12
0.000884226
-6.00892e-12
0.000853716
-6.2428e-12
0.000831448
-6.38854e-12
0.000815214
-6.55352e-12
0.000802319
-6.59874e-12
0.000791773
-6.62272e-12
0.000783536
-6.51784e-12
0.000774787
-6.41827e-12
0.000771514
-6.22786e-12
0.000760747
-6.13568e-12
0.00076883
-5.99165e-12
-6.00452e-12
0.000776076
0.00214307
0.000171457
-3.16371e-06
0.00189973
0.000248417
-4.97411e-06
0.00163953
0.000262557
-2.27274e-06
0.00141092
0.000232458
-3.77594e-06
0.00122693
0.000186347
-2.28591e-06
0.00109139
0.000139062
-3.44087e-06
0.000994702
9.92046e-05
-2.42668e-06
0.000929382
6.86143e-05
-3.18897e-06
0.000884217
4.77677e-05
-2.49191e-06
0.000853701
3.35888e-05
-2.96137e-06
0.000831421
2.49099e-05
-2.5187e-06
0.000815171
1.91513e-05
-2.79082e-06
0.000802251
1.55699e-05
-2.54306e-06
0.000791648
1.33865e-05
-2.68048e-06
0.000783371
1.0958e-05
-2.58179e-06
0.000774438
1.16481e-05
-2.61871e-06
0.0007711
6.07937e-06
-2.64823e-06
0.000759861
1.39197e-05
-2.58926e-06
0.000767681
-5.02841e-06
-2.69419e-06
-3.79736e-06
-2.81562e-06
0.000774384
0.00236768
0.000123564
-8.42875e-06
0.00241367
0.000212836
-1.0307e-05
0.00242152
0.000262586
-7.80311e-06
0.00239856
0.000264617
-9.14256e-06
0.0023539
0.000238789
-7.72738e-06
0.0023015
0.000200273
-8.76296e-06
0.00224661
0.000162013
-7.86012e-06
0.00219488
0.000128942
-8.51661e-06
0.00214654
0.00010413
-7.92234e-06
0.00210317
8.53887e-05
-8.30229e-06
0.00206375
7.24147e-05
-7.94277e-06
0.00202869
6.25006e-05
-8.13724e-06
0.00199709
5.52894e-05
-7.95845e-06
0.00196899
4.96764e-05
-8.02557e-06
0.00194389
4.41954e-05
-7.98702e-06
0.00192123
4.24025e-05
-7.95808e-06
0.00190195
3.3515e-05
-8.04592e-06
0.00188279
4.10995e-05
-7.91661e-06
0.00186893
1.70966e-05
-8.17373e-06
3.41812e-05
-8.18167e-06
0.00183921
0.0023557
8.3387e-05
-4.16325e-06
0.00242552
0.00014932
-6.21128e-06
0.00249765
0.000193881
-3.34021e-06
0.00256341
0.000204023
-5.11377e-06
0.00261261
0.000192993
-3.34651e-06
0.00264718
0.000170503
-4.75324e-06
0.00266746
0.000145385
-3.606e-06
0.0026784
0.000122602
-4.53272e-06
0.00268186
0.000104513
-3.76142e-06
0.00268107
9.06126e-05
-4.33076e-06
0.00267713
8.03335e-05
-3.83886e-06
0.00267138
7.25758e-05
-4.17005e-06
0.00266467
6.60652e-05
-3.89406e-06
0.00265691
6.16817e-05
-4.06143e-06
0.00264968
5.55719e-05
-3.95255e-06
0.00264103
5.52357e-05
-4.00015e-06
0.00263457
4.41769e-05
-4.02503e-06
0.00262534
5.44678e-05
-3.98523e-06
0.0026197
2.6898e-05
-4.02722e-06
5.06189e-05
-4.1635e-06
0.00260753
0.00234582
5.62222e-05
-7.29784e-06
0.00240579
9.86617e-05
-9.2156e-06
0.00247876
0.000127801
-6.81237e-06
0.0025557
0.00013536
-8.21696e-06
0.00262559
0.000129895
-6.74825e-06
0.00268708
0.000116868
-7.80172e-06
0.00273742
0.000101959
-6.86814e-06
0.00277943
8.82014e-05
-7.54828e-06
0.00281367
7.72852e-05
-6.93829e-06
0.0028428
6.89235e-05
-7.33726e-06
0.00286748
6.27447e-05
-6.96564e-06
0.00288916
5.82222e-05
-7.17344e-06
0.0029082
5.41727e-05
-6.98466e-06
0.00292527
5.18652e-05
-7.06139e-06
0.00294053
4.75248e-05
-7.01454e-06
0.0029546
4.83661e-05
-6.99528e-06
0.00296656
3.94838e-05
-7.07188e-06
0.00297897
4.92233e-05
-6.97473e-06
0.00298607
2.71761e-05
-7.21217e-06
5.18954e-05
-7.21614e-06
0.00299216
0.0023464
2.64397e-05
-5.26332e-06
0.00240458
4.78254e-05
-7.24819e-06
0.0024742
6.29519e-05
-4.69042e-06
0.00254901
6.68498e-05
-6.24561e-06
0.00261931
6.42785e-05
-4.62871e-06
0.00268398
5.8063e-05
-5.81853e-06
0.0027399
5.08824e-05
-4.78862e-06
0.00278938
4.43572e-05
-5.57388e-06
0.00283248
3.91494e-05
-4.89473e-06
0.00287159
3.5282e-05
-5.37071e-06
0.00290704
3.23692e-05
-4.94703e-06
0.00294021
3.0413e-05
-5.21169e-06
0.00297108
2.84518e-05
-4.98418e-06
0.00300055
2.76861e-05
-5.10348e-06
0.00302795
2.5348e-05
-5.02781e-06
0.00305512
2.64449e-05
-5.04229e-06
0.00307854
2.13627e-05
-5.08743e-06
0.00310548
2.75127e-05
-5.03586e-06
0.00312271
1.52551e-05
-5.12236e-06
2.94657e-05
-5.22235e-06
0.00315053
0.00234406
-1.1655e-10
-6.26457e-06
0.00240019
3.04817e-10
-8.21153e-06
0.00246901
-2.23947e-10
-5.78629e-06
0.00254316
7.69048e-10
-7.24838e-06
0.00261321
-1.46367e-10
-5.71705e-06
0.00267814
1.85648e-09
-6.81695e-06
0.00273492
7.12693e-10
-5.84489e-06
0.00278589
4.38392e-09
-6.56566e-06
0.00283104
4.0068e-09
-5.93083e-06
0.00287277
1.10525e-08
-6.36061e-06
0.00291122
1.29512e-08
-5.97036e-06
0.00294795
3.22077e-08
-6.20075e-06
0.00298254
3.15697e-08
-5.99779e-06
0.0030164
1.0072e-07
-6.09133e-06
0.00304791
6.75351e-08
-6.03359e-06
0.0030803
2.947e-07
-6.02861e-06
0.00310778
1.7626e-07
-6.09128e-06
0.00314079
7.30226e-07
-6.02174e-06
0.00316177
6.53241e-07
-6.19318e-06
1.48425e-06
-6.23299e-06
0.00319616
0.00234406
-2.644e-05
-6.26457e-06
0.00240019
-4.78247e-05
-8.21153e-06
0.00246901
-6.29524e-05