/*--------------------------------*- C++ -*----------------------------------*\
  =========                 |
  \\      /  F ield         | OpenFOAM: The Open Source CFD Toolbox
   \\    /   O peration     | Website:  https://openfoam.org
    \\  /    A nd           | Version:  7
     \\/     M anipulation  |
\*---------------------------------------------------------------------------*/
FoamFile
{
    version     2.0;
    format      ascii;
    class       volVectorField;
    location    "3.8";
    object      U_0;
}
// * * * * * * * * * * * * * * * * * * * * * * * * * * * * * * * * * * * * * //

dimensions      [0 1 -1 0 0 0 0];

internalField   nonuniform List<vector> 
6000
(
(4.49735 0.0126661 0)
(4.48481 0.0343141 0)
(4.45832 0.0548082 0)
(4.41804 0.0730595 0)
(4.36572 0.0889003 0)
(4.30349 0.102188 0)
(4.23303 0.112744 0)
(4.15584 0.120562 0)
(4.07317 0.125788 0)
(3.98642 0.128727 0)
(3.8967 0.129665 0)
(3.80525 0.12896 0)
(3.71279 0.126862 0)
(3.62035 0.123691 0)
(3.52827 0.119678 0)
(3.43736 0.114961 0)
(3.34793 0.109892 0)
(3.26023 0.104546 0)
(3.17464 0.0989984 0)
(3.09137 0.0933919 0)
(3.01057 0.0878102 0)
(2.93236 0.0823157 0)
(2.85683 0.0769558 0)
(2.78404 0.0717653 0)
(2.71403 0.0667679 0)
(2.6468 0.0619782 0)
(2.58236 0.0574043 0)
(2.52067 0.0530502 0)
(2.4617 0.0489168 0)
(2.40542 0.0450031 0)
(2.35177 0.041306 0)
(2.30069 0.037821 0)
(2.25212 0.0345419 0)
(2.20597 0.031462 0)
(2.16219 0.0285744 0)
(2.12069 0.0258715 0)
(2.08139 0.0233454 0)
(2.04421 0.0209879 0)
(2.00906 0.0187903 0)
(1.97587 0.0167435 0)
(1.94454 0.0148387 0)
(1.91498 0.0130684 0)
(1.88713 0.0114256 0)
(1.86089 0.00990427 0)
(1.83617 0.00849941 0)
(1.81291 0.00720539 0)
(1.79101 0.00601634 0)
(1.77041 0.00492683 0)
(1.75102 0.00393133 0)
(1.73277 0.00302459 0)
(1.71561 0.00220119 0)
(1.69946 0.00145549 0)
(1.68427 0.000781349 0)
(1.66997 0.000172206 0)
(1.65652 -0.000378999 0)
(1.64384 -0.000878604 0)
(1.6319 -0.00133182 0)
(1.62063 -0.00174332 0)
(1.61 -0.00211712 0)
(1.59995 -0.00245618 0)
(1.59046 -0.00276351 0)
(1.58147 -0.00304235 0)
(1.57295 -0.00329629 0)
(1.56488 -0.00352679 0)
(1.55722 -0.00373325 0)
(1.54991 -0.00390762 0)
(1.54297 -0.00403157 0)
(1.53637 -0.00411746 0)
(1.53007 -0.0041741 0)
(1.52406 -0.00420963 0)
(1.5183 -0.00423057 0)
(1.51279 -0.00422463 0)
(1.50752 -0.0042042 0)
(1.50246 -0.00417122 0)
(1.49759 -0.00412878 0)
(1.49289 -0.00407819 0)
(1.48834 -0.00401579 0)
(1.48394 -0.00393985 0)
(1.47968 -0.00385023 0)
(1.47555 -0.00375764 0)
(1.47155 -0.00366055 0)
(1.46765 -0.00355656 0)
(1.46385 -0.00344885 0)
(1.46014 -0.00333293 0)
(1.45651 -0.00321221 0)
(1.45294 -0.00308334 0)
(1.44945 -0.00295692 0)
(1.44596 -0.00281406 0)
(1.4426 -0.00268645 0)
(1.43913 -0.00251461 0)
(1.43589 -0.00240923 0)
(1.4323 -0.00216438 0)
(1.42927 -0.00219484 0)
(1.42535 -0.00171556 0)
(1.42277 -0.00241732 0)
(1.41846 -0.00116893 0)
(1.41645 -0.00502367 0)
(1.41393 -0.000662274 0)
(1.41016 -0.0183271 0)
(1.42685 0.00161201 0)
(4.50044 0.0237365 0)
(4.50473 0.0418554 0)
(4.51318 0.0571939 0)
(4.52557 0.0715117 0)
(4.54105 0.0848621 0)
(4.55866 0.0971527 0)
(4.57744 0.108184 0)
(4.5966 0.117859 0)
(4.61542 0.126188 0)
(4.6333 0.133245 0)
(4.64976 0.139114 0)
(4.66446 0.143885 0)
(4.67714 0.147639 0)
(4.6877 0.150467 0)
(4.69605 0.152455 0)
(4.70223 0.153681 0)
(4.70628 0.154228 0)
(4.70825 0.154168 0)
(4.70828 0.15356 0)
(4.70648 0.15246 0)
(4.70299 0.150925 0)
(4.69793 0.14901 0)
(4.69144 0.146765 0)
(4.68366 0.144235 0)
(4.67472 0.14146 0)
(4.66472 0.138476 0)
(4.65379 0.13532 0)
(4.64204 0.132023 0)
(4.62957 0.128617 0)
(4.61647 0.125131 0)
(4.60283 0.12159 0)
(4.58874 0.118019 0)
(4.57427 0.114437 0)
(4.55947 0.110864 0)
(4.54442 0.107316 0)
(4.52917 0.103808 0)
(4.51377 0.100354 0)
(4.49826 0.0969639 0)
(4.48268 0.093648 0)
(4.46706 0.0904173 0)
(4.45145 0.0872825 0)
(4.43587 0.0842497 0)
(4.42033 0.0813234 0)
(4.40486 0.0785045 0)
(4.38949 0.0757953 0)
(4.37421 0.0731956 0)
(4.35905 0.0707051 0)
(4.34401 0.0683233 0)
(4.3291 0.066049 0)
(4.31433 0.0638784 0)
(4.2997 0.0618081 0)
(4.28523 0.0598371 0)
(4.27091 0.0579621 0)
(4.25675 0.0561786 0)
(4.24275 0.0544831 0)
(4.22891 0.0528727 0)
(4.21522 0.0513447 0)
(4.20169 0.0498969 0)
(4.18832 0.0485286 0)
(4.17511 0.0472369 0)
(4.16205 0.0460182 0)
(4.14915 0.0448685 0)
(4.13639 0.0437824 0)
(4.1238 0.0427506 0)
(4.11135 0.0417593 0)
(4.09907 0.040815 0)
(4.08694 0.0399188 0)
(4.07495 0.0390607 0)
(4.0631 0.0382468 0)
(4.05138 0.037469 0)
(4.03981 0.0367217 0)
(4.02837 0.0360146 0)
(4.01706 0.0353363 0)
(4.00588 0.0346849 0)
(3.99484 0.0340604 0)
(3.98392 0.0334621 0)
(3.97313 0.032892 0)
(3.96246 0.0323516 0)
(3.95191 0.0318429 0)
(3.94146 0.0313588 0)
(3.93113 0.0308945 0)
(3.92092 0.0304516 0)
(3.91082 0.0300264 0)
(3.90083 0.0296225 0)
(3.89095 0.0292394 0)
(3.88116 0.0288783 0)
(3.87148 0.0285316 0)
(3.86188 0.0282206 0)
(3.85238 0.0279151 0)
(3.84294 0.0276707 0)
(3.83359 0.0273939 0)
(3.82429 0.0272564 0)
(3.81501 0.026962 0)
(3.80582 0.0270187 0)
(3.79626 0.0265524 0)
(3.7872 0.0270182 0)
(3.77612 0.0259347 0)
(3.76759 0.027348 0)
(3.75084 0.0244058 0)
(3.74677 0.0280543 0)
(4.50035 0.0282163 0)
(4.50304 0.0398741 0)
(4.50833 0.0497097 0)
(4.51634 0.0595967 0)
(4.52667 0.0689517 0)
(4.53906 0.0776749 0)
(4.55339 0.0856687 0)
(4.56953 0.0929014 0)
(4.58728 0.0993358 0)
(4.6064 0.104968 0)
(4.62665 0.109809 0)
(4.64779 0.113884 0)
(4.66959 0.117221 0)
(4.69186 0.119863 0)
(4.71441 0.121855 0)
(4.73706 0.123244 0)
(4.75967 0.124084 0)
(4.7821 0.124424 0)
(4.80423 0.124306 0)
(4.82597 0.123773 0)
(4.84723 0.122869 0)
(4.86795 0.121647 0)
(4.88807 0.120156 0)
(4.90755 0.118439 0)
(4.92636 0.116533 0)
(4.94446 0.114467 0)
(4.96184 0.112268 0)
(4.97848 0.109962 0)
(4.99438 0.10757 0)
(5.00955 0.105116 0)
(5.02399 0.102623 0)
(5.0377 0.100114 0)
(5.05069 0.0976014 0)
(5.06298 0.095101 0)
(5.07458 0.0926244 0)
(5.08551 0.090183 0)
(5.09578 0.0877836 0)
(5.10544 0.0854349 0)
(5.11449 0.0831231 0)
(5.12298 0.0808564 0)
(5.13093 0.0786426 0)
(5.13836 0.0765035 0)
(5.14527 0.074439 0)
(5.1517 0.072432 0)
(5.15767 0.0705083 0)
(5.16319 0.0686695 0)
(5.16829 0.0669141 0)
(5.17299 0.0652433 0)
(5.17732 0.063653 0)
(5.18128 0.0621355 0)
(5.1849 0.0606787 0)
(5.18821 0.0592886 0)
(5.19122 0.0579642 0)
(5.19395 0.0567096 0)
(5.19642 0.0555164 0)
(5.19863 0.0543816 0)
(5.20061 0.0533092 0)
(5.20237 0.0522932 0)
(5.20391 0.0513253 0)
(5.20526 0.0504075 0)
(5.20641 0.0495418 0)
(5.20738 0.0487272 0)
(5.20817 0.0479592 0)
(5.20878 0.0472379 0)
(5.20924 0.0465712 0)
(5.20957 0.0459419 0)
(5.20975 0.0453437 0)
(5.20982 0.0447808 0)
(5.20975 0.04424 0)
(5.20955 0.0437311 0)
(5.20925 0.0432605 0)
(5.20886 0.0428111 0)
(5.20835 0.0423839 0)
(5.20774 0.0419805 0)
(5.20704 0.0415993 0)
(5.20624 0.0412394 0)
(5.20536 0.0408979 0)
(5.2044 0.0405698 0)
(5.20336 0.0402516 0)
(5.20224 0.0399446 0)
(5.20105 0.0396512 0)
(5.19978 0.0393723 0)
(5.19844 0.0391098 0)
(5.19704 0.0388596 0)
(5.19555 0.0386264 0)
(5.19401 0.0384114 0)
(5.19239 0.0382281 0)
(5.19076 0.0380638 0)
(5.18899 0.0379387 0)
(5.18726 0.0378121 0)
(5.18532 0.0377692 0)
(5.18351 0.0376966 0)
(5.18129 0.0378072 0)
(5.17948 0.0377816 0)
(5.17681 0.0381878 0)
(5.17517 0.038199 0)
(5.17158 0.0393754 0)
(5.17045 0.0395278 0)
(5.16504 0.0430865 0)
(5.16572 0.0437274 0)
(4.50028 0.034398 0)
(4.50289 0.0445977 0)
(4.50768 0.0520955 0)
(4.5146 0.0595465 0)
(4.52361 0.0664648 0)
(4.53462 0.0727972 0)
(4.54739 0.0785789 0)
(4.56175 0.0837979 0)
(4.57753 0.0884568 0)
(4.5946 0.0925319 0)
(4.61277 0.0960016 0)
(4.63186 0.0988551 0)
(4.65167 0.101149 0)
(4.67208 0.10294 0)
(4.69294 0.10427 0)
(4.71413 0.105198 0)
(4.73554 0.105777 0)
(4.75707 0.106048 0)
(4.77864 0.106039 0)
(4.80017 0.105774 0)
(4.82159 0.105282 0)
(4.84286 0.104596 0)
(4.86389 0.103749 0)
(4.88465 0.102772 0)
(4.90508 0.101685 0)
(4.92514 0.100502 0)
(4.9448 0.0992264 0)
(4.96403 0.0978665 0)
(4.98281 0.0964373 0)
(5.00112 0.0949531 0)
(5.01896 0.0934221 0)
(5.03631 0.0918732 0)
(5.05316 0.0903007 0)
(5.06951 0.0887153 0)
(5.08536 0.0871235 0)
(5.10071 0.085533 0)
(5.11557 0.0839473 0)
(5.1299 0.0823698 0)
(5.14373 0.0808243 0)
(5.15709 0.0793185 0)
(5.17001 0.0778606 0)
(5.18251 0.0764353 0)
(5.19455 0.075048 0)
(5.20619 0.0737221 0)
(5.21745 0.0724339 0)
(5.22833 0.071177 0)
(5.23884 0.0699513 0)
(5.24898 0.0687594 0)
(5.25876 0.0676149 0)
(5.2682 0.0665209 0)
(5.27732 0.0654857 0)
(5.28616 0.0644943 0)
(5.29474 0.0635408 0)
(5.30305 0.0626067 0)
(5.31109 0.0617001 0)
(5.31891 0.0608227 0)
(5.3265 0.0599743 0)
(5.33388 0.05916 0)
(5.34104 0.0583818 0)
(5.34802 0.0576333 0)
(5.35483 0.0569079 0)
(5.36146 0.0562077 0)
(5.36793 0.0555363 0)
(5.37426 0.0548955 0)
(5.38045 0.0542969 0)
(5.3865 0.0537255 0)
(5.39242 0.0531743 0)
(5.3982 0.0526486 0)
(5.40386 0.0521387 0)
(5.40942 0.0516571 0)
(5.41488 0.0512074 0)
(5.42021 0.0507695 0)
(5.42546 0.0503402 0)
(5.43061 0.0499232 0)
(5.43568 0.0495168 0)
(5.44066 0.0491248 0)
(5.44555 0.0487486 0)
(5.45036 0.0483886 0)
(5.45509 0.0480433 0)
(5.45975 0.0477144 0)
(5.46435 0.0474038 0)
(5.46889 0.0471087 0)
(5.47336 0.0468323 0)
(5.47778 0.0465687 0)
(5.48214 0.046314 0)
(5.48645 0.0460734 0)
(5.49072 0.0458644 0)
(5.49493 0.0456597 0)
(5.49907 0.0454982 0)
(5.50318 0.0453442 0)
(5.50724 0.0452691 0)
(5.51128 0.0451668 0)
(5.51526 0.0452428 0)
(5.51922 0.0452298 0)
(5.52311 0.0456361 0)
(5.52702 0.0457435 0)
(5.5309 0.046828 0)
(5.53487 0.0470792 0)
(5.53894 0.0497472 0)
(5.54333 0.0500923 0)
(4.50019 0.0373866 0)
(4.50226 0.0439336 0)
(4.50652 0.0474818 0)
(4.51312 0.0513076 0)
(4.5218 0.0549555 0)
(4.53242 0.0583429 0)
(4.54484 0.0614558 0)
(4.55884 0.0642959 0)
(4.57425 0.0668712 0)
(4.59083 0.0691531 0)
(4.60839 0.0711128 0)
(4.62682 0.0727632 0)
(4.64603 0.0741027 0)
(4.66583 0.0751504 0)
(4.6861 0.075951 0)
(4.70672 0.0765258 0)
(4.72757 0.0768894 0)
(4.74854 0.0770574 0)
(4.76953 0.0770478 0)
(4.79048 0.0768698 0)
(4.81132 0.0765294 0)
(4.832 0.0760406 0)
(4.85246 0.0754247 0)
(4.87266 0.0747009 0)
(4.89256 0.0738855 0)
(4.91211 0.072984 0)
(4.93128 0.0720035 0)
(4.95005 0.070952 0)
(4.96841 0.0698409 0)
(4.98634 0.0686854 0)
(5.00384 0.0675049 0)
(5.0209 0.0662869 0)
(5.03749 0.0650625 0)
(5.05362 0.0638357 0)
(5.0693 0.0626121 0)
(5.08452 0.0613885 0)
(5.09928 0.0601691 0)
(5.11362 0.0589564 0)
(5.12755 0.0577802 0)
(5.14106 0.0566426 0)
(5.15412 0.0555447 0)
(5.16675 0.0544843 0)
(5.179 0.0534703 0)
(5.19086 0.0525221 0)
(5.2023 0.0515993 0)
(5.21336 0.0507057 0)
(5.22408 0.049849 0)
(5.23447 0.0490271 0)
(5.24457 0.0482369 0)
(5.25436 0.0474923 0)
(5.26386 0.0467973 0)
(5.27305 0.0461359 0)
(5.28195 0.0455028 0)
(5.29059 0.0449004 0)
(5.29901 0.0443348 0)
(5.3072 0.0438101 0)
(5.31519 0.0433141 0)
(5.32301 0.042846 0)
(5.33063 0.0424105 0)
(5.33807 0.0420019 0)
(5.34534 0.0416178 0)
(5.35245 0.0412584 0)
(5.35942 0.0409218 0)
(5.36624 0.0406039 0)
(5.37294 0.0402943 0)
(5.37949 0.0400029 0)
(5.38592 0.0397266 0)
(5.39226 0.0394531 0)
(5.39849 0.0391858 0)
(5.40463 0.0389209 0)
(5.41066 0.0386586 0)
(5.41659 0.0384129 0)
(5.42243 0.0381886 0)
(5.42819 0.0379829 0)
(5.43389 0.0377941 0)
(5.43952 0.0376185 0)
(5.4451 0.0374517 0)
(5.45061 0.0372912 0)
(5.45608 0.0371418 0)
(5.46148 0.0370026 0)
(5.46683 0.0368688 0)
(5.47213 0.0367428 0)
(5.47738 0.0366273 0)
(5.48258 0.0365209 0)
(5.48773 0.0364358 0)
(5.49286 0.0363551 0)
(5.49795 0.0363015 0)
(5.50301 0.0362343 0)
(5.50805 0.0362 0)
(5.51307 0.0361548 0)
(5.51807 0.0361825 0)
(5.52305 0.0361778 0)
(5.52808 0.0363211 0)
(5.5331 0.0363675 0)
(5.53826 0.0367395 0)
(5.54338 0.0368743 0)
(5.54884 0.0377652 0)
(5.55432 0.0380435 0)
(5.56064 0.0400098 0)
(5.567 0.0403495 0)
(4.50014 0.0386517 0)
(4.50228 0.0428293 0)
(4.50657 0.0440505 0)
(4.51299 0.0457273 0)
(4.52142 0.0472805 0)
(4.53171 0.0487111 0)
(4.5437 0.0499582 0)
(4.55725 0.0510725 0)
(4.57216 0.0520305 0)
(4.5883 0.0528327 0)
(4.60552 0.0534894 0)
(4.62367 0.0540315 0)
(4.64255 0.0544403 0)
(4.66206 0.0547196 0)
(4.68208 0.0549272 0)
(4.70245 0.0550679 0)
(4.72305 0.0551295 0)
(4.7438 0.055125 0)
(4.76463 0.0550608 0)
(4.78545 0.0549391 0)
(4.80618 0.0547625 0)
(4.82677 0.05454 0)
(4.84715 0.0542857 0)
(4.86728 0.0540137 0)
(4.88711 0.0537516 0)
(4.90661 0.0534972 0)
(4.92575 0.0532291 0)
(4.94451 0.0529484 0)
(4.96284 0.0526594 0)
(4.98077 0.0523672 0)
(4.99823 0.0520878 0)
(5.01524 0.0518101 0)
(5.03182 0.0515486 0)
(5.04793 0.0513005 0)
(5.06358 0.0510676 0)
(5.07877 0.0508416 0)
(5.0935 0.0506139 0)
(5.1078 0.0503875 0)
(5.12165 0.0501409 0)
(5.13506 0.0498753 0)
(5.14803 0.049583 0)
(5.1606 0.0492844 0)
(5.17278 0.0489903 0)
(5.18454 0.0486978 0)
(5.19592 0.0484008 0)
(5.20696 0.0481042 0)
(5.21766 0.0478112 0)
(5.22801 0.0475298 0)
(5.23803 0.0472479 0)
(5.24775 0.0469616 0)
(5.25717 0.0466644 0)
(5.2663 0.0463676 0)
(5.27519 0.0460673 0)
(5.28383 0.0457814 0)
(5.29224 0.0455035 0)
(5.30043 0.0452353 0)
(5.30839 0.0449775 0)
(5.31615 0.0447215 0)
(5.32373 0.0444607 0)
(5.33114 0.0441996 0)
(5.3384 0.0439358 0)
(5.34549 0.0436645 0)
(5.35242 0.0433878 0)
(5.35921 0.0431105 0)
(5.36588 0.0428349 0)
(5.37242 0.0425665 0)
(5.37883 0.0423036 0)
(5.38511 0.0420466 0)
(5.39129 0.0417976 0)
(5.39739 0.0415447 0)
(5.4034 0.0412851 0)
(5.40934 0.0410318 0)
(5.4152 0.040792 0)
(5.42099 0.0405685 0)
(5.42669 0.0403632 0)
(5.43231 0.0401613 0)
(5.43787 0.0399567 0)
(5.44335 0.0397533 0)
(5.44878 0.0395493 0)
(5.45414 0.0393447 0)
(5.45946 0.0391494 0)
(5.46473 0.0389666 0)
(5.46996 0.0387953 0)
(5.47516 0.0386337 0)
(5.48033 0.0384855 0)
(5.48547 0.0383425 0)
(5.49058 0.0381832 0)
(5.49563 0.0380313 0)
(5.50066 0.0378881 0)
(5.50568 0.0377468 0)
(5.51072 0.0376435 0)
(5.51575 0.0375548 0)
(5.52083 0.0375011 0)
(5.52589 0.0374312 0)
(5.53112 0.0374262 0)
(5.53639 0.0373808 0)
(5.54204 0.0374913 0)
(5.54777 0.0375134 0)
(5.55422 0.0378602 0)
(5.56082 0.0378933 0)
(4.50007 0.0370954 0)
(4.50218 0.0379127 0)
(4.50647 0.0356764 0)
(4.51287 0.0340122 0)
(4.52127 0.0323745 0)
(4.53153 0.0308035 0)
(4.54356 0.0293922 0)
(4.55714 0.0280561 0)
(4.57207 0.0269447 0)
(4.5882 0.0260124 0)
(4.60541 0.0252234 0)
(4.62352 0.0245287 0)
(4.64238 0.0239457 0)
(4.66191 0.0234779 0)
(4.68196 0.023074 0)
(4.70234 0.0227398 0)
(4.72295 0.022502 0)
(4.74371 0.0223482 0)
(4.76453 0.0222566 0)
(4.78534 0.0222072 0)
(4.80606 0.0221875 0)
(4.82663 0.0221927 0)
(4.84699 0.0222251 0)
(4.86714 0.0222855 0)
(4.88701 0.0223474 0)
(4.90651 0.0224038 0)
(4.92563 0.0224631 0)
(4.94436 0.0225168 0)
(4.96269 0.0225647 0)
(4.98059 0.0226131 0)
(4.99806 0.0226559 0)
(5.01508 0.0227099 0)
(5.03164 0.022763 0)
(5.04775 0.022817 0)
(5.06341 0.022864 0)
(5.0786 0.0229029 0)
(5.09334 0.0229319 0)
(5.10764 0.022938 0)
(5.1215 0.022931 0)
(5.13491 0.022959 0)
(5.14787 0.0230011 0)
(5.16042 0.0230694 0)
(5.17262 0.0231586 0)
(5.18441 0.0232152 0)
(5.19579 0.0232661 0)
(5.20682 0.0233137 0)
(5.2175 0.0233545 0)
(5.22786 0.0234171 0)
(5.2379 0.0234801 0)
(5.24762 0.0235395 0)
(5.25706 0.0235949 0)
(5.26621 0.0236434 0)
(5.27509 0.0236943 0)
(5.28371 0.0237441 0)
(5.29211 0.0237944 0)
(5.30028 0.0238434 0)
(5.30824 0.0238935 0)
(5.316 0.0239419 0)
(5.32358 0.023985 0)
(5.33099 0.0240355 0)
(5.33821 0.0240891 0)
(5.34528 0.0241315 0)
(5.35221 0.024164 0)
(5.359 0.0241938 0)
(5.36566 0.0242246 0)
(5.3722 0.0242566 0)
(5.37861 0.0242821 0)
(5.38494 0.024303 0)
(5.39116 0.0243237 0)
(5.39726 0.0243358 0)
(5.40327 0.0243363 0)
(5.40919 0.0243288 0)
(5.41504 0.0243202 0)
(5.42081 0.0243117 0)
(5.4265 0.0243042 0)
(5.43212 0.0242963 0)
(5.43768 0.0242882 0)
(5.44318 0.0242829 0)
(5.44862 0.0242755 0)
(5.45402 0.0242743 0)
(5.45936 0.0242815 0)
(5.46466 0.0242883 0)
(5.46991 0.0242964 0)
(5.47511 0.0243068 0)
(5.48027 0.0243088 0)
(5.48537 0.0243062 0)
(5.49044 0.0242888 0)
(5.49551 0.0242875 0)
(5.50056 0.0242823 0)
(5.5056 0.0242912 0)
(5.51067 0.0242668 0)
(5.51569 0.0242496 0)
(5.52076 0.0241895 0)
(5.52583 0.0241618 0)
(5.53105 0.0240445 0)
(5.53629 0.0239983 0)
(5.54191 0.0237172 0)
(5.54762 0.0236196 0)
(5.55408 0.0230548 0)
(5.56064 0.0230001 0)
(4.5 0.0332397 0)
(4.50194 0.0313721 0)
(4.50629 0.0268851 0)
(4.51289 0.0229818 0)
(4.52151 0.0192719 0)
(4.5322 0.0157948 0)
(4.54457 0.0125128 0)
(4.55853 0.00950274 0)
(4.57397 0.0067437 0)
(4.59054 0.00430412 0)
(4.60811 0.00219047 0)
(4.62658 0.000389381 0)
(4.64579 -0.00110707 0)
(4.66557 -0.00231423 0)
(4.68577 -0.00328934 0)
(4.70635 -0.00404383 0)
(4.72717 -0.00456976 0)
(4.74813 -0.00488929 0)
(4.76912 -0.00502378 0)
(4.79009 -0.00499707 0)
(4.81094 -0.00483105 0)
(4.83163 -0.00453591 0)
(4.8521 -0.00411391 0)
(4.87227 -0.0035714 0)
(4.8921 -0.00294017 0)
(4.91162 -0.00223455 0)
(4.93081 -0.00144868 0)
(4.9496 -0.000599303 0)
(4.96798 0.000299581 0)
(4.98593 0.00124371 0)
(5.00343 0.00222455 0)
(5.02047 0.00323551 0)
(5.03707 0.00427079 0)
(5.05321 0.00532416 0)
(5.06888 0.00638335 0)
(5.08409 0.00744243 0)
(5.09886 0.00849053 0)
(5.11319 0.00951289 0)
(5.12715 0.0104921 0)
(5.14068 0.0113892 0)
(5.15376 0.0122498 0)
(5.16642 0.0130749 0)
(5.1786 0.0138482 0)
(5.19035 0.0145769 0)
(5.20176 0.0152887 0)
(5.21284 0.0159667 0)
(5.2236 0.0166057 0)
(5.23402 0.0171752 0)
(5.24408 0.017707 0)
(5.25383 0.0182097 0)
(5.26327 0.0186804 0)
(5.27245 0.0191195 0)
(5.28139 0.0195306 0)
(5.29007 0.019909 0)
(5.29852 0.0202561 0)
(5.30673 0.0205746 0)
(5.31472 0.0208694 0)
(5.32251 0.0211441 0)
(5.33013 0.0213957 0)
(5.3376 0.0215992 0)
(5.3449 0.0217552 0)
(5.35201 0.0218826 0)
(5.35897 0.0219826 0)
(5.36579 0.0220759 0)
(5.37249 0.0221689 0)
(5.37905 0.0222585 0)
(5.38548 0.0223447 0)
(5.3918 0.022411 0)
(5.39801 0.0224498 0)
(5.40412 0.0224718 0)
(5.41015 0.0224806 0)
(5.4161 0.022473 0)
(5.42199 0.0224662 0)
(5.42779 0.022459 0)
(5.43351 0.022446 0)
(5.43917 0.0224311 0)
(5.44476 0.0224187 0)
(5.45028 0.0224003 0)
(5.45574 0.0223768 0)
(5.46114 0.0223463 0)
(5.46648 0.0223053 0)
(5.47176 0.0222666 0)
(5.477 0.0222257 0)
(5.48221 0.0221859 0)
(5.48738 0.0221395 0)
(5.49252 0.022086 0)
(5.49765 0.0220165 0)
(5.50273 0.0219365 0)
(5.50779 0.0218356 0)
(5.51279 0.0217639 0)
(5.5178 0.0216159 0)
(5.52279 0.0215245 0)
(5.52785 0.0212911 0)
(5.53288 0.0211853 0)
(5.53806 0.0206941 0)
(5.54318 0.0205059 0)
(5.54866 0.0194532 0)
(5.55414 0.0191617 0)
(5.56042 0.0169512 0)
(5.56668 0.0166109 0)
(4.49999 0.0263122 0)
(4.50243 0.020075 0)
(4.50721 0.0117977 0)
(4.5141 0.00428656 0)
(4.52317 -0.00267176 0)
(4.53412 -0.00910265 0)
(4.54687 -0.0150718 0)
(4.56122 -0.0204237 0)
(4.57695 -0.0252394 0)
(4.59403 -0.0294435 0)
(4.61222 -0.0330328 0)
(4.63131 -0.0360339 0)
(4.65114 -0.0384976 0)
(4.67153 -0.0404713 0)
(4.69237 -0.0419679 0)
(4.71353 -0.0430374 0)
(4.73493 -0.0437461 0)
(4.75647 -0.0441339 0)
(4.77804 -0.0442442 0)
(4.79959 -0.0441194 0)
(4.82102 -0.0437933 0)
(4.84228 -0.0432928 0)
(4.8633 -0.0426382 0)
(4.88404 -0.0418438 0)
(4.90445 -0.0409067 0)
(4.9245 -0.0398485 0)
(4.94415 -0.0387114 0)
(4.96338 -0.0375098 0)
(4.98216 -0.0362515 0)
(5.00047 -0.0349464 0)
(5.0183 -0.0335966 0)
(5.03564 -0.0322066 0)
(5.05248 -0.03079 0)
(5.06882 -0.0293568 0)
(5.08467 -0.0279117 0)
(5.10003 -0.0264641 0)
(5.11489 -0.0250283 0)
(5.12925 -0.0236077 0)
(5.14306 -0.0222254 0)
(5.15639 -0.0209301 0)
(5.16931 -0.0196764 0)
(5.18175 -0.0184743 0)
(5.19379 -0.0173223 0)
(5.20547 -0.0161696 0)
(5.21673 -0.0150389 0)
(5.22758 -0.0139486 0)
(5.23803 -0.0129069 0)
(5.24812 -0.0119429 0)
(5.25792 -0.0110175 0)
(5.2674 -0.0101285 0)
(5.27657 -0.00927152 0)
(5.28545 -0.00844105 0)
(5.29403 -0.00764388 0)
(5.30234 -0.00688502 0)
(5.31039 -0.00615997 0)
(5.3182 -0.00546589 0)
(5.3258 -0.00479892 0)
(5.33318 -0.00415698 0)
(5.34033 -0.00354109 0)
(5.34727 -0.00296801 0)
(5.35403 -0.002437 0)
(5.36065 -0.00193355 0)
(5.36714 -0.00144656 0)
(5.3735 -0.000995585 0)
(5.37972 -0.000587602 0)
(5.38579 -0.000215963 0)
(5.3917 0.000135017 0)
(5.39747 0.000476011 0)
(5.40314 0.000810839 0)
(5.40869 0.00113536 0)
(5.41413 0.00144906 0)
(5.41948 0.00175221 0)
(5.42476 0.00202507 0)
(5.42993 0.00227315 0)
(5.43501 0.00250149 0)
(5.44002 0.00271301 0)
(5.44494 0.00290255 0)
(5.44979 0.00307423 0)
(5.45456 0.00323667 0)
(5.45925 0.00339176 0)
(5.46388 0.00354583 0)
(5.46846 0.00370068 0)
(5.47297 0.00385051 0)
(5.47742 0.00399601 0)
(5.4818 0.00413027 0)
(5.48612 0.00426186 0)
(5.49036 0.00437029 0)
(5.4946 0.00446596 0)
(5.49881 0.00451483 0)
(5.50299 0.00457271 0)
(5.50711 0.00455777 0)
(5.51122 0.00459549 0)
(5.51525 0.00442823 0)
(5.51924 0.00442648 0)
(5.52316 0.00395818 0)
(5.52708 0.0039291 0)
(5.53097 0.00276623 0)
(5.53494 0.00269029 0)
(5.53895 -0.000267504 0)
(5.5432 -0.000296604 0)
(4.49991 0.0184754 0)
(4.50238 0.00989071 0)
(4.50778 -0.000609859 0)
(4.51575 -0.0105438 0)
(4.52607 -0.0200006 0)
(4.53844 -0.0288564 0)
(4.55274 -0.0369801 0)
(4.56884 -0.0443811 0)
(4.58656 -0.0509325 0)
(4.60569 -0.056664 0)
(4.62596 -0.0616002 0)
(4.64711 -0.0657758 0)
(4.66892 -0.0692255 0)
(4.69117 -0.0719852 0)
(4.7137 -0.0740921 0)
(4.73632 -0.0755871 0)
(4.75891 -0.0765217 0)
(4.78131 -0.0769497 0)
(4.80344 -0.0769223 0)
(4.82518 -0.0764914 0)
(4.84645 -0.075707 0)
(4.86718 -0.0746139 0)
(4.8873 -0.073251 0)
(4.90677 -0.071654 0)
(4.92556 -0.0698575 0)
(4.94365 -0.0678983 0)
(4.96102 -0.0658115 0)
(4.97767 -0.0636252 0)
(4.99358 -0.061362 0)
(5.00876 -0.0590408 0)
(5.02319 -0.0566795 0)
(5.03689 -0.0542957 0)
(5.04988 -0.0519054 0)
(5.06216 -0.0495258 0)
(5.07377 -0.0471724 0)
(5.08471 -0.0448606 0)
(5.095 -0.0425983 0)
(5.10467 -0.040396 0)
(5.11372 -0.038248 0)
(5.1222 -0.0361249 0)
(5.13013 -0.0340647 0)
(5.13753 -0.0320632 0)
(5.14442 -0.0301192 0)
(5.15083 -0.0282628 0)
(5.15677 -0.026501 0)
(5.16227 -0.0248215 0)
(5.16734 -0.0232241 0)
(5.17202 -0.0216819 0)
(5.17634 -0.0202199 0)
(5.18032 -0.0188374 0)
(5.18396 -0.0175308 0)
(5.1873 -0.0162991 0)
(5.19033 -0.015136 0)
(5.19309 -0.0140322 0)
(5.19557 -0.0129848 0)
(5.1978 -0.0119935 0)
(5.19978 -0.0110615 0)
(5.20154 -0.0101917 0)
(5.20309 -0.00938216 0)
(5.20444 -0.00861114 0)
(5.2056 -0.0078724 0)
(5.2066 -0.00717587 0)
(5.2074 -0.00652067 0)
(5.208 -0.00592676 0)
(5.20845 -0.00539671 0)
(5.20877 -0.0049209 0)
(5.20899 -0.0044739 0)
(5.20908 -0.00405169 0)
(5.20905 -0.00363854 0)
(5.20889 -0.0032483 0)
(5.20862 -0.00287913 0)
(5.20823 -0.002529 0)
(5.20773 -0.00221381 0)
(5.20714 -0.00192415 0)
(5.20646 -0.00166157 0)
(5.2057 -0.00142162 0)
(5.20484 -0.00120475 0)
(5.20393 -0.00100449 0)
(5.20294 -0.000817548 0)
(5.20188 -0.000638405 0)
(5.20075 -0.000469214 0)
(5.19955 -0.000313898 0)
(5.19827 -0.000172292 0)
(5.19695 -3.98847e-05 0)
(5.19557 7.86163e-05 0)
(5.19415 0.000199171 0)
(5.19264 0.000312591 0)
(5.19111 0.000442979 0)
(5.18945 0.000518334 0)
(5.18786 0.000601903 0)
(5.18604 0.000584345 0)
(5.18442 0.000632844 0)
(5.18236 0.000465098 0)
(5.18086 0.00052831 0)
(5.17836 9.74227e-05 0)
(5.1771 0.000266287 0)
(5.17359 -0.000956066 0)
(5.17281 -0.000755833 0)
(5.16729 -0.00461452 0)
(5.16819 -0.00465454 0)
(4.49999 0.00548687 0)
(4.50396 -0.010596 0)
(4.51232 -0.0262934 0)
(4.52468 -0.0406369 0)
(4.54018 -0.0540572 0)
(4.5578 -0.0664399 0)
(4.57659 -0.0775745 0)
(4.59576 -0.0873431 0)
(4.61458 -0.0957367 0)
(4.63249 -0.102847 0)
(4.64897 -0.108774 0)
(4.66369 -0.113611 0)
(4.67639 -0.11744 0)
(4.68695 -0.120343 0)
(4.6953 -0.122405 0)
(4.70146 -0.123698 0)
(4.70549 -0.124307 0)
(4.70745 -0.124309 0)
(4.70749 -0.123766 0)
(4.70571 -0.12274 0)
(4.70223 -0.121286 0)
(4.69717 -0.119455 0)
(4.69069 -0.117292 0)
(4.68289 -0.114841 0)
(4.67394 -0.112142 0)
(4.66393 -0.109235 0)
(4.653 -0.106156 0)
(4.64125 -0.102936 0)
(4.62879 -0.0996076 0)
(4.61569 -0.0961979 0)
(4.60206 -0.0927325 0)
(4.58797 -0.0892358 0)
(4.57349 -0.0857309 0)
(4.5587 -0.0822382 0)
(4.54365 -0.0787741 0)
(4.5284 -0.0753523 0)
(4.51299 -0.0719856 0)
(4.49748 -0.0686839 0)
(4.48189 -0.0654561 0)
(4.46626 -0.0623063 0)
(4.45062 -0.0592525 0)
(4.43501 -0.0563049 0)
(4.41945 -0.0534658 0)
(4.40396 -0.0507395 0)
(4.38857 -0.0481269 0)
(4.37327 -0.0456264 0)
(4.35809 -0.0432343 0)
(4.34304 -0.0409447 0)
(4.32813 -0.03876 0)
(4.31337 -0.03668 0)
(4.29877 -0.0347017 0)
(4.28432 -0.0328223 0)
(4.27003 -0.0310394 0)
(4.25589 -0.0293499 0)
(4.24191 -0.0277509 0)
(4.22808 -0.0262375 0)
(4.21441 -0.024806 0)
(4.20089 -0.0234532 0)
(4.18753 -0.0221768 0)
(4.17432 -0.020974 0)
(4.16127 -0.0198436 0)
(4.14837 -0.0187846 0)
(4.13563 -0.0177937 0)
(4.12303 -0.0168457 0)
(4.11059 -0.0159333 0)
(4.09833 -0.0150562 0)
(4.08623 -0.0142303 0)
(4.07429 -0.0134492 0)
(4.06248 -0.0127246 0)
(4.0508 -0.0120324 0)
(4.03925 -0.0113713 0)
(4.02784 -0.0107443 0)
(4.01657 -0.0101422 0)
(4.00543 -0.00957874 0)
(3.99442 -0.0090472 0)
(3.98355 -0.00854416 0)
(3.97281 -0.00806024 0)
(3.96221 -0.00759693 0)
(3.95174 -0.00715296 0)
(3.9414 -0.00673043 0)
(3.93119 -0.00632892 0)
(3.92111 -0.00594443 0)
(3.91116 -0.005577 0)
(3.90132 -0.00522578 0)
(3.8916 -0.00489061 0)
(3.882 -0.00457416 0)
(3.8725 -0.00427438 0)
(3.86313 -0.00400121 0)
(3.85383 -0.00373828 0)
(3.84468 -0.00351394 0)
(3.83555 -0.00327292 0)
(3.82665 -0.00311081 0)
(3.81757 -0.00284879 0)
(3.80897 -0.00280072 0)
(3.79954 -0.00241441 0)
(3.79134 -0.0026095 0)
(3.78011 -0.00173517 0)
(3.77281 -0.00240997 0)
(3.75532 4.2854e-06 0)
(3.75284 -0.00176129 0)
(4.49708 -0.00283388 0)
(4.48427 -0.0238151 0)
(4.45773 -0.0443702 0)
(4.41735 -0.0625867 0)
(4.36498 -0.0784372 0)
(4.30272 -0.091753 0)
(4.23226 -0.102341 0)
(4.15507 -0.110188 0)
(4.07241 -0.115438 0)
(3.98568 -0.118401 0)
(3.89597 -0.119365 0)
(3.80452 -0.118687 0)
(3.71206 -0.116612 0)
(3.6196 -0.11346 0)
(3.52751 -0.109461 0)
(3.43658 -0.104759 0)
(3.34713 -0.0997094 0)
(3.25941 -0.0943861 0)
(3.1738 -0.0888614 0)
(3.09052 -0.0832769 0)
(3.00971 -0.0777182 0)
(2.93149 -0.0722485 0)
(2.85594 -0.0669139 0)
(2.78314 -0.0617465 0)
(2.7131 -0.0567697 0)
(2.64586 -0.0519998 0)
(2.5814 -0.0474475 0)
(2.5197 -0.0431179 0)
(2.46073 -0.0390114 0)
(2.40444 -0.0351254 0)
(2.35079 -0.0314556 0)
(2.2997 -0.0279966 0)
(2.25113 -0.0247424 0)
(2.20498 -0.0216868 0)
(2.1612 -0.018824 0)
(2.11969 -0.0161475 0)
(2.08038 -0.0136501 0)
(2.04319 -0.0113242 0)
(2.00803 -0.00916014 0)
(1.97482 -0.00714741 0)
(1.94347 -0.00527709 0)
(1.91389 -0.00354045 0)
(1.88602 -0.0019306 0)
(1.85976 -0.000442818 0)
(1.83503 0.000928085 0)
(1.81174 0.00218851 0)
(1.78983 0.00334457 0)
(1.76922 0.00440238 0)
(1.74983 0.00536712 0)
(1.7316 0.0062436 0)
(1.71446 0.00703674 0)
(1.69833 0.00775164 0)
(1.68316 0.00839396 0)
(1.66889 0.00897048 0)
(1.65545 0.00948855 0)
(1.64279 0.0099549 0)
(1.63086 0.010375 0)
(1.6196 0.0107533 0)
(1.60898 0.0110938 0)
(1.59894 0.0114006 0)
(1.58945 0.0116777 0)
(1.58048 0.0119288 0)
(1.57199 0.0121569 0)
(1.56393 0.0123648 0)
(1.55628 0.0125542 0)
(1.54899 0.0127135 0)
(1.54207 0.0128091 0)
(1.5355 0.0128713 0)
(1.52923 0.0128839 0)
(1.52327 0.012877 0)
(1.51758 0.0128582 0)
(1.51212 0.0128296 0)
(1.50686 0.0127863 0)
(1.50182 0.0127143 0)
(1.497 0.012636 0)
(1.49236 0.012553 0)
(1.48791 0.0124612 0)
(1.48361 0.0123619 0)
(1.47947 0.0122573 0)
(1.47545 0.0121458 0)
(1.47157 0.0120291 0)
(1.46781 0.0119023 0)
(1.46415 0.0117652 0)
(1.46058 0.0116211 0)
(1.45712 0.0114723 0)
(1.45374 0.0113176 0)
(1.45045 0.0111641 0)
(1.44721 0.0110011 0)
(1.44408 0.0108486 0)
(1.44092 0.0106694 0)
(1.43796 0.010543 0)
(1.43478 0.0103083 0)
(1.43207 0.0103154 0)
(1.42874 0.0099127 0)
(1.42645 0.0106026 0)
(1.42305 0.00960899 0)
(1.42126 0.0134272 0)
(1.42019 0.00996281 0)
(1.41644 0.0273381 0)
(1.43422 0.0105105 0)
(1.37373 0.0145988 0)
(1.36489 0.00122515 0)
(1.35453 0.000841739 0)
(1.3409 0.00139238 0)
(1.32935 0.00310749 0)
(1.31874 0.00473587 0)
(1.30828 0.00565434 0)
(1.29832 0.00605138 0)
(1.28885 0.0060111 0)
(1.27966 0.00576254 0)
(1.2709 0.00540146 0)
(1.26263 0.00491455 0)
(1.25491 0.00443383 0)
(1.2477 0.00392425 0)
(1.24084 0.00352398 0)
(1.23435 0.00320057 0)
(1.22819 0.00292698 0)
(1.22235 0.00273273 0)
(1.21682 0.0026108 0)
(1.21157 0.00253761 0)
(1.20657 0.00249253 0)
(1.20183 0.0024792 0)
(1.19735 0.00247852 0)
(1.1931 0.00246074 0)
(1.18908 0.00243387 0)
(1.18524 0.00239687 0)
(1.18155 0.00236211 0)
(1.17801 0.00231638 0)
(1.17463 0.00226565 0)
(1.17141 0.00222959 0)
(1.16834 0.00218969 0)
(1.16541 0.00215497 0)
(1.16258 0.00212606 0)
(1.15991 0.00213608 0)
(1.15738 0.00210463 0)
(1.15496 0.00205163 0)
(1.15264 0.00198787 0)
(1.15039 0.00190645 0)
(1.14821 0.00184059 0)
(1.14613 0.00178243 0)
(1.14414 0.00172624 0)
(1.14221 0.00166852 0)
(1.14036 0.00161239 0)
(1.13859 0.00155444 0)
(1.13689 0.00150833 0)
(1.13525 0.00146608 0)
(1.13368 0.00141948 0)
(1.13218 0.00136902 0)
(1.13074 0.00131633 0)
(1.12935 0.0012651 0)
(1.12801 0.00121735 0)
(1.12671 0.00117267 0)
(1.12546 0.00112952 0)
(1.12424 0.00109076 0)
(1.12307 0.00105542 0)
(1.12196 0.00102329 0)
(1.1209 0.000993481 0)
(1.11989 0.0009638 0)
(1.11892 0.000937908 0)
(1.11799 0.000911485 0)
(1.11709 0.000879497 0)
(1.11624 0.000846744 0)
(1.11541 0.000812056 0)
(1.11462 0.000775732 0)
(1.11386 0.00073982 0)
(1.11312 0.000706324 0)
(1.11241 0.000675936 0)
(1.11173 0.000649751 0)
(1.11108 0.000626711 0)
(1.11047 0.000604024 0)
(1.10991 0.00057919 0)
(1.10937 0.000553703 0)
(1.10887 0.000527638 0)
(1.10839 0.000494725 0)
(1.10793 0.000464712 0)
(1.10748 0.000437876 0)
(1.10705 0.000413741 0)
(1.10663 0.000392352 0)
(1.10623 0.000374167 0)
(1.10587 0.000355363 0)
(1.10553 0.000335192 0)
(1.10522 0.000314926 0)
(1.10493 0.000298568 0)
(1.10466 0.000286045 0)
(1.10442 0.000273244 0)
(1.1042 0.000257894 0)
(1.10399 0.000243442 0)
(1.10379 0.000231624 0)
(1.10361 0.000220204 0)
(1.10343 0.000207486 0)
(1.10328 0.000196859 0)
(1.10314 0.000186713 0)
(1.10302 0.0001776 0)
(1.10292 0.000167798 0)
(1.10284 0.000156893 0)
(1.10277 0.000150205 0)
(1.10273 0.000145559 0)
(1.10269 0.000135402 0)
(1.10267 0.000124375 0)
(1.10266 0.000114015 0)
(1.10265 0.000102927 0)
(1.10265 9.37384e-05 0)
(1.10266 8.76527e-05 0)
(1.10268 8.45897e-05 0)
(1.10273 8.31567e-05 0)
(1.10278 8.03347e-05 0)
(1.10285 7.57964e-05 0)
(1.10292 7.06878e-05 0)
(1.103 6.90829e-05 0)
(1.1031 6.52487e-05 0)
(1.1032 5.91696e-05 0)
(1.10332 5.25023e-05 0)
(1.10344 4.63922e-05 0)