/*--------------------------------*- C++ -*----------------------------------*\
  =========                 |
  \\      /  F ield         | OpenFOAM: The Open Source CFD Toolbox
   \\    /   O peration     | Website:  https://openfoam.org
    \\  /    A nd           | Version:  7
     \\/     M anipulation  |
\*---------------------------------------------------------------------------*/
FoamFile
{
    version     2.0;
    format      ascii;
    class       volVectorField;
    location    "0.145";
    object      U_0;
}
// * * * * * * * * * * * * * * * * * * * * * * * * * * * * * * * * * * * * * //

dimensions      [0 1 -1 0 0 0 0];

internalField   nonuniform List<vector> 
1440
(
(11.9801 0.0364376 0)
(11.8845 0.136215 0)
(11.6946 0.227704 0)
(11.4205 0.300538 0)
(11.0837 0.353081 0)
(10.7036 0.385058 0)
(10.2969 0.398301 0)
(9.87507 0.395688 0)
(9.45016 0.381412 0)
(9.02901 0.358605 0)
(8.62101 0.330574 0)
(8.2288 0.300616 0)
(7.85637 0.26979 0)
(7.50667 0.239396 0)
(7.18053 0.210245 0)
(6.87816 0.182707 0)
(6.5993 0.157066 0)
(6.34346 0.133523 0)
(6.10978 0.112163 0)
(5.89722 0.0929784 0)
(5.7045 0.0758858 0)
(5.53032 0.0607655 0)
(5.3733 0.0474799 0)
(5.23205 0.0358859 0)
(5.10522 0.0258373 0)
(4.9915 0.0171885 0)
(4.88963 0.00979899 0)
(4.79843 0.00353618 0)
(4.71679 -0.00172415 0)
(4.64369 -0.00609734 0)
(4.57818 -0.00968966 0)
(4.51941 -0.0125982 0)
(4.4666 -0.0149113 0)
(4.41904 -0.0167088 0)
(4.37612 -0.0180626 0)
(4.33727 -0.0190371 0)
(4.30199 -0.0196898 0)
(4.26985 -0.0200717 0)
(4.24045 -0.020228 0)
(4.21345 -0.0201979 0)
(4.18855 -0.0200157 0)
(4.16549 -0.0197111 0)
(4.14404 -0.019309 0)
(4.124 -0.0188301 0)
(4.10519 -0.0182913 0)
(4.08746 -0.0177054 0)
(4.07068 -0.0170825 0)
(4.05472 -0.0164327 0)
(4.0395 -0.0157661 0)
(4.02491 -0.0150916 0)
(4.01088 -0.0144163 0)
(3.99735 -0.0137455 0)
(3.98427 -0.0130828 0)
(3.97158 -0.0124315 0)
(3.95924 -0.0117937 0)
(3.94722 -0.0111713 0)
(3.93549 -0.0105656 0)
(3.92402 -0.00997739 0)
(3.9128 -0.00940738 0)
(3.90181 -0.00885603 0)
(3.89103 -0.00832366 0)
(3.88044 -0.0078106 0)
(3.87004 -0.00731706 0)
(3.85982 -0.00684312 0)
(3.84977 -0.00638874 0)
(3.83988 -0.00595372 0)
(3.83015 -0.00553777 0)
(3.82057 -0.00514053 0)
(3.81113 -0.00476159 0)
(3.80185 -0.00440054 0)
(3.7927 -0.00405691 0)
(3.78368 -0.00373023 0)
(3.77481 -0.00341996 0)
(3.76606 -0.00312557 0)
(3.75745 -0.00284646 0)
(3.74896 -0.0025821 0)
(3.7406 -0.00233191 0)
(3.73236 -0.00209543 0)
(3.72425 -0.00187213 0)
(3.71627 -0.00166152 0)
(3.7084 -0.00146294 0)
(3.70065 -0.00127586 0)
(3.69302 -0.00109966 0)
(3.6855 -0.000933989 0)
(3.67811 -0.000778404 0)
(3.67082 -0.00063265 0)
(3.66365 -0.000496159 0)
(3.65659 -0.00036848 0)
(3.64964 -0.000248898 0)
(3.64279 -0.000137092 0)
(3.63606 -3.26472e-05 0)
(3.62943 6.43949e-05 0)
(3.6229 0.000154333 0)
(3.61648 0.000237309 0)
(3.61016 0.000313995 0)
(3.60393 0.000384894 0)
(3.5978 0.000450613 0)
(3.59177 0.000511438 0)
(3.58584 0.000567176 0)
(3.58001 0.000618003 0)
(3.57427 0.000662978 0)
(3.56862 0.000703512 0)
(3.56306 0.000737828 0)
(3.55758 0.000770262 0)
(3.5522 0.000796037 0)
(3.54688 0.000824675 0)
(3.54169 0.000842855 0)
(3.53655 0.000871116 0)
(3.53156 0.000876657 0)
(3.52659 0.000906467 0)
(3.52183 0.000885459 0)
(3.51699 0.000922608 0)
(3.51249 0.000850149 0)
(3.50768 0.00091472 0)
(3.50352 0.000748065 0)
(3.49857 0.000889151 0)
(3.49507 0.000559532 0)
(3.48952 0.000899866 0)
(3.48752 0.00035709 0)
(3.47985 0.00123564 0)
(12.0023 0.0499349 0)
(12.0398 0.138905 0)
(12.1055 0.215855 0)
(12.1889 0.283192 0)
(12.2797 0.341703 0)
(12.3685 0.390354 0)
(12.4482 0.428446 0)
(12.5134 0.456225 0)
(12.5615 0.474776 0)
(12.5911 0.485267 0)
(12.603 0.488813 0)
(12.5983 0.486524 0)
(12.5788 0.479324 0)
(12.5464 0.467973 0)
(12.5029 0.453165 0)
(12.4502 0.435611 0)
(12.3902 0.41604 0)
(12.3247 0.395124 0)
(12.255 0.37346 0)
(12.1822 0.351535 0)
(12.1075 0.329743 0)
(12.0317 0.308415 0)
(11.9553 0.287779 0)
(11.8791 0.26802 0)
(11.8033 0.249269 0)
(11.7284 0.23161 0)
(11.6546 0.215088 0)
(11.582 0.199714 0)
(11.5109 0.185477 0)
(11.4413 0.172344 0)
(11.3732 0.160269 0)
(11.3067 0.149196 0)
(11.2418 0.139063 0)
(11.1785 0.129807 0)
(11.1167 0.121362 0)
(11.0565 0.113663 0)
(10.9978 0.10665 0)
(10.9405 0.100261 0)
(10.8846 0.0944422 0)
(10.8302 0.0891409 0)
(10.7771 0.0843088 0)
(10.7253 0.0799011 0)
(10.6748 0.0758766 0)
(10.6255 0.0721971 0)
(10.5774 0.0688274 0)
(10.5306 0.0657354 0)
(10.4848 0.0628944 0)
(10.4402 0.0602797 0)
(10.3966 0.0578688 0)
(10.3541 0.0556404 0)
(10.3126 0.0535755 0)
(10.2721 0.0516568 0)
(10.2326 0.0498687 0)
(10.1939 0.0481973 0)
(10.1562 0.0466301 0)
(10.1194 0.0451559 0)
(10.0835 0.0437648 0)
(10.0483 0.0424477 0)
(10.014 0.0411974 0)
(9.98051 0.0400076 0)
(9.94778 0.0388732 0)
(9.91581 0.0377898 0)
(9.88457 0.0367535 0)
(9.85405 0.0357608 0)
(9.82424 0.0348088 0)
(9.79511 0.0338948 0)
(9.76664 0.0330164 0)
(9.73883 0.0321714 0)
(9.71164 0.0313577 0)
(9.68508 0.0305736 0)
(9.65911 0.0298174 0)
(9.63373 0.0290875 0)
(9.60891 0.0283826 0)
(9.58466 0.0277014 0)
(9.56094 0.027043 0)
(9.53775 0.0264063 0)
(9.51507 0.0257905 0)
(9.49288 0.0251946 0)
(9.47119 0.0246178 0)
(9.44997 0.0240593 0)
(9.4292 0.0235186 0)
(9.40889 0.0229951 0)
(9.38901 0.0224883 0)
(9.36955 0.0219974 0)
(9.3505 0.021522 0)
(9.33186 0.0210613 0)
(9.31361 0.020615 0)
(9.29573 0.0201825 0)
(9.27823 0.0197637 0)
(9.26108 0.0193582 0)
(9.24428 0.0189654 0)
(9.22782 0.0185848 0)
(9.21169 0.0182157 0)
(9.19589 0.0178578 0)
(9.18039 0.0175106 0)
(9.1652 0.0171744 0)
(9.1503 0.0168486 0)
(9.1357 0.0165334 0)
(9.12137 0.0162275 0)
(9.10732 0.015931 0)
(9.09353 0.015642 0)
(9.08 0.0153618 0)
(9.06672 0.0150873 0)
(9.05369 0.0148229 0)
(9.0409 0.0145626 0)
(9.02833 0.0143154 0)
(9.01602 0.0140679 0)
(9.00389 0.0138379 0)
(8.99205 0.0135965 0)
(8.98032 0.0133812 0)
(8.96898 0.013132 0)
(8.95756 0.0129281 0)
(8.94682 0.0126493 0)
(8.93553 0.0124563 0)
(8.92563 0.0121161 0)
(8.91406 0.0119321 0)
(8.90569 0.0114883 0)
(8.89284 0.0112928 0)
(8.88783 0.0107617 0)
(8.87117 0.0105565 0)
(12.001 0.0301372 0)
(12.0202 0.0882351 0)
(12.0585 0.142011 0)
(12.1151 0.190543 0)
(12.1876 0.233543 0)
(12.2736 0.270555 0)
(12.3705 0.301049 0)
(12.4753 0.324777 0)
(12.585 0.341898 0)
(12.6966 0.352822 0)
(12.8076 0.358022 0)
(12.9159 0.358105 0)
(13.0198 0.35366 0)
(13.1183 0.345382 0)
(13.2104 0.334123 0)
(13.2959 0.320718 0)
(13.3745 0.30588 0)
(13.4464 0.290192 0)
(13.5115 0.274137 0)
(13.5702 0.258113 0)
(13.6228 0.242432 0)
(13.6695 0.227332 0)
(13.7109 0.21298 0)
(13.7473 0.199488 0)
(13.779 0.186922 0)
(13.8067 0.175316 0)
(13.8305 0.164674 0)
(13.8509 0.154978 0)
(13.8682 0.146191 0)
(13.8827 0.138263 0)
(13.8947 0.131136 0)
(13.9045 0.124748 0)
(13.9123 0.119035 0)
(13.9182 0.113934 0)
(13.9226 0.109382 0)
(13.9254 0.105322 0)
(13.927 0.101699 0)
(13.9274 0.0984624 0)
(13.9267 0.095568 0)
(13.925 0.0929741 0)
(13.9224 0.0906438 0)
(13.9191 0.0885441 0)
(13.915 0.0866452 0)
(13.9102 0.0849204 0)
(13.9049 0.0833451 0)
(13.8989 0.0818963 0)
(13.8924 0.0805512 0)
(13.8855 0.0792899 0)
(13.8781 0.0780968 0)
(13.8702 0.0769599 0)
(13.862 0.0758696 0)
(13.8534 0.074818 0)
(13.8445 0.0737985 0)
(13.8352 0.0728057 0)
(13.8256 0.0718352 0)
(13.8158 0.0708832 0)
(13.8057 0.0699467 0)
(13.7953 0.0690223 0)
(13.7847 0.0681077 0)
(13.7739 0.067201 0)
(13.7628 0.0663011 0)
(13.7516 0.0654073 0)
(13.7402 0.0645194 0)
(13.7287 0.063637 0)
(13.717 0.0627603 0)
(13.7051 0.0618894 0)
(13.6931 0.0610249 0)
(13.681 0.060167 0)
(13.6688 0.0593161 0)
(13.6565 0.0584722 0)
(13.6441 0.0576359 0)
(13.6316 0.0568071 0)
(13.619 0.0559863 0)
(13.6064 0.0551736 0)
(13.5937 0.0543695 0)
(13.5809 0.0535742 0)
(13.5681 0.052788 0)
(13.5553 0.0520111 0)
(13.5425 0.0512438 0)
(13.5296 0.0504863 0)
(13.5167 0.0497389 0)
(13.5038 0.0490017 0)
(13.4909 0.0482751 0)
(13.478 0.0475589 0)
(13.465 0.0468536 0)
(13.4522 0.0461588 0)
(13.4393 0.0454749 0)
(13.4264 0.0448017 0)
(13.4136 0.0441396 0)
(13.4008 0.0434883 0)
(13.388 0.0428481 0)
(13.3753 0.0422182 0)
(13.3626 0.0415993 0)
(13.35 0.0409903 0)
(13.3374 0.0403923 0)
(13.3248 0.0398041 0)
(13.3123 0.0392269 0)
(13.2999 0.0386589 0)
(13.2876 0.0381018 0)
(13.2753 0.0375526 0)
(13.263 0.0370142 0)
(13.2509 0.036482 0)
(13.2388 0.0359616 0)
(13.2268 0.0354452 0)
(13.2149 0.0349433 0)
(13.203 0.0344411 0)
(13.1912 0.0339584 0)
(13.1795 0.0334647 0)
(13.168 0.0330013 0)
(13.1564 0.0325038 0)
(13.1451 0.0320615 0)
(13.1336 0.0315368 0)
(13.1227 0.031126 0)
(13.1111 0.0305301 0)
(13.1008 0.0301805 0)
(13.0886 0.0294231 0)
(13.0798 0.0292005 0)
(13.0659 0.0280831 0)
(13.0605 0.0280975 0)
(13.0424 0.0261495 0)
(12.0009 0.0209231 0)
(12.018 0.0619565 0)
(12.0523 0.10066 0)
(12.1028 0.135727 0)
(12.1673 0.166453 0)
(12.2437 0.192507 0)
(12.3296 0.21369 0)
(12.423 0.229938 0)
(12.5219 0.241415 0)
(12.6244 0.248521 0)
(12.7287 0.251798 0)
(12.8335 0.251851 0)
(12.9375 0.24929 0)
(13.0398 0.244705 0)
(13.1397 0.238658 0)
(13.2364 0.231613 0)
(13.3294 0.223924 0)
(13.4185 0.21584 0)
(13.5032 0.207536 0)
(13.5836 0.199145 0)
(13.6595 0.190785 0)
(13.7311 0.18256 0)
(13.7984 0.174556 0)
(13.8616 0.16683 0)
(13.9209 0.159429 0)
(13.9766 0.152386 0)
(14.029 0.145723 0)
(14.0781 0.139453 0)
(14.1245 0.133581 0)
(14.1681 0.128102 0)
(14.2094 0.123011 0)
(14.2484 0.118292 0)
(14.2855 0.113932 0)
(14.3208 0.10991 0)
(14.3544 0.106206 0)
(14.3866 0.102797 0)
(14.4174 0.0996625 0)
(14.447 0.0967781 0)
(14.4755 0.0941232 0)
(14.503 0.0916764 0)
(14.5296 0.0894189 0)
(14.5553 0.0873321 0)
(14.5803 0.0853999 0)
(14.6045 0.0836065 0)
(14.628 0.0819382 0)
(14.6509 0.0803808 0)
(14.6732 0.0789204 0)
(14.695 0.0775438 0)
(14.7162 0.0762414 0)
(14.7369 0.075005 0)
(14.7571 0.0738289 0)
(14.7769 0.0727072 0)
(14.7962 0.0716359 0)
(14.8151 0.0706102 0)
(14.8336 0.0696272 0)
(14.8517 0.0686834 0)
(14.8694 0.0677771 0)
(14.8867 0.0669064 0)
(14.9036 0.0660702 0)
(14.9202 0.0652657 0)
(14.9364 0.0644913 0)
(14.9522 0.0637437 0)
(14.9677 0.0630214 0)
(14.9829 0.0623218 0)
(14.9977 0.0616435 0)
(15.0122 0.0609845 0)
(15.0264 0.060344 0)
(15.0402 0.0597202 0)
(15.0537 0.0591128 0)
(15.067 0.05852 0)
(15.0799 0.0579417 0)
(15.0925 0.0573762 0)
(15.1048 0.0568236 0)
(15.1168 0.0562822 0)
(15.1285 0.0557522 0)
(15.14 0.0552322 0)
(15.1512 0.0547225 0)
(15.162 0.0542217 0)
(15.1727 0.0537302 0)
(15.183 0.0532468 0)
(15.1931 0.052772 0)
(15.2029 0.0523045 0)
(15.2125 0.0518449 0)
(15.2219 0.0513921 0)
(15.2309 0.0509466 0)
(15.2398 0.0505072 0)
(15.2484 0.0500747 0)
(15.2568 0.0496477 0)
(15.2649 0.0492273 0)
(15.2728 0.0488119 0)
(15.2805 0.0484027 0)
(15.288 0.047998 0)
(15.2953 0.0475991 0)
(15.3023 0.047204 0)
(15.3092 0.0468145 0)
(15.3158 0.0464283 0)
(15.3223 0.0460477 0)
(15.3285 0.0456696 0)
(15.3346 0.0452972 0)
(15.3404 0.0449257 0)
(15.3461 0.0445605 0)
(15.3517 0.0441938 0)
(15.357 0.0438354 0)
(15.3622 0.0434715 0)
(15.3672 0.0431212 0)
(15.372 0.0427567 0)
(15.3767 0.042417 0)
(15.3812 0.0420441 0)
(15.3855 0.0417193 0)
(15.3898 0.0413214 0)
(15.3938 0.0410214 0)
(15.3978 0.0405672 0)
(15.4014 0.0403168 0)
(15.4052 0.0397484 0)
(15.4084 0.0396 0)
(15.4122 0.038809 0)
(15.4147 0.0388542 0)
(15.4187 0.0376279 0)
(15.4201 0.0379606 0)
(15.425 0.0358245 0)
(12.0008 0.0123424 0)
(12.0168 0.036606 0)
(12.0486 0.0595406 0)
(12.0958 0.0803136 0)
(12.1566 0.0984484 0)
(12.229 0.113777 0)
(12.3107 0.126259 0)
(12.3999 0.135908 0)
(12.4945 0.142838 0)
(12.5929 0.147293 0)
(12.6934 0.149608 0)
(12.7947 0.150139 0)
(12.8955 0.149213 0)
(12.9949 0.147099 0)
(13.0921 0.144016 0)
(13.1864 0.140148 0)
(13.2773 0.135653 0)
(13.3645 0.130672 0)
(13.4478 0.125316 0)
(13.527 0.119689 0)
(13.6021 0.1139 0)
(13.6732 0.108056 0)
(13.7405 0.102264 0)
(13.804 0.0966233 0)
(13.8639 0.0912078 0)
(13.9205 0.0860738 0)
(13.9741 0.0812565 0)
(14.0248 0.0767721 0)
(14.0728 0.0726238 0)
(14.1185 0.0688058 0)
(14.1619 0.0653068 0)
(14.2034 0.0621116 0)
(14.243 0.0592026 0)
(14.281 0.0565605 0)
(14.3175 0.0541656 0)
(14.3527 0.0519978 0)
(14.3868 0.0500375 0)
(14.4197 0.0482657 0)
(14.4517 0.0466643 0)
(14.4827 0.0452166 0)
(14.513 0.0439071 0)
(14.5426 0.0427217 0)
(14.5716 0.0416474 0)
(14.5999 0.0406725 0)
(14.6277 0.0397863 0)
(14.655 0.0389797 0)
(14.6818 0.0382464 0)
(14.7083 0.0375808 0)
(14.7343 0.0369768 0)
(14.7599 0.036428 0)
(14.7852 0.0359283 0)
(14.8102 0.0354718 0)
(14.8349 0.0350531 0)
(14.8592 0.0346673 0)
(14.8833 0.0343101 0)
(14.9071 0.0339779 0)
(14.9307 0.0336682 0)
(14.954 0.0333792 0)
(14.977 0.0331094 0)
(14.9999 0.0328567 0)
(15.0225 0.0326187 0)
(15.0448 0.0323933 0)
(15.0669 0.0321786 0)
(15.0889 0.0319728 0)
(15.1106 0.0317744 0)
(15.1321 0.031582 0)
(15.1533 0.0313942 0)
(15.1744 0.0312099 0)
(15.1953 0.0310281 0)
(15.216 0.0308482 0)
(15.2365 0.0306697 0)
(15.2568 0.0304924 0)
(15.2769 0.0303158 0)
(15.2968 0.03014 0)
(15.3165 0.0299648 0)
(15.3361 0.0297901 0)
(15.3554 0.0296159 0)
(15.3746 0.0294423 0)
(15.3936 0.0292692 0)
(15.4125 0.0290967 0)
(15.4311 0.0289248 0)
(15.4496 0.0287537 0)
(15.4679 0.0285833 0)
(15.4861 0.0284137 0)
(15.5041 0.0282451 0)
(15.5219 0.0280773 0)
(15.5396 0.0279105 0)
(15.5571 0.0277448 0)
(15.5745 0.0275802 0)
(15.5917 0.0274167 0)
(15.6088 0.0272544 0)
(15.6257 0.0270932 0)
(15.6425 0.0269332 0)
(15.6591 0.0267742 0)
(15.6755 0.0266165 0)
(15.6919 0.0264598 0)
(15.7081 0.0263045 0)
(15.7241 0.0261499 0)
(15.74 0.0259969 0)
(15.7558 0.0258437 0)
(15.7714 0.0256928 0)
(15.7869 0.0255401 0)
(15.8023 0.0253911 0)
(15.8176 0.0252376 0)
(15.8327 0.0250916 0)
(15.8477 0.0249351 0)
(15.8625 0.0247935 0)
(15.8773 0.0246286 0)
(15.8918 0.0244935 0)
(15.9065 0.0243091 0)
(15.9206 0.0241861 0)
(15.9352 0.0239624 0)
(15.9488 0.0238659 0)
(15.9636 0.0235679 0)
(15.9762 0.0235277 0)
(15.9919 0.0230908 0)
(16.0024 0.0231537 0)
(16.0204 0.0224461 0)
(16.0266 0.0226447 0)
(16.05 0.0213829 0)
(12.0008 0.00412187 0)
(12.0162 0.0122104 0)
(12.0468 0.0198534 0)
(12.0923 0.0267806 0)
(12.1512 0.0328329 0)
(12.2217 0.0379617 0)
(12.3015 0.0421679 0)
(12.3888 0.0454698 0)
(12.4817 0.0479128 0)
(12.5785 0.0495811 0)
(12.6776 0.0505769 0)
(12.7776 0.0510042 0)
(12.8773 0.050945 0)
(12.9757 0.0504694 0)
(13.072 0.0496331 0)
(13.1655 0.0485004 0)
(13.2558 0.0471283 0)
(13.3424 0.045577 0)
(13.4252 0.0439095 0)
(13.504 0.0421899 0)
(13.5788 0.0404647 0)
(13.6497 0.0387709 0)
(13.7168 0.0371417 0)
(13.7803 0.0356114 0)
(13.8403 0.034206 0)
(13.8969 0.0329358 0)
(13.9505 0.0317968 0)
(14.0012 0.0307817 0)
(14.0493 0.0298792 0)
(14.0949 0.0290783 0)
(14.1383 0.0283656 0)
(14.1797 0.0277288 0)
(14.2192 0.0271554 0)
(14.2571 0.0266353 0)
(14.2935 0.0261594 0)
(14.3286 0.0257205 0)
(14.3625 0.0253125 0)
(14.3953 0.0249304 0)
(14.4271 0.0245703 0)
(14.4581 0.0242292 0)
(14.4882 0.0239051 0)
(14.5177 0.0235968 0)
(14.5465 0.0233035 0)
(14.5748 0.0230248 0)
(14.6025 0.0227604 0)
(14.6297 0.0225103 0)
(14.6564 0.0222752 0)
(14.6828 0.0220549 0)
(14.7088 0.0218487 0)
(14.7344 0.0216551 0)
(14.7597 0.0214724 0)
(14.7846 0.0212993 0)
(14.8093 0.0211343 0)
(14.8337 0.0209762 0)
(14.8578 0.020824 0)
(14.8817 0.0206766 0)
(14.9053 0.0205332 0)
(14.9287 0.0203924 0)
(14.9519 0.0202533 0)
(14.9748 0.0201151 0)
(14.9976 0.0199773 0)
(15.0201 0.0198394 0)
(15.0424 0.0197013 0)
(15.0645 0.0195628 0)
(15.0865 0.0194238 0)
(15.1082 0.0192842 0)
(15.1297 0.0191439 0)
(15.1511 0.0190027 0)
(15.1723 0.0188606 0)
(15.1933 0.0187177 0)
(15.2141 0.0185741 0)
(15.2348 0.0184301 0)
(15.2553 0.0182857 0)
(15.2757 0.0181413 0)
(15.2958 0.017997 0)
(15.3159 0.0178531 0)
(15.3357 0.0177097 0)
(15.3554 0.017567 0)
(15.375 0.0174252 0)
(15.3944 0.0172846 0)
(15.4137 0.0171451 0)
(15.4328 0.017007 0)
(15.4518 0.0168704 0)
(15.4706 0.0167353 0)
(15.4893 0.0166019 0)
(15.5079 0.0164702 0)
(15.5263 0.0163402 0)
(15.5446 0.016212 0)
(15.5628 0.0160856 0)
(15.5809 0.015961 0)
(15.5988 0.0158382 0)
(15.6166 0.0157171 0)
(15.6343 0.0155978 0)
(15.6519 0.01548 0)
(15.6693 0.0153639 0)
(15.6867 0.0152491 0)
(15.7039 0.015136 0)
(15.721 0.0150239 0)
(15.738 0.0149133 0)
(15.7549 0.0148032 0)
(15.7717 0.0146944 0)
(15.7884 0.0145855 0)
(15.805 0.0144781 0)
(15.8215 0.0143693 0)
(15.8379 0.0142629 0)
(15.8542 0.0141528 0)
(15.8704 0.014047 0)
(15.8866 0.0139328 0)
(15.9025 0.0138272 0)
(15.9186 0.0137037 0)
(15.9341 0.0135987 0)
(15.9503 0.0134576 0)
(15.9653 0.0133578 0)
(15.9818 0.0131859 0)
(15.9957 0.0131036 0)
(16.0134 0.0128756 0)
(16.025 0.0128351 0)
(16.0453 0.012492 0)
(16.0521 0.0125213 0)
(16.0786 0.0118951 0)
(12.0008 -0.00396824 0)
(12.0162 -0.0117554 0)
(12.0468 -0.0191126 0)
(12.0923 -0.0257764 0)
(12.1512 -0.0315877 0)
(12.2216 -0.0364892 0)
(12.3015 -0.0404682 0)
(12.3887 -0.0435267 0)
(12.4817 -0.045695 0)
(12.5785 -0.0470447 0)
(12.6776 -0.0476705 0)
(12.7776 -0.0476772 0)
(12.8774 -0.0471559 0)
(12.9758 -0.046189 0)
(13.0721 -0.0448407 0)
(13.1656 -0.0431771 0)
(13.2559 -0.0412537 0)
(13.3426 -0.0391266 0)
(13.4254 -0.0368406 0)
(13.5042 -0.0344478 0)
(13.579 -0.0320077 0)
(13.6499 -0.0295844 0)
(13.717 -0.0272363 0)
(13.7804 -0.0250181 0)
(13.8403 -0.0229715 0)
(13.8969 -0.0211325 0)
(13.9504 -0.0195189 0)
(14.001 -0.0181329 0)
(14.049 -0.0169614 0)
(14.0945 -0.0159862 0)
(14.1378 -0.0151853 0)
(14.1791 -0.0145373 0)
(14.2186 -0.014021 0)
(14.2565 -0.0136171 0)
(14.2929 -0.0133072 0)
(14.3279 -0.0130754 0)
(14.3618 -0.0129075 0)
(14.3945 -0.0127913 0)
(14.4264 -0.0127164 0)
(14.4573 -0.0126738 0)
(14.4875 -0.012655 0)
(14.5169 -0.012653 0)
(14.5458 -0.0126612 0)
(14.574 -0.0126746 0)
(14.6017 -0.0126888 0)
(14.6289 -0.0127005 0)
(14.6557 -0.0127072 0)
(14.6821 -0.0127072 0)
(14.7081 -0.0126991 0)
(14.7337 -0.0126827 0)
(14.759 -0.0126578 0)
(14.784 -0.0126242 0)
(14.8086 -0.012582 0)
(14.833 -0.0125313 0)
(14.8572 -0.0124722 0)
(14.881 -0.0124054 0)
(14.9047 -0.0123316 0)
(14.9281 -0.0122518 0)
(14.9512 -0.0121667 0)
(14.9742 -0.0120768 0)
(14.9969 -0.0119825 0)
(15.0194 -0.011884 0)
(15.0417 -0.0117818 0)
(15.0638 -0.0116763 0)
(15.0857 -0.011568 0)
(15.1075 -0.0114572 0)
(15.129 -0.0113441 0)
(15.1504 -0.0112289 0)
(15.1716 -0.011112 0)
(15.1926 -0.0109938 0)
(15.2134 -0.0108748 0)
(15.234 -0.0107555 0)
(15.2545 -0.0106361 0)
(15.2749 -0.010517 0)
(15.295 -0.0103984 0)
(15.315 -0.0102807 0)
(15.3349 -0.010164 0)
(15.3546 -0.0100485 0)
(15.3742 -0.0099344 0)
(15.3936 -0.0098218 0)
(15.4128 -0.00971082 0)
(15.4319 -0.00960157 0)
(15.4509 -0.00949411 0)
(15.4697 -0.00938855 0)
(15.4884 -0.0092849 0)
(15.507 -0.00918326 0)
(15.5254 -0.00908362 0)
(15.5437 -0.00898605 0)
(15.5619 -0.00889055 0)
(15.5799 -0.00879716 0)
(15.5978 -0.00870589 0)
(15.6156 -0.00861678 0)
(15.6333 -0.00852985 0)
(15.6509 -0.00844512 0)
(15.6683 -0.00836267 0)
(15.6857 -0.00828244 0)
(15.7029 -0.00820459 0)
(15.72 -0.00812899 0)
(15.737 -0.00805598 0)
(15.7539 -0.00798526 0)
(15.7707 -0.00791749 0)
(15.7874 -0.00785195 0)
(15.8039 -0.00778993 0)
(15.8204 -0.00772975 0)
(15.8368 -0.00767415 0)
(15.8531 -0.00761944 0)
(15.8693 -0.00757148 0)
(15.8854 -0.0075223 0)
(15.9013 -0.00748417 0)
(15.9174 -0.0074399 0)
(15.9329 -0.00741489 0)
(15.9491 -0.00737243 0)
(15.9641 -0.0073648 0)
(15.9806 -0.00731548 0)
(15.9945 -0.00733099 0)
(16.0121 -0.00725479 0)
(16.0238 -0.00729985 0)
(16.0441 -0.00715061 0)
(16.0509 -0.00722056 0)
(16.0773 -0.00688433 0)
(12.0008 -0.0121838 0)
(12.0168 -0.0361344 0)
(12.0486 -0.0587732 0)
(12.0957 -0.0792771 0)
(12.1565 -0.0971703 0)
(12.2288 -0.112277 0)
(12.3106 -0.124544 0)
(12.3998 -0.13397 0)
(12.4945 -0.140655 0)
(12.593 -0.14483 0)
(12.6935 -0.146813 0)
(12.7949 -0.146938 0)
(12.8957 -0.145516 0)
(12.9951 -0.142817 0)
(13.0923 -0.139074 0)
(13.1867 -0.1345 0)
(13.2776 -0.129285 0)
(13.3649 -0.1236 0)
(13.4482 -0.117596 0)
(13.5274 -0.111409 0)
(13.6025 -0.105153 0)
(13.6736 -0.0989252 0)
(13.7408 -0.092818 0)
(13.8042 -0.0869138 0)
(13.8641 -0.0812865 0)
(13.9206 -0.0759872 0)
(13.974 -0.071047 0)
(14.0245 -0.0664805 0)
(14.0724 -0.062291 0)
(14.1179 -0.0584729 0)
(14.1612 -0.0550137 0)
(14.2025 -0.0518961 0)
(14.242 -0.0490992 0)
(14.2799 -0.0465995 0)
(14.3163 -0.0443725 0)
(14.3514 -0.0423938 0)
(14.3853 -0.0406397 0)
(14.4182 -0.0390874 0)
(14.45 -0.037715 0)
(14.4811 -0.0365007 0)
(14.5113 -0.035424 0)
(14.5409 -0.0344658 0)
(14.5698 -0.0336097 0)
(14.5981 -0.0328414 0)
(14.6259 -0.0321478 0)
(14.6531 -0.0315177 0)
(14.68 -0.0309413 0)
(14.7064 -0.0304104 0)
(14.7324 -0.0299187 0)
(14.7581 -0.0294612 0)
(14.7834 -0.0290334 0)
(14.8083 -0.0286317 0)
(14.833 -0.0282527 0)
(14.8574 -0.0278934 0)
(14.8815 -0.027551 0)
(14.9053 -0.0272235 0)
(14.9288 -0.0269093 0)
(14.9521 -0.0266076 0)
(14.9752 -0.0263175 0)
(14.998 -0.0260384 0)
(15.0206 -0.0257692 0)
(15.043 -0.0255091 0)
(15.0651 -0.0252574 0)
(15.0871 -0.0250132 0)
(15.1088 -0.0247757 0)
(15.1303 -0.0245442 0)
(15.1516 -0.0243179 0)
(15.1726 -0.0240966 0)
(15.1935 -0.0238802 0)
(15.2142 -0.0236688 0)
(15.2347 -0.0234625 0)
(15.255 -0.0232612 0)
(15.2752 -0.0230649 0)
(15.2951 -0.0228736 0)
(15.3149 -0.0226869 0)
(15.3344 -0.0225048 0)
(15.3538 -0.0223271 0)
(15.373 -0.0221536 0)
(15.3921 -0.0219841 0)
(15.411 -0.0218185 0)
(15.4297 -0.0216566 0)
(15.4482 -0.0214983 0)
(15.4666 -0.0213435 0)
(15.4848 -0.0211921 0)
(15.5028 -0.021044 0)
(15.5207 -0.0208991 0)
(15.5384 -0.0207572 0)
(15.556 -0.0206184 0)
(15.5734 -0.0204826 0)
(15.5906 -0.0203497 0)
(15.6077 -0.0202197 0)
(15.6247 -0.0200926 0)
(15.6415 -0.0199684 0)
(15.6582 -0.0198469 0)
(15.6747 -0.0197284 0)
(15.6911 -0.0196126 0)
(15.7073 -0.0194998 0)
(15.7234 -0.0193896 0)
(15.7394 -0.0192829 0)
(15.7552 -0.0191783 0)
(15.7709 -0.019078 0)
(15.7865 -0.0189791 0)
(15.8019 -0.018886 0)
(15.8172 -0.0187923 0)
(15.8324 -0.0187079 0)
(15.8474 -0.0186182 0)
(15.8623 -0.0185449 0)
(15.8772 -0.0184566 0)
(15.8917 -0.0183993 0)
(15.9064 -0.0183059 0)
(15.9206 -0.0182732 0)
(15.9353 -0.01816 0)
(15.9489 -0.0181668 0)
(15.9638 -0.0180033 0)
(15.9764 -0.0180744 0)
(15.9921 -0.0177994 0)
(16.0027 -0.0179698 0)
(16.0207 -0.017458 0)
(16.0269 -0.0177313 0)
(16.0504 -0.0166923 0)
(12.0009 -0.0207587 0)
(12.018 -0.0614702 0)
(12.0522 -0.0998701 0)
(12.1026 -0.134663 0)
(12.1671 -0.165143 0)
(12.2435 -0.190968 0)
(12.3294 -0.211929 0)
(12.4228 -0.227957 0)
(12.5218 -0.239219 0)
(12.6244 -0.246114 0)
(12.7288 -0.249178 0)
(12.8338 -0.248986 0)
(12.938 -0.246093 0)
(13.0405 -0.241007 0)
(13.1404 -0.234218 0)
(13.2372 -0.226174 0)
(13.3302 -0.217278 0)
(13.4192 -0.20786 0)
(13.5038 -0.198194 0)
(13.5839 -0.18849 0)
(13.6597 -0.178908 0)
(13.731 -0.169568 0)
(13.7981 -0.160569 0)
(13.8611 -0.151982 0)
(13.9202 -0.143861 0)
(13.9756 -0.136233 0)
(14.0277 -0.129115 0)
(14.0767 -0.122513 0)
(14.1228 -0.116426 0)
(14.1663 -0.110842 0)
(14.2074 -0.105746 0)
(14.2463 -0.101113 0)
(14.2833 -0.0969171 0)
(14.3185 -0.0931253 0)
(14.3521 -0.0897061 0)
(14.3843 -0.0866263 0)
(14.4151 -0.083856 0)
(14.4448 -0.081368 0)
(14.4733 -0.0791358 0)
(14.5009 -0.0771292 0)
(14.5276 -0.0753191 0)
(14.5534 -0.0736782 0)
(14.5785 -0.0721845 0)
(14.6028 -0.0708176 0)
(14.6265 -0.0695608 0)
(14.6496 -0.0683974 0)
(14.6721 -0.0673123 0)
(14.694 -0.0662917 0)
(14.7153 -0.0653258 0)
(14.7362 -0.0644059 0)
(14.7566 -0.0635264 0)
(14.7765 -0.0626817 0)
(14.796 -0.0618681 0)
(14.815 -0.0610821 0)
(14.8336 -0.0603216 0)
(14.8518 -0.0595841 0)
(14.8696 -0.0588686 0)
(14.887 -0.0581734 0)
(14.904 -0.0574982 0)
(14.9207 -0.0568415 0)
(14.937 -0.0562028 0)
(14.9529 -0.0555807 0)
(14.9685 -0.0549747 0)
(14.9837 -0.0543834 0)
(14.9986 -0.0538062 0)
(15.0131 -0.0532407 0)
(15.0273 -0.0526862 0)
(15.0412 -0.0521414 0)
(15.0548 -0.0516068 0)
(15.068 -0.0510814 0)
(15.081 -0.0505658 0)
(15.0936 -0.0500591 0)
(15.1059 -0.0495619 0)
(15.118 -0.0490731 0)
(15.1297 -0.0485934 0)
(15.1411 -0.0481216 0)
(15.1523 -0.0476583 0)
(15.1632 -0.0472024 0)
(15.1738 -0.0467545 0)
(15.1841 -0.0463134 0)
(15.1942 -0.0458799 0)
(15.2039 -0.0454526 0)
(15.2135 -0.0450325 0)
(15.2227 -0.0446182 0)
(15.2318 -0.0442106 0)
(15.2405 -0.0438085 0)
(15.2491 -0.0434127 0)
(15.2573 -0.043022 0)
(15.2654 -0.0426375 0)
(15.2732 -0.0422576 0)
(15.2808 -0.0418837 0)
(15.2881 -0.0415142 0)
(15.2953 -0.0411506 0)
(15.3022 -0.0407909 0)
(15.3089 -0.0404372 0)
(15.3153 -0.0400872 0)
(15.3216 -0.0397432 0)
(15.3277 -0.0394025 0)
(15.3336 -0.0390683 0)
(15.3392 -0.0387366 0)
(15.3447 -0.0384124 0)
(15.35 -0.0380893 0)
(15.3551 -0.0377759 0)
(15.36 -0.0374604 0)
(15.3647 -0.0371594 0)
(15.3693 -0.0368494 0)
(15.3737 -0.0365641 0)
(15.3779 -0.0362548 0)
(15.3819 -0.0359918 0)
(15.3858 -0.0356722 0)
(15.3894 -0.0354446 0)
(15.393 -0.0350907 0)
(15.3963 -0.034923 0)
(15.3997 -0.034485 0)
(15.4025 -0.0344221 0)
(15.4058 -0.0338008 0)
(15.4079 -0.0339168 0)
(15.4113 -0.0329199 0)
(15.4125 -0.0332835 0)
(15.4165 -0.0314962 0)
(12.001 -0.0299718 0)
(12.0201 -0.0877834 0)
(12.0584 -0.141345 0)
(12.1149 -0.189725 0)
(12.1873 -0.232597 0)
(12.2733 -0.269466 0)
(12.3701 -0.299781 0)
(12.4749 -0.323304 0)
(12.5846 -0.340232 0)
(12.6961 -0.351019 0)
(12.8069 -0.356212 0)
(12.915 -0.356461 0)
(13.0189 -0.352389 0)
(13.1172 -0.344632 0)
(13.2094 -0.333878 0)
(13.2947 -0.320829 0)
(13.373 -0.30614 0)
(13.4444 -0.290395 0)
(13.5089 -0.274095 0)
(13.5668 -0.257661 0)
(13.6186 -0.241446 0)
(13.6645 -0.225733 0)
(13.7051 -0.210736 0)
(13.7407 -0.196608 0)
(13.7717 -0.183443 0)
(13.7987 -0.171292 0)
(13.8219 -0.160169 0)
(13.8418 -0.150061 0)
(13.8586 -0.140934 0)
(13.8727 -0.132738 0)
(13.8844 -0.125409 0)
(13.8939 -0.118879 0)
(13.9014 -0.113075 0)
(13.9071 -0.107921 0)
(13.9113 -0.103346 0)
(13.914 -0.099281 0)
(13.9154 -0.095659 0)
(13.9156 -0.0924341 0)
(13.9148 -0.0895623 0)
(13.9129 -0.0869973 0)
(13.9102 -0.084694 0)
(13.9067 -0.0826121 0)
(13.9023 -0.0807174 0)
(13.8973 -0.0789806 0)
(13.8917 -0.0773766 0)
(13.8854 -0.0758842 0)
(13.8785 -0.0744858 0)
(13.8712 -0.0731663 0)
(13.8633 -0.0719124 0)
(13.855 -0.0707128 0)
(13.8462 -0.0695581 0)
(13.8371 -0.0684406 0)
(13.8275 -0.0673544 0)
(13.8176 -0.0662947 0)
(13.8074 -0.0652578 0)
(13.7969 -0.0642408 0)
(13.786 -0.0632415 0)
(13.7749 -0.0622577 0)
(13.7635 -0.0612881 0)
(13.7519 -0.0603313 0)
(13.7401 -0.0593867 0)
(13.728 -0.0584539 0)
(13.7158 -0.0575327 0)
(13.7033 -0.0566233 0)
(13.6907 -0.0557261 0)
(13.6779 -0.0548396 0)
(13.665 -0.0539632 0)
(13.652 -0.0530963 0)
(13.6388 -0.0522392 0)
(13.6255 -0.0513922 0)
(13.6121 -0.0505553 0)
(13.5986 -0.0497285 0)
(13.585 -0.0489119 0)
(13.5714 -0.0481055 0)
(13.5577 -0.0473096 0)
(13.5439 -0.0465242 0)
(13.53 -0.0457497 0)
(13.5162 -0.0449862 0)
(13.5022 -0.0442338 0)
(13.4883 -0.0434927 0)
(13.4743 -0.0427632 0)
(13.4603 -0.0420451 0)
(13.4463 -0.0413388 0)
(13.4323 -0.0406442 0)
(13.4183 -0.0399615 0)
(13.4042 -0.0392906 0)
(13.3902 -0.0386317 0)
(13.3762 -0.0379844 0)
(13.3623 -0.0373493 0)
(13.3483 -0.0367258 0)
(13.3344 -0.0361143 0)
(13.3205 -0.0355144 0)
(13.3067 -0.0349264 0)
(13.2929 -0.0343498 0)
(13.2791 -0.0337851 0)
(13.2654 -0.0332314 0)
(13.2517 -0.0326898 0)
(13.2381 -0.0321587 0)
(13.2245 -0.0316399 0)
(13.211 -0.0311309 0)
(13.1976 -0.0306348 0)
(13.1842 -0.0301474 0)
(13.1709 -0.0296739 0)
(13.1576 -0.0292072 0)
(13.1445 -0.0287569 0)
(13.1313 -0.0283093 0)
(13.1183 -0.0278831 0)
(13.1053 -0.0274513 0)
(13.0925 -0.0270521 0)
(13.0796 -0.0266289 0)
(13.067 -0.0262624 0)
(13.0541 -0.0258315 0)
(13.0419 -0.0255095 0)
(13.0288 -0.0250348 0)
(13.0173 -0.0247818 0)
(13.0035 -0.0241848 0)
(12.9936 -0.0240495 0)
(12.9778 -0.0231606 0)
(12.9716 -0.0232212 0)
(12.9507 -0.0216602 0)
(12.0022 -0.0494948 0)
(12.0395 -0.137674 0)
(12.1047 -0.214031 0)
(12.1874 -0.281002 0)
(12.2771 -0.339279 0)
(12.3646 -0.38773 0)
(12.4425 -0.425514 0)
(12.5054 -0.452795 0)
(12.5505 -0.470568 0)
(12.5766 -0.479951 0)
(12.5847 -0.482065 0)
(12.5758 -0.478054 0)
(12.5518 -0.468897 0)
(12.515 -0.455519 0)
(12.4673 -0.438833 0)
(12.4106 -0.419678 0)
(12.3467 -0.398798 0)
(12.2775 -0.376822 0)
(12.2042 -0.354295 0)
(12.1281 -0.331679 0)
(12.0502 -0.30935 0)
(11.9715 -0.287634 0)
(11.8926 -0.266764 0)
(11.814 -0.24691 0)
(11.7361 -0.228195 0)
(11.6593 -0.210689 0)
(11.5839 -0.194423 0)
(11.5099 -0.179399 0)
(11.4374 -0.16559 0)
(11.3666 -0.152951 0)
(11.2975 -0.141425 0)
(11.23 -0.130943 0)
(11.1642 -0.121434 0)
(11.1 -0.112821 0)
(11.0374 -0.10503 0)
(10.9763 -0.0979861 0)
(10.9167 -0.0916177 0)
(10.8585 -0.0858472 0)
(10.8017 -0.0806046 0)
(10.7462 -0.0758328 0)
(10.692 -0.0714853 0)
(10.6391 -0.0675203 0)
(10.5874 -0.063899 0)
(10.5369 -0.0605852 0)
(10.4876 -0.0575457 0)
(10.4393 -0.0547533 0)
(10.3922 -0.0521851 0)
(10.3461 -0.0498192 0)
(10.301 -0.0476358 0)
(10.257 -0.0456161 0)
(10.2139 -0.0437431 0)
(10.1718 -0.0420015 0)
(10.1307 -0.0403778 0)
(10.0905 -0.0388602 0)
(10.0512 -0.037438 0)
(10.0128 -0.036102 0)
(9.97521 -0.0348439 0)
(9.93851 -0.0336563 0)
(9.90263 -0.0325326 0)
(9.86757 -0.0314672 0)
(9.8333 -0.030455 0)
(9.7998 -0.0294916 0)
(9.76706 -0.028573 0)
(9.73506 -0.027696 0)
(9.70377 -0.0268581 0)
(9.67319 -0.0260585 0)
(9.6433 -0.0252966 0)
(9.61408 -0.0245704 0)
(9.58551 -0.0238775 0)
(9.55757 -0.0232155 0)
(9.53026 -0.022582 0)
(9.50354 -0.0219749 0)
(9.47742 -0.0213924 0)
(9.45187 -0.0208329 0)
(9.42688 -0.0202951 0)
(9.40243 -0.0197777 0)
(9.3785 -0.0192798 0)
(9.35509 -0.0188003 0)
(9.33218 -0.0183384 0)
(9.30976 -0.0178933 0)
(9.2878 -0.0174643 0)
(9.26631 -0.0170508 0)
(9.24526 -0.0166521 0)
(9.22465 -0.0162675 0)
(9.20445 -0.0158968 0)
(9.18467 -0.0155391 0)
(9.16528 -0.0151942 0)
(9.14628 -0.0148615 0)
(9.12766 -0.0145407 0)
(9.1094 -0.0142311 0)
(9.09149 -0.0139327 0)
(9.07393 -0.0136448 0)
(9.0567 -0.0133671 0)
(9.0398 -0.0130994 0)
(9.02321 -0.0128413 0)
(9.00693 -0.0125924 0)
(8.99094 -0.0123525 0)
(8.97524 -0.0121214 0)
(8.95982 -0.0118986 0)
(8.94468 -0.0116842 0)
(8.9298 -0.0114774 0)
(8.91517 -0.0112789 0)
(8.90079 -0.011087 0)
(8.88665 -0.0109037 0)
(8.87275 -0.0107254 0)
(8.85907 -0.010557 0)
(8.84562 -0.0103906 0)
(8.83235 -0.0102371 0)
(8.81935 -0.0100796 0)
(8.80645 -0.00994175 0)
(8.79392 -0.00978678 0)
(8.78128 -0.00966633 0)
(8.76931 -0.00950111 0)
(8.75673 -0.00939989 0)
(8.74563 -0.00919891 0)
(8.73263 -0.00911476 0)
(8.72316 -0.00883509 0)
(8.70858 -0.00875014 0)
(8.70281 -0.00837163 0)