/*--------------------------------*- C++ -*----------------------------------*\
  =========                 |
  \\      /  F ield         | OpenFOAM: The Open Source CFD Toolbox
   \\    /   O peration     | Website:  https://openfoam.org
    \\  /    A nd           | Version:  7
     \\/     M anipulation  |
\*---------------------------------------------------------------------------*/
FoamFile
{
    version     2.0;
    format      ascii;
    class       volSymmTensorField;
    location    "7.25";
    object      UPrime2Mean;
}
// * * * * * * * * * * * * * * * * * * * * * * * * * * * * * * * * * * * * * //

dimensions      [0 2 -2 0 0 0 0];

internalField   nonuniform List<symmTensor> 
7920
(
(0.0178305 0.022431 -0.0804797 0.029891 -0.11494 0.480344)
(0.00251012 0.00894432 -0.0179005 0.0442951 -0.1184 0.390561)
(0.0116837 0.020898 -0.0366538 0.0530648 -0.136905 0.451382)
(0.00456226 0.0111187 -0.0164231 0.051116 -0.13436 0.450353)
(0.0076422 0.0143607 -0.0190368 0.0528825 -0.137315 0.458478)
(0.00471004 0.00922315 -0.0080313 0.0519425 -0.136202 0.457499)
(0.00569061 0.00972718 -0.00679499 0.052543 -0.137287 0.460092)
(0.00440763 0.00672313 -0.000226537 0.052177 -0.137013 0.459918)
(0.00465465 0.00619472 0.00195946 0.0523595 -0.137494 0.460712)
(0.00406016 0.00422164 0.00611782 0.0521997 -0.137448 0.460665)
(0.00409424 0.00340349 0.00810914 0.05223 -0.137697 0.460865)
(0.00378796 0.00193123 0.0108737 0.0521331 -0.137753 0.460824)
(0.00378818 0.00110085 0.0124236 0.0520516 -0.13783 0.460878)
(0.00361198 -0.000175119 0.0145415 0.0519944 -0.137904 0.460896)
(0.00366675 -0.000914496 0.0156268 0.0517628 -0.137877 0.460713)
(0.00357466 -0.00234357 0.0179089 0.0517201 -0.138005 0.460922)
(0.00370779 -0.00295099 0.018575 0.0511663 -0.137672 0.460289)
(0.00382574 -0.0050667 0.0223893 0.0511417 -0.13796 0.461043)
(0.00391685 -0.00558184 0.0224509 0.049589 -0.136668 0.459004)
(0.0043631 -0.00773086 0.0265272 0.0493118 -0.135439 0.45461)
(0.023961 -0.0157539 -0.00197809 0.0135887 0.0187839 0.102535)
(0.00166205 0.00393925 -0.00195925 0.0155911 -0.010421 0.26247)
(0.0160729 -0.010109 0.0685139 0.0149174 -0.0110127 0.436031)
(0.00291883 -0.00060869 0.0279547 0.0156141 -0.0121011 0.436775)
(0.0106654 -0.005367 0.0642922 0.0150321 -0.0125712 0.492249)
(0.00530441 -0.000733563 0.0413657 0.0153258 -0.0124516 0.479005)
(0.00844821 -0.00215321 0.0559825 0.015128 -0.0124039 0.492394)
(0.00662351 0.000335691 0.044858 0.0152467 -0.0122613 0.483667)
(0.00801987 0.000209934 0.0502325 0.0151771 -0.0120091 0.484116)
(0.00762894 0.00177137 0.0444599 0.015233 -0.0118975 0.47863)
(0.00846086 0.00214084 0.0458123 0.0152164 -0.0116458 0.474546)
(0.00865156 0.00334217 0.0416979 0.0152335 -0.0113667 0.4688)
(0.0093675 0.00387183 0.0412154 0.0152421 -0.0109936 0.460317)
(0.00989341 0.00501888 0.0370304 0.0152361 -0.0107093 0.455277)
(0.0106794 0.0055488 0.0358324 0.0152682 -0.00997261 0.439269)
(0.0117067 0.00699182 0.0303077 0.0152169 -0.0094684 0.433638)
(0.0125612 0.00740819 0.0289867 0.0153191 -0.00801755 0.403583)
(0.0151303 0.00980252 0.0212802 0.015125 -0.00688604 0.395616)
(0.0155865 0.0100622 0.0196596 0.0155251 -0.00267872 0.329382)
(0.023789 0.0154434 0.0140988 0.015834 0.00181315 0.302436)
(0.0374866 0.00820945 -0.00128754 0.00337891 -0.0128289 0.107528)
(0.0143319 -0.00510399 -0.0414317 0.00621391 -0.01133 0.341568)
(0.007628 0.00552391 0.057109 0.010371 0.0132313 0.665847)
(0.00471205 -0.00473569 -0.0178667 0.00911378 0.0111689 0.759133)
(0.003975 0.000216831 0.0400411 0.0104718 0.0183134 0.85115)
(0.00485791 -0.00445611 -0.000544065 0.0100071 0.0169634 0.8538)
(0.00505852 -0.00284574 0.0221785 0.0104164 0.0188775 0.867444)
(0.00673887 -0.00524593 0.00241498 0.010239 0.0180098 0.856826)
(0.00744727 -0.00498469 0.0105996 0.0103579 0.0182249 0.849274)
(0.00930446 -0.00645305 0.000503112 0.010277 0.0176187 0.838964)
(0.0104433 -0.00672017 0.00273319 0.0102938 0.017293 0.825176)
(0.0125133 -0.00785857 -0.0042352 0.0102526 0.0167198 0.813673)
(0.0139767 -0.00829776 -0.0043215 0.0102003 0.0158178 0.791695)
(0.0166508 -0.00945559 -0.0116222 0.0101846 0.0153962 0.780959)
(0.0183134 -0.00985338 -0.0119152 0.0100445 0.0138547 0.745534)
(0.0226744 -0.0114405 -0.0219243 0.0100705 0.0135857 0.733645)
(0.0241421 -0.0115108 -0.0205283 0.00972792 0.0109588 0.672917)
(0.0335075 -0.0144053 -0.0351123 0.00987762 0.0110873 0.652247)
(0.0329803 -0.0134778 -0.0281299 0.00911958 0.00709451 0.534176)
(0.0599762 -0.0193919 -0.0315446 0.00903779 0.00241869 0.423829)
(0.0359847 -0.00842116 -0.000530233 0.00243801 0.00643668 0.0977816)
(0.0237839 0.00847091 -0.0384083 0.00351379 -0.00812757 0.230095)
(0.00169895 -0.000961795 0.0113402 0.00272866 -0.00780709 0.536567)
(0.0131152 0.00453094 -0.0475993 0.0025833 -0.00682553 0.580695)
(0.00424892 0.00185604 -0.0149187 0.00235162 -0.00561001 0.702036)
(0.012437 0.00382708 -0.0449963 0.00230538 -0.00349629 0.69011)
(0.00961893 0.0031127 -0.0318594 0.00227406 -0.00349836 0.716408)
(0.0149734 0.00408363 -0.0459808 0.00227172 -0.00271802 0.695868)
(0.0149594 0.00398422 -0.0407305 0.00227036 -0.0028035 0.690282)
(0.0189726 0.00461893 -0.0474215 0.00227615 -0.00257743 0.673175)
(0.020357 0.00477652 -0.0452573 0.00228162 -0.00262217 0.657115)
(0.0241464 0.00530864 -0.0495732 0.00228666 -0.00244294 0.641936)
(0.0262541 0.00556942 -0.0481984 0.00229365 -0.00227037 0.615497)
(0.0308245 0.00614102 -0.0528881 0.0022938 -0.00213215 0.603275)
(0.0332107 0.00642375 -0.0504079 0.00230451 -0.00170634 0.562139)
(0.0401579 0.00718888 -0.0564725 0.00229334 -0.00141885 0.550398)
(0.04208 0.00738312 -0.0505775 0.00230673 -0.000438168 0.486972)
(0.0550661 0.00867947 -0.0559425 0.00227268 0.000332697 0.461453)
(0.0545671 0.00811886 -0.0446769 0.00217579 0.00338763 0.381617)
(0.0812374 0.0115532 -0.013152 0.00254381 0.0080539 0.261589)
(0.0401178 0.00371615 -0.00426942 0.000612951 -0.00526246 0.106122)
(0.0285329 -0.00182814 -0.0352812 0.00125509 -0.00865218 0.188377)
(0.00199396 0.000519482 -0.00826168 0.00216878 0.000302202 0.471046)
(0.0224331 -0.00379084 -0.066487 0.00185713 -0.00194042 0.505222)
(0.0105172 -0.00249789 -0.0493503 0.0022073 0.00185773 0.624407)
(0.0237083 -0.00447575 -0.0762558 0.00212684 0.00159132 0.616109)
(0.0197544 -0.0040332 -0.068975 0.00222955 0.00274297 0.642667)
(0.0276028 -0.00504871 -0.0806973 0.00220215 0.00254363 0.621935)
(0.0274607 -0.00500261 -0.0770184 0.00223025 0.00268789 0.614202)
(0.0329513 -0.00563433 -0.0819055 0.00221761 0.00247084 0.595053)
(0.0346804 -0.00576742 -0.0793625 0.00222136 0.00230361 0.57626)
(0.0397143 -0.00627693 -0.0821243 0.0022146 0.0020496 0.559568)
(0.042371 -0.00645947 -0.0792213 0.00220117 0.00156624 0.531091)
(0.0484024 -0.00701757 -0.0824638 0.00219801 0.00137106 0.518135)
(0.051356 -0.00715217 -0.077573 0.00216089 0.000526334 0.47662)
(0.0604806 -0.00796438 -0.081669 0.00216753 0.000390746 0.464179)
(0.0626581 -0.00785963 -0.0727773 0.00206941 -0.000994782 0.407059)
(0.0794344 -0.00936271 -0.072818 0.00210685 -0.0012354 0.375377)
(0.078203 -0.0086792 -0.0612598 0.00186853 -0.00252005 0.32539)
(0.110671 -0.0117455 -0.00634881 0.00193988 -0.00638965 0.206748)
(0.0400933 -0.00438324 -0.00303616 0.00060354 0.00339954 0.103591)
(0.029249 0.00428011 -0.0299461 0.000907315 0.000145627 0.165655)
(0.00272313 5.14627e-05 -0.0153881 0.00121871 -0.0037558 0.413612)
(0.0273708 0.00375592 -0.0681905 0.00104094 -0.00201117 0.435255)
(0.0158006 0.00227089 -0.0610832 0.00105069 -0.00226814 0.542316)
(0.0314861 0.00341906 -0.0847468 0.000998553 -0.000837246 0.535783)
(0.0277535 0.00303831 -0.0815969 0.00101457 -0.00109278 0.559426)
(0.0367245 0.00359392 -0.0911248 0.00100229 -0.000553505 0.539987)
(0.0368049 0.00355894 -0.0884871 0.00101048 -0.000653267 0.530846)
(0.0429346 0.00394498 -0.0917801 0.00100925 -0.000481492 0.511702)
(0.0449501 0.00405291 -0.088896 0.00101268 -0.00047453 0.492229)
(0.0505216 0.00439003 -0.0902136 0.00101334 -0.000329127 0.475523)
(0.0535203 0.00454593 -0.0862872 0.0010121 -0.000129003 0.447943)
(0.0601674 0.00493347 -0.0880496 0.00101196 -3.36178e-05 0.435342)
(0.0634877 0.00507855 -0.081734 0.00100549 0.000399252 0.396837)
(0.073377 0.0056359 -0.0836243 0.00100487 0.000525049 0.384693)
(0.075927 0.0056337 -0.0736327 0.000980003 0.00135642 0.335865)
(0.0933979 0.0066531 -0.0685919 0.000985061 0.00169803 0.303723)
(0.0928036 0.00589207 -0.0588922 0.00087053 0.00317426 0.271655)
(0.123502 0.00832679 0.00870467 0.00102969 0.00646732 0.171745)
(0.0400945 0.00438384 -0.00303528 0.000603662 -0.00339938 0.10359)
(0.0292484 -0.00428098 -0.0299439 0.000907706 -0.000145115 0.165642)
(0.00272316 -5.14846e-05 -0.0153882 0.00121902 0.00375732 0.413601)
(0.0273682 -0.00375623 -0.0681901 0.00104126 0.0020137 0.435261)
(0.015801 -0.00227243 -0.0610893 0.00105201 0.00228045 0.542343)
(0.0314913 -0.00342111 -0.0847574 0.000998585 0.00084462 0.535802)
(0.027753 -0.00303528 -0.0815837 0.00101315 0.00107397 0.559351)
(0.0367224 -0.00359137 -0.0911104 0.00100177 0.000540865 0.539915)
(0.0368064 -0.00355938 -0.0884896 0.00101008 0.000654824 0.530854)
(0.0429345 -0.00394203 -0.0917799 0.0010086 0.000468359 0.511706)
(0.0449487 -0.00404995 -0.0888797 0.0010118 0.000458377 0.492146)
(0.050521 -0.0043812 -0.0901629 0.00101109 0.000288735 0.475169)
(0.0535205 -0.00454451 -0.0862908 0.00101166 0.000124823 0.447965)
(0.0601649 -0.00493351 -0.0880532 0.00101203 3.62199e-05 0.435396)
(0.063487 -0.00507414 -0.081716 0.00100408 -0.000412966 0.396736)
(0.0733784 -0.00562985 -0.0836201 0.00100367 -0.000535759 0.384652)
(0.0759217 -0.00563418 -0.0736245 0.000973448 -0.00132469 0.336033)
(0.0933917 -0.00660711 -0.0685612 0.000980334 -0.00178175 0.303507)
(0.0928212 -0.00584536 -0.0587738 0.000833526 -0.00299399 0.271341)
(0.123542 -0.00810503 0.00862819 0.000986977 -0.00656001 0.172749)
(0.0401162 -0.00371575 -0.004268 0.000612885 0.00526221 0.106119)
(0.0285333 0.00183085 -0.0352658 0.00125596 0.00865162 0.188341)
(0.00199397 -0.000519666 -0.0082622 0.00216956 -0.000302553 0.470998)
(0.0224345 0.00379194 -0.0664917 0.00185759 0.00193496 0.505218)
(0.0105167 0.00249926 -0.0493522 0.00220887 -0.00187712 0.624457)
(0.0237065 0.0044761 -0.0762535 0.00212718 -0.00159284 0.616155)
(0.019756 0.00403492 -0.0689641 0.0022299 -0.00274538 0.642516)
(0.0276029 0.00505102 -0.0806789 0.00220276 -0.00254975 0.621788)
(0.0274598 0.00500229 -0.0770132 0.00223005 -0.00268347 0.614214)
(0.0329518 0.00564003 -0.0819078 0.00222031 -0.00250058 0.595055)
(0.0346817 0.00576875 -0.0793531 0.0022219 -0.00230567 0.576141)
(0.0397131 0.00627375 -0.0820603 0.0022148 -0.00201642 0.559009)
(0.0423673 0.00646138 -0.079216 0.00220188 -0.0015761 0.531147)
(0.0484048 0.00702075 -0.0824782 0.00219904 -0.00138676 0.518199)
(0.0513569 0.00715353 -0.0775476 0.0021622 -0.000525523 0.476425)
(0.0604764 0.00797007 -0.0816397 0.00216798 -0.000397524 0.464003)
(0.0626756 0.00786158 -0.0727957 0.00207629 0.00101689 0.407479)
(0.0794441 0.00940647 -0.0727514 0.00211217 0.00116365 0.374729)
(0.0782882 0.00872239 -0.06104 0.00190869 0.00269538 0.324273)
(0.110912 0.0119631 -0.00661943 0.00199222 0.00635142 0.210423)
(0.0359837 0.00842109 -0.000529493 0.002438 -0.00643615 0.0977783)
(0.0237839 -0.00847334 -0.0383953 0.00351577 0.00812554 0.230059)
(0.00169913 0.000962266 0.0113392 0.00272964 0.00780896 0.536518)
(0.0131142 -0.00453183 -0.0476031 0.00258442 0.00683608 0.580717)
(0.00424899 -0.00185719 -0.0149246 0.00235489 0.00565206 0.702213)
(0.0124397 -0.00382909 -0.0450087 0.0023058 0.00351239 0.690158)
(0.00961915 -0.00311193 -0.0318516 0.00227294 0.00347786 0.716282)
(0.0149714 -0.00408365 -0.045966 0.00227217 0.00271583 0.695808)
(0.0149607 -0.00398552 -0.0407341 0.00227026 0.00281424 0.690283)
(0.0189726 -0.00461948 -0.0474192 0.00227681 0.00257665 0.673204)
(0.0203542 -0.00477548 -0.0452379 0.00228175 0.00260658 0.657057)
(0.0241459 -0.00530626 -0.0495461 0.00228619 0.00241525 0.641571)
(0.0262538 -0.00556908 -0.0482003 0.0022934 0.00226889 0.615549)
(0.0308235 -0.00614134 -0.0528839 0.00229386 0.00213481 0.603314)
(0.0332102 -0.00642254 -0.0503967 0.00230351 0.00170201 0.562116)
(0.0401583 -0.00718571 -0.0564475 0.00229185 0.00140265 0.550073)
(0.0420885 -0.00738061 -0.0505594 0.00229983 0.000465005 0.487588)
(0.0550789 -0.00866507 -0.0559132 0.00226721 -0.000415987 0.460816)
(0.0546539 -0.00807996 -0.0445023 0.00212947 -0.00314822 0.379943)
(0.0815225 -0.0114461 -0.0131687 0.00249463 -0.00845644 0.269496)
(0.0374872 -0.00820963 -0.00128811 0.00337898 0.0128289 0.107525)
(0.0143316 0.0051046 -0.0414315 0.00621437 0.0113265 0.341556)
(0.00762766 -0.00552388 0.0571086 0.0103715 -0.013233 0.665828)
(0.00471194 0.00473603 -0.0178692 0.00911485 -0.0111846 0.759187)
(0.00397537 -0.000218203 0.0400556 0.0104757 -0.018366 0.851459)
(0.0048582 0.00445684 -0.000548368 0.0100084 -0.0169786 0.853953)
(0.00505859 0.00284548 0.0221764 0.010419 -0.0188878 0.867292)
(0.00673897 0.00524628 0.00242443 0.0102418 -0.0180367 0.856839)
(0.0074474 0.00498458 0.0106026 0.0103588 -0.0182382 0.849403)
(0.0093045 0.00645418 0.00050619 0.0102875 -0.0176747 0.838844)
(0.0104435 0.00672073 0.00273301 0.0102981 -0.0173078 0.824941)
(0.0125133 0.00785979 -0.00421777 0.0102603 -0.0167158 0.813211)
(0.0139762 0.00829788 -0.00430092 0.0102028 -0.0158333 0.791717)
(0.0166516 0.00945651 -0.0116263 0.0101861 -0.0154097 0.780957)
(0.0183146 0.00985475 -0.0119095 0.0100471 -0.0138656 0.745442)
(0.0226779 0.0114445 -0.0219047 0.0100722 -0.0135806 0.733311)
(0.0241538 0.0115164 -0.020525 0.0097374 -0.0109793 0.673559)
(0.0335502 0.0144383 -0.0351044 0.00988792 -0.0111239 0.651549)
(0.0330658 0.0135347 -0.0282297 0.00918303 -0.00704895 0.532651)
(0.0604294 0.0196096 -0.030963 0.00912564 -0.00240792 0.437639)
(0.0239603 0.0157537 -0.00197969 0.0135887 -0.0187842 0.102529)
(0.00166209 -0.00393907 -0.00195831 0.0155893 0.0104147 0.26245)
(0.0160734 0.0101088 0.068512 0.0149167 0.0110101 0.436003)
(0.00291945 0.000609032 0.02796 0.0156143 0.0121053 0.436765)
(0.0106647 0.00536854 0.0642964 0.0150334 0.0125892 0.492326)
(0.00530255 0.000735078 0.0413566 0.0153288 0.0124783 0.479114)
(0.00845092 0.00215349 0.0559722 0.0151303 0.0123765 0.492077)
(0.00662579 -0.000333192 0.0448684 0.0152508 0.0122696 0.483631)
(0.00801788 -0.000205409 0.0502395 0.0151853 0.0120752 0.484441)
(0.00763222 -0.00176996 0.0444643 0.0152442 0.0118736 0.478268)
(0.00846348 -0.00213976 0.0458164 0.0152207 0.0116235 0.474318)
(0.00865259 -0.0033381 0.0417061 0.0152446 0.0113875 0.468816)
(0.00937104 -0.00386973 0.0412367 0.0152439 0.0109929 0.460303)
(0.00989489 -0.00501939 0.037035 0.0152362 0.0106951 0.455143)
(0.0106801 -0.00554963 0.0358245 0.0152673 0.00994964 0.438974)
(0.01171 -0.00699335 0.0303121 0.0152161 0.009463 0.433521)
(0.0125667 -0.00740934 0.0290018 0.0153158 0.00803452 0.403842)
(0.0151576 -0.00982029 0.0212523 0.0151177 0.0068309 0.395099)
(0.0156152 -0.0100617 0.019586 0.0154825 0.00275505 0.32918)
(0.0242363 -0.0155993 0.0150431 0.0157658 -0.00236442 0.310539)
(0.0178306 -0.022431 -0.080479 0.0298909 0.11494 0.480343)
(0.00251014 -0.00894377 -0.0179014 0.0442915 0.118402 0.390577)
(0.0116836 -0.0208972 -0.0366544 0.0530627 0.136906 0.451391)
(0.00456272 -0.0111191 -0.0164235 0.0511161 0.134362 0.450361)
(0.00764265 -0.0143618 -0.0190381 0.0528842 0.137319 0.458499)
(0.00471206 -0.00922846 -0.00805452 0.0519539 0.136242 0.457514)
(0.0056949 -0.00973668 -0.0068638 0.0525643 0.137399 0.460105)
(0.00440893 -0.00673019 -0.000261515 0.0521949 0.137073 0.459957)
(0.0046592 -0.00620747 0.00192863 0.0523849 0.137551 0.46081)
(0.00406678 -0.00423889 0.00604565 0.0522605 0.137676 0.461091)
(0.00409544 -0.00340947 0.00807642 0.0522506 0.137794 0.461073)
(0.00378965 -0.00194139 0.0108553 0.0521822 0.137901 0.461302)
(0.0037893 -0.00110251 0.0124153 0.0520605 0.137871 0.460953)
(0.00361286 0.000174708 0.0145323 0.051998 0.13793 0.460901)
(0.00366681 0.000914659 0.0156062 0.0517662 0.137913 0.460671)
(0.00357399 0.00234615 0.0179063 0.0517226 0.138017 0.460912)
(0.00370762 0.00295588 0.0185855 0.0511706 0.13767 0.460306)
(0.0038288 0.00509618 0.0224277 0.0511425 0.137971 0.461051)
(0.00391819 0.00561608 0.0224779 0.0495776 0.13656 0.458607)
(0.00446964 0.00796479 0.0269314 0.0493152 0.135503 0.454148)
(0.0150357 0.0289438 0.00335501 0.0646741 0.0062663 0.00183921)
(0.0179016 -0.0296859 6.20241e-05 0.0965471 0.00449779 0.00155346)
(0.00610272 -0.0138967 -5.23383e-05 0.0989289 0.0069948 0.0017928)
(0.0169443 -0.0251576 0.000186702 0.0988908 0.00541526 0.00163549)
(0.0113574 -0.0181372 -0.000109354 0.0983188 0.0064898 0.00173393)
(0.0140979 -0.0181859 0.000249249 0.0984484 0.00579813 0.00166872)
(0.0121725 -0.015141 8.26137e-05 0.0981734 0.00624313 0.00170844)
(0.0127353 -0.0132068 0.000310105 0.0982567 0.00593746 0.00168097)
(0.0118548 -0.0109731 0.000255637 0.0980865 0.00610626 0.00169526)
(0.0119008 -0.00892457 0.000384774 0.0981245 0.00596109 0.00168277)
(0.0114143 -0.00701585 0.000383056 0.0980324 0.00600291 0.00168577)
(0.0114119 -0.0052742 0.00045124 0.0980421 0.0059227 0.0016792)
(0.0111055 -0.00361826 0.000469381 0.0979535 0.00589282 0.00167637)
(0.0112825 -0.00232551 0.000496875 0.097945 0.00583866 0.00167205)
(0.0110915 -0.000935269 0.000519132 0.0978231 0.00574693 0.00166432)
(0.0116289 -0.000394419 0.000506214 0.0978263 0.00570424 0.00166079)
(0.011445 0.000927172 0.000526707 0.097557 0.00552839 0.00164587)
(0.0124815 -0.000121098 0.000446911 0.0975631 0.00549515 0.00164293)
(0.0112288 0.00191471 0.000473267 0.0954824 0.00515793 0.00161505)
(0.0112757 0.00657402 0.00067119 0.0955844 0.00506513 0.0016114)
(0.0565763 -0.016836 0.0026963 0.0123452 -0.00121097 0.0012939)
(0.0157564 0.0131379 0.00141943 0.0279721 0.000132082 0.00125667)
(0.00365529 -0.00478646 0.0009901 0.0278728 -0.00117963 0.00127593)
(0.0164836 0.00822533 0.00134067 0.0325097 -0.000268462 0.00125456)
(0.0101896 0.00310873 0.000813437 0.0311559 -0.000911016 0.00125613)
(0.0157817 0.0047999 0.00108059 0.031467 -0.000496751 0.00125291)
(0.0138759 0.00309805 0.000771096 0.0310491 -0.000764076 0.00125155)
(0.0159685 0.0022886 0.000896804 0.0310076 -0.000586008 0.00125303)
(0.0155104 0.00115899 0.000728594 0.0308919 -0.000688636 0.0012515)
(0.0166346 -2.99776e-05 0.000776485 0.0308298 -0.000607067 0.00125347)
(0.0166428 -0.00108807 0.000687422 0.0308099 -0.000633904 0.00125254)
(0.0176869 -0.00215671 0.00069776 0.0307679 -0.000590716 0.00125396)
(0.0178918 -0.00315834 0.000649572 0.0308372 -0.000575411 0.00125359)
(0.0192734 -0.00389401 0.000646296 0.0308007 -0.00054709 0.00125446)
(0.0195955 -0.00474438 0.000612726 0.0310657 -0.000493385 0.0012542)
(0.0218111 -0.00463745 0.000607596 0.0310068 -0.000472036 0.00125443)
(0.0219972 -0.00544204 0.000563251 0.0318317 -0.000365677 0.00125361)
(0.0254288 -0.00300004 0.000569691 0.0317119 -0.000351524 0.00125345)
(0.0238945 -0.0043646 0.000463775 0.0370094 -0.000150198 0.00124936)
(0.0250566 0.00292936 0.000439771 0.0354084 -0.000135434 0.0012518)
(0.070519 0.0279116 0.00400789 0.0132959 0.00190136 0.00146987)
(0.00175869 -0.0034035 0.000832979 0.0246502 0.000715761 0.00129894)
(0.00765422 0.0113895 0.00167766 0.0224581 0.00191642 0.00141005)
(0.0049817 0.00102708 0.0011731 0.0213117 0.00104908 0.00132566)
(0.00492587 0.00411073 0.00113483 0.0199856 0.00155548 0.0013689)
(0.00718626 0.00320592 0.00113658 0.0201048 0.00122885 0.00133915)
(0.00733988 0.00420384 0.00103995 0.0198174 0.00143329 0.00135505)
(0.00903281 0.00492738 0.00108544 0.0199322 0.00129729 0.00134486)
(0.0096143 0.00566447 0.00102433 0.0198434 0.00137484 0.00134987)
(0.0111345 0.00661117 0.0010561 0.0199038 0.00131269 0.00134627)
(0.0120015 0.00738976 0.0010233 0.0198751 0.00133209 0.00134694)
(0.013566 0.00824375 0.00103671 0.0199102 0.00129858 0.00134533)
(0.0146522 0.00904985 0.00101357 0.019896 0.00128608 0.00134378)
(0.0163604 0.00962753 0.00100919 0.0199255 0.00126341 0.00134258)
(0.0176281 0.0104143 0.000979088 0.0198951 0.00122147 0.00133904)
(0.01947 0.0102875 0.000950362 0.0199324 0.0012033 0.00133769)
(0.0208635 0.0111419 0.000896206 0.0198007 0.00112232 0.00133053)
(0.0224862 0.00916107 0.000817448 0.0197757 0.00110994 0.00132934)
(0.0237618 0.0106589 0.000729783 0.0192033 0.000971146 0.0013141)
(0.0262351 0.00223487 0.000468357 0.0196316 0.000966919 0.00131547)
(0.0667359 -0.00107867 0.00315621 0.00185306 -0.000295762 0.0013551)
(0.0016284 0.00140179 0.000842529 0.00302194 -2.97895e-05 0.00126728)
(0.0165701 -0.00425965 0.00159745 0.00321647 -0.000413034 0.00131646)
(0.00430378 -0.00261632 0.000962887 0.00473602 -0.000162057 0.00127327)
(0.00812409 -0.00430893 0.00117676 0.0048229 -0.000400184 0.00129062)
(0.00709259 -0.00368073 0.000945659 0.00497192 -0.000229671 0.00127712)
(0.0086196 -0.00405279 0.00099255 0.00492405 -0.000336202 0.00128281)
(0.00964987 -0.00424957 0.000884306 0.00487666 -0.000260828 0.00127933)
(0.0110785 -0.00452244 0.000878733 0.00485328 -0.000302219 0.00128053)
(0.0126606 -0.0049211 0.000815142 0.00481528 -0.000269149 0.00127999)
(0.0143579 -0.00526301 0.000787436 0.00481257 -0.000279672 0.00127973)
(0.0161118 -0.00565439 0.000741782 0.00478983 -0.000262894 0.00127979)
(0.0181149 -0.00606539 0.000699447 0.00481865 -0.000256755 0.00127892)
(0.0197475 -0.00631427 0.000661197 0.00479866 -0.00024616 0.0012789)
(0.0221262 -0.00681715 0.000601 0.00490785 -0.000223934 0.00127739)
(0.0228911 -0.00660617 0.000567788 0.00487639 -0.000216257 0.00127702)
(0.0258731 -0.00734144 0.0004782 0.00525581 -0.000173547 0.00127382)
(0.0241128 -0.00565064 0.000446389 0.00523706 -0.000167955 0.00127331)
(0.0277748 -0.00732905 0.000315337 0.0070445 -9.71931e-05 0.00126521)
(0.0239411 -0.00197229 0.000263721 0.00667349 -8.50489e-05 0.00126622)
(0.0641895 0.00941779 0.00359271 0.00179247 0.000598965 0.00141627)
(0.00135537 -0.00116702 0.000754442 0.00497537 0.000125279 0.00127939)
(0.023465 0.00869563 0.00196776 0.00460679 0.000702468 0.0013674)
(0.0113402 0.00492048 0.000988566 0.00469489 0.000300842 0.00129748)
(0.0185837 0.00601444 0.00146938 0.00430061 0.000552916 0.00133153)
(0.0165547 0.00550544 0.00104697 0.00433715 0.000389235 0.00130772)
(0.0192797 0.00563789 0.00123614 0.00421839 0.000489053 0.00131992)
(0.0200418 0.00589101 0.0010396 0.00423872 0.000422217 0.00131225)
(0.0222695 0.00607262 0.00111001 0.00420791 0.000459367 0.00131588)
(0.0238956 0.00646895 0.00100822 0.00421683 0.000429848 0.00131343)
(0.0263903 0.00676268 0.00102017 0.00421102 0.000438848 0.00131378)
(0.0282678 0.00715286 0.000960424 0.00421815 0.000423366 0.00131281)
(0.0311817 0.00751927 0.000938244 0.00422483 0.000417244 0.00131154)
(0.0327506 0.00778516 0.000894285 0.00423164 0.000407091 0.00131079)
(0.0363095 0.00821516 0.000842484 0.00425188 0.000386991 0.00130797)
(0.0362045 0.00810803 0.000798734 0.00426066 0.000379014 0.001307)
(0.0409912 0.00866843 0.000712402 0.00431217 0.00034124 0.00130119)
(0.0363381 0.00734097 0.000638897 0.0042978 0.000336619 0.00130027)
(0.0432987 0.00832378 0.000518891 0.00441099 0.000276756 0.0012874)
(0.0321644 0.00320567 0.000316483 0.00453158 0.000276814 0.00128849)
(0.0611616 -0.00247004 0.00335498 0.000524874 -0.000211878 0.00138874)
(0.00173046 0.00106813 0.000794826 0.00142837 -2.56509e-05 0.00127319)
(0.0258643 -0.0033005 0.00186446 0.00138997 -0.000301516 0.00134345)
(0.0161204 -0.00262457 0.000871612 0.00200866 -0.000128907 0.00128537)
(0.0267602 -0.00419792 0.00143066 0.00204418 -0.00029174 0.00131231)
(0.0254085 -0.00408139 0.000933903 0.00214059 -0.000176195 0.00129284)
(0.0293066 -0.00439067 0.00118267 0.00211669 -0.00024948 0.00130246)
(0.0301294 -0.00451772 0.00093157 0.00211182 -0.000197179 0.00129641)
(0.0329242 -0.00466722 0.00102987 0.00209857 -0.000225507 0.00129913)
(0.0345932 -0.00489338 0.000893789 0.00208999 -0.000202393 0.00129736)
(0.0375721 -0.00509364 0.000913338 0.00208756 -0.000209479 0.00129751)
(0.0394923 -0.00532669 0.000832305 0.00208293 -0.000197759 0.00129689)
(0.0429677 -0.00559885 0.000807311 0.00209363 -0.000193607 0.00129581)
(0.0444633 -0.00572878 0.00075054 0.00208786 -0.000186357 0.00129532)
(0.048782 -0.00612809 0.000691043 0.00213053 -0.000171824 0.00129307)
(0.0481255 -0.00593829 0.000643852 0.00212162 -0.000166675 0.00129235)
(0.0541332 -0.00659259 0.000548494 0.00226459 -0.000140423 0.00128768)
(0.0478018 -0.00543321 0.000488402 0.00225789 -0.000137185 0.00128692)
(0.0561325 -0.00673416 0.00036088 0.00277764 -9.7932e-05 0.00127623)
(0.0423186 -0.00380603 0.000236047 0.00273465 -9.17843e-05 0.00127706)
(0.0611617 0.00247076 0.00335499 0.00052491 0.00021188 0.00138874)
(0.00173046 -0.00106817 0.000794851 0.00142848 2.56095e-05 0.00127321)
(0.0258653 0.0033005 0.00186441 0.00139004 0.000301501 0.00134346)
(0.0161205 0.00262476 0.00087154 0.00200867 0.00012886 0.00128538)
(0.0267604 0.00419886 0.00143029 0.00204469 0.000291592 0.00131231)
(0.0254083 0.00407952 0.000933817 0.00213973 0.000176248 0.00129285)
(0.0293048 0.0043871 0.00118291 0.0021147 0.000249643 0.00130245)
(0.030131 0.00451577 0.000931666 0.00211094 0.000197285 0.0012964)
(0.0329255 0.00466367 0.00102986 0.00209702 0.000225601 0.00129913)
(0.0345903 0.00489062 0.000893725 0.00208786 0.000202413 0.00129736)
(0.03757 0.00509265 0.00091357 0.00208623 0.000209577 0.0012975)
(0.0394931 0.00532234 0.000833143 0.00208078 0.000198079 0.00129684)
(0.0429682 0.00559831 0.000807276 0.00209279 0.000193621 0.00129581)
(0.0444627 0.00572967 0.000750352 0.00208765 0.000186235 0.00129534)
(0.0487817 0.00612763 0.000691289 0.00213025 0.000171857 0.00129305)
(0.0481272 0.00593976 0.000643865 0.00212146 0.000166683 0.00129235)
(0.0541301 0.00660374 0.000548489 0.00226529 0.000140024 0.00128767)
(0.0478045 0.00545388 0.000488557 0.00226112 0.000136801 0.00128691)
(0.0561458 0.00682539 0.000361223 0.00277166 9.62207e-05 0.0012762)
(0.0424503 0.00380353 0.000235786 0.00276876 8.94704e-05 0.00127704)
(0.0641907 -0.00941599 0.00359272 0.00179193 -0.000598945 0.00141627)
(0.00135548 0.00116702 0.000754403 0.00497515 -0.000125399 0.00127936)
(0.0234642 -0.00869546 0.00196789 0.00460669 -0.000702524 0.00136741)
(0.0113404 -0.00492016 0.000988569 0.00469479 -0.000300849 0.00129748)
(0.0185829 -0.00601475 0.00146941 0.00430059 -0.000552873 0.00133154)
(0.0165535 -0.00550616 0.00104702 0.00433811 -0.000389226 0.00130772)
(0.0192812 -0.00564124 0.00123632 0.00422059 -0.000489146 0.00131992)
(0.0200403 -0.00589498 0.00103985 0.00424022 -0.000422189 0.00131223)
(0.0222673 -0.00607439 0.00111012 0.00420953 -0.000459386 0.00131588)
(0.0238979 -0.00647307 0.00100817 0.00422131 -0.000429679 0.00131343)
(0.0263909 -0.0067657 0.00102028 0.00421315 -0.000438837 0.00131378)
(0.0282659 -0.0071565 0.000961006 0.00422146 -0.000423448 0.00131276)
(0.0311818 -0.00751983 0.000938201 0.00422605 -0.000417221 0.00131154)
(0.0327508 -0.00778625 0.00089413 0.00423233 -0.000406983 0.00131081)
(0.036307 -0.008216 0.000842758 0.00425216 -0.000386943 0.00130795)
(0.0362068 -0.00810661 0.00079856 0.00426071 -0.000379022 0.00130701)
(0.0409928 -0.00866306 0.00071218 0.00431177 -0.000341269 0.00130121)
(0.0363614 -0.00732362 0.000637958 0.00429346 -0.000336705 0.00130026)
(0.0433157 -0.00825667 0.000517809 0.00441836 -0.000277362 0.00128745)
(0.0324429 -0.00320222 0.00031292 0.00450011 -0.000277636 0.0012887)
(0.0667354 0.0010769 0.00315621 0.00185302 0.000295749 0.0013551)
(0.00162853 -0.00140176 0.000842482 0.00302165 2.98969e-05 0.00126725)
(0.0165707 0.00425941 0.00159757 0.00321633 0.000413072 0.00131646)
(0.00430374 0.0026163 0.000962858 0.00473586 0.000161986 0.00127329)
(0.00812369 0.00430966 0.00117653 0.00482378 0.000399926 0.00129063)
(0.00709188 0.00367964 0.000945687 0.0049707 0.000229767 0.00127713)
(0.00861859 0.00405235 0.000992632 0.00492294 0.000336345 0.0012828)
(0.00965038 0.00425069 0.000884291 0.00487782 0.000260741 0.00127933)
(0.0110783 0.00452151 0.000878755 0.00485244 0.000302311 0.00128053)
(0.01266 0.0049212 0.000815141 0.00481575 0.000268979 0.00128)
(0.0143577 0.00526382 0.000787453 0.0048126 0.000279559 0.00127974)
(0.0161123 0.00565506 0.000741748 0.00479106 0.0002628 0.0012798)
(0.0181157 0.00606581 0.000699394 0.00481838 0.000256737 0.00127892)
(0.0197479 0.00631513 0.000661176 0.00479885 0.000245982 0.00127891)
(0.0221269 0.00681773 0.000600982 0.0049081 0.000223821 0.00127739)
(0.0228944 0.00660825 0.000567645 0.00487711 0.000216209 0.00127702)
(0.0258813 0.00734421 0.000478009 0.0052574 0.000172992 0.00127384)
(0.0241371 0.00565821 0.000445362 0.00524325 0.000167337 0.00127333)
(0.0278359 0.00735273 0.000313801 0.0070463 9.4609e-05 0.0012653)
(0.0242646 0.00193695 0.000259461 0.00672273 8.14532e-05 0.00126647)
(0.0705195 -0.027912 0.0040079 0.0132963 -0.00190137 0.00146987)
(0.00175868 0.00340334 0.000833023 0.0246494 -0.000715613 0.00129896)
(0.00765396 -0.0113892 0.00167761 0.0224576 -0.00191633 0.00141005)
(0.00498143 -0.00102794 0.00117312 0.0213117 -0.00104894 0.00132568)
(0.00492589 -0.0041102 0.00113486 0.0199875 -0.00155502 0.0013689)
(0.00718737 -0.00320505 0.00113664 0.0201074 -0.00122882 0.00133915)
(0.00733815 -0.00420187 0.00103987 0.0198239 -0.00143342 0.00135505)
(0.00903481 -0.0049226 0.0010855 0.0199379 -0.00129694 0.00134486)
(0.00961774 -0.0056645 0.00102433 0.0198485 -0.00137494 0.00134986)
(0.0111323 -0.0066082 0.001056 0.0199242 -0.00131243 0.00134627)
(0.0120016 -0.00738589 0.00102325 0.0198831 -0.00133193 0.00134693)
(0.0135696 -0.00824173 0.00103651 0.0199263 -0.00129852 0.00134528)
(0.014653 -0.00905033 0.00101355 0.0199001 -0.00128612 0.00134378)
(0.0163597 -0.00962512 0.00100921 0.0199269 -0.00126317 0.0013426)
(0.0176335 -0.0104117 0.000979079 0.0198961 -0.00122122 0.00133904)
(0.0194737 -0.0102871 0.000950133 0.0199322 -0.00120324 0.00133768)
(0.0208759 -0.0111393 0.000895692 0.0197983 -0.00112182 0.00133053)
(0.0225038 -0.00915784 0.000816345 0.019765 -0.00110932 0.00132937)
(0.0238326 -0.0106691 0.000725796 0.0191935 -0.000968449 0.0013141)
(0.0262954 -0.00218689 0.000460721 0.0195692 -0.000963039 0.00131573)
(0.0565761 0.016836 0.0026963 0.0123454 0.00121097 0.0012939)