/*--------------------------------*- C++ -*----------------------------------*\
  =========                 |
  \\      /  F ield         | OpenFOAM: The Open Source CFD Toolbox
   \\    /   O peration     | Website:  https://openfoam.org
    \\  /    A nd           | Version:  7
     \\/     M anipulation  |
\*---------------------------------------------------------------------------*/
FoamFile
{
    version     2.0;
    format      ascii;
    class       volScalarField;
    location    "0.665";
    object      k_0;
}
// * * * * * * * * * * * * * * * * * * * * * * * * * * * * * * * * * * * * * //

dimensions      [0 2 -2 0 0 0 0];

internalField   nonuniform List<scalar> 
1600
(
3.02521e-05
2.16486e-05
1.24289e-05
7.97892e-06
5.59883e-06
4.1757e-06
3.25639e-06
2.61619e-06
2.14328e-06
1.78244e-06
1.50271e-06
1.28346e-06
1.10971e-06
9.70518e-07
8.57937e-07
7.66164e-07
6.90894e-07
6.2885e-07
5.77481e-07
5.34766e-07
4.99084e-07
4.69134e-07
4.43868e-07
4.2245e-07
4.04205e-07
3.88594e-07
3.75179e-07
3.63607e-07
3.53585e-07
3.44877e-07
3.37283e-07
3.30636e-07
3.24798e-07
3.19646e-07
3.15071e-07
3.10949e-07
3.07085e-07
3.03033e-07
2.96164e-07
2.61512e-07
2.80071e-05
2.94776e-05
2.5543e-05
2.01875e-05
1.5567e-05
1.20769e-05
9.5747e-06
7.74903e-06
6.37054e-06
5.30726e-06
4.47857e-06
3.8274e-06
3.31076e-06
2.89664e-06
2.56156e-06
2.28832e-06
2.06417e-06
1.87937e-06
1.72637e-06
1.59915e-06
1.49291e-06
1.40376e-06
1.32859e-06
1.26489e-06
1.21065e-06
1.16424e-06
1.12437e-06
1.08997e-06
1.06017e-06
1.03425e-06
1.01163e-06
9.91811e-07
9.74375e-07
9.58975e-07
9.45303e-07
9.33063e-07
9.21903e-07
9.11526e-07
9.01518e-07
8.92168e-07
2.47423e-05
2.88489e-05
2.90156e-05
2.6777e-05
2.25895e-05
1.85207e-05
1.51792e-05
1.25301e-05
1.04234e-05
8.74593e-06
7.41337e-06
6.35416e-06
5.50778e-06
4.82611e-06
4.27267e-06
3.82021e-06
3.44827e-06
3.14113e-06
2.88651e-06
2.67463e-06
2.49758e-06
2.34897e-06
2.22365e-06
2.11742e-06
2.02695e-06
1.94951e-06
1.88292e-06
1.82541e-06
1.77551e-06
1.73203e-06
1.69399e-06
1.66057e-06
1.63109e-06
1.60498e-06
1.58179e-06
1.56116e-06
1.54282e-06
1.52677e-06
1.51356e-06
1.50533e-06
2.24019e-05
2.64093e-05
2.84481e-05
2.81989e-05
2.60732e-05
2.27329e-05
1.94915e-05
1.65941e-05
1.40888e-05
1.19815e-05
1.02475e-05
8.8375e-06
7.69358e-06
6.76249e-06
6.00067e-06
5.3742e-06
4.85681e-06
4.42799e-06
4.07149e-06
3.77418e-06
3.52537e-06
3.31632e-06
3.1399e-06
2.99029e-06
2.86279e-06
2.75358e-06
2.65957e-06
2.57825e-06
2.50758e-06
2.44586e-06
2.39172e-06
2.344e-06
2.30176e-06
2.26424e-06
2.23085e-06
2.20122e-06
2.17523e-06
2.15321e-06
2.1362e-06
2.12628e-06
2.17799e-05
2.39358e-05
2.64086e-05
2.72779e-05
2.65325e-05
2.46392e-05
2.21806e-05
1.95942e-05
1.70903e-05
1.48185e-05
1.28517e-05
1.11957e-05
9.81855e-06
8.67722e-06
7.73069e-06
6.94417e-06
6.28922e-06
5.74277e-06
5.28603e-06
4.90352e-06
4.58242e-06
4.31202e-06
4.08345e-06
3.88937e-06
3.72378e-06
3.58178e-06
3.45939e-06
3.35334e-06
3.26098e-06
3.18014e-06
3.10901e-06
3.04612e-06
2.99025e-06
2.94044e-06
2.89598e-06
2.85645e-06
2.82183e-06
2.79272e-06
2.77054e-06
2.75762e-06
2.06193e-05
2.23141e-05
2.43714e-05
2.56207e-05
2.56982e-05
2.48976e-05
2.33567e-05
2.13873e-05
1.92116e-05
1.70503e-05
1.5057e-05
1.33e-05
1.17881e-05
1.0502e-05
9.41387e-06
8.49546e-06
7.72104e-06
7.06825e-06
6.518e-06
6.05402e-06
5.66242e-06
5.33133e-06
5.05062e-06
4.81171e-06
4.60748e-06
4.43204e-06
4.28056e-06
4.14905e-06
4.03428e-06
3.93356e-06
3.84469e-06
3.76587e-06
3.6956e-06
3.63272e-06
3.57635e-06
3.526e-06
3.48168e-06
3.44418e-06
3.4153e-06
3.39807e-06
2.05129e-05
2.14211e-05
2.28049e-05
2.39103e-05
2.43161e-05
2.41427e-05
2.33578e-05
2.20569e-05
2.0387e-05
1.85451e-05
1.67173e-05
1.50152e-05
1.34867e-05
1.21422e-05
1.09744e-05
9.96783e-06
9.10462e-06
8.36667e-06
7.73721e-06
7.20118e-06
6.74514e-06
6.35713e-06
6.0266e-06
5.74426e-06
5.50221e-06
5.29377e-06
5.11339e-06
4.95645e-06
4.81916e-06
4.69838e-06
4.59152e-06
4.49646e-06
4.41144e-06
4.33506e-06
4.26629e-06
4.20453e-06
4.14974e-06
4.1028e-06
4.06589e-06
4.04316e-06
2.08004e-05
2.08367e-05
2.15784e-05
2.23891e-05
2.28232e-05
2.28833e-05
2.26495e-05
2.19107e-05
2.07252e-05
1.92965e-05
1.77627e-05
1.62446e-05
1.48125e-05
1.35016e-05
1.23261e-05
1.12867e-05
1.03765e-05
9.58444e-06
8.8985e-06
8.30673e-06
7.79777e-06
7.36091e-06
6.98619e-06
6.66447e-06
6.38752e-06
6.14823e-06
5.94056e-06
5.75942e-06
5.60056e-06
5.46047e-06
5.33623e-06
5.22539e-06
5.12596e-06
5.03634e-06
4.95532e-06
4.88212e-06
4.81662e-06
4.75971e-06
4.71391e-06
4.6847e-06
2.04825e-05
2.03231e-05
2.06494e-05
2.11043e-05
2.14144e-05
2.15582e-05
2.14997e-05
2.12032e-05
2.04809e-05
1.94156e-05
1.82202e-05
1.69605e-05
1.57074e-05
1.45087e-05
1.33944e-05
1.23801e-05
1.147e-05
1.06616e-05
9.94866e-06
9.32374e-06
8.77888e-06
8.30587e-06
7.89644e-06
7.5424e-06
7.23599e-06
6.97011e-06
6.73853e-06
6.53594e-06
6.3578e-06
6.20033e-06
6.06033e-06
5.93516e-06
5.8226e-06
5.72084e-06
5.6285e-06
5.54462e-06
5.46895e-06
5.40225e-06
5.3473e-06
5.31096e-06
2.03387e-05
2.0096e-05
2.00314e-05
2.01219e-05
2.02627e-05
2.03726e-05
2.0363e-05
2.02217e-05
1.98245e-05
1.91176e-05
1.82009e-05
1.7209e-05
1.61742e-05
1.51372e-05
1.4136e-05
1.31961e-05
1.23306e-05
1.15442e-05
1.08365e-05
1.02047e-05
9.64494e-06
9.15228e-06
8.72098e-06
8.34465e-06
8.01667e-06
7.73055e-06
7.48025e-06
7.26049e-06
7.06671e-06
6.89498e-06
6.742e-06
6.60494e-06
6.48145e-06
6.36956e-06
6.26771e-06
6.17477e-06
6.09027e-06
6.01482e-06
5.95121e-06
5.90757e-06
2.09635e-05
2.01804e-05
1.97009e-05
1.95428e-05
1.94957e-05
1.94779e-05
1.94204e-05
1.92793e-05
1.89846e-05
1.85053e-05
1.78798e-05
1.71118e-05
1.62746e-05
1.5413e-05
1.45507e-05
1.37169e-05
1.29292e-05
1.21969e-05
1.15238e-05
1.0911e-05
1.03584e-05
9.86436e-06
9.42609e-06
9.03951e-06
8.69971e-06
8.4013e-06
8.1389e-06
7.90755e-06
7.70288e-06
7.52104e-06
7.35873e-06
7.2131e-06
7.0817e-06
6.96246e-06
6.85367e-06
6.75404e-06
6.66286e-06
6.58048e-06
6.50952e-06
6.459e-06
2.06527e-05
2.00772e-05
1.95569e-05
1.9235e-05
1.9014e-05
1.88402e-05
1.86639e-05
1.84537e-05
1.81761e-05
1.78062e-05
1.7339e-05
1.67764e-05
1.61231e-05
1.54054e-05
1.46796e-05
1.39627e-05
1.32695e-05
1.26115e-05
1.19944e-05
1.14217e-05
1.08956e-05
1.04174e-05
9.98697e-06
9.60269e-06
9.2615e-06
8.9595e-06
8.69233e-06
8.45565e-06
8.24548e-06
8.05826e-06
7.89082e-06
7.7404e-06
7.60459e-06
7.48126e-06
7.36861e-06
7.26519e-06
7.17006e-06
7.08323e-06
7.00693e-06
6.95058e-06
2.03163e-05
1.99892e-05
1.9512e-05
1.90724e-05
1.87066e-05
1.83847e-05
1.80791e-05
1.77798e-05
1.74744e-05
1.71415e-05
1.67583e-05
1.63082e-05
1.57889e-05
1.52171e-05
1.46047e-05
1.39865e-05
1.33866e-05
1.2809e-05
1.22581e-05
1.1738e-05
1.1252e-05
1.08031e-05
1.0393e-05
1.00221e-05
9.68923e-06
9.39196e-06
9.12714e-06
8.89129e-06
8.68097e-06
8.49306e-06
8.32471e-06
8.17335e-06
8.03666e-06
7.91257e-06
7.79924e-06
7.69508e-06
7.59894e-06
7.51047e-06
7.43135e-06
7.37077e-06
2.02909e-05
2.00278e-05
1.95128e-05
1.89709e-05
1.849e-05
1.80512e-05
1.76408e-05
1.72628e-05
1.6915e-05
1.65787e-05
1.62258e-05
1.58322e-05
1.53884e-05
1.49019e-05
1.4389e-05
1.38661e-05
1.33426e-05
1.28343e-05
1.2348e-05
1.18838e-05
1.14439e-05
1.10317e-05
1.06502e-05
1.03007e-05
9.9837e-06
9.69793e-06
9.44141e-06
9.2116e-06
9.00577e-06
8.82129e-06
8.65571e-06
8.50676e-06
8.37232e-06
8.25043e-06
8.13926e-06
8.03717e-06
7.9428e-06
7.85546e-06
7.77617e-06
7.71329e-06
2.05629e-05
2.01428e-05
1.94468e-05
1.88352e-05
1.82993e-05
1.77988e-05
1.73269e-05
1.68949e-05
1.65063e-05
1.61465e-05
1.57894e-05
1.54118e-05
1.50023e-05
1.4564e-05
1.41082e-05
1.36477e-05
1.31933e-05
1.27488e-05
1.23156e-05
1.18994e-05
1.15039e-05
1.11301e-05
1.07801e-05
1.04563e-05
1.01594e-05
9.88948e-06
9.64533e-06
9.42525e-06
9.22724e-06
9.04921e-06
8.88916e-06
8.74514e-06
8.61531e-06
8.49786e-06
8.39105e-06
8.29321e-06
8.20287e-06
8.11901e-06
8.04195e-06
7.97879e-06
2.06875e-05
2.01145e-05
1.93639e-05
1.87368e-05
1.81706e-05
1.7635e-05
1.71285e-05
1.66606e-05
1.62357e-05
1.58435e-05
1.54637e-05
1.50774e-05
1.46748e-05
1.42572e-05
1.38323e-05
1.34095e-05
1.29959e-05
1.25948e-05
1.2208e-05
1.18352e-05
1.14767e-05
1.11358e-05
1.08157e-05
1.05175e-05
1.0242e-05
9.98945e-06
9.75949e-06
9.55102e-06
9.36263e-06
9.19277e-06
9.03985e-06
8.90227e-06
8.77847e-06
8.66683e-06
8.56574e-06
8.47357e-06
8.38876e-06
8.31005e-06
8.23713e-06
8.17547e-06
2.07736e-05
2.01146e-05
1.94009e-05
1.87417e-05
1.81324e-05
1.75659e-05
1.70335e-05
1.65361e-05
1.60768e-05
1.56494e-05
1.524e-05
1.48342e-05
1.44245e-05
1.4011e-05
1.35993e-05
1.31959e-05
1.28059e-05
1.24313e-05
1.20727e-05
1.17295e-05
1.14018e-05
1.10903e-05
1.07955e-05
1.05192e-05
1.02632e-05
1.00273e-05
9.81132e-06
9.61461e-06
9.43622e-06
9.27502e-06
9.12977e-06
8.99921e-06
8.882e-06
8.77674e-06
8.68195e-06
8.59608e-06
8.51756e-06
8.44493e-06
8.37738e-06
8.3186e-06
2.0394e-05
2.00245e-05
1.93964e-05
1.87486e-05
1.81326e-05
1.75574e-05
1.7008e-05
1.64847e-05
1.59941e-05
1.55351e-05
1.50983e-05
1.46728e-05
1.42521e-05
1.38358e-05
1.34277e-05
1.30324e-05
1.26538e-05
1.22934e-05
1.19513e-05
1.16267e-05
1.13189e-05
1.10276e-05
1.07529e-05
1.04957e-05
1.02559e-05
1.00343e-05
9.83063e-06
9.64462e-06
9.47558e-06
9.32266e-06
9.1849e-06
9.06126e-06
8.95063e-06
8.85177e-06
8.76333e-06
8.68385e-06
8.61178e-06
8.54557e-06
8.48402e-06
8.42903e-06
2.05602e-05
2.0099e-05
1.94337e-05
1.87687e-05
1.81509e-05
1.75715e-05
1.70111e-05
1.64691e-05
1.59558e-05
1.54745e-05
1.50186e-05
1.45789e-05
1.41497e-05
1.37299e-05
1.33218e-05
1.29293e-05
1.25553e-05
1.22014e-05
1.18679e-05
1.15539e-05
1.12585e-05
1.09806e-05
1.07198e-05
1.0476e-05
1.0249e-05
1.00389e-05
9.84551e-06
9.66872e-06
9.50799e-06
9.36265e-06
9.23192e-06
9.11491e-06
9.01065e-06
8.91802e-06
8.83579e-06
8.76257e-06
8.69683e-06
8.63703e-06
8.58169e-06
8.53101e-06
2.04781e-05
2.01852e-05
1.94542e-05
1.87604e-05
1.81542e-05
1.75846e-05
1.70226e-05
1.64733e-05
1.59496e-05
1.54565e-05
1.499e-05
1.45425e-05
1.41085e-05
1.36866e-05
1.32784e-05
1.2887e-05
1.25149e-05
1.21641e-05
1.18349e-05
1.15268e-05
1.12386e-05
1.09693e-05
1.07179e-05
1.04833e-05
1.02656e-05
1.00645e-05
9.87983e-06
9.71116e-06
9.55802e-06
9.41983e-06
9.29591e-06
9.18546e-06
9.08757e-06
9.0012e-06
8.92517e-06
8.85816e-06
8.79869e-06
8.74519e-06
8.69613e-06
8.65001e-06
2.05498e-05
2.01874e-05
1.95298e-05
1.88186e-05
1.82007e-05
1.76269e-05
1.70586e-05
1.65019e-05
1.59724e-05
1.54746e-05
1.5004e-05
1.45534e-05
1.41179e-05
1.36959e-05
1.32885e-05
1.28984e-05
1.25281e-05
1.21794e-05
1.18531e-05
1.15488e-05
1.12657e-05
1.10025e-05
1.0758e-05
1.05315e-05
1.03222e-05
1.01296e-05
9.95306e-06
9.79229e-06
9.64678e-06
9.51602e-06
9.39934e-06
9.29595e-06
9.20495e-06
9.12531e-06
9.05586e-06
8.99533e-06
8.94226e-06
8.89508e-06
8.85235e-06
8.8109e-06
2.03987e-05
2.01555e-05
1.9577e-05
1.89136e-05
1.83036e-05
1.77198e-05
1.71402e-05
1.65754e-05
1.60395e-05
1.55355e-05
1.50592e-05
1.46046e-05
1.41673e-05
1.37458e-05
1.33406e-05
1.29536e-05
1.25869e-05
1.22423e-05
1.19206e-05
1.16218e-05
1.13449e-05
1.10887e-05
1.0852e-05
1.06338e-05
1.0433e-05
1.0249e-05
1.00813e-05
9.92938e-06
9.79271e-06
9.67068e-06
9.56257e-06
9.46752e-06
9.38458e-06
9.31267e-06
9.25062e-06
9.19713e-06
9.15081e-06
9.11005e-06
9.07369e-06
9.03678e-06
2.03103e-05
2.00871e-05
1.95937e-05
1.89944e-05
1.84082e-05
1.78289e-05
1.72522e-05
1.66903e-05
1.61539e-05
1.56459e-05
1.51639e-05
1.47043e-05
1.42646e-05
1.38434e-05
1.34409e-05
1.3058e-05
1.26965e-05
1.23578e-05
1.20426e-05
1.17507e-05
1.14816e-05
1.1234e-05
1.10067e-05
1.07985e-05
1.06083e-05
1.04354e-05
1.02791e-05
1.01386e-05
1.00134e-05
9.90262e-06
9.8054e-06
9.72076e-06
9.64763e-06
9.58485e-06
9.53121e-06
9.48541e-06
9.44611e-06
9.4117e-06
9.3815e-06
9.34855e-06
2.06854e-05
2.03036e-05
1.97604e-05
1.91336e-05
1.85204e-05
1.79327e-05
1.73642e-05
1.68147e-05
1.62865e-05
1.57803e-05
1.52965e-05
1.48349e-05
1.43951e-05
1.39766e-05
1.35792e-05
1.32035e-05
1.28506e-05
1.25214e-05
1.22165e-05
1.19358e-05
1.16786e-05
1.14437e-05
1.123e-05
1.10361e-05
1.0861e-05
1.07036e-05
1.0563e-05
1.04383e-05
1.03284e-05
1.02324e-05
1.01492e-05
1.00775e-05
1.00162e-05
9.96391e-06
9.91946e-06
9.88158e-06
9.84905e-06
9.82025e-06
9.79536e-06
9.76486e-06
2.06953e-05
2.0282e-05
1.97457e-05
1.91497e-05
1.8559e-05
1.79908e-05
1.74471e-05
1.6923e-05
1.64142e-05
1.59204e-05
1.54439e-05
1.49879e-05
1.45544e-05
1.41441e-05
1.3757e-05
1.33935e-05
1.30541e-05
1.27397e-05
1.24506e-05
1.21867e-05
1.19472e-05
1.17311e-05
1.15371e-05
1.13638e-05
1.12099e-05
1.1074e-05
1.09549e-05
1.08512e-05
1.07616e-05
1.06845e-05
1.06186e-05
1.05624e-05
1.05145e-05
1.04734e-05
1.04381e-05
1.04073e-05
1.03802e-05
1.03551e-05
1.03336e-05
1.03027e-05
2.03614e-05
2.01162e-05
1.96486e-05
1.91124e-05
1.85551e-05
1.80145e-05
1.7502e-05
1.70107e-05
1.65315e-05
1.60617e-05
1.56046e-05
1.51654e-05
1.47482e-05
1.43547e-05
1.39857e-05
1.36416e-05
1.3323e-05
1.30305e-05
1.27645e-05
1.25246e-05
1.23103e-05
1.21204e-05
1.19535e-05
1.18081e-05
1.16826e-05
1.1575e-05
1.14838e-05
1.14068e-05
1.13423e-05
1.1288e-05
1.12422e-05
1.12031e-05
1.11691e-05
1.11388e-05
1.11111e-05
1.10853e-05
1.10607e-05
1.1036e-05
1.10145e-05
1.09787e-05
2.0237e-05
2.00386e-05
1.96241e-05
1.91143e-05
1.85701e-05
1.80483e-05
1.75618e-05
1.71026e-05
1.66574e-05
1.62204e-05
1.57944e-05
1.53848e-05
1.49964e-05
1.46317e-05
1.42917e-05
1.39774e-05
1.36893e-05
1.34282e-05
1.31942e-05
1.29871e-05
1.28062e-05
1.26504e-05
1.25181e-05
1.24077e-05
1.23172e-05
1.22442e-05
1.21863e-05
1.21409e-05
1.21052e-05
1.20764e-05
1.2052e-05
1.20301e-05
1.20091e-05
1.19877e-05
1.19648e-05
1.19401e-05
1.1914e-05
1.18851e-05
1.18594e-05
1.18134e-05
2.03452e-05
2.00893e-05
1.96632e-05
1.91405e-05
1.86103e-05
1.81155e-05
1.76603e-05
1.72355e-05
1.68273e-05
1.64306e-05
1.60475e-05
1.56825e-05
1.5339e-05
1.5019e-05
1.47233e-05
1.44528e-05
1.42082e-05
1.39897e-05
1.37977e-05
1.36318e-05
1.34917e-05
1.33762e-05
1.32839e-05
1.32131e-05
1.31622e-05
1.31273e-05
1.31057e-05
1.30946e-05
1.30896e-05
1.3087e-05
1.30838e-05
1.30776e-05
1.30675e-05
1.30525e-05
1.30311e-05
1.30037e-05
1.29719e-05
1.29344e-05
1.29003e-05
1.2839e-05
2.04998e-05
2.0172e-05
1.97442e-05
1.9219e-05
1.87188e-05
1.82674e-05
1.78536e-05
1.74657e-05
1.70978e-05
1.67504e-05
1.64252e-05
1.61236e-05
1.58458e-05
1.55913e-05
1.53596e-05
1.51503e-05
1.49634e-05
1.4799e-05
1.46571e-05
1.45381e-05
1.44419e-05
1.43685e-05
1.43171e-05
1.42854e-05
1.42744e-05
1.42775e-05
1.4291e-05
1.43154e-05
1.43415e-05
1.43652e-05
1.43825e-05
1.43899e-05
1.43888e-05
1.43803e-05
1.4359e-05
1.43265e-05
1.42866e-05
1.42381e-05
1.41926e-05
1.4113e-05
2.04488e-05
2.0202e-05
1.9902e-05
1.94497e-05
1.90114e-05
1.86127e-05
1.82393e-05
1.78869e-05
1.75654e-05
1.72815e-05
1.70344e-05
1.68196e-05
1.66322e-05
1.6467e-05
1.632e-05
1.61883e-05
1.60705e-05
1.59666e-05
1.58769e-05
1.5803e-05
1.5747e-05
1.57104e-05
1.56949e-05
1.56973e-05
1.57161e-05
1.57584e-05
1.58116e-05
1.58701e-05
1.59279e-05
1.59793e-05
1.60195e-05
1.60446e-05
1.6052e-05
1.60481e-05
1.60321e-05
1.59973e-05
1.59502e-05
1.58912e-05
1.58334e-05
1.57347e-05
2.05442e-05
2.05976e-05
2.04014e-05
1.99701e-05
1.95808e-05
1.92342e-05
1.89129e-05
1.8622e-05
1.83769e-05
1.81869e-05
1.80467e-05
1.79443e-05
1.78706e-05
1.78139e-05
1.7765e-05
1.77177e-05
1.76693e-05
1.76214e-05
1.75752e-05
1.75359e-05
1.75093e-05
1.75007e-05
1.75073e-05
1.75361e-05
1.75973e-05
1.76781e-05
1.77716e-05
1.78706e-05
1.79672e-05
1.80538e-05
1.81244e-05
1.81746e-05
1.82006e-05
1.82032e-05
1.81941e-05
1.81658e-05
1.81143e-05
1.8046e-05
1.79741e-05
1.78548e-05
2.09225e-05
2.09226e-05
2.08106e-05
2.05463e-05
2.03096e-05
2.01306e-05
1.99764e-05
1.98447e-05
1.97505e-05
1.97082e-05
1.97108e-05
1.9735e-05
1.97861e-05
1.98391e-05
1.98821e-05
1.9907e-05
1.99106e-05
1.99039e-05
1.98857e-05
1.98677e-05
1.9863e-05
1.9872e-05
1.99061e-05
1.99818e-05
2.00901e-05
2.02232e-05
2.03725e-05
2.05275e-05
2.06775e-05
2.08121e-05
2.09236e-05
2.10066e-05
2.10573e-05
2.10731e-05
2.10682e-05
2.10441e-05
2.0987e-05
2.09032e-05
2.08079e-05
2.06583e-05
2.08891e-05
2.12181e-05
2.12465e-05
2.12082e-05
2.1277e-05
2.14695e-05
2.1673e-05
2.18507e-05
2.20086e-05
2.21637e-05
2.23221e-05
2.24797e-05
2.2631e-05
2.27643e-05
2.28694e-05
2.29406e-05
2.29795e-05
2.29951e-05
2.30003e-05
2.30101e-05
2.3035e-05
2.30909e-05
2.31914e-05
2.33363e-05
2.35204e-05
2.37336e-05
2.39613e-05
2.41893e-05
2.44034e-05
2.45892e-05
2.47388e-05
2.48464e-05
2.49074e-05
2.49217e-05
2.49081e-05
2.48622e-05
2.47704e-05
2.46468e-05
2.45016e-05
2.42951e-05
2.17575e-05
2.21636e-05
2.22377e-05
2.2493e-05
2.31137e-05
2.38628e-05
2.45655e-05
2.51442e-05
2.55899e-05
2.59338e-05
2.62115e-05
2.64488e-05
2.6658e-05
2.68392e-05
2.69878e-05
2.71012e-05
2.71835e-05
2.72468e-05
2.7308e-05
2.73854e-05
2.74946e-05
2.76487e-05
2.78529e-05
2.81036e-05
2.83904e-05
2.86966e-05
2.90004e-05
2.92852e-05
2.95355e-05
2.97315e-05
2.98694e-05
2.99489e-05
2.99552e-05
2.99242e-05
2.98381e-05
2.96964e-05
2.95148e-05
2.92957e-05
2.90493e-05
2.87389e-05
2.14491e-05
2.23988e-05
2.36132e-05
2.51107e-05
2.67435e-05
2.82463e-05
2.94688e-05
3.03675e-05
3.09817e-05
3.14031e-05
3.17232e-05
3.20043e-05
3.22757e-05
3.25379e-05
3.27795e-05
3.29924e-05
3.31772e-05
3.33465e-05
3.35179e-05
3.37098e-05
3.39364e-05
3.42039e-05
3.45094e-05
3.48418e-05
3.5185e-05
3.55156e-05
3.58025e-05
3.60377e-05
3.62088e-05
3.62858e-05
3.62776e-05
3.62135e-05
3.60594e-05
3.58349e-05
3.55575e-05
3.52331e-05
3.48708e-05
3.44746e-05
3.40578e-05
3.35904e-05
2.25288e-05
2.44822e-05
2.75016e-05
3.07068e-05
3.35494e-05
3.57553e-05
3.7275e-05
3.82293e-05
3.88103e-05
3.92173e-05
3.95897e-05
3.99935e-05
4.04373e-05
4.08836e-05
4.12922e-05
4.1641e-05
4.1925e-05
4.21674e-05
4.23875e-05
4.26066e-05
4.28365e-05
4.30769e-05
4.33172e-05
4.35437e-05
4.37378e-05
4.3871e-05
4.38993e-05
4.38579e-05
4.37307e-05
4.34762e-05
4.31302e-05
4.27047e-05
4.22104e-05
4.16628e-05
4.10762e-05
4.04612e-05
3.98281e-05
3.91816e-05
3.85406e-05
3.78903e-05
2.60505e-05
3.20654e-05
3.80319e-05
4.26364e-05
4.59132e-05
4.81146e-05
4.94141e-05
5.01209e-05
5.0552e-05
5.09413e-05
5.13972e-05
5.19414e-05
5.25127e-05
5.29971e-05
5.33343e-05
5.35097e-05
5.35262e-05
5.34786e-05
5.33674e-05
5.32297e-05
5.30789e-05
5.29072e-05
5.26995e-05
5.24297e-05
5.20738e-05
5.1622e-05
5.10646e-05
5.04167e-05
4.96874e-05
4.88801e-05
4.80166e-05
4.71234e-05
4.62072e-05
4.52785e-05
4.43476e-05
4.34233e-05
4.25151e-05
4.16277e-05
4.07878e-05
4.00088e-05
3.31331e-05
4.92831e-05
5.77905e-05
6.23651e-05
6.53852e-05
6.73039e-05
6.80724e-05
6.80854e-05
6.78798e-05
6.76018e-05
6.73847e-05
6.7125e-05
6.67415e-05
6.61613e-05
6.53857e-05
6.44757e-05
6.35113e-05
6.25304e-05
6.15547e-05
6.05946e-05
5.96441e-05
5.86863e-05
5.77016e-05
5.66697e-05
5.55754e-05
5.44134e-05
5.31878e-05
5.19138e-05
5.06079e-05
4.92854e-05
4.79638e-05
4.66583e-05
4.53822e-05
4.41442e-05
4.29508e-05
4.18069e-05
4.07185e-05
3.96912e-05
3.87573e-05
3.79605e-05
5.20223e-05
7.53216e-05
8.36402e-05
8.81348e-05
8.98697e-05
8.96317e-05
8.7984e-05
8.48704e-05
8.16962e-05
7.87674e-05
7.61036e-05
7.35985e-05
7.1158e-05
6.87271e-05
6.63184e-05
6.39759e-05
6.17457e-05
5.96577e-05
5.77126e-05
5.58922e-05
5.41678e-05
5.25093e-05
5.0891e-05
4.9294e-05
4.77071e-05
4.61285e-05
4.45636e-05
4.30238e-05
4.15209e-05
4.00655e-05
3.86668e-05
3.73316e-05
3.60641e-05
3.48664e-05
3.3739e-05
3.26822e-05
3.16978e-05
3.07908e-05
2.999e-05
2.9349e-05
0.000105859
0.000122636
0.000117086
0.000106246
9.47607e-05
8.29865e-05
7.21779e-05
6.32331e-05
5.62881e-05
5.09507e-05
4.67494e-05
4.33073e-05
4.03756e-05
3.78053e-05
3.55194e-05
3.34779e-05
3.16541e-05
3.00228e-05
2.85558e-05
2.72232e-05
2.59965e-05
2.48514e-05
2.37695e-05
2.27381e-05
2.17495e-05
2.08006e-05
1.98919e-05
1.90257e-05
1.82043e-05
1.74296e-05
1.67028e-05
1.60237e-05
1.53915e-05
1.48048e-05
1.42616e-05
1.37602e-05
1.32994e-05
1.28803e-05
1.25132e-05
1.22206e-05
)
;

boundaryField
{
    upperWall
    {
        type            fixedValue;
        value           uniform 0;
    }
    lowerWall
    {
        type            fixedValue;
        value           uniform 0;
    }
    inlet
    {
        type            fixedValue;
        value           uniform 2e-05;
    }
    outlet
    {
        type            inletOutlet;
        inletValue      uniform 0;
        value           nonuniform List<scalar> 
40
(
2.61512e-07
8.92168e-07
1.50533e-06
2.12628e-06
2.75762e-06
3.39807e-06
4.04316e-06
4.6847e-06
5.31096e-06
5.90757e-06
6.459e-06
6.95058e-06
7.37077e-06
7.71329e-06
7.97879e-06
8.17547e-06
8.3186e-06
8.42903e-06
8.53101e-06
8.65001e-06
8.8109e-06
9.03678e-06
9.34855e-06
9.76486e-06
1.03027e-05
1.09787e-05
1.18134e-05
1.2839e-05
1.4113e-05
1.57347e-05
1.78548e-05
2.06583e-05
2.42951e-05
2.87389e-05
3.35904e-05
3.78903e-05
4.00088e-05
3.79605e-05
2.9349e-05
1.22206e-05
)
;
    }
    frontAndBack
    {
        type            empty;
    }
}


// ************************************************************************* //
