/*--------------------------------*- C++ -*----------------------------------*\
  =========                 |
  \\      /  F ield         | OpenFOAM: The Open Source CFD Toolbox
   \\    /   O peration     | Website:  https://openfoam.org
    \\  /    A nd           | Version:  7
     \\/     M anipulation  |
\*---------------------------------------------------------------------------*/
FoamFile
{
    version     2.0;
    format      ascii;
    class       surfaceScalarField;
    location    "1.7";
    object      phi;
}
// * * * * * * * * * * * * * * * * * * * * * * * * * * * * * * * * * * * * * //

dimensions      [1 0 -1 0 0 0 0];

internalField   nonuniform List<scalar> 
1138
(
0.00703355
0.00684653
0.00470636
0.00233944
0.00404012
0.000678973
0.0038923
0.00016014
0.00375927
0.000143811
0.0036703
9.73161e-05
0.00360222
7.35083e-05
0.00355906
4.48871e-05
0.00353172
2.43058e-05
1.27328e-05
0.00351121
0.0129248
0.00780107
0.0113632
0.00391262
0.0103632
0.00169096
0.00990425
0.000630652
0.00961498
0.000443203
0.00940184
0.000318305
0.00925643
0.000223995
0.0091307
0.000172151
0.00905837
9.38636e-05
8.18312e-05
0.00898266
0.0154127
0.00626636
0.015385
0.00395035
0.0148553
0.00223098
0.014388
0.00110796
0.0140686
0.000771334
0.0138172
0.000576579
0.0136518
0.000393646
0.0134943
0.000330923
0.0134067
0.000179166
0.000196085
0.0132866
0.015998
0.00414411
0.0171052
0.00285098
0.0174454
0.00189879
0.0174095
0.00115151
0.017309
0.00087869
0.0171844
0.000706575
0.0170846
0.000496664
0.0169854
0.000430992
0.0169144
0.000248541
0.000285378
0.0168206
0.0159421
0.00207516
0.0173579
0.00144019
0.0182434
0.00101836
0.018723
0.000676781
0.0190296
0.000576445
0.0192366
0.000503042
0.0193509
0.000384376
0.0194321
0.000350285
0.0194635
0.000216307
0.000262434
0.0194834
0.0159
4.53507e-05
0.0172982
4.38574e-05
0.0182676
5.07297e-05
0.0189035
4.26288e-05
0.019438
4.3589e-05
0.0199012
4.11444e-05
0.0202691
1.70753e-05
0.0205867
3.27838e-05
0.02081
-7.03003e-06
6.51333e-05
0.0210061
0.0159003
-0.00198787
0.0172976
-0.00135486
0.0182683
-0.000921447
0.0188994
-0.000590038
0.0194394
-0.000497626
0.0198985
-0.000418877
0.0202722
-0.000357399
0.0205868
-0.000282194
0.0208147
-0.000234097
-0.000133732
0.0210148
0.0159432
-0.00406684
0.0173564
-0.00277277
0.0182447
-0.00181456
0.018715
-0.00106498
0.0190318
-0.000818404
0.0192336
-0.000623754
0.0193562
-0.000482139
0.0194364
-0.000363049
0.0194776
-0.000273912
-0.00017051
0.0195178
0.0159989
-0.0062042
0.0171039
-0.00388521
0.0174453
-0.00216368
0.017409
-0.00103608
0.0173071
-0.000723131
0.0171896
-0.00051132
0.0170856
-0.000381364
0.0170001
-0.000278335
0.0169315
-0.000203447
-0.000117288
0.0168836
0.0154128
-0.00775754
0.0153841
-0.00386626
0.0148536
-0.0016432
0.0143897
-0.000581861
0.0140642
-0.000406313
0.0138244
-0.000278281
0.0136489
-0.000209844
0.0135169
-0.000147374
0.0134233
-0.000107468
-4.80207e-05
0.0133604
0.0129245
-0.00682396
0.0113625
-0.00231558
0.0103618
-0.000654137
0.00990472
-0.000136005
0.00961171
-0.000123364
0.0094056
-8.00636e-05
0.00925426
-6.31178e-05
0.00914597
-4.00697e-05
0.0090694
-2.82721e-05
-1.13384e-05
0.00903962
0.00703367
0.00470608
0.00403953
0.00389161
0.00375755
0.00366909
0.00360114
0.00356018
0.00353471
0.00353092
0.00358913
-0.000143175
0.00360007
-0.000105615
0.00362293
-0.000119732
0.00362451
-8.8851e-05
0.00362373
-7.17451e-05
0.00362253
-5.44739e-05
0.00362112
-3.89342e-05
0.00361993
-2.74633e-05
0.00361885
-2.00769e-05
0.00361787
-1.47914e-05
0.00361699
-8.97072e-06
0.00361624
-1.91693e-06
0.00361568
6.42897e-06
0.00361545
1.57053e-05
0.00361564
2.29138e-05
0.00361631
2.64574e-05
0.00361747
2.54942e-05
0.00361905
2.03459e-05
0.00362099
1.21067e-05
0.00362313
2.24862e-06
0.00362542
-6.03781e-06
0.00362783
-1.1369e-05
0.00363033
-1.35285e-05
0.00363284
-1.37806e-05
0.00363535
-1.17799e-05
0.00363789
-6.73369e-06
0.00364046
3.44983e-07
0.00364307
7.32479e-06
0.00364567
1.29856e-05
0.00364828
1.61404e-05
0.00365086
1.7213e-05
0.00365347
1.61569e-05
0.00365599
1.35245e-05
0.00365862
9.83866e-06
0.00366104
5.97709e-06
0.00366373
1.99777e-06
0.0036659
1.01261e-06
0.00366892
1.87715e-06
0.00367066
6.90732e-06
1.00913e-05
0.0090646
-0.000286111
0.00910091
-0.00023057
0.00913813
-0.000248205
0.00914376
-0.000176886
0.00914057
-0.000136868
0.00913713
-0.000103483
0.00913364
-7.34294e-05
0.00913057
-5.14126e-05
0.00912786
-3.73084e-05
0.00912545
-2.7022e-05
0.00912334
-1.60028e-05
0.00912153
-2.52896e-06
0.00912014
1.33196e-05
0.00911945
3.09304e-05
0.00911971
4.43681e-05
0.00912114
5.05937e-05
0.00912381
4.80354e-05
0.00912764
3.74009e-05
0.00913242
2.09218e-05
0.0091379
1.40687e-06
0.00914384
-1.4964e-05
0.00915009
-2.53274e-05
0.00915653
-2.95962e-05
0.00916305
-3.02256e-05
0.00916958
-2.62669e-05
0.00917614
-1.6592e-05
0.00918272
-2.80625e-06
0.00918932
1.08595e-05
0.00919592
2.18042e-05
0.0092025
2.79374e-05
0.00920906
3.00027e-05
0.00921563
2.79822e-05
0.00922214
2.28497e-05
0.00922871
1.57244e-05
0.00923514
8.16325e-06
0.00924171
5.24216e-07
0.00924793
-1.5306e-06
0.00925474
3.63783e-07
0.00926069
9.79189e-06
1.63489e-05
0.0132456
-0.000297725
0.0132747
-0.000336542
0.01331
-0.000362425
0.0133147
-0.00025304
0.0133097
-0.000191204
0.0133047
-0.000143981
0.0133
-0.000101582
0.0132958
-7.04468e-05
0.0132921
-5.10151e-05
0.0132888
-3.64457e-05
0.013286
-2.1027e-05
0.0132835
-2.12243e-06
0.0132816
2.00742e-05
0.0132806
4.46625e-05
0.0132808
6.31279e-05
0.0132827
7.12275e-05
0.0132864
6.6793e-05
0.0132917
5.09398e-05
0.0132985
2.69545e-05
0.0133064
-1.22219e-06
0.013315
-2.49232e-05
0.0133242
-3.95121e-05
0.0133336
-4.58166e-05
0.0133432
-4.66942e-05
0.0133528
-4.117e-05
0.0133624
-2.72572e-05
0.013372
-7.76343e-06
0.0133816
1.17562e-05
0.0133913
2.7237e-05
0.0134009
3.59721e-05
0.0134105
3.88645e-05
0.0134201
3.60649e-05
0.0134296
2.87339e-05
0.0134392
1.8675e-05
0.0134487
7.7832e-06
0.0134581
-2.84353e-06
0.0134676
-6.11703e-06
0.013477
-2.84698e-06
0.0134865
9.62551e-06
1.98427e-05
0.0167074
-0.000225172
0.0166994
-0.000387712
0.0167186
-0.000442567
0.0167152
-0.00030467
0.016709
-0.000231035
0.0167031
-0.000173514
0.0166979
-0.000121732
0.0166933
-8.39048e-05
0.0166892
-6.04549e-05
0.0166856
-4.27459e-05
0.0166825
-2.39708e-05
0.0166799
-8.90665e-07
0.0166778
2.61084e-05
0.0166766
5.5935e-05
0.0166769
7.80283e-05
0.0166791
8.72078e-05
0.0166834
8.08761e-05
0.0166899
6.05416e-05
0.0166982
3.03771e-05
0.0167079
-4.81779e-06
0.0167187
-3.44372e-05
0.0167302
-5.25191e-05
0.016742
-6.04024e-05
0.016754
-6.1399e-05
0.0167661
-5.46656e-05
0.0167782
-3.74319e-05
0.0167904
-1.35212e-05
0.0168025
1.05545e-05
0.0168146
2.95786e-05
0.0168267
4.03566e-05
0.0168388
4.38642e-05
0.0168508
4.05082e-05
0.0168629
3.14587e-05
0.0168748
1.91403e-05
0.0168869
5.57147e-06
0.0168987
-7.26865e-06
0.0169107
-1.1669e-05
0.0169224
-6.99195e-06
0.0169346
7.33191e-06
2.08443e-05
0.0194409
-0.000208037
0.0193641
-0.00034722
0.0193426
-0.000459878
0.0193239
-0.00032095
0.0193166
-0.000253164
0.019311
-0.00019058
0.0193065
-0.000133305
0.0193024
-9.12877e-05
0.0192988
-6.52517e-05
0.0192957
-4.59145e-05
0.019293
-2.50534e-05
0.0192908
6.28232e-07
0.0192891
3.06787e-05
0.0192883
6.37059e-05
0.0192889
8.78869e-05
0.0192915
9.74029e-05
0.0192964
8.941e-05
0.0193037
6.57528e-05
0.0193131
3.12422e-05
0.0193243
-8.78547e-06
0.0193366
-4.24945e-05
0.0193498
-6.3083e-05
0.0193635
-7.2004e-05
0.0193774
-7.3246e-05
0.0193914
-6.55131e-05
0.0194054
-4.61919e-05
0.0194195
-1.93196e-05
0.0194335
7.70044e-06
0.0194475
2.9037e-05
0.0194615
4.11532e-05
0.0194755
4.50431e-05
0.0194894
4.13588e-05
0.0195034
3.12246e-05
0.0195172
1.7449e-05
0.0195311
2.08865e-06
0.0195448
-1.21134e-05
0.0195588
-1.73591e-05
0.0195723
-1.14923e-05
0.0195864
3.60896e-06
1.95688e-05
0.0211582
-0.000368753
0.020979
-0.000179165
0.0208958
-0.000390258
0.02086
-0.000297848
0.0208526
-0.000256299
0.0208487
-0.000194775
0.020846
-0.000136425
0.0208437
-9.30738e-05
0.0208417
-6.60906e-05
0.0208399
-4.63084e-05
0.0208385
-2.47517e-05
0.0208375
1.79945e-06
0.0208369
3.29188e-05
0.020837
6.69411e-05
0.0208385
9.15841e-05
0.0208418
0.00010078
0.0208474
9.16144e-05
0.0208554
6.61668e-05
0.0208657
2.95757e-05
0.0208777
-1.26809e-05
0.020891
-4.83068e-05
0.0209052
-7.00573e-05
0.02092
-7.9457e-05
0.020935
-8.07722e-05
0.0209501
-7.268e-05
0.0209653
-5.25469e-05
0.0209804
-2.45038e-05
0.0209956
3.68531e-06
0.0210107
2.59157e-05
0.0210258
3.8566e-05
0.0210409
4.25991e-05
0.0210559
3.88285e-05
0.0210709
2.83221e-05
0.0210859
1.39881e-05
0.0211009
-2.12165e-06
0.0211157
-1.67652e-05
0.0211308
-2.25825e-05
0.0211453
-1.57579e-05
0.0211606
-9.21943e-07
1.63461e-05
0.0211587
-0.000503344
0.0210031
-1.013e-05
0.0209161
-0.000290501
0.020885
-0.00025536
0.0208818
-0.00024371
0.0208813
-0.000187076
0.0208817
-0.000131589
0.0208822
-8.97643e-05
0.0208826
-6.35799e-05
0.0208831
-4.44719e-05
0.0208837
-2.36231e-05
0.0208846
2.03667e-06
0.0208857
3.211e-05
0.0208875
6.48527e-05
0.0208904
8.83428e-05
0.0208948
9.66896e-05
0.0209013
8.71008e-05
0.0209099
6.17212e-05
0.0209206
2.56337e-05
0.0209328
-1.59292e-05
0.0209463
-5.09626e-05
0.0209606
-7.23275e-05
0.0209754
-8.15629e-05
0.0209904
-8.28317e-05
0.0210056
-7.50178e-05
0.0210207
-5.53608e-05
0.0210359
-2.81293e-05
0.0210511
-7.05932e-07
0.0210662
2.09199e-05
0.0210813
3.32406e-05
0.0210964
3.71577e-05
0.0211114
3.35594e-05
0.0211264
2.33948e-05
0.0211414
9.48758e-06
0.0211564
-6.27456e-06
0.0211712
-2.03413e-05
0.0211863
-2.63337e-05
0.0212008
-1.91914e-05
0.0212161
-5.48383e-06
1.19444e-05
0.0194395
-0.000397962
0.0194274
3.94796e-05
0.0194005
-0.000225242
0.019397
-0.000216728
0.0194014
-0.00021926
0.0194054
-0.000168832
0.0194093
-0.000119373
0.0194128
-8.17347e-05
0.019416
-5.80656e-05
0.0194191
-4.07898e-05
0.0194222
-2.19987e-05
0.0194252
1.08243e-06
0.0194284
2.80716e-05
0.0194319
5.73733e-05
0.0194363
7.82409e-05
0.0194419
8.53668e-05
0.0194491
7.62871e-05
0.019458
5.29777e-05
0.0194685
2.01086e-05
0.0194803
-1.77024e-05
0.0194931
-4.95469e-05
0.0195065
-6.89446e-05
0.0195203
-7.73102e-05
0.0195342
-7.84947e-05
0.0195483
-7.14951e-05
0.0195624
-5.36613e-05
0.0195764
-2.91864e-05
0.0195905
-4.40672e-06
0.0196045
1.511e-05
0.0196185
2.62322e-05
0.0196325
2.97599e-05
0.0196464
2.66052e-05
0.0196603
1.74446e-05
0.0196742
4.95536e-06
0.0196881
-9.3772e-06
0.0197019
-2.19022e-05
0.0197159
-2.76053e-05
0.0197293
-2.05927e-05
0.0197436
-9.06916e-06
7.4083e-06
0.016707
-0.000180301
0.0167885
1.77612e-05
0.016805
-0.000180442
0.0168247
-0.000180838
0.0168344
-0.000182678
0.0168417
-0.000140402
0.0168482
-9.99018e-05
0.016854
-6.89097e-05
0.0168594
-4.93643e-05
0.0168645
-3.50466e-05
0.0168693
-1.957e-05
0.016874
-5.98504e-07
0.0168787
2.14805e-05
0.0168835
4.54227e-05
0.0168888
6.23887e-05
0.016895
6.80168e-05
0.0169024
6.03626e-05
0.0169109
4.10138e-05
0.0169206
1.38932e-05
0.0169313
-1.7336e-05
0.0169426
-4.3563e-05
0.0169543
-5.95331e-05
0.0169663
-6.64812e-05
0.0169784
-6.7433e-05
0.0169906
-6.17249e-05
0.0170028
-4.7013e-05
0.0170149
-2.69815e-05
0.017027
-6.6063e-06
0.0170391
9.41792e-06
0.0170512
1.85591e-05
0.0170633
2.14519e-05
0.0170753
1.89727e-05
0.0170874
1.14232e-05
0.0170994
1.22453e-06
0.0171114
-1.06629e-05
0.0171233
-2.07472e-05
0.0171354
-2.57366e-05
0.0171471
-1.94345e-05
0.0171594
-1.08044e-05
3.51403e-06
0.0132514
-1.83609e-05
0.013376
-2.93318e-05
0.01341
-0.000134475
0.0134397
-0.000138022
0.0134508
-0.000133216
0.0134594
-0.000102198
0.0134669
-7.33011e-05
0.0134735
-5.10997e-05
0.0134798
-3.70875e-05
0.0134857
-2.67545e-05
0.0134912
-1.56753e-05
0.0134965
-2.13125e-06
0.0135016
1.35379e-05
0.0135068
3.05235e-05
0.0135122
4.25314e-05
0.0135182
4.64428e-05
0.0135249
4.09573e-05
0.0135323
2.71471e-05
0.0135405
7.85313e-06
0.0135492
-1.4419e-05
0.0135584
-3.30507e-05
0.0135679
-4.44056e-05
0.0135775
-4.93736e-05
0.0135871
-5.00418e-05
0.0135968
-4.60119e-05
0.0136065
-3.55244e-05
0.0136162
-2.13129e-05
0.0136258
-6.82445e-06
0.0136354
4.56634e-06
0.013645
1.10783e-05
0.0136546
1.31301e-05
0.0136642
1.14628e-05
0.0136737
6.07106e-06
0.0136832
-1.13535e-06
0.0136928
-9.69045e-06
0.0137023
-1.66755e-05
0.0137119
-2.0472e-05
0.0137213
-1.55755e-05
0.0137308
-1.00909e-05
7.27142e-07
0.00908005
2.61927e-06
0.00919369
-5.4388e-05
0.00922968
-7.71832e-05
0.00925595
-7.98482e-05
0.00926535
-7.19082e-05
0.00927302
-5.52205e-05
0.0092795
-4.00001e-05
0.00928538
-2.83045e-05
0.00929091
-2.09038e-05
0.0092961
-1.54117e-05
0.009301
-9.57838e-06
0.00930563
-2.47635e-06
0.00931009
5.69367e-06
0.00931446
1.45436e-05
0.00931893
2.0801e-05
0.00932365
2.28389e-05
0.00932873
2.00146e-05
0.00933422
1.28558e-05
0.00934008
2.85127e-06
0.00934628
-8.73005e-06
0.00935271
-1.84024e-05
0.00935926
-2.43032e-05
0.00936585
-2.68905e-05
0.00937248
-2.72424e-05
0.00937914
-2.51577e-05
0.00938578
-1.96989e-05
0.00939238
-1.23147e-05
0.00939895
-4.77889e-06
0.00940549
1.15123e-06
0.00941204
4.56679e-06
0.00941857
5.64912e-06
0.00942511
4.8299e-06
0.0094316
2.03081e-06
0.00943816
-1.70445e-06
0.00944461
-6.19633e-06
0.00945126
-9.7569e-06
0.00945761
-1.18075e-05
0.00946447
-9.15421e-06
0.00947045
-6.48334e-06
-6.81646e-07
0.00360212
0.0036434
0.00366654
0.0036774
0.00368158
0.00368518
0.003688
0.0036906
0.00369308
0.00369544
0.00369766
0.00369975
0.00370174
0.00370364
0.00370554
0.0037075
0.00370958
0.00371181
0.00371416
0.00371665
0.00371924
0.00372185
0.00372446
0.00372708
0.00372973
0.00373235
0.00373493
0.00373748
0.00374
0.00374253
0.00374505
0.0037476
0.00375009
0.00375271
0.00375515
0.00375793
0.00376023
0.00376333
0.00376509
)
;

boundaryField
{
    upperWall
    {
        type            calculated;
        value           uniform 0;
    }
    lowerWall
    {
        type            calculated;
        value           uniform 0;
    }
    heatedWall
    {
        type            calculated;
        value           uniform 0;
    }
    inlet
    {
        type            calculated;
        value           nonuniform List<scalar> 
12
(
-0.0138692
-0.0138691
-0.013869
-0.0138689
-0.0138687
-0.0138686
-0.0138684
-0.0138683
-0.0138682
-0.0138681
-0.013868
-0.0138681
)
;
    }
    outlet
    {
        type            calculated;
        value           nonuniform List<scalar> 
12
(
0.00367364
0.00926742
0.0134959
0.0169463
0.0196
0.0211752
0.0212307
0.019757
0.017171
0.0137402
0.00947712
0.00376806
)
;
    }
    frontAndBack
    {
        type            empty;
        value           nonuniform 0();
    }
}


// ************************************************************************* //
