/*--------------------------------*- C++ -*----------------------------------*\
  =========                 |
  \\      /  F ield         | OpenFOAM: The Open Source CFD Toolbox
   \\    /   O peration     | Website:  https://openfoam.org
    \\  /    A nd           | Version:  7
     \\/     M anipulation  |
\*---------------------------------------------------------------------------*/
FoamFile
{
    version     2.0;
    format      ascii;
    class       volScalarField;
    location    "4.35";
    object      alphat;
}
// * * * * * * * * * * * * * * * * * * * * * * * * * * * * * * * * * * * * * //

dimensions      [1 -1 -1 0 0 0 0];

internalField   nonuniform List<scalar> 
6000
(
0.0807349
0.0806602
0.080698
0.080688
0.0806845
0.0806779
0.0806716
0.0806648
0.0806596
0.0807008
0.0516909
0.0516263
0.0515385
0.0515511
0.0515363
0.0515373
0.0515356
0.0515335
0.0515551
0.0515952
0.0486181
0.0485666
0.0484591
0.0484812
0.0484612
0.0484649
0.048462
0.0484601
0.0484785
0.048513
0.048788
0.0488428
0.0487428
0.0487744
0.048753
0.0487582
0.0487545
0.0487539
0.0487731
0.0488053
0.0485828
0.0486372
0.0485196
0.0485495
0.0485261
0.0485312
0.0485281
0.0485282
0.0485476
0.0485808
0.0486622
0.0487355
0.0486312
0.0486663
0.0486434
0.0486493
0.0486455
0.048646
0.0486641
0.0486976
0.0486622
0.0487355
0.0486312
0.0486663
0.0486434
0.0486493
0.0486455
0.048646
0.0486641
0.0486972
0.0485828
0.0486372
0.0485196
0.0485495
0.0485261
0.0485312
0.0485281
0.0485281
0.0485477
0.04858
0.048788
0.0488428
0.0487428
0.0487743
0.0487531
0.0487582
0.0487545
0.0487538
0.0487733
0.0488048
0.0486181
0.0485666
0.0484591
0.0484812
0.0484612
0.0484648
0.048462
0.0484599
0.0484787
0.0485118
0.0516909
0.0516263
0.0515385
0.0515511
0.0515364
0.0515373
0.0515356
0.0515334
0.0515553
0.051594
0.0807349
0.0806602
0.080698
0.080688
0.0806845
0.0806778
0.0806717
0.0806647
0.0806601
0.0807005
0.0468504
0.0473352
0.0472824
0.0472629
0.0472606
0.047252
0.0472482
0.0472455
0.047268
0.0472988
0.0474428
0.0482377
0.0481237
0.0481122
0.0481083
0.0481011
0.0481013
0.0481016
0.0481516
0.0481714
0.0461001
0.0471459
0.0469673
0.0469578
0.0469507
0.046943
0.0469446
0.0469469
0.0470225
0.047037
0.0469541
0.0478472
0.0477682
0.0477628
0.0477625
0.0477558
0.0477568
0.0477568
0.0477975
0.0478173
0.0465726
0.0475048
0.0474777
0.0474751
0.0474782
0.0474723
0.0474722
0.0474719
0.0475008
0.0475179
0.0467911
0.0476647
0.0476357
0.0476347
0.0476382
0.0476328
0.0476329
0.0476327
0.0476587
0.0476765
0.0467911
0.0476647
0.0476357
0.0476347
0.0476382
0.0476328
0.047633
0.0476326
0.0476588
0.0476764
0.0465726
0.0475048
0.0474778
0.0474751
0.0474782
0.0474723
0.0474723
0.0474717
0.047501
0.0475177
0.0469541
0.0478471
0.0477682
0.0477627
0.0477625
0.0477557
0.047757
0.0477565
0.0477977
0.0478168
0.0461001
0.0471459
0.0469673
0.0469577
0.0469508
0.0469429
0.0469448
0.0469466
0.0470229
0.0470368
0.0474428
0.0482377
0.0481237
0.0481122
0.0481084
0.048101
0.0481014
0.0481013
0.048152
0.048171
0.0468504
0.0473352
0.0472824
0.0472628
0.0472606
0.0472519
0.0472484
0.0472451
0.0472687
0.0472975
0.0159031
0.0163216
0.016323
0.0163009
0.0162999
0.0162935
0.0162887
0.0162848
0.0162951
0.0163227
0.0174193
0.0180244
0.0180199
0.0179493
0.017954
0.0179397
0.0179301
0.0179236
0.0179439
0.0179712
0.0162001
0.0168208
0.0167967
0.016781
0.0167821
0.0167764
0.0167733
0.016771
0.0167898
0.0168293
0.0167174
0.01738
0.01738
0.0173267
0.0173369
0.0173227
0.0173116
0.0173053
0.0173253
0.0173559
0.0163748
0.0170241
0.0170319
0.0169501
0.0169601
0.0169429
0.0169308
0.0169234
0.0169356
0.0169676
0.0165225
0.0171453
0.017155
0.0170864
0.017096
0.0170825
0.0170707
0.0170642
0.0170785
0.0171098
0.0165225
0.0171453
0.017155
0.0170864
0.0170961
0.0170825
0.0170707
0.0170642
0.0170786
0.01711
0.0163748
0.0170241
0.0170319
0.0169501
0.0169601
0.0169428
0.0169309
0.0169232
0.0169358
0.0169671
0.0167174
0.01738
0.01738
0.0173267
0.017337
0.0173227
0.0173117
0.0173051
0.0173256
0.0173556
0.0162001
0.0168208
0.0167967
0.0167809
0.0167822
0.0167763
0.0167735
0.0167707
0.0167903
0.0168286
0.0174193
0.0180244
0.01802
0.0179493
0.017954
0.0179396
0.0179302
0.0179233
0.0179443
0.0179704
0.0159031
0.0163216
0.016323
0.0163009
0.0163
0.0162935
0.0162889
0.0162845
0.0162957
0.0163213
0.00534513
0.00571926
0.00570813
0.00568219
0.00568038
0.00567605
0.00567117
0.00566856
0.00567523
0.00570938
0.00590987
0.00648095
0.00647557
0.00644284
0.00643877
0.00642755
0.00642191
0.00642012
0.00643433
0.0064743
0.00551602
0.00603024
0.00602295
0.00601595
0.0060166
0.00601416
0.00601305
0.00601435
0.00602026
0.00606705
0.00566897
0.00623056
0.00623299
0.00621023
0.00621314
0.00620659
0.00620201
0.00620212
0.00621265
0.00625693
0.00554895
0.00609969
0.00609034
0.00605345
0.00605462
0.00604621
0.00604084
0.00604071
0.00605665
0.00610277
0.00559221
0.00616987
0.00615038
0.0061132
0.00611168
0.00610301
0.00609865
0.00609885
0.00611464
0.00616376
0.00559221
0.00616987
0.00615039
0.00611319
0.00611169
0.006103
0.00609866
0.00609881
0.00611461
0.00616348
0.00554895
0.00609968
0.00609036
0.00605342
0.00605466
0.00604616
0.0060409
0.00604059
0.00605687
0.00610265
0.00566897
0.00623055
0.00623302
0.00621019
0.0062132
0.00620652
0.00620211
0.00620194
0.00621304
0.00625624
0.00551602
0.00603023
0.00602297
0.00601591
0.00601667
0.00601407
0.00601322
0.00601403
0.00602093
0.00606632
0.00590987
0.00648094
0.00647559
0.00644281
0.00643883
0.00642746
0.00642205
0.00641988
0.00643492
0.00647312
0.00534513
0.00571926
0.00570814
0.00568217
0.00568043
0.005676
0.00567132
0.00566841
0.00567599
0.00570834
0.00206365
0.00231605
0.00227433
0.00221918
0.00220872
0.00220622
0.00220006
0.00221382
0.00221013
0.00227455
0.00186744
0.00234604
0.00239942
0.00240573
0.00240516
0.00240324
0.0024008
0.00240441
0.00240603
0.00244239
0.00170204
0.00217912
0.00222036
0.00223302
0.0022382
0.00223952
0.00224096
0.00224561
0.00224992
0.00228558
0.00174034
0.00220776
0.0022548
0.00225869
0.00226389
0.00226548
0.00226673
0.00227083
0.00227571
0.00231072
0.0017045
0.00216942
0.0022121
0.00221333
0.00221414
0.00221203
0.00221145
0.00221421
0.00221974
0.0022542
0.00171912
0.00218844
0.00222698
0.00222348
0.00222179
0.00221934
0.00222169
0.00222478
0.0022265
0.00225851
0.00171911
0.00218843
0.00222698
0.00222347
0.0022218
0.00221933
0.00222171
0.00222475
0.00222654
0.00225834
0.0017045
0.00216941
0.00221212
0.0022133
0.00221418
0.00221198
0.00221149
0.00221405
0.00221982
0.00225377
0.00174034
0.00220775
0.00225482
0.00225865
0.00226395
0.0022654
0.00226687
0.00227062
0.00227598
0.00231009
0.00170204
0.00217911
0.00222038
0.002233
0.00223824
0.00223941
0.00224112
0.00224534
0.00225023
0.0022847
0.00186744
0.00234604
0.00239943
0.00240571
0.00240522
0.00240319
0.00240094
0.00240429
0.00240659
0.00244166
0.00206363
0.00231606
0.00227433
0.0022192
0.00220875
0.00220629
0.00220024
0.00221446
0.00221141
0.0022755
0.00206365
0.00231605
0.00227433
0.00221918
0.00220872
0.00220622
0.00220006
0.00221382
0.00221013
0.00227455
0.00186744
0.00234604
0.00239942
0.00240573
0.00240516
0.00240324
0.0024008
0.00240441
0.00240603
0.00244239
0.00170204
0.00217912
0.00222036
0.00223302
0.0022382
0.00223952
0.00224096
0.00224561
0.00224992
0.00228558
0.00174034
0.00220776
0.0022548
0.00225869
0.00226389
0.00226548
0.00226673
0.00227083
0.00227571
0.00231072
0.0017045
0.00216942
0.0022121
0.00221333
0.00221414
0.00221203
0.00221145
0.00221421
0.00221974
0.0022542
0.00171912
0.00218844
0.00222698
0.00222348
0.00222179
0.00221934
0.00222169
0.00222478
0.0022265
0.00225851
0.00171911
0.00218843
0.00222698
0.00222347
0.0022218
0.00221933
0.00222171
0.00222475
0.00222654
0.00225834
0.0017045
0.00216941
0.00221212
0.0022133
0.00221418
0.00221198
0.00221149
0.00221405
0.00221982
0.00225377
0.00174034
0.00220775
0.00225482
0.00225865
0.00226395
0.0022654
0.00226687
0.00227062
0.00227598
0.00231009
0.00170204
0.00217911
0.00222038
0.002233
0.00223824
0.00223941
0.00224112
0.00224534
0.00225023
0.0022847
0.00186744
0.00234604
0.00239943
0.00240571
0.00240522
0.00240319
0.00240094
0.00240429
0.00240659
0.00244166
0.00206363
0.00231606
0.00227433
0.0022192
0.00220875
0.00220629
0.00220024
0.00221446
0.00221141
0.0022755
0.00534513
0.00571926
0.00570813
0.00568219
0.00568038
0.00567605
0.00567117
0.00566856
0.00567523
0.00570938
0.00590987
0.00648095
0.00647557
0.00644284
0.00643877
0.00642755
0.00642191
0.00642012
0.00643433
0.0064743
0.00551602
0.00603024
0.00602295
0.00601595
0.0060166
0.00601416
0.00601305
0.00601435
0.00602026
0.00606705
0.00566897
0.00623056
0.00623299
0.00621023
0.00621314
0.00620659
0.00620201
0.00620212
0.00621265
0.00625693
0.00554895
0.00609969
0.00609034
0.00605345
0.00605462
0.00604621
0.00604084
0.00604071
0.00605665
0.00610277
0.00559221
0.00616987
0.00615038
0.0061132
0.00611168
0.00610301
0.00609865
0.00609885
0.00611464
0.00616376
0.00559221
0.00616987
0.00615039
0.00611319
0.00611169
0.006103
0.00609866
0.00609881
0.00611461
0.00616348
0.00554895
0.00609968
0.00609036
0.00605342
0.00605466
0.00604616
0.0060409
0.00604059
0.00605687
0.00610265
0.00566897
0.00623055
0.00623302
0.00621019
0.0062132
0.00620652
0.00620211
0.00620194
0.00621304
0.00625624
0.00551602
0.00603023
0.00602297
0.00601591
0.00601667
0.00601407
0.00601322
0.00601403
0.00602093
0.00606632
0.00590987
0.00648094
0.00647559
0.00644281
0.00643883
0.00642746
0.00642205
0.00641988
0.00643492
0.00647312
0.00534513
0.00571926
0.00570814
0.00568217
0.00568043
0.005676
0.00567132
0.00566841
0.00567599
0.00570834
0.0159031
0.0163216
0.016323
0.0163009
0.0162999
0.0162935
0.0162887
0.0162848
0.0162951
0.0163227
0.0174193
0.0180244
0.0180199
0.0179493
0.017954
0.0179397
0.0179301
0.0179236
0.0179439
0.0179712
0.0162001
0.0168208
0.0167967
0.016781
0.0167821
0.0167764
0.0167733
0.016771
0.0167898
0.0168293
0.0167174
0.01738
0.01738
0.0173267
0.0173369
0.0173227
0.0173116
0.0173053
0.0173253
0.0173559
0.0163748
0.0170241
0.0170319
0.0169501
0.0169601
0.0169429
0.0169308
0.0169234
0.0169356
0.0169676
0.0165225
0.0171453
0.017155
0.0170864
0.017096
0.0170825
0.0170707
0.0170642
0.0170785
0.0171098
0.0165225
0.0171453
0.017155
0.0170864
0.0170961
0.0170825
0.0170707
0.0170642
0.0170786
0.01711
0.0163748
0.0170241
0.0170319
0.0169501
0.0169601
0.0169428
0.0169309
0.0169232
0.0169358
0.0169671
0.0167174
0.01738
0.01738
0.0173267
0.017337
0.0173227
0.0173117
0.0173051
0.0173256
0.0173556
0.0162001
0.0168208
0.0167967
0.0167809
0.0167822
0.0167763
0.0167735
0.0167707
0.0167903
0.0168286
0.0174193
0.0180244
0.01802
0.0179493
0.017954
0.0179396
0.0179302
0.0179233
0.0179443
0.0179704
0.0159031
0.0163216
0.016323
0.0163009
0.0163
0.0162935
0.0162889
0.0162845
0.0162957
0.0163213
0.0468504
0.0473352
0.0472824
0.0472629
0.0472606
0.047252
0.0472482
0.0472455
0.047268
0.0472988
0.0474428
0.0482377
0.0481237
0.0481122
0.0481083
0.0481011
0.0481013
0.0481016
0.0481516
0.0481714
0.0461001
0.0471459
0.0469673
0.0469578
0.0469507
0.046943
0.0469446
0.0469469
0.0470225
0.047037
0.0469541
0.0478472
0.0477682
0.0477628
0.0477625
0.0477558
0.0477568
0.0477568
0.0477975
0.0478173
0.0465726
0.0475048
0.0474777
0.0474751
0.0474782
0.0474723
0.0474722
0.0474719
0.0475008
0.0475179
0.0467911
0.0476647
0.0476357
0.0476347
0.0476382
0.0476328
0.0476329
0.0476327
0.0476587
0.0476765
0.0467911
0.0476647
0.0476357
0.0476347
0.0476382
0.0476328
0.047633
0.0476326
0.0476588
0.0476764
0.0465726
0.0475048
0.0474778
0.0474751
0.0474782
0.0474723
0.0474723
0.0474717
0.047501
0.0475177
0.0469541
0.0478471
0.0477682
0.0477627
0.0477625
0.0477557
0.047757
0.0477565
0.0477977
0.0478168
0.0461001
0.0471459
0.0469673
0.0469577
0.0469508
0.0469429
0.0469448
0.0469466
0.0470229
0.0470368
0.0474428
0.0482377
0.0481237
0.0481122
0.0481084
0.048101
0.0481014
0.0481013
0.048152
0.048171
0.0468504
0.0473352
0.0472824
0.0472628
0.0472606
0.0472519
0.0472484
0.0472451
0.0472687
0.0472975
0.0807349
0.0806602
0.080698
0.080688
0.0806845
0.0806779
0.0806716
0.0806648
0.0806596
0.0807008
0.0516909
0.0516263
0.0515385
0.0515511
0.0515363
0.0515373
0.0515356
0.0515335
0.0515551
0.0515952
0.0486181
0.0485666
0.0484591
0.0484812
0.0484612
0.0484649
0.048462
0.0484601
0.0484785
0.048513
0.048788
0.0488428
0.0487428
0.0487744
0.048753
0.0487582
0.0487545
0.0487539
0.0487731
0.0488053
0.0485828
0.0486372
0.0485196
0.0485495
0.0485261
0.0485312
0.0485281
0.0485282
0.0485476
0.0485808
0.0486622
0.0487355
0.0486312
0.0486663
0.0486434
0.0486493
0.0486455
0.048646
0.0486641
0.0486976
0.0486622
0.0487355
0.0486312
0.0486663
0.0486434
0.0486493
0.0486455
0.048646
0.0486641
0.0486972
0.0485828
0.0486372
0.0485196
0.0485495
0.0485261
0.0485312
0.0485281
0.0485281
0.0485477
0.04858
0.048788
0.0488428
0.0487428
0.0487743
0.0487531
0.0487582
0.0487545
0.0487538
0.0487733
0.0488048
0.0486181
0.0485666
0.0484591
0.0484812
0.0484612
0.0484648
0.048462
0.0484599
0.0484787
0.0485118
0.0516909
0.0516263
0.0515385
0.0515511
0.0515364
0.0515373
0.0515356
0.0515334
0.0515553
0.051594
0.0807349
0.0806602
0.080698
0.080688
0.0806845
0.0806778
0.0806717
0.0806647
0.0806601
0.0807005
0.240671
0.240503
0.240358
0.240165
0.240011
0.239834
0.239672
0.2395
0.239335
0.239165
0.238998
0.238828
0.23866
0.238491
0.238322
0.238152
0.237983
0.237813
0.237643
0.237473
0.237302
0.237132
0.236961
0.23679
0.236619
0.236447
0.236276
0.236105
0.235934
0.235762
0.235588
0.235414
0.23524
0.235067
0.234898
0.234725
0.234562
0.234379
0.234225
0.234007
0.185735
0.18581
0.185707
0.18557
0.185453
0.185324
0.185203
0.185077
0.184954
0.184828
0.184704
0.184579
0.184454
0.184329
0.184204
0.184078
0.183952
0.183827
0.183701
0.183574
0.183448
0.183322
0.183195
0.183068
0.182941
0.182814
0.182686
0.182559
0.182433
0.182306
0.182177
0.182047
0.181917
0.181787
0.181661
0.181533
0.181414
0.181281
0.181167
0.181005
0.174255
0.17447
0.174372
0.174251
0.17414
0.174023
0.17391
0.173795
0.173681
0.173565
0.173451
0.173335
0.17322
0.173105
0.172989
0.172873
0.172758
0.172642
0.172525
0.172409
0.172292
0.172176
0.172059
0.171942
0.171825
0.171707
0.171589
0.171472
0.171356
0.171239
0.17112
0.171
0.17088
0.170759
0.170642
0.170524
0.170415
0.170293
0.170188
0.170032
0.173742
0.174021
0.173915
0.173798
0.173685
0.173571
0.173458
0.173344
0.17323
0.173116
0.173002
0.172887
0.172773
0.172658
0.172544
0.172429
0.172314
0.172198
0.172083
0.171967
0.171851
0.171736
0.17162
0.171504
0.171387
0.17127
0.171153
0.171037
0.170921
0.170805
0.170687
0.170568
0.170448
0.170328
0.170212
0.170095
0.169986
0.169865
0.169761
0.1696
0.17312
0.173453
0.173343
0.173231
0.173116
0.173004
0.172891
0.172778
0.172665
0.172552
0.172439
0.172326
0.172212
0.172099
0.171985
0.171871
0.171757
0.171642
0.171528
0.171413
0.171298
0.171184
0.171069
0.170954
0.170838
0.170722
0.170606
0.170491
0.170376
0.17026
0.170144
0.170026
0.169907
0.169788
0.169673
0.169556
0.169448
0.169328
0.169226
0.169061
0.173241
0.173594
0.17348
0.17337
0.173253
0.173142
0.173028
0.172916
0.172802
0.172689
0.172575
0.172462
0.172348
0.172234
0.17212
0.172005
0.171891
0.171777
0.171662
0.171547
0.171432
0.171317
0.171202
0.171086
0.17097
0.170854
0.170738
0.170622
0.170507
0.170391
0.170274
0.170156
0.170037
0.169918
0.169802
0.169685
0.169577
0.169457
0.169354
0.169186
0.173243
0.173597
0.173484
0.173373
0.173256
0.173145
0.173031
0.172919
0.172805
0.172692
0.172578
0.172465
0.172351
0.172237
0.172123
0.172009
0.171894
0.17178
0.171665
0.17155
0.171435
0.17132
0.171205
0.171089
0.170973
0.170857
0.170741
0.170625
0.17051
0.170394
0.170278
0.170159
0.17004
0.169921
0.169805
0.169689
0.16958
0.16946
0.169357
0.169189
0.173125
0.173462
0.173352
0.17324
0.173125
0.173014
0.1729
0.172788
0.172675
0.172562
0.172449
0.172336
0.172222
0.172108
0.171995
0.171881
0.171766
0.171652
0.171538
0.171423
0.171308
0.171194
0.171079
0.170963
0.170848
0.170732
0.170616
0.170501
0.170386
0.17027
0.170154
0.170035
0.169917
0.169798
0.169683
0.169566
0.169458
0.169338
0.169235
0.169071
0.173754
0.174039
0.173934
0.173817
0.173704
0.17359
0.173476
0.173362
0.173249
0.173135
0.17302
0.172906
0.172792
0.172677
0.172562
0.172447
0.172332
0.172217
0.172101
0.171986
0.17187
0.171754
0.171638
0.171522
0.171406
0.171289
0.171172
0.171056
0.17094
0.170823
0.170706
0.170586
0.170467
0.170347
0.170231
0.170113
0.170005
0.169884
0.16978
0.169618
0.174271
0.174495
0.174398
0.174277
0.174166
0.17405
0.173936
0.173821
0.173707
0.173592
0.173477
0.173362
0.173246
0.173131
0.173015
0.1729
0.172784
0.172668
0.172551
0.172435
0.172318
0.172202
0.172085
0.171968
0.171851
0.171733
0.171615
0.171498
0.171382
0.171265
0.171146
0.171026
0.170905
0.170785
0.170668
0.17055
0.170441
0.170319
0.170214
0.170058
0.185764
0.18585
0.185749
0.185611
0.185495
0.185366
0.185245
0.185118
0.184995
0.18487
0.184746
0.18462
0.184496
0.18437
0.184245
0.184119
0.183994
0.183868
0.183742
0.183616
0.183489
0.183363
0.183236
0.18311
0.182982
0.182855
0.182727
0.182601
0.182474
0.182347
0.182218
0.182088
0.181958
0.181828
0.181702
0.181574
0.181455
0.181321
0.181208
0.181046
0.240764
0.240615
0.240472
0.24028
0.240126
0.239949
0.239787
0.239615
0.239449
0.239279
0.239112
0.238942
0.238774
0.238604
0.238435
0.238266
0.238096
0.237926
0.237756
0.237586
0.237415
0.237245
0.237074
0.236903
0.236731
0.236559
0.236388
0.236217
0.236046
0.235873
0.2357
0.235526
0.235352
0.235178
0.235009
0.234836
0.234673
0.23449
0.234336
0.234117
0.155683
0.155595
0.155496
0.155366
0.155264
0.155145
0.155038
0.154923
0.154813
0.1547
0.154589
0.154476
0.154364
0.154251
0.154139
0.154026
0.153914
0.153801
0.153688
0.153575
0.153461
0.153348
0.153235
0.153121
0.153007
0.152893
0.152779
0.152666
0.152552
0.152438
0.152323
0.152207
0.152091
0.151976
0.151864
0.151749
0.151643
0.151522
0.151425
0.151278
0.168361
0.16837
0.168285
0.168155
0.168054
0.167936
0.16783
0.167716
0.167607
0.167494
0.167384
0.167272
0.16716
0.167048
0.166936
0.166824
0.166712
0.1666
0.166487
0.166374
0.166261
0.166148
0.166035
0.165922
0.165808
0.165694
0.16558
0.165467
0.165353
0.16524
0.165125
0.165009
0.164892
0.164775
0.164662
0.164548
0.164442
0.164323
0.164223
0.16408
0.164683
0.164775
0.164692
0.164567
0.16447
0.164355
0.164253
0.164143
0.164037
0.163929
0.163822
0.163714
0.163606
0.163498
0.16339
0.163282
0.163173
0.163065
0.162956
0.162847
0.162738
0.162629
0.16252
0.16241
0.1623
0.16219
0.16208
0.16197
0.161861
0.161751
0.16164
0.161528
0.161415
0.161302
0.161193
0.161082
0.16098
0.160866
0.160771
0.160627
0.165505
0.165664
0.165581
0.165454
0.165355
0.16524
0.165136
0.165024
0.164917
0.164807
0.164699
0.164589
0.16448
0.16437
0.16426
0.164151
0.164041
0.163931
0.16382
0.16371
0.163599
0.163489
0.163378
0.163267
0.163155
0.163044
0.162932
0.162821
0.16271
0.162599
0.162487
0.162373
0.162259
0.162144
0.162033
0.161921
0.161817
0.161702
0.161605
0.161454
0.164907
0.16511
0.165029
0.164904
0.164806
0.164692
0.164589
0.164479
0.164373
0.164265
0.164157
0.164049
0.163941
0.163833
0.163724
0.163616
0.163507
0.163398
0.163289
0.16318
0.163071
0.162961
0.162852
0.162742
0.162632
0.162521
0.162411
0.162301
0.162192
0.162082
0.161971
0.161858
0.161745
0.161631
0.161522
0.161411
0.161308
0.161194
0.161098
0.160946
0.164961
0.165188
0.165105
0.16498
0.164882
0.164767
0.164663
0.164553
0.164446
0.164337
0.164229
0.164121
0.164012
0.163903
0.163794
0.163685
0.163576
0.163467
0.163357
0.163247
0.163138
0.163028
0.162918
0.162808
0.162697
0.162586
0.162475
0.162365
0.162255
0.162144
0.162033
0.16192
0.161806
0.161692
0.161582
0.16147
0.161368
0.161253
0.161157
0.161003
0.164963
0.165191
0.165109
0.164984
0.164886
0.164771
0.164667
0.164557
0.16445
0.164341
0.164233
0.164125
0.164016
0.163907
0.163798
0.163689
0.16358
0.163471
0.163361
0.163251
0.163142
0.163032
0.162922
0.162812
0.162701
0.16259
0.162479
0.162369
0.162259
0.162148
0.162037
0.161923
0.16181
0.161696
0.161586
0.161474
0.161371
0.161257
0.161161
0.161006
0.164913
0.165122
0.165041
0.164917
0.164819
0.164705
0.164602
0.164492
0.164386
0.164277
0.16417
0.164062
0.163954
0.163845
0.163737
0.163628
0.16352
0.163411
0.163302
0.163193
0.163083
0.162974
0.162865
0.162755
0.162644
0.162534
0.162424
0.162314
0.162204
0.162094
0.161983
0.16187
0.161757
0.161644
0.161534
0.161423
0.161321
0.161207
0.161111
0.160959
0.165518
0.165685
0.165603
0.165477
0.165378
0.165263
0.165158
0.165047
0.16494
0.16483
0.164721
0.164612
0.164503
0.164393
0.164283
0.164173
0.164064
0.163953
0.163843
0.163733
0.163622
0.163511
0.163401
0.16329
0.163178
0.163066
0.162955
0.162844
0.162733
0.162622
0.16251
0.162396
0.162281
0.162167
0.162056
0.161944
0.16184
0.161724
0.161628
0.161476
0.164706
0.164807
0.164726
0.164601
0.164504
0.16439
0.164287
0.164177
0.164072
0.163963
0.163856
0.163748
0.16364
0.163532
0.163424
0.163316
0.163207
0.163099
0.16299
0.162881
0.162772
0.162663
0.162553
0.162444
0.162334
0.162224
0.162114
0.162004
0.161895
0.161785
0.161674
0.161562
0.161449
0.161336
0.161226
0.161116
0.161014
0.1609
0.160804
0.160661
0.1684
0.16842
0.168337
0.168207
0.168107
0.167989
0.167883
0.167768
0.167659
0.167547
0.167436
0.167324
0.167213
0.167101
0.166989
0.166877
0.166764
0.166652
0.166539
0.166426
0.166313
0.1662
0.166087
0.165974
0.16586
0.165746
0.165632
0.165518
0.165405
0.165292
0.165177
0.16506
0.164944
0.164827
0.164714
0.164599
0.164493
0.164375
0.164275
0.164132
0.155763
0.15569
0.155594
0.155464
0.155362
0.155243
0.155136
0.155021
0.154911
0.154798
0.154686
0.154574
0.154461
0.154349
0.154236
0.154123
0.154011
0.153897
0.153784
0.153671
0.153558
0.153444
0.153331
0.153217
0.153103
0.152989
0.152875
0.152761
0.152648
0.152534
0.152419
0.152302
0.152186
0.152071
0.151959
0.151844
0.151738
0.151616
0.151519
0.151372
0.074649
0.0746757
0.0746228
0.074561
0.0745125
0.0744562
0.0744058
0.0743517
0.0742999
0.0742466
0.0741942
0.0741411
0.0740884
0.0740353
0.0739823
0.0739292
0.0738761
0.0738229
0.0737696
0.0737162
0.0736629
0.0736096
0.0735562
0.0735026
0.0734488
0.0733948
0.073341
0.0732877
0.0732346
0.0731812
0.0731269
0.0730714
0.0730159
0.0729603
0.0729077
0.0728542
0.0728068
0.0727508
0.0727091
0.0726398
0.0874937
0.0875872
0.0875293
0.0874572
0.0874065
0.0873433
0.0872897
0.0872301
0.0871743
0.087116
0.0870591
0.0870013
0.0869439
0.0868861
0.0868284
0.0867706
0.0867128
0.0866548
0.0865967
0.0865384
0.0864802
0.086422
0.0863638
0.0863054
0.0862464
0.0861873
0.0861285
0.0860703
0.0860124
0.0859542
0.0858949
0.0858341
0.0857728
0.0857114
0.0856533
0.0855949
0.0855438
0.0854843
0.0854401
0.0853661
0.0861406
0.0863306
0.086264
0.0861885
0.0861407
0.0860772
0.0860264
0.0859677
0.0859142
0.0858573
0.0858024
0.0857462
0.0856907
0.0856346
0.0855787
0.0855225
0.0854665
0.0854103
0.0853539
0.0852974
0.0852409
0.0851846
0.0851282
0.0850715
0.0850143
0.084957
0.0848999
0.0848434
0.0847874
0.084731
0.0846736
0.0846145
0.0845549
0.084495
0.0844386
0.084382
0.0843324
0.0842754
0.084236
0.0841626
0.0863341
0.086597
0.0865381
0.0864636
0.086414
0.0863501
0.0862974
0.0862376
0.0861824
0.0861242
0.0860678
0.0860102
0.0859532
0.0858957
0.0858384
0.0857808
0.0857233
0.0856657
0.0856079
0.08555
0.0854921
0.0854343
0.0853766
0.0853185
0.0852599
0.0852012
0.0851427
0.0850848
0.0850274
0.0849697
0.0849109
0.0848504
0.0847894
0.0847281
0.0846704
0.0846123
0.0845618
0.084503
0.0844617
0.0843822
0.0860108
0.0863317
0.0862744
0.0862016
0.0861524
0.0860896
0.0860372
0.0859782
0.0859235
0.085866
0.0858102
0.0857532
0.0856968
0.0856399
0.0855832
0.0855263
0.0854694
0.0854123
0.0853552
0.0852978
0.0852405
0.0851833
0.0851261
0.0850686
0.0850107
0.0849525
0.0848945
0.0848372
0.0847804
0.0847232
0.084665
0.0846051
0.0845446
0.0844838
0.0844265
0.0843688
0.0843187
0.0842605
0.0842193
0.0841392
0.085931
0.0862769
0.0862195
0.0861459
0.0860964
0.086033
0.0859804
0.0859211
0.0858662
0.0858084
0.0857523
0.085695
0.0856384
0.0855812
0.0855242
0.085467
0.0854099
0.0853526
0.0852951
0.0852375
0.08518
0.0851225
0.0850651
0.0850073
0.0849491
0.0848907
0.0848325
0.0847749
0.0847179
0.0846605
0.0846021
0.084542
0.0844813
0.0844202
0.0843627
0.0843048
0.084255
0.0841966
0.0841559
0.0840747
0.0859313
0.0862787
0.0862218
0.0861481
0.0860987
0.0860353
0.0859828
0.0859235
0.0858685
0.0858108
0.0857547
0.0856974
0.0856407
0.0855836
0.0855266
0.0854694
0.0854122
0.0853549
0.0852975
0.0852399
0.0851824
0.0851249
0.0850675
0.0850097
0.0849515
0.0848931
0.0848349
0.0847774
0.0847203
0.084663
0.0846045
0.0845444
0.0844837
0.0844227
0.0843651
0.0843073
0.0842573
0.0841989
0.0841581
0.084077
0.0860125
0.086338
0.0862816
0.0862089
0.0861596
0.0860968
0.0860444
0.0859854
0.0859307
0.0858732
0.0858174
0.0857604
0.085704
0.0856471
0.0855903
0.0855334
0.0854765
0.0854195
0.0853623
0.0853049
0.0852476
0.0851904
0.0851332
0.0850757
0.0850177
0.0849595
0.0849016
0.0848443
0.0847875
0.0847304
0.0846721
0.0846122
0.0845517
0.0844909
0.0844336
0.0843759
0.084326
0.0842678
0.0842265
0.0841464
0.0863385
0.0866085
0.0865508
0.0864766
0.086427
0.0863631
0.0863103
0.0862506
0.0861953
0.0861372
0.0860807
0.0860231
0.0859661
0.0859086
0.0858513
0.0857937
0.0857362
0.0856786
0.0856208
0.0855629
0.085505
0.0854472
0.0853894
0.0853313
0.0852728
0.085214
0.0851555
0.0850976
0.0850402
0.0849825
0.0849237
0.0848632
0.0848022
0.0847409
0.0846832
0.0846251
0.0845747
0.0845158
0.0844746
0.0843951
0.0861513
0.0863501
0.0862843
0.0862091
0.0861613
0.0860979
0.086047
0.0859883
0.0859348
0.0858779
0.085823
0.0857668
0.0857112
0.0856551
0.0855992
0.0855431
0.085487
0.0854308
0.0853744
0.0853179
0.0852614
0.0852051
0.0851487
0.085092
0.0850348
0.0849774
0.0849203
0.0848639
0.0848078
0.0847515
0.084694
0.0846349
0.0845753
0.0845154
0.084459
0.0844024
0.0843532
0.0842962
0.0842568
0.0841834
0.0875192
0.0876228
0.0875669
0.087495
0.0874443
0.087381
0.0873274
0.0872677
0.0872119
0.0871535
0.0870966
0.0870387
0.0869813
0.0869235
0.0868657
0.0868078
0.08675
0.0866919
0.0866337
0.0865754
0.0865171
0.086459
0.0864007
0.0863422
0.0862832
0.0862241
0.0861652
0.0861069
0.086049
0.0859907
0.0859314
0.0858705
0.0858092
0.0857478
0.0856896
0.0856311
0.0855797
0.0855202
0.085476
0.0854019
0.0747088
0.074747
0.0746957
0.0746342
0.0745855
0.0745292
0.0744786
0.0744244
0.0743725
0.0743191
0.0742665
0.0742134
0.0741605
0.0741073
0.0740542
0.074001
0.0739478
0.0738945
0.0738411
0.0737876
0.0737341
0.0736807
0.0736273
0.0735736
0.0735196
0.0734655
0.0734116
0.0733582
0.073305
0.0732515
0.0731971
0.0731415
0.0730859
0.0730302
0.0729775
0.0729239
0.0728764
0.0728203
0.0727785
0.072709
0.0360975
0.0362179
0.0361822
0.0361579
0.0361316
0.0361063
0.0360815
0.0360562
0.0360314
0.0360062
0.0359812
0.0359561
0.035931
0.0359058
0.0358807
0.0358555
0.0358303
0.035805
0.0357797
0.0357543
0.0357289
0.0357037
0.0356784
0.0356529
0.0356272
0.0356014
0.0355758
0.0355508
0.035526
0.0355008
0.0354748
0.0354477
0.0354204
0.0353933
0.0353687
0.0353442
0.0353244
0.0352992
0.0352833
0.0352518
0.0448311
0.0450492
0.0450125
0.0449747
0.0449481
0.044915
0.044888
0.0448571
0.0448288
0.0447988
0.0447699
0.0447402
0.044711
0.0446814
0.0446519
0.0446223
0.0445928
0.0445631
0.0445334
0.0445036
0.0444738
0.0444442
0.0444145
0.0443846
0.0443543
0.0443239
0.0442938
0.0442643
0.0442353
0.0442058
0.0441752
0.0441432
0.0441109
0.0440786
0.0440495
0.0440206
0.0439979
0.0439689
0.0439522
0.0439137
0.0447433
0.0450712
0.0450339
0.0449921
0.0449673
0.044933
0.044907
0.0448758
0.0448481
0.0448181
0.0447896
0.0447601
0.0447311
0.0447017
0.0446725
0.0446431
0.0446138
0.0445844
0.0445549
0.0445253
0.0444958
0.0444664
0.044437
0.0444073
0.0443772
0.044347
0.0443172
0.044288
0.0442592
0.0442301
0.0441998
0.0441679
0.0441357
0.0441035
0.0440745
0.044046
0.0440239
0.0439955
0.0439808
0.0439412
0.0449104
0.0453197
0.0452877
0.0452443
0.0452198
0.0451842
0.045158
0.0451259
0.0450977
0.045067
0.0450379
0.0450077
0.0449781
0.0449481
0.0449183
0.0448883
0.0448584
0.0448284
0.0447982
0.044768
0.0447379
0.0447079
0.0446779
0.0446476
0.0446169
0.044586
0.0445555
0.0445257
0.0444964
0.0444667
0.0444358
0.0444033
0.0443704
0.0443375
0.0443079
0.0442786
0.0442562
0.0442271
0.0442122
0.0441696
0.0446523
0.0451251
0.0450957
0.0450527
0.0450287
0.0449933
0.0449674
0.0449355
0.0449076
0.0448772
0.0448483
0.0448184
0.044789
0.0447593
0.0447297
0.0447
0.0446703
0.0446405
0.0446107
0.0445807
0.0445508
0.044521
0.0444913
0.0444612
0.0444308
0.0444002
0.0443699
0.0443403
0.0443111
0.0442816
0.0442509
0.0442187
0.0441859
0.0441531
0.0441237
0.0440944
0.0440721
0.0440433
0.0440282
0.0439853
0.0446379
0.0451377
0.0451088
0.0450647
0.0450408
0.045005
0.0449791
0.0449469
0.0449189
0.0448883
0.0448593
0.0448292
0.0447997
0.0447698
0.0447401
0.0447102
0.0446804
0.0446505
0.0446204
0.0445903
0.0445603
0.0445304
0.0445005
0.0444703
0.0444397
0.044409
0.0443785
0.0443488
0.0443196
0.04429
0.0442593
0.0442269
0.0441941
0.0441611
0.0441316
0.0441023
0.04408
0.0440511
0.0440369
0.0439935
0.0446371
0.0451386
0.04511
0.0450659
0.0450421
0.0450062
0.0449803
0.0449482
0.0449202
0.0448895
0.0448605
0.0448305
0.044801
0.0447711
0.0447413
0.0447114
0.0446816
0.0446517
0.0446217
0.0445916
0.0445615
0.0445316
0.0445017
0.0444716
0.044441
0.0444102
0.0443798
0.0443501
0.0443208
0.0442913
0.0442606
0.0442282
0.0441954
0.0441624
0.0441329
0.0441035
0.0440813
0.0440523
0.0440381
0.0439947
0.0446507
0.0451284
0.0450999
0.0450569
0.0450329
0.0449974
0.0449716
0.0449397
0.0449118
0.0448814
0.0448525
0.0448226
0.0447932
0.0447634
0.0447339
0.0447041
0.0446745
0.0446447
0.0446148
0.0445848
0.0445549
0.0445252
0.0444954
0.0444654
0.0444349
0.0444043
0.044374
0.0443445
0.0443154
0.0442859
0.0442553
0.044223
0.0441902
0.0441574
0.0441279
0.0440987
0.0440764
0.0440475
0.0440325
0.0439896
0.0449092
0.0453262
0.0452955
0.0452523
0.0452278
0.0451922
0.045166
0.0451339
0.0451057
0.045075
0.0450458
0.0450157
0.0449861
0.0449561
0.0449262
0.0448962
0.0448663
0.0448363
0.0448062
0.0447759
0.0447458
0.0447158
0.0446858
0.0446555
0.0446247
0.0445939
0.0445634
0.0445336
0.0445042
0.0444745
0.0444436
0.0444112
0.0443782
0.0443453
0.0443157
0.0442864
0.044264
0.0442349
0.0442201
0.0441774
0.0447477
0.0450854
0.0450495
0.045008
0.0449832
0.0449489
0.0449229
0.0448916
0.0448639
0.0448339
0.0448053
0.0447758
0.0447468