/*--------------------------------*- C++ -*----------------------------------*\
  =========                 |
  \\      /  F ield         | OpenFOAM: The Open Source CFD Toolbox
   \\    /   O peration     | Website:  https://openfoam.org
    \\  /    A nd           | Version:  7
     \\/     M anipulation  |
\*---------------------------------------------------------------------------*/
FoamFile
{
    version     2.0;
    format      ascii;
    class       volScalarField;
    location    "3.5";
    object      nut;
}
// * * * * * * * * * * * * * * * * * * * * * * * * * * * * * * * * * * * * * //

dimensions      [0 2 -1 0 0 0 0];

internalField   nonuniform List<scalar> 
24000
(
8.20976e-06
1.80609e-05
2.82789e-05
4.30787e-05
5.17647e-05
5.79718e-05
6.94815e-05
8.5612e-05
9.48568e-05
0.000100077
0.00011011
0.000123749
0.000132285
0.000140085
0.00014973
0.000159274
0.000167736
0.000175991
0.000184425
0.00019258
0.000200256
0.000207701
0.00021506
0.000222205
0.000229014
0.000235525
0.000241827
0.000247942
0.000253827
0.000259449
0.00026482
0.000269972
0.000274922
0.000279665
0.00028419
0.000288499
0.000292608
0.000296528
0.000300265
0.000303818
0.000307192
0.000310397
0.000313441
0.00031633
0.000319067
0.000321656
0.000324105
0.000326421
0.00032861
0.000330676
0.000332625
0.000334461
0.000336189
0.000337815
0.000339343
0.000340777
0.000342123
0.000343384
0.000344564
0.000345668
0.000346699
0.000347661
0.000348557
0.000349391
0.000350166
0.000350884
0.000351548
0.000352163
0.000352729
0.000353249
0.000353727
0.000354164
0.000354561
0.000354923
0.00035525
0.000355544
0.000355808
0.000356043
0.000356249
0.00035643
0.000356586
0.000356718
0.000356828
0.000356917
0.000356986
0.000357038
0.000357071
0.000357089
0.000357086
0.000357075
0.00035705
0.000357009
0.000356956
0.00035689
0.000356814
0.000356727
0.000356631
0.000356525
0.000356411
0.000356289
0.000356159
0.000356022
0.000355878
0.000355727
0.00035557
0.000355406
0.000355238
0.000355064
0.000354885
0.000354702
0.000354515
0.000354324
0.000354129
0.00035393
0.000353728
0.000353523
0.000353315
0.000353103
0.000352889
0.000352673
0.000352454
0.000352233
0.00035201
0.000351785
0.000351558
0.00035133
0.0003511
0.000350868
0.000350634
0.0003504
0.000350164
0.000349927
0.000349689
0.000349449
0.000349209
0.000348968
0.000348726
0.000348483
0.000348239
0.000347994
0.000347749
0.000347503
0.000347257
0.00034701
0.000346763
0.000346515
0.000346266
0.000346017
0.000345768
0.000345518
0.000345268
0.000345018
0.000344767
0.000344517
0.000344266
0.000344015
0.000343764
0.000343512
0.000343261
0.000343009
0.000342757
0.000342504
0.000342252
0.000341999
0.000341746
0.000341493
0.000341239
0.000340986
0.000340733
0.000340479
0.000340226
0.000339973
0.00033972
0.000339467
0.000339214
0.000338961
0.000338707
0.000338454
0.000338201
0.000337948
0.000337695
0.000337442
0.00033719
0.000336937
0.000336684
0.000336431
0.000336179
0.000335926
0.000335673
0.000335421
0.000335168
0.000334915
0.000334663
0.000334411
0.000334158
0.000333906
0.000333654
0.000333403
0.000333151
0.000332899
0.000332648
0.000332397
0.000332146
0.000331895
0.000331644
0.000331393
0.000331142
0.000330892
0.000330641
0.000330391
0.000330141
0.00032989
0.00032964
0.00032939
0.00032914
0.000328891
0.000328641
0.000328392
0.000328142
0.000327893
0.000327645
0.000327396
0.000327148
0.000326899
0.000326651
0.000326403
0.000326156
0.000325908
0.000325661
0.000325414
0.000325167
0.00032492
0.000324673
0.000324427
0.000324181
0.000323935
0.000323689
0.000323443
0.000323198
0.000322952
0.000322707
0.000322463
0.000322218
0.000321974
0.00032173
0.000321486
0.000321243
0.000321
0.000320757
0.000320515
0.000320273
0.000320031
0.000319789
0.000319548
0.000319307
0.000319066
0.000318826
0.000318585
0.000318345
0.000318105
0.000317866
0.000317626
0.000317387
0.000317149
0.00031691
0.000316672
0.000316434
0.000316196
0.000315959
0.000315722
0.000315485
0.000315249
0.000315013
0.000314777
0.000314541
0.000314306
0.000314071
0.000313837
0.000313602
0.000313368
0.000313134
0.000312901
0.000312668
0.000312435
0.000312202
0.00031197
0.000311738
0.000311507
0.000311276
0.000311045
0.000310814
0.000310584
0.000310354
0.000310124
0.000309895
0.000309666
0.000309438
0.000309209
0.000308981
0.000308754
0.000308526
0.000308299
0.000308073
0.000307846
0.00030762
0.000307395
0.00030717
0.000306945
0.00030672
0.000306496
0.000306272
0.000306048
0.000305825
0.000305602
0.00030538
0.000305157
0.000304935
0.000304714
0.000304492
0.000304271
0.000304051
0.000303831
0.000303611
0.000303391
0.000303172
0.000302953
0.000302735
0.000302517
0.000302299
0.000302082
0.000301865
0.000301649
0.000301433
0.000301217
0.000301002
0.000300787
0.000300572
0.000300358
0.000300144
0.00029993
0.000299717
0.000299504
0.000299291
0.000299079
0.000298867
0.000298655
0.000298444
0.000298232
0.000298021
0.000297811
0.0002976
0.000297389
0.000297179
0.000296969
0.000296759
0.000296549
0.00029634
0.00029613
0.000295921
0.000295712
0.000295502
0.000295293
0.000295084
0.000294875
0.000294666
0.000294458
0.000294249
0.00029404
0.000293831
0.000293622
0.000293413
0.000293203
0.000292994
0.000292784
0.000292574
0.000292364
0.000292154
0.000291943
0.000291731
0.000291519
0.000291307
0.000291093
0.000290879
0.000290663
0.000290447
0.000290229
0.00029001
0.000289789
0.000289566
0.00028934
0.000289113
0.000288881
0.000288646
0.00028841
0.000288159
0.000287926
0.000287637
0.00028744
0.00028704
0.000287393
2.97371e-06
2.9789e-06
2.99691e-06
3.06301e-06
3.15497e-06
3.27981e-06
3.55376e-06
4.14316e-06
4.52551e-06
4.86303e-06
5.54346e-06
6.77693e-06
7.54032e-06
8.08398e-06
9.04143e-06
1.0714e-05
1.18822e-05
1.26101e-05
1.39052e-05
1.55591e-05
1.69405e-05
1.81693e-05
1.95758e-05
2.11503e-05
2.27194e-05
2.42396e-05
2.57671e-05
2.73365e-05
2.89411e-05
3.0565e-05
3.21916e-05
3.3813e-05
3.54363e-05
3.70717e-05
3.87146e-05
4.03517e-05
4.19779e-05
4.36016e-05
4.52272e-05
4.68446e-05
4.84403e-05
5.0012e-05
5.15669e-05
5.31121e-05
5.46465e-05
5.61648e-05
5.76625e-05
5.9139e-05
6.05945e-05
6.20284e-05
6.34402e-05
6.48311e-05
6.62031e-05
6.75561e-05
6.88874e-05
7.0193e-05
7.14704e-05
7.27206e-05
7.39463e-05
7.51499e-05
7.63314e-05
7.74896e-05
7.86221e-05
7.97283e-05
8.08086e-05
8.18647e-05
8.28982e-05
8.39098e-05
8.48993e-05
8.58659e-05
8.68093e-05
8.773e-05
8.86287e-05
8.95068e-05
9.03643e-05
9.12011e-05
9.20162e-05
9.28091e-05
9.358e-05
9.43302e-05
9.50614e-05
9.57756e-05
9.64738e-05
9.71565e-05
9.78231e-05
9.84725e-05
9.91038e-05
9.97168e-05
0.000100312
0.00010089
0.000101452
0.000101999
0.000102533
0.000103052
0.000103558
0.00010405
0.00010453
0.000104997
0.000105452
0.000105895
0.000106324
0.000106739
0.000107141
0.000107531
0.000107908
0.000108275
0.000108632
0.00010898
0.000109319
0.000109649
0.000109969
0.000110281
0.000110584
0.000110878
0.000111164
0.000111442
0.000111711
0.000111971
0.000112222
0.000112463
0.000112697
0.000112925
0.000113146
0.000113363
0.000113576
0.000113783
0.000113984
0.000114178
0.000114366
0.000114546
0.00011472
0.000114888
0.000115051
0.00011521
0.000115364
0.000115514
0.00011566
0.000115802
0.000115939
0.000116073
0.000116203
0.000116329
0.000116451
0.00011657
0.000116684
0.000116796
0.000116903
0.000117008
0.000117109
0.000117208
0.000117303
0.000117396
0.000117486
0.000117573
0.000117657
0.000117739
0.000117819
0.000117897
0.000117973
0.000118047
0.000118119
0.000118188
0.000118256
0.000118322
0.000118386
0.000118449
0.000118511
0.000118571
0.000118629
0.000118686
0.00011874
0.000118793
0.000118844
0.000118893
0.000118941
0.000118988
0.000119034
0.000119079
0.000119123
0.000119168
0.000119211
0.000119255
0.000119297
0.000119339
0.00011938
0.00011942
0.000119459
0.000119497
0.000119535
0.000119571
0.000119606
0.000119641
0.000119675
0.000119708
0.000119741
0.000119774
0.000119807
0.000119839
0.000119871
0.000119902
0.000119934
0.000119965
0.000119997
0.000120028
0.000120059
0.00012009
0.000120121
0.000120151
0.000120181
0.000120211
0.000120241
0.000120271
0.000120301
0.000120331
0.000120362
0.000120392
0.000120423
0.000120454
0.000120484
0.000120515
0.000120544
0.000120574
0.000120603
0.000120633
0.000120662
0.000120692
0.000120722
0.000120752
0.000120782
0.000120812
0.000120842
0.000120871
0.0001209
0.000120929
0.000120958
0.000120987
0.000121016
0.000121045
0.000121075
0.000121105
0.000121136
0.000121167
0.000121198
0.00012123
0.000121261
0.000121293
0.000121324
0.000121356
0.000121387
0.000121419
0.000121451
0.000121484
0.000121516
0.00012155
0.000121583
0.000121617
0.000121651
0.000121686
0.000121721
0.000121756
0.000121791
0.000121826
0.000121862
0.000121898
0.000121935
0.000121972
0.00012201
0.000122049
0.000122089
0.000122129
0.00012217
0.000122211
0.000122252
0.000122294
0.000122336
0.000122377
0.000122419
0.000122461
0.000122504
0.000122547
0.000122591
0.000122635
0.00012268
0.000122726
0.000122772
0.000122819
0.000122865
0.000122913
0.00012296
0.000123008
0.000123056
0.000123104
0.000123153
0.000123201
0.00012325
0.000123299
0.000123348
0.000123398
0.000123447
0.000123498
0.000123548
0.0001236
0.000123651
0.000123703
0.000123756
0.000123808
0.000123861
0.000123914
0.000123967
0.000124021
0.000124075
0.00012413
0.000124185
0.000124241
0.000124297
0.000124353
0.00012441
0.000124466
0.000124523
0.000124581
0.000124638
0.000124696
0.000124755
0.000124814
0.000124873
0.000124933
0.000124992
0.000125052
0.000125112
0.000125172
0.000125232
0.000125292
0.000125353
0.000125415
0.000125477
0.000125541
0.000125605
0.00012567
0.000125735
0.000125801
0.000125867
0.000125934
0.000126001
0.000126068
0.000126136
0.000126205
0.000126274
0.000126343
0.000126413
0.000126484
0.000126555
0.000126627
0.0001267
0.000126773
0.000126847
0.000126923
0.000126998
0.000127075
0.000127153
0.000127231
0.00012731
0.000127389
0.000127469
0.00012755
0.000127631
0.000127714
0.000127798
0.000127883
0.00012797
0.000128058
0.000128147
0.000128238
0.000128329
0.000128423
0.000128517
0.000128613
0.00012871
0.000128809
0.000128909
0.000129012
0.000129116
0.000129223
0.000129332
0.000129444
0.000129557
0.000129674
0.000129793
0.000129915
0.000130039
0.000130168
0.000130298
0.000130432
0.000130568
0.000130709
0.000130852
0.000130998
0.000131151
0.000131297
0.000131469
0.0001316
2.98063e-06
2.98064e-06
2.98006e-06
2.9796e-06
2.97883e-06
2.97818e-06
2.97795e-06
2.97758e-06
2.97716e-06
2.97711e-06
2.97734e-06
2.97858e-06
2.9803e-06
2.98166e-06
2.98399e-06
2.9903e-06
2.99755e-06
3.00238e-06
3.00939e-06
3.02652e-06
3.04622e-06
3.05816e-06
3.07775e-06
3.11262e-06
3.14467e-06
3.17634e-06
3.221e-06
3.27198e-06
3.32626e-06
3.38814e-06
3.4577e-06
3.534e-06
3.6204e-06
3.71266e-06
3.81152e-06
3.91868e-06
4.0335e-06
4.15793e-06
4.29423e-06
4.43608e-06
4.57987e-06
4.72982e-06
4.88857e-06
5.0552e-06
5.22834e-06
5.407e-06
5.59128e-06
5.78064e-06
5.97575e-06
6.17549e-06
6.37903e-06
6.58575e-06
6.79798e-06
7.01708e-06
7.24246e-06
7.47019e-06
7.69796e-06
7.92569e-06
8.15628e-06
8.39118e-06
8.63045e-06
8.87174e-06
9.11368e-06
9.35535e-06
9.59772e-06
9.84126e-06
1.00867e-05
1.03335e-05
1.05816e-05
1.08302e-05
1.10793e-05
1.13283e-05
1.15776e-05
1.18274e-05
1.20785e-05
1.23303e-05
1.25818e-05
1.28312e-05
1.30781e-05
1.33224e-05
1.35662e-05
1.38105e-05
1.40565e-05
1.43039e-05
1.45523e-05
1.48003e-05
1.5047e-05
1.52913e-05
1.55331e-05
1.57727e-05
1.60109e-05
1.6248e-05
1.64846e-05
1.67202e-05
1.69552e-05
1.71895e-05
1.74238e-05
1.76581e-05
1.78925e-05
1.8126e-05
1.83575e-05
1.85854e-05
1.88094e-05
1.90298e-05
1.92479e-05
1.94649e-05
1.96816e-05
1.98975e-05
2.01126e-05
2.03262e-05
2.05387e-05
2.07502e-05
2.09613e-05
2.11718e-05
2.13816e-05
2.15895e-05
2.17951e-05
2.19969e-05
2.21947e-05
2.23882e-05
2.25789e-05
2.27682e-05
2.29582e-05
2.31496e-05
2.33426e-05
2.35355e-05
2.37271e-05
2.39156e-05
2.41008e-05
2.42823e-05
2.44612e-05
2.46375e-05
2.48122e-05
2.49852e-05
2.5157e-05
2.53274e-05
2.54969e-05
2.56652e-05
2.58329e-05
2.59994e-05
2.61651e-05
2.63291e-05
2.64915e-05
2.66518e-05
2.68104e-05
2.69671e-05
2.71227e-05
2.72767e-05
2.74297e-05
2.75809e-05
2.77307e-05
2.78782e-05
2.80242e-05
2.81683e-05
2.83114e-05
2.84532e-05
2.85945e-05
2.87344e-05
2.88735e-05
2.90108e-05
2.91467e-05
2.92807e-05
2.94136e-05
2.95449e-05
2.96755e-05
2.98051e-05
2.99344e-05
3.00624e-05
3.01895e-05
3.03146e-05
3.0438e-05
3.0559e-05
3.06782e-05
3.0795e-05
3.09106e-05
3.10243e-05
3.11372e-05
3.1249e-05
3.13607e-05
3.14718e-05
3.15832e-05
3.1694e-05
3.18049e-05
3.19149e-05
3.20246e-05
3.21332e-05
3.22413e-05
3.23477e-05
3.24531e-05
3.25564e-05
3.26586e-05
3.27585e-05
3.28577e-05
3.29552e-05
3.30524e-05
3.31483e-05
3.32439e-05
3.33379e-05
3.34315e-05
3.35233e-05
3.36146e-05
3.37046e-05
3.37946e-05
3.38835e-05
3.39727e-05
3.40607e-05
3.41484e-05
3.42342e-05
3.43193e-05
3.44022e-05
3.44845e-05
3.4565e-05
3.46457e-05
3.47253e-05
3.48057e-05
3.48852e-05
3.49653e-05
3.50439e-05
3.51226e-05
3.51992e-05
3.52754e-05
3.53493e-05
3.54229e-05
3.54947e-05
3.55666e-05
3.5637e-05
3.57083e-05
3.57783e-05
3.58494e-05
3.59193e-05
3.59899e-05
3.60588e-05
3.61279e-05
3.61947e-05
3.62613e-05
3.63253e-05
3.63892e-05
3.64506e-05
3.65124e-05
3.65722e-05
3.66331e-05
3.66926e-05
3.67536e-05
3.68133e-05
3.68745e-05
3.69342e-05
3.6995e-05
3.70537e-05
3.71131e-05
3.71701e-05
3.72276e-05
3.72827e-05
3.73387e-05
3.73925e-05
3.74477e-05
3.75009e-05
3.75557e-05
3.76085e-05
3.76628e-05
3.77147e-05
3.7768e-05
3.78186e-05
3.78705e-05
3.79194e-05
3.79695e-05
3.80164e-05
3.80646e-05
3.81097e-05
3.81566e-05
3.82009e-05
3.82476e-05
3.82922e-05
3.83396e-05
3.83849e-05
3.84331e-05
3.84784e-05
3.85259e-05
3.85698e-05
3.86153e-05
3.86567e-05
3.87e-05
3.87394e-05
3.87814e-05
3.882e-05
3.88619e-05
3.89007e-05
3.89429e-05
3.89817e-05
3.90238e-05
3.90621e-05
3.91038e-05
3.91416e-05
3.91833e-05
3.92212e-05
3.92632e-05
3.93013e-05
3.93436e-05
3.93815e-05
3.94232e-05
3.94599e-05
3.95003e-05
3.95354e-05
3.95744e-05
3.96083e-05
3.96468e-05
3.96803e-05
3.97189e-05
3.97525e-05
3.97912e-05
3.98244e-05
3.98626e-05
3.98946e-05
3.99317e-05
3.99624e-05
3.99986e-05
4.00285e-05
4.00645e-05
4.00942e-05
4.01306e-05
4.01604e-05
4.0197e-05
4.02265e-05
4.02627e-05
4.02912e-05
4.03267e-05
4.03541e-05
4.0389e-05
4.04158e-05
4.04509e-05
4.04779e-05
4.05139e-05
4.05417e-05
4.05787e-05
4.06069e-05
4.06444e-05
4.0672e-05
4.0709e-05
4.07353e-05
4.07712e-05
4.0796e-05
4.0831e-05
4.08546e-05
4.08893e-05
4.09125e-05
4.09475e-05
4.09707e-05
4.10063e-05
4.10295e-05
4.10657e-05
4.10891e-05
4.1126e-05
4.11496e-05
4.11875e-05
4.12114e-05
4.12503e-05
4.12745e-05
4.13142e-05
4.13382e-05
4.13783e-05
4.14016e-05
4.14416e-05
4.1464e-05
4.1504e-05
4.15258e-05
4.15665e-05
4.15888e-05
4.16313e-05
4.16548e-05
4.16995e-05
4.17245e-05
4.17712e-05
4.17971e-05
4.18451e-05
4.1871e-05
4.19199e-05
4.19457e-05
4.19954e-05
4.20214e-05
4.20726e-05
4.20994e-05
4.2153e-05
4.21813e-05
4.2238e-05
4.22682e-05
4.23288e-05
4.23611e-05
4.24259e-05
4.24606e-05
4.25301e-05
4.25675e-05
4.26424e-05
4.26829e-05
4.27641e-05
4.28082e-05
4.28968e-05
4.29453e-05
4.30428e-05
4.30967e-05
4.32054e-05
4.32657e-05
2.98661e-06
2.98685e-06
2.98621e-06
2.98561e-06
2.98496e-06
2.98434e-06
2.98362e-06
2.9829e-06
2.98219e-06
2.98152e-06
2.98094e-06
2.98035e-06
2.97966e-06
2.97901e-06
2.97843e-06
2.97786e-06
2.97726e-06
2.97667e-06
2.97607e-06
2.97554e-06
2.97496e-06
2.9743e-06
2.97379e-06
2.9733e-06
2.97273e-06
2.97225e-06
2.9719e-06
2.97142e-06
2.97083e-06
2.97041e-06
2.97008e-06
2.96977e-06
2.96958e-06
2.96942e-06
2.96917e-06
2.96908e-06
2.96908e-06
2.96914e-06
2.96939e-06
2.96966e-06
2.97015e-06
2.97048e-06
2.97121e-06
2.97173e-06
2.97289e-06
2.97368e-06
2.97539e-06
2.97645e-06
2.97866e-06
2.97995e-06
2.98263e-06
2.98421e-06
2.98752e-06
2.98949e-06
2.99363e-06
2.99603e-06
3.00101e-06
3.00381e-06
3.00958e-06
3.01283e-06
3.01953e-06
3.0233e-06
3.03106e-06
3.03535e-06
3.04413e-06
3.04893e-06
3.05874e-06
3.06412e-06
3.07512e-06
3.08114e-06
3.09343e-06
3.10011e-06
3.11371e-06
3.12107e-06
3.13591e-06
3.14417e-06
3.16017e-06
3.16944e-06
3.18634e-06
3.19635e-06
3.21398e-06
3.22485e-06
3.24361e-06
3.25583e-06
3.27603e-06
3.28972e-06
3.31129e-06
3.32602e-06
3.34839e-06
3.36381e-06
3.38691e-06
3.40318e-06
3.42731e-06
3.4447e-06
3.47006e-06
3.48872e-06
3.51531e-06
3.53528e-06
3.56322e-06
3.58454e-06
3.61374e-06
3.6358e-06
3.66532e-06
3.68747e-06
3.71722e-06
3.74012e-06
3.77098e-06
3.79515e-06
3.82714e-06
3.85228e-06
3.88513e-06
3.91124e-06
3.94524e-06
3.97272e-06
4.00798e-06
4.03654e-06
4.07242e-06
4.10118e-06
4.13672e-06
4.16487e-06
4.19986e-06
4.22819e-06
4.26425e-06
4.29457e-06
4.33296e-06
4.36534e-06
4.40493e-06
4.43761e-06
4.47681e-06
4.50899e-06
4.54777e-06
4.57981e-06
4.6187e-06
4.65109e-06
4.6904e-06
4.72329e-06
4.76314e-06
4.79672e-06
4.83736e-06
4.87181e-06
4.91324e-06
4.94825e-06
4.98983e-06
5.02473e-06
5.06621e-06
5.10119e-06
5.14303e-06
5.17848e-06
5.2208e-06
5.25654e-06
5.29892e-06
5.3345e-06
5.37663e-06
5.41208e-06
5.45435e-06
5.49019e-06
5.53307e-06
5.56943e-06
5.61262e-06
5.64897e-06
5.69199e-06
5.72821e-06
5.77117e-06
5.80749e-06
5.85073e-06
5.88748e-06
5.93123e-06
5.96839e-06
6.01227e-06
6.04925e-06
6.09261e-06
6.12889e-06
6.17152e-06
6.20712e-06
6.24919e-06
6.28427e-06
6.32602e-06
6.36099e-06
6.40299e-06
6.43851e-06
6.48134e-06
6.51778e-06
6.56141e-06
6.59844e-06
6.64255e-06
6.67995e-06
6.72435e-06
6.76181e-06
6.80603e-06
6.84297e-06
6.88643e-06
6.92257e-06
6.96539e-06
7.00116e-06
7.04396e-06
7.07987e-06
7.12281e-06
7.15868e-06
7.20131e-06
7.23667e-06
7.2788e-06
7.31384e-06
7.35598e-06
7.39128e-06
7.43383e-06
7.46943e-06
7.51204e-06
7.54732e-06
7.58923e-06
7.62357e-06
7.66464e-06
7.69835e-06
7.73923e-06
7.77313e-06
7.81455e-06
7.84906e-06
7.89105e-06
7.9257e-06
7.96755e-06
8.00172e-06
8.04287e-06
8.07614e-06
8.11638e-06
8.14884e-06
8.18851e-06
8.22078e-06
8.26067e-06
8.2935e-06
8.33415e-06
8.36771e-06
8.40892e-06
8.44267e-06
8.48368e-06
8.51681e-06
8.55682e-06
8.58866e-06
8.62739e-06
8.65795e-06
8.6957e-06
8.72555e-06
8.76298e-06
8.79288e-06
8.8308e-06
8.86142e-06
8.9003e-06
8.93177e-06
8.97132e-06
9.003e-06
9.04228e-06
9.07319e-06
9.11155e-06
9.14147e-06
9.17913e-06
9.2085e-06
9.24602e-06
9.27543e-06
9.31331e-06
9.34301e-06
9.38116e-06
9.41086e-06
9.44888e-06
9.47818e-06
9.5157e-06
9.5442e-06
9.58068e-06
9.60788e-06
9.64301e-06
9.66888e-06
9.70311e-06
9.72853e-06
9.76301e-06
9.78909e-06
9.82474e-06
9.85209e-06
9.88884e-06
9.91687e-06
9.95366e-06
9.98095e-06
1.00164e-05
1.0042e-05
1.00758e-05
1.00999e-05
1.01328e-05
1.01565e-05
1.01895e-05
1.02135e-05
1.02468e-05
1.02709e-05
1.03043e-05
1.03282e-05
1.03615e-05
1.03855e-05
1.04193e-05
1.04441e-05
1.04788e-05
1.05044e-05
1.05398e-05
1.05655e-05
1.06005e-05
1.06252e-05
1.06589e-05
1.06822e-05
1.07147e-05
1.0737e-05
1.07692e-05
1.07918e-05
1.08246e-05
1.08477e-05
1.08809e-05
1.09039e-05
1.09365e-05
1.09585e-05
1.099e-05
1.10106e-05
1.10412e-05
1.10612e-05
1.10918e-05
1.11121e-05
1.11432e-05
1.1164e-05
1.11954e-05
1.12159e-05
1.12468e-05
1.12661e-05
1.12958e-05
1.1314e-05
1.13429e-05
1.13607e-05
1.13902e-05
1.1409e-05
1.14401e-05
1.14605e-05
1.14932e-05
1.15148e-05
1.15482e-05
1.15694e-05
1.16018e-05
1.16215e-05
1.1652e-05
1.16696e-05
1.16985e-05
1.17147e-05
1.17427e-05
1.17584e-05
1.17865e-05
1.18022e-05
1.18304e-05
1.18463e-05
1.18749e-05
1.1891e-05
1.19202e-05
1.1937e-05
1.1967e-05
1.19848e-05
1.20158e-05
1.2034e-05
1.20655e-05
1.20832e-05
1.21139e-05
1.21303e-05
1.21595e-05
1.21743e-05
1.22023e-05
1.22165e-05
1.22446e-05
1.22593e-05
1.2289e-05
1.23055e-05
1.23369e-05
1.23546e-05
1.2387e-05
1.24051e-05
1.24373e-05
1.24545e-05
1.24858e-05
1.2502e-05
1.25327e-05
1.25483e-05
1.25785e-05
1.2594e-05
1.26242e-05
1.26406e-05
1.26715e-05
1.26878e-05
1.27209e-05
1.27381e-05
1.27728e-05
1.27908e-05
1.28268e-05
1.28455e-05
1.28832e-05
1.2903e-05
1.29415e-05
1.29629e-05
1.30012e-05
1.30252e-05
1.30654e-05
1.30908e-05
1.31341e-05
1.31612e-05
2.99188e-06
2.99226e-06
2.99151e-06
2.99089e-06
2.99031e-06
2.98958e-06
2.98886e-06
2.98801e-06
2.98734e-06
2.98664e-06
2.98608e-06
2.98537e-06
2.98474e-06
2.98401e-06
2.98346e-06
2.98282e-06
2.98228e-06
2.98158e-06
2.98102e-06
2.98037e-06
2.97985e-06
2.97916e-06
2.97854e-06
2.97783e-06
2.97733e-06
2.97677e-06
2.97631e-06
2.97562e-06
2.97496e-06
2.97419e-06
2.97365e-06
2.9731e-06
2.97271e-06
2.97211e-06
2.97151e-06
2.97074e-06
2.9702e-06
2.96966e-06
2.96931e-06
2.96872e-06
2.96813e-06
2.96736e-06
2.96682e-06
2.96625e-06
2.96587e-06
2.96531e-06
2.96485e-06
2.96426e-06
2.96386e-06
2.96331e-06
2.96284e-06
2.96216e-06
2.96163e-06
2.961e-06
2.9606e-06
2.96008e-06
2.95969e-06
2.95909e-06
2.95861e-06
2.95799e-06
2.95759e-06
2.95709e-06
2.95672e-06
2.95615e-06
2.95567e-06
2.95505e-06
2.95464e-06
2.95421e-06
2.95394e-06
2.95349e-06
2.95309e-06
2.9525e-06
2.95206e-06
2.9516e-06
2.95132e-06
2.95097e-06
2.95069e-06
2.95023e-06
2.94985e-06
2.94936e-06
2.94895e-06
2.94847e-06
2.94811e-06
2.94772e-06
2.94747e-06
2.94716e-06
2.94689e-06
2.94649e-06
2.94615e-06
2.94577e-06
2.94551e-06
2.94523e-06
2.94499e-06
2.94466e-06
2.94434e-06
2.94396e-06
2.94365e-06
2.94338e-06
2.94319e-06
2.94297e-06
2.94279e-06
2.94257e-06
2.94237e-06
2.9422e-06
2.94207e-06
2.94193e-06
2.94186e-06
2.94184e-06
2.94181e-06
2.9418e-06
2.94181e-06
2.94182e-06
2.94187e-06
2.94193e-06
2.94207e-06
2.94218e-06
2.94245e-06
2.94261e-06
2.94289e-06
2.94304e-06
2.94332e-06
2.94348e-06
2.94381e-06
2.94402e-06
2.94447e-06
2.94475e-06
2.94534e-06
2.94567e-06
2.94631e-06
2.94664e-06
2.94731e-06
2.94766e-06
2.94838e-06
2.94876e-06
2.94954e-06
2.94994e-06
2.95077e-06
2.95121e-06
2.95212e-06
2.95261e-06
2.95364e-06
2.95419e-06
2.95531e-06
2.95588e-06
2.95704e-06
2.95764e-06
2.95885e-06
2.9595e-06
2.96081e-06
2.96151e-06
2.96293e-06
2.96368e-06
2.96519e-06
2.96597e-06
2.96753e-06
2.96834e-06
2.96997e-06
2.97083e-06
2.97258e-06
2.9735e-06
2.97537e-06
2.97635e-06
2.97831e-06
2.97931e-06
2.98135e-06
2.9824e-06
2.98452e-06
2.98562e-06
2.98786e-06
2.98902e-06
2.99132e-06
2.99248e-06
2.9948e-06
2.99598e-06
2.99834e-06
2.99955e-06
3.00197e-06
3.00321e-06
3.00572e-06
3.00702e-06
3.00964e-06
3.01102e-06
3.0138e-06
3.01525e-06
3.01818e-06
3.01971e-06
3.02278e-06
3.02436e-06
3.02755e-06
3.02918e-06
3.03245e-06
3.03411e-06
3.03744e-06
3.03913e-06
3.04252e-06
3.04424e-06
3.0477e-06
3.04947e-06
3.05301e-06
3.05482e-06
3.05844e-06
3.06029e-06
3.064e-06
3.06589e-06
3.0697e-06
3.07165e-06
3.07557e-06
3.07757e-06
3.08159e-06
3.08363e-06
3.08769e-06
3.08974e-06
3.09385e-06
3.09594e-06
3.10011e-06
3.10226e-06
3.10657e-06
3.10884e-06
3.11336e-06
3.1157e-06
3.12025e-06
3.12258e-06
3.12712e-06
3.12942e-06
3.13397e-06
3.13627e-06
3.14087e-06
3.14324e-06
3.14804e-06
3.15065e-06
3.15573e-06
3.15845e-06
3.16359e-06
3.16629e-06
3.17139e-06
3.17401e-06
3.17904e-06
3.18158e-06
3.18658e-06
3.18909e-06
3.19411e-06
3.19665e-06
3.20173e-06
3.20433e-06
3.20957e-06
3.21236e-06
3.21794e-06
3.22089e-06
3.22661e-06
3.22967e-06
3.23537e-06
3.23834e-06
3.24396e-06
3.24689e-06
3.25251e-06
3.25546e-06
3.26122e-06
3.26438e-06
3.27035e-06
3.27358e-06
3.27965e-06
3.28295e-06
3.28903e-06
3.2923e-06
3.29835e-06
3.30152e-06
3.30739e-06
3.31036e-06
3.3161e-06
3.319e-06
3.32479e-06
3.32786e-06
3.33406e-06
3.33744e-06
3.34388e-06
3.34741e-06
3.35394e-06
3.3575e-06
3.36401e-06
3.36746e-06
3.3738e-06
3.37702e-06
3.38316e-06
3.38626e-06
3.39233e-06
3.39545e-06
3.40172e-06
3.40511e-06
3.41146e-06
3.41506e-06
3.42141e-06
3.4252e-06
3.43154e-06
3.43566e-06
3.4423e-06
3.44655e-06
3.45339e-06
3.45758e-06
3.46464e-06
3.46857e-06
3.47552e-06
3.47916e-06
3.48591e-06
3.48938e-06
3.49597e-06
3.49959e-06
3.50638e-06
3.51036e-06
3.51738e-06
3.52171e-06
3.52853e-06
3.53287e-06
3.53928e-06
3.54332e-06
3.54959e-06
3.55325e-06
3.55986e-06
3.56341e-06
3.57037e-06
3.57416e-06
3.58119e-06
3.58511e-06
3.59175e-06
3.59554e-06
3.60181e-06
3.60566e-06
3.61158e-06
3.61573e-06
3.62178e-06
3.62608e-06
3.63289e-06
3.6374e-06
3.64496e-06
3.64963e-06
3.65767e-06
3.66242e-06
3.67032e-06
3.67492e-06
3.68223e-06
3.68639e-06
3.69291e-06
3.69675e-06
3.70292e-06
3.70663e-06
3.71293e-06
3.71674e-06
3.72316e-06
3.72733e-06
3.73374e-06
3.73811e-06
3.7446e-06
3.74953e-06
3.75619e-06
3.76165e-06
3.76854e-06
3.77402e-06
3.7813e-06
3.78627e-06
3.79389e-06
3.79821e-06
3.80552e-06
3.80945e-06
3.81619e-06
3.82015e-06
3.82654e-06
3.83095e-06
3.83762e-06
3.84254e-06
3.8503e-06
3.8553e-06
3.86404e-06
3.86898e-06
3.87782e-06
3.88273e-06
3.89107e-06
3.89556e-06
3.90329e-06
3.90803e-06
3.91476e-06
3.92011e-06
3.92642e-06
3.93227e-06
3.93895e-06
3.9444e-06
3.95228e-06
3.95745e-06
3.96611e-06
3.97137e-06
3.98036e-06
3.98579e-06
3.99478e-06
4.00098e-06
4.00961e-06
4.01651e-06
4.02513e-06
4.03254e-06
4.04129e-06
4.04896e-06
4.05824e-06
4.0662e-06
2.99493e-06
2.99536e-06
2.99454e-06
2.99396e-06
2.99333e-06
2.99258e-06
2.9918e-06
2.99096e-06
2.99026e-06
2.98958e-06
2.98898e-06
2.98827e-06
2.9876e-06
2.9869e-06
2.98631e-06
2.98568e-06
2.98508e-06
2.98441e-06
2.98382e-06
2.98321e-06
2.98265e-06
2.98195e-06
2.98127e-06
2.98058e-06
2.98007e-06
2.97956e-06
2.97906e-06
2.97836e-06
2.97765e-06
2.97689e-06
2.97631e-06
2.97579e-06
2.97537e-06
2.97478e-06
2.97411e-06
2.97334e-06
2.97275e-06
2.97225e-06
2.97187e-06
2.97131e-06
2.97066e-06
2.96989e-06
2.96928e-06
2.96873e-06
2.96829e-06
2.96773e-06
2.96722e-06
2.96667e-06
2.96624e-06
2.96571e-06
2.96516e-06
2.96446e-06
2.96384e-06
2.96323e-06
2.96276e-06
2.96225e-06
2.96177e-06
2.96117e-06
2.96061e-06
2.96001e-06
2.95954e-06
2.95903e-06
2.95857e-06
2.95796e-06
2.95737e-06
2.9567e-06
2.95621e-06
2.95575e-06
2.95542e-06
2.95495e-06
2.95443e-06
2.95376e-06
2.95318e-06
2.95262e-06
2.95223e-06
2.9518e-06
2.95141e-06
2.95088e-06
2.95036e-06
2.94971e-06
2.94913e-06
2.94847e-06
2.94795e-06
2.94741e-06
2.94701e-06
2.94652e-06
2.94606e-06
2.94545e-06
2.94491e-06
2.9443e-06
2.94383e-06
2.94328e-06
2.94279e-06
2.94215e-06
2.94155e-06
2.94085e-06
2.94028e-06
2.93967e-06
2.93917e-06
2.93857e-06
2.93804e-06
2.93739e-06
2.93683e-06
2.9362e-06
2.93567e-06
2.93508e-06
2.9346e-06
2.93404e-06
2.93359e-06
2.93303e-06
2.93255e-06
2.93195e-06
2.93145e-06
2.93088e-06
2.93046e-06
2.92997e-06
2.9296e-06
2.92909e-06
2.92863e-06
2.92803e-06
2.92754e-06
2.92701e-06
2.92662e-06
2.92615e-06
2.92573e-06
2.92517e-06
2.92471e-06
2.92419e-06
2.9238e-06
2.92333e-06
2.92296e-06
2.92247e-06
2.92207e-06
2.92153e-06
2.92107e-06
2.92049e-06
2.92005e-06
2.91957e-06
2.91925e-06
2.91882e-06
2.91842e-06
2.91783e-06
2.91731e-06
2.91673e-06
2.91634e-06
2.91588e-06
2.91553e-06
2.91503e-06
2.91461e-06
2.91408e-06
2.9137e-06
2.91322e-06
2.91283e-06
2.91229e-06
2.91188e-06
2.91138e-06
2.91105e-06
2.9106e-06
2.91025e-06
2.90973e-06
2.90933e-06
2.90882e-06
2.90849e-06
2.90806e-06
2.90775e-06
2.90726e-06
2.90685e-06
2.90632e-06
2.90595e-06
2.90551e-06
2.9052e-06
2.90475e-06
2.90438e-06
2.90389e-06
2.90353e-06
2.90309e-06
2.90277e-06
2.90231e-06
2.90194e-06
2.90143e-06
2.90106e-06
2.90056e-06
2.90018e-06
2.89966e-06
2.89926e-06
2.89877e-06
2.89844e-06
2.898e-06
2.89767e-06
2.89719e-06
2.89683e-06
2.8964e-06
2.89612e-06
2.89576e-06
2.89546e-06
2.89499e-06
2.89458e-06
2.89405e-06
2.89372e-06
2.8933e-06
2.89302e-06
2.89258e-06
2.89221e-06
2.89171e-06
2.89135e-06
2.89093e-06
2.89065e-06
2.89025e-06
2.88995e-06
2.88949e-06
2.88916e-06
2.88872e-06
2.88843e-06
2.88803e-06
2.88774e-06
2.88733e-06
2.88704e-06
2.88664e-06
2.88635e-06
2.88595e-06
2.88565e-06
2.88524e-06
2.88494e-06
2.88454e-06
2.88424e-06
2.88383e-06
2.88356e-06
2.8832e-06
2.88299e-06
2.88267e-06
2.88243e-06
2.88203e-06
2.88169e-06
2.88125e-06
2.88097e-06
2.88063e-06
2.88043e-06
2.88009e-06
2.87979e-06
2.87931e-06
2.87891e-06
2.87842e-06
2.87811e-06
2.87776e-06
2.87757e-06
2.87725e-06
2.87701e-06
2.87662e-06
2.87632e-06
2.87593e-06
2.87564e-06
2.87527e-06
2.87499e-06
2.87461e-06
2.87432e-06
2.87397e-06
2.87377e-06
2.87351e-06
2.87337e-06
2.8731e-06
2.87286e-06
2.87248e-06
2.87219e-06
2.87185e-06
2.87166e-06
2.87142e-06
2.87128e-06
2.87101e-06
2.87081e-06
2.8705e-06
2.87029e-06
2.87002e-06
2.86985e-06
2.8696e-06
2.86944e-06
2.86919e-06
2.86902e-06
2.86877e-06
2.86862e-06
2.86838e-06
2.86824e-06
2.86801e-06
2.86788e-06
2.86767e-06
2.86754e-06
2.86734e-06
2.86722e-06
2.86704e-06
2.86693e-06
2.86678e-06
2.8667e-06
2.86656e-06
2.86645e-06
2.86625e-06
2.86609e-06
2.86585e-06
2.86565e-06
2.86535e-06
2.86512e-06
2.86482e-06
2.86461e-06
2.86436e-06
2.86422e-06
2.86401e-06
2.86387e-06
2.86364e-06
2.86348e-06
2.86324e-06
2.86306e-06
2.86283e-06
2.86267e-06
2.86248e-06
2.86235e-06
2.86218e-06
2.86206e-06
2.86186e-06
2.86168e-06
2.8614e-06
2.86117e-06
2.86088e-06
2.86068e-06
2.86042e-06
2.86024e-06
2.86e-06
2.8598e-06
2.85956e-06
2.85937e-06
2.85919e-06
2.85905e-06
2.85891e-06
2.85881e-06
2.85865e-06
2.85851e-06
2.85831e-06
2.85817e-06
2.85799e-06
2.85786e-06
2.85769e-06
2.85756e-06
2.85739e-06
2.85724e-06
2.85707e-06
2.85693e-06
2.85675e-06
2.8566e-06
2.85643e-06
2.85631e-06
2.8562e-06
2.85613e-06
2.85604e-06
2.85595e-06
2.85581e-06
2.85568e-06
2.85555e-06
2.85546e-06
2.85538e-06
2.85532e-06
2.85522e-06
2.85512e-06
2.85498e-06
2.85485e-06
2.85471e-06
2.85461e-06
2.85449e-06
2.85438e-06
2.85425e-06
2.85413e-06
2.85403e-06
2.85394e-06
2.85387e-06
2.85384e-06
2.85381e-06
2.8538e-06
2.85379e-06
2.85379e-06
2.85378e-06
2.85376e-06
2.85372e-06
2.85367e-06
2.85361e-06
2.85352e-06
2.85345e-06
2.85342e-06
2.85342e-06
2.85343e-06
2.85345e-06
2.8535e-06
2.85355e-06
2.85365e-06
2.85372e-06
2.85386e-06
2.85395e-06
2.85413e-06
2.85424e-06
2.85444e-06
2.85455e-06
2.85476e-06
2.85488e-06
2.85512e-06
2.85527e-06
2.99499e-06
2.99532e-06
2.99447e-06
2.99394e-06
2.99331e-06
2.99253e-06
2.99175e-06
2.99091e-06
2.99022e-06
2.98955e-06
2.98893e-06
2.98821e-06
2.98753e-06
2.98685e-06
2.98629e-06
2.98566e-06
2.98503e-06
2.98432e-06
2.98373e-06
2.98316e-06
2.98263e-06
2.98192e-06
2.9812e-06
2.98049e-06
2.97999e-06
2.97951e-06
2.97902e-06
2.97832e-06
2.97758e-06
2.97681e-06
2.97625e-06
2.97576e-06
2.97533e-06
2.97472e-06
2.97404e-06
2.97325e-06
2.97267e-06
2.97218e-06
2.97181e-06
2.97125e-06
2.97059e-06
2.96984e-06
2.96923e-06
2.96868e-06
2.96822e-06
2.96765e-06
2.96715e-06
2.96662e-06
2.9662e-06
2.96566e-06
2.96508e-06
2.96436e-06
2.96373e-06
2.96313e-06
2.96269e-06
2.96218e-06
2.9617e-06
2.96108e-06
2.96053e-06
2.95995e-06
2.95948e-06
2.95897e-06
2.9585e-06