/*--------------------------------*- C++ -*----------------------------------*\
  =========                 |
  \\      /  F ield         | OpenFOAM: The Open Source CFD Toolbox
   \\    /   O peration     | Website:  https://openfoam.org
    \\  /    A nd           | Version:  7
     \\/     M anipulation  |
\*---------------------------------------------------------------------------*/
FoamFile
{
    version     2.0;
    format      ascii;
    class       volVectorField;
    location    "0.1075";
    object      U_0;
}
// * * * * * * * * * * * * * * * * * * * * * * * * * * * * * * * * * * * * * //

dimensions      [0 1 -1 0 0 0 0];

internalField   nonuniform List<vector> 
1440
(
(12.0037 0.0685936 0)
(11.9833 0.173318 0)
(11.8256 0.280566 0)
(11.6043 0.357714 0)
(11.3094 0.41163 0)
(10.9707 0.440873 0)
(10.5985 0.450537 0)
(10.209 0.444212 0)
(9.81306 0.426757 0)
(9.41909 0.40159 0)
(9.03504 0.371428 0)
(8.66525 0.339666 0)
(8.31291 0.307287 0)
(7.98068 0.275156 0)
(7.66986 0.244355 0)
(7.38104 0.215339 0)
(7.11426 0.188367 0)
(6.86907 0.163523 0)
(6.64481 0.140811 0)
(6.4405 0.120206 0)
(6.25511 0.101568 0)
(6.08745 0.0848226 0)
(5.93628 0.0698506 0)
(5.80036 0.0565237 0)
(5.67844 0.0447153 0)
(5.5693 0.034299 0)
(5.47177 0.0251502 0)
(5.38474 0.0171479 0)
(5.3072 0.0101762 0)
(5.23821 0.00412682 0)
(5.17689 -0.00109817 0)
(5.12248 -0.00558496 0)
(5.07424 -0.00940801 0)
(5.03151 -0.0126323 0)
(4.99366 -0.0153176 0)
(4.96011 -0.0175219 0)
(4.93035 -0.019303 0)
(4.90393 -0.020718 0)
(4.88045 -0.021821 0)
(4.8596 -0.0226583 0)
(4.8411 -0.0232647 0)
(4.8247 -0.0236616 0)
(4.81017 -0.0238625 0)
(4.79724 -0.0238817 0)
(4.78569 -0.0237424 0)
(4.77529 -0.0234775 0)
(4.76588 -0.0231231 0)
(4.75736 -0.0227086 0)
(4.74966 -0.0222484 0)
(4.7427 -0.0217429 0)
(4.73642 -0.0211835 0)
(4.7307 -0.0205625 0)
(4.72544 -0.0198807 0)
(4.72052 -0.0191515 0)
(4.71588 -0.0183975 0)
(4.71146 -0.0176436 0)
(4.70727 -0.0169098 0)
(4.70333 -0.0162037 0)
(4.69966 -0.0155194 0)
(4.69626 -0.0148425 0)
(4.69309 -0.0141575 0)
(4.6901 -0.0134559 0)
(4.68722 -0.0127421 0)
(4.68437 -0.0120312 0)
(4.68154 -0.0113461 0)
(4.67872 -0.0107096 0)
(4.67598 -0.0101334 0)
(4.67338 -0.00961496 0)
(4.67095 -0.00913756 0)
(4.66872 -0.00867245 0)
(4.66666 -0.00818791 0)
(4.66467 -0.00766497 0)
(4.66266 -0.00710687 0)
(4.66056 -0.00653676 0)
(4.65834 -0.00599361 0)
(4.65608 -0.0055129 0)
(4.65388 -0.0051125 0)
(4.65187 -0.00478428 0)
(4.65011 -0.0044947 0)
(4.64861 -0.00420455 0)
(4.64729 -0.00388155 0)
(4.64604 -0.00351268 0)
(4.64472 -0.00311532 0)
(4.64329 -0.00272892 0)
(4.64176 -0.002402 0)
(4.64023 -0.0021651 0)
(4.63884 -0.00202253 0)
(4.63771 -0.00194403 0)
(4.63686 -0.00187468 0)
(4.63625 -0.00174575 0)
(4.63565 -0.00151244 0)
(4.63488 -0.00115933 0)
(4.63365 -0.000706489 0)
(4.63188 -0.000195909 0)
(4.62945 0.000314716 0)
(4.62655 0.000769168 0)
(4.62322 0.00113966 0)
(4.61984 0.00140231 0)
(4.61642 0.001593 0)
(4.61331 0.0017023 0)
(4.61039 0.00181663 0)
(4.60782 0.00187667 0)
(4.60546 0.00203201 0)
(4.60317 0.00211428 0)
(4.6011 0.00238254 0)
(4.59851 0.00247503 0)
(4.59652 0.00286275 0)
(4.59307 0.0028887 0)
(4.59128 0.00340758 0)
(4.58641 0.00328741 0)
(4.58541 0.00394598 0)
(4.57849 0.00358423 0)
(4.57929 0.00435567 0)
(4.56954 0.00382817 0)
(4.57327 0.00459437 0)
(4.55996 0.00419312 0)
(4.56721 0.00445104 0)
(4.55065 0.00526176 0)
(4.55941 0.00417425 0)
(4.54264 0.00940114 0)
(12.0051 0.0695932 0)
(12.0386 0.143916 0)
(12.0995 0.225177 0)
(12.1858 0.290178 0)
(12.2791 0.348267 0)
(12.3758 0.395099 0)
(12.4644 0.43244 0)
(12.5416 0.459841 0)
(12.6028 0.478358 0)
(12.6475 0.488772 0)
(12.6748 0.491871 0)
(12.6858 0.489127 0)
(12.6823 0.481349 0)
(12.6657 0.469476 0)
(12.6379 0.454495 0)
(12.6007 0.437223 0)
(12.5559 0.418396 0)
(12.505 0.398628 0)
(12.4494 0.378428 0)
(12.3902 0.358207 0)
(12.3285 0.3383 0)
(12.2652 0.318961 0)
(12.2008 0.30037 0)
(12.1361 0.282666 0)
(12.0715 0.265933 0)
(12.0073 0.250216 0)
(11.9439 0.235527 0)
(11.8815 0.221853 0)
(11.8203 0.209162 0)
(11.7604 0.197411 0)
(11.7018 0.186551 0)
(11.6447 0.176527 0)
(11.5891 0.167289 0)
(11.535 0.158784 0)
(11.4824 0.150957 0)
(11.4314 0.143754 0)
(11.3819 0.137119 0)
(11.3338 0.130997 0)
(11.2873 0.125336 0)
(11.2422 0.12009 0)
(11.1985 0.115221 0)
(11.1562 0.110704 0)
(11.1153 0.106514 0)
(11.0757 0.102632 0)
(11.0374 0.099033 0)
(11.0004 0.0956866 0)
(10.9646 0.092562 0)
(10.93 0.0896321 0)
(10.8966 0.0868776 0)
(10.8643 0.0842877 0)
(10.8331 0.0818557 0)
(10.8029 0.0795749 0)
(10.7737 0.0774335 0)
(10.7455 0.0754146 0)
(10.7182 0.0734983 0)
(10.6919 0.071665 0)
(10.6665 0.0698996 0)
(10.6419 0.068194 0)
(10.6181 0.0665475 0)
(10.5952 0.0649648 0)
(10.573 0.0634529 0)
(10.5516 0.0620168 0)
(10.5309 0.0606564 0)
(10.511 0.0593654 0)
(10.4919 0.058132 0)
(10.4734 0.0569426 0)
(10.4557 0.0557862 0)
(10.4385 0.054658 0)
(10.4219 0.0535611 0)
(10.406 0.052505 0)
(10.3906 0.0515003 0)
(10.3757 0.0505518 0)
(10.3615 0.049655 0)
(10.3478 0.048794 0)
(10.3347 0.047947 0)
(10.322 0.0470947 0)
(10.3099 0.0462271 0)
(10.2981 0.0453509 0)
(10.2868 0.0444837 0)
(10.2758 0.0436499 0)
(10.2653 0.0428701 0)
(10.2553 0.0421514 0)
(10.2457 0.0414856 0)
(10.2366 0.0408528 0)
(10.2279 0.0402277 0)
(10.2196 0.0395923 0)
(10.2116 0.0389412 0)
(10.2039 0.0382891 0)
(10.1965 0.0376597 0)
(10.1894 0.0370863 0)
(10.1826 0.0365876 0)
(10.1762 0.036174 0)
(10.1701 0.0358221 0)
(10.1643 0.0355093 0)
(10.1587 0.0351917 0)
(10.1533 0.0348502 0)
(10.148 0.0344585 0)
(10.1428 0.0340249 0)
(10.1375 0.0335573 0)
(10.1323 0.0330696 0)
(10.127 0.0326076 0)
(10.1218 0.0321474 0)
(10.1165 0.0317978 0)
(10.1114 0.0314167 0)
(10.1062 0.0312528 0)
(10.101 0.0309189 0)
(10.0961 0.0309726 0)
(10.0907 0.0305793 0)
(10.0858 0.0308897 0)
(10.0799 0.0302792 0)
(10.0753 0.0309021 0)
(10.0684 0.0299181 0)
(10.0644 0.0309422 0)
(10.056 0.0295231 0)
(10.0528 0.0309051 0)
(10.0425 0.0292816 0)
(10.0405 0.0306162 0)
(10.0284 0.0299132 0)
(10.0271 0.0303137 0)
(10.016 0.0336597 0)
(12.0035 0.0278431 0)
(12.0306 0.0779792 0)
(12.0726 0.132062 0)
(12.1355 0.179213 0)
(12.2096 0.223446 0)
(12.2979 0.260812 0)
(12.3945 0.292276 0)
(12.4989 0.316773 0)
(12.6071 0.334832 0)
(12.7178 0.346756 0)
(12.8281 0.352994 0)
(12.9367 0.354633 0)
(13.0419 0.352233 0)
(13.1427 0.346475 0)
(13.238 0.33813 0)
(13.3274 0.327823 0)
(13.4105 0.316126 0)
(13.4871 0.303508 0)
(13.5574 0.290375 0)
(13.6213 0.277049 0)
(13.6793 0.263797 0)
(13.7315 0.250831 0)
(13.7783 0.238307 0)
(13.8201 0.226344 0)
(13.8573 0.215022 0)
(13.8902 0.204391 0)
(13.9193 0.194471 0)
(13.9449 0.185265 0)
(13.9673 0.176757 0)
(13.9869 0.168923 0)
(14.0039 0.16173 0)
(14.0186 0.155142 0)
(14.0312 0.149123 0)
(14.042 0.143633 0)
(14.0512 0.138633 0)
(14.0589 0.13408 0)
(14.0653 0.129931 0)
(14.0705 0.126143 0)
(14.0746 0.122674 0)
(14.0779 0.11949 0)
(14.0802 0.116561 0)
(14.0818 0.113864 0)
(14.0828 0.111383 0)
(14.083 0.109101 0)
(14.0828 0.106998 0)
(14.082 0.105055 0)
(14.0808 0.10325 0)
(14.0793 0.101568 0)
(14.0773 0.099996 0)
(14.075 0.0985282 0)
(14.0724 0.0971608 0)
(14.0695 0.0958894 0)
(14.0664 0.0947056 0)
(14.0631 0.0935959 0)
(14.0596 0.0925429 0)
(14.0559 0.0915289 0)
(14.052 0.0905386 0)
(14.048 0.0895628 0)
(14.0439 0.0885993 0)
(14.0396 0.0876508 0)
(14.0352 0.0867221 0)
(14.0307 0.0858162 0)
(14.0262 0.0849327 0)
(14.0215 0.0840678 0)
(14.0168 0.083216 0)
(14.012 0.0823724 0)
(14.0072 0.0815355 0)
(14.0023 0.0807086 0)
(13.9974 0.0798993 0)
(13.9924 0.0791177 0)
(13.9874 0.0783732 0)
(13.9824 0.0776685 0)
(13.9774 0.0769977 0)
(13.9724 0.0763464 0)
(13.9674 0.075696 0)
(13.9624 0.0750301 0)
(13.9574 0.0743399 0)
(13.9525 0.073627 0)
(13.9475 0.072902 0)
(13.9426 0.0721794 0)
(13.9377 0.0714711 0)
(13.9328 0.0707841 0)
(13.928 0.0701169 0)
(13.9232 0.069461 0)
(13.9185 0.068805 0)
(13.9139 0.0681431 0)
(13.9092 0.0674763 0)
(13.9047 0.0668182 0)
(13.9001 0.0661893 0)
(13.8956 0.065617 0)
(13.891 0.0651152 0)
(13.8866 0.0646913 0)
(13.8822 0.0643287 0)
(13.8778 0.0640086 0)
(13.8736 0.0636879 0)
(13.8694 0.0633437 0)
(13.8652 0.0629449 0)
(13.8611 0.0624965 0)
(13.857 0.0620032 0)
(13.8528 0.0614868 0)
(13.8487 0.0609865 0)
(13.8445 0.06049 0)
(13.8403 0.0600932 0)
(13.8361 0.0596725 0)
(13.8319 0.0594619 0)
(13.8276 0.0590864 0)
(13.8233 0.0591099 0)
(13.8189 0.0586494 0)
(13.8146 0.0589816 0)
(13.8099 0.0582324 0)
(13.8056 0.0590481 0)
(13.8006 0.0577259 0)
(13.7962 0.0593082 0)
(13.7908 0.0570469 0)
(13.7865 0.059734 0)
(13.7806 0.056167 0)
(13.7765 0.0600923 0)
(13.7705 0.0553024 0)
(13.7666 0.0597108 0)
(13.7632 0.0554671 0)
(12.0016 0.0277558 0)
(12.0192 0.071132 0)
(12.0528 0.115548 0)
(12.1027 0.151456 0)
(12.165 0.183702 0)
(12.2404 0.209523 0)
(12.3251 0.230645 0)
(12.4183 0.246764 0)
(12.5171 0.258761 0)
(12.6202 0.267042 0)
(12.7255 0.27212 0)
(12.8315 0.274549 0)
(12.9371 0.274696 0)
(13.0412 0.272939 0)
(13.1428 0.269625 0)
(13.2413 0.265049 0)
(13.3363 0.259485 0)
(13.4273 0.253166 0)
(13.5142 0.246307 0)
(13.5969 0.239082 0)
(13.6754 0.231653 0)
(13.7497 0.22415 0)
(13.8199 0.216678 0)
(13.8862 0.209327 0)
(13.9488 0.202168 0)
(14.0078 0.195251 0)
(14.0636 0.188613 0)
(14.1164 0.182279 0)
(14.1663 0.176261 0)
(14.2137 0.170567 0)
(14.2586 0.165194 0)
(14.3014 0.16014 0)
(14.3422 0.155397 0)
(14.3813 0.150954 0)
(14.4186 0.146799 0)
(14.4545 0.142916 0)
(14.489 0.139289 0)
(14.5223 0.135899 0)
(14.5544 0.132727 0)
(14.5855 0.129758 0)
(14.6156 0.126979 0)
(14.6448 0.124377 0)
(14.6732 0.121945 0)
(14.7008 0.119671 0)
(14.7277 0.117547 0)
(14.754 0.115558 0)
(14.7796 0.113695 0)
(14.8046 0.111946 0)
(14.829 0.110303 0)
(14.853 0.108761 0)
(14.8764 0.107314 0)
(14.8993 0.105958 0)
(14.9218 0.104683 0)
(14.9439 0.103482 0)
(14.9656 0.102345 0)
(14.9869 0.101259 0)
(15.0078 0.100218 0)
(15.0283 0.0992142 0)
(15.0485 0.0982459 0)
(15.0684 0.0973131 0)
(15.0879 0.0964167 0)
(15.107 0.0955576 0)
(15.1258 0.0947342 0)
(15.1443 0.0939434 0)
(15.1625 0.0931803 0)
(15.1804 0.0924396 0)
(15.198 0.0917174 0)
(15.2153 0.0910123 0)
(15.2322 0.0903252 0)
(15.2489 0.0896586 0)
(15.2653 0.0890147 0)
(15.2814 0.0883931 0)
(15.2972 0.0877892 0)
(15.3127 0.0871949 0)
(15.328 0.0866016 0)
(15.3431 0.086002 0)
(15.3578 0.0853942 0)
(15.3723 0.0847826 0)
(15.3866 0.0841763 0)
(15.4005 0.0835866 0)
(15.4143 0.0830222 0)
(15.4277 0.0824878 0)
(15.441 0.0819819 0)
(15.454 0.0815002 0)
(15.4668 0.0810352 0)
(15.4794 0.080583 0)
(15.4917 0.0801424 0)
(15.5039 0.0797198 0)
(15.5159 0.0793217 0)
(15.5277 0.0789591 0)
(15.5392 0.0786339 0)
(15.5507 0.0783474 0)
(15.562 0.0780848 0)
(15.5732 0.0778358 0)
(15.5842 0.0775776 0)
(15.5951 0.0773012 0)
(15.6058 0.0769958 0)
(15.6164 0.0766643 0)
(15.6268 0.0763226 0)
(15.637 0.0759701 0)
(15.6469 0.0756613 0)
(15.6566 0.0753513 0)
(15.6661 0.0751677 0)
(15.6754 0.0749423 0)
(15.6845 0.074964 0)
(15.6934 0.0747938 0)
(15.7022 0.0750824 0)
(15.7107 0.074848 0)
(15.7191 0.0754945 0)
(15.7274 0.0749781 0)
(15.7352 0.0761607 0)
(15.7434 0.0750249 0)
(15.7506 0.0770678 0)
(15.7589 0.0748218 0)
(15.7651 0.0781788 0)
(15.7741 0.0741746 0)
(15.7787 0.0792187 0)
(15.7895 0.0729109 0)
(15.7913 0.0789666 0)
(15.8063 0.0709351 0)
(12.0011 0.0113554 0)
(12.018 0.0307908 0)
(12.0523 0.0515322 0)
(12.102 0.0695876 0)
(12.1639 0.0870121 0)
(12.2376 0.101913 0)
(12.3197 0.114907 0)
(12.4093 0.125321 0)
(12.5039 0.13336 0)
(12.6023 0.139 0)
(12.7027 0.142403 0)
(12.804 0.143868 0)
(12.9051 0.143641 0)
(13.0049 0.141997 0)
(13.1028 0.139241 0)
(13.1982 0.135631 0)
(13.2905 0.131416 0)
(13.3793 0.126797 0)
(13.4645 0.121952 0)
(13.546 0.117018 0)
(13.6236 0.112109 0)
(13.6975 0.107309 0)
(13.7676 0.102681 0)
(13.8341 0.0982702 0)
(13.8973 0.094104 0)
(13.9572 0.0901992 0)
(14.014 0.0865621 0)
(14.0681 0.0831915 0)
(14.1196 0.0800804 0)
(14.1686 0.077219 0)
(14.2155 0.0745951 0)
(14.2604 0.0721957 0)
(14.3035 0.0700076 0)
(14.345 0.0680172 0)
(14.3849 0.0662106 0)
(14.4236 0.0645735 0)
(14.4611 0.0630914 0)
(14.4974 0.0617501 0)
(14.5328 0.0605364 0)
(14.5673 0.0594382 0)
(14.601 0.0584456 0)
(14.6339 0.0575506 0)
(14.6661 0.0567464 0)
(14.6978 0.0560268 0)
(14.7288 0.0553848 0)
(14.7593 0.0548135 0)
(14.7894 0.0543056 0)
(14.8189 0.0538553 0)
(14.8481 0.0534585 0)
(14.8768 0.0531124 0)
(14.9052 0.0528147 0)
(14.9332 0.0525625 0)
(14.9609 0.0523511 0)
(14.9883 0.0521745 0)
(15.0155 0.0520255 0)
(15.0423 0.0518968 0)
(15.0689 0.0517823 0)
(15.0953 0.0516771 0)
(15.1214 0.0515787 0)
(15.1472 0.0514858 0)
(15.1729 0.0513984 0)
(15.1983 0.0513166 0)
(15.2235 0.0512399 0)
(15.2484 0.0511672 0)
(15.2732 0.051097 0)
(15.2977 0.0510282 0)
(15.3221 0.0509606 0)
(15.3463 0.0508958 0)
(15.3702 0.0508365 0)
(15.3939 0.0507862 0)
(15.4175 0.0507474 0)
(15.4408 0.0507205 0)
(15.464 0.0507021 0)
(15.487 0.0506871 0)
(15.5097 0.0506677 0)
(15.5323 0.0506382 0)
(15.5547 0.0505951 0)
(15.5768 0.0505385 0)
(15.5988 0.0504722 0)
(15.6205 0.0504012 0)
(15.642 0.0503301 0)
(15.6634 0.0502622 0)
(15.6845 0.0501979 0)
(15.7055 0.0501365 0)
(15.7263 0.0500758 0)
(15.7469 0.0500163 0)
(15.7674 0.0499603 0)
(15.7878 0.0499158 0)
(15.808 0.0498902 0)
(15.8281 0.0498951 0)
(15.8481 0.0499342 0)
(15.868 0.05001 0)
(15.8877 0.0501125 0)
(15.9074 0.0502335 0)
(15.927 0.0503561 0)
(15.9465 0.0504679 0)
(15.9659 0.0505616 0)
(15.9851 0.0506288 0)
(16.0042 0.0506895 0)
(16.0231 0.0507256 0)
(16.0418 0.0507992 0)
(16.0603 0.0508438 0)
(16.0786 0.0509997 0)
(16.0968 0.0510813 0)
(16.1148 0.051388 0)
(16.1328 0.0514871 0)
(16.1505 0.0520041 0)
(16.1682 0.0520346 0)
(16.1856 0.0528422 0)
(16.2033 0.0526502 0)
(16.2202 0.0538862 0)
(16.2381 0.0532391 0)
(16.2543 0.0551269 0)
(16.2729 0.0536984 0)
(16.2875 0.0565094 0)
(16.3079 0.0538861 0)
(16.3197 0.0577468 0)
(16.3434 0.0535747 0)
(16.3502 0.0577873 0)
(16.3794 0.052213 0)
(12.0009 0.00655774 0)
(12.0167 0.0181309 0)
(12.0486 0.0298716 0)
(12.0947 0.0391875 0)
(12.1534 0.0475082 0)
(12.2238 0.0539044 0)
(12.3032 0.0591405 0)
(12.3905 0.0631318 0)
(12.4834 0.0663008 0)
(12.5805 0.0687961 0)
(12.6799 0.0708343 0)
(12.7806 0.0725415 0)
(12.8811 0.0740203 0)
(12.9805 0.0753127 0)
(13.0781 0.0764576 0)
(13.173 0.0774548 0)
(13.2649 0.0783091 0)
(13.3534 0.0790089 0)
(13.4382 0.0795494 0)
(13.5193 0.0799205 0)
(13.5965 0.0801199 0)
(13.67 0.0801452 0)
(13.7397 0.0799981 0)
(13.8059 0.0796838 0)
(13.8686 0.0792101 0)
(13.9282 0.0785875 0)
(13.9847 0.0778281 0)
(14.0384 0.0769454 0)
(14.0895 0.0759544 0)
(14.1383 0.0748707 0)
(14.1849 0.0737103 0)
(14.2295 0.0724891 0)
(14.2724 0.0712225 0)
(14.3136 0.0699252 0)
(14.3534 0.0686105 0)
(14.3918 0.0672907 0)
(14.4291 0.065976 0)
(14.4653 0.0646755 0)
(14.5005 0.0633968 0)
(14.5348 0.0621469 0)
(14.5684 0.060932 0)
(14.6012 0.0597577 0)
(14.6334 0.0586282 0)
(14.6649 0.0575464 0)
(14.6959 0.0565139 0)
(14.7264 0.0555307 0)
(14.7564 0.0545964 0)
(14.786 0.0537102 0)
(14.8151 0.0528716 0)
(14.8439 0.05208 0)
(14.8723 0.0513348 0)
(14.9004 0.0506346 0)
(14.9282 0.0499776 0)
(14.9557 0.0493609 0)
(14.9829 0.0487815 0)
(15.0099 0.0482362 0)
(15.0366 0.0477221 0)
(15.0631 0.0472372 0)
(15.0894 0.0467798 0)
(15.1155 0.0463492 0)
(15.1413 0.0459446 0)
(15.167 0.0455648 0)
(15.1924 0.0452081 0)
(15.2177 0.044872 0)
(15.2428 0.0445534 0)
(15.2677 0.0442495 0)
(15.2924 0.0439577 0)
(15.3169 0.0436765 0)
(15.3413 0.0434052 0)
(15.3655 0.0431434 0)
(15.3895 0.042891 0)
(15.4133 0.0426474 0)
(15.437 0.0424112 0)
(15.4605 0.0421801 0)
(15.4838 0.0419536 0)
(15.5069 0.0417293 0)
(15.5299 0.0415084 0)
(15.5527 0.0412931 0)
(15.5753 0.0410872 0)
(15.5977 0.0408948 0)
(15.62 0.0407187 0)
(15.6421 0.0405604 0)
(15.664 0.040419 0)
(15.6858 0.0402929 0)
(15.7074 0.0401793 0)
(15.7289 0.0400766 0)
(15.7503 0.0399836 0)
(15.7716 0.0399019 0)
(15.7928 0.0398324 0)
(15.8138 0.0397785 0)
(15.8348 0.0397404 0)
(15.8557 0.0397178 0)
(15.8766 0.039707 0)
(15.8973 0.0397037 0)
(15.918 0.0397051 0)
(15.9387 0.0397023 0)
(15.9592 0.039703 0)
(15.9796 0.0396913 0)
(15.9998 0.0396986 0)
(16.02 0.0396877 0)
(16.0399 0.0397332 0)
(16.0597 0.0397437 0)
(16.0794 0.0398749 0)
(16.099 0.0399212 0)
(16.1183 0.0401887 0)
(16.1377 0.040256 0)
(16.1568 0.0407061 0)
(16.1761 0.0407382 0)
(16.1949 0.041422 0)
(16.2142 0.041323 0)
(16.2326 0.0423109 0)
(16.2523 0.0419541 0)
(16.2698 0.043337 0)
(16.2905 0.0425714 0)
(16.3064 0.044405 0)
(16.329 0.0430839 0)
(16.342 0.0452632 0)
(16.3679 0.0433079 0)
(16.3756 0.0452682 0)
(16.4065 0.0426581 0)
(12.0009 -0.00513271 0)
(12.0164 -0.0156632 0)
(12.0485 -0.0254897 0)
(12.0949 -0.0341725 0)
(12.1539 -0.0413741 0)
(12.2246 -0.047107 0)
(12.3044 -0.051344 0)
(12.392 -0.0542986 0)
(12.4852 -0.0561232 0)
(12.5825 -0.0570237 0)
(12.6822 -0.0571647 0)
(12.783 -0.0566992 0)
(12.8836 -0.0557162 0)
(12.9831 -0.0543263 0)
(13.0806 -0.0525839 0)
(13.1755 -0.0505614 0)
(13.2673 -0.0483046 0)
(13.3556 -0.0458695 0)
(13.4403 -0.043302 0)
(13.5211 -0.0406532 0)
(13.5981 -0.0379679 0)
(13.6713 -0.0352905 0)
(13.7408 -0.0326603 0)
(13.8067 -0.0301113 0)
(13.8692 -0.0276727 0)
(13.9284 -0.0253667 0)
(13.9847 -0.0232096 0)
(14.0382 -0.0212113 0)
(14.0891 -0.0193768 0)
(14.1376 -0.0177059 0)
(14.184 -0.0161942 0)
(14.2285 -0.0148344 0)
(14.2712 -0.0136161 0)
(14.3122 -0.0125275 0)
(14.3519 -0.0115563 0)
(14.3902 -0.0106897 0)
(14.4274 -0.00991531 0)
(14.4635 -0.00922101 0)
(14.4987 -0.00859525 0)
(14.533 -0.0080272 0)
(14.5665 -0.00750693 0)
(14.5992 -0.00702556 0)
(14.6314 -0.00657529 0)
(14.6629 -0.00614948 0)
(14.6939 -0.00574266 0)
(14.7243 -0.00535046 0)
(14.7543 -0.00496936 0)
(14.7838 -0.0045963 0)
(14.8129 -0.00422841 0)
(14.8417 -0.00386289 0)
(14.87 -0.0034972 0)
(14.8981 -0.0031295 0)
(14.9258 -0.00275889 0)
(14.9533 -0.00238562 0)
(14.9805 -0.00201071 0)
(15.0074 -0.00163592 0)
(15.0341 -0.00126307 0)
(15.0605 -0.000893734 0)
(15.0867 -0.000529125 0)
(15.1127 -0.00016992 0)
(15.1385 0.000183321 0)
(15.1641 0.000529958 0)
(15.1895 0.000869112 0)
(15.2147 0.00119987 0)
(15.2397 0.00152159 0)
(15.2645 0.00183432 0)
(15.2892 0.00213893 0)
(15.3136 0.00243721 0)
(15.3379 0.00273133 0)
(15.362 0.00302335 0)
(15.3859 0.00331474 0)
(15.4097 0.00360616 0)
(15.4333 0.00389648 0)
(15.4567 0.00418493 0)
(15.4799 0.00446777 0)
(15.503 0.00474476 0)
(15.5259 0.00501423 0)
(15.5486 0.00527594 0)
(15.5711 0.00553029 0)
(15.5935 0.00577854 0)
(15.6157 0.00602173 0)
(15.6377 0.00626061 0)
(15.6595 0.00649527 0)
(15.6813 0.00672579 0)
(15.7028 0.00695172 0)
(15.7243 0.00717401 0)
(15.7456 0.00739438 0)
(15.7668 0.007617 0)
(15.7879 0.00784577 0)
(15.8089 0.00808709 0)
(15.8298 0.0083449 0)
(15.8506 0.00862051 0)
(15.8714 0.00891331 0)
(15.8921 0.00921829 0)
(15.9128 0.00953494 0)
(15.9333 0.00985171 0)
(15.9538 0.010177 0)
(15.9741 0.0104891 0)
(15.9943 0.0108178 0)
(16.0144 0.0111183 0)
(16.0343 0.0114603 0)
(16.0541 0.0117495 0)
(16.0736 0.0121283 0)
(16.0932 0.0124073 0)
(16.1125 0.0128557 0)
(16.1319 0.0131189 0)
(16.1509 0.0136757 0)
(16.1702 0.0139041 0)
(16.1889 0.0146065 0)
(16.2083 0.0147727 0)
(16.2265 0.0156542 0)
(16.2464 0.0157415 0)
(16.2637 0.016809 0)
(16.2845 0.0168339 0)
(16.3002 0.0180194 0)
(16.3228 0.0180723 0)
(16.3356 0.0191793 0)
(16.3612 0.0194508 0)
(16.3689 0.0201129 0)
(16.399 0.0208048 0)
(12.0009 -0.0102243 0)
(12.0171 -0.0290334 0)
(12.0508 -0.0480696 0)
(12.0995 -0.0655603 0)
(12.1611 -0.0818144 0)
(12.2343 -0.0959416 0)
(12.3164 -0.107797 0)
(12.4061 -0.117014 0)
(12.5009 -0.12356 0)
(12.5996 -0.127446 0)
(12.7004 -0.128819 0)
(12.8021 -0.127993 0)
(12.9035 -0.125186 0)
(13.0038 -0.120765 0)
(13.102 -0.115039 0)
(13.1976 -0.108343 0)
(13.29 -0.100963 0)
(13.3789 -0.0931709 0)
(13.4641 -0.0851914 0)
(13.5454 -0.0772232 0)
(13.6229 -0.0694262 0)
(13.6964 -0.061931 0)
(13.7662 -0.0548369 0)
(13.8323 -0.0482164 0)
(13.8949 -0.0421178 0)
(13.9543 -0.036568 0)
(14.0106 -0.0315757 0)
(14.0641 -0.0271345 0)
(14.115 -0.0232263 0)
(14.1635 -0.0198237 0)
(14.2099 -0.0168932 0)
(14.2543 -0.0143972 0)
(14.2969 -0.0122959 0)
(14.3379 -0.0105485 0)
(14.3775 -0.0091146 0)
(14.4158 -0.00795501 0)
(14.4529 -0.00703261 0)
(14.4889 -0.00631263 0)
(14.524 -0.00576292 0)
(14.5583 -0.00535422 0)
(14.5917 -0.00506041 0)
(14.6245 -0.00485892 0)
(14.6566 -0.00473081 0)
(14.688 -0.00466053 0)
(14.719 -0.00463523 0)
(14.7494 -0.00464429 0)
(14.7793 -0.00467881 0)
(14.8088 -0.00473142 0)
(14.8379 -0.00479587 0)
(14.8666 -0.00486672 0)
(14.8949 -0.0049391 0)
(14.9229 -0.00500883 0)
(14.9506 -0.0050724 0)
(14.978 -0.00512686 0)
(15.0051 -0.00516995 0)
(15.0319 -0.00520004 0)
(15.0585 -0.00521597 0)
(15.0848 -0.00521694 0)
(15.1109 -0.00520269 0)
(15.1367 -0.005173 0)
(15.1624 -0.00512839 0)
(15.1878 -0.00507028 0)
(15.213 -0.00500105 0)
(15.238 -0.0049238 0)
(15.2628 -0.00484185 0)
(15.2875 -0.00475812 0)
(15.3119 -0.00467475 0)
(15.3361 -0.00459307 0)
(15.3602 -0.00451368 0)
(15.384 -0.00443676 0)
(15.4077 -0.00436193 0)
(15.4312 -0.00428816 0)
(15.4545 -0.00421504 0)
(15.4776 -0.00414022 0)
(15.5006 -0.00406376 0)
(15.5233 -0.00398216 0)
(15.5458 -0.0038933 0)
(15.5681 -0.00379458 0)
(15.5903 -0.00368405 0)
(15.6122 -0.00355954 0)
(15.634 -0.0034206 0)
(15.6556 -0.00326862 0)
(15.677 -0.00310563 0)
(15.6982 -0.00293457 0)
(15.7193 -0.00275904 0)
(15.7402 -0.00258181 0)
(15.761 -0.00240554 0)
(15.7817 -0.0022311 0)
(15.8023 -0.00205933 0)
(15.8228 -0.00188844 0)
(15.8432 -0.00171625 0)
(15.8635 -0.00154102 0)
(15.8837 -0.00135902 0)
(15.9038 -0.0011701 0)
(15.9239 -0.000967046 0)
(15.9438 -0.000755887 0)
(15.9637 -0.000523352 0)
(15.9834 -0.000289613 0)
(16.0029 -2.61693e-05 0)
(16.0224 0.000220853 0)
(16.0416 0.000513965 0)
(16.0608 0.000762444 0)
(16.0797 0.00109274 0)
(16.0986 0.00133748 0)
(16.1171 0.0017254 0)
(16.1358 0.00196603 0)
(16.1541 0.00243958 0)
(16.1727 0.00268024 0)
(16.1907 0.00325394 0)
(16.2094 0.00351014 0)
(16.2269 0.00417106 0)
(16.246 0.00450645 0)
(16.2626 0.00517752 0)
(16.2825 0.00574193 0)
(16.2977 0.00622309 0)
(16.3193 0.00731202 0)
(16.3318 0.0072884 0)
(16.3563 0.00935977 0)
(16.3638 0.00860762 0)
(16.3928 0.0120373 0)
(12.0012 -0.0242993 0)
(12.0182 -0.0668237 0)
(12.0519 -0.108896 0)
(12.1013 -0.144839 0)
(12.1642 -0.176491 0)
(12.2398 -0.202254 0)
(12.3252 -0.222881 0)
(12.419 -0.23836 0)
(12.5186 -0.249325 0)
(12.6224 -0.256194 0)
(12.7282 -0.259496 0)
(12.8349 -0.259788 0)
(12.9409 -0.257426 0)
(13.0452 -0.252888 0)
(13.1469 -0.246536 0)
(13.2452 -0.238754 0)
(13.3399 -0.229865 0)
(13.4304 -0.220183 0)
(13.5166 -0.209981 0)
(13.5984 -0.199507 0)
(13.6758 -0.188973 0)
(13.7489 -0.178566 0)
(13.8179 -0.168435 0)
(13.883 -0.158702 0)
(13.9443 -0.149459 0)
(14.0021 -0.14077 0)
(14.0567 -0.132675 0)
(14.1084 -0.125193 0)
(14.1573 -0.118325 0)
(14.2038 -0.112059 0)
(14.248 -0.106371 0)
(14.2901 -0.10123 0)
(14.3304 -0.0965966 0)
(14.3691 -0.0924316 0)
(14.4062 -0.0886932 0)
(14.4419 -0.0853391 0)
(14.4764 -0.0823281 0)
(14.5098 -0.0796202 0)
(14.5421 -0.0771778 0)
(14.5734 -0.0749664 0)
(14.6039 -0.0729551 0)
(14.6336 -0.0711167 0)
(14.6625 -0.0694278 0)
(14.6906 -0.067868 0)
(14.7181 -0.06642 0)
(14.745 -0.0650688 0)
(14.7713 -0.0638014 0)
(14.797 -0.0626066 0)
(14.8221 -0.0614743 0)
(14.8468 -0.060395 0)
(14.871 -0.05936 0)
(14.8947 -0.058362 0)
(14.9179 -0.0573949 0)
(14.9408 -0.0564537 0)
(14.9632 -0.0555346 0)
(14.9852 -0.0546354 0)
(15.0069 -0.0537544 0)
(15.0282 -0.0528907 0)
(15.0491 -0.0520441 0)
(15.0697 -0.0512147 0)
(15.0899 -0.0504031 0)
(15.1098 -0.0496101 0)
(15.1294 -0.0488369 0)
(15.1486 -0.0480847 0)
(15.1675 -0.0473538 0)
(15.1861 -0.0466435 0)
(15.2044 -0.0459515 0)
(15.2224 -0.0452751 0)
(15.24 -0.0446113 0)
(15.2574 -0.0439575 0)
(15.2745 -0.0433115 0)
(15.2913 -0.0426719 0)
(15.3078 -0.0420375 0)
(15.324 -0.041408 0)
(15.3399 -0.0407815 0)
(15.3556 -0.0401599 0)
(15.371 -0.039543 0)
(15.386 -0.0389323 0)
(15.4009 -0.0383296 0)
(15.4154 -0.0377355 0)
(15.4297 -0.0371515 0)
(15.4437 -0.0365793 0)
(15.4575 -0.03602 0)
(15.471 -0.0354748 0)
(15.4843 -0.0349446 0)
(15.4974 -0.0344293 0)
(15.5103 -0.033928 0)
(15.523 -0.0334379 0)
(15.5354 -0.0329555 0)
(15.5478 -0.0324747 0)
(15.5599 -0.0319889 0)
(15.5719 -0.0314946 0)
(15.5838 -0.0309872 0)
(15.5955 -0.030467 0)
(15.6071 -0.029927 0)
(15.6186 -0.0293727 0)
(15.6299 -0.0287927 0)
(15.641 -0.0282082 0)
(15.6519 -0.0275974 0)
(15.6627 -0.0270064 0)
(15.6733 -0.0263876 0)
(15.6837 -0.0258249 0)
(15.6939 -0.0252167 0)
(15.7041 -0.0247058 0)
(15.7139 -0.0241078 0)
(15.7238 -0.0236466 0)
(15.7333 -0.0230355 0)
(15.7431 -0.0225956 0)
(15.7522 -0.0219644 0)
(15.762 -0.0214809 0)
(15.7707 -0.02086 0)
(15.7808 -0.0201817 0)
(15.7889 -0.0197058 0)
(15.7995 -0.0185398 0)
(15.8067 -0.0185239 0)
(15.8183 -0.0163266 0)
(15.8241 -0.0172373 0)
(15.8373 -0.0131889 0)
(15.8407 -0.0152644 0)
(15.8562 -0.00874289 0)
(12.002 -0.0263589 0)
(12.0244 -0.076571 0)
(12.065 -0.128748 0)
(12.1252 -0.175761 0)
(12.1992 -0.219028 0)
(12.287 -0.255833 0)
(12.384 -0.286286 0)
(12.4886 -0.309597 0)
(12.5972 -0.326134 0)
(12.7078 -0.336086 0)
(12.8179 -0.340115 0)
(12.9257 -0.339209 0)
(13.0298 -0.333853 0)
(13.1288 -0.324952 0)
(13.2221 -0.31325 0)
(13.309 -0.299479 0)
(13.3893 -0.284256 0)
(13.463 -0.268134 0)
(13.5301 -0.251579 0)
(13.5909 -0.234987 0)
(13.6456 -0.21868 0)
(13.6947 -0.202916 0)
(13.7386 -0.187896 0)
(13.7777 -0.173761 0)
(13.8124 -0.160609 0)
(13.8431 -0.148492 0)
(13.8702 -0.137426 0)
(13.8941 -0.127401 0)
(13.9151 -0.11838 0)
(13.9334 -0.110314 0)
(13.9495 -0.103141 0)
(13.9635 -0.0967913 0)
(13.9756 -0.0911942 0)
(13.986 -0.0862761 0)
(13.9948 -0.0819655 0)
(14.0024 -0.0781922 0)
(14.0086 -0.074889 0)
(14.0137 -0.0719929 0)
(14.0178 -0.0694459 0)
(14.0209 -0.0671957 0)
(14.0231 -0.0651963 0)
(14.0245 -0.0634083 0)
(14.0251 -0.0617987 0)
(14.025 -0.0603401 0)
(14.0242 -0.0590105 0)
(14.0228 -0.0577916 0)
(14.0209 -0.0566674 0)
(14.0184 -0.0556238 0)
(14.0153 -0.054648 0)
(14.0119 -0.0537286 0)
(14.0079 -0.0528558 0)
(14.0036 -0.0520212 0)
(13.9989 -0.0512171 0)
(13.9938 -0.0504358 0)
(13.9884 -0.0496697 0)
(13.9826 -0.0489117 0)
(13.9766 -0.0481561 0)
(13.9703 -0.0473993 0)
(13.9637 -0.0466398 0)
(13.9569 -0.0458772 0)
(13.9499 -0.0451119 0)
(13.9427 -0.0443454 0)
(13.9353 -0.0435797 0)
(13.9277 -0.0428182 0)
(13.92 -0.0420646 0)
(13.9121 -0.0413231 0)
(13.904 -0.0405972 0)
(13.8958 -0.0398894 0)
(13.8875 -0.0392013 0)
(13.8791 -0.0385331 0)
(13.8705 -0.0378832 0)
(13.8618 -0.0372493 0)
(13.8531 -0.0366284 0)
(13.8442 -0.036016 0)
(13.8353 -0.0354092 0)
(13.8263 -0.0348034 0)
(13.8172 -0.0341953 0)
(13.8081 -0.0335823 0)
(13.799 -0.0329606 0)
(13.7898 -0.0323285 0)
(13.7807 -0.0316867 0)
(13.7715 -0.0310382 0)
(13.7624 -0.030387 0)
(13.7533 -0.0297382 0)
(13.7442 -0.0290967 0)
(13.7351 -0.0284671 0)
(13.726 -0.027853 0)
(13.717 -0.0272582 0)
(13.7079 -0.0266839 0)
(13.6989 -0.0261317 0)
(13.6899 -0.0255994 0)
(13.6809 -0.0250821 0)
(13.6719 -0.0245702 0)
(13.663 -0.0240588 0)
(13.6541 -0.0235339 0)
(13.6453 -0.0229983 0)
(13.6366 -0.0224367 0)
(13.6279 -0.0218669 0)
(13.6193 -0.0212698 0)
(13.6109 -0.0206905 0)
(13.6025 -0.0200853 0)
(13.5942 -0.0195315 0)
(13.586 -0.0189362 0)
(13.578 -0.0184239 0)
(13.57 -0.0178334 0)
(13.5623 -0.0173567 0)
(13.5544 -0.016752 0)
(13.547 -0.0162838 0)
(13.5393 -0.0156634 0)
(13.5323 -0.0151504 0)
(13.5247 -0.0145602 0)
(13.5183 -0.0138804 0)
(13.5109 -0.0134482 0)
(13.505 -0.0123555 0)
(13.4979 -0.0123308 0)
(13.4925 -0.0103913 0)
(13.4863 -0.0110963 0)
(13.4807 -0.00770611 0)
(13.4766 -0.00921593 0)
(13.4697 -0.00387102 0)
(12.0031 -0.0561716 0)
(12.0331 -0.133239 0)
(12.091 -0.213164 0)
(12.1713 -0.280418 0)
(12.2589 -0.339382 0)
(12.347 -0.387072 0)
(12.4258 -0.424412 0)
(12.491 -0.45123 0)
(12.5387 -0.468553 0)
(12.5681 -0.477072 0)
(12.5791 -0.477931 0)
(12.5731 -0.472539 0)
(12.5521 -0.461691 0)
(12.5179 -0.446594 0)
(12.4728 -0.428246 0)
(12.4188 -0.407594 0)
(12.3578 -0.385436 0)
(12.2915 -0.362465 0)
(12.2216 -0.339256 0)
(12.1491 -0.316281 0)
(12.0753 -0.29391 0)
(12.0008 -0.272435 0)
(11.9265 -0.252065 0)
(11.8527 -0.232938 0)
(11.7801 -0.215139 0)
(11.7087 -0.198703 0)
(11.6389 -0.183624 0)
(11.5707 -0.169865 0)
(11.5042 -0.157367 0)
(11.4394 -0.146053 0)
(11.3764 -0.135842 0)
(11.315 -0.126644 0)
(11.2553 -0.118367 0)
(11.1971 -0.110923 0)
(11.1405 -0.104226 0)
(11.0853 -0.0981945 0)
(11.0315 -0.0927533 0)
(10.979 -0.0878322 0)
(10.9279 -0.0833676 0)
(10.8779 -0.0793018 0)
(10.8292 -0.0755845 0)
(10.7815 -0.0721717 0)
(10.735 -0.0690264 0)
(10.6896 -0.066117 0)
(10.6452 -0.0634164 0)
(10.6019 -0.060901 0)
(10.5595 -0.0585496 0)
(10.5181 -0.0563437 0)
(10.4777 -0.0542662 0)
(10.4381 -0.052302 0)
(10.3995 -0.0504373 0)
(10.3618 -0.04866 0)
(10.3249 -0.04696 0)
(10.2889 -0.0453287 0)
(10.2537 -0.0437599 0)
(10.2193 -0.0422495 0)
(10.1858 -0.0407953 0)
(10.153 -0.0393955 0)
(10.121 -0.0380485 0)
(10.0898 -0.0367532 0)
(10.0594 -0.0355085 0)
(10.0296 -0.034314 0)
(10.0006 -0.0331701 0)
(9.97237 -0.0320769 0)
(9.94479 -0.0310333 0)
(9.91789 -0.0300364 0)
(9.89165 -0.0290818 0)
(9.86607 -0.0281641 0)
(9.84111 -0.0272779 0)
(9.81678 -0.026419 0)
(9.79305 -0.0255846 0)
(9.76991 -0.0247738 0)
(9.74733 -0.0239865 0)
(9.72532 -0.0232233 0)
(9.70384 -0.0224842 0)
(9.6829 -0.0217709 0)
(9.66246 -0.0210829 0)
(9.64252 -0.0204198 0)
(9.62307 -0.0197808 0)
(9.6041 -0.0191636 0)
(9.58559 -0.0185671 0)
(9.56755 -0.0179903 0)
(9.54997 -0.0174318 0)
(9.53283 -0.0168905 0)
(9.51612 -0.0163644 0)
(9.49985 -0.0158522 0)
(9.48399 -0.0153518 0)
(9.46854 -0.0148635 0)
(9.45348 -0.0143875 0)
(9.43881 -0.0139219 0)
(9.42451 -0.0134623 0)
(9.41057 -0.0130153 0)
(9.39697 -0.0125835 0)
(9.38373 -0.0121738 0)
(9.37081 -0.0117777 0)
(9.35826 -0.0113976 0)
(9.34601 -0.0110134 0)
(9.33415 -0.010644 0)
(9.32258 -0.0102636 0)
(9.31141 -0.00991303 0)
(9.3005 -0.00954557 0)
(9.29002 -0.00923056 0)
(9.27971 -0.00887656 0)
(9.26988 -0.00860077 0)
(9.26012 -0.00824832 0)
(9.25096 -0.00799383 0)
(9.24169 -0.00761896 0)
(9.23322 -0.00737533 0)
(9.22437 -0.0069985 0)
(9.21666 -0.00675103 0)
(9.20819 -0.00639585 0)
(9.20129 -0.00607361 0)
(9.19321 -0.00580323 0)
(9.18713 -0.00530906 0)
(9.17959 -0.00522241 0)
(9.17415 -0.00440602 0)
(9.16769 -0.00450166 0)
(9.16236 -0.00324881 0)
(9.15816 -0.0033341 0)
(9.15206 -0.00159488 0)
(11.985 -0.0527781 0)