/*--------------------------------*- C++ -*----------------------------------*\
  =========                 |
  \\      /  F ield         | OpenFOAM: The Open Source CFD Toolbox
   \\    /   O peration     | Website:  https://openfoam.org
    \\  /    A nd           | Version:  7
     \\/     M anipulation  |
\*---------------------------------------------------------------------------*/
FoamFile
{
    version     2.0;
    format      ascii;
    class       volVectorField;
    location    "0.1";
    object      U_0;
}
// * * * * * * * * * * * * * * * * * * * * * * * * * * * * * * * * * * * * * //

dimensions      [0 1 -1 0 0 0 0];

internalField   nonuniform List<vector> 
4950
(
(-2.6106 -6.90943 -219.525)
(3.15173 -8.47897 -226.523)
(-0.178678 -8.8275 -225.921)
(1.56216 -8.66828 -226.428)
(0.526425 -8.77819 -226.143)
(1.16846 -8.69888 -226.255)
(0.793854 -8.74463 -226.138)
(1.03374 -8.7138 -226.179)
(0.89167 -8.73186 -226.141)
(0.988239 -8.71984 -226.159)
(0.933702 -8.72358 -226.147)
(0.99043 -8.71783 -226.151)
(0.969877 -8.71227 -226.149)
(1.04092 -8.70887 -226.144)
(1.03109 -8.69402 -226.15)
(1.1686 -8.69141 -226.133)
(1.1514 -8.65967 -226.156)
(1.41464 -8.65631 -226.117)
(1.36262 -8.53588 -226.162)
(1.42612 -8.4995 -226.392)
(-1.09127 4.87309 -235.855)
(6.22787 4.77035 -242.5)
(1.10954 4.73312 -244.331)
(3.91049 4.77635 -244.573)
(2.06563 4.63191 -244.655)
(3.13395 4.68763 -244.488)
(2.43648 4.64306 -244.438)
(2.83094 4.6668 -244.386)
(2.54661 4.65334 -244.396)
(2.69223 4.66277 -244.396)
(2.5649 4.6616 -244.399)
(2.64488 4.66462 -244.39)
(2.57836 4.67108 -244.361)
(2.69143 4.6694 -244.333)
(2.64024 4.68529 -244.252)
(2.88433 4.67522 -244.196)
(2.80647 4.7172 -244.009)
(3.36001 4.6817 -243.91)
(3.17311 4.82068 -243.37)
(4.63833 4.8518 -242.468)
(-1.62834 -1.87143 -235.411)
(7.89332 -2.65344 -243.963)
(2.18534 -3.17895 -245.104)
(5.83841 -3.10356 -246.515)
(3.66837 -3.25396 -246.11)
(4.9653 -3.22077 -246.132)
(4.14761 -3.26045 -245.794)
(4.61761 -3.24332 -245.778)
(4.28826 -3.25331 -245.704)
(4.46729 -3.24569 -245.746)
(4.32038 -3.24586 -245.743)
(4.43078 -3.24247 -245.762)
(4.35274 -3.23566 -245.751)
(4.52127 -3.23473 -245.738)
(4.45477 -3.21786 -245.697)
(4.82086 -3.22237 -245.649)
(4.69582 -3.18302 -245.544)
(5.53527 -3.20159 -245.417)
(5.16834 -3.14942 -245.187)
(7.16705 -3.1418 -243.367)
(-1.19549 1.19925 -236.553)
(8.35566 1.2687 -242.265)
(3.32861 1.24272 -244.276)
(6.66628 1.20187 -244.66)
(4.84599 1.14104 -244.913)
(5.99545 1.13207 -244.59)
(5.26801 1.12021 -244.417)
(5.66381 1.12136 -244.241)
(5.35507 1.12055 -244.224)
(5.49964 1.12193 -244.218)
(5.3559 1.12312 -244.23)
(5.44542 1.12345 -244.233)
(5.36459 1.12616 -244.191)
(5.50958 1.12525 -244.17)
(5.43845 1.13083 -244.034)
(5.75928 1.12647 -243.998)
(5.63301 1.14079 -243.676)
(6.35386 1.12596 -243.581)
(6.03346 1.1439 -243.018)
(7.45386 1.17553 -240.863)
(-1.66095 9.89483e-07 -235.429)
(8.2218 3.15166e-06 -242.294)
(3.11547 2.69295e-06 -243.769)
(6.95444 2.63253e-06 -244.85)
(5.02646 4.57221e-06 -244.85)
(6.30104 2.58793e-06 -244.836)
(5.53259 -2.63906e-07 -244.478)
(5.96747 -7.97799e-07 -244.378)
(5.64797 7.91131e-06 -244.285)
(5.81281 1.2149e-05 -244.313)
(5.66827 -1.94545e-06 -244.313)
(5.7763 -9.85618e-06 -244.336)
(5.69731 -1.02616e-05 -244.314)
(5.87166 -2.19909e-05 -244.31)
(5.80038 1.20411e-05 -244.231)
(6.18439 -0.000156018 -244.211)
(6.04 0.000399652 -243.969)
(6.92284 -0.000697312 -243.883)
(6.49476 0.00198556 -243.341)
(8.39761 0.00132121 -240.775)
(-1.19549 -1.19925 -236.553)
(8.35566 -1.2687 -242.266)
(3.32861 -1.24272 -244.277)
(6.66628 -1.20186 -244.66)
(4.84599 -1.14103 -244.913)
(5.99545 -1.13207 -244.59)
(5.26801 -1.12021 -244.417)
(5.66381 -1.12136 -244.242)
(5.35506 -1.12054 -244.224)
(5.49964 -1.12191 -244.218)
(5.35592 -1.12312 -244.23)
(5.44543 -1.12347 -244.233)
(5.36459 -1.12618 -244.191)
(5.50956 -1.1253 -244.17)
(5.43843 -1.13078 -244.035)
(5.75924 -1.12676 -243.997)
(5.63271 -1.14002 -243.682)
(6.35444 -1.12716 -243.569)
(6.03235 -1.14031 -243.044)
(7.45532 -1.17434 -240.82)
(-1.62834 1.87142 -235.411)
(7.89332 2.65344 -243.963)
(2.18535 3.17896 -245.104)
(5.83841 3.10356 -246.515)
(3.66837 3.25397 -246.111)
(4.9653 3.22077 -246.132)
(4.14761 3.26045 -245.794)
(4.6176 3.24332 -245.778)
(4.28825 3.25331 -245.704)
(4.4673 3.2457 -245.746)
(4.32041 3.24586 -245.743)
(4.43079 3.24246 -245.762)
(4.35274 3.23565 -245.751)
(4.52126 3.23471 -245.738)
(4.45468 3.21787 -245.698)
(4.82102 3.2222 -245.648)
(4.69515 3.18352 -245.551)
(5.53726 3.20065 -245.401)
(5.16612 3.15314 -245.225)
(7.1737 3.14361 -243.283)
(-1.09127 -4.87308 -235.855)
(6.22787 -4.77035 -242.5)
(1.10954 -4.73311 -244.331)
(3.91049 -4.77634 -244.573)
(2.06564 -4.6319 -244.655)
(3.13395 -4.68762 -244.488)
(2.43647 -4.64306 -244.438)
(2.83093 -4.6668 -244.386)
(2.5466 -4.65332 -244.396)
(2.69224 -4.66276 -244.396)
(2.56493 -4.6616 -244.399)
(2.64488 -4.66462 -244.39)
(2.57835 -4.67108 -244.361)
(2.6914 -4.6694 -244.333)
(2.64017 -4.6853 -244.252)
(2.88429 -4.67525 -244.195)
(2.80606 -4.71714 -244.012)
(3.36113 -4.68197 -243.901)
(3.17099 -4.81926 -243.393)
(4.6505 -4.85128 -242.408)
(-2.6106 6.90944 -219.525)
(3.15173 8.47897 -226.523)
(-0.178676 8.8275 -225.921)
(1.56216 8.66828 -226.428)
(0.526427 8.77819 -226.143)
(1.16846 8.69888 -226.255)
(0.793854 8.74463 -226.138)
(1.03374 8.7138 -226.179)
(0.891667 8.73186 -226.141)
(0.988246 8.71984 -226.159)
(0.933712 8.72358 -226.147)
(0.990431 8.71783 -226.151)
(0.969875 8.71228 -226.149)
(1.04092 8.70887 -226.144)
(1.03109 8.69405 -226.15)
(1.16862 8.69139 -226.133)
(1.15134 8.65982 -226.156)
(1.41515 8.65601 -226.116)
(1.36159 8.53643 -226.167)
(1.43194 8.49865 -226.411)
(9.74677 9.83044 0.655762)
(1.37023 11.6656 0.21999)
(2.59351 11.397 0.518157)
(0.709105 11.1256 0.323653)
(1.4073 11.1262 0.452408)
(0.88699 11.1016 0.365262)
(1.09735 11.103 0.419782)
(0.892071 11.1025 0.381034)
(0.948263 11.1054 0.402005)
(0.835271 11.1088 0.384048)
(0.83984 11.1102 0.388913)
(0.751053 11.1126 0.379488)
(0.737202 11.1104 0.37494)
(0.636268 11.1121 0.36902)
(0.619672 11.1017 0.356473)
(0.458719 11.1038 0.352652)
(0.466615 11.073 0.330581)
(0.138147 11.0703 0.329514)
(0.328928 10.758 0.297897)
(1.34824 10.8115 0.298854)
(11.3705 -4.01552 0.00367654)
(2.09863 -5.29605 -0.446177)
(5.86919 -5.37998 -0.158187)
(2.67868 -5.94559 -0.356258)
(3.68725 -5.89944 -0.226493)
(2.68618 -5.93224 -0.313856)
(2.96445 -5.89244 -0.258863)
(2.56706 -5.89405 -0.297627)
(2.61214 -5.88136 -0.27664)
(2.38523 -5.88127 -0.294625)
(2.35408 -5.87967 -0.289819)
(2.16595 -5.87975 -0.299195)
(2.10929 -5.8866 -0.303792)
(1.88203 -5.88651 -0.309562)
(1.82337 -5.90895 -0.322163)
(1.43902 -5.90795 -0.325684)
(1.42402 -5.96879 -0.348094)
(0.613698 -5.98366 -0.34853)
(0.822975 -6.61168 -0.385051)
(-1.36384 -6.43846 -0.382847)
(11.2656 3.50911 0.329832)
(3.60429 4.96184 -0.106784)
(7.39206 4.7762 0.188177)
(4.8117 4.43891 -0.0138055)
(5.50161 4.28937 0.119454)
(4.6231 4.25478 0.0292485)
(4.77386 4.2194 0.085549)
(4.3991 4.22713 0.0456939)
(4.39076 4.22311 0.0671945)
(4.16094 4.23037 0.0487524)
(4.10141 4.23014 0.0536705)
(3.90471 4.23392 0.0440241)
(3.82788 4.2322 0.0393191)
(3.59329 4.23441 0.0333308)
(3.51556 4.22747 0.0205072)
(3.13022 4.22785 0.016773)
(3.0856 4.20403 -0.00577749)
(2.29317 4.18889 -0.00640348)
(2.38241 4.12198 -0.0425353)
(-0.284036 4.1612 -0.0385802)
(10.7936 -0.852543 0.0785968)
(2.65644 -1.03292 -0.383313)
(7.93511 -0.979323 -0.10053)
(5.58024 -1.33176 -0.2976)
(6.6586 -1.39396 -0.169154)
(5.78561 -1.43574 -0.25468)
(5.94425 -1.43721 -0.20067)
(5.52991 -1.43495 -0.238239)
(5.50077 -1.43022 -0.217813)
(5.2451 -1.4271 -0.235274)
(5.17091 -1.42616 -0.23066)
(4.9513 -1.42494 -0.239793)
(4.86469 -1.428 -0.244307)
(4.5936 -1.42744 -0.249953)
(4.51084 -1.43842 -0.262258)
(4.04318 -1.43853 -0.265767)
(3.99842 -1.47282 -0.287594)
(2.97508 -1.48438 -0.288287)
(3.06934 -1.72513 -0.323566)
(0.655302 -1.65263 -0.319701)
(11.0176 2.00273e-06 0.28954)
(3.3262 2.98043e-06 -0.13838)
(8.12083 5.95911e-07 0.156658)
(6.19576 3.87944e-06 -0.0446004)
(7.03613 7.85139e-06 0.0887763)
(6.24762 6.40011e-06 -0.000791057)
(6.33007 2.39906e-06 0.0551498)
(5.93904 3.44214e-06 0.0157731)
(5.88842 1.35297e-05 0.0370147)
(5.64724 1.40641e-05 0.0187932)
(5.56836 -2.78683e-06 0.0235992)
(5.3634 -1.47592e-05 0.0140621)
(5.27552 -1.92354e-05 0.0093497)
(5.02886 -5.16369e-05 0.00343763)
(4.94353 -9.40652e-05 -0.00930118)
(4.53089 -0.000216467 -0.0129646)
(4.47835 -0.000546598 -0.0354025)
(3.57028 -0.000577501 -0.0359252)
(3.61116 -0.00443143 -0.0730313)
(0.557874 0.000489684 -0.0675889)
(10.7936 0.852539 0.0785969)
(2.65644 1.03292 -0.383312)
(7.93512 0.979316 -0.10053)
(5.58024 1.33176 -0.2976)
(6.6586 1.39398 -0.169154)
(5.78561 1.43575 -0.254679)
(5.94425 1.43721 -0.200669)
(5.5299 1.43495 -0.238239)
(5.50076 1.43025 -0.217812)
(5.24512 1.42714 -0.235273)
(5.17093 1.42615 -0.230659)
(4.95131 1.4249 -0.239792)
(4.86467 1.42795 -0.244306)
(4.59354 1.42732 -0.249952)
(4.51068 1.43823 -0.262257)
(4.04288 1.43804 -0.265768)
(3.99772 1.47178 -0.2876)
(2.97317 1.48343 -0.288281)
(3.06706 1.71689 -0.323621)
(0.641955 1.65547 -0.319653)
(11.2656 -3.50911 0.329832)
(3.6043 -4.96184 -0.106783)
(7.39207 -4.7762 0.188177)
(4.81171 -4.43891 -0.0138044)
(5.50161 -4.28937 0.119456)
(4.62311 -4.25477 0.0292499)
(4.77387 -4.2194 0.0855509)
(4.39909 -4.22713 0.045696)
(4.39074 -4.22309 0.0671966)
(4.16096 -4.23036 0.0487545)
(4.10144 -4.23015 0.0536728)
(3.90471 -4.23394 0.0440263)
(3.82784 -4.23223 0.0393214)
(3.59321 -4.23448 0.0333327)
(3.51531 -4.2276 0.0205091)
(3.12988 -4.22808 0.0167748)
(3.08452 -4.20474 -0.00578353)
(2.29165 -4.18938 -0.00639265)
(2.37916 -4.12801 -0.0426045)
(-0.307479 -4.1591 -0.0385018)
(11.3705 4.01551 0.00367713)
(2.09864 5.29604 -0.446176)
(5.8692 5.37997 -0.158185)
(2.67868 5.94559 -0.356256)
(3.68725 5.89945 -0.226491)
(2.68618 5.93225 -0.313853)
(2.96445 5.89244 -0.258859)
(2.56704 5.89406 -0.297623)
(2.61213 5.88137 -0.276636)
(2.38525 5.88128 -0.294621)
(2.3541 5.87966 -0.289815)
(2.16593 5.87974 -0.299192)
(2.10923 5.88658 -0.303789)
(1.8819 5.88648 -0.30956)
(1.82308 5.90887 -0.322161)
(1.43834 5.90779 -0.325684)
(1.42287 5.96827 -0.348104)
(0.609851 5.98352 -0.348525)
(0.819462 6.61244 -0.38515)
(-1.39159 6.44184 -0.382764)
(9.74677 -9.83045 0.655764)
(1.37023 -11.6656 0.219992)
(2.59351 -11.397 0.51816)
(0.709104 -11.1256 0.323656)
(1.4073 -11.1263 0.452412)
(0.886993 -11.1016 0.365266)
(1.09735 -11.103 0.419787)
(0.89206 -11.1025 0.381039)
(0.948254 -11.1054 0.40201)
(0.835282 -11.1088 0.384053)
(0.83985 -11.1102 0.388917)
(0.751042 -11.1126 0.379492)
(0.737171 -11.1104 0.374945)
(0.636221 -11.1121 0.369023)
(0.619541 -11.1017 0.356477)
(0.45853 -11.1038 0.352651)
(0.466094 -11.0729 0.330584)
(0.137032 -11.0697 0.329503)
(0.328593 -10.7567 0.297892)
(1.35275 -10.8059 0.298845)
(2.61712 -0.777601 -1.70709e-06)
(2.03455 -0.724812 -2.49302e-07)
(2.80833 -0.63223 8.41362e-08)
(0.863317 -1.00431 6.1393e-07)
(2.47632 -0.924408 1.31222e-06)
(1.17933 -1.00126 1.73912e-06)
(2.12177 -0.974597 1.67681e-06)
(1.38218 -0.996308 1.57008e-06)
(1.81005 -0.987561 1.47757e-06)
(1.37407 -0.99544 1.42948e-06)
(1.53059 -0.99512 1.49276e-06)
(1.23027 -0.998476 1.57555e-06)
(1.26403 -1.00493 1.54782e-06)
(1.02191 -1.00629 1.58653e-06)
(1.0166 -1.02318 1.59371e-06)
(0.842618 -1.02124 1.75825e-06)
(0.846288 -1.05973 1.765e-06)
(0.926048 -1.03594 1.71411e-06)
(0.813615 -1.22983 1.47384e-06)
(2.82941 -1.19454 2.19664e-06)
(4.75852 0.108872 -1.43535e-06)
(2.97219 -0.439901 -6.85201e-07)
(5.52188 -0.417791 -8.73174e-07)
(2.98724 -0.59214 -4.80556e-07)
(4.6239 -0.662738 -2.44408e-07)
(3.19527 -0.643405 4.64076e-08)
(4.04548 -0.679155 1.01152e-07)
(3.2902 -0.650288 -2.85483e-08)
(3.64579 -0.670808 -2.13638e-07)
(3.18747 -0.654818 -3.23466e-07)
(3.28927 -0.664888 -4.08398e-07)
(2.94326 -0.658289 -4.34753e-07)
(2.93108 -0.662217 -5.13378e-07)
(2.60567 -0.661518 -5.74071e-07)
(2.55607 -0.6604 -6.89727e-07)
(2.21829 -0.666467 -6.86704e-07)
(2.18478 -0.663385 -8.6758e-07)
(1.8917 -0.656832 -1.3199e-06)
(1.93936 -0.919085 -1.89271e-06)
(1.72818 -0.887776 -1.87452e-06)
(4.37257 -0.0601969 -7.98269e-07)
(3.8514 0.47237 -5.81731e-07)
(6.23457 0.545971 -7.26054e-07)
(4.34183 0.217829 -3.41148e-07)
(5.87346 0.155281 1.08176e-07)
(4.6331 0.0668083 5.27011e-07)
(5.44028 0.0338869 6.0765e-07)
(4.74081 0.0262622 5.22735e-07)
(5.07646 0.0176537 3.50465e-07)
(4.63478 0.0212698 1.96564e-07)
(4.72291 0.0165138 1.17691e-07)
(4.38041 0.0181186 7.25112e-08)
(4.35276 0.0118402 -5.41248e-08)
(4.03868 0.0113854 -1.17755e-07)
(3.9632 0.000907006 -2.10197e-07)
(3.68705 -0.00299615 -2.27253e-07)
(3.58687 -0.0233793 -4.6762e-07)
(3.52724 -0.034148 -9.34979e-07)
(3.35444 -0.121133 -1.54897e-06)
(3.84864 -0.103323 -1.5789e-06)
(4.01492 -0.0899654 -3.46509e-07)
(2.86937 -0.258466 -2.53229e-07)
(6.41618 -0.148161 -3.88815e-07)
(4.80709 -0.260325 -6.37562e-08)
(6.62106 -0.309081 2.43494e-07)
(5.54329 -0.325667 5.75275e-07)
(6.27001 -0.351999 6.7115e-07)
(5.61376 -0.341418 6.27436e-07)
(5.87279 -0.348695 4.94971e-07)
(5.44839 -0.340662 3.65235e-07)
(5.49904 -0.343753 2.77808e-07)
(5.16161 -0.340489 2.29307e-07)
(5.1183 -0.341772 1.16935e-07)
(4.78577 -0.341114 4.39523e-08)
(4.70805 -0.34069 -8.36743e-08)
(4.34926 -0.341329 -1.3625e-07)
(4.26495 -0.348516 -4.62667e-07)
(3.93163 -0.338834 -8.75338e-07)
(3.81213 -0.486056 -1.17362e-06)
(3.66026 -0.458257 -1.06651e-06)
(4.38071 3.92012e-06 4.38964e-08)
(3.65004 3.48272e-06 2.96133e-08)
(6.48891 -3.23367e-06 -2.06406e-08)
(5.14173 -1.59924e-06 1.5223e-07)
(6.80542 9.42738e-06 1.36112e-07)
(5.77581 4.11795e-06 2.81292e-07)
(6.49281 -7.36298e-06 4.51277e-07)
(5.84125 -2.98326e-06 5.41931e-07)
(6.10975 1.90043e-05 5.0713e-07)
(5.68911 1.77504e-05 4.28632e-07)
(5.74701 -1.2783e-05 3.49278e-07)
(5.41729 -3.32588e-05 2.9991e-07)
(5.37377 -4.3105e-05 2.12608e-07)
(5.06683 -6.7587e-05 1.69731e-07)
(4.97835 -0.000194017 8.03326e-08)
(4.69945 -8.01037e-05 1.94642e-08)
(4.58563 -0.000987112 -3.06757e-07)
(4.45335 0.000359448 -6.79904e-07)
(4.3195 -0.0034995 -4.10644e-07)
(4.21467 -0.00086588 -1.9036e-07)
(4.01492 0.0899653 5.49052e-07)
(2.86937 0.258471 1.53661e-07)
(6.41619 0.148147 6.1769e-08)
(4.80709 0.260317 1.36496e-07)
(6.62105 0.309091 -1.77318e-07)
(5.54329 0.325669 -2.29337e-07)
(6.27002 0.351983 -2.55962e-08)
(5.61375 0.341409 1.5599e-07)
(5.87279 0.34872 1.92149e-07)
(5.4484 0.340685 1.36577e-07)
(5.49905 0.343734 6.7878e-08)
(5.16162 0.340439 2.22898e-08)
(5.11829 0.341727 -4.8956e-08)
(4.78571 0.341007 -6.69635e-08)
(4.70793 0.340514 -1.42339e-07)
(4.34888 0.341139 -2.27365e-07)
(4.2647 0.347544 -5.90811e-07)
(3.92977 0.339339 -8.91843e-07)
(3.81188 0.482012 -1.48768e-07)
(3.65334 0.458187 9.81249e-08)
(4.37257 0.0602029 1.0392e-06)
(3.8514 -0.472365 1.94565e-07)
(6.23458 -0.545977 -6.1246e-08)
(4.34183 -0.217829 -1.10196e-07)
(5.87345 -0.155269 -6.05384e-07)
(4.63311 -0.0668052 -7.23099e-07)
(5.44028 -0.0338989 -4.74393e-07)
(4.74079 -0.0262652 -2.72548e-07)
(5.07643 -0.0176256 -2.45749e-07)
(4.6348 -0.0212469 -2.94353e-07)
(4.72295 -0.0165363 -3.89225e-07)
(4.38042 -0.0181672 -4.50286e-07)
(4.35272 -0.0118955 -5.0422e-07)
(4.03863 -0.0114698 -5.3203e-07)
(3.96296 -0.00116014 -6.16969e-07)
(3.68675 0.00293272 -7.43302e-07)
(3.58635 0.0220594 -1.18875e-06)
(3.52529 0.0349367 -1.36309e-06)
(3.35622 0.116473 -4.31281e-07)
(3.83588 0.102395 -3.24018e-07)
(4.75851 -0.108868 1.7481e-06)
(2.97219 0.439903 1.79118e-07)
(5.52189 0.417786 -3.16871e-07)
(2.98723 0.59214 -4.16943e-07)
(4.6239 0.662747 -8.78653e-07)
(3.19528 0.643404 -1.0204e-06)
(4.04548 0.679144 -8.41018e-07)
(3.29018 0.650288 -6.42668e-07)
(3.64577 0.67083 -6.35566e-07)
(3.18749 0.65483 -7.30892e-07)
(3.2893 0.664863 -8.50105e-07)
(2.94324 0.658249 -9.39513e-07)
(2.93099 0.662174 -1.04583e-06)
(2.6055 0.661452 -1.0934e-06)
(2.55575 0.660205 -1.17948e-06)
(2.21743 0.66639 -1.35531e-06)
(2.18417 0.662441 -1.90483e-06)
(1.88721 0.657003 -2.10864e-06)
(1.94044 0.918074 -1.44311e-06)
(1.70654 0.889379 -1.65267e-06)
(2.61712 0.777596 2.33214e-06)
(2.03456 0.724812 6.38428e-07)
(2.80834 0.632226 -3.47446e-07)
(0.863307 1.00431 -5.12319e-07)
(2.47632 0.924408 -1.3004e-06)
(1.17933 1.00126 -1.79467e-06)
(2.12176 0.974596 -1.88158e-06)
(1.38215 0.996306 -1.85742e-06)
(1.81003 0.987559 -1.94232e-06)
(1.3741 0.995438 -2.05795e-06)
(1.53061 0.99512 -2.26966e-06)
(1.23024 0.998478 -2.42882e-06)
(1.26394 1.00495 -2.59864e-06)
(1.0218 1.00631 -2.73699e-06)
(1.01639 1.02324 -2.96723e-06)
(0.842202 1.02132 -3.2864e-06)
(0.846173 1.0601 -3.95153e-06)
(0.924212 1.03614 -4.33517e-06)
(0.815167 1.23225 -4.11397e-06)
(2.83271 1.19579 -5.66798e-06)
(9.74678 9.83045 -0.655764)
(1.37023 11.6656 -0.219993)
(2.59351 11.397 -0.518161)
(0.709108 11.1256 -0.323657)
(1.4073 11.1263 -0.452412)
(0.886987 11.1016 -0.365266)
(1.09735 11.103 -0.419787)
(0.892072 11.1025 -0.381038)
(0.948261 11.1054 -0.40201)
(0.835269 11.1088 -0.384053)
(0.839838 11.1102 -0.388918)
(0.751048 11.1126 -0.379493)
(0.737198 11.1104 -0.374945)
(0.636265 11.1121 -0.369025)
(0.619668 11.1017 -0.356479)
(0.458712 11.1038 -0.352657)
(0.466607 11.073 -0.330586)
(0.138133 11.0703 -0.329519)
(0.328918 10.7579 -0.297903)
(1.34823 10.8115 -0.298858)
(11.3705 -4.01552 -0.00367796)
(2.09863 -5.29605 0.446175)
(5.86919 -5.37998 0.158184)
(2.67869 -5.94559 0.356255)
(3.68726 -5.89944 0.22649)
(2.68618 -5.93225 0.313852)
(2.96445 -5.89245 0.258858)
(2.56706 -5.89406 0.297623)
(2.61214 -5.88136 0.276636)
(2.38523 -5.88127 0.29462)
(2.35408 -5.87967 0.289814)
(2.16594 -5.87976 0.29919)
(2.10929 -5.88661 0.303787)
(1.88203 -5.88652 0.309557)
(1.82337 -5.90895 0.322158)
(1.43901 -5.90796 0.325679)
(1.42401 -5.9688 0.348089)
(0.613674 -5.98367 0.348524)
(0.822959 -6.61169 0.385045)
(-1.36386 -6.43848 0.382844)
(11.2656 3.5091 -0.329832)
(3.60429 4.96184 0.106783)
(7.39206 4.77619 -0.188178)
(4.81172 4.4389 0.0138037)
(5.50162 4.28937 -0.119456)
(4.6231 4.25477 -0.0292504)
(4.77387 4.21939 -0.0855511)
(4.39911 4.22712 -0.0456963)
(4.39076 4.2231 -0.0671972)
(4.16094 4.23037 -0.0487554)
(4.10141 4.23014 -0.0536737)
(3.90471 4.23391 -0.0440274)
(3.82788 4.2322 -0.0393226)
(3.59329 4.23441 -0.0333344)
(3.51556 4.22747 -0.0205111)
(3.13022 4.22785 -0.0167769)
(3.08559 4.20403 0.00577325)
(2.29315 4.18889 0.00639852)
(2.3824 4.12197 0.0425299)
(-0.284052 4.16118 0.0385769)
(10.7936 -0.852546 -0.0785975)
(2.65644 -1.03292 0.383312)
(7.93511 -0.979333 0.100529)
(5.58025 -1.33177 0.297599)
(6.6586 -1.39397 0.169153)
(5.78561 -1.43575 0.254679)
(5.94425 -1.43723 0.200669)
(5.52991 -1.43496 0.238238)
(5.50077 -1.43023 0.217811)
(5.24511 -1.42712 0.235272)
(5.17092 -1.42617 0.230658)
(4.95131 -1.42495 0.239791)
(4.86469 -1.42801 0.244305)
(4.5936 -1.42745 0.24995)
(4.51084 -1.43843 0.262255)
(4.04318 -1.43854 0.265765)
(3.99841 -1.47283 0.28759)
(2.97507 -1.48439 0.288283)
(3.06933 -1.72515 0.323561)
(0.655282 -1.65265 0.319698)
(11.0176 -3.21288e-06 -0.289541)
(3.3262 -1.62455e-06 0.13838)
(8.12084 -9.04178e-06 -0.156659)
(6.19576 -8.36969e-06 0.0445999)
(7.03613 -1.35995e-07 -0.0887767)
(6.24763 -4.20717e-06 0.000790664)
(6.33007 -1.34903e-05 -0.0551501)
(5.93904 -8.07787e-06 -0.0157735)
(5.88843 5.29667e-06 -0.0370152)
(5.64724 3.3001e-06 -0.0187938)
(5.56837 -1.15554e-05 -0.0235999)
(5.36341 -2.36937e-05 -0.0140628)
(5.27553 -3.23611e-05 -0.00935062)
(5.02886 -6.23594e-05 -0.00343862)
(4.94353 -0.000100884 0.0093)
(4.5309 -0.000221686 0.0129634)
(4.47835 -0.000550508 0.0354008)
(3.57028 -0.000586802 0.035923)
(3.61115 -0.00444817 0.0730296)
(0.557855 0.00047381 0.0675885)
(10.7936 0.852537 -0.0785974)
(2.65644 1.03292 0.383312)
(7.93512 0.979308 0.10053)
(5.58024 1.33175 0.2976)
(6.6586 1.39397 0.169154)
(5.78561 1.43574 0.254679)
(5.94425 1.43719 0.20067)
(5.5299 1.43494 0.238239)
(5.50076 1.43024 0.217812)
(5.24512 1.42712 0.235273)
(5.17093 1.42614 0.230659)
(4.95131 1.42489 0.239793)
(4.86467 1.42794 0.244307)
(4.59354 1.42731 0.249952)
(4.51068 1.43822 0.262257)
(4.04289 1.43804 0.265768)
(3.99773 1.47178 0.2876)
(2.97318 1.48342 0.28828)
(3.06706 1.71687 0.323621)
(0.641933 1.65545 0.319654)
(11.2656 -3.50911 -0.329832)
(3.6043 -4.96184 0.106784)
(7.39207 -4.7762 -0.188177)
(4.81171 -4.43891 0.0138051)
(5.50161 -4.28937 -0.119455)
(4.62311 -4.25478 -0.0292488)
(4.77387 -4.21941 -0.0855493)
(4.39908 -4.22713 -0.0456942)
(4.39074 -4.22309 -0.0671948)
(4.16096 -4.23036 -0.0487528)
(4.10144 -4.23015 -0.0536712)
(3.90472 -4.23394 -0.0440249)
(3.82784 -4.23224 -0.03932)
(3.59321 -4.23448 -0.0333313)
(3.51531 -4.2276 -0.0205079)
(3.12989 -4.22809 -0.0167737)
(3.08453 -4.20474 0.00578384)
(2.29166 -4.18938 0.00639278)
(2.37917 -4.12802 0.0426059)
(-0.307505 -4.15911 0.038503)
(11.3705 4.01552 -0.00367537)
(2.09864 5.29605 0.446178)
(5.8692 5.37998 0.158187)
(2.67868 5.94559 0.356258)
(3.68725 5.89944 0.226493)
(2.68619 5.93224 0.313856)
(2.96445 5.89243 0.258862)
(2.56704 5.89405 0.297627)
(2.61213 5.88136 0.27664)
(2.38525 5.88127 0.294624)
(2.3541 5.87965 0.289818)
(2.16593 5.87972 0.299195)
(2.10923 5.88657 0.303792)
(1.8819 5.88646 0.309562)
(1.82308 5.90885 0.322163)
(1.43834 5.90778 0.325686)
(1.42287 5.96826 0.348105)
(0.609857 5.9835 0.348526)
(0.819461 6.61242 0.385152)
(-1.39162 6.44182 0.382766)
(9.74677 -9.83045 -0.655762)
(1.37023 -11.6656 -0.21999)
(2.59351 -11.397 -0.518158)
(0.709104 -11.1256 -0.323653)
(1.4073 -11.1263 -0.452409)
(0.886993 -11.1016 -0.365263)
(1.09735 -11.103 -0.419783)
(0.892058 -11.1025 -0.381035)
(0.948254 -11.1054 -0.402006)
(0.83528 -11.1088 -0.384049)
(0.839847 -11.1102 -0.388914)
(0.751041 -11.1126 -0.379489)
(0.737169 -11.1104 -0.374942)
(0.636217 -11.1121 -0.369021)
(0.619537 -11.1017 -0.356475)
(0.458525 -11.1038 -0.352649)
(0.466092 -11.0729 -0.330583)
(0.13703 -11.0697 -0.329503)
(0.328588 -10.7567 -0.297891)
(1.35274 -10.8059 -0.298844)
(-2.61059 -6.90944 219.525)
(3.15172 -8.47898 226.523)
(-0.17868 -8.8275 225.921)
(1.56216 -8.66828 226.428)
(0.526427 -8.77819 226.143)
(1.16846 -8.69888 226.255)
(0.793855 -8.74463 226.138)
(1.03374 -8.71379 226.179)
(0.891668 -8.73186 226.141)
(0.988236 -8.71984 226.159)
(0.9337 -8.72358 226.147)
(0.990425 -8.71783 226.151)
(0.969874 -8.71227 226.149)
(1.04092 -8.70886 226.144)
(1.03109 -8.69402 226.15)
(1.16859 -8.69141 226.133)
(1.15139 -8.65967 226.156)
(1.41462 -8.65631 226.117)
(1.36261 -8.53588 226.162)
(1.42612 -8.49949 226.392)
(-1.09126 4.87308 235.855)
(6.22787 4.77034 242.5)
(1.10954 4.73311 244.331)
(3.9105 4.77634 244.573)
(2.06564 4.6319 244.655)
(3.13394 4.68762 244.488)
(2.43648 4.64305 244.437)
(2.83094 4.66679 244.385)
(2.5466 4.65333 244.396)
(2.69222 4.66276 244.396)
(2.5649 4.66159 244.399)
(2.64487 4.66461 244.39)
(2.57835 4.67107 244.361)
(2.69143 4.66939 244.333)
(2.64024 4.68528 244.252)
(2.88432 4.67521 244.196)
(2.80645 4.71719 244.009)
(3.35998 4.68169 243.91)
(3.17309 4.82068 243.37)
(4.63832 4.85179 242.468)
(-1.62834 -1.87142 235.411)
(7.89332 -2.65344 243.963)
(2.18534 -3.17896 245.104)
(5.83841 -3.10356 246.515)
(3.66837 -3.25396 246.11)
(4.9653 -3.22077 246.132)
(4.14761 -3.26045 245.794)
(4.61762 -3.24332 245.778)
(4.28826 -3.2533 245.704)
(4.46728 -3.24569 245.746)
(4.32038 -3.24586 245.743)
(4.43077 -3.24247 245.762)
(4.35274 -3.23566 245.751)
(4.52127 -3.23473 245.738)
(4.45477 -3.21785 245.697)
(4.82085 -3.22236 245.649)
(4.6958 -3.18301 245.544)
(5.53525 -3.20159 245.417)
(5.16832 -3.14942 245.187)
(7.16704 -3.14181 243.367)
(-1.19549 1.19925 236.553)
(8.35565 1.2687 242.265)
(3.32861 1.24271 244.276)
(6.66628 1.20186 244.66)
(4.84599 1.14104 244.913)
(5.99545 1.13207 244.59)
(5.26801 1.1202 244.417)
(5.66382 1.12136 244.241)
(5.35507 1.12056 244.223)
(5.49964 1.12193 244.218)
(5.3559 1.12312 244.23)
(5.44542 1.12345 244.233)
(5.36459 1.12616 244.191)
(5.50958 1.12525 244.17)
(5.43846 1.13083 244.034)
(5.75928 1.12648 243.998)
(5.633 1.1408 243.676)
(6.35385 1.12597 243.581)
(6.03345 1.1439 243.018)
(7.45385 1.17552 240.863)
(-1.66095 -1.73853e-07 235.429)
(8.22179 -1.35621e-06 242.294)
(3.11547 -9.14538e-06 243.769)
(6.95444 -7.93613e-06 244.85)
(5.02646 4.00607e-06 244.85)
(6.30104 4.84901e-07 244.836)
(5.53259 -8.601e-06 244.477)
(5.96747 -2.44549e-06 244.377)
(5.64797 1.12024e-05 244.285)
(5.81281 1.13551e-05 244.313)
(5.66827 -4.69208e-07 244.312)
(5.7763 -7.8142e-06 244.336)
(5.69732 -1.34769e-05 244.314)
(5.87167 -2.19133e-05 244.309)
(5.80039 1.80089e-05 244.231)
(6.18439 -0.000147482 244.211)
(6.04001 0.000411161 243.969)
(6.92285 -0.000687765 243.883)
(6.49477 0.00198719 243.34)
(8.39761 0.00131564 240.775)
(-1.19549 -1.19925 236.553)
(8.35566 -1.2687 242.265)
(3.32861 -1.24272 244.276)
(6.66628 -1.20187 244.66)
(4.84599 -1.14103 244.912)
(5.99545 -1.13207 244.59)
(5.26802 -1.12022 244.417)
(5.66381 -1.12137 244.241)
(5.35506 -1.12054 244.223)
(5.49965 -1.12192 244.218)
(5.35592 -1.12312 244.23)
(5.44544 -1.12347 244.233)
(5.3646 -1.12618 244.191)
(5.50956 -1.1253 244.17)
(5.43843 -1.13078 244.034)
(5.75925 -1.12676 243.996)
(5.63272 -1.14002 243.681)
(6.35445 -1.12715 243.569)
(6.03237 -1.14031 243.043)
(7.45532 -1.17434 240.819)
(-1.62834 1.87143 235.411)
(7.89332 2.65344 243.963)
(2.18535 3.17895 245.104)
(5.8384 3.10355 246.515)
(3.66837 3.25397 246.11)
(4.96531 3.22077 246.132)
(4.14761 3.26044 245.794)
(4.6176 3.24332 245.778)
(4.28826 3.25331 245.704)
(4.46731 3.2457 245.746)
(4.32041 3.24586 245.743)
(4.4308 3.24246 245.762)
(4.35275 3.23565 245.751)
(4.52127 3.23471 245.738)
(4.45468 3.21787 245.697)
(4.82103 3.2222 245.647)
(4.69517 3.18353 245.551)
(5.53728 3.20066 245.401)
(5.16615 3.15313 245.225)
(7.1737 3.14361 243.283)
(-1.09127 -4.87308 235.855)
(6.22787 -4.77035 242.5)
(1.10954 -4.73312 244.331)
(3.91049 -4.77635 244.573)
(2.06564 -4.63191 244.655)
(3.13395 -4.68763 244.488)
(2.43648 -4.64307 244.438)
(2.83093 -4.66681 244.386)
(2.5466 -4.65333 244.396)
(2.69224 -4.66276 244.396)
(2.56493 -4.6616 244.399)
(2.64489 -4.66462 244.39)
(2.57835 -4.67108 244.361)
(2.6914 -4.66941 244.333)
(2.64017 -4.6853 244.252)
(2.88429 -4.67525 244.195)
(2.80607 -4.71714 244.012)
(3.36115 -4.68197 243.901)
(3.17101 -4.81927 243.393)
(4.65049 -4.85128 242.408)
(-2.6106 6.90944 219.525)
(3.15172 8.47897 226.523)
(-0.178678 8.8275 225.921)
(1.56216 8.66828 226.428)
(0.526426 8.77818 226.143)
(1.16846 8.69888 226.255)
(0.793853 8.74463 226.138)
(1.03374 8.71379 226.179)
(0.891667 8.73185 226.141)
(0.988245 8.71984 226.159)
(0.93371 8.72358 226.147)
(0.99043 8.71783 226.151)
(0.969874 8.71227 226.149)
(1.04092 8.70887 226.144)
(1.03108 8.69404 226.15)
(1.16861 8.69139 226.133)
(1.15135 8.65982 226.156)
(1.41516 8.656 226.115)
(1.36159 8.53643 226.167)
(1.43193 8.49865 226.411)
(1.50208 -9.21103 -184.9)
(0.883367 -9.15413 -184.595)
(0.809785 -9.08537 -184.228)
(0.660939 -9.06977 -184.058)
(0.606544 -9.05884 -183.987)
(0.547003 -9.05569 -183.958)
(0.512399 -9.05312 -183.942)
(0.484023 -9.05188 -183.932)
(0.466115 -9.05074 -183.924)
(0.456986 -9.04988 -183.918)
(0.450508 -9.04916 -183.912)
(0.450269 -9.04855 -183.907)
(0.447682 -9.04812 -183.903)
(0.448623 -9.04774 -183.9)
(0.446051 -9.04751 -183.896)
(0.446411 -9.04725 -183.893)
(0.444411 -9.04706 -183.89)
(0.445309 -9.0468 -183.887)
(0.444568 -9.04657 -183.884)
(0.445736 -9.0463 -183.881)
(0.445039 -9.04608 -183.877)
(0.445146 -9.04584 -183.874)
(0.44353 -9.04564 -183.871)
(0.442538 -9.04542 -183.868)
(0.440567 -9.04522 -183.864)
(0.439347 -9.04499 -183.861)
(0.437554 -9.04476 -183.858)
(0.436224 -9.04453 -183.854)
(0.434315 -9.0443 -183.851)
(0.432607 -9.04407 -183.847)
(0.43051 -9.04385 -183.843)
(0.428687 -9.04361 -183.84)
(0.426763 -9.04337 -183.836)
(0.425122 -9.04312 -183.832)
(0.423401 -9.04288 -183.828)
(0.421769 -9.04262 -183.825)
(0.419977 -9.04238 -183.821)
(0.418181 -9.04213 -183.817)
(0.416288 -9.04188 -183.813)
(0.414426 -9.04163 -183.809)
(0.412539 -9.04139 -183.805)
(0.410675 -9.04113 -183.801)
(0.40882 -9.04088 -183.796)
(0.407016 -9.04062 -183.792)
(0.40531 -9.04036 -183.788)
(0.403687 -9.04011 -183.784)
(0.402153 -9.03986 -183.78)
(0.400586 -9.0396 -183.775)
(0.399033 -9.03934 -183.771)
(0.397408 -9.03908 -183.767)
(0.395902 -9.03882 -183.762)
(0.394402 -9.03856 -183.758)
(0.393099 -9.0383 -183.753)
(0.391717 -9.03803 -183.749)
(0.390503 -9.03776 -183.744)
(0.389177 -9.03748 -183.739)
(0.388223 -9.03719 -183.735)
(0.387284 -9.03691 -183.73)
(0.386839 -9.03664 -183.725)
(0.386115 -9.03637 -183.72)
(0.385548 -9.0361 -183.715)
(0.384232 -9.03582 -183.71)
(0.383176 -9.03553 -183.705)
(0.38174 -9.03522 -183.7)
(0.381505 -9.03494 -183.695)
(0.381402 -9.03466 -183.689)
(0.382715 -9.03441 -183.684)
(0.383239 -9.03416 -183.679)
(0.384186 -9.0339 -183.673)
(0.383135 -9.03358 -183.668)
(0.382757 -9.03323 -183.662)
(0.381362 -9.03281 -183.656)
(0.383285 -9.0324 -183.649)
(0.386275 -9.03198 -183.643)
(0.394721 -9.03163 -183.636)
(0.403899 -9.03126 -183.63)
(0.417908 -9.03091 -183.622)
(0.429835 -9.03041 -183.614)
(0.445821 -9.02979 -183.604)
(0.45809 -9.02885 -183.594)
(0.47747 -9.02779 -183.582)
(0.494303 -9.02638 -183.57)
(0.525339 -9.02492 -183.555)
(0.555371 -9.02312 -183.538)
(0.606378 -9.02078 -183.514)
(0.657673 -9.01786 -183.478)
(0.723791 -9.01005 -183.388)
(0.801066 -9.00162 -183.252)
(0.853768 -8.99927 -183.074)
(1.33906 -9.0997 -184.517)
(4.0212 3.25254 -216.68)
(2.23389 3.3279 -216.613)
(2.02378 3.37084 -216.05)
(1.70582 3.37616 -215.817)
(1.59052 3.38265 -215.713)
(1.47376 3.38437 -215.676)
(1.40038 3.38631 -215.655)
(1.34488 3.38737 -215.645)
(1.3007 3.38832 -215.636)
(1.27877 3.38913 -215.63)
(1.25583 3.3897 -215.623)
(1.25068 3.39026 -215.618)
(1.23769 3.39053 -215.613)
(1.23632 3.39083 -215.609)
(1.22547 3.39091 -215.605)
(1.22306 3.39107 -215.602)
(1.21332 3.3911 -215.598)
(1.21078 3.39124 -215.594)
(1.20311 3.39129 -215.591)
(1.20075 3.39141 -215.587)
(1.19396 3.39144 -215.583)
(1.19028 3.3915 -215.579)
(1.18275 3.3915 -215.575)
(1.17733 3.39153 -215.571)
(1.16938 3.39152 -215.567)
(1.16332 3.39155 -215.563)
(1.15571 3.39155 -215.559)
(1.14945 3.39156 -215.555)
(1.14194 3.39155 -215.551)