/*--------------------------------*- C++ -*----------------------------------*\
  =========                 |
  \\      /  F ield         | OpenFOAM: The Open Source CFD Toolbox
   \\    /   O peration     | Website:  https://openfoam.org
    \\  /    A nd           | Version:  7
     \\/     M anipulation  |
\*---------------------------------------------------------------------------*/
FoamFile
{
    version     2.0;
    format      ascii;
    class       volSymmTensorField;
    location    "0.11";
    object      UPrime2Mean;
}
// * * * * * * * * * * * * * * * * * * * * * * * * * * * * * * * * * * * * * //

dimensions      [0 2 -2 0 0 0 0];

internalField   nonuniform List<symmTensor> 
1440
(
(0.119502 0.00101569 0 1.89826e-05 0 0)
(0.0548821 0.00236142 0 0.000382688 0 0)
(0.108352 0.00116888 0 0.00138395 0 0)
(0.181775 -0.000278173 0 0.00300038 0 0)
(0.247319 -0.00199552 0 0.00504118 0 0)
(0.316143 -0.00589884 0 0.00719342 0 0)
(0.400831 -0.0129638 0 0.00911404 0 0)
(0.506332 -0.0224212 0 0.0104949 0 0)
(0.632395 -0.0326236 0 0.011186 0 0)
(0.778551 -0.0420996 0 0.0111649 0 0)
(0.944906 -0.0501099 0 0.0105826 0 0)
(1.13389 -0.0566708 0 0.00966215 0 0)
(1.34521 -0.061591 0 0.00850427 0 0)
(1.57714 -0.0648827 0 0.00723693 0 0)
(1.82745 -0.0665008 0 0.0059647 0 0)
(2.094 -0.0664056 0 0.00475694 0 0)
(2.37443 -0.064582 0 0.00366492 0 0)
(2.66569 -0.061038 0 0.00272318 0 0)
(2.96411 -0.0558835 0 0.00194535 0 0)
(3.26575 -0.049432 0 0.00132969 0 0)
(3.56687 -0.0420947 0 0.000863143 0 0)
(3.86409 -0.0342785 0 0.000527025 0 0)
(4.15451 -0.0263385 0 0.000299354 0 0)
(4.43591 -0.0185721 0 0.000158024 0 0)
(4.70665 -0.0112005 0 8.28331e-05 0 0)
(4.96565 -0.00437759 0 5.64935e-05 0 0)
(5.21226 0.00179154 0 6.4502e-05 0 0)
(5.4462 0.00724847 0 9.50599e-05 0 0)
(5.66751 0.0119647 0 0.000138907 0 0)
(5.87647 0.0159329 0 0.000189004 0 0)
(6.07363 0.0191644 0 0.000240202 0 0)
(6.25963 0.021678 0 0.000288814 0 0)
(6.43532 0.0235098 0 0.000332382 0 0)
(6.60148 0.024709 0 0.000369477 0 0)
(6.75918 0.0253863 0 0.000400247 0 0)
(6.90945 0.0256439 0 0.000425174 0 0)
(7.05331 0.025552 0 0.000444435 0 0)
(7.19172 0.0251625 0 0.000457997 0 0)
(7.32561 0.0245243 0 0.000465866 0 0)
(7.45578 0.0236972 0 0.000468241 0 0)
(7.58297 0.0227388 0 0.000465498 0 0)
(7.70779 0.0217064 0 0.00045823 0 0)
(7.83073 0.02065 0 0.000447191 0 0)
(7.9522 0.0196114 0 0.000433239 0 0)
(8.0725 0.0186245 0 0.000417301 0 0)
(8.19184 0.0177102 0 0.000400276 0 0)
(8.31037 0.0168788 0 0.000382997 0 0)
(8.4282 0.0161277 0 0.00036614 0 0)
(8.54535 0.0154485 0 0.000350208 0 0)
(8.6619 0.0148278 0 0.000335535 0 0)
(8.77784 0.0142483 0 0.000322289 0 0)
(8.89324 0.0136952 0 0.000310485 0 0)
(9.00809 0.0131519 0 0.00030003 0 0)
(9.12247 0.01261 0 0.000290775 0 0)
(9.23645 0.0120655 0 0.000282536 0 0)
(9.35009 0.0115092 0 0.000275101 0 0)
(9.46349 0.0109415 0 0.000268258 0 0)
(9.57673 0.0103657 0 0.000261832 0 0)
(9.6899 0.00978742 0 0.000255677 0 0)
(9.80309 0.0092106 0 0.000249672 0 0)
(9.91636 0.00864663 0 0.000243744 0 0)
(10.0298 0.00810494 0 0.000237856 0 0)
(10.1434 0.00759348 0 0.000232004 0 0)
(10.2573 0.00711711 0 0.000226197 0 0)
(10.3714 0.00667857 0 0.000220462 0 0)
(10.4858 0.00628018 0 0.000214827 0 0)
(10.6005 0.00591986 0 0.000209324 0 0)
(10.7156 0.00560516 0 0.000203996 0 0)
(10.8309 0.00532933 0 0.000198873 0 0)
(10.9465 0.00509203 0 0.000193959 0 0)
(11.0624 0.00488363 0 0.000189271 0 0)
(11.1786 0.00470455 0 0.000184793 0 0)
(11.295 0.00455369 0 0.000180533 0 0)
(11.4117 0.00441989 0 0.000176503 0 0)
(11.5286 0.00431297 0 0.00017266 0 0)
(11.6458 0.00422642 0 0.000169012 0 0)
(11.7632 0.00415682 0 0.000165555 0 0)
(11.8808 0.00409935 0 0.000162254 0 0)
(11.9986 0.00404848 0 0.000159071 0 0)
(12.1165 0.00400247 0 0.000155979 0 0)
(12.2347 0.0039558 0 0.000152966 0 0)
(12.3529 0.00391314 0 0.000150028 0 0)
(12.4713 0.00387524 0 0.000147159 0 0)
(12.5898 0.00384491 0 0.000144345 0 0)
(12.7084 0.0038171 0 0.000141586 0 0)
(12.8271 0.00379109 0 0.000138885 0 0)
(12.9459 0.00376851 0 0.000136231 0 0)
(13.0648 0.00375032 0 0.000133616 0 0)
(13.1838 0.00373516 0 0.00013104 0 0)
(13.3029 0.00372194 0 0.000128504 0 0)
(13.422 0.00371522 0 0.000126015 0 0)
(13.5412 0.00371662 0 0.000123567 0 0)
(13.6604 0.00372536 0 0.000121157 0 0)
(13.7797 0.00374076 0 0.000118789 0 0)
(13.8991 0.00375756 0 0.000116471 0 0)
(14.0186 0.00377919 0 0.0001142 0 0)
(14.1381 0.00380421 0 0.000111969 0 0)
(14.2578 0.0038344 0 0.000109775 0 0)
(14.3776 0.00386436 0 0.000107633 0 0)
(14.4976 0.00389882 0 0.000105528 0 0)
(14.6177 0.00393563 0 0.000103494 0 0)
(14.7381 0.00397795 0 0.000101472 0 0)
(14.8587 0.00402383 0 9.95538e-05 0 0)
(14.9797 0.00406716 0 9.7619e-05 0 0)
(15.1009 0.00412461 0 9.58504e-05 0 0)
(15.2225 0.00416697 0 9.40067e-05 0 0)
(15.3444 0.00423192 0 9.24697e-05 0 0)
(15.4666 0.00426574 0 9.06782e-05 0 0)
(15.5888 0.00435687 0 8.95122e-05 0 0)
(15.7114 0.00436191 0 8.78063e-05 0 0)
(15.8335 0.00451393 0 8.72985e-05 0 0)
(15.9558 0.00447752 0 8.57335e-05 0 0)
(16.0768 0.00476778 0 8.6384e-05 0 0)
(16.1982 0.0046376 0 8.54155e-05 0 0)
(16.316 0.0052276 0 8.79147e-05 0 0)
(16.436 0.00503139 0 8.91527e-05 0 0)
(16.5455 0.0062191 0 9.39639e-05 0 0)
(16.6645 0.00649219 0 0.000106514 0 0)
(16.7507 0.00878322 0 0.000113707 0 0)
(16.8764 0.0150298 0 0.000228047 0 0)
(0.120785 0.00146789 0 3.57823e-05 0 0)
(0.0607199 0.00283782 0 0.000390243 0 0)
(0.116513 0.00323482 0 0.00123968 0 0)
(0.200071 0.00597949 0 0.00265843 0 0)
(0.290425 0.0118428 0 0.00463517 0 0)
(0.387802 0.0193525 0 0.00711914 0 0)
(0.489561 0.0269596 0 0.010017 0 0)
(0.593431 0.0339355 0 0.0131254 0 0)
(0.699219 0.0401408 0 0.0161634 0 0)
(0.806321 0.0454892 0 0.0188825 0 0)
(0.91349 0.0497216 0 0.0211531 0 0)
(1.01984 0.0523481 0 0.022956 0 0)
(1.12525 0.0528995 0 0.024286 0 0)
(1.23002 0.051156 0 0.0251267 0 0)
(1.33435 0.0471407 0 0.0254655 0 0)
(1.43874 0.0410222 0 0.0253098 0 0)
(1.54415 0.0331616 0 0.0246954 0 0)
(1.65182 0.0241497 0 0.0236871 0 0)
(1.76283 0.0146636 0 0.0223706 0 0)
(1.87807 0.00526846 0 0.0208406 0 0)
(1.99835 -0.00363031 0 0.0191855 0 0)
(2.12433 -0.0117458 0 0.0174844 0 0)
(2.25636 -0.0188888 0 0.0158003 0 0)
(2.39456 -0.0249692 0 0.0141775 0 0)
(2.53891 -0.0299847 0 0.0126471 0 0)
(2.68926 -0.0339846 0 0.0112283 0 0)
(2.84536 -0.0370403 0 0.00993091 0 0)
(3.00693 -0.0392308 0 0.00875759 0 0)
(3.17362 -0.0406381 0 0.0077055 0 0)
(3.34507 -0.0413527 0 0.00676934 0 0)
(3.52089 -0.0414703 0 0.00594206 0 0)
(3.70071 -0.0410882 0 0.00521557 0 0)
(3.88415 -0.0403029 0 0.00458091 0 0)
(4.07086 -0.0392086 0 0.00402865 0 0)
(4.26052 -0.037895 0 0.00354894 0 0)
(4.45284 -0.0364448 0 0.0031326 0 0)
(4.64754 -0.0349324 0 0.00277147 0 0)
(4.8444 -0.0334225 0 0.00245844 0 0)
(5.04322 -0.0319664 0 0.00218717 0 0)
(5.24385 -0.0306013 0 0.00195201 0 0)
(5.44617 -0.0293503 0 0.00174796 0 0)
(5.6501 -0.0282224 0 0.00157064 0 0)
(5.85556 -0.0272131 0 0.00141622 0 0)
(6.06251 -0.0263074 0 0.00128137 0 0)
(6.27092 -0.0254831 0 0.00116328 0 0)
(6.48075 -0.0247153 0 0.00105961 0 0)
(6.692 -0.0239775 0 0.000968341 0 0)
(6.90461 -0.0232459 0 0.000887832 0 0)
(7.11855 -0.0225004 0 0.000816688 0 0)
(7.33379 -0.0217271 0 0.000753749 0 0)
(7.55028 -0.0209195 0 0.000698068 0 0)
(7.76795 -0.0200771 0 0.000648805 0 0)
(7.98676 -0.0192058 0 0.000605235 0 0)
(8.20665 -0.0183142 0 0.000566659 0 0)
(8.42755 -0.0174152 0 0.000532482 0 0)
(8.6494 -0.0165219 0 0.000502179 0 0)
(8.87214 -0.0156451 0 0.000475246 0 0)
(9.09569 -0.0147932 0 0.000451201 0 0)
(9.31998 -0.0139728 0 0.000429628 0 0)
(9.54496 -0.013189 0 0.000410173 0 0)
(9.77054 -0.0124434 0 0.000392515 0 0)
(9.99666 -0.0117342 0 0.000376372 0 0)
(10.2232 -0.011059 0 0.000361502 0 0)
(10.4503 -0.0104164 0 0.000347714 0 0)
(10.6776 -0.00980408 0 0.000334858 0 0)
(10.9053 -0.00921825 0 0.00032279 0 0)
(11.1333 -0.00865473 0 0.000311381 0 0)
(11.3615 -0.00810889 0 0.000300513 0 0)
(11.59 -0.00757807 0 0.00029012 0 0)
(11.8187 -0.00705935 0 0.00028015 0 0)
(12.0476 -0.0065488 0 0.000270557 0 0)
(12.2767 -0.00604184 0 0.000261299 0 0)
(12.5059 -0.00553555 0 0.000252353 0 0)
(12.7354 -0.0050273 0 0.00024374 0 0)
(12.9649 -0.00451249 0 0.000235452 0 0)
(13.1945 -0.00398677 0 0.000227484 0 0)
(13.4243 -0.00344694 0 0.000219837 0 0)
(13.654 -0.00289386 0 0.000212534 0 0)
(13.8837 -0.00232927 0 0.000205613 0 0)
(14.1134 -0.00175282 0 0.000199079 0 0)
(14.343 -0.0011643 0 0.000192928 0 0)
(14.5725 -0.000562666 0 0.000187137 0 0)
(14.8018 5.01838e-05 0 0.000181705 0 0)
(15.0309 0.000671367 0 0.000176635 0 0)
(15.2596 0.00129788 0 0.000171926 0 0)
(15.4881 0.00192794 0 0.000167557 0 0)
(15.7162 0.00255896 0 0.000163511 0 0)
(15.944 0.00318791 0 0.000159779 0 0)
(16.1712 0.00381212 0 0.000156354 0 0)
(16.3981 0.00442899 0 0.000153218 0 0)
(16.6244 0.00503773 0 0.000150346 0 0)
(16.8502 0.00563573 0 0.000147712 0 0)
(17.0756 0.00622104 0 0.000145315 0 0)
(17.3003 0.00679175 0 0.000143127 0 0)
(17.5245 0.00734646 0 0.000141146 0 0)
(17.7481 0.0078826 0 0.000139323 0 0)
(17.9712 0.00839953 0 0.000137675 0 0)
(18.1937 0.00889349 0 0.000136153 0 0)
(18.4157 0.00936822 0 0.000134787 0 0)
(18.6373 0.00981925 0 0.000133491 0 0)
(18.8583 0.010255 0 0.000132321 0 0)
(19.079 0.0106636 0 0.000131175 0 0)
(19.2993 0.0110623 0 0.000130176 0 0)
(19.5192 0.0114286 0 0.000129153 0 0)
(19.7388 0.0117989 0 0.000128306 0 0)
(19.9582 0.0121274 0 0.000127379 0 0)
(20.177 0.0124814 0 0.000126724 0 0)
(20.396 0.012779 0 0.000125979 0 0)
(20.6137 0.0131478 0 0.000125596 0 0)
(20.8323 0.0134447 0 0.000125254 0 0)
(21.0478 0.0138812 0 0.000125268 0 0)
(21.2661 0.0142537 0 0.000126021 0 0)
(21.4772 0.0148382 0 0.000126576 0 0)
(21.6964 0.0155268 0 0.000130313 0 0)
(21.898 0.0163434 0 0.00013135 0 0)
(22.1218 0.0181082 0 0.000143835 0 0)
(22.3027 0.0191185 0 0.000144553 0 0)
(22.5424 0.0246416 0 0.000189402 0 0)
(22.6749 0.0253766 0 0.00018615 0 0)
(22.9878 0.0439183 0 0.000392868 0 0)
(0.120701 0.000974878 0 1.79528e-05 0 0)
(0.059969 0.00196187 0 0.000197754 0 0)
(0.115288 0.00217243 0 0.000628322 0 0)
(0.197105 0.00389489 0 0.00134887 0 0)
(0.284094 0.0077686 0 0.00236367 0 0)
(0.378337 0.0129371 0 0.00365992 0 0)
(0.479494 0.0185557 0 0.0052015 0 0)
(0.586913 0.0243785 0 0.00690905 0 0)
(0.701659 0.0305087 0 0.00866494 0 0)
(0.824459 0.0369855 0 0.0103467 0 0)
(0.95498 0.0435826 0 0.0118634 0 0)
(1.09242 0.0498279 0 0.0131667 0 0)
(1.23601 0.0551926 0 0.0142251 0 0)
(1.38478 0.0592846 0 0.0150047 0 0)
(1.53718 0.0618841 0 0.015478 0 0)
(1.6917 0.0629007 0 0.0156315 0 0)
(1.84731 0.0624222 0 0.0154733 0 0)
(2.00326 0.0607411 0 0.015039 0 0)
(2.15878 0.0582266 0 0.0143846 0 0)
(2.31325 0.0551949 0 0.0135721 0 0)
(2.46647 0.0518823 0 0.0126605 0 0)
(2.61856 0.0484836 0 0.0117011 0 0)
(2.76971 0.0451612 0 0.0107357 0 0)
(2.92005 0.042032 0 0.00979522 0 0)
(3.06975 0.039163 0 0.00890124 0 0)
(3.21901 0.0365961 0 0.00806748 0 0)
(3.36806 0.0343636 0 0.00730112 0 0)
(3.5171 0.0324842 0 0.00660509 0 0)
(3.6663 0.0309579 0 0.00597911 0 0)
(3.81582 0.0297667 0 0.00542065 0 0)
(3.9658 0.0288763 0 0.00492577 0 0)
(4.11636 0.0282396 0 0.00448952 0 0)
(4.26759 0.0278009 0 0.00410635 0 0)
(4.41954 0.0275001 0 0.00377049 0 0)
(4.57226 0.0272817 0 0.00347721 0 0)
(4.72576 0.0270964 0 0.00322186 0 0)
(4.88005 0.0269028 0 0.00299971 0 0)
(5.03512 0.02667 0 0.00280617 0 0)
(5.19095 0.0263777 0 0.00263708 0 0)
(5.34753 0.0260174 0 0.00248893 0 0)
(5.50484 0.0255913 0 0.00235869 0 0)
(5.66288 0.025109 0 0.00224379 0 0)
(5.82164 0.0245861 0 0.00214199 0 0)
(5.98114 0.0240417 0 0.00205139 0 0)
(6.14139 0.0234963 0 0.00197045 0 0)
(6.30241 0.0229696 0 0.00189786 0 0)
(6.46422 0.0224785 0 0.00183253 0 0)
(6.62686 0.0220352 0 0.00177347 0 0)
(6.79034 0.0216463 0 0.00171984 0 0)
(6.95471 0.0213133 0 0.00167093 0 0)
(7.11997 0.0210314 0 0.0016261 0 0)
(7.28614 0.0207916 0 0.00158478 0 0)
(7.45324 0.020581 0 0.00154638 0 0)
(7.62126 0.0203852 0 0.00151039 0 0)
(7.79021 0.0201897 0 0.00147637 0 0)
(7.96009 0.0199834 0 0.00144391 0 0)
(8.1309 0.0197576 0 0.00141265 0 0)
(8.30263 0.0195074 0 0.00138226 0 0)
(8.47527 0.019232 0 0.00135251 0 0)
(8.64884 0.0189339 0 0.00132324 0 0)
(8.82333 0.0186168 0 0.00129439 0 0)
(8.99873 0.018284 0 0.00126587 0 0)
(9.17506 0.0179401 0 0.00123758 0 0)
(9.35231 0.0175889 0 0.00120945 0 0)
(9.53047 0.0172331 0 0.00118145 0 0)
(9.70956 0.0168739 0 0.00115352 0 0)
(9.88955 0.0165102 0 0.00112558 0 0)
(10.0705 0.0161403 0 0.0010976 0 0)
(10.2523 0.0157639 0 0.00106953 0 0)
(10.435 0.0153811 0 0.00104136 0 0)
(10.6186 0.0149919 0 0.00101306 0 0)
(10.8031 0.0145965 0 0.000984609 0 0)
(10.9885 0.014197 0 0.000956044 0 0)
(11.1748 0.0137967 0 0.00092742 0 0)
(11.3619 0.0133983 0 0.000898825 0 0)
(11.5499 0.0130059 0 0.000870312 0 0)
(11.7388 0.0126232 0 0.000841942 0 0)
(11.9285 0.012255 0 0.000813793 0 0)
(12.1191 0.0119052 0 0.000785944 0 0)
(12.3105 0.011578 0 0.000758467 0 0)
(12.5028 0.0112767 0 0.000731402 0 0)
(12.6958 0.0110036 0 0.000704828 0 0)
(12.8897 0.0107596 0 0.000678828 0 0)
(13.0843 0.0105455 0 0.000653486 0 0)
(13.2797 0.010362 0 0.000628832 0 0)
(13.4758 0.0102094 0 0.000604871 0 0)
(13.6726 0.0100866 0 0.000581652 0 0)
(13.8701 0.00999284 0 0.000559203 0 0)
(14.0682 0.00992626 0 0.000537571 0 0)
(14.2669 0.00988519 0 0.000516734 0 0)
(14.4662 0.00986642 0 0.00049671 0 0)
(14.666 0.00986825 0 0.000477486 0 0)
(14.8663 0.0098877 0 0.000459094 0 0)
(15.067 0.00992278 0 0.000441511 0 0)
(15.2682 0.00997005 0 0.000424709 0 0)
(15.4698 0.0100277 0 0.000408658 0 0)
(15.6718 0.010093 0 0.000393376 0 0)
(15.8742 0.0101638 0 0.000378817 0 0)
(16.0769 0.010238 0 0.000364996 0 0)
(16.2799 0.0103128 0 0.000351802 0 0)
(16.4833 0.0103874 0 0.000339309 0 0)
(16.6871 0.0104593 0 0.000327375 0 0)
(16.8912 0.0105302 0 0.000316135 0 0)
(17.0958 0.0105954 0 0.000305348 0 0)
(17.3005 0.0106601 0 0.00029526 0 0)
(17.5059 0.0107184 0 0.00028552 0 0)
(17.7112 0.0107814 0 0.000276566 0 0)
(17.9175 0.0108446 0 0.000267834 0 0)
(18.1229 0.0109209 0 0.000259983 0 0)
(18.33 0.0110242 0 0.000252292 0 0)
(18.5344 0.0111434 0 0.000245609 0 0)
(18.7428 0.0113801 0 0.000239407 0 0)
(18.9439 0.0115915 0 0.000234131 0 0)
(19.1551 0.0122115 0 0.000230795 0 0)
(19.3482 0.0125925 0 0.000227396 0 0)
(19.5668 0.0142865 0 0.000231799 0 0)
(19.7426 0.0149555 0 0.000231485 0 0)
(19.9813 0.0196483 0 0.000264615 0 0)
(20.1172 0.0205559 0 0.000267424 0 0)
(20.4414 0.0324318 0 0.000417657 0 0)
(0.120695 0.000654864 0 8.74044e-06 0 0)
(0.0599114 0.00134188 0 9.41114e-05 0 0)
(0.115187 0.00149299 0 0.000295937 0 0)
(0.196653 0.00266386 0 0.000634214 0 0)
(0.28278 0.00527738 0 0.00111094 0 0)
(0.375611 0.00871439 0 0.00171273 0 0)
(0.474781 0.012373 0 0.00241462 0 0)
(0.579581 0.0160813 0 0.00317879 0 0)
(0.691037 0.0199229 0 0.00395546 0 0)
(0.809921 0.0239362 0 0.00469302 0 0)
(0.936045 0.0279925 0 0.00535101 0 0)
(1.06895 0.0318387 0 0.00590608 0 0)
(1.20846 0.0352244 0 0.00634696 0 0)
(1.3542 0.0379976 0 0.00666661 0 0)
(1.50508 0.0400925 0 0.00686116 0 0)
(1.65989 0.0414777 0 0.00693173 0 0)
(1.81786 0.0421704 0 0.00688722 0 0)
(1.9784 0.0422673 0 0.00674389 0 0)
(2.14068 0.0419109 0 0.00652293 0 0)
(2.30381 0.0412253 0 0.0062453 0 0)
(2.46736 0.0403113 0 0.00593016 0 0)
(2.63122 0.0392696 0 0.00559395 0 0)
(2.79534 0.038198 0 0.00525088 0 0)
(2.95962 0.0371682 0 0.0049119 0 0)
(3.12398 0.0362258 0 0.00458432 0 0)
(3.28849 0.0354011 0 0.00427245 0 0)
(3.45321 0.0347148 0 0.00397903 0 0)
(3.61823 0.034176 0 0.00370573 0 0)
(3.78364 0.033783 0 0.00345354 0 0)
(3.94952 0.0335244 0 0.00322248 0 0)
(4.116 0.033383 0 0.00301195 0 0)
(4.28318 0.0333356 0 0.00282086 0 0)
(4.45115 0.0333563 0 0.00264804 0 0)
(4.62 0.0334192 0 0.00249221 0 0)
(4.78978 0.0335012 0 0.0023523 0 0)
(4.96054 0.0335819 0 0.00222701 0 0)
(5.13229 0.0336439 0 0.00211492 0 0)
(5.30506 0.033674 0 0.00201449 0 0)
(5.47883 0.0336646 0 0.00192434 0 0)
(5.65359 0.0336133 0 0.00184322 0 0)
(5.82931 0.0335235 0 0.00177008 0 0)
(6.00597 0.0334026 0 0.00170399 0 0)
(6.18356 0.0332618 0 0.00164424 0 0)
(6.36205 0.0331137 0 0.00159017 0 0)
(6.54144 0.0329714 0 0.00154122 0 0)
(6.72172 0.0328469 0 0.00149685 0 0)
(6.90289 0.0327503 0 0.00145661 0 0)
(7.08495 0.032689 0 0.00142004 0 0)
(7.26791 0.0326672 0 0.00138678 0 0)
(7.45176 0.0326838 0 0.00135644 0 0)
(7.63649 0.032735 0 0.00132867 0 0)
(7.82209 0.0328138 0 0.0013031 0 0)
(8.00854 0.0329124 0 0.00127946 0 0)
(8.19582 0.033022 0 0.00125742 0 0)
(8.38389 0.0331346 0 0.00123673 0 0)
(8.57271 0.0332423 0 0.00121714 0 0)
(8.76223 0.0333394 0 0.0011985 0 0)
(8.95241 0.0334222 0 0.00118061 0 0)
(9.1432 0.0334891 0 0.00116339 0 0)
(9.33454 0.0335391 0 0.0011467 0 0)
(9.52639 0.0335726 0 0.00113049 0 0)
(9.71871 0.0335899 0 0.00111465 0 0)
(9.91146 0.033592 0 0.00109916 0 0)
(10.1046 0.0335786 0 0.0010839 0 0)
(10.2981 0.0335496 0 0.00106883 0 0)
(10.4919 0.033504 0 0.00105387 0 0)
(10.686 0.0334414 0 0.00103898 0 0)
(10.8803 0.0333606 0 0.00102409 0 0)
(11.0748 0.0332614 0 0.00100915 0 0)
(11.2695 0.0331437 0 0.000994084 0 0)
(11.4644 0.0330089 0 0.000978902 0 0)
(11.6594 0.0328577 0 0.000963572 0 0)
(11.8544 0.0326929 0 0.000948118 0 0)
(12.0496 0.0325159 0 0.000932499 0 0)
(12.2448 0.0323302 0 0.00091677 0 0)
(12.44 0.0321383 0 0.000900938 0 0)
(12.6353 0.0319439 0 0.00088509 0 0)
(12.8305 0.0317496 0 0.000869202 0 0)
(13.0258 0.0315588 0 0.000853314 0 0)
(13.2211 0.0313735 0 0.000837424 0 0)
(13.4164 0.0311965 0 0.000821636 0 0)
(13.6116 0.031029 0 0.000805971 0 0)
(13.8069 0.0308725 0 0.000790507 0 0)
(14.0022 0.0307273 0 0.000775211 0 0)
(14.1975 0.0305951 0 0.000760156 0 0)
(14.3927 0.0304755 0 0.000745337 0 0)
(14.588 0.0303687 0 0.000730835 0 0)
(14.7832 0.0302728 0 0.000716604 0 0)
(14.9784 0.0301879 0 0.000702707 0 0)
(15.1736 0.0301119 0 0.0006891 0 0)
(15.3687 0.0300453 0 0.000675861 0 0)
(15.5638 0.0299848 0 0.000662931 0 0)
(15.7588 0.0299298 0 0.000650376 0 0)
(15.9538 0.0298776 0 0.000638121 0 0)
(16.1486 0.0298284 0 0.000626251 0 0)
(16.3434 0.029779 0 0.000614682 0 0)
(16.5381 0.0297291 0 0.000603496 0 0)
(16.7327 0.029675 0 0.000592576 0 0)
(16.9271 0.0296178 0 0.00058205 0 0)
(17.1215 0.0295535 0 0.000571753 0 0)
(17.3158 0.0294848 0 0.000561885 0 0)
(17.5101 0.0294053 0 0.000552167 0 0)
(17.7043 0.0293207 0 0.000542942 0 0)
(17.8985 0.029222 0 0.000533737 0 0)
(18.0926 0.0291217 0 0.000525187 0 0)
(18.2868 0.0290039 0 0.000516404 0 0)
(18.4807 0.0288928 0 0.00050858 0 0)
(18.6749 0.0287606 0 0.000500064 0 0)
(18.8682 0.0286525 0 0.000493153 0 0)
(19.0624 0.0285238 0 0.000484714 0 0)
(19.2542 0.0284501 0 0.000479114 0 0)
(19.4486 0.0283762 0 0.000470406 0 0)
(19.637 0.0284025 0 0.000466931 0 0)
(19.8328 0.0285278 0 0.000457751 0 0)
(20.0142 0.0287866 0 0.000457905 0 0)
(20.2152 0.0294878 0 0.00044938 0 0)
(20.3827 0.0301838 0 0.000455616 0 0)
(20.5987 0.0323142 0 0.000456257 0 0)
(20.7349 0.0333588 0 0.000469578 0 0)
(21.028 0.0381745 0 0.000515236 0 0)
(0.120693 0.000378235 0 3.04585e-06 0 0)
(0.0598781 0.000782781 0 3.25057e-05 0 0)
(0.115132 0.000873143 0 0.000101839 0 0)
(0.196419 0.00155216 0 0.00021828 0 0)
(0.282127 0.003065 0 0.000382673 0 0)
(0.374347 0.0050464 0 0.0005899 0 0)
(0.472747 0.00714787 0 0.000830924 0 0)
(0.576568 0.00927094 0 0.00109334 0 0)
(0.686738 0.0114576 0 0.00136176 0 0)
(0.803983 0.0137271 0 0.00161988 0 0)
(0.928124 0.0160265 0 0.0018542 0 0)
(1.05871 0.0182395 0 0.00205625 0 0)
(1.1956 0.0202236 0 0.00222211 0 0)
(1.33849 0.0218664 0 0.00235005 0 0)
(1.48638 0.0231061 0 0.00243903 0 0)
(1.63817 0.0239101 0 0.00248878 0 0)
(1.79329 0.024272 0 0.00250036 0 0)
(1.95133 0.0242349 0 0.00247641 0 0)
(2.11154 0.0238883 0 0.00242132 0 0)
(2.27308 0.023328 0 0.00234046 0 0)
(2.43544 0.022634 0 0.00223956 0 0)
(2.5985 0.0218761 0 0.00212437 0 0)
(2.76214 0.0211153 0 0.00200055 0 0)
(2.92617 0.0203965 0 0.0018728 0 0)
(3.0905 0.0197478 0 0.00174464 0 0)
(3.25514 0.0191849 0 0.00161878 0 0)
(3.42015 0.0187171 0 0.0014973 0 0)
(3.58561 0.0183494 0 0.00138177 0 0)
(3.75161 0.0180817 0 0.00127335 0 0)
(3.91824 0.0179085 0 0.00117279 0 0)
(4.0856 0.0178198 0 0.00108053 0 0)
(4.25382 0.0178011 0 0.000996568 0 0)
(4.42299 0.0178349 0 0.00092073 0 0)
(4.59318 0.0179025 0 0.000852642 0 0)
(4.76448 0.0179863 0 0.000791785 0 0)
(4.93692 0.01807 0 0.000737572 0 0)
(5.11055 0.0181393 0 0.00068935 0 0)
(5.28539 0.0181831 0 0.000646471 0 0)
(5.46143 0.0181945 0 0.000608327 0 0)
(5.63866 0.0181708 0 0.000574364 0 0)
(5.81709 0.0181139 0 0.000544115 0 0)
(5.99668 0.0180293 0 0.000517159 0 0)
(6.17742 0.0179253 0 0.000493144 0 0)
(6.35929 0.0178119 0 0.000471759 0 0)
(6.54229 0.0176994 0 0.00045272 0 0)
(6.72641 0.0175977 0 0.000435762 0 0)
(6.91165 0.0175154 0 0.000420651 0 0)
(7.098 0.0174595 0 0.000407163 0 0)
(7.28547 0.0174343 0 0.000395107 0 0)
(7.47406 0.0174414 0 0.000384302 0 0)
(7.66377 0.0174801 0 0.000374591 0 0)
(7.85459 0.0175482 0 0.000365831 0 0)
(8.0465 0.0176415 0 0.000357904 0 0)
(8.23949 0.0177552 0 0.000350708 0 0)
(8.43351 0.0178834 0 0.000344152 0 0)
(8.62855 0.0180202 0 0.000338149 0 0)
(8.82455 0.0181607 0 0.000332618 0 0)
(9.02147 0.0183008 0 0.0003275 0 0)
(9.21926 0.0184375 0 0.000322739 0 0)
(9.41788 0.0185684 0 0.000318287 0 0)
(9.61728 0.018692 0 0.000314096 0 0)
(9.81741 0.0188084 0 0.000310125 0 0)
(10.0182 0.0189172 0 0.000306341 0 0)
(10.2197 0.0190182 0 0.000302717 0 0)
(10.4219 0.019111 0 0.000299218 0 0)
(10.6246 0.0191953 0 0.00029581 0 0)
(10.8278 0.0192711 0 0.000292468 0 0)
(11.0316 0.0193379 0 0.000289165 0 0)
(11.2359 0.0193951 0 0.00028588 0 0)
(11.4406 0.0194424 0 0.000282581 0 0)
(11.6457 0.0194799 0 0.000279251 0 0)
(11.8513 0.0195082 0 0.000275881 0 0)
(12.0572 0.0195277 0 0.000272461 0 0)
(12.2635 0.019539 0 0.000268988 0 0)
(12.4701 0.0195431 0 0.000265453 0 0)
(12.677 0.0195415 0 0.000261864 0 0)
(12.8842 0.0195358 0 0.000258229 0 0)
(13.0917 0.0195276 0 0.000254555 0 0)
(13.2995 0.0195185 0 0.000250843 0 0)
(13.5075 0.01951 0 0.000247111 0 0)
(13.7157 0.0195036 0 0.000243379 0 0)
(13.9242 0.0195004 0 0.000239665 0 0)
(14.133 0.0195019 0 0.000235979 0 0)
(14.3419 0.019509 0 0.000232324 0 0)
(14.5511 0.0195225 0 0.000228714 0 0)
(14.7606 0.0195431 0 0.000225167 0 0)
(14.9702 0.0195708 0 0.000221692 0 0)
(15.1801 0.0196057 0 0.000218292 0 0)
(15.3902 0.0196479 0 0.000214963 0 0)
(15.6005 0.0196976 0 0.000211717 0 0)
(15.8109 0.0197542 0 0.000208565 0 0)
(16.0216 0.0198171 0 0.000205515 0 0)
(16.2323 0.0198853 0 0.000202563 0 0)
(16.4433 0.0199581 0 0.000199705 0 0)
(16.6543 0.0200355 0 0.000196954 0 0)
(16.8655 0.0201161 0 0.000194303 0 0)
(17.0768 0.0201993 0 0.000191769 0 0)
(17.2882 0.0202833 0 0.000189329 0 0)
(17.4997 0.020368 0 0.000187009 0 0)
(17.7113 0.0204517 0 0.000184773 0 0)
(17.923 0.0205354 0 0.000182675 0 0)
(18.1348 0.0206151 0 0.000180639 0 0)
(18.3468 0.0206946 0 0.000178773 0 0)
(18.559 0.0207671 0 0.000176918 0 0)
(18.7712 0.020842 0 0.000175297 0 0)
(18.9837 0.0209062 0 0.000173586 0 0)
(19.1959 0.0209791 0 0.000172242 0 0)
(19.4088 0.0210357 0 0.00017062 0 0)
(19.6207 0.0211153 0 0.000169645 0 0)
(19.834 0.0211728 0 0.000168032 0 0)
(20.0445 0.0212806 0 0.000167605 0 0)
(20.2585 0.0213677 0 0.000165848 0 0)
(20.4656 0.0215533 0 0.000166301 0 0)
(20.6819 0.021755 0 0.000164281 0 0)
(20.8815 0.0221192 0 0.00016627 0 0)
(21.1048 0.0226396 0 0.000164413 0 0)
(21.2888 0.0233097 0 0.000169065 0 0)
(21.5307 0.0245139 0 0.000170409 0 0)
(21.6785 0.0253409 0 0.000177939 0 0)
(22.0059 0.027622 0 0.000192246 0 0)
(0.120691 0.000117922 0 3.07578e-07 0 0)
(0.059861 0.000247827 0 3.30336e-06 0 0)
(0.115102 0.000275248 0 1.04075e-05 0 0)
(0.196301 0.000488007 0 2.24065e-05 0 0)
(0.281807 0.00095966 0 3.94079e-05 0 0)
(0.373736 0.00157119 0 6.0877e-05 0 0)
(0.471774 0.00221569 0 8.58663e-05 0 0)
(0.575126 0.00286057 0 0.000113162 0 0)
(0.684697 0.00351142 0 0.000141296 0 0)
(0.801232 0.00417281 0 0.000168728 0 0)
(0.924555 0.00483402 0 0.000194071 0 0)
(1.05417 0.00545738 0 0.000216443 0 0)
(1.18992 0.00598423 0 0.000235396 0 0)
(1.3316 0.00636895 0 0.000250803 0 0)
(1.47828 0.00659717 0 0.000262511 0 0)
(1.62893 0.00667301 0 0.000270438 0 0)
(1.78302 0.00660828 0 0.00027445 0 0)
(1.94023 0.00643246 0 0.000274601 0 0)
(2.09984 0.00619107 0 0.000271047 0 0)
(2.26093 0.00592921 0 0.000264239 0 0)
(2.42299 0.00567713 0 0.00025473 0 0)
(2.58584 0.00545351 0 0.000243224 0 0)
(2.74932 0.00527155 0 0.000230361 0 0)
(2.91325 0.00514163 0 0.000216747 0 0)
(3.0775 0.00506831 0 0.000202881 0 0)
(3.24206 0.00505395 0 0.000189149 0 0)
(3.40701 0.00509782 0 0.000175824 0 0)
(3.57239 0.00519651 0 0.000163128 0 0)
(3.7383 0.0053432 0 0.000151195 0 0)
(3.90481 0.00552809 0 0.000140148 0 0)
(4.07202 0.0057385 0 0.00013005 0 0)
(4.24005 0.00596011 0 0.000120919 0 0)
(4.40898 0.00617732 0 0.000112719 0 0)
(4.57889 0.00637551 0 0.000105393 0 0)
(4.74987 0.0065413 0 9.88621e-05 0 0)
(4.92197 0.00666408 0 9.30599e-05 0 0)
(5.09524 0.00673584 0 8.79171e-05 0 0)
(5.26971 0.00675201 0 8.33773e-05 0 0)
(5.44538 0.00671146 0 7.93792e-05 0 0)
(5.62226 0.00661702 0 7.58698e-05 0 0)
(5.80035 0.00647459 0 7.2795e-05 0 0)
(5.97961 0.00629292 0 7.01103e-05 0 0)
(6.16005 0.00608245 0 6.77701e-05 0 0)
(6.34164 0.00585479 0 6.57374e-05 0 0)
(6.52437 0.0056214 0 6.39707e-05 0 0)
(6.70824 0.00539333 0 6.24366e-05 0 0)
(6.89322 0.00518016 0 6.10959e-05 0 0)
(7.07932 0.00498984 0 5.99152e-05 0 0)
(7.26653 0.00482846 0 5.88614e-05 0 0)
(7.45484 0.00470031 0 5.79107e-05 0 0)
(7.64425 0.00460752 0 5.70402e-05 0 0)
(7.83475 0.00455071 0 5.6235e-05 0 0)
(8.02631 0.00452847 0 5.54836e-05 0 0)
(8.21892 0.0045385 0 5.47798e-05 0 0)
(8.41254 0.00457729 0 5.41165e-05 0 0)
(8.60714 0.00464116 0 5.34892e-05 0 0)
(8.80269 0.00472624 0 5.28929e-05 0 0)
(8.99914 0.00482918 0 5.23257e-05 0 0)
(9.19644 0.00494696 0 5.17825e-05 0 0)
(9.39457 0.00507723 0 5.12607e-05 0 0)
(9.59346 0.00521782 0 5.07558e-05 0 0)
(9.79309 0.00536698 0 5.02683e-05 0 0)
(9.99342 0.00552303 0 4.97947e-05 0 0)
(10.1944 0.00568441 0 4.93345e-05 0 0)
(10.396 0.0058493 0 4.8883e-05 0 0)
(10.5983 0.00601598 0 4.84396e-05 0 0)
(10.8011 0.00618269 0 4.79994e-05 0 0)
(11.0044 0.00634763 0 4.756e-05 0 0)
(11.2082 0.00650875 0 4.71161e-05 0 0)
(11.4126 0.00666405 0 4.66662e-05 0 0)
(11.6174 0.00681181 0 4.62061e-05 0 0)
(11.8226 0.00695091 0 4.57345e-05 0 0)
(12.0283 0.00708032 0 4.52473e-05 0 0)
(12.2344 0.00719953 0 4.47432e-05 0 0)
(12.4408 0.00730778 0 4.4221e-05 0 0)
(12.6476 0.00740503 0 4.36821e-05 0 0)
(12.8548 0.00749157 0 4.31259e-05 0 0)
(13.0623 0.00756806 0 4.25545e-05 0 0)
(13.2702 0.00763515 0 4.19695e-05 0 0)
(13.4784 0.00769375 0 4.13738e-05 0 0)
(13.6869 0.00774502 0 4.0769e-05 0 0)
(13.8957 0.00779026 0 4.01594e-05 0 0)
(14.1049 0.00783056 0 3.95469e-05 0 0)
(14.3144 0.00786691 0 3.89365e-05 0 0)
(14.5242 0.00790028 0 3.83295e-05 0 0)
(14.7343 0.00793195 0 3.7729e-05 0 0)
(14.9447 0.00796295 0 3.71345e-05 0 0)
(15.1554 0.00799423 0 3.65489e-05 0 0)
(15.3663 0.00802631 0 3.59735e-05 0 0)
(15.5776 0.00805989 0 3.54112e-05 0 0)
(15.7891 0.00809547 0 3.48621e-05 0 0)
(16.0009 0.00813367 0 3.43268e-05 0 0)
(16.2129 0.00817457 0 3.38044e-05 0 0)
(16.4251 0.00821814 0 3.32973e-05 0 0)
(16.6376 0.00826442 0 3.28066e-05 0 0)
(16.8502 0.00831324 0 3.23326e-05 0 0)
(17.063 0.00836453 0 3.18757e-05 0 0)
(17.2761 0.00841786 0 3.14343e-05 0 0)
(17.4893 0.00847321 0 3.10116e-05 0 0)
(17.7027 0.00852967 0 3.06057e-05 0 0)
(17.9163 0.00858713 0 3.02227e-05 0 0)
(18.1301 0.00864428 0 2.98543e-05 0 0)
(18.3441 0.00870185 0 2.95127e-05 0 0)
(18.5584 0.00875807 0 2.91806e-05 0 0)
(18.7728 0.00881519 0 2.8885e-05 0 0)
(18.9877 0.00886913 0 2.85881e-05 0 0)
(19.2023 0.00892446 0 2.83463e-05 0 0)
(19.4177 0.0089742 0 2.80815e-05 0 0)
(19.6322 0.00902827 0 2.79074e-05 0 0)
(19.8482 0.00907511 0 2.76661e-05 0 0)
(20.0614 0.00913325 0 2.75826e-05 0 0)
(20.2784 0.00918528 0 2.73448e-05 0 0)
(20.4883 0.00926178 0 2.73967e-05 0 0)
(20.7081 0.00934474 0 2.71336e-05 0 0)
(20.9105 0.0094715 0 2.7402e-05 0 0)
(21.1379 0.00964537 0 2.70951e-05 0 0)
(21.3246 0.00985983 0 2.77043e-05 0 0)
(21.5714 0.0102101 0 2.74708e-05 0 0)
(21.7209 0.0104526 0 2.8378e-05 0 0)
(22.0547 0.0110458 0 2.85323e-05 0 0)
(0.120691 -0.000137909 0 4.16145e-07 0 0)
(0.0598604 -0.000279747 0 4.2669e-06 0 0)
(0.115099 -0.000315355 0 1.30653e-05 0 0)
(0.196296 -0.000559734 0 2.76134e-05 0 0)
(0.281796 -0.00110703 0 4.80199e-05 0 0)
(0.373715 -0.00183524 0 7.36841e-05 0 0)
(0.471738 -0.00262048 0 0.000103514 0 0)
(0.575074 -0.00342786 0 0.000136168 0 0)
(0.684627 -0.00427716 0 0.000169926 0 0)
(0.801142 -0.00518699 0 0.000202994 0 0)
(0.924442 -0.00614971 0 0.000233765 0 0)
(1.05403 -0.00712359 0 0.000261197 0 0)
(1.18977 -0.00804626 0 0.000284618 0 0)
(1.33143 -0.00886853 0 0.000303566 0 0)
(1.47812 -0.00956597 0 0.000317551 0 0)
(1.62879 -0.0101222 0 0.0003263 0 0)
(1.78292 -0.0105201 0 0.000329636 0 0)
(1.94018 -0.0107571 0 0.000327767 0 0)
(2.09987 -0.0108493 0 0.000321229 0 0)
(2.26106 -0.0108164 0 0.000310883 0 0)
(2.42322 -0.0106707 0 0.000297574 0 0)
(2.58616 -0.0104244 0 0.000282226 0 0)
(2.74973 -0.0100932 0 0.000265693 0 0)
(2.91372 -0.00969652 0 0.000248718 0 0)
(3.07802 -0.00925268 0 0.000231868 0 0)
(3.24262 -0.00877978 0 0.000215579 0 0)
(3.40758 -0.00829671 0 0.000200114 0 0)
(3.57296 -0.00782239 0 0.000185669 0 0)
(3.73883 -0.00737522 0 0.00017232 0 0)
(3.90528 -0.00697124 0 0.000160137 0 0)
(4.07242 -0.00662345 0 0.000149139 0 0)
(4.24035 -0.00634048 0 0.000139332 0 0)
(4.40917 -0.0061278 0 0.000130665 0 0)
(4.57897 -0.00598774 0 0.000123081 0 0)
(4.74982 -0.00591954 0 0.0001165 0 0)
(4.92179 -0.00592044 0 0.000110845 0 0)
(5.09494 -0.00598552 0 0.000106031 0 0)
(5.26928 -0.00610857 0 0.000101979 0 0)
(5.44484 -0.00628167 0 9.86088e-05 0 0)
(5.62163 -0.00649605 0 9.58507e-05 0 0)
(5.79963 -0.00674197 0 9.36344e-05 0 0)
(5.97884 -0.00700974 0 9.18959e-05 0 0)
(6.15924 -0.00728993 0 9.05696e-05 0 0)
(6.34082 -0.00757412 0 8.95975e-05 0 0)
(6.52355 -0.00785491 0 8.89222e-05 0 0)
(6.70744 -0.00812632 0 8.84938e-05 0 0)
(6.89246 -0.00838342 0 8.82645e-05 0 0)
(7.07861 -0.00862267 0 8.81954e-05 0 0)
(7.26588 -0.00884103 0 8.82468e-05 0 0)