/*--------------------------------*- C++ -*----------------------------------*\
  =========                 |
  \\      /  F ield         | OpenFOAM: The Open Source CFD Toolbox
   \\    /   O peration     | Website:  https://openfoam.org
    \\  /    A nd           | Version:  7
     \\/     M anipulation  |
\*---------------------------------------------------------------------------*/
FoamFile
{
    version     2.0;
    format      ascii;
    class       volScalarField;
    location    "0.785";
    object      pPrime2Mean;
}
// * * * * * * * * * * * * * * * * * * * * * * * * * * * * * * * * * * * * * //

dimensions      [2 -2 -4 0 0 0 0];

internalField   nonuniform List<scalar> 
2400
(
1.42926
1.42127
1.41628
1.41128
1.40641
1.40173
1.39728
1.39316
1.3888
1.385
1.38114
1.37708
1.37333
1.36955
1.36585
1.36211
1.35859
1.35488
1.35137
1.34787
1.34434
1.34105
1.33739
1.33373
1.33036
1.32664
1.32316
1.3196
1.31634
1.31265
1.30915
1.30572
1.30216
1.29865
1.29542
1.29166
1.28826
1.28494
1.28134
1.278
1.27454
1.27109
1.26748
1.26399
1.26071
1.25692
1.25334
1.25001
1.24652
1.24287
1.23956
1.23611
1.23257
1.22905
1.22543
1.2219
1.21847
1.21485
1.21132
1.20787
1.20433
1.20099
1.1974
1.1937
1.19013
1.18663
1.18314
1.17955
1.17594
1.17234
1.16903
1.16554
1.16174
1.15844
1.15471
1.15096
1.14766
1.14404
1.14031
1.1369
1.13317
1.12988
1.12637
1.12264
1.11906
1.11536
1.11193
1.10829
1.10481
1.1009
1.09768
1.09404
1.09045
1.08684
1.08332
1.07977
1.07606
1.07269
1.069
1.06568
1.06199
1.05841
1.05474
1.05129
1.04785
1.04425
1.04091
1.03724
1.03376
1.03028
1.02675
1.02333
1.01982
1.01644
1.01298
1.00953
1.00597
1.00276
0.999409
0.996208
1.42958
1.42155
1.41618
1.41127
1.40647
1.40178
1.39736
1.39295
1.38904
1.38499
1.38099
1.37714
1.3732
1.36963
1.36601
1.36201
1.3587
1.35505
1.35141
1.34781
1.3443
1.34067
1.33726
1.33358
1.33011
1.3267
1.32334
1.31945
1.31613
1.31287
1.30924
1.30577
1.30222
1.29879
1.29516
1.29186
1.28824
1.28498
1.28139
1.27782
1.27465
1.27099
1.26747
1.26399
1.26044
1.25695
1.25342
1.25016
1.24644
1.24298
1.23956
1.236
1.23253
1.22911
1.22563
1.222
1.21852
1.21493
1.21138
1.20801
1.20454
1.20088
1.19733
1.19378
1.19022
1.1868
1.1831
1.17961
1.17591
1.17246
1.16912
1.16549
1.16177
1.15832
1.15492
1.15129
1.14757
1.14405
1.14046
1.13673
1.13329
1.12983
1.126
1.12279
1.1189
1.11538
1.11215
1.10843
1.10464
1.10098
1.0975
1.09412
1.09052
1.08683
1.08328
1.07984
1.07617
1.07272
1.06903
1.06559
1.06186
1.05841
1.05475
1.05135
1.04766
1.04431
1.04073
1.03733
1.03381
1.03034
1.02687
1.02337
1.01982
1.01651
1.01304
1.00957
1.00593
1.00273
0.999409
0.996223
1.4295
1.42145
1.41602
1.4111
1.40639
1.40171
1.39762
1.39278
1.38898
1.38481
1.38097
1.37719
1.37333
1.36949
1.36577
1.36207
1.35862
1.35487
1.35147
1.34781
1.34436
1.34063
1.33715
1.3339
1.33012
1.32651
1.32319
1.31965
1.31594
1.31293
1.30914
1.30566
1.30245
1.2987
1.29538
1.29194
1.28843
1.28492
1.2813
1.27784
1.2744
1.27095
1.26739
1.26411
1.26057
1.25702
1.25342
1.24997
1.24652
1.24304
1.23939
1.23608
1.23249
1.22895
1.22552
1.22195
1.21838
1.21509
1.21146
1.20785
1.20448
1.20088
1.19731
1.19366
1.19027
1.18661
1.18315
1.17963
1.17599
1.17268
1.16901
1.16544
1.16193
1.1582
1.1545
1.15123
1.14762
1.14403
1.14029
1.13698
1.13342
1.12977
1.126
1.12263
1.11898
1.11565
1.11198
1.10823
1.10476
1.10094
1.09762
1.09404
1.09041
1.08692
1.08327
1.07969
1.07602
1.07273
1.06905
1.06554
1.06186
1.05838
1.05479
1.05149
1.0477
1.0444
1.04069
1.03738
1.03382
1.03021
1.02675
1.02326
1.01986
1.01641
1.01307
1.00951
1.00596
1.00284
0.999277
0.996201
1.42939
1.42137
1.41618
1.41101
1.40635
1.40181
1.39728
1.39297
1.38896
1.38494
1.38097
1.37712
1.37331
1.36948
1.36577
1.36211
1.35861
1.35474
1.35135
1.348
1.34426
1.34086
1.33732
1.33381
1.33003
1.32647
1.32327
1.31981
1.31608
1.31273
1.30941
1.30574
1.30217
1.29881
1.29528
1.29194
1.28829
1.28484
1.28133
1.27785
1.27446
1.2709
1.26751
1.26389
1.26049
1.25708
1.25341
1.24997
1.24635
1.24294
1.23956
1.236
1.23254
1.22916
1.22541
1.22214
1.21836
1.21499
1.21153
1.20782
1.20437
1.20092
1.1974
1.19371
1.19014
1.18673
1.18314
1.17961
1.17608
1.17254
1.16895
1.1655
1.16183
1.15817
1.15468
1.15112
1.14762
1.14404
1.14039
1.13672
1.13341
1.12972
1.12618
1.12262
1.11909
1.11545
1.11171
1.10826
1.10464
1.101
1.09751
1.09411
1.0904
1.0869
1.08326
1.07989
1.07608
1.07267
1.06914
1.06542
1.06192
1.05837
1.05497
1.05123
1.04781
1.04419
1.04084
1.0373
1.03376
1.03034
1.02676
1.02318
1.01989
1.0165
1.01291
1.00966
1.00603
1.00273
0.999264
0.996107
1.42927
1.42123
1.41615
1.41114
1.40619
1.40173
1.39724
1.39286
1.38912
1.38475
1.381
1.37722
1.37319
1.36951
1.36578
1.36219
1.35876
1.35496
1.3513
1.34798
1.34447
1.34064
1.33735
1.33394
1.33034
1.32691
1.32342
1.31962
1.31616
1.31265
1.30927
1.30575
1.30258
1.29889
1.29517
1.29202
1.28844
1.28477
1.28148
1.27778
1.27439
1.27093
1.26759
1.26395
1.26043
1.25703
1.25358
1.24988
1.24662
1.24317
1.23939
1.23602
1.23251
1.22897
1.22544
1.22199
1.21848
1.21499
1.21133
1.20781
1.20427
1.20082
1.19728
1.19366
1.19014
1.18662
1.18315
1.17971
1.17595
1.17247
1.16892
1.16534
1.16173
1.15822
1.15461
1.15114
1.14769
1.14396
1.14044
1.13713
1.13349
1.12971
1.12589
1.12261
1.11886
1.11538
1.11195
1.10845
1.10472
1.101
1.09763
1.09403
1.09042
1.08678
1.08326
1.07968
1.07597
1.07269
1.06909
1.06553
1.06178
1.05854
1.05491
1.05131
1.04783
1.04429
1.04087
1.03726
1.03355
1.0303
1.02683
1.02334
1.01997
1.01653
1.0131
1.00981
1.00595
1.00293
0.99929
0.996016
1.42937
1.42124
1.41617
1.41104
1.40631
1.40144
1.39737
1.39291
1.38875
1.38495
1.381
1.37695
1.37315
1.3696
1.36581
1.36238
1.35857
1.3551
1.35144
1.34793
1.34427
1.3407
1.33745
1.3338
1.33023
1.32665
1.3232
1.31977
1.31603
1.31275
1.30938
1.30558
1.30227
1.29863
1.29531
1.29153
1.28847
1.28493
1.28153
1.27793
1.27443
1.27107
1.26741
1.26394
1.26048
1.25699
1.25366
1.25002
1.24682
1.24313
1.23944
1.23608
1.23243
1.22891
1.22551
1.22186
1.21833
1.21486
1.21134
1.20786
1.20431
1.2008
1.1973
1.19367
1.19024
1.18668
1.18324
1.17958
1.17603
1.17247
1.16898
1.16523
1.16191
1.15827
1.15454
1.15106
1.14779
1.14401
1.14043
1.13685
1.1335
1.12966
1.12623
1.12255
1.11869
1.1155
1.11202
1.10837
1.1048
1.10103
1.09748
1.094
1.0903
1.08683
1.08339
1.07985
1.07614
1.07272
1.06927
1.06546
1.06189
1.05835
1.05496
1.05118
1.04775
1.04439
1.04091
1.03723
1.03375
1.03013
1.02674
1.02364
1.01997
1.01667
1.01304
1.00953
1.00608
1.00274
0.999277
0.995972
1.42941
1.42133
1.41595
1.41099
1.4063
1.40147
1.39707
1.39302
1.38887
1.38487
1.3808
1.37723
1.37298
1.36951
1.36579
1.36231
1.35844
1.35509
1.35141
1.34792
1.34427
1.34076
1.33725
1.33359
1.33033
1.32664
1.32315
1.31961
1.31628
1.31291
1.30947
1.30593
1.3023
1.29859
1.29529
1.29176
1.28842
1.28489
1.28144
1.27783
1.27439
1.27088
1.2674
1.26392
1.26057
1.25697
1.25339
1.24991
1.24654
1.24318
1.23973
1.23604
1.23258
1.22907
1.22541
1.22182
1.21856
1.215
1.21127
1.20777
1.20439
1.20091
1.19734
1.19375
1.19034
1.18681
1.1831
1.17972
1.176
1.17262
1.16882
1.1653
1.16178
1.15819
1.15458
1.15133
1.1476
1.1441
1.14046
1.13702
1.1333
1.12976
1.12618
1.12277
1.11884
1.11548
1.11172
1.10831
1.10486
1.10113
1.09762
1.09422
1.09039
1.08697
1.08335
1.07969
1.07625
1.07268
1.06898
1.06543
1.06181
1.05839
1.05479
1.0513
1.0478
1.04438
1.04069
1.03742
1.03376
1.03016
1.0268
1.02339
1.01982
1.0165
1.01287
1.00969
1.00599
1.00277
0.999352
0.995993
1.42944
1.42112
1.41616
1.41096
1.40621
1.40168
1.39725
1.39301
1.38892
1.38476
1.38092
1.37705
1.37321
1.36943
1.36574
1.3622
1.35865
1.35509
1.35139
1.3479
1.3442
1.34064
1.33721
1.3338
1.33034
1.32661
1.3232
1.31986
1.31611
1.31271
1.30926
1.30556
1.30233
1.2989
1.29533
1.29182
1.28855
1.28482
1.28137
1.27804
1.27434
1.27082
1.26741
1.26388
1.26056
1.25698
1.25353
1.25003
1.24645
1.24288
1.23931
1.23611
1.23257
1.22899
1.22549
1.22203
1.21843
1.21503
1.21136
1.2079
1.20443
1.20087
1.1972
1.19371
1.19025
1.18668
1.18312
1.17965
1.17599
1.17251
1.1688
1.16543
1.16187
1.15807
1.15469
1.15108
1.14759
1.14431
1.14063
1.13679
1.13336
1.12981
1.12604
1.12261
1.11892
1.11531
1.11194
1.10822
1.10463
1.10108
1.09752
1.09407
1.09051
1.0868
1.08345
1.07972
1.0761
1.07266
1.06898
1.06536
1.062
1.05839
1.05492
1.05128
1.04787
1.04439
1.04086
1.03726
1.03383
1.03015
1.0269
1.02339
1.01993
1.01648
1.01281
1.00964
1.0061
1.00269
0.999277
0.995958
1.42922
1.42119
1.41616
1.41095
1.40613
1.40151
1.39721
1.39293
1.38894
1.38465
1.38103
1.37708
1.37328
1.36958
1.36588
1.36207
1.35853
1.35492
1.35138
1.34758
1.34422
1.34074
1.33728
1.33379
1.33013
1.32693
1.32325
1.3197
1.31627
1.31283
1.30933
1.30565
1.3023
1.29879
1.29523
1.29188
1.28839
1.28478
1.28139
1.27768
1.27463
1.27079
1.26763
1.26386
1.26035
1.25694
1.25351
1.24991
1.24646
1.243
1.2395
1.23606
1.23265
1.22908
1.22531
1.22195
1.21871
1.21489
1.21126
1.20783
1.20448
1.20055
1.19731
1.19393
1.19041
1.18671
1.18319
1.17958
1.17619
1.17268
1.169
1.16554
1.16182
1.15836
1.15488
1.15123
1.14774
1.14429
1.14042
1.13709
1.13319
1.12981
1.12618
1.12264
1.11902
1.11535
1.112
1.10833
1.10473
1.10123
1.09745
1.09385
1.09031
1.08698
1.08331
1.0797
1.07598
1.07239
1.0691
1.0655
1.06198
1.05847
1.0548
1.05127
1.04784
1.04436
1.04077
1.03721
1.03386
1.03012
1.02679
1.02342
1.01997
1.01644
1.01297
1.00957
1.00601
1.00269
0.999376
0.995802
1.42934
1.42136
1.41615
1.41105
1.40638
1.40164
1.39717
1.39282
1.38883
1.3849
1.38102
1.37694
1.37305
1.36959
1.36595
1.36211
1.35859
1.35471
1.35143
1.3477
1.34427
1.34071
1.33732
1.33361
1.33027
1.32667
1.3232
1.31975
1.31615
1.3127
1.30907
1.3055
1.30219
1.29898
1.29558
1.29185
1.28842
1.28505
1.28145
1.27808
1.27428
1.27113
1.26736
1.26394
1.26048
1.25693
1.25345
1.25015
1.24652
1.2428
1.23961
1.23602
1.23255
1.22912
1.22562
1.222
1.21832
1.21478
1.21133
1.20791
1.2045
1.20085
1.19718
1.19379
1.19032
1.18683
1.18292
1.17952
1.17607
1.17269
1.16912
1.16541
1.16173
1.15817
1.15448
1.15105
1.14766
1.14389
1.14045
1.13684
1.13345
1.12984
1.12594
1.12258
1.11897
1.11548
1.11169
1.10824
1.10463
1.10111
1.09757
1.0941
1.09039
1.08672
1.08321
1.07956
1.07631
1.07261
1.06914
1.06581
1.06178
1.05841
1.05481
1.05113
1.04791
1.04431
1.04081
1.03706
1.03381
1.03008
1.02671
1.02331
1.02001
1.01645
1.01305
1.00943
1.00618
1.0026
0.999426
0.995955
1.42934
1.42137
1.41615
1.41106
1.40637
1.40164
1.39717
1.39282
1.38883
1.3849
1.38101
1.37694
1.37305
1.36958
1.36594
1.36212
1.3586
1.35472
1.35143
1.3477
1.34426
1.34072
1.33732
1.33361
1.33027
1.32668
1.32321
1.31975
1.31615
1.31271
1.30908
1.3055
1.30219
1.29897
1.29557
1.29185
1.28842
1.28505
1.28146
1.27806
1.27427
1.27113
1.26734
1.26394
1.26049
1.25694
1.25345
1.25014
1.24651
1.2428
1.2396
1.236
1.23254
1.22912
1.22562
1.22199
1.21832
1.21478
1.21133
1.20792
1.20451
1.20083
1.19718
1.19379
1.19031
1.18682
1.18291
1.17951
1.17608
1.17268
1.16912
1.16543
1.16174
1.15817
1.15447
1.15105
1.14767
1.14389
1.14045
1.13684
1.13344
1.12984
1.12594
1.12258
1.11896
1.11548
1.1117
1.10825
1.10463
1.10111
1.09757
1.0941
1.09041
1.08672
1.08321
1.07956
1.07631
1.07262
1.06913
1.06581
1.06178
1.0584
1.05481
1.05114
1.04791
1.0443
1.04081
1.03706
1.03379
1.03008
1.02671
1.02331
1.02001
1.01647
1.01305
1.00941
1.00619
1.00261
0.999428
0.99596
1.4292
1.42118
1.41615
1.41096
1.40613
1.40151
1.39721
1.39294
1.38894
1.38466
1.38102
1.37708
1.37329
1.36957
1.36589
1.36207
1.35853
1.35492
1.35138
1.34757
1.34423
1.34073
1.33729
1.3338
1.33013
1.32694
1.32325
1.3197
1.31627
1.31282
1.30934
1.30566
1.3023
1.29879
1.29523
1.29188
1.28839
1.28478
1.28139
1.27768
1.27462
1.2708
1.26763
1.26388
1.26035
1.25695
1.25352
1.24991
1.24648
1.243
1.23952
1.23607
1.23266
1.22908
1.22531
1.22195
1.21871
1.21489
1.21125
1.20783
1.20448
1.20055
1.1973
1.19392
1.19041
1.18672
1.18319
1.17958
1.17618
1.1727
1.169
1.16552
1.16182
1.15835
1.15489
1.15123
1.14774
1.14431
1.14042
1.13709
1.1332
1.1298
1.1262
1.12263
1.11901
1.11535
1.112
1.10833
1.10472
1.10124
1.09744
1.09385
1.09031
1.08699
1.0833
1.07969
1.07598
1.0724
1.0691
1.0655
1.06199
1.05847
1.0548
1.05126
1.04785
1.04436
1.04077
1.03722
1.03386
1.03012
1.02679
1.02342
1.01998
1.01644
1.01297
1.00959
1.006
1.0027
0.999386
0.995804
1.42944
1.42112
1.41616
1.41096
1.4062
1.40168
1.39726
1.393
1.38892
1.38475
1.3809
1.37705
1.37321
1.36944
1.36573
1.3622
1.35865
1.35509
1.35138
1.3479
1.34421
1.34064
1.33722
1.33381
1.33033
1.3266
1.32319
1.31985
1.31611
1.3127
1.30925
1.30556
1.30233
1.29891
1.29532
1.29179
1.28855
1.28482
1.28137
1.27802
1.27432
1.27082
1.26744
1.26388
1.26056
1.25699
1.25352
1.25002
1.24645
1.24287
1.23933
1.2361
1.23257
1.229
1.22548
1.22204
1.21841
1.21503
1.21137
1.2079
1.20443
1.20087
1.19721
1.19372
1.19023
1.18671
1.1831
1.17965
1.176
1.1725
1.1688
1.16543
1.16189
1.15807
1.1547
1.15106
1.14759
1.14433
1.14062
1.1368
1.13336
1.1298
1.12604
1.12262
1.11892
1.11531
1.11194
1.10821
1.10463
1.10106
1.09751
1.09409
1.09051
1.0868
1.08345
1.07972
1.0761
1.07265
1.06897
1.06536
1.062
1.05838
1.0549
1.05128
1.04788
1.04438
1.04086
1.03725
1.03382
1.03015
1.02689
1.02339
1.01994
1.01648
1.0128
1.00963
1.0061
1.00269
0.999287
0.99596
1.42942
1.42134
1.41595
1.41098
1.40629
1.40146
1.39705
1.39303
1.38887
1.38486
1.38079
1.37724
1.37298
1.3695
1.36579
1.36231
1.35844
1.35509
1.35142
1.34792
1.34427
1.34075
1.33726
1.3336
1.33033
1.32664
1.32315
1.31961
1.31629
1.31292
1.30946
1.30593
1.3023
1.29859
1.29529
1.29177
1.28841
1.2849
1.28144
1.27785
1.27439
1.27088
1.2674
1.26393
1.26056
1.25696
1.25339
1.24991
1.24653
1.24317
1.23973
1.23605
1.23257
1.22906
1.22541
1.22182
1.21853
1.215
1.21126
1.20777
1.20437
1.20089
1.19735
1.19373
1.19033
1.18682
1.18309
1.17973
1.176
1.17261
1.16882
1.16529
1.16177
1.1582
1.15458
1.15133
1.14759
1.1441
1.14045
1.13702
1.13328
1.12977
1.12616
1.12275
1.11885
1.11549
1.11172
1.10829
1.10485
1.10113
1.09762
1.09422
1.0904
1.087
1.08335
1.07969
1.07625
1.07268
1.06897
1.06543
1.06181
1.0584
1.05481
1.05129
1.04782
1.04437
1.04069
1.03742
1.03375
1.03016
1.0268
1.0234
1.01983
1.01649
1.01288
1.00969
1.00598
1.00278
0.999331
0.995985
1.42938
1.42126
1.41617
1.41104
1.40629
1.40143
1.39739
1.39292
1.38876
1.38495
1.38102
1.37696
1.37315
1.3696
1.36582
1.36238
1.35858
1.3551
1.35146
1.34793
1.34427
1.34069
1.33746
1.3338
1.33024
1.32666
1.32322
1.31976
1.31602
1.31274
1.30937
1.30559
1.30227
1.29863
1.29531
1.29152
1.28847
1.28493
1.28152
1.27792
1.27444
1.27107
1.2674
1.26395
1.26048
1.25697
1.25366
1.25002
1.24683
1.24313
1.23943
1.23609
1.23245
1.22892
1.22554
1.22188
1.21833
1.21484
1.21136
1.20786
1.20431
1.2008
1.1973
1.19368
1.19026
1.18668
1.18324
1.17958
1.17602
1.17245
1.16898
1.16523
1.16192
1.15826
1.15453
1.15105
1.14779
1.144
1.14044
1.13685
1.13351
1.12967
1.12622
1.12254
1.11868
1.1155
1.11202
1.10837
1.10479
1.10104
1.09748
1.09401
1.09031
1.08684
1.08338
1.07986
1.07617
1.07273
1.06927
1.06546
1.06189
1.05834
1.05495
1.05118
1.04774
1.04439
1.04091
1.03722
1.03374
1.03014
1.02673
1.02365
1.02
1.01667
1.01302
1.00953
1.00607
1.00275
0.999277
0.995949
1.42927
1.42122
1.41614
1.41111
1.40618
1.40171
1.39725
1.39287
1.38913
1.38474
1.38102
1.37721
1.37319
1.3695
1.36576
1.3622
1.35876
1.35494
1.35129
1.34797
1.34447
1.34065
1.33735
1.33395
1.33033
1.32692
1.32342
1.31962
1.31615
1.31266
1.30928
1.30574
1.30258
1.2989
1.29518
1.292
1.28844
1.28477
1.28147
1.27778
1.27437
1.27094
1.2676
1.26395
1.26045
1.25703
1.25357
1.24988
1.24663
1.24317
1.23936
1.23604
1.23254
1.22898
1.22542
1.22198
1.21848
1.21497
1.21134
1.20781
1.20429
1.20081
1.1973
1.19368
1.19013
1.18661
1.18316
1.17968
1.17594
1.17247
1.16892
1.16534
1.16174
1.15822
1.15461
1.15115
1.14769
1.14395
1.14046
1.13713
1.1335
1.12971
1.12593
1.12262
1.11886
1.11538
1.11194
1.10845
1.10472
1.101
1.09762
1.09404
1.09043
1.08678
1.08325
1.07969
1.07597
1.07265
1.06907
1.06552
1.06179
1.05854
1.05492
1.0513
1.04784
1.04428
1.04086
1.03727
1.03356
1.03031
1.02685
1.02335
1.01998
1.01656
1.01311
1.00981
1.00593
1.00294
0.99929
0.996037
1.42938
1.42135
1.41618
1.41101
1.40636
1.4018
1.39729
1.39296
1.38895
1.38493
1.38097
1.3771
1.37331
1.36949
1.36578
1.36213
1.3586
1.35473
1.35135
1.34801
1.34424
1.34082
1.33733
1.33381
1.33001
1.32648
1.32325
1.3198
1.31608
1.31275
1.30942
1.30572
1.30217
1.29881
1.29531
1.29194
1.28829
1.28483
1.28132
1.27785
1.27445
1.27089
1.26751
1.26389
1.26046
1.25707
1.2534
1.24996
1.24635
1.24294
1.23956
1.236
1.23256
1.22917
1.22541
1.22215
1.21836
1.21499
1.21153
1.20781
1.20437
1.20093
1.1974
1.19373
1.19015
1.18671
1.18314
1.1796
1.17608
1.17254
1.16895
1.16552
1.16181
1.15816
1.1547
1.15111
1.14763
1.14404
1.1404
1.13672
1.13342
1.12971
1.12618
1.12261
1.11909
1.11545
1.11172
1.10827
1.10464
1.101
1.09752
1.0941
1.09041
1.0869
1.08325
1.07988
1.07609
1.07266
1.06913
1.06542
1.06193
1.05836
1.05495
1.05122
1.04781
1.04417
1.04085
1.0373
1.03376
1.03033
1.02676
1.0232
1.0199
1.01651
1.01292
1.00967
1.00602
1.00274
0.999266
0.996101
1.4295
1.42143
1.416
1.4111
1.4064
1.40173
1.39762
1.3928
1.38898
1.38483
1.38095
1.37719
1.37333
1.36948
1.36578
1.36206
1.35861
1.35487
1.35145
1.3478
1.34433
1.34063
1.33713
1.3339
1.33014
1.32651
1.32318
1.31964
1.31595
1.31291
1.30914
1.30566
1.30248
1.2987
1.29537
1.29194
1.28844
1.28493
1.28131
1.27784
1.27441
1.27094
1.2674
1.2641
1.26058
1.257
1.25344
1.24996
1.24652
1.24306
1.2394
1.23607
1.23247
1.22894
1.2255
1.22198
1.21839
1.2151
1.21148
1.20786
1.20448
1.20089
1.19732
1.19363
1.19027
1.18662
1.18313
1.17963
1.17599
1.17268
1.16901
1.16543
1.16192
1.15821
1.1545
1.15122
1.14762
1.14403
1.14028
1.13697
1.13343
1.12978
1.126
1.12264
1.11899
1.11564
1.11197
1.10823
1.10475
1.10094
1.09762
1.09404
1.09041
1.08694
1.08329
1.07969
1.07604
1.07273
1.06906
1.06552
1.06184
1.05835
1.05479
1.05148
1.04772
1.04442
1.04071
1.03738
1.03384
1.03022
1.02675
1.02326
1.01985
1.01641
1.01309
1.00952
1.00597
1.00284
0.999277
0.996197
1.42956
1.42153
1.4162
1.41127
1.40647
1.40175
1.39733
1.39295
1.38902
1.38499
1.38101
1.37714
1.3732
1.36964
1.36604
1.36199
1.3587
1.35506
1.35143
1.3478
1.34432
1.34068
1.33727
1.33358
1.33012
1.3267
1.32334
1.31944
1.31614
1.31288
1.30923
1.30577
1.30224
1.29879
1.29516
1.29187
1.28825
1.28498
1.28138
1.27783
1.27466
1.27099
1.26751
1.26401
1.26045
1.25698
1.25342
1.25016
1.24642
1.24298
1.23958
1.23599
1.23253
1.22907
1.22561
1.22202
1.21852
1.21494
1.21139
1.20802
1.20455
1.20091
1.19733
1.19377
1.19023
1.18679
1.18309
1.17961
1.17591
1.17247
1.16914
1.16549
1.16176
1.15831
1.15492
1.1513
1.14756
1.14407
1.14048
1.13673
1.1333
1.12983
1.12601
1.12277
1.11891
1.11539
1.11217
1.10843
1.10465
1.10096
1.09749
1.09411
1.09051
1.08683
1.08327
1.07983
1.07615
1.07272
1.06901
1.06558
1.06185
1.05842
1.05475
1.05133
1.04766
1.04431
1.04074
1.03733
1.03382
1.03034
1.02689
1.02338
1.01982
1.01653
1.01306
1.00958
1.00595
1.00275
0.999405
0.996222
1.42926
1.42127
1.41629
1.41129
1.40642
1.40176
1.3973
1.39317
1.3888
1.38499
1.38115
1.37708
1.37331
1.36955
1.36584
1.3621
1.35861
1.35487
1.3514
1.34787
1.34432
1.34105
1.33742
1.33372
1.33037
1.32664
1.32317
1.31961
1.31633
1.31266
1.30915
1.30571
1.30215
1.29864
1.29542
1.29165
1.28826
1.28493
1.28135
1.27801
1.27451
1.2711
1.2675
1.264
1.26072
1.25694
1.25333
1.25001
1.24651
1.2429
1.23957
1.23613
1.23257
1.22906
1.22543
1.22191
1.21846
1.21485
1.21133
1.20786
1.20435
1.20097
1.19739
1.19369
1.19016
1.18662
1.18312
1.17955
1.17593
1.17234
1.16904
1.16555
1.16174
1.15842
1.15472
1.15097
1.14767
1.14402
1.14031
1.13693
1.13317
1.12987
1.12638
1.12266
1.11905
1.11538
1.11193
1.10829
1.10483
1.10089
1.09768
1.09404
1.09046
1.08683
1.08331
1.07978
1.07604
1.07267
1.06898
1.06567
1.06196
1.05839
1.05474
1.05129
1.04784
1.04426
1.04094
1.03723
1.03376
1.03029
1.02674
1.02333
1.01983
1.01642
1.01299
1.00951
1.00598
1.00276
0.99939
0.996222
)
;

boundaryField
{
    upperWall
    {
        type            calculated;
        value           nonuniform List<scalar> 
120
(
1.42926
1.42127
1.41629
1.41129
1.40642
1.40176
1.3973
1.39317
1.3888
1.38499
1.38115
1.37708
1.37331
1.36955
1.36584
1.3621
1.35861
1.35487
1.3514
1.34787
1.34432
1.34105
1.33742
1.33372
1.33037
1.32664
1.32317
1.31961
1.31633
1.31266
1.30915
1.30571
1.30215
1.29864
1.29542
1.29165
1.28826
1.28493
1.28135
1.27801
1.27451
1.2711
1.2675
1.264
1.26072
1.25694
1.25333
1.25001
1.24651
1.2429
1.23957
1.23613
1.23257
1.22906
1.22543
1.22191
1.21846
1.21485
1.21133
1.20786
1.20435
1.20097
1.19739
1.19369
1.19016
1.18662
1.18312
1.17955
1.17593
1.17234
1.16904
1.16555
1.16174
1.15842
1.15472
1.15097
1.14767
1.14402
1.14031
1.13693
1.13317
1.12987
1.12638
1.12266
1.11905
1.11538
1.11193
1.10829
1.10483
1.10089
1.09768
1.09404
1.09046
1.08683
1.08331
1.07978
1.07604
1.07267
1.06898
1.06567
1.06196
1.05839
1.05474
1.05129
1.04784
1.04426
1.04094
1.03723
1.03376
1.03029
1.02674
1.02333
1.01983
1.01642
1.01299
1.00951
1.00598
1.00276
0.99939
0.996222
)
;
    }
    lowerWall
    {
        type            calculated;
        value           nonuniform List<scalar> 
120
(
1.42926
1.42127
1.41628
1.41128
1.40641
1.40173
1.39728
1.39316
1.3888
1.385
1.38114
1.37708
1.37333
1.36955
1.36585
1.36211
1.35859
1.35488
1.35137
1.34787
1.34434
1.34105
1.33739
1.33373
1.33036
1.32664
1.32316
1.3196
1.31634
1.31265
1.30915
1.30572
1.30216
1.29865
1.29542
1.29166
1.28826
1.28494
1.28134
1.278
1.27454
1.27109
1.26748
1.26399
1.26071
1.25692
1.25334
1.25001
1.24652
1.24287
1.23956
1.23611
1.23257
1.22905
1.22543
1.2219
1.21847
1.21485
1.21132
1.20787
1.20433
1.20099
1.1974
1.1937
1.19013
1.18663
1.18314
1.17955
1.17594
1.17234
1.16903
1.16554
1.16174
1.15844
1.15471
1.15096
1.14766
1.14404
1.14031
1.1369
1.13317
1.12988
1.12637
1.12264
1.11906
1.11536
1.11193
1.10829
1.10481
1.1009
1.09768
1.09404
1.09045
1.08684
1.08332
1.07977
1.07606
1.07269
1.069
1.06568
1.06199
1.05841
1.05474
1.05129
1.04785
1.04425
1.04091
1.03724
1.03376
1.03028
1.02675
1.02333
1.01982
1.01644
1.01298
1.00953
1.00597
1.00276
0.999409
0.996208
)
;
    }
    inlet
    {
        type            calculated;
        value           nonuniform List<scalar> 
20
(
1.42926
1.42958
1.4295
1.42939
1.42927
1.42937
1.42941
1.42944
1.42922
1.42934
1.42934
1.4292
1.42944
1.42942
1.42938
1.42927
1.42938
1.4295
1.42956
1.42926
)
;
    }
    outlet
    {
        type            calculated;
        value           nonuniform List<scalar> 
20
(
0.994183
0.994144
0.994064
0.994137
0.994066
0.994177
0.994095
0.994333
0.994154
0.994305
0.994308
0.994164
0.994343
0.994104
0.994171
0.994061
0.994141
0.994057
0.994152
0.994186
)
;
    }
    frontAndBack
    {
        type            empty;
    }
}


// ************************************************************************* //
