/*--------------------------------*- C++ -*----------------------------------*\
  =========                 |
  \\      /  F ield         | OpenFOAM: The Open Source CFD Toolbox
   \\    /   O peration     | Website:  https://openfoam.org
    \\  /    A nd           | Version:  7
     \\/     M anipulation  |
\*---------------------------------------------------------------------------*/
FoamFile
{
    version     2.0;
    format      ascii;
    class       volVectorField;
    location    "0.115";
    object      UMean;
}
// * * * * * * * * * * * * * * * * * * * * * * * * * * * * * * * * * * * * * //

dimensions      [0 1 -1 0 0 0 0];

internalField   nonuniform List<vector> 
2400
(
(0.000316053 6.58215e-05 0)
(0.00025929 4.09312e-05 0)
(0.000192513 2.67358e-05 0)
(0.00012515 7.35666e-06 0)
(0.000118269 1.0725e-05 0)
(9.27314e-05 1.04429e-06 0)
(8.76057e-05 2.77887e-06 0)
(8.02021e-05 6.13273e-07 0)
(7.71382e-05 5.96612e-07 0)
(7.48571e-05 3.33398e-07 0)
(7.34414e-05 2.34446e-07 0)
(7.24943e-05 1.77536e-07 0)
(7.18403e-05 1.45928e-07 0)
(7.13686e-05 1.26814e-07 0)
(7.10123e-05 1.14618e-07 0)
(7.07305e-05 1.04408e-07 0)
(7.05031e-05 1.00119e-07 0)
(7.03128e-05 9.39857e-08 0)
(7.01452e-05 8.77677e-08 0)
(6.99967e-05 8.24659e-08 0)
(6.98629e-05 7.78889e-08 0)
(6.9741e-05 7.38228e-08 0)
(6.9629e-05 6.96057e-08 0)
(6.95254e-05 6.54737e-08 0)
(6.9429e-05 6.14935e-08 0)
(6.93393e-05 5.77902e-08 0)
(6.92556e-05 5.42012e-08 0)
(6.91774e-05 5.09677e-08 0)
(6.91045e-05 4.79376e-08 0)
(6.90365e-05 4.50526e-08 0)
(6.89731e-05 4.23003e-08 0)
(6.89139e-05 3.96648e-08 0)
(6.88587e-05 3.71742e-08 0)
(6.88075e-05 3.47485e-08 0)
(6.87598e-05 3.24006e-08 0)
(6.87154e-05 3.00968e-08 0)
(6.86742e-05 2.80221e-08 0)
(6.86361e-05 2.60309e-08 0)
(6.86008e-05 2.41391e-08 0)
(6.85681e-05 2.23822e-08 0)
(6.85379e-05 2.07193e-08 0)
(6.85101e-05 1.91798e-08 0)
(6.84845e-05 1.76816e-08 0)
(6.84611e-05 1.64386e-08 0)
(6.84395e-05 1.52043e-08 0)
(6.84197e-05 1.40715e-08 0)
(6.84018e-05 1.29877e-08 0)
(6.83853e-05 1.19902e-08 0)
(6.83704e-05 1.10475e-08 0)
(6.8357e-05 1.01645e-08 0)
(6.83448e-05 9.27376e-09 0)
(6.83339e-05 8.5917e-09 0)
(6.83241e-05 7.89446e-09 0)
(6.83153e-05 7.2306e-09 0)
(6.83075e-05 6.61261e-09 0)
(6.83008e-05 6.04526e-09 0)
(6.82948e-05 5.49366e-09 0)
(6.82896e-05 4.98639e-09 0)
(6.82852e-05 4.52724e-09 0)
(6.82815e-05 4.09252e-09 0)
(6.82784e-05 3.68369e-09 0)
(6.82759e-05 3.2991e-09 0)
(6.82739e-05 2.93663e-09 0)
(6.82725e-05 2.59704e-09 0)
(6.82715e-05 2.28752e-09 0)
(6.82709e-05 2.00465e-09 0)
(6.82708e-05 1.73834e-09 0)
(6.82709e-05 1.49884e-09 0)
(6.82714e-05 1.28153e-09 0)
(6.82722e-05 1.08206e-09 0)
(6.82733e-05 8.98787e-10 0)
(6.82745e-05 7.48985e-10 0)
(6.82761e-05 6.09442e-10 0)
(6.82778e-05 4.80773e-10 0)
(6.82798e-05 3.60261e-10 0)
(6.82818e-05 2.48857e-10 0)
(6.8284e-05 1.56553e-10 0)
(6.82863e-05 8.21261e-11 0)
(6.82887e-05 2.43052e-11 0)
(6.82913e-05 -1.58321e-11 0)
(6.82939e-05 -4.70046e-11 0)
(6.82966e-05 -5.34625e-11 0)
(6.82992e-05 -8.55928e-11 0)
(6.8302e-05 -7.53697e-11 0)
(6.83048e-05 -5.47408e-11 0)
(6.83076e-05 -5.14678e-11 0)
(6.83105e-05 -2.18285e-11 0)
(6.83134e-05 -7.46597e-12 0)
(6.83163e-05 3.06133e-11 0)
(6.83192e-05 5.1781e-11 0)
(6.8322e-05 5.54979e-11 0)
(6.83248e-05 8.47587e-11 0)
(6.83276e-05 8.36521e-11 0)
(6.83305e-05 1.15518e-10 0)
(6.83333e-05 1.33631e-10 0)
(6.83361e-05 1.49322e-10 0)
(6.83388e-05 1.65029e-10 0)
(6.83415e-05 1.82858e-10 0)
(6.83442e-05 1.84646e-10 0)
(6.83467e-05 1.92697e-10 0)
(6.83492e-05 1.20836e-10 0)
(6.83517e-05 1.43404e-10 0)
(6.83542e-05 1.97917e-10 0)
(6.83566e-05 1.8187e-10 0)
(6.83589e-05 1.9302e-10 0)
(6.83612e-05 2.00404e-10 0)
(6.83633e-05 2.19411e-10 0)
(6.83655e-05 2.37851e-10 0)
(6.83675e-05 2.42166e-10 0)
(6.83694e-05 2.51826e-10 0)
(6.83711e-05 2.63457e-10 0)
(6.83722e-05 4.27129e-10 0)
(6.83732e-05 5.54872e-10 0)
(6.83737e-05 8.91013e-10 0)
(6.8373e-05 1.2508e-09 0)
(6.83702e-05 1.87223e-09 0)
(6.8363e-05 3.43116e-09 0)
(6.83471e-05 8.30755e-09 0)
(6.83501e-05 8.23158e-09 0)
(6.82965e-05 8.11821e-09 0)
(0.000398794 0.000120329 0)
(0.000379544 0.000113097 0)
(0.000347445 9.15223e-05 0)
(0.00027296 5.04365e-05 0)
(0.000271723 4.0124e-05 0)
(0.000230334 1.90749e-05 0)
(0.000225411 1.50462e-05 0)
(0.000209927 7.67149e-06 0)
(0.000204729 5.41517e-06 0)
(0.00019976 3.26942e-06 0)
(0.000196773 2.13851e-06 0)
(0.000194758 1.41873e-06 0)
(0.000193411 9.7033e-07 0)
(0.000192492 6.8686e-07 0)
(0.000191848 5.05214e-07 0)
(0.00019139 3.86779e-07 0)
(0.000191057 3.10633e-07 0)
(0.000190803 2.56051e-07 0)
(0.000190603 2.17279e-07 0)
(0.000190443 1.89594e-07 0)
(0.000190309 1.68935e-07 0)
(0.000190195 1.52714e-07 0)
(0.000190094 1.39751e-07 0)
(0.000190004 1.2915e-07 0)
(0.000189924 1.20076e-07 0)
(0.00018985 1.11975e-07 0)
(0.000189782 1.0453e-07 0)
(0.00018972 9.76765e-08 0)
(0.000189662 9.13463e-08 0)
(0.000189608 8.54754e-08 0)
(0.000189558 8.00208e-08 0)
(0.000189511 7.49498e-08 0)
(0.000189468 7.01884e-08 0)
(0.000189427 6.57516e-08 0)
(0.00018939 6.14796e-08 0)
(0.000189355 5.73798e-08 0)
(0.000189322 5.35416e-08 0)
(0.000189293 4.98396e-08 0)
(0.000189265 4.63725e-08 0)
(0.000189239 4.3085e-08 0)
(0.000189216 4.00453e-08 0)
(0.000189194 3.71891e-08 0)
(0.000189174 3.45056e-08 0)
(0.000189155 3.20066e-08 0)
(0.000189138 2.96525e-08 0)
(0.000189123 2.74338e-08 0)
(0.000189109 2.53863e-08 0)
(0.000189096 2.34512e-08 0)
(0.000189084 2.1678e-08 0)
(0.000189073 2.00189e-08 0)
(0.000189064 1.8462e-08 0)
(0.000189055 1.70519e-08 0)
(0.000189047 1.57363e-08 0)
(0.00018904 1.44799e-08 0)
(0.000189034 1.32596e-08 0)
(0.000189029 1.214e-08 0)
(0.000189024 1.10575e-08 0)
(0.00018902 1.00484e-08 0)
(0.000189016 9.09832e-09 0)
(0.000189013 8.19417e-09 0)
(0.000189011 7.35747e-09 0)
(0.000189009 6.59246e-09 0)
(0.000189007 5.88927e-09 0)
(0.000189006 5.24188e-09 0)
(0.000189005 4.65024e-09 0)
(0.000189004 4.10726e-09 0)
(0.000189004 3.61406e-09 0)
(0.000189004 3.16305e-09 0)
(0.000189005 2.76449e-09 0)
(0.000189005 2.38468e-09 0)
(0.000189006 2.03808e-09 0)
(0.000189007 1.72871e-09 0)
(0.000189008 1.44872e-09 0)
(0.000189009 1.20536e-09 0)
(0.000189011 1.00387e-09 0)
(0.000189012 8.18465e-10 0)
(0.000189014 6.66933e-10 0)
(0.000189015 5.22581e-10 0)
(0.000189017 4.24461e-10 0)
(0.000189019 3.28276e-10 0)
(0.000189021 1.71307e-10 0)
(0.000189023 1.44672e-10 0)
(0.000189025 2.12721e-10 0)
(0.000189027 2.29265e-11 0)
(0.000189029 -4.65411e-11 0)
(0.000189032 -4.15137e-11 0)
(0.000189034 9.72842e-12 0)
(0.000189036 3.57564e-11 0)
(0.000189038 4.581e-11 0)
(0.00018904 6.34602e-11 0)
(0.000189042 9.07204e-11 0)
(0.000189044 1.76906e-10 0)
(0.000189047 -1.22695e-10 0)
(0.000189049 -8.84749e-12 0)
(0.000189051 6.17108e-11 0)
(0.000189053 7.11794e-11 0)
(0.000189055 9.99532e-11 0)
(0.000189057 1.1107e-10 0)
(0.000189059 1.17912e-10 0)
(0.000189061 2.74709e-10 0)
(0.000189063 4.88184e-10 0)
(0.000189065 4.64257e-11 0)
(0.000189067 2.88178e-10 0)
(0.000189069 4.2938e-10 0)
(0.000189071 5.25147e-10 0)
(0.000189072 5.85867e-10 0)
(0.000189074 6.08578e-10 0)
(0.000189075 7.2889e-10 0)
(0.000189077 8.89213e-10 0)
(0.000189078 1.22062e-09 0)
(0.000189079 1.8971e-09 0)
(0.000189078 2.95846e-09 0)
(0.000189078 2.3519e-09 0)
(0.000189077 4.43515e-09 0)
(0.000189074 7.44627e-09 0)
(0.000189069 1.18596e-08 0)
(0.000189059 1.89278e-08 0)
(0.000189042 2.76072e-08 0)
(0.000189066 2.98061e-08 0)
(0.000189013 4.61451e-08 0)
(0.000406366 8.70426e-05 0)
(0.000416923 0.000117654 0)
(0.000420816 0.000112365 0)
(0.000362659 8.12057e-05 0)
(0.00037202 6.21965e-05 0)
(0.000333129 3.95175e-05 0)
(0.0003301 2.84529e-05 0)
(0.000313478 1.75373e-05 0)
(0.000308561 1.20334e-05 0)
(0.000302412 7.75594e-06 0)
(0.000299083 5.11793e-06 0)
(0.000296616 3.41688e-06 0)
(0.000294963 2.31544e-06 0)
(0.000293833 1.59944e-06 0)
(0.00029305 1.13115e-06 0)
(0.000292501 8.2585e-07 0)
(0.000292111 6.21421e-07 0)
(0.000291826 4.82386e-07 0)
(0.000291613 3.87211e-07 0)
(0.000291449 3.20838e-07 0)
(0.000291318 2.73162e-07 0)
(0.000291211 2.38077e-07 0)
(0.000291122 2.11786e-07 0)
(0.000291045 1.91233e-07 0)
(0.000290978 1.74546e-07 0)
(0.000290917 1.60679e-07 0)
(0.000290862 1.48843e-07 0)
(0.000290812 1.38204e-07 0)
(0.000290766 1.28582e-07 0)
(0.000290724 1.19737e-07 0)
(0.000290685 1.11569e-07 0)
(0.000290649 1.03943e-07 0)
(0.000290616 9.6747e-08 0)
(0.000290585 8.99852e-08 0)
(0.000290556 8.37655e-08 0)
(0.000290529 7.79334e-08 0)
(0.000290504 7.26193e-08 0)
(0.000290481 6.75934e-08 0)
(0.000290459 6.28223e-08 0)
(0.00029044 5.82338e-08 0)
(0.000290422 5.39487e-08 0)
(0.000290405 4.98665e-08 0)
(0.000290389 4.59936e-08 0)
(0.000290375 4.23776e-08 0)
(0.000290362 3.89511e-08 0)
(0.00029035 3.57136e-08 0)
(0.00029034 3.26681e-08 0)
(0.00029033 2.97802e-08 0)
(0.000290321 2.70924e-08 0)
(0.000290313 2.45473e-08 0)
(0.000290305 2.21242e-08 0)
(0.000290299 1.98819e-08 0)
(0.000290293 1.77325e-08 0)
(0.000290287 1.57377e-08 0)
(0.000290282 1.3906e-08 0)
(0.000290278 1.22432e-08 0)
(0.000290275 1.07266e-08 0)
(0.000290271 9.34308e-09 0)
(0.000290269 8.08258e-09 0)
(0.000290266 6.97055e-09 0)
(0.000290264 5.95986e-09 0)
(0.000290263 5.0102e-09 0)
(0.000290262 4.12275e-09 0)
(0.000290261 3.29693e-09 0)
(0.00029026 2.52612e-09 0)
(0.00029026 1.80554e-09 0)
(0.00029026 1.14254e-09 0)
(0.00029026 5.44273e-10 0)
(0.00029026 3.20353e-12 0)
(0.00029026 -5.01992e-10 0)
(0.000290261 -9.67196e-10 0)
(0.000290261 -1.41258e-09 0)
(0.000290262 -1.81229e-09 0)
(0.000290263 -2.16771e-09 0)
(0.000290264 -2.47749e-09 0)
(0.000290266 -2.72395e-09 0)
(0.000290267 -2.9752e-09 0)
(0.000290268 -3.21516e-09 0)
(0.00029027 -3.41829e-09 0)
(0.000290271 -3.60294e-09 0)
(0.000290272 -3.76772e-09 0)
(0.000290274 -3.89476e-09 0)
(0.000290275 -3.93187e-09 0)
(0.000290277 -3.98286e-09 0)
(0.000290279 -4.20263e-09 0)
(0.00029028 -4.43509e-09 0)
(0.000290282 -4.65909e-09 0)
(0.000290284 -4.67265e-09 0)
(0.000290285 -4.73365e-09 0)
(0.000290287 -4.735e-09 0)
(0.000290289 -4.69147e-09 0)
(0.00029029 -4.55668e-09 0)
(0.000290292 -4.78086e-09 0)
(0.000290294 -4.59521e-09 0)
(0.000290295 -4.62208e-09 0)
(0.000290297 -4.43776e-09 0)
(0.000290299 -4.21671e-09 0)
(0.0002903 -4.11265e-09 0)
(0.000290302 -4.03908e-09 0)
(0.000290304 -3.89582e-09 0)
(0.000290304 -3.60062e-09 0)
(0.000290306 -3.38185e-09 0)
(0.000290308 -3.24319e-09 0)
(0.000290309 -3.34093e-09 0)
(0.000290311 -3.13879e-09 0)
(0.000290312 -2.89827e-09 0)
(0.000290313 -2.67192e-09 0)
(0.000290314 -2.4595e-09 0)
(0.000290315 -2.08168e-09 0)
(0.000290316 -1.51484e-09 0)
(0.000290317 -6.95469e-10 0)
(0.000290314 5.4351e-10 0)
(0.000290313 2.47022e-09 0)
(0.000290314 5.37316e-09 0)
(0.000290311 9.52475e-09 0)
(0.000290308 1.44089e-08 0)
(0.000290302 2.18614e-08 0)
(0.000290288 2.92914e-08 0)
(0.00029035 2.99326e-08 0)
(0.000290316 3.02619e-08 0)
(0.000401173 7.14642e-05 0)
(0.000420854 0.000112295 0)
(0.000446502 0.000120915 0)
(0.000405448 9.51132e-05 0)
(0.000430758 7.79344e-05 0)
(0.000399058 5.33523e-05 0)
(0.000403255 3.9279e-05 0)
(0.000388967 2.60728e-05 0)
(0.000386442 1.79038e-05 0)
(0.000381161 1.19955e-05 0)
(0.000378391 8.00998e-06 0)
(0.000376246 5.39049e-06 0)
(0.000374743 3.65213e-06 0)
(0.000373695 2.50177e-06 0)
(0.000372962 1.7401e-06 0)
(0.000372444 1.23534e-06 0)
(0.000372075 8.97601e-07 0)
(0.000371807 6.70227e-07 0)
(0.000371609 5.15923e-07 0)
(0.000371459 4.09617e-07 0)
(0.000371342 3.35438e-07 0)
(0.000371248 2.83006e-07 0)
(0.000371171 2.4474e-07 0)
(0.000371107 2.15838e-07 0)
(0.000371051 1.9334e-07 0)
(0.000371002 1.75507e-07 0)
(0.000370958 1.60845e-07 0)
(0.000370918 1.48454e-07 0)
(0.000370882 1.37564e-07 0)
(0.000370849 1.27812e-07 0)
(0.000370819 1.18863e-07 0)
(0.000370791 1.10572e-07 0)
(0.000370765 1.02787e-07 0)
(0.000370741 9.55056e-08 0)
(0.000370719 8.87581e-08 0)
(0.000370698 8.24722e-08 0)
(0.000370679 7.65539e-08 0)
(0.000370662 7.10719e-08 0)
(0.000370645 6.58772e-08 0)
(0.00037063 6.09854e-08 0)
(0.000370616 5.63057e-08 0)
(0.000370604 5.19202e-08 0)
(0.000370592 4.78121e-08 0)
(0.000370581 4.3912e-08 0)
(0.000370571 4.02487e-08 0)
(0.000370562 3.67991e-08 0)
(0.000370554 3.3568e-08 0)
(0.000370546 3.05156e-08 0)
(0.00037054 2.76315e-08 0)
(0.000370533 2.49376e-08 0)
(0.000370528 2.24196e-08 0)
(0.000370523 2.00099e-08 0)
(0.000370518 1.77692e-08 0)
(0.000370514 1.56847e-08 0)
(0.000370511 1.37852e-08 0)
(0.000370508 1.20324e-08 0)
(0.000370505 1.04055e-08 0)
(0.000370503 8.9074e-09 0)
(0.000370501 7.55032e-09 0)
(0.000370499 6.3504e-09 0)
(0.000370498 5.24501e-09 0)
(0.000370496 4.1971e-09 0)
(0.000370495 3.21439e-09 0)
(0.000370495 2.30188e-09 0)
(0.000370494 1.4467e-09 0)
(0.000370494 6.44648e-10 0)
(0.000370494 -9.32515e-11 0)
(0.000370494 -7.50879e-10 0)
(0.000370494 -1.36096e-09 0)
(0.000370495 -1.91116e-09 0)
(0.000370495 -2.43313e-09 0)
(0.000370496 -2.89923e-09 0)
(0.000370496 -3.33081e-09 0)
(0.000370497 -3.71674e-09 0)
(0.000370498 -4.0616e-09 0)
(0.000370499 -4.36661e-09 0)
(0.0003705 -4.65313e-09 0)
(0.000370501 -4.91226e-09 0)
(0.000370502 -5.15643e-09 0)
(0.000370503 -5.34475e-09 0)
(0.000370504 -5.40831e-09 0)
(0.000370505 -5.56385e-09 0)
(0.000370506 -5.68805e-09 0)
(0.000370507 -5.46022e-09 0)
(0.000370508 -5.58126e-09 0)
(0.00037051 -6.19655e-09 0)
(0.000370511 -6.30535e-09 0)
(0.000370513 -6.20121e-09 0)
(0.000370514 -6.20153e-09 0)
(0.000370516 -6.0799e-09 0)
(0.000370517 -5.98549e-09 0)
(0.000370518 -5.72028e-09 0)
(0.000370519 -6.70877e-09 0)
(0.000370521 -6.40507e-09 0)
(0.000370522 -6.13942e-09 0)
(0.000370524 -5.89966e-09 0)
(0.000370525 -5.65065e-09 0)
(0.000370526 -5.65473e-09 0)
(0.000370527 -5.52206e-09 0)
(0.000370528 -5.46953e-09 0)
(0.00037053 -5.554e-09 0)
(0.000370531 -4.8115e-09 0)
(0.000370532 -4.8157e-09 0)
(0.000370533 -4.82876e-09 0)
(0.000370534 -4.72269e-09 0)
(0.000370535 -4.40439e-09 0)
(0.000370536 -3.98415e-09 0)
(0.000370537 -3.70096e-09 0)
(0.000370537 -3.19323e-09 0)
(0.000370538 -2.4891e-09 0)
(0.000370538 -1.64112e-09 0)
(0.000370537 -4.51409e-10 0)
(0.000370537 3.69713e-09 0)
(0.000370537 6.63064e-09 0)
(0.000370535 1.07895e-08 0)
(0.000370534 1.6229e-08 0)
(0.000370533 2.16296e-08 0)
(0.000370526 2.64362e-08 0)
(0.000370585 2.78094e-08 0)
(0.000370547 7.38424e-09 0)
(0.000396026 5.21379e-05 0)
(0.00041833 9.39909e-05 0)
(0.000453494 0.000109835 0)
(0.00042395 9.33019e-05 0)
(0.00046221 8.05072e-05 0)
(0.000438114 5.82808e-05 0)
(0.000450291 4.45521e-05 0)
(0.000439659 3.06144e-05 0)
(0.000440753 2.16958e-05 0)
(0.000437222 1.48045e-05 0)
(0.00043578 1.00908e-05 0)
(0.000434462 6.87172e-06 0)
(0.000433476 4.68795e-06 0)
(0.000432763 3.21798e-06 0)
(0.000432247 2.23152e-06 0)
(0.000431873 1.56962e-06 0)
(0.0004316 1.12443e-06 0)
(0.000431399 8.2372e-07 0)
(0.000431248 6.19437e-07 0)
(0.000431131 4.79568e-07 0)
(0.00043104 3.82706e-07 0)
(0.000430966 3.14639e-07 0)
(0.000430905 2.65955e-07 0)
(0.000430854 2.30404e-07 0)
(0.00043081 2.03702e-07 0)
(0.000430771 1.82847e-07 0)
(0.000430736 1.66043e-07 0)
(0.000430705 1.5207e-07 0)
(0.000430677 1.4015e-07 0)
(0.000430651 1.29744e-07 0)
(0.000430627 1.2042e-07 0)
(0.000430605 1.11955e-07 0)
(0.000430585 1.04232e-07 0)
(0.000430566 9.70919e-08 0)
(0.000430549 9.0347e-08 0)
(0.000430533 8.40407e-08 0)
(0.000430519 7.80319e-08 0)
(0.000430505 7.23547e-08 0)
(0.000430493 6.70529e-08 0)
(0.000430481 6.20529e-08 0)
(0.00043047 5.73626e-08 0)
(0.000430461 5.29682e-08 0)
(0.000430452 4.88673e-08 0)
(0.000430443 4.49643e-08 0)
(0.000430436 4.13141e-08 0)
(0.000430429 3.78801e-08 0)
(0.000430423 3.4654e-08 0)
(0.000430417 3.1655e-08 0)
(0.000430412 2.8844e-08 0)
(0.000430407 2.62341e-08 0)
(0.000430403 2.38033e-08 0)
(0.000430399 2.15187e-08 0)
(0.000430396 1.94221e-08 0)
(0.000430393 1.74388e-08 0)
(0.000430391 1.55616e-08 0)
(0.000430388 1.37846e-08 0)
(0.000430386 1.21303e-08 0)
(0.000430384 1.05915e-08 0)
(0.000430383 9.1531e-09 0)
(0.000430382 7.79387e-09 0)
(0.000430381 6.53572e-09 0)
(0.00043038 5.37546e-09 0)
(0.000430379 4.31387e-09 0)
(0.000430379 3.34616e-09 0)
(0.000430379 2.44899e-09 0)
(0.000430378 1.61203e-09 0)
(0.000430378 8.51074e-10 0)
(0.000430378 1.66638e-10 0)
(0.000430379 -4.53409e-10 0)
(0.000430379 -1.01683e-09 0)
(0.00043038 -1.53406e-09 0)
(0.00043038 -2.01256e-09 0)
(0.000430381 -2.44943e-09 0)
(0.000430381 -2.83684e-09 0)
(0.000430382 -3.17612e-09 0)
(0.000430383 -3.47222e-09 0)
(0.000430384 -3.74038e-09 0)
(0.000430384 -3.97014e-09 0)
(0.000430385 -4.17841e-09 0)
(0.000430386 -4.35362e-09 0)
(0.000430387 -4.47447e-09 0)
(0.000430388 -4.5854e-09 0)
(0.000430389 -4.63748e-09 0)
(0.00043039 -4.54959e-09 0)
(0.00043039 -4.51603e-09 0)
(0.000430391 -5.12124e-09 0)
(0.000430393 -4.97261e-09 0)
(0.000430394 -4.84147e-09 0)
(0.000430395 -4.78278e-09 0)
(0.000430397 -4.64537e-09 0)
(0.000430398 -4.58332e-09 0)
(0.000430397 -4.32805e-09 0)
(0.000430398 -5.46898e-09 0)
(0.000430401 -5.21817e-09 0)
(0.000430402 -4.80424e-09 0)
(0.000430403 -4.73571e-09 0)
(0.000430404 -4.65216e-09 0)
(0.000430405 -4.71249e-09 0)
(0.000430406 -4.60572e-09 0)
(0.000430407 -4.48641e-09 0)
(0.000430408 -4.48623e-09 0)
(0.000430409 -4.29865e-09 0)
(0.00043041 -4.19136e-09 0)
(0.000430411 -3.84351e-09 0)
(0.000430412 -3.72595e-09 0)
(0.000430412 -3.46814e-09 0)
(0.000430413 -3.06744e-09 0)
(0.000430414 -2.6374e-09 0)
(0.000430414 -2.02719e-09 0)
(0.000430415 -1.11645e-09 0)
(0.000430415 1.90249e-10 0)
(0.000430415 1.94104e-09 0)
(0.000430415 4.72788e-09 0)
(0.000430416 7.89099e-09 0)
(0.000430417 1.19561e-08 0)
(0.000430418 1.75755e-08 0)
(0.000430419 2.11164e-08 0)
(0.000430416 2.32772e-08 0)
(0.000430476 2.11897e-08 0)
(0.000430435 9.12981e-09 0)
(0.000392611 3.81595e-05 0)
(0.000414622 7.46487e-05 0)
(0.000452594 9.22569e-05 0)
(0.000429379 8.25898e-05 0)
(0.000476522 7.4264e-05 0)
(0.000458392 5.5926e-05 0)
(0.000477645 4.41059e-05 0)
(0.000470663 3.11382e-05 0)
(0.000475616 2.26276e-05 0)
(0.000474123 1.56973e-05 0)
(0.000474368 1.08831e-05 0)
(0.000474129 7.49702e-06 0)
(0.000473873 5.15506e-06 0)
(0.000473651 3.55348e-06 0)
(0.000473466 2.46504e-06 0)
(0.000473315 1.72761e-06 0)
(0.000473192 1.22789e-06 0)
(0.000473093 8.88579e-07 0)
(0.000473012 6.57492e-07 0)
(0.000472944 4.99483e-07 0)
(0.000472888 3.90426e-07 0)
(0.00047284 3.14327e-07 0)
(0.000472798 2.60509e-07 0)
(0.000472761 2.21692e-07 0)
(0.000472728 1.9304e-07 0)
(0.000472698 1.71216e-07 0)
(0.000472672 1.54116e-07 0)
(0.000472647 1.40241e-07 0)
(0.000472625 1.28631e-07 0)
(0.000472604 1.18611e-07 0)
(0.000472586 1.09842e-07 0)
(0.000472568 1.01927e-07 0)
(0.000472552 9.47131e-08 0)
(0.000472538 8.80755e-08 0)
(0.000472524 8.18614e-08 0)
(0.000472511 7.60565e-08 0)
(0.0004725 7.06776e-08 0)
(0.000472489 6.55516e-08 0)
(0.000472479 6.07783e-08 0)
(0.00047247 5.62995e-08 0)
(0.000472462 5.2066e-08 0)
(0.000472454 4.80698e-08 0)
(0.000472447 4.426e-08 0)
(0.000472441 4.07697e-08 0)
(0.000472435 3.74392e-08 0)
(0.00047243 3.43193e-08 0)
(0.000472425 3.1401e-08 0)
(0.000472421 2.86463e-08 0)
(0.000472417 2.6066e-08 0)
(0.000472413 2.36613e-08 0)
(0.00047241 2.13872e-08 0)
(0.000472407 1.92834e-08 0)
(0.000472405 1.73199e-08 0)
(0.000472403 1.54724e-08 0)
(0.000472401 1.37567e-08 0)
(0.000472399 1.21585e-08 0)
(0.000472398 1.06804e-08 0)
(0.000472396 9.30572e-09 0)
(0.000472395 8.03433e-09 0)
(0.000472394 6.85771e-09 0)
(0.000472394 5.76812e-09 0)
(0.000472393 4.76153e-09 0)
(0.000472393 3.82962e-09 0)
(0.000472392 2.97707e-09 0)
(0.000472392 2.18534e-09 0)
(0.000472392 1.45162e-09 0)
(0.000472392 7.78649e-10 0)
(0.000472393 1.74885e-10 0)
(0.000472393 -3.78756e-10 0)
(0.000472393 -8.83042e-10 0)
(0.000472394 -1.34342e-09 0)
(0.000472394 -1.76851e-09 0)
(0.000472395 -2.16292e-09 0)
(0.000472395 -2.51116e-09 0)
(0.000472396 -2.82108e-09 0)
(0.000472396 -3.09171e-09 0)
(0.000472397 -3.33735e-09 0)
(0.000472398 -3.55889e-09 0)
(0.000472399 -3.73624e-09 0)
(0.0004724 -3.90222e-09 0)
(0.0004724 -4.01666e-09 0)
(0.000472401 -4.1196e-09 0)
(0.000472402 -4.19694e-09 0)
(0.000472403 -4.18864e-09 0)
(0.000472403 -4.1726e-09 0)
(0.000472404 -4.5211e-09 0)
(0.000472405 -4.5055e-09 0)
(0.000472406 -4.47637e-09 0)
(0.000472407 -4.45437e-09 0)
(0.000472408 -4.41257e-09 0)
(0.000472409 -4.43592e-09 0)
(0.000472409 -4.38325e-09 0)
(0.000472409 -4.53892e-09 0)
(0.000472412 -4.47219e-09 0)
(0.000472413 -4.3685e-09 0)
(0.000472414 -4.31833e-09 0)
(0.000472415 -4.25789e-09 0)
(0.000472415 -4.19797e-09 0)
(0.000472416 -4.13817e-09 0)
(0.000472417 -4.05646e-09 0)
(0.000472418 -3.95115e-09 0)
(0.000472419 -3.76985e-09 0)
(0.00047242 -3.64112e-09 0)
(0.00047242 -3.45264e-09 0)
(0.000472421 -3.27731e-09 0)
(0.000472422 -3.009e-09 0)
(0.000472422 -2.63502e-09 0)
(0.000472423 -2.15659e-09 0)
(0.000472424 -1.51002e-09 0)
(0.000472425 -6.06546e-10 0)
(0.000472425 6.63236e-10 0)
(0.000472426 2.44167e-09 0)
(0.000472427 4.96178e-09 0)
(0.000472428 7.87069e-09 0)
(0.00047243 1.12044e-08 0)
(0.000472432 1.47409e-08 0)
(0.000472434 1.68436e-08 0)
(0.000472433 1.71882e-08 0)
(0.000472492 1.35999e-08 0)
(0.000472449 3.34157e-09 0)
(0.000390325 2.6924e-05 0)
(0.000411464 5.58054e-05 0)
(0.000449057 7.17244e-05 0)
(0.000428709 6.67036e-05 0)
(0.00048116 6.18932e-05 0)
(0.000466981 4.80088e-05 0)
(0.000491663 3.88066e-05 0)
(0.000487657 2.79882e-05 0)
(0.000496034 2.07421e-05 0)
(0.000496434 1.45947e-05 0)
(0.00049836 1.02594e-05 0)
(0.000499222 7.13965e-06 0)
(0.000499743 4.94626e-06 0)
(0.000500061 3.42609e-06 0)
(0.000500246 2.38169e-06 0)
(0.000500348 1.66753e-06 0)
(0.000500398 1.18035e-06 0)
(0.000500417 8.48162e-07 0)
(0.000500418 6.21479e-07 0)
(0.000500407 4.66049e-07 0)
(0.000500389 3.5898e-07 0)
(0.000500368 2.8466e-07 0)
(0.000500346 2.32353e-07 0)
(0.000500324 1.94904e-07 0)
(0.000500302 1.67593e-07 0)
(0.000500281 1.47183e-07 0)
(0.000500261 1.31394e-07 0)
(0.000500242 1.18804e-07 0)
(0.000500224 1.08467e-07 0)
(0.000500208 9.97058e-08 0)
(0.000500192 9.20721e-08 0)
(0.000500178 8.52695e-08 0)
(0.000500165 7.91279e-08 0)
(0.000500153 7.34995e-08 0)
(0.000500142 6.83015e-08 0)
(0.000500132 6.34874e-08 0)
(0.000500122 5.89288e-08 0)
(0.000500113 5.46789e-08 0)
(0.000500106 5.06518e-08 0)
(0.000500098 4.69168e-08 0)
(0.000500091 4.33927e-08 0)
(0.000500085 4.0075e-08 0)
(0.00050008 3.69838e-08 0)
(0.000500074 3.40236e-08 0)
(0.00050007 3.12559e-08 0)
(0.000500066 2.86619e-08 0)
(0.000500062 2.62223e-08 0)
(0.000500058 2.39533e-08 0)
(0.000500055 2.18183e-08 0)
(0.000500052 1.9815e-08 0)
(0.00050005 1.79662e-08 0)
(0.000500048 1.62266e-08 0)
(0.000500046 1.45915e-08 0)
(0.000500044 1.30809e-08 0)
(0.000500043 1.16589e-08 0)
(0.000500041 1.03411e-08 0)
(0.00050004 9.09602e-09 0)
(0.000500039 7.93499e-09 0)
(0.000500039 6.85549e-09 0)
(0.000500038 5.85568e-09 0)
(0.000500037 4.92315e-09 0)
(0.000500037 4.06204e-09 0)
(0.000500037 3.26731e-09 0)
(0.000500037 2.53838e-09 0)
(0.000500037 1.8658e-09 0)
(0.000500037 1.25174e-09 0)
(0.000500037 6.93168e-10 0)
(0.000500037 1.70947e-10 0)
(0.000500038 -3.02215e-10 0)
(0.000500038 -7.29608e-10 0)
(0.000500038 -1.11639e-09 0)
(0.000500039 -1.47035e-09 0)
(0.000500039 -1.78659e-09 0)
(0.00050004 -2.07407e-09 0)
(0.000500041 -2.34048e-09 0)
(0.000500041 -2.5729e-09 0)
(0.000500042 -2.77428e-09 0)
(0.000500043 -2.95413e-09 0)
(0.000500043 -3.1138e-09 0)
(0.000500044 -3.23723e-09 0)
(0.000500045 -3.34148e-09 0)
(0.000500046 -3.43173e-09 0)
(0.000500046 -3.50196e-09 0)
(0.000500047 -3.54878e-09 0)
(0.000500047 -3.58565e-09 0)
(0.000500047 -3.73067e-09 0)
(0.000500049 -3.73756e-09 0)
(0.00050005 -3.73216e-09 0)
(0.000500051 -3.7214e-09 0)
(0.000500052 -3.6883e-09 0)
(0.000500053 -3.6892e-09 0)
(0.000500052 -3.68508e-09 0)
(0.000500053 -3.74617e-09 0)
(0.000500055 -3.74369e-09 0)
(0.000500056 -3.67044e-09 0)
(0.000500057 -3.60986e-09 0)
(0.000500057 -3.5574e-09 0)
(0.000500058 -3.51118e-09 0)
(0.000500059 -3.45391e-09 0)
(0.00050006 -3.38007e-09 0)
(0.00050006 -3.30092e-09 0)
(0.000500061 -3.17839e-09 0)
(0.000500062 -3.05448e-09 0)
(0.000500063 -2.88283e-09 0)
(0.000500063 -2.68034e-09 0)
(0.000500064 -2.4229e-09 0)
(0.000500065 -2.08834e-09 0)
(0.000500065 -1.65729e-09 0)
(0.000500066 -1.05918e-09 0)
(0.000500067 -2.15551e-10 0)
(0.000500068 9.21563e-10 0)
(0.000500069 2.44467e-09 0)
(0.000500071 4.45513e-09 0)
(0.000500073 6.81571e-09 0)
(0.000500076 9.44304e-09 0)
(0.000500079 1.20123e-08 0)
(0.000500082 1.34837e-08 0)
(0.000500081 1.32486e-08 0)
(0.000500138 1.00553e-08 0)
(0.000500095 2.64451e-09 0)
(0.000388884 1.78237e-05 0)
(0.000409146 3.83856e-05 0)
(0.000445276 5.06623e-05 0)
(0.000425884 4.83885e-05 0)
(0.000481143 4.59278e-05 0)
(0.000469252 3.63929e-05 0)
(0.000497657 2.99607e-05 0)
(0.000495758 2.19544e-05 0)
(0.000506789 1.65102e-05 0)
(0.0005087 1.17463e-05 0)
(0.000512042 8.34531e-06 0)
(0.000513851 5.85386e-06 0)
(0.000515063 4.07996e-06 0)
(0.00051587 2.83807e-06 0)
(0.000516397 1.97754e-06 0)
(0.000516736 1.38498e-06 0)
(0.000516949 9.78601e-07 0)
(0.000517081 7.00575e-07 0)
(0.000517158 5.10226e-07 0)
(0.0005172 3.79494e-07 0)
(0.00051722 2.89484e-07 0)
(0.000517225 2.27072e-07 0)
(0.00051722 1.83294e-07 0)
(0.000517211 1.52129e-07 0)
(0.000517198 1.29575e-07 0)
(0.000517184 1.12872e-07 0)
(0.000517169 1.00119e-07 0)
(0.000517155 9.00588e-08 0)
(0.00051714 8.18795e-08 0)
(0.000517127 7.5087e-08 0)
(0.000517114 6.91491e-08 0)
(0.000517102 6.39738e-08 0)
(0.000517091 5.93085e-08 0)
(0.000517081 5.50323e-08 0)
(0.000517071 5.11272e-08 0)
(0.000517062 4.74922e-08 0)
(0.000517054 4.40758e-08 0)
(0.000517047 4.09087e-08 0)
(0.00051704 3.79149e-08 0)
(0.000517033 3.50948e-08 0)
(0.000517028 3.24598e-08 0)
(0.000517022 2.99711e-08 0)
(0.000517018 2.76197e-08 0)
(0.000517013 2.54464e-08 0)
(0.000517009 2.33926e-08 0)
(0.000517006 2.14548e-08 0)
(0.000517003 1.96372e-08 0)
(0.000517 1.79335e-08 0)
(0.000516997 1.63335e-08 0)
(0.000516995 1.48258e-08 0)
(0.000516993 1.34216e-08 0)
(0.000516991 1.2123e-08 0)
(0.00051699 1.08908e-08 0)
(0.000516988 9.7418e-09 0)
(0.000516987 8.67048e-09 0)
(0.000516986 7.68074e-09 0)
(0.000516985 6.7606e-09 0)
(0.000516984 5.90568e-09 0)
(0.000516984 5.10968e-09 0)
(0.000516983 4.37047e-09 0)
(0.000516983 3.67972e-09 0)
(0.000516983 3.03937e-09 0)
(0.000516983 2.45702e-09 0)
(0.000516983 1.91678e-09 0)
(0.000516983 1.42198e-09 0)
(0.000516983 9.67128e-10 0)
(0.000516983 5.49099e-10 0)
(0.000516984 1.57339e-10 0)
(0.000516984 -1.9483e-10 0)
(0.000516984 -5.14888e-10 0)
(0.000516985 -7.90986e-10 0)
(0.000516985 -1.06495e-09 0)
(0.000516986 -1.29092e-09 0)
(0.000516986 -1.50739e-09 0)
(0.000516987 -1.70385e-09 0)
(0.000516988 -1.88437e-09 0)
(0.000516988 -2.04068e-09 0)
(0.000516989 -2.17563e-09 0)
(0.000516989 -2.30173e-09 0)
(0.00051699 -2.38801e-09 0)
(0.000516991 -2.47013e-09 0)
(0.000516992 -2.52383e-09 0)
(0.000516992 -2.58176e-09 0)
(0.000516993 -2.6442e-09 0)
(0.000516992 -2.67806e-09 0)
(0.000516993 -2.73608e-09 0)
(0.000516995 -2.76798e-09 0)
(0.000516996 -2.7749e-09 0)
(0.000516997 -2.7632e-09 0)
(0.000516997 -2.74565e-09 0)
(0.000516998 -2.74507e-09 0)
(0.000516997 -2.74125e-09 0)
(0.000516998 -2.74547e-09 0)
(0.000517001 -2.73781e-09 0)
(0.000517001 -2.70134e-09 0)
(0.000517002 -2.67629e-09 0)
(0.000517003 -2.64214e-09 0)
(0.000517003 -2.60322e-09 0)
(0.000517004 -2.54998e-09 0)
(0.000517005 -2.50298e-09 0)
(0.000517005 -2.42889e-09 0)
(0.000517006 -2.3407e-09 0)
(0.000517007 -2.25067e-09 0)
(0.000517008 -2.11751e-09 0)
(0.000517008 -1.94827e-09 0)
(0.000517009 -1.73632e-09 0)
(0.00051701 -1.46596e-09 0)
(0.00051701 -1.12147e-09 0)
(0.000517011 -6.50114e-10 0)
(0.000517013 4.85998e-12 0)
(0.000517014 8.88821e-10 0)
(0.000517015 2.04333e-09 0)
(0.000517017 3.51712e-09 0)
(0.00051702 5.21085e-09 0)
(0.000517024 6.97432e-09 0)
(0.000517027 8.53995e-09 0)
(0.00051703 9.29049e-09 0)
(0.000517029 8.74392e-09 0)
(0.000517086 6.18117e-09 0)
(0.000517042 9.8908e-10 0)
(0.000388035 1.01539e-05 0)
(0.000407651 2.23815e-05 0)
(0.000442355 3.00323e-05 0)
(0.000423081 2.91728e-05 0)
(0.000479639 2.80996e-05 0)
(0.000468907 2.25767e-05 0)
(0.000499562 1.88137e-05 0)
(0.000498958 1.39324e-05 0)
(0.000511757 1.0581e-05 0)
(0.000514691 7.58454e-06 0)
(0.000519037 5.42744e-06 0)
(0.000521526 3.82808e-06 0)
(0.000523246 2.67953e-06 0)
(0.000524419 1.86985e-06 0)
(0.000525204 1.3055e-06 0)
(0.000525724 9.15021e-07 0)
(0.000526063 6.46133e-07 0)
(0.000526282 4.61522e-07 0)
(0.000526419 3.34755e-07 0)
(0.000526502 2.47797e-07 0)
(0.00052655 1.87934e-07 0)
(0.000526575 1.46327e-07 0)
(0.000526585 1.17256e-07 0)
(0.000526585 9.66636e-08 0)
(0.000526579 8.18299e-08 0)
(0.00052657 7.09049e-08 0)
(0.000526559 6.25901e-08 0)
(0.000526547 5.61086e-08 0)
(0.000526535 5.08782e-08 0)
(0.000526523 4.65178e-08 0)
(0.000526512 4.28089e-08 0)
(0.000526501 3.9587e-08 0)
(0.000526491 3.66757e-08 0)
(0.000526482 3.4019e-08 0)
(0.000526474 3.15854e-08 0)
(0.000526466 2.93189e-08 0)
(0.000526458 2.72226e-08 0)
(0.000526451 2.5261e-08 0)
(0.000526445 2.34166e-08 0)
(0.00052644 2.16793e-08 0)
(0.000526434 2.00695e-08 0)
(0.00052643 1.85233e-08 0)
(0.000526425 1.70708e-08 0)
(0.000526422 1.5716e-08 0)
(0.000526418 1.44604e-08 0)
(0.000526415 1.32639e-08 0)
(0.000526412 1.21362e-08 0)
(0.00052641 1.10765e-08 0)
(0.000526407 1.00921e-08 0)
(0.000526405 9.16515e-09 0)
(0.000526404 8.30356e-09 0)
(0.000526402 7.50372e-09 0)
(0.000526401 6.74944e-09 0)
(0.000526399 6.04618e-09 0)
(0.000526398 5.38894e-09 0)
(0.000526398 4.77825e-09 0)
(0.000526397 4.20833e-09 0)
(0.000526396 3.67886e-09 0)
(0.000526396 3.18533e-09 0)
(0.000526396 2.71965e-09 0)
(0.000526395 2.28473e-09 0)
(0.000526395 1.88445e-09 0)
(0.000526395 1.5251e-09 0)
(0.000526395 1.19338e-09 0)
(0.000526395 8.844e-10 0)
(0.000526396 6.01837e-10 0)
(0.000526396 3.47618e-10 0)
(0.000526396 1.06406e-10 0)
(0.000526397 -1.15631e-10 0)
(0.000526397 -3.06158e-10 0)
(0.000526397 -4.7632e-10 0)
(0.000526398 -6.38947e-10 0)
(0.000526398 -7.85492e-10 0)
(0.000526399 -9.23044e-10 0)
(0.0005264 -1.04483e-09 0)
(0.0005264 -1.15641e-09 0)
(0.000526401 -1.25073e-09 0)
(0.000526401 -1.33201e-09 0)
(0.000526402 -1.40576e-09 0)
(0.000526403 -1.46475e-09 0)
(0.000526403 -1.51554e-09 0)
(0.000526404 -1.55356e-09 0)
(0.000526405 -1.58949e-09 0)
(0.000526405 -1.62755e-09 0)