/*--------------------------------*- C++ -*----------------------------------*\
  =========                 |
  \\      /  F ield         | OpenFOAM: The Open Source CFD Toolbox
   \\    /   O peration     | Website:  https://openfoam.org
    \\  /    A nd           | Version:  7
     \\/     M anipulation  |
\*---------------------------------------------------------------------------*/
FoamFile
{
    version     2.0;
    format      ascii;
    class       volScalarField;
    location    "0.0375";
    object      k_0;
}
// * * * * * * * * * * * * * * * * * * * * * * * * * * * * * * * * * * * * * //

dimensions      [0 2 -2 0 0 0 0];

internalField   nonuniform List<scalar> 
1440
(
0.143629
0.776252
1.98544
3.43658
4.86219
6.08965
7.03041
7.68352
8.06665
8.25316
8.24068
8.16859
8.00835
7.78858
7.54503
7.29221
7.04
6.79504
6.5614
6.34151
6.13637
5.94633
5.77107
5.60997
5.46217
5.32671
5.20258
5.08874
4.98418
4.88794
4.79915
4.71706
4.64099
4.57036
4.50467
4.44344
4.38609
4.33201
4.2807
4.23188
4.18547
4.14149
4.09981
4.0602
4.0223
3.98578
3.95041
3.91604
3.88264
3.8502
3.81872
3.78817
3.75851
3.72973
3.70176
3.6746
3.64821
3.62258
3.59769
3.57353
3.55006
3.52728
3.50516
3.48369
3.46284
3.4426
3.42294
3.40384
3.38529
3.36728
3.34977
3.33277
3.31625
3.30021
3.28465
3.26956
3.25494
3.24081
3.22717
3.21404
3.20146
3.18945
3.17804
3.16726
3.15716
3.14777
3.13911
3.1312
3.12405
3.11765
3.11199
3.10706
3.10281
3.0992
3.09619
3.0937
3.09165
3.08996
3.08853
3.08729
3.08616
3.08507
3.08396
3.08281
3.08159
3.08031
3.07901
3.07767
3.07641
3.07517
3.07411
3.07305
3.07228
3.07141
3.07086
3.07014
3.06967
3.06912
3.06862
3.06832
0.000341355
0.0073478
0.0368989
0.108575
0.25387
0.46942
0.725457
1.00188
1.26659
1.51088
1.71682
1.8874
2.02317
2.12642
2.20187
2.25548
2.291
2.31396
2.32612
2.33253
2.33228
2.3306
2.32684
2.32171
2.31623
2.31081
2.30574
2.3012
2.29728
2.29404
2.29144
2.28944
2.28793
2.2868
2.28595
2.28527
2.28476
2.28438
2.28418
2.28413
2.28409
2.28399
2.28375
2.28328
2.28259
2.28176
2.28088
2.28
2.27913
2.27826
2.27732
2.27627
2.27508
2.27372
2.27218
2.27046
2.26857
2.2665
2.26427
2.26188
2.25934
2.25666
2.25385
2.25092
2.24789
2.24477
2.24156
2.23829
2.23497
2.23163
2.22827
2.2249
2.22155
2.21821
2.2149
2.21162
2.20839
2.20521
2.20207
2.19897
2.19591
2.19289
2.18989
2.18691
2.18393
2.18093
2.17794
2.17494
2.17195
2.16898
2.16602
2.16307
2.16014
2.15723
2.15437
2.15158
2.1489
2.14636
2.144
2.14183
2.13989
2.1382
2.13675
2.13553
2.13452
2.13367
2.13294
2.13231
2.13173
2.13125
2.1308
2.13048
2.1302
2.13007
2.12999
2.13004
2.13009
2.1303
2.13046
2.13054
2.02496e-05
3.93978e-05
0.00020126
0.000888592
0.00299791
0.00787704
0.0177043
0.0341452
0.0566087
0.0849995
0.117639
0.153133
0.189761
0.226282
0.261369
0.294445
0.324771
0.352297
0.376778
0.398475
0.417436
0.433947
0.448275
0.460682
0.47143
0.480767
0.488919
0.496101
0.502503
0.508292
0.513609
0.518578
0.5233
0.527853
0.532305
0.53671
0.541123
0.545594
0.550161
0.554851
0.559674
0.564631
0.569725
0.574959
0.58034
0.585875
0.591568
0.597425
0.603445
0.609627
0.61596
0.622427
0.629016
0.635713
0.64251
0.649393
0.656351
0.663367
0.670437
0.677548
0.684692
0.691853
0.699017
0.706179
0.713329
0.720458
0.727551
0.734594
0.741577
0.7485
0.755352
0.76213
0.768819
0.775414
0.781908
0.788306
0.794599
0.800785
0.806835
0.812733
0.818447
0.823979
0.829308
0.834442
0.839337
0.843978
0.848297
0.852291
0.855928
0.859254
0.862254
0.864949
0.867286
0.8693
0.870952
0.872325
0.873401
0.874308
0.874991
0.875578
0.875956
0.876319
0.876561
0.876945
0.877312
0.877931
0.878508
0.879326
0.879997
0.88082
0.881402
0.882052
0.882526
0.882968
0.88344
0.883651
0.884148
0.884245
0.884511
0.884601
2.00213e-05
2.01449e-05
2.0843e-05
2.45966e-05
4.00755e-05
8.86885e-05
0.0002146
0.000490282
0.00103091
0.00197092
0.00332764
0.00515119
0.00747682
0.0103108
0.013522
0.0170201
0.0207623
0.0247232
0.0287845
0.0328226
0.036791
0.0406944
0.0445061
0.0481704
0.051657
0.0549738
0.0581225
0.0610888
0.0638784
0.0665212
0.0690324
0.0714037
0.0736287
0.075723
0.0777145
0.0796226
0.0814564
0.0832167
0.0848998
0.0865064
0.0880592
0.0895914
0.0911156
0.0926094
0.0940494
0.0954489
0.0968482
0.0982735
0.0997129
0.101139
0.102544
0.103947
0.105375
0.106839
0.108329
0.109821
0.111299
0.11277
0.114266
0.115813
0.117399
0.11899
0.120554
0.122107
0.123689
0.125326
0.127004
0.12868
0.130331
0.131969
0.133624
0.135315
0.137032
0.138752
0.14046
0.142164
0.143873
0.145596
0.147328
0.149061
0.150783
0.152486
0.154155
0.155775
0.157332
0.158837
0.160289
0.161706
0.163047
0.16428
0.165358
0.166289
0.167097
0.167839
0.168525
0.169119
0.169593
0.169933
0.170133
0.170249
0.170322
0.170384
0.170444
0.170474
0.170494
0.170523
0.17056
0.170617
0.170718
0.170776
0.1708
0.170775
0.170696
0.17041
0.170277
0.170049
0.169958
0.16977
0.169628
0.169094
2.00078e-05
2.00624e-05
2.02051e-05
2.05115e-05
2.10483e-05
2.198e-05
2.36348e-05
2.69083e-05
3.37767e-05
4.58929e-05
7.18051e-05
0.000109675
0.00015256
0.000241192
0.000354276
0.000458635
0.000592533
0.000787676
0.00100293
0.00119825
0.00140289
0.00166093
0.00194768
0.00220988
0.00245662
0.00273275
0.00303949
0.0033389
0.00360704
0.00386869
0.00416034
0.00447285
0.00476979
0.00503757
0.00528931
0.00555468
0.00585685
0.00617178
0.00644998
0.00668262
0.00691359
0.00718764
0.00750677
0.00782048
0.00807329
0.00827662
0.00850526
0.00880358
0.00913477
0.00943193
0.00967011
0.00987891
0.0101141
0.0104115
0.0107505
0.0110643
0.0113068
0.0115053
0.0117325
0.0120304
0.0123699
0.0126869
0.0129411
0.0131472
0.0133586
0.0136216
0.0139378
0.0142632
0.0145459
0.0147718
0.0149727
0.015196
0.0154624
0.0157537
0.0160364
0.0162897
0.0165151
0.0167272
0.0169416
0.0171725
0.0174281
0.0176973
0.0179456
0.0181392
0.0182838
0.0184257
0.0186026
0.0188021
0.0189802
0.0191157
0.0192221
0.0193124
0.0193743
0.0193981
0.0193988
0.0193945
0.0193822
0.019351
0.0192881
0.0192318
0.0191722
0.0191088
0.019014
0.0188809
0.0187235
0.0185463
0.0184096
0.0182719
0.0182055
0.0180885
0.0180009
0.017798
0.01761
0.0172934
0.0170684
0.0168017
0.016669
0.0164809
0.0163812
0.0160938
2.00014e-05
2.00388e-05
2.01598e-05
2.04425e-05
2.09394e-05
2.14558e-05
2.25303e-05
2.38915e-05
2.47861e-05
2.58819e-05
2.81629e-05
3.03554e-05
3.15985e-05
3.34515e-05
3.72143e-05
4.0216e-05
4.225e-05
4.61046e-05
5.24022e-05
5.73778e-05
6.03901e-05
6.52232e-05
7.43848e-05
8.29085e-05
8.75566e-05
9.25744e-05
0.00010252
0.00011407
0.000122226
0.000127702
0.000135606
0.000148093
0.000161627
0.000171576
0.000177812
0.000185262
0.000198376
0.000215335
0.00022965
0.000237892
0.000243859
0.000254465
0.000272276
0.000292348
0.000307094
0.000314887
0.000322091
0.00033602
0.00035739
0.000380144
0.000396981
0.000406179
0.00041415
0.00043007
0.000455594
0.000482012
0.000500942
0.000512163
0.000522211
0.000538957
0.00056497
0.000594597
0.000618363
0.000632193
0.000641419
0.00065571
0.000680152
0.000711157
0.000739975
0.000760395
0.000773406
0.000785616
0.000803437
0.000828294
0.000856397
0.000882248
0.000902419
0.000917651
0.000931909
0.000949848
0.000973716
0.00100132
0.00102716
0.00104629
0.00105801
0.0010664
0.0010775
0.00109457
0.00111558
0.0011349
0.00114841
0.00115685
0.0011633
0.00116863
0.00117143
0.00117181
0.00117155
0.00117075
0.00116883
0.00116422
0.00115974
0.00115642
0.00115335
0.001148
0.00113372
0.00111353
0.00109716
0.00108299
0.00107634
0.00106657
0.00105864
0.00103981
0.0010199
0.000987196
0.00096165
0.000931582
0.000915629
0.000896009
0.000886402
0.0008605
2.00013e-05
2.00386e-05
2.01581e-05
2.04503e-05
2.08371e-05
2.16131e-05
2.27034e-05
2.34473e-05
2.46301e-05
2.66683e-05
2.82248e-05
2.93002e-05
3.14364e-05
3.4527e-05
3.684e-05
3.87947e-05
4.21311e-05
4.67198e-05
5.08533e-05
5.43043e-05
5.86389e-05
6.46658e-05
7.10182e-05
7.61351e-05
8.07226e-05
8.70246e-05
9.53026e-05
0.000102913
0.000108025
0.000112572
0.000119879
0.000130009
0.000139358
0.000145144
0.000148941
0.00015503
0.00016541
0.00017746
0.000186784
0.000191881
0.000195732
0.000202732
0.000214441
0.000228122
0.000239179
0.000245406
0.000249189
0.000255684
0.000268449
0.000283514
0.000295373
0.000301808
0.000306043
0.000313897
0.00032827
0.000344084
0.00035574
0.000362349
0.00036758
0.000376273
0.000390452
0.000407305
0.000421451
0.000429965
0.000435205
0.000442537
0.000455413
0.000472533
0.000489342
0.000501978
0.000510228
0.000517161
0.000526302
0.000538981
0.000553856
0.000568181
0.000579877
0.000588683
0.000595947
0.000604058
0.000615213
0.000629239
0.00064296
0.000652576
0.000657213
0.000660245
0.000666422
0.000676182
0.000685601
0.000693173
0.000699767
0.000705277
0.000708264
0.000708805
0.000708609
0.000707946
0.000706544
0.000703188
0.000697947
0.000692984
0.000689036
0.000684975
0.000679989
0.000672419
0.000663536
0.000651802
0.000641706
0.000629223
0.00062205
0.000609543
0.000602289
0.000586912
0.00057546
0.000554687
0.000540361
0.000519871
0.000509155
0.000493139
0.000485298
0.00046529
2.00076e-05
2.00618e-05
2.02041e-05
2.05046e-05
2.10565e-05
2.19675e-05
2.35908e-05
2.68578e-05
3.33016e-05
4.66774e-05
6.99524e-05
0.000102223
0.000156695
0.000237039
0.000333083
0.000445492
0.000586859
0.000758556
0.000947457
0.00114488
0.00135433
0.00158162
0.00182438
0.0020712
0.00231361
0.00255924
0.00281695
0.00307641
0.00332091
0.00355622
0.00380467
0.00407023
0.00432775
0.00455462
0.00476236
0.00498845
0.00525123
0.00552095
0.00575084
0.00593476
0.006122
0.00636005
0.00663678
0.00689249
0.00708892
0.00725154
0.00744147
0.00768941
0.00796495
0.00820749
0.00838764
0.00853724
0.00871883
0.00896404
0.00924086
0.00948536
0.00966346
0.00980537
0.00997496
0.0102084
0.0104815
0.0107346
0.0109285
0.0110783
0.0112354
0.0114413
0.0116935
0.0119519
0.0121756
0.0123545
0.0125128
0.0126849
0.0128869
0.0131094
0.0133299
0.0135307
0.0137083
0.0138688
0.014024
0.0141892
0.0143776
0.0145822
0.0147705
0.0149124
0.0150155
0.0151224
0.0152616
0.0154149
0.0155475
0.0156531
0.0157459
0.0158235
0.0158666
0.0158752
0.0158728
0.0158642
0.0158446
0.0157985
0.0157316
0.0156599
0.0155775
0.0154901
0.0153826
0.0152504
0.0150956
0.0149211
0.0147636
0.0146061
0.0144892
0.0143391
0.014207
0.0139898
0.0137995
0.0135025
0.0132968
0.0130231
0.0128814
0.0126798
0.0125779
0.0123021
2.00211e-05
2.01433e-05
2.08323e-05
2.45316e-05
3.97965e-05
8.77264e-05
0.000212042
0.000482357
0.00102253
0.00193589
0.0032733
0.00508411
0.0073792
0.0101374
0.0132745
0.0167183
0.0203995
0.0242437
0.0281612
0.0320756
0.0359296
0.0396825
0.0433116
0.0467992
0.0501231
0.0532671
0.0562296
0.0590183
0.0616433
0.0641205
0.0664626
0.0686726
0.0707491
0.0727015
0.0745515
0.0763264
0.0780424
0.0796938
0.0812639
0.0827574
0.0842095
0.0856545
0.087091
0.0884916
0.0898417
0.0911618
0.0924858
0.0938282
0.0951761
0.0965067
0.0978098
0.0991007
0.10041
0.101759
0.103137
0.104511
0.105861
0.107204
0.108578
0.110009
0.111479
0.112954
0.11441
0.115862
0.117344
0.118878
0.120456
0.122048
0.123625
0.12519
0.12676
0.128356
0.129979
0.131615
0.133238
0.134846
0.136444
0.138045
0.139656
0.141271
0.142879
0.144466
0.146025
0.147554
0.14904
0.150479
0.151879
0.153257
0.154599
0.155854
0.156954
0.15788
0.158677
0.159414
0.160104
0.160712
0.161149
0.161413
0.161523
0.161563
0.161563
0.161567
0.161573
0.161557
0.161449
0.161305
0.161226
0.16121
0.161215
0.161211
0.161187
0.161012
0.160799
0.160477
0.160345
0.160154
0.160072
0.159901
0.159743
0.159094
2.0247e-05
3.91632e-05
0.000199298
0.000879858
0.00297199
0.00780703
0.0175692
0.0338501
0.0561469
0.0843151
0.116688
0.151881
0.188229
0.224438
0.259274
0.292048
0.322144
0.349406
0.373698
0.395169
0.413971
0.430327
0.444539
0.456862
0.467568
0.476907
0.485107
0.492378
0.498901
0.504842
0.510332
0.515501
0.520443
0.525247
0.529977
0.534689
0.539435
0.544251
0.549172
0.554211
0.559389
0.56471
0.570183
0.575814
0.581597
0.587529
0.593602
0.599807
0.606141
0.612594
0.619158
0.625819
0.63257
0.639402
0.64631
0.653285
0.660317
0.6674
0.674528
0.681694
0.688889
0.696104
0.703328
0.710557
0.717784
0.724998
0.732186
0.73933
0.746418
0.753444
0.760393
0.767259
0.774015
0.780662
0.787186
0.793594
0.799881
0.806038
0.812057
0.817922
0.823621
0.829148
0.834507
0.839701
0.844717
0.849515
0.854042
0.858263
0.862163
0.865759
0.869031
0.871956
0.874488
0.876639
0.878402
0.879846
0.880973
0.881869
0.882512
0.88303
0.883363
0.883664
0.883847
0.884132
0.884424
0.885037
0.885647
0.886516
0.887241
0.888115
0.888792
0.889533
0.890208
0.890804
0.891533
0.891834
0.892452
0.892561
0.89285
0.892784
0.00033915
0.00729364
0.0366779
0.107985
0.252894
0.466912
0.72265
0.997394
1.26174
1.50478
1.70986
1.88036
2.01573
2.11914
2.19512
2.24936
2.28592
2.30984
2.32346
2.33099
2.33279
2.33202
2.32998
2.32649
2.32269
2.31896
2.31559
2.31269
2.31035
2.30857
2.30731
2.30653
2.30615
2.30619
2.30638
2.3068
2.30736
2.30799
2.30865
2.30925
2.30984
2.31027
2.31062
2.31078
2.31074
2.31059
2.31026
2.30971
2.30897
2.30806
2.30696
2.30569
2.30426
2.30269
2.30098
2.29915
2.2972
2.29516
2.29302
2.2908
2.2885
2.28613
2.28369
2.28118
2.2786
2.27596
2.27324
2.27046
2.26762
2.26473
2.2618
2.25883
2.25584
2.25283
2.24983
2.24685
2.2439
2.24099
2.23813
2.23532
2.23259
2.22992
2.22731
2.22475
2.22221
2.21968
2.21714
2.21458
2.21201
2.20941
2.20677
2.2041
2.2014
2.1987
2.19604
2.19345
2.19097
2.18864
2.18649
2.18455
2.18283
2.18137
2.18016
2.17921
2.17848
2.17794
2.17751
2.17719
2.17692
2.17672
2.17655
2.17646
2.17637
2.17637
2.17635
2.17644
2.1765
2.17678
2.17691
2.17731
0.143588
0.775175
1.98474
3.43343
4.8568
6.07725
7.01157
7.65115
8.02662
8.19184
8.17239
8.08936
7.91238
7.68172
7.42868
7.16797
6.90951
6.65979
6.42273
6.20054
5.99414
5.80361
5.62856
5.46818
5.3215
5.18744
5.06493
4.95288
4.85026
4.75611
4.66954
4.58971
4.51587
4.44735
4.38354
4.32389
4.26796
4.21535
4.1657
4.1187
4.07408
4.03162
3.99111
3.95237
3.91525
3.87964
3.84541
3.81247
3.78075
3.75016
3.72063
3.6921
3.66451
3.6378
3.61191
3.58681
3.56246
3.5388
3.51581
3.49346
3.47172
3.45058
3.43002
3.41001
3.39056
3.37166
3.35328
3.33544
3.31813
3.30134
3.28507
3.26932
3.25408
3.23934
3.22509
3.21131
3.198
3.18515
3.17275
3.16081
3.14933
3.13831
3.12779
3.11779
3.10834
3.09948
3.09126
3.08372
3.07688
3.07077
3.0654
3.06077
3.05687
3.05364
3.05105
3.049
3.04743
3.04624
3.04534
3.04462
3.04401
3.04342
3.0428
3.04208
3.04125
3.04028
3.03924
3.0381
3.03699
3.03586
3.03486
3.03385
3.03309
3.03227
3.03174
3.03114
3.03074
3.03039
3.02998
3.02994
)
;

boundaryField
{
    upperWall
    {
        type            fixedValue;
        value           uniform 0;
    }
    lowerWall
    {
        type            fixedValue;
        value           uniform 0;
    }
    inlet
    {
        type            fixedValue;
        value           uniform 2e-05;
    }
    outlet
    {
        type            inletOutlet;
        inletValue      uniform 0;
        value           nonuniform List<scalar> 
12
(
3.06832
2.13054
0.884601
0.169094
0.0160938
0.0008605
0.00046529
0.0123021
0.159094
0.892784
2.17731
3.02994
)
;
    }
    frontAndBack
    {
        type            empty;
    }
}


// ************************************************************************* //
