/*--------------------------------*- C++ -*----------------------------------*\
  =========                 |
  \\      /  F ield         | OpenFOAM: The Open Source CFD Toolbox
   \\    /   O peration     | Website:  https://openfoam.org
    \\  /    A nd           | Version:  7
     \\/     M anipulation  |
\*---------------------------------------------------------------------------*/
FoamFile
{
    version     2.0;
    format      ascii;
    class       volScalarField;
    location    "3.1";
    object      alphat;
}
// * * * * * * * * * * * * * * * * * * * * * * * * * * * * * * * * * * * * * //

dimensions      [1 -1 -1 0 0 0 0];

internalField   nonuniform List<scalar> 
12000
(
0.107278
0.107049
0.106942
0.106884
0.106857
0.106834
0.106822
0.106803
0.106859
0.106924
0.0935387
0.0937109
0.0936017
0.0935746
0.093559
0.0935463
0.0935387
0.0935265
0.093564
0.0936053
0.0920109
0.0921803
0.0920549
0.0920324
0.0920162
0.0920045
0.0919972
0.0919852
0.0920222
0.0920632
0.0923208
0.0925463
0.0924563
0.0924404
0.0924262
0.0924157
0.0924081
0.092397
0.092423
0.0924706
0.0921568
0.0923897
0.0922992
0.0922866
0.0922736
0.092264
0.0922564
0.0922464
0.0922687
0.0923192
0.0921969
0.0924328
0.0923571
0.0923474
0.0923352
0.0923262
0.0923185
0.092309
0.092328
0.0923814
0.092197
0.0924329
0.0923572
0.0923475
0.0923353
0.0923263
0.0923186
0.092309
0.0923282
0.0923812
0.0921573
0.0923902
0.0922997
0.0922871
0.092274
0.0922644
0.0922568
0.0922466
0.0922692
0.092319
0.0923215
0.092547
0.0924568
0.0924408
0.0924266
0.092416
0.0924084
0.0923972
0.0924235
0.0924702
0.0920118
0.0921814
0.0920559
0.0920332
0.092017
0.0920052
0.0919979
0.0919856
0.092023
0.0920628
0.0935398
0.0937119
0.0936026
0.0935754
0.0935598
0.0935469
0.0935393
0.0935267
0.0935648
0.0936048
0.107279
0.10705
0.106943
0.106885
0.106858
0.106835
0.106823
0.106803
0.106861
0.106923
0.0834993
0.0836915
0.0835367
0.0834749
0.0834515
0.083429
0.0834175
0.0833994
0.083467
0.0835304
0.0888506
0.0892688
0.0891684
0.0891213
0.0891046
0.0890862
0.0890756
0.0890601
0.0891057
0.0891576
0.0883655
0.0889889
0.0889654
0.0889341
0.0889237
0.0889093
0.0888997
0.0888866
0.0889031
0.0889442
0.0885695
0.0891213
0.08913
0.0891038
0.0890976
0.0890843
0.0890742
0.0890613
0.0890634
0.0891079
0.0884803
0.0891511
0.089197
0.0891826
0.0891807
0.0891701
0.0891606
0.0891501
0.0891391
0.0891857
0.0884751
0.0891018
0.0891544
0.0891411
0.0891407
0.0891305
0.0891213
0.0891118
0.0890985
0.0891472
0.0884752
0.0891019
0.0891545
0.0891412
0.0891408
0.0891306
0.0891214
0.0891118
0.0890986
0.089147
0.0884809
0.0891516
0.0891974
0.0891831
0.0891811
0.0891704
0.089161
0.0891503
0.0891396
0.0891855
0.0885701
0.0891219
0.0891306
0.0891043
0.0890982
0.0890847
0.0890747
0.0890614
0.0890641
0.0891074
0.0883665
0.0889899
0.0889664
0.0889349
0.0889245
0.0889099
0.0889005
0.0888869
0.0889041
0.0889439
0.0888517
0.0892698
0.0891694
0.0891222
0.0891055
0.0890868
0.0890764
0.0890603
0.0891069
0.089157
0.0835004
0.0836925
0.0835377
0.0834758
0.0834525
0.0834296
0.0834184
0.0833995
0.0834686
0.0835293
0.0362732
0.0363577
0.0363519
0.0363188
0.0363103
0.0362983
0.0362907
0.0362792
0.0362873
0.0363282
0.0394535
0.0395784
0.0396732
0.0396376
0.0396356
0.0396217
0.0396098
0.039595
0.0395677
0.039616
0.0392861
0.039374
0.0395583
0.0395321
0.0395345
0.039523
0.0395113
0.0394976
0.0394379
0.0394839
0.0386922
0.0389972
0.0390806
0.0390705
0.039072
0.039065
0.0390576
0.0390498
0.0390234
0.0390724
0.0387999
0.0390542
0.0391616
0.0391551
0.0391597
0.0391556
0.0391492
0.0391441
0.0391096
0.0391605
0.0387128
0.0390015
0.0391078
0.0391071
0.0391132
0.039109
0.0391026
0.0390987
0.0390629
0.0391162
0.0387128
0.0390016
0.0391079
0.0391071
0.0391133
0.039109
0.0391027
0.0390987
0.039063
0.0391161
0.0388001
0.0390544
0.0391618
0.0391553
0.0391599
0.0391557
0.0391494
0.0391441
0.0391099
0.0391602
0.0386925
0.0389975
0.0390809
0.0390707
0.0390723
0.0390651
0.0390579
0.0390498
0.0390238
0.039072
0.0392865
0.0393744
0.0395587
0.0395324
0.0395348
0.0395232
0.0395116
0.0394976
0.0394384
0.0394832
0.039454
0.0395788
0.0396737
0.039638
0.039636
0.039622
0.0396102
0.039595
0.0395684
0.0396154
0.0362736
0.0363582
0.0363523
0.0363192
0.0363107
0.0362985
0.0362911
0.0362792
0.0362881
0.0363272
0.0156191
0.0157399
0.0157611
0.0157375
0.0157341
0.0157258
0.0157194
0.0157106
0.0157035
0.0157337
0.0176302
0.0178304
0.0179064
0.0178812
0.0178833
0.0178733
0.0178634
0.0178525
0.0178239
0.0178645
0.0171847
0.0172987
0.017412
0.0173908
0.0173948
0.0173854
0.0173748
0.0173648
0.0173186
0.0173631
0.0169285
0.017183
0.017253
0.0172377
0.0172441
0.017237
0.0172271
0.0172202
0.0171854
0.0172328
0.0169675
0.0171851
0.0172587
0.0172489
0.0172567
0.0172534
0.0172456
0.0172417
0.0172031
0.0172503
0.0168909
0.0171255
0.0172001
0.0171902
0.0171992
0.0171945
0.0171861
0.0171839
0.0171482
0.0171997
0.016891
0.0171256
0.0172001
0.0171902
0.0171992
0.0171945
0.0171861
0.0171839
0.0171482
0.0171996
0.0169676
0.0171852
0.0172588
0.017249
0.0172568
0.0172534
0.0172456
0.0172417
0.0172033
0.0172501
0.0169287
0.0171831
0.0172531
0.0172378
0.0172442
0.0172371
0.0172273
0.0172202
0.0171857
0.0172324
0.0171848
0.0172989
0.0174121
0.017391
0.0173949
0.0173855
0.017375
0.0173648
0.017319
0.0173625
0.0176304
0.0178306
0.0179066
0.0178813
0.0178835
0.0178734
0.0178636
0.0178524
0.0178243
0.0178639
0.0156193
0.0157401
0.0157613
0.0157376
0.0157343
0.0157258
0.0157196
0.0157105
0.0157041
0.0157327
0.00670194
0.00687204
0.00688156
0.00686107
0.00685797
0.00685077
0.00684472
0.00683751
0.00683166
0.00685715
0.007682
0.00791274
0.00794559
0.007926
0.00792572
0.00791737
0.00790915
0.00790091
0.0078823
0.00792203
0.00740562
0.00758195
0.0076379
0.0076264
0.00762933
0.00762291
0.00761514
0.00760912
0.007582
0.00762984
0.00736663
0.0076597
0.00768789
0.00767153
0.00767589
0.00766954
0.00766013
0.00765544
0.00763308
0.00767852
0.00732921
0.00758041
0.00759465
0.00758531
0.00759189
0.00758967
0.0075832
0.00758243
0.00755752
0.00760501
0.00732009
0.00759642
0.00761916
0.00760342
0.00760937
0.00760491
0.00759573
0.00759503
0.0075731
0.00762054
0.00732011
0.00759644
0.00761917
0.00760343
0.00760939
0.00760491
0.00759576
0.00759501
0.00757317
0.00762047
0.00732925
0.00758045
0.00759468
0.00758533
0.00759192
0.00758968
0.00758326
0.00758238
0.00755764
0.00760485
0.00736669
0.00765976
0.00768796
0.00767157
0.00767597
0.00766955
0.00766023
0.00765538
0.00763328
0.0076782
0.00740569
0.00758201
0.00763798
0.00762645
0.00762942
0.00762293
0.00761528
0.00760903
0.0075823
0.00762932
0.0076821
0.00791283
0.00794569
0.00792607
0.00792583
0.00791738
0.00790932
0.00790079
0.00788268
0.00792136
0.00670202
0.00687212
0.00688165
0.00686112
0.00685808
0.00685077
0.00684489
0.00683737
0.00683214
0.00685622
0.00287357
0.00309601
0.0030788
0.00305255
0.00304655
0.00303663
0.00302798
0.00302026
0.00301773
0.00304158
0.003253
0.00351406
0.00352305
0.00351399
0.00351175
0.00350457
0.00349801
0.00349262
0.00348256
0.00352704
0.00313689
0.00337335
0.00338189
0.00337168
0.00337125
0.00336492
0.00335877
0.00335676
0.00334207
0.00339272
0.00312439
0.00340117
0.00340659
0.00339837
0.00340076
0.00339704
0.00339079
0.00339002
0.00337827
0.00342769
0.0030952
0.00335258
0.00335067
0.00334529
0.00334786
0.00334582
0.00334089
0.00334256
0.00333072
0.00338083
0.00309733
0.00338408
0.00338058
0.00336565
0.00336531
0.00336159
0.00335484
0.00335604
0.00334664
0.0033949
0.00309734
0.00338409
0.00338058
0.00336564
0.00336532
0.00336158
0.00335485
0.00335602
0.00334668
0.00339481
0.00309521
0.00335259
0.00335069
0.0033453
0.00334788
0.00334582
0.00334094
0.00334255
0.00333083
0.0033807
0.00312442
0.0034012
0.00340662
0.00339839
0.00340081
0.00339703
0.00339085
0.00338994
0.00337844
0.00342737
0.00313693
0.00337337
0.00338194
0.00337169
0.00337131
0.0033649
0.00335887
0.00335668
0.00334234
0.00339223
0.00325305
0.0035141
0.0035231
0.00351401
0.00351183
0.00350455
0.00349816
0.00349248
0.00348295
0.00352633
0.00287362
0.00309604
0.00307885
0.00305256
0.00304662
0.00303661
0.00302813
0.00302013
0.00301822
0.00304078
0.0013276
0.00152231
0.00148958
0.00145342
0.0014449
0.00143378
0.00142331
0.00141888
0.00141227
0.00144103
0.00132566
0.00158533
0.00158995
0.00159917
0.00159669
0.00159306
0.00159017
0.00159083
0.00158412
0.00163267
0.0012743
0.00151949
0.00152267
0.00152628
0.00152672
0.00152455
0.00152185
0.00152481
0.0015191
0.00156455
0.00125729
0.0015051
0.00151216
0.00151255
0.00151362
0.00151314
0.00151129
0.00151563
0.00151188
0.00156053
0.001249
0.00149224
0.00149418
0.00149611
0.00149466
0.00149254
0.00148954
0.00149328
0.0014902
0.00153536
0.00124415
0.00149726
0.00150318
0.00149888
0.00149496
0.00149158
0.00148741
0.0014903
0.00148787
0.00153246
0.00124415
0.00149727
0.00150318
0.00149888
0.00149496
0.00149158
0.00148742
0.00149029
0.0014879
0.00153242
0.00124901
0.00149223
0.0014942
0.00149611
0.00149468
0.00149253
0.00148957
0.00149323
0.00149027
0.00153512
0.00125731
0.00150511
0.00151218
0.00151255
0.00151364
0.00151312
0.00151135
0.00151558
0.00151204
0.00156025
0.00127432
0.0015195
0.00152269
0.00152628
0.00152677
0.00152453
0.00152195
0.00152471
0.00151931
0.00156402
0.00132568
0.00158534
0.00158998
0.00159916
0.00159676
0.00159303
0.00159033
0.00159075
0.00158463
0.00163207
0.00132761
0.00152234
0.00148961
0.00145345
0.00144495
0.00143379
0.00142349
0.00141882
0.00141295
0.00144038
0.000818614
0.00100296
0.000970924
0.000915637
0.000891569
0.000877908
0.000861295
0.000865563
0.00085073
0.000885936
0.000497264
0.000733267
0.000758929
0.00078897
0.000792892
0.000799478
0.000800649
0.000810123
0.00080546
0.000840883
0.000446834
0.000663085
0.000685574
0.000702992
0.000708309
0.000715306
0.000719457
0.000731456
0.000734398
0.00076811
0.000436889
0.000648752
0.000676532
0.000686084
0.000687343
0.000688512
0.000689735
0.000695952
0.000698581
0.000733122
0.000433618
0.000645007
0.000673524
0.000682609
0.000682665
0.000680117
0.000677281
0.0006787
0.000679553
0.000708496
0.000430214
0.000643816
0.000674732
0.000683642
0.000683615
0.000680505
0.000676335
0.000674837
0.000674541
0.000701717
0.000430214
0.00064382
0.000674734
0.000683643
0.000683616
0.000680504
0.000676324
0.000674829
0.000674546
0.000701638
0.00043362
0.000645005
0.000673539
0.000682607
0.000682681
0.000680108
0.000677314
0.000678656
0.000679599
0.000708348
0.000436893
0.00064875
0.000676546
0.000686078
0.00068736
0.000688482
0.000689767
0.000695868
0.000698627
0.000732726
0.00044684
0.000663082
0.000685593
0.000702984
0.000708345
0.000715256
0.000719529
0.000731345
0.000734518
0.000767655
0.00049726
0.000733274
0.000758936
0.000788986
0.000792909
0.000799461
0.000800818
0.000810023
0.000805783
0.000840461
0.000818584
0.00100302
0.000970913
0.000915748
0.000891578
0.000878055
0.000861682
0.000865701
0.000851863
0.000885589
0.000708442
0.000896288
0.000886318
0.00084922
0.000816433
0.000803567
0.000781562
0.000792123
0.000772529
0.000806677
0.000175614
0.000390385
0.000438754
0.000470445
0.00047919
0.00049803
0.000503651
0.00052167
0.000521625
0.000538824
9.34934e-05
0.000241625
0.000296008
0.000324245
0.000333507
0.000346198
0.000353554
0.000369419
0.000377907
0.000400256
8.90806e-05
0.000225119
0.000283617
0.000307389
0.000315828
0.000318789
0.000320507
0.00032361
0.000327292
0.000344555
8.81844e-05
0.000222647
0.000281415
0.000305839
0.000315474
0.000318051
0.000317728
0.000317387
0.000316491
0.000329737
8.73214e-05
0.000221488
0.000281125
0.000306285
0.000316568
0.000320298
0.000319865
0.000319221
0.000316195
0.000329143
8.73211e-05
0.000221494
0.000281118
0.000306295
0.000316555
0.000320302
0.000319849
0.000319222
0.000316192
0.000329129
8.81844e-05
0.00022264
0.000281434
0.000305828
0.000315497
0.000318044
0.00031777
0.000317354
0.000316511
0.000329668
8.90802e-05
0.000225117
0.000283621
0.000307395
0.000315826
0.00031877
0.000320498
0.000323564
0.000327216
0.000344204
9.3493e-05
0.000241597
0.000296048
0.000324196
0.000333562
0.000346041
0.000353464
0.000369249
0.000377713
0.00039954
0.000175656
0.000390293
0.000438815
0.000470381
0.0004792
0.000497729
0.000503646
0.000521526
0.000521445
0.000538096
0.000708358
0.000896377
0.00088632
0.000849392
0.000816352
0.000803782
0.00078227
0.000792417
0.000773812
0.000806747
0.000690892
0.00087995
0.000877284
0.000856032
0.000826796
0.000819078
0.000798608
0.000812475
0.000792154
0.000824253
0.000135166
0.000306605
0.000365241
0.000389388
0.000395966
0.000411036
0.000417095
0.000433503
0.000437026
0.000448246
2.00863e-05
7.15559e-05
0.000124974
0.000161665
0.000176544
0.000190125
0.000196069
0.000207339
0.00021366
0.000225995
1.17989e-05
4.25234e-05
7.74041e-05
0.000108483
0.000127555
0.000139457
0.000146331
0.000151632
0.000154453
0.000164086
1.1577e-05
4.11175e-05
7.43126e-05
0.000103989
0.000122433
0.000135516
0.000141838
0.0001475
0.000149089
0.00015769
1.14685e-05
4.0803e-05
7.35591e-05
0.000103949
0.000121975
0.000136055
0.000142215
0.000148721
0.000150066
0.000158559
1.14685e-05
4.08043e-05
7.35375e-05
0.000103965
0.000121961
0.000136061
0.000142205
0.00014872
0.000150069
0.000158558
1.15769e-05
4.11167e-05
7.43087e-05
0.000103983
0.000122436
0.000135503
0.000141845
0.000147485
0.000149084
0.00015765
1.1798e-05
4.2525e-05
7.72011e-05
0.000108626
0.000127389
0.000139523
0.000146097
0.00015164
0.000154357
0.000163791
2.00682e-05
7.15287e-05
0.000124951
0.000161583
0.000176484
0.00018969
0.000195651
0.000207128
0.000213222
0.000224794
0.000135128
0.000306392
0.000365443
0.000389127
0.000395924
0.000410079
0.000416737
0.000433481
0.000436888
0.000446679
0.000690768
0.000880066
0.000877267
0.000856266
0.000826611
0.000819382
0.000799519
0.000812805
0.000793412
0.000824388
0.000690892
0.00087995
0.000877284
0.000856032
0.000826796
0.000819078
0.000798608
0.000812475
0.000792154
0.000824253
0.000135166
0.000306605
0.000365241
0.000389388
0.000395966
0.000411036
0.000417095
0.000433503
0.000437026
0.000448246
2.00863e-05
7.15559e-05
0.000124973
0.000161665
0.000176544
0.000190125
0.000196069
0.000207339
0.00021366
0.000225995
1.17988e-05
4.25229e-05
7.74027e-05
0.000108482
0.000127554
0.000139457
0.000146331
0.000151632
0.000154453
0.000164086
1.15769e-05
4.11173e-05
7.43119e-05
0.000103989
0.000122433
0.000135515
0.000141838
0.0001475
0.000149089
0.00015769
1.14685e-05
4.08028e-05
7.35588e-05
0.000103949
0.000121975
0.000136055
0.000142215
0.000148721
0.000150066
0.000158559
1.14685e-05
4.08043e-05
7.35377e-05
0.000103965
0.000121961
0.000136061
0.000142205
0.00014872
0.000150069
0.000158558
1.1577e-05
4.11169e-05
7.43095e-05
0.000103983
0.000122436
0.000135503
0.000141845
0.000147485
0.000149084
0.00015765
1.17981e-05
4.25254e-05
7.72025e-05
0.000108627
0.00012739
0.000139524
0.000146097
0.00015164
0.000154357
0.000163791
2.00682e-05
7.15287e-05
0.000124951
0.000161583
0.000176484
0.00018969
0.000195651
0.000207129
0.000213222
0.000224794
0.000135128
0.000306392
0.000365443
0.000389127
0.000395925
0.000410079
0.000416737
0.000433481
0.000436888
0.000446679
0.000690768
0.000880066
0.000877267
0.000856266
0.000826611
0.000819382
0.000799519
0.000812805
0.000793412
0.000824387
0.000708442
0.000896288
0.000886318
0.00084922
0.000816433
0.000803567
0.000781561
0.000792122
0.000772529
0.000806677
0.000175614
0.000390385
0.000438754
0.000470445
0.00047919
0.00049803
0.000503651
0.00052167
0.000521626
0.000538824
9.34933e-05
0.000241625
0.000296008
0.000324245
0.000333507
0.000346198
0.000353554
0.000369419
0.000377907
0.000400256
8.90803e-05
0.000225118
0.000283616
0.000307389
0.000315827
0.000318789
0.000320507
0.00032361
0.000327292
0.000344555
8.81842e-05
0.000222647
0.000281415
0.000305839
0.000315474
0.000318051
0.000317728
0.000317387
0.000316491
0.000329737
8.73213e-05
0.000221488
0.000281125
0.000306285
0.000316568
0.000320298
0.000319865
0.000319221
0.000316195
0.000329143
8.73211e-05
0.000221494
0.000281118
0.000306295
0.000316555
0.000320302
0.000319849
0.000319222
0.000316192
0.000329129
8.81845e-05
0.000222641
0.000281435
0.000305828
0.000315497
0.000318044
0.00031777
0.000317354
0.000316511
0.000329668
8.90805e-05
0.000225118
0.000283622
0.000307395
0.000315826
0.00031877
0.000320498
0.000323564
0.000327216
0.000344204
9.3493e-05
0.000241597
0.000296048
0.000324196
0.000333562
0.000346041
0.000353464
0.000369249
0.000377713
0.000399539
0.000175656
0.000390293
0.000438815
0.000470381
0.0004792
0.000497729
0.000503646
0.000521526
0.000521445
0.000538096
0.000708358
0.000896377
0.00088632
0.000849392
0.000816352
0.000803782
0.00078227
0.000792417
0.000773812
0.000806747
0.000818614
0.00100296
0.000970924
0.000915637
0.000891569
0.000877908
0.000861295
0.000865563
0.000850729
0.000885936
0.000497264
0.000733267
0.000758929
0.00078897
0.000792893
0.000799478
0.000800649
0.000810123
0.00080546
0.000840883
0.000446834
0.000663085
0.000685574
0.000702992
0.000708309
0.000715306
0.000719457
0.000731456
0.000734398
0.00076811
0.000436889
0.000648752
0.000676532
0.000686084
0.000687343
0.000688512
0.000689735
0.000695952
0.000698581
0.000733122
0.000433618
0.000645007
0.000673524
0.000682609
0.000682665
0.000680116
0.000677281
0.0006787
0.000679554
0.000708496
0.000430214
0.000643816
0.000674732
0.000683642
0.000683615
0.000680505
0.000676335
0.000674837
0.000674541
0.000701716
0.000430214
0.00064382
0.000674734
0.000683643
0.000683616
0.000680504
0.000676324
0.000674829
0.000674546
0.000701637
0.00043362
0.000645005
0.000673539
0.000682607
0.000682682
0.000680108
0.000677314
0.000678655
0.000679599
0.000708348
0.000436893
0.00064875
0.000676546
0.000686078
0.00068736
0.000688482
0.000689766
0.000695868
0.000698627
0.000732727
0.00044684
0.000663082
0.000685593
0.000702984
0.000708345
0.000715256
0.000719529
0.000731345
0.000734518
0.000767654
0.00049726
0.000733274
0.000758936
0.000788986
0.000792909
0.000799461
0.000800818
0.000810023
0.000805783
0.000840459
0.000818584
0.00100302
0.000970913
0.000915748
0.000891578
0.000878055
0.000861682
0.000865701
0.000851863
0.000885589
0.0013276
0.00152231
0.00148958
0.00145342
0.0014449
0.00143378
0.00142331
0.00141888
0.00141227
0.00144103
0.00132566
0.00158533
0.00158995
0.00159917
0.0015967
0.00159306
0.00159017
0.00159083
0.00158412
0.00163267
0.0012743
0.00151949
0.00152267
0.00152628
0.00152672
0.00152455
0.00152185
0.00152481
0.0015191
0.00156455
0.00125729
0.0015051
0.00151216
0.00151255
0.00151362
0.00151314
0.00151129
0.00151563
0.00151188
0.00156053
0.001249
0.00149224
0.00149418
0.00149611
0.00149466
0.00149254
0.00148954
0.00149328
0.0014902
0.00153536
0.00124415
0.00149726
0.00150318
0.00149888
0.00149496
0.00149158
0.00148741
0.0014903
0.00148787
0.00153246
0.00124415
0.00149727
0.00150318
0.00149888
0.00149496
0.00149158
0.00148742
0.00149029
0.0014879
0.00153242
0.00124901
0.00149223
0.0014942
0.00149611
0.00149468
0.00149253
0.00148957
0.00149323
0.00149027
0.00153512
0.00125731
0.00150511
0.00151218
0.00151255
0.00151364
0.00151312
0.00151135
0.00151558
0.00151204
0.00156025
0.00127432
0.0015195
0.00152269
0.00152628
0.00152677
0.00152453
0.00152195
0.00152471
0.00151931
0.00156402
0.00132568
0.00158534
0.00158998
0.00159916
0.00159675
0.00159303
0.00159033
0.00159075
0.00158463
0.00163206
0.00132761
0.00152234
0.00148961
0.00145345
0.00144495
0.00143379
0.00142349
0.00141882
0.00141295
0.00144038
0.00287357
0.00309601
0.0030788
0.00305255
0.00304655
0.00303663
0.00302798
0.00302026
0.00301773
0.00304158
0.003253
0.00351406
0.00352305
0.00351399
0.00351175
0.00350457
0.00349801
0.00349262
0.00348256
0.00352704
0.00313689
0.00337335
0.00338189
0.00337168
0.00337125
0.00336491
0.00335877
0.00335676
0.00334207
0.00339272
0.00312439
0.00340117
0.00340659
0.00339837
0.00340076
0.00339704
0.00339079
0.00339002
0.00337827
0.00342769
0.0030952
0.00335258
0.00335067
0.00334529
0.00334786
0.00334582
0.00334089
0.00334257
0.00333072
0.00338083
0.00309733
0.00338408
0.00338058
0.00336565
0.00336531
0.00336159
0.00335483
0.00335604
0.00334664
0.0033949
0.00309734
0.00338409
0.00338058
0.00336564
0.00336532
0.00336158
0.00335485
0.00335602
0.00334668
0.00339481
0.00309521
0.00335259
0.00335069
0.0033453
0.00334788
0.00334582
0.00334094
0.00334254
0.00333083
0.0033807
0.00312442
0.0034012
0.00340662
0.00339839
0.00340081
0.00339703
0.00339085
0.00338994
0.00337844
0.00342737
0.00313693
0.00337337
0.00338194
0.00337169
0.00337131
0.0033649
0.00335887
0.00335668
0.00334234
0.00339223
0.00325305
0.0035141
0.0035231
0.003514
0.00351182
0.00350455
0.00349816
0.00349248
0.00348295
0.0035263
0.00287362
0.00309604
0.00307885
0.00305256
0.00304662
0.00303661
0.00302813
0.00302013
0.00301822
0.00304078
0.00670194
0.00687204
0.00688156
0.00686107
0.00685797
0.00685077
0.00684472
0.00683751
0.00683166
0.00685716
0.007682
0.00791274
0.00794559
0.007926
0.00792572
0.00791737
0.00790915
0.00790091
0.0078823
0.00792203
0.00740561
0.00758195
0.0076379
0.0076264
0.00762933
0.00762292
0.00761515
0.00760912
0.007582
0.00762983
0.00736663
0.0076597
0.00768789
0.00767153
0.00767589
0.00766954
0.00766014
0.00765544
0.00763308
0.00767852
0.00732921
0.00758041
0.00759465
0.00758531
0.00759189
0.00758967
0.0075832
0.00758243
0.00755752
0.00760501
0.00732009
0.00759642
0.00761916
0.00760342
0.00760938
0.00760491
0.00759573
0.00759503
0.0075731
0.00762054
0.00732011
0.00759644
0.00761917
0.00760343
0.00760939
0.00760491
0.00759576
0.00759501
0.00757317
0.00762047
0.00732925
0.00758045
0.00759468
0.00758533
0.00759193
0.00758968
0.00758326
0.00758238
0.00755764
0.00760485
0.00736668
0.00765976
0.00768796
0.00767157
0.00767597
0.00766955
0.00766023
0.00765538
0.00763328
0.0076782
0.00740569
0.00758201
0.00763798
0.00762645
0.00762942
0.00762293
0.00761528
0.00760904
0.0075823
0.00762932
0.0076821
0.00791283
0.00794568
0.00792607
0.00792582
0.00791738
0.00790932
0.00790079
0.00788268
0.00792125
0.00670202
0.00687212
0.00688165
0.00686112
0.00685808
0.00685078
0.0068449
0.00683737
0.00683214
0.00685622
0.0156191
0.0157399
0.0157611
0.0157375
0.0157341
0.0157258
0.0157194
0.0157106
0.0157035
0.0157337
0.0176302
0.0178304
0.0179064
0.0178812
0.0178833
0.0178733
0.0178634
0.0178525
0.0178239
0.0178646
0.0171847
0.0172987
0.017412
0.0173908
0.0173948
0.0173854
0.0173748
0.0173648
0.0173186
0.0173631
0.0169285
0.017183
0.017253
0.0172377
0.0172441
0.017237
0.0172271
0.0172202
0.0171854
0.0172328
0.0169675
0.0171851
0.0172587
0.0172489
0.0172567
0.0172534
0.0172456
0.0172417
0.0172031
0.0172503
0.0168909
0.0171255
0.0172001
0.0171902
0.0171992
0.0171945
0.0171861
0.0171839
0.0171482
0.0171997
0.016891
0.0171256
0.0172001
0.0171902
0.0171992
0.0171945
0.0171861
0.0171839
0.0171482
0.0171996
0.0169676
0.0171852
0.0172588
0.017249
0.0172568
0.0172534
0.0172456
0.0172417
0.0172033
0.0172501
0.0169287
0.0171831
0.0172531
0.0172378
0.0172442
0.0172371
0.0172273
0.0172202
0.0171857
0.0172324
0.0171848
0.0172989
0.0174121
0.017391
0.0173949
0.0173855
0.017375
0.0173648
0.017319
0.0173624
0.0176304
0.0178306
0.0179066
0.0178813
0.0178835
0.0178734
0.0178636
0.0178524
0.0178243
0.0178638
0.0156193
0.0157401
0.0157613
0.0157376
0.0157343
0.0157258
0.0157196
0.0157105
0.0157041
0.0157327
0.0362732
0.0363577
0.0363519
0.0363188
0.0363103
0.0362983
0.0362907
0.0362792
0.0362873
0.0363282
0.0394535
0.0395784
0.0396732
0.0396376
0.0396356
0.0396217
0.0396098
0.039595
0.0395677
0.039616
0.0392861
0.039374
0.0395583
0.0395321
0.0395345
0.039523
0.0395113
0.0394976
0.0394379
0.0394839
0.0386922
0.0389972
0.0390806
0.0390705
0.039072
0.039065
0.0390576
0.0390498
0.0390234
0.0390724
0.0387999
0.0390542
0.0391616
0.0391551
0.0391597
0.0391556
0.0391492
0.0391441
0.0391096
0.0391605
0.0387128
0.0390015
0.0391078
0.0391071
0.0391132
0.039109
0.0391026
0.0390987
0.0390629
0.0391162
0.0387128
0.0390016
0.0391079
0.0391071
0.0391133
0.039109
0.0391027
0.0390987
0.039063
0.0391161
0.0388001
0.0390544
0.0391618
0.0391553
0.0391599
0.0391557
0.0391494
0.0391441
0.0391099
0.0391602
0.0386925
0.0389975
0.0390809
0.0390707
0.0390722
0.0390651
0.0390579
0.0390498
0.0390238
0.039072
0.0392865
0.0393744
0.0395587
0.0395324
0.0395348
0.0395232
0.0395116
0.0394976
0.0394384
0.0394832
0.039454
0.0395788
0.0396737
0.039638
0.039636
0.039622
0.0396102
0.039595
0.0395684
0.0396153
0.0362736
0.0363582
0.0363523
0.0363192
0.0363107
0.0362985
0.0362911
0.0362792
0.0362881
0.0363272
0.0834993
0.0836915
0.0835367
0.0834749
0.0834515
0.083429
0.0834175
0.0833994
0.083467
0.0835304
0.0888506
0.0892688
0.0891684
0.0891213
0.0891046
0.0890862
0.0890756
0.0890601
0.0891057
0.0891576
0.0883655
0.0889889
0.0889654
0.0889341
0.0889237
0.0889093
0.0888997
0.0888866
0.0889031
0.0889442
0.0885695
0.0891213
0.08913
0.0891038
0.0890976
0.0890843
0.0890742
0.0890613
0.0890634
0.0891079
0.0884803
0.0891511
0.089197
0.0891826
0.0891807
0.0891701
0.0891606
0.0891501
0.0891391
0.0891857
0.0884751
0.0891018
0.0891544
0.0891411
0.0891407
0.0891305
0.0891213
0.0891118
0.0890985
0.0891472
0.0884752
0.0891019
0.0891545
0.0891412
0.0891408
0.0891306
0.0891214
0.0891118
0.0890986
0.089147
0.0884809
0.0891516
0.0891974
0.0891831
0.0891811
0.0891704
0.089161
0.0891503
0.0891396
0.0891855
0.0885701
0.0891219
0.0891306
0.0891043
0.0890982
0.0890847
0.0890747
0.0890614
0.0890641
0.0891074
0.0883664
0.0889899
0.0889664
0.0889349
0.0889245
0.0889099
0.0889005
0.0888869
0.0889041
0.0889439
0.0888517
0.0892698
0.0891694
0.0891222
0.0891055
0.0890868
0.0890764
0.0890603
0.0891069
0.089157
0.0835004
0.0836925
0.0835377
0.0834758
0.0834525
0.0834296
0.0834184
0.0833995
0.0834686
0.0835293
0.107278
0.107049
0.106942
0.106884
0.106857
0.106834
0.106822
0.106803
0.106859
0.106924
0.0935387
0.0937109
0.0936017
0.0935746
0.093559
0.0935463
0.0935387
0.0935265
0.093564
0.0936053
0.0920109
0.0921803
0.0920549
0.0920324
0.0920162
0.0920045
0.0919972
0.0919852
0.0920222
0.0920632
0.0923208
0.0925463
0.0924563
0.0924404
0.0924262
0.0924157
0.0924081
0.092397
0.092423
0.0924706
0.0921568
0.0923897
0.0922992
0.0922866
0.0922736
0.092264
0.0922564
0.0922464
0.0922687
0.0923192
0.0921969
0.0924328
0.0923571
0.0923474
0.0923352
0.0923262
0.0923185
0.092309
0.092328
0.0923814
0.092197
0.0924329
0.0923572
0.0923475
0.0923353
0.0923262
0.0923186
0.092309
0.0923282
0.0923812
0.0921573
0.0923902
0.0922997
0.0922871
0.092274
0.0922644
0.0922568
0.0922466
0.0922692
0.092319
0.0923215
0.092547
0.0924568
0.0924408
0.0924266
0.092416
0.0924084
0.0923972
0.0924235
0.0924702
0.0920118
0.0921814
0.0920559
0.0920332
0.092017
0.0920052
0.0919979
0.0919856
0.092023
0.0920628
0.0935398
0.0937119
0.0936026
0.0935754
0.0935598
0.0935469
0.0935393
0.0935267
0.0935648
0.0936048
0.107279
0.10705
0.106943
0.106885
0.106858
0.106835
0.106823
0.106803
0.106861
0.106923
0.317872
0.317501
0.317258
0.316976
0.316743
0.316482
0.316242
0.315989
0.315745
0.315495
0.31525
0.315002
0.314754
0.314504
0.314254
0.314008
0.313764
0.313519
0.313268
0.31301
0.312752
0.312501
0.312265
0.312042
0.31183
0.311621
0.311409
0.31119
0.310968
0.310747
0.310532
0.310328
0.310138
0.309961
0.309793
0.309635
0.309479
0.309329
0.309176
0.30903
0.30144
0.301134
0.300918
0.300663
0.300452
0.300216
0.299999
0.29977
0.299549
0.299323
0.299101
0.298876
0.298652
0.298425
0.2982
0.297976
0.297755
0.297533
0.297305
0.297073
0.29684
0.296612
0.296397
0.296193
0.295998
0.295806
0.295611
0.295412
0.295208
0.295005
0.294808
0.29462
0.294443
0.294278
0.29412
0.29397
0.293823
0.29368
0.293535
0.293389
0.298526
0.298237
0.298025
0.297777
0.297569
0.297338
0.297124
0.2969
0.296683
0.296461
0.296243
0.296023
0.295803
0.295581
0.29536
0.29514
0.294924
0.294705
0.294483
0.294255
0.294026
0.293803
0.29359
0.29339
0.293198
0.293009
0.292818
0.292622
0.292422
0.292223
0.292029
0.291843
0.291669
0.291505
0.291349
0.291201
0.291055
0.290913
0.29077
0.290618
0.298811
0.298506
0.29829
0.298042
0.297833
0.297602
0.297388
0.297164
0.296947
0.296725
0.296507
0.296287
0.296067
0.295845
0.295624
0.295405
0.295188
0.29497
0.294748
0.29452
0.294291
0.294068
0.293855
0.293654
0.293462
0.293273
0.293082
0.292886
0.292686
0.292487
0.292292
0.292107
0.291932
0.291768
0.291612
0.291464
0.291317
0.291176
0.291033
0.290875
0.298716
0.298406
0.298188
0.297941
0.297731
0.297501
0.297287
0.297063
0.296847
0.296625
0.296408
0.296188
0.295969
0.295747
0.295527
0.295308
0.295091
0.294874
0.294652
0.294425
0.294196
0.293973
0.29376
0.293559
0.293368
0.293179
0.292988
0.292792
0.292593
0.292394
0.2922
0.292015
0.29184
0.291676
0.29152
0.291371
0.291225
0.291084
0.29094
0.29078
0.298775
0.29846
0.298241
0.297995
0.297784
0.297554
0.29734
0.297116
0.2969
0.296678
0.29646
0.296241
0.296021
0.2958
0.29558
0.295361
0.295145
0.294927
0.294705
0.294478
0.29425
0.294026
0.293813
0.293612
0.29342
0.293231
0.29304
0.292845
0.292645
0.292447
0.292253
0.292068
0.291893
0.291728
0.291572
0.291423
0.291277
0.291136
0.290993
0.29083
0.298785
0.298475
0.298258
0.298012
0.297801
0.297571
0.297356
0.297133
0.296916
0.296694
0.296476
0.296257
0.296037
0.295816
0.295596
0.295377
0.295161
0.294943
0.294721
0.294495
0.294266
0.294042
0.293829
0.293628
0.293436
0.293247
0.293056
0.29286
0.292661
0.292462
0.292269
0.292084
0.291909
0.291744
0.291588
0.291439
0.291293
0.291152
0.291009
0.290846
0.298747
0.298451
0.298238
0.297992
0.297781
0.29755
0.297336
0.297112
0.296895
0.296674
0.296456
0.296236
0.296017
0.295796
0.295576
0.295357
0.295141
0.294923
0.294701
0.294474
0.294246
0.294022
0.293808
0.293607
0.293415
0.293227
0.293036
0.29284
0.292641
0.292442
0.292249
0.292064
0.291889
0.291725
0.291568
0.291419
0.291273
0.291132
0.290989
0.290828
0.298864
0.298584
0.298374
0.298127
0.297917
0.297685
0.297471
0.297246
0.297029
0.296807
0.296588
0.296368
0.296148
0.295927
0.295707
0.295488
0.295271
0.295053
0.294831
0.294604
0.294374
0.29415
0.293936
0.293735
0.293543
0.293354
0.293162
0.292966
0.292766
0.292568
0.292374
0.29219
0.292015
0.29185
0.291693
0.291544
0.291398
0.291257
0.291114
0.290957
0.298602
0.298346
0.298143
0.297896
0.297686
0.297454
0.29724
0.297015
0.296798
0.296575
0.296357
0.296137
0.295917
0.295696
0.295476
0.295257
0.29504
0.294821
0.294599
0.294372
0.294143
0.293918
0.293705
0.293503
0.293312
0.293122
0.292931
0.292734