/*--------------------------------*- C++ -*----------------------------------*\
  =========                 |
  \\      /  F ield         | OpenFOAM: The Open Source CFD Toolbox
   \\    /   O peration     | Website:  https://openfoam.org
    \\  /    A nd           | Version:  7
     \\/     M anipulation  |
\*---------------------------------------------------------------------------*/
FoamFile
{
    version     2.0;
    format      ascii;
    class       volScalarField;
    location    "0.0375";
    object      rho_0;
}
// * * * * * * * * * * * * * * * * * * * * * * * * * * * * * * * * * * * * * //

dimensions      [1 -3 0 0 0 0 0];

internalField   nonuniform List<scalar> 
1440
(
1.19932
1.19869
1.19805
1.19738
1.1967
1.19598
1.19525
1.19448
1.19369
1.19287
1.19202
1.19114
1.19022
1.18928
1.18831
1.18732
1.18632
1.18532
1.18433
1.18336
1.18241
1.18148
1.18054
1.17958
1.17857
1.17752
1.17644
1.1754
1.17445
1.17364
1.17296
1.17233
1.17163
1.17076
1.16965
1.16842
1.1673
1.16657
1.16633
1.16632
1.1661
1.16533
1.16397
1.16238
1.16101
1.16024
1.16013
1.16052
1.1611
1.16161
1.16191
1.16196
1.1618
1.16152
1.16118
1.16085
1.16053
1.16025
1.16001
1.15979
1.15959
1.15942
1.15927
1.15913
1.15901
1.1589
1.15881
1.15874
1.15867
1.15861
1.15856
1.15851
1.15846
1.15842
1.15838
1.15833
1.15829
1.15825
1.15821
1.15817
1.15814
1.15811
1.15809
1.15808
1.15807
1.15806
1.15806
1.15806
1.15806
1.15807
1.15807
1.15806
1.15805
1.15803
1.158
1.15796
1.1579
1.15785
1.15778
1.15771
1.15763
1.15756
1.15749
1.15742
1.15736
1.15731
1.15726
1.15722
1.15718
1.15715
1.15711
1.15708
1.15705
1.15702
1.15699
1.15696
1.15693
1.15688
1.15686
1.1568
1.19961
1.19965
1.19968
1.19968
1.19965
1.19959
1.1995
1.19937
1.19921
1.19903
1.19881
1.19857
1.19831
1.19803
1.19773
1.19742
1.19709
1.19675
1.19641
1.19606
1.19571
1.19536
1.19502
1.19467
1.19433
1.19399
1.19365
1.19331
1.19297
1.19263
1.19229
1.19196
1.19163
1.1913
1.19096
1.1906
1.19022
1.18983
1.18943
1.18905
1.18868
1.18831
1.18793
1.18753
1.1871
1.18666
1.18624
1.18586
1.18552
1.18523
1.18497
1.18475
1.18455
1.18435
1.18417
1.18398
1.18378
1.18357
1.18335
1.18311
1.18287
1.18261
1.18235
1.18208
1.18183
1.18159
1.18137
1.18119
1.18105
1.18095
1.18088
1.18086
1.18087
1.1809
1.18095
1.18098
1.18101
1.18101
1.18098
1.18091
1.1808
1.18065
1.18048
1.18028
1.1801
1.17994
1.17983
1.17977
1.17976
1.17982
1.17994
1.18012
1.18037
1.18066
1.18099
1.18133
1.18164
1.18191
1.18212
1.18224
1.18227
1.18223
1.18211
1.18195
1.18177
1.18157
1.1814
1.18126
1.18115
1.18108
1.18106
1.18106
1.18111
1.18115
1.18124
1.1813
1.18141
1.18145
1.18153
1.18154
1.19959
1.19959
1.19959
1.19959
1.19959
1.19959
1.19959
1.19958
1.19958
1.19957
1.19955
1.19953
1.1995
1.19946
1.19942
1.19937
1.19931
1.19925
1.19918
1.1991
1.19902
1.19895
1.19887
1.19879
1.19871
1.19863
1.19856
1.19849
1.19842
1.19836
1.1983
1.19824
1.19818
1.19812
1.19806
1.198
1.19793
1.19786
1.19778
1.19769
1.19759
1.19748
1.19736
1.19723
1.19709
1.19695
1.19679
1.19663
1.19646
1.1963
1.19614
1.19598
1.19584
1.1957
1.19558
1.19548
1.19539
1.19531
1.19525
1.1952
1.19516
1.19513
1.1951
1.19506
1.19502
1.19497
1.19491
1.19483
1.19474
1.19462
1.19449
1.19433
1.19415
1.19397
1.19377
1.19356
1.19335
1.19313
1.19292
1.19273
1.19257
1.19244
1.19233
1.19225
1.1922
1.19221
1.19227
1.19238
1.19254
1.19273
1.19294
1.19316
1.1934
1.19366
1.19393
1.19418
1.19438
1.19451
1.19457
1.19456
1.19448
1.19434
1.19412
1.19382
1.19343
1.19296
1.19245
1.1919
1.19141
1.19096
1.19062
1.19036
1.19021
1.19024
1.19028
1.19078
1.19096
1.19225
1.19239
1.19473
1.19958
1.19958
1.19958
1.19958
1.19957
1.19957
1.19957
1.19956
1.19956
1.19955
1.19954
1.19953
1.19952
1.1995
1.19949
1.19947
1.19945
1.19942
1.1994
1.19937
1.19934
1.19932
1.1993
1.19927
1.19925
1.19924
1.19923
1.19922
1.19921
1.19922
1.19922
1.19923
1.19924
1.19926
1.19928
1.19929
1.19931
1.19932
1.19933
1.19934
1.19933
1.19932
1.1993
1.19927
1.19923
1.19918
1.19912
1.19906
1.19899
1.19891
1.19883
1.19876
1.19868
1.19861
1.19855
1.19851
1.19847
1.19846
1.19845
1.19847
1.1985
1.19855
1.19862
1.1987
1.19879
1.19888
1.19898
1.19906
1.19914
1.1992
1.19924
1.19927
1.19926
1.19921
1.19913
1.199
1.19885
1.19868
1.19848
1.19826
1.19801
1.19774
1.19746
1.1972
1.19698
1.19681
1.19669
1.19661
1.19656
1.19654
1.19661
1.19677
1.19705
1.19741
1.19783
1.19824
1.19865
1.19905
1.19948
1.19994
1.20042
1.20086
1.2012
1.20137
1.20136
1.20119
1.20089
1.20054
1.20003
1.19952
1.19867
1.19795
1.19666
1.19586
1.19438
1.19382
1.19255
1.19233
1.19154
1.1915
1.19957
1.19957
1.19957
1.19957
1.19957
1.19957
1.19956
1.19956
1.19955
1.19954
1.19954
1.19952
1.19951
1.1995
1.19948
1.19946
1.19944
1.19941
1.19939
1.19936
1.19934
1.19932
1.19929
1.19927
1.19926
1.19925
1.19924
1.19924
1.19924
1.19925
1.19926
1.19927
1.19929
1.19932
1.19934
1.19937
1.19939
1.19941
1.19943
1.19944
1.19945
1.19945
1.19944
1.19942
1.19939
1.19935
1.19931
1.19926
1.1992
1.19914
1.19907
1.19901
1.19895
1.1989
1.19885
1.19882
1.1988
1.19879
1.19881
1.19884
1.19889
1.19895
1.19904
1.19914
1.19925
1.19937
1.1995
1.19961
1.19972
1.19982
1.1999
1.19997
1.20001
1.20001
1.19997
1.19988
1.19976
1.19961
1.19945
1.19927
1.19904
1.19876
1.19846
1.19817
1.19791
1.19771
1.19757
1.19746
1.19736
1.19727
1.19724
1.19732
1.19755
1.19791
1.19836
1.19883
1.19927
1.19969
1.20014
1.20066
1.20127
1.20189
1.20247
1.20287
1.20306
1.20306
1.20286
1.20263
1.2022
1.20186
1.20105
1.20042
1.19904
1.19809
1.19634
1.19535
1.19381
1.19295
1.19207
1.19115
1.19957
1.19957
1.19957
1.19957
1.19957
1.19956
1.19956
1.19956
1.19955
1.19954
1.19953
1.19952
1.19951
1.1995
1.19948
1.19946
1.19944
1.19941
1.19939
1.19936
1.19934
1.19931
1.19929
1.19927
1.19926
1.19924
1.19924
1.19923
1.19924
1.19924
1.19925
1.19927
1.19929
1.19931
1.19934
1.19936
1.19939
1.19941
1.19943
1.19944
1.19944
1.19944
1.19943
1.19941
1.19939
1.19935
1.1993
1.19925
1.19919
1.19913
1.19907
1.199
1.19894
1.19889
1.19885
1.19881
1.1988
1.1988
1.19881
1.19885
1.1989
1.19897
1.19906
1.19916
1.19928
1.1994
1.19953
1.19964
1.19975
1.19985
1.19993
1.2
1.20005
1.20004
1.19999
1.1999
1.19978
1.19963
1.19948
1.19929
1.19905
1.19877
1.19847
1.19817
1.19792
1.19774
1.1976
1.19749
1.19738
1.19729
1.19727
1.19737
1.19762
1.198
1.19846
1.19893
1.19937
1.19979
1.20025
1.20079
1.20142
1.20206
1.20264
1.20303
1.2032
1.20317
1.20295
1.20272
1.20228
1.20193
1.2011
1.20045
1.199
1.19803
1.19623
1.19523
1.19366
1.19282
1.19193
1.19104
1.19957
1.19957
1.19957
1.19957
1.19957
1.19956
1.19956
1.19956
1.19955
1.19954
1.19953
1.19952
1.19951
1.1995
1.19948
1.19946
1.19944
1.19941
1.19939
1.19936
1.19934
1.19931
1.19929
1.19927
1.19926
1.19924
1.19924
1.19923
1.19924
1.19924
1.19925
1.19927
1.19929
1.19931
1.19934
1.19936
1.19939
1.19941
1.19943
1.19944
1.19944
1.19944
1.19943
1.19941
1.19939
1.19935
1.1993
1.19925
1.19919
1.19913
1.19907
1.199
1.19894
1.19889
1.19885
1.19881
1.1988
1.1988
1.19881
1.19885
1.1989
1.19897
1.19905
1.19916
1.19928
1.1994
1.19952
1.19964
1.19975
1.19985
1.19993
1.2
1.20004
1.20004
1.19999
1.1999
1.19977
1.19963
1.19947
1.19929
1.19905
1.19877
1.19846
1.19817
1.19792
1.19774
1.1976
1.19749
1.19738
1.19729
1.19727
1.19737
1.19762
1.198
1.19847
1.19893
1.19937
1.19979
1.20025
1.20079
1.20142
1.20207
1.20264
1.20303
1.2032
1.20317
1.20295
1.20272
1.20228
1.20193
1.2011
1.20044
1.199
1.19802
1.19621
1.19522
1.19365
1.19282
1.19192
1.19103
1.19957
1.19957
1.19957
1.19957
1.19957
1.19957
1.19956
1.19956
1.19955
1.19954
1.19954
1.19952
1.19951
1.1995
1.19948
1.19946
1.19944
1.19941
1.19939
1.19936
1.19934
1.19931
1.19929
1.19927
1.19926
1.19924
1.19924
1.19923
1.19924
1.19924
1.19925
1.19927
1.19929
1.19931
1.19934
1.19936
1.19939
1.19941
1.19943
1.19944
1.19945
1.19944
1.19943
1.19942
1.19939
1.19935
1.19931
1.19926
1.1992
1.19914
1.19907
1.19901
1.19895
1.1989
1.19885
1.19882
1.1988
1.1988
1.19881
1.19885
1.1989
1.19896
1.19905
1.19915
1.19926
1.19939
1.19951
1.19963
1.19974
1.19983
1.19992
1.19999
1.20004
1.20004
1.2
1.19991
1.19979
1.19965
1.19949
1.1993
1.19908
1.1988
1.1985
1.19821
1.19795
1.19776
1.19762
1.19751
1.19741
1.19732
1.19729
1.19738
1.19761
1.19797
1.19842
1.19888
1.19933
1.19975
1.2002
1.20072
1.20133
1.20196
1.20254
1.20295
1.20314
1.20313
1.20293
1.20271
1.20228
1.20194
1.20113
1.2005
1.19911
1.19815
1.1964
1.1954
1.19386
1.19299
1.19212
1.1912
1.19958
1.19958
1.19958
1.19958
1.19957
1.19957
1.19956
1.19956
1.19955
1.19955
1.19954
1.19953
1.19951
1.1995
1.19948
1.19946
1.19944
1.19941
1.19939
1.19937
1.19934
1.19932
1.19929
1.19928
1.19926
1.19925
1.19924
1.19923
1.19924
1.19924
1.19925
1.19927
1.19929
1.19931
1.19933
1.19936
1.19938
1.1994
1.19942
1.19943
1.19944
1.19944
1.19943
1.19941
1.19938
1.19935
1.1993
1.19925
1.19919
1.19913
1.19907
1.199
1.19895
1.19889
1.19885
1.19882
1.1988
1.1988
1.19882
1.19885
1.19891
1.19898
1.19906
1.19916
1.19927
1.19939
1.19951
1.19962
1.19972
1.1998
1.19988
1.19993
1.19995
1.19993
1.19987
1.19977
1.19964
1.19949
1.19932
1.19912
1.19889
1.19864
1.19837
1.19813
1.19792
1.19777
1.19766
1.19759
1.19755
1.19754
1.19761
1.19778
1.19806
1.19844
1.19887
1.1993
1.19971
1.20012
1.20056
1.20104
1.20154
1.202
1.20236
1.20254
1.20255
1.20239
1.2021
1.20175
1.20124
1.20075
1.19988
1.19916
1.19784
1.19702
1.1955
1.19489
1.19358
1.19331
1.19252
1.19239
1.19959
1.19959
1.19959
1.19958
1.19958
1.19958
1.19957
1.19957
1.19956
1.19955
1.19954
1.19953
1.19952
1.1995
1.19948
1.19946
1.19943
1.19941
1.19938
1.19936
1.19933
1.1993
1.19928
1.19926
1.19924
1.19923
1.19922
1.19921
1.19922
1.19922
1.19923
1.19925
1.19926
1.19928
1.1993
1.19932
1.19934
1.19936
1.19936
1.19937
1.19936
1.19935
1.19932
1.19929
1.19925
1.19921
1.19916
1.1991
1.19904
1.19899
1.19894
1.19889
1.19886
1.19883
1.19883
1.19883
1.19885
1.19889
1.19894
1.19901
1.19908
1.19916
1.19924
1.19932
1.1994
1.19946
1.19951
1.19954
1.19955
1.19954
1.19951
1.19944
1.19936
1.19926
1.19915
1.19902
1.19888
1.19874
1.1986
1.19847
1.19837
1.1983
1.19824
1.19821
1.19822
1.19826
1.19836
1.19852
1.19871
1.19893
1.19916
1.19941
1.19967
1.19996
1.20024
1.20051
1.20073
1.20088
1.20095
1.20094
1.20087
1.20073
1.20051
1.2002
1.19981
1.19933
1.1988
1.19823
1.19771
1.19721
1.19683
1.19654
1.19634
1.19634
1.19633
1.19682
1.19694
1.19825
1.19833
1.20073
1.1996
1.1996
1.1996
1.19959
1.19959
1.19958
1.19958
1.19957
1.19955
1.19954
1.19952
1.1995
1.19947
1.19945
1.19942
1.19939
1.19936
1.19932
1.19929
1.19926
1.19923
1.19921
1.19919
1.19917
1.19916
1.19915
1.19915
1.19915
1.19915
1.19916
1.19917
1.19919
1.1992
1.19921
1.19922
1.19922
1.19921
1.19919
1.19917
1.19914
1.19911
1.19907
1.19903
1.19899
1.19895
1.19892
1.19889
1.19888
1.19888
1.1989
1.19893
1.19897
1.19903
1.19909
1.19915
1.1992
1.19925
1.19928
1.19929
1.19928
1.19924
1.19919
1.19912
1.19903
1.19893
1.19884
1.19877
1.19871
1.19869
1.19869
1.19873
1.19881
1.19892
1.19906
1.1992
1.19934
1.19947
1.19957
1.19964
1.19966
1.19963
1.19954
1.19941
1.19924
1.19906
1.19889
1.19874
1.19863
1.19858
1.19858
1.19866
1.19881
1.19903
1.19931
1.19963
1.19998
1.20032
1.20062
1.20088
1.20105
1.20116
1.20118
1.20114
1.20105
1.20093
1.2008
1.20068
1.20057
1.20049
1.20044
1.20044
1.20045
1.2005
1.20056
1.20066
1.20073
1.20085
1.2009
1.201
1.20103
1.19962
1.19961
1.19959
1.19957
1.19955
1.19952
1.19949
1.19947
1.19944
1.19941
1.19939
1.19936
1.19934
1.19931
1.19928
1.19926
1.19924
1.19922
1.19921
1.19921
1.19922
1.19923
1.19923
1.19923
1.19922
1.1992
1.19918
1.19916
1.19915
1.19916
1.19917
1.19918
1.19918
1.19917
1.19915
1.19912
1.1991
1.1991
1.19911
1.19912
1.19913
1.19912
1.1991
1.19908
1.19906
1.19906
1.19906
1.19908
1.19909
1.19911
1.19912
1.19913
1.19913
1.19913
1.19913
1.19912
1.19911
1.19911
1.1991
1.19909
1.19909
1.19909
1.19908
1.19909
1.19909
1.1991
1.19911
1.19912
1.19914
1.19915
1.19917
1.19919
1.1992
1.19921
1.19922
1.19923
1.19923
1.19923
1.19923
1.19922
1.19922
1.19922
1.19922
1.19923
1.19924
1.19926
1.19929
1.19932
1.19936
1.19939
1.19943
1.19947
1.19951
1.19954
1.19956
1.19957
1.19957
1.19957
1.19955
1.19953
1.1995
1.19947
1.19944
1.19941
1.19938
1.19935
1.19933
1.19931
1.19929
1.19927
1.19926
1.19924
1.19922
1.19921
1.19919
1.19917
1.19915
1.19912
1.1991
1.19905
)
;

boundaryField
{
    upperWall
    {
        type            calculated;
        value           nonuniform List<scalar> 
120
(
1.19962
1.19961
1.1996
1.19959
1.19957
1.19955
1.19953
1.19951
1.19949
1.19947
1.19945
1.19943
1.19941
1.19939
1.19937
1.19935
1.19933
1.19931
1.1993
1.19928
1.19927
1.19926
1.19924
1.19923
1.19922
1.19921
1.1992
1.19919
1.19918
1.19917
1.19916
1.19916
1.19915
1.19914
1.19914
1.19913
1.19912
1.19912
1.19911
1.1991
1.1991
1.19909
1.19909
1.19908
1.19908
1.19907
1.19906
1.19906
1.19905
1.19905
1.19904
1.19904
1.19903
1.19903
1.19902
1.19902
1.19901
1.19901
1.199
1.199
1.199
1.19899
1.19899
1.19898
1.19898
1.19897
1.19897
1.19896
1.19896
1.19896
1.19895
1.19895
1.19894
1.19894
1.19894
1.19893
1.19893
1.19892
1.19892
1.19892
1.19891
1.19891
1.1989
1.1989
1.1989
1.19889
1.19889
1.19889
1.19888
1.19888
1.19888
1.19887
1.19887
1.19887
1.19886
1.19886
1.19886
1.19885
1.19885
1.19885
1.19885
1.19884
1.19884
1.19884
1.19883
1.19883
1.19883
1.19883
1.19882
1.19882
1.19882
1.19882
1.19881
1.19881
1.19881
1.19881
1.1988
1.1988
1.1988
1.1988
)
;
    }
    lowerWall
    {
        type            calculated;
        value           nonuniform List<scalar> 
120
(
1.12223
1.16143
1.17392
1.17878
1.18095
1.18186
1.18207
1.18187
1.18138
1.18069
1.17984
1.17891
1.17788
1.17677
1.17561
1.17441
1.1732
1.17198
1.17076
1.16958
1.16841
1.16727
1.16614
1.16498
1.1638
1.16257
1.16134
1.16015
1.15905
1.15811
1.1573
1.15655
1.15574
1.15475
1.15356
1.15223
1.15103
1.15021
1.14987
1.14978
1.14947
1.14862
1.14721
1.14556
1.14414
1.1433
1.14312
1.14343
1.14393
1.14437
1.14459
1.14457
1.14435
1.144
1.14361
1.14322
1.14285
1.14252
1.14222
1.14194
1.1417
1.14147
1.14127
1.14108
1.14091
1.14076
1.14062
1.1405
1.14038
1.14028
1.14018
1.14009
1.14
1.13992
1.13983
1.13975
1.13967
1.13959
1.13952
1.13944
1.13938
1.13932
1.13927
1.13922
1.13918
1.13915
1.13913
1.13911
1.13909
1.13908
1.13906
1.13904
1.13902
1.13899
1.13895
1.1389
1.13885
1.13879
1.13872
1.13864
1.13857
1.13849
1.13842
1.13835
1.13829
1.13823
1.13818
1.13813
1.13809
1.13805
1.13802
1.13799
1.13796
1.13792
1.13789
1.13785
1.13782
1.13778
1.13775
1.13769
)
;
    }
    inlet
    {
        type            calculated;
        value           nonuniform List<scalar> 
12
(
1.19962
1.1996
1.19959
1.19958
1.19957
1.19957
1.19957
1.19957
1.19958
1.19959
1.1996
1.19962
)
;
    }
    outlet
    {
        type            calculated;
        value           nonuniform List<scalar> 
12
(
1.1568
1.18154
1.19472
1.1915
1.19115
1.19104
1.19103
1.1912
1.19239
1.20072
1.20103
1.19905
)
;
    }
    frontAndBack
    {
        type            empty;
    }
}


// ************************************************************************* //
