/*--------------------------------*- C++ -*----------------------------------*\
  =========                 |
  \\      /  F ield         | OpenFOAM: The Open Source CFD Toolbox
   \\    /   O peration     | Website:  https://openfoam.org
    \\  /    A nd           | Version:  7
     \\/     M anipulation  |
\*---------------------------------------------------------------------------*/
FoamFile
{
    version     2.0;
    format      ascii;
    class       volScalarField;
    location    "2.5075";
    object      k;
}
// * * * * * * * * * * * * * * * * * * * * * * * * * * * * * * * * * * * * * //

dimensions      [0 2 -2 0 0 0 0];

internalField   nonuniform List<scalar> 
4950
(
32.641
37.0479
37.2075
37.2722
37.2318
37.2534
37.2111
37.2204
37.1837
37.1911
37.1619
37.1693
37.1463
37.1532
37.1359
37.14
37.1343
37.1232
37.1678
37.3539
9.02785
10.2486
10.1118
9.73981
9.46414
9.32811
9.23185
9.18928
9.14398
9.12498
9.09632
9.08515
9.0646
9.05724
9.04278
9.03668
9.03846
9.01583
9.19484
9.24359
5.70438
7.00378
7.30803
7.38507
7.3962
7.41678
7.42038
7.43323
7.4353
7.44444
7.445
7.45113
7.45076
7.45508
7.45403
7.4575
7.45621
7.45782
7.46333
7.49234
5.45418
6.72058
7.07178
7.21362
7.27803
7.33657
7.36851
7.40772
7.42835
7.45784
7.47226
7.49551
7.50595
7.52468
7.53243
7.54723
7.55394
7.56332
7.5706
7.59825
5.41788
6.6926
7.04535
7.19299
7.26043
7.32361
7.35863
7.40282
7.42712
7.462
7.48059
7.50924
7.52393
7.5477
7.55951
7.57889
7.58914
7.60351
7.61222
7.64323
5.45418
6.72058
7.07177
7.21363
7.27803
7.33658
7.36851
7.40773
7.42833
7.45786
7.47222
7.49556
7.50588
7.52478
7.53232
7.54741
7.55378
7.5635
7.57064
7.59846
5.70438
7.00378
7.30803
7.38508
7.39619
7.41679
7.42038
7.43324
7.43529
7.44446
7.44497
7.45117
7.45067
7.45521
7.45385
7.45781
7.45581
7.45831
7.46295
7.49317
9.02785
10.2486
10.1118
9.73981
9.46414
9.32811
9.23184
9.18929
9.14396
9.12502
9.09624
9.08524
9.06441
9.05735
9.04234
9.03707
9.03732
9.01757
9.18997
9.24638
32.641
37.0479
37.2075
37.2722
37.2318
37.2535
37.2111
37.2205
37.1836
37.1912
37.1617
37.1695
37.1459
37.1538
37.135
37.1418
37.131
37.1291
37.1572
37.3765
5.04411
7.29362
7.6125
7.5586
7.5175
7.44842
7.43283
7.39213
7.38584
7.35888
7.35583
7.33618
7.33472
7.31932
7.31931
7.30542
7.30862
7.2907
7.28993
7.34837
3.75017
6.01788
6.52427
6.63133
6.65723
6.66897
6.67587
6.68241
6.68611
6.69004
6.69196
6.6943
6.69521
6.69678
6.69702
6.69831
6.69768
6.69805
6.70329
6.71933
3.56623
5.76381
6.27316
6.39704
6.42248
6.43593
6.43935
6.44729
6.45079
6.45828
6.46188
6.46845
6.47201
6.4773
6.4809
6.48468
6.48831
6.49043
6.49129
6.51967
3.57388
5.76925
6.27335
6.39606
6.42112
6.43192
6.43229
6.43502
6.43506
6.43718
6.43762
6.43983
6.4405
6.44264
6.44348
6.44538
6.44657
6.44787
6.44974
6.47111
3.55736
5.74539
6.25184
6.37706
6.40215
6.41355
6.41332
6.41566
6.41487
6.41657
6.41603
6.41747
6.4172
6.41845
6.41834
6.41945
6.41931
6.42013
6.41968
6.43837
3.57388
5.76925
6.27335
6.39606
6.42111
6.43192
6.43228
6.43503
6.43505
6.4372
6.43761
6.43985
6.44048
6.44267
6.44344
6.44547
6.44636
6.44798
6.44963
6.47105
3.56623
5.76381
6.27315
6.39704
6.42247
6.43594
6.43934
6.4473
6.45079
6.45831
6.46181
6.46855
6.47185
6.47753
6.48053
6.48519
6.48756
6.49118
6.49069
6.51992
3.75017
6.01788
6.52426
6.63133
6.65723
6.66897
6.67586
6.68242
6.68609
6.69007
6.6919
6.69438
6.69512
6.69692
6.69679
6.69865
6.69692
6.69905
6.70166
6.72177
5.04411
7.29362
7.6125
7.5586
7.5175
7.44842
7.43282
7.39214
7.38584
7.35889
7.35582
7.33621
7.3347
7.31941
7.31924
7.30568
7.30832
7.29177
7.28842
7.35209
0.288483
0.963396
1.21458
1.25634
1.23631
1.1925
1.14928
1.11404
1.08648
1.06384
1.04736
1.03228
1.0222
1.0113
1.00487
0.996676
0.991647
0.987179
0.97777
0.992175
0.0633052
0.361019
0.579643
0.68489
0.729473
0.752125
0.763408
0.773313
0.780324
0.787655
0.792937
0.798291
0.801911
0.805634
0.808078
0.810478
0.812607
0.813446
0.815237
0.820146
0.054115
0.305439
0.486178
0.583993
0.62284
0.645134
0.651615
0.658671
0.660523
0.66464
0.666356
0.67005
0.672042
0.67553
0.677847
0.680961
0.683316
0.686262
0.687748
0.693414
0.0556691
0.313391
0.495521
0.590622
0.628968
0.649157
0.655348
0.660108
0.660801
0.662237
0.662383
0.662934
0.663123
0.663552
0.663999
0.664328
0.665069
0.665384
0.666193
0.669934
0.0539135
0.304416
0.482
0.578087
0.615587
0.637049
0.642535
0.647934
0.648291
0.649583
0.649348
0.649756
0.649509
0.649728
0.649568
0.649693
0.649566
0.64967
0.649257
0.652132
0.055669
0.313391
0.49552
0.590622
0.628968
0.649158
0.655348
0.660108
0.660801
0.662237
0.662383
0.662935
0.663122
0.663554
0.663996
0.664326
0.665059
0.665374
0.66618
0.669907
0.0541149
0.305439
0.486177
0.583994
0.622839
0.645135
0.651614
0.658672
0.660523
0.664642
0.666354
0.670061
0.672015
0.675557
0.677801
0.680995
0.683258
0.686251
0.687711
0.693329
0.0633052
0.361019
0.579642
0.684891
0.729472
0.752127
0.763405
0.773317
0.780316
0.787664
0.792921
0.798308
0.80188
0.805667
0.808008
0.810539
0.812483
0.81345
0.815157
0.820059
0.288483
0.963396
1.21458
1.25634
1.23631
1.1925
1.14928
1.11404
1.08648
1.06385
1.04735
1.03231
1.0222
1.01136
1.00486
0.996824
0.991631
0.987474
0.977816
0.992946
5.04411
7.29362
7.6125
7.5586
7.5175
7.44842
7.43283
7.39213
7.38584
7.35888
7.35583
7.33618
7.33472
7.31932
7.31931
7.30542
7.30862
7.2907
7.28993
7.34837
3.75017
6.01788
6.52427
6.63133
6.65723
6.66897
6.67587
6.68241
6.68611
6.69004
6.69196
6.6943
6.69521
6.69678
6.69702
6.69831
6.69768
6.69805
6.70329
6.71933
3.56623
5.76381
6.27316
6.39704
6.42248
6.43593
6.43935
6.44729
6.45079
6.45828
6.46188
6.46845
6.47201
6.4773
6.4809
6.48468
6.48831
6.49043
6.49129
6.51967
3.57388
5.76925
6.27335
6.39606
6.42112
6.43192
6.43229
6.43502
6.43506
6.43718
6.43762
6.43983
6.4405
6.44264
6.44348
6.44538
6.44657
6.44787
6.44974
6.47111
3.55736
5.74539
6.25184
6.37706
6.40215
6.41355
6.41332
6.41566
6.41487
6.41657
6.41603
6.41747
6.4172
6.41845
6.41834
6.41945
6.41931
6.42013
6.41968
6.43837
3.57388
5.76925
6.27335
6.39606
6.42111
6.43192
6.43228
6.43503
6.43505
6.4372
6.43761
6.43985
6.44048
6.44267
6.44344
6.44547
6.44636
6.44798
6.44963
6.47105
3.56623
5.76381
6.27315
6.39704
6.42247
6.43594
6.43934
6.4473
6.45079
6.45831
6.46181
6.46855
6.47185
6.47753
6.48053
6.48519
6.48756
6.49118
6.49069
6.51992
3.75017
6.01788
6.52426
6.63133
6.65723
6.66897
6.67586
6.68242
6.68609
6.69007
6.6919
6.69438
6.69512
6.69692
6.69679
6.69865
6.69692
6.69905
6.70166
6.72177
5.04411
7.29362
7.6125
7.5586
7.5175
7.44842
7.43282
7.39214
7.38584
7.35889
7.35582
7.33621
7.3347
7.31941
7.31924
7.30568
7.30832
7.29177
7.28842
7.35209
32.641
37.0479
37.2075
37.2722
37.2318
37.2534
37.2111
37.2204
37.1837
37.1911
37.1619
37.1693
37.1463
37.1532
37.1359
37.14
37.1343
37.1232
37.1678
37.3539
9.02785
10.2486
10.1118
9.73981
9.46414
9.32811
9.23185
9.18928
9.14398
9.12498
9.09632
9.08515
9.0646
9.05724
9.04278
9.03668
9.03846
9.01583
9.19484
9.24359
5.70438
7.00378
7.30803
7.38507
7.3962
7.41678
7.42038
7.43323
7.4353
7.44444
7.445
7.45113
7.45076
7.45508
7.45403
7.4575
7.45621
7.45782
7.46333
7.49234
5.45418
6.72058
7.07178
7.21362
7.27803
7.33657
7.36851
7.40772
7.42835
7.45784
7.47226
7.49551
7.50595
7.52468
7.53243
7.54723
7.55394
7.56332
7.5706
7.59825
5.41788
6.6926
7.04535
7.19299
7.26043
7.32361
7.35863
7.40282
7.42712
7.462
7.48059
7.50924
7.52393
7.5477
7.55951
7.57889
7.58914
7.60351
7.61222
7.64323
5.45418
6.72058
7.07177
7.21363
7.27803
7.33658
7.36851
7.40773
7.42833
7.45786
7.47222
7.49556
7.50588
7.52478
7.53232
7.54741
7.55378
7.5635
7.57064
7.59846
5.70438
7.00378
7.30803
7.38508
7.39619
7.41679
7.42038
7.43324
7.43529
7.44446
7.44497
7.45117
7.45067
7.45521
7.45385
7.45781
7.45581
7.45831
7.46295
7.49317
9.02785
10.2486
10.1118
9.73981
9.46414
9.32811
9.23184
9.18929
9.14396
9.12502
9.09624
9.08524
9.06441
9.05735
9.04234
9.03707
9.03732
9.01757
9.18997
9.24638
32.641
37.0479
37.2075
37.2722
37.2318
37.2535
37.2111
37.2205
37.1836
37.1912
37.1617
37.1695
37.1459
37.1538
37.135
37.1418
37.131
37.1291
37.1572
37.3765
96.2284
97.8578
98.4543
98.9573
99.3225
99.6973
99.9883
100.298
100.55
100.822
101.048
101.29
101.496
101.715
101.904
102.106
102.281
102.466
102.628
102.798
102.947
103.103
103.24
103.382
103.505
103.631
103.74
103.85
103.942
104.034
104.11
104.184
104.242
104.299
104.341
104.382
104.41
104.437
104.454
104.471
104.479
104.489
104.492
104.498
104.497
104.501
104.5
104.503
104.501
104.503
104.502
104.504
104.502
104.504
104.503
104.504
104.503
104.505
104.503
104.505
104.504
104.505
104.504
104.506
104.505
104.506
104.505
104.507
104.506
104.507
104.506
104.508
104.507
104.508
104.507
104.508
104.508
104.509
104.508
104.509
104.508
104.509
104.508
104.508
104.507
104.507
104.505
104.506
104.472
104.449
32.7344
34.8096
35.044
35.2372
35.3399
35.4857
35.5676
35.6901
35.7617
35.8694
35.9341
36.0303
36.0895
36.1768
36.2319
36.3122
36.3636
36.4373
36.4849
36.5528
36.5968
36.6592
36.6995
36.7562
36.7922
36.8429
36.8742
36.9187
36.9449
36.9827
37.0033
37.0344
37.0494
37.074
37.0838
37.1026
37.1081
37.1218
37.1238
37.1336
37.1332
37.1404
37.1386
37.1442
37.1418
37.1464
37.1439
37.148
37.1456
37.1494
37.1471
37.1507
37.1486
37.1519
37.1501
37.1532
37.1516
37.1545
37.153
37.1559
37.1545
37.1572
37.156
37.1585
37.1574
37.1599
37.1589
37.1612
37.1603
37.1625
37.1618
37.1638
37.1631
37.1651
37.1645
37.1663
37.1657
37.1674
37.1669
37.1685
37.168
37.1694
37.1689
37.1701
37.1696
37.1707
37.1697
37.1718
37.1583
37.1546
23.074
25.5926
25.8103
25.9542
26.0012
26.1101
26.1494
26.243
26.2783
26.3622
26.3952
26.4712
26.5018
26.5714
26.6003
26.6646
26.692
26.7516
26.7771
26.8321
26.8559
26.9068
26.9287
26.9754
26.9952
27.0374
27.0546
27.0922
27.1067
27.1395
27.1508
27.1785
27.1866
27.2094
27.2145
27.2327
27.2351
27.2494
27.2495
27.2606
27.2592
27.268
27.2656
27.273
27.2701
27.2765
27.2737
27.2795
27.2768
27.2823
27.2798
27.2849
27.2827
27.2876
27.2856
27.2902
27.2885
27.2929
27.2914
27.2956
27.2943
27.2983
27.2971
27.301
27.3
27.3036
27.3028
27.3063
27.3056
27.3089
27.3084
27.3115
27.3111
27.314
27.3137
27.3165
27.3163
27.3189
27.3187
27.3212
27.3211
27.3234
27.3232
27.3254
27.3252
27.3272
27.327
27.3284
27.3295
27.3088
22.0201
25.0104
25.2945
25.4314
25.4575
25.5501
25.5746
25.657
25.6806
25.7565
25.7801
25.8504
25.8731
25.9379
25.9597
26.0202
26.0412
26.0977
26.1176
26.1699
26.1886
26.2372
26.2547
26.2997
26.3157
26.3567
26.3708
26.4078
26.4199
26.4527
26.4624
26.4908
26.4979
26.5218
26.5264
26.546
26.5483
26.5641
26.5644
26.577
26.5758
26.586
26.5837
26.5923
26.5895
26.5971
26.5942
26.6011
26.5984
26.6048
26.6024
26.6085
26.6063
26.6121
26.6102
26.6157
26.6141
26.6193
26.618
26.623
26.6218
26.6266
26.6256
26.6302
26.6295
26.6338
26.6332
26.6374
26.637
26.641
26.6407
26.6445
26.6443
26.648
26.6479
26.6514
26.6514
26.6547
26.6548
26.6579
26.6581
26.661
26.6612
26.6639
26.6641
26.6667
26.6669
26.6687
26.6707
26.6511
22.0064
25.0427
25.3239
25.4466
25.454
25.5291
25.5404
25.61
25.6234
25.6896
25.7051
25.7678
25.7836
25.8418
25.8576
25.9124
25.9282
25.9795
25.9947
26.0424
26.0568
26.1013
26.115
26.1563
26.1689
26.2068
26.2181
26.2526
26.2623
26.2933
26.3012
26.3283
26.3342
26.3573
26.3612
26.3805
26.3824
26.3983
26.3985
26.4114
26.4102
26.4208
26.4185
26.4275
26.4248
26.4327
26.4299
26.4371
26.4345
26.4412
26.4388
26.4452
26.4431
26.4492
26.4474
26.4532
26.4516
26.4572
26.4559
26.4611
26.4601
26.4651
26.4643
26.4691
26.4684
26.4731
26.4726
26.477
26.4767
26.4809
26.4807
26.4848
26.4847
26.4886
26.4887
26.4923
26.4925
26.496
26.4962
26.4995
26.4998
26.5029
26.5032
26.5061
26.5064
26.5091
26.5097
26.5112
26.517
26.4937
22.0197
24.979
25.2213
25.3157
25.3077
25.3648
25.3645
25.4191
25.4237
25.4775
25.4855
25.5373
25.5465
25.595
25.6048
25.6508
25.6611
25.7044
25.7145
25.7548
25.7646
25.8023
25.8116
25.8467
25.8555
25.8878
25.8956
25.9251
25.9319
25.9585
25.964
25.9875
25.9915
26.0118
26.0142
26.0314
26.0323
26.0466
26.0462
26.058
26.0563
26.0662
26.0638
26.0722
26.0694
26.0769
26.074
26.0809
26.0782
26.0846
26.0822
26.0883
26.0861
26.0919
26.0901
26.0955
26.094
26.0992
26.0979
26.1028
26.1017
26.1065
26.1056
26.1101
26.1094
26.1138
26.1132
26.1174
26.117
26.121
26.1207
26.1245
26.1244
26.128
26.128
26.1314
26.1315
26.1348
26.1349
26.138
26.1382
26.1411
26.1413
26.1441
26.1443
26.1468
26.1472
26.1487
26.1514
26.1325
23.046
25.4647
25.5864
25.6447
25.6248
25.6668
25.6571
25.6987
25.6951
25.7361
25.7367
25.7758
25.7783
25.8151
25.8187
25.8536
25.8579
25.8908
25.8953
25.9259
25.9305
25.9591
25.9637
25.9903
25.9946
26.0191
26.0229
26.0454
26.0486
26.0689
26.0714
26.0894
26.0909
26.1066
26.107
26.1205
26.12
26.1313
26.1299
26.1394
26.1372
26.1453
26.1426
26.1496
26.1467
26.153
26.1501
26.1559
26.1533
26.1587
26.1563
26.1614
26.1593
26.1641
26.1622
26.1668
26.1652
26.1696
26.1681
26.1723
26.171
26.175
26.1739
26.1777
26.1768
26.1804
26.1797
26.1831
26.1825
26.1858
26.1853
26.1884
26.188
26.191
26.1907
26.1935
26.1933
26.196
26.1958
26.1983
26.1982
26.2006
26.2005
26.2026
26.2025
26.2045
26.2045
26.2055
26.208
26.1884
32.5596
34.3711
34.4122
34.4493
34.4275
34.4592
34.447
34.4783
34.4721
34.5026
34.5003
34.5292
34.5287
34.5554
34.5562
34.5814
34.5831
34.6066
34.6086
34.6303
34.6325
34.6527
34.655
34.6738
34.6759
34.6932
34.6951
34.7109
34.7124
34.7267
34.7277
34.7404
34.7407
34.7517
34.7514
34.7608
34.7598
34.7678
34.7661
34.7728
34.7706
34.7763
34.7738
34.7787
34.7761
34.7805
34.7779
34.782
34.7796
34.7833
34.7811
34.7847
34.7827
34.786
34.7842
34.7874
34.7858
34.7887
34.7873
34.7901
34.7888
34.7915
34.7903
34.7929
34.7918
34.7943
34.7933
34.7956
34.7948
34.797
34.7963
34.7983
34.7977
34.7996
34.7991
34.8009
34.8004
34.8021
34.8016
34.8032
34.8028
34.8042
34.8038
34.805
34.8046
34.8057
34.805
34.8068
34.7952
34.7923
95.3924
96.1966
96.2194
96.26
96.2475
96.2874
96.2869
96.3256
96.3322
96.3706
96.3822
96.4189
96.432
96.4657
96.4792
96.5107
96.5248
96.5542
96.5678
96.5948
96.6076
96.6326
96.6449
96.668
96.6794
96.7005
96.7107
96.7298
96.7389
96.756
96.7638
96.7787
96.7848
96.7973
96.8017
96.812
96.8148
96.823
96.8243
96.8305
96.8305
96.8352
96.8342
96.8378
96.8363
96.8391
96.8374
96.8399
96.8381
96.8404
96.8387
96.8407
96.8392
96.8411
96.8397
96.8415
96.8402
96.8419
96.8407
96.8423
96.8412
96.8427
96.8418
96.8432
96.8423
96.8436
96.8428
96.844
96.8433
96.8444
96.8438
96.8448
96.8442
96.8452
96.8446
96.8455
96.845
96.8458
96.8452
96.8459
96.8453
96.8459
96.8453
96.8457
96.8449
96.8451
96.8438
96.8444
96.8146
96.7935
23.023
23.8651
24.029
24.1447
24.2383
24.3269
24.3991
24.4752
24.5357
24.6039
24.6563
24.7182
24.7647
24.8218
24.864
24.917
24.9555
25.0045
25.0397
25.085
25.1171
25.1589
25.188
25.2259
25.2517
25.2856
25.3078
25.3373
25.3557
25.3807
25.395
25.4153
25.4255
25.4414
25.4481
25.46
25.4635
25.4721
25.4733
25.4794
25.4789
25.4833
25.482
25.4854
25.4836
25.4865
25.4847
25.4872
25.4854
25.4878
25.4861
25.4883
25.4868
25.4889
25.4875
25.4894
25.4882
25.49
25.4889
25.4906
25.4896
25.4912
25.4903
25.4918
25.491
25.4925
25.4917
25.4931
25.4925
25.4938
25.4932
25.4945
25.494
25.4953
25.4949
25.4961
25.4957
25.497
25.4967
25.4979
25.4977
25.499
25.4988
25.5003
25.5002
25.502
25.5017
25.5051
25.4999
25.503
20.9631
22.5995
22.8005
22.9155
23.003
23.089
23.1583
23.2309
23.29
23.3543
23.4065
23.4643
23.5112
23.5641
23.6069
23.6557
23.695
23.74
23.776
23.8175
23.8506
23.8887
23.9188
23.9534
23.9802
24.011
24.0344
24.0613
24.081
24.1037
24.1194
24.1377
24.1495
24.1638
24.172
24.1826
24.1877
24.1951
24.1978
24.2029
24.2039
24.2073
24.2074
24.2097
24.2094
24.2112
24.2107
24.2123
24.2117
24.2131
24.2126
24.2139
24.2134
24.2147
24.2143
24.2155
24.2152
24.2163
24.216
24.2171
24.2169
24.2179
24.2177
24.2188
24.2186
24.2196
24.2194
24.2204
24.2203
24.2212
24.2211
24.222
24.222
24.2229
24.2228
24.2237
24.2237
24.2246
24.2246
24.2254
24.2254
24.2263
24.2263
24.2273
24.2272
24.2283
24.2282
24.229
24.2304
24.2301
19.022
21.252
21.5182
21.6251
21.7008
21.7741
21.8356
21.8979
21.9518
22.0076
22.0563
22.1068
22.151
22.1971
22.2377
22.2805
22.318
22.3575
22.3921
22.4285
22.4604
22.494
22.5232
22.5538
22.5801
22.6075
22.6308
22.6549
22.6749
22.6954
22.7119
22.7287
22.7416
22.7547
22.7643
22.774
22.7805
22.7873
22.7914
22.7958
22.798
22.8008
22.8018
22.8035
22.8039
22.805
22.8051
22.806
22.806
22.8067
22.8067
22.8074
22.8074
22.808
22.808
22.8086
22.8087
22.8093
22.8093
22.8099
22.81
22.8105
22.8106
22.8112
22.8112
22.8118
22.8119
22.8124
22.8125
22.8131
22.8132
22.8137
22.8138
22.8143
22.8144
22.815
22.8151
22.8156
22.8157
22.8162
22.8163
22.8168
22.8169
22.8174
22.8174
22.818
22.8178
22.8184
22.8194
22.8041
18.4941
20.8849
21.1607
21.2459
21.3028
21.3611
21.4111
21.4631
21.5092
21.5575
21.6005
21.6452
21.6848
21.7259
21.7626
21.8009
21.8352
21.8708
21.9025
21.9354
21.9647
21.995
22.0221
22.0499
22.0745
22.0997
22.1216
22.1439
22.163
22.1823
22.1985
22.2145
22.2274
22.2402
22.25
22.2596
22.2667
22.2735
22.2781
22.2826
22.2853
22.2881
22.2894
22.2911
22.2916
22.2926
22.2928
22.2934
22.2935
22.294
22.294
22.2945
22.2945
22.2949
22.2949
22.2954
22.2954
22.2958
22.2958
22.2963
22.2963
22.2967
22.2968
22.2971
22.2972
22.2976
22.2977
22.298
22.2981
22.2985
22.2986
22.2989
22.299
22.2993
22.2994
22.2998
22.2999
22.3002
22.3003
22.3007
22.3007
22.3011
22.3011
22.3014
22.3014
22.3018
22.3016
22.302
22.3013
22.29
18.1589
20.6665
20.9403
21.0043
21.0415
21.0829
21.1194
21.1594
21.1953
21.2343
21.2694
21.3065
21.3395
21.374
21.4048
21.4373
21.4663
21.4968
21.5237
21.5519
21.5768
21.603
21.6261
21.6502
21.6713
21.6932
21.7122
21.7318
21.7485
21.7656
21.7799
21.7943
21.806
21.8176
21.8266
21.8356
21.8421
21.8487
21.853
21.8574
21.86
21.8627
21.864
21.8657
21.8662
21.8672
21.8673
21.868
21.868
21.8685
21.8685
21.8689
21.8689
21.8693
21.8693
21.8697
21.8697
21.8701
21.8701
21.8705
21.8705
21.8708
21.8709
21.8712
21.8713
21.8716
21.8717
21.872
21.8721
21.8724
21.8725
21.8728
21.8729
21.8732
21.8732
21.8736
21.8736
21.874
21.874
21.8743
21.8744
21.8747
21.8747
21.875
21.8749
21.8752
21.8751
21.8752
21.8761
21.8601
18.4925
20.8527
21.089
21.1363
21.1597
21.1882
21.213
21.2422
21.2685
21.2984
21.3252
21.3544
21.38
21.4075
21.4317
21.4578
21.4808
21.5054
21.5268
21.5496
21.5695
21.5907
21.6091
21.6288
21.6457
21.6635
21.6788
21.6948
21.7084
21.7225
21.7342
21.7462
21.7557
21.7655
21.7729
21.7806
21.7861
21.7917
21.7954
21.7993
21.8015
21.804
21.8051
21.8066
21.8071
21.808
21.8082
21.8089
21.8089
21.8094
21.8095
21.8099
21.8099
21.8104
21.8104
21.8109
21.8109
21.8113
21.8114
21.8118
21.8118
21.8122
21.8123
21.8127
21.8128
21.8132
21.8132
21.8136
21.8137
21.8141
21.8142
21.8145
21.8146
21.815
21.8151
21.8155
21.8155
21.8159
21.816
21.8164
21.8164
21.8168
21.8168
21.8172
21.8172
21.8175
21.8175
21.8177
21.8175
21.8068
19.0014
21.1457
21.3281
21.3604
21.3741
21.3931
21.4082
21.4284
21.4453
21.4666
21.4842
21.5053
21.5223
21.5423
21.5585
21.5777
21.5932
21.6112
21.6256
21.6424
21.6558
21.6714
21.6839
21.6984
21.7098
21.723
21.7333
21.7452
21.7543
21.7649
21.7727
21.7818
21.7882
21.7956
21.8006
21.8066
21.8102
21.8147
21.8171
21.8203
21.8217
21.8239
21.8245
21.826
21.8263
21.8274
21.8274
21.8283
21.8283
21.829
21.829
21.8297
21.8297
21.8304
21.8304
21.831
21.8311
21.8317
21.8318
21.8324
21.8324
21.833
21.8331
21.8337
21.8338
21.8343
21.8344
21.835
21.8351
21.8357
21.8358
21.8363
21.8364
21.837
21.8371
21.8376
21.8378
21.8383
21.8384
21.8389
21.8391
21.8396
21.8397
21.8402
21.8403
21.8408
21.8408
21.8412
21.8428
21.829
20.8667
22.337
22.4127
22.4267
22.4316
22.4448
22.4515
22.4664
22.4741
22.4899
22.4979
22.5135
22.521
22.5359
22.5431
22.5574
22.5642
22.5776
22.5838
22.5964
22.6021
22.6138
22.6191
22.63
22.6348
22.6447
22.649
22.658
22.6618
22.6699
22.6729
22.68
22.6823
22.6883
22.69
22.6949
22.6959
22.6999
22.7004
22.7035
22.7034
22.7059
22.7055
22.7075
22.707
22.7087
22.7081
22.7097
22.7091
22.7106
22.7101
22.7114
22.711
22.7123
22.7119
22.7131
22.7128
22.714
22.7137
22.7148
22.7145
22.7156
22.7154
22.7165
22.7163
22.7173
22.7172
22.7181
22.718
22.719
22.7189
22.7198
22.7198
22.7207
22.7207
22.7216
22.7216
22.7224
22.7225
22.7234
22.7234
22.7243
22.7243
22.7253
22.7253
22.7264
22.7264
22.7271
22.7289
22.7287
22.7938
23.4225
23.4448
23.4483
23.4496
23.4566
23.4571
23.4667
23.4668
23.4777
23.4773
23.4885
23.4877
23.4987
23.4978
23.5085
23.5074
23.5177
23.5165
23.5263
23.525
23.5342
23.533
23.5416
23.5404
23.5484
23.5471
23.5545
23.5532
23.5599
23.5585
23.5645
23.563
23.5684
23.5667
23.5715
23.5696
23.5738
23.5718
23.5755
23.5735
23.5767
23.5747
23.5776
23.5756
23.5782
23.5764
23.5788
23.5771
23.5794
23.5778
23.58
23.5785
23.5806
23.5792
23.5812
23.5799
23.5818
23.5807
23.5824
23.5814
23.583
23.5821
23.5836
23.5828
23.5843
23.5836
23.585
23.5843
23.5857
23.5851
23.5864
23.5859
23.5871
23.5867
23.5879
23.5876
23.5888
23.5885
23.5897
23.5895
23.5908
23.5907
23.5921
23.5921
23.5938
23.5937
23.597
23.5921
23.595
4.63272
5.01284
5.05924
5.08105
5.10562
5.12748
5.14668
5.16846
5.18304
5.20413
5.2151
5.23536
5.24377
5.26302
5.2696
5.28767
5.29285
5.30974
5.31387
5.32959
5.33286
5.34738
5.34988
5.36314
5.36493
5.3769
5.37798
5.38862
5.38898
5.39826
5.39792
5.4059
5.40491
5.41173
5.41018
5.41596
5.414
5.41892
5.41672
5.42099
5.41869
5.42249
5.42022
5.42368
5.42152
5.42471
5.42269
5.42567
5.4238
5.4266
5.42488
5.42751
5.42593
5.42841
5.42697
5.4293
5.42799
5.4302
5.42901
5.4311
5.43002
5.432
5.43103
5.43292
5.43204
5.43385
5.43306
5.4348
5.4341
5.43578
5.43516
5.4368
5.43625
5.43787
5.43738
5.43899
5.43856
5.44018
5.43981
5.44145
5.44114
5.44281
5.44254
5.44422
5.44398
5.44566
5.4453
5.44747
5.44528
5.44689
4.26861
5.21082
5.33237
5.36716
5.39068
5.41275
5.43066
5.44987
5.46457
5.48183
5.49421
5.51
5.52075
5.53538
5.54489
5.55843
5.56688
5.57941
5.58698
5.59857
5.60537
5.61601
5.62202
5.63167
5.63689
5.64551
5.64989
5.65742
5.66091
5.66731
5.66992
5.67518
5.67698
5.68115
5.68225
5.68546
5.686
5.68842
5.68855
5.6904
5.69029
5.69178
5.69154
5.69282
5.69253
5.69369
5.69341
5.69449
5.69424
5.69526
5.69504
5.69601
5.69583
5.69676
5.69661
5.6975
5.69739
5.69825
5.69817
5.69899
5.69894
5.69973
5.69971
5.70047
5.70048
5.70122
5.70125
5.70198
5.70203
5.70274
5.70281
5.70351
5.70361
5.7043
5.70442
5.70512
5.70525
5.70595
5.7061
5.70682
5.70698
5.70772
5.70788
5.70865
5.7088
5.70957
5.70978
5.71013
5.71104
5.71255
3.46687
4.67356
4.87583
4.92543
4.94814
4.96712
4.98214
4.99749
5.01036
5.02387
5.03526
5.04736
5.05766
5.06876
5.07825
5.08847
5.09717
5.10654
5.11452
5.12316
5.1305
5.13843
5.14509
5.15226
5.15821
5.16459
5.1698
5.17535
5.17976
5.18442
5.18798
5.19173
5.19446
5.19736
5.19934
5.20147
5.20279
5.20427
5.20508
5.20607
5.20652
5.2072
5.20745
5.20792
5.20807
5.20844
5.20856
5.20888
5.20899
5.20929
5.2094
5.20968
5.2098
5.21008
5.21019
5.21047
5.21059
5.21086
5.21099
5.21126
5.21138
5.21165
5.21178
5.21205
5.21218
5.21244
5.21258
5.21284
5.21298
5.21324
5.21338
5.21364
5.21379
5.21404
5.21419
5.21446
5.21461
5.21487
5.21503
5.2153
5.21545
5.21573
5.21587
5.21616
5.2163
5.2166
5.21671
5.21702
5.21753
5.21502
3.1871
4.43791
4.66963
4.7175
4.73711
4.74932
4.76166
4.77194
4.78304
4.79268
4.80272
4.81166
4.82078
4.82923
4.83772
4.84573
4.85355
4.86103
4.8682
4.87519
4.88183
4.88835
4.89443
4.9004
4.90587
4.91124
4.9161
4.92084
4.92503
4.92906
4.93252
4.9358
4.93852
4.94106
4.94308
4.94495
4.94635
4.94761
4.94849
4.94928
4.94977
4.95023
4.95048
4.95075
4.95088
4.95104
4.95111
4.95123
4.95128
4.95139
4.95144
4.95153
4.95158
4.95168
4.95173
4.95183
4.95188
4.95198
4.95204
4.95213
4.9522
4.95229
4.95236
4.95245
4.95252
4.95262
4.95269
4.95278
4.95286
4.95295
4.95304
4.95313
4.95322
4.95331
4.95341
4.9535
4.9536
4.9537
4.9538
4.9539
4.95399
4.9541
4.95417
4.95429
4.95432
4.95442
4.95437
4.9544
4.95406
4.95186
3.04659
4.31124
4.54611
4.59164
4.60507
4.61429
4.62235
4.63087
4.63899
4.64743
4.6552
4.66312
4.67038
4.6779
4.68481
4.69196
4.69841
4.70504
4.711
4.71717
4.72272
4.72848
4.73359
4.73886
4.74348
4.74824
4.75238
4.75662
4.76023
4.76387
4.76688
4.76987
4.77227
4.77464
4.77645
4.77822
4.77949
4.78072
4.78151
4.7823
4.78272
4.7832
4.78339
4.78366
4.78374
4.7839
4.78393
4.78403
4.78405
4.78413
4.78414
4.78421
4.78422
4.7843
4.78431
4.78438
4.78439
4.78446
4.78448
4.78455
4.78457
4.78464
4.78466
4.78472
4.78474
4.78481
4.78483
4.7849
4.78493
4.78499
4.78502
4.78508
4.78511
4.78518
4.7852
4.78527
4.7853
4.78537
4.78539
4.78546
4.78549
4.78555
4.78557
4.78564
4.78563
4.78569
4.78567
4.78568
4.78577
4.78317
3.18685
4.43214
4.65601
4.69579
4.70794
4.71345
4.72
4.72513
4.73173
4.73728
4.74364
4.74914
4.75509
4.76055
4.76623
4.77159
4.7769
4.78197
4.78685
4.79165
4.79621
4.80075
4.80495
4.80914
4.81296
4.81678
4.82022
4.82366
4.82668
4.82967
4.83222
4.83471
4.83676
4.83875
4.84033
4.84185
4.84297
4.84405
4.84477
4.84548
4.84589
4.84632
4.84654
4.8468
4.84691
4.84708
4.84714
4.84727
4.84732
4.84743
4.84748
4.84758
4.84764
4.84774
4.84779
4.84789
4.84795
4.84805
4.84811
4.84821
4.84827
4.84837
4.84844
4.84854
4.84861
4.84871
4.84878
4.84888
4.84895
4.84906
4.84914
4.84924
4.84932
4.84943
4.84952
4.84962
4.84972
4.84982
4.84992
4.85003
4.85012
4.85023
4.85031
4.85043
4.85046
4.85056
4.85054
4.85055
4.85026
4.84824
3.46413
4.65454
4.8396
4.87298
4.88177
4.88843
4.89288
4.89874
4.90328
4.90911
4.91358
4.91911
4.92339
4.9287
4.93284
4.93788
4.94175
4.94641
4.94999
4.95433
4.95766
4.9617
4.96477
4.96846
4.97124
4.97459
4.97709
4.98011
4.98231
4.98495
4.9868
4.98903
4.99053
4.99237
4.99353
4.99499
4.99582
4.99694
4.99748
4.9983
4.99863
4.99922
4.99943
4.99987
5.00002
5.00038
5.0005
5.00082
5.00093
5.00124
5.00135
5.00165
5.00176
5.00205
5.00217
5.00245
5.00257
5.00285
5.00298
5.00326
5.00338
5.00366
5.00379
5.00406
5.00419
5.00447
5.0046
5.00487
5.00501
5.00528
5.00542
5.00569
5.00584
5.0061
5.00625
5.00652
5.00668
5.00695
5.00711
5.00738
5.00754
5.00782
5.00798
5.00827
5.00842
5.00872
5.00886
5.00915
5.00976
5.00758
4.25423
5.16264
5.25643
5.26853
5.27336
5.27907
5.28287
5.28927
5.29258
5.29921
5.30198
5.30837
5.31073
5.31688
5.31893
5.32476
5.32649
5.33192
5.33338
5.33844
5.33971
5.34441
5.34549
5.34981
5.35073
5.35468
5.35545
5.35905
5.35965
5.36288
5.3633
5.36614
5.36641
5.36888
5.36899
5.37111
5.37107
5.37289
5.37273
5.37429
5.37404
5.37541
5.37511
5.37635
5.37605
5.3772
5.37692
5.37799
5.37775
5.37877
5.37857
5.37953
5.37937
5.38029
5.38016
5.38105
5.38095
5.3818
5.38173
5.38255
5.38251
5.3833
5.38329
5.38406
5.38407
5.38481
5.38485
5.38558
5.38564
5.38635
5.38643
5.38713
5.38723
5.38793
5.38805
5.38875
5.38889
5.3896
5.38975
5.39047
5.39064
5.39139
5.39156
5.39233
5.39251
5.39327
5.39352
5.39385
5.39487
5.39623
4.5904
4.92605
4.94473
4.94516
4.95167
4.95794
4.96333
4.97234
4.97555
4.98557
4.98689
4.99709
4.99701
5.00705
5.00597
5.01571
5.01387
5.02314
5.0208
5.02956
5.02692
5.03513
5.03231
5.03995
5.03704
5.04414
5.04121
5.04777
5.04487
5.0509
5.04803
5.05356
5.05076
5.05582
5.0531
5.05773
5.05509
5.05933
5.05679
5.06069
5.05827
5.06187
5.0596
5.06294
5.06082
5.06394
5.06198
5.0649
5.06309
5.06584
5.06418
5.06676
5.06524
5.06767
5.06628
5.06858
5.06731
5.06948
5.06833
5.07039
5.06935
5.0713
5.07036
5.07223
5.07138
5.07316
5.0724
5.07412
5.07344
5.0751
5.0745
5.07612
5.07559
5.07719
5.07672
5.07831
5.07791
5.0795
5.07916
5.08077
5.08048
5.08212
5.08188
5.08353
5.08332
5.08497
5.08464
5.08677
5.08465
5.08604
23.023
23.8651
24.029
24.1447
24.2383
24.3269
24.3991
24.4752
24.5357
24.6039
24.6563
24.7182
24.7647
24.8218
24.864
24.917
24.9555
25.0045
25.0397
25.085
25.1171
25.1589
25.188
25.2259
25.2517
25.2856
25.3078
25.3373
25.3557
25.3807
25.395
25.4153
25.4255
25.4414
25.4481
25.46
25.4635
25.4721
25.4733
25.4794
25.4789
25.4833
25.482
25.4854
25.4836
25.4865
25.4847
25.4872
25.4854
25.4878
25.4861
25.4883
25.4868
25.4889
25.4875
25.4894
25.4882
25.49
25.4889
25.4906
25.4896
25.4912
25.4903
25.4918
25.491
25.4925
25.4917
25.4931
25.4925
25.4938
25.4932
25.4945
25.494
25.4953
25.4949
25.4961
25.4957
25.497
25.4967
25.4979
25.4977
25.499
25.4988
25.5003
25.5002
25.502
25.5017
25.5051
25.4999
25.503
20.9631
22.5995
22.8005
22.9155
23.003
23.089
23.1583
23.2309
23.29
23.3543
23.4065
23.4643
23.5112
23.5641
23.6069
23.6557
23.695
23.74
23.776
23.8175
23.8506
23.8887
23.9188
23.9534
23.9802
24.011
24.0344
24.0613
24.081
24.1037
24.1194
24.1377
24.1495
24.1638
24.172
24.1826
24.1877
24.1951
24.1978
24.2029
24.2039
24.2073
24.2074
24.2097
24.2094
24.2112
24.2107
24.2123
24.2117
24.2131
24.2126
24.2139
24.2134
24.2147
24.2143
24.2155
24.2152
24.2163
24.216
24.2171
24.2169
24.2179
24.2177
24.2188
24.2186
24.2196
24.2194
24.2204
24.2203
24.2212
24.2211
24.222
24.222
24.2229
24.2228
24.2237
24.2237
24.2246
24.2246
24.2254
24.2254
24.2263
24.2263
24.2273
24.2272
24.2283
24.2282
24.229
24.2304
24.2301
19.022
21.252
21.5182
21.6251
21.7008
21.7741
21.8356
21.8979
21.9518
22.0076
22.0563
22.1068
22.151
22.1971
22.2377
22.2805
22.318
22.3575
22.3921
22.4285
22.4604
22.494
22.5232
22.5538
22.5801
22.6075
22.6308
22.6549
22.6749
22.6954
22.7119
22.7287
22.7416
22.7547
22.7643
22.774
22.7805
22.7873
22.7914
22.7958
22.798
22.8008
22.8018
22.8035
22.8039
22.805
22.8051
22.806
22.806
22.8067
22.8067
22.8074
22.8074
22.808
22.808
22.8086
22.8087
22.8093
22.8093
22.8099
22.81
22.8105
22.8106
22.8112
22.8112
22.8118
22.8119
22.8124
22.8125
22.8131
22.8132
22.8137
22.8138
22.8143
22.8144
22.815
22.8151
22.8156
22.8157
22.8162
22.8163
22.8168
22.8169
22.8174
22.8174
22.818
22.8178
22.8184
22.8194
22.8041
18.4941
20.8849
21.1607
21.2459
21.3028
21.3611
21.4111
21.4631
21.5092
21.5575
21.6005
21.6452
21.6848
21.7259
21.7626
21.8009
21.8352
21.8708
21.9025
21.9354
21.9647
21.995
22.0221
22.0499
22.0745
22.0997
22.1216
22.1439
22.163
22.1823
22.1985
22.2145
22.2274
22.2402
22.25
22.2596
22.2667
22.2735
22.2781
22.2826
22.2853
22.2881
22.2894
22.2911
22.2916
22.2926
22.2928
22.2934
22.2935
22.294
22.294
22.2945
22.2945
22.2949
22.2949
22.2954
22.2954
22.2958
22.2958
22.2962
22.2963
22.2967
22.2968
22.2971
22.2972
22.2976
22.2977
22.298
22.2981
22.2985
22.2986
22.2989
22.299
22.2993
22.2994
22.2998
22.2999
22.3002
22.3003
22.3007
22.3007
22.3011
22.3011
22.3014
22.3014
22.3018
22.3016
22.302
22.3013
22.29
18.1589
20.6665
20.9403
21.0043
21.0415
21.0829
21.1194