/*--------------------------------*- C++ -*----------------------------------*\
  =========                 |
  \\      /  F ield         | OpenFOAM: The Open Source CFD Toolbox
   \\    /   O peration     | Website:  https://openfoam.org
    \\  /    A nd           | Version:  7
     \\/     M anipulation  |
\*---------------------------------------------------------------------------*/
FoamFile
{
    version     2.0;
    format      ascii;
    class       volScalarField;
    location    "4.3";
    object      k;
}
// * * * * * * * * * * * * * * * * * * * * * * * * * * * * * * * * * * * * * //

dimensions      [0 2 -2 0 0 0 0];

internalField   nonuniform List<scalar> 
1800
(
0.272315
1.43146
1.91367
1.87995
1.72507
1.51259
1.35101
1.23388
1.14897
1.08505
1.03484
0.993838
0.959252
0.929385
0.903156
0.879868
0.859033
0.840278
0.823322
0.807894
0.793826
0.780893
0.768996
0.757989
0.747671
0.738243
0.728872
0.720983
0.71038
0.717231
0.00872305
0.142101
0.435969
0.63928
0.745676
0.784878
0.79384
0.792026
0.786788
0.77806
0.768716
0.758997
0.749113
0.739438
0.730094
0.721167
0.712615
0.704498
0.696675
0.689329
0.682095
0.675542
0.668674
0.663101
0.656213
0.651981
0.644656
0.64142
0.63212
0.632025
0.000106461
0.0054008
0.0277238
0.0758027
0.127894
0.168021
0.196629
0.217379
0.233393
0.246642
0.258098
0.26873
0.278792
0.288495
0.297522
0.306257
0.314157
0.32192
0.328614
0.335474
0.340906
0.347011
0.351156
0.356689
0.3596
0.364623
0.366639
0.370992
0.372255
0.375304
2.08603e-05
0.000143766
0.000989302
0.00358852
0.00913228
0.0164603
0.0235873
0.0303039
0.0362319
0.0417957
0.04678
0.0516724
0.0561631
0.0607846
0.0650719
0.0696225
0.0738372
0.0784148
0.0826257
0.0872702
0.0915151
0.0962148
0.100528
0.105214
0.109661
0.114184
0.118893
0.12299
0.128186
0.131548
2.02321e-05
2.39705e-05
4.58399e-05
0.000121724
0.000303409
0.000686113
0.00116643
0.00176107
0.0023726
0.00305611
0.00374942
0.00450296
0.00527133
0.00608991
0.00693001
0.00780562
0.00871287
0.00963893
0.0106145
0.0115884
0.0126395
0.0136595
0.0147993
0.0158618
0.017112
0.0182031
0.0196016
0.0206816
0.0222981
0.0233278
2.01452e-05
2.18172e-05
2.70008e-05
3.21261e-05
4.26598e-05
5.0447e-05
6.67464e-05
7.80401e-05
0.000101394
0.000116778
0.000148532
0.000169095
0.000211574
0.000238433
0.000293755
0.000327682
0.000397303
0.000438928
0.000522281
0.000575946
0.000672278
0.000739081
0.000849858
0.000930682
0.00105836
0.00115308
0.00130239
0.00140909
0.00158888
0.00170592
2.01452e-05
2.18174e-05
2.69987e-05
3.21267e-05
4.34729e-05
5.08478e-05
6.78222e-05
7.86947e-05
0.000102531
0.000117538
0.000149745
0.000169915
0.00021284
0.00023925
0.000294972
0.00032841
0.000398459
0.000439536
0.000525081
0.000574351
0.000676464
0.000734455
0.000854078
0.000921291
0.00105918
0.00113577
0.00129188
0.00137703
0.00155007
0.00164598
2.02321e-05
2.39727e-05
4.58594e-05
0.000121831
0.000340789
0.000634471
0.00124289
0.00169155
0.00244999
0.00298614
0.00382803
0.00443021
0.00535147
0.0060133
0.00701174
0.00772508
0.00879758
0.00955501
0.0107012
0.0114992
0.0127227
0.0135604
0.0148676
0.0157435
0.0171422
0.0180469
0.0195428
0.0204465
0.0220418
0.0229367
2.08601e-05
0.000143808
0.000989694
0.00359038
0.00915915
0.0164486
0.0236301
0.0302887
0.0362823
0.041768
0.0468372
0.0516283
0.0562318
0.0607221
0.0651576
0.0695384
0.0739455
0.0782996
0.0827559
0.0871069
0.091659
0.0959797
0.100662
0.104873
0.109725
0.113685
0.118743
0.122242
0.12748
0.130421
0.000106446
0.00540121
0.0277273
0.0758207
0.127924
0.168062
0.196665
0.217411
0.233421
0.246665
0.25812
0.268744
0.278812
0.288504
0.297543
0.306256
0.314175
0.321894
0.328623
0.335402
0.340896
0.346856
0.351097
0.356398
0.359414
0.364137
0.366086
0.370017
0.371131
0.373587
0.00872212
0.142099
0.435981
0.639302
0.745704
0.784906
0.79386
0.792045
0.786801
0.778067
0.768718
0.759
0.74911
0.739442
0.730081
0.721174
0.712589
0.704524
0.696629
0.689388
0.682005
0.67566
0.668525
0.663308
0.65602
0.652228
0.644546
0.641564
0.632194
0.632506
0.272315
1.43146
1.91367
1.87995
1.72506
1.51259
1.35102
1.23387
1.14895
1.08503
1.03483
0.993833
0.959249
0.929392
0.903159
0.879906
0.859069
0.840383
0.823393
0.808108
0.793963
0.781348
0.769272
0.758913
0.748229
0.740078
0.730084
0.724361
0.713632
0.721619
1.26952
1.4123
1.39994
1.37505
1.35917
1.34743
1.33904
1.33387
1.33136
1.33089
1.33171
1.33348
1.33572
1.33821
1.34079
1.34338
1.34591
1.34837
1.35075
1.35305
1.35527
1.35743
1.35953
1.36159
1.3636
1.36558
1.36752
1.36944
1.37133
1.37319
1.37504
1.37686
1.37866
1.38044
1.38221
1.38396
1.38568
1.3874
1.38909
1.39077
1.39243
1.39408
1.39571
1.39733
1.39893
1.40052
1.40209
1.40364
1.40519
1.40672
1.40823
1.40973
1.41122
1.4127
1.41416
1.41561
1.41705
1.41847
1.41988
1.42128
1.42267
1.42405
1.42541
1.42676
1.4281
1.42943
1.43075
1.43206
1.43335
1.43463
1.4359
1.43717
1.43842
1.43965
1.44088
1.4421
1.44331
1.4445
1.44569
1.44686
1.44802
1.44918
1.45032
1.45145
1.45257
1.45368
1.45478
1.45586
1.45694
1.458
1.45906
1.4601
1.46113
1.46216
1.46317
1.46416
1.46515
1.46613
1.46709
1.46805
1.46899
1.46992
1.47084
1.47176
1.47265
1.47354
1.47442
1.47529
1.47614
1.477
1.47781
1.47867
1.47944
1.48031
1.48101
1.48195
1.4825
1.48359
1.48393
1.48529
1.2472
1.55013
1.60845
1.60659
1.59898
1.59239
1.58895
1.58811
1.58887
1.59093
1.59381
1.597
1.60028
1.60354
1.60672
1.60979
1.61274
1.61558
1.61832
1.62098
1.62357
1.6261
1.62857
1.631
1.63338
1.63573
1.63805
1.64033
1.64259
1.64482
1.64702
1.6492
1.65136
1.6535
1.65561
1.6577
1.65977
1.66182
1.66386
1.66587
1.66786
1.66984
1.67179
1.67373
1.67565
1.67756
1.67944
1.68131
1.68316
1.685
1.68682
1.68863
1.69041
1.69219
1.69394
1.69569
1.69741
1.69913
1.70082
1.70251
1.70417
1.70583
1.70747
1.70909
1.7107
1.7123
1.71389
1.71546
1.71701
1.71856
1.72009
1.72161
1.72311
1.7246
1.72608
1.72754
1.729
1.73044
1.73186
1.73328
1.73468
1.73607
1.73744
1.73881
1.74016
1.74149
1.74282
1.74413
1.74543
1.74672
1.74799
1.74925
1.7505
1.75174
1.75296
1.75417
1.75537
1.75655
1.75772
1.75888
1.76002
1.76116
1.76228
1.76339
1.76448
1.76557
1.76663
1.7677
1.76873
1.76978
1.77078
1.77183
1.77277
1.77385
1.7747
1.77586
1.77653
1.77787
1.77835
1.77991
0.724483
1.07079
1.20402
1.24875
1.26595
1.2756
1.28346
1.29071
1.29724
1.30301
1.30799
1.31218
1.3157
1.31869
1.3213
1.32364
1.3258
1.32784
1.3298
1.33172
1.33359
1.33545
1.33729
1.33912
1.34093
1.34274
1.34453
1.34631
1.34807
1.34983
1.35157
1.35329
1.355
1.3567
1.35839
1.36006
1.36171
1.36335
1.36498
1.3666
1.3682
1.36979
1.37136
1.37292
1.37447
1.376
1.37752
1.37903
1.38053
1.38201
1.38348
1.38494
1.38638
1.38781
1.38923
1.39064
1.39204
1.39343
1.3948
1.39616
1.39751
1.39885
1.40018
1.4015
1.4028
1.4041
1.40538
1.40666
1.40792
1.40917
1.41041
1.41164
1.41286
1.41407
1.41527
1.41646
1.41764
1.41881
1.41997
1.42112
1.42226
1.42339
1.42451
1.42562
1.42672
1.42781
1.42889
1.42996
1.43102
1.43207
1.43311
1.43415
1.43517
1.43618
1.43719
1.43818
1.43916
1.44014
1.44111
1.44206
1.44301
1.44395
1.44488
1.4458
1.44671
1.44761
1.4485
1.44939
1.45025
1.45113
1.45197
1.45285
1.45364
1.45455
1.45526
1.45625
1.45681
1.45793
1.45839
1.45965
0.223486
0.492577
0.680399
0.783933
0.840907
0.87614
0.900695
0.919005
0.932796
0.943029
0.95047
0.955768
0.959501
0.962151
0.964089
0.965585
0.966829
0.967939
0.968992
0.97003
0.971078
0.972145
0.973233
0.974341
0.975466
0.976603
0.977749
0.978901
0.980056
0.981209
0.982361
0.98351
0.984654
0.985792
0.986925
0.98805
0.989168
0.990279
0.991383
0.992479
0.993568
0.99465
0.995724
0.99679
0.997849
0.998899
0.999943
1.00098
1.00201
1.00303
1.00404
1.00504
1.00604
1.00703
1.00801
1.00898
1.00995
1.01091
1.01186
1.0128
1.01374
1.01466
1.01558
1.0165
1.0174
1.0183
1.01919
1.02008
1.02095
1.02182
1.02269
1.02354
1.02439
1.02523
1.02607
1.02689
1.02772
1.02853
1.02934
1.03014
1.03093
1.03172
1.0325
1.03328
1.03405
1.03481
1.03557
1.03632
1.03707
1.03781
1.03854
1.03927
1.03999
1.0407
1.04141
1.04212
1.04282
1.04351
1.0442
1.04488
1.04556
1.04623
1.0469
1.04756
1.04822
1.04887
1.04951
1.05016
1.05079
1.05143
1.05204
1.05269
1.05326
1.05394
1.05445
1.05519
1.0556
1.05642
1.05678
1.05772
0.0364662
0.093479
0.210368
0.324601
0.412066
0.474512
0.518349
0.549074
0.570482
0.58517
0.595043
0.601507
0.605623
0.608173
0.609719
0.610655
0.611245
0.611656
0.611997
0.612326
0.612675
0.613059
0.613484
0.613944
0.614437
0.614957
0.615496
0.616052
0.616621
0.617198
0.61778
0.618367
0.618956
0.619546
0.620137
0.620725
0.621311
0.621895
0.622478
0.62306
0.62364
0.624219
0.624796
0.625371
0.625943
0.626513
0.62708
0.627644
0.628206
0.628764
0.629319
0.629871
0.63042
0.630966
0.631508
0.632046
0.632581
0.633112
0.63364
0.634164
0.634685
0.635202
0.635715
0.636224
0.63673
0.637231
0.63773
0.638224
0.638715
0.639202
0.639685
0.640165
0.640641
0.641114
0.641582
0.642048
0.64251
0.642968
0.643424
0.643875
0.644324
0.644769
0.645212
0.645651
0.646087
0.64652
0.646951
0.647378
0.647803
0.648226
0.648645
0.649063
0.649478
0.64989
0.650301
0.650709
0.651115
0.651519
0.65192
0.65232
0.652718
0.653114
0.653508
0.653901
0.65429
0.654682
0.655064
0.655456
0.65583
0.656226
0.656585
0.656994
0.657328
0.657762
0.658057
0.65853
0.658779
0.659284
0.659516
0.660108
0.00262835
0.00738627
0.0219266
0.0538262
0.102477
0.15467
0.202204
0.24122
0.271106
0.292925
0.308292
0.318802
0.325798
0.330332
0.333185
0.334922
0.335939
0.336507
0.336809
0.336965
0.337051
0.337112
0.337177
0.337259
0.337366
0.337499
0.337657
0.337839
0.338041
0.338261
0.338496
0.338743
0.339001
0.339266
0.339539
0.339819
0.340105
0.340395
0.340687
0.340981
0.341276
0.341571
0.341866
0.342162
0.342457
0.342752
0.343046
0.34334
0.343633
0.343925
0.344216
0.344506
0.344795
0.345082
0.345368
0.345652
0.345935
0.346217
0.346497
0.346775
0.347052
0.347327
0.347601
0.347872
0.348142
0.34841
0.348676
0.348941
0.349204
0.349465
0.349724
0.349981
0.350236
0.35049
0.350742
0.350993
0.351241
0.351488
0.351733
0.351977
0.352219
0.352459
0.352698
0.352936
0.353172
0.353406
0.35364
0.353872
0.354102
0.354332
0.35456
0.354788
0.355014
0.355239
0.355463
0.355686
0.355908
0.35613
0.35635
0.35657
0.356788
0.357007
0.357223
0.357441
0.357654
0.357873
0.358082
0.358303
0.358505
0.358733
0.358922
0.359162
0.359334
0.359591
0.359741
0.360016
0.360152
0.360431
0.360564
0.360901
0.00257105
0.00713109
0.0212605
0.0525225
0.101513
0.154421
0.202749
0.242489
0.272997
0.295349
0.311173
0.32209
0.32946
0.334349
0.337545
0.339616
0.340958
0.341846
0.34246
0.34292
0.343302
0.343652
0.343997
0.344352
0.344724
0.345114
0.345523
0.345948
0.346387
0.346838
0.347297
0.347763
0.348234
0.348709
0.349185
0.349665
0.350146
0.350627
0.351107
0.351585
0.35206
0.352533
0.353003
0.35347
0.353934
0.354396
0.354854
0.355309
0.355762
0.356211
0.356657
0.3571
0.35754
0.357976
0.35841
0.35884
0.359268
0.359692
0.360113
0.36053
0.360945
0.361356
0.361765
0.36217
0.362572
0.362971
0.363366
0.363759
0.364149
0.364535
0.364919
0.365299
0.365677
0.366051
0.366422
0.366791
0.367156
0.367518
0.367878
0.368234
0.368588
0.368939
0.369286
0.369631
0.369973
0.370312
0.370648
0.370982
0.371312
0.371639
0.371964
0.372286
0.372605
0.372921
0.373234
0.373545
0.373852
0.374157
0.374458
0.374758
0.375053
0.375347
0.375636
0.375926
0.376208
0.376493
0.376766
0.37705
0.377312
0.377598
0.377844
0.378137
0.378361
0.378669
0.378864
0.37919
0.379359
0.379695
0.379854
0.380249
0.0362345
0.0922746
0.207872
0.323726
0.41331
0.47753
0.522736
0.554508
0.576726
0.592063
0.60245
0.609353
0.613862
0.616782
0.618683
0.61996
0.620876
0.621605
0.622251
0.622874
0.62351
0.624171
0.624863
0.625586
0.626333
0.627101
0.627885
0.62868
0.629482
0.630289
0.631098
0.631906
0.632715
0.633521
0.634323
0.635121
0.635914
0.636702
0.637487
0.638269
0.639047
0.63982
0.64059
0.641355
0.642116
0.642873
0.643624
0.644371
0.645114
0.645851
0.646583
0.647311
0.648034
0.648751
0.649464
0.650171
0.650874
0.651571
0.652263
0.65295
0.653632
0.654309
0.65498
0.655647
0.656308
0.656964
0.657616
0.658262
0.658902
0.659538
0.660169
0.660795
0.661416
0.662031
0.662642
0.663248
0.663849
0.664445
0.665036
0.665622
0.666203
0.66678
0.667352
0.667919
0.668481
0.669039
0.669591
0.67014
0.670683
0.671222
0.671756
0.672286
0.672811
0.673332
0.673848
0.674359
0.674866
0.675369
0.675867
0.676361
0.67685
0.677335
0.677815
0.678292
0.678762
0.679232
0.679691
0.680156
0.680601
0.681065
0.681492
0.681962
0.68236
0.682849
0.683203
0.683728
0.684025
0.684588
0.684853
0.685509
0.224623
0.490247
0.681576
0.788391
0.847412
0.883782
0.90897
0.927543
0.941401
0.95157
0.958817
0.963873
0.967336
0.969705
0.971359
0.972569
0.973528
0.974359
0.975138
0.97591
0.976701
0.97752
0.97837
0.979251
0.980159
0.98109
0.982041
0.983006
0.983982
0.984968
0.98596
0.986957
0.987956
0.988957
0.989958
0.99096
0.991959
0.992956
0.993952
0.994945
0.995935
0.996921
0.997904
0.998883
0.999857
1.00083
1.00179
1.00275
1.00371
1.00466
1.0056
1.00654
1.00747
1.0084
1.00932
1.01023
1.01114
1.01205
1.01294
1.01383
1.01472
1.01559
1.01646
1.01733
1.01819
1.01904
1.01988
1.02072
1.02156
1.02238
1.0232
1.02401
1.02482
1.02562
1.02642
1.02721
1.02799
1.02876
1.02953
1.0303
1.03105
1.03181
1.03255
1.03329
1.03403
1.03476
1.03548
1.0362
1.03691
1.03762
1.03832
1.03901
1.0397
1.04039
1.04107
1.04174
1.04242
1.04308
1.04374
1.0444
1.04505
1.0457
1.04634
1.04698
1.04761
1.04824
1.04886
1.04948
1.05009
1.05072
1.0513
1.05194
1.05249
1.05315
1.05365
1.05437
1.05477
1.05557
1.05592
1.05684
0.726696
1.07345
1.2107
1.25671
1.27373
1.28274
1.28976
1.296
1.30157
1.30636
1.31027
1.31343
1.31593
1.31792
1.31954
1.3209
1.3221
1.32321
1.32426
1.32529
1.32631
1.32734
1.32838
1.32944
1.33051
1.3316
1.3327
1.33381
1.33493
1.33606
1.3372
1.33834
1.33948
1.34063
1.34177
1.34292
1.34407
1.34522
1.34636
1.34751
1.34865
1.34978
1.35092
1.35205
1.35317
1.35429
1.3554
1.35651
1.35762
1.35871
1.3598
1.36089
1.36197
1.36304
1.3641
1.36516
1.36621
1.36726
1.36829
1.36932
1.37035
1.37136
1.37237
1.37337
1.37436
1.37535
1.37633
1.3773
1.37826
1.37922
1.38017
1.38111
1.38205
1.38297
1.38389
1.38481
1.38571
1.38661
1.38751
1.38839
1.38927
1.39014
1.39101
1.39187
1.39272
1.39357
1.39441
1.39524
1.39607
1.39689
1.39771
1.39852
1.39933
1.40013
1.40093
1.40172
1.40251
1.40329
1.40406
1.40484
1.4056
1.40637
1.40713
1.40788
1.40863
1.40938
1.41012
1.41086
1.41159
1.41234
1.41304
1.4138
1.41447
1.41527
1.41587
1.41674
1.41723
1.41822
1.41862
1.41975
1.24994
1.5563
1.61336
1.60984
1.59953
1.59064
1.58505
1.58205
1.58111
1.58144
1.58249
1.58406
1.58573
1.58741
1.58903
1.59057
1.59202
1.5934
1.59473
1.59601
1.59726
1.59849
1.59971
1.60092
1.60213
1.60334
1.60455
1.60575
1.60697
1.60818
1.60939
1.61061
1.61182
1.61304
1.61425
1.61546
1.61667
1.61788
1.61909
1.62029
1.62149
1.62268
1.62387
1.62506
1.62624
1.62741
1.62858
1.62974
1.6309
1.63204
1.63319
1.63432
1.63545
1.63657
1.63769
1.6388
1.6399
1.64099
1.64207
1.64315
1.64422
1.64528
1.64633
1.64738
1.64842
1.64945
1.65047
1.65149
1.65249
1.65349
1.65448
1.65547
1.65644
1.65741
1.65838
1.65933
1.66028
1.66122
1.66215
1.66308
1.66399
1.66491
1.66581
1.66671
1.6676
1.66849
1.66937
1.67025
1.67111
1.67198
1.67284
1.67369
1.67454
1.67538
1.67622
1.67705
1.67788
1.6787
1.67953
1.68034
1.68116
1.68197
1.68277
1.68357
1.68437
1.68517
1.68596
1.68676
1.68754
1.68834
1.6891
1.68991
1.69064
1.69149
1.69215
1.6931
1.69362
1.69472
1.69511
1.6964
1.26415
1.40752
1.39033
1.36325
1.34464
1.33046
1.31993
1.31286
1.30866
1.30654
1.30582
1.30605
1.30679
1.30784
1.30898
1.31016
1.31131
1.31241
1.31347
1.31448
1.31546
1.3164
1.31732
1.31823
1.31912
1.32
1.32087
1.32175
1.32262
1.32348
1.32435
1.32522
1.32608
1.32694
1.3278
1.32866
1.32952
1.33037
1.33122
1.33207
1.33291
1.33375
1.33459
1.33542
1.33625
1.33707
1.33789
1.3387
1.33951
1.34031
1.34111
1.3419
1.34269
1.34347
1.34425
1.34502
1.34579
1.34655
1.3473
1.34805
1.34879
1.34953
1.35026
1.35099
1.35171
1.35243
1.35314
1.35384
1.35454
1.35524
1.35592
1.35661
1.35728
1.35796
1.35862
1.35929
1.35994
1.36059
1.36124
1.36188
1.36252
1.36315
1.36378
1.36441
1.36503
1.36564
1.36625
1.36686
1.36747
1.36807
1.36867
1.36926
1.36985
1.37044
1.37102
1.37161
1.37219
1.37277
1.37334
1.37391
1.37449
1.37506
1.37563
1.37619
1.37676
1.37732
1.37789
1.37845
1.37901
1.37958
1.38013
1.38071
1.38123
1.38185
1.38233
1.38301
1.38339
1.3842
1.38444
1.38547
)
;

boundaryField
{
    upperWall
    {
        type            fixedValue;
        value           uniform 0;
    }
    lowerWall
    {
        type            fixedValue;
        value           uniform 0;
    }
    heatedWall
    {
        type            fixedValue;
        value           uniform 0;
    }
    inlet
    {
        type            fixedValue;
        value           uniform 2e-05;
    }
    outlet
    {
        type            inletOutlet;
        inletValue      uniform 0;
        value           nonuniform List<scalar> 
12
(
1.48529
1.77991
1.45965
1.05772
0.660108
0.360901
0.380249
0.685509
1.05684
1.41975
1.6964
1.38547
)
;
    }
    frontAndBack
    {
        type            empty;
    }
}


// ************************************************************************* //
