/*--------------------------------*- C++ -*----------------------------------*\
  =========                 |
  \\      /  F ield         | OpenFOAM: The Open Source CFD Toolbox
   \\    /   O peration     | Website:  https://openfoam.org
    \\  /    A nd           | Version:  7
     \\/     M anipulation  |
\*---------------------------------------------------------------------------*/
FoamFile
{
    version     2.0;
    format      ascii;
    class       volScalarField;
    location    "0.4";
    object      alphat;
}
// * * * * * * * * * * * * * * * * * * * * * * * * * * * * * * * * * * * * * //

dimensions      [1 -1 -1 0 0 0 0];

internalField   nonuniform List<scalar> 
3000
(
0.0679806
0.0682932
0.0683061
0.0683091
0.0683044
0.068302
0.0683008
0.0682957
0.0682995
0.0683472
0.035662
0.0346225
0.0345232
0.034539
0.0345229
0.0345243
0.0345273
0.0345248
0.0345333
0.0346123
0.0265447
0.0260383
0.0258933
0.025926
0.0259005
0.0259091
0.0259081
0.0259076
0.0259066
0.0259847
0.0252467
0.0249857
0.0248642
0.0249122
0.0248861
0.0248986
0.0248965
0.0248965
0.0248982
0.0249527
0.0248834
0.024756
0.0246818
0.0247387
0.0247123
0.0247272
0.0247247
0.0247254
0.0247262
0.0247765
0.0249298
0.02481
0.0247222
0.024784
0.0247588
0.0247746
0.0247722
0.0247733
0.0247744
0.0248213
0.0249298
0.02481
0.0247222
0.024784
0.0247588
0.0247746
0.0247723
0.0247732
0.0247746
0.0248208
0.0248834
0.024756
0.0246818
0.0247387
0.0247123
0.0247272
0.0247247
0.0247252
0.0247267
0.0247749
0.0252467
0.0249857
0.0248642
0.0249122
0.0248861
0.0248986
0.0248965
0.0248962
0.0248988
0.0249503
0.0265447
0.0260383
0.0258933
0.025926
0.0259005
0.0259091
0.0259082
0.0259074
0.0259071
0.0259821
0.035662
0.0346225
0.0345232
0.034539
0.0345229
0.0345243
0.0345274
0.0345247
0.0345336
0.0346097
0.0679806
0.0682932
0.0683061
0.0683091
0.0683044
0.068302
0.0683008
0.0682957
0.0682995
0.068347
0.0256948
0.026082
0.0261568
0.026131
0.0261337
0.026129
0.0261239
0.0261155
0.0261074
0.0261455
0.0242273
0.0249972
0.024953
0.0249731
0.0249672
0.02497
0.0249752
0.0249735
0.0249883
0.0250215
0.0231316
0.0241495
0.0241373
0.0241902
0.0241865
0.0241932
0.0242036
0.024206
0.0242258
0.0242803
0.0233477
0.0243365
0.0243089
0.0243524
0.0243556
0.0243631
0.0243723
0.0243734
0.0243912
0.0244309
0.0231098
0.0241249
0.0241459
0.0242096
0.0242158
0.0242231
0.024232
0.0242338
0.0242462
0.0242892
0.0232187
0.0242187
0.0242292
0.0242795
0.0242838
0.0242918
0.0243002
0.0243005
0.0243122
0.0243512
0.0232187
0.0242187
0.0242292
0.0242795
0.0242838
0.0242918
0.0243003
0.0243005
0.0243121
0.024351
0.0231098
0.0241249
0.0241459
0.0242096
0.0242158
0.024223
0.0242321
0.0242336
0.024246
0.0242885
0.0233477
0.0243365
0.0243089
0.0243524
0.0243556
0.024363
0.0243725
0.0243732
0.0243911
0.02443
0.0231316
0.0241495
0.0241374
0.0241902
0.0241865
0.0241931
0.0242037
0.0242056
0.0242263
0.0242784
0.0242273
0.0249972
0.024953
0.0249731
0.0249672
0.02497
0.0249754
0.0249732
0.0249887
0.0250196
0.0256948
0.026082
0.0261568
0.0261309
0.0261338
0.026129
0.026124
0.0261152
0.0261079
0.0261435
0.00846345
0.00888635
0.00892651
0.00888773
0.00889319
0.00889081
0.00888892
0.00888912
0.00888867
0.00894323
0.00834831
0.00922118
0.0092358
0.00924079
0.00923608
0.00923525
0.00923676
0.00923898
0.00925113
0.00930047
0.00784513
0.00875695
0.00881352
0.00884142
0.00884255
0.00884675
0.00885062
0.00885367
0.00885818
0.00891186
0.00792891
0.00897237
0.00898334
0.00900861
0.00901178
0.00901282
0.00901786
0.00902472
0.00904751
0.00909872
0.00776462
0.0087546
0.00875632
0.00877773
0.00878386
0.00878814
0.00879186
0.00879532
0.00880502
0.00885392
0.0077864
0.00884567
0.00884862
0.00886484
0.00886591
0.00886482
0.00886874
0.0088753
0.00889813
0.00894812
0.0077864
0.00884566
0.00884863
0.00886483
0.00886593
0.00886478
0.00886879
0.00887523
0.00889828
0.00894812
0.00776462
0.00875459
0.00875633
0.00877772
0.00878388
0.00878803
0.00879203
0.00879506
0.00880536
0.00885279
0.00792891
0.00897237
0.00898336
0.00900858
0.00901183
0.0090127
0.00901804
0.00902432
0.00904789
0.00909745
0.00784513
0.00875695
0.00881353
0.00884139
0.00884261
0.00884662
0.00885087
0.00885326
0.00885911
0.00890987
0.00834831
0.00922118
0.00923581
0.00924077
0.00923612
0.00923521
0.00923688
0.00923868
0.00925193
0.00929827
0.00846345
0.00888635
0.00892652
0.00888771
0.00889322
0.00889077
0.00888904
0.00888903
0.00888949
0.00894164
0.0256948
0.026082
0.0261568
0.026131
0.0261337
0.026129
0.0261239
0.0261155
0.0261074
0.0261455
0.0242273
0.0249972
0.024953
0.0249731
0.0249672
0.02497
0.0249752
0.0249735
0.0249883
0.0250215
0.0231316
0.0241495
0.0241373
0.0241902
0.0241865
0.0241932
0.0242036
0.024206
0.0242258
0.0242803
0.0233477
0.0243365
0.0243089
0.0243524
0.0243556
0.0243631
0.0243723
0.0243734
0.0243912
0.0244309
0.0231098
0.0241249
0.0241459
0.0242096
0.0242158
0.0242231
0.024232
0.0242338
0.0242462
0.0242892
0.0232187
0.0242187
0.0242292
0.0242795
0.0242838
0.0242918
0.0243002
0.0243005
0.0243122
0.0243512
0.0232187
0.0242187
0.0242292
0.0242795
0.0242838
0.0242918
0.0243003
0.0243005
0.0243121
0.024351
0.0231098
0.0241249
0.0241459
0.0242096
0.0242158
0.024223
0.0242321
0.0242336
0.024246
0.0242885
0.0233477
0.0243365
0.0243089
0.0243524
0.0243556
0.024363
0.0243725
0.0243732
0.0243911
0.02443
0.0231316
0.0241495
0.0241374
0.0241902
0.0241865
0.0241931
0.0242037
0.0242056
0.0242263
0.0242784
0.0242273
0.0249972
0.024953
0.0249731
0.0249672
0.02497
0.0249754
0.0249732
0.0249887
0.0250196
0.0256948
0.026082
0.0261568
0.0261309
0.0261338
0.026129
0.026124
0.0261152
0.0261079
0.0261435
0.0679806
0.0682932
0.0683061
0.0683091
0.0683044
0.068302
0.0683008
0.0682957
0.0682995
0.0683472
0.035662
0.0346225
0.0345232
0.034539
0.0345229
0.0345243
0.0345273
0.0345248
0.0345333
0.0346123
0.0265447
0.0260383
0.0258933
0.025926
0.0259005
0.0259091
0.0259081
0.0259076
0.0259066
0.0259847
0.0252467
0.0249857
0.0248642
0.0249122
0.0248861
0.0248986
0.0248965
0.0248965
0.0248982
0.0249527
0.0248834
0.024756
0.0246818
0.0247387
0.0247123
0.0247272
0.0247247
0.0247254
0.0247262
0.0247765
0.0249298
0.02481
0.0247222
0.024784
0.0247588
0.0247746
0.0247722
0.0247733
0.0247744
0.0248213
0.0249298
0.02481
0.0247222
0.024784
0.0247588
0.0247746
0.0247723
0.0247732
0.0247746
0.0248208
0.0248834
0.024756
0.0246818
0.0247387
0.0247123
0.0247272
0.0247247
0.0247252
0.0247267
0.0247749
0.0252467
0.0249857
0.0248642
0.0249122
0.0248861
0.0248986
0.0248965
0.0248962
0.0248988
0.0249503
0.0265447
0.0260383
0.0258933
0.025926
0.0259005
0.0259091
0.0259082
0.0259074
0.0259071
0.0259821
0.035662
0.0346225
0.0345232
0.034539
0.0345229
0.0345243
0.0345274
0.0345247
0.0345336
0.0346097
0.0679806
0.0682932
0.0683061
0.0683091
0.0683044
0.068302
0.0683008
0.0682957
0.0682995
0.068347
0.191844
0.191737
0.191617
0.191483
0.191374
0.191259
0.191151
0.191039
0.190928
0.190816
0.190703
0.19059
0.190477
0.190364
0.19025
0.190136
0.190021
0.189906
0.189791
0.189676
0.18956
0.189444
0.189328
0.189212
0.189095
0.188978
0.188861
0.188743
0.188625
0.188507
0.188389
0.188271
0.188152
0.188033
0.187914
0.187794
0.187674
0.187554
0.187432
0.187306
0.128402
0.128616
0.128528
0.12845
0.128371
0.128298
0.128223
0.12815
0.128076
0.128001
0.127926
0.127851
0.127776
0.1277
0.127625
0.127549
0.127472
0.127396
0.127319
0.127242
0.127165
0.127088
0.12701
0.126933
0.126855
0.126777
0.126699
0.126621
0.126542
0.126464
0.126385
0.126306
0.126227
0.126148
0.126068
0.125989
0.125909
0.125829
0.125743
0.125652
0.101422
0.101978
0.101888
0.101844
0.101773
0.101722
0.101661
0.101606
0.101547
0.101489
0.101431
0.101372
0.101313
0.101254
0.101195
0.101136
0.101076
0.101016
0.100956
0.100896
0.100836
0.100776
0.100715
0.100655
0.100594
0.100533
0.100472
0.100411
0.10035
0.100288
0.100227
0.100165
0.100104
0.100042
0.0999799
0.0999181
0.0998552
0.0997934
0.0997246
0.0996463
0.0931796
0.0939956
0.0938977
0.0938732
0.0938012
0.0937605
0.0937022
0.093654
0.0935994
0.0935482
0.0934945
0.0934419
0.0933883
0.0933349
0.0932811
0.0932272
0.093173
0.0931188
0.0930644
0.0930098
0.0929551
0.0929003
0.0928454
0.0927904
0.0927352
0.09268
0.0926246
0.0925692
0.0925137
0.0924581
0.0924023
0.0923466
0.0922905
0.0922347
0.0921782
0.0921224
0.0920651
0.0920094
0.091946
0.0918708
0.0906924
0.0916569
0.0915497
0.0915356
0.091461
0.0914252
0.0913673
0.091322
0.0912689
0.0912199
0.0911681
0.0911175
0.0910658
0.0910144
0.0909626
0.0909107
0.0908585
0.0908062
0.0907538
0.0907012
0.0906485
0.0905957
0.0905427
0.0904897
0.0904366
0.0903833
0.09033
0.0902766
0.0902231
0.0901696
0.0901158
0.0900622
0.0900081
0.0899545
0.0899
0.0898465
0.0897911
0.0897376
0.0896769
0.0896006
0.0902674
0.0913029
0.0911885
0.091178
0.0911017
0.0910674
0.0910095
0.0909651
0.0909122
0.0908639
0.0908125
0.0907625
0.0907113
0.0906604
0.0906091
0.0905577
0.090506
0.0904542
0.0904023
0.0903502
0.090298
0.0902457
0.0901933
0.0901407
0.0900881
0.0900354
0.0899826
0.0899297
0.0898767
0.0898237
0.0897705
0.0897174
0.0896639
0.0896109
0.0895569
0.089504
0.0894491
0.0893966
0.0893376
0.0892613
0.0902675
0.091304
0.0911894
0.0911789
0.0911026
0.0910683
0.0910104
0.090966
0.0909132
0.0908648
0.0908134
0.0907634
0.0907122
0.0906614
0.09061
0.0905586
0.090507
0.0904552
0.0904032
0.0903512
0.090299
0.0902467
0.0901942
0.0901417
0.0900891
0.0900364
0.0899836
0.0899307
0.0898777
0.0898247
0.0897715
0.0897184
0.0896649
0.0896119
0.0895579
0.089505
0.0894501
0.0893976
0.0893386
0.0892623
0.0906917
0.0916583
0.0915507
0.0915368
0.0914621
0.0914263
0.0913684
0.0913232
0.09127
0.0912211
0.0911692
0.0911187
0.091067
0.0910156
0.0909638
0.0909119
0.0908597
0.0908074
0.090755
0.0907024
0.0906497
0.0905969
0.090544
0.090491
0.0904378
0.0903846
0.0903313
0.0902779
0.0902244
0.0901709
0.0901171
0.0900635
0.0900095
0.0899559
0.0899014
0.0898479
0.0897925
0.089739
0.0896783
0.0896019
0.0931755
0.0939943
0.0938961
0.0938717
0.0937997
0.093759
0.0937007
0.0936526
0.0935979
0.0935467
0.093493
0.0934404
0.0933868
0.0933334
0.0932796
0.0932258
0.0931716
0.0931174
0.093063
0.0930084
0.0929538
0.092899
0.0928441
0.092789
0.0927339
0.0926787
0.0926233
0.0925679
0.0925124
0.0924568
0.092401
0.0923453
0.0922892
0.0922335
0.092177
0.0921212
0.0920639
0.0920082
0.0919448
0.0918696
0.101413
0.101973
0.101883
0.101839
0.101767
0.101717
0.101655
0.1016
0.101541
0.101484
0.101425
0.101367
0.101308
0.101249
0.10119
0.10113
0.101071
0.101011
0.100951
0.100891
0.100831
0.10077
0.10071
0.100649
0.100589
0.100528
0.100467
0.100406
0.100345
0.100283
0.100222
0.10016
0.100099
0.100037
0.0999748
0.099913
0.0998501
0.0997883
0.0997195
0.0996411
0.12841
0.12863
0.128542
0.128464
0.128385
0.128312
0.128238
0.128165
0.12809
0.128016
0.127941
0.127866
0.127791
0.127715
0.127639
0.127563
0.127487
0.12741
0.127333
0.127257
0.127179
0.127102
0.127025
0.126947
0.12687
0.126792
0.126714
0.126635
0.126557
0.126478
0.1264
0.126321
0.126242
0.126162
0.126083
0.126003
0.125923
0.125844
0.125757
0.125667
0.191918
0.191822
0.191704
0.19157
0.191462
0.191347
0.191238
0.191126
0.191015
0.190903
0.190791
0.190678
0.190565
0.190451
0.190337
0.190223
0.190108
0.189994
0.189878
0.189763
0.189647
0.189531
0.189415
0.189299
0.189182
0.189065
0.188948
0.18883
0.188713
0.188595
0.188476
0.188358
0.188239
0.18812
0.188001
0.187881
0.187761
0.187642
0.18752
0.187393
0.0862417
0.0862982
0.0862275
0.0861705
0.0861183
0.0860681
0.0860189
0.0859692
0.0859196
0.0858697
0.0858196
0.0857694
0.0857189
0.0856682
0.0856174
0.0855665
0.0855153
0.0854641
0.0854127
0.0853612
0.0853095
0.0852578
0.0852059
0.0851539
0.0851018
0.0850496
0.0849973
0.0849448
0.0848923
0.0848397
0.0847869
0.084734
0.084681
0.084628
0.0845747
0.0845216
0.0844682
0.0844156
0.0843637
0.0843114
0.0915815
0.0918405
0.0917971
0.0917414
0.0916881
0.0916351
0.0915829
0.09153
0.0914772
0.091424
0.0913707
0.0913171
0.0912634
0.0912094
0.0911553
0.091101
0.0910465
0.0909919
0.0909372
0.0908823
0.0908273
0.0907721
0.0907169
0.0906615
0.090606
0.0905504
0.0904946
0.0904388
0.0903828
0.0903268
0.0902705
0.0902143
0.0901577
0.0901013
0.0900445
0.0899879
0.0899306
0.0898745
0.0898127
0.089759
0.0883803
0.0888473
0.0888185
0.0887633
0.0887128
0.0886609
0.0886107
0.0885594
0.0885084
0.0884569
0.0884053
0.0883535
0.0883015
0.0882492
0.0881969
0.0881443
0.0880917
0.0880388
0.0879859
0.0879328
0.0878795
0.0878262
0.0877727
0.0877192
0.0876655
0.0876117
0.0875578
0.0875037
0.0874496
0.0873953
0.0873409
0.0872865
0.0872318
0.0871772
0.0871222
0.0870675
0.0870119
0.0869575
0.0868981
0.0868346
0.0879976
0.0886018
0.0885824
0.0885263
0.0884775
0.088425
0.0883751
0.0883236
0.0882726
0.0882209
0.0881693
0.0881174
0.0880654
0.0880131
0.0879607
0.0879081
0.0878554
0.0878025
0.0877495
0.0876963
0.0876431
0.0875897
0.0875362
0.0874826
0.0874289
0.087375
0.0873211
0.087267
0.0872128
0.0871585
0.087104
0.0870496
0.0869948
0.0869402
0.0868851
0.0868303
0.0867747
0.0867201
0.0866595
0.0865942
0.0870507
0.0877655
0.0877498
0.0876923
0.0876446
0.0875917
0.0875426
0.0874911
0.0874407
0.0873894
0.0873382
0.0872866
0.087235
0.0871831
0.0871311
0.087079
0.0870266
0.0869742
0.0869216
0.0868689
0.086816
0.0867631
0.08671
0.0866568
0.0866035
0.0865501
0.0864965
0.0864429
0.0863891
0.0863352
0.0862812
0.0862271
0.0861728
0.0861185
0.0860639
0.0860096
0.0859544
0.0859003
0.0858414
0.0857734
0.0870919
0.087853
0.0878392
0.087781
0.0877336
0.0876806
0.0876315
0.0875799
0.0875293
0.0874779
0.0874266
0.0873749
0.0873232
0.0872712
0.0872191
0.0871668
0.0871144
0.0870618
0.0870091
0.0869563
0.0869033
0.0868502
0.0867971
0.0867437
0.0866903
0.0866368
0.0865831
0.0865294
0.0864755
0.0864215
0.0863673
0.0863131
0.0862587
0.0862043
0.0861496
0.0860951
0.0860398
0.0859854
0.0859261
0.0858575
0.0870914
0.0878534
0.0878395
0.0877813
0.0877339
0.0876809
0.0876318
0.0875802
0.0875296
0.0874782
0.0874269
0.0873752
0.0873235
0.0872715
0.0872194
0.0871671
0.0871147
0.0870621
0.0870094
0.0869566
0.0869036
0.0868506
0.0867974
0.0867441
0.0866906
0.0866371
0.0865834
0.0865297
0.0864758
0.0864218
0.0863676
0.0863134
0.086259
0.0862046
0.0861499
0.0860954
0.0860401
0.0859857
0.0859264
0.0858579
0.087051
0.0877682
0.0877525
0.087695
0.0876473
0.0875944
0.0875453
0.0874939
0.0874434
0.0873921
0.0873409
0.0872893
0.0872377
0.0871858
0.0871338
0.0870817
0.0870294
0.0869769
0.0869243
0.0868716
0.0868187
0.0867658
0.0867127
0.0866595
0.0866062
0.0865528
0.0864992
0.0864456
0.0863918
0.086338
0.0862839
0.0862298
0.0861755
0.0861213
0.0860667
0.0860123
0.0859572
0.085903
0.0858442
0.0857763
0.0879969
0.0886046
0.0885851
0.0885291
0.0884802
0.0884277
0.0883779
0.0883263
0.0882753
0.0882237
0.0881721
0.0881202
0.0880681
0.0880158
0.0879634
0.0879109
0.0878581
0.0878053
0.0877523
0.0876991
0.0876459
0.0875925
0.087539
0.0874854
0.0874316
0.0873778
0.0873238
0.0872698
0.0872156
0.0871613
0.0871068
0.0870524
0.0869976
0.086943
0.0868879
0.0868331
0.0867775
0.0867229
0.0866624
0.0865972
0.0883841
0.0888566
0.0888279
0.0887729
0.0887223
0.0886705
0.0886202
0.088569
0.088518
0.0884665
0.0884149
0.088363
0.088311
0.0882588
0.0882065
0.0881539
0.0881012
0.0880484
0.0879955
0.0879424
0.0878891
0.0878358
0.0877824
0.0877288
0.0876751
0.0876213
0.0875674
0.0875134
0.0874592
0.087405
0.0873506
0.0872962
0.0872415
0.0871869
0.0871319
0.0870772
0.0870216
0.0869672
0.0869078
0.0868444
0.0915983
0.0918637
0.0918206
0.091765
0.0917117
0.0916587
0.0916064
0.0915537
0.0915008
0.0914477
0.0913943
0.0913408
0.091287
0.0912331
0.0911789
0.0911247
0.0910702
0.0910156
0.0909609
0.090906
0.090851
0.0907958
0.0907406
0.0906852
0.0906297
0.0905741
0.0905184
0.0904626
0.0904066
0.0903505
0.0902943
0.090238
0.0901815
0.0901251
0.0900683
0.0900117
0.0899544
0.0898983
0.0898366
0.089783
0.0862935
0.0863579
0.0862879
0.0862311
0.086179
0.0861287
0.0860795
0.0860299
0.0859803
0.0859304
0.0858804
0.0858301
0.0857796
0.085729
0.0856782
0.0856272
0.0855761
0.0855249
0.0854735
0.085422
0.0853703
0.0853186
0.0852667
0.0852147
0.0851626
0.0851104
0.0850581
0.0850057
0.0849532
0.0849005
0.0848478
0.0847949
0.0847419
0.0846889
0.0846356
0.0845825
0.0845291
0.0844766
0.0844247
0.0843724
0.0402265
0.0404627
0.0404081
0.0404067
0.0403747
0.0403595
0.0403346
0.0403149
0.0402918
0.0402704
0.0402478
0.0402257
0.0402031
0.0401806
0.0401579
0.0401352
0.0401123
0.0400894
0.0400664
0.0400433
0.0400202
0.039997
0.0399738
0.0399505
0.0399272
0.0399038
0.0398804
0.039857
0.0398335
0.03981
0.0397865
0.039763
0.0397393
0.0397158
0.0396919
0.0396687
0.0396446
0.0396232
0.0395981
0.0395837
0.0483102
0.048794
0.0487575
0.0487392
0.0487057
0.0486814
0.0486528
0.0486266
0.0485987
0.0485717
0.0485439
0.0485164
0.0484885
0.0484607
0.0484327
0.0484046
0.0483764
0.0483481
0.0483198
0.0482913
0.0482629
0.0482343
0.0482057
0.048177
0.0481483
0.0481195
0.0480907
0.0480618
0.0480328
0.0480038
0.0479748
0.0479457
0.0479165
0.0478874
0.047858
0.0478291
0.0477995
0.0477719
0.0477409
0.0477188
0.0479094
0.0486208
0.0486016
0.0485775
0.0485467
0.0485206
0.0484926
0.0484657
0.0484379
0.0484104
0.0483825
0.0483547
0.0483267
0.0482986
0.0482704
0.0482422
0.0482138
0.0481854
0.0481569
0.0481283
0.0480997
0.048071
0.0480422
0.0480133
0.0479844
0.0479555
0.0479265
0.0478974
0.0478683
0.0478391
0.0478099
0.0477806
0.0477512
0.0477219
0.0476923
0.0476631
0.0476331
0.0476046
0.0475727
0.0475416
0.0476945
0.0485783
0.0485726
0.0485395
0.0485106
0.0484812
0.048454
0.0484258
0.0483981
0.04837
0.0483419
0.0483137
0.0482854
0.048257
0.0482286
0.0482
0.0481713
0.0481426
0.0481138
0.0480849
0.048056
0.048027
0.0479979
0.0479688
0.0479396
0.0479103
0.047881
0.0478516
0.0478222
0.0477927
0.0477631
0.0477336
0.0477038
0.0476742
0.0476443
0.0476147
0.0475847
0.0475559
0.0475253
0.0474918
0.0470304
0.0480433
0.0480455
0.0480096
0.0479824
0.0479532
0.0479264
0.0478983
0.0478708
0.0478428
0.0478149
0.0477868
0.0477586
0.0477303
0.047702
0.0476735
0.047645
0.0476164
0.0475877
0.047559
0.0475302
0.0475013
0.0474724
0.0474434
0.0474143
0.0473852
0.047356
0.0473268
0.0472975
0.0472681
0.0472386
0.0472092
0.0471796
0.04715
0.0471202
0.0470907
0.0470607
0.0470315
0.0469999
0.0469647
0.0469854
0.048066
0.0480731
0.0480346
0.0480076
0.0479763
0.0479499
0.047921
0.0478936
0.0478653
0.0478373
0.047809
0.0477807
0.0477523
0.0477238
0.0476952
0.0476665
0.0476378
0.047609
0.0475801
0.0475511
0.0475221
0.047493
0.0474639
0.0474347
0.0474054
0.047376
0.0473467
0.0473172
0.0472877
0.0472581
0.0472284
0.0471987
0.047169
0.0471391
0.0471094
0.0470795
0.0470505
0.0470209
0.0469853
0.0469836
0.048066
0.0480731
0.0480346
0.0480076
0.0479763
0.0479499
0.047921
0.0478936
0.0478653
0.0478373
0.047809
0.0477807
0.0477523
0.0477238
0.0476952
0.0476665
0.0476378
0.047609
0.0475801
0.0475511
0.0475221
0.047493
0.0474639
0.0474347
0.0474054
0.0473761
0.0473467
0.0473172
0.0472877
0.0472581
0.0472284
0.0471987
0.047169
0.0471391
0.0471094
0.0470796
0.0470505
0.047021
0.0469853
0.0470266
0.0480438
0.0480463
0.0480106
0.0479833
0.0479541
0.0479273
0.0478992
0.0478717
0.0478437
0.0478158
0.0477877
0.0477596
0.0477313
0.0477029
0.0476745
0.047646
0.0476174
0.0475887
0.04756
0.0475312
0.0475023
0.0474733
0.0474444
0.0474153
0.0473862
0.047357
0.0473277
0.0472984
0.0472691
0.0472396
0.0472102
0.0471805
0.047151
0.0471212
0.0470917
0.0470617
0.0470325
0.0470009
0.0469657
0.0476889
0.0485799
0.0485744
0.0485413
0.0485124
0.048483
0.0484558
0.0484276
0.0483999
0.0483718
0.0483438
0.0483155
0.0482873
0.0482588
0.0482304
0.0482018
0.0481732
0.0481444
0.0481156
0.0480868
0.0480578
0.0480288
0.0479998
0.0479706
0.0479414
0.0479122
0.0478829
0.0478535
0.0478241
0.0477946
0.047765
0.0477354
0.0477057
0.0476761
0.0476462
0.0476166
0.0475866
0.0475578
0.0475272
0.0474938
0.0479084
0.0486288
0.0486098
0.0485859
0.048555
0.0485289
0.0485009
0.048474
0.0484462
0.0484188
0.0483909
0.0483631
0.0483351
0.048307
0.0482789
0.0482506
0.0482222
0.0481938
0.0481653
0.0481367
0.0481081
0.0480794
0.0480506
0.0480218
0.0479929
0.047964
0.047935
0.0479059
0.0478768
0.0478476
0.0478184
0.0477891
0.0477597
0.0477304
0.0477008
0.0476716
0.0476417
0.0476131
0.0475813
0.0475503
0.0483218
0.0488153
0.0487789
0.0487609
0.0487272
0.048703
0.0486743
0.0486482
0.0486203
0.0485933
0.0485656
0.048538
0.0485102
0.0484823
0.0484543
0.0484263
0.0483981
0.0483698
0.0483415
0.0483131
0.0482846
0.0482561
0.0482275
0.0481988
0.0481701
0.0481413
0.0481125
0.0480836
0.0480547
0.0480257
0.0479966
0.0479676
0.0479384
0.0479094
0.0478799
0.0478511
0.0478215
0.0477939
0.0477629
0.0477409
0.0402653
0.0405099
0.0404553
0.0404542
0.0404222
0.040407
0.0403821
0.0403624
0.0403394
0.040318
0.0402954
0.0402733
0.0402508
0.0402283
0.0402056
0.0401829
0.04016
0.0401371
0.0401141
0.0400911
0.040068
0.0400448
0.0400216
0.0399983
0.039975
0.0399517
0.0399283
0.0399049
0.0398814
0.039858
0.0398344
0.0398109
0.0397872
0.0397638
0.0397399
0.0397168
0.0396927
0.0396713
0.0396462
0.0396319
0.0862417
0.0862982
0.0862275
0.0861705
0.0861183
0.0860681
0.0860189
0.0859692
0.0859196
0.0858697
0.0858196
0.0857694
0.0857189
0.0856682
0.0856174
0.0855665
0.0855153
0.0854641
0.0854127
0.0853612
0.0853095
0.0852578
0.0852059
0.0851539
0.0851018
0.0850496
0.0849973
0.0849448
0.0848923
0.0848397
0.0847869
0.084734
0.084681
0.084628
0.0845747
0.0845216
0.0844682
0.0844156
0.0843637
0.0843114
0.0915815
0.0918405
0.0917971
0.0917414
0.0916881
0.0916351
0.0915829
0.09153
0.0914772
0.091424
0.0913707
0.0913171
0.0912634
0.0912094
0.0911553
0.091101
0.0910465
0.0909919
0.0909372
0.0908823
0.0908273
0.0907721
0.0907169
0.0906615
0.090606
0.0905504
0.0904946
0.0904388
0.0903828
0.0903268
0.0902705
0.0902143
0.0901577
0.0901013
0.0900445
0.0899879
0.0899306
0.0898745
0.0898127
0.089759
0.0883803
0.0888473
0.0888185
0.0887633
0.0887128
0.0886609
0.0886107
0.0885594
0.0885084
0.0884569
0.0884053
0.0883535
0.0883015
0.0882492
0.0881969
0.0881443
0.0880917
0.0880388
0.0879859
0.0879328
0.0878795
0.0878262
0.0877727
0.0877192
0.0876655
0.0876117
0.0875578
0.0875037
0.0874496
0.0873953
0.0873409
0.0872865
0.0872318
0.0871772
0.0871222
0.0870675
0.0870119
0.0869575
0.0868981
0.0868346
0.0879976
0.0886018
0.0885824
0.0885263
0.0884775
0.088425
0.0883751
0.0883236
0.0882726
0.0882209
0.0881693
0.0881174
0.0880654
0.0880131
0.0879607
0.0879081
0.0878554
0.0878025
0.0877495
0.0876963
0.0876431
0.0875897
0.0875362
0.0874826
0.0874289
0.087375
0.0873211
0.087267
0.0872128
0.0871585
0.087104
0.0870496
0.0869948
0.0869402
0.0868851
0.0868303
0.0867747
0.0867201
0.0866595
0.0865942
0.0870507
0.0877655
0.0877498
0.0876923
0.0876446
0.0875917
0.0875426
0.0874911
0.0874407
0.0873894
0.0873382
0.0872866
0.087235
0.0871831
0.0871311
0.0870789
0.0870266
0.0869742
0.0869216
0.0868689
0.086816
0.0867631
0.08671
0.0866568
0.0866035
0.0865501
0.0864965
0.0864429
0.0863891
0.0863352
0.0862812
0.0862271
0.0861728
0.0861185
0.0860639
0.0860096
0.0859544
0.0859003
0.0858414
0.0857734
0.0870919
0.087853
0.0878392
0.087781
0.0877336
0.0876806
0.0876315
0.0875799
0.0875293
0.0874779
0.0874266
0.0873749
0.0873232
0.0872712
0.0872191
0.0871668
0.0871144
0.0870618
0.0870091
0.0869563
0.0869033
0.0868502
0.0867971
0.0867437
0.0866903
0.0866368
0.0865831
0.0865294
0.0864755
0.0864215
0.0863673
0.0863131
0.0862587
0.0862043
0.0861496
0.0860951
0.0860398
0.0859854
0.0859261
0.0858575
0.0870914
0.0878534
0.0878395
0.0877813
0.0877339
0.0876809
0.0876318
0.0875802
0.0875296
0.0874782
0.0874269
0.0873752
0.0873235
0.0872715
0.0872194
0.0871671
0.0871147
0.0870621
0.0870094
0.0869566
0.0869036
0.0868506
0.0867974
0.0867441
0.0866906
0.0866371
0.0865834
0.0865297
0.0864758
0.0864218
0.0863676
0.0863134
0.086259
0.0862046
0.0861499
0.0860954
0.0860401
0.0859857
0.0859264
0.0858579
0.087051
0.0877682
0.0877525
0.087695
0.0876473
0.0875944
0.0875453
0.0874939
0.0874434
0.0873921
0.0873409
0.0872893
0.0872377
0.0871858
0.0871338
0.0870817
0.0870294
0.0869769
0.0869243
0.0868716
0.0868187
0.0867658
0.0867127
0.0866595
0.0866062
0.0865528
0.0864992
0.0864456
0.0863918
0.086338
0.0862839
0.0862298
0.0861755
0.0861213
0.0860667
0.0860123
0.0859572
0.085903
0.0858442
0.0857763
0.0879969
0.0886046
0.0885851
0.0885291
0.0884802
0.0884277
0.0883779
0.0883263
0.0882753
0.0882237
0.0881721
0.0881202
0.0880681
0.0880158
0.0879634
0.0879109
0.0878581
0.0878053
0.0877523
0.0876991
0.0876459
0.0875925
0.087539
0.0874854
0.0874316
0.0873778
0.0873238
0.0872698
0.0872156
0.0871613
0.0871068
0.0870524
0.0869976
0.086943
0.0868879
0.0868331
0.0867775
0.0867229
0.0866624
0.0865972
0.0883841
0.0888566
0.0888279
0.0887729
0.0887223
0.0886705
0.0886202
0.088569
0.088518
0.0884665
0.0884149
0.088363
0.088311
0.0882588
0.0882065
0.0881539
0.0881012
0.0880484
0.0879955
0.0879424
0.0878891
0.0878358
0.0877824
0.0877288
0.0876751
0.0876213
0.0875674
0.0875134
0.0874592
0.087405
0.0873506
0.0872962
0.0872415
0.0871869
0.0871319
0.0870772
0.0870216
0.0869672
0.0869078
0.0868444
0.0915983
0.0918637
0.0918206
0.091765
0.0917117
0.0916587
0.0916064
0.0915537
0.0915008
0.0914477
0.0913943
0.0913408
0.091287
0.0912331
0.091179
0.0911247
0.0910702
0.0910156
0.0909609
0.090906
0.090851
0.0907958
0.0907406
0.0906852
0.0906297
0.0905741
0.0905184
0.0904626
0.0904066
0.0903505
0.0902943
0.090238
0.0901815
0.0901251
0.0900683
0.0900117
0.0899544
0.0898983
0.0898366
0.089783
0.0862935
0.0863579
0.0862879
0.0862311
0.086179
0.0861287
0.0860795
0.0860299
0.0859803
0.0859304
0.0858804
0.0858301
0.0857796
0.085729
0.0856782
0.0856272
0.0855761
0.0855249
0.0854735
0.085422
0.0853703
0.0853186
0.0852667
0.0852147
0.0851626
0.0851104
0.0850581
0.0850057
0.0849532
0.0849005
0.0848478
0.0847949
0.0847419
0.0846889
0.0846356
0.0845825
0.0845291
0.0844766
0.0844247
0.0843724
0.191844
0.191737
0.191617
0.191483
0.191374
0.191259
0.191151
0.191039
0.190928
0.190816
0.190703
0.19059
0.190477
0.190364
0.19025
0.190136
0.190021
0.189906
0.189791
0.189676
0.18956
0.189444
0.189328
0.189212
0.189095
0.188978
0.188861
0.188743
0.188625
0.188507
0.188389
0.188271
0.188152
0.188033
0.187914
0.187794
0.187674
0.187554
0.187432
0.187306
0.128402
0.128616
0.128528
0.12845
0.128371
0.128298
0.128223
0.12815
0.128076
0.128001
0.127926
0.127851
0.127776
0.1277
0.127625
0.127549
0.127472
0.127396
0.127319
0.127242
0.127165
0.127088
0.12701
0.126933
0.126855
0.126777
0.126699
0.126621
0.126542
0.126464
0.126385
0.126306
0.126227
0.126148
0.126068
0.125989
0.125909
0.125829
0.125743
0.125652
0.101422
0.101978
0.101888
0.101844
0.101773
0.101722
0.101661
0.101606
0.101547
0.101489
0.101431
0.101372
0.101313
0.101254
0.101195
0.101136
0.101076
0.101016
0.100956
0.100896
0.100836
0.100776
0.100715
0.100655
0.100594
0.100533
0.100472
0.100411
0.10035
0.100288
0.100227
0.100165
0.100104
0.100042
0.0999799
0.0999181
0.0998552
0.0997934
0.0997246
0.0996463
0.0931796
0.0939956
0.0938977
0.0938732
0.0938012
0.0937605
0.0937022
0.093654
0.0935994
0.0935482
0.0934945
0.0934419
0.0933883
0.0933349
0.0932811
0.0932272
0.093173
0.0931188
0.0930644
0.0930098
0.0929551
0.0929003
0.0928454
0.0927904
0.0927352
0.09268
0.0926246
0.0925692
0.0925137
0.0924581
0.0924023
0.0923466
0.0922905
0.0922347
0.0921782
0.0921224
0.0920651
0.0920094
0.091946
0.0918708
0.0906924
0.0916569
0.0915497
0.0915356
0.091461
0.0914252
0.0913673
0.091322
0.0912689
0.0912199
0.0911681
0.0911175
0.0910658
0.0910144
0.0909626
0.0909107
0.0908585
0.0908062
0.0907538
0.0907012
0.0906485
0.0905957
0.0905427
0.0904897
0.0904366
0.0903833
0.09033
0.0902766
0.0902231
0.0901696
0.0901158
0.0900622
0.0900081
0.0899545
0.0899
0.0898465
0.0897911
0.0897376
0.0896769
0.0896006
0.0902674
0.0913029
0.0911885
0.091178
0.0911017
0.0910674
0.0910095
0.0909651
0.0909122
0.0908639
0.0908125
0.0907625
0.0907113
0.0906604
0.0906091
0.0905577
0.090506
0.0904542
0.0904023
0.0903502
0.090298
0.0902457
0.0901933
0.0901407
0.0900881
0.0900354
0.0899826
0.0899297
0.0898767
0.0898237
0.0897705
0.0897174
0.0896639
0.0896109
0.0895569
0.089504
0.0894491
0.0893966
0.0893376
0.0892613
0.0902675
0.091304
0.0911894
0.0911789
0.0911026
0.0910683
0.0910104
0.090966
0.0909132
0.0908648
0.0908134
0.0907634
0.0907122
0.0906614
0.09061
0.0905586
0.090507
0.0904552
0.0904032
0.0903512
0.090299
0.0902467
0.0901942
0.0901417
0.0900891
0.0900364
0.0899836
0.0899307
0.0898777
0.0898247
0.0897715
0.0897184
0.0896649
0.0896119
0.0895579
0.089505
0.0894501
0.0893976
0.0893386
0.0892623
0.0906917
0.0916583
0.0915507
0.0915368
0.0914621
0.0914263
0.0913684
0.0913232
0.09127
0.0912211
0.0911692
0.0911187
0.091067
0.0910156
0.0909638
0.0909119
0.0908597
0.0908074
0.090755
0.0907024
0.0906497
0.0905969
0.090544
0.090491
0.0904378
0.0903846
0.0903313
0.0902779
0.0902244
0.0901709
0.0901171
0.0900635
0.0900095
0.0899559
0.0899014
0.0898479
0.0897925
0.089739
0.0896783
0.0896019
0.0931755
0.0939943
0.0938961
0.0938717
0.0937997
0.093759
0.0937007
0.0936526
0.0935979
0.0935467
0.093493
0.0934404
0.0933868
0.0933334
0.0932796
0.0932258
0.0931716
0.0931174
0.093063
0.0930084
0.0929538
0.092899
0.0928441
0.092789
0.0927339
0.0926787
0.0926233
0.0925679
0.0925124
0.0924568
0.092401
0.0923453
0.0922892
0.0922335
0.092177
0.0921212
0.0920639
0.0920082
0.0919448
0.0918696
0.101413
0.101973
0.101883
0.101839
0.101767
0.101717
0.101655
0.1016
0.101541
0.101484
0.101425
0.101367
0.101308
0.101249
0.10119
0.10113
0.101071
0.101011
0.100951
0.100891
0.100831
0.10077
0.10071
0.100649
0.100589
0.100528
0.100467
0.100406
0.100345
0.100283
0.100222
0.10016
0.100099
0.100037
0.0999748
0.099913
0.0998501
0.0997883
0.0997195
0.0996411
0.12841
0.12863
0.128542
0.128464
0.128385
0.128312
0.128238
0.128165
0.12809
0.128016
0.127941
0.127866
0.127791
0.127715
0.127639
0.127563
0.127487
0.12741
0.127333
0.127257
0.127179
0.127102
0.127025
0.126947
0.12687
0.126792
0.126714
0.126635
0.126557
0.126478
0.1264
0.126321
0.126242
0.126162
0.126083
0.126003
0.125923
0.125844
0.125757
0.125667
0.191918
0.191822
0.191704
0.19157
0.191462
0.191347
0.191238
0.191126
0.191015
0.190903
0.190791
0.190678
0.190565
0.190451
0.190337
0.190223
0.190108
0.189994
0.189878
0.189763
0.189647
0.189531
0.189415
0.189299
0.189182
0.189065
0.188948
0.18883
0.188713
0.188595
0.188476
0.188358
0.188239
0.18812
0.188001
0.187881
0.187761
0.187642
0.18752