/*--------------------------------*- C++ -*----------------------------------*\
  =========                 |
  \\      /  F ield         | OpenFOAM: The Open Source CFD Toolbox
   \\    /   O peration     | Website:  https://openfoam.org
    \\  /    A nd           | Version:  7
     \\/     M anipulation  |
\*---------------------------------------------------------------------------*/
FoamFile
{
    version     2.0;
    format      ascii;
    class       volVectorField;
    location    "3.9";
    object      U_0;
}
// * * * * * * * * * * * * * * * * * * * * * * * * * * * * * * * * * * * * * //

dimensions      [0 1 -1 0 0 0 0];

internalField   nonuniform List<vector> 
5760
(
(2.25628 0.123039 0)
(1.31024 0.017929 0)
(1.06872 -0.00281418 0)
(0.939549 -0.000735872 0)
(0.868077 -0.000435132 0)
(0.828499 -0.000492257 0)
(0.808112 -0.000221645 0)
(0.7933 7.89964e-05 0)
(0.77802 0.000152767 0)
(0.763214 0.000100802 0)
(0.750603 5.98842e-05 0)
(0.740212 5.67945e-05 0)
(0.731302 6.43671e-05 0)
(0.723366 6.61658e-05 0)
(0.716232 6.32439e-05 0)
(0.709832 5.98594e-05 0)
(0.704078 5.74812e-05 0)
(0.698875 5.56671e-05 0)
(0.694141 5.38767e-05 0)
(0.689818 5.207e-05 0)
(0.685856 5.03639e-05 0)
(0.682216 4.87997e-05 0)
(0.678861 4.73528e-05 0)
(0.675761 4.59896e-05 0)
(0.67289 4.46908e-05 0)
(0.670227 4.3443e-05 0)
(0.667753 4.22407e-05 0)
(0.665449 4.10828e-05 0)
(0.663302 3.99714e-05 0)
(0.661298 3.89104e-05 0)
(0.659426 3.79017e-05 0)
(0.657674 3.69489e-05 0)
(0.656035 3.60503e-05 0)
(0.654498 3.52049e-05 0)
(0.653058 3.44139e-05 0)
(0.651707 3.36695e-05 0)
(0.650439 3.29738e-05 0)
(0.649248 3.23157e-05 0)
(0.64813 3.16899e-05 0)
(0.647079 3.10943e-05 0)
(0.646092 3.05196e-05 0)
(0.645165 2.99622e-05 0)
(0.644294 2.94173e-05 0)
(0.643475 2.88853e-05 0)
(0.642707 2.83646e-05 0)
(0.641987 2.78582e-05 0)
(0.641311 2.73571e-05 0)
(0.640678 2.68853e-05 0)
(0.640087 2.64061e-05 0)
(0.639533 2.60122e-05 0)
(0.639017 2.55872e-05 0)
(0.638536 2.51507e-05 0)
(0.638089 2.47529e-05 0)
(0.637675 2.4381e-05 0)
(0.637294 2.40232e-05 0)
(0.636942 2.36703e-05 0)
(0.636621 2.33287e-05 0)
(0.636328 2.30087e-05 0)
(0.636061 2.26815e-05 0)
(0.635822 2.23427e-05 0)
(0.635609 2.20245e-05 0)
(0.63542 2.17317e-05 0)
(0.635255 2.14283e-05 0)
(0.635114 2.11112e-05 0)
(0.634995 2.07896e-05 0)
(0.634898 2.04883e-05 0)
(0.634823 2.02145e-05 0)
(0.634768 1.99264e-05 0)
(0.634733 1.96449e-05 0)
(0.634718 1.93777e-05 0)
(0.634721 1.91182e-05 0)
(0.634743 1.88694e-05 0)
(0.634782 1.86331e-05 0)
(0.634838 1.84064e-05 0)
(0.63491 1.8189e-05 0)
(0.634997 1.79821e-05 0)
(0.6351 1.77827e-05 0)
(0.635217 1.759e-05 0)
(0.635347 1.74058e-05 0)
(0.63549 1.72278e-05 0)
(0.635645 1.70523e-05 0)
(0.635812 1.68812e-05 0)
(0.63599 1.67164e-05 0)
(0.636178 1.65561e-05 0)
(0.636377 1.64011e-05 0)
(0.636585 1.62521e-05 0)
(0.636802 1.61097e-05 0)
(0.637027 1.59775e-05 0)
(0.63726 1.58576e-05 0)
(0.637501 1.57502e-05 0)
(0.637749 1.56562e-05 0)
(0.638004 1.55778e-05 0)
(0.638265 1.55166e-05 0)
(0.638531 1.54733e-05 0)
(0.638804 1.54482e-05 0)
(0.639081 1.54418e-05 0)
(0.639362 1.54546e-05 0)
(0.639648 1.54868e-05 0)
(0.639938 1.55382e-05 0)
(0.640232 1.56087e-05 0)
(0.640529 1.56984e-05 0)
(0.640829 1.58083e-05 0)
(0.641131 1.59392e-05 0)
(0.641436 1.60927e-05 0)
(0.641743 1.62702e-05 0)
(0.642052 1.64736e-05 0)
(0.642363 1.67052e-05 0)
(0.642675 1.69672e-05 0)
(0.642988 1.72622e-05 0)
(0.643302 1.75925e-05 0)
(0.643618 1.79603e-05 0)
(0.643934 1.83675e-05 0)
(0.64425 1.88155e-05 0)
(0.644567 1.9305e-05 0)
(0.644884 1.98366e-05 0)
(0.6452 2.04103e-05 0)
(0.645517 2.10258e-05 0)
(0.645833 2.16823e-05 0)
(0.646149 2.23791e-05 0)
(0.646465 2.31151e-05 0)
(0.646779 2.38895e-05 0)
(0.647093 2.47015e-05 0)
(0.647405 2.55505e-05 0)
(0.647717 2.64361e-05 0)
(0.648028 2.73586e-05 0)
(0.648337 2.8318e-05 0)
(0.648645 2.9315e-05 0)
(0.648952 3.03503e-05 0)
(0.649257 3.14245e-05 0)
(0.649561 3.25383e-05 0)
(0.649863 3.36922e-05 0)
(0.650164 3.48864e-05 0)
(0.650463 3.61206e-05 0)
(0.650761 3.73943e-05 0)
(0.651056 3.87063e-05 0)
(0.651351 4.00553e-05 0)
(0.651643 4.14394e-05 0)
(0.651934 4.28567e-05 0)
(0.652223 4.43048e-05 0)
(0.65251 4.57812e-05 0)
(0.652796 4.72832e-05 0)
(0.653079 4.88082e-05 0)
(0.653361 5.03543e-05 0)
(0.653641 5.19201e-05 0)
(0.65392 5.35048e-05 0)
(0.654196 5.51075e-05 0)
(0.654471 5.67273e-05 0)
(0.654744 5.83631e-05 0)
(0.655015 6.00142e-05 0)
(0.655285 6.16807e-05 0)
(0.655553 6.33634e-05 0)
(0.655819 6.50631e-05 0)
(0.656084 6.67795e-05 0)
(0.656347 6.85109e-05 0)
(0.656609 7.02553e-05 0)
(0.656869 7.20114e-05 0)
(0.657127 7.37783e-05 0)
(0.657385 7.55523e-05 0)
(0.65764 7.73328e-05 0)
(0.657894 7.9119e-05 0)
(0.658147 8.09048e-05 0)
(0.658399 8.26917e-05 0)
(0.658649 8.44768e-05 0)
(0.658898 8.62552e-05 0)
(0.659145 8.80264e-05 0)
(0.659392 8.97946e-05 0)
(0.659637 9.15562e-05 0)
(0.659881 9.33077e-05 0)
(0.660124 9.50529e-05 0)
(0.660365 9.6791e-05 0)
(0.660606 9.85237e-05 0)
(0.660846 0.00010025 0)
(0.661085 0.000101971 0)
(0.661322 0.000103685 0)
(0.661559 0.000105395 0)
(0.661795 0.000107098 0)
(0.662031 0.000108796 0)
(0.662265 0.000110484 0)
(0.662499 0.000112162 0)
(0.662732 0.000113831 0)
(0.662964 0.000115489 0)
(0.663195 0.000117131 0)
(0.663426 0.000118757 0)
(0.663656 0.000120367 0)
(0.663885 0.000121961 0)
(0.664114 0.000123535 0)
(0.664342 0.000125089 0)
(0.66457 0.000126625 0)
(0.664797 0.000128146 0)
(0.665024 0.000129646 0)
(0.665251 0.000131128 0)
(0.665476 0.000132595 0)
(0.665702 0.00013405 0)
(0.665927 0.000135489 0)
(0.666152 0.000136912 0)
(0.666376 0.000138323 0)
(0.6666 0.000139724 0)
(0.666824 0.000141111 0)
(0.667048 0.000142481 0)
(0.667271 0.000143837 0)
(0.667494 0.000145179 0)
(0.667717 0.000146505 0)
(0.66794 0.000147814 0)
(0.668162 0.000149103 0)
(0.668385 0.000150371 0)
(0.668607 0.000151623 0)
(0.668829 0.000152855 0)
(0.669051 0.000154064 0)
(0.669273 0.000155247 0)
(0.669494 0.00015641 0)
(0.669716 0.00015756 0)
(0.669938 0.000158694 0)
(0.670159 0.000159802 0)
(0.670381 0.000160902 0)
(0.670603 0.000161976 0)
(0.670825 0.000163046 0)
(0.671046 0.000164097 0)
(0.671268 0.000165146 0)
(0.67149 0.000166157 0)
(0.671712 0.000167181 0)
(0.671934 0.000168169 0)
(0.672156 0.000169179 0)
(0.672378 0.000170119 0)
(0.672601 0.000171101 0)
(0.672823 0.000172009 0)
(0.673046 0.000172965 0)
(0.673268 0.00017384 0)
(0.673492 0.000174726 0)
(0.673712 0.00017562 0)
(0.67394 0.000176376 0)
(0.674156 0.000177415 0)
(0.674391 0.00017781 0)
(0.674597 0.000179342 0)
(0.674847 0.000178889 0)
(0.67503 0.000181687 0)
(0.675312 0.00017936 0)
(0.675445 0.00018498 0)
(0.675792 0.000178332 0)
(0.675822 0.000191256 0)
(0.676368 0.0001731 0)
(3.80456 0.346853 0)
(3.11413 0.138892 0)
(2.74452 0.0361015 0)
(2.47088 0.0208832 0)
(2.29101 0.013074 0)
(2.18078 0.00710145 0)
(2.11758 0.0045982 0)
(2.07433 0.00430416 0)
(2.03557 0.00425122 0)
(1.99937 0.00380108 0)
(1.9678 0.00322858 0)
(1.94121 0.00279221 0)
(1.9184 0.00249907 0)
(1.89828 0.00227236 0)
(1.88029 0.00207124 0)
(1.86417 0.0018914 0)
(1.84968 0.00173578 0)
(1.8366 0.00160212 0)
(1.82473 0.00148551 0)
(1.81391 0.00138231 0)
(1.80401 0.00129043 0)
(1.79494 0.00120834 0)
(1.7866 0.00113465 0)
(1.7789 0.00106811 0)
(1.7718 0.00100769 0)
(1.76522 0.000952581 0)
(1.75913 0.000902115 0)
(1.75347 0.000855756 0)
(1.74822 0.000813049 0)
(1.74332 0.000773602 0)
(1.73877 0.000737075 0)
(1.73452 0.000703173 0)
(1.73056 0.000671639 0)
(1.72686 0.000642257 0)
(1.7234 0.000614834 0)
(1.72017 0.000589207 0)
(1.71716 0.000565215 0)
(1.71434 0.000542694 0)
(1.7117 0.000521536 0)
(1.70924 0.000501608 0)
(1.70693 0.000482781 0)
(1.70478 0.000464955 0)
(1.70277 0.000448041 0)
(1.7009 0.000431963 0)
(1.69915 0.000416657 0)
(1.69753 0.000402051 0)
(1.69602 0.00038808 0)
(1.69461 0.000374715 0)
(1.69331 0.000361851 0)
(1.69211 0.00034983 0)
(1.691 0.000338194 0)
(1.68999 0.000326874 0)
(1.68905 0.000315977 0)
(1.6882 0.000305521 0)
(1.68743 0.000295478 0)
(1.68674 0.000285744 0)
(1.68611 0.000276363 0)
(1.68556 0.000267397 0)
(1.68508 0.000258621 0)
(1.68466 0.000250049 0)
(1.68431 0.000241803 0)
(1.68402 0.000233826 0)
(1.68379 0.000226103 0)
(1.68361 0.000218538 0)
(1.68349 0.000211135 0)
(1.68343 0.000203982 0)
(1.68342 0.000197057 0)
(1.68345 0.000190318 0)
(1.68354 0.00018378 0)
(1.68367 0.000177461 0)
(1.68385 0.000171349 0)
(1.68408 0.00016545 0)
(1.68434 0.000159769 0)
(1.68465 0.000154297 0)
(1.68499 0.000149035 0)
(1.68537 0.000143983 0)
(1.68579 0.000139131 0)
(1.68624 0.000134476 0)
(1.68672 0.000130016 0)
(1.68723 0.000125737 0)
(1.68777 0.000121624 0)
(1.68834 0.00011768 0)
(1.68894 0.000113903 0)
(1.68956 0.000110281 0)
(1.6902 0.000106809 0)
(1.69087 0.000103485 0)
(1.69156 0.000100308 0)
(1.69226 9.72851e-05 0)
(1.69299 9.44161e-05 0)
(1.69373 9.16953e-05 0)
(1.69449 8.91219e-05 0)
(1.69527 8.67e-05 0)
(1.69606 8.44309e-05 0)
(1.69686 8.23122e-05 0)
(1.69767 8.03406e-05 0)
(1.6985 7.85139e-05 0)
(1.69934 7.68295e-05 0)
(1.70018 7.5283e-05 0)
(1.70104 7.38685e-05 0)
(1.7019 7.25811e-05 0)
(1.70277 7.14173e-05 0)
(1.70364 7.03745e-05 0)
(1.70453 6.94508e-05 0)
(1.70541 6.8645e-05 0)
(1.7063 6.79573e-05 0)
(1.7072 6.73891e-05 0)
(1.7081 6.69429e-05 0)
(1.709 6.66219e-05 0)
(1.7099 6.64303e-05 0)
(1.71081 6.63727e-05 0)
(1.71172 6.64532e-05 0)
(1.71262 6.66753e-05 0)
(1.71353 6.70414e-05 0)
(1.71444 6.75528e-05 0)
(1.71535 6.82096e-05 0)
(1.71625 6.90106e-05 0)
(1.71716 6.99536e-05 0)
(1.71806 7.10352e-05 0)
(1.71896 7.22515e-05 0)
(1.71986 7.35978e-05 0)
(1.72075 7.50697e-05 0)
(1.72164 7.66628e-05 0)
(1.72253 7.83731e-05 0)
(1.72342 8.01978e-05 0)
(1.7243 8.21347e-05 0)
(1.72518 8.4183e-05 0)
(1.72605 8.63424e-05 0)
(1.72692 8.86134e-05 0)
(1.72779 9.09972e-05 0)
(1.72865 9.34949e-05 0)
(1.72951 9.61076e-05 0)
(1.73036 9.8836e-05 0)
(1.73121 0.00010168 0)
(1.73205 0.000104637 0)
(1.73288 0.000107707 0)
(1.73372 0.000110884 0)
(1.73454 0.000114164 0)
(1.73536 0.000117542 0)
(1.73618 0.000121011 0)
(1.73699 0.000124563 0)
(1.73779 0.000128192 0)
(1.73859 0.000131888 0)
(1.73939 0.000135646 0)
(1.74018 0.00013946 0)
(1.74096 0.000143327 0)
(1.74174 0.000147245 0)
(1.74251 0.000151209 0)
(1.74328 0.000155217 0)
(1.74404 0.000159266 0)
(1.7448 0.000163357 0)
(1.74556 0.000167491 0)
(1.74631 0.00017167 0)
(1.74705 0.000175895 0)
(1.74779 0.000180162 0)
(1.74852 0.00018447 0)
(1.74925 0.000188815 0)
(1.74998 0.000193194 0)
(1.7507 0.000197597 0)
(1.75142 0.00020202 0)
(1.75213 0.000206462 0)
(1.75284 0.000210912 0)
(1.75354 0.00021537 0)
(1.75424 0.000219827 0)
(1.75494 0.00022427 0)
(1.75563 0.000228698 0)
(1.75632 0.000233116 0)
(1.757 0.00023752 0)
(1.75768 0.000241899 0)
(1.75836 0.000246259 0)
(1.75904 0.000250603 0)
(1.75971 0.000254932 0)
(1.76038 0.000259243 0)
(1.76105 0.000263546 0)
(1.76171 0.000267831 0)
(1.76237 0.000272103 0)
(1.76303 0.000276367 0)
(1.76368 0.00028062 0)
(1.76433 0.000284851 0)
(1.76498 0.000289062 0)
(1.76563 0.000293253 0)
(1.76627 0.000297422 0)
(1.76692 0.000301554 0)
(1.76756 0.000305647 0)
(1.76819 0.000309704 0)
(1.76883 0.000313721 0)
(1.76946 0.000317687 0)
(1.7701 0.000321603 0)
(1.77073 0.000325475 0)
(1.77136 0.000329302 0)
(1.77198 0.00033308 0)
(1.77261 0.000336809 0)
(1.77323 0.000340501 0)
(1.77386 0.000344157 0)
(1.77448 0.000347773 0)
(1.7751 0.000351351 0)
(1.77572 0.0003549 0)
(1.77634 0.000358424 0)
(1.77695 0.000361914 0)
(1.77757 0.000365365 0)
(1.77818 0.000368784 0)
(1.7788 0.000372169 0)
(1.77941 0.000375516 0)
(1.78002 0.000378825 0)
(1.78063 0.000382087 0)
(1.78124 0.000385292 0)
(1.78185 0.000388458 0)
(1.78246 0.000391576 0)
(1.78307 0.000394633 0)
(1.78367 0.000397624 0)
(1.78428 0.000400562 0)
(1.78489 0.000403462 0)
(1.78549 0.000406323 0)
(1.7861 0.000409119 0)
(1.7867 0.000411887 0)
(1.78731 0.000414591 0)
(1.78791 0.000417285 0)
(1.78852 0.000419929 0)
(1.78912 0.000422567 0)
(1.78973 0.000425111 0)
(1.79033 0.000427697 0)
(1.79093 0.000430178 0)
(1.79154 0.000432734 0)
(1.79214 0.000435092 0)
(1.79275 0.000437599 0)
(1.79335 0.000439856 0)
(1.79395 0.000442327 0)
(1.79455 0.000444456 0)
(1.79516 0.000446831 0)
(1.79576 0.000448898 0)
(1.79637 0.000451089 0)
(1.79696 0.000453314 0)
(1.79759 0.000454921 0)
(1.79815 0.000457944 0)
(1.79882 0.000458053 0)
(1.79932 0.000463543 0)
(1.80008 0.000459987 0)
(1.80045 0.000472084 0)
(1.80137 0.000458636 0)
(1.80147 0.000484414 0)
(1.80284 0.000443413 0)
(4.41372 0.422872 0)
(4.22894 0.212941 0)
(3.97246 0.0753652 0)
(3.67472 0.0501117 0)
(3.43788 0.0343737 0)
(3.27972 0.0202734 0)
(3.18312 0.0131101 0)
(3.11688 0.0110987 0)
(3.06089 0.0104154 0)
(3.01004 0.00936398 0)
(2.96541 0.00810368 0)
(2.92727 0.00705595 0)
(2.8944 0.00629226 0)
(2.86546 0.00569949 0)
(2.83964 0.00519091 0)
(2.81651 0.00474291 0)
(2.79571 0.00435385 0)
(2.77693 0.00401752 0)
(2.75989 0.00372382 0)
(2.74438 0.00346434 0)
(2.7302 0.00323348 0)
(2.71721 0.00302718 0)
(2.70528 0.00284194 0)
(2.6943 0.00267469 0)
(2.68416 0.00252291 0)
(2.67479 0.00238454 0)
(2.66612 0.0022579 0)
(2.65809 0.00214164 0)
(2.65064 0.00203457 0)
(2.64372 0.00193569 0)
(2.63728 0.00184412 0)
(2.6313 0.0017591 0)
(2.62573 0.00167999 0)
(2.62055 0.00160623 0)
(2.61572 0.00153736 0)
(2.61122 0.00147295 0)
(2.60703 0.00141261 0)
(2.60313 0.00135599 0)
(2.59949 0.00130277 0)
(2.59611 0.00125263 0)
(2.59296 0.00120527 0)
(2.59003 0.00116045 0)
(2.58731 0.00111796 0)
(2.58478 0.00107758 0)
(2.58244 0.00103916 0)
(2.58028 0.00100251 0)
(2.57828 0.000967484 0)
(2.57644 0.000933952 0)
(2.57475 0.000901704 0)
(2.57321 0.000871367 0)
(2.5718 0.000842151 0)
(2.57052 0.000813812 0)
(2.56936 0.000786473 0)
(2.56833 0.000760217 0)
(2.56741 0.000734973 0)
(2.5666 0.000710604 0)
(2.56589 0.000687077 0)
(2.56529 0.000664462 0)
(2.56478 0.00064252 0)
(2.56437 0.000621194 0)
(2.56406 0.000600591 0)
(2.56383 0.000580631 0)
(2.56368 0.00056133 0)
(2.56362 0.00054252 0)
(2.56363 0.000524158 0)
(2.56373 0.000506372 0)
(2.5639 0.000489147 0)
(2.56414 0.000472416 0)
(2.56445 0.000456193 0)
(2.56482 0.000440507 0)
(2.56526 0.000425344 0)
(2.56577 0.00041071 0)
(2.56633 0.00039661 0)
(2.56694 0.000383031 0)
(2.56762 0.000369974 0)
(2.56834 0.000357438 0)
(2.56911 0.000345401 0)
(2.56993 0.000333855 0)
(2.57079 0.000322794 0)
(2.5717 0.000312182 0)
(2.57264 0.000301992 0)
(2.57363 0.000292222 0)
(2.57465 0.000282864 0)
(2.5757 0.000273889 0)
(2.57679 0.000265281 0)
(2.5779 0.000257031 0)
(2.57905 0.000249139 0)
(2.58022 0.000241608 0)
(2.58142 0.000234433 0)
(2.58265 0.000227601 0)
(2.58389 0.000221107 0)
(2.58516 0.000214956 0)
(2.58644 0.000209147 0)
(2.58775 0.000203673 0)
(2.58907 0.000198525 0)
(2.5904 0.000193697 0)
(2.59175 0.000189179 0)
(2.59311 0.000184961 0)
(2.59448 0.000181026 0)
(2.59586 0.000177363 0)
(2.59726 0.00017396 0)
(2.59866 0.000170808 0)
(2.60006 0.000167897 0)
(2.60148 0.00016522 0)
(2.6029 0.000162772 0)
(2.60432 0.00016055 0)
(2.60575 0.000158555 0)
(2.60719 0.000156789 0)
(2.60862 0.000155254 0)
(2.61006 0.000153957 0)
(2.6115 0.000152904 0)
(2.61294 0.000152098 0)
(2.61438 0.000151542 0)
(2.61582 0.00015124 0)
(2.61725 0.000151191 0)
(2.61869 0.000151392 0)
(2.62012 0.000151839 0)
(2.62154 0.000152526 0)
(2.62297 0.000153444 0)
(2.62439 0.000154585 0)
(2.6258 0.000155938 0)
(2.62722 0.000157494 0)
(2.62862 0.000159244 0)
(2.63002 0.000161179 0)
(2.63141 0.000163295 0)
(2.6328 0.000165587 0)
(2.63418 0.000168052 0)
(2.63556 0.000170691 0)
(2.63693 0.000173504 0)
(2.63829 0.000176494 0)
(2.63964 0.000179663 0)
(2.64099 0.000183013 0)
(2.64233 0.000186544 0)
(2.64366 0.000190258 0)
(2.64498 0.000194151 0)
(2.6463 0.000198218 0)
(2.64761 0.000202455 0)
(2.6489 0.000206853 0)
(2.65019 0.000211402 0)
(2.65148 0.00021609 0)
(2.65275 0.000220904 0)
(2.65401 0.00022583 0)
(2.65527 0.000230857 0)
(2.65652 0.000235975 0)
(2.65776 0.000241178 0)
(2.65899 0.000246458 0)
(2.66021 0.000251809 0)
(2.66143 0.000257226 0)
(2.66264 0.000262705 0)
(2.66384 0.000268249 0)
(2.66503 0.000273859 0)
(2.66622 0.000279538 0)
(2.66739 0.000285288 0)
(2.66857 0.000291109 0)
(2.66973 0.000297002 0)
(2.67088 0.000302963 0)
(2.67203 0.000308986 0)
(2.67317 0.000315059 0)
(2.67431 0.000321172 0)
(2.67543 0.000327327 0)
(2.67655 0.00033351 0)
(2.67767 0.000339716 0)
(2.67878 0.00034593 0)
(2.67988 0.000352134 0)
(2.68097 0.000358323 0)
(2.68206 0.000364498 0)
(2.68314 0.000370658 0)
(2.68422 0.000376785 0)
(2.68529 0.000382882 0)
(2.68636 0.000388958 0)
(2.68743 0.000395014 0)
(2.68848 0.000401046 0)
(2.68954 0.000407067 0)
(2.69058 0.00041307 0)
(2.69163 0.00041906 0)
(2.69267 0.000425046 0)
(2.6937 0.000431027 0)
(2.69473 0.000436988 0)
(2.69575 0.000442932 0)
(2.69678 0.00044886 0)
(2.69779 0.000454766 0)
(2.69881 0.000460629 0)
(2.69982 0.000466447 0)
(2.70082 0.000472221 0)
(2.70182 0.000477943 0)
(2.70282 0.000483595 0)
(2.70382 0.000489178 0)
(2.70481 0.000494697 0)
(2.7058 0.000500151 0)
(2.70679 0.000505531 0)
(2.70777 0.000510843 0)
(2.70876 0.000516097 0)
(2.70974 0.000521299 0)
(2.71072 0.000526444 0)
(2.71169 0.000531536 0)
(2.71266 0.000536592 0)
(2.71363 0.000541616 0)
(2.7146 0.000546597 0)
(2.71557 0.000551529 0)
(2.71653 0.000556422 0)
(2.7175 0.000561277 0)
(2.71846 0.000566087 0)
(2.71942 0.00057085 0)
(2.72037 0.000575551 0)
(2.72133 0.000580177 0)
(2.72228 0.000584745 0)
(2.72323 0.000589247 0)
(2.72419 0.000593661 0)
(2.72514 0.000597984 0)
(2.72608 0.00060223 0)
(2.72703 0.000606408 0)
(2.72798 0.000610531 0)
(2.72893 0.000614559 0)
(2.72987 0.000618538 0)
(2.73082 0.000622433 0)
(2.73176 0.000626306 0)
(2.73271 0.000630102 0)
(2.73365 0.000633898 0)
(2.73459 0.000637559 0)
(2.73553 0.000641296 0)
(2.73647 0.000644864 0)
(2.73741 0.00064857 0)
(2.73835 0.00065197 0)
(2.73929 0.000655635 0)
(2.74023 0.000658883 0)
(2.74117 0.000662518 0)
(2.7421 0.000665551 0)
(2.74305 0.000669118 0)
(2.74398 0.00067199 0)
(2.74493 0.000675372 0)
(2.74584 0.000678349 0)
(2.74682 0.000681089 0)
(2.74769 0.00068495 0)
(2.74873 0.00068586 0)
(2.74952 0.000692926 0)
(2.75067 0.000689051 0)
(2.75128 0.00070574 0)
(2.75268 0.000687933 0)
(2.75289 0.000725149 0)
(2.75487 0.000667118 0)
(4.59133 0.395181 0)
(4.81456 0.238567 0)
(4.80018 0.101831 0)
(4.60285 0.0790028 0)
(4.38134 0.0596182 0)
(4.21185 0.0376632 0)
(4.09881 0.0247621 0)
(4.01882 0.0200795 0)
(3.95254 0.0182354 0)
(3.89345 0.0163483 0)
(3.84143 0.014276 0)
(3.79645 0.0125049 0)
(3.75736 0.011158 0)
(3.72282 0.0100985 0)
(3.69197 0.0091983 0)
(3.66429 0.00841125 0)
(3.63936 0.00772697 0)
(3.61681 0.00713303 0)
(3.59634 0.00661323 0)
(3.57769 0.00615377 0)
(3.56065 0.00574488 0)
(3.54504 0.00537924 0)
(3.5307 0.0050507 0)
(3.5175 0.00475396 0)
(3.50534 0.00448461 0)
(3.49411 0.00423903 0)
(3.48373 0.0040143 0)
(3.47412 0.00380796 0)
(3.46522 0.00361793 0)
(3.45697 0.00344242 0)
(3.44931 0.00327984 0)
(3.44221 0.00312884 0)
(3.43562 0.00298826 0)
(3.4295 0.00285715 0)
(3.42381 0.00273464 0)
(3.41853 0.00262001 0)
(3.41364 0.00251256 0)
(3.40909 0.00241174 0)
(3.40488 0.00231696 0)
(3.40097 0.0022276 0)
(3.39735 0.00214324 0)
(3.39401 0.00206343 0)
(3.39092 0.00198778 0)
(3.38807 0.00191593 0)
(3.38545 0.00184758 0)
(3.38305 0.00178239 0)
(3.38086 0.0017201 0)
(3.37886 0.00166046 0)
(3.37705 0.00160314 0)
(3.37542 0.00154905 0)
(3.37395 0.00149696 0)
(3.37265 0.00144655 0)
(3.37149 0.00139797 0)
(3.37049 0.00135124 0)
(3.36963 0.00130629 0)
(3.3689 0.00126293 0)
(3.3683 0.00122113 0)
(3.36783 0.00118088 0)
(3.36748 0.00114186 0)
(3.36724 0.00110409 0)
(3.36712 0.00106761 0)
(3.3671 0.0010322 0)
(3.36719 0.000998037 0)
(3.36737 0.000964839 0)
(3.36766 0.000932463 0)
(3.36803 0.00090109 0)
(3.3685 0.000870705 0)
(3.36905 0.000841229 0)
(3.36969 0.000812665 0)
(3.37041 0.000785052 0)
(3.3712 0.000758367 0)
(3.37207 0.000732622 0)
(3.373 0.00070782 0)
(3.37401 0.000683943 0)
(3.37508 0.000660995 0)
(3.3762 0.000638969 0)
(3.37739 0.000617834 0)
(3.37863 0.000597578 0)
(3.37992 0.000578183 0)
(3.38126 0.000559591 0)
(3.38265 0.000541757 0)
(3.38408 0.000524673 0)
(3.38556 0.000508317 0)
(3.38707 0.00049264 0)
(3.38863 0.000477606 0)
(3.39021 0.000463198 0)
(3.39183 0.000449408 0)
(3.39349 0.000436237 0)
(3.39517 0.00042367 0)
(3.39688 0.00041168 0)
(3.39861 0.00040026 0)
(3.40037 0.000389413 0)
(3.40215 0.000379136 0)
(3.40395 0.000369416 0)
(3.40577 0.000360239 0)
(3.40761 0.000351594 0)
(3.40946 0.000343467 0)
(3.41133 0.000335838 0)
(3.4132 0.00032868 0)
(3.41509 0.000321973 0)
(3.41699 0.000315694 0)
(3.4189 0.000309825 0)
(3.42082 0.000304345 0)
(3.42274 0.000299236 0)
(3.42467 0.000294485 0)
(3.42661 0.000290081 0)
(3.42855 0.000286018 0)
(3.43049 0.000282292 0)
(3.43244 0.000278905 0)
(3.43438 0.000275859 0)
(3.43633 0.000273162 0)
(3.43828 0.000270817 0)
(3.44023 0.00026883 0)
(3.44217 0.000267203 0)
(3.44412 0.000265937 0)
(3.44606 0.000265031 0)
(3.44799 0.000264478 0)
(3.44992 0.000264271 0)
(3.45185 0.000264397 0)
(3.45377 0.000264843 0)
(3.45568 0.000265593 0)
(3.45759 0.00026663 0)
(3.45949 0.000267939 0)
(3.46138 0.000269503 0)
(3.46327 0.000271312 0)
(3.46514 0.000273355 0)
(3.46701 0.000275625 0)
(3.46887 0.000278118 0)
(3.47072 0.000280834 0)
(3.47257 0.000283774 0)
(3.4744 0.000286942 0)
(3.47623 0.000290341 0)
(3.47804 0.000293975 0)
(3.47984 0.000297847 0)
(3.48164 0.000301956 0)
(3.48342 0.0003063 0)
(3.48519 0.000310875 0)
(3.48695 0.000315672 0)
(3.4887 0.000320679 0)
(3.49044 0.000325882 0)
(3.49217 0.000331263 0)
(3.49389 0.000336803 0)
(3.49559 0.000342485 0)
(3.49729 0.000348294 0)
(3.49897 0.000354217 0)
(3.50065 0.000360241 0)
(3.50231 0.000366357 0)
(3.50396 0.000372554 0)
(3.50561 0.000378828 0)
(3.50724 0.000385178 0)
(3.50886 0.00039161 0)
(3.51048 0.000398127 0)
(3.51208 0.000404731 0)
(3.51367 0.000411428 0)
(3.51526 0.000418225 0)
(3.51683 0.000425117 0)
(3.5184 0.000432101 0)
(3.51995 0.000439165 0)
(3.5215 0.000446297 0)
(3.52303 0.0004535 0)
(3.52456 0.00046076 0)
(3.52608 0.000468069 0)
(3.52759 0.000475404 0)
(3.52909 0.000482744 0)
(3.53058 0.000490077 0)
(3.53206 0.000497401 0)
(3.53354 0.000504711 0)
(3.53501 0.000511984 0)
(3.53647 0.000519218 0)
(3.53793 0.000526427 0)
(3.53938 0.000533608 0)
(3.54082 0.000540759 0)
(3.54225 0.000547896 0)
(3.54368 0.000555013 0)
(3.54511 0.000562118 0)
(3.54652 0.000569226 0)
(3.54793 0.000576338 0)
(3.54934 0.00058344 0)
(3.55073 0.000590537 0)
(3.55212 0.000597631 0)
(3.55351 0.000604717 0)
(3.55489 0.000611769 0)
(3.55627 0.000618783 0)
(3.55763 0.000625758 0)
(3.559 0.000632682 0)
(3.56036 0.00063953 0)
(3.56171 0.000646301 0)
(3.56307 0.000652997 0)
(3.56441 0.000659612 0)
(3.56576 0.000666135 0)
(3.5671 0.000672572 0)
(3.56843 0.000678935 0)
(3.56976 0.000685228 0)
(3.57109 0.000691448 0)
(3.57242 0.000697603 0)
(3.57374 0.000703716 0)
(3.57506 0.000709793 0)
(3.57638 0.000715821 0)
(3.57769 0.000721799 0)
(3.579 0.000727742 0)
(3.5803 0.000733652 0)
(3.58161 0.00073952 0)
(3.58291 0.000745342 0)
(3.5842 0.000751104 0)
(3.5855 0.000756786 0)
(3.58679 0.000762404 0)
(3.58808 0.000767949 0)
(3.58937 0.00077339 0)
(3.59065 0.000778722 0)
(3.59194 0.000783958 0)
(3.59322 0.000789102 0)
(3.5945 0.000794178 0)
(3.59578 0.000799132 0)
(3.59706 0.000804014 0)
(3.59834 0.000808792 0)
(3.59961 0.000813536 0)
(3.60089 0.000818179 0)
(3.60216 0.000822826 0)
(3.60343 0.000827306 0)
(3.6047 0.00083189 0)
(3.60597 0.000836258 0)
(3.60724 0.000840821 0)
(3.60851 0.000844997 0)
(3.60978 0.000849543 0)
(3.61104 0.000853534 0)
(3.61231 0.000858081 0)
(3.61356 0.000861791 0)
(3.61483 0.000866328 0)
(3.61608 0.000869772 0)
(3.61736 0.000874183 0)
(3.61859 0.000877611 0)
(3.6199 0.000881473 0)
(3.62108 0.000885652 0)
(3.62246 0.000887721 0)
(3.62354 0.000895271 0)
(3.62507 0.000892309 0)
(3.62591 0.000911303 0)
(3.62776 0.000892442 0)
(3.6281 0.000936269 0)
(3.63065 0.000871483 0)
(4.58429 0.329866 0)
(5.00578 0.225825 0)
(5.216 0.103872 0)
(5.19384 0.0942477 0)
(5.06795 0.0802877 0)
(4.94048 0.0548688 0)
(4.84241 0.0373737 0)
(4.76725 0.0299937 0)
(4.70293 0.0267173 0)
(4.64491 0.0238251 0)
(4.59321 0.0208866 0)
(4.54784 0.0183797 0)
(4.50788 0.0164361 0)
(4.47224 0.0148909 0)
(4.4402 0.0135806 0)
(4.41127 0.012437 0)
(4.3851 0.0114408 0)
(4.36133 0.0105732 0)
(4.33969 0.00981175 0)
(4.31992 0.00913734 0)
(4.30183 0.00853615 0)
(4.28523 0.00799769 0)
(4.26997 0.00751313 0)
(4.25592 0.00707492 0)
(4.24297 0.00667675 0)
(4.23102 0.00631341 0)
(4.21997 0.00598068 0)
(4.20976 0.005675 0)
(4.20032 0.00539334 0)
(4.19158 0.00513304 0)
(4.18349 0.0048918 0)
(4.176 0.0046676 0)
(4.16906 0.00445875 0)
(4.16265 0.0042638 0)
(4.15671 0.00408151 0)
(4.15123 0.00391084 0)
(4.14616 0.00375075 0)
(4.14148 0.00360039 0)
(4.13717 0.00345901 0)
(4.13319 0.00332573 0)
(4.12954 0.00319985 0)
(4.12619 0.00308075 0)
(4.12313 0.00296786 0)
(4.12034 0.00286066 0)
(4.1178 0.0027587 0)
(4.1155 0.00266146 0)
(4.11343 0.00256856 0)
(4.11158 0.0024796 0)
(4.10994 0.00239408 0)
(4.1085 0.00231326 0)
(4.10725 0.00223548 0)
(4.10617 0.0021602 0)
(4.10527 0.00208765 0)
(4.10454 0.00201789 0)
(4.10396 0.00195073 0)
(4.10353 0.00188601 0)
(4.10325 0.00182362 0)
(4.10311 0.00176346 0)
(4.1031 0.00170528 0)
(4.10321 0.00164907 0)
(4.10345 0.00159477 0)
(4.10381 0.00154214 0)
(4.10429 0.00149138 0)
(4.10487 0.00144214 0)
(4.10556 0.00139422 0)
(4.10635 0.0013478 0)
(4.10724 0.00130286 0)
(4.10822 0.00125932 0)
(4.1093 0.00121716 0)
(4.11046 0.00117642 0)
(4.1117 0.00113707 0)
(4.11302 0.00109912 0)
(4.11441 0.00106258 0)
(4.11588 0.00102742 0)
(4.11741 0.000993644 0)
(4.11901 0.000961245 0)
(4.12067 0.000930181 0)
(4.12239 0.000900436 0)
(4.12416 0.000871984 0)
(4.12598 0.000844737 0)
(4.12784 0.000818634 0)
(4.12976 0.000793656 0)
(4.13171 0.000769766 0)
(4.13371 0.000746888 0)
(4.13575 0.000724964 0)
(4.13782 0.000703962 0)
(4.13993 0.000683863 0)
(4.14207 0.000664659 0)
(4.14424 0.00064632 0)
(4.14643 0.000628807 0)
(4.14866 0.000612102 0)
(4.1509 0.000596209 0)
(4.15317 0.000581121 0)
(4.15546 0.00056682 0)
(4.15777 0.000553287 0)
(4.1601 0.00054051 0)
(4.16243 0.000528469 0)
(4.16479 0.000517136 0)
(4.16715 0.000506479 0)
(4.16953 0.000496466 0)
(4.17191 0.000487065 0)
(4.17431 0.000478248 0)
(4.17671 0.000469982 0)
(4.17911 0.000462236 0)
(4.18153 0.000454983 0)
(4.18395 0.000448203 0)
(4.18637 0.000441878 0)
(4.18879 0.000435997 0)
(4.19122 0.000430554 0)
(4.19365 0.000425547 0)
(4.19607 0.000420982 0)
(4.1985 0.000416861 0)
(4.20093 0.00041319 0)
(4.20335 0.000409974 0)
(4.20577 0.000407216 0)
(4.20819 0.000404914 0)
(4.2106 0.000403066 0)
(4.213 0.000401662 0)
(4.2154 0.00040069 0)
(4.21779 0.000400133 0)
(4.22017 0.000399969 0)
(4.22254 0.000400177 0)
(4.22491 0.000400732 0)
(4.22727 0.00040161 0)
(4.22961 0.000402792 0)
(4.23195 0.000404258 0)
(4.23428 0.000405995 0)
(4.2366 0.000407992 0)
(4.23891 0.000410244 0)
(4.24121 0.000412749 0)
(4.2435 0.000415509 0)
(4.24578 0.00041853 0)
(4.24804 0.000421818 0)
(4.2503 0.000425377 0)
(4.25254 0.000429214 0)
(4.25477 0.000433328 0)
(4.25699 0.000437719 0)
(4.25919 0.000442382 0)
(4.26138 0.000447306 0)
(4.26356 0.000452477 0)
(4.26573 0.000457875 0)
(4.26788 0.000463478 0)
(4.27002 0.000469263 0)
(4.27214 0.00047521 0)
(4.27426 0.000481299 0)
(4.27636 0.000487512 0)
(4.27845 0.000493832 0)
(4.28053 0.000500242 0)
(4.28259 0.000506734 0)
(4.28464 0.000513307 0)
(4.28669 0.000519962 0)
(4.28872 0.000526704 0)
(4.29074 0.000533538 0)
(4.29274 0.000540472 0)
(4.29474 0.000547519 0)
(4.29672 0.000554681 0)
(4.2987 0.000561957 0)
(4.30066 0.00056934 0)
(4.30261 0.000576818 0)
(4.30455 0.000584395 0)
(4.30647 0.000592065 0)
(4.30839 0.000599813 0)
(4.31029 0.000607616 0)
(4.31219 0.000615446 0)
(4.31407 0.00062329 0)
(4.31595 0.000631136 0)
(4.31781 0.000638976 0)
(4.31967 0.000646781 0)
(4.32152 0.000654544 0)
(4.32335 0.000662276 0)
(4.32519 0.000669973 0)
(4.32701 0.000677629 0)
(4.32882 0.000685266 0)
(4.33063 0.000692877 0)
(4.33243 0.000700474 0)
(4.33422 0.000708077 0)
(4.336 0.000715692 0)
(4.33778 0.000723308 0)
(4.33955 0.000730934 0)
(4.34131 0.000738578 0)
(4.34306 0.000746233 0)
(4.34481 0.000753876 0)
(4.34654 0.000761501 0)
(4.34828 0.000769106 0)
(4.35 0.000776673 0)
(4.35172 0.000784177 0)
(4.35343 0.000791606 0)
(4.35514 0.000798962 0)
(4.35684 0.000806233 0)
(4.35854 0.000813403 0)
(4.36023 0.000820473 0)
(4.36192 0.000827456 0)
(4.3636 0.000834355 0)
(4.36528 0.000841165 0)
(4.36695 0.000847898 0)
(4.36862 0.000854582 0)
(4.37029 0.000861225 0)
(4.37195 0.000867816 0)
(4.37361 0.000874358 0)
(4.37526 0.000880873 0)
(4.37691 0.000887368 0)
(4.37855 0.000893832 0)
(4.38019 0.000900263 0)
(4.38183 0.000906648 0)
(4.38346 0.000912961 0)
(4.38509 0.00091922 0)
(4.38671 0.000925413 0)
(4.38833 0.000931502 0)
(4.38995 0.000937474 0)
(4.39157 0.000943344 0)
(4.39318 0.000949106 0)
(4.39479 0.000954791 0)
(4.3964 0.000960333 0)
(4.39801 0.000965784 0)
(4.39961 0.000971113 0)
(4.40122 0.000976393 0)
(4.40282 0.000981549 0)
(4.40442 0.000986709 0)
(4.40602 0.000991678 0)
(4.40761 0.000996769 0)
(4.40921 0.00100161 0)
(4.4108 0.0010067 0)
(4.41239 0.00101134 0)
(4.41398 0.00101644 0)
(4.41556 0.00102089 0)
(4.41715 0.00102603 0)
(4.41872 0.00103017 0)
(4.42031 0.00103538 0)
(4.42188 0.00103918 0)
(4.42348 0.00104434 0)
(4.42502 0.00104802 0)
(4.42665 0.00105276 0)
(4.42814 0.001057 0)
(4.42985 0.00106016 0)
(4.43121 0.00106764 0)
(4.4331 0.00106601 0)
(4.4342 0.00108583 0)
(4.43645 0.00106828 0)
(4.43696 0.00111473 0)
(4.44003 0.00105269 0)
(4.55122 0.271045 0)
(4.99859 0.199508 0)
(5.30895 0.0872728 0)
(5.4307 0.0891001 0)
(5.43703 0.0865841 0)
(5.40268 0.0646043 0)
(5.36298 0.0466303 0)
(5.32353 0.0383424 0)
(5.28236 0.034317 0)
(5.24053 0.0306929 0)
(5.20069 0.027031 0)
(5.16421 0.0238832 0)
(5.13102 0.0214125 0)
(5.10068 0.0194357 0)
(5.07286 0.0177602 0)
(5.04735 0.0163004 0)
(5.02397 0.0150264 0)
(5.00252 0.0139131 0)
(4.98282 0.0129328 0)
(4.96471 0.0120621 0)
(4.94803 0.0112838 0)
(4.93267 0.0105849 0)
(4.9185 0.00995429 0)
(4.90543 0.00938268 0)
(4.89335 0.0088622 0)
(4.8822 0.00838637 0)
(4.87189 0.00794987 0)
(4.86237 0.00754823 0)
(4.85357 0.00717764 0)
(4.84544 0.00683473 0)
(4.83793 0.00651655 0)
(4.831 0.00622052 0)
(4.82462 0.00594443 0)
(4.81874 0.00568643 0)
(4.81333 0.00544491 0)
(4.80836 0.00521849 0)
(4.80381 0.00500592 0)