/*--------------------------------*- C++ -*----------------------------------*\
  =========                 |
  \\      /  F ield         | OpenFOAM: The Open Source CFD Toolbox
   \\    /   O peration     | Website:  https://openfoam.org
    \\  /    A nd           | Version:  7
     \\/     M anipulation  |
\*---------------------------------------------------------------------------*/
FoamFile
{
    version     2.0;
    format      ascii;
    class       volVectorField;
    location    "0.865";
    object      U;
}
// * * * * * * * * * * * * * * * * * * * * * * * * * * * * * * * * * * * * * //

dimensions      [0 1 -1 0 0 0 0];

internalField   nonuniform List<vector> 
2400
(
(5.99628e-12 1.92731e-12 0)
(-3.11966e-11 1.90807e-11 0)
(-6.4701e-11 3.0513e-11 0)
(-1.02038e-10 4.2638e-11 0)
(-1.37635e-10 1.28223e-10 0)
(-1.66495e-10 1.35061e-10 0)
(-1.5103e-10 1.23942e-10 0)
(-1.08298e-10 4.30811e-11 0)
(-3.67548e-11 1.10614e-10 0)
(6.45864e-11 5.3608e-11 0)
(1.92726e-10 1.21621e-10 0)
(3.3809e-10 5.82844e-11 0)
(5.27711e-10 1.26038e-10 0)
(7.07707e-10 5.35305e-11 0)
(9.34828e-10 5.13176e-11 0)
(1.17994e-09 4.51278e-11 0)
(1.39934e-09 4.75541e-11 0)
(1.66472e-09 1.21471e-10 0)
(1.88715e-09 5.10655e-11 0)
(2.16839e-09 4.43632e-11 0)
(2.42237e-09 4.6643e-11 0)
(2.66629e-09 1.18312e-10 0)
(2.89758e-09 4.01328e-11 0)
(3.13157e-09 3.39693e-11 0)
(3.37593e-09 4.09652e-11 0)
(3.61918e-09 1.10917e-10 0)
(3.81225e-09 3.64541e-11 0)
(4.01322e-09 2.98007e-11 0)
(4.20205e-09 2.99374e-11 0)
(4.38833e-09 3.5239e-11 0)
(4.5669e-09 3.0182e-11 0)
(4.73218e-09 2.14195e-11 0)
(4.8531e-09 2.07093e-11 0)
(5.0086e-09 2.3063e-11 0)
(5.13749e-09 1.62281e-11 0)
(5.27254e-09 -6.48476e-11 0)
(5.36903e-09 1.22151e-11 0)
(5.49242e-09 1.9563e-11 0)
(5.58531e-09 1.73864e-11 0)
(5.65671e-09 1.97578e-11 0)
(5.75004e-09 1.77707e-11 0)
(5.82434e-09 3.88976e-12 0)
(5.88888e-09 -7.02696e-11 0)
(5.98191e-09 7.78071e-12 0)
(6.04334e-09 3.31275e-12 0)
(6.0613e-09 7.50268e-12 0)
(6.13988e-09 1.20016e-11 0)
(6.14992e-09 7.52895e-12 0)
(6.20344e-09 1.34492e-11 0)
(6.24036e-09 6.93854e-12 0)
(6.30759e-09 -7.73279e-11 0)
(6.33187e-09 2.10354e-12 0)
(6.35522e-09 7.18295e-12 0)
(6.37035e-09 5.27825e-12 0)
(6.38053e-09 6.62224e-12 0)
(6.42692e-09 4.05589e-12 0)
(6.43017e-09 1.37052e-13 0)
(6.42668e-09 2.70601e-12 0)
(6.4624e-09 1.62465e-12 0)
(6.49013e-09 -1.51705e-12 0)
(6.49919e-09 1.92762e-12 0)
(6.4978e-09 1.38412e-12 0)
(6.50943e-09 5.31788e-12 0)
(6.50914e-09 4.09303e-12 0)
(6.50395e-09 -9.2673e-13 0)
(6.51667e-09 2.45085e-12 0)
(6.53604e-09 -4.82691e-12 0)
(6.51163e-09 -7.41248e-13 0)
(6.52942e-09 1.76632e-12 0)
(6.52634e-09 -6.03575e-14 0)
(6.51701e-09 -8.30684e-12 0)
(6.49091e-09 -1.13092e-13 0)
(6.52308e-09 -1.51541e-12 0)
(6.52413e-09 -6.26804e-12 0)
(6.53162e-09 -7.30179e-12 0)
(6.49617e-09 -2.678e-12 0)
(6.52433e-09 -3.97729e-12 0)
(6.50188e-09 1.82191e-12 0)
(6.47128e-09 2.81841e-12 0)
(6.50141e-09 -2.92237e-12 0)
(6.47223e-09 -4.20769e-12 0)
(6.4996e-09 -5.93463e-13 0)
(6.49667e-09 -9.21155e-12 0)
(6.46377e-09 -7.26911e-12 0)
(6.46823e-09 -4.95003e-12 0)
(6.45558e-09 1.40951e-12 0)
(6.45584e-09 3.55198e-14 0)
(6.45186e-09 -3.25342e-12 0)
(6.44429e-09 1.05619e-12 0)
(6.43304e-09 1.94029e-12 0)
(6.42369e-09 -9.30112e-13 0)
(6.4237e-09 2.8456e-12 0)
(6.43132e-09 1.12165e-12 0)
(6.40634e-09 -6.58481e-12 0)
(6.40703e-09 -7.07086e-12 0)
(6.40632e-09 -4.79553e-12 0)
(6.39396e-09 -4.36214e-13 0)
(6.38543e-09 -1.39441e-12 0)
(6.38958e-09 -1.98627e-12 0)
(6.3832e-09 -3.93421e-12 0)
(6.36513e-09 -2.83247e-12 0)
(6.3793e-09 1.89315e-13 0)
(6.36076e-09 -4.32308e-13 0)
(6.34371e-09 8.96903e-13 0)
(6.3404e-09 -3.78873e-12 0)
(6.35926e-09 -2.41271e-12 0)
(6.33602e-09 -5.229e-12 0)
(6.34188e-09 7.02084e-13 0)
(6.33341e-09 1.4348e-13 0)
(6.33206e-09 -2.6032e-12 0)
(6.34307e-09 -4.64049e-13 0)
(6.29924e-09 -2.5544e-12 0)
(6.31843e-09 9.30825e-13 0)
(6.31001e-09 -7.86329e-13 0)
(6.30288e-09 -4.16069e-12 0)
(6.33286e-09 -4.05014e-12 0)
(6.30337e-09 -1.1675e-12 0)
(6.2989e-09 -2.35103e-12 0)
(6.27244e-09 3.67501e-12 0)
(6.26488e-09 6.86458e-12 0)
(-3.89438e-12 6.24637e-11 0)
(-7.69167e-11 1.64845e-10 0)
(-1.60748e-10 2.30455e-10 0)
(-1.89209e-10 2.66697e-10 0)
(-1.83335e-10 2.70508e-10 0)
(-9.0102e-11 2.78806e-10 0)
(8.40588e-11 2.90352e-10 0)
(3.18773e-10 2.9366e-10 0)
(6.32978e-10 2.84e-10 0)
(1.03316e-09 2.61898e-10 0)
(1.49391e-09 2.37959e-10 0)
(2.03369e-09 2.07937e-10 0)
(2.66708e-09 1.98876e-10 0)
(3.29575e-09 1.78184e-10 0)
(4.01262e-09 1.62575e-10 0)
(4.75457e-09 1.45278e-10 0)
(5.48883e-09 1.21571e-10 0)
(6.30911e-09 1.08283e-10 0)
(7.08063e-09 8.26682e-11 0)
(7.89646e-09 6.09802e-11 0)
(8.67066e-09 5.89892e-11 0)
(9.45701e-09 5.65698e-11 0)
(1.0218e-08 4.29773e-11 0)
(1.09426e-08 3.26073e-11 0)
(1.16588e-08 1.85692e-11 0)
(1.23948e-08 2.32314e-11 0)
(1.30425e-08 1.58435e-11 0)
(1.36529e-08 1.9693e-11 0)
(1.42215e-08 1.99347e-11 0)
(1.48019e-08 1.2543e-11 0)
(1.53213e-08 1.70809e-11 0)
(1.57997e-08 1.42419e-11 0)
(1.62434e-08 1.80954e-11 0)
(1.66882e-08 2.22731e-11 0)
(1.71165e-08 1.97906e-11 0)
(1.74725e-08 1.04676e-11 0)
(1.77815e-08 2.05466e-11 0)
(1.8122e-08 2.2553e-11 0)
(1.83986e-08 1.82549e-11 0)
(1.86939e-08 7.90713e-12 0)
(1.89441e-08 7.41905e-12 0)
(1.91887e-08 1.01148e-11 0)
(1.93808e-08 9.48931e-12 0)
(1.95998e-08 1.07165e-11 0)
(1.97632e-08 1.33988e-11 0)
(1.99158e-08 1.50768e-11 0)
(2.01104e-08 4.65538e-12 0)
(2.01888e-08 4.06576e-12 0)
(2.03508e-08 -1.19819e-12 0)
(2.04679e-08 -2.71992e-12 0)
(2.06055e-08 2.86193e-12 0)
(2.0662e-08 1.17724e-11 0)
(2.07566e-08 1.87465e-11 0)
(2.08202e-08 9.66509e-12 0)
(2.08645e-08 2.35217e-12 0)
(2.09697e-08 2.78985e-12 0)
(2.09999e-08 3.11675e-12 0)
(2.10506e-08 -3.94511e-12 0)
(2.11212e-08 -1.36036e-12 0)
(2.11706e-08 2.13123e-12 0)
(2.1186e-08 -1.97929e-12 0)
(2.12026e-08 5.15314e-12 0)
(2.12239e-08 -4.76227e-12 0)
(2.12603e-08 -5.04707e-13 0)
(2.12456e-08 4.91067e-12 0)
(2.12646e-08 -1.02428e-11 0)
(2.13054e-08 1.35786e-12 0)
(2.12799e-08 1.49083e-12 0)
(2.12903e-08 1.64006e-12 0)
(2.1307e-08 -2.8634e-12 0)
(2.128e-08 -4.54209e-13 0)
(2.1255e-08 -5.55286e-12 0)
(2.12896e-08 -6.93638e-12 0)
(2.12725e-08 5.06784e-12 0)
(2.12746e-08 7.40635e-12 0)
(2.12363e-08 4.32118e-12 0)
(2.12499e-08 1.72048e-12 0)
(2.12079e-08 -3.44415e-13 0)
(2.11861e-08 -9.92914e-12 0)
(2.12083e-08 -4.68633e-12 0)
(2.11705e-08 -2.75981e-12 0)
(2.11607e-08 1.53361e-12 0)
(2.11568e-08 -4.5933e-12 0)
(2.11356e-08 2.62247e-12 0)
(2.1126e-08 9.34294e-12 0)
(2.11101e-08 2.35773e-12 0)
(2.10865e-08 4.2021e-12 0)
(2.10583e-08 5.93114e-12 0)
(2.10442e-08 -5.37574e-13 0)
(2.10185e-08 -5.77359e-12 0)
(2.09984e-08 -3.63361e-12 0)
(2.09865e-08 -3.94853e-12 0)
(2.0962e-08 2.17411e-12 0)
(2.09458e-08 -1.86645e-12 0)
(2.09386e-08 -8.34606e-13 0)
(2.09187e-08 -2.89781e-13 0)
(2.08966e-08 -1.24849e-12 0)
(2.08687e-08 -5.90077e-12 0)
(2.08581e-08 2.19544e-12 0)
(2.08447e-08 -2.92365e-13 0)
(2.08232e-08 -1.37825e-12 0)
(2.08209e-08 -5.81465e-12 0)
(2.08086e-08 2.92453e-12 0)
(2.07461e-08 6.97946e-13 0)
(2.07492e-08 -2.19815e-12 0)
(2.07636e-08 2.24733e-12 0)
(2.0722e-08 -4.04224e-12 0)
(2.07259e-08 -4.27912e-12 0)
(2.07053e-08 -7.11917e-12 0)
(2.06915e-08 6.67298e-12 0)
(2.07053e-08 2.45656e-13 0)
(2.0651e-08 4.40012e-12 0)
(2.06633e-08 1.63246e-12 0)
(2.06409e-08 -8.77845e-12 0)
(2.06021e-08 -1.54361e-12 0)
(2.06486e-08 -1.70143e-12 0)
(2.05816e-08 -1.52974e-13 0)
(2.06128e-08 1.27388e-11 0)
(2.05554e-08 1.46767e-11 0)
(2.05543e-08 1.66217e-11 0)
(-1.24443e-13 1.74296e-10 0)
(-6.31565e-11 4.42134e-10 0)
(-8.24985e-11 6.10467e-10 0)
(-3.91476e-12 7.31463e-10 0)
(1.75089e-10 8.08193e-10 0)
(4.54231e-10 8.40221e-10 0)
(8.81989e-10 8.32494e-10 0)
(1.43055e-09 8.1737e-10 0)
(2.10584e-09 7.92417e-10 0)
(2.89471e-09 7.50523e-10 0)
(3.7955e-09 7.04795e-10 0)
(4.81371e-09 6.51302e-10 0)
(5.93563e-09 6.00272e-10 0)
(7.0894e-09 5.43484e-10 0)
(8.35076e-09 4.79962e-10 0)
(9.65675e-09 4.36391e-10 0)
(1.09408e-08 3.90636e-10 0)
(1.23482e-08 3.51086e-10 0)
(1.36688e-08 2.95139e-10 0)
(1.50496e-08 2.66158e-10 0)
(1.63946e-08 2.32602e-10 0)
(1.77096e-08 2.14402e-10 0)
(1.89843e-08 1.71971e-10 0)
(2.02468e-08 1.46608e-10 0)
(2.14478e-08 1.2835e-10 0)
(2.26402e-08 1.29066e-10 0)
(2.37072e-08 1.08801e-10 0)
(2.47504e-08 9.67984e-11 0)
(2.57418e-08 8.66871e-11 0)
(2.66877e-08 8.01388e-11 0)
(2.75822e-08 7.4865e-11 0)
(2.83738e-08 7.0644e-11 0)
(2.91013e-08 6.19035e-11 0)
(2.98618e-08 4.74811e-11 0)
(3.0559e-08 4.4115e-11 0)
(3.11417e-08 3.91781e-11 0)
(3.16838e-08 4.24317e-11 0)
(3.22453e-08 4.45147e-11 0)
(3.27308e-08 3.50092e-11 0)
(3.32053e-08 2.78363e-11 0)
(3.35998e-08 2.91233e-11 0)
(3.40021e-08 2.32848e-11 0)
(3.43639e-08 1.38956e-11 0)
(3.47049e-08 2.59817e-11 0)
(3.49913e-08 3.7009e-11 0)
(3.52364e-08 2.49739e-11 0)
(3.55375e-08 2.1176e-11 0)
(3.57164e-08 1.79563e-11 0)
(3.5965e-08 5.00253e-12 0)
(3.61467e-08 7.11309e-12 0)
(3.6347e-08 2.4406e-12 0)
(3.64687e-08 1.5448e-11 0)
(3.66316e-08 1.35558e-11 0)
(3.67512e-08 1.54082e-11 0)
(3.68539e-08 1.3805e-11 0)
(3.69685e-08 1.07605e-11 0)
(3.706e-08 3.68847e-13 0)
(3.71488e-08 -3.36394e-12 0)
(3.72224e-08 -4.56861e-12 0)
(3.73127e-08 -1.18968e-12 0)
(3.73504e-08 7.37119e-12 0)
(3.73687e-08 1.3955e-11 0)
(3.743e-08 3.50174e-12 0)
(3.74805e-08 -5.86361e-12 0)
(3.74469e-08 -6.29359e-12 0)
(3.74997e-08 -9.19607e-12 0)
(3.75356e-08 -2.44385e-12 0)
(3.75116e-08 -1.9244e-15 0)
(3.75333e-08 -2.57223e-12 0)
(3.75589e-08 5.52583e-12 0)
(3.75235e-08 1.4219e-11 0)
(3.75028e-08 4.3152e-12 0)
(3.74997e-08 -1.35425e-12 0)
(3.7479e-08 -7.89785e-12 0)
(3.7472e-08 -4.60412e-12 0)
(3.74542e-08 7.35923e-12 0)
(3.74495e-08 3.12942e-12 0)
(3.74203e-08 -4.1998e-12 0)
(3.73674e-08 -5.26635e-12 0)
(3.73788e-08 -3.48597e-12 0)
(3.73307e-08 -4.66281e-12 0)
(3.72922e-08 -8.55996e-12 0)
(3.7298e-08 -1.24456e-11 0)
(3.72688e-08 -9.75504e-12 0)
(3.72359e-08 -1.08548e-11 0)
(3.72046e-08 -6.2737e-12 0)
(3.71885e-08 1.1536e-12 0)
(3.71493e-08 5.25397e-12 0)
(3.71169e-08 2.34816e-12 0)
(3.70801e-08 -1.31299e-12 0)
(3.70279e-08 -5.39524e-12 0)
(3.70009e-08 -6.57101e-12 0)
(3.69722e-08 -9.26635e-12 0)
(3.69527e-08 -1.39255e-12 0)
(3.69198e-08 -4.75545e-12 0)
(3.68825e-08 -9.25301e-12 0)
(3.68759e-08 -6.10823e-12 0)
(3.6829e-08 -1.34928e-12 0)
(3.67809e-08 -5.61167e-12 0)
(3.67619e-08 -5.88742e-12 0)
(3.6738e-08 -6.55148e-12 0)
(3.67077e-08 1.18591e-12 0)
(3.66849e-08 1.6177e-12 0)
(3.66735e-08 7.37128e-13 0)
(3.66214e-08 -4.74121e-12 0)
(3.66533e-08 -1.22913e-11 0)
(3.65907e-08 -8.26843e-12 0)
(3.65429e-08 -6.4545e-12 0)
(3.65352e-08 -3.60276e-12 0)
(3.65018e-08 -9.83242e-12 0)
(3.65081e-08 -1.21011e-13 0)
(3.64492e-08 6.05266e-12 0)
(3.64567e-08 3.08006e-12 0)
(3.64579e-08 -3.22781e-12 0)
(3.63884e-08 -2.7692e-12 0)
(3.64264e-08 -5.64136e-12 0)
(3.63667e-08 -1.24419e-12 0)
(3.63767e-08 6.35251e-12 0)
(3.63238e-08 2.53838e-11 0)
(3.63005e-08 3.79845e-11 0)
(2.92349e-12 2.85705e-10 0)
(1.16794e-11 7.29335e-10 0)
(1.27714e-10 1.01648e-09 0)
(4.1217e-10 1.1882e-09 0)
(8.42859e-10 1.28766e-09 0)
(1.44557e-09 1.33739e-09 0)
(2.2555e-09 1.34652e-09 0)
(3.21296e-09 1.32543e-09 0)
(4.33703e-09 1.28105e-09 0)
(5.61931e-09 1.21786e-09 0)
(7.03791e-09 1.14086e-09 0)
(8.59883e-09 1.04491e-09 0)
(1.0265e-08 9.65293e-10 0)
(1.20277e-08 8.66536e-10 0)
(1.38697e-08 7.77097e-10 0)
(1.57436e-08 6.93058e-10 0)
(1.76374e-08 6.13843e-10 0)
(1.9613e-08 5.37877e-10 0)
(2.15211e-08 4.68266e-10 0)
(2.34683e-08 4.07005e-10 0)
(2.53454e-08 3.43355e-10 0)
(2.7223e-08 3.08321e-10 0)
(2.90364e-08 2.68015e-10 0)
(3.07775e-08 2.21494e-10 0)
(3.2469e-08 1.89846e-10 0)
(3.40931e-08 1.71272e-10 0)
(3.55844e-08 1.54189e-10 0)
(3.70734e-08 1.3763e-10 0)
(3.84312e-08 1.24912e-10 0)
(3.97341e-08 1.14928e-10 0)
(4.09641e-08 1.04602e-10 0)
(4.20913e-08 1.02132e-10 0)
(4.31204e-08 8.24679e-11 0)
(4.41381e-08 7.03069e-11 0)
(4.50957e-08 6.76145e-11 0)
(4.5928e-08 6.86573e-11 0)
(4.66908e-08 6.8168e-11 0)
(4.74428e-08 6.22726e-11 0)
(4.81378e-08 5.18727e-11 0)
(4.87617e-08 4.86993e-11 0)
(4.9339e-08 3.16514e-11 0)
(4.98816e-08 3.57438e-11 0)
(5.03901e-08 2.81651e-11 0)
(5.08337e-08 3.8877e-11 0)
(5.12553e-08 4.17707e-11 0)
(5.16e-08 3.84333e-11 0)
(5.19966e-08 2.83875e-11 0)
(5.22852e-08 1.37229e-11 0)
(5.25909e-08 1.28139e-11 0)
(5.28627e-08 3.56634e-12 0)
(5.30986e-08 7.25653e-12 0)
(5.33147e-08 1.62602e-11 0)
(5.35289e-08 2.40202e-11 0)
(5.36859e-08 3.16561e-11 0)
(5.38492e-08 1.96833e-11 0)
(5.40006e-08 -2.05715e-12 0)
(5.41289e-08 -1.18263e-11 0)
(5.42392e-08 -1.7849e-11 0)
(5.43462e-08 -1.08178e-11 0)
(5.44176e-08 4.62308e-12 0)
(5.44973e-08 1.44109e-11 0)
(5.45657e-08 7.72544e-12 0)
(5.46369e-08 1.28573e-11 0)
(5.46857e-08 4.98756e-12 0)
(5.46701e-08 1.79745e-12 0)
(5.47281e-08 1.9558e-12 0)
(5.47547e-08 -1.20223e-11 0)
(5.47554e-08 -9.03405e-12 0)
(5.47708e-08 -2.50967e-12 0)
(5.47993e-08 3.8994e-12 0)
(5.47565e-08 1.76301e-12 0)
(5.47457e-08 5.81502e-12 0)
(5.47359e-08 -5.59176e-12 0)
(5.47016e-08 2.11248e-12 0)
(5.46768e-08 1.22608e-12 0)
(5.46614e-08 -3.66574e-12 0)
(5.46588e-08 -4.50996e-14 0)
(5.45946e-08 -1.64191e-12 0)
(5.4558e-08 -2.75733e-12 0)
(5.45509e-08 -1.92279e-12 0)
(5.4471e-08 3.88458e-12 0)
(5.44587e-08 -1.10314e-11 0)
(5.44561e-08 -3.72248e-12 0)
(5.43686e-08 -6.97207e-12 0)
(5.43685e-08 -2.20014e-12 0)
(5.42795e-08 4.62383e-12 0)
(5.42713e-08 1.59507e-12 0)
(5.4228e-08 4.39402e-12 0)
(5.41821e-08 9.32097e-12 0)
(5.41664e-08 1.076e-12 0)
(5.40784e-08 2.10816e-12 0)
(5.40388e-08 2.75615e-12 0)
(5.39851e-08 -5.7432e-12 0)
(5.39562e-08 -1.08605e-11 0)
(5.3922e-08 -9.1488e-12 0)
(5.38434e-08 -8.14372e-12 0)
(5.38217e-08 -6.84089e-12 0)
(5.37754e-08 -1.78829e-12 0)
(5.37324e-08 -3.49848e-12 0)
(5.36971e-08 -4.65987e-12 0)
(5.3659e-08 -1.21811e-11 0)
(5.36262e-08 -6.27594e-12 0)
(5.35887e-08 -1.11441e-11 0)
(5.35747e-08 -1.39631e-11 0)
(5.35044e-08 -1.04596e-11 0)
(5.35054e-08 -1.67807e-11 0)
(5.34467e-08 -3.07984e-12 0)
(5.33873e-08 3.05475e-12 0)
(5.33729e-08 -4.34206e-12 0)
(5.33366e-08 -4.091e-13 0)
(5.33274e-08 3.17112e-12 0)
(5.33031e-08 -1.87403e-12 0)
(5.32518e-08 1.59361e-12 0)
(5.32427e-08 1.01819e-12 0)
(5.3194e-08 -4.99223e-12 0)
(5.32148e-08 -5.77108e-13 0)
(5.31593e-08 2.54889e-12 0)
(5.3125e-08 1.82762e-11 0)
(5.31316e-08 2.85049e-11 0)
(5.31191e-08 4.24852e-11 0)
(-6.77065e-11 3.9924e-10 0)
(1.32284e-10 9.75098e-10 0)
(4.45408e-10 1.33537e-09 0)
(1.01941e-09 1.5595e-09 0)
(1.79841e-09 1.69903e-09 0)
(2.81927e-09 1.76148e-09 0)
(4.06695e-09 1.78232e-09 0)
(5.53303e-09 1.74892e-09 0)
(7.18169e-09 1.69259e-09 0)
(9.01745e-09 1.60705e-09 0)
(1.10175e-08 1.50117e-09 0)
(1.31726e-08 1.39573e-09 0)
(1.54398e-08 1.27901e-09 0)
(1.77992e-08 1.16053e-09 0)
(2.02374e-08 1.0433e-09 0)
(2.27108e-08 9.24264e-10 0)
(2.52221e-08 8.15514e-10 0)
(2.77591e-08 7.1333e-10 0)
(3.0261e-08 6.20935e-10 0)
(3.27402e-08 5.30176e-10 0)
(3.51654e-08 4.66411e-10 0)
(3.75305e-08 4.06485e-10 0)
(3.98677e-08 3.41936e-10 0)
(4.20656e-08 2.92306e-10 0)
(4.42203e-08 2.52734e-10 0)
(4.62471e-08 2.20583e-10 0)
(4.81697e-08 2.01176e-10 0)
(5.00185e-08 1.76899e-10 0)
(5.17287e-08 1.57211e-10 0)
(5.33776e-08 1.4338e-10 0)
(5.49256e-08 1.35103e-10 0)
(5.63769e-08 1.22776e-10 0)
(5.76901e-08 1.05456e-10 0)
(5.89365e-08 9.85376e-11 0)
(6.00933e-08 8.90037e-11 0)
(6.11874e-08 7.91662e-11 0)
(6.21774e-08 8.09921e-11 0)
(6.30835e-08 8.13654e-11 0)
(6.39848e-08 8.35256e-11 0)
(6.4771e-08 6.36567e-11 0)
(6.54797e-08 5.26171e-11 0)
(6.61598e-08 4.10782e-11 0)
(6.67635e-08 3.8612e-11 0)
(6.73292e-08 4.71104e-11 0)
(6.78878e-08 4.98724e-11 0)
(6.8373e-08 4.19137e-11 0)
(6.88177e-08 3.17529e-11 0)
(6.91979e-08 2.23413e-11 0)
(6.95828e-08 1.54377e-11 0)
(6.99094e-08 1.67301e-11 0)
(7.02081e-08 1.61302e-11 0)
(7.04796e-08 1.77419e-11 0)
(7.07179e-08 2.62841e-11 0)
(7.09449e-08 2.12169e-11 0)
(7.11894e-08 1.33717e-11 0)
(7.13495e-08 4.81483e-12 0)
(7.15014e-08 -2.65408e-13 0)
(7.16195e-08 -5.88296e-12 0)
(7.17765e-08 -5.15074e-12 0)
(7.18576e-08 -5.60244e-12 0)
(7.19476e-08 1.20669e-13 0)
(7.20684e-08 -4.25765e-12 0)
(7.2108e-08 2.05684e-12 0)
(7.21598e-08 7.3293e-12 0)
(7.22127e-08 3.26843e-12 0)
(7.22763e-08 -8.87161e-12 0)
(7.2279e-08 -1.0031e-11 0)
(7.22649e-08 -4.21803e-12 0)
(7.23189e-08 -2.2702e-12 0)
(7.23129e-08 2.12745e-12 0)
(7.23024e-08 7.94804e-12 0)
(7.22873e-08 1.38333e-12 0)
(7.22614e-08 5.72862e-12 0)
(7.22367e-08 2.1782e-13 0)
(7.21952e-08 -1.15422e-12 0)
(7.21457e-08 1.17204e-12 0)
(7.2151e-08 1.03439e-11 0)
(7.20879e-08 -1.19739e-12 0)
(7.20579e-08 -1.62599e-12 0)
(7.20003e-08 -6.69554e-12 0)
(7.19272e-08 -1.08924e-11 0)
(7.19355e-08 -1.30283e-11 0)
(7.18695e-08 -1.51762e-11 0)
(7.17918e-08 -2.21031e-11 0)
(7.17791e-08 -1.00646e-11 0)
(7.16857e-08 -1.07472e-11 0)
(7.16654e-08 2.38667e-12 0)
(7.16125e-08 1.98255e-12 0)
(7.15718e-08 7.13315e-12 0)
(7.1535e-08 9.65042e-12 0)
(7.14312e-08 2.5444e-12 0)
(7.14096e-08 -6.54349e-12 0)
(7.13272e-08 -2.89824e-12 0)
(7.12772e-08 -8.19344e-12 0)
(7.12156e-08 -3.47075e-12 0)
(7.11144e-08 4.38638e-13 0)
(7.10957e-08 7.66379e-12 0)
(7.10511e-08 -1.00279e-11 0)
(7.1001e-08 -5.03104e-12 0)
(7.09471e-08 -2.11912e-11 0)
(7.08973e-08 -1.92262e-11 0)
(7.08875e-08 -2.22986e-11 0)
(7.07831e-08 -1.43606e-11 0)
(7.07954e-08 -1.33726e-11 0)
(7.07253e-08 -6.32092e-12 0)
(7.0665e-08 -2.93319e-12 0)
(7.06216e-08 -4.41611e-12 0)
(7.05506e-08 -6.52603e-13 0)
(7.05418e-08 2.44392e-12 0)
(7.04851e-08 -9.28229e-12 0)
(7.04469e-08 -4.78069e-12 0)
(7.04197e-08 9.12271e-13 0)
(7.03965e-08 -6.38919e-12 0)
(7.03708e-08 -1.06541e-12 0)
(7.03289e-08 -3.71561e-12 0)
(7.03371e-08 -1.52943e-12 0)
(7.03e-08 2.97961e-12 0)
(7.02297e-08 6.92773e-12 0)
(7.02557e-08 1.99688e-11 0)
(7.02423e-08 2.40194e-11 0)
(-6.3824e-11 4.79978e-10 0)
(2.9276e-10 1.09996e-09 0)
(8.55268e-10 1.51455e-09 0)
(1.75564e-09 1.77776e-09 0)
(2.93361e-09 1.91869e-09 0)
(4.40594e-09 1.98633e-09 0)
(6.16907e-09 2.00211e-09 0)
(8.14572e-09 1.97921e-09 0)
(1.03755e-08 1.91136e-09 0)
(1.27993e-08 1.82297e-09 0)
(1.53869e-08 1.7031e-09 0)
(1.81371e-08 1.58105e-09 0)
(2.1007e-08 1.44155e-09 0)
(2.39718e-08 1.30538e-09 0)
(2.69931e-08 1.1755e-09 0)
(3.00567e-08 1.04201e-09 0)
(3.31436e-08 9.2238e-10 0)
(3.62312e-08 7.98023e-10 0)
(3.92632e-08 6.8798e-10 0)
(4.22596e-08 5.96934e-10 0)
(4.51807e-08 5.22247e-10 0)
(4.80167e-08 4.34031e-10 0)
(5.08005e-08 3.74123e-10 0)
(5.34184e-08 3.10692e-10 0)
(5.5996e-08 2.71111e-10 0)
(5.84077e-08 2.38363e-10 0)
(6.06962e-08 2.11555e-10 0)
(6.28679e-08 1.86153e-10 0)
(6.4912e-08 1.59269e-10 0)
(6.68588e-08 1.52904e-10 0)
(6.86721e-08 1.43526e-10 0)
(7.03787e-08 1.23398e-10 0)
(7.19624e-08 1.17478e-10 0)
(7.34341e-08 9.67874e-11 0)
(7.48063e-08 9.65003e-11 0)
(7.60883e-08 9.77615e-11 0)
(7.72713e-08 8.68374e-11 0)
(7.83383e-08 8.44432e-11 0)
(7.94068e-08 7.09559e-11 0)
(8.03277e-08 7.06049e-11 0)
(8.11892e-08 5.92144e-11 0)
(8.19681e-08 5.82117e-11 0)
(8.27061e-08 5.39185e-11 0)
(8.33531e-08 4.54382e-11 0)
(8.402e-08 3.75126e-11 0)
(8.45935e-08 3.77564e-11 0)
(8.51103e-08 1.96021e-11 0)
(8.5584e-08 2.50426e-11 0)
(8.60164e-08 2.04122e-11 0)
(8.64095e-08 1.89217e-11 0)
(8.67684e-08 1.60126e-11 0)
(8.70788e-08 1.74632e-11 0)
(8.73662e-08 1.73023e-11 0)
(8.76399e-08 1.02034e-11 0)
(8.79233e-08 1.08656e-11 0)
(8.8115e-08 1.26423e-11 0)
(8.82892e-08 5.28484e-12 0)
(8.84412e-08 1.78232e-12 0)
(8.8605e-08 -7.41207e-12 0)
(8.87145e-08 5.81027e-12 0)
(8.8802e-08 6.38231e-12 0)
(8.89543e-08 1.70369e-12 0)
(8.89953e-08 -5.96142e-12 0)
(8.9066e-08 2.93104e-13 0)
(8.91431e-08 -3.08132e-12 0)
(8.91984e-08 1.51446e-14 0)
(8.92089e-08 -6.54249e-12 0)
(8.91992e-08 -7.73353e-12 0)
(8.92413e-08 -4.80825e-12 0)
(8.92176e-08 8.09249e-13 0)
(8.92303e-08 5.57011e-12 0)
(8.92152e-08 9.48259e-12 0)
(8.91757e-08 7.20449e-12 0)
(8.91507e-08 9.80936e-12 0)
(8.91038e-08 4.72796e-12 0)
(8.90508e-08 5.11224e-12 0)
(8.90448e-08 2.69299e-12 0)
(8.89872e-08 5.33542e-12 0)
(8.89386e-08 1.747e-12 0)
(8.88819e-08 7.69168e-13 0)
(8.88127e-08 -4.43623e-12 0)
(8.87758e-08 -8.71387e-12 0)
(8.87102e-08 -1.2235e-11 0)
(8.86301e-08 -9.74724e-12 0)
(8.86005e-08 -1.25518e-11 0)
(8.85007e-08 -5.78428e-12 0)
(8.84734e-08 2.69148e-12 0)
(8.84077e-08 2.47386e-13 0)
(8.83551e-08 -1.6479e-12 0)
(8.83259e-08 3.69229e-12 0)
(8.82057e-08 1.3668e-12 0)
(8.81754e-08 7.21366e-13 0)
(8.80798e-08 -3.37503e-12 0)
(8.80084e-08 -3.48739e-12 0)
(8.79384e-08 1.75468e-12 0)
(8.78368e-08 -1.09849e-12 0)
(8.78247e-08 -1.09039e-12 0)
(8.77383e-08 -6.7512e-12 0)
(8.76792e-08 -2.08739e-11 0)
(8.7628e-08 -2.29814e-11 0)
(8.75533e-08 -2.18811e-11 0)
(8.75384e-08 -2.34251e-11 0)
(8.74264e-08 -2.09266e-11 0)
(8.74436e-08 -1.28416e-11 0)
(8.73522e-08 -1.02017e-11 0)
(8.72845e-08 -7.02393e-12 0)
(8.72252e-08 -2.26176e-12 0)
(8.71601e-08 -4.38315e-13 0)
(8.71522e-08 -4.4504e-13 0)
(8.70655e-08 -2.53327e-12 0)
(8.70187e-08 -1.33213e-11 0)
(8.70113e-08 -7.87262e-12 0)
(8.69736e-08 -3.95253e-12 0)
(8.69364e-08 -1.11873e-11 0)
(8.68838e-08 -4.7368e-12 0)
(8.68917e-08 -9.72728e-12 0)
(8.68602e-08 -1.03344e-11 0)
(8.67964e-08 -1.50617e-12 0)
(8.67922e-08 9.80411e-12 0)
(8.68011e-08 8.25177e-12 0)
(-3.78305e-11 4.76148e-10 0)
(4.45787e-10 1.08222e-09 0)
(1.28273e-09 1.48653e-09 0)
(2.53613e-09 1.73443e-09 0)
(4.11236e-09 1.88297e-09 0)
(6.03643e-09 1.95008e-09 0)
(8.29185e-09 1.96722e-09 0)
(1.07927e-08 1.93914e-09 0)
(1.35768e-08 1.88512e-09 0)
(1.65456e-08 1.79493e-09 0)
(1.9705e-08 1.68358e-09 0)
(2.30036e-08 1.54831e-09 0)
(2.64596e-08 1.42408e-09 0)
(2.99644e-08 1.28911e-09 0)
(3.3524e-08 1.1552e-09 0)
(3.71433e-08 1.03801e-09 0)
(4.07256e-08 9.08395e-10 0)
(4.42955e-08 7.93497e-10 0)
(4.7806e-08 6.81374e-10 0)
(5.12652e-08 5.90457e-10 0)
(5.4607e-08 5.01199e-10 0)
(5.78517e-08 4.30088e-10 0)
(6.10322e-08 3.58233e-10 0)
(6.40298e-08 3.02202e-10 0)
(6.6928e-08 2.59782e-10 0)
(6.96691e-08 2.32576e-10 0)
(7.22637e-08 1.98386e-10 0)
(7.47439e-08 1.77758e-10 0)
(7.70341e-08 1.66251e-10 0)
(7.92468e-08 1.42761e-10 0)
(8.12942e-08 1.30346e-10 0)
(8.32476e-08 1.27063e-10 0)
(8.50121e-08 1.1309e-10 0)
(8.66757e-08 9.70411e-11 0)
(8.82327e-08 8.86018e-11 0)
(8.96957e-08 8.43713e-11 0)
(9.10157e-08 8.67467e-11 0)
(9.22314e-08 7.55481e-11 0)
(9.34222e-08 7.40078e-11 0)
(9.44842e-08 6.48385e-11 0)
(9.54406e-08 6.54436e-11 0)
(9.63389e-08 6.16744e-11 0)
(9.71492e-08 5.29615e-11 0)
(9.7911e-08 4.34473e-11 0)
(9.86556e-08 3.08414e-11 0)
(9.9289e-08 2.84592e-11 0)
(9.98741e-08 3.57935e-11 0)
(1.004e-07 2.36714e-11 0)
(1.00918e-07 1.86183e-11 0)
(1.01353e-07 1.63403e-11 0)
(1.01756e-07 1.75764e-11 0)
(1.02105e-07 1.75987e-11 0)
(1.02436e-07 4.70681e-12 0)
(1.02736e-07 1.65992e-11 0)
(1.03047e-07 9.91736e-12 0)
(1.03271e-07 6.66213e-12 0)
(1.0347e-07 1.39933e-13 0)
(1.03642e-07 -1.26874e-12 0)
(1.03828e-07 -7.70574e-13 0)
(1.03946e-07 1.67967e-12 0)
(1.04068e-07 2.68186e-13 0)
(1.04219e-07 2.50031e-12 0)
(1.04274e-07 -9.47729e-12 0)
(1.04345e-07 -4.98317e-12 0)
(1.04418e-07 -8.89185e-13 0)
(1.04487e-07 -5.71051e-12 0)
(1.04493e-07 -1.44291e-12 0)
(1.04477e-07 -3.99416e-12 0)
(1.04537e-07 -3.22285e-14 0)
(1.04523e-07 2.33827e-12 0)
(1.04526e-07 5.27663e-12 0)
(1.04495e-07 1.36152e-11 0)
(1.04459e-07 1.42605e-11 0)
(1.04433e-07 3.50609e-12 0)
(1.04387e-07 7.86747e-13 0)
(1.0433e-07 3.34858e-12 0)
(1.04316e-07 2.64735e-12 0)
(1.04251e-07 5.0561e-12 0)
(1.04197e-07 3.69519e-13 0)
(1.04127e-07 -3.52011e-12 0)
(1.04047e-07 -8.57917e-12 0)
(1.04031e-07 -5.26309e-12 0)
(1.03937e-07 -1.31278e-11 0)
(1.03841e-07 -1.70699e-11 0)
(1.0382e-07 -2.26638e-11 0)
(1.03722e-07 -1.25881e-11 0)
(1.03671e-07 -1.01817e-11 0)
(1.036e-07 -2.55635e-12 0)
(1.03529e-07 8.2902e-13 0)
(1.03484e-07 4.5651e-12 0)
(1.03365e-07 1.73968e-11 0)
(1.03324e-07 1.32213e-11 0)
(1.03216e-07 7.15787e-12 0)
(1.03162e-07 1.19938e-11 0)
(1.03066e-07 8.55205e-12 0)
(1.02954e-07 9.84268e-12 0)
(1.02914e-07 -6.96744e-12 0)
(1.02846e-07 -7.84471e-12 0)
(1.02773e-07 -2.42531e-11 0)
(1.02717e-07 -2.61444e-11 0)
(1.02642e-07 -2.31065e-11 0)
(1.02606e-07 -2.74854e-11 0)
(1.02496e-07 -2.07313e-11 0)
(1.02482e-07 -1.73081e-11 0)
(1.02392e-07 -1.11727e-11 0)
(1.0233e-07 1.10004e-11 0)
(1.02256e-07 2.21383e-11 0)
(1.0218e-07 9.93882e-12 0)
(1.02156e-07 -2.53563e-12 0)
(1.0209e-07 -8.33335e-12 0)
(1.02027e-07 -1.25283e-11 0)
(1.01988e-07 -1.9002e-11 0)
(1.01971e-07 -2.33222e-11 0)
(1.01935e-07 -8.23795e-12 0)
(1.01879e-07 -1.25258e-11 0)
(1.01893e-07 -8.91327e-12 0)
(1.01832e-07 -4.03215e-12 0)
(1.01773e-07 -1.33825e-12 0)
(1.01772e-07 -7.57653e-12 0)
(1.01765e-07 -4.42341e-12 0)
(4.97245e-11 4.00515e-10 0)
(6.03994e-10 9.1465e-10 0)
(1.67546e-09 1.25681e-09 0)
(3.23619e-09 1.47057e-09 0)
(5.17612e-09 1.59686e-09 0)
(7.50866e-09 1.64817e-09 0)
(1.01928e-08 1.66006e-09 0)
(1.31532e-08 1.63961e-09 0)
(1.63916e-08 1.59209e-09 0)
(1.98477e-08 1.50865e-09 0)
(2.34938e-08 1.417e-09 0)
(2.7275e-08 1.31456e-09 0)
(3.11995e-08 1.2038e-09 0)
(3.51697e-08 1.09011e-09 0)
(3.91986e-08 9.7968e-10 0)
(4.32275e-08 8.61132e-10 0)
(4.72332e-08 7.6048e-10 0)
(5.12241e-08 6.58759e-10 0)
(5.51002e-08 5.75065e-10 0)
(5.89301e-08 4.93015e-10 0)
(6.2625e-08 4.25974e-10 0)
(6.62193e-08 3.55267e-10 0)
(6.96694e-08 2.98844e-10 0)
(7.29788e-08 2.48929e-10 0)
(7.61363e-08 2.17795e-10 0)
(7.91657e-08 1.90369e-10 0)
(8.19735e-08 1.75459e-10 0)
(8.46915e-08 1.55351e-10 0)
(8.72249e-08 1.23699e-10 0)
(8.95963e-08 1.14384e-10 0)
(9.18248e-08 1.0843e-10 0)
(9.39265e-08 9.71454e-11 0)
(9.58605e-08 8.2982e-11 0)
(9.76997e-08 8.17851e-11 0)
(9.94199e-08 7.73122e-11 0)
(1.00989e-07 7.02803e-11 0)
(1.0241e-07 7.37603e-11 0)
(1.03773e-07 6.2903e-11 0)
(1.05045e-07 5.7493e-11 0)
(1.06195e-07 6.37868e-11 0)
(1.0725e-07 5.64602e-11 0)
(1.08232e-07 5.06895e-11 0)
(1.09142e-07 3.29344e-11 0)
(1.09982e-07 2.99917e-11 0)
(1.10743e-07 2.38848e-11 0)
(1.11426e-07 1.06632e-11 0)
(1.1208e-07 1.93159e-11 0)
(1.12664e-07 2.15984e-11 0)
(1.13196e-07 1.46364e-11 0)
(1.13694e-07 1.25575e-11 0)
(1.14129e-07 1.02234e-11 0)
(1.14536e-07 1.11419e-11 0)
(1.1492e-07 9.69517e-12 0)
(1.15192e-07 4.84416e-12 0)
(1.15515e-07 6.92396e-12 0)
(1.15769e-07 8.5745e-12 0)
(1.16002e-07 9.72342e-12 0)
(1.16226e-07 6.67527e-12 0)
(1.1636e-07 8.53163e-12 0)
(1.16529e-07 1.48564e-12 0)
(1.16671e-07 -1.16859e-11 0)
(1.16808e-07 -1.7406e-11 0)
(1.16902e-07 -5.79459e-12 0)
(1.16955e-07 -1.26419e-11 0)
(1.17023e-07 -1.0184e-11 0)
(1.17059e-07 -1.03054e-12 0)
(1.17115e-07 -8.37577e-12 0)
(1.17109e-07 -4.14008e-12 0)
(1.17138e-07 -5.79102e-12 0)
(1.1716e-07 -2.51288e-12 0)
(1.17117e-07 3.5564e-12 0)
(1.17096e-07 1.50321e-11 0)
(1.17064e-07 1.95129e-11 0)
(1.17034e-07 1.72805e-11 0)
(1.16994e-07 1.24944e-11 0)
(1.16958e-07 4.36527e-12 0)
(1.16923e-07 5.63692e-12 0)
(1.16819e-07 2.96836e-12 0)
(1.16789e-07 1.10649e-12 0)
(1.1672e-07 -2.61673e-12 0)
(1.16646e-07 -4.66644e-13 0)
(1.16587e-07 -8.12815e-12 0)
(1.16521e-07 -1.3485e-11 0)
(1.16426e-07 -1.75915e-11 0)
(1.16357e-07 -2.36732e-11 0)
(1.16297e-07 -1.47751e-11 0)
(1.1621e-07 -9.78311e-12 0)
(1.16133e-07 -4.50429e-12 0)
(1.16054e-07 -4.76829e-12 0)
(1.15975e-07 5.35517e-12 0)
(1.15894e-07 9.64086e-12 0)
(1.15803e-07 1.59992e-11 0)
(1.15726e-07 1.37393e-11 0)
(1.15643e-07 1.43342e-11 0)
(1.15558e-07 1.28163e-11 0)
(1.15478e-07 7.74398e-12 0)
(1.15395e-07 1.20089e-12 0)
(1.15321e-07 -5.69333e-12 0)
(1.15241e-07 -1.75525e-11 0)
(1.15178e-07 -2.83076e-11 0)
(1.15083e-07 -3.01932e-11 0)
(1.1502e-07 -2.13445e-11 0)
(1.14949e-07 -3.41315e-11 0)
(1.14894e-07 -2.1705e-11 0)
(1.14802e-07 -7.74028e-12 0)
(1.14759e-07 2.98849e-12 0)
(1.14652e-07 1.1005e-11 0)
(1.14606e-07 1.2726e-11 0)
(1.14562e-07 3.06651e-12 0)
(1.14495e-07 -3.46805e-12 0)
(1.14446e-07 -2.15716e-11 0)
(1.14378e-07 -3.23375e-11 0)
(1.14344e-07 -2.31599e-11 0)
(1.14304e-07 -2.16435e-11 0)
(1.14278e-07 -2.08603e-11 0)
(1.14267e-07 -1.77532e-11 0)
(1.142e-07 -1.46672e-11 0)
(1.14144e-07 -1.48237e-11 0)
(1.14135e-07 -2.0821e-11 0)
(1.14114e-07 -3.37173e-11 0)
(-1.42576e-11 2.69034e-10 0)
(7.07007e-10 6.1195e-10 0)
(1.98304e-09 8.30469e-10 0)
(3.75019e-09 9.747e-10 0)
(5.98879e-09 1.0586e-09 0)
(8.60955e-09 1.10253e-09 0)
(1.16226e-08 1.11055e-09 0)
(1.49135e-08 1.09791e-09 0)
(1.85038e-08 1.05831e-09 0)
(2.23082e-08 1.01685e-09 0)
(2.63076e-08 9.62968e-10 0)
(3.04533e-08 8.81069e-10 0)
(3.47028e-08 8.05314e-10 0)
(3.90241e-08 7.21689e-10 0)
(4.33583e-08 6.51752e-10 0)
(4.77027e-08 5.79099e-10 0)
(5.20442e-08 5.07983e-10 0)
(5.62896e-08 4.47213e-10 0)
(6.04416e-08 3.79543e-10 0)
(6.45343e-08 3.2872e-10 0)
(6.84706e-08 2.74344e-10 0)
(7.22914e-08 2.28092e-10 0)
(7.59563e-08 1.94901e-10 0)
(7.94603e-08 1.70928e-10 0)
(8.28052e-08 1.4605e-10 0)
(8.59906e-08 1.30546e-10 0)
(8.89845e-08 1.12702e-10 0)
(9.18747e-08 9.58386e-11 0)
(9.45263e-08 9.2689e-11 0)
(9.70437e-08 7.94309e-11 0)
(9.94354e-08 7.63628e-11 0)
(1.0162e-07 6.57219e-11 0)
(1.0371e-07 5.99118e-11 0)
(1.05622e-07 4.31878e-11 0)
(1.07407e-07 4.31751e-11 0)
(1.09076e-07 5.33485e-11 0)
(1.10605e-07 4.94902e-11 0)
(1.12036e-07 5.43571e-11 0)
(1.1336e-07 4.87101e-11 0)
(1.14593e-07 4.03385e-11 0)
(1.15709e-07 5.14671e-11 0)
(1.16766e-07 3.54431e-11 0)
(1.17713e-07 3.05038e-11 0)
(1.18589e-07 2.16377e-11 0)
(1.1941e-07 1.78429e-11 0)
(1.20122e-07 1.26228e-11 0)
(1.20806e-07 1.03908e-12 0)
(1.21432e-07 3.00867e-12 0)
(1.21989e-07 4.70741e-12 0)
(1.22505e-07 6.99125e-12 0)
(1.22988e-07 3.42544e-12 0)
(1.23399e-07 3.93375e-14 0)
(1.23779e-07 2.68005e-13 0)
(1.24123e-07 2.13849e-12 0)
(1.24436e-07 7.23863e-12 0)
(1.24698e-07 6.28394e-12 0)
(1.24951e-07 8.21019e-12 0)
(1.25166e-07 5.65637e-12 0)
(1.25352e-07 5.78221e-12 0)
(1.25517e-07 -3.32706e-12 0)
(1.25657e-07 -6.80442e-12 0)
(1.25785e-07 -7.82375e-12 0)
(1.2587e-07 -1.30907e-11 0)
(1.25934e-07 -5.9539e-12 0)
(1.2605e-07 -8.44246e-12 0)
(1.2608e-07 -8.80046e-12 0)
(1.26107e-07 -5.52693e-12 0)
(1.26135e-07 -6.87408e-12 0)
(1.26138e-07 -2.59113e-12 0)
(1.26144e-07 -1.13888e-12 0)
(1.26127e-07 3.87163e-12 0)
(1.26088e-07 5.19904e-12 0)
(1.26078e-07 1.59498e-11 0)
(1.26048e-07 1.03732e-11 0)
(1.25989e-07 7.00851e-12 0)
(1.25947e-07 7.16987e-12 0)
(1.25919e-07 -6.27308e-12 0)
(1.25828e-07 4.24843e-12 0)
(1.25766e-07 5.2188e-12 0)
(1.25724e-07 8.89923e-12 0)
(1.25628e-07 8.25103e-12 0)
(1.25542e-07 -6.1723e-14 0)