/*--------------------------------*- C++ -*----------------------------------*\
  =========                 |
  \\      /  F ield         | OpenFOAM: The Open Source CFD Toolbox
   \\    /   O peration     | Website:  https://openfoam.org
    \\  /    A nd           | Version:  7
     \\/     M anipulation  |
\*---------------------------------------------------------------------------*/
FoamFile
{
    version     2.0;
    format      ascii;
    class       surfaceScalarField;
    location    "0.4825";
    object      phi_0;
}
// * * * * * * * * * * * * * * * * * * * * * * * * * * * * * * * * * * * * * //

dimensions      [1 0 -1 0 0 0 0];

internalField   nonuniform List<scalar> 
21708
(
0.00131474
0.00101784
1.37267e-05
0.000910019
0.000396974
6.19987e-06
0.000696597
0.00019947
1.17596e-05
0.000605164
8.24015e-05
6.72841e-06
0.000552473
4.00385e-05
1.0899e-05
0.000521887
2.25812e-05
6.94884e-06
0.00049887
1.22262e-05
1.01882e-05
0.000482968
8.36046e-06
7.08555e-06
0.0004689
3.9479e-06
9.61142e-06
0.000458635
2.46815e-06
7.16104e-06
0.000448908
-1.64506e-07
9.11685e-06
0.000441727
-9.04594e-07
7.17633e-06
0.000434693
-2.6766e-06
8.67634e-06
0.000429658
-3.25252e-06
7.14098e-06
0.000424764
-4.61936e-06
8.27249e-06
0.000421401
-5.01274e-06
7.06492e-06
0.000417076
-4.91974e-06
7.89125e-06
0.000415175
-6.44251e-06
6.95691e-06
0.000365114
4.1047e-05
7.63545e-06
2.24728e-05
6.51754e-06
0.000334755
0.00228304
0.00107789
2.81175e-06
0.00208918
0.000593552
-4.08014e-06
0.00187999
0.000405257
1.57357e-06
0.00173304
0.000230408
-3.33314e-06
0.00162682
0.000143093
9.17556e-07
0.00155473
9.5914e-05
-2.99059e-06
0.00149852
6.69767e-05
2.89794e-07
0.0014582
5.06952e-05
-2.79618e-06
0.00142286
3.89172e-05
-2.46785e-07
0.00139632
3.10929e-05
-2.69148e-06
0.00137121
2.503e-05
-7.22788e-07
0.00135212
2.01687e-05
-2.6623e-06
0.00133372
1.61401e-05
-1.15414e-06
0.00132017
1.21471e-05
-2.68932e-06
0.00130784
8.3112e-06
-1.55481e-06
0.00129841
6.10186e-06
-2.75982e-06
0.00129547
-1.18925e-06
-1.95181e-06
0.00128394
6.67669e-06
-2.8523e-06
0.00133112
-4.99391e-06
-2.44894e-06
-2.94595e-05
-3.41586e-06
0.00138512
0.00261394
0.00080036
9.64499e-06
0.00270555
0.000497381
3.23698e-06
0.00269691
0.000403947
8.52143e-06
0.00265817
0.000263774
3.51697e-06
0.00260604
0.000185136
7.69114e-06
0.00255912
0.000136522
3.73452e-06
0.00251338
0.000103479
6.9726e-06
0.00247597
8.25441e-05
3.86038e-06
0.00244056
6.67014e-05
6.38491e-06
0.00241179
5.49397e-05
3.92892e-06
0.00238423
4.58906e-05
5.8838e-06
0.00236185
3.79882e-05
3.93833e-06
0.00234027
3.18824e-05
5.4373e-06
0.00232331
2.49625e-05
3.89915e-06
0.00230655
1.98062e-05
5.03183e-06
0.00229577
1.26892e-05
3.82107e-06
0.00227992
9.44964e-06
4.65586e-06
0.00227638
5.75008e-06
3.69422e-06
0.00225004
1.59854e-05
4.43541e-06
1.0409e-05
3.33499e-06
0.00220573
0.0026205
0.000521551
4.15122e-06
0.00278307
0.000335444
-1.98446e-06
0.00288964
0.000292827
3.2483e-06
0.00295066
0.000202906
-1.70599e-06
0.00297886
0.00015221
2.50359e-06
0.00299437
0.000119631
-1.41673e-06
0.00299689
9.62427e-05
1.85904e-06
0.00299745
8.08471e-05
-1.22966e-06
0.00299259
6.84523e-05
1.31937e-06
0.00298834
5.88935e-05
-1.12232e-06
0.00298108
5.10559e-05
8.46475e-07
0.00297498
4.41365e-05
-1.09202e-06
0.00296756
3.82305e-05
4.13827e-07
0.00296105
3.24085e-05
-1.12001e-06
0.00295475
2.62988e-05
1.53801e-08
0.00294718
2.1761e-05
-1.18807e-06
0.0029443
1.29168e-05
-3.74876e-07
0.00293577
1.5496e-05
-1.30097e-06
0.00294911
3.1901e-06
-8.79693e-07
-3.87763e-06
-1.77111e-06
0.00296464
0.00260915
0.000250795
7.53638e-06
0.00277915
0.000162438
1.61466e-06
0.00291511
0.000148904
6.70669e-06
0.00300907
0.000105745
1.74718e-06
0.00307175
8.14667e-05
5.9332e-06
0.00312096
6.55741e-05
1.99685e-06
0.00315488
5.40098e-05
5.25343e-06
0.00318452
4.64114e-05
2.15052e-06
0.00320616
4.00997e-05
4.68632e-06
0.00322605
3.51683e-05
2.23824e-06
0.0032405
3.09403e-05
4.19967e-06
0.00325389
2.7115e-05
2.2571e-06
0.0032635
2.37989e-05
3.75685e-06
0.00327283
2.03777e-05
2.21952e-06
0.00327882
1.71623e-05
3.35348e-06
0.00328519
1.38528e-05
2.14582e-06
0.00328545
1.03892e-05
2.97971e-06
0.00328982
9.5774e-06
2.01328e-06
0.00328281
7.63161e-06
2.68485e-06
9.06464e-06
1.67228e-06
0.00326817
0.00259089
-5.84801e-11
5.77619e-06
0.002752
1.5862e-10
-5.79667e-08
0.00289464
-1.69416e-10
5.01212e-06
0.0029989
2.42856e-10
5.2519e-08
0.00307401
-8.82895e-10
4.23641e-06
0.00313641
3.43446e-10
3.0309e-07
0.00318374
-7.28105e-10
3.56683e-06
0.00322695
2.50886e-09
4.68013e-07
0.00326196
2.42284e-09
3.00963e-06
0.00329494
7.09144e-09
5.64662e-07
0.00332183
1.07263e-08
2.52976e-06
0.00334682
2.01351e-08
5.89119e-07
0.00336723
2.82544e-08
2.09023e-06
0.00338628
7.54097e-08
5.54032e-07
0.00340181
5.18396e-08
1.68744e-06
0.00341557
2.84732e-07
4.83045e-07
0.00342551
5.8765e-08
1.30559e-06
0.00343466
8.25962e-07
3.55657e-07
0.00344137
3.62619e-07
8.89294e-07
1.63325e-06
-3.07296e-08
0.00344907
0.00259089
-0.000250795
5.77619e-06
0.002752
-0.000162438
-5.79671e-08
0.00289464
-0.000148905
5.01212e-06
0.0029989
-0.000105744
5.25155e-08
0.00307401
-8.14683e-05
4.23642e-06
0.00313641
-6.55737e-05
3.03084e-07
0.00318374
-5.40109e-05
3.56685e-06
0.00322696
-4.64072e-05
4.67992e-07
0.00326196
-4.00941e-05
3.00966e-06
0.00329494
-3.51563e-05
5.64597e-07
0.00332183
-3.09172e-05
2.52984e-06
0.00334683
-2.70807e-05
5.88952e-07
0.00336723
-2.37381e-05
2.09043e-06
0.0033863
-2.02421e-05
5.53584e-07
0.00340182
-1.70481e-05
1.68796e-06
0.0034156
-1.33083e-05
4.81867e-07
0.00342552
-1.02539e-05
1.30743e-06
0.00343463
-7.88672e-06
3.53122e-07
0.00344133
-6.89237e-06
8.97662e-07
-5.69308e-06
-2.90119e-08
0.00344892
0.00260915
-0.000521551
7.53638e-06
0.00277915
-0.000335443
1.61467e-06
0.00291511
-0.000292828
6.70669e-06
0.00300907
-0.000202906
1.74718e-06
0.00307175
-0.000152212
5.93319e-06
0.00312096
-0.000119631
1.99687e-06
0.00315488
-9.6244e-05
5.25343e-06
0.00318452
-8.08426e-05
2.15056e-06
0.00320616
-6.84481e-05
4.68631e-06
0.00322605
-5.88809e-05
2.2383e-06
0.00324051
-5.1037e-05
4.19961e-06
0.00325389
-4.41008e-05
2.25727e-06
0.00326351
-3.81808e-05
3.75669e-06
0.00327285
-3.22761e-05
2.21997e-06
0.00327887
-2.62142e-05
3.35293e-06
0.00328527
-2.12487e-05
2.14697e-06
0.00328561
-1.28661e-05
2.97783e-06
0.00329018
-1.39952e-05
2.01564e-06
0.00328345
-2.72854e-06
2.67729e-06
6.64489e-06
1.6699e-06
0.00326941
0.0026205
-0.00080036
4.15122e-06
0.00278307
-0.00049738
-1.98446e-06
0.00288964
-0.000403948
3.24829e-06
0.00295066
-0.000263774
-1.70601e-06
0.00297886
-0.000185138
2.50359e-06
0.00299437
-0.000136523
-1.41672e-06
0.0029969
-0.000103479
1.85909e-06
0.00299745
-8.25412e-05
-1.22965e-06
0.00299259
-6.66968e-05
1.31943e-06
0.00298835
-5.49317e-05
-1.12237e-06
0.00298109
-4.58723e-05
8.46578e-07
0.002975
-3.79649e-05
-1.09216e-06
0.00296758
-3.18352e-05
4.14041e-07
0.00296111
-2.48706e-05
-1.12036e-06
0.00295482
-1.97252e-05
1.58453e-08
0.00294736
-1.22935e-05
-1.18897e-06
0.00294448
-9.39675e-06
-3.73214e-07
0.00293616
-4.45648e-06
-1.30337e-06
0.0029496
-1.56338e-05
-8.71641e-07
-7.99683e-06
-1.77148e-06
0.00296548
0.00261394
-0.00107789
9.64499e-06
0.00270555
-0.000593552
3.23698e-06
0.00269691
-0.000405257
8.52141e-06
0.00265817
-0.000230408
3.51695e-06
0.00260604
-0.000143094
7.69114e-06
0.00255912
-9.59142e-05
3.73457e-06
0.00251339
-6.69769e-05
6.97264e-06
0.00247598
-5.06932e-05
3.86044e-06
0.00244056
-3.8914e-05
6.38493e-06
0.0024118
-3.10873e-05
3.92898e-06
0.00238424
-2.50185e-05
5.88376e-06
0.00236187
-2.01531e-05
3.93845e-06
0.00234032
-1.61115e-05
5.43715e-06
0.00232339
-1.20895e-05
3.89949e-06
0.00230667
-8.2724e-06
5.03131e-06
0.00229603
-5.85004e-06
3.82201e-06
0.00228026
1.15666e-06
4.65431e-06
0.00227718
-5.84328e-06
3.69644e-06
0.00225127
4.92038e-06
4.4304e-06
3.04594e-05
3.33294e-06
0.00220837
0.00228304
-0.00101784
2.81175e-06
0.00208918
-0.000396974
-4.08014e-06
0.00187999
-0.000199471
1.57355e-06
0.00173304
-8.24024e-05
-3.33314e-06
0.00162682
-4.00391e-05
9.17592e-07
0.00155473
-2.25812e-05
-2.99054e-06
0.00149852
-1.22254e-05
2.89845e-07
0.00145821
-8.35939e-06
-2.79618e-06
0.00142287
-3.94549e-06
-2.46744e-07
0.00139633
-2.46658e-06
-2.69152e-06
0.00137123
1.7024e-07
-7.22707e-07
0.00135215
9.07736e-07
-2.66241e-06
0.00133376
2.68996e-06
-1.15396e-06
0.00132026
3.26592e-06
-2.68961e-06
0.00130794
4.64417e-06
-1.55437e-06
0.00129869
5.08296e-06
-2.76048e-06
0.00129568
4.95175e-06
-1.9503e-06
0.00128473
6.70397e-06
-2.85426e-06
0.00133154
-4.07629e-05
-2.44207e-06
-2.18593e-05
-3.41966e-06
0.00138593
0.00131474
1.37267e-05
0.000910019
6.19993e-06
0.000696597
1.17597e-05
0.000605164
6.7285e-06
0.000552473
1.08991e-05
0.000521887
6.94891e-06
0.000498872
1.01882e-05
0.000482969
7.0856e-06
0.000468903
9.61144e-06
0.000458639
7.16111e-06
0.000448917
9.11686e-06
0.000441738
7.17648e-06
0.000434717
8.67627e-06
0.000429694
7.14132e-06
0.000424825
8.27216e-06
0.000421532
7.0658e-06
0.000417237
7.89026e-06
0.000415603
6.95875e-06
0.000365818
7.63319e-06
6.51878e-06
0.000336074
0.00192912
0.000427046
3.07137e-06
0.001405
0.000524089
4.87589e-06
0.00105606
0.000356478
2.17392e-06
0.0008716
0.000185142
3.65518e-06
0.000780754
9.7647e-05
2.19011e-06
0.000726168
5.70898e-05
3.31808e-06
0.00069291
4.05528e-05
2.32132e-06
0.000664555
3.19818e-05
3.06291e-06
0.000645266
2.6053e-05
2.3851e-06
0.000626943
2.2034e-05
2.83867e-06
0.000614385
1.85022e-05
2.40436e-06
0.000601724
1.62615e-05
2.6571e-06
0.000592891
1.40403e-05
2.4135e-06
0.000584031
1.22988e-05
2.53227e-06
0.000577719
1.08851e-05
2.43588e-06
0.000572154
8.84866e-06
2.45514e-06
0.000571862
4.3317e-06
2.4858e-06
0.000557509
1.7505e-05
2.41321e-06
0.000665052
-0.000103803
2.51551e-06
-8.32293e-05
2.61807e-06
0.00075082
0.0024419
0.000325287
8.38451e-06
0.00238053
0.00056983
1.02838e-05
0.00225512
0.000474124
7.74699e-06
0.00211615
0.000309497
9.10708e-06
0.00200342
0.000201181
7.6837e-06
0.00191067
0.000135978
8.73514e-06
0.00184159
0.000100579
7.82321e-06
0.00178274
7.85361e-05
8.48566e-06
0.00173786
6.20621e-05
7.88164e-06
0.00169762
5.07327e-05
8.25783e-06
0.00166642
4.05716e-05
7.88367e-06
0.00163767
3.3782e-05
8.06924e-06
0.00161529
2.68482e-05
7.88049e-06
0.00159512
2.11753e-05
7.94048e-06
0.00157904
1.66953e-05
7.89675e-06
0.00156767
8.61572e-06
7.85972e-06
0.00155279
8.20022e-06
7.9467e-06
0.00155682
1.5728e-06
7.80619e-06
0.00148153
-4.03509e-05
8.06454e-06
-5.33487e-06
8.06856e-06
0.00139074
0.00246562
0.00021073
4.05518e-06
0.00259662
0.000434641
6.13238e-06
0.00266108
0.00041363
3.22138e-06
0.00266015
0.000307116
5.01651e-06
0.00263697
0.000226382
3.22411e-06
0.00260006
0.00016927
4.65382e-06
0.00256697
0.000134789
3.48799e-06
0.00253252
0.000110603
4.43768e-06
0.00250403
9.19342e-05
3.65572e-06
0.00247531
7.80626e-05
4.23407e-06
0.00245157
6.56283e-05
3.72586e-06
0.00242798
5.67504e-05
4.05351e-06
0.00240875
4.7555e-05
3.76084e-06
0.00238941
4.04539e-05
3.9231e-06
0.00237512
3.21476e-05
3.80412e-06
0.00235805
2.54065e-05
3.84588e-06
0.00235244
1.41302e-05
3.8663e-06
0.00233413
1.90174e-05
3.82343e-06
0.00234954
-5.60701e-05
3.86121e-06
-3.02548e-05
3.99604e-06
0.00237266
0.00241691
0.000136346
7.23725e-06
0.00256093
0.000278134
9.17737e-06
0.00269697
0.000272832
6.74464e-06
0.00277874
0.00021382
8.17038e-06
0.00283252
0.00016604
6.68802e-06
0.00285926
0.000130479
7.75229e-06
0.00287791
0.000108428
6.8069e-06
0.00288539
9.21748e-05
7.49423e-06
0.00289104
7.9002e-05
6.8791e-06
0.00289058
6.86647e-05
7.28046e-06
0.00288993
5.89401e-05
6.89834e-06
0.00288592
5.16092e-05
7.09733e-06
0.0028826
4.39651e-05
6.89564e-06
0.00287745
3.76147e-05
6.96272e-06
0.00287215
3.09676e-05
6.90989e-06
0.00286649
2.33802e-05
6.88297e-06
0.00285632
1.71799e-05
6.95752e-06
0.00285359
1.3462e-05
6.84889e-06
0.00280958
-2.03578e-05
7.0815e-06
8.67791e-06
7.08999e-06
0.00276117
0.00241906
6.515e-05
5.1715e-06
0.00255346
0.000136836
7.18303e-06
0.0026899
0.000137271
4.58939e-06
0.00278777
0.000109937
6.16883e-06
0.00286486
8.79806e-05
4.53131e-06
0.00291761
7.10587e-05
5.73509e-06
0.00296311
6.06002e-05
4.69044e-06
0.0029969
5.26816e-05
5.48704e-06
0.0030277
4.62704e-05
4.80304e-06
0.00305063
4.11048e-05
5.28523e-06
0.00307129
3.61223e-05
4.85083e-06
0.00308648
3.22729e-05
5.10848e-06
0.00310052
2.80529e-05
4.86703e-06
0.00311048
2.48255e-05
4.97874e-06
0.00311984
2.0591e-05
4.89753e-06
0.00312362
1.75623e-05
4.90691e-06
0.00312808
1.14185e-05
4.94991e-06
0.00312626
1.27245e-05
4.89302e-06
0.00311814
-1.44754e-05
4.97711e-06
-2.11169e-06
5.07163e-06
0.00312539
0.00241028
-1.57015e-10
6.189e-06
0.00253757
2.15937e-10
8.1595e-06
0.00267292
-3.00876e-10
5.70361e-06
0.00277413
1.84696e-11
7.18739e-06
0.00285832
-6.16436e-10
5.63971e-06
0.00291997
1.09032e-09
6.75007e-06
0.00297545
7.99747e-10
5.76446e-06
0.00301972
3.5567e-09
6.49338e-06
0.00306131
3.29325e-09
5.85448e-06
0.0030951
8.65507e-09
6.28861e-06
0.00312628
9.22847e-09
5.88802e-06
0.00315158
2.79298e-08
6.10932e-06
0.00317486
2.25476e-08
5.8928e-06
0.00319396
9.39144e-08
5.97796e-06
0.00321078
6.13735e-08
5.91681e-06
0.00322349
2.65664e-07
5.90738e-06
0.00323087
2.3943e-07
5.96959e-06
0.00323793
6.63614e-07
5.89161e-06
0.00321764
8.79284e-07
6.05643e-06
1.73678e-06
6.09897e-06
0.00320775
0.00241028
-6.51503e-05
6.189e-06
0.00253757
-0.000136836
8.1595e-06
0.00267292
-0.000137272
5.70361e-06
0.00277413
-0.000109937
7.18739e-06
0.00285832
-8.79819e-05
5.63971e-06
0.00291997
-7.10562e-05
6.75007e-06
0.00297545
-6.05991e-05
5.76446e-06
0.00301972
-5.26739e-05
6.49339e-06
0.00306131
-4.6265e-05
5.85446e-06
0.00309509
-4.10857e-05
6.28864e-06
0.00312629
-3.61072e-05
5.88797e-06
0.00315158
-3.22126e-05
6.10941e-06
0.00317487
-2.80176e-05
5.89269e-06
0.00319396
-2.46277e-05
5.97818e-06
0.00321081
-2.04982e-05
5.9165e-06
0.00322351
-1.70222e-05
5.90789e-06
0.00323099
-1.10452e-05
5.9685e-06
0.0032382
-1.15407e-05
5.89225e-06
0.00321811
1.60444e-05
6.05106e-06
5.20008e-06
6.0972e-06
0.00320861
0.00241906
-0.000136346
5.1715e-06
0.00255346
-0.000278133
7.18303e-06
0.0026899
-0.000272832
4.5894e-06
0.00278777
-0.00021382
6.16883e-06
0.00286486
-0.000166041
4.53132e-06
0.00291761
-0.000130477
5.73509e-06
0.00296311
-0.000108427
4.69044e-06
0.00299691
-9.21685e-05
5.48702e-06
0.0030277
-7.89964e-05
4.80305e-06
0.00305064
-6.86489e-05
5.2852e-06
0.0030713
-5.89238e-05
4.85087e-06
0.0030865
-5.15587e-05
5.1084e-06
0.00310052
-4.3926e-05
4.86712e-06
0.00311051
-3.7446e-05
4.97851e-06
0.00311987
-3.08619e-05
4.8978e-06
0.00312371
-2.29045e-05
4.90638e-06
0.00312813
-1.67652e-05
4.9509e-06
0.00312634
-1.23111e-05
4.89225e-06
0.00311823
2.19027e-05
4.98176e-06
-5.49542e-06
5.07255e-06
0.00312538
0.00241691
-0.00021073
7.23725e-06
0.00256093
-0.000434641
9.17737e-06
0.00269697
-0.00041363
6.74464e-06
0.00277874
-0.000307116
8.17039e-06
0.00283252
-0.000226383
6.68802e-06
0.00285926
-0.000169268
7.75229e-06
0.00287791
-0.000134789
6.80688e-06
0.00288539
-0.000110598
7.49423e-06
0.00289105
-9.19308e-05
6.87907e-06
0.00289058
-7.80486e-05
7.28049e-06
0.00288994
-6.56173e-05
6.89829e-06
0.00288593
-5.67047e-05
7.0974e-06
0.00288262
-4.75303e-05
6.89551e-06
0.0028775
-4.03042e-05
6.96288e-06
0.00287224
-3.20869e-05
6.90955e-06
0.00286664
-2.49934e-05
6.88336e-06
0.00285665
-1.38914e-05
6.95639e-06
0.00285416
-1.81125e-05
6.8494e-06
0.00281063
5.71563e-05
7.07668e-06
3.24662e-05
7.08944e-06
0.00276319
0.00246562
-0.000325287
4.05518e-06
0.00259662
-0.00056983
6.13238e-06
0.00266108
-0.000474124
3.22138e-06
0.00266015
-0.000309496
5.01651e-06
0.00263697
-0.000201181
3.22412e-06
0.00260006
-0.000135978
4.65382e-06
0.00256697
-0.000100579
3.48798e-06
0.00253252
-7.85342e-05
4.43766e-06
0.00250403
-6.20593e-05
3.65572e-06
0.00247532
-5.07254e-05
4.23404e-06
0.00245158
-4.05611e-05
3.72589e-06
0.00242801
-3.37559e-05
4.05345e-06
0.00240878
-2.68241e-05
3.76093e-06
0.00238951
-2.10872e-05
3.92289e-06
0.00237521
-1.66323e-05
3.80437e-06
0.0023583
-8.36701e-06
3.84541e-06
0.00235268
-7.95683e-06
3.86704e-06
0.00233472
-1.00213e-06
3.8227e-06
0.00235024
4.13177e-05
3.8643e-06
7.17275e-06
3.99631e-06
0.00237372
0.0024419
-0.000427046
8.38451e-06
0.00238053
-0.000524089
1.02838e-05
0.00225512
-0.000356478
7.747e-06
0.00211616
-0.000185142
9.10708e-06
0.00200342
-9.76473e-05
7.68369e-06
0.00191067
-5.70898e-05
8.73514e-06
0.00184159
-4.05531e-05
7.82321e-06
0.00178274
-3.1981e-05
8.48567e-06
0.00173787
-2.60522e-05
7.88163e-06
0.00169763
-2.20305e-05
8.25786e-06
0.00166644
-1.84988e-05
7.88364e-06
0.0016377
-1.6249e-05
8.0693e-06
0.00161533
-1.40338e-05
7.88039e-06
0.00159521
-1.22572e-05
7.94061e-06
0.00157918
-1.08751e-05
7.89647e-06
0.00156794
-8.72784e-06
7.86005e-06
0.00155328
-4.30877e-06
7.94567e-06
0.00155757
-1.71929e-05
7.80712e-06
0.00148336
0.0001037
8.06031e-06
8.31055e-05
8.07034e-06
0.00139452
0.00192912
3.07137e-06
0.001405
4.87589e-06
0.00105606
2.17392e-06
0.0008716
3.65517e-06
0.000780754
2.19011e-06
0.000726169
3.31807e-06
0.000692911
2.32134e-06
0.000664558
3.06291e-06
0.000645269
2.38511e-06
0.00062695
2.83865e-06
0.000614395
2.40438e-06
0.000601747
2.65707e-06
0.000592921
2.41353e-06
0.000584102
2.53216e-06
0.0005778
2.43598e-06
0.000572357
2.45479e-06
0.000572083
2.48615e-06
0.000558055
2.41243e-06
0.000665478
2.51619e-06
2.61724e-06
0.000751121
0.00217456
0.000173791
-4.01776e-11
0.00192628
0.000251919
-3.82416e-11
0.00166016
0.000266608
-3.46061e-11
0.00142505
0.000236289
-3.85381e-11
0.0012356
0.000189059
-4.61325e-11
0.00109672
0.000140538
-5.14203e-11
0.000998744
9.97688e-05
-5.17614e-11
0.000934236
6.74832e-05
-5.07496e-11
0.000892464
4.38959e-05
-4.71873e-11
0.00086764
2.7053e-05
-4.24468e-11
0.000852467
1.66833e-05
-3.58344e-11
0.000843232
1.07994e-05
-3.19361e-11
0.000837258
7.15773e-06
-3.00503e-11
0.000832718
5.76106e-06
-3.1664e-11
0.000831156
2.63355e-06
-3.2908e-11
0.000828084
4.13693e-06
-3.55062e-11
0.000831663
-2.47314e-06
-3.66808e-11
0.000826197
6.48199e-06
-3.91531e-11
0.000840497
-1.31119e-05
-4.05853e-11
-6.19569e-06
-4.297e-11
0.000848042
0.00240215
0.000125259
-3.88636e-11
0.0024473
0.000215791
-4.15991e-11
0.00245368
0.000266621
-4.64331e-11
0.0024278
0.000269289
-3.98575e-11
0.00237891
0.000243013
-2.78939e-11
0.002322
0.000203546
-3.12004e-11
0.00226323
0.000164255
-4.40128e-11
0.00220875
0.000128934
-5.18254e-11
0.00215928
0.000100188
-5.03001e-11
0.00211658
7.73399e-05
-4.61024e-11
0.00207998
6.08558e-05
-3.98999e-11
0.00204966
4.90786e-05
-3.41932e-11
0.00202549
3.90661e-05
-2.86143e-11
0.00200667
3.21737e-05
-2.73342e-11
0.00199406
2.25524e-05
-2.79261e-11
0.00198427
2.09502e-05
-3.09872e-11
0.00198066
8.04576e-06
-3.27272e-11
0.00197469
1.90062e-05
-3.52256e-11
0.00197685
-8.64473e-06
-3.69133e-11
2.14333e-05
-4.27129e-11
0.00195572
0.00238998
8.45426e-05
-3.88076e-11
0.00245924
0.000151392
-3.95028e-11
0.00253105
0.000196787
-4.561e-11
0.00259596
0.000207578
-4.729e-11
0.00264312
0.000196488
-3.81014e-11
0.00267484
0.000173585
-2.82344e-11
0.0026921
0.000147911
-2.47027e-11
0.00269997
0.000123464
-2.9025e-11
0.00270016
0.000101968
-3.57781e-11
0.00269607
8.42082e-05
-4.31528e-11
0.00268942
7.01624e-05
-4.59076e-11
0.00268213
5.99418e-05
-4.45835e-11
0.00267528
4.97869e-05
-4.01486e-11
0.00266845
4.33445e-05
-3.79601e-11
0.00266319
3.19993e-05
-3.73055e-11
0.00265716
3.09555e-05
-3.81201e-11
0.00265442
1.45246e-05
-3.65269e-11
0.00265016
2.66484e-05
-3.60575e-11
0.00265028
-5.56091e-06
-3.34341e-11
2.86985e-05
-3.72264e-11
0.00264585
0.00237998
5.70028e-05
-3.91047e-11
0.00243923
0.000100042
-3.92667e-11
0.00251182
0.000129718
-4.2979e-11
0.00258807
0.000137701
-4.5481e-11
0.00265639
0.000132224
-4.0813e-11
0.00271579
0.000118959
-3.34426e-11
0.00276413
0.000103738
-2.78887e-11
0.00280405
8.89683e-05
-2.8736e-11
0.00283529
7.58551e-05
-3.16436e-11
0.00286023
6.48715e-05
-3.47908e-11
0.00287983
5.59396e-05
-3.48658e-11
0.00289654
4.93729e-05
-3.53511e-11
0.00291065
4.24152e-05
-3.64685e-11
0.00292318
3.83018e-05
-4.05261e-11
0.00293289
3.00045e-05
-4.45352e-11
0.00294149
2.98876e-05
-4.78114e-11
0.00294644
1.69631e-05
-4.73495e-11
0.00295329
2.67015e-05
-4.59093e-11
0.0029532
1.55649e-06
-4.24765e-11
3.1702e-05
-4.18996e-11
0.00295678
0.00238057
2.6807e-05
-3.92771e-11
0.00243803
4.84917e-05
-3.95882e-11
0.00250723
6.38858e-05
-4.12401e-11
0.00258131
6.79979e-05
-4.23897e-11
0.00264998
6.54251e-05
-3.96136e-11
0.00271259
5.90899e-05
-3.65186e-11
0.00276662
5.17522e-05
-3.42456e-11
0.00281429
4.47443e-05
-3.56494e-11
0.00285473
3.84901e-05
-3.64943e-11
0.00288982
3.33524e-05
-3.64906e-11
0.00291993
2.90489e-05
-3.34617e-11
0.00294728
2.59867e-05
-3.22826e-11
0.0029718
2.24644e-05
-3.32547e-11
0.00299485
2.07135e-05
-3.83474e-11
0.00301431
1.63652e-05
-4.35007e-11
0.00303302
1.69168e-05
-4.76846e-11
0.00304573
9.85146e-06
-4.84737e-11
0.00306199
1.56013e-05
-4.79256e-11
0.00306677
1.89916e-06
-4.60388e-11
1.78261e-05
-4.60876e-11
0.00308556
0.00237819
-2.0187e-10
-3.94084e-11
0.00243357
3.7586e-10
-3.9784e-11
0.00250195
-4.41503e-10
-4.05315e-11
0.00257533
5.11215e-10
-4.08455e-11
0.00264373
-7.43348e-10
-3.89978e-11
0.00270656
1.60412e-09
-3.82349e-11
0.00276145
-1.86434e-10
-3.81146e-11
0.00281065
4.01428e-09
-3.97488e-11
0.00285328
8.9042e-10
-3.9611e-11
0.0028912
9.83738e-09
-3.88126e-11
0.00292448
3.92621e-09
-3.6315e-11
0.00295536
3.0021e-08
-3.59814e-11
0.00298337
8.90088e-09
-3.66506e-11
0.00301044
9.54965e-08
-3.96876e-11
0.00303364
1.90497e-08
-4.15932e-11
0.00305709
2.65812e-07
-4.32533e-11
0.0030735
1.08205e-07
-4.30334e-11
0.0030947
6.17348e-07
-4.31513e-11
0.00310227
5.86833e-07
-4.2708e-11
1.29358e-06
-4.3268e-11
0.00312486
0.00237819
-2.68074e-05
-3.94322e-11
0.00243357
-4.8491e-05
-3.99061e-11
0.00250195
-6.38867e-05
-4.00015e-11
0.00257533
-6.79968e-05
-4.00115e-11
0.00264373
-6.54267e-05
-3.89654e-11
0.00270656
-5.90866e-05
-3.96634e-11
0.00276145
-5.17529e-05
-4.07134e-11
0.00281065
-4.4736e-05
-4.23125e-11
0.00285328
-3.8489e-05
-4.15041e-11
0.0028912
-3.3332e-05
-4.09044e-11
0.00292448
-2.90424e-05
-4.02028e-11
0.00295536
-2.59256e-05
-4.19005e-11
0.00298337
-2.24495e-05
-4.27236e-11
0.00301044
-2.05214e-05
-4.31356e-11
0.00303365
-1.63335e-05
-4.02817e-11
0.0030571
-1.63865e-05
-3.79553e-11
0.00307353
-9.65131e-06
-3.55383e-11
0.00309476
-1.43929e-05
-3.61014e-11
0.00310237
-7.79419e-07
-3.71664e-11
-1.53371e-05
-3.80772e-11
0.00312506
0.00238057
-5.70032e-05
-3.95713e-11
0.00243803
-0.000100041
-4.00566e-11
0.00250723
-0.000129719
-3.92233e-11
0.00258131
-0.0001377
-3.85075e-11
0.00264998
-0.000132225
-3.84982e-11
0.00271259
-0.000118956
-4.15134e-11
0.00276662
-0.000103739
-4.45568e-11
0.00281429
-8.89605e-05
-4.62885e-11
0.00285473
-7.5854e-05
-4.45493e-11
0.00288983
-6.48523e-05
-4.33723e-11
0.00291993
-5.5933e-05
-4.33297e-11
0.00294729
-4.93156e-05
-4.57265e-11
0.0029718
-4.24e-05
-4.59102e-11
0.00299487
-3.81205e-05
-4.37982e-11
0.00301432
-2.9975e-05
-3.74182e-11
0.00303306
-2.93785e-05
-3.27999e-11
0.00304579
-1.67839e-05
-2.98091e-11
0.00306207
-2.55212e-05
-3.15224e-11
0.00306694
-5.1778e-07
-3.39059e-11
-2.92559e-05
-3.54399e-11
0.00308577
0.00237998
-8.45429e-05
-3.97946e-11
0.00243923
-0.000151391
-4.02549e-11
0.00251182
-0.000196788
-3.72467e-11
0.00258807
-0.000207577
-3.54342e-11
0.00265639
-0.00019649
-3.77966e-11
0.00271579
-0.000173582
-4.518e-11
0.00276413
-0.000147913
-5.10788e-11
0.00280405
-0.000123456
-5.28659e-11
0.00283529
-0.000101968
-4.89819e-11
0.00286023
-8.41899e-05
-4.502e-11
0.00287984
-7.01583e-05
-4.23063e-11
0.00289655
-5.98883e-05
-4.29096e-11
0.00291067
-4.97778e-05
-4.2248e-11
0.00292321
-4.31776e-05
-4.03367e-11
0.00293293
-3.19861e-05
-3.51247e-11
0.00294157
-3.04873e-05
-3.2143e-11
0.00294658
-1.44057e-05
-3.12236e-11
0.00295356
-2.5584e-05
-3.44094e-11
0.00295365
6.40321e-06
-3.78001e-11
-2.66076e-05
-3.98675e-11
0.00295759
0.00238998
-0.000125259
-4.01459e-11
0.00245924
-0.000215791
-3.96608e-11
0.00253105
-0.000266621
-3.39779e-11
0.00259596
-0.000269288
-3.37099e-11
0.00264312
-0.000243014
-4.15808e-11
0.00267484
-0.000203544
-5.14202e-11
0.0026921
-0.000164256
-5.45278e-11
0.00269997
-0.000128929
-5.19165e-11
0.00270016
-0.000100189
-4.38404e-11
0.00269608
-7.73263e-05
-3.60078e-11
0.00268942
-6.08517e-05
-3.11365e-11
0.00268215
-4.90386e-05
-3.37174e-11
0.0026753
-3.90579e-05
-3.81926e-11
0.00266851
-3.20483e-05
-4.22117e-11
0.00266326
-2.25439e-05
-4.20884e-11
0.00265733
-2.05886e-05
-4.2173e-11
0.00265464
-7.97178e-06
-4.29983e-11
0.0026506
-1.81728e-05
-4.48898e-11
0.00265096
9.2671e-06
-4.66478e-11
-1.98207e-05
-4.39327e-11
0.002647
0.00240215
-0.000173791
-4.00091e-11
0.0024473
-0.000251919
-3.70775e-11
0.00245368
-0.000266608
-3.31527e-11
0.0024278
-0.000236288
-4.21645e-11
0.00237891
-0.000189059
-5.20199e-11
0.002322
-0.000140537
-4.81876e-11
0.00226323
-9.97688e-05
-3.48613e-11
0.00220876
-6.74813e-05
-2.77905e-11
0.00215928
-4.38948e-05
-2.77192e-11
0.00211659
-2.70477e-05
-3.23617e-11
0.00207999
-1.66791e-05
-3.77943e-11
0.0020497
-1.07821e-05
-4.52041e-11
0.00202552
-7.15043e-06
-5.01489e-11
0.00200677
-5.70164e-06
-5.27607e-11
0.00199416
-2.62764e-06
-5.11944e-11
0.00198455
-3.95238e-06
-4.94141e-11
0.00198098
2.49808e-06
-4.71222e-11
0.00197542
-6.05311e-06
-4.51973e-11
0.0019779
1.3413e-05
-4.28298e-11
6.73542e-06
-3.75854e-11
0.00195784
0.00217456
-3.84157e-11
0.00192628
-3.94345e-11
0.00166016
-4.50522e-11
0.00142505
-4.55365e-11
0.0012356
-3.52515e-11
0.00109673
-2.63279e-11
0.000998745
-2.4883e-11
0.000934239
-2.93964e-11
0.000892468
-3.34154e-11
0.00086765
-3.87149e-11
0.000852481
-4.33341e-11
0.000843262
-4.74905e-11
0.000837297
-4.80119e-11
0.000832814
-4.75907e-11
0.000831259
-4.53937e-11
0.000828376
-4.42908e-11
0.000831966
-4.21259e-11
0.000826955
-4.08818e-11
0.00084153
-3.85504e-11
-3.75462e-11
0.000849603
0.00217456
0.000173791
-3.07143e-06
0.00192628
0.000251919
-4.87595e-06
0.00166016
0.000266607
-2.17397e-06
0.00142505
0.000236289
-3.65524e-06
0.0012356
0.000189059
-2.19017e-06
0.00109672
0.000140538
-3.31815e-06
0.000998744
9.9769e-05
-2.32139e-06
0.000934236
6.74834e-05
-3.06298e-06
0.000892464
4.3896e-05
-2.38516e-06
0.00086764
2.7053e-05
-2.83873e-06
0.000852467
1.66831e-05
-2.40442e-06
0.000843232
1.07991e-05
-2.65716e-06
0.000837258
7.15748e-06
-2.41356e-06
0.000832717
5.76089e-06
-2.53232e-06
0.000831156
2.63344e-06
-2.43594e-06
0.000828084
4.13686e-06
-2.4552e-06
0.000831663
-2.47317e-06
-2.48587e-06
0.000826196
6.48199e-06
-2.41327e-06
0.000840497
-1.31119e-05
-2.51557e-06
-6.19563e-06
-2.61814e-06
0.000848041
0.00240215
0.000125259
-8.38458e-06
0.0024473
0.000215791
-1.02839e-05
0.00245368
0.000266621
-7.74706e-06
0.0024278
0.000269289
-9.10715e-06
0.00237891
0.000243014
-7.68376e-06
0.002322
0.000203546
-8.73521e-06
0.00226323
0.000164255
-7.82329e-06
0.00220875
0.000128934
-8.48574e-06
0.00215928
0.000100189
-7.88172e-06
0.00211658
7.73398e-05
-8.2579e-06
0.00207998
6.08554e-05
-7.88375e-06
0.00204966
4.9078e-05
-8.06932e-06
0.00202549
3.90656e-05
-7.88056e-06
0.00200667
3.21732e-05
-7.94055e-06
0.00199406
2.25521e-05
-7.89682e-06
0.00198427
2.095e-05
-7.85979e-06
0.00198066
8.04568e-06
-7.94678e-06
0.00197468
1.90062e-05
-7.80627e-06
0.00197685
-8.64474e-06
-8.06461e-06
2.14335e-05
-8.06864e-06
0.00195572
0.00238998
8.45426e-05
-4.05524e-06
0.00245924
0.000151392
-6.13245e-06
0.00253105
0.000196787
-3.22145e-06
0.00259596
0.000207578
-5.01658e-06
0.00264312
0.000196488
-3.22418e-06
0.00267483
0.000173585
-4.65388e-06
0.0026921
0.000147911
-3.48804e-06
0.00269997
0.000123464
-4.43774e-06
0.00270016
0.000101968
-3.65578e-06
0.00269607
8.42079e-05
-4.23414e-06
0.00268942
7.0162e-05
-3.72592e-06
0.00268213
5.99413e-05
-4.05358e-06
0.00267528
4.97863e-05
-3.7609e-06
0.00266845
4.3344e-05
-3.92316e-06
0.00266319
3.1999e-05
-3.80419e-06
0.00265716
3.09555e-05
-3.84595e-06
0.00265442
1.45246e-05
-3.86637e-06
0.00265016
2.66485e-05
-3.8235e-06
0.00265028
-5.56096e-06
-3.86127e-06
2.86985e-05
-3.99611e-06
0.00264585
0.00237998
5.70028e-05
-7.23731e-06
0.00243923
0.000100042
-9.17744e-06
0.00251182
0.000129719
-6.74471e-06
0.00258807
0.000137701
-8.17045e-06
0.00265639
0.000132224
-6.68809e-06
0.00271579
0.000118959
-7.75235e-06
0.00276413
0.000103738
-6.80696e-06
0.00280405
8.89678e-05
-7.49429e-06
0.00283529
7.58546e-05
-6.87916e-06
0.00286023
6.48709e-05
-7.28053e-06
0.00287983
5.59391e-05
-6.89841e-06
0.00289654
4.93722e-05
-7.0974e-06
0.00291065
4.24144e-05
-6.8957e-06
0.00292318
3.83012e-05
-6.96279e-06
0.00293289
3.00043e-05
-6.90996e-06
0.00294149
2.98877e-05
-6.88305e-06
0.00294644
1.69636e-05
-6.9576e-06
0.00295329
2.6702e-05
-6.84897e-06
0.0029532
1.55672e-06
-7.08157e-06
3.17022e-05
-7.09006e-06
0.00295678
0.00238057
2.6807e-05
-5.17156e-06
0.00243803
4.84917e-05
-7.1831e-06
0.00250723
6.3886e-05
-4.58946e-06
0.00258131
6.79984e-05
-6.1689e-06
0.00264998
6.54255e-05
-4.53138e-06
0.00271259
5.90899e-05
-5.73516e-06
0.00276662
5.17518e-05
-4.6905e-06
0.00281429
4.47437e-05
-5.4871e-06
0.00285473
3.84895e-05
-4.8031e-06
0.00288982
3.33518e-05
-5.2853e-06
0.00291993
2.90483e-05
-4.8509e-06
0.00294728
2.59858e-05
-5.10855e-06
0.0029718
2.24634e-05
-4.86709e-06
0.00299485
2.07126e-05
-4.9788e-06
0.00301431
1.63648e-05
-4.8976e-06
0.00303302
1.69171e-05
-4.90699e-06
0.00304573
9.85221e-06
-4.94999e-06
0.00306199
1.56022e-05
-4.8931e-06
0.00306677
1.89969e-06
-4.97718e-06
1.78265e-05
-5.0717e-06
0.00308556
0.00237819
-1.91859e-10
-6.18907e-06
0.00243357
3.61126e-10
-8.15957e-06
0.00250195
-2.46985e-10
-5.70368e-06
0.00257533
9.59499e-10
-7.18746e-06
0.00264373
-3.396e-10
-5.63978e-06
0.00270656
1.57763e-09
-6.75014e-06
0.00276145
-6.40633e-10
-5.76453e-06
0.00281065
3.36221e-09
-6.49345e-06
0.00285328
2.53148e-10
-5.85454e-06
0.0028912
9.26443e-09
-6.28868e-06
0.00292448
3.28741e-09
-5.88809e-06
0.00295536
2.90998e-08
-6.10939e-06
0.00298337
7.75264e-09
-5.89287e-06
0.00301044
9.44478e-08
-5.97803e-06
0.00303364
1.86367e-08
-5.91688e-06
0.00305709
2.66161e-07
-5.90745e-06
0.0030735
1.09074e-07
-5.96966e-06
0.0030947
6.18365e-07
-5.89168e-06
0.00310227
5.87488e-07
-6.0565e-06
1.29416e-06
-6.09905e-06
0.00312486
0.00237819
-2.68074e-05
-6.18907e-06
0.00243357