/*--------------------------------*- C++ -*----------------------------------*\
  =========                 |
  \\      /  F ield         | OpenFOAM: The Open Source CFD Toolbox
   \\    /   O peration     | Website:  https://openfoam.org
    \\  /    A nd           | Version:  7
     \\/     M anipulation  |
\*---------------------------------------------------------------------------*/
FoamFile
{
    version     2.0;
    format      ascii;
    class       volScalarField;
    location    "3.25";
    object      T;
}
// * * * * * * * * * * * * * * * * * * * * * * * * * * * * * * * * * * * * * //

dimensions      [0 0 0 1 0 0 0];

internalField   nonuniform List<scalar> 
600
(
283.156
283.153
283.154
283.15
283.156
283.145
283.164
283.126
283.205
282.968
283.154
283.15
283.156
283.145
283.162
283.13
283.185
283.081
283.284
282.854
283.154
283.146
283.157
283.14
283.166
283.12
283.196
283.067
283.282
282.927
283.154
283.142
283.155
283.135
283.165
283.12
283.187
283.087
283.229
283.035
283.155
283.142
283.152
283.136
283.157
283.128
283.165
283.117
283.175
283.107
283.151
283.145
283.148
283.141
283.146
283.139
283.146
283.137
283.144
283.14
283.148
283.146
283.144
283.144
283.142
283.143
283.14
283.145
283.137
283.149
283.148
283.145
283.144
283.144
283.143
283.145
283.143
283.148
283.142
283.152
283.147
283.145
283.145
283.146
283.146
283.148
283.146
283.15
283.146
283.153
283.147
283.147
283.147
283.148
283.148
283.149
283.148
283.151
283.148
283.153
283.148
283.148
283.148
283.149
283.148
283.149
283.149
283.15
283.149
283.151
283.148
283.147
283.147
283.148
283.148
283.148
283.148
283.149
283.148
283.15
286.454
288.313
289.568
290.576
291.455
292.242
292.956
293.61
294.214
294.772
295.289
295.768
296.213
296.626
297.009
297.365
297.695
298.001
298.286
298.55
298.794
299.021
299.232
299.426
299.606
299.772
299.923
300.06
300.181
300.286
300.374
300.445
300.501
300.542
300.571
300.588
300.601
300.602
300.606
300.599
285.09
286.912
288.147
289.151
290.024
290.805
291.515
292.166
292.767
293.322
293.836
294.314
294.756
295.167
295.548
295.902
296.231
296.536
296.819
297.081
297.325
297.551
297.76
297.954
298.133
298.298
298.449
298.586
298.708
298.813
298.903
298.975
299.033
299.075
299.106
299.124
299.138
299.141
299.145
299.139
284.185
285.785
286.961
287.937
288.79
289.555
290.253
290.894
291.485
292.033
292.54
293.01
293.446
293.851
294.227
294.576
294.9
295.201
295.479
295.738
295.978
296.201
296.408
296.599
296.776
296.939
297.088
297.224
297.345
297.45
297.541
297.615
297.674
297.718
297.75
297.77
297.785
297.789
297.794
297.79
283.603
284.847
285.901
286.812
287.623
288.356
289.028
289.647
290.219
290.749
291.24
291.696
292.119
292.512
292.876
293.214
293.528
293.82
294.09
294.341
294.574
294.79
294.99
295.175
295.347
295.505
295.651
295.783
295.901
296.006
296.095
296.17
296.23
296.275
296.309
296.331
296.347
296.352
296.358
296.355
283.276
284.115
284.978
285.78
286.516
287.194
287.82
288.399
288.936
289.435
289.897
290.327
290.725
291.095
291.439
291.757
292.053
292.328
292.583
292.819
293.038
293.242
293.43
293.605
293.767
293.916
294.054
294.179
294.292
294.392
294.479
294.551
294.61
294.656
294.69
294.713
294.73
294.737
294.743
294.741
283.132
283.602
284.232
284.882
285.507
286.098
286.652
287.169
287.65
288.098
288.514
288.9
289.259
289.592
289.901
290.188
290.454
290.702
290.931
291.144
291.341
291.524
291.694
291.852
291.997
292.132
292.256
292.37
292.472
292.564
292.643
292.711
292.766
292.809
292.842
292.864
292.881
292.889
292.895
292.895
283.106
283.319
283.725
284.205
284.699
285.181
285.64
286.074
286.48
286.858
287.211
287.539
287.843
288.126
288.389
288.633
288.859
289.069
289.263
289.444
289.612
289.767
289.911
290.045
290.168
290.283
290.388
290.485
290.573
290.651
290.72
290.778
290.827
290.865
290.894
290.914
290.929
290.937
290.943
290.943
283.119
283.203
283.449
283.786
284.156
284.53
284.894
285.239
285.564
285.869
286.153
286.417
286.662
286.89
287.102
287.298
287.481
287.65
287.807
287.953
288.088
288.213
288.329
288.437
288.537
288.629
288.714
288.792
288.863
288.927
288.983
289.03
289.07
289.101
289.125
289.142
289.154
289.161
289.166
289.167
283.131
283.162
283.313
283.546
283.816
284.096
284.371
284.635
284.884
285.118
285.336
285.539
285.728
285.904
286.067
286.218
286.358
286.489
286.61
286.722
286.826
286.922
287.012
287.095
287.171
287.242
287.308
287.368
287.423
287.472
287.515
287.552
287.582
287.606
287.625
287.638
287.647
287.653
287.656
287.657
283.138
283.15
283.243
283.4
283.587
283.785
283.982
284.171
284.35
284.518
284.675
284.821
284.957
285.083
285.201
285.31
285.411
285.505
285.592
285.672
285.747
285.817
285.881
285.941
285.996
286.047
286.094
286.137
286.177
286.212
286.243
286.269
286.291
286.308
286.322
286.331
286.338
286.341
286.344
286.345
283.143
283.148
283.202
283.297
283.412
283.535
283.658
283.776
283.888
283.993
284.091
284.183
284.268
284.347
284.421
284.489
284.552
284.611
284.665
284.716
284.763
284.806
284.847
284.884
284.919
284.951
284.98
285.007
285.032
285.054
285.073
285.09
285.103
285.114
285.122
285.128
285.132
285.134
285.136
285.136
283.147
283.149
283.168
283.202
283.243
283.286
283.329
283.371
283.411
283.448
283.483
283.515
283.546
283.574
283.6
283.624
283.646
283.667
283.687
283.704
283.721
283.737
283.751
283.764
283.776
283.788
283.798
283.808
283.817
283.824
283.831
283.837
283.842
283.845
283.848
283.85
283.852
283.853
283.853
283.853
)
;

boundaryField
{
    upperWall
    {
        type            fixedValue;
        value           uniform 283.15;
    }
    lowerWall
    {
        type            fixedValue;
        value           uniform 283.15;
    }
    heatedWall
    {
        type            externalWallHeatFluxTemperature;
        mode            power;
        kappaMethod     fluidThermo;
        kappa           none;
        alphaAni        Anialpha;
        Q               5040;
        qr              none;
        refValue        nonuniform List<scalar> 
40
(
287.321
289.124
290.384
291.387
292.267
293.054
293.768
294.423
295.027
295.585
296.102
296.582
297.027
297.44
297.823
298.179
298.509
298.816
299.1
299.364
299.609
299.836
300.046
300.241
300.421
300.587
300.738
300.875
300.996
301.101
301.189
301.26
301.316
301.357
301.386
301.403
301.415
301.416
301.42
301.412
)
;
        refGradient     nonuniform List<scalar> 
40
(
104.072
97.2654
97.8602
97.3381
97.3852
97.4248
97.4566
97.4909
97.5213
97.549
97.5745
97.5981
97.62
97.6404
97.6593
97.6769
97.6932
97.7084
97.7225
97.7356
97.7478
97.759
97.7694
97.779
97.7877
97.7955
97.8022
97.8073
97.8106
97.8111
97.8092
97.8031
97.795
97.781
97.7681
97.7456
97.7324
97.6992
97.6925
97.6423
)
;
        valueFraction   uniform 0;
        value           nonuniform List<scalar> 
40
(
287.321
289.124
290.384
291.387
292.267
293.054
293.768
294.423
295.027
295.585
296.102
296.582
297.027
297.44
297.823
298.179
298.509
298.816
299.1
299.364
299.609
299.836
300.046
300.241
300.421
300.587
300.738
300.875
300.996
301.101
301.189
301.26
301.316
301.357
301.386
301.403
301.415
301.416
301.42
301.412
)
;
    }
    inlet
    {
        type            fixedValue;
        value           uniform 283.15;
    }
    outlet
    {
        type            inletOutlet;
        inletValue      uniform 283.15;
        value           nonuniform List<scalar> 
12
(
300.599
299.139
297.79
296.355
294.741
292.895
290.943
289.167
287.657
286.345
285.136
283.853
)
;
    }
    frontAndBack
    {
        type            empty;
    }
}


// ************************************************************************* //
