/*--------------------------------*- C++ -*----------------------------------*\
  =========                 |
  \\      /  F ield         | OpenFOAM: The Open Source CFD Toolbox
   \\    /   O peration     | Website:  https://openfoam.org
    \\  /    A nd           | Version:  7
     \\/     M anipulation  |
\*---------------------------------------------------------------------------*/
FoamFile
{
    version     2.0;
    format      ascii;
    class       volVectorField;
    location    "0.25";
    object      U;
}
// * * * * * * * * * * * * * * * * * * * * * * * * * * * * * * * * * * * * * //

dimensions      [0 1 -1 0 0 0 0];

internalField   nonuniform List<vector> 
1800
(
(4.44073 0.133895 0)
(3.84149 0.245027 0)
(3.14413 0.200579 0)
(2.56381 0.117076 0)
(2.13997 0.0489017 0)
(1.86215 0.00784404 0)
(1.6858 -0.0111245 0)
(1.57599 -0.018007 0)
(1.50716 -0.0184303 0)
(1.46074 -0.0156052 0)
(1.42638 -0.0122909 0)
(1.39846 -0.00932187 0)
(1.37408 -0.0069411 0)
(1.35189 -0.00523069 0)
(1.3314 -0.00409085 0)
(1.31232 -0.00334914 0)
(1.29445 -0.00271193 0)
(1.27728 -0.00208952 0)
(1.26076 -0.00149996 0)
(1.24493 -0.00103116 0)
(1.23052 -0.000787823 0)
(1.21817 -0.000888022 0)
(1.20777 -0.00114845 0)
(1.20027 -0.00165109 0)
(1.19298 -0.00187823 0)
(1.18933 -0.00225774 0)
(1.18282 -0.0022579 0)
(1.18154 -0.00323354 0)
(1.18114 -0.00937067 0)
(1.20623 -0.0127468 0)
(4.53417 0.137821 0)
(4.67205 0.277952 0)
(4.72485 0.318289 0)
(4.6638 0.292576 0)
(4.5284 0.234457 0)
(4.36925 0.172924 0)
(4.21226 0.122351 0)
(4.06958 0.0855401 0)
(3.94465 0.0606514 0)
(3.83548 0.0444876 0)
(3.7397 0.0341561 0)
(3.6557 0.0273892 0)
(3.5821 0.0227363 0)
(3.51727 0.0193621 0)
(3.45978 0.0167727 0)
(3.4083 0.0147791 0)
(3.362 0.0131831 0)
(3.31972 0.0119393 0)
(3.2812 0.0107317 0)
(3.24624 0.00928831 0)
(3.21543 0.00744708 0)
(3.19001 0.00553426 0)
(3.16835 0.00366122 0)
(3.15365 0.00230338 0)
(3.13788 0.00114138 0)
(3.13136 0.000498353 0)
(3.11435 -0.000392348 0)
(3.11647 -0.00131075 0)
(3.08523 -0.00812761 0)
(3.11708 -0.0173491 0)
(4.50915 0.0636269 0)
(4.62317 0.172771 0)
(4.80672 0.219654 0)
(4.97814 0.216442 0)
(5.09642 0.184911 0)
(5.16228 0.147346 0)
(5.18761 0.115293 0)
(5.1867 0.0912305 0)
(5.17099 0.0749666 0)
(5.14642 0.0641455 0)
(5.11583 0.0569222 0)
(5.0813 0.0515434 0)
(5.04504 0.0468838 0)
(5.00866 0.0425274 0)
(4.97299 0.0383526 0)
(4.93788 0.034606 0)
(4.90339 0.0313052 0)
(4.86971 0.0285968 0)
(4.83727 0.0259897 0)
(4.80622 0.0232295 0)
(4.77611 0.0193439 0)
(4.74897 0.0152389 0)
(4.72285 0.0102916 0)
(4.70392 0.00691143 0)
(4.68363 0.00287365 0)
(4.67583 0.00257958 0)
(4.65541 -0.00147536 0)
(4.66025 0.00177523 0)
(4.62181 -0.00921671 0)
(4.65493 -0.00258532 0)
(4.50909 0.055167 0)
(4.59048 0.134902 0)
(4.7421 0.16366 0)
(4.91493 0.162426 0)
(5.06899 0.145039 0)
(5.19236 0.122504 0)
(5.2842 0.101414 0)
(5.35151 0.0843847 0)
(5.40294 0.0720773 0)
(5.44442 0.063726 0)
(5.47908 0.0580723 0)
(5.50828 0.0539378 0)
(5.5329 0.0505189 0)
(5.55342 0.0474509 0)
(5.57024 0.0445343 0)
(5.58356 0.0417298 0)
(5.59397 0.0390981 0)
(5.60195 0.0368383 0)
(5.60801 0.034393 0)
(5.61212 0.0317569 0)
(5.61363 0.0279784 0)
(5.6128 0.023976 0)
(5.60853 0.0187801 0)
(5.60374 0.0147392 0)
(5.59586 0.00947784 0)
(5.59161 0.00774417 0)
(5.58144 0.00267241 0)
(5.58107 0.0046099 0)
(5.56076 -0.00280011 0)
(5.56745 0.00447292 0)
(4.50868 0.0254463 0)
(4.58128 0.0687851 0)
(4.71889 0.0869728 0)
(4.87901 0.0871387 0)
(5.02481 0.0764757 0)
(5.14636 0.0622018 0)
(5.24182 0.049225 0)
(5.31615 0.0390802 0)
(5.37672 0.0319305 0)
(5.42915 0.0276555 0)
(5.47666 0.0252734 0)
(5.5207 0.0237139 0)
(5.56166 0.022388 0)
(5.59952 0.0212215 0)
(5.63448 0.0202158 0)
(5.66672 0.0193471 0)
(5.69657 0.0184225 0)
(5.72429 0.0176432 0)
(5.75037 0.01681 0)
(5.77442 0.0160444 0)
(5.79599 0.0144113 0)
(5.81367 0.0123671 0)
(5.82683 0.0091601 0)
(5.83467 0.00654572 0)
(5.83835 0.00321519 0)
(5.83784 0.00237681 0)
(5.83593 -0.000227499 0)
(5.83079 0.00186076 0)
(5.82576 -0.00145535 0)
(5.81688 0.00619313 0)
(4.50841 0.0102828 0)
(4.57525 0.0274373 0)
(4.70566 0.0344685 0)
(4.86119 0.0347381 0)
(5.00448 0.0315141 0)
(5.12496 0.0274352 0)
(5.22002 0.0239774 0)
(5.29415 0.0212644 0)
(5.35468 0.0192293 0)
(5.40718 0.0177385 0)
(5.45488 0.0166163 0)
(5.49919 0.0157001 0)
(5.54046 0.0148513 0)
(5.57873 0.014034 0)
(5.61438 0.013228 0)
(5.64776 0.0124471 0)
(5.67912 0.0116716 0)
(5.70846 0.0109876 0)
(5.73634 0.0102731 0)
(5.76262 0.00958596 0)
(5.78716 0.00865715 0)
(5.80811 0.00764754 0)
(5.82437 0.0063553 0)
(5.83416 0.005223 0)
(5.83897 0.00395407 0)
(5.83836 0.00334553 0)
(5.83691 0.00244542 0)
(5.83181 0.00272294 0)
(5.82962 0.00218921 0)
(5.82253 0.00358649 0)
(4.50841 -0.01036 0)
(4.57525 -0.0275028 0)
(4.70567 -0.0345122 0)
(4.8612 -0.0347547 0)
(5.00448 -0.0315025 0)
(5.12496 -0.0273997 0)
(5.22002 -0.0239253 0)
(5.29415 -0.0212029 0)
(5.35468 -0.019166 0)
(5.40718 -0.0176759 0)
(5.45488 -0.0165584 0)
(5.49919 -0.0156423 0)
(5.54046 -0.0147957 0)
(5.57873 -0.0139696 0)
(5.61439 -0.0131645 0)
(5.64776 -0.0123672 0)
(5.67912 -0.0116039 0)
(5.70846 -0.0108953 0)
(5.73634 -0.0102071 0)
(5.76262 -0.0094671 0)
(5.78717 -0.00854613 0)
(5.80812 -0.00742448 0)
(5.82439 -0.00608287 0)
(5.83418 -0.00472274 0)
(5.839 -0.00336046 0)
(5.83838 -0.00228099 0)
(5.83693 -0.00130332 0)
(5.8319 -0.000671014 0)
(5.82973 -0.00021528 0)
(5.82274 6.18578e-05 0)
(4.50868 -0.0255184 0)
(4.58129 -0.068846 0)
(4.7189 -0.0870135 0)
(4.87903 -0.0871542 0)
(5.02483 -0.0764648 0)
(5.14638 -0.0621687 0)
(5.24183 -0.0491765 0)
(5.31615 -0.039023 0)
(5.37672 -0.0318713 0)
(5.42915 -0.0275971 0)
(5.47666 -0.0252193 0)
(5.5207 -0.0236598 0)
(5.56166 -0.0223357 0)
(5.59952 -0.0211607 0)
(5.63448 -0.0201552 0)
(5.66672 -0.0192708 0)
(5.69657 -0.018356 0)
(5.7243 -0.0175535 0)
(5.75038 -0.0167422 0)
(5.77445 -0.0159264 0)
(5.79602 -0.0142994 0)
(5.81376 -0.0121455 0)
(5.82693 -0.00888998 0)
(5.83486 -0.0060512 0)
(5.83857 -0.00263776 0)
(5.83823 -0.00133666 0)
(5.83633 0.00132298 0)
(5.83143 0.000168009 0)
(5.82636 0.00337426 0)
(5.81842 -0.00239352 0)
(4.50909 -0.0552292 0)
(4.59049 -0.134954 0)
(4.74212 -0.163695 0)
(4.91496 -0.16244 0)
(5.06902 -0.14503 0)
(5.19238 -0.122476 0)
(5.28421 -0.101373 0)
(5.35151 -0.0843353 0)
(5.40294 -0.0720266 0)
(5.44442 -0.0636753 0)
(5.47907 -0.0580257 0)
(5.50829 -0.0538905 0)
(5.5329 -0.0504733 0)
(5.55344 -0.0473977 0)
(5.57024 -0.0444804 0)
(5.58359 -0.0416632 0)
(5.59397 -0.0390371 0)
(5.60201 -0.0367593 0)
(5.60802 -0.0343278 0)
(5.61226 -0.03165 0)
(5.61372 -0.027869 0)
(5.6131 -0.0237732 0)
(5.6088 -0.0185242 0)
(5.60435 -0.0142936 0)
(5.59642 -0.00893421 0)
(5.59278 -0.00681531 0)
(5.58249 -0.00169767 0)
(5.5834 -0.00284168 0)
(5.56284 0.00453285 0)
(5.57215 -0.00146185 0)
(4.50916 -0.0636745 0)
(4.6232 -0.172811 0)
(4.80675 -0.219682 0)
(4.97818 -0.216452 0)
(5.09645 -0.184904 0)
(5.16231 -0.147324 0)
(5.18762 -0.115261 0)
(5.18671 -0.0911924 0)
(5.17099 -0.0749277 0)
(5.14642 -0.0641064 0)
(5.11582 -0.0568864 0)
(5.08131 -0.0515066 0)
(5.04504 -0.0468488 0)
(5.00869 -0.0424859 0)
(4.97299 -0.0383114 0)
(4.93795 -0.0345531 0)
(4.90339 -0.031259 0)
(4.86986 -0.0285315 0)
(4.83729 -0.0259418 0)
(4.80653 -0.0231374 0)
(4.77625 -0.0192663 0)
(4.74959 -0.0150637 0)
(4.72325 -0.0101123 0)
(4.70513 -0.00651363 0)
(4.6845 -0.00250158 0)
(4.67815 -0.00173024 0)
(4.65706 0.00213283 0)
(4.66465 -3.39973e-05 0)
(4.62484 0.0100046 0)
(4.66347 0.00585364 0)
(4.53418 -0.137852 0)
(4.67207 -0.277975 0)
(4.72488 -0.318307 0)
(4.66384 -0.292583 0)
(4.52844 -0.234452 0)
(4.36928 -0.17291 0)
(4.21228 -0.12233 0)
(4.06959 -0.0855161 0)
(3.94466 -0.0606265 0)
(3.83548 -0.0444633 0)
(3.7397 -0.0341331 0)
(3.65571 -0.027367 0)
(3.5821 -0.0227135 0)
(3.51731 -0.0193377 0)
(3.4598 -0.0167456 0)
(3.40839 -0.0147484 0)
(3.36202 -0.013153 0)
(3.3199 -0.0119027 0)
(3.28123 -0.0107008 0)
(3.24664 -0.00923969 0)
(3.21557 -0.00739875 0)
(3.19083 -0.00543617 0)
(3.16876 -0.00356066 0)
(3.1552 -0.00207202 0)
(3.13883 -0.000980895 0)
(3.13417 -3.01387e-05 0)
(3.11624 0.00060423 0)
(3.12171 0.00221091 0)
(3.08913 0.00832667 0)
(3.12747 0.0170723 0)
(4.44074 -0.133906 0)
(3.84152 -0.245034 0)
(3.14417 -0.200585 0)
(2.56385 -0.117078 0)
(2.14001 -0.0488997 0)
(1.86219 -0.00783896 0)
(1.68582 0.0111316 0)
(1.576 0.0180151 0)
(1.50716 0.0184388 0)
(1.46074 0.0156134 0)
(1.42638 0.0122986 0)
(1.39847 0.00932908 0)
(1.37409 0.00694868 0)
(1.35191 0.00523796 0)
(1.33142 0.00409989 0)
(1.31238 0.00335723 0)
(1.29448 0.00272098 0)
(1.27739 0.00209818 0)
(1.26081 0.0015058 0)
(1.2452 0.00104272 0)
(1.23068 0.000791869 0)
(1.21877 0.000910911 0)
(1.20816 0.00116294 0)
(1.20147 0.00170533 0)
(1.19378 0.00190713 0)
(1.19143 0.00235103 0)
(1.18437 0.00227148 0)
(1.18506 0.00325145 0)
(1.18346 0.00891478 0)
(1.21135 0.00947105 0)
(1.27102 -0.00685063 0)
(1.30839 -0.00209237 0)
(1.25542 -0.00227093 0)
(1.20066 -0.00214914 0)
(1.13571 -0.00172842 0)
(1.06017 -0.00148818 0)
(0.978301 -0.00147127 0)
(0.892991 -0.00142366 0)
(0.804895 -0.00133205 0)
(0.713612 -0.00123804 0)
(0.619355 -0.00111938 0)
(0.52332 -0.00100212 0)
(0.42735 -0.000858394 0)
(0.333932 -0.000716364 0)
(0.245417 -0.000611221 0)
(0.163525 -0.00055108 0)
(0.0896386 -0.000390388 0)
(0.0242182 -0.000264315 0)
(-0.03364 -0.000204829 0)
(-0.0846331 -0.00014034 0)
(-0.128833 -8.37741e-05 0)
(-0.166466 -4.03116e-05 0)
(-0.197862 3.9629e-06 0)
(-0.223565 3.99989e-05 0)
(-0.244556 6.46814e-05 0)
(-0.26193 9.33847e-05 0)
(-0.276544 0.00011892 0)
(-0.288928 0.000135438 0)
(-0.299328 0.000152404 0)
(-0.307934 0.000168681 0)
(-0.315099 0.000181798 0)
(-0.321251 0.000193906 0)
(-0.32678 0.000206356 0)
(-0.331907 0.000217067 0)
(-0.336593 0.000228343 0)
(-0.340762 0.00023985 0)
(-0.34448 0.00024875 0)
(-0.347922 0.0002558 0)
(-0.351292 0.000267665 0)
(-0.35466 0.000275667 0)
(-0.357912 0.000285979 0)
(-0.360874 0.000296667 0)
(-0.363566 0.000302891 0)
(-0.36613 0.00031097 0)
(-0.368744 0.000322489 0)
(-0.371469 0.000329284 0)
(-0.374101 0.000337698 0)
(-0.376433 0.000346667 0)
(-0.378464 0.000354099 0)
(-0.380427 0.000363325 0)
(-0.382556 0.000372514 0)
(-0.384839 0.000378315 0)
(-0.386954 0.000387658 0)
(-0.388705 0.000395197 0)
(-0.390213 0.000403915 0)
(-0.391766 0.000412464 0)
(-0.393574 0.000420636 0)
(-0.395423 0.000427543 0)
(-0.397009 0.000436318 0)
(-0.398265 0.000442193 0)
(-0.399388 0.000450705 0)
(-0.400684 0.000460171 0)
(-0.402162 0.000468257 0)
(-0.403559 0.000475819 0)
(-0.404651 0.000482594 0)
(-0.405516 0.000491024 0)
(-0.406398 0.000499474 0)
(-0.407464 0.000506057 0)
(-0.408578 0.000513758 0)
(-0.409508 0.000521518 0)
(-0.410212 0.00052961 0)
(-0.410842 0.000536236 0)
(-0.411569 0.000543974 0)
(-0.412386 0.000551732 0)
(-0.413164 0.000559745 0)
(-0.413749 0.000566802 0)
(-0.414219 0.000574977 0)
(-0.414717 0.000582294 0)
(-0.415302 0.000590255 0)
(-0.415879 0.000598188 0)
(-0.41633 0.000605135 0)
(-0.416692 0.000612401 0)
(-0.41707 0.000621194 0)
(-0.417479 0.000628425 0)
(-0.417845 0.000635031 0)
(-0.418144 0.000643119 0)
(-0.418409 0.000650273 0)
(-0.418693 0.0006581 0)
(-0.418943 0.000667043 0)
(-0.419104 0.00067381 0)
(-0.419273 0.000681785 0)
(-0.419462 0.000689082 0)
(-0.419643 0.000697255 0)
(-0.419717 0.000704823 0)
(-0.419746 0.000712842 0)
(-0.419795 0.000720905 0)
(-0.419834 0.000729056 0)
(-0.419752 0.000736662 0)
(-0.41963 0.000744701 0)
(-0.419507 0.000752395 0)
(-0.419338 0.000759954 0)
(-0.419051 0.000768263 0)
(-0.418697 0.000776091 0)
(-0.41836 0.00078375 0)
(-0.417948 0.000792671 0)
(-0.417379 0.000800423 0)
(-0.416772 0.000808273 0)
(-0.416204 0.000815701 0)
(-0.415633 0.00082459 0)
(-0.414834 0.000830875 0)
(-0.414065 0.000839764 0)
(-0.41321 0.000846122 0)
(-0.412581 0.00085692 0)
(-0.411545 0.000859336 0)
(-0.410761 0.00087188 0)
(-0.409567 0.000874301 0)
(-0.409056 0.00088852 0)
(-0.407506 0.000908833 0)
(-0.407576 0.00128059 0)
(-0.414594 0.00176717 0)
(2.96656 -0.0117821 0)
(2.92191 0.000689017 0)
(2.80554 0.00454689 0)
(2.69149 0.00290655 0)
(2.57693 0.00243412 0)
(2.45802 0.0021547 0)
(2.33882 0.00140443 0)
(2.22229 0.000557465 0)
(2.10768 -1.42215e-05 0)
(1.99305 -0.000280492 0)
(1.87754 -0.000299156 0)
(1.76181 -0.000202017 0)
(1.64749 -6.85159e-05 0)
(1.53699 7.11791e-05 0)
(1.43261 0.000157028 0)
(1.33597 0.00019503 0)
(1.24835 0.00035889 0)
(1.17008 0.000486178 0)
(1.10021 0.000522278 0)
(1.03792 0.000577863 0)
(0.983033 0.000626399 0)
(0.935229 0.000654227 0)
(0.894079 0.000695553 0)
(0.859001 0.000726071 0)
(0.828957 0.000733976 0)
(0.802804 0.000761833 0)
(0.779651 0.000791048 0)
(0.758917 0.000799205 0)
(0.740335 0.000810909 0)
(0.723712 0.000827245 0)
(0.708662 0.000836548 0)
(0.694757 0.000844459 0)
(0.681602 0.000857366 0)
(0.66895 0.000864767 0)
(0.656845 0.00087393 0)
(0.64537 0.00088745 0)
(0.634438 0.000893564 0)
(0.623881 0.000893849 0)
(0.613498 0.000909693 0)
(0.60321 0.000915782 0)
(0.593118 0.000927116 0)
(0.583411 0.000939995 0)
(0.574069 0.000941517 0)
(0.564942 0.000947666 0)
(0.55586 0.000964524 0)
(0.546754 0.000967653 0)
(0.537834 0.000977993 0)
(0.529283 0.000987777 0)
(0.521125 0.000992471 0)
(0.513129 0.00100342 0)
(0.505057 0.00101538 0)
(0.496913 0.00101745 0)
(0.489021 0.00103015 0)
(0.481574 0.00103734 0)
(0.474457 0.00104721 0)
(0.46739 0.00105885 0)
(0.460139 0.00106731 0)
(0.452942 0.00107311 0)
(0.446088 0.0010852 0)
(0.439646 0.00108778 0)
(0.433433 0.00109928 0)
(0.427119 0.00111194 0)
(0.42072 0.00112165 0)
(0.414483 0.00113067 0)
(0.408635 0.00113735 0)
(0.403094 0.00114786 0)
(0.397624 0.00115863 0)
(0.392059 0.00116433 0)
(0.386532 0.00117384 0)
(0.38127 0.0011837 0)
(0.376311 0.00119374 0)
(0.371519 0.00119979 0)
(0.366713 0.00120888 0)
(0.36191 0.00121968 0)
(0.357212 0.00122955 0)
(0.352805 0.00123732 0)
(0.348592 0.00124865 0)
(0.344438 0.00125659 0)
(0.340283 0.00126769 0)
(0.336217 0.00127801 0)
(0.332365 0.00128564 0)
(0.328685 0.00129475 0)
(0.325069 0.00130711 0)
(0.321515 0.00131525 0)
(0.318094 0.00132317 0)
(0.31481 0.0013334 0)
(0.31166 0.00134154 0)
(0.308575 0.00135248 0)
(0.305605 0.00136474 0)
(0.302826 0.00137393 0)
(0.3001 0.0013835 0)
(0.297467 0.00139177 0)
(0.294919 0.00140368 0)
(0.29257 0.00141296 0)
(0.290354 0.00142331 0)
(0.288211 0.00143465 0)
(0.286164 0.00144526 0)
(0.284335 0.00145523 0)
(0.282627 0.00146582 0)
(0.281021 0.001475 0)
(0.279551 0.00148428 0)
(0.278292 0.00149556 0)
(0.277194 0.00150552 0)
(0.276175 0.00151451 0)
(0.275324 0.00152684 0)
(0.274734 0.00153736 0)
(0.27426 0.00154742 0)
(0.273855 0.00155601 0)
(0.273519 0.00156515 0)
(0.27359 0.00157436 0)
(0.2736 0.00158563 0)
(0.273923 0.00159244 0)
(0.273943 0.00160409 0)
(0.274734 0.0016039 0)
(0.275001 0.00161897 0)
(0.276255 0.00161964 0)
(0.276314 0.00162934 0)
(0.278376 0.00164692 0)
(0.278215 0.00217856 0)
(0.282063 0.00259305 0)
(4.43641 0.0175126 0)
(4.31113 0.0127892 0)
(4.16905 0.0136229 0)
(4.03845 0.0104083 0)
(3.91419 0.00854712 0)
(3.78893 0.00706083 0)
(3.66477 0.00514767 0)
(3.54409 0.00312186 0)
(3.42592 0.00169481 0)
(3.30816 0.000971304 0)
(3.18981 0.000765487 0)
(3.07141 0.000827749 0)
(2.95452 0.0009214 0)
(2.84153 0.00102187 0)
(2.73472 0.00107766 0)
(2.6357 0.0011277 0)
(2.54575 0.00122297 0)
(2.46517 0.00130391 0)
(2.39303 0.00132086 0)
(2.3285 0.00136291 0)
(2.27139 0.00139718 0)
(2.2214 0.00140406 0)
(2.17807 0.00143625 0)
(2.14083 0.0014545 0)
(2.10864 0.00144015 0)
(2.08035 0.00145971 0)
(2.05509 0.00148609 0)
(2.03225 0.0014813 0)
(2.0116 0.00148153 0)
(1.99291 0.00149142 0)
(1.97581 0.00149164 0)
(1.95988 0.00148937 0)
(1.94471 0.00149689 0)
(1.93006 0.00149554 0)
(1.91599 0.00149606 0)
(1.90256 0.00150509 0)
(1.8897 0.00150319 0)
(1.87723 0.00149104 0)
(1.86496 0.00150402 0)
(1.85281 0.00150251 0)
(1.84087 0.00150871 0)
(1.82934 0.00151706 0)
(1.8182 0.00150838 0)
(1.8073 0.00150663 0)
(1.79647 0.0015219 0)
(1.78564 0.00151499 0)
(1.77502 0.00152138 0)
(1.76479 0.0015263 0)
(1.75498 0.00152222 0)
(1.74536 0.00152794 0)
(1.73569 0.00153601 0)
(1.72598 0.00152839 0)
(1.71654 0.00153809 0)
(1.70757 0.00153897 0)
(1.69895 0.0015434 0)
(1.69041 0.00155167 0)
(1.68172 0.00155382 0)
(1.67311 0.00155173 0)
(1.66487 0.00156065 0)
(1.65706 0.001554 0)
(1.64951 0.00156191 0)
(1.64188 0.00157078 0)
(1.6342 0.00157472 0)
(1.62671 0.0015785 0)
(1.61964 0.00157904 0)
(1.6129 0.00158508 0)
(1.60625 0.00159105 0)
(1.59954 0.00158891 0)
(1.5929 0.00159331 0)
(1.58654 0.00159872 0)
(1.58052 0.00160402 0)
(1.57469 0.00160259 0)
(1.56888 0.00160575 0)
(1.5631 0.00161273 0)
(1.55744 0.00161765 0)
(1.55211 0.00161901 0)
(1.547 0.0016264 0)
(1.54198 0.00162787 0)
(1.53699 0.00163489 0)
(1.53211 0.00164027 0)
(1.52747 0.00164158 0)
(1.52304 0.00164551 0)
(1.5187 0.00165381 0)
(1.51445 0.00165523 0)
(1.51036 0.00165747 0)
(1.50643 0.00166259 0)
(1.50267 0.00166382 0)
(1.49901 0.00167035 0)
(1.49549 0.00167813 0)
(1.49219 0.00168234 0)
(1.48898 0.00168586 0)
(1.48588 0.00168699 0)
(1.48291 0.00169478 0)
(1.48016 0.00169792 0)
(1.47757 0.0017025 0)
(1.47509 0.00170899 0)
(1.47274 0.00171388 0)
(1.47063 0.00171822 0)
(1.46868 0.00172303 0)
(1.46686 0.00172533 0)
(1.46521 0.00172815 0)
(1.4638 0.00173395 0)
(1.46258 0.00173738 0)
(1.46148 0.00173927 0)
(1.46056 0.00174631 0)
(1.45995 0.00175122 0)
(1.45947 0.00175503 0)
(1.45911 0.00175696 0)
(1.45882 0.00175568 0)
(1.45901 0.00176059 0)
(1.45912 0.00176644 0)
(1.45961 0.00176685 0)
(1.45976 0.00176742 0)
(1.4608 0.00176154 0)
(1.46121 0.00176725 0)
(1.46281 0.00176414 0)
(1.46299 0.00175596 0)
(1.46545 0.00176643 0)
(1.4654 0.00211418 0)
(1.47079 0.00206119 0)
(5.47199 0.0327544 0)
(5.39989 0.0277318 0)
(5.27888 0.0253085 0)
(5.16392 0.0181682 0)
(5.05612 0.0140887 0)
(4.94687 0.0114645 0)
(4.83558 0.00854469 0)
(4.72356 0.00562752 0)
(4.6107 0.00356017 0)
(4.49642 0.00246984 0)
(4.38091 0.00209435 0)
(4.26519 0.00209136 0)
(4.15097 0.00213368 0)
(4.04061 0.00218515 0)
(3.93638 0.00219108 0)
(3.83991 0.00220974 0)
(3.75243 0.00225518 0)
(3.6743 0.00230523 0)
(3.60454 0.00228415 0)
(3.54236 0.00230173 0)
(3.48757 0.00231242 0)
(3.43984 0.00229116 0)
(3.39875 0.00230531 0)
(3.36369 0.00230517 0)
(3.33365 0.00226437 0)
(3.30748 0.00226897 0)
(3.28428 0.00228582 0)
(3.26349 0.00226351 0)
(3.24484 0.00224871 0)
(3.22812 0.00224814 0)
(3.21296 0.00223527 0)
(3.19893 0.00221951 0)
(3.18563 0.00221758 0)
(3.17283 0.00220369 0)
(3.16056 0.00219254 0)
(3.14892 0.00219353 0)
(3.1378 0.00218035 0)
(3.12706 0.0021531 0)
(3.11648 0.00215909 0)
(3.106 0.00214668 0)
(3.09571 0.0021441 0)
(3.0858 0.00214453 0)
(3.07625 0.00212293 0)
(3.06693 0.00211 0)
(3.05764 0.00211923 0)
(3.04834 0.00209964 0)
(3.03923 0.00209859 0)
(3.03049 0.00209517 0)
(3.02215 0.00207977 0)
(3.01397 0.00207664 0)
(3.00573 0.002077 0)
(2.99743 0.00205721 0)
(2.98939 0.00206057 0)
(2.98179 0.00205223 0)
(2.97454 0.00204815 0)
(2.96734 0.00204931 0)
(2.95998 0.00204228 0)
(2.95268 0.0020301 0)
(2.94574 0.00203284 0)
(2.93921 0.00201512 0)
(2.93293 0.00201609 0)
(2.92657 0.00201831 0)
(2.92013 0.00201398 0)
(2.91388 0.0020101 0)
(2.90802 0.00200244 0)
(2.90248 0.00200166 0)
(2.89703 0.00200041 0)
(2.8915 0.00198855 0)
(2.88602 0.00198571 0)
(2.88083 0.00198463 0)
(2.87595 0.00198335 0)
(2.87125 0.00197278 0)
(2.86656 0.00196806 0)
(2.86189 0.00196903 0)
(2.85734 0.00196763 0)
(2.8531 0.00196125 0)
(2.84908 0.00196251 0)
(2.84513 0.00195621 0)
(2.8412 0.00195762 0)
(2.83738 0.0019565 0)
(2.83379 0.00195047 0)
(2.83039 0.00194786 0)
(2.82708 0.0019507 0)
(2.82385 0.00194451 0)
(2.82077 0.00193975 0)
(2.81786 0.00193914 0)
(2.8151 0.00193266 0)
(2.81243 0.00193331 0)
(2.80989 0.00193612 0)
(2.80756 0.0019342 0)
(2.80532 0.00193117 0)
(2.80319 0.0019248 0)
(2.80117 0.00192751 0)
(2.79937 0.00192402 0)
(2.79773 0.00192248 0)
(2.79618 0.00192347 0)
(2.79476 0.00192222 0)
(2.79357 0.0019207 0)
(2.79254 0.0019195 0)
(2.79162 0.00191486 0)
(2.79088 0.00191115 0)
(2.79036 0.00191148 0)
(2.79003 0.00190814 0)
(2.78981 0.00190309 0)
(2.78976 0.00190521 0)
(2.79002 0.00190447 0)
(2.7904 0.00190202 0)
(2.7909 0.00189827 0)
(2.79144 0.00188786 0)
(2.79247 0.00188788 0)
(2.79339 0.00188918 0)
(2.7947 0.0018841 0)
(2.79564 0.0018744 0)
(2.79749 0.00186468 0)
(2.79863 0.00186144 0)
(2.80103 0.00185713 0)
(2.80187 0.00183552 0)
(2.80506 0.00184173 0)
(2.80563 0.00213714 0)
(2.81208 0.00206735 0)
(5.81798 0.0301807 0)
(5.92414 0.0302034 0)
(5.9558 0.0294995 0)
(5.93729 0.0228602 0)
(5.89262 0.0173854 0)
(5.82938 0.0135421 0)
(5.75129 0.00992565 0)
(5.66083 0.00658975 0)
(5.56062 0.00425191 0)
(5.45384 0.00300219 0)
(5.3437 0.00254174 0)
(5.23281 0.00251084 0)
(5.12336 0.00252038 0)
(5.01778 0.00253891 0)
(4.9183 0.0025141 0)
(4.82653 0.00252093 0)
(4.7437 0.00251702 0)
(4.67016 0.00255368 0)
(4.60495 0.00250394 0)
(4.54729 0.00250775 0)
(4.49695 0.00250472 0)
(4.45364 0.00246764 0)
(4.41693 0.00247352 0)
(4.38619 0.0024655 0)
(4.36042 0.00241092 0)
(4.33848 0.00240944 0)
(4.31947 0.00242508 0)
(4.30282 0.00239664 0)
(4.28827 0.00237718 0)
(4.27561 0.00237518 0)
(4.26445 0.00235916 0)
(4.25438 0.00233991 0)
(4.245 0.00233771 0)
(4.23607 0.00232115 0)
(4.22765 0.00230758 0)
(4.21979 0.00230891 0)
(4.21243 0.00229388 0)
(4.20539 0.00226161 0)
(4.19848 0.0022682 0)
(4.19162 0.00225392 0)
(4.18493 0.0022508 0)
(4.17856 0.00225098 0)
(4.17252 0.00222545 0)
(4.16666 0.00220968 0)
(4.1608 0.00221955 0)
(4.15489 0.00219563 0)
(4.14912 0.00219449 0)
(4.1437 0.0021901 0)
(4.13863 0.00217131 0)
(4.13369 0.00216593 0)
(4.12865 0.00216494 0)
(4.12351 0.00214075 0)
(4.1186 0.00214399 0)
(4.1141 0.0021332 0)
(4.1099 0.00212676 0)
(4.10572 0.0021265 0)
(4.10135 0.00211641 0)
(4.097 0.00210046 0)
(4.09298 0.00210233 0)
(4.08934 0.00208011 0)
(4.0859 0.00207923 0)
(4.08235 0.00207984 0)
(4.0787 0.0020723 0)
(4.07519 0.0020658 0)
(4.07204 0.00205534 0)
(4.06918 0.00205264 0)
(4.06637 0.00204881 0)
(4.06346 0.00203236 0)
(4.06056 0.00202688 0)
(4.0579 0.00202387 0)
(4.05553 0.00202044 0)
(4.05331 0.00200545 0)
(4.05106 0.00199694 0)
(4.0488 0.00199571 0)
(4.04664 0.00199217 0)
(4.04474 0.00198216 0)
(4.04302 0.00198065 0)
(4.04136 0.00197055 0)
(4.03967 0.00196987 0)
(4.03807 0.00196557 0)
(4.03667 0.00195599 0)
(4.03542 0.00195027 0)
(4.03424 0.00195066 0)
(4.0331 0.00194028 0)
(4.03209 0.00193177 0)
(4.03121 0.00192879 0)
(4.03044 0.00191782 0)
(4.02975 0.00191528 0)
(4.02915 0.00191599 0)
(4.02873 0.00191085 0)
(4.02837 0.00190427 0)
(4.02808 0.00189367 0)
(4.02788 0.00189371 0)
(4.02787 0.00188656 0)
(4.02799 0.00188174 0)
(4.02816 0.00187996 0)
(4.02844 0.00187513 0)
(4.02891 0.00187074 0)
(4.02951 0.00186634 0)
(4.0302 0.00185785 0)
(4.03103 0.00185061 0)
(4.03205 0.0018486 0)
(4.03322 0.00184129 0)
(4.03448 0.00183251 0)
(4.03588 0.0018331 0)
(4.03755 0.00182968 0)
(4.03931 0.00182423 0)
(4.04116 0.00181894 0)
(4.04301 0.00180442 0)
(4.04531 0.00180196 0)
(4.04749 0.001803 0)
(4.05001 0.00179631 0)
(4.05213 0.00178124 0)
(4.05511 0.00177234 0)
(4.05732 0.0017641 0)
(4.06081 0.00176327 0)
(4.06261 0.00173802 0)
(4.06673 0.00173933 0)
(4.06822 0.0018905 0)
(4.07581 0.00173292 0)
(5.84181 0.0099156 0)
(6.00181 0.0102513 0)
(6.1366 0.0112466 0)
(6.24224 0.0108277 0)
(6.30985 0.0101407 0)
(6.33323 0.00901897 0)
(6.31507 0.00710755 0)
(6.26156 0.00503754 0)
(6.18161 0.00354305 0)
(6.0853 0.00273862 0)
(5.98128 0.002424 0)
(5.87517 0.00240611 0)
(5.77034 0.00238156 0)
(5.66941 0.00236429 0)
(5.57459 0.00231171 0)
(5.48743 0.00230771 0)
(5.40918 0.00225784 0)
(5.34017 0.00228479 0)
(5.27943 0.00221067 0)
(5.22618 0.00220289 0)
(5.18022 0.00218893 0)
(5.14123 0.00214077 0)
(5.1088 0.00214091 0)
(5.08228 0.00212971 0)
(5.06067 0.0020684 0)
(5.04286 0.00206426 0)
(5.02791 0.00208129 0)
(5.01528 0.00205234 0)
(5.00471 0.00203392 0)
(4.99596 0.00203505 0)
(4.98867 0.00202065 0)
(4.98242 0.00200338 0)
(4.9768 0.00200529 0)
(4.9716 0.00199094 0)
(4.96686 0.00198013 0)
(4.96263 0.00198618 0)
(4.95883 0.00197408 0)
(4.95533 0.00194266 0)
(4.9519 0.0019535 0)
(4.94849 0.00194227 0)
(4.94519 0.00194263 0)
(4.94218 0.00194672 0)
(4.93944 0.00192276 0)
(4.93686 0.0019088 0)
(4.93422 0.00192207 0)
(4.93149 0.00189916 0)
(4.92887 0.00190186 0)
(4.92655 0.00190031 0)
(4.92455 0.00188324 0)
(4.92263 0.00187959 0)
(4.92057 0.0018807 0)
(4.91838 0.00185723 0)
(4.91638 0.00186389 0)
(4.91475 0.00185493 0)
(4.91338 0.00185018 0)
(4.91199 0.00185187 0)
(4.91039 0.00184289 0)
(4.90877 0.00182804 0)
(4.90744 0.00183266 0)
(4.90645 0.00181106 0)
(4.90563 0.00181157 0)
(4.90467 0.00181432 0)
(4.90357 0.00180793 0)
(4.90258 0.001803 0)
(4.90191 0.001794 0)
(4.9015 0.00179336 0)
(4.9011 0.00179104 0)
(4.90056 0.00177491 0)
(4.90001 0.00177094 0)
(4.89967 0.00177006 0)
(4.89958 0.00176878 0)
(4.8996 0.00175434 0)
(4.89957 0.00174638 0)
(4.89948 0.00174655 0)
(4.89946 0.00174523 0)
(4.89968 0.00173645 0)
(4.90005 0.00173589 0)
(4.90042 0.00172639 0)
(4.90076 0.00172785 0)
(4.90115 0.00172443 0)
(4.90169 0.00171593 0)
(4.90237 0.0017113 0)
(4.90308 0.00171318 0)
(4.9038 0.00170343 0)
(4.90461 0.00169524 0)
(4.90554 0.00169432 0)
(4.90654 0.0016837 0)
(4.90757 0.00168171 0)
(4.90869 0.00168459 0)
(4.90993 0.00168034 0)
(4.91122 0.00167457 0)
(4.91254 0.00166466 0)
(4.91392 0.00166595 0)
(4.91546 0.00165946 0)
(4.91709 0.00165574 0)
(4.91875 0.00165542 0)
(4.92048 0.00165107 0)
(4.92237 0.00164815 0)
(4.92437 0.00164486 0)
(4.92641 0.00163705 0)
(4.92856 0.00163054 0)
(4.93088 0.0016305 0)
(4.93331 0.00162346 0)
(4.9358 0.00161485 0)
(4.93839 0.00161831 0)
(4.94122 0.00161565 0)
(4.9441 0.00161127 0)
(4.94705 0.0016073 0)
(4.94998 0.00159519 0)
(4.95325 0.00159207 0)
(4.95648 0.00159701 0)
(4.9599 0.0015921 0)
(4.96299 0.00157671 0)
(4.96681 0.0015729 0)
(4.96989 0.00156641 0)
(4.97415 0.00156949 0)
(4.97676 0.00155451 0)
(4.9815 0.00155218 0)
(4.98374 0.00157638 0)
(4.99199 0.00150587 0)
(5.84175 -0.00469296 0)
(6.00172 -0.00509991 0)
(6.13778 -0.00820576 0)
(6.24279 -0.0100126 0)
(6.30873 -0.00814118 0)
(6.33245 -0.00489356 0)
(6.31595 -0.00221667 0)
(6.26382 -0.00040751 0)
(6.18456 0.000744294 0)
(6.0885 0.00133637 0)
(5.98459 0.00157798 0)
(5.87855 0.00169514 0)
(5.7738 0.00165515 0)
(5.67296 0.0015983 0)
(5.57822 0.00151807 0)
(5.49114 0.00150101 0)
(5.41297 0.00141085 0)
(5.34404 0.00142434 0)
(5.28337 0.00133414 0)
(5.23019 0.00131798 0)
(5.18429 0.00129589 0)
(5.14536 0.00124357 0)
(5.11299 0.00124184 0)
(5.08652 0.00123259 0)
(5.06497 0.00117396 0)
(5.0472 0.00117221 0)
(5.03229 0.00119466 0)
(5.01971 0.00117294 0)
(5.00919 0.00116293 0)
(5.00048 0.0011735 0)
(4.99323 0.00116844 0)
(4.98702 0.00116055 0)
(4.98144 0.00117262 0)
(4.97629 0.00116772 0)
(4.9716 0.001167 0)
(4.96741 0.00118405 0)
(4.96366 0.00118249 0)
(4.9602 0.00116057 0)
(4.95682 0.00118085 0)
(4.95345 0.00117947 0)
(4.95021 0.00118958 0)
(4.94725 0.00120377 0)
(4.94456 0.00118925 0)
(4.94202 0.00118405 0)
(4.93944 0.00120608 0)
(4.93675 0.00119151 0)
(4.93417 0.00120351 0)
(4.93191 0.00121038 0)
(4.92997 0.00120205 0)
(4.92811 0.00120615 0)
(4.92609 0.0012148 0)
(4.92396 0.00119896 0)
(4.92201 0.00121407 0)
(4.92043 0.00121303 0)
(4.91912 0.00121562 0)
(4.91777 0.00122395 0)
(4.91624 0.00122125 0)
(4.91468 0.00121379 0)
(4.9134 0.00122578 0)
(4.91247 0.00121154 0)
(4.91169 0.001218 0)
(4.9108 0.00122692 0)
(4.90976 0.00122678 0)
(4.90883 0.00122876 0)
(4.90821 0.00122642 0)
(4.90786 0.00123209 0)
(4.90752 0.00123574 0)
(4.90704 0.00122545 0)
(4.90655 0.00122785 0)
(4.90626 0.00123333 0)
(4.90623 0.00123834 0)
(4.90631 0.0012295 0)
(4.90634 0.00122713 0)
(4.9063 0.00123253 0)
(4.90636 0.00123709 0)
(4.90663 0.00123409 0)
(4.90706 0.00123869 0)
(4.90748 0.00123417 0)
(4.90788 0.00124114 0)
(4.90833 0.00124253 0)
(4.90893 0.00123949 0)
(4.90968 0.00123966 0)
(4.91045 0.00124628 0)
(4.91123 0.00124174 0)
(4.91209 0.00123789 0)
(4.91308 0.00124203 0)
(4.91415 0.00123621 0)
(4.91523 0.00123834 0)
(4.9164 0.00124652 0)
(4.9177 0.00124651 0)
(4.91906 0.00124494 0)
(4.92043 0.00124003 0)
(4.92187 0.00124556 0)
(4.92347 0.00124336 0)
(4.92516 0.00124428 0)
(4.92688 0.00124857 0)
(4.92866 0.00124808 0)
(4.93061 0.00124984 0)
(4.93267 0.00125082 0)
(4.93477 0.00124749 0)
(4.93697 0.00124524 0)
(4.93935 0.00124997 0)
(4.94185 0.00124694 0)
(4.94437 0.00124236 0)
(4.94702 0.00125155 0)
(4.94991 0.00125225 0)
(4.95284 0.00125264 0)
(4.95585 0.00125186 0)
(4.95884 0.00124826 0)
(4.96215 0.0012467 0)
(4.96544 0.00125815 0)
(4.96893 0.00125748 0)
(4.97206 0.00124753 0)
(4.97592 0.00125143 0)
(4.97905 0.00125238 0)
(4.98336 0.0012582 0)
(4.98603 0.00126261 0)
(4.99079 0.00126278 0)
(4.99311 0.0011413 0)
(5.00117 0.00116278 0)
(5.81845 -0.0249842 0)
(5.92763 -0.0251753 0)
(5.96161 -0.0261499 0)
(5.93819 -0.0219014 0)
(5.88899 -0.0158004 0)
(5.82669 -0.0102788 0)
(5.75212 -0.00577548 0)
(5.6644 -0.00244183 0)
(5.56556 -0.000289933 0)
(5.45942 0.000783772 0)
(5.34969 0.00117636 0)
(5.23914 0.00129527 0)
(5.13004 0.00122093 0)
(5.02482 0.00112948 0)
(4.92568 0.00102944 0)
(4.83421 0.000999381 0)
(4.7517 0.000873528 0)
(4.67846 0.000861786 0)
(4.61352 0.000760835 0)
(4.5561 0.000734449 0)
(4.50597 0.000702864 0)
(4.46287 0.00064493 0)
(4.42638 0.000636693 0)
(4.39581 0.000625565 0)
(4.37021 0.000568751 0)
(4.34843 0.000565441 0)
(4.32955 0.000586997 0)
(4.31305 0.000568546 0)
(4.29867 0.000562608 0)
(4.28613 0.000576894 0)
(4.27511 0.000576173 0)
(4.26516 0.000573526 0)
(4.25589 0.000589868 0)
(4.24711 0.000589399 0)
(4.23884 0.000593913 0)
(4.2311 0.000615935 0)
(4.22386 0.000619888 0)
(4.21694 0.0006043 0)
(4.21015 0.000628278 0)
(4.20342 0.000631832 0)
(4.19687 0.000646143 0)
(4.19064 0.000664989 0)
(4.18471 0.000656433 0)
(4.17899 0.000655932 0)
(4.17326 0.00068081 0)
(4.16746 0.000671689 0)
(4.16182 0.000687673 0)
(4.15654 0.000698065 0)
(4.15161 0.000694927 0)
(4.1468 0.00070275 0)
(4.14188 0.000714442 0)
(4.13688 0.000703397 0)
(4.1321 0.000721934 0)
(4.12772 0.000725084 0)
(4.12365 0.000731357 0)
(4.11958 0.000742031 0)
(4.11536 0.000742142 0)
(4.11115 0.000739151 0)
(4.10725 0.000754284 0)
(4.10375 0.000744918 0)
(4.10041 0.000753578 0)
(4.09702 0.000764494 0)
(4.0935 0.000767436 0)
(4.09012 0.000773055 0)
(4.08709 0.000774217 0)
(4.08436 0.000782478 0)
(4.08169 0.000788665 0)