/*--------------------------------*- C++ -*----------------------------------*\
  =========                 |
  \\      /  F ield         | OpenFOAM: The Open Source CFD Toolbox
   \\    /   O peration     | Website:  https://openfoam.org
    \\  /    A nd           | Version:  7
     \\/     M anipulation  |
\*---------------------------------------------------------------------------*/
FoamFile
{
    version     2.0;
    format      ascii;
    class       surfaceScalarField;
    location    "0.3925";
    object      phi;
}
// * * * * * * * * * * * * * * * * * * * * * * * * * * * * * * * * * * * * * //

dimensions      [1 0 -1 0 0 0 0];

internalField   nonuniform List<scalar> 
23688
(
0.00217394
0.000146901
2.40355e-06
0.00203899
0.000132154
1.04101e-06
0.00186259
0.000172585
1.99668e-06
0.00170011
0.000159391
1.10581e-06
0.00154216
0.000154091
1.77815e-06
0.00140136
0.00013767
1.10186e-06
0.00127608
0.00012177
1.61369e-06
0.00116826
0.000104941
1.08004e-06
0.00107635
8.86806e-05
1.48604e-06
0.000999477
7.40838e-05
1.06558e-06
0.00093534
6.10306e-05
1.3954e-06
0.00088263
4.99447e-05
1.06458e-06
0.000838748
4.08589e-05
1.33371e-06
0.000802771
3.3229e-05
1.07197e-06
0.000772297
2.75184e-05
1.2913e-06
0.000746983
2.25816e-05
1.08274e-06
0.000724888
1.9201e-05
1.25945e-06
0.000706142
1.60356e-05
1.09064e-06
0.000689247
1.40501e-05
1.23167e-06
0.000674588
1.19547e-05
1.0944e-06
0.00066103
1.07467e-05
1.2065e-06
0.000649072
9.2667e-06
1.09414e-06
0.000637851
8.45166e-06
1.18228e-06
0.000627884
7.29939e-06
1.08962e-06
0.000618505
6.64479e-06
1.15818e-06
0.00061019
5.65343e-06
1.0816e-06
0.000602394
5.06927e-06
1.13432e-06
0.000595504
4.21314e-06
1.07073e-06
0.000589078
3.69481e-06
1.11009e-06
0.000583472
2.9147e-06
1.05701e-06
0.00057836
2.38186e-06
1.08542e-06
0.000573984
1.68165e-06
1.04109e-06
0.000569987
1.27592e-06
1.06051e-06
0.000566547
7.49543e-07
1.0246e-06
0.000563388
4.50078e-07
1.03841e-06
0.000560465
2.39168e-07
1.01112e-06
0.000557429
3.41935e-07
1.01993e-06
0.000554666
9.0809e-08
9.99002e-07
0.000552745
-7.57627e-07
1.00318e-06
0.000552315
-2.23844e-06
9.89596e-07
0.000553131
-3.49258e-06
9.91586e-07
0.00055455
-4.09393e-06
9.84694e-07
0.000555768
-3.89568e-06
9.82354e-07
0.000556404
-3.31572e-06
9.78817e-07
0.000556422
-2.69217e-06
9.70498e-07
0.000555999
-2.25294e-06
9.7022e-07
0.000555354
-2.01855e-06
9.56869e-07
0.000554454
-1.76665e-06
9.61199e-07
0.00055339
-1.58231e-06
9.42735e-07
0.000551975
-1.23811e-06
9.52212e-07
0.000550225
-8.75426e-07
9.27373e-07
0.0005482
-6.12716e-07
9.43158e-07
0.000544738
8.59537e-07
9.11271e-07
0.00054198
1.36847e-07
9.33813e-07
0.00053266
6.73716e-06
8.99037e-07
0.000528833
1.23003e-06
9.19118e-07
0.000499909
2.6338e-05
9.10008e-07
0.000491377
5.98723e-06
8.75542e-07
0.000398689
9.0006e-05
1.00483e-06
0.000106577
7.49247e-07
0.000289676
0.00236937
9.97851e-05
7.94688e-07
0.00239929
0.000100665
-1.71817e-07
0.00242094
0.000148522
6.47407e-07
0.00242942
0.000149161
-1.75191e-07
0.00242303
0.000157829
4.75869e-07
0.00240632
0.000152262
-1.86177e-07
0.00237991
0.000145631
3.2827e-07
0.00234802
0.000135018
-1.96963e-07
0.00231169
0.000122994
2.17027e-07
0.00227354
0.000110779
-1.95736e-07
0.00223424
9.8625e-05
1.41755e-07
0.00219532
8.75289e-05
-1.81923e-07
0.00215697
7.76056e-05
9.39602e-08
0.00212009
6.88028e-05
-1.61256e-07
0.00208449
6.1598e-05
6.33016e-08
0.00205064
5.51102e-05
-1.39432e-07
0.00201819
5.01557e-05
4.2614e-08
0.0019875
4.54403e-05
-1.19984e-07
0.00195814
4.20196e-05
2.55779e-08
0.00193033
3.85118e-05
-1.07263e-07
0.00190364
3.60522e-05
8.10639e-09
0.00187833
3.3277e-05
-9.97682e-08
0.00185417
3.12662e-05
-7.36067e-09
0.00183153
2.87787e-05
-9.52669e-08
0.00181019
2.68622e-05
-2.34879e-08
0.0017904
2.44995e-05
-9.74473e-08
0.00177181
2.27011e-05
-4.3341e-08
0.00175451
2.06114e-05
-1.05157e-07
0.00173822
1.8996e-05
-6.40196e-08
0.00172319
1.69444e-05
-1.14555e-07
0.00170937
1.51018e-05
-8.35386e-08
0.00169693
1.30024e-05
-1.25006e-07
0.00168567
1.1362e-05
-1.03009e-07
0.00167572
9.51111e-06
-1.37015e-07
0.00166707
7.85482e-06
-1.21818e-07
0.00165962
6.42919e-06
-1.47723e-07
0.00165302
5.65184e-06
-1.37618e-07
0.00164772
4.11536e-06
-1.57313e-07
0.00164452
1.16252e-06
-1.51706e-07
0.00164375
-2.73142e-06
-1.63992e-07
0.00164471
-5.72318e-06
-1.60732e-07
0.00164633
-6.98414e-06
-1.66742e-07
0.00164761
-6.47026e-06
-1.68419e-07
0.00164792
-4.93496e-06
-1.71504e-07
0.00164722
-3.3271e-06
-1.79915e-07
0.00164559
-1.98684e-06
-1.80104e-07
0.00164362
-1.42019e-06
-1.93834e-07
0.00164091
-4.62148e-07
-1.88834e-07
0.0016383
-3.54989e-07
-2.07233e-07
0.00163447
1.19704e-06
-1.9637e-07
0.00163141
8.03196e-07
-2.22224e-07
0.00162615
3.25047e-06
-2.04274e-07
0.00162345
2.19638e-06
-2.40249e-07
0.00161635
5.85116e-06
-2.13484e-07
0.00161505
6.68893e-06
-2.60994e-07
0.00160493
9.97628e-06
-2.31076e-07
0.00160948
2.04886e-05
-2.85535e-07
0.00159635
1.7844e-05
-2.91026e-07
0.00163864
4.65342e-05
-3.70572e-07
4.44905e-05
-5.14104e-07
0.00169972
0.00237084
5.03581e-05
1.71321e-06
0.00241016
5.8852e-05
7.50872e-07
0.00245429
0.00010109
1.54984e-06
0.00249676
0.000104049
7.29846e-07
0.00253465
0.000116385
1.37759e-06
0.0025695
0.000114347
7.19304e-07
0.00259872
0.000112864
1.23293e-06
0.00262405
0.000106873
7.06591e-07
0.00264415
9.99063e-05
1.11743e-06
0.00266042
9.21486e-05
6.99301e-07
0.00267238
8.4089e-05
1.0312e-06
0.00268121
7.65272e-05
7.00183e-07
0.00268691
6.94877e-05
9.69222e-07
0.00269039
6.31822e-05
7.06446e-07
0.0026918
5.78417e-05
9.24281e-07
0.00269178
5.30239e-05
7.15226e-07
0.00269044
4.92231e-05
8.91558e-07
0.00268817
4.56101e-05
7.23856e-07
0.00268503
4.29099e-05
8.64353e-07
0.00268127
4.01616e-05
7.27276e-07
0.00267696
3.8173e-05
8.38214e-07
0.00267229
3.59184e-05
7.2688e-07
0.0026673
3.41878e-05
8.15551e-07
0.00266204
3.20475e-05
7.2497e-07
0.00265649
3.03171e-05
7.93476e-07
0.0026507
2.82137e-05
7.16697e-07
0.00264474
2.65355e-05
7.66936e-07
0.00263877
2.46152e-05
7.0183e-07
0.00263292
2.30324e-05
7.39402e-07
0.00262732
2.09993e-05
6.86718e-07
0.00262201
1.90426e-05
7.15803e-07
0.00261692
1.68651e-05
6.73642e-07
0.00261199
1.50565e-05
6.94315e-07
0.00260723
1.29686e-05
6.59511e-07
0.00260268
1.09562e-05
6.72788e-07
0.00259839
9.12407e-06
6.44981e-07
0.00259458
7.72223e-06
6.5251e-07
0.00259126
5.59896e-06
6.3079e-07
0.00258795
2.55569e-06
6.33197e-07
0.00258413
-8.93899e-07
6.18376e-07
0.00257978
-3.40555e-06
6.183e-07
0.00257526
-4.51534e-06
6.10722e-07
0.00257087
-4.11089e-06
6.08438e-07
0.00256698
-3.06627e-06
6.05811e-07
0.00256378
-2.14454e-06
5.98462e-07
0.00256137
-1.63449e-06
5.98338e-07
0.00255906
-1.22105e-06
5.84438e-07
0.00255674
-3.13742e-07
5.87102e-07
0.00255341
8.15555e-07
5.67795e-07
0.00254984
2.64304e-06
5.75971e-07
0.00254494
3.68077e-06
5.53697e-07
0.00254071
5.52616e-06
5.67713e-07
0.00253463
6.35442e-06
5.42457e-07
0.00253014
8.34506e-06
5.57387e-07
0.00252277
1.19522e-05
5.33367e-07
0.00251672
1.37683e-05
5.36597e-07
0.00250799
2.68107e-05
5.39269e-07
0.00249529
2.80827e-05
4.94416e-07
0.00248668
5.2534e-05
5.91878e-07
6.90557e-05
4.33523e-07
0.00245971
0.0023416
3.08736e-05
9.37247e-07
0.00236117
3.7468e-05
6.77307e-08
0.0023942
6.54737e-05
8.33797e-07
0.00242931
6.69505e-05
6.28992e-08
0.00246732
7.5469e-05
6.97565e-07
0.0025051
7.41565e-05
5.70355e-08
0.00254132
7.37845e-05
5.68898e-07
0.00257582
7.02462e-05
4.93324e-08
0.0026072
6.62304e-05
4.62146e-07
0.00263609
6.15639e-05
4.73143e-08
0.00266163
5.66543e-05
3.81855e-07
0.00268465
5.19896e-05
5.30111e-08
0.0027048
4.75738e-05
3.24283e-07
0.00272288
4.36048e-05
6.32187e-08
0.00273883
4.01952e-05
2.82935e-07
0.00275327
3.71265e-05
7.57851e-08
0.0027662
3.46826e-05
2.54017e-07
0.00277798
3.23734e-05
8.83747e-08
0.00278863
3.064e-05
2.30512e-07
0.0027984
2.88886e-05
9.5407e-08
0.00280735
2.7627e-05
2.07991e-07
0.00281567
2.61968e-05
9.90592e-08
0.00282335
2.50968e-05
1.89944e-07
0.00283036
2.37309e-05
1.02273e-07
0.0028366
2.26363e-05
1.73085e-07
0.00284204
2.12886e-05
9.87358e-08
0.00284675
2.01868e-05
1.50387e-07
0.0028509
1.8899e-05
8.67777e-08
0.00285465
1.78267e-05
1.25449e-07
0.00285807
1.64517e-05
7.46975e-08
0.00286115
1.51149e-05
1.06084e-07
0.00286387
1.36101e-05
6.71966e-08
0.00286623
1.22949e-05
9.12993e-08
0.00286804
1.07943e-05
5.97282e-08
0.00286903
9.4709e-06
7.5366e-08
0.00286921
8.29414e-06
4.94333e-08
0.00286886
7.20162e-06
5.87127e-08
0.00286793
5.49348e-06
3.89749e-08
0.00286607
3.23168e-06
4.37295e-08
0.00286321
6.92071e-07
3.01267e-08
0.00285965
-1.23741e-06
3.11256e-08
0.00285564
-1.97035e-06
2.29038e-08
0.00285159
-1.55947e-06
1.992e-08
0.00284785
-8.1956e-07
1.75254e-08
0.00284482
-5.45811e-07
1.09603e-08
0.00284247
-7.12556e-07
1.2551e-08
0.00284093
-1.12052e-06
-9.12355e-10
0.00283966
-5.82942e-07
1.75534e-09
0.00283881
5.68052e-08
-1.96675e-08
0.00283763
2.17368e-06
-1.30559e-08
0.00283653
3.2016e-06
-3.92355e-08
0.00283442
6.1703e-06
-2.47391e-08
0.0028333
6.18252e-06
-5.52222e-08
0.00283103
9.39329e-06
-3.57133e-08
0.0028327
9.08257e-06
-7.69144e-08
0.00283218
1.29449e-05
-6.42819e-08
0.002842
1.548e-05
-1.28653e-07
0.00284779
2.05694e-05
-1.36225e-07
0.00287267
2.58559e-05
-2.72325e-07
3.74955e-05
-2.81648e-07
0.00290227
0.00234002
1.25615e-05
1.38263e-06
0.00235885
1.63742e-05
5.21671e-07
0.00239086
3.04289e-05
1.27989e-06
0.00242371
3.16528e-05
5.10305e-07
0.00245913
3.67081e-05
1.14124e-06
0.00249417
3.62549e-05
5.01261e-07
0.00252819
3.64708e-05
1.01147e-06
0.00256109
3.47892e-05
4.91096e-07
0.00259164
3.29455e-05
9.02182e-07
0.00262042
3.06726e-05
4.85179e-07
0.00264645
2.82915e-05
8.17462e-07
0.00267049
2.60072e-05
4.85792e-07
0.00269203
2.38357e-05
7.54522e-07
0.00271182
2.18864e-05
4.90684e-07
0.0027297
2.02005e-05
7.08042e-07
0.00274626
1.8691e-05
4.98604e-07
0.00276143
1.74789e-05
6.74754e-07
0.00277559
1.63406e-05
5.07191e-07
0.0027887
1.54799e-05
6.47459e-07
0.00280104
1.4619e-05
5.1087e-07
0.00281267
1.39985e-05
6.22002e-07
0.00282376
1.33017e-05
5.12064e-07
0.00283429
1.27648e-05
6.01771e-07
0.00284422
1.20979e-05
5.13189e-07
0.00285344
1.15607e-05
5.8269e-07
0.00286192
1.08985e-05
5.07201e-07
0.00286967
1.03563e-05
5.57351e-07
0.00287683
9.72588e-06
4.92602e-07
0.00288355
9.20612e-06
5.30015e-07
0.0028899
8.53993e-06
4.78573e-07
0.00289588
7.88458e-06
5.09234e-07
0.00290145
7.13076e-06
4.70112e-07
0.00290653
6.46487e-06
4.93653e-07
0.00291092
5.70854e-06
4.61707e-07
0.00291456
5.01351e-06
4.76373e-07
0.00291751
4.3565e-06
4.49391e-07
0.00291972
3.76697e-06
4.5721e-07
0.0029209
2.92738e-06
4.36394e-07
0.00292077
1.81445e-06
4.39974e-07
0.00291922
5.83689e-07
4.25186e-07
0.00291649
-2.75647e-07
4.24534e-07
0.00291326
-6.01377e-07
4.14952e-07
0.00291026
-4.73883e-07
4.10985e-07
0.00290776
-2.20189e-07
4.07854e-07
0.00290544
-7.55235e-08
4.01277e-07
0.00290302
-9.55152e-08
4.02811e-07
0.00290027
-1.89207e-07
3.89886e-07
0.00289778
-3.06151e-09
3.92277e-07
0.00289545
3.94125e-07
3.71383e-07
0.00289413
1.41183e-06
3.76268e-07
0.0028931
2.20431e-06
3.52352e-07
0.00289381
3.54152e-06
3.635e-07
0.00289417
4.09107e-06
3.39772e-07
0.0028966
5.36998e-06
3.51958e-07
0.00289796
6.19011e-06
3.28373e-07
0.00290153
7.75837e-06
3.2856e-07
0.00290476
1.04464e-05
3.10738e-07
0.00290962
1.36628e-05
2.83154e-07
0.00291594
1.72413e-05
2.88179e-07
2.71354e-05
2.31963e-07
0.00292378
0.00233449
2.06032e-11
1.13771e-06
0.00234883
4.71206e-11
2.93183e-07
0.00237646
-3.97801e-11
1.04561e-06
0.00240588
-2.02357e-10
2.91836e-07
0.00243945
-2.90858e-10
9.1978e-07
0.00247307
-1.92299e-10
2.87345e-07
0.00250647
3.35171e-11
7.97281e-07
0.00253892
2.72949e-10
2.80014e-07
0.00256936
4.42228e-10
6.91735e-07
0.00259813
5.27403e-10
2.75993e-07
0.00262431
5.52004e-10
6.08963e-07
0.00264858
5.51681e-10
2.77825e-07
0.00267042
5.46388e-10
5.47066e-07
0.00269059
5.45464e-10
2.83557e-07
0.00270888
5.46168e-10
5.01341e-07
0.00272591
5.47402e-10
2.92217e-07
0.00274157
5.52045e-10
4.68654e-07
0.00275623
5.69734e-10
3.01335e-07
0.00276986
6.06724e-10
4.41833e-07
0.00278275
6.54747e-10
3.05652e-07
0.00279497
6.96395e-10
4.17208e-07
0.00280669
7.09114e-10
3.07845e-07
0.00281786
6.97024e-10
3.97927e-07
0.00282846
6.82075e-10
3.09745e-07
0.00283835
7.10929e-10
3.79435e-07
0.00284751
8.15598e-10
3.043e-07
0.00285597
1.03447e-09
3.54762e-07
0.00286389
1.36006e-09
2.90577e-07
0.00287142
1.79424e-09
3.28521e-07
0.00287865
2.28987e-09
2.77737e-07
0.00288553
2.83722e-09
3.08897e-07
0.002892
3.35793e-09
2.70271e-07
0.00289793
3.76625e-09
2.9418e-07
0.00290315
4.276e-09
2.62571e-07
0.00290752
4.84135e-09
2.77517e-07
0.00291105
5.35566e-09
2.50942e-07
0.00291376
6.28915e-09
2.59316e-07
0.00291547
8.0577e-09
2.39129e-07
0.00291591
8.69103e-09
2.43218e-07
0.00291501
9.91059e-09
2.28874e-07
0.00291313
1.26813e-08
2.28334e-07
0.00291083
1.749e-08
2.19034e-07
0.00290861
2.05911e-08
2.14997e-07
0.00290666
2.74596e-08
2.12132e-07
0.00290491
2.93136e-08
2.0566e-07
0.00290316
4.40551e-08
2.07488e-07
0.0029013
5.1754e-08
1.94499e-07
0.0028995
7.09215e-08
1.96887e-07
0.00289802
5.97544e-08
1.75479e-07
0.00289745
8.89158e-08
1.80341e-07
0.00289773
8.08421e-08
1.55057e-07
0.00289942
1.36216e-07
1.66391e-07
0.00290187
1.1687e-07
1.39642e-07
0.00290566
1.98419e-07
1.53537e-07
0.00291038
1.63272e-07
1.20765e-07
0.00291648
2.73098e-07
1.25736e-07
0.00292514
2.33912e-07
7.82996e-08
0.00293664
3.53921e-07
6.77744e-08
0.00295156
3.47753e-07
-1.6551e-08
4.38229e-07
-1.74355e-08
0.00297598
0.00233449
-1.25614e-05
1.13771e-06
0.00234883
-1.63741e-05
2.93183e-07
0.00237646
-3.04289e-05
1.04561e-06
0.00240588
-3.16533e-05
2.91836e-07
0.00243945
-3.67088e-05
9.1978e-07
0.00247307
-3.62554e-05
2.87345e-07
0.00250647
-3.64707e-05
7.97281e-07
0.00253892
-3.47886e-05
2.80014e-07
0.00256936
-3.29446e-05
6.91735e-07
0.00259813
-3.06715e-05
2.75993e-07
0.00262431
-2.82904e-05
6.08963e-07
0.00264858
-2.60061e-05
2.77825e-07
0.00267042
-2.38346e-05
5.47065e-07
0.00269059
-2.18854e-05
2.83556e-07
0.00270888
-2.01994e-05
5.01341e-07
0.00272591
-1.86899e-05
2.92217e-07
0.00274157
-1.74778e-05
4.68654e-07
0.00275623
-1.63395e-05
3.01335e-07
0.00276986
-1.54787e-05
4.41832e-07
0.00278275
-1.46177e-05
3.05651e-07
0.00279497
-1.39971e-05
4.17208e-07
0.00280669
-1.33002e-05
3.07844e-07
0.00281786
-1.27633e-05
3.97927e-07
0.00282846
-1.20965e-05
3.09745e-07
0.00283835
-1.15593e-05
3.79435e-07
0.00284751
-1.0897e-05
3.04299e-07
0.00285597
-1.03543e-05
3.5476e-07
0.00286389
-9.72322e-06
2.90575e-07
0.00287142
-9.2025e-06
3.2852e-07
0.00287865
-8.53523e-06
2.77735e-07
0.00288553
-7.87869e-06
3.08897e-07
0.002892
-7.12384e-06
2.7027e-07
0.00289793
-6.45699e-06
2.9418e-07
0.00290315
-5.69972e-06
2.6257e-07
0.00290752
-5.00352e-06
2.77518e-07
0.00291105
-4.34518e-06
2.50945e-07
0.00291376
-3.75323e-06
2.59322e-07
0.00291546
-2.91018e-06
2.39144e-07
0.0029159
-1.79349e-06
2.43239e-07
0.002915
-5.58535e-07
2.28909e-07
0.00291312
3.01564e-07
2.28383e-07
0.00291082
6.36916e-07
2.19053e-07
0.0029086
5.14505e-07
2.15037e-07
0.00290665
2.68922e-07
2.12136e-07
0.0029049
1.35567e-07
2.05678e-07
0.00290316
1.7782e-07
2.07488e-07
0.00290132
2.69593e-07
1.94474e-07
0.00289954
1.24748e-07
1.96837e-07
0.00289805
-2.61383e-07
1.75418e-07
0.00289747
-1.2294e-06
1.80341e-07
0.00289774
-2.03058e-06
1.55216e-07
0.00289942
-3.26434e-06
1.66446e-07
0.00290185
-3.83836e-06
1.40059e-07
0.00290563
-4.96207e-06
1.53633e-07
0.00291032
-5.83086e-06
1.21788e-07
0.00291639
-7.18219e-06
1.25994e-07
0.00292499
-9.91733e-06
8.00968e-08
0.00293642
-1.28875e-05
6.85398e-08
0.00295124
-1.64472e-05
-1.34126e-08
-2.61511e-05
-1.56332e-08
0.00297555
0.00234002
-3.08735e-05
1.38263e-06
0.00235885
-3.74679e-05
5.21671e-07
0.00239086
-6.54738e-05
1.27989e-06
0.00242371
-6.6951e-05
5.10305e-07
0.00245913
-7.54697e-05
1.14124e-06
0.00249417
-7.4157e-05
5.01261e-07
0.00252819
-7.37845e-05
1.01147e-06
0.00256109
-7.02456e-05
4.91097e-07
0.00259164
-6.62294e-05
9.02183e-07
0.00262042
-6.15627e-05
4.85179e-07
0.00264645
-5.66532e-05
8.17463e-07
0.00267049
-5.19885e-05
4.85793e-07
0.00269203
-4.75728e-05
7.54522e-07
0.00271182
-4.36038e-05
4.90684e-07
0.0027297
-4.01942e-05
7.08042e-07
0.00274626
-3.71254e-05
4.98605e-07
0.00276143
-3.46815e-05
6.74756e-07
0.00277559
-3.23723e-05
5.07192e-07
0.0027887
-3.06388e-05
6.47459e-07
0.00280104
-2.88873e-05
5.10869e-07
0.00281267
-2.76256e-05
6.22001e-07
0.00282376
-2.61954e-05
5.12065e-07
0.00283429
-2.50954e-05
6.01773e-07
0.00284422
-2.37295e-05
5.13192e-07
0.00285344
-2.2635e-05
5.82693e-07
0.00286192
-2.12872e-05
5.07203e-07
0.00286967
-2.0185e-05
5.57352e-07
0.00287683
-1.88966e-05
4.92601e-07
0.00288355
-1.78234e-05
5.30013e-07
0.0028899
-1.64474e-05
4.78571e-07
0.00289588
-1.51095e-05
5.09233e-07
0.00290145
-1.36036e-05
4.70112e-07
0.00290653
-1.22875e-05
4.93654e-07
0.00291093
-1.07861e-05
4.61706e-07
0.00291457
-9.46205e-06
4.76369e-07
0.00291751
-8.28418e-06
4.49383e-07
0.00291973
-7.18968e-06
4.572e-07
0.00292091
-5.47863e-06
4.36377e-07
0.00292078
-3.21505e-06
4.3996e-07
0.00291924
-6.72217e-07
4.25151e-07
0.00291651
1.26251e-06
4.24511e-07
0.00291328
2.00271e-06
4.14935e-07
0.00291029
1.59761e-06
4.10951e-07
0.00290778
8.71812e-07
4.07849e-07
0.00290547
6.04939e-07
4.01271e-07
0.00290304
7.92248e-07
4.02819e-07
0.00290029
1.2098e-06
3.89943e-07
0.0028978
7.11039e-07
3.92341e-07
0.00289548
5.63885e-08
3.71484e-07
0.00289418
-2.00765e-06
3.76252e-07
0.00289316
-3.04592e-06
3.52234e-07
0.00289389
-5.91128e-06
3.63395e-07
0.00289428
-5.95919e-06
3.39455e-07
0.00289674
-9.0174e-06
3.51824e-07
0.00289816
-8.77873e-06
3.27589e-07
0.00290179
-1.2427e-05
3.28305e-07
0.00290512
-1.50471e-05
3.09353e-07
0.00291009
-1.9907e-05
2.82447e-07
0.00291656
-2.52115e-05
2.85603e-07
-3.67537e-05
2.30516e-07
0.00292464
0.0023416
-5.03581e-05
9.37248e-07
0.00236117
-5.88518e-05
6.7731e-08
0.0023942
-0.00010109
8.33797e-07
0.00242931
-0.000104049
6.28996e-08
0.00246732
-0.000116386
6.97565e-07
0.0025051
-0.000114347
5.7036e-08
0.00254132
-0.000112864
5.68898e-07
0.00257582
-0.000106872
4.93328e-08
0.0026072
-9.99052e-05
4.62146e-07
0.00263609
-9.21474e-05
4.73142e-08
0.00266163
-8.40879e-05
3.81856e-07
0.00268465
-7.65261e-05
5.30116e-08
0.0027048
-6.94867e-05
3.24283e-07
0.00272288
-6.31813e-05
6.32177e-08
0.00273883
-5.78407e-05
2.82934e-07
0.00275327
-5.30229e-05
7.57844e-08
0.0027662
-4.9222e-05
2.54018e-07
0.00277798
-4.5609e-05
8.83768e-08
0.00278863
-4.29088e-05
2.30513e-07
0.0027984
-4.01605e-05
9.54051e-08
0.00280735
-3.81717e-05
2.07987e-07
0.00281567
-3.59169e-05
9.90552e-08
0.00282335
-3.41864e-05
1.89944e-07
0.00283036
-3.20462e-05
1.02277e-07
0.0028366
-3.03159e-05
1.73092e-07
0.00284204
-2.82123e-05
9.87422e-08
0.00284675
-2.65338e-05
1.50389e-07
0.0028509
-2.46127e-05
8.67737e-08
0.00285465
-2.30291e-05
1.25439e-07
0.00285807
-2.09952e-05
7.46852e-08
0.00286115
-1.90377e-05
1.06074e-07
0.00286387
-1.68594e-05
6.71925e-08
0.00286623
-1.50501e-05
9.13022e-08
0.00286804
-1.29612e-05
5.97341e-08
0.00286904
-1.09478e-05
7.53729e-08
0.00286921
-9.11476e-06
4.94392e-08
0.00286886
-7.71086e-06
5.87214e-08
0.00286793
-5.58408e-06
3.89931e-08
0.00286608
-2.53863e-06
4.3757e-08
0.00286321
9.13062e-07
3.01752e-08
0.00285966
3.4283e-06
3.11561e-08
0.00285565
4.54524e-06
2.29221e-08
0.0028516
4.14669e-06
1.99535e-08
0.00284787
3.11108e-06
1.75333e-08
0.00284484
2.19513e-06
1.10123e-08
0.00284251
1.70116e-06
1.2573e-08
0.00284099
1.29466e-06
-8.57881e-10
0.00283974
4.19145e-07
1.75204e-09
0.0028389
-7.02672e-07
-1.96456e-08
0.00283772
-2.4903e-06
-1.29994e-08
0.00283663
-3.53008e-06
-3.90033e-08
0.00283455
-5.29183e-06
-2.45847e-08
0.00283343
-6.13454e-06
-5.46434e-08
0.00283119
-7.99907e-06
-3.55144e-08
0.00283285
-1.16471e-05
-7.58704e-08
0.00283236
-1.32776e-05
-6.39186e-08
0.00284215
-2.63532e-05
-1.26832e-07
0.00284795
-2.74274e-05
-1.35267e-07
0.00287274
-5.18048e-05
-2.69124e-07
-6.83078e-05
-2.79507e-07
0.00290234
0.00237084
-9.97851e-05
1.71321e-06
0.00241016
-0.000100665
7.50873e-07
0.00245429
-0.000148522
1.54984e-06
0.00249676
-0.000149161
7.29847e-07
0.00253465
-0.00015783
1.37759e-06
0.0025695
-0.000152263
7.19305e-07
0.00259872
-0.000145631
1.23293e-06
0.00262405
-0.000135018
7.06592e-07
0.00264415
-0.000122993
1.11743e-06
0.00266042
-0.000110778
6.99301e-07
0.00267238
-9.8624e-05
1.0312e-06
0.00268121
-8.75281e-05
7.00185e-07
0.00268691
-7.76048e-05
9.69224e-07
0.00269039
-6.8802e-05
7.06446e-07
0.0026918
-6.15972e-05
9.2428e-07
0.00269178
-5.51093e-05
7.15225e-07
0.00269044
-5.01548e-05
8.9156e-07
0.00268817
-4.54394e-05
7.2386e-07
0.00268503
-4.20188e-05
8.64357e-07
0.00268127
-3.85109e-05
7.27275e-07
0.00267696
-3.60511e-05
8.38209e-07
0.0026723
-3.32757e-05
7.26874e-07
0.0026673
-3.12651e-05
8.15549e-07
0.00266205
-2.87777e-05
7.24977e-07
0.00265649
-2.68614e-05
7.93488e-07
0.0026507
-2.44985e-05
7.16709e-07
0.00264474
-2.26997e-05
7.66939e-07
0.00263878
-2.06094e-05
7.01822e-07
0.00263292
-1.89934e-05
7.39385e-07
0.00262733
-1.69413e-05
6.867e-07
0.00262201
-1.50982e-05
7.15789e-07
0.00261693
-1.29985e-05
6.73638e-07
0.002612
-1.13578e-05
6.94317e-07
0.00260724
-9.50624e-06
6.59514e-07
0.00260269
-7.84911e-06
6.72789e-07
0.00259841
-6.42304e-06
6.44977e-07
0.0025946
-5.64487e-06
6.52504e-07
0.00259129
-4.10617e-06
6.30782e-07
0.00258798
-1.15067e-06
6.33201e-07
0.00258417
2.74598e-06
6.18359e-07
0.00257982
5.74034e-06
6.18404e-07
0.00257531
7.00551e-06
6.10705e-07
0.00257093
6.49626e-06
6.08426e-07
0.00256705
4.96973e-06
6.05807e-07
0.00256386
3.36668e-06
5.98474e-07
0.00256147
2.03686e-06
5.98366e-07
0.00255918
1.47217e-06
5.84493e-07
0.00255689
5.38153e-07
5.87134e-07
0.00255359
4.27099e-07
5.67881e-07
0.00255008
-1.09366e-06
5.75907e-07
0.00254524
-7.07319e-07
5.53607e-07
0.00254106
-3.07914e-06
5.67515e-07
0.00253506
-2.04973e-06
5.42248e-07
0.00253067
-5.60174e-06
5.57282e-07
0.00252342
-6.50195e-06
5.33078e-07
0.00251752
-9.63426e-06
5.36489e-07
0.00250897
-2.0222e-05
5.3867e-07
0.00249653
-1.74303e-05
4.93967e-07
0.00248819
-4.60846e-05
5.90506e-07
-4.42529e-05
4.32619e-07
0.00246174
0.00236937
-0.000146901
7.94689e-07
0.00239929
-0.000132154
-1.71816e-07
0.00242094
-0.000172585
6.47409e-07
0.00242942
-0.000159391
-1.75188e-07
0.00242303
-0.000154091
4.75871e-07
0.00240632
-0.000137671
-1.86177e-07
0.00237992
-0.00012177
3.28269e-07
0.00234802
-0.00010494
-1.96963e-07
0.00231169
-8.86801e-05
2.17027e-07
0.00227355
-7.40832e-05
-1.95736e-07
0.00223424
-6.10301e-05
1.41756e-07
0.00219532
-4.99443e-05
-1.81922e-07
0.00215698
-4.08585e-05
9.39615e-08
0.00212009
-3.32286e-05
-1.61256e-07
0.00208449
-2.7518e-05
6.33015e-08
0.00205064
-2.25811e-05
-1.39433e-07
0.0020182
-1.92005e-05
4.26142e-08
0.0019875
-1.60351e-05
-1.19982e-07
0.00195814
-1.40496e-05
2.55813e-08
0.00193033
-1.19541e-05
-1.07261e-07
0.00190364
-1.07461e-05
8.10416e-09
0.00187834
-9.26603e-06
-9.9773e-08
0.00185417
-8.45091e-06
-7.36399e-09
0.00183153
-7.29857e-06
-9.52655e-08
0.0018102
-6.64392e-06
-2.34824e-08
0.0017904
-5.6525e-06
-9.74419e-08
0.00177182
-5.06825e-06
-4.33395e-08
0.00175451
-4.21203e-06
-1.05161e-07
0.00173822
-3.69358e-06
-6.40251e-08
0.00172319
-2.91337e-06
-1.1456e-07
0.00170937
-2.38036e-06
-8.35407e-08
0.00169694
-1.67999e-06
-1.25006e-07
0.00168568
-1.27397e-06
-1.03007e-07
0.00167573
-7.47151e-07
-1.37012e-07
0.00166708
-4.47226e-07
-1.21812e-07
0.00165964
-2.36028e-07
-1.47717e-07
0.00165304
-3.38453e-07
-1.37608e-07
0.00164774
-8.6705e-08
-1.57304e-07
0.00164455
7.62621e-07
-1.51705e-07
0.00164379
2.24479e-06
-1.63987e-07
0.00164476
3.50014e-06
-1.60847e-07
0.00164639
4.10336e-06
-1.66735e-07
0.00164769
3.90692e-06
-1.68399e-07
0.00164801
3.33033e-06
-1.71481e-07
0.00164734
2.70905e-06
-1.79859e-07
0.00164574
2.2753e-06
-1.8008e-07
0.00164379
2.04336e-06
-1.9378e-07
0.00164113
1.80112e-06
-1.88814e-07
0.00163856
1.6155e-06
-2.07172e-07
0.00163478
1.28384e-06
-1.96312e-07
0.00163178
9.16507e-07
-2.22008e-07
0.00162663
6.80668e-07
-2.04126e-07
0.001624
-7.8574e-07
-2.39843e-07
0.00161703
-2.56401e-08
-2.13379e-07
0.00161581
-6.62989e-06
-2.60297e-07
0.00160588
-1.06753e-06
-2.31039e-07
0.00161047
-2.61299e-05
-2.84245e-07
0.00159755
-5.76736e-06
-2.90612e-07
0.00163962
-8.93467e-05
-3.67967e-07
-0.000106135
-5.1209e-07
0.0017005
0.00217394
2.40355e-06
0.00203899
1.04101e-06
0.00186259
1.99668e-06
0.00170011
1.10581e-06
0.00154216
1.77815e-06
0.00140136
1.10187e-06
0.00127608
1.61369e-06
0.00116826
1.08004e-06
0.00107635
1.48604e-06
0.000999478
1.06558e-06
0.000935341
1.3954e-06
0.000882631
1.06458e-06
0.000838749
1.33371e-06
0.000802771
1.07197e-06
0.000772298
1.2913e-06
0.000746984
1.08274e-06
0.00072489
1.25945e-06
0.000706143
1.09064e-06
0.000689248
1.23167e-06
0.00067459
1.0944e-06
0.000661032
1.2065e-06
0.000649074
1.09414e-06
0.000637853
1.18228e-06
0.000627886
1.08962e-06
0.000618508
1.15817e-06
0.000610192
1.0816e-06
0.000602397
1.13432e-06
0.000595508
1.07073e-06
0.000589082
1.11009e-06
0.000583477
1.05701e-06
0.000578366
1.08541e-06
0.000573991
1.04108e-06
0.000569996
1.06051e-06
0.000566558
1.02459e-06
0.000563402
1.0384e-06
0.000560482
1.01111e-06
0.000557449
1.01992e-06
0.000554689
9.98996e-07
0.000552773
1.00317e-06
0.000552349
9.89588e-07
0.000553174
9.91574e-07
0.000554602
9.8469e-07
0.000555831
9.82361e-07
0.000556482
9.78826e-07
0.000556516
9.70525e-07
0.000556115
9.70239e-07
0.000555495
9.56921e-07
0.000554629
9.61229e-07
0.000553598
9.42812e-07
0.000552229
9.52234e-07
0.00055052
9.27456e-07
0.000548563
9.43166e-07
0.000545174
9.1141e-07
0.000542528
9.33821e-07
0.000533315
8.99294e-07
0.00052965
9.19082e-07
0.000500934
9.10425e-07
0.000492622
8.75479e-07
0.000400592
1.00538e-06
7.4972e-07
0.000292031
0.00232749
-3.63033e-06
1.36341e-06
0.00226417
6.06867e-05
1.94921e-06
0.00219215
7.08896e-05
1.36744e-06
0.00210549
8.4021e-05
1.78937e-06
0.00201692
8.67981e-05
1.37954e-06
0.0019258
8.83141e-05
1.69975e-06
0.00183589
8.80867e-05
1.38601e-06
0.00174741
8.60899e-05
1.62866e-06
0.00166187
8.39206e-05
1.38025e-06
0.00157942
8.03051e-05
1.56561e-06
0.00150103
7.67911e-05
1.36823e-06
0.00142663
7.23305e-05
1.50992e-06
0.00135717
6.7847e-05
1.35217e-06
0.00129233
6.28762e-05
1.46209e-06
0.00123279
5.79032e-05
1.33729e-06
0.00117783
5.30145e-05
1.42222e-06
0.00112816
4.80469e-05
1.32259e-06
0.00108307
4.33052e-05
1.39024e-06
0.00104319
3.83648e-05
1.31516e-06
0.00100745
3.40564e-05
1.37153e-06
0.000976167
2.97567e-05
1.313e-06
0.000948253
2.6224e-05
1.35557e-06
0.000924092
2.2594e-05
1.30851e-06
0.000902647
1.9746e-05
1.34332e-06
0.00088426
1.6786e-05
1.3105e-06
0.000868153
1.43927e-05
1.34275e-06
0.000854948
1.15539e-05
1.32209e-06
0.000844135
9.0557e-06
1.3506e-06
0.00083609
6.32209e-06
1.33713e-06
0.000830184
4.08593e-06
1.36075e-06
0.000826748
1.63403e-06
1.35311e-06
0.000825013
-1.49829e-07
1.37396e-06
0.000824486
-1.35021e-06
1.3714e-06
0.000823774
-1.22886e-06
1.38757e-06
0.000822533
-6.89406e-07
1.38532e-06
0.000820477
8.49011e-08
1.39498e-06
0.000818103
4.07832e-07
1.39317e-06
0.000815536
5.68338e-07
1.39924e-06
0.000813157
3.75994e-07
1.40034e-06
0.000810964
1.65014e-07
1.40527e-06
0.000809052
-1.21731e-07
1.41028e-06
0.00080724
-2.34831e-07
1.41419e-06
0.000805396
-2.12321e-07
1.4221e-06
0.00080347
-1.35264e-07
1.42376e-06
0.000801311
7.99655e-08
1.43342e-06
0.000799174
5.67122e-08
1.4322e-06
0.000796733
3.33125e-07
1.44393e-06
0.000794575
5.66119e-08
1.44006e-06
0.000792036
4.05285e-07
1.45507e-06
0.000790075
-1.54896e-07
1.44843e-06
0.000787864
5.69226e-08
1.46803e-06
0.000785756
-1.18205e-08
1.45723e-06
0.000785433
-1.84608e-06
1.48247e-06
0.00078147
1.84454e-06
1.4659e-06
0.000788686
-9.39142e-06
1.49556e-06
0.000777517
9.04216e-06
1.47664e-06
0.000808961
-3.35903e-05
1.49495e-06
0.000794253
1.25199e-05
1.50241e-06
0.00087702
-8.4749e-05
1.44222e-06
-0.000131634
1.54989e-06
0.00100631
0.00232156
-3.54079e-06
2.06563e-06
0.00233695
4.08782e-05
2.51464e-06
0.00235515
4.95527e-05
2.04656e-06
0.00236968
6.49565e-05
2.4172e-06
0.0023817
7.09834e-05
2.05398e-06
0.00238824
7.68972e-05
2.34184e-06
0.00239195
8.04087e-05
2.05542e-06
0.00239119
8.23637e-05
2.27508e-06
0.00238788
8.36221e-05
2.04664e-06
0.00238095
8.32154e-05
2.21353e-06
0.00237185
8.24717e-05
2.03095e-06
0.00235994
8.04068e-05
2.15772e-06
0.0023464
7.79942e-05
2.01112e-06
0.00233087
7.46976e-05
2.10713e-06
0.00231434
7.10788e-05
1.99005e-06
0.00229659
6.71337e-05
2.06408e-06
0.00227837
6.2892e-05
1.9717e-06
0.00225946
5.86225e-05
2.02935e-06
0.00224053
5.39877e-05
1.95672e-06
0.00222149
4.96695e-05
2.00212e-06
0.00220285
4.51655e-05
1.94599e-06
0.00218436
4.12874e-05
1.98327e-06
0.00216629
3.73067e-05
1.94195e-06
0.00214855
3.40043e-05
1.97392e-06
0.00213158
3.04775e-05
1.94359e-06
0.00211539
2.73895e-05
1.96893e-06
0.00210025
2.37726e-05
1.94511e-06
0.00208603
2.04045e-05
1.96501e-06
0.00207284
1.67109e-05
1.94871e-06
0.00206057
1.34443e-05
1.96735e-06
0.00204925
9.96687e-06
1.95929e-06
0.00203863
7.3014e-06
1.97722e-06
0.0020287
5.32319e-06
1.97432e-06
0.00201955
4.50766e-06
1.98893e-06
0.00201141
3.98583e-06
1.98784e-06
0.00200411
3.83385e-06
1.99776e-06
0.00199747
3.48894e-06
1.99722e-06
0.0019913
3.14262e-06
2.0024e-06
0.00198563
2.43881e-06
2.00226e-06
0.00198048
1.65685e-06
2.00451e-06
0.00197583
8.40791e-07
2.00778e-06
0.00197152
3.46223e-07
2.01107e-06
0.00196736
2.18922e-07
2.01955e-06
0.00196326
2.55376e-07
2.02216e-06
0.00195895
6.78933e-07
2.03193e-06
0.00195461
7.21637e-07
2.0299e-06
0.00194987
1.35087e-06
2.03972e-06
0.00194541
7.66878e-07
2.03431e-06
0.00194047
1.49647e-06
2.04803e-06
0.00193639
8.33916e-09
2.04196e-06
0.00193147
9.42737e-07
2.06251e-06
0.00192848
-1.08042e-06
2.05404e-06
0.00192329
-7.93425e-07
2.08065e-06
0.00192245
-1.39309e-06
2.06633e-06
0.00191486
-5.94076e-06
2.09641e-06
0.00191911
7.60035e-07
2.0799e-06
0.00190053
-1.90721e-05
2.1056e-06
0.00190659
2.4391e-06
2.11164e-06
0.00185417
-3.64208e-05
2.14447e-06
-1.94955e-05
2.19096e-06
0.00173781
0.00231934
1.23872e-07
1.54676e-06
0.00233025
2.69836e-05
2.0147e-06
0.00234521
3.28767e-05
1.52851e-06
0.00236125
4.57914e-05
1.91884e-06
0.00237945
5.03991e-05
1.53742e-06
0.00239682
5.60533e-05
1.84077e-06
0.00241551
5.91526e-05
1.53927e-06
0.00243329
6.14908e-05
1.77187e-06