/*--------------------------------*- C++ -*----------------------------------*\
  =========                 |
  \\      /  F ield         | OpenFOAM: The Open Source CFD Toolbox
   \\    /   O peration     | Website:  https://openfoam.org
    \\  /    A nd           | Version:  7
     \\/     M anipulation  |
\*---------------------------------------------------------------------------*/
FoamFile
{
    version     2.0;
    format      ascii;
    class       volScalarField;
    location    "0.075";
    object      nut;
}
// * * * * * * * * * * * * * * * * * * * * * * * * * * * * * * * * * * * * * //

dimensions      [0 2 -1 0 0 0 0];

internalField   nonuniform List<scalar> 
27000
(
0.00166983
0.00152073
0.00150641
0.00151121
0.00151435
0.0015189
0.00152249
0.00152645
0.00153005
0.0015337
0.00153717
0.0015406
0.00154388
0.00154706
0.00155009
0.00155297
0.00155568
0.0015582
0.00156054
0.00156269
0.00156468
0.00156654
0.00156833
0.00157004
0.00157167
0.00157323
0.0015747
0.00157603
0.00157726
0.00157851
0.0015798
0.00158098
0.00158208
0.00158333
0.00158457
0.00158542
0.00158612
0.00158741
0.00158895
0.00158977
0.00128709
0.00104617
0.00100901
0.00100959
0.00101124
0.0010136
0.00101525
0.00101686
0.00101815
0.00101934
0.00102036
0.0010213
0.00102216
0.00102297
0.00102375
0.00102449
0.0010252
0.00102589
0.00102655
0.0010272
0.00102782
0.00102843
0.00102902
0.0010296
0.00103017
0.00103073
0.0010313
0.00103186
0.00103241
0.00103296
0.0010335
0.00103404
0.00103457
0.00103514
0.00103574
0.00103634
0.00103683
0.00103742
0.00103808
0.00103874
0.00127882
0.00103868
0.00100056
0.00100211
0.00100349
0.00100633
0.00100813
0.00101023
0.00101189
0.00101356
0.00101502
0.00101643
0.00101771
0.00101894
0.00102009
0.00102119
0.00102224
0.00102326
0.00102423
0.00102516
0.00102606
0.00102692
0.00102775
0.00102854
0.00102931
0.00103005
0.00103075
0.00103141
0.00103206
0.00103268
0.00103325
0.00103378
0.0010343
0.00103482
0.00103527
0.00103572
0.00103615
0.00103665
0.00103706
0.00103748
0.00128255
0.00104153
0.00100506
0.00100597
0.00100806
0.00101078
0.00101281
0.00101479
0.00101642
0.00101792
0.00101921
0.00102038
0.00102142
0.00102236
0.00102322
0.00102401
0.00102473
0.00102539
0.00102599
0.00102655
0.00102707
0.00102754
0.00102798
0.00102838
0.00102875
0.0010291
0.00102941
0.0010297
0.00102996
0.00103019
0.00103039
0.00103057
0.00103072
0.00103085
0.00103098
0.00103108
0.00103117
0.00103125
0.00103134
0.00103146
0.00128113
0.00103986
0.00100322
0.00100458
0.00100705
0.00101017
0.00101257
0.00101496
0.00101697
0.00101886
0.00102052
0.00102206
0.00102345
0.00102474
0.00102593
0.00102704
0.00102807
0.00102902
0.00102991
0.00103074
0.00103152
0.00103224
0.00103291
0.00103354
0.00103412
0.00103466
0.00103516
0.00103562
0.00103605
0.00103644
0.00103679
0.0010371
0.00103738
0.00103763
0.00103785
0.00103804
0.00103823
0.00103841
0.00103854
0.00103867
0.00128117
0.00103993
0.00100332
0.00100463
0.00100714
0.00101025
0.00101266
0.00101504
0.00101706
0.00101894
0.00102061
0.00102216
0.00102355
0.00102485
0.00102604
0.00102716
0.00102819
0.00102915
0.00103005
0.00103089
0.00103167
0.0010324
0.00103308
0.00103371
0.0010343
0.00103485
0.00103536
0.00103583
0.00103627
0.00103667
0.00103703
0.00103734
0.00103764
0.00103791
0.00103813
0.00103832
0.00103853
0.00103874
0.00103886
0.00103898
0.00128247
0.00104142
0.00100496
0.0010059
0.001008
0.00101071
0.00101273
0.00101471
0.00101633
0.00101783
0.00101912
0.00102028
0.00102132
0.00102227
0.00102314
0.00102393
0.00102465
0.00102532
0.00102594
0.00102651
0.00102704
0.00102753
0.00102798
0.00102841
0.0010288
0.00102917
0.00102951
0.00102983
0.00103011
0.00103038
0.00103062
0.00103084
0.00103102
0.00103118
0.00103135
0.0010315
0.00103161
0.00103173
0.00103187
0.00103204
0.00127885
0.00103877
0.00100063
0.0010022
0.00100362
0.00100649
0.00100831
0.00101043
0.00101212
0.00101383
0.00101533
0.00101678
0.00101811
0.0010194
0.00102062
0.0010218
0.00102293
0.00102403
0.00102509
0.00102612
0.00102712
0.00102809
0.00102902
0.00102993
0.00103081
0.00103166
0.00103247
0.00103325
0.00103401
0.00103474
0.00103541
0.00103607
0.00103669
0.00103729
0.00103785
0.00103843
0.00103889
0.00103943
0.00103994
0.00104053
0.00128703
0.00104607
0.00100926
0.00101009
0.00101217
0.00101489
0.00101696
0.00101898
0.00102069
0.0010223
0.00102374
0.00102509
0.00102634
0.00102754
0.00102869
0.00102978
0.00103083
0.00103183
0.00103279
0.00103373
0.00103462
0.00103549
0.00103632
0.00103714
0.00103792
0.00103866
0.00103939
0.00104012
0.00104078
0.0010414
0.00104207
0.00104275
0.00104326
0.00104378
0.00104449
0.00104522
0.00104553
0.00104588
0.00104674
0.00104772
0.00167615
0.00152995
0.00152187
0.00153139
0.00153944
0.00154798
0.00155512
0.00156203
0.00156813
0.00157377
0.00157879
0.00158333
0.00158735
0.00159091
0.00159404
0.00159676
0.00159913
0.00160118
0.00160296
0.00160452
0.00160588
0.00160708
0.00160818
0.00160917
0.00161005
0.00161089
0.00161172
0.00161244
0.00161305
0.00161374
0.00161451
0.00161506
0.00161543
0.00161616
0.00161708
0.00161742
0.00161733
0.00161813
0.00161967
0.00161998
0.000900998
0.000989284
0.000995588
0.000999593
0.00100188
0.00100466
0.0010072
0.00100977
0.00101231
0.00101482
0.00101733
0.00101981
0.00102227
0.00102466
0.00102699
0.00102923
0.00103136
0.00103335
0.0010352
0.0010369
0.00103848
0.00103996
0.00104138
0.00104275
0.00104405
0.00104528
0.0010464
0.00104742
0.00104836
0.00104931
0.00105027
0.00105119
0.00105208
0.00105297
0.00105377
0.00105441
0.00105507
0.00105595
0.00105685
0.00105744
0.000894454
0.00099192
0.000998733
0.00100317
0.00100498
0.00100727
0.0010089
0.00101046
0.00101176
0.00101294
0.00101399
0.00101495
0.00101585
0.00101669
0.0010175
0.00101827
0.00101902
0.00101974
0.00102045
0.00102113
0.00102179
0.00102244
0.00102307
0.00102368
0.00102429
0.0010249
0.0010255
0.00102609
0.00102668
0.00102726
0.00102783
0.00102841
0.00102897
0.00102957
0.0010302
0.00103083
0.00103133
0.00103195
0.00103266
0.00103334
0.000889437
0.000987081
0.000991841
0.000997274
0.000998674
0.00100138
0.00100311
0.00100502
0.0010066
0.00100812
0.00100949
0.00101078
0.001012
0.00101316
0.00101427
0.00101534
0.00101637
0.00101737
0.00101834
0.00101927
0.00102017
0.00102104
0.00102187
0.00102267
0.00102345
0.0010242
0.0010249
0.00102557
0.00102623
0.00102686
0.00102743
0.00102797
0.00102851
0.00102904
0.00102949
0.00102994
0.00103039
0.00103092
0.00103131
0.0010317
0.000892869
0.000989815
0.000997058
0.00100185
0.00100404
0.00100669
0.00100866
0.00101053
0.0010121
0.00101349
0.00101471
0.00101579
0.00101675
0.00101763
0.00101842
0.00101914
0.00101981
0.00102042
0.00102098
0.0010215
0.00102197
0.00102242
0.00102282
0.0010232
0.00102355
0.00102386
0.00102416
0.00102442
0.00102466
0.00102487
0.00102506
0.00102522
0.00102535
0.00102547
0.00102558
0.00102567
0.00102573
0.00102581
0.0010259
0.00102599
0.000891516
0.000988448
0.000995084
0.0010003
0.00100284
0.00100587
0.00100823
0.00101049
0.00101244
0.00101421
0.00101579
0.00101723
0.00101855
0.00101976
0.00102088
0.00102192
0.00102289
0.00102379
0.00102464
0.00102542
0.00102615
0.00102684
0.00102747
0.00102806
0.00102861
0.00102913
0.0010296
0.00103003
0.00103043
0.00103079
0.00103111
0.0010314
0.00103165
0.00103188
0.00103207
0.00103224
0.00103242
0.00103258
0.00103268
0.00103279
0.000891506
0.000988403
0.000995104
0.00100028
0.00100286
0.00100589
0.00100826
0.00101052
0.00101247
0.00101425
0.00101584
0.00101728
0.0010186
0.00101982
0.00102094
0.00102199
0.00102297
0.00102388
0.00102473
0.00102552
0.00102626
0.00102695
0.00102759
0.00102819
0.00102875
0.00102928
0.00102976
0.00103019
0.0010306
0.00103098
0.00103131
0.0010316
0.00103187
0.00103212
0.00103231
0.00103248
0.00103267
0.00103286
0.00103295
0.00103304
0.000892877
0.000989811
0.000997039
0.00100185
0.00100403
0.00100668
0.00100863
0.0010105
0.00101205
0.00101344
0.00101465
0.00101573
0.0010167
0.00101757
0.00101837
0.0010191
0.00101977
0.00102039
0.00102096
0.00102149
0.00102199
0.00102244
0.00102287
0.00102327
0.00102363
0.00102398
0.00102429
0.00102459
0.00102485
0.0010251
0.00102532
0.00102552
0.00102569
0.00102584
0.00102599
0.00102613
0.00102622
0.00102633
0.00102648
0.00102663
0.000889404
0.000987052
0.000991797
0.000997293
0.000998704
0.00100144
0.00100319
0.00100513
0.00100674
0.0010083
0.00100971
0.00101105
0.00101232
0.00101354
0.00101472
0.00101586
0.00101698
0.00101807
0.00101912
0.00102015
0.00102115
0.00102213
0.00102307
0.00102399
0.00102488
0.00102574
0.00102656
0.00102735
0.00102812
0.00102886
0.00102954
0.00103021
0.00103084
0.00103146
0.00103201
0.00103258
0.00103309
0.00103366
0.00103413
0.00103467
0.000894353
0.000991931
0.000999162
0.00100393
0.00100618
0.00100885
0.00101091
0.00101287
0.00101458
0.00101614
0.00101758
0.00101892
0.00102018
0.00102139
0.00102254
0.00102366
0.00102473
0.00102576
0.00102677
0.00102774
0.00102867
0.00102957
0.00103045
0.00103131
0.00103213
0.00103291
0.00103368
0.00103445
0.00103514
0.00103579
0.00103649
0.0010372
0.00103774
0.0010383
0.00103904
0.00103978
0.0010401
0.0010405
0.00104141
0.00104239
0.000903746
0.000997253
0.00100895
0.00101753
0.00102407
0.0010304
0.00103609
0.00104125
0.00104596
0.00105018
0.00105399
0.00105738
0.00106039
0.00106302
0.00106532
0.00106729
0.00106899
0.00107044
0.00107167
0.00107272
0.00107361
0.00107439
0.00107508
0.00107568
0.0010762
0.0010767
0.00107717
0.00107756
0.00107791
0.00107831
0.00107871
0.00107898
0.00107924
0.00107967
0.0010801
0.00108021
0.00108029
0.00108083
0.00108148
0.00108144
9.42265e-05
0.000148441
0.000162497
0.000167474
0.000169317
0.00017019
0.000170856
0.000171317
0.000171786
0.000172169
0.000172552
0.000172886
0.000173209
0.000173497
0.000173768
0.000174011
0.000174232
0.000174427
0.000174598
0.000174747
0.000174876
0.00017499
0.000175093
0.000175186
0.000175268
0.000175339
0.000175399
0.000175448
0.00017549
0.000175534
0.000175579
0.000175623
0.000175668
0.000175715
0.000175754
0.00017578
0.000175812
0.000175861
0.000175907
0.000175923
7.51558e-05
0.000185721
0.00019534
0.000206801
0.000207804
0.000208986
0.000209469
0.000209394
0.000209353
0.000209057
0.000208785
0.000208348
0.000208024
0.000207662
0.000207386
0.000207129
0.000206933
0.000206766
0.00020664
0.000206537
0.000206462
0.000206405
0.000206364
0.000206329
0.000206301
0.000206277
0.000206258
0.000206246
0.000206247
0.000206263
0.000206284
0.0002063
0.000206318
0.000206352
0.000206388
0.000206428
0.000206489
0.000206579
0.00020664
0.00020667
7.31411e-05
0.000161664
0.000161914
0.000165056
0.000164415
0.000164514
0.000164777
0.000165166
0.000165508
0.00016581
0.000166077
0.000166308
0.000166517
0.000166702
0.000166874
0.000167032
0.00016718
0.000167318
0.000167449
0.000167573
0.00016769
0.000167801
0.000167905
0.000168003
0.000168096
0.000168182
0.000168261
0.000168335
0.000168405
0.00016847
0.000168526
0.000168581
0.000168636
0.000168684
0.000168724
0.000168769
0.000168823
0.000168876
0.000168911
0.000168953
7.30945e-05
0.000174565
0.000179449
0.000190394
0.000191465
0.000193019
0.000193734
0.000193828
0.000194012
0.000193857
0.000193724
0.000193412
0.000193159
0.000192828
0.000192556
0.000192271
0.000192029
0.0001918
0.000191603
0.000191423
0.000191267
0.000191126
0.000190998
0.000190878
0.000190763
0.000190653
0.000190548
0.00019045
0.000190356
0.000190265
0.000190177
0.000190088
0.000189994
0.000189899
0.000189817
0.000189748
0.000189677
0.000189593
0.000189522
0.000189468
7.28657e-05
0.000168848
0.000169645
0.000177801
0.000179037
0.00018066
0.000181362
0.000181418
0.000181557
0.000181372
0.000181205
0.000180833
0.000180529
0.000180138
0.000179816
0.000179485
0.00017921
0.000178956
0.000178745
0.000178559
0.000178403
0.000178267
0.00017815
0.000178044
0.000177945
0.000177848
0.000177753
0.000177659
0.00017757
0.000177485
0.000177403
0.000177325
0.000177244
0.000177152
0.000177062
0.000176988
0.000176926
0.000176841
0.000176759
0.000176702
7.28638e-05
0.000168607
0.000169336
0.00017742
0.000178662
0.000180278
0.000180968
0.000181006
0.000181109
0.000180902
0.000180701
0.000180276
0.000179931
0.0001795
0.000179137
0.00017877
0.000178461
0.000178178
0.000177943
0.000177737
0.000177567
0.000177419
0.000177293
0.00017718
0.000177078
0.000176981
0.000176889
0.000176803
0.000176723
0.000176644
0.000176562
0.000176484
0.000176407
0.000176323
0.000176234
0.000176171
0.00017612
0.000176043
0.00017594
0.000175867
7.30966e-05
0.000174787
0.000179763
0.000190779
0.000191857
0.00019342
0.000194152
0.000194264
0.000194479
0.000194343
0.000194236
0.000193964
0.000193739
0.000193436
0.000193188
0.000192924
0.000192701
0.000192487
0.000192303
0.000192133
0.000191985
0.000191849
0.000191726
0.00019161
0.0001915
0.000191393
0.000191292
0.000191195
0.0001911
0.000191008
0.000190922
0.000190839
0.000190752
0.000190661
0.000190587
0.000190523
0.000190453
0.00019036
0.000190301
0.000190273
7.34346e-05
0.000161349
0.000161752
0.000164801
0.000164321
0.000164469
0.000164792
0.000165191
0.000165538
0.000165844
0.000166112
0.000166343
0.00016655
0.000166735
0.000166907
0.000167065
0.000167215
0.000167358
0.000167494
0.000167624
0.000167749
0.000167869
0.000167983
0.000168093
0.000168199
0.000168299
0.000168394
0.000168484
0.000168571
0.000168651
0.000168725
0.000168798
0.000168867
0.000168931
0.00016899
0.000169052
0.000169116
0.000169181
0.000169233
0.000169294
7.52805e-05
0.000185964
0.000195741
0.00020727
0.000208395
0.000209677
0.000210305
0.000210318
0.000210385
0.000210189
0.000210018
0.000209676
0.00020944
0.000209161
0.000208961
0.000208775
0.000208647
0.000208544
0.00020848
0.000208438
0.00020842
0.000208419
0.000208428
0.000208447
0.000208469
0.000208496
0.000208527
0.000208559
0.00020859
0.000208631
0.00020868
0.000208722
0.000208754
0.00020881
0.000208882
0.000208933
0.000208957
0.000209034
0.000209132
0.000209193
9.4359e-05
0.000149356
0.000164118
0.000169727
0.000172156
0.00017353
0.000174623
0.000175427
0.00017617
0.000176764
0.000177306
0.00017775
0.000178143
0.000178469
0.000178749
0.000178979
0.000179169
0.000179321
0.000179442
0.000179535
0.000179605
0.000179657
0.000179694
0.000179717
0.00017973
0.000179736
0.000179735
0.000179727
0.000179715
0.000179709
0.000179699
0.000179679
0.000179666
0.000179666
0.000179661
0.000179629
0.000179611
0.000179625
0.000179629
0.000179573
8.17808e-06
2.19956e-05
3.18453e-05
4.11856e-05
4.72631e-05
5.17905e-05
5.48707e-05
5.70086e-05
5.84853e-05
5.94844e-05
6.01862e-05
6.06605e-05
6.10016e-05
6.12372e-05
6.14127e-05
6.15394e-05
6.16379e-05
6.17129e-05
6.17734e-05
6.18213e-05
6.18608e-05
6.18926e-05
6.19181e-05
6.1938e-05
6.1953e-05
6.19621e-05
6.19671e-05
6.19672e-05
6.19643e-05
6.19557e-05
6.19403e-05
6.19238e-05
6.19048e-05
6.18817e-05
6.18542e-05
6.18233e-05
6.17895e-05
6.17518e-05
6.17095e-05
6.16641e-05
3.23957e-06
1.56339e-05
2.02451e-05
2.74369e-05
3.07048e-05
3.3782e-05
3.55775e-05
3.69911e-05
3.78859e-05
3.85277e-05
3.89442e-05
3.92134e-05
3.93807e-05
3.94763e-05
3.95264e-05
3.95478e-05
3.95471e-05
3.9542e-05
3.95312e-05
3.95187e-05
3.95052e-05
3.94904e-05
3.94764e-05
3.94635e-05
3.94524e-05
3.9443e-05
3.94356e-05
3.9432e-05
3.94302e-05
3.94305e-05
3.94322e-05
3.94361e-05
3.94416e-05
3.94487e-05
3.94591e-05
3.94731e-05
3.94884e-05
3.95024e-05
3.95159e-05
3.95315e-05
2.81455e-06
1.30023e-05
1.62901e-05
2.16603e-05
2.38008e-05
2.62455e-05
2.75882e-05
2.88219e-05
2.96253e-05
3.02847e-05
3.07506e-05
3.11125e-05
3.13785e-05
3.15798e-05
3.17307e-05
3.1844e-05
3.19301e-05
3.19948e-05
3.20448e-05
3.20822e-05
3.21112e-05
3.21328e-05
3.21486e-05
3.21605e-05
3.21675e-05
3.21723e-05
3.21726e-05
3.21717e-05
3.21694e-05
3.21648e-05
3.21582e-05
3.21505e-05
3.21416e-05
3.21309e-05
3.21193e-05
3.21081e-05
3.20962e-05
3.20806e-05
3.20636e-05
3.2048e-05
3.08695e-06
1.45874e-05
1.84983e-05
2.4921e-05
2.77095e-05
3.06177e-05
3.22614e-05
3.36199e-05
3.44807e-05
3.51199e-05
3.55404e-05
3.58226e-05
3.60038e-05
3.61099e-05
3.61683e-05
3.61907e-05
3.61878e-05
3.61769e-05
3.61548e-05
3.61261e-05
3.60951e-05
3.60628e-05
3.60304e-05
3.59978e-05
3.59656e-05
3.59341e-05
3.59035e-05
3.58741e-05
3.58455e-05
3.58173e-05
3.57891e-05
3.57606e-05
3.57321e-05
3.57046e-05
3.5679e-05
3.5654e-05
3.56278e-05
3.56004e-05
3.55739e-05
3.55478e-05
2.92678e-06
1.38514e-05
1.73738e-05
2.32525e-05
2.56693e-05
2.84644e-05
3.00099e-05
3.13546e-05
3.22047e-05
3.28598e-05
3.32958e-05
3.36004e-05
3.37984e-05
3.39244e-05
3.39947e-05
3.40331e-05
3.40393e-05
3.40339e-05
3.40208e-05
3.39981e-05
3.39722e-05
3.39441e-05
3.39154e-05
3.38862e-05
3.38568e-05
3.38271e-05
3.37976e-05
3.37684e-05
3.37397e-05
3.37114e-05
3.36832e-05
3.36545e-05
3.36249e-05
3.35948e-05
3.35656e-05
3.35371e-05
3.35081e-05
3.34777e-05
3.34477e-05
3.34179e-05
2.91797e-06
1.38137e-05
1.73258e-05
2.31882e-05
2.55941e-05
2.83841e-05
2.99247e-05
3.12661e-05
3.21122e-05
3.27627e-05
3.31954e-05
3.34942e-05
3.36872e-05
3.38072e-05
3.38719e-05
3.39052e-05
3.39045e-05
3.38967e-05
3.38791e-05
3.38527e-05
3.38234e-05
3.37924e-05
3.37615e-05
3.37305e-05
3.37e-05
3.36699e-05
3.36405e-05
3.36119e-05
3.35837e-05
3.35556e-05
3.35274e-05
3.34993e-05
3.34708e-05
3.34422e-05
3.34144e-05
3.33875e-05
3.33592e-05
3.33287e-05
3.32984e-05
3.32699e-05
3.09399e-06
1.46212e-05
1.85478e-05
2.4992e-05
2.77935e-05
3.07088e-05
3.23583e-05
3.3721e-05
3.45862e-05
3.52304e-05
3.56541e-05
3.59423e-05
3.61274e-05
3.62402e-05
3.63012e-05
3.63313e-05
3.63304e-05
3.63225e-05
3.63051e-05
3.62793e-05
3.62505e-05
3.62199e-05
3.6189e-05
3.61579e-05
3.61268e-05
3.6096e-05
3.60658e-05
3.60362e-05
3.60071e-05
3.59787e-05
3.59507e-05
3.59228e-05
3.58947e-05
3.58672e-05
3.58413e-05
3.58157e-05
3.57888e-05
3.57615e-05
3.57367e-05
3.57123e-05
2.82263e-06
1.29738e-05
1.62547e-05
2.16101e-05
2.37527e-05
2.62008e-05
2.755e-05
2.87885e-05
2.95951e-05
3.02563e-05
3.07231e-05
3.10849e-05
3.13501e-05
3.15501e-05
3.16995e-05
3.18111e-05
3.18955e-05
3.19587e-05
3.20073e-05
3.20438e-05
3.20721e-05
3.20935e-05
3.21093e-05
3.21212e-05
3.21294e-05
3.21343e-05
3.21368e-05
3.21365e-05
3.21354e-05
3.21328e-05
3.21278e-05
3.21218e-05
3.21147e-05
3.21059e-05
3.2096e-05
3.20871e-05
3.20771e-05
3.20638e-05
3.20475e-05
3.20331e-05
3.24888e-06
1.56662e-05
2.02996e-05
2.75182e-05
3.08051e-05
3.39014e-05
3.57189e-05
3.71496e-05
3.80628e-05
3.87226e-05
3.91563e-05
3.94416e-05
3.96247e-05
3.97338e-05
3.97988e-05
3.983e-05
3.98462e-05
3.98472e-05
3.98453e-05
3.98401e-05
3.98321e-05
3.98238e-05
3.98165e-05
3.98102e-05
3.98057e-05
3.9802e-05
3.98006e-05
3.98011e-05
3.98029e-05
3.98072e-05
3.98136e-05
3.98208e-05
3.98293e-05
3.98396e-05
3.98518e-05
3.98655e-05
3.98802e-05
3.98954e-05
3.9911e-05
3.99276e-05
8.18078e-06
2.20509e-05
3.19171e-05
4.13279e-05
4.74392e-05
5.20097e-05
5.51159e-05
5.72793e-05
5.87737e-05
5.97881e-05
6.05012e-05
6.09845e-05
6.13319e-05
6.15717e-05
6.17493e-05
6.18763e-05
6.19737e-05
6.20462e-05
6.21035e-05
6.21471e-05
6.21817e-05
6.22073e-05
6.22271e-05
6.22401e-05
6.22474e-05
6.22518e-05
6.22503e-05
6.22445e-05
6.2232e-05
6.22162e-05
6.21974e-05
6.21751e-05
6.21495e-05
6.21201e-05
6.20865e-05
6.20497e-05
6.20108e-05
6.19682e-05
6.19199e-05
6.18679e-05
6.4865e-06
1.52494e-05
2.39491e-05
3.15302e-05
3.7869e-05
4.2804e-05
4.65298e-05
4.92438e-05
5.12516e-05
5.27052e-05
5.37758e-05
5.45385e-05
5.50889e-05
5.54742e-05
5.57502e-05
5.59441e-05
5.60837e-05
5.61821e-05
5.62527e-05
5.6302e-05
5.63371e-05
5.6361e-05
5.63776e-05
5.63882e-05
5.63945e-05
5.63977e-05
5.6399e-05
5.63982e-05
5.63953e-05
5.63896e-05
5.6382e-05
5.63744e-05
5.6367e-05
5.63591e-05
5.63503e-05
5.63406e-05
5.63301e-05
5.6319e-05
5.63071e-05
5.62944e-05
3.92866e-07
8.3415e-07
1.44998e-06
2.40718e-06
3.23943e-06
4.34847e-06
5.28477e-06
6.21312e-06
7.02264e-06
7.78056e-06
8.46244e-06
9.08625e-06
9.63965e-06
1.01273e-05
1.05499e-05
1.09198e-05
1.12474e-05
1.1542e-05
1.18058e-05
1.20372e-05
1.2237e-05
1.24089e-05
1.25586e-05
1.26926e-05
1.28144e-05
1.2925e-05
1.30231e-05
1.3107e-05
1.31776e-05
1.3239e-05
1.32941e-05
1.33458e-05
1.33971e-05
1.34472e-05
1.34934e-05
1.35334e-05
1.35657e-05
1.35901e-05
1.36076e-05
1.362e-05
3.73361e-07
6.25868e-07
9.47217e-07
1.51975e-06
1.84681e-06
2.38987e-06
2.7549e-06
3.18891e-06
3.53735e-06
3.89378e-06
4.20239e-06
4.49216e-06
4.75487e-06
5.00465e-06
5.23423e-06
5.44241e-06
5.62979e-06
5.80371e-06
5.96828e-06
6.12238e-06
6.26282e-06
6.38758e-06
6.49882e-06
6.60242e-06
6.70267e-06
6.7995e-06
6.88895e-06
6.96718e-06
7.03359e-06
7.08969e-06
7.14096e-06
7.19337e-06
7.24922e-06
7.30758e-06
7.3634e-06
7.40847e-06
7.4365e-06
7.4475e-06
7.44882e-06
7.44872e-06
3.75256e-07
6.74517e-07
1.04807e-06
1.70847e-06
2.10109e-06
2.74025e-06
3.18103e-06
3.6895e-06
4.09597e-06
4.50232e-06
4.85313e-06
5.17693e-06
5.46292e-06
5.72898e-06
5.97091e-06
6.18902e-06
6.38163e-06
6.55579e-06
6.71663e-06
6.86567e-06
7.00061e-06
7.11955e-06
7.22383e-06
7.31808e-06
7.4069e-06
7.49153e-06
7.56999e-06
7.63911e-06
7.69623e-06
7.74223e-06
7.78244e-06
7.82286e-06
7.86777e-06
7.91652e-06
7.96154e-06
7.99337e-06
8.00798e-06
8.01056e-06
8.0104e-06
8.0099e-06
3.74099e-07
6.51142e-07
9.9823e-07
1.61321e-06
1.96958e-06
2.5597e-06
2.96114e-06
3.43713e-06
3.81477e-06
4.19812e-06
4.52915e-06
4.83667e-06
5.10888e-06
5.36449e-06
5.59776e-06
5.80838e-06
5.99474e-06
6.16396e-06
6.32154e-06
6.46826e-06
6.60115e-06
6.71818e-06
6.82113e-06
6.915e-06
7.00425e-06
7.0897e-06
7.16893e-06
7.23841e-06
7.29544e-06
7.34163e-06
7.38289e-06
7.42544e-06
7.4732e-06
7.52426e-06
7.57006e-06
7.60131e-06
7.61489e-06
7.61697e-06
7.61679e-06
7.61632e-06
3.74032e-07
6.49852e-07
9.95707e-07
1.60877e-06
1.96393e-06
2.55206e-06
2.95276e-06
3.42686e-06
3.80359e-06
4.18595e-06
4.51628e-06
4.82274e-06
5.0941e-06
5.34898e-06
5.58151e-06
5.79142e-06
5.97692e-06
6.1455e-06
6.3025e-06
6.4486e-06
6.58084e-06
6.69724e-06
6.79964e-06
6.89301e-06
6.98188e-06
7.06706e-06
7.14605e-06
7.21519e-06
7.2718e-06
7.3176e-06
7.3587e-06
7.40131e-06
7.44921e-06
7.50029e-06
7.54594e-06
7.57691e-06
7.59026e-06
7.59225e-06
7.59207e-06
7.59163e-06
3.75315e-07
6.75759e-07
1.0506e-06
1.71318e-06
2.1073e-06
2.74887e-06
3.1907e-06
3.70128e-06
4.10889e-06
4.51662e-06
4.86822e-06
5.19338e-06
5.48024e-06
5.74726e-06
5.98991e-06
6.20895e-06
6.40237e-06
6.57713e-06
6.7386e-06
6.88823e-06
7.02371e-06
7.14313e-06
7.24791e-06
7.34261e-06
7.43176e-06
7.5166e-06
7.59522e-06
7.66457e-06
7.722e-06
7.7683e-06
7.80871e-06
7.84916e-06
7.89395e-06
7.94255e-06
7.98759e-06
8.01967e-06
8.03462e-06
8.03737e-06
8.03723e-06
8.03676e-06
3.73414e-07
6.25071e-07
9.45488e-07
1.51641e-06
1.84287e-06
2.38505e-06
2.74967e-06
3.18373e-06
3.53229e-06
3.88868e-06
4.19746e-06
4.48757e-06
4.75039e-06
5.00021e-06
5.22996e-06
5.43836e-06
5.62582e-06
5.79969e-06
5.96421e-06
6.11849e-06
6.259e-06
6.38389e-06
6.49514e-06
6.59868e-06
6.69901e-06
6.7959e-06
6.88552e-06
6.96391e-06
7.03045e-06
7.08672e-06
7.1381e-06
7.19063e-06
7.24661e-06
7.30507e-06
7.36102e-06
7.40638e-06
7.43489e-06
7.44641e-06
7.44791e-06
7.44785e-06
3.92947e-07
8.35317e-07
1.4523e-06
2.41168e-06
3.24515e-06
4.35663e-06
5.29481e-06
6.22569e-06
7.03678e-06
7.79656e-06
8.48036e-06
9.10637e-06
9.66106e-06
1.01501e-05
1.05741e-05
1.09451e-05
1.12744e-05
1.15697e-05
1.18345e-05
1.20669e-05
1.22675e-05
1.24404e-05
1.25907e-05
1.27259e-05
1.28482e-05
1.29594e-05
1.30582e-05
1.31428e-05
1.32144e-05
1.32766e-05
1.33321e-05
1.33847e-05
1.34366e-05
1.34864e-05
1.35323e-05
1.35728e-05
1.3606e-05
1.3631e-05
1.36486e-05
1.36611e-05
6.4865e-06
1.52508e-05
2.39488e-05
3.15312e-05
3.78708e-05
4.28069e-05
4.65332e-05
4.92477e-05
5.12558e-05
5.27099e-05
5.37807e-05
5.45437e-05
5.50941e-05
5.54796e-05
5.57557e-05
5.59495e-05
5.6089e-05
5.61874e-05
5.62579e-05
5.63071e-05
5.6342e-05
5.63657e-05
5.63821e-05
5.63926e-05
5.63986e-05
5.64013e-05
5.64032e-05
5.64024e-05
5.63989e-05
5.63913e-05
5.63843e-05
5.63771e-05
5.63696e-05
5.63613e-05
5.63521e-05
5.6342e-05
5.63312e-05
5.63198e-05
5.63077e-05
5.62947e-05
6.48463e-06
1.52602e-05
2.38816e-05
3.142e-05
3.77096e-05
4.26341e-05
4.63151e-05
4.90108e-05
5.09863e-05
5.24286e-05
5.34807e-05
5.42333e-05
5.47679e-05
5.51404e-05
5.54008e-05
5.55804e-05
5.57046e-05
5.57878e-05
5.58431e-05
5.58769e-05
5.58955e-05
5.59056e-05
5.59054e-05
5.59019e-05
5.5893e-05
5.58798e-05
5.58658e-05
5.58503e-05
5.58332e-05
5.58149e-05
5.57956e-05
5.57758e-05
5.57555e-05
5.57348e-05
5.57138e-05
5.56926e-05
5.56712e-05
5.56494e-05
5.56274e-05
5.56049e-05
3.80525e-07
5.60192e-07
9.6434e-07
1.53183e-06
2.28016e-06
3.10768e-06
3.92677e-06
4.69112e-06
5.39607e-06
6.05123e-06
6.66698e-06
7.24012e-06
7.76213e-06
8.22412e-06
8.62689e-06
8.98312e-06
9.30723e-06
9.60735e-06
9.88177e-06
1.01252e-05
1.03353e-05
1.05175e-05
1.06786e-05
1.0827e-05
1.09655e-05
1.10934e-05
1.12067e-05
1.13031e-05
1.13846e-05
1.14551e-05
1.15196e-05
1.15836e-05
1.16472e-05
1.17094e-05
1.17678e-05
1.18171e-05
1.18538e-05
1.18796e-05
1.18965e-05
1.19058e-05
3.63723e-07
3.63962e-07
3.65324e-07
3.69978e-07
3.79495e-07
4.00396e-07
4.29015e-07
4.70406e-07
5.16503e-07
5.77449e-07
6.42317e-07
7.09189e-07
7.79892e-07
8.57763e-07
9.35681e-07
1.00769e-06
1.07534e-06
1.14662e-06
1.22504e-06
1.30559e-06
1.3795e-06
1.4426e-06
1.49987e-06
1.55987e-06
1.62889e-06
1.70195e-06
1.77196e-06
1.83094e-06
1.87913e-06
1.92086e-06
1.9647e-06
2.01711e-06
2.07892e-06
2.14561e-06
2.21066e-06
2.2649e-06
2.30489e-06
2.32857e-06
2.33819e-06
2.34023e-06
3.63716e-07
3.63965e-07
3.65194e-07
3.69792e-07
3.76912e-07
3.93374e-07
4.10514e-07
4.40149e-07
4.67227e-07
5.06361e-07
5.47274e-07
5.88096e-07
6.27274e-07
6.72575e-07
7.21623e-07
7.68631e-07
8.10291e-07
8.511e-07
8.9588e-07
9.44275e-07
9.90917e-07
1.03151e-06
1.06708e-06
1.10295e-06
1.14356e-06
1.18825e-06
1.23181e-06
1.26915e-06
1.29863e-06
1.32344e-06
1.35002e-06
1.38345e-06
1.42403e-06
1.46768e-06
1.50765e-06
1.53782e-06
1.55568e-06
1.56292e-06
1.56393e-06
1.56392e-06
3.63714e-07
3.63921e-07
3.64994e-07
3.69072e-07
3.75286e-07
3.89798e-07
4.04552e-07
4.30702e-07
4.54447e-07
4.89534e-07
5.26172e-07
5.62633e-07
5.98009e-07
6.39724e-07
6.84958e-07
7.27919e-07
7.65875e-07
8.03637e-07
8.45673e-07
8.9102e-07
9.34204e-07
9.7148e-07
1.00443e-06
1.03836e-06
1.07709e-06
1.1194e-06
1.16007e-06
1.19434e-06
1.22108e-06
1.24413e-06
1.26995e-06
1.30274e-06
1.34213e-06
1.38346e-06
1.41992e-06
1.44603e-06
1.46028e-06
1.46501e-06
1.46537e-06
1.46536e-06
3.63713e-07
3.63919e-07
3.64984e-07
3.69037e-07
3.75214e-07
3.89596e-07
4.04398e-07
4.303e-07
4.53876e-07
4.88897e-07
5.25433e-07
5.6165e-07
5.96854e-07
6.3845e-07
6.83566e-07
7.2635e-07
7.64104e-07
8.01713e-07
8.43635e-07
8.88863e-07
9.3189e-07
9.68998e-07
1.00176e-06
1.03554e-06
1.07419e-06
1.11641e-06
1.15697e-06
1.19104e-06
1.21758e-06
1.24047e-06
1.26626e-06
1.29906e-06
1.33841e-06
1.37963e-06
1.41587e-06
1.44175e-06
1.45576e-06
1.46035e-06
1.46065e-06
1.46064e-06
3.63717e-07
3.63968e-07
3.65205e-07
3.6983e-07
3.76993e-07
3.93608e-07
4.10697e-07
4.40627e-07
4.67876e-07
5.07132e-07
5.4817e-07
5.89269e-07
6.28667e-07
6.74082e-07
7.23284e-07
7.70527e-07
8.124e-07
8.53365e-07
8.98287e-07
9.46836e-07
9.9365e-07
1.03444e-06
1.0702e-06
1.10622e-06
1.14693e-06
1.19169e-06
1.23541e-06
1.27292e-06
1.30264e-06
1.32758e-06
1.35423e-06
1.38769e-06
1.42827e-06
1.472e-06
1.51215e-06
1.54255e-06
1.5607e-06
1.56812e-06
1.56922e-06
1.56922e-06
3.63723e-07
3.63961e-07
3.65317e-07
3.69956e-07
3.79446e-07
4.00248e-07
4.28825e-07
4.7041e-07
5.16272e-07
5.7695e-07
6.42036e-07
7.09063e-07
7.79507e-07
8.57199e-07
9.35345e-07
1.0074e-06
1.07486e-06
1.14606e-06
1.22458e-06
1.30514e-06
1.37889e-06
1.44198e-06
1.4994e-06
1.5594e-06
1.6282e-06
1.70128e-06
1.77153e-06
1.83048e-06
1.87856e-06
1.92032e-06
1.96434e-06
2.01664e-06
2.07832e-06
2.14506e-06
2.20987e-06
2.2646e-06
2.30448e-06
2.32803e-06
2.33704e-06
2.33973e-06
3.80526e-07
5.60198e-07
9.64348e-07
1.53182e-06
2.28009e-06
3.10744e-06
3.92687e-06
4.69165e-06
5.3963e-06
6.05141e-06
6.66725e-06
7.24073e-06
7.7625e-06
8.22436e-06
8.62731e-06
8.98351e-06
9.30751e-06
9.60744e-06
9.88192e-06
1.01253e-05
1.03355e-05
1.05172e-05
1.06788e-05
1.08271e-05
1.09657e-05
1.10935e-05
1.12071e-05
1.13041e-05
1.13853e-05
1.14558e-05
1.15212e-05
1.15845e-05
1.16481e-05
1.17106e-05
1.1768e-05
1.18169e-05
1.18547e-05
1.18801e-05
1.18962e-05
1.19056e-05
6.48463e-06
1.52605e-05
2.3882e-05
3.14199e-05
3.77094e-05
4.2634e-05
4.63152e-05
4.90109e-05
5.09864e-05
5.24287e-05
5.34808e-05
5.42334e-05
5.4768e-05
5.51405e-05
5.54009e-05
5.55805e-05
5.57047e-05
5.57879e-05
5.58431e-05
5.5877e-05
5.58955e-05
5.59056e-05
5.59053e-05
5.59019e-05
5.5893e-05
5.58798e-05
5.58659e-05
5.58504e-05
5.58333e-05
5.58149e-05
5.57957e-05
5.57758e-05
5.57555e-05
5.57348e-05
5.57138e-05
5.56925e-05
5.5671e-05
5.56492e-05
5.56272e-05
5.56047e-05
6.48487e-06
1.52503e-05
2.38744e-05
3.14076e-05
3.76866e-05
4.25995e-05
4.62639e-05
4.89481e-05
5.0908e-05
5.23391e-05
5.33763e-05
5.41168e-05
5.46372e-05
5.49975e-05
5.52446e-05
5.54124e-05
5.55234e-05
5.55959e-05
5.56378e-05
5.56603e-05
5.56684e-05
5.56656e-05
5.56566e-05
5.56387e-05
5.56186e-05
5.55962e-05
5.55715e-05
5.5545e-05
5.55172e-05
5.54884e-05
5.5459e-05
5.54291e-05
5.53989e-05
5.53685e-05
5.53379e-05
5.53072e-05
5.52763e-05
5.52453e-05
5.52142e-05
5.51827e-05
3.80454e-07
5.59832e-07
9.63785e-07
1.53086e-06
2.27949e-06
3.10551e-06
3.92314e-06
4.68558e-06
5.38784e-06
6.04203e-06
6.6552e-06
7.22601e-06
7.74493e-06
8.20334e-06
8.60276e-06
8.95605e-06
9.27753e-06
9.57539e-06
9.84699e-06
1.00871e-05
1.02943e-05
1.04732e-05
1.06317e-05
1.07779e-05
1.09148e-05
1.10407e-05
1.11513e-05
1.12446e-05
1.13233e-05
1.13913e-05
1.14545e-05
1.15166e-05
1.15788e-05
1.16404e-05
1.16961e-05
1.1742e-05
1.17758e-05
1.17982e-05
1.18116e-05
1.18164e-05
3.63929e-07
3.63442e-07
3.63656e-07
3.64873e-07
3.68605e-07
3.76897e-07
3.93742e-07
4.18613e-07
4.49299e-07
4.89062e-07
5.36323e-07
5.88333e-07
6.45323e-07
7.06481e-07
7.67372e-07
8.24071e-07
8.79095e-07
9.38607e-07
1.00475e-06
1.07196e-06
1.13241e-06
1.18343e-06
1.23027e-06
1.2813e-06
1.34087e-06
1.40388e-06
1.46254e-06
1.51175e-06
1.55067e-06
1.58594e-06
1.62431e-06
1.67097e-06
1.72622e-06
1.78487e-06
1.84108e-06
1.88825e-06
1.92191e-06
1.9418e-06
1.95037e-06
1.95175e-06
3.63853e-07
3.63483e-07
3.63121e-07
3.6272e-07
3.62253e-07
3.62055e-07
3.6187e-07