/*--------------------------------*- C++ -*----------------------------------*\
  =========                 |
  \\      /  F ield         | OpenFOAM: The Open Source CFD Toolbox
   \\    /   O peration     | Website:  https://openfoam.org
    \\  /    A nd           | Version:  7
     \\/     M anipulation  |
\*---------------------------------------------------------------------------*/
FoamFile
{
    version     2.0;
    format      ascii;
    class       surfaceScalarField;
    location    "2.94";
    object      phi_0;
}
// * * * * * * * * * * * * * * * * * * * * * * * * * * * * * * * * * * * * * //

dimensions      [1 0 -1 0 0 0 0];

internalField   nonuniform List<scalar> 
21708
(
0.00129457
0.00100257
1.36638e-05
0.000897355
0.000390867
6.25461e-06
0.000688274
0.000197252
1.17304e-05
0.000598692
8.27213e-05
6.76434e-06
0.000546626
4.1103e-05
1.08677e-05
0.00051593
2.36309e-05
6.97085e-06
0.000492618
1.30524e-05
1.01666e-05
0.000476275
9.14067e-06
7.11026e-06
0.000461806
4.77351e-06
9.60409e-06
0.000451083
3.44027e-06
7.19129e-06
0.000440884
9.85954e-07
9.12179e-06
0.000433211
3.68936e-07
7.21217e-06
0.000425588
-1.16193e-06
8.69166e-06
0.00041983
-1.51764e-06
7.18193e-06
0.000413883
-2.44356e-06
8.29649e-06
0.000409151
-2.47314e-06
7.11094e-06
0.000402907
-1.77424e-06
7.92226e-06
0.000399149
-3.34441e-06
7.00702e-06
0.000346944
4.44392e-05
7.67039e-06
2.44871e-05
6.5702e-06
0.000315791
0.00224827
0.00106181
2.91784e-06
0.0020585
0.000584404
-3.8691e-06
0.00185429
0.000399655
1.70531e-06
0.0017119
0.000228137
-3.12483e-06
0.00160919
0.000142659
1.06423e-06
0.00153906
9.64557e-05
-2.79063e-06
0.0014836
6.79914e-05
4.40714e-07
0.00144313
5.21337e-05
-2.60465e-06
0.0014073
4.06142e-05
-9.39471e-08
0.00138014
3.3027e-05
-2.50435e-06
0.00135445
2.71623e-05
-5.63892e-07
0.00133469
2.25241e-05
-2.474e-06
0.00131526
1.91748e-05
-9.87984e-07
0.00130018
1.59748e-05
-2.49852e-06
0.00128539
1.36437e-05
-1.38151e-06
0.00127252
1.28642e-05
-2.56468e-06
0.00126479
7.63592e-06
-1.77158e-06
0.00124903
1.49825e-05
-2.65517e-06
0.00128962
6.01259e-06
-2.2602e-06
-2.24527e-05
-3.209e-06
0.00133968
0.00257427
0.000788502
9.64567e-06
0.00266561
0.000489629
3.33625e-06
0.00265867
0.000397948
8.54126e-06
0.00262273
0.000260374
3.60523e-06
0.002574
0.00018358
7.71417e-06
0.00253037
0.00013618
3.81273e-06
0.00248736
0.000103909
7.0077e-06
0.00245189
8.35832e-05
3.9419e-06
0.00241788
6.81143e-05
6.4337e-06
0.00239015
5.66743e-05
4.01469e-06
0.00236339
4.7916e-05
5.94443e-06
0.00234157
4.02466e-05
4.03086e-06
0.00232019
3.49824e-05
5.51014e-06
0.00230294
2.9156e-05
3.99755e-06
0.00228503
2.63719e-05
5.11277e-06
0.00227223
2.16667e-05
3.92315e-06
0.00225359
2.14446e-05
4.74412e-06
0.0022463
1.83873e-05
3.80283e-06
0.00221578
3.19035e-05
4.5326e-06
2.12159e-05
3.44177e-06
0.00216858
0.00258088
0.000513826
4.23682e-06
0.00274192
0.000330294
-1.80526e-06
0.00284785
0.00028856
3.35139e-06
0.00290951
0.000200145
-1.52845e-06
0.0029399
0.000150472
2.62034e-06
0.00295859
0.00011864
-1.24348e-06
0.00296453
9.58953e-05
1.98659e-06
0.00296802
8.10743e-05
-1.06e-06
0.00296551
6.91028e-05
1.45059e-06
0.00296321
5.98669e-05
-9.58239e-07
0.00295773
5.23539e-05
9.82254e-07
0.00295315
4.56887e-05
-9.254e-07
0.00294698
4.05416e-05
5.60405e-07
0.00294142
3.56009e-05
-9.47971e-07
0.00293602
3.15401e-05
1.68948e-07
0.00292943
2.9207e-05
-1.01491e-06
0.00292755
2.34699e-05
-2.18296e-07
0.00291991
2.70865e-05
-1.12948e-06
0.00293376
1.86857e-05
-7.21336e-07
8.37679e-06
-1.59666e-06
0.0029481
0.0025697
0.00024709
7.56975e-06
0.00273823
0.000159922
1.73909e-06
0.00287324
0.000146698
6.75444e-06
0.00296713
0.000104286
1.86391e-06
0.00303099
8.05231e-05
5.986e-06
0.00308245
6.49867e-05
2.10656e-06
0.00311921
5.37251e-05
5.32114e-06
0.00315155
4.63883e-05
2.2644e-06
0.00317554
4.02721e-05
4.76519e-06
0.00319749
3.55003e-05
2.35109e-06
0.00321401
3.14818e-05
4.28533e-06
0.00322944
2.78357e-05
2.37497e-06
0.00324108
2.49852e-05
3.85652e-06
0.00325223
2.20537e-05
2.34628e-06
0.00326025
2.00001e-05
3.46189e-06
0.00326916
1.79664e-05
2.27357e-06
0.0032732
1.62738e-05
3.09106e-06
0.00328169
1.63837e-05
2.14378e-06
0.00328089
1.66034e-05
2.80626e-06
1.65483e-05
1.80122e-06
0.00327083
0.00255173
-1.10677e-11
5.83681e-06
0.00271146
1.60512e-10
9.21528e-08
0.00285297
-3.94057e-11
5.08682e-06
0.00295696
4.89751e-10
1.98506e-07
0.00303306
4.831e-11
4.32008e-06
0.00309751
1.31198e-09
4.44255e-07
0.00314748
7.045e-10
3.66514e-06
0.00319317
3.23678e-09
6.11302e-07
0.00323025
3.75598e-09
3.11616e-06
0.00326497
7.60838e-09
7.0392e-07
0.00329373
1.4527e-08
2.64068e-06
0.00332076
2.0462e-08
7.31686e-07
0.00334344
4.16429e-08
2.21484e-06
0.00336466
7.41126e-08
7.05947e-07
0.0033827
8.41822e-08
1.8215e-06
0.00339969
2.84823e-07
6.35494e-07
0.00341433
1.32721e-07
1.4411e-06
0.00342927
8.72494e-07
5.06109e-07
0.0034443
4.72232e-07
1.02815e-06
1.64921e-06
1.23084e-07
0.00345899
0.00255173
-0.00024709
5.83681e-06
0.00271146
-0.000159922
9.21523e-08
0.00285297
-0.000146698
5.08682e-06
0.00295696
-0.000104285
1.98504e-07
0.00303306
-8.05229e-05
4.32008e-06
0.00309751
-6.49843e-05
4.4425e-07
0.00314748
-5.37235e-05
3.66515e-06
0.00319317
-4.63824e-05
6.11289e-07
0.00323025
-4.02642e-05
3.11617e-06
0.00326497
-3.54868e-05
7.03884e-07
0.00329374
-3.14517e-05
2.64071e-06
0.00332077
-2.78e-05
7.31586e-07
0.00334344
-2.48986e-05
2.21493e-06
0.00336468
-2.19206e-05
7.05667e-07
0.00338271
-1.98221e-05
1.82181e-06
0.00339973
-1.74285e-05
6.34741e-07
0.00341435
-1.59865e-05
1.44248e-06
0.00342931
-1.46596e-05
5.04562e-07
0.00344431
-1.56411e-05
1.03515e-06
-1.30918e-05
1.21118e-07
0.00345885
0.0025697
-0.000513826
7.56975e-06
0.00273823
-0.000330293
1.73909e-06
0.00287324
-0.00028856
6.75444e-06
0.00296713
-0.000200144
1.86392e-06
0.003031
-0.000150472
5.986e-06
0.00308245
-0.000118638
2.10657e-06
0.00311921
-9.58939e-05
5.32114e-06
0.00315155
-8.10686e-05
2.26441e-06
0.00317554
-6.9096e-05
4.76518e-06
0.00319749
-5.98535e-05
2.35112e-06
0.00321402
-5.23281e-05
4.2853e-06
0.00322944
-4.56533e-05
2.37505e-06
0.0032411
-4.0468e-05
3.85643e-06
0.00325225
-3.54723e-05
2.34654e-06
0.00326031
-3.13968e-05
3.46156e-06
0.00326925
-2.8703e-05
2.27428e-06
0.00327339
-2.3277e-05
3.08971e-06
0.00328203
-2.55099e-05
2.14506e-06
0.00328151
-1.80026e-05
2.80016e-06
-5.58982e-06
1.80204e-06
0.00327212
0.00258088
-0.000788502
4.23682e-06
0.00274192
-0.000489629
-1.80526e-06
0.00284785
-0.000397948
3.35139e-06
0.00290951
-0.000260373
-1.52846e-06
0.0029399
-0.000183579
2.62034e-06
0.00295859
-0.000136178
-1.24348e-06
0.00296453
-0.000103908
1.9866e-06
0.00296802
-8.35793e-05
-1.06001e-06
0.00296551
-6.81079e-05
1.45061e-06
0.00296321
-5.66654e-05
-9.58271e-07
0.00295773
-4.78926e-05
9.82301e-07
0.00295317
-4.02238e-05
-9.2548e-07
0.00294701
-3.49167e-05
5.60521e-07
0.00294149
-2.90676e-05
-9.4817e-07
0.00293611
-2.62428e-05
1.69261e-07
0.00292964
-2.12861e-05
-1.01541e-06
0.00292778
-2.12728e-05
-2.16979e-07
0.00292042
-1.70934e-05
-1.13069e-06
0.00293439
-3.13441e-05
-7.14501e-07
-1.87578e-05
-1.59801e-06
0.00294906
0.00257427
-0.00106181
9.64567e-06
0.00266561
-0.000584404
3.33625e-06
0.00265867
-0.000399655
8.54126e-06
0.00262273
-0.000228137
3.60523e-06
0.002574
-0.000142659
7.71417e-06
0.00253037
-9.64547e-05
3.81273e-06
0.00248736
-6.79904e-05
7.0077e-06
0.00245189
-5.21313e-05
3.94191e-06
0.00241789
-4.06101e-05
6.43369e-06
0.00239016
-3.30217e-05
4.01471e-06
0.00236341
-2.71478e-05
5.94441e-06
0.0023416
-2.25108e-05
4.03091e-06
0.00232024
-1.91346e-05
5.51006e-06
0.00230303
-1.59212e-05
3.99773e-06
0.00228518
-1.35722e-05
5.11249e-06
0.00227251
-1.26261e-05
3.92371e-06
0.00225401
-7.59224e-06
4.74312e-06
0.00224718
-1.41526e-05
3.80368e-06
0.00221717
-5.9604e-06
4.52865e-06
2.34644e-05
3.44095e-06
0.00217142
0.00224827
-0.00100257
2.91784e-06
0.0020585
-0.000390867
-3.8691e-06
0.00185429
-0.000197252
1.70531e-06
0.0017119
-8.27212e-05
-3.12483e-06
0.00160919
-4.11029e-05
1.06423e-06
0.00153906
-2.36306e-05
-2.79063e-06
0.0014836
-1.30519e-05
4.40719e-07
0.00144313
-9.13999e-06
-2.60465e-06
0.00140731
-4.77191e-06
-9.39331e-08
0.00138015
-3.43894e-06
-2.50437e-06
0.00135447
-9.80421e-07
-5.63854e-07
0.00133472
-3.65992e-07
-2.47405e-06
0.00131531
1.17748e-06
-9.87889e-07
0.00130027
1.53094e-06
-2.49864e-06
0.00128552
2.47508e-06
-1.38127e-06
0.00127283
2.54191e-06
-2.56501e-06
0.00126509
1.82387e-06
-1.77058e-06
0.0012499
3.60487e-06
-2.65636e-06
0.00129016
-4.40626e-05
-2.25463e-06
-2.38993e-05
-3.21189e-06
0.00134064
0.00129457
1.36638e-05
0.000897355
6.25461e-06
0.000688275
1.17304e-05
0.000598692
6.76435e-06
0.000546626
1.08677e-05
0.00051593
6.97086e-06
0.000492619
1.01666e-05
0.000476277
7.11027e-06
0.00046181
9.60409e-06
0.000451088
7.19131e-06
0.000440894
9.12178e-06
0.000433224
7.21222e-06
0.000425617
8.69161e-06
0.000419872
7.1821e-06
0.000413957
8.29628e-06
0.000409292
7.11142e-06
0.000403099
7.92167e-06
0.000399601
7.00794e-06
0.000347774
7.66876e-06
6.57162e-06
0.000317208
0.00189956
0.000420962
3.15664e-06
0.00138426
0.000516494
4.96499e-06
0.00104178
0.000351844
2.26638e-06
0.000861502
0.000183175
3.76734e-06
0.000773106
9.68894e-05
2.27918e-06
0.000719561
5.6992e-05
3.43224e-06
0.000686148
4.10703e-05
2.41945e-06
0.000657052
3.29372e-05
3.18042e-06
0.00063648
2.76031e-05
2.48429e-06
0.000616679
2.39507e-05
2.95266e-06
0.000602395
2.08066e-05
2.51051e-06
0.000588046
1.86898e-05
2.78161e-06
0.000577263
1.68489e-05
2.53411e-06
0.000566393
1.52892e-05
2.67058e-06
0.000557419
1.46054e-05
2.57193e-06
0.000548998
1.28302e-05
2.608e-06
0.000544889
9.2989e-06
2.63738e-06
0.000527496
2.17284e-05
2.57761e-06
0.00062944
-9.70499e-05
2.68269e-06
-7.92532e-05
2.80245e-06
0.000712366
0.00240502
0.000320703
8.4177e-06
0.00234589
0.000561361
1.02946e-05
0.00222461
0.000466934
7.79223e-06
0.00209048
0.000304946
9.1306e-06
0.00198176
0.000198864
7.71611e-06
0.00189178
0.000135346
8.75075e-06
0.00182425
0.000101111
7.8482e-06
0.00176624
7.97583e-05
8.5041e-06
0.00172156
6.42017e-05
7.91004e-06
0.00168111
5.35368e-05
8.28964e-06
0.00164909
4.42645e-05
7.93014e-06
0.00161909
3.80163e-05
8.1243e-06
0.0015945
3.24289e-05
7.94539e-06
0.00157136
2.78369e-05
8.01214e-06
0.00155077
2.57565e-05
7.97329e-06
0.00153379
1.92104e-05
7.9439e-06
0.00151191
2.12856e-05
8.03132e-06
0.00150907
1.39219e-05
7.90139e-06
0.00142552
-2.40034e-05
8.15832e-06
3.80345e-06
8.1649e-06
0.00133099
0.00242846
0.000207786
4.15475e-06
0.0025585
0.000428364
6.20143e-06
0.00262308
0.000407457
3.33219e-06
0.00262418
0.000302245
5.10456e-06
0.00260446
0.000222863
3.33825e-06
0.00257158
0.000167204
4.74403e-06
0.00254199
0.000134022
3.59707e-06
0.00251026
0.00011083
4.52325e-06
0.00248374
9.33356e-05
3.75205e-06
0.00245654
8.03646e-05
4.32101e-06
0.0024338
6.90641e-05
3.82901e-06
0.00241074
6.08896e-05
4.15985e-06
0.00239138
5.33478e-05
3.88362e-06
0.00237142
4.76799e-05
4.05064e-06
0.00235555
4.27289e-05
3.94145e-06
0.00233633
3.82856e-05
3.98867e-06
0.00232753
3.07311e-05
4.01317e-06
0.00230539
3.58082e-05
3.97275e-06
0.00231501
-3.31985e-05
4.01464e-06
-1.47026e-05
4.14986e-06
0.00233271
0.00238051
0.000134419
7.28748e-06
0.0025237
0.000274063
9.20387e-06
0.00265892
0.00026869
6.80214e-06
0.00274096
0.000210369
8.20565e-06
0.00279621
0.000163395
6.73775e-06
0.00282554
0.000128747
7.79033e-06
0.00284709
0.000107525
6.85708e-06
0.00285732
9.19232e-05
7.53662e-06
0.00286552
7.95879e-05
6.9268e-06
0.00286757
6.99637e-05
7.32537e-06
0.00286938
6.12234e-05
6.95372e-06
0.00286756
5.45706e-05
7.16112e-06
0.00286607
4.83652e-05
6.97216e-06
0.00286246
4.32352e-05
7.04849e-06
0.00285885
3.94458e-05
7.0014e-06
0.00285499
3.40836e-05
6.98174e-06
0.00284691
3.14617e-05
7.05804e-06
0.00284572
2.88266e-05
6.96032e-06
0.00280576
-1.24084e-06
7.19753e-06
2.3158e-05
7.20041e-06
0.002759
0.0023826
6.42327e-05
5.25418e-06
0.00251619
0.000134873
7.23769e-06
0.00265159
0.000135257
4.68151e-06
0.00274931
0.000108181
6.23563e-06
0.00282747
8.65011e-05
4.61965e-06
0.00288246
6.99694e-05
5.80859e-06
0.00293051
5.9923e-05
4.77909e-06
0.0029667
5.23533e-05
5.56374e-06
0.00299972
4.63787e-05
4.8848e-06
0.00302503
4.15861e-05
5.36035e-06
0.00304838
3.71607e-05
4.93664e-06
0.00306634
3.37304e-05
5.20085e-06
0.00308318
3.0354e-05
4.97311e-06
0.00309582
2.77902e-05
5.09196e-06
0.00310852
2.51444e-05
5.016e-06
0.00311645
2.33274e-05
5.03002e-06
0.00312667
1.91918e-05
5.07484e-06
0.00313125
2.12902e-05
5.02264e-06
0.0031306
-2.97087e-06
5.10907e-06
7.49256e-06
5.20807e-06
0.00314276
0.00237396
-7.28216e-11
6.25485e-06
0.00250062
1.74642e-10
8.20043e-06
0.00263509
-5.32391e-11
5.77673e-06
0.00273613
5.03107e-10
7.23773e-06
0.00282114
9.72654e-11
5.70727e-06
0.00288466
1.33291e-09
6.80627e-06
0.00294232
9.7345e-10
5.8346e-06
0.00298865
3.42336e-09
6.55476e-06
0.00303215
4.30161e-09
5.92015e-06
0.00306801
9.18424e-09
6.34952e-06
0.00310178
1.44852e-08
5.95927e-06
0.00312997
2.73461e-08
6.18922e-06
0.00315646
4.10221e-08
5.98604e-06
0.00317874
8.66646e-08
6.07914e-06
0.00319952
1.0987e-07
6.02112e-06
0.00321715
2.6236e-07
6.01569e-06
0.00323132
3.13797e-07
6.07801e-06
0.0032463
7.37021e-07
6.00784e-06
0.00323719
9.09812e-07
6.17906e-06
1.92243e-06
6.2179e-06
0.00323657
0.00237396
-6.42329e-05
6.25485e-06
0.00250062
-0.000134873
8.20043e-06
0.00263509
-0.000135257
5.77673e-06
0.00273613
-0.00010818
7.23773e-06
0.00282114
-8.65009e-05
5.70727e-06
0.00288466
-6.99667e-05
6.80627e-06
0.00294232
-5.99213e-05
5.8346e-06
0.00298865
-5.23461e-05
6.55477e-06
0.00303215
-4.63709e-05
5.92014e-06
0.00306801
-4.15666e-05
6.34954e-06
0.00310179
-3.71345e-05
5.95925e-06
0.00312997
-3.36722e-05
6.18928e-06
0.00315647
-3.02812e-05
5.98599e-06
0.00317874
-2.76073e-05
6.07928e-06
0.00319955
-2.49568e-05
6.02093e-06
0.00321716
-2.27891e-05
6.01605e-06
0.00323145
-1.8674e-05
6.07716e-06
0.00324652
-1.99107e-05
6.00848e-06
0.00323753
4.67914e-06
6.17438e-06
-4.05224e-06
6.21893e-06
0.00323732
0.0023826
-0.00013442
5.25418e-06
0.00251619
-0.000274063
7.23769e-06
0.00265159
-0.00026869
4.68151e-06
0.00274931
-0.000210368
6.23563e-06
0.00282747
-0.000163395
4.61965e-06
0.00288246
-0.000128744
5.80859e-06
0.00293051
-0.000107523
4.77909e-06
0.00296671
-9.19169e-05
5.56373e-06
0.00299972
-7.958e-05
4.8848e-06
0.00302503
-6.9947e-05
5.36034e-06
0.00304838
-6.1197e-05
4.93666e-06
0.00306635
-5.45214e-05
5.20081e-06
0.00308319
-4.82915e-05
4.97316e-06
0.00309586
-4.308e-05
5.09183e-06
0.00310855
-3.92516e-05
5.01616e-06
0.00311656
-3.36169e-05
5.02966e-06
0.00312674
-3.09112e-05
5.07553e-06
0.00313142
-2.75398e-05
5.02201e-06
0.00313084
2.86321e-06
5.11292e-06
-1.96583e-05
5.20709e-06
0.00314295
0.00238051
-0.000207786
7.28748e-06
0.0025237
-0.000428364
9.20387e-06
0.00265892
-0.000407457
6.80214e-06
0.00274096
-0.000302245
8.20565e-06
0.00279621
-0.000222863
6.73775e-06
0.00282554
-0.000167202
7.79033e-06
0.00284709
-0.000134021
6.85708e-06
0.00285732
-0.000110824
7.53663e-06
0.00286552
-9.3329e-05
6.92679e-06
0.00286758
-8.03503e-05
7.32539e-06
0.00286939
-6.90429e-05
6.95369e-06
0.00286758
-6.08474e-05
7.16116e-06
0.00286611
-5.3291e-05
6.97209e-06
0.00286252
-4.75463e-05
7.04859e-06
0.00285897
-4.25902e-05
7.00119e-06
0.00285517
-3.78884e-05
6.982e-06
0.00284728
-3.03665e-05
7.05711e-06
0.00284635
-3.47842e-05
6.96085e-06
0.0028069
3.43137e-05
7.19311e-06
1.7178e-05
7.20047e-06
0.00276117
0.00242846
-0.000320703
4.15475e-06
0.0025585
-0.000561361
6.20143e-06
0.00262308
-0.000466934
3.33219e-06
0.00262418
-0.000304946
5.10456e-06
0.00260446
-0.000198864
3.33825e-06
0.00257158
-0.000135345
4.74402e-06
0.002542
-0.000101109
3.59707e-06
0.00251027
-7.97552e-05
4.52325e-06
0.00248375
-6.41962e-05
3.75205e-06
0.00245656
-5.35289e-05
4.321e-06
0.00243381
-4.42472e-05
3.82902e-06
0.00241077
-3.79932e-05
4.15982e-06
0.00239143
-3.23823e-05
3.88366e-06
0.00237152
-2.77626e-05
4.05054e-06
0.00235567
-2.56384e-05
3.94159e-06
0.00233663
-1.89854e-05
3.98838e-06
0.00232786
-2.09577e-05
4.01361e-06
0.00230611
-1.3292e-05
3.97227e-06
0.00231594
2.49041e-05
4.01693e-06
-1.80516e-06
4.14919e-06
0.00233412
0.00240502
-0.000420962
8.4177e-06
0.00234589
-0.000516494
1.02946e-05
0.00222461
-0.000351844
7.79223e-06
0.00209048
-0.000183174
9.1306e-06
0.00198176
-9.68892e-05
7.71611e-06
0.00189178
-5.69915e-05
8.75075e-06
0.00182425
-4.10696e-05
7.84819e-06
0.00176624
-3.29359e-05
8.50411e-06
0.00172157
-2.76008e-05
7.91003e-06
0.00168112
-2.39474e-05
8.28965e-06
0.00164911
-2.07996e-05
7.93013e-06
0.00161912
-1.86801e-05
8.12433e-06
0.00159456
-1.68311e-05
7.94534e-06
0.00157147
-1.52575e-05
8.01222e-06
0.00155096
-1.45653e-05
7.97312e-06
0.00153411
-1.27318e-05
7.94414e-06
0.00151249
-9.22871e-06
8.03054e-06
0.00150994
-2.13988e-05
7.90212e-06
0.00142751
9.68334e-05
8.15476e-06
7.92777e-05
8.16604e-06
0.00133496
0.00189956
3.15664e-06
0.00138426
4.96499e-06
0.00104178
2.26638e-06
0.000861502
3.76734e-06
0.000773107
2.27918e-06
0.000719562
3.43224e-06
0.00068615
2.41945e-06
0.000657055
3.18042e-06
0.000636485
2.4843e-06
0.000616688
2.95265e-06
0.00060241
2.51052e-06
0.000588071
2.78159e-06
0.000577306
2.53413e-06
0.000566468
2.67051e-06
0.000557533
2.57199e-06
0.000549211
2.60783e-06
0.000545172
2.63744e-06
0.00052811
2.57729e-06
0.000629835
2.68286e-06
2.80088e-06
0.000712791
0.00214161
0.000171366
-3.75655e-12
0.00189818
0.00024829
-3.78071e-12
0.00163794
0.000262412
-3.76667e-12
0.0014093
0.000232304
-3.78532e-12
0.00122528
0.000186214
-3.74582e-12
0.00108965
0.000138979
-3.75251e-12
0.000992794
9.91891e-05
-3.68647e-12
0.000927241
6.86525e-05
-3.66966e-12
0.000881814
4.78304e-05
-3.59158e-12
0.000851032
3.36516e-05
-3.5914e-12
0.000828492
2.4966e-05
-3.55705e-12
0.000811988
1.91993e-05
-3.6078e-12
0.000798814
1.56215e-05
-3.632e-12
0.00078796
1.34368e-05
-3.71988e-12
0.000779434
1.10093e-05
-3.77075e-12
0.000770231
1.17228e-05
-3.84804e-12
0.000766679
6.10055e-06
-3.8786e-12
0.000755152
1.40178e-05
-3.90091e-12
0.00076274
-4.99064e-06
-3.90168e-12
-4.05337e-06
-3.86337e-12
0.000769508
0.0023661
0.000123499
-3.75264e-12
0.00241184
0.000212735
-3.75187e-12
0.00241949
0.000262451
-3.72635e-12
0.00239638
0.000264447
-3.77619e-12
0.00235161
0.000238611
-3.81896e-12
0.00229912
0.000200127
-3.92333e-12
0.00224415
0.000161933
-3.92601e-12
0.00219231
0.000128924
-3.93341e-12
0.00214384
0.000104146
-3.8539e-12
0.0021003
8.54102e-05
-3.83732e-12
0.0020607
7.24337e-05
-3.78318e-12
0.00202545
6.25123e-05
-3.80029e-12
0.00199364
5.53099e-05
-3.78615e-12
0.00196531
4.96998e-05
-3.83593e-12
0.00193999
4.42194e-05
-3.86507e-12
0.0019171
4.24723e-05
-3.9532e-12
0.00189765
3.34963e-05
-4.00558e-12
0.00187825
4.12175e-05
-4.10697e-12
0.00186425
1.7077e-05
-4.14689e-12
3.39787e-05
-4.20481e-12
0.00183429
0.00235412
8.33424e-05
-3.75691e-12
0.00242371
0.000149251
-3.76923e-12
0.0024956
0.000193784
-3.74397e-12
0.00256116
0.000203896
-3.76553e-12
0.00261016
0.00019285
-3.75144e-12
0.00264457
0.000170372
-3.80751e-12
0.00266472
0.000145294
-3.81113e-12
0.00267554
0.000122554
-3.87873e-12
0.00267888
0.000104489
-3.88597e-12
0.00267796
9.05936e-05
-3.94488e-12
0.00267385
8.03148e-05
-3.93397e-12
0.00266792
7.25521e-05
-3.95501e-12
0.002661
6.60544e-05
-3.90493e-12
0.00265302
6.1675e-05
-3.89595e-12
0.00264554
5.55712e-05
-3.84454e-12
0.00263665
5.5277e-05
-3.86336e-12
0.00262994
4.41383e-05
-3.85068e-12
0.00262047
5.45611e-05
-3.93106e-12
0.00261463
2.68364e-05
-3.95531e-12
5.04793e-05
-4.07785e-12
0.00260218
0.00234424
5.61919e-05
-3.75813e-12
0.00240398
9.86154e-05
-3.77476e-12
0.00247673
0.000127738
-3.7575e-12
0.00255345
0.000135277
-3.77898e-12
0.00262314
0.0001298
-3.74954e-12
0.00268444
0.000116779
-3.77535e-12
0.00273461
0.000101892
-3.74515e-12
0.00277647
8.81597e-05
-3.78814e-12
0.00281056
7.72575e-05
-3.78571e-12
0.00283952
6.88976e-05
-3.85852e-12
0.00286401
6.27183e-05
-3.87444e-12
0.00288548
5.81917e-05
-3.9424e-12
0.00290431
5.41516e-05
-3.93918e-12
0.00292113
5.18469e-05
-3.97565e-12
0.00293613
4.75126e-05
-3.94735e-12
0.00294994
4.83829e-05
-3.95646e-12
0.00296161
3.94471e-05
-3.91819e-12
0.00297377
4.92761e-05
-3.91238e-12
0.0029806
2.71201e-05
-3.89169e-12
5.18029e-05
-3.87065e-12
0.00298637
0.00234483
2.64255e-05
-3.75846e-12
0.00240278
4.78031e-05
-3.7778e-12
0.00247217
6.29209e-05
-3.76179e-12
0.00254678
6.68093e-05
-3.78794e-12
0.00261687
6.42324e-05
-3.75965e-12
0.00268134
5.80194e-05
-3.78709e-12
0.00273708
5.08493e-05
-3.75189e-12
0.00278639
4.43354e-05
-3.78674e-12
0.00282934
3.91337e-05
-3.76651e-12
0.00286827
3.52664e-05
-3.82171e-12
0.00290351
3.23531e-05
-3.82038e-12
0.00293646
3.03943e-05
-3.88278e-12
0.00296709
2.84383e-05
-3.88675e-12
0.0029963
2.76734e-05
-3.94049e-12
0.00302344
2.53398e-05
-3.94294e-12
0.00305034
2.64502e-05
-3.97181e-12
0.00307345
2.13427e-05
-3.96586e-12
0.00310013
2.75366e-05
-3.95316e-12
0.00311704
1.52235e-05
-3.93989e-12
2.9417e-05
-3.88685e-12
0.00314454
0.00234249
-1.13881e-10
-3.7589e-12
0.00239839
3.05885e-10
-3.7775e-12
0.00246698
-2.20849e-10
-3.76276e-12
0.00254093
7.74946e-10
-3.78892e-12
0.00261077
-1.52771e-10
-3.76433e-12
0.00267551
1.87519e-09
-3.79532e-12
0.00273211
6.77947e-10
-3.76663e-12
0.00278292
4.43597e-09
-3.803e-12
0.0028279
3.92393e-09
-3.78031e-12
0.00286944
1.11356e-08
-3.82257e-12
0.00290769
1.28428e-08
-3.8069e-12
0.00294418
3.21285e-08
-3.84999e-12
0.00297853
3.16594e-08
-3.84116e-12
0.00301213
1.00001e-07
-3.88223e-12
0.00304336
6.79239e-08
-3.87942e-12
0.00307547
2.93262e-07
-3.90935e-12
0.00310265
1.75813e-07
-3.9047e-12
0.00313539
7.2805e-07
-3.91456e-12
0.00315605
6.50768e-07
-3.90359e-12
1.47719e-06
-3.89245e-12
0.00319011
0.00234249
-2.64257e-05
-3.75924e-12
0.00239839
-4.78025e-05
-3.77852e-12
0.00246698
-6.29213e-05
-3.76343e-12
0.00254093
-6.68078e-05
-3.78949e-12
0.00261077
-6.42327e-05
-3.76619e-12
0.00267551
-5.80156e-05
-3.80214e-12
0.00273211
-5.08481e-05
-3.78067e-12
0.00278292
-4.43264e-05
-3.82308e-12
0.0028279
-3.91263e-05
-3.80188e-12
0.00286944
-3.52438e-05
-3.83686e-12
0.00290769
-3.23284e-05
-3.80929e-12
0.00294419
-3.03295e-05
-3.83475e-12
0.00297853
-2.83772e-05
-3.80728e-12
0.00301213
-2.74735e-05
-3.83024e-12
0.00304337
-2.52088e-05
-3.80582e-12
0.00307548
-2.58674e-05
-3.82894e-12
0.00310267
-2.10053e-05
-3.8079e-12
0.00313543
-2.6102e-05
-3.84114e-12
0.00315615
-1.39756e-05
-3.83079e-12
-2.65683e-05
-3.87062e-12
0.00319031
0.00234483
-5.61921e-05
-3.75919e-12
0.00240278
-9.86148e-05
-3.7778e-12
0.00247217
-0.000127738
-3.76373e-12
0.00254678
-0.000135276
-3.78983e-12
0.00261687
-0.000129801
-3.77027e-12
0.00268134
-0.000116775
-3.81013e-12
0.00273708
-0.000101891
-3.79517e-12
0.00278639
-8.8151e-05
-3.83882e-12
0.00282934
-7.72503e-05
-3.81398e-12
0.00286827
-6.88761e-05
-3.83538e-12
0.00290351
-6.26941e-05
-3.79238e-12
0.00293646
-5.81309e-05
-3.79822e-12
0.0029671
-5.40915e-05
-3.75766e-12
0.00299632
-5.16586e-05
-3.76738e-12
0.00302346
-4.7386e-05
-3.73873e-12
0.00305039
-4.7828e-05
-3.7628e-12
0.00307352
-3.91315e-05
-3.74592e-12
0.00310025
-4.78936e-05
-3.80394e-12
0.00311726
-2.59548e-05
-3.79719e-12
-4.90341e-05
-3.88479e-12
0.00314483
0.00234424
-8.33426e-05
-3.761e-12
0.00240398
-0.00014925
-3.78139e-12
0.00247673
-0.000193785
-3.76919e-12
0.00255345
-0.000203894
-3.79963e-12
0.00262314
-0.00019285
-3.78248e-12
0.00268444
-0.000170368
-3.82445e-12
0.00273461
-0.000145293
-3.80462e-12
0.00277647
-0.000122546
-3.83837e-12
0.00281056
-0.000104483
-3.79304e-12
0.00283952
-9.05734e-05
-3.79507e-12
0.00286402
-8.02938e-05
-3.73324e-12
0.00288549
-7.24963e-05
-3.73484e-12
0.00290433
-6.60029e-05
-3.70166e-12
0.00292117
-6.15041e-05
-3.73062e-12
0.00293619
-5.5468e-05
-3.73463e-12
0.00295005
-5.47753e-05
-3.7785e-12
0.0029618
-4.3893e-05
-3.80024e-12
0.00297411
-5.3326e-05
-3.84928e-12
0.00298115
-2.59016e-05
-3.85525e-12
-4.81618e-05
-3.90876e-12
0.00298738
0.00235412
-0.000123499
-3.76137e-12
0.00242371
-0.000212735
-3.78652e-12
0.0024956
-0.000262451
-3.78143e-12
0.00256116
-0.000264446
-3.81185e-12
0.00261016
-0.000238611
-3.77848e-12
0.00264457
-0.000200125
-3.78992e-12
0.00266472
-0.000161931
-3.73469e-12
0.00267554
-0.000128918
-3.74114e-12
0.00267889
-0.00010414
-3.68386e-12
0.00267797
-8.53958e-05
-3.69894e-12
0.00267387
-7.24157e-05
-3.66565e-12
0.00266795
-6.2472e-05
-3.71896e-12
0.00266104
-5.52681e-05
-3.73471e-12
0.0026531
-4.95738e-05
-3.815e-12
0.00264565
-4.41432e-05
-3.83861e-12
0.00263688
-4.20942e-05
-3.87717e-12
0.00263025
-3.33326e-05
-3.87155e-12
0.00262108
-4.02774e-05
-3.82717e-12
0.00261553
-1.64249e-05
-3.80373e-12
-3.22685e-05
-3.68393e-12
0.00260368
0.0023661
-0.000171366
-3.76866e-12
0.00241184
-0.00024829
-3.80442e-12
0.00241949
-0.000262412
-3.79884e-12
0.00239638
-0.000232303
-3.79882e-12
0.00235161
-0.000186214
-3.71009e-12
0.00229912
-0.000138978
-3.67714e-12
0.00224415
-9.91878e-05
-3.62718e-12
0.00219231
-6.86502e-05
-3.69585e-12
0.00214384
-4.78261e-05
-3.72758e-12
0.00210032
-3.36461e-05
-3.81936e-12
0.00206073
-2.49543e-05
-3.83451e-12
0.0020255
-1.9183e-05
-3.89204e-12
0.0019937
-1.5596e-05
-3.87499e-12
0.00196545
-1.33805e-05
-3.89024e-12
0.00194016
-1.09697e-05
-3.82913e-12
0.00191746
-1.15385e-05
-3.79623e-12
0.00189811
-6.03712e-06
-3.70858e-12
0.00187919
-1.35465e-05
-3.65712e-12
0.00186556
5.25763e-06
-3.61115e-12
4.58632e-06
-3.53541e-12
0.00183679
0.00214161
-3.76232e-12
0.00189818
-3.77353e-12
0.00163794
-3.75042e-12
0.0014093
-3.77131e-12
0.00122528
-3.75594e-12
0.00108965
-3.82403e-12
0.000992797
-3.85238e-12
0.000927247
-3.95218e-12
0.000881823
-3.97935e-12
0.000851047
-4.04748e-12
0.000828518
-4.0343e-12
0.000812031
-4.05155e-12
0.000798883
-3.9951e-12
0.000788085
-3.96987e-12
0.000779598
-3.89606e-12
0.000770579
-3.87276e-12
0.000767092
-3.82393e-12
0.000756035
-3.84942e-12
0.000763889
-3.84168e-12
-3.9244e-12
0.000771193
0.00214161
0.000171366
-3.15665e-06
0.00189818
0.00024829
-4.965e-06
0.00163794
0.000262412
-2.26638e-06
0.0014093
0.000232304
-3.76735e-06
0.00122528
0.000186214
-2.27919e-06
0.00108965
0.000138978
-3.43225e-06
0.000992794
9.91891e-05
-2.41945e-06
0.000927241
6.86525e-05
-3.18042e-06
0.000881814
4.78304e-05
-2.4843e-06
0.000851032
3.36516e-05
-2.95266e-06
0.000828492
2.4966e-05
-2.51052e-06
0.000811988
1.91993e-05
-2.78162e-06
0.000798814
1.56215e-05
-2.53411e-06
0.00078796
1.34368e-05
-2.67059e-06
0.000779434
1.10093e-05
-2.57193e-06
0.000770231
1.17228e-05
-2.60801e-06
0.000766679
6.10055e-06
-2.63738e-06
0.000755152
1.40178e-05
-2.57762e-06
0.00076274
-4.99065e-06
-2.68269e-06
-4.05337e-06
-2.80246e-06
0.000769508
0.0023661
0.000123499
-8.41771e-06
0.00241184
0.000212735
-1.02946e-05
0.00241949
0.000262451
-7.79223e-06
0.00239638
0.000264447
-9.1306e-06
0.00235161
0.000238611
-7.71612e-06
0.00229912
0.000200127
-8.75075e-06
0.00224415
0.000161933
-7.8482e-06
0.00219231
0.000128924
-8.50411e-06
0.00214384
0.000104146
-7.91004e-06
0.0021003
8.54102e-05
-8.28965e-06
0.0020607
7.24337e-05
-7.93015e-06
0.00202545
6.25123e-05
-8.12431e-06
0.00199364
5.53099e-05
-7.9454e-06
0.00196531
4.96998e-05
-8.01215e-06
0.00193999
4.42194e-05
-7.9733e-06
0.0019171
4.24723e-05
-7.94391e-06
0.00189765
3.34963e-05
-8.03133e-06
0.00187825
4.12175e-05
-7.9014e-06
0.00186425
1.7077e-05
-8.15832e-06
3.39787e-05
-8.16491e-06
0.00183429
0.00235412
8.33424e-05
-4.15476e-06
0.00242371
0.000149251
-6.20144e-06
0.0024956
0.000193784
-3.3322e-06
0.00256116
0.000203896
-5.10456e-06
0.00261016
0.00019285
-3.33825e-06
0.00264457
0.000170372
-4.74403e-06
0.00266472
0.000145294
-3.59707e-06
0.00267554
0.000122554
-4.52326e-06
0.00267888
0.000104489
-3.75205e-06
0.00267796
9.05936e-05
-4.32102e-06
0.00267385
8.03148e-05
-3.82902e-06
0.00266792
7.25521e-05
-4.15986e-06
0.002661
6.60545e-05
-3.88363e-06
0.00265302
6.1675e-05
-4.05065e-06
0.00264554
5.55712e-05
-3.94146e-06
0.00263665
5.5277e-05
-3.98867e-06
0.00262994
4.41383e-05
-4.01318e-06
0.00262047
5.45611e-05
-3.97275e-06
0.00261463
2.68364e-05
-4.01465e-06
5.04793e-05
-4.14986e-06
0.00260218
0.00234424
5.61919e-05
-7.28749e-06
0.00240398
9.86154e-05
-9.20387e-06
0.00247673
0.000127738
-6.80215e-06
0.00255345
0.000135277
-8.20566e-06
0.00262314
0.0001298
-6.73776e-06
0.00268444
0.000116779
-7.79033e-06
0.00273461
0.000101892
-6.85709e-06
0.00277647
8.81597e-05
-7.53663e-06
0.00281056
7.72575e-05
-6.92681e-06
0.00283952
6.88976e-05
-7.32538e-06
0.00286401
6.27183e-05
-6.95372e-06
0.00288548
5.81917e-05
-7.16113e-06
0.00290431
5.41517e-05
-6.97216e-06
0.00292113
5.18469e-05
-7.0485e-06
0.00293613
4.75126e-05
-7.00141e-06
0.00294994
4.83829e-05
-6.98175e-06
0.00296161
3.94471e-05
-7.05805e-06
0.00297377
4.92761e-05
-6.96033e-06
0.0029806
2.71201e-05
-7.19754e-06
5.18029e-05
-7.20042e-06
0.00298637
0.00234483
2.64255e-05
-5.25419e-06
0.00240278
4.78031e-05
-7.2377e-06
0.00247217
6.29209e-05
-4.68152e-06
0.00254678
6.68093e-05
-6.23564e-06
0.00261687
6.42324e-05
-4.61966e-06
0.00268134
5.80194e-05
-5.80859e-06
0.00273708
5.08493e-05
-4.7791e-06
0.00278639
4.43354e-05
-5.56374e-06
0.00282934
3.91337e-05
-4.8848e-06
0.00286827
3.52664e-05
-5.36036e-06
0.00290351
3.23531e-05
-4.93665e-06
0.00293646
3.03943e-05
-5.20086e-06
0.00296709
2.84384e-05
-4.97311e-06
0.0029963
2.76734e-05
-5.09197e-06
0.00302344
2.53398e-05
-5.016e-06
0.00305034
2.64502e-05
-5.03003e-06
0.00307345
2.13428e-05
-5.07485e-06
0.00310013
2.75366e-05
-5.02265e-06
0.00311704
1.52235e-05
-5.10908e-06
2.9417e-05
-5.20807e-06
0.00314454
0.00234249
-1.14169e-10
-6.25486e-06
0.00239839
3.04698e-10
-8.20043e-06
0.00246698
-2.22369e-10
-5.77673e-06
0.00254093
7.72783e-10
-7.23773e-06
0.00261077
-1.54602e-10
-5.70727e-06
0.00267551
1.87322e-09
-6.80627e-06
0.00273211
6.76628e-10
-5.83461e-06
0.00278292
4.43438e-09
-6.55477e-06
0.0028279
3.92309e-09
-5.92015e-06
0.00286944
1.11363e-08
-6.34953e-06
0.00290769
1.28474e-08
-5.95927e-06
0.00294418
3.21375e-08
-6.18923e-06
0.00297853
3.1673e-08
-5.98605e-06
0.00301213
1.00016e-07
-6.07915e-06
0.00304336
6.79403e-08
-6.02112e-06
0.00307547
2.93276e-07
-6.01569e-06
0.00310265
1.75824e-07
-6.07801e-06
0.00313539
7.28057e-07
-6.00785e-06
0.00315605
6.50773e-07
-6.17907e-06
1.47719e-06
-6.2179e-06
0.00319011
0.00234249
-2.64257e-05
-6.25486e-06
0.00239839