/*--------------------------------*- C++ -*----------------------------------*\
  =========                 |
  \\      /  F ield         | OpenFOAM: The Open Source CFD Toolbox
   \\    /   O peration     | Website:  https://openfoam.org
    \\  /    A nd           | Version:  7
     \\/     M anipulation  |
\*---------------------------------------------------------------------------*/
FoamFile
{
    version     2.0;
    format      ascii;
    class       surfaceScalarField;
    location    "1.475";
    object      phi;
}
// * * * * * * * * * * * * * * * * * * * * * * * * * * * * * * * * * * * * * //

dimensions      [1 0 -1 0 0 0 0];

internalField   nonuniform List<scalar> 
21708
(
0.00129433
0.001003
1.35708e-05
0.000896224
0.000390596
6.15727e-06
0.000686572
0.000196671
1.16368e-05
0.000596597
8.19813e-05
6.66875e-06
0.000544186
4.03335e-05
1.07741e-05
0.000513178
2.2844e-05
6.87571e-06
0.000489557
1.22693e-05
1.0073e-05
0.000472902
8.36651e-06
7.01544e-06
0.000458098
4.02035e-06
9.51075e-06
0.000447031
2.6943e-06
7.09669e-06
0.000436482
2.36722e-07
9.02904e-06
0.00042845
-3.78391e-07
7.11823e-06
0.000420473
-1.9241e-06
8.5999e-06
0.000414354
-2.27875e-06
7.08923e-06
0.000408046
-3.21446e-06
8.20626e-06
0.000402972
-3.26382e-06
7.0198e-06
0.000396323
-2.50576e-06
7.83405e-06
0.000392244
-4.15834e-06
6.91762e-06
0.000339515
4.38292e-05
7.58337e-06
2.3299e-05
6.48623e-06
0.000308412
0.0022483
0.0010624
2.81749e-06
0.0020571
0.000584407
-3.97444e-06
0.00185153
0.00039928
1.60314e-06
0.00170797
0.000227457
-3.22925e-06
0.00160425
0.000141846
9.61731e-07
0.00153322
9.55818e-05
-2.89442e-06
0.00147687
6.7128e-05
3.38821e-07
0.00143552
5.1305e-05
-2.70743e-06
0.00139881
3.98112e-05
-1.94512e-07
0.00137075
3.22488e-05
-2.60577e-06
0.00134413
2.63907e-05
-6.63061e-07
0.00132342
2.17547e-05
-2.57393e-06
0.00130304
1.83586e-05
-1.08549e-06
0.00128699
1.51627e-05
-2.59704e-06
0.00127121
1.2799e-05
-1.47772e-06
0.00125739
1.19605e-05
-2.66211e-06
0.00124858
6.89013e-06
-1.86651e-06
0.00123209
1.38045e-05
-2.75152e-06
0.00127179
5.21257e-06
-2.3549e-06
-2.45867e-05
-3.30105e-06
0.0013217
0.00257458
0.000788972
9.54995e-06
0.00266466
0.000489732
3.23651e-06
0.00265632
0.000397795
8.44502e-06
0.00261898
0.000259956
3.50676e-06
0.00256891
0.000183028
7.61759e-06
0.00252405
0.000135565
3.71463e-06
0.00247988
0.000103291
6.91135e-06
0.00244331
8.29966e-05
3.8444e-06
0.00240821
6.75656e-05
6.33783e-06
0.00237941
5.61668e-05
3.91772e-06
0.00235158
4.74164e-05
5.84952e-06
0.00232866
3.97652e-05
3.93499e-06
0.00230614
3.44518e-05
5.41666e-06
0.00228769
2.8637e-05
3.90329e-06
0.00226855
2.57893e-05
5.02105e-06
0.00225446
2.10267e-05
3.83055e-06
0.00223451
2.09618e-05
4.65441e-06
0.00222597
1.73516e-05
3.7119e-06
0.00219384
3.16107e-05
4.44422e-06
1.90945e-05
3.35425e-06
0.00214549
0.00258124
0.000514125
4.13739e-06
0.00274115
0.000330375
-1.9091e-06
0.0028458
0.000288509
3.25057e-06
0.0029061
0.000199931
-1.63169e-06
0.00293516
0.000150169
2.51905e-06
0.0029526
0.000118288
-1.34598e-06
0.00295737
9.55362e-05
1.88617e-06
0.00295976
8.07361e-05
-1.16121e-06
0.00295621
6.87831e-05
1.3515e-06
0.00295292
5.95724e-05
-1.05834e-06
0.00294649
5.2066e-05
8.84361e-07
0.00294098
4.5418e-05
-1.02412e-06
0.00293384
4.02351e-05
4.64192e-07
0.00292726
3.53123e-05
-1.0451e-06
0.00292075
3.11979e-05
7.42249e-08
0.00291295
2.88341e-05
-1.11079e-06
0.00290987
2.31927e-05
-3.11641e-07
0.00290081
2.63927e-05
-1.22391e-06
0.00291345
1.85021e-05
-8.13675e-07
6.71572e-06
-1.68648e-06
0.00292616
0.00257005
0.000247233
7.47263e-06
0.00273746
0.000159959
1.63801e-06
0.00287126
0.000146678
6.65664e-06
0.00296387
0.000104189
1.7638e-06
0.00302648
8.03859e-05
5.8878e-06
0.00307674
6.48275e-05
2.00698e-06
0.00311239
5.35614e-05
5.22352e-06
0.00314369
4.62336e-05
2.16581e-06
0.00316669
4.01271e-05
4.66843e-06
0.0031877
3.53678e-05
2.25318e-06
0.00320333
3.13497e-05
4.18951e-06
0.0032179
2.77131e-05
2.27822e-06
0.00322868
2.48443e-05
3.76239e-06
0.00323894
2.19247e-05
2.25145e-06
0.00324598
1.98417e-05
3.36969e-06
0.0032538
1.77921e-05
2.18034e-06
0.00325673
1.61563e-05
3.00048e-06
0.00326384
1.60345e-05
2.05221e-06
0.00326181
1.6569e-05
2.71715e-06
1.57237e-05
1.71316e-06
0.00324974
0.00255207
-1.64104e-11
5.7385e-06
0.00271067
1.7199e-10
-1.02388e-08
0.00285098
-8.94074e-12
4.98752e-06
0.00295371
6.53069e-10
9.68083e-08
0.00302859
2.5026e-10
4.22028e-06
0.00309188
1.63487e-09
3.4316e-07
0.00314078
9.79534e-10
3.56608e-06
0.00318546
3.54596e-09
5.11401e-07
0.00322158
3.97192e-09
3.01823e-06
0.00325538
7.8127e-09
6.04894e-07
0.00328327
1.47599e-08
2.54376e-06
0.00330948
2.05862e-08
6.33892e-07
0.00333133
4.24411e-08
2.11968e-06
0.00335172
7.38166e-08
6.10066e-07
0.00336883
8.74268e-08
1.72823e-06
0.00338479
2.83785e-07
5.41119e-07
0.00339838
1.44124e-07
1.34932e-06
0.00341195
8.79579e-07
4.1328e-07
0.00342585
5.09414e-07
9.37795e-07
1.68544e-06
3.44921e-08
0.00343853
0.00255207
-0.000247233
5.7385e-06
0.00271067
-0.000159959
-1.02393e-08
0.00285098
-0.000146678
4.98752e-06
0.00295371
-0.000104188
9.68064e-08
0.00302859
-8.03853e-05
4.22028e-06
0.00309188
-6.48245e-05
3.43154e-07
0.00314078
-5.35593e-05
3.56609e-06
0.00318546
-4.62271e-05
5.11387e-07
0.00322158
-4.01189e-05
3.01825e-06
0.00325538
-3.53538e-05
6.04857e-07
0.00328327
-3.13193e-05
2.54379e-06
0.00330949
-2.7677e-05
6.33793e-07
0.00333134
-2.47568e-05
2.11976e-06
0.00335174
-2.17919e-05
6.09787e-07
0.00336884
-1.96591e-05
1.72851e-06
0.00338484
-1.72571e-05
5.4036e-07
0.0033984
-1.58527e-05
1.3506e-06
0.003412
-1.43045e-05
4.11651e-07
0.00342591
-1.5563e-05
9.44405e-07
-1.22128e-05
3.18487e-08
0.00343846
0.00257005
-0.000514126
7.47263e-06
0.00273746
-0.000330374
1.63801e-06
0.00287126
-0.000288509
6.65664e-06
0.00296387
-0.00019993
1.7638e-06
0.00302648
-0.000150168
5.8878e-06
0.00307674
-0.000118285
2.00698e-06
0.00311239
-9.55343e-05
5.22352e-06
0.00314369
-8.07298e-05
2.16582e-06
0.00316669
-6.8776e-05
4.66842e-06
0.0031877
-5.95584e-05
2.25321e-06
0.00320333
-5.20399e-05
4.18948e-06
0.00321791
-4.53821e-05
2.27831e-06
0.0032287
-4.01604e-05
3.7623e-06
0.00323896
-3.5184e-05
2.2517e-06
0.00324603
-3.10488e-05
3.36938e-06
0.00325389
-2.83327e-05
2.18106e-06
0.00325691
-2.29783e-05
2.99922e-06
0.00326416
-2.48053e-05
2.05356e-06
0.00326238
-1.77464e-05
2.71142e-06
-3.87164e-06
1.71465e-06
0.00325099
0.00258124
-0.000788972
4.13739e-06
0.00274115
-0.000489731
-1.9091e-06
0.0028458
-0.000397795
3.25057e-06
0.0029061
-0.000259956
-1.63169e-06
0.00293516
-0.000183027
2.51906e-06
0.0029526
-0.000135563
-1.34599e-06
0.00295737
-0.000103289
1.88618e-06
0.00295976
-8.29921e-05
-1.16122e-06
0.00295621
-6.75588e-05
1.35152e-06
0.00295293
-5.61573e-05
-1.05837e-06
0.0029465
-4.73929e-05
8.84405e-07
0.002941
-3.97415e-05
-1.0242e-06
0.00293387
-3.43861e-05
4.64302e-07
0.00292733
-2.8548e-05
-1.0453e-06
0.00292084
-2.56575e-05
7.45205e-08
0.00291317
-2.06485e-05
-1.11129e-06
0.00291011
-2.0777e-05
-3.10414e-07
0.00290135
-1.60595e-05
-1.22516e-06
0.00291413
-3.10117e-05
-8.07185e-07
-1.66069e-05
-1.68839e-06
0.00292721
0.00257458
-0.0010624
9.54995e-06
0.00266466
-0.000584407
3.23651e-06
0.00265632
-0.00039928
8.44502e-06
0.00261898
-0.000227456
3.50676e-06
0.00256892
-0.000141846
7.61759e-06
0.00252405
-9.55805e-05
3.71463e-06
0.00247988
-6.71265e-05
6.91135e-06
0.00244331
-5.13022e-05
3.8444e-06
0.00240822
-3.98068e-05
6.33782e-06
0.00237942
-3.2243e-05
3.91773e-06
0.0023516
-2.6376e-05
5.8495e-06
0.00232869
-2.17406e-05
3.93505e-06
0.00230619
-1.83184e-05
5.41659e-06
0.00228778
-1.51082e-05
3.90348e-06
0.00226869
-1.27257e-05
5.02078e-06
0.00225475
-1.17218e-05
3.83111e-06
0.00223492
-6.83578e-06
4.65346e-06
0.00222685
-1.29725e-05
3.71282e-06
0.00219522
-5.11747e-06
4.44049e-06
2.56165e-05
3.3538e-06
0.00214834
0.0022483
-0.001003
2.81749e-06
0.0020571
-0.000390596
-3.97444e-06
0.00185153
-0.000196671
1.60314e-06
0.00170797
-8.19811e-05
-3.22925e-06
0.00160425
-4.03332e-05
9.61732e-07
0.00153322
-2.28435e-05
-2.89442e-06
0.00147687
-1.22686e-05
3.38826e-07
0.00143552
-8.36556e-06
-2.70743e-06
0.00139882
-4.0185e-06
-1.94499e-07
0.00137076
-2.69269e-06
-2.60579e-06
0.00134415
-2.3105e-07
-6.63025e-07
0.00132345
3.81699e-07
-2.57398e-06
0.0013031
1.93954e-06
-1.0854e-06
0.00128708
2.29255e-06
-2.59716e-06
0.00127135
3.24572e-06
-1.47749e-06
0.00125769
3.33316e-06
-2.66244e-06
0.00124889
2.55648e-06
-1.86557e-06
0.00123298
4.41807e-06
-2.75272e-06
0.00127237
-4.34415e-05
-2.34952e-06
-2.27113e-05
-3.30421e-06
0.00132274
0.00129433
1.35708e-05
0.000896224
6.15727e-06
0.000686572
1.16368e-05
0.000596597
6.66876e-06
0.000544186
1.07741e-05
0.000513178
6.87571e-06
0.000489558
1.0073e-05
0.000472903
7.01544e-06
0.000458101
9.51074e-06
0.000447035
7.0967e-06
0.000436492
9.02902e-06
0.000428463
7.11828e-06
0.000420501
8.59984e-06
0.000414395
7.08939e-06
0.00040812
8.20606e-06
0.000403113
7.02027e-06
0.000396516
7.83349e-06
0.000392696
6.91852e-06
0.000340354
7.58187e-06
6.48753e-06
0.000309847
0.00189941
0.000421206
3.0648e-06
0.00138271
0.000516645
4.85314e-06
0.00103921
0.00035162
2.18052e-06
0.000858248
0.000182668
3.65138e-06
0.000769303
9.62558e-05
2.18973e-06
0.000715245
5.63701e-05
3.31503e-06
0.000681313
4.04463e-05
2.32479e-06
0.00065169
3.2344e-05
3.0659e-06
0.000630576
2.70066e-05
2.38695e-06
0.000610225
2.33681e-05
2.84142e-06
0.000595378
2.02138e-05
2.41155e-06
0.000580458
1.81009e-05
2.67279e-06
0.000569107
1.62404e-05
2.43346e-06
0.000557646
1.46994e-05
2.56303e-06
0.000548102
1.39851e-05
2.4693e-06
0.000539098
1.22246e-05
2.50077e-06
0.000534297
8.80391e-06
2.53256e-06
0.000516674
2.07779e-05
2.4699e-06
0.000618209
-9.7814e-05
2.57769e-06
-8.05814e-05
2.68954e-06
0.000701296
0.00240512
0.000320959
8.30912e-06
0.00234451
0.000561726
1.01836e-05
0.00222171
0.000466977
7.68282e-06
0.00208619
0.000304621
9.01953e-06
0.00197622
0.000198348
7.60666e-06
0.0018851
0.000134794
8.63981e-06
0.00181649
0.000100552
7.73789e-06
0.00175743
7.9237e-05
8.39273e-06
0.00171171
6.37013e-05
7.79888e-06
0.00167019
5.3065e-05
8.1782e-06
0.00163707
4.37887e-05
7.81898e-06
0.00160594
3.7545e-05
8.01345e-06
0.0015802
3.19138e-05
7.83478e-06
0.00155587
2.73475e-05
7.90215e-06
0.00153411
2.51776e-05
7.86353e-06
0.00151589
1.86863e-05
7.83475e-06
0.00149281
2.08269e-05
7.9225e-06
0.00148886
1.29063e-05
7.79236e-06
0.00140325
-2.38684e-05
8.05098e-06
1.94094e-06
8.05427e-06
0.00130811
0.00242869
0.00020793
4.04285e-06
0.00255752
0.000428679
6.09048e-06
0.0026207
0.000407641
3.22148e-06
0.00262032
0.000302174
4.99302e-06
0.00259918
0.000222632
3.22506e-06
0.00256499
0.000166902
4.63317e-06
0.0025342
0.000133692
3.48111e-06
0.00250134
0.000110505
4.41273e-06
0.00247375
9.30243e-05
3.63797e-06
0.00244551
8.00741e-05
4.21056e-06
0.00242172
6.87791e-05
3.71591e-06
0.00239759
6.06148e-05
4.04968e-06
0.0023771
5.30367e-05
3.77156e-06
0.00235595
4.73949e-05
3.94091e-06
0.00233882
4.23539e-05
3.83036e-06
0.0023183
3.79584e-05
3.87938e-06
0.00230818
3.044e-05
3.90327e-06
0.00228461
3.50248e-05
3.86385e-06
0.00229311
-3.31583e-05
3.90653e-06
-1.67091e-05
4.04028e-06
0.00230973
0.00238068
0.000134512
7.17862e-06
0.00252272
0.000274266
9.09292e-06
0.00265671
0.00026883
6.69253e-06
0.00273744
0.000210365
8.09436e-06
0.00279141
0.000163297
6.62807e-06
0.00281951
0.000128604
7.67952e-06
0.0028399
0.000107359
6.74733e-06
0.00284904
9.17562e-05
7.42615e-06
0.0028562
7.94249e-05
6.81666e-06
0.00285726
6.98116e-05
7.21489e-06
0.00285813
6.10717e-05
6.84333e-06
0.00285536
5.44289e-05
7.051e-06
0.0028529
4.81958e-05
6.86216e-06
0.00284824
4.309e-05
6.939e-06
0.00284349
3.92296e-05
6.89181e-06
0.00283843
3.39035e-05
6.87255e-06
0.0028291
3.13145e-05
6.94903e-06
0.00282649
2.82722e-05
6.85139e-06
0.00278518
-1.08185e-06
7.09e-06
2.17727e-05
7.09019e-06
0.00273652
0.00238277
6.42714e-05
5.14319e-06
0.00251521
0.000134965
7.1269e-06
0.00264942
0.000135328
4.5694e-06
0.00274588
0.000108193
6.12422e-06
0.00282282
8.64743e-05
4.50804e-06
0.00287665
6.99203e-05
5.69781e-06
0.00292361
5.98615e-05
4.66833e-06
0.00295877
5.22874e-05
5.45359e-06
0.00299079
4.6311e-05
4.77422e-06
0.00301516
4.15194e-05
5.25036e-06
0.00303762
3.7091e-05
4.82624e-06
0.00305472
3.36638e-05
5.0915e-06
0.00307068
3.02746e-05
4.86353e-06
0.00308239
2.77237e-05
4.98337e-06
0.00309404
2.50439e-05
4.90684e-06
0.00310087
2.325e-05
4.92139e-06
0.00310994
1.91187e-05
4.96592e-06
0.00311308
2.10363e-05
4.91372e-06
0.00311133
-2.91881e-06
5.00123e-06
6.73335e-06
5.09863e-06
0.00312158
0.00237411
-7.44229e-11
6.14553e-06
0.00249961
1.87348e-10
8.08958e-06
0.00263288
-5.49504e-11
5.6666e-06
0.00273269
5.74925e-10
7.12637e-06
0.00281652
1.02902e-10
5.59716e-06
0.00287893
1.40246e-09
6.69545e-06
0.00293554
8.58988e-10
5.72473e-06
0.00298086
3.40706e-09
6.44448e-06
0.00302339
4.13328e-09
5.81004e-06
0.00305833
9.01042e-09
6.23926e-06
0.00309122
1.45179e-08
5.8491e-06
0.00311857
2.66247e-08
6.07967e-06
0.00314419
4.16289e-08
5.87675e-06
0.00316557
8.53815e-08
5.97058e-06
0.00318535
1.10583e-07
5.91232e-06
0.0032019
2.63593e-07
5.90712e-06
0.00321495
3.15714e-07
5.96937e-06
0.00322854
7.42248e-07
5.89894e-06
0.00321828
9.29616e-07
6.0713e-06
1.92696e-06
6.10804e-06
0.00321562
0.00237411
-6.42715e-05
6.14553e-06
0.00249961
-0.000134965
8.08958e-06
0.00263288
-0.000135329
5.6666e-06
0.00273269
-0.000108192
7.12637e-06
0.00281652
-8.64742e-05
5.59716e-06
0.00287893
-6.99174e-05
6.69546e-06
0.00293554
-5.986e-05
5.72473e-06
0.00298086
-5.22802e-05
6.44449e-06
0.00302339
-4.63036e-05
5.81003e-06
0.00305833
-4.15002e-05
6.23928e-06
0.00309123
-3.70647e-05
5.84908e-06
0.00311857
-3.36071e-05
6.07972e-06
0.0031442
-3.02003e-05
5.8767e-06
0.00316557
-2.75438e-05
5.97072e-06
0.00318538
-2.48542e-05
5.91214e-06
0.00320192
-2.27094e-05
5.90748e-06
0.00321508
-1.85968e-05
5.96855e-06
0.00322875
-1.96421e-05
5.89959e-06
0.00321861
4.67367e-06
6.06671e-06
-3.28186e-06
6.10929e-06
0.00321635
0.00238277
-0.000134512
5.14319e-06
0.00251521
-0.000274265
7.1269e-06
0.00264942
-0.00026883
4.5694e-06
0.00274588
-0.000210364
6.12422e-06
0.00282282
-0.000163297
4.50804e-06
0.00287665
-0.000128601
5.6978e-06
0.00292362
-0.000107358
4.66833e-06
0.00295877
-9.175e-05
5.45359e-06
0.00299079
-7.94173e-05
4.77423e-06
0.00301516
-6.97952e-05
5.25034e-06
0.00303762
-6.10454e-05
4.82626e-06
0.00305473
-5.43807e-05
5.09145e-06
0.00307069
-4.81213e-05
4.86358e-06
0.00308243
-4.2937e-05
4.98323e-06
0.00309407
-3.90344e-05
4.90699e-06
0.00310097
-3.34347e-05
4.92103e-06
0.00311001
-3.07599e-05
4.96658e-06
0.00311325
-2.69781e-05
4.91307e-06
0.00311159
2.74473e-06
5.00496e-06
-1.82734e-05
5.09741e-06
0.00312179
0.00238068
-0.00020793
7.17862e-06
0.00252272
-0.000428679
9.09292e-06
0.00265671
-0.000407641
6.69252e-06
0.00273744
-0.000302173
8.09436e-06
0.00279141
-0.000222631
6.62807e-06
0.00281951
-0.0001669
7.67952e-06
0.0028399
-0.00013369
6.74733e-06
0.00284904
-0.000110499
7.42616e-06
0.0028562
-9.30181e-05
6.81665e-06
0.00285727
-8.006e-05
7.2149e-06
0.00285814
-6.8758e-05
6.84331e-06
0.00285538
-6.05734e-05
7.05104e-06
0.00285293
-5.2979e-05
6.86209e-06
0.0028483
-4.72631e-05
6.9391e-06
0.00284361
-4.2214e-05
6.8916e-06
0.00283861
-3.75597e-05
6.87279e-06
0.00282946
-3.0071e-05
6.94812e-06
0.00282712
-3.39929e-05
6.8519e-06
0.00278633
3.4317e-05
7.08561e-06
1.91811e-05
7.0904e-06
0.00273869
0.00242869
-0.000320959
4.04285e-06
0.00255752
-0.000561726
6.09048e-06
0.0026207
-0.000466977
3.22148e-06
0.00262032
-0.000304621
4.99302e-06
0.00259918
-0.000198348
3.22506e-06
0.00256499
-0.000134793
4.63316e-06
0.0025342
-0.000100551
3.48111e-06
0.00250135
-7.9234e-05
4.41273e-06
0.00247375
-6.36959e-05
3.63797e-06
0.00244552
-5.3057e-05
4.21056e-06
0.00242174
-4.37716e-05
3.71592e-06
0.00239762
-3.75219e-05
4.04965e-06
0.00237715
-3.18672e-05
3.7716e-06
0.00235605
-2.72732e-05
3.9408e-06
0.00233895
-2.50606e-05
3.83049e-06
0.00231859
-1.84585e-05
3.87908e-06
0.00230851
-2.04977e-05
3.90369e-06
0.00228535
-1.22753e-05
3.86332e-06
0.00229406
2.48076e-05
3.90868e-06
4.48916e-08
4.03949e-06
0.00231118
0.00240512
-0.000421206
8.30912e-06
0.00234451
-0.000516645
1.01836e-05
0.00222171
-0.00035162
7.68282e-06
0.00208619
-0.000182668
9.01953e-06
0.00197622
-9.62555e-05
7.60666e-06
0.0018851
-5.63695e-05
8.63981e-06
0.00181649
-4.04456e-05
7.73788e-06
0.00175744
-3.23427e-05
8.39273e-06
0.00171171
-2.70043e-05
7.79887e-06
0.0016702
-2.33647e-05
8.17821e-06
0.00163709
-2.02068e-05
7.81896e-06
0.00160597
-1.80912e-05
8.01349e-06
0.00158027
-1.62225e-05
7.83472e-06
0.00155597
-1.46676e-05
7.90224e-06
0.00153429
-1.39452e-05
7.86335e-06
0.00151621
-1.21252e-05
7.83499e-06
0.00149338
-8.73151e-06
7.92172e-06
0.00148974
-2.04502e-05
7.79304e-06
0.00140526
9.76161e-05
8.04744e-06
8.06095e-05
8.05541e-06
0.0013121
0.00189941
3.0648e-06
0.00138271
4.85314e-06
0.00103921
2.18052e-06
0.000858248
3.65138e-06
0.000769303
2.18973e-06
0.000715246
3.31503e-06
0.000681315
2.3248e-06
0.000651693
3.0659e-06
0.000630581
2.38695e-06
0.000610233
2.84141e-06
0.000595393
2.41156e-06
0.000580483
2.67277e-06
0.000569149
2.43349e-06
0.00055772
2.56297e-06
0.000548216
2.46935e-06
0.000539312
2.50062e-06
0.000534584
2.53256e-06
0.000517289
2.46964e-06
0.000618621
2.57775e-06
2.68781e-06
0.000701762
0.00214145
0.000171542
-2.12729e-11
0.00189643
0.000248498
-2.1366e-11
0.00163459
0.000262675
-2.12335e-11
0.00140452
0.000232427
-2.13203e-11
0.00121933
0.000186165
-2.11334e-11
0.00108275
0.000138745
-2.13167e-11
0.000985006
9.89343e-05
-2.1139e-11
0.000918507
6.84257e-05
-2.13602e-11
0.000872043
4.76912e-05
-2.1222e-11
0.000840174
3.35309e-05
-2.14702e-11
0.000816533
2.48564e-05
-2.13745e-11
0.000798942
1.9054e-05
-2.16152e-11
0.000784691
1.54637e-05
-2.15367e-11
0.000772747
1.32809e-05
-2.17154e-11
0.000763178
1.08097e-05
-2.16048e-11
0.000752856
1.16013e-05
-2.16875e-11
0.000748243
5.9304e-06
-2.15873e-11
0.000735878
1.36368e-05
-2.16546e-11
0.000742062
-4.79315e-06
-2.16584e-11
-6.05868e-06
-2.17686e-11
0.000749613
0.00236614
0.00012363
-2.12707e-11
0.00241049
0.000212961
-2.13324e-11
0.00241663
0.000262842
-2.12346e-11
0.00239196
0.000264798
-2.14145e-11
0.00234569
0.000238814
-2.13687e-11
0.00229183
0.000200115
-2.16253e-11
0.00223561
0.000161845
-2.1387e-11
0.00218261
0.000128829
-2.14632e-11
0.00213303
0.000104125
-2.12277e-11
0.00208839
8.5404e-05
-2.14543e-11
0.00204766
7.24352e-05
-2.13501e-11
0.00201123
6.2473e-05
-2.15691e-11
0.00197819
5.52402e-05
-2.14782e-11
0.00194855
4.96486e-05
-2.17001e-11
0.00192191
4.40827e-05
-2.1704e-11
0.00189759
4.24712e-05
-2.1881e-11
0.00187674
3.33953e-05
-2.18479e-11
0.00185604
4.08415e-05
-2.18527e-11
0.00184063
1.73986e-05
-2.18011e-11
3.1675e-05
-2.17521e-11
0.00180973
0.00235416
8.34272e-05
-2.12707e-11
0.00242244
0.000149402
-2.13288e-11
0.00249304
0.000194084
-2.122e-11
0.00255728
0.000204214
-2.13967e-11
0.00260499
0.000193096
-2.1354e-11
0.00263813
0.000170472
-2.16215e-11
0.00265707
0.000145326
-2.14054e-11
0.00266675
0.000122563
-2.14937e-11
0.00266904
0.000104532
-2.1277e-11
0.00266714
9.06289e-05
-2.15496e-11
0.00266209
8.0342e-05
-2.14994e-11
0.00265518
7.25404e-05
-2.16717e-11
0.00264722
6.60129e-05
-2.13928e-11
0.00263811
6.16593e-05
-2.13549e-11
0.00262943
5.54731e-05
-2.12605e-11
0.00261923
5.53417e-05
-2.1543e-11
0.00261118
4.40599e-05
-2.17191e-11
0.00260017
5.43482e-05
-2.19574e-11
0.00259298
2.70955e-05
-2.18603e-11
4.85298e-05
-2.18477e-11
0.00257873
0.00234427
5.62489e-05
-2.12728e-11
0.00240269
9.8712e-05
-2.13309e-11
0.00247415
0.00012793
-2.12266e-11
0.00254964
0.000135487
-2.13898e-11
0.00261815
0.000129977
-2.13177e-11
0.0026783
0.000116869
-2.15469e-11
0.00272736
0.000101942
-2.13263e-11
0.00276815
8.8193e-05
-2.14343e-11
0.00280124
7.73104e-05
-2.12663e-11
0.00282926
6.89391e-05
-2.16208e-11
0.00285285
6.27492e-05
-2.16573e-11
0.00287341
5.81896e-05
-2.18898e-11
0.00289126
5.41272e-05
-2.16133e-11
0.00290705
5.18366e-05
-2.14957e-11
0.00292091
4.74471e-05
-2.12513e-11
0.00293355
4.8435e-05
-2.1488e-11
0.00294395
3.93917e-05
-2.15848e-11
0.00295468
4.91518e-05
-2.19353e-11
0.00296021
2.72717e-05
-2.18641e-11
5.05132e-05
-2.16248e-11
0.00296383
0.00234486
2.64515e-05
-2.12718e-11
0.00240148
4.78493e-05
-2.13379e-11
0.00246958
6.30138e-05
-2.12372e-11
0.00254294
6.69124e-05
-2.13862e-11
0.00261187
6.43206e-05
-2.1277e-11
0.00267524
5.80684e-05
-2.14796e-11
0.00272991
5.08805e-05
-2.12787e-11
0.00277818
4.43596e-05
-2.14402e-11
0.00282015
3.91668e-05
-2.13093e-11
0.00285816
3.52919e-05
-2.16515e-11
0.00289252
3.23713e-05
-2.16482e-11
0.00292458
3.03931e-05
-2.18593e-11
0.00295426
2.8426e-05
-2.16115e-11
0.00298246
2.76658e-05
-2.15585e-11
0.00300847
2.53047e-05
-2.13369e-11
0.00303423
2.64771e-05
-2.15636e-11
0.0030561
2.13097e-05
-2.16153e-11
0.00308141
2.74812e-05
-2.18868e-11
0.00309703
1.52969e-05
-2.18542e-11
2.87735e-05
-2.15349e-11
0.00312239
0.00234251
-1.21346e-10
-2.12705e-11
0.00239708
3.26667e-10
-2.13394e-11
0.00246438
-2.45986e-10
-2.1245e-11
0.00253708
8.42482e-10
-2.13951e-11
0.00260577
-1.99608e-10
-2.12719e-11
0.0026694
1.9603e-09
-2.14529e-11
0.00272494
5.6083e-10
-2.12552e-11
0.00277473
4.4603e-09
-2.14401e-11
0.00281875
3.87107e-09
-2.13123e-11
0.00285938
1.09079e-08
-2.16049e-11
0.00289675
1.32763e-08
-2.15256e-11
0.00293236
3.10784e-08
-2.1706e-11
0.00296575
3.30421e-08
-2.15073e-11
0.00299834
9.78125e-08
-2.15728e-11
0.00302845
7.02017e-08
-2.14752e-11
0.00305943
2.91633e-07
-2.16855e-11
0.00308536
1.77267e-07
-2.16991e-11
0.00311675
7.27452e-07
-2.18562e-11
0.00313611
6.57943e-07
-2.17461e-11
1.46712e-06
-2.15819e-11
0.00316806
0.00234251
-2.64517e-05
-2.12705e-11
0.00239708
-4.78487e-05
-2.13445e-11
0.00246438
-6.30143e-05
-2.12555e-11
0.00253708
-6.69107e-05
-2.1413e-11
0.00260577
-6.43211e-05
-2.12839e-11
0.0026694
-5.80645e-05
-2.14716e-11
0.00272494
-5.08796e-05
-2.12821e-11
0.00277473
-4.43505e-05
-2.14885e-11
0.00281875
-3.91596e-05
-2.13569e-11
0.00285938
-3.52696e-05
-2.15781e-11
0.00289675
-3.23458e-05
-2.14015e-11
0.00293236
-3.03304e-05
-2.15262e-11
0.00296576
-2.8362e-05
-2.13578e-11
0.00299834
-2.74703e-05
-2.15361e-11
0.00302846
-2.51691e-05
-2.15661e-11
0.00305944
-2.58976e-05
-2.17583e-11
0.00308538
-2.09694e-05
-2.17311e-11
0.00311679
-2.60478e-05
-2.1806e-11
0.00313621
-1.40354e-05
-2.1616e-11
-2.59465e-05
-2.17446e-11
0.00316827
0.00234486
-5.62491e-05
-2.12657e-11
0.00240148
-9.87114e-05
-2.1345e-11
0.00246958
-0.000127931
-2.12619e-11
0.00254294
-0.000135485
-2.14192e-11
0.00261187
-0.000129978
-2.12737e-11
0.00267524
-0.000116865
-2.14435e-11
0.00272991
-0.000101941
-2.12592e-11
0.00277818
-8.81842e-05
-2.14888e-11
0.00282015
-7.73035e-05
-2.13536e-11
0.00285816
-6.89178e-05
-2.15155e-11
0.00289253
-6.27245e-05
-2.12606e-11
0.00292458
-5.81304e-05
-2.13607e-11
0.00295427
-5.40646e-05
-2.12525e-11
0.00298248
-5.16522e-05
-2.15685e-11
0.0030085
-4.73161e-05
-2.17158e-11
0.00303428
-4.78835e-05
-2.1874e-11
0.00305617
-3.90726e-05
-2.18028e-11
0.00308153
-4.77722e-05
-2.17327e-11
0.00309724
-2.60898e-05
-2.1498e-11
-4.77717e-05
-2.18296e-11
0.00312268
0.00234427
-8.34274e-05
-2.12714e-11
0.00240269
-0.000149402
-2.13547e-11
0.00247415
-0.000194085
-2.12746e-11
0.00254964
-0.000204212
-2.14143e-11
0.00261815
-0.000193097
-2.12329e-11
0.0026783
-0.000170468
-2.13807e-11
0.00272736
-0.000145325
-2.12241e-11
0.00276815
-0.000122554
-2.15092e-11
0.00280124
-0.000104526
-2.13969e-11
0.00282926
-9.06088e-05
-2.15254e-11
0.00285286
-8.03208e-05
-2.12226e-11
0.00287342
-7.24858e-05
-2.13155e-11
0.00289128
-6.59594e-05
-2.12715e-11
0.00290709
-6.14918e-05
-2.16979e-11
0.00292097
-5.53659e-05
-2.18534e-11
0.00293366
-5.48432e-05
-2.19619e-11
0.00294414
-4.3811e-05
-2.18077e-11
0.00295502
-5.3117e-05
-2.1605e-11
0.00296077
-2.61432e-05
-2.1487e-11
-4.62474e-05
-2.1829e-11
0.00296485
0.00235416
-0.00012363
-2.1268e-11
0.00242244
-0.00021296
-2.1357e-11
0.00249304
-0.000262842
-2.12774e-11
0.00255728
-0.000264797
-2.13981e-11
0.00260499
-0.000238814
-2.11757e-11
0.00263813
-0.000200112
-2.12922e-11
0.00265707
-0.000161844
-2.11484e-11
0.00266675
-0.000128823
-2.14665e-11
0.00266905
-0.000104119
-2.13895e-11
0.00266715
-8.53894e-05
-2.15631e-11
0.0026621
-7.24173e-05
-2.13292e-11
0.00265521
-6.2433e-05
-2.15e-11
0.00264726
-5.51977e-05
-2.1517e-11
0.00263819
-4.95244e-05
-2.19044e-11
0.00262954
-4.40045e-05
-2.18703e-11
0.00261946
-4.2095e-05
-2.18831e-11
0.00261149
-3.32284e-05
-2.15772e-11
0.00260078
-3.99074e-05
-2.14934e-11
0.00259387
-1.6726e-05
-2.15305e-11
-3.00053e-05
-2.17119e-11
0.00258024
0.00236614
-0.000171542
-2.12798e-11
0.00241049
-0.000248498
-2.13586e-11
0.00241663
-0.000262675
-2.12673e-11
0.00239196
-0.000232427
-2.13781e-11
0.00234569
-0.000186165
-2.11555e-11
0.00229183
-0.000138744
-2.13019e-11
0.00223561
-9.89331e-05
-2.12108e-11
0.00218261
-6.84233e-05
-2.1565e-11
0.00213303
-4.76869e-05
-2.14821e-11
0.00208841
-3.35254e-05
-2.16607e-11
0.00204769
-2.48446e-05
-2.14639e-11
0.00201128
-1.90377e-05
-2.16207e-11
0.00197825
-1.54381e-05
-2.14938e-11
0.00194868
-1.32251e-05
-2.16053e-11
0.00192208
-1.07698e-05
-2.14281e-11
0.00189795
-1.14171e-05
-2.15035e-11
0.00187721
-5.86629e-06
-2.14106e-11
0.00185697
-1.31687e-05
-2.16482e-11
0.00184194
5.07343e-06
-2.16696e-11
6.55574e-06
-2.1928e-11
0.00181223
0.00214145
-2.12708e-11
0.00189643
-2.13222e-11
0.00163459
-2.12595e-11
0.00140452
-2.14519e-11
0.00121934
-2.13585e-11
0.00108275
-2.1604e-11
0.000985009
-2.1475e-11
0.000918512
-2.16716e-11
0.000872052
-2.1458e-11
0.000840188
-2.16055e-11
0.000816559
-2.1414e-11
0.000798984
-2.1571e-11
0.00078476
-2.14375e-11
0.000772871
-2.16005e-11
0.000763343
-2.15511e-11
0.000753203
-2.17311e-11
0.000748658
-2.17431e-11
0.000736756
-2.18878e-11
0.000743218
-2.18957e-11
-2.1963e-11
0.000751298
0.00214145
0.000171542
-3.06483e-06
0.00189643
0.000248498
-4.85318e-06
0.00163459
0.000262675
-2.18055e-06
0.00140452
0.000232427
-3.65142e-06
0.00121933
0.000186165
-2.18976e-06
0.00108275
0.000138745
-3.31507e-06
0.000985006
9.89342e-05
-2.32483e-06
0.000918507
6.84256e-05
-3.06594e-06
0.000872043
4.76911e-05
-2.38698e-06
0.000840173
3.35308e-05
-2.84145e-06
0.000816532
2.48563e-05
-2.41158e-06
0.000798941
1.9054e-05
-2.67282e-06
0.000784691
1.54637e-05
-2.4335e-06
0.000772747
1.32809e-05
-2.56307e-06
0.000763178
1.08097e-05
-2.46934e-06
0.000752856
1.16013e-05
-2.50081e-06
0.000748243
5.93039e-06
-2.53259e-06
0.000735878
1.36368e-05
-2.46994e-06
0.000742062
-4.79319e-06
-2.57773e-06
-6.05872e-06
-2.68958e-06
0.000749613
0.00236614
0.00012363
-8.30915e-06
0.00241049
0.000212961
-1.01837e-05
0.00241663
0.000262842
-7.68286e-06
0.00239196
0.000264798
-9.01957e-06
0.00234569
0.000238814
-7.6067e-06
0.00229183
0.000200115
-8.63985e-06
0.00223561
0.000161845
-7.73793e-06
0.00218261
0.000128829
-8.39277e-06
0.00213303
0.000104124
-7.79892e-06
0.00208839
8.5404e-05
-8.17824e-06
0.00204766
7.24352e-05
-7.81902e-06
0.00201123
6.2473e-05
-8.01349e-06
0.00197819
5.52402e-05
-7.83482e-06
0.00194855
4.96486e-05
-7.90219e-06
0.00192191
4.40828e-05
-7.86358e-06
0.00189759
4.24712e-05
-7.8348e-06
0.00187674
3.33953e-05
-7.92254e-06
0.00185604
4.08416e-05
-7.7924e-06
0.00184063
1.73986e-05
-8.05102e-06
3.16751e-05
-8.05431e-06
0.00180973
0.00235416
8.34272e-05
-4.04289e-06
0.00242244
0.000149402
-6.09052e-06
0.00249304
0.000194084
-3.22151e-06
0.00255728
0.000204214
-4.99305e-06
0.00260499
0.000193096
-3.2251e-06
0.00263813
0.000170472
-4.6332e-06
0.00265707
0.000145326
-3.48115e-06
0.00266675
0.000122563
-4.41277e-06
0.00266904
0.000104532
-3.63801e-06
0.00266714
9.0629e-05
-4.2106e-06
0.00266209
8.0342e-05
-3.71594e-06
0.00265518
7.25405e-05
-4.04972e-06
0.00264722
6.6013e-05
-3.7716e-06
0.00263811
6.16595e-05
-3.94094e-06
0.00262943
5.54731e-05
-3.8304e-06
0.00261923
5.53418e-05
-3.87941e-06
0.00261118
4.40599e-05
-3.90331e-06
0.00260017
5.43482e-05
-3.86389e-06
0.00259298
2.70955e-05
-3.90657e-06
4.85299e-05
-4.04032e-06
0.00257873
0.00234427
5.62489e-05
-7.17866e-06
0.00240269
9.8712e-05
-9.09296e-06
0.00247415
0.00012793
-6.69256e-06
0.00254964
0.000135487
-8.0944e-06
0.00261815
0.000129977
-6.62811e-06
0.0026783
0.000116869
-7.67956e-06
0.00272736
0.000101942
-6.74737e-06
0.00276815
8.81931e-05
-7.42619e-06
0.00280124
7.73104e-05
-6.8167e-06
0.00282926
6.89391e-05
-7.21493e-06
0.00285285
6.27493e-05
-6.84337e-06
0.00287341
5.81897e-05
-7.05104e-06
0.00289126
5.41273e-05
-6.8622e-06
0.00290705
5.18368e-05
-6.93904e-06
0.00292091
4.74472e-05
-6.89185e-06
0.00293355
4.84351e-05
-6.87259e-06
0.00294395
3.93917e-05
-6.94907e-06
0.00295468
4.91518e-05
-6.85143e-06
0.00296021
2.72717e-05
-7.09004e-06
5.05133e-05
-7.09023e-06
0.00296383
0.00234486
2.64515e-05
-5.14323e-06
0.00240148
4.78493e-05
-7.12693e-06
0.00246958
6.30138e-05
-4.56944e-06
0.00254294
6.69124e-05
-6.12426e-06
0.00261187
6.43206e-05
-4.50808e-06
0.00267524
5.80684e-05
-5.69784e-06
0.00272991
5.08806e-05
-4.66837e-06
0.00277818
4.43597e-05
-5.45363e-06
0.00282015
3.91669e-05
-4.77426e-06
0.00285816
3.52919e-05
-5.2504e-06
0.00289252
3.23714e-05
-4.82628e-06
0.00292458
3.03933e-05
-5.09154e-06
0.00295426
2.84262e-05
-4.86357e-06
0.00298246
2.7666e-05
-4.98341e-06
0.00300847
2.53049e-05
-4.90688e-06
0.00303423
2.64772e-05
-4.92143e-06
0.0030561
2.13097e-05
-4.96596e-06
0.00308141
2.74812e-05
-4.91375e-06
0.00309703
1.52969e-05
-5.00127e-06
2.87736e-05
-5.09867e-06
0.00312239
0.00234251
-1.22087e-10
-6.14557e-06
0.00239708
3.23795e-10
-8.08962e-06
0.00246438
-2.5561e-10
-5.66664e-06
0.00253708
8.18578e-10
-7.12641e-06
0.00260577
-2.29483e-10
-5.5972e-06
0.0026694
1.94781e-09
-6.69549e-06
0.00272494
5.78951e-10
-5.72477e-06
0.00277473
4.50189e-09
-6.44452e-06
0.00281875
3.91809e-09
-5.81008e-06
0.00285938
1.09571e-08
-6.2393e-06
0.00289675
1.33511e-08
-5.84914e-06
0.00293236
3.12123e-08
-6.07971e-06
0.00296575
3.32433e-08
-5.87679e-06
0.00299834
9.80541e-08
-5.97062e-06
0.00302845
7.04228e-08
-5.91236e-06
0.00305943
2.91776e-07
-5.90716e-06
0.00308536
1.77347e-07
-5.96941e-06
0.00311675
7.27454e-07
-5.89898e-06
0.00313611
6.57959e-07
-6.07134e-06
1.46718e-06
-6.10808e-06
0.00316806
0.00234251
-2.64517e-05
-6.14557e-06
0.00239708
-4.78487e-05