/*--------------------------------*- C++ -*----------------------------------*\
  =========                 |
  \\      /  F ield         | OpenFOAM: The Open Source CFD Toolbox
   \\    /   O peration     | Website:  https://openfoam.org
    \\  /    A nd           | Version:  7
     \\/     M anipulation  |
\*---------------------------------------------------------------------------*/
FoamFile
{
    version     2.0;
    format      ascii;
    class       volScalarField;
    location    "0.0025";
    object      k;
}
// * * * * * * * * * * * * * * * * * * * * * * * * * * * * * * * * * * * * * //

dimensions      [0 2 -2 0 0 0 0];

internalField   nonuniform List<scalar> 
13200
(
7.00396
6.59584
6.46831
6.4969
6.42038
6.42016
6.33508
6.30484
6.27098
6.25823
6.25201
6.24931
6.24831
6.24785
6.2477
6.24765
6.24763
6.24763
6.24767
6.24917
0.0489245
0.0340589
0.0323127
0.0326652
0.0316059
0.0315289
0.0305467
0.030484
0.0302409
0.0303299
0.0303519
0.0304013
0.0304176
0.0304293
0.0304328
0.0304345
0.0304349
0.0304352
0.0304422
0.0304517
0.0308923
0.0196866
0.0183919
0.0187009
0.0179342
0.0179333
0.0172384
0.0172492
0.0170902
0.0171811
0.0172054
0.0172497
0.0172643
0.0172744
0.0172774
0.0172789
0.0172792
0.0172793
0.0172791
0.0172802
0.0309183
0.0197027
0.0184075
0.0187169
0.0179502
0.0179489
0.0172536
0.017264
0.0171048
0.0171956
0.0172199
0.0172641
0.0172787
0.0172888
0.0172918
0.0172933
0.0172936
0.0172938
0.017294
0.0172944
0.0308986
0.0196893
0.018395
0.018704
0.0179375
0.0179365
0.0172415
0.0172521
0.0170931
0.017184
0.0172083
0.0172526
0.0172672
0.0172772
0.0172803
0.0172817
0.017282
0.0172822
0.017282
0.0172828
0.0309137
0.0196986
0.0184039
0.0187132
0.0179465
0.0179454
0.0172502
0.0172606
0.0171015
0.0171923
0.0172166
0.0172609
0.0172755
0.0172856
0.0172886
0.01729
0.0172904
0.0172905
0.0172907
0.0172913
0.0309046
0.0196919
0.0183977
0.0187068
0.0179403
0.0179392
0.0172441
0.0172546
0.0170955
0.0171865
0.0172108
0.017255
0.0172697
0.0172797
0.0172828
0.0172842
0.0172845
0.0172847
0.0172845
0.0172852
0.0309114
0.0196962
0.0184018
0.0187111
0.0179444
0.0179433
0.0172481
0.0172586
0.0170995
0.0171904
0.0172147
0.0172589
0.0172736
0.0172836
0.0172867
0.0172881
0.0172884
0.0172886
0.0172887
0.0172894
0.0309079
0.0196934
0.0183993
0.0187085
0.017942
0.0179408
0.0172457
0.0172562
0.0170971
0.017188
0.0172123
0.0172565
0.0172712
0.0172812
0.0172843
0.0172857
0.017286
0.0172862
0.0172861
0.0172867
0.0309099
0.0196947
0.0184005
0.0187097
0.0179432
0.017942
0.0172469
0.0172573
0.0170982
0.0171891
0.0172134
0.0172577
0.0172723
0.0172824
0.0172854
0.0172869
0.0172872
0.0172874
0.0172874
0.017288
0.0309099
0.0196947
0.0184005
0.0187097
0.0179432
0.017942
0.0172469
0.0172573
0.0170982
0.0171891
0.0172134
0.0172577
0.0172723
0.0172824
0.0172854
0.0172869
0.0172872
0.0172874
0.0172874
0.017288
0.0309079
0.0196934
0.0183993
0.0187085
0.017942
0.0179408
0.0172457
0.0172562
0.0170971
0.017188
0.0172123
0.0172565
0.0172712
0.0172812
0.0172843
0.0172857
0.017286
0.0172862
0.0172861
0.0172867
0.0309114
0.0196962
0.0184018
0.0187111
0.0179444
0.0179433
0.0172481
0.0172586
0.0170995
0.0171904
0.0172147
0.0172589
0.0172736
0.0172836
0.0172867
0.0172881
0.0172885
0.0172887
0.0172888
0.0172893
0.0309046
0.0196919
0.0183977
0.0187068
0.0179403
0.0179392
0.0172441
0.0172546
0.0170955
0.0171865
0.0172108
0.017255
0.0172697
0.0172797
0.0172828
0.0172842
0.0172845
0.0172847
0.0172845
0.0172852
0.0309137
0.0196986
0.0184039
0.0187132
0.0179465
0.0179454
0.0172502
0.0172606
0.0171015
0.0171923
0.0172166
0.0172609
0.0172755
0.0172856
0.0172886
0.01729
0.0172904
0.0172906
0.0172908
0.0172913
0.0308986
0.0196893
0.018395
0.018704
0.0179375
0.0179365
0.0172415
0.0172521
0.0170931
0.017184
0.0172083
0.0172526
0.0172672
0.0172772
0.0172803
0.0172817
0.0172821
0.0172823
0.017282
0.0172828
0.0309183
0.0197027
0.0184075
0.0187169
0.0179502
0.0179489
0.0172536
0.017264
0.0171048
0.0171956
0.0172199
0.0172641
0.0172787
0.0172888
0.0172918
0.0172933
0.0172936
0.0172938
0.017294
0.0172944
0.0308923
0.0196866
0.0183919
0.0187009
0.0179342
0.0179333
0.0172384
0.0172492
0.0170902
0.0171811
0.0172054
0.0172497
0.0172643
0.0172744
0.0172774
0.0172789
0.0172792
0.0172794
0.0172792
0.0172801
0.0489245
0.0340578
0.0323122
0.0326646
0.0316051
0.0315284
0.0305462
0.0304837
0.0302407
0.0303298
0.0303518
0.0304013
0.0304176
0.0304293
0.0304328
0.0304346
0.030435
0.0304352
0.0304439
0.0304529
7.00396
6.59584
6.46831
6.49691
6.42038
6.42017
6.33508
6.30484
6.27098
6.25823
6.25201
6.24931
6.24831
6.24785
6.24771
6.24765
6.24763
6.24763
6.24767
6.24913
0.0352205
0.0359697
0.0297499
0.0319243
0.0273718
0.0273892
0.0230085
0.0216721
0.0201878
0.0197036
0.0194854
0.0193949
0.0193658
0.0193511
0.0193466
0.0193446
0.0193441
0.0193438
0.0193438
0.0193448
0.0199506
0.0178705
0.0178455
0.0177518
0.0179257
0.0178998
0.017992
0.0177371
0.0176559
0.0174556
0.0173839
0.0173157
0.017293
0.0172789
0.0172747
0.0172727
0.0172723
0.0172721
0.0172724
0.0172735
0.0199361
0.0178563
0.0178343
0.0177404
0.017916
0.0178905
0.0179835
0.0177286
0.0176474
0.0174471
0.0173753
0.0173071
0.0172843
0.0172702
0.017266
0.017264
0.0172636
0.0172634
0.0172633
0.0172637
0.019956
0.017874
0.0178517
0.0177576
0.0179331
0.0179074
0.0180003
0.0177454
0.0176642
0.0174639
0.0173921
0.0173239
0.0173011
0.0172871
0.0172828
0.0172808
0.0172804
0.0172802
0.0172806
0.0172815
0.0199418
0.0178612
0.0178391
0.0177452
0.0179207
0.0178952
0.0179881
0.0177333
0.0176521
0.0174517
0.01738
0.0173117
0.0172889
0.0172749
0.0172706
0.0172686
0.0172682
0.017268
0.0172679
0.0172684
0.0199523
0.0178703
0.0178481
0.0177541
0.0179295
0.0179039
0.0179968
0.0177419
0.0176607
0.0174604
0.0173887
0.0173204
0.0172976
0.0172836
0.0172793
0.0172774
0.0172769
0.0172767
0.0172771
0.0172778
0.0199451
0.0178639
0.0178418
0.0177478
0.0179234
0.0178978
0.0179907
0.0177359
0.0176547
0.0174543
0.0173826
0.0173144
0.0172916
0.0172775
0.0172732
0.0172713
0.0172708
0.0172706
0.0172706
0.0172712
0.0199501
0.0178682
0.017846
0.017752
0.0179275
0.0179018
0.0179948
0.0177399
0.0176587
0.0174584
0.0173866
0.0173184
0.0172956
0.0172816
0.0172773
0.0172753
0.0172749
0.0172747
0.017275
0.0172756
0.0199471
0.0178656
0.0178435
0.0177495
0.017925
0.0178993
0.0179923
0.0177374
0.0176563
0.0174559
0.0173842
0.0173159
0.0172931
0.0172791
0.0172748
0.0172728
0.0172724
0.0172722
0.0172723
0.0172729
0.0199486
0.0178668
0.0178447
0.0177507
0.0179261
0.0179005
0.0179935
0.0177386
0.0176574
0.0174571
0.0173853
0.0173171
0.0172943
0.0172803
0.017276
0.017274
0.0172736
0.0172734
0.0172735
0.0172742
0.0199486
0.0178668
0.0178447
0.0177507
0.0179261
0.0179005
0.0179935
0.0177386
0.0176574
0.0174571
0.0173853
0.0173171
0.0172943
0.0172803
0.017276
0.017274
0.0172736
0.0172734
0.0172736
0.0172742
0.0199471
0.0178656
0.0178435
0.0177495
0.017925
0.0178993
0.0179923
0.0177374
0.0176563
0.0174559
0.0173842
0.0173159
0.0172931
0.0172791
0.0172748
0.0172728
0.0172724
0.0172721
0.0172722
0.0172728
0.0199501
0.0178682
0.017846
0.017752
0.0179275
0.0179018
0.0179948
0.0177399
0.0176587
0.0174584
0.0173866
0.0173184
0.0172956
0.0172816
0.0172773
0.0172753
0.0172749
0.0172747
0.0172749
0.0172756
0.0199451
0.0178639
0.0178418
0.0177478
0.0179234
0.0178978
0.0179907
0.0177359
0.0176547
0.0174543
0.0173826
0.0173144
0.0172916
0.0172775
0.0172732
0.0172713
0.0172708
0.0172706
0.0172705
0.0172711
0.0199523
0.0178703
0.0178481
0.0177541
0.0179295
0.0179039
0.0179968
0.0177419
0.0176607
0.0174604
0.0173887
0.0173204
0.0172976
0.0172836
0.0172793
0.0172773
0.0172769
0.0172767
0.017277
0.0172777
0.0199418
0.0178612
0.0178391
0.0177452
0.0179207
0.0178952
0.0179881
0.0177333
0.0176521
0.0174517
0.01738
0.0173117
0.0172889
0.0172749
0.0172706
0.0172686
0.0172682
0.017268
0.0172679
0.0172683
0.019956
0.017874
0.0178517
0.0177576
0.0179331
0.0179074
0.0180003
0.0177454
0.0176642
0.0174639
0.0173921
0.0173239
0.0173011
0.0172871
0.0172828
0.0172808
0.0172804
0.0172802
0.0172805
0.0172813
0.0199361
0.0178563
0.0178343
0.0177404
0.017916
0.0178905
0.0179835
0.0177286
0.0176474
0.0174471
0.0173753
0.0173071
0.0172843
0.0172702
0.017266
0.017264
0.0172635
0.0172633
0.0172632
0.0172635
0.0199506
0.0178705
0.0178455
0.0177518
0.0179257
0.0178998
0.017992
0.0177371
0.0176559
0.0174556
0.0173839
0.0173157
0.017293
0.0172789
0.0172747
0.0172727
0.0172722
0.017272
0.0172723
0.0172733
0.0352205
0.0359697
0.0297499
0.0319243
0.0273718
0.0273892
0.0230085
0.0216721
0.0201879
0.0197036
0.0194854
0.0193949
0.0193659
0.0193511
0.0193467
0.0193447
0.019344
0.0193438
0.0193437
0.0193447
0.00164348
0.00244061
0.00103847
0.00143123
0.000571603
0.000552863
9.72059e-05
4.09069e-05
4.09477e-06
1.27022e-06
4.41139e-07
3.47958e-07
3.23258e-07
3.20196e-07
3.19644e-07
3.19582e-07
3.19576e-07
3.19578e-07
3.19579e-07
3.19626e-07
3.02849e-06
5.05482e-07
3.72957e-07
3.73256e-07
3.52813e-07
3.33435e-07
3.46636e-07
3.23348e-07
3.18086e-07
2.97295e-07
2.92205e-07
2.88651e-07
2.87994e-07
2.87796e-07
2.87769e-07
2.87763e-07
2.87764e-07
2.87764e-07
2.87833e-07
2.87869e-07
2.9366e-06
3.67412e-07
3.35717e-07
3.23795e-07
3.42169e-07
3.2608e-07
3.45713e-07
3.22921e-07
3.17887e-07
2.9713e-07
2.92051e-07
2.88505e-07
2.87824e-07
2.87556e-07
2.87505e-07
2.87487e-07
2.87485e-07
2.87483e-07
2.87484e-07
2.87507e-07
2.93721e-06
3.67708e-07
3.3601e-07
3.24079e-07
3.42461e-07
3.26387e-07
3.4604e-07
3.23239e-07
3.18202e-07
2.97427e-07
2.92342e-07
2.8879e-07
2.88107e-07
2.87838e-07
2.87786e-07
2.87768e-07
2.87766e-07
2.87764e-07
2.87773e-07
2.87802e-07
2.9367e-06
3.67494e-07
3.35802e-07
3.23877e-07
3.42255e-07
3.26172e-07
3.45812e-07
3.23016e-07
3.1798e-07
2.97217e-07
2.92137e-07
2.88588e-07
2.87907e-07
2.87638e-07
2.87586e-07
2.87568e-07
2.87566e-07
2.87565e-07
2.87565e-07
2.87589e-07
2.93689e-06
3.67641e-07
3.35946e-07
3.24015e-07
3.42394e-07
3.26315e-07
3.45962e-07
3.23165e-07
3.18129e-07
2.9736e-07
2.92277e-07
2.88726e-07
2.88044e-07
2.87775e-07
2.87723e-07
2.87705e-07
2.87704e-07
2.87702e-07
2.8771e-07
2.87736e-07
2.93676e-06
3.6754e-07
3.35847e-07
3.23921e-07
3.42299e-07
3.26219e-07
3.45861e-07
3.23065e-07
3.18029e-07
2.97263e-07
2.92181e-07
2.88632e-07
2.8795e-07
2.87682e-07
2.8763e-07
2.87612e-07
2.87609e-07
2.87608e-07
2.8761e-07
2.87634e-07
2.93684e-06
3.67605e-07
3.35911e-07
3.23982e-07
3.4236e-07
3.26279e-07
3.45923e-07
3.23127e-07
3.18092e-07
2.97325e-07
2.92243e-07
2.88693e-07
2.88011e-07
2.87742e-07
2.8769e-07
2.87672e-07
2.87671e-07
2.87669e-07
2.87675e-07
2.87699e-07
2.9368e-06
3.67565e-07
3.35872e-07
3.23945e-07
3.42323e-07
3.26243e-07
3.45887e-07
3.2309e-07
3.18054e-07
2.97288e-07
2.92206e-07
2.88656e-07
2.87975e-07
2.87706e-07
2.87654e-07
2.87636e-07
2.87634e-07
2.87632e-07
2.87635e-07
2.87659e-07
2.93682e-06
3.67584e-07
3.3589e-07
3.23962e-07
3.4234e-07
3.2626e-07
3.45903e-07
3.23107e-07
3.18071e-07
2.97305e-07
2.92223e-07
2.88673e-07
2.87992e-07
2.87723e-07
2.87671e-07
2.87653e-07
2.87651e-07
2.87649e-07
2.87654e-07
2.87677e-07
2.93682e-06
3.67584e-07
3.3589e-07
3.23962e-07
3.4234e-07
3.2626e-07
3.45903e-07
3.23107e-07
3.18071e-07
2.97305e-07
2.92223e-07
2.88673e-07
2.87992e-07
2.87723e-07
2.87671e-07
2.87653e-07
2.87651e-07
2.8765e-07
2.87655e-07
2.87678e-07
2.9368e-06
3.67565e-07
3.35872e-07
3.23945e-07
3.42323e-07
3.26243e-07
3.45887e-07
3.2309e-07
3.18054e-07
2.97288e-07
2.92206e-07
2.88656e-07
2.87975e-07
2.87706e-07
2.87654e-07
2.87636e-07
2.87634e-07
2.87632e-07
2.87634e-07
2.87657e-07
2.93684e-06
3.67605e-07
3.35911e-07
3.23982e-07
3.4236e-07
3.26279e-07
3.45923e-07
3.23127e-07
3.18091e-07
2.97325e-07
2.92243e-07
2.88693e-07
2.88011e-07
2.87742e-07
2.8769e-07
2.87672e-07
2.8767e-07
2.87669e-07
2.87675e-07
2.87698e-07
2.93676e-06
3.6754e-07
3.35847e-07
3.23921e-07
3.42299e-07
3.26219e-07
3.45861e-07
3.23065e-07
3.18029e-07
2.97263e-07
2.92181e-07
2.88632e-07
2.87951e-07
2.87682e-07
2.8763e-07
2.87612e-07
2.8761e-07
2.87608e-07
2.8761e-07
2.87631e-07
2.93689e-06
3.67641e-07
3.35946e-07
3.24015e-07
3.42394e-07
3.26315e-07
3.45962e-07
3.23165e-07
3.18129e-07
2.9736e-07
2.92277e-07
2.88726e-07
2.88044e-07
2.87775e-07
2.87724e-07
2.87705e-07
2.87704e-07
2.87702e-07
2.87709e-07
2.87732e-07
2.93669e-06
3.67494e-07
3.35802e-07
3.23877e-07
3.42255e-07
3.26172e-07
3.45812e-07
3.23016e-07
3.1798e-07
2.97217e-07
2.92137e-07
2.88588e-07
2.87907e-07
2.87638e-07
2.87587e-07
2.87568e-07
2.87567e-07
2.87565e-07
2.87566e-07
2.87586e-07
2.93721e-06
3.67708e-07
3.3601e-07
3.24079e-07
3.42461e-07
3.26387e-07
3.4604e-07
3.23239e-07
3.18202e-07
2.97427e-07
2.92342e-07
2.8879e-07
2.88107e-07
2.87838e-07
2.87786e-07
2.87768e-07
2.87766e-07
2.87765e-07
2.87772e-07
2.87796e-07
2.9366e-06
3.67412e-07
3.35717e-07
3.23795e-07
3.42169e-07
3.2608e-07
3.45713e-07
3.22921e-07
3.17886e-07
2.9713e-07
2.92051e-07
2.88505e-07
2.87824e-07
2.87556e-07
2.87505e-07
2.87487e-07
2.87485e-07
2.87483e-07
2.87483e-07
2.87502e-07
3.02849e-06
5.0548e-07
3.72953e-07
3.73251e-07
3.52807e-07
3.33434e-07
3.46635e-07
3.23347e-07
3.18086e-07
2.97295e-07
2.92205e-07
2.88651e-07
2.87993e-07
2.87795e-07
2.87769e-07
2.87763e-07
2.87764e-07
2.87763e-07
2.87822e-07
2.87856e-07
0.00164348
0.00244061
0.00103847
0.00143123
0.000571603
0.000552863
9.72059e-05
4.09069e-05
4.09478e-06
1.27022e-06
4.41139e-07
3.47958e-07
3.23257e-07
3.20194e-07
3.19644e-07
3.19582e-07
3.19576e-07
3.19578e-07
3.19579e-07
3.19614e-07
0.00164348
0.00244061
0.00103847
0.00143123
0.000571603
0.000552863
9.72058e-05
4.09069e-05
4.09477e-06
1.27022e-06
4.41139e-07
3.47958e-07
3.23259e-07
3.20195e-07
3.19645e-07
3.19582e-07
3.19577e-07
3.19578e-07
3.1958e-07
3.19627e-07
3.02849e-06
5.05472e-07
3.72948e-07
3.73245e-07
3.528e-07
3.33422e-07
3.46626e-07
3.23339e-07
3.18083e-07
2.97293e-07
2.92204e-07
2.88651e-07
2.87994e-07
2.87796e-07
2.87769e-07
2.87763e-07
2.87765e-07
2.87764e-07
2.87833e-07
2.87869e-07
2.9366e-06
3.67402e-07
3.35708e-07
3.23786e-07
3.42156e-07
3.26065e-07
3.45704e-07
3.22912e-07
3.17883e-07
2.97128e-07
2.92051e-07
2.88505e-07
2.87824e-07
2.87556e-07
2.87505e-07
2.87487e-07
2.87485e-07
2.87484e-07
2.87484e-07
2.87508e-07
2.9372e-06
3.67698e-07
3.36002e-07
3.24071e-07
3.42448e-07
3.26372e-07
3.4603e-07
3.2323e-07
3.18198e-07
2.97425e-07
2.92341e-07
2.8879e-07
2.88107e-07
2.87838e-07
2.87786e-07
2.87768e-07
2.87766e-07
2.87765e-07
2.87773e-07
2.87802e-07
2.9367e-06
3.67485e-07
3.35793e-07
3.23869e-07
3.42242e-07
3.26157e-07
3.45802e-07
3.23007e-07
3.17977e-07
2.97215e-07
2.92136e-07
2.88588e-07
2.87907e-07
2.87638e-07
2.87587e-07
2.87569e-07
2.87567e-07
2.87565e-07
2.87565e-07
2.87589e-07
2.93689e-06
3.67631e-07
3.35937e-07
3.24007e-07
3.42381e-07
3.263e-07
3.45953e-07
3.23156e-07
3.18126e-07
2.97358e-07
2.92276e-07
2.88726e-07
2.88044e-07
2.87775e-07
2.87724e-07
2.87705e-07
2.87704e-07
2.87703e-07
2.8771e-07
2.87736e-07
2.93676e-06
3.6753e-07
3.35838e-07
3.23912e-07
3.42286e-07
3.26203e-07
3.45852e-07
3.23056e-07
3.18025e-07
2.97261e-07
2.92181e-07
2.88632e-07
2.8795e-07
2.87682e-07
2.8763e-07
2.87612e-07
2.87609e-07
2.87608e-07
2.8761e-07
2.87634e-07
2.93685e-06
3.67596e-07
3.35902e-07
3.23973e-07
3.42347e-07
3.26264e-07
3.45914e-07
3.23118e-07
3.18088e-07
2.97323e-07
2.92242e-07
2.88693e-07
2.88011e-07
2.87742e-07
2.87691e-07
2.87672e-07
2.87671e-07
2.8767e-07
2.87675e-07
2.87699e-07
2.93679e-06
3.67555e-07
3.35863e-07
3.23937e-07
3.4231e-07
3.26228e-07
3.45877e-07
3.23081e-07
3.18051e-07
2.97286e-07
2.92205e-07
2.88656e-07
2.87975e-07
2.87706e-07
2.87654e-07
2.87636e-07
2.87634e-07
2.87632e-07
2.87636e-07
2.87659e-07
2.93682e-06
3.67574e-07
3.35882e-07
3.23954e-07
3.42327e-07
3.26244e-07
3.45894e-07
3.23098e-07
3.18068e-07
2.97303e-07
2.92222e-07
2.88673e-07
2.87992e-07
2.87723e-07
2.87671e-07
2.87653e-07
2.87651e-07
2.8765e-07
2.87654e-07
2.87677e-07
2.93682e-06
3.67574e-07
3.35882e-07
3.23954e-07
3.42327e-07
3.26244e-07
3.45894e-07
3.23098e-07
3.18068e-07
2.97303e-07
2.92222e-07
2.88673e-07
2.87992e-07
2.87723e-07
2.87671e-07
2.87653e-07
2.87651e-07
2.8765e-07
2.87655e-07
2.87678e-07
2.93679e-06
3.67555e-07
3.35863e-07
3.23937e-07
3.4231e-07
3.26228e-07
3.45877e-07
3.23081e-07
3.18051e-07
2.97286e-07
2.92205e-07
2.88656e-07
2.87975e-07
2.87706e-07
2.87654e-07
2.87636e-07
2.87634e-07
2.87632e-07
2.87635e-07
2.87657e-07
2.93685e-06
3.67596e-07
3.35902e-07
3.23973e-07
3.42347e-07
3.26264e-07
3.45914e-07
3.23118e-07
3.18088e-07
2.97323e-07
2.92242e-07
2.88693e-07
2.88011e-07
2.87742e-07
2.87691e-07
2.87672e-07
2.87671e-07
2.87669e-07
2.87675e-07
2.87698e-07
2.93676e-06
3.6753e-07
3.35838e-07
3.23912e-07
3.42286e-07
3.26203e-07
3.45852e-07
3.23056e-07
3.18025e-07
2.97261e-07
2.92181e-07
2.88632e-07
2.87951e-07
2.87682e-07
2.8763e-07
2.87612e-07
2.8761e-07
2.87609e-07
2.8761e-07
2.87631e-07
2.93689e-06
3.67631e-07
3.35937e-07
3.24007e-07
3.42381e-07
3.263e-07
3.45953e-07
3.23156e-07
3.18126e-07
2.97358e-07
2.92276e-07
2.88726e-07
2.88044e-07
2.87775e-07
2.87724e-07
2.87706e-07
2.87704e-07
2.87702e-07
2.87709e-07
2.87732e-07
2.9367e-06
3.67485e-07
3.35793e-07
3.23869e-07
3.42242e-07
3.26157e-07
3.45802e-07
3.23007e-07
3.17977e-07
2.97215e-07
2.92136e-07
2.88588e-07
2.87907e-07
2.87638e-07
2.87587e-07
2.87569e-07
2.87567e-07
2.87565e-07
2.87566e-07
2.87586e-07
2.93721e-06
3.67698e-07
3.36002e-07
3.24071e-07
3.42448e-07
3.26372e-07
3.4603e-07
3.2323e-07
3.18198e-07
2.97425e-07
2.92341e-07
2.8879e-07
2.88107e-07
2.87838e-07
2.87786e-07
2.87768e-07
2.87766e-07
2.87765e-07
2.87772e-07
2.87797e-07
2.93659e-06
3.67402e-07
3.35708e-07
3.23786e-07
3.42156e-07
3.26065e-07
3.45704e-07
3.22912e-07
3.17883e-07
2.97128e-07
2.92051e-07
2.88505e-07
2.87824e-07
2.87556e-07
2.87505e-07
2.87487e-07
2.87485e-07
2.87483e-07
2.87483e-07
2.87502e-07
3.02849e-06
5.05469e-07
3.72944e-07
3.73247e-07
3.52798e-07
3.33421e-07
3.46625e-07
3.23338e-07
3.18083e-07
2.97293e-07
2.92204e-07
2.88651e-07
2.87994e-07
2.87795e-07
2.87769e-07
2.87763e-07
2.87764e-07
2.87763e-07
2.87822e-07
2.87857e-07
0.00164348
0.00244061
0.00103847
0.00143123
0.000571603
0.000552863
9.72057e-05
4.09068e-05
4.09477e-06
1.27022e-06
4.41138e-07
3.47957e-07
3.23257e-07
3.20194e-07
3.19644e-07
3.19582e-07
3.19576e-07
3.19577e-07
3.19578e-07
3.19614e-07
0.0352205
0.0359695
0.0297498
0.0319242
0.0273717
0.0273891
0.0230085
0.021672
0.0201878
0.0197036
0.0194854
0.0193949
0.0193659
0.0193511
0.0193467
0.0193447
0.0193441
0.0193439
0.0193438
0.0193448
0.0199506
0.0178705
0.0178455
0.0177518
0.0179257
0.0178998
0.017992
0.0177371
0.0176559
0.0174556
0.0173839
0.0173157
0.017293
0.0172789
0.0172747
0.0172727
0.0172723
0.0172721
0.0172724
0.0172735
0.0199361
0.0178563
0.0178343
0.0177404
0.017916
0.0178905
0.0179835
0.0177286
0.0176474
0.0174471
0.0173753
0.0173071
0.0172843
0.0172702
0.017266
0.017264
0.0172636
0.0172634
0.0172633
0.0172637
0.019956
0.017874
0.0178517
0.0177576
0.0179331
0.0179074
0.0180003
0.0177454
0.0176642
0.0174639
0.0173921
0.0173239
0.0173011
0.0172871
0.0172828
0.0172808
0.0172804
0.0172802
0.0172806
0.0172815
0.0199418
0.0178612
0.0178391
0.0177452
0.0179207
0.0178952
0.0179881
0.0177333
0.0176521
0.0174517
0.01738
0.0173117
0.0172889
0.0172749
0.0172706
0.0172686
0.0172682
0.017268
0.0172679
0.0172684
0.0199523
0.0178703
0.0178481
0.0177541
0.0179295
0.0179039
0.0179968
0.0177419
0.0176607
0.0174604
0.0173887
0.0173204
0.0172976
0.0172836
0.0172793
0.0172774
0.0172769
0.0172767
0.0172771
0.0172778
0.0199451
0.0178639
0.0178418
0.0177478
0.0179234
0.0178978
0.0179907
0.0177359
0.0176547
0.0174543
0.0173826
0.0173144
0.0172916
0.0172775
0.0172732
0.0172713
0.0172708
0.0172706
0.0172706
0.0172712
0.0199501
0.0178682
0.017846
0.017752
0.0179275
0.0179018
0.0179948
0.0177399
0.0176587
0.0174584
0.0173866
0.0173184
0.0172956
0.0172816
0.0172773
0.0172753
0.0172749
0.0172747
0.017275
0.0172756
0.0199471
0.0178656
0.0178435
0.0177495
0.017925
0.0178993
0.0179923
0.0177374
0.0176563
0.0174559
0.0173842
0.0173159
0.0172931
0.0172791
0.0172748
0.0172728
0.0172724
0.0172722
0.0172723
0.0172729
0.0199486
0.0178668
0.0178447
0.0177507
0.0179261
0.0179005
0.0179935
0.0177386
0.0176574
0.0174571
0.0173853
0.0173171
0.0172943
0.0172803
0.017276
0.017274
0.0172736
0.0172734
0.0172735
0.0172742
0.0199486
0.0178668
0.0178447
0.0177507
0.0179261
0.0179005
0.0179935
0.0177386
0.0176574
0.0174571
0.0173853
0.0173171
0.0172943
0.0172803
0.017276
0.017274
0.0172736
0.0172734
0.0172736
0.0172742
0.0199471
0.0178656
0.0178435
0.0177495
0.017925
0.0178993
0.0179923
0.0177374
0.0176563
0.0174559
0.0173842
0.0173159
0.0172931
0.0172791
0.0172748
0.0172728
0.0172724
0.0172721
0.0172722
0.0172728
0.0199501
0.0178682
0.017846
0.017752
0.0179275
0.0179018
0.0179948
0.0177399
0.0176587
0.0174584
0.0173866
0.0173184
0.0172956
0.0172816
0.0172773
0.0172753
0.0172749
0.0172747
0.0172749
0.0172756
0.0199451
0.0178639
0.0178418
0.0177478
0.0179234
0.0178978
0.0179907
0.0177359
0.0176547
0.0174543
0.0173826
0.0173144
0.0172916
0.0172775
0.0172732
0.0172713
0.0172708
0.0172706
0.0172705
0.0172711
0.0199523
0.0178703
0.0178481
0.0177541
0.0179295
0.0179039
0.0179968
0.0177419
0.0176607
0.0174604
0.0173887
0.0173204
0.0172976
0.0172836
0.0172793
0.0172773
0.0172769
0.0172767
0.017277
0.0172777
0.0199418
0.0178612
0.0178391
0.0177452
0.0179207
0.0178952
0.0179881
0.0177333
0.0176521
0.0174517
0.01738
0.0173117
0.0172889
0.0172749
0.0172706
0.0172686
0.0172682
0.017268
0.0172679
0.0172683
0.019956
0.017874
0.0178517
0.0177576
0.0179331
0.0179074
0.0180003
0.0177454
0.0176642
0.0174639
0.0173921
0.0173239
0.0173011
0.0172871
0.0172828
0.0172808
0.0172804
0.0172802
0.0172805
0.0172813
0.0199361
0.0178563
0.0178343
0.0177404
0.017916
0.0178905
0.0179835
0.0177286
0.0176474
0.0174471
0.0173753
0.0173071
0.0172843
0.0172702
0.017266
0.017264
0.0172635
0.0172633
0.0172632
0.0172635
0.0199506
0.0178705
0.0178455
0.0177518
0.0179257
0.0178998
0.017992
0.0177371
0.0176559
0.0174556
0.0173839
0.0173157
0.017293
0.0172789
0.0172747
0.0172727
0.0172722
0.017272
0.0172723
0.0172733
0.0352205
0.0359695
0.0297498
0.0319242
0.0273717
0.0273891
0.0230085
0.021672
0.0201878
0.0197036
0.0194854
0.0193949
0.0193659
0.0193511
0.0193467
0.0193446
0.019344
0.0193438
0.0193437
0.0193447
7.00396
6.59584
6.46831
6.49691
6.42038
6.42017
6.33508
6.30484
6.27098
6.25823
6.25201
6.24931
6.24831
6.24785
6.2477
6.24764
6.24763
6.24763
6.24766
6.24916
0.0489245
0.0340589
0.0323127
0.0326652
0.0316059
0.0315289
0.0305467
0.030484
0.0302409
0.0303299
0.0303519
0.0304013
0.0304176
0.0304293
0.0304328
0.0304345
0.0304349
0.0304352
0.0304422
0.0304517
0.0308923
0.0196866
0.0183919
0.0187009
0.0179342
0.0179333
0.0172384
0.0172492
0.0170902
0.0171811
0.0172054
0.0172497
0.0172643
0.0172744
0.0172774
0.0172789
0.0172792
0.0172793
0.0172791
0.0172802
0.0309183
0.0197027
0.0184075
0.0187169
0.0179502
0.0179489
0.0172536
0.017264
0.0171048
0.0171956
0.0172199
0.0172641
0.0172787
0.0172888
0.0172918
0.0172933
0.0172936
0.0172938
0.017294
0.0172944
0.0308986
0.0196893
0.018395
0.018704
0.0179375
0.0179365
0.0172415
0.0172521
0.0170931
0.017184
0.0172083
0.0172526
0.0172672
0.0172772
0.0172803
0.0172817
0.017282
0.0172822
0.017282
0.0172828
0.0309137
0.0196986
0.0184039
0.0187132
0.0179465
0.0179454
0.0172502
0.0172606
0.0171015
0.0171923
0.0172166
0.0172609
0.0172755
0.0172856
0.0172886
0.01729
0.0172904
0.0172905
0.0172907
0.0172913
0.0309046
0.0196919
0.0183977
0.0187068
0.0179403
0.0179392
0.0172441
0.0172546
0.0170955
0.0171865
0.0172108
0.017255
0.0172697
0.0172797
0.0172828
0.0172842
0.0172845
0.0172847
0.0172845
0.0172852
0.0309114
0.0196962
0.0184018
0.0187111
0.0179444
0.0179433
0.0172481
0.0172586
0.0170995
0.0171904
0.0172147
0.0172589
0.0172736
0.0172836
0.0172867
0.0172881
0.0172884
0.0172886
0.0172887
0.0172894
0.0309079
0.0196934
0.0183993
0.0187085
0.017942
0.0179408
0.0172457
0.0172562
0.0170971
0.017188
0.0172123
0.0172565
0.0172712
0.0172812
0.0172843
0.0172857
0.017286
0.0172862
0.0172861
0.0172867
0.0309099
0.0196947
0.0184005
0.0187097
0.0179432
0.017942
0.0172469
0.0172573
0.0170982
0.0171891
0.0172134
0.0172577
0.0172723
0.0172824
0.0172854
0.0172869
0.0172872
0.0172874
0.0172874
0.017288
0.0309099
0.0196947
0.0184005
0.0187097
0.0179432
0.017942
0.0172469
0.0172573
0.0170982
0.0171891
0.0172134
0.0172577
0.0172723
0.0172824
0.0172854
0.0172869
0.0172872
0.0172874
0.0172874
0.017288
0.0309079
0.0196934
0.0183993
0.0187085
0.017942
0.0179408
0.0172457
0.0172562
0.0170971
0.017188
0.0172123
0.0172565
0.0172712
0.0172812
0.0172843
0.0172857
0.017286
0.0172862
0.0172861
0.0172867
0.0309114
0.0196962
0.0184018
0.0187111
0.0179444
0.0179433
0.0172481
0.0172586
0.0170995
0.0171904
0.0172147
0.0172589
0.0172736
0.0172836
0.0172867
0.0172881
0.0172885
0.0172887
0.0172888
0.0172893
0.0309046
0.0196919
0.0183977
0.0187068
0.0179403
0.0179392
0.0172441
0.0172546
0.0170955
0.0171865
0.0172108
0.017255
0.0172697
0.0172797
0.0172828
0.0172842
0.0172845
0.0172847
0.0172845
0.0172852
0.0309137
0.0196986
0.0184039
0.0187132
0.0179465
0.0179454
0.0172502
0.0172606
0.0171015
0.0171923
0.0172166
0.0172609
0.0172755
0.0172856
0.0172886
0.01729
0.0172904
0.0172906
0.0172908
0.0172913
0.0308986
0.0196893
0.018395
0.018704
0.0179375
0.0179365
0.0172415
0.0172521
0.0170931
0.017184
0.0172083
0.0172526
0.0172672
0.0172772
0.0172803
0.0172817
0.0172821
0.0172823
0.017282
0.0172828
0.0309183
0.0197027
0.0184075
0.0187169
0.0179502
0.0179489
0.0172536
0.017264
0.0171048
0.0171956
0.0172199
0.0172641
0.0172787
0.0172888
0.0172918
0.0172933
0.0172936
0.0172938
0.017294
0.0172944
0.0308923
0.0196866
0.0183919
0.0187009
0.0179342
0.0179333
0.0172384
0.0172492
0.0170902
0.0171811
0.0172054
0.0172497
0.0172643
0.0172744
0.0172774
0.0172789
0.0172792
0.0172794
0.0172792
0.0172801
0.0489245
0.0340578
0.0323122
0.0326646
0.0316051
0.0315284
0.0305462
0.0304837
0.0302407
0.0303298
0.0303518
0.0304013
0.0304176
0.0304293
0.0304328
0.0304346
0.030435
0.0304352
0.0304439
0.0304529
7.00396
6.59584
6.46831
6.49691
6.42038
6.42017
6.33508
6.30484
6.27098
6.25823
6.25201
6.24931
6.24831
6.24785
6.24771
6.24765
6.24763
6.24763
6.24767
6.24913
20.1308
20.1311
20.1312
20.1312
20.1312
20.1312
20.1312
20.1312
20.1312
20.1312
20.1312
20.1312
20.1312
20.1312
20.1312
20.1312
20.1312
20.1312
20.1312
20.1312
20.1312
20.1312
20.1312
20.1312
20.1312
20.1312
20.1312
20.1312
20.1312
20.1312
20.1312
20.1312
20.1312
20.1312
20.1312
20.1312
20.1312
20.1312
20.1312
20.1312
20.1312
20.1312
20.1312
20.1312
20.1312
20.1312
20.1312
20.1312
20.1312
20.1312
20.1312
20.1312
20.1312
20.1312
20.1312
20.1312
20.1312
20.1312
20.1312
20.1312
20.1312
20.1312
20.1312
20.1312
20.1312
20.1312
20.1312
20.1312
20.1312
20.1312
20.1312
20.1312
20.1312
20.1312
20.1312
20.1312
20.1312
20.1312
20.1312
20.1312
20.1312
20.1312
20.1312
20.1312
20.1312
20.1312
20.1312
20.1312
20.1312
20.2156
0.193624
0.193637
0.193673
0.193673
0.193673
0.193673
0.193673
0.193673
0.193673
0.193673
0.193673
0.193673
0.193673
0.193673
0.193673
0.193673
0.193673
0.193673
0.193673
0.193673
0.193673
0.193673
0.193673
0.193673
0.193673
0.193673
0.193673
0.193673
0.193673
0.193673
0.193673
0.193673
0.193673
0.193673
0.193673
0.193673
0.193673
0.193673
0.193673
0.193673
0.193673
0.193673
0.193673
0.193673
0.193673
0.193673
0.193673
0.193673
0.193673
0.193673
0.193673
0.193673
0.193673
0.193673
0.193673
0.193673
0.193673
0.193673
0.193673
0.193673
0.193673
0.193673
0.193673
0.193673
0.193673
0.193673
0.193673
0.193673
0.193673
0.193673
0.193673
0.193673
0.193673
0.193673
0.193673
0.193673
0.193673
0.193673
0.193673
0.193673
0.193673
0.193673
0.193673
0.193673
0.193672
0.193672
0.19366
0.193658
0.193497
0.200278
0.0573919
0.0573919
0.0573912
0.0573912
0.0573912
0.0573912
0.0573912
0.0573912
0.0573912
0.0573912
0.0573912
0.0573912
0.0573912
0.0573912
0.0573912
0.0573912
0.0573912
0.0573912
0.0573912
0.0573912
0.0573912
0.0573912
0.0573912
0.0573912
0.0573912
0.0573912
0.0573912
0.0573912
0.0573912
0.0573912
0.0573912
0.0573912
0.0573912
0.0573912
0.0573912
0.0573912
0.0573912
0.0573912
0.0573912
0.0573912
0.0573912
0.0573912
0.0573912
0.0573912
0.0573912
0.0573912
0.0573912
0.0573912
0.0573912
0.0573912
0.0573912
0.0573912
0.0573912
0.0573912
0.0573912
0.0573912
0.0573912
0.0573912
0.0573912
0.0573912
0.0573912
0.0573912
0.0573912
0.0573912
0.0573912
0.0573912
0.0573912
0.0573912
0.0573912
0.0573912
0.0573912
0.0573912
0.0573912
0.0573912
0.0573912
0.0573912
0.0573912
0.0573912
0.0573912
0.0573912
0.0573912
0.0573912
0.0573912
0.0573911
0.0573908
0.0573907
0.0573862
0.0573857
0.0573632
0.0626963
0.0574909
0.0574908
0.0574907
0.0574907
0.0574907
0.0574907
0.0574907
0.0574907
0.0574907
0.0574907
0.0574907
0.0574907
0.0574907
0.0574907
0.0574907
0.0574907
0.0574907
0.0574907
0.0574907
0.0574907
0.0574907
0.0574907
0.0574907
0.0574907
0.0574907
0.0574907
0.0574907
0.0574907
0.0574907
0.0574907
0.0574907
0.0574907
0.0574907
0.0574907
0.0574907
0.0574907
0.0574907
0.0574907
0.0574907
0.0574907
0.0574907
0.0574907
0.0574907
0.0574907
0.0574907
0.0574907
0.0574907
0.0574907
0.0574907
0.0574907
0.0574907
0.0574907
0.0574907
0.0574907
0.0574907
0.0574907
0.0574907
0.0574907
0.0574907
0.0574907
0.0574907
0.0574907
0.0574907
0.0574907
0.0574907
0.0574907
0.0574907
0.0574907
0.0574907
0.0574907
0.0574907
0.0574907
0.0574907
0.0574907
0.0574907
0.0574907
0.0574907
0.0574907
0.0574907
0.0574907
0.0574907
0.0574907
0.0574907
0.0574906
0.0574903
0.0574902
0.0574857
0.0574853
0.0574626
0.0628009
0.0573663
0.0573662
0.0573656
0.0573656
0.0573655
0.0573655
0.0573655
0.0573655
0.0573655
0.0573655
0.0573655
0.0573655
0.0573655
0.0573655
0.0573655
0.0573655
0.0573655
0.0573655
0.0573655
0.0573655
0.0573655
0.0573655
0.0573655
0.0573655
0.0573655
0.0573655
0.0573655
0.0573655
0.0573655
0.0573655
0.0573655
0.0573655
0.0573655
0.0573655
0.0573655
0.0573655
0.0573655
0.0573655
0.0573655
0.0573655
0.0573655
0.0573655
0.0573655
0.0573655
0.0573655
0.0573655
0.0573655
0.0573655
0.0573655
0.0573655
0.0573655
0.0573655
0.0573655
0.0573655
0.0573655
0.0573655
0.0573655
0.0573655
0.0573655
0.0573655
0.0573655
0.0573655
0.0573655
0.0573655
0.0573655
0.0573655
0.0573655
0.0573655
0.0573655
0.0573655
0.0573655
0.0573655
0.0573655
0.0573655
0.0573655
0.0573655