/*--------------------------------*- C++ -*----------------------------------*\
  =========                 |
  \\      /  F ield         | OpenFOAM: The Open Source CFD Toolbox
   \\    /   O peration     | Website:  https://openfoam.org
    \\  /    A nd           | Version:  7
     \\/     M anipulation  |
\*---------------------------------------------------------------------------*/
FoamFile
{
    version     2.0;
    format      ascii;
    class       surfaceScalarField;
    location    "5.6";
    object      phi_0;
}
// * * * * * * * * * * * * * * * * * * * * * * * * * * * * * * * * * * * * * //

dimensions      [1 0 -1 0 0 0 0];

internalField   nonuniform List<scalar> 
11256
(
0.00287848
0.00403087
0.00172032
0.00115816
0.00146297
0.000257346
0.00132439
0.00013858
0.00123611
8.82745e-05
0.00118808
4.80194e-05
0.0011577
3.03736e-05
0.00112955
2.8148e-05
0.00110182
2.77342e-05
0.00107722
2.45943e-05
0.00105652
2.06961e-05
0.00103873
1.779e-05
0.00102287
1.58605e-05
0.0010085
1.43646e-05
0.00099546
1.30358e-05
0.000983605
1.18523e-05
0.000972768
1.08339e-05
0.000962802
9.96333e-06
0.000953593
9.20598e-06
0.000945053
8.53702e-06
0.000937108
7.94234e-06
0.000929694
7.41185e-06
0.000922755
6.93649e-06
0.000916244
6.50826e-06
0.000910121
6.12067e-06
0.000904351
5.76841e-06
0.000898902
5.4471e-06
0.000893746
5.15304e-06
0.000888861
4.8831e-06
0.000884224
4.63454e-06
0.000879817
4.40505e-06
0.000875622
4.1926e-06
0.000871625
3.99545e-06
0.000867811
3.8121e-06
0.000864167
3.64115e-06
0.000860684
3.48155e-06
0.00085735
3.3322e-06
0.000854156
3.19195e-06
0.000851094
3.06037e-06
0.000848155
2.93672e-06
0.000845333
2.82006e-06
0.000842622
2.70984e-06
0.000840014
2.60562e-06
0.000837506
2.50688e-06
0.000835091
2.4132e-06
0.000832765
2.32413e-06
0.000830525
2.23915e-06
0.000828365
2.15821e-06
0.000826283
2.0804e-06
0.000824274
2.00801e-06
0.000822334
1.93794e-06
0.000820463
1.86978e-06
0.000818657
1.8045e-06
0.000816914
1.7418e-06
0.000815232
1.6814e-06
0.000813607
1.6232e-06
0.000812039
1.56689e-06
0.000810526
1.51285e-06
0.000809064
1.46067e-06
0.000807653
1.40972e-06
0.000806292
1.36017e-06
0.000804978
1.31293e-06
0.00080371
1.26743e-06
0.000802487
1.22258e-06
0.000801307
1.17904e-06
0.00080017
1.13706e-06
0.000799072
1.09671e-06
0.000798014
1.05754e-06
0.000796994
1.01957e-06
0.000796011
9.82954e-07
0.000795063
9.47576e-07
0.000794149
9.13386e-07
0.000793269
8.80425e-07
0.00079242
8.48682e-07
0.000791602
8.18135e-07
0.000790813
7.88753e-07
0.000790053
7.60509e-07
0.00078932
7.33381e-07
0.000788612
7.07364e-07
0.00078793
6.82428e-07
0.000787272
6.58534e-07
0.000786637
6.35652e-07
0.000786024
6.13772e-07
0.000785432
5.92869e-07
0.00078486
5.72896e-07
0.000784307
5.5381e-07
0.000783772
5.35604e-07
0.000783255
5.18245e-07
0.000782754
5.01691e-07
0.000782269
4.85916e-07
0.0007818
4.70891e-07
0.000781344
4.56581e-07
0.000780903
4.42951e-07
0.000780475
4.29973e-07
0.000780059
4.17616e-07
0.000779654
4.05852e-07
0.000779262
3.9465e-07
0.00077888
3.83984e-07
0.000778508
3.73827e-07
0.000778146
3.64153e-07
0.000777793
3.54937e-07
0.000777449
3.46157e-07
0.000777114
3.3779e-07
0.000776787
3.29815e-07
0.000776467
3.22213e-07
0.000776155
3.14965e-07
0.00077585
3.08052e-07
0.000775551
3.01458e-07
0.000775259
2.95164e-07
0.000774973
2.89156e-07
0.000774693
2.83417e-07
0.000774418
2.77934e-07
0.000774149
2.72693e-07
0.000773885
2.67679e-07
0.000773626
2.6288e-07
0.000773372
2.58284e-07
0.000773122
2.53879e-07
0.000772876
2.49653e-07
0.000772635
2.45599e-07
0.000772397
2.41706e-07
0.000772164
2.37965e-07
0.000771934
2.34369e-07
0.000771707
2.3091e-07
0.000771484
2.27582e-07
0.000771265
2.2438e-07
0.000771049
2.21296e-07
0.000770835
2.18327e-07
0.000770625
2.15467e-07
0.000770417
2.12712e-07
0.000770213
2.10058e-07
0.000770011
2.075e-07
0.000769811
2.05034e-07
0.000769614
2.02656e-07
0.00076942
2.00362e-07
0.000769228
1.98149e-07
0.000769038
1.96013e-07
0.00076885
1.93951e-07
0.000768665
1.91961e-07
0.000768482
1.9004e-07
0.0007683
1.88186e-07
0.000768121
1.86399e-07
0.000767944
1.84677e-07
0.000767768
1.83021e-07
0.000767595
1.81431e-07
0.000767423
1.79908e-07
0.000767253
1.78453e-07
0.000767084
1.77067e-07
0.000766918
1.75752e-07
0.000766753
1.74509e-07
0.000766589
1.7334e-07
0.000766428
1.72248e-07
0.000766267
1.71233e-07
0.000766108
1.70297e-07
0.000765951
1.69442e-07
0.000765795
1.6867e-07
0.000765641
1.67983e-07
0.000765488
1.67383e-07
0.000765336
1.66871e-07
0.000765186
1.6645e-07
0.000765037
1.66121e-07
0.000764889
1.65891e-07
0.000764743
1.6576e-07
0.000764598
1.65735e-07
0.000764455
1.65819e-07
0.000764312
1.66015e-07
0.000764171
1.66331e-07
0.000764031
1.66768e-07
0.000763893
1.67333e-07
0.000763755
1.68031e-07
0.000763619
1.68868e-07
0.000763484
1.69851e-07
0.00076335
1.70985e-07
0.000763218
1.72269e-07
0.000763087
1.73705e-07
0.000762957
1.75299e-07
0.000762828
1.77057e-07
0.0007627
1.78981e-07
0.000762574
1.81075e-07
0.000762449
1.8334e-07
0.000762325
1.85776e-07
0.000762202
1.88389e-07
0.00076208
1.91195e-07
0.00076196
1.94174e-07
0.000761841
1.97329e-07
0.000761723
2.00702e-07
0.000761607
2.04237e-07
0.000761491
2.08007e-07
0.000761378
2.11968e-07
0.000761265
2.16139e-07
0.000761153
2.20565e-07
0.000761043
2.25135e-07
0.000760935
2.29972e-07
0.000760827
2.34971e-07
0.000760721
2.40243e-07
0.000760616
2.45729e-07
0.000760513
2.51463e-07
0.000760411
2.57374e-07
0.00076031
2.63513e-07
0.000760211
2.6988e-07
0.000760113
2.76489e-07
0.000760017
2.83314e-07
0.000759922
2.90334e-07
0.000759829
2.97597e-07
0.000759737
3.05087e-07
0.000759646
3.12797e-07
0.000759558
3.20716e-07
0.00075947
3.28849e-07
0.000759385
3.37216e-07
0.0007593
3.45837e-07
0.000759218
3.54672e-07
0.000759137
3.63686e-07
0.000759058
3.72961e-07
0.00075898
3.82376e-07
0.000758904
3.92226e-07
0.000758829
4.01983e-07
0.000758757
4.12299e-07
0.000758686
4.22392e-07
0.000758616
4.33272e-07
0.000758549
4.4355e-07
0.000758483
4.55076e-07
0.00075842
4.6539e-07
0.000758357
4.77844e-07
0.000758297
4.88121e-07
0.000758238
5.01645e-07
0.000758182
5.10902e-07
0.000758126
5.26273e-07
0.000758075
5.34355e-07
0.000758021
5.52263e-07
0.000757975
5.57717e-07
0.000757923
5.79225e-07
0.000757884
5.81492e-07
0.000757833
6.07861e-07
0.0007578
6.04834e-07
0.000757751
6.36738e-07
0.000757724
6.29988e-07
0.00075768
6.63431e-07
0.000757651
6.6121e-07
0.000757628
6.77294e-07
0.000757584
7.06185e-07
6.74982e-07
0.00551732
0.00542288
0.00437045
0.00230503
0.00388669
0.000741108
0.00355217
0.000473101
0.0033198
0.000320636
0.00317848
0.000189337
0.00308698
0.000121864
0.00301204
0.000103083
0.00294326
9.65112e-05
0.00288179
8.60617e-05
0.00282868
7.37996e-05
0.00278261
6.38548e-05
0.00274176
5.67135e-05
0.00270494
5.11777e-05
0.00267155
4.64228e-05
0.00264115
4.22433e-05
0.00261335
3.86305e-05
0.00258779
3.55222e-05
0.00256417
3.2816e-05
0.00254228
3.04296e-05
0.0025219
2.83099e-05
0.00250289
2.64185e-05
0.0024851
2.4723e-05
0.00246841
2.31955e-05
0.00245271
2.1813e-05
0.00243792
2.05565e-05
0.00242395
1.94103e-05
0.00241074
1.83612e-05
0.00239822
1.7398e-05
0.00238633
1.6511e-05
0.00237504
1.56919e-05
0.00236429
1.49336e-05
0.00235405
1.42298e-05
0.00234428
1.35751e-05
0.00233495
1.29646e-05
0.00232604
1.23946e-05
0.0023175
1.18609e-05
0.00230933
1.13601e-05
0.00230149
1.08902e-05
0.00229397
1.04482e-05
0.00228675
1.00312e-05
0.00227982
9.63741e-06
0.00227315
9.26503e-06
0.00226674
8.91224e-06
0.00226057
8.57759e-06
0.00225463
8.25937e-06
0.0022489
7.95612e-06
0.00224339
7.66691e-06
0.00223807
7.38964e-06
0.00223294
7.12964e-06
0.00222799
6.87937e-06
0.00222322
6.63732e-06
0.00221861
6.40455e-06
0.00221416
6.18078e-06
0.00220987
5.96562e-06
0.00220572
5.75833e-06
0.00220173
5.558e-06
0.00219786
5.36592e-06
0.00219414
5.18023e-06
0.00219054
4.9991e-06
0.00218707
4.82406e-06
0.00218371
4.65576e-06
0.00218048
4.49348e-06
0.00217736
4.33558e-06
0.00217435
4.18205e-06
0.00217144
4.03357e-06
0.00216864
3.89072e-06
0.00216593
3.75239e-06
0.00216333
3.61847e-06
0.00216081
3.48935e-06
0.00215838
3.3647e-06
0.00215604
3.24436e-06
0.00215379
3.12838e-06
0.00215161
3.01673e-06
0.00214951
2.90933e-06
0.00214748
2.80607e-06
0.00214553
2.70685e-06
0.00214364
2.61159e-06
0.00214182
2.52024e-06
0.00214006
2.4327e-06
0.00213836
2.34884e-06
0.00213671
2.26855e-06
0.00213512
2.19177e-06
0.00213359
2.1184e-06
0.0021321
2.04828e-06
0.00213067
1.98129e-06
0.00212927
1.91737e-06
0.00212793
1.85639e-06
0.00212662
1.79822e-06
0.00212535
1.74277e-06
0.00212412
1.68993e-06
0.00212293
1.63956e-06
0.00212177
1.59157e-06
0.00212065
1.54584e-06
0.00211955
1.50228e-06
0.00211849
1.46077e-06
0.00211745
1.42122e-06
0.00211644
1.38353e-06
0.00211546
1.34761e-06
0.0021145
1.31337e-06
0.00211356
1.28072e-06
0.00211265
1.24959e-06
0.00211175
1.2199e-06
0.00211088
1.19158e-06
0.00211003
1.16455e-06
0.0021092
1.13874e-06
0.00210838
1.11411e-06
0.00210758
1.09057e-06
0.0021068
1.06809e-06
0.00210603
1.04659e-06
0.00210528
1.02603e-06
0.00210454
1.00636e-06
0.00210381
9.87522e-07
0.0021031
9.69481e-07
0.0021024
9.5219e-07
0.00210171
9.35606e-07
0.00210104
9.19694e-07
0.00210037
9.04411e-07
0.00209972
8.89727e-07
0.00209908
8.75613e-07
0.00209844
8.62034e-07
0.00209782
8.48963e-07
0.0020972
8.36377e-07
0.0020966
8.24252e-07
0.002096
8.12564e-07
0.00209541
8.01293e-07
0.00209483
7.90421e-07
0.00209425
7.79929e-07
0.00209369
7.69799e-07
0.00209313
7.60017e-07
0.00209257
7.50566e-07
0.00209203
7.41432e-07
0.00209149
7.32598e-07
0.00209096
7.24052e-07
0.00209043
7.15781e-07
0.00208991
7.07772e-07
0.00208939
7.00015e-07
0.00208888
6.92499e-07
0.00208838
6.85215e-07
0.00208788
6.78154e-07
0.00208739
6.7131e-07
0.0020869
6.64679e-07
0.00208642
6.58255e-07
0.00208594
6.52036e-07
0.00208546
6.4602e-07
0.00208499
6.40207e-07
0.00208453
6.34594e-07
0.00208407
6.29182e-07
0.00208361
6.23973e-07
0.00208316
6.18966e-07
0.00208271
6.14162e-07
0.00208227
6.09562e-07
0.00208183
6.05166e-07
0.0020814
6.00975e-07
0.00208096
5.96991e-07
0.00208054
5.93214e-07
0.00208011
5.89645e-07
0.00207969
5.86287e-07
0.00207927
5.8314e-07
0.00207886
5.80208e-07
0.00207845
5.77498e-07
0.00207804
5.75013e-07
0.00207764
5.72759e-07
0.00207724
5.70743e-07
0.00207684
5.6897e-07
0.00207645
5.67451e-07
0.00207606
5.66192e-07
0.00207567
5.65204e-07
0.00207529
5.64496e-07
0.00207491
5.64072e-07
0.00207453
5.63948e-07
0.00207416
5.64129e-07
0.00207379
5.64614e-07
0.00207342
5.65409e-07
0.00207306
5.66522e-07
0.0020727
5.67958e-07
0.00207234
5.69726e-07
0.00207198
5.71829e-07
0.00207163
5.74269e-07
0.00207128
5.77047e-07
0.00207094
5.80171e-07
0.00207059
5.83661e-07
0.00207026
5.87501e-07
0.00206992
5.91691e-07
0.00206959
5.96278e-07
0.00206926
6.01214e-07
0.00206893
6.06557e-07
0.00206861
6.12292e-07
0.00206829
6.18428e-07
0.00206797
6.25016e-07
0.00206766
6.31946e-07
0.00206735
6.39307e-07
0.00206705
6.47047e-07
0.00206675
6.55259e-07
0.00206645
6.6392e-07
0.00206615
6.73022e-07
0.00206586
6.82484e-07
0.00206557
6.9236e-07
0.00206529
7.02674e-07
0.00206501
7.13434e-07
0.00206473
7.24616e-07
0.00206446
7.36177e-07
0.00206419
7.48167e-07
0.00206392
7.60606e-07
0.00206366
7.73451e-07
0.0020634
7.867e-07
0.00206315
8.0034e-07
0.0020629
8.14453e-07
0.00206266
8.28995e-07
0.00206242
8.43982e-07
0.00206218
8.59256e-07
0.00206195
8.75081e-07
0.00206172
8.91156e-07
0.0020615
9.08002e-07
0.00206128
9.24735e-07
0.00206106
9.42479e-07
0.00206085
9.59837e-07
0.00206064
9.78646e-07
0.00206044
9.96334e-07
0.00206025
1.01643e-06
0.00206005
1.03423e-06
0.00205987
1.05601e-06
0.00205968
1.07348e-06
0.00205951
1.09744e-06
0.00205933
1.1132e-06
0.00205916
1.14059e-06
0.002059
1.15384e-06
0.00205884
1.18623e-06
0.00205869
1.19454e-06
0.00205854
1.23404e-06
0.0020584
1.23546e-06
0.00205826
1.28473e-06
0.00205814
1.27596e-06
0.002058
1.33576e-06
0.00205789
1.31976e-06
0.00205776
1.38169e-06
0.00205766
1.37572e-06
0.00205756
1.40252e-06
0.00205745
1.45452e-06
1.38212e-06
0.0068727
0.00545947
0.00621142
0.00296631
0.00577095
0.00118158
0.00537005
0.000873994
0.00505418
0.000636509
0.00484654
0.00039697
0.00470799
0.000260407
0.00459832
0.000212749
0.00450107
0.000193755
0.00441432
0.000172807
0.00433842
0.000149695
0.004272
0.000130266
0.004213
0.000115711
0.00415985
0.000104329
0.0041116
9.46692e-05
0.0040676
8.62378e-05
0.00402729
7.89358e-05
0.00399018
7.26268e-05
0.00395587
6.71237e-05
0.00392402
6.22701e-05
0.00389437
5.79576e-05
0.00386668
5.41068e-05
0.00384074
5.06521e-05
0.00381639
4.75378e-05
0.00379349
4.47175e-05
0.00377188
4.21529e-05
0.00375148
3.98123e-05
0.00373216
3.7669e-05
0.00371386
3.57003e-05
0.00369648
3.38864e-05
0.00367995
3.22108e-05
0.00366422
3.06586e-05
0.00364923
2.92176e-05
0.00363492
2.78766e-05
0.00362126
2.66258e-05
0.00360819
2.54574e-05
0.00359568
2.43629e-05
0.0035837
2.33362e-05
0.00357221
2.23725e-05
0.00356119
2.14651e-05
0.0035506
2.06092e-05
0.00354043
1.98007e-05
0.00353066
1.90361e-05
0.00352125
1.83116e-05
0.0035122
1.76243e-05
0.00350348
1.69706e-05
0.00349508
1.63479e-05
0.00348699
1.57536e-05
0.00347919
1.51844e-05
0.00347166
1.46486e-05
0.0034644
1.41344e-05
0.00345739
1.36382e-05
0.00345063
1.316e-05
0.0034441
1.27003e-05
0.0034378
1.22587e-05
0.00343172
1.18334e-05
0.00342585
1.14229e-05
0.00342018
1.10281e-05
0.00341471
1.06468e-05
0.00340942
1.02763e-05
0.00340432
9.91869e-06
0.0033994
9.57356e-06
0.00339464
9.24048e-06
0.00339005
8.91817e-06
0.00338562
8.60513e-06
0.00338135
8.30209e-06
0.00337722
8.01018e-06
0.00337324
7.72799e-06
0.00336939
7.45511e-06
0.00336568
7.19209e-06
0.0033621
6.93834e-06
0.00335864
6.69354e-06
0.00335531
6.45775e-06
0.00335209
6.23085e-06
0.00334897
6.01269e-06
0.00334597
5.80303e-06
0.00334307
5.60166e-06
0.00334026
5.4084e-06
0.00333755
5.22312e-06
0.00333493
5.04562e-06
0.0033324
4.87563e-06
0.00332994
4.71292e-06
0.00332757
4.55733e-06
0.00332527
4.40865e-06
0.00332305
4.26658e-06
0.00332089
4.13085e-06
0.0033188
4.00132e-06
0.00331677
3.87774e-06
0.0033148
3.75984e-06
0.00331289
3.64742e-06
0.00331103
3.54026e-06
0.00330922
3.43809e-06
0.00330746
3.34071e-06
0.00330575
3.24789e-06
0.00330409
3.15942e-06
0.00330247
3.07509e-06
0.00330089
2.99471e-06
0.00329934
2.91807e-06
0.00329784
2.84499e-06
0.00329637
2.7753e-06
0.00329493
2.70882e-06
0.00329353
2.64538e-06
0.00329216
2.58484e-06
0.00329081
2.52704e-06
0.0032895
2.47184e-06
0.00328821
2.41912e-06
0.00328695
2.36873e-06
0.00328571
2.32056e-06
0.00328449
2.27449e-06
0.0032833
2.23041e-06
0.00328213
2.18822e-06
0.00328098
2.14781e-06
0.00327986
2.10908e-06
0.00327875
2.07196e-06
0.00327765
2.03634e-06
0.00327658
2.00215e-06
0.00327552
1.96932e-06
0.00327448
1.93776e-06
0.00327346
1.90741e-06
0.00327245
1.87821e-06
0.00327145
1.8501e-06
0.00327047
1.82301e-06
0.0032695
1.79691e-06
0.00326855
1.77173e-06
0.00326761
1.74744e-06
0.00326668
1.72399e-06
0.00326576
1.70135e-06
0.00326485
1.67946e-06
0.00326396
1.65831e-06
0.00326307
1.63786e-06
0.0032622
1.61807e-06
0.00326133
1.59891e-06
0.00326048
1.58036e-06
0.00325963
1.56239e-06
0.0032588
1.54496e-06
0.00325797
1.52807e-06
0.00325715
1.51168e-06
0.00325634
1.49578e-06
0.00325554
1.48033e-06
0.00325475
1.46534e-06
0.00325396
1.45077e-06
0.00325318
1.43662e-06
0.00325241
1.42288e-06
0.00325165
1.40953e-06
0.00325089
1.39657e-06
0.00325015
1.38399e-06
0.0032494
1.3718e-06
0.00324867
1.35997e-06
0.00324794
1.34852e-06
0.00324722
1.33743e-06
0.0032465
1.32671e-06
0.00324579
1.31635e-06
0.00324509
1.30636e-06
0.00324439
1.29672e-06
0.0032437
1.28745e-06
0.00324301
1.27853e-06
0.00324233
1.26997e-06
0.00324165
1.26176e-06
0.00324098
1.25392e-06
0.00324032
1.24642e-06
0.00323966
1.2393e-06
0.003239
1.23254e-06
0.00323835
1.22615e-06
0.00323771
1.22014e-06
0.00323707
1.21452e-06
0.00323644
1.20929e-06
0.00323581
1.20446e-06
0.00323518
1.20006e-06
0.00323456
1.19608e-06
0.00323395
1.19253e-06
0.00323334
1.18944e-06
0.00323273
1.1868e-06
0.00323213
1.18462e-06
0.00323154
1.18291e-06
0.00323095
1.18167e-06
0.00323036
1.18091e-06
0.00322978
1.18064e-06
0.0032292
1.18087e-06
0.00322863
1.18159e-06
0.00322806
1.1828e-06
0.0032275
1.18453e-06
0.00322694
1.18677e-06
0.00322639
1.18954e-06
0.00322584
1.19281e-06
0.0032253
1.19664e-06
0.00322476
1.201e-06
0.00322422
1.20591e-06
0.0032237
1.2114e-06
0.00322317
1.21745e-06
0.00322265
1.22412e-06
0.00322214
1.23131e-06
0.00322163
1.23908e-06
0.00322112
1.24741e-06
0.00322063
1.25639e-06
0.00322013
1.26603e-06
0.00321964
1.27628e-06
0.00321916
1.28706e-06
0.00321868
1.29841e-06
0.00321821
1.31039e-06
0.00321774
1.32299e-06
0.00321728
1.33619e-06
0.00321683
1.34994e-06
0.00321638
1.36427e-06
0.00321593
1.37925e-06
0.00321549
1.3948e-06
0.00321506
1.41091e-06
0.00321463
1.42757e-06
0.00321421
1.44491e-06
0.0032138
1.46283e-06
0.00321339
1.48138e-06
0.00321299
1.50032e-06
0.00321259
1.52005e-06
0.0032122
1.54015e-06
0.00321182
1.56126e-06
0.00321144
1.5823e-06
0.00321107
1.60467e-06
0.00321071
1.62664e-06
0.00321035
1.65045e-06
0.00321001
1.67293e-06
0.00320966
1.6985e-06
0.00320933
1.72127e-06
0.003209
1.74908e-06
0.00320868
1.77143e-06
0.00320836
1.80216e-06
0.00320806
1.82253e-06
0.00320776
1.85762e-06
0.00320747
1.87487e-06
0.00320718
1.91643e-06
0.00320691
1.9276e-06
0.00320664
1.97819e-06
0.00320638
1.98063e-06
0.00320612
2.04349e-06
0.00320588
2.03363e-06
0.00320564
2.10874e-06
0.00320541
2.09138e-06
0.00320519
2.16651e-06
0.00320498
2.16389e-06
0.00320479
2.19408e-06
0.00320458
2.2632e-06
2.15221e-06
0.00749057
0.00487818
0.00733915
0.00311773
0.00714279
0.00137794
0.00683579
0.00118099
0.0065266
0.000945697
0.00629784
0.000625729
0.00613557
0.000422667
0.00600657
0.000341746
0.00589385
0.000306467
0.00579353
0.000273125
0.00570491
0.000238306
0.00562655
0.00020863
0.00555647
0.000185786
0.0054931
0.000167697
0.00543539
0.000152371
0.00538259
0.000139034
0.00533407
0.000127461
0.00528927
0.000117421
0.00524775
0.000108638
0.00520914
0.000100879
0.00517312
9.39758e-05
0.00513942
8.78028e-05
0.00510781
8.22567e-05
0.00507809
7.72505e-05
0.00505009
7.27117e-05
0.00502366
6.858e-05
0.00499866
6.48054e-05
0.00497498
6.13457e-05
0.00495251
5.81648e-05
0.00493117
5.52317e-05
0.00491085
5.25199e-05
0.0048915
5.00061e-05
0.00487305
4.76705e-05
0.00485542
4.54954e-05
0.00483858
4.34656e-05
0.00482247
4.1568e-05
0.00480704
3.97892e-05
0.00479225
3.81208e-05
0.00477806
3.65534e-05
0.00476445
3.50762e-05
0.00475137
3.36824e-05
0.0047388
3.23655e-05
0.00472671
3.11196e-05
0.00471508
2.99386e-05
0.00470389
2.88177e-05
0.0046931
2.77514e-05
0.00468271
2.67356e-05
0.00467269
2.57658e-05
0.00466304
2.48368e-05
0.00465372
2.39612e-05
0.00464473
2.31209e-05
0.00463605
2.23102e-05
0.00462768
2.15297e-05
0.0046196
2.07795e-05
0.00461179
2.00584e-05
0.00460426
1.93641e-05
0.00459698
1.86947e-05
0.00458996
1.80495e-05
0.00458317
1.74265e-05
0.00457662
1.68235e-05
0.0045703
1.6241e-05
0.00456419
1.56787e-05
0.00455829
1.5136e-05
0.00455259
1.46114e-05
0.00454709
1.41028e-05
0.00454178
1.36108e-05
0.00453665
1.31366e-05
0.00453169
1.26786e-05
0.00452691
1.22362e-05
0.00452229
1.18101e-05
0.00451782
1.13992e-05
0.00451351
1.10032e-05
0.00450934
1.0622e-05
0.00450531
1.02554e-05
0.00450142
9.90311e-06
0.00449765
9.56474e-06
0.00449401
9.23994e-06
0.00449049
8.92836e-06
0.00448708
8.62979e-06
0.00448378
8.34386e-06
0.00448058
8.07012e-06
0.00447748
7.80818e-06
0.00447448
7.55778e-06
0.00447156
7.31853e-06
0.00446874
7.08994e-06
0.00446599
6.87159e-06
0.00446333
6.6632e-06
0.00446074
6.46438e-06
0.00445822
6.27468e-06
0.00445577
6.09377e-06
0.00445339
5.92127e-06
0.00445106
5.7568e-06
0.0044488
5.59997e-06
0.0044466
5.45045e-06
0.00444444
5.30788e-06
0.00444234
5.17194e-06
0.00444029
5.0423e-06
0.00443829
4.91865e-06
0.00443633
4.80068e-06
0.00443442
4.68812e-06
0.00443254
4.58069e-06
0.00443071
4.47812e-06
0.00442891
4.38017e-06
0.00442715
4.2866e-06
0.00442542
4.19718e-06
0.00442372
4.11169e-06
0.00442206
4.02993e-06
0.00442043
3.95171e-06
0.00441882
3.87683e-06
0.00441725
3.80512e-06
0.0044157
3.73642e-06
0.00441417
3.67056e-06
0.00441267
3.60739e-06
0.00441119
3.54677e-06
0.00440974
3.48857e-06
0.00440831
3.43265e-06
0.0044069
3.37889e-06
0.0044055
3.32718e-06
0.00440413
3.27741e-06
0.00440278
3.22949e-06
0.00440145
3.18331e-06
0.00440013
3.13877e-06
0.00439883
3.09581e-06
0.00439754
3.05434e-06
0.00439628
3.01429e-06
0.00439502
2.97558e-06
0.00439379
2.93815e-06
0.00439256
2.90195e-06
0.00439135
2.86691e-06
0.00439016
2.83299e-06
0.00438897
2.80013e-06
0.00438781
2.76828e-06
0.00438665
2.7374e-06
0.0043855
2.70745e-06
0.00438437
2.67838e-06
0.00438325
2.65016e-06
0.00438213
2.62275e-06
0.00438103
2.59611e-06
0.00437994
2.57022e-06
0.00437886
2.54505e-06
0.00437779
2.52056e-06
0.00437673
2.49674e-06
0.00437568
2.47357e-06
0.00437464
2.45102e-06
0.00437361
2.42908e-06
0.00437259
2.40774e-06
0.00437158
2.38698e-06
0.00437057
2.3668e-06
0.00436957
2.34718e-06
0.00436859
2.32812e-06
0.0043676
2.30961e-06
0.00436663
2.29165e-06
0.00436567
2.27423e-06
0.00436471
2.25734e-06
0.00436376
2.241e-06
0.00436282
2.22518e-06
0.00436188
2.20988e-06
0.00436095
2.19511e-06
0.00436003
2.18086e-06
0.00435912
2.16713e-06
0.00435821
2.15392e-06
0.00435731
2.14123e-06
0.00435641
2.12906e-06
0.00435553
2.11743e-06
0.00435464
2.10633e-06
0.00435377
2.09578e-06
0.0043529
2.08577e-06
0.00435204
2.07634e-06
0.00435118
2.06747e-06
0.00435033
2.05919e-06
0.00434949
2.0515e-06
0.00434865
2.04442e-06
0.00434782
2.03794e-06
0.00434699
2.03208e-06
0.00434617
2.02685e-06
0.00434536
2.02224e-06
0.00434455
2.01827e-06
0.00434375
2.01495e-06
0.00434295
2.01228e-06
0.00434216
2.01025e-06
0.00434138
2.00888e-06
0.0043406
2.00819e-06
0.00433983
2.00817e-06
0.00433906
2.0088e-06
0.0043383
2.01014e-06
0.00433754
2.01215e-06
0.00433679
2.01486e-06
0.00433605
2.0183e-06
0.00433532
2.02244e-06
0.00433459
2.02735e-06
0.00433386
2.03292e-06
0.00433314
2.03918e-06
0.00433243
2.04617e-06
0.00433173
2.05396e-06
0.00433103
2.06257e-06
0.00433034
2.07196e-06
0.00432965
2.082e-06
0.00432897
2.09277e-06
0.0043283
2.10432e-06
0.00432763
2.11663e-06
0.00432697
2.12971e-06
0.00432632
2.14349e-06
0.00432568
2.15798e-06
0.00432504
2.17327e-06
0.00432441
2.18927e-06
0.00432379
2.20598e-06
0.00432317
2.22336e-06
0.00432256
2.24158e-06
0.00432196
2.26052e-06
0.00432137
2.28022e-06
0.00432079
2.3004e-06
0.00432021
2.32155e-06
0.00431964
2.3432e-06
0.00431908
2.366e-06
0.00431853
2.38882e-06
0.00431798
2.41317e-06
0.00431745
2.43719e-06
0.00431692
2.46327e-06
0.0043164
2.48797e-06
0.00431589
2.51615e-06
0.00431539
2.54137e-06
0.0043149
2.57215e-06
0.00431442
2.59706e-06
0.00431394
2.63116e-06
0.00431348
2.65413e-06
0.00431303
2.69301e-06
0.00431258
2.71289e-06
0.00431215
2.75874e-06
0.00431172
2.77256e-06
0.0043113
2.8277e-06
0.0043109
2.83295e-06
0.0043105
2.90021e-06
0.00431012
2.89423e-06
0.00430974
2.9717e-06
0.00430937
2.96157e-06
0.00430903
3.03424e-06
0.00430868
3.04398e-06
0.00430836
3.06435e-06
0.00430802
3.15673e-06
3.00393e-06
0.00765055
0.0041369
0.00784153
0.00292675
0.00792624
0.00129323
0.00783842
0.00126882
0.00764681
0.00113731
0.0074666
0.000805939
0.00732178
0.000567484
0.0071997
0.000463823
0.00709082
0.000415333
0.00699272
0.000371222
0.00690475
0.000326268
0.00682574
0.000287631
0.00675421
0.000257312
0.00668893
0.000232981
0.00662901
0.000212283
0.00657381
0.00019423
0.00652278
0.000178498
0.00647541
0.000164783
0.00643131
0.000152736
0.00639013
0.00014206
0.00635156
0.000132535
0.00631537
0.000123995
0.00628132
0.000116304
0.00624922
0.000109346
0.0062189
0.000103024
0.00619021
9.72597e-05
0.00616303
9.19841e-05
0.00613723
8.71408e-05
0.00611271
8.26812e-05
0.00608938
7.85633e-05
0.00606715
7.47509e-05
0.00604594
7.12125e-05
0.00602568
6.79211e-05
0.00600632
6.48525e-05
0.0059878
6.1986e-05
0.00597006
5.93032e-05
0.00595306
5.67866e-05
0.00593676
5.44236e-05
0.00592111
5.22015e-05
0.00590607
5.0106e-05
0.00589162
4.81274e-05
0.00587773
4.62566e-05
0.00586436
4.44854e-05
0.00585149
4.28053e-05
0.0058391
4.12099e-05
0.00582715
3.96912e-05
0.00581564
3.82438e-05
0.00580454
3.68613e-05
0.00579384
3.55364e-05
0.00578351
3.42868e-05
0.00577355
3.30869e-05
0.00576393
3.19284e-05
0.00575464
3.08145e-05
0.00574567
2.9744e-05
0.00573701
2.87143e-05
0.00572865
2.77228e-05
0.00572058
2.67673e-05
0.00571278
2.5846e-05
0.00570525
2.49564e-05
0.00569797
2.40965e-05
0.00569094
2.32661e-05
0.00568415
2.24649e-05
0.00567759
2.16923e-05
0.00567126
2.09454e-05
0.00566514
2.02225e-05
0.00565922
1.95239e-05
0.00565351
1.88506e-05
0.00564798
1.8201e-05
0.00564264
1.75742e-05
0.00563748
1.69709e-05
0.00563249
1.63898e-05
0.00562766
1.58302e-05
0.00562299
1.52919e-05
0.00561846
1.47747e-05
0.00561409
1.4278e-05
0.00560985
1.38014e-05
0.00560574
1.33441e-05
0.00560177
1.29058e-05
0.00559791
1.2486e-05
0.00559417
1.20841e-05
0.00559053
1.16996e-05
0.00558701
1.13319e-05
0.00558359
1.09804e-05
0.00558026
1.06447e-05
0.00557702
1.03241e-05
0.00557388
1.00178e-05
0.00557081
9.72555e-06
0.00556783
9.4467e-06
0.00556492
9.18064e-06
0.00556209
8.92689e-06
0.00555932
8.6849e-06
0.00555663
8.45411e-06
0.00555399
8.23399e-06
0.00555142
8.02406e-06
0.0055489
7.82382e-06
0.00554644
7.63281e-06
0.00554403
7.45058e-06
0.00554167
7.27668e-06
0.00553936
7.1107e-06
0.0055371
6.95223e-06
0.00553488
6.80089e-06
0.0055327
6.65631e-06
0.00553056
6.51815e-06
0.00552846
6.38606e-06
0.0055264
6.25975e-06
0.00552437
6.13889e-06
0.00552238
6.0232e-06
0.00552042
5.91242e-06
0.00551849
5.80627e-06
0.0055166
5.70452e-06
0.00551473
5.60693e-06
0.00551288
5.51329e-06
0.00551107
5.42339e-06
0.00550928
5.33702e-06
0.00550752
5.25401e-06
0.00550578
5.17418e-06
0.00550406
5.09737e-06
0.00550236
5.02339e-06
0.00550069
4.95213e-06
0.00549904
4.88344e-06
0.00549741
4.81718e-06
0.00549579
4.75323e-06
0.0054942
4.69147e-06
0.00549263
4.6318e-06
0.00549107
4.57409e-06
0.00548953
4.51827e-06
0.005488
4.46423e-06
0.0054865
4.4119e-06
0.00548501
4.36119e-06
0.00548353
4.31203e-06
0.00548207
4.26435e-06
0.00548062
4.21808e-06
0.00547919
4.17316e-06
0.00547777
4.12954e-06
0.00547636
4.08715e-06
0.00547497
4.04595e-06
0.00547359
4.00588e-06
0.00547222
3.96691e-06
0.00547087
3.92899e-06
0.00546953
3.89207e-06
0.00546819
3.85612e-06
0.00546687
3.82111e-06
0.00546556
3.78701e-06
0.00546427
3.75378e-06
0.00546298
3.7214e-06
0.0054617
3.68984e-06
0.00546043
3.65909e-06
0.00545918
3.62913e-06
0.00545793
3.59994e-06
0.00545669
3.57151e-06
0.00545546
3.54383e-06
0.00545424
3.51688e-06
0.00545303
3.49066e-06
0.00545183
3.46517e-06
0.00545064
3.44039e-06
0.00544946
3.41633e-06
0.00544828
3.39296e-06
0.00544711
3.3703e-06
0.00544595
3.34833e-06
0.0054448
3.32705e-06
0.00544366
3.30646e-06
0.00544252
3.28657e-06
0.0054414
3.26736e-06
0.00544027
3.24884e-06
0.00543916
3.23101e-06
0.00543806
3.21388e-06
0.00543696
3.19745e-06
0.00543587
3.18173e-06
0.00543478
3.16673e-06
0.00543371
3.15244e-06
0.00543264
3.13889e-06
0.00543158
3.12609e-06
0.00543052
3.11403e-06
0.00542947
3.10273e-06
0.00542843
3.09219e-06
0.0054274
3.08242e-06
0.00542637
3.07343e-06
0.00542535
3.06522e-06
0.00542433
3.05781e-06
0.00542332
3.05119e-06
0.00542232
3.04538e-06
0.00542133
3.04039e-06
0.00542034
3.0362e-06
0.00541936
3.0328e-06
0.00541838
3.03024e-06
0.00541741
3.02851e-06
0.00541645
3.02759e-06
0.0054155
3.02752e-06
0.00541455
3.02828e-06
0.00541361
3.02992e-06
0.00541268
3.03235e-06
0.00541175
3.03557e-06
0.00541083
3.03964e-06
0.00540992
3.04461e-06
0.00540901
3.05055e-06
0.00540812
3.05738e-06
0.00540723
3.06499e-06
0.00540634
3.07344e-06
0.00540547
3.0828e-06
0.0054046
3.09304e-06
0.00540374
3.10418e-06
0.00540289
3.11615e-06
0.00540204
3.12895e-06
0.0054012
3.14266e-06
0.00540038
3.1572e-06
0.00539956
3.17256e-06
0.00539874
3.18871e-06
0.00539794
3.20581e-06
0.00539715
3.22374e-06
0.00539636
3.24252e-06
0.00539558
3.26185e-06
0.00539481
3.28227e-06
0.00539406
3.3033e-06
0.00539331
3.32556e-06
0.00539257
3.34791e-06
0.00539183
3.37193e-06
0.00539111
3.39573e-06
0.0053904
3.42165e-06
0.0053897
3.44628e-06
0.00538901
3.47449e-06
0.00538833
3.49993e-06
0.00538765
3.53091e-06
0.00538699
3.5563e-06
0.00538634
3.59067e-06
0.0053857
3.61448e-06
0.00538507
3.65349e-06
0.00538445
3.67493e-06
0.00538385
3.72038e-06
0.00538325
3.73702e-06
0.00538267
3.79022e-06
0.00538209
3.80066e-06
0.00538154
3.86295e-06
0.00538098
3.86657e-06
0.00538045
3.93323e-06
0.00537992
3.93955e-06
0.00537942
3.99345e-06
0.00537891
4.02776e-06
0.00537844
4.01933e-06
0.00537795
4.14853e-06
3.94696e-06
0.00762061
0.00342554
0.00794709
0.00260028
0.00817292
0.00106741
0.0083047
0.00113703
0.00830534
0.00113667
0.00825098
0.000860301
0.00818286
0.000635603
0.00810947
0.000537201
0.00803439
0.000490412
0.00796118
0.000444426
0.00789199
0.000395445
0.00782739
0.000352223
0.00776716
0.000317543
0.00771091
0.00028922
0.00765833
0.000264859
0.00760914
0.000243422
0.00756305
0.000224582
0.0075198
0.000208032
0.00747914
0.000193398
0.00744084
0.000180355
0.00740472
0.000168659
0.00737058
0.000158125
0.00733828
0.000148599
0.00730767
0.00013995
0.00727863
0.000132065
0.00725103
0.000124853
0.00722478
0.000118234
0.00719977
0.000112141
0.00717593
0.000106518
0.00715318
0.000101313
0.00713144
9.64849e-05
0.00711066
9.19949e-05
0.00709076
8.78104e-05
0.00707171
8.39026e-05
0.00705345
8.02461e-05
0.00703593
7.68188e-05
0.00701911
7.35999e-05
0.00700296
7.05722e-05
0.00698744
6.77206e-05
0.00697251
6.50294e-05
0.00695815
6.24854e-05
0.00694433
6.00771e-05
0.00693101
5.77945e-05
0.00691819
5.56272e-05
0.00690583
5.35672e-05
0.00689391
5.16045e-05
0.00688242
4.97325e-05
0.00687133
4.79429e-05
0.00686064
4.62267e-05
0.00685032
4.46068e-05
0.00684035
4.30502e-05
0.00683073
4.15468e-05
0.00682144
4.01013e-05
0.00681247
3.87119e-05
0.00680381
3.73752e-05
0.00679544
3.60878e-05
0.00678736
3.48474e-05
0.00677955
3.36515e-05
0.006772
3.24972e-05
0.00676471
3.13823e-05
0.00675767
3.0306e-05
0.00675087
2.92683e-05
0.00674429
2.82689e-05
0.00673793
2.73031e-05
0.00673178
2.63694e-05
0.00672583
2.54684e-05
0.00672008
2.46006e-05
0.00671451
2.37643e-05
0.00670912
2.29584e-05
0.00670391
2.21835e-05
0.00669886
2.14379e-05
0.00669397
2.07207e-05
0.00668922
2.00317e-05
0.00668463
1.93702e-05
0.00668017
1.87356e-05
0.00667584
1.81272e-05
0.00667164
1.75441e-05
0.00666756
1.69855e-05
0.00666359
1.64509e-05
0.00665973