/*--------------------------------*- C++ -*----------------------------------*\
  =========                 |
  \\      /  F ield         | OpenFOAM: The Open Source CFD Toolbox
   \\    /   O peration     | Website:  https://openfoam.org
    \\  /    A nd           | Version:  7
     \\/     M anipulation  |
\*---------------------------------------------------------------------------*/
FoamFile
{
    version     2.0;
    format      ascii;
    class       volSymmTensorField;
    location    "0.3325";
    object      UPrime2Mean;
}
// * * * * * * * * * * * * * * * * * * * * * * * * * * * * * * * * * * * * * //

dimensions      [0 2 -2 0 0 0 0];

internalField   nonuniform List<symmTensor> 
7920
(
(0.067718 -0.00519227 -0.00751047 0.000687204 0.000863923 0.00165378)
(0.274971 0.0385343 -0.0255762 0.00693929 -0.00323218 0.00487519)
(0.401392 0.0669967 -0.0413171 0.0146816 -0.00583483 0.0101943)
(0.521789 0.085736 -0.0509268 0.0182753 -0.00629757 0.0143825)
(0.525453 0.0850891 -0.056728 0.0195285 -0.00659305 0.0175293)
(0.580934 0.0895339 -0.0567896 0.0199442 -0.00587017 0.0173331)
(0.558123 0.0848413 -0.056315 0.0202404 -0.0057802 0.0164163)
(0.593736 0.0866732 -0.0528115 0.0202836 -0.00515443 0.0142872)
(0.567627 0.0818861 -0.0508046 0.0204148 -0.00512962 0.0127947)
(0.594033 0.0826379 -0.0473116 0.0204111 -0.00467099 0.0111286)
(0.569985 0.0781482 -0.0456592 0.020475 -0.00465875 0.0101811)
(0.591071 0.0781102 -0.0431264 0.0204538 -0.00430959 0.00920968)
(0.571057 0.0740623 -0.0421353 0.020481 -0.00430891 0.00872805)
(0.588345 0.0734771 -0.0406055 0.020464 -0.0040638 0.00827676)
(0.573087 0.0699076 -0.0399361 0.0204599 -0.00404345 0.00797787)
(0.586211 0.0689182 -0.0394126 0.0204927 -0.00392705 0.00797388)
(0.577283 0.0656684 -0.038217 0.020322 -0.00374052 0.00748709)
(0.58473 0.0648065 -0.0395112 0.0207566 -0.00395266 0.0080852)
(0.579699 0.056771 -0.0354409 0.0179438 -0.00285939 0.0070165)
(0.620829 0.0742062 -0.0406662 0.0217852 -0.00469124 0.00805073)
(0.0214498 0.00267286 0.000789261 0.0332249 0.00557001 0.00126405)
(0.0401352 -0.0183677 -0.00496811 0.0357278 0.00871913 0.00365515)
(0.107792 -0.0307135 -0.0160634 0.0303355 0.0103389 0.00744135)
(0.192189 -0.0411002 -0.0310387 0.0244304 0.00961508 0.0111179)
(0.264648 -0.0376427 -0.0449176 0.0219928 0.00908599 0.0149042)
(0.327334 -0.0393057 -0.0538287 0.0209636 0.00779767 0.0166918)
(0.369374 -0.0341119 -0.0592976 0.02064 0.00705588 0.0172573)
(0.406905 -0.0342359 -0.0596275 0.0204572 0.00598208 0.0162189)
(0.427573 -0.0292723 -0.0589702 0.0204493 0.00550626 0.0149032)
(0.4511 -0.0286603 -0.0559392 0.020388 0.00481095 0.013254)
(0.461197 -0.0242446 -0.0535128 0.0204315 0.00455813 0.0119055)
(0.480194 -0.0232329 -0.0502994 0.0203996 0.00412519 0.0106378)
(0.487907 -0.0194054 -0.0480626 0.0204541 0.00398303 0.00968378)
(0.506368 -0.0180272 -0.0457855 0.0204471 0.00372661 0.00896854)
(0.515464 -0.0146224 -0.0440789 0.0204571 0.00358505 0.00830206)
(0.532557 -0.0127578 -0.0431331 0.0205974 0.00351903 0.00819484)
(0.54552 -0.00999463 -0.0414368 0.0203337 0.00321547 0.00749021)
(0.560034 -0.00575442 -0.0422182 0.0209364 0.00338871 0.0080591)
(0.567189 -0.00636935 -0.0385175 0.020256 0.00268146 0.00694173)
(0.595745 0.0149692 -0.0396838 0.0191864 0.00260783 0.00803609)
(0.0286772 0.0041936 0.00311491 0.0046016 0.00167138 0.00122694)
(0.0487801 -0.00213159 0.00686401 0.00666841 0.000417159 0.0033809)
(0.0919218 -0.0134543 0.0121925 0.0110564 0.000106579 0.00638241)
(0.0971342 -0.0185611 0.0107987 0.0153719 -0.000232008 0.0089818)
(0.122477 -0.0281731 0.0103437 0.0174557 -0.00135158 0.0123861)
(0.134948 -0.0285228 0.00538104 0.0185515 -0.00216751 0.0150749)
(0.162319 -0.034588 0.00237211 0.0191294 -0.00354754 0.0177908)
(0.185882 -0.033282 -0.00286621 0.0194612 -0.00418595 0.0189138)
(0.214888 -0.0376925 -0.00532018 0.0197191 -0.00489621 0.0192853)
(0.243332 -0.0367814 -0.00835349 0.0198907 -0.00494917 0.0183259)
(0.270914 -0.040955 -0.00870227 0.0200058 -0.00506059 0.0171192)
(0.301002 -0.0410961 -0.0094319 0.020073 -0.00476702 0.0154418)
(0.326905 -0.0451156 -0.00835238 0.0201026 -0.00462097 0.013811)
(0.358426 -0.0460316 -0.00788828 0.0200931 -0.00425235 0.0122844)
(0.383537 -0.0497775 -0.0064966 0.0201715 -0.00408565 0.0107981)
(0.416809 -0.0507974 -0.00565529 0.019917 -0.00380405 0.00997158)
(0.441637 -0.0551086 -0.00480766 0.0204821 -0.00358266 0.00886206)
(0.475801 -0.0541659 -0.00373179 0.0192152 -0.00386799 0.00886115)
(0.501406 -0.0591804 -0.00400142 0.0202273 -0.00277196 0.00793529)
(0.536523 -0.0575347 -0.000223836 0.0235453 -0.00659767 0.00843383)
(0.0293406 0.0122099 0.00309828 0.0148602 0.00346883 0.00113156)
(0.0556499 0.0268993 0.00772202 0.0249121 0.00681057 0.00323009)
(0.136732 0.0513088 0.0183345 0.028798 0.00946956 0.00602787)
(0.178385 0.0533663 0.0243377 0.0263328 0.00971011 0.0083459)
(0.246579 0.0617093 0.0339736 0.0243876 0.0100911 0.0113757)
(0.273386 0.0584893 0.0377331 0.0228615 0.00953895 0.0140562)
(0.32316 0.0634939 0.0438717 0.0218999 0.00930217 0.0171336)
(0.34504 0.0606999 0.0433076 0.0211603 0.00840713 0.0192909)
(0.387569 0.0653686 0.0447683 0.0207562 0.00790354 0.0207935)
(0.412634 0.0639018 0.0412536 0.0203889 0.00696483 0.0209294)
(0.453089 0.0684821 0.0406931 0.0202652 0.00649416 0.0203861)
(0.482929 0.068197 0.0371697 0.0201092 0.00577113 0.0191317)
(0.52206 0.0725187 0.0363097 0.0201136 0.00540495 0.0175122)
(0.556209 0.0731973 0.0335805 0.020056 0.00487948 0.015704)
(0.593143 0.0768595 0.0325447 0.0200718 0.0045343 0.0136939)
(0.63189 0.0786967 0.03095 0.0201318 0.00417567 0.0120827)
(0.664979 0.081041 0.0297946 0.0200273 0.00388468 0.0105092)
(0.711347 0.0844977 0.0297721 0.0203198 0.003587 0.00968393)
(0.737197 0.0853555 0.0278326 0.0200414 0.00331531 0.00884037)
(0.809154 0.095277 0.0327733 0.0230941 0.00300882 0.00872635)
(0.0290549 -0.000922082 0.00306599 0.000590615 -0.000152015 0.00112884)
(0.0525784 -0.00825748 0.00723569 0.00635843 -0.00195661 0.00324046)
(0.141281 -0.0223561 0.0187305 0.0111434 -0.00264141 0.00602408)
(0.198871 -0.0283935 0.0264006 0.01503 -0.00259665 0.00823431)
(0.293357 -0.0416304 0.0393978 0.017123 -0.00316785 0.0111674)
(0.342439 -0.0456746 0.0468581 0.018158 -0.00341113 0.0137447)
(0.419799 -0.0562823 0.0579425 0.0187469 -0.00429477 0.0168757)
(0.456685 -0.0585213 0.0613403 0.0190658 -0.00462689 0.0192329)
(0.5192 -0.0665862 0.0669004 0.019343 -0.0052417 0.0211789)
(0.550553 -0.0679458 0.0654237 0.0195138 -0.00531724 0.021765)
(0.603492 -0.0742414 0.0667859 0.0196748 -0.00556371 0.0217218)
(0.634223 -0.0751569 0.0632975 0.0197532 -0.00536658 0.0207959)
(0.68198 -0.0801991 0.0627702 0.019854 -0.00534044 0.0195356)
(0.714658 -0.0808103 0.0585986 0.0198165 -0.00492311 0.0177556)
(0.760883 -0.0855918 0.0569597 0.0199974 -0.00479565 0.0157689)
(0.793425 -0.0851306 0.0527558 0.0196083 -0.00425058 0.0137234)
(0.844411 -0.0915724 0.0512221 0.0204002 -0.00415676 0.0119248)
(0.867598 -0.088835 0.0481113 0.0188135 -0.00393323 0.0105286)
(0.932308 -0.0956863 0.0469804 0.0207679 -0.00330651 0.00961466)
(0.949147 -0.10678 0.0495228 0.0225995 -0.00554884 0.00921159)
(0.0285948 0.00606006 0.00294631 0.00379015 0.00168212 0.00109319)
(0.0482528 0.0150786 0.00651097 0.0120587 0.00418411 0.00318426)
(0.132714 0.0358047 0.0175636 0.0170826 0.00596549 0.00595839)
(0.191521 0.0419368 0.0253285 0.0187808 0.00612825 0.00815156)
(0.291267 0.054951 0.0388773 0.0196088 0.00668604 0.0110607)
(0.348576 0.0569436 0.047313 0.0198022 0.00658009 0.0136082)
(0.436717 0.066078 0.059784 0.0199187 0.00697649 0.0167232)
(0.483188 0.0664463 0.064675 0.0198851 0.00675031 0.0191007)
(0.556964 0.0733415 0.0719169 0.019926 0.00685902 0.0211327)
(0.595316 0.0732848 0.0717207 0.0198783 0.00643955 0.0218427)
(0.656406 0.0788199 0.074305 0.0199094 0.00633295 0.0219626)
(0.690181 0.0789408 0.0714137 0.0198656 0.00585552 0.0211829)
(0.742827 0.0836571 0.0714955 0.0199096 0.00566454 0.0201078)
(0.775851 0.0841196 0.0671953 0.0198522 0.00516364 0.0184206)
(0.825506 0.0884237 0.0655549 0.0199471 0.00493738 0.0165225)
(0.85706 0.0887521 0.0605221 0.0197542 0.00439523 0.0143732)
(0.911258 0.0935233 0.0586743 0.0201257 0.00422398 0.012498)
(0.933751 0.0931554 0.0544429 0.0194035 0.00385008 0.0108875)
(1.00139 0.0981646 0.0532853 0.0204248 0.00342916 0.0098993)
(1.01864 0.108157 0.054761 0.0232044 0.00434544 0.00939951)
(0.0285949 -0.00606012 0.00294631 0.00379013 -0.00168212 0.00109319)
(0.0482528 -0.0150785 0.00651097 0.0120587 -0.00418411 0.00318426)
(0.132714 -0.0358047 0.0175636 0.0170826 -0.0059655 0.00595839)
(0.191521 -0.0419368 0.0253285 0.0187808 -0.00612824 0.00815156)
(0.291268 -0.0549511 0.0388774 0.0196089 -0.00668605 0.0110607)
(0.348575 -0.0569434 0.0473127 0.0198024 -0.00658006 0.0136081)
(0.436717 -0.0660784 0.0597845 0.0199188 -0.00697656 0.0167234)
(0.483187 -0.0664467 0.0646739 0.0198852 -0.00675014 0.0191001)
(0.556967 -0.0733421 0.071919 0.0199261 -0.0068592 0.0211338)
(0.595314 -0.0732837 0.0717174 0.0198783 -0.00643901 0.0218407)
(0.656412 -0.0788207 0.0743107 0.0199095 -0.0063333 0.0219657)
(0.690173 -0.0789379 0.0714057 0.019865 -0.0058539 0.0211785)
(0.742851 -0.0836574 0.0715087 0.0199096 -0.00566505 0.0201132)
(0.775827 -0.084101 0.0671786 0.0198492 -0.00515937 0.0184144)
(0.825575 -0.0884291 0.0655809 0.0199479 -0.00493855 0.016529)
(0.857004 -0.0886865 0.0604931 0.0197408 -0.00438364 0.0143671)
(0.911375 -0.0935566 0.058713 0.0201316 -0.00422751 0.0125026)
(0.933601 -0.0929549 0.054405 0.0193612 -0.00382475 0.0108858)
(1.00145 -0.0981794 0.0533149 0.0204322 -0.00342783 0.00989487)
(1.01829 -0.107846 0.0547424 0.0231205 -0.00431241 0.00941244)
(0.029055 0.000922021 0.00306599 0.00059061 0.000152017 0.00112884)
(0.0525785 0.00825753 0.00723568 0.00635841 0.00195661 0.00324046)
(0.141281 0.0223561 0.0187305 0.0111434 0.0026414 0.00602409)
(0.198871 0.0283935 0.0264005 0.0150299 0.00259665 0.0082343)
(0.293357 0.0416303 0.039398 0.0171229 0.00316786 0.0111674)
(0.342439 0.0456746 0.0468575 0.0181579 0.0034111 0.0137444)
(0.419799 0.056282 0.0579437 0.0187467 0.00429479 0.0168764)
(0.456686 0.0585208 0.0613376 0.0190657 0.00462684 0.019231)
(0.519197 0.0665858 0.0669053 0.0193429 0.00524196 0.0211824)
(0.550557 0.0679461 0.0654151 0.0195136 0.00531673 0.0217583)
(0.603485 0.0742414 0.0668001 0.0196749 0.00556501 0.0217325)
(0.634236 0.0751576 0.0632753 0.0197534 0.00536506 0.0207802)
(0.681958 0.0802006 0.0628051 0.0198545 0.00534408 0.0195566)
(0.714694 0.0808212 0.0585476 0.0198183 0.00492023 0.0177305)
(0.760835 0.0855908 0.0570374 0.019998 0.00480302 0.0157981)
(0.793501 0.0851787 0.0526499 0.0196183 0.00424882 0.0136931)
(0.844378 0.0915533 0.0513693 0.0203978 0.00416944 0.0119545)
(0.867799 0.0890214 0.0479437 0.0188545 0.00393595 0.010505)
(0.932446 0.0956903 0.0471859 0.0207672 0.00333147 0.00962427)
(0.949742 0.107149 0.0493794 0.0227081 0.00554818 0.00922529)
(0.0293406 -0.01221 0.00309829 0.0148601 -0.00346883 0.00113156)
(0.0556499 -0.0268992 0.00772201 0.024912 -0.00681057 0.00323009)
(0.136732 -0.0513089 0.0183346 0.028798 -0.00946959 0.00602788)
(0.178385 -0.0533663 0.0243375 0.0263327 -0.00971005 0.00834586)
(0.24658 -0.0617094 0.0339736 0.0243876 -0.0100912 0.0113756)
(0.273386 -0.0584891 0.0377323 0.0228615 -0.00953867 0.0140556)
(0.32316 -0.0634943 0.043873 0.0219 -0.00930251 0.0171344)
(0.34504 -0.0607004 0.0433048 0.0211603 -0.00840631 0.0192878)
(0.38757 -0.0653693 0.044774 0.0207563 -0.0079047 0.0207995)
(0.412634 -0.0639011 0.0412442 0.0203887 -0.00696262 0.0209176)
(0.45309 -0.0684833 0.0407113 0.0202654 -0.00649705 0.0204063)
(0.482931 -0.0681953 0.0371403 0.0201085 -0.00576522 0.0191007)
(0.52207 -0.0725198 0.0363655 0.0201138 -0.00541215 0.0175575)
(0.556213 -0.0731832 0.033492 0.020052 -0.00486356 0.0156449)
(0.593181 -0.0768668 0.0327016 0.0200737 -0.00455288 0.0137705)
(0.631896 -0.0786437 0.0307153 0.0201159 -0.0041348 0.0119913)
(0.665089 -0.081077 0.0301634 0.0200358 -0.00392924 0.0106156)
(0.711319 -0.0843604 0.0292742 0.0202779 -0.00350061 0.00956915)
(0.737419 -0.0854292 0.0285013 0.0200634 -0.0034024 0.00895018)
(0.809076 -0.0951234 0.0319905 0.0230444 -0.00285787 0.00863447)
(0.0286773 -0.00419366 0.00311491 0.00460157 -0.00167137 0.00122693)
(0.0487802 0.00213164 0.00686399 0.00666837 -0.000417142 0.0033809)
(0.0919219 0.0134542 0.0121925 0.0110563 -0.000106541 0.00638239)
(0.0971342 0.0185611 0.0107986 0.0153718 0.000232089 0.00898167)
(0.122477 0.028173 0.0103436 0.0174556 0.00135168 0.0123859)
(0.134948 0.0285227 0.0053812 0.0185513 0.0021676 0.0150741)
(0.162319 0.0345877 0.00237205 0.0191292 0.00354765 0.0177915)
(0.185882 0.0332815 -0.00286472 0.0194611 0.00418586 0.0189107)
(0.214888 0.0376919 -0.00532261 0.019719 0.00489681 0.0192917)
(0.243332 0.0367816 -0.00834765 0.0198901 0.00494774 0.0183138)
(0.270916 0.0409543 -0.00871219 0.020006 0.00506366 0.0171425)
(0.301001 0.0410962 -0.00941657 0.0200726 0.00476119 0.0154048)
(0.326907 0.0451154 -0.00837046 0.0201035 0.00463164 0.013872)
(0.358427 0.0460349 -0.00787324 0.0200924 0.00423364 0.0121958)
(0.383529 0.0497785 -0.00648346 0.0201742 0.00411818 0.0109283)
(0.416831 0.0508055 -0.00572261 0.019919 0.00375033 0.00979233)
(0.441606 0.0551088 -0.00460371 0.0204842 0.00367624 0.00909984)
(0.475916 0.0542231 -0.00410929 0.0192399 0.00372034 0.00855314)
(0.501344 0.0591975 -0.00328138 0.0202356 0.00301192 0.00829469)
(0.536936 0.0577799 -0.00123961 0.0236406 0.0061085 0.0080006)
(0.0214499 -0.00267296 0.000789273 0.0332248 -0.00556999 0.00126406)
(0.0401355 0.0183678 -0.0049681 0.0357278 -0.00871911 0.00365516)
(0.107792 0.0307133 -0.0160634 0.0303355 -0.0103389 0.00744129)
(0.192189 0.0411001 -0.0310386 0.0244304 -0.00961507 0.0111177)
(0.264648 0.0376426 -0.0449176 0.0219928 -0.00908604 0.0149038)
(0.327335 0.0393058 -0.0538287 0.0209636 -0.0077977 0.0166913)
(0.369376 0.0341117 -0.0592994 0.0206401 -0.00705616 0.017258)
(0.406906 0.0342353 -0.0596269 0.0204574 -0.00598199 0.0162183)
(0.427574 0.0292722 -0.0589784 0.0204496 -0.00550695 0.0149073)
(0.4511 0.0286586 -0.0559293 0.0203877 -0.00480992 0.0132493)
(0.461196 0.024244 -0.0535435 0.0204318 -0.00456024 0.0119192)
(0.480185 0.0232282 -0.0502476 0.0203991 -0.00412052 0.0106165)
(0.4879 0.0194044 -0.0481705 0.0204547 -0.00399135 0.00972653)
(0.506334 0.0180141 -0.0455942 0.0204441 -0.0037076 0.00889713)
(0.515428 0.0146197 -0.0444153 0.0204596 -0.0036184 0.00842622)
(0.532476 0.0127174 -0.0425753 0.0205867 -0.00344675 0.00799391)
(0.545347 0.00999313 -0.0423157 0.0203431 -0.00334248 0.00779863)
(0.559957 0.0056772 -0.0409283 0.0209079 -0.00313378 0.00760165)
(0.56661 0.00636957 -0.0404004 0.0202929 -0.0031413 0.00754541)
(0.595887 -0.0148898 -0.037496 0.0192034 -0.00190106 0.00716959)
(0.0677182 0.00519213 -0.0075103 0.000687185 -0.000863881 0.00165378)
(0.274971 -0.0385343 -0.0255762 0.00693929 0.00323225 0.00487522)
(0.401392 -0.0669968 -0.0413175 0.0146816 0.00583495 0.0101943)
(0.521789 -0.0857359 -0.0509274 0.0182753 0.00629765 0.0143824)
(0.525454 -0.0850892 -0.0567293 0.0195286 0.0065932 0.0175296)
(0.580936 -0.0895331 -0.0567928 0.0199439 0.0058705 0.017334)
(0.558124 -0.0848411 -0.05632 0.0202402 0.00578075 0.0164182)
(0.593737 -0.0866726 -0.0528167 0.0202833 0.0051549 0.0142888)
(0.567629 -0.0818861 -0.0508133 0.0204145 0.00513049 0.0127986)
(0.594032 -0.0826352 -0.0473129 0.0204103 0.00467089 0.0111282)
(0.569986 -0.0781488 -0.0456781 0.0204749 0.00466048 0.0101898)
(0.591064 -0.0781059 -0.0431043 0.0204528 0.00430713 0.009199)
(0.571061 -0.074065 -0.0422 0.0204817 0.00431471 0.00875589)
(0.58832 -0.0734633 -0.0404875 0.0204609 0.00405145 0.00822811)
(0.573086 -0.0699153 -0.0401809 0.0204632 0.00406694 0.00807433)
(0.586144 -0.0688847 -0.038957 0.020485 0.00387608 0.00780431)
(0.577217 -0.065687 -0.0390592 0.0203321 0.00383685 0.00777693)
(0.584615 -0.0647546 -0.0380332 0.0207423 0.00374938 0.00762396)
(0.579335 -0.0568612 -0.0379036 0.0179835 0.00322151 0.00764874)
(0.620471 -0.0743045 -0.0368521 0.0218438 0.00387861 0.00726567)
(0.0231006 -0.00148421 0.000108461 0.012143 0.000125261 2.7282e-06)
(0.174043 -0.0603415 -0.000103339 0.0289181 0.000142106 1.94234e-06)
(0.353164 -0.0845772 -9.65329e-05 0.0334077 0.000189191 2.40426e-06)
(0.648655 -0.115715 -6.55442e-05 0.0329273 0.000148824 1.92022e-06)
(0.658277 -0.10826 -0.000116658 0.0337617 0.000193067 2.32621e-06)
(0.817185 -0.126265 -5.5084e-05 0.0349929 0.000159546 1.88227e-06)
(0.75146 -0.115671 -0.000127605 0.0360519 0.000201813 2.24263e-06)
(0.860505 -0.128111 -5.8608e-05 0.0368254 0.000168792 1.84164e-06)
(0.790362 -0.116689 -0.00013335 0.0372534 0.000206198 2.15722e-06)
(0.875278 -0.124878 -6.22353e-05 0.0375417 0.000174214 1.79531e-06)
(0.812572 -0.113953 -0.000135514 0.0376772 0.000207019 2.06348e-06)
(0.881357 -0.119337 -6.1946e-05 0.0377874 0.000176672 1.73857e-06)
(0.82903 -0.109611 -0.000129941 0.0378289 0.00020506 1.96268e-06)
(0.885932 -0.113125 -5.19063e-05 0.0378988 0.00017622 1.67361e-06)
(0.844036 -0.10457 -0.000113072 0.0378544 0.00020033 1.85775e-06)
(0.890802 -0.107009 -2.91543e-05 0.0381099 0.000173139 1.60255e-06)
(0.859124 -0.0986467 -8.50554e-05 0.037315 0.000191531 1.75172e-06)
(0.891256 -0.101332 1.37855e-05 0.0397707 0.000170174 1.5267e-06)
(0.876446 -0.0842587 -6.28413e-05 0.0304738 0.000165578 1.65469e-06)
(0.820944 -0.068977 0.000148526 0.0323418 0.000139423 1.40935e-06)
(0.0322356 0.000950618 0.000167562 0.00216311 -2.94767e-05 1.97431e-06)
(0.0260065 -4.35517e-05 7.90365e-05 0.00689203 -7.50453e-05 1.46234e-06)
(0.0533504 -0.0115328 0.00024405 0.0147153 -0.000129041 1.84752e-06)
(0.0833325 -3.69441e-05 0.000196707 0.0227445 -0.000121793 1.45817e-06)
(0.119205 -0.00707614 0.000282538 0.0287596 -0.000162708 1.7928e-06)
(0.186624 0.0112901 0.000254939 0.0325442 -0.00013317 1.42319e-06)
(0.214383 0.00193603 0.000304977 0.0344041 -0.000173149 1.72576e-06)
(0.278781 0.0153889 0.000287349 0.0355535 -0.000140644 1.38867e-06)
(0.291742 0.00461521 0.000320425 0.0361317 -0.000176541 1.65732e-06)
(0.342445 0.0135946 0.000306126 0.0365747 -0.000144758 1.3491e-06)
(0.346526 0.00279048 0.000328267 0.0367683 -0.00017668 1.57896e-06)
(0.387645 0.00850036 0.000317727 0.0369562 -0.000146657 1.29946e-06)
(0.390481 -0.00143711 0.000334425 0.0369934 -0.000174497 1.49324e-06)
(0.426947 0.00211173 0.000330259 0.0371142 -0.000146017 1.24326e-06)
(0.432397 -0.00661394 0.000344182 0.0370511 -0.000169767 1.40387e-06)
(0.465892 -0.00440636 0.000347355 0.0372397 -0.000142521 1.18312e-06)
(0.474399 -0.0125188 0.000359544 0.03725 -0.000162894 1.31321e-06)
(0.505293 -0.0090394 0.000368946 0.0370599 -0.000135024 1.12192e-06)
(0.515137 -0.0209409 0.00038369 0.0386555 -0.00015513 1.22039e-06)
(0.545889 0.00323975 0.000383437 0.0423035 -0.000120028 1.03708e-06)
(0.0262779 0.00697627 0.000160556 0.00668873 8.89808e-05 2.33357e-06)
(0.0323395 0.0132036 9.6024e-05 0.0335987 0.000128195 1.74474e-06)
(0.104322 0.0518938 0.000314491 0.0453986 0.000179726 2.14454e-06)
(0.0960047 0.0382677 0.000219097 0.0440678 0.000132612 1.68806e-06)
(0.148566 0.0554959 0.000381623 0.0416011 0.000179911 2.06133e-06)
(0.134777 0.0392915 0.000299299 0.0397861 0.000141756 1.64892e-06)
(0.179411 0.0529968 0.000434378 0.0386234 0.00018477 1.98567e-06)
(0.17934 0.0417366 0.000365777 0.0379859 0.00015107 1.6143e-06)
(0.224231 0.054693 0.000482208 0.0374415 0.000189189 1.91146e-06)
(0.234374 0.0472336 0.000422689 0.03724 0.000157931 1.57464e-06)
(0.277772 0.0589604 0.000523404 0.0370231 0.000190907 1.82831e-06)
(0.293116 0.0539643 0.000471373 0.0370221 0.000161189 1.52409e-06)
(0.333967 0.0641364 0.000559281 0.0369527 0.000189423 1.73696e-06)
(0.352959 0.0609555 0.000515839 0.0369981 0.000160982 1.46523e-06)
(0.39105 0.0694262 0.000592585 0.0369571 0.00018495 1.64115e-06)
(0.414884 0.0683355 0.000559823 0.0370864 0.000157897 1.40088e-06)
(0.447026 0.0736916 0.000623414 0.0365888 0.000176896 1.54431e-06)
(0.482938 0.0777466 0.000607597 0.0380585 0.000153568 1.33404e-06)
(0.50021 0.0723595 0.000652456 0.0318633 0.000158326 1.45734e-06)
(0.561934 0.0898149 0.00065625 0.0408627 0.000147707 1.25865e-06)
(0.0238556 -0.00191376 0.000138785 0.00141751 -4.34554e-05 1.99944e-06)
(0.027658 -0.00117281 8.12394e-05 0.00747866 -8.29278e-05 1.54038e-06)
(0.104739 -0.0177338 0.000285023 0.0149667 -0.000132446 1.90468e-06)
(0.121549 -0.0186425 0.000195609 0.02199 -0.000121601 1.49801e-06)
(0.217047 -0.0422403 0.000362967 0.026991 -0.00016144 1.83788e-06)
(0.219067 -0.0410039 0.000271258 0.0305239 -0.000134741 1.46117e-06)
(0.296938 -0.0615745 0.000422751 0.0325005 -0.000173809 1.7698e-06)
(0.292693 -0.0577534 0.000336371 0.0338786 -0.000143209 1.42677e-06)
(0.358679 -0.0739939 0.000473697 0.0346917 -0.000178159 1.70058e-06)
(0.357466 -0.0694782 0.000396233 0.0353599 -0.000146918 1.38778e-06)
(0.41747 -0.0823657 0.000521269 0.0357608 -0.000177913 1.62279e-06)
(0.422567 -0.0782668 0.00045303 0.0360752 -0.00014806 1.33934e-06)
(0.478943 -0.0887914 0.000565574 0.0362622 -0.000175475 1.53741e-06)
(0.490192 -0.085573 0.000506221 0.0363176 -0.000147072 1.28365e-06)
(0.543651 -0.0947708 0.00060685 0.0365532 -0.000171126 1.44771e-06)
(0.559232 -0.0919643 0.000556391 0.0361646 -0.000142998 1.2236e-06)
(0.612038 -0.101476 0.000647224 0.0372875 -0.000165535 1.35648e-06)
(0.625613 -0.0972874 0.000601295 0.0351271 -0.000134118 1.16219e-06)
(0.688611 -0.108975 0.000691046 0.0388719 -0.000158674 1.26339e-06)
(0.671974 -0.108373 0.000621689 0.0408794 -0.000128987 1.09621e-06)
(0.0242178 0.0043908 0.000147049 0.00378156 6.98113e-05 2.18263e-06)
(0.0271866 0.00477612 8.74023e-05 0.0198482 0.000110528 1.69137e-06)
(0.100445 0.0389624 0.000301298 0.0296585 0.000160564 2.06596e-06)
(0.120619 0.0382837 0.000210169 0.0337248 0.000126831 1.62468e-06)
(0.226997 0.0653482 0.000386392 0.0353868 0.000171853 1.98485e-06)
(0.242197 0.0595202 0.000289608 0.0362558 0.000137096 1.58361e-06)
(0.339541 0.0790407 0.000450808 0.0365303 0.00017894 1.91007e-06)
(0.347275 0.0722971 0.000357069 0.0366836 0.000145922 1.54774e-06)
(0.43046 0.0871574 0.000505409 0.0365632 0.000183219 1.83637e-06)
(0.434958 0.0810575 0.00042051 0.0365553 0.000152076 1.50786e-06)
(0.506467 0.0929896 0.000557762 0.0364305 0.000184542 1.75531e-06)
(0.512017 0.088315 0.000483593 0.0364417 0.000155002 1.45869e-06)
(0.575902 0.0983684 0.000608712 0.0363885 0.000182944 1.66672e-06)
(0.585377 0.0952132 0.000544552 0.0363919 0.000154723 1.4015e-06)
(0.644659 0.103783 0.000656902 0.0364339 0.00017864 1.5733e-06)
(0.657989 0.10195 0.000602139 0.0363108 0.000151279 1.33878e-06)
(0.715154 0.108749 0.000703315 0.0364033 0.000171595 1.47829e-06)
(0.728318 0.10888 0.00065558 0.0363717 0.000145084 1.2739e-06)
(0.789605 0.109217 0.000755643 0.034231 0.000159218 1.3905e-06)
(0.786159 0.120392 0.000697853 0.0429541 0.000146984 1.20988e-06)
(0.0240311 -0.00312488 0.000142171 0.00221277 -5.57365e-05 2.0795e-06)
(0.0266392 -0.00244526 8.31731e-05 0.011838 -9.56167e-05 1.62362e-06)
(0.0958735 -0.0272562 0.000290727 0.0195735 -0.000144595 1.98658e-06)
(0.11539 -0.0271748 0.0002037 0.0255642 -0.000122887 1.56078e-06)
(0.221737 -0.0525401 0.000375296 0.0293355 -0.000165063 1.91043e-06)
(0.241011 -0.0498332 0.000280394 0.0319898 -0.000135044 1.52107e-06)
(0.344097 -0.0707143 0.000438991 0.0334385 -0.000175315 1.83846e-06)
(0.357926 -0.0667182 0.000344957 0.0344575 -0.00014402 1.48553e-06)
(0.448501 -0.0833644 0.000492099 0.0349926 -0.00017997 1.76652e-06)
(0.457822 -0.0792506 0.000405689 0.0354571 -0.000149072 1.44593e-06)
(0.535071 -0.0925605 0.000543101 0.0356985 -0.000180595 1.68717e-06)
(0.5426 -0.0888844 0.000467196 0.0359209 -0.00015101 1.39734e-06)
(0.610164 -0.0997244 0.00059342 0.0360537 -0.000178532 1.60042e-06)
(0.619197 -0.0966536 0.000527425 0.0360752 -0.000150237 1.34114e-06)
(0.682025 -0.106068 0.00064164 0.0363123 -0.000174254 1.50901e-06)
(0.69197 -0.10313 0.000584377 0.035891 -0.000146242 1.27997e-06)
(0.75637 -0.112394 0.000689272 0.0367797 -0.000168208 1.41588e-06)
(0.758272 -0.108835 0.000634964 0.0351644 -0.000138276 1.21699e-06)
(0.837513 -0.116789 0.000742773 0.0367025 -0.000159419 1.32486e-06)
(0.8043 -0.122158 0.000669597 0.0419145 -0.00013918 1.15515e-06)
(0.0240311 0.00312485 0.000142171 0.00221277 5.57364e-05 2.0795e-06)
(0.0266392 0.00244531 8.31745e-05 0.011838 9.56166e-05 1.62362e-06)
(0.0958735 0.0272562 0.000290727 0.0195735 0.000144595 1.98658e-06)
(0.11539 0.0271747 0.000203701 0.0255642 0.000122887 1.56078e-06)
(0.221737 0.0525401 0.000375297 0.0293355 0.000165063 1.91043e-06)
(0.241012 0.0498334 0.000280398 0.0319898 0.000135044 1.52107e-06)
(0.344096 0.0707142 0.000438994 0.0334385 0.000175316 1.83846e-06)
(0.357926 0.0667181 0.000344958 0.0344577 0.00014402 1.48553e-06)
(0.4485 0.0833646 0.000492099 0.0349927 0.000179971 1.76652e-06)
(0.457824 0.0792523 0.000405694 0.0354574 0.000149071 1.44592e-06)
(0.535064 0.0925601 0.000543099 0.0356988 0.000180596 1.68717e-06)
(0.54261 0.0888883 0.000467179 0.0359222 0.00015101 1.39734e-06)
(0.610143 0.0997241 0.000593418 0.0360542 0.000178534 1.60043e-06)
(0.619226 0.0966719 0.000527418 0.03608 0.000150236 1.34111e-06)
(0.681974 0.106066 0.000641647 0.0363133 0.000174258 1.50902e-06)
(0.692053 0.103186 0.00058431 0.0359087 0.00014625 1.2799e-06)
(0.756304 0.112398 0.000689292 0.036784 0.000168228 1.41601e-06)
(0.758477 0.10899 0.000634892 0.0352182 0.000138325 1.21685e-06)
(0.837586 0.116877 0.000743108 0.0367302 0.000159533 1.32546e-06)
(0.804805 0.122513 0.000669729 0.0420673 0.000139365 1.15506e-06)
(0.0242178 -0.00439082 0.00014705 0.00378157 -6.98114e-05 2.18263e-06)
(0.0271866 -0.00477609 8.74007e-05 0.0198482 -0.000110528 1.69137e-06)
(0.100445 -0.0389624 0.000301301 0.0296585 -0.000160564 2.06596e-06)
(0.120619 -0.0382837 0.00021017 0.0337248 -0.000126831 1.62468e-06)
(0.226997 -0.0653483 0.000386395 0.0353869 -0.000171853 1.98486e-06)
(0.242197 -0.05952 0.000289609 0.0362558 -0.000137096 1.58361e-06)
(0.339541 -0.0790409 0.000450819 0.0365303 -0.00017894 1.91008e-06)
(0.347275 -0.0722971 0.000357086 0.0366834 -0.000145922 1.54774e-06)
(0.430462 -0.0871574 0.000505421 0.0365632 -0.000183218 1.83637e-06)
(0.434957 -0.0810554 0.000420517 0.0365548 -0.000152076 1.50787e-06)
(0.506472 -0.0929906 0.000557778 0.0364305 -0.00018454 1.75531e-06)
(0.512013 -0.0883099 0.000483629 0.0364397 -0.000155002 1.45869e-06)
(0.575922 -0.0983712 0.000608716 0.0363891 -0.000182943 1.6667e-06)
(0.585361 -0.0951915 0.000544569 0.0363849 -0.000154721 1.40153e-06)
(0.644716 -0.103793 0.000656902 0.0364362 -0.000178639 1.57327e-06)
(0.657934 -0.101893 0.000602233 0.0362894 -0.000151268 1.33887e-06)
(0.715266 -0.108769 0.000703299 0.0364082 -0.000171586 1.4781e-06)
(0.728178 -0.108752 0.000655646 0.0363242 -0.000145042 1.27404e-06)
(0.789731 -0.109182 0.000755384 0.0342197 -0.000159132 1.38988e-06)
(0.785801 -0.120146 0.000697655 0.0428546 -0.000146845 1.20988e-06)
(0.0238556 0.00191376 0.000138786 0.00141751 4.34553e-05 1.99944e-06)
(0.027658 0.00117285 8.12407e-05 0.00747865 8.29277e-05 1.54038e-06)
(0.104739 0.0177338 0.000285027 0.0149668 0.000132446 1.90468e-06)
(0.121549 0.0186425 0.000195613 0.0219901 0.000121601 1.49801e-06)
(0.217047 0.0422403 0.000362971 0.026991 0.00016144 1.83788e-06)
(0.219067 0.041004 0.000271266 0.0305239 0.000134741 1.46117e-06)
(0.296937 0.0615745 0.000422764 0.0325006 0.000173809 1.7698e-06)
(0.292694 0.0577531 0.000336386 0.0338786 0.00014321 1.42677e-06)
(0.358678 0.0739944 0.000473708 0.0346919 0.000178159 1.70057e-06)
(0.357469 0.069479 0.000396246 0.0353598 0.000146917 1.38777e-06)
(0.417464 0.0823661 0.000521277 0.0357614 0.000177914 1.62279e-06)
(0.422578 0.0782677 0.000453033 0.0360755 0.000148059 1.33934e-06)
(0.478928 0.088793 0.000565577 0.0362637 0.000175477 1.53741e-06)
(0.490227 0.0855804 0.000506239 0.0363188 0.00014707 1.28364e-06)
(0.543616 0.0947743 0.000606845 0.0365573 0.000171133 1.44769e-06)
(0.559335 0.0919917 0.000556388 0.0361732 0.000143 1.22356e-06)
(0.612001 0.101494 0.000647214 0.0373016 0.000165564 1.35652e-06)
(0.625893 0.0974091 0.00060133 0.0351733 0.000134171 1.16212e-06)
(0.688708 0.109064 0.000691309 0.038915 0.000158798 1.26383e-06)
(0.672733 0.10877 0.00062193 0.04107 0.000129225 1.09614e-06)
(0.0262779 -0.00697628 0.000160558 0.00668875 -8.89808e-05 2.33357e-06)
(0.0323395 -0.0132036 9.60234e-05 0.0335988 -0.000128195 1.74474e-06)
(0.104322 -0.0518938 0.000314498 0.0453987 -0.000179726 2.14454e-06)
(0.0960046 -0.0382677 0.000219102 0.0440678 -0.000132612 1.68805e-06)
(0.148566 -0.0554959 0.00038163 0.0416011 -0.000179911 2.06133e-06)
(0.134777 -0.0392913 0.000299309 0.039786 -0.000141756 1.64893e-06)
(0.179411 -0.0529968 0.000434402 0.0386234 -0.00018477 1.98568e-06)
(0.17934 -0.0417367 0.00036581 0.0379857 -0.00015107 1.61431e-06)
(0.224232 -0.0546928 0.000482234 0.0374415 -0.000189189 1.91146e-06)
(0.234374 -0.0472332 0.000422707 0.0372394 -0.000157931 1.57465e-06)
(0.277772 -0.0589607 0.000523436 0.0370233 -0.000190906 1.82832e-06)
(0.293115 -0.0539644 0.000471412 0.0370198 -0.00016119 1.52408e-06)
(0.333971 -0.0641381 0.000559302 0.0369539 -0.000189421 1.73694e-06)
(0.352958 -0.0609522 0.000515853 0.0369902 -0.000160982 1.46527e-06)
(0.391057 -0.0694345 0.000592597 0.0369619 -0.000184948 1.64108e-06)
(0.41489 -0.0683232 0.00055991 0.037063 -0.000157889 1.40101e-06)
(0.447039 -0.0737199 0.000623397 0.0366041 -0.000176892 1.54398e-06)
(0.482971 -0.0777191 0.000607727 0.0380175 -0.000153556 1.33435e-06)
(0.500234 -0.0724135 0.00065229 0.0318856 -0.000158289 1.45649e-06)
(0.561993 -0.089789 0.000656358 0.0408418 -0.000147702 1.25893e-06)
(0.0322356 -0.000950607 0.000167563 0.00216311 2.94767e-05 1.97431e-06)
(0.0260065 4.35953e-05 7.90379e-05 0.00689203 7.50453e-05 1.46234e-06)
(0.0533505 0.0115329 0.000244057 0.0147153 0.000129041 1.84751e-06)
(0.0833324 3.69707e-05 0.000196714 0.0227445 0.000121793 1.45817e-06)
(0.119205 0.00707616 0.000282545 0.0287596 0.000162708 1.7928e-06)
(0.186623 -0.01129 0.000254952 0.0325441 0.00013317 1.4232e-06)
(0.214383 -0.00193621 0.000305 0.0344042 0.000173149 1.72576e-06)