/*--------------------------------*- C++ -*----------------------------------*\
  =========                 |
  \\      /  F ield         | OpenFOAM: The Open Source CFD Toolbox
   \\    /   O peration     | Website:  https://openfoam.org
    \\  /    A nd           | Version:  7
     \\/     M anipulation  |
\*---------------------------------------------------------------------------*/
FoamFile
{
    version     2.0;
    format      ascii;
    class       volScalarField;
    location    "2.7925";
    object      T;
}
// * * * * * * * * * * * * * * * * * * * * * * * * * * * * * * * * * * * * * //

dimensions      [0 0 0 1 0 0 0];

internalField   nonuniform List<scalar> 
7920
(
282.873
282.993
282.992
283.04
283.014
283.047
283.026
283.05
283.035
283.054
283.042
283.057
283.049
283.059
283.055
283.059
283.063
283.053
283.085
283.001
282.794
282.849
282.866
282.929
282.919
282.954
282.944
282.967
282.964
282.981
282.98
282.991
282.993
282.999
283.007
282.999
283.028
282.975
283.096
282.835
282.734
282.746
282.685
282.753
282.709
282.763
282.731
282.775
282.754
282.792
282.781
282.811
282.81
282.829
282.841
282.84
282.878
282.83
282.935
282.777
282.757
282.764
282.701
282.75
282.711
282.751
282.726
282.758
282.744
282.772
282.769
282.791
282.799
282.813
282.832
282.834
282.866
282.848
282.898
282.851
282.736
282.75
282.665
282.72
282.662
282.707
282.666
282.703
282.676
282.708
282.693
282.721
282.717
282.742
282.746
282.766
282.776
282.791
282.803
282.813
282.741
282.767
282.681
282.741
282.681
282.727
282.684
282.721
282.691
282.722
282.704
282.733
282.724
282.751
282.75
282.775
282.778
282.8
282.804
282.827
282.741
282.767
282.681
282.741
282.681
282.727
282.684
282.721
282.691
282.722
282.704
282.733
282.724
282.751
282.75
282.775
282.777
282.801
282.804
282.827
282.736
282.75
282.665
282.72
282.662
282.707
282.666
282.703
282.676
282.708
282.692
282.722
282.716
282.744
282.744
282.769
282.773
282.795
282.799
282.817
282.757
282.764
282.701
282.75
282.711
282.751
282.725
282.759
282.744
282.773
282.768
282.793
282.796
282.817
282.826
282.843
282.853
282.865
282.874
282.879
282.734
282.746
282.685
282.753
282.709
282.764
282.731
282.776
282.754
282.793
282.78
282.814
282.807
282.835
282.832
282.855
282.853
282.871
282.87
282.879
282.794
282.849
282.866
282.929
282.919
282.954
282.944
282.967
282.964
282.981
282.979
282.992
282.991
283.002
283.001
283.01
283.008
283.014
283.014
283.016
282.873
282.993
282.992
283.04
283.014
283.047
283.026
283.05
283.035
283.054
283.042
283.057
283.048
283.06
283.053
283.062
283.057
283.064
283.06
283.068
283.229
283.217
283.296
283.251
283.303
283.257
283.298
283.261
283.293
283.264
283.29
283.266
283.287
283.265
283.285
283.258
283.288
283.235
283.341
283.031
283.18
283.146
283.192
283.168
283.198
283.178
283.197
283.183
283.196
283.188
283.202
283.194
283.21
283.196
283.22
283.186
283.24
283.143
283.312
282.983
283.229
283.171
283.244
283.193
283.247
283.205
283.245
283.211
283.244
283.217
283.246
283.224
283.252
283.228
283.261
283.222
283.276
283.196
283.306
283.136
283.2
283.134
283.189
283.137
283.174
283.133
283.16
283.129
283.15
283.128
283.145
283.131
283.147
283.136
283.153
283.138
283.161
283.133
283.167
283.122
283.223
283.148
283.22
283.153
283.202
283.149
283.184
283.143
283.17
283.14
283.162
283.14
283.161
283.144
283.162
283.148
283.164
283.15
283.162
283.149
283.216
283.13
283.202
283.13
283.179
283.122
283.158
283.114
283.141
283.108
283.13
283.107
283.126
283.109
283.125
283.113
283.125
283.116
283.122
283.113
283.216
283.13
283.202
283.13
283.179
283.122
283.158
283.114
283.141
283.108
283.13
283.107
283.126
283.11
283.125
283.114
283.125
283.116
283.122
283.112
283.223
283.148
283.22
283.153
283.202
283.149
283.184
283.143
283.17
283.14
283.162
283.141
283.159
283.146
283.161
283.151
283.162
283.153
283.16
283.15
283.2
283.134
283.189
283.137
283.174
283.134
283.16
283.13
283.149
283.129
283.144
283.133
283.145
283.14
283.147
283.145
283.15
283.148
283.149
283.145
283.229
283.171
283.244
283.193
283.247
283.205
283.245
283.212
283.243
283.218
283.244
283.226
283.248
283.235
283.251
283.239
283.249
283.237
283.243
283.228
283.18
283.146
283.192
283.168
283.198
283.178
283.196
283.184
283.196
283.189
283.201
283.197
283.207
283.203
283.209
283.205
283.207
283.202
283.202
283.194
283.229
283.217
283.295
283.251
283.303
283.257
283.298
283.261
283.293
283.264
283.29
283.266
283.286
283.267
283.281
283.265
283.275
283.263
283.269
283.254
283.153
283.151
283.158
283.155
283.162
283.16
283.169
283.168
283.177
283.174
283.181
283.176
283.186
283.172
283.195
283.153
283.232
283.071
283.413
282.672
283.152
283.146
283.147
283.142
283.143
283.139
283.143
283.142
283.151
283.151
283.166
283.162
283.187
283.164
283.212
283.146
283.251
283.089
283.327
282.974
283.153
283.147
283.149
283.142
283.144
283.138
283.142
283.138
283.145
283.144
283.157
283.156
283.175
283.168
283.196
283.175
283.215
283.171
283.227
283.158
283.153
283.146
283.146
283.138
283.137
283.13
283.13
283.126
283.128
283.128
283.133
283.135
283.144
283.147
283.158
283.16
283.168
283.17
283.171
283.175
283.154
283.146
283.148
283.14
283.14
283.132
283.132
283.128
283.129
283.128
283.132
283.135
283.141
283.145
283.151
283.157
283.16
283.167
283.163
283.173
283.154
283.145
283.147
283.138
283.137
283.129
283.129
283.123
283.124
283.123
283.126
283.128
283.133
283.138
283.143
283.148
283.151
283.156
283.155
283.159
283.154
283.145
283.147
283.138
283.137
283.129
283.129
283.124
283.124
283.123
283.126
283.128
283.134
283.137
283.143
283.147
283.151
283.155
283.156
283.158
283.154
283.146
283.148
283.14
283.14
283.133
283.132
283.128
283.129
283.128
283.132
283.135
283.141
283.145
283.152
283.156
283.161
283.165
283.167
283.168
283.153
283.146
283.146
283.138
283.137
283.131
283.13
283.126
283.128
283.128
283.133
283.137
283.143
283.149
283.156
283.162
283.167
283.17
283.172
283.172
283.153
283.147
283.149
283.143
283.144
283.139
283.141
283.139
283.144
283.146
283.154
283.16
283.169
283.176
283.185
283.19
283.195
283.196
283.197
283.194
283.152
283.146
283.147
283.142
283.142
283.14
283.142
283.143
283.149
283.154
283.162
283.169
283.176
283.181
283.185
283.187
283.187
283.185
283.184
283.179
283.153
283.151
283.158
283.155
283.162
283.16
283.168
283.168
283.176
283.175
283.18
283.178
283.182
283.18
283.182
283.179
283.18
283.178
283.178
283.177
283.153
283.151
283.158
283.155
283.162
283.16
283.169
283.168
283.177
283.174
283.181
283.176
283.186
283.172
283.195
283.153
283.232
283.071
283.413
282.672
283.152
283.146
283.147
283.141
283.143
283.139
283.143
283.142
283.151
283.151
283.166
283.162
283.187
283.164
283.212
283.146
283.251
283.089
283.327
282.974
283.153
283.147
283.149
283.142
283.144
283.138
283.142
283.138
283.145
283.144
283.157
283.156
283.175
283.168
283.196
283.175
283.215
283.171
283.227
283.158
283.153
283.146
283.146
283.138
283.137
283.13
283.13
283.126
283.128
283.128
283.133
283.135
283.144
283.147
283.158
283.16
283.168
283.17
283.171
283.175
283.154
283.146
283.148
283.14
283.14
283.132
283.132
283.128
283.129
283.128
283.132
283.135
283.141
283.145
283.151
283.157
283.16
283.167
283.163
283.173
283.154
283.145
283.147
283.138
283.137
283.129
283.129
283.123
283.124
283.123
283.126
283.128
283.133
283.138
283.143
283.148
283.151
283.156
283.155
283.159
283.154
283.145
283.147
283.138
283.137
283.129
283.129
283.124
283.124
283.123
283.126
283.128
283.134
283.137
283.143
283.147
283.151
283.155
283.156
283.158
283.154
283.146
283.148
283.14
283.14
283.133
283.132
283.128
283.129
283.128
283.132
283.135
283.141
283.145
283.152
283.156
283.161
283.165
283.167
283.168
283.153
283.146
283.146
283.138
283.137
283.131
283.13
283.126
283.128
283.128
283.133
283.137
283.143
283.149
283.156
283.162
283.167
283.17
283.172
283.172
283.153
283.147
283.149
283.143
283.144
283.139
283.141
283.139
283.144
283.146
283.154
283.16
283.169
283.176
283.185
283.19
283.195
283.196
283.197
283.194
283.152
283.146
283.147
283.142
283.142
283.14
283.142
283.143
283.149
283.154
283.162
283.169
283.176
283.181
283.185
283.187
283.187
283.185
283.184
283.179
283.153
283.151
283.158
283.155
283.162
283.16
283.168
283.168
283.176
283.175
283.18
283.178
283.182
283.18
283.182
283.179
283.18
283.178
283.178
283.177
283.229
283.217
283.296
283.251
283.303
283.257
283.298
283.261
283.293
283.264
283.29
283.266
283.287
283.265
283.285
283.258
283.288
283.235
283.341
283.031
283.18
283.146
283.192
283.168
283.198
283.178
283.197
283.183
283.196
283.188
283.202
283.194
283.21
283.196
283.22
283.186
283.24
283.143
283.312
282.983
283.229
283.171
283.244
283.193
283.247
283.205
283.245
283.211
283.244
283.217
283.246
283.224
283.252
283.228
283.261
283.222
283.276
283.196
283.306
283.136
283.2
283.134
283.189
283.137
283.174
283.133
283.16
283.129
283.15
283.128
283.145
283.131
283.147
283.136
283.153
283.138
283.161
283.133
283.167
283.122
283.223
283.148
283.22
283.153
283.202
283.149
283.184
283.143
283.17
283.14
283.162
283.14
283.161
283.144
283.162
283.148
283.164
283.15
283.162
283.149
283.216
283.13
283.202
283.13
283.179
283.122
283.158
283.114
283.141
283.108
283.13
283.107
283.126
283.109
283.125
283.113
283.125
283.116
283.122
283.113
283.216
283.13
283.202
283.13
283.179
283.122
283.158
283.114
283.141
283.108
283.13
283.107
283.126
283.11
283.125
283.114
283.125
283.116
283.122
283.112
283.223
283.148
283.22
283.153
283.202
283.149
283.184
283.143
283.17
283.14
283.162
283.141
283.159
283.146
283.161
283.151
283.162
283.153
283.16
283.15
283.2
283.134
283.189
283.137
283.174
283.134
283.16
283.13
283.149
283.129
283.144
283.133
283.145
283.14
283.147
283.145
283.15
283.148
283.149
283.145
283.229
283.171
283.244
283.193
283.247
283.205
283.245
283.212
283.243
283.218
283.244
283.226
283.248
283.235
283.251
283.239
283.249
283.237
283.243
283.228
283.18
283.146
283.192
283.168
283.198
283.178
283.196
283.184
283.196
283.189
283.201
283.197
283.207
283.203
283.209
283.205
283.207
283.202
283.202
283.194
283.229
283.217
283.295
283.251
283.303
283.257
283.298
283.261
283.293
283.264
283.29
283.266
283.286
283.267
283.281
283.265
283.275
283.263
283.269
283.254
282.873
282.993
282.992
283.04
283.014
283.047
283.026
283.05
283.035
283.054
283.042
283.057
283.049
283.059
283.055
283.059
283.063
283.053
283.085
283.001
282.794
282.849
282.866
282.929
282.919
282.954
282.944
282.967
282.964
282.981
282.98
282.991
282.993
282.999
283.007
282.999
283.028
282.975
283.096
282.835
282.734
282.746
282.685
282.753
282.709
282.763
282.731
282.775
282.754
282.792
282.781
282.811
282.81
282.829
282.841
282.84
282.878
282.83
282.935
282.777
282.757
282.764
282.701
282.75
282.711
282.751
282.726
282.758
282.744
282.772
282.769
282.791
282.799
282.813
282.832
282.834
282.866
282.848
282.898
282.851
282.736
282.75
282.665
282.72
282.662
282.707
282.666
282.703
282.676
282.708
282.693
282.721
282.717
282.742
282.746
282.766
282.776
282.791
282.803
282.813
282.741
282.767
282.681
282.741
282.681
282.727
282.684
282.721
282.691
282.722
282.704
282.733
282.724
282.751
282.75
282.775
282.778
282.8
282.804
282.827
282.741
282.767
282.681
282.741
282.681
282.727
282.684
282.721
282.691
282.722
282.704
282.733
282.724
282.751
282.75
282.775
282.777
282.801
282.804
282.827
282.736
282.75
282.665
282.72
282.662
282.707
282.666
282.703
282.676
282.708
282.692
282.722
282.716
282.744
282.744
282.769
282.773
282.795
282.799
282.817
282.757
282.764
282.701
282.75
282.711
282.751
282.725
282.759
282.744
282.773
282.768
282.793
282.796
282.817
282.826
282.843
282.853
282.865
282.874
282.879
282.734
282.746
282.685
282.753
282.709
282.764
282.731
282.776
282.754
282.793
282.78
282.814
282.807
282.835
282.832
282.855
282.853
282.871
282.87
282.879
282.794
282.849
282.866
282.929
282.919
282.954
282.944
282.967
282.964
282.981
282.979
282.992
282.991
283.002
283.001
283.01
283.008
283.014
283.014
283.016
282.873
282.993
282.992
283.04
283.014
283.047
283.026
283.05
283.035
283.054
283.042
283.057
283.048
283.06
283.053
283.062
283.057
283.064
283.06
283.068
285.012
286.541
287.565
288.398
289.077
289.686
290.217
290.716
291.17
291.603
292.003
292.386
292.746
293.095
293.428
293.751
294.059
294.357
294.643
294.921
295.189
295.448
295.697
295.936
296.166
296.385
296.594
296.792
296.979
297.154
297.318
297.469
297.608
297.735
297.85
297.953
298.044
298.124
298.193
298.253
298.303
298.345
298.38
298.408
298.43
298.447
298.46
298.469
298.475
298.48
298.483
298.485
298.486
298.487
298.487
298.488
298.488
298.488
298.488
298.488
298.488
298.489
298.489
298.489
298.489
298.489
298.489
298.49
298.49
298.49
298.49
298.49
298.49
298.491
298.491
298.491
298.491
298.491
298.491
298.491
298.491
298.492
298.491
298.492
298.491
298.491
298.489
298.491
298.486
298.484
284.182
285.578
286.564
287.373
288.041
288.638
289.164
289.654
290.104
290.533
290.93
291.31
291.668
292.014
292.344
292.665
292.972
293.269
293.554
293.83
294.096
294.355
294.603
294.842
295.071
295.29
295.499
295.698
295.886
296.062
296.227
296.38
296.52
296.649
296.766
296.871
296.965
297.047
297.118
297.18
297.232
297.277
297.313
297.343
297.366
297.385
297.398
297.409
297.416
297.421
297.424
297.426
297.428
297.429
297.429
297.43
297.43
297.43
297.43
297.43
297.43
297.43
297.43
297.431
297.431
297.431
297.431
297.431
297.431
297.431
297.431
297.432
297.432
297.432
297.432
297.432
297.432
297.433
297.432
297.433
297.433
297.433
297.432
297.433
297.432
297.433
297.431
297.432
297.427
297.424
283.347
284.364
285.198
285.935
286.556
287.123
287.621
288.091
288.523
288.939
289.326
289.698
290.047
290.384
290.707
291.022
291.323
291.615
291.895
292.167
292.429
292.683
292.928
293.165
293.392
293.61
293.817
294.016
294.204
294.381
294.548
294.703
294.846
294.978
295.099
295.208
295.306
295.393
295.469
295.535
295.592
295.64
295.68
295.713
295.74
295.762
295.778
295.79
295.799
295.806
295.81
295.813
295.815
295.816
295.817
295.817
295.817
295.817
295.817
295.818
295.818
295.818
295.818
295.818
295.818
295.818
295.818
295.818
295.818
295.818
295.818
295.819
295.819
295.819
295.819
295.819
295.819
295.819
295.819
295.819
295.819
295.819
295.819
295.819
295.818
295.819
295.816
295.818
295.811
295.807
283.01
283.584
284.181
284.77
285.302
285.798
286.245
286.667
287.063
287.447
287.812
288.162
288.492
288.81
289.116
289.415
289.705
289.985
290.254
290.514
290.766
291.011
291.248
291.477
291.697
291.909
292.111
292.305
292.49
292.666
292.831
292.986
293.13
293.264
293.386
293.499
293.6
293.691
293.771
293.842
293.903
293.955
293.999
294.037
294.067
294.092
294.111
294.126
294.137
294.145
294.151
294.154
294.157
294.158
294.159
294.16
294.16
294.16
294.16
294.16
294.16
294.16
294.16
294.161
294.161
294.161
294.161
294.161
294.161
294.161
294.161
294.161
294.161
294.161
294.161
294.162
294.162
294.162
294.162
294.162
294.162
294.162
294.161
294.162
294.161
294.162
294.16
294.162
294.156
294.152
282.843
283.135
283.497
283.929
284.342
284.753
285.127
285.49
285.833
286.176
286.504
286.824
287.126
287.418
287.699
287.976
288.245
288.507
288.758
289.002
289.237
289.467
289.69
289.907
290.115
290.315
290.508
290.692
290.869
291.038
291.198
291.348
291.489
291.62
291.741
291.852
291.954
292.046
292.128
292.2
292.263
292.318
292.364
292.404
292.437
292.464
292.486
292.503
292.515
292.525
292.531
292.536
292.539
292.54
292.542
292.542
292.543
292.543
292.543
292.543
292.543
292.543
292.543
292.543
292.543
292.543
292.544
292.544
292.544
292.544
292.544
292.544
292.544
292.544
292.544
292.544
292.544
292.544
292.544
292.544
292.544
292.544
292.544
292.544
292.543
292.544
292.542
292.543
292.539
292.535
282.832
282.975
283.169
283.459
283.756
284.069
284.364
284.653
284.935
285.222
285.505
285.783
286.047
286.303
286.551
286.797
287.038
287.274
287.501
287.721
287.933
288.141
288.344
288.541
288.731
288.915
289.091
289.26
289.424
289.58
289.729
289.869
290.001
290.124
290.238
290.344
290.442
290.53
290.609
290.679
290.741
290.795
290.842
290.881
290.915
290.943
290.965
290.982
290.996
291.006
291.013
291.018
291.021
291.023
291.024
291.025
291.025
291.026
291.026
291.026
291.026
291.026
291.026
291.026
291.026
291.026
291.026
291.026
291.026
291.027
291.027
291.027
291.027
291.027
291.027
291.027
291.027
291.027
291.027
291.027
291.027
291.028
291.027
291.028
291.027
291.028
291.027
291.027
291.026
291.024
282.836
282.916
283.012
283.197
283.397
283.624
283.842
284.062
284.283
284.514
284.747
284.978
285.199
285.415
285.625
285.836
286.044
286.248
286.444
286.634
286.819
287
287.177
287.35
287.516
287.677
287.832
287.981
288.125
288.264
288.396
288.521
288.638
288.748
288.851
288.947
289.035
289.116
289.188
289.253
289.309
289.359
289.402
289.44
289.471
289.497
289.519
289.535
289.548
289.558
289.565
289.569
289.572
289.574
289.576
289.577
289.577
289.577
289.577
289.578
289.578
289.578
289.578
289.578
289.578
289.578
289.578
289.578
289.578
289.578
289.579
289.579
289.579
289.579
289.579
289.579
289.579
289.579
289.579
289.58
289.58
289.58
289.58
289.58
289.58
289.58
289.579
289.579
289.58
289.58
282.837
282.893
282.939
283.056
283.184
283.343
283.493
283.655
283.82
284
284.182
284.366
284.542
284.716
284.886
285.058
285.228
285.396
285.557
285.714
285.865
286.015
286.162
286.306
286.444
286.578
286.706
286.831
286.951
287.067
287.177
287.282
287.381
287.474
287.561
287.642
287.717
287.785
287.846
287.901
287.95
287.992
288.029
288.062
288.089
288.111
288.13
288.144
288.156
288.164
288.17
288.174
288.177
288.179
288.18
288.18
288.181
288.181
288.181
288.181
288.181
288.182
288.182
288.182
288.182
288.182
288.182
288.182
288.182
288.182
288.183
288.183
288.183
288.183
288.183
288.183
288.183
288.183
288.183
288.184
288.183
288.184
288.183
288.184
288.183
288.183
288.183
288.182
288.182
288.183
282.905
282.939
282.964
283.033
283.113
283.212
283.31
283.419
283.534
283.664
283.796
283.93
284.059
284.188
284.315
284.444
284.573
284.699
284.821
284.94
285.055
285.169
285.281
285.391
285.497
285.598
285.697
285.792
285.885
285.973
286.058
286.139
286.215
286.286
286.353
286.416
286.473
286.526
286.574
286.616
286.653
286.686
286.715
286.74
286.761
286.779
286.793
286.804
286.813
286.819
286.824
286.827
286.829
286.83
286.831
286.832
286.832
286.832
286.832
286.833
286.833
286.833
286.833
286.833
286.833
286.833
286.833
286.834
286.834
286.834
286.834
286.834
286.834
286.835
286.835
286.835
286.835
286.835
286.835
286.835
286.835
286.836
286.836
286.836
286.836
286.836
286.836
286.834
286.837
286.839
282.904
282.938
282.949
282.998
283.042
283.105
283.161
283.232
283.304
283.39
283.474
283.562
283.645
283.73
283.814
283.901
283.985
284.069
284.15
284.229
284.305
284.382
284.456
284.529
284.599
284.667
284.733
284.797
284.858
284.918
284.974
285.028
285.078
285.126
285.17
285.212
285.251
285.286
285.317
285.345
285.37
285.392
285.411
285.428
285.442
285.453
285.462
285.47
285.475
285.479
285.482
285.484
285.486
285.487
285.487
285.488
285.488
285.488
285.488
285.488
285.489
285.489
285.489
285.489
285.489
285.489
285.489
285.49
285.49
285.49
285.49
285.49
285.49
285.49
285.491
285.491
285.491
285.491
285.491
285.491
285.491
285.491
285.491
285.491
285.491
285.491
285.49
285.489
285.492
285.493
283.026
283.04
283.046
283.068
283.089
283.117
283.144
283.178
283.214
283.256
283.298
283.342
283.383
283.426
283.469
283.512
283.555
283.598
283.638
283.678
283.718
283.756
283.794
283.832
283.867
283.902
283.935
283.968
283.999
284.029
284.058
284.085
284.111
284.135
284.158
284.179
284.199
284.216
284.232
284.246
284.259
284.27
284.28
284.288
284.295
284.301
284.305
284.309
284.312
284.314
284.315
284.316
284.317
284.317
284.318
284.318
284.318
284.318
284.318
284.318
284.318
284.319
284.319
284.319
284.319
284.319
284.319
284.319
284.319
284.319
284.32
284.32
284.32
284.32
284.32
284.32
284.32
284.32
284.32
284.32
284.321
284.321
284.321
284.321
284.321
284.321
284.321
284.32
284.322
284.323
283.064
283.073
283.073
283.083
283.088
283.099
283.106
283.117
283.128
283.141
283.153
283.167
283.179
283.192
283.204
283.218
283.23
283.243
283.255
283.267
283.279
283.29
283.301
283.312
283.323
283.333
283.343
283.353
283.362
283.371
283.379
283.387
283.395
283.402
283.409
283.415
283.421
283.426
283.43
283.435
283.438
283.442
283.444
283.447
283.449
283.451
283.452
283.453
283.454
283.454
283.455
283.455
283.455
283.455
283.455
283.456
283.456
283.456
283.456
283.456
283.456
283.456
283.456
283.456
283.456
283.456
283.456
283.456
283.456
283.456
283.456
283.456
283.456
283.456
283.456
283.456
283.456
283.456
283.456
283.456
283.456
283.456
283.456
283.456
283.456
283.456
283.456
283.456
283.456
283.456
285.672
287.368
288.458
289.287
289.99
290.589
291.133
291.626
292.088
292.516
292.921
293.301
293.665
294.012
294.348
294.67
294.981
295.279
295.567
295.845
296.115
296.375
296.625
296.866
297.096
297.316
297.526
297.725
297.913
298.089
298.253
298.404
298.543
298.67
298.785
298.888
298.978
299.058
299.127
299.186
299.236
299.278
299.312
299.339
299.361
299.377
299.39
299.399
299.405
299.409
299.412
299.414
299.415
299.416
299.416
299.416
299.417
299.417
299.417
299.417
299.417
299.417
299.418
299.418
299.418
299.418
299.418
299.418
299.419
299.419
299.419
299.419
299.42
299.42
299.42
299.42
299.421
299.421
299.421
299.422
299.422
299.422
299.423
299.423
299.424
299.424
299.426
299.426
299.431
299.432
284.314
285.727
286.748
287.556
288.242
288.836
289.37
289.858
290.315
290.741
291.143
291.522
291.884
292.23
292.563
292.884
293.194
293.491
293.779
294.056
294.325
294.584
294.835
295.075
295.306
295.527
295.738
295.938
296.128
296.306
296.472
296.627
296.769
296.899
297.017
297.124
297.218
297.301
297.374
297.437
297.49
297.534
297.571
297.602
297.626
297.644
297.658
297.669
297.676
297.681
297.685
297.687
297.688
297.689
297.69
297.69
297.69
297.69
297.69
297.69
297.691
297.691
297.691
297.691
297.691
297.691
297.691
297.692
297.692
297.692
297.692
297.692
297.693
297.693
297.693
297.693
297.693
297.694
297.694
297.694
297.694
297.695
297.695
297.695
297.696
297.696
297.697
297.697
297.701
297.701
283.596
284.511
285.345
286.05
286.681
287.231
287.735
288.195
288.632
289.042
289.433
289.802
290.154
290.49
290.815
291.129
291.433
291.725
292.008
292.28
292.544
292.8
293.047
293.286
293.515
293.734
293.944
294.145
294.335
294.515
294.684
294.841
294.987
295.121
295.244
295.355
295.455
295.544
295.622
295.689
295.748
295.797
295.839
295.873
295.901
295.923
295.94
295.953
295.962
295.969
295.973
295.976
295.978
295.979
295.98
295.981
295.981
295.981
295.981
295.981
295.981
295.981
295.981
295.981
295.982
295.982
295.982
295.982
295.982
295.982
295.982
295.983
295.983
295.983
295.983
295.983
295.984
295.984
295.984
295.984
295.985
295.985
295.985
295.986
295.986
295.987
295.988
295.988
295.992
295.992
283.218
283.684
284.245
284.792
285.316
285.795
286.24
286.654
287.051
287.432
287.799
288.148
288.481
288.8
289.108
289.408
289.7
289.982
290.254
290.516
290.77
291.017
291.257
291.489
291.712
291.926
292.131
292.328
292.516
292.694
292.863
293.021
293.167
293.304
293.429
293.544
293.648
293.742
293.824
293.897
293.96
294.014
294.06
294.099
294.13
294.156
294.177
294.192
294.204
294.212
294.218
294.222
294.225
294.226
294.227
294.228
294.228
294.228
294.229
294.229
294.229
294.229
294.229
294.229
294.229
294.229
294.229
294.229
294.229
294.229
294.23
294.23
294.23
294.23
294.23
294.23
294.231
294.231
294.231
294.231
294.231
294.232
294.232
294.232
294.233
294.233
294.233
294.234
294.236
294.236
283.146
283.316
283.638
283.997
284.391
284.766
285.132
285.476
285.816
286.148
286.477
286.793
287.096
287.385
287.668
287.944
288.215
288.478
288.732
288.977
289.214
289.446
289.671
289.89
290.102
290.305
290.5
290.687
290.867
291.039
291.202
291.355
291.499
291.633
291.757
291.871
291.976
292.071
292.155
292.23
292.295
292.352
292.401
292.442
292.477
292.505
292.528
292.546
292.56
292.57
292.577
292.581
292.585
292.587
292.588
292.589
292.589
292.589
292.589
292.589
292.589
292.59
292.59
292.59
292.59
292.59
292.59
292.59
292.59
292.59
292.59
292.59
292.591
292.591
292.591
292.591
292.591
292.591
292.592
292.592
292.592
292.592
292.593
292.593
292.594
292.594
292.595
292.595
292.598
292.598
283.104
283.134
283.293
283.503
283.773
284.048
284.326
284.597
284.872
285.15
285.431
285.705
285.97
286.225
286.474
286.719
286.963
287.2
287.429
287.651
287.866
288.075
288.281
288.481
288.674
288.861
289.039
289.212
289.378
289.538
289.69
289.833
289.968
290.094
290.212
290.321
290.422
290.513
290.595
290.668
290.733
290.789
290.837
290.879
290.914
290.944
290.968
290.986
291.001
291.011
291.019
291.024
291.028
291.03
291.031
291.032
291.033
291.033
291.033
291.033
291.033
291.033
291.033
291.033
291.033
291.034
291.034
291.034
291.034
291.034
291.034
291.034
291.034
291.034
291.035
291.035
291.035
291.035
291.035
291.035
291.036
291.036
291.036
291.036
291.037
291.037
291.037
291.037
291.038
291.039
283.109
283.087
283.158
283.269
283.444
283.629
283.827
284.026
284.237
284.457
284.685
284.911
285.131
285.344
285.554
285.763
285.972
286.176
286.375
286.566
286.752
286.935
287.114
287.289
287.459
287.622
287.779
287.931
288.078
288.219
288.354
288.482
288.602
288.715
288.821
288.92
289.011
289.094
289.17
289.237
289.296
289.348
289.393
289.432
289.465
289.493
289.516
289.534
289.548
289.558
289.565
289.57
289.574
289.576
289.577
289.578
289.579
289.579
289.579
289.579
289.579
289.579
289.58
289.58
289.58
289.58
289.58
289.58
289.58
289.58
289.58
289.58
289.581
289.581
289.581
289.581
289.581
289.581
289.582
289.582
289.582
289.582
289.582
289.583
289.583
289.583
289.584
289.584
289.584
289.585
283.145
283.111
283.142
283.197
283.307
283.424
283.558
283.693
283.847
284.01
284.187
284.361
284.535
284.702
284.871
285.039
285.209
285.376
285.538
285.695
285.848
285.999
286.147
286.292
286.432
286.568
286.698
286.825
286.947
287.065
287.178
287.285
287.387
287.482
287.571
287.655
287.732
287.803
287.867
287.924
287.974
288.019
288.058
288.091
288.12
288.144
288.164
288.179
288.191
288.2
288.206
288.211
288.214
288.216
288.217
288.218
288.218
288.219
288.219
288.219
288.219
288.219
288.219
288.219
288.219
288.219
288.219
288.22
288.22
288.22
288.22
288.22
288.22
288.22
288.221
288.221
288.221
288.221
288.222
288.222
288.222
288.222
288.223
288.223
288.224
288.224
288.226
288.225
288.227
288.229
283.138
283.115
283.129
283.162
283.229
283.302
283.388
283.479
283.586
283.705
283.833
283.962
284.09
284.215
284.342
284.471
284.601
284.728
284.852
284.972
285.09
285.206
285.32
285.432
285.541
285.645
285.746
285.844
285.939
286.031
286.119
286.202
286.281
286.355
286.425
286.49
286.55
286.605
286.655
286.7
286.739
286.774
286.804
286.831
286.853
286.872
286.887
286.899
286.908
286.915
286.92
286.923
286.926
286.927
286.928
286.929
286.929
286.929
286.929
286.929
286.93
286.93
286.93
286.93
286.93
286.93
286.93
286.93
286.931
286.931
286.931
286.931
286.931
286.931
286.932
286.932
286.932
286.932
286.933
286.933
286.933
286.933
286.934
286.934
286.935
286.934
286.936
286.935
286.936
286.938
283.224
283.197
283.208
283.218
283.258
283.295
283.347
283.399
283.47
283.546
283.631
283.714
283.8
283.883
283.97
284.057
284.146
284.233
284.318
284.4
284.481
284.561
284.64
284.717
284.792
284.864
284.934
285.002
285.068
285.131
285.192
285.249
285.304
285.355
285.403
285.448
285.49
285.528
285.562
285.593
285.62
285.644
285.665
285.683
285.698
285.711
285.721
285.729
285.736
285.74
285.743
285.746
285.747
285.748
285.749
285.749
285.749
285.75
285.75
285.75
285.75
285.75
285.75
285.75
285.75
285.751
285.751
285.751
285.751
285.751
285.751
285.752
285.752
285.752
285.752
285.752
285.753
285.753
285.753
285.753
285.754
285.754
285.755
285.755
285.756
285.756
285.757
285.757
285.758
285.761
283.195
283.182
283.188
283.195
283.216
283.234
283.261
283.29
283.33
283.372
283.42
283.466
283.514
283.561
283.61
283.66
283.711
283.759
283.807
283.854
283.9
283.946
283.991
284.035
284.077
284.118
284.158
284.197
284.234
284.27
284.305
284.338
284.368
284.398
284.425
284.451
284.474
284.495
284.515
284.532
284.547
284.561
284.572
284.582
284.591
284.598
284.604
284.608
284.611
284.614
284.615
284.617
284.617
284.618
284.618
284.619
284.619
284.619
284.619
284.619
284.619
284.619
284.619
284.62
284.62
284.62
284.62
284.62
284.62
284.62
284.621
284.621
284.621
284.621
284.621
284.621
284.622
284.622
284.622
284.622
284.622
284.622
284.623
284.623
284.624
284.624
284.625
284.624
284.624
284.626
283.259
283.246
283.25
283.246
283.253
283.254
283.264
283.27
283.283
283.294
283.309
283.322
283.337
283.351
283.367
283.382
283.397
283.412
283.427
283.442
283.456
283.47
283.484
283.498
283.511
283.524
283.537
283.549
283.561
283.572
283.583
283.593
283.603
283.612
283.62
283.628
283.636
283.642
283.648
283.654
283.658
283.663
283.666
283.669
283.672
283.674
283.676
283.677
283.678
283.679
283.679
283.68
283.68
283.68
283.68
283.68
283.68
283.681
283.681
283.681
283.681
283.681
283.681
283.681
283.681
283.681
283.681
283.681
283.681
283.681
283.681
283.681
283.681
283.682
283.682
283.682
283.682
283.682
283.682
283.682
283.682
283.682
283.683
283.683
283.683
283.683
283.684
283.684
283.685
283.685
286.236
288.484
289.757
290.677
291.428
292.065
292.635
293.15
293.627
294.068
294.483
294.872
295.245
295.601
295.944
296.272
296.588
296.891
297.185
297.467
297.742
298.005
298.26
298.503
298.737
298.959
299.171
299.371
299.561
299.737
299.901
300.052
300.191
300.316
300.43
300.531
300.62
300.697
300.764
300.821
300.869
300.908
300.941
300.966
300.986
301.001
301.012
301.02
301.026
301.029
301.032
301.033
301.034
301.035
301.035
301.035
301.036
301.036
301.036
301.036
301.036
301.036
301.036
301.036
301.037
301.037
301.037
301.037
301.037
301.037
301.038
301.038
301.038
301.038
301.039
301.039
301.039
301.039
301.04
301.04
301.04
301.041
301.041
301.041
301.042
301.042
301.043
301.043
301.049
301.052
284.02
285.628
286.809
287.711
288.454
289.089
289.654
290.167
290.643
291.086
291.502
291.894
292.266
292.622
292.964
293.294
293.611
293.916
294.21
294.494
294.768
295.034
295.29
295.536
295.772
295.997
296.213