/*--------------------------------*- C++ -*----------------------------------*\
  =========                 |
  \\      /  F ield         | OpenFOAM: The Open Source CFD Toolbox
   \\    /   O peration     | Website:  https://openfoam.org
    \\  /    A nd           | Version:  7
     \\/     M anipulation  |
\*---------------------------------------------------------------------------*/
FoamFile
{
    version     2.0;
    format      ascii;
    class       volScalarField;
    location    "2.115";
    object      pPrime2Mean;
}
// * * * * * * * * * * * * * * * * * * * * * * * * * * * * * * * * * * * * * //

dimensions      [2 -2 -4 0 0 0 0];

internalField   nonuniform List<scalar> 
4950
(
688554
687729
687766
686876
686858
685789
685656
684421
684149
682784
682387
680937
680440
678939
678363
676821
676178
674597
673917
672455
688640
687762
687767
686846
686816
685732
685601
684362
684096
682729
682336
680883
680387
678880
678302
676753
676103
674517
673814
672381
688565
687681
687697
686799
686779
685709
685576
684344
684076
682715
682321
680874
680379
678879
678305
676761
676117
674528
673837
672286
688660
687754
687749
686819
686784
685698
685563
684326
684064
682702
682313
680864
680372
678868
678293
676746
676095
674509
673790
672268
688575
687680
687690
686788
686767
685697
685564
684332
684065
682706
682314
680867
680374
678876
678304
676761
676117
674529
673826
672245
688660
687754
687749
686819
686784
685698
685563
684326
684064
682702
682313
680864
680372
678868
678293
676746
676095
674509
673789
672267
688565
687681
687697
686799
686779
685709
685576
684344
684076
682715
682321
680874
680379
678879
678305
676762
676117
674529
673837
672286
688640
687762
687767
686846
686816
685732
685601
684362
684096
682729
682336
680883
680387
678880
678302
676753
676103
674517
673813
672381
688554
687729
687766
686876
686858
685789
685656
684421
684149
682784
682387
680937
680440
678939
678363
676821
676178
674597
673916
672456
687668
686507
686812
685657
685963
684687
684839
683412
683397
681866
681710
680121
679846
678227
677851
676209
675739
674071
673538
671885
687652
686443
686765
685621
685930
684666
684824
683414
683406
681888
681735
680156
679882
678270
677895
676259
675791
674131
673624
671903
687713
686518
686818
685650
685948
684671
684831
683415
683412
681891
681741
680157
679887
678270
677895
676251
675776
674100
673547
671837
687675
686454
686767
685604
685906
684638
684800
683394
683392
681880
681731
680155
679885
678276
677904
676270
675802
674131
673617
671857
687727
686519
686814
685639
685932
684653
684815
683402
683402
681883
681736
680154
679884
678269
677896
676253
675778
674098
673546
671815
687675
686454
686767
685604
685906
684638
684800
683394
683392
681880
681731
680155
679885
678276
677904
676270
675802
674131
673617
671857
687713
686518
686818
685650
685948
684671
684831
683415
683412
681891
681741
680157
679887
678270
677895
676251
675776
674100
673547
671837
687652
686443
686765
685621
685930
684666
684824
683414
683406
681888
681735
680156
679882
678270
677895
676259
675791
674132
673622
671905
687668
686507
686812
685657
685963
684687
684839
683412
683397
681866
681710
680121
679846
678227
677852
676209
675739
674072
673537
671886
687323
686163
686342
685218
685441
684247
684394
683056
683048
681576
681427
679874
679615
678012
677658
676007
675571
673866
673396
671728
687354
686180
686353
685225
685443
684244
684389
683052
683046
681579
681434
679885
679628
678026
677672
676020
675581
673873
673399
671683
687353
686186
686357
685223
685433
684227
684370
683036
683036
681574
681433
679886
679632
678031
677679
676028
675589
673880
673398
671672
687371
686197
686363
685227
685435
684228
684368
683033
683032
681569
681429
679882
679629
678029
677679
676028
675591
673880
673399
671667
687362
686194
686362
685224
685430
684221
684362
683028
683030
681569
681430
679884
679631
678031
677681
676030
675592
673882
673399
671671
687371
686197
686363
685227
685435
684228
684368
683033
683032
681569
681429
679882
679629
678029
677679
676028
675591
673880
673399
671667
687353
686186
686357
685223
685433
684227
684370
683036
683036
681574
681433
679886
679632
678031
677680
676028
675589
673880
673398
671672
687354
686180
686353
685225
685443
684244
684389
683052
683046
681579
681435
679885
679628
678026
677672
676020
675580
673874
673398
671684
687323
686163
686342
685218
685441
684247
684394
683056
683048
681576
681427
679874
679615
678012
677658
676008
675570
673868
673394
671731
687668
686507
686812
685657
685964
684687
684839
683412
683397
681866
681710
680121
679847
678227
677852
676209
675739
674071
673539
671885
687652
686443
686765
685621
685930
684666
684824
683414
683406
681888
681735
680156
679882
678270
677895
676259
675791
674131
673624
671904
687714
686518
686818
685651
685948
684671
684831
683415
683412
681891
681741
680158
679887
678270
677895
676251
675776
674100
673548
671837
687675
686454
686767
685605
685906
684638
684801
683394
683392
681880
681731
680155
679885
678277
677904
676270
675802
674131
673617
671857
687727
686519
686814
685639
685932
684653
684815
683402
683402
681884
681736
680154
679885
678269
677896
676253
675778
674098
673546
671815
687675
686454
686767
685605
685906
684638
684801
683394
683392
681880
681731
680155
679885
678277
677904
676270
675802
674131
673617
671857
687714
686518
686818
685651
685948
684671
684831
683415
683412
681891
681741
680158
679887
678270
677895
676251
675776
674101
673547
671837
687652
686443
686765
685621
685930
684666
684824
683414
683406
681888
681735
680156
679882
678270
677895
676260
675791
674132
673622
671905
687668
686507
686812
685657
685963
684687
684839
683412
683397
681866
681710
680121
679847
678227
677852
676209
675739
674072
673537
671887
688554
687730
687766
686876
686859
685789
685656
684421
684149
682784
682387
680937
680440
678939
678363
676821
676178
674597
673917
672455
688640
687762
687767
686846
686816
685732
685601
684362
684097
682730
682336
680883
680387
678880
678302
676753
676103
674517
673815
672381
688565
687682
687697
686799
686779
685709
685576
684344
684077
682715
682321
680874
680379
678879
678305
676762
676117
674529
673838
672286
688660
687755
687749
686820
686784
685698
685564
684327
684064
682702
682314
680864
680372
678868
678294
676746
676095
674510
673790
672268
688575
687680
687690
686789
686767
685698
685564
684333
684066
682706
682314
680868
680374
678876
678304
676761
676117
674529
673826
672245
688660
687755
687749
686820
686784
685698
685564
684327
684064
682702
682314
680864
680372
678868
678294
676746
676095
674510
673790
672267
688565
687682
687697
686799
686779
685709
685576
684344
684076
682715
682321
680874
680379
678879
678305
676762
676117
674529
673837
672286
688640
687762
687767
686846
686816
685732
685601
684362
684096
682730
682336
680883
680387
678880
678302
676753
676103
674517
673813
672381
688554
687730
687766
686876
686858
685789
685656
684421
684149
682784
682387
680937
680440
678939
678364
676821
676178
674597
673916
672456
670389
663574
660606
653640
650073
642809
638730
631210
626663
618911
613929
605962
600576
592412
586651
578307
572196
563685
557249
548587
541850
533049
526035
517107
509838
500796
493293
484150
476433
467201
459291
449983
441900
432529
424293
414870
406501
397043
388563
379085
370517
361038
352397
342905
334170
324672
315902
306455
297688
288308
279571
270280
261594
252406
243793
234721
226200
217259
208850
200054
191778
183141
175018
166555
158607
150334
142583
134515
126986
119141
111859
104256
97248.4
89905.2
83202.8
76144.1
69776.9
63023.6
57033.1
50616.4
45035.9
38986.3
33873
28226.3
23621.2
18485.8
14515.2
9814.16
6459.08
2853.38
670167
663239
660244
653255
649675
642392
638300
630763
626206
618442
613453
605478
600086
591917
586152
577806
571693
563182
556746
548085
541350
532552
525541
516617
509351
500315
492816
483679
475967
466742
458838
449537
441460
432096
423867
414453
406090
396640
388167
378698
370137
360667
352034
342550
333823
324333
315572
306133
297374
288003
279274
269991
261314
252134
243529
234465
225952
217020
208619
199832
191563
182934
174819
166364
158423
150159
142415
134356
126834
118997
111722
104127
97126.9
89791.3
83096.2
76044.9
69684.8
62938.8
56955.3
50545.7
44971.9
38929.3
33822.5
28182.5
23583.7
18454.5
14489.8
9794.58
6444.9
2843.78
670018
663305
660328
653367
649801
642538
638457
630938
626391
618640
613659
605694
600309
592148
586387
578047
571937
563430
556996
548338
541604
532806
525795
516871
509604
500567
493067
483928
476214
466987
459080
449777
441697
432329
424097
414679
406313
396859
388382
378908
370344
360869
352232
342744
334013
324518
315752
306308
297545
288169
279435
270147
261466
252280
243671
234602
226085
217147
208742
199949
191676
183043
174923
166463
158518
150248
142500
134436
126910
119069
111789
104190
97185.6
89845.7
83146.5
76091.1
69727.1
62977
56989.9
50576.4
44999.2
38953
33843
28199.7
23598
18465.8
14498.6
9800.88
6448.55
2846.41
670034
663119
660104
653112
649531
642246
638151
630612
626052
618286
613295
605319
599925
591756
585989
577642
571528
563017
556581
547920
541184
532386
525374
516452
509186
500150
492652
483516
475805
466581
458678
449378
441302
431940
423712
414299
405939
396490
388019
378551
369993
360524
351893
342412
333687
324199
315440
306003
297246
287878
279151
269871
261196
252018
243415
234355
225844
216915
208516
199731
191465
182840
174727
166275
158337
150075
142335
134278
126759
118926
111653
104061
97064.3
89731.8
83039.7
75991.6
69634.7
62891.9
56911.7
50505.2
44934.8
38895.4
33792
28155.4
23560
18434.1
14472.9
9781.08
6434.85
2837.16
669983
663285
660296
653335
649770
642508
638427
630907
626359
618608
613627
605662
600276
592115
586354
578012
571902
563395
556961
548302
541567
532769
525758
516834
509567
500529
493028
483890
476176
466948
459041
449737
441657
432290
424057
414639
406274
396819
388342
378869
370305
360830
352193
342705
333974
324479
315714
306270
297508
288132
279399
270111
261430
252245
243636
234568
226051
217115
208710
199918
191645
183013
174893
166435
158490
150222
142475
134411
126886
119046
111767
104168
97165.3
89826.3
83128.1
76073.6
69710.7
62961.7
56975.6
50563.1
44987
38941.8
33833
28190.7
23590.1
18459.1
14493
9796.37
6445.03
2844.05
670035
663115
660097
653103
649522
642236
638140
630601
626040
618274
613282
605306
599913
591743
585976
577629
571515
563004
556568
547907
541172
532373
525362
516439
509173
500138
492640
483504
475793
466569
458666
449367
441291
431929
423701
414289
405928
396480
388009
378541
369983
360515
351884
342403
333678
324190
315431
305994
297238
287870
279143
269863
261188
252011
243408
234348
225838
216908
208510
199725
191459
182834
174721
166270
158332
150070
142330
134273
126755
118921
111649
104057
97060.7
89728.4
83036.6
75988.6
69631.9
62889.3
56909.3
50503
44932.8
38893.6
33790.4
28154
23558.8
18433
14472
9780.39
6434.36
2836.78
670016
663300
660324
653364
649799
642538
638458
630939
626391
618641
613660
605696
600311
592150
586390
578049
571939
563433
556999
548340
541606
532809
525797
516874
509607
500570
493069
483931
476217
466989
459083
449779
441699
432332
424099
414681
406316
396861
388384
378911
370346
360872
352234
342746
334015
324520
315754
306310
297547
288171
279437
270149
261468
252282
243673
234604
226087
217149
208744
199951
191678
183045
174925
166465
158520
150250
142502
134438
126912
119071
111791
104192
97187.4
89847.4
83148.2
76092.7
69728.7
62978.6
56991.5
50577.9
45000.7
38954.3
33844.3
28200.9
23599.1
18466.8
14499.5
9801.59
6449.11
2846.69
670164
663220
660217
653224
649643
642358
638264
630727
626168
618403
613414
605438
600046
591878
586112
577766
571653
563142
556707
548046
541311
532513
525502
516579
509313
500278
492779
483643
475931
466707
458803
449503
441427
432063
423834
414420
406059
396609
388137
378668
370108
360638
352006
342523
333796
324306
315546
306107
297349
287979
279250
269968
261291
252111
243507
234444
225932
217000
208599
199813
191544
182916
174801
166348
158407
150143
142400
134341
126820
118984
111709
104115
97115.4
89780.4
83085.9
76035.3
69675.7
62930.4
56947.6
50538.5
44965.5
38923.4
33817.3
28177.9
23579.8
18451.1
14487.1
9792.43
6443.4
2842.66
670382
663565
660605
653647
650085
642825
638748
631230
626686
618934
613954
605988
600603
592440
586679
578335
572225
563714
557279
548616
541880
533078
526064
517136
509867
500825
493321
484178
476461
467229
459319
450010
441927
432555
424318
414896
406526
397067
388587
379108
370540
361061
352420
342927
334192
324693
315923
306475
297708
288328
279590
270298
261613
252423
243810
234738
226216
217275
208866
200069
191792
183155
175031
166568
158619
150346
142594
134526
126997
119152
111869
104265
97257.5
89913.8
83211
76151.8
69784.1
63030.3
57039.4
50622.1
45041.2
38991.1
33877.3
28230.3
23624.7
18488.8
14517.8
9816.3
6460.72
2854.42
670448
663402
660728
653620
650247
642874
638925
631318
626861
619037
614119
606092
600750
592536
586805
578418
572328
563780
557360
548665
541940
533110
526104
517152
509889
500827
493328
484168
476455
467209
459303
449983
441903
432522
424289
414859
406494
397029
388553
379070
370507
361024
352388
342893
334162
324661
315896
306446
297684
288304
279571
270279
261599
252410
243802
234731
226215
217275
208871
200076
191804
183169
175051
166590
158646
150374
142628
134562
127038
119194
111917
104314
97311.4
89967.2
83269.6
76208.8
69845.7
63088.9
57101.5
50679.6
45100.2
39043.5
33928.8
28272.8
23663.1
18516.2
14538.4
9822.95
6457.19
2842.8
670578
663666
661013
653926
650564
643214
639277
631690
627244
619437
614527
606513
601179
592974
587249
578867
572782
564238
557820
549127
542403
533573
526567
517614
510350
501285
493784
484620
476904
467654
459744
450418
442334
432947
424709
415273
406902
397430
388947
379457
370887
361397
352754
343251
334513
325004
316232
306774
298004
288616
279875
270575
261887
252690
244074
234994
226470
217522
209110
200307
192027
183384
175257
166788
158836
150556
142803
134728
127196
119344
112059
104448
97437.8
90085.6
83380.4
76311.8
69941.2
63176.7
57181.9
50752.5
45166
39102
33980.4
28317.4
23701.2
18547.7
14563.8
9842.04
6470.69
2851.2
670445
663483
660804
653704
650333
642960
639009
631402
626945
619122
614203
606178
600835
592622
586891
578504
572414
563866
557445
548751
542025
533196
526189
517237
509973
500911
493412
484251
476538
467291
459385
450064
441984
432601
424368
414937
406571
397105
388628
379144
370579
361096
352458
342962
334230
324728
315962
306511
297747
288365
279632
270338
261656
252466
243857
234784
226266
217325
208920
200124
191850
183214
175094
166631
158686
150413
142665
134597
127072
119226
111947
104342
97338.6
89992.9
83293.7
76231.4
69866.6
63108.3
57119.3
50695.9
45115
39056.8
33940.6
28283.2
23672.1
18523.8
14544.7
9827.96
6461.17
2845.32
670516
663685
661035
653952
650593
643243
639306
631719
627273
619466
614557
606543
601208
593003
587277
578896
572810
564266
557848
549154
542430
533600
526593
517640
510375
501310
493808
484644
476928
467677
459766
450440
442356
432968
424730
415293
406921
397449
388966
379476
370905
361415
352771
343268
334530
325020
316247
306789
298019
288630
279889
270589
261900
252703
244086
235006
226482
217533
209121
200317
192037
183393
175267
166796
158845
150564
142810
134735
127203
119350
112065
104453
97443.3
90090.7
83385.3
76316.3
69945.4
63180.6
57185.5
50755.8
45169.1
39104.8
33982.9
28319.6
23703.1
18549.4
14565.2
9843.17
6471.78
2851.84
670415
663463
660782
653685
650316
642944
638992
631385
626927
619104
614185
606159
600817
592603
586872
578485
572395
563848
557427
548732
542007
533177
526171
517219
509955
500893
493394
484234
476521
467274
459368
450047
441967
432585
424352
414921
406555
397089
388612
379129
370564
361081
352444
342948
334216
324714
315948
306497
297734
288352
279619
270326
261644
252454
243845
234773
226255
217314
208909
200113
191840
183204
175084
166621
158677
150404
142657
134589
127064
119218
111940
104335
97331.9
89986.5
83287.7
76225.6
69861.3
63103.3
57114.6
50691.5
45111
39053.1
33937.3
28280.2
23669.6
18521.6
14542.9
9826.49
6460.21
2844.58
670515
663684
661036
653956
650599
643251
639315
631728
627283
619475
614567
606553
601219
593014
587289
578907
572821
564277
557859
549166
542441
533611
526605
517651
510386
501321
493819
484655
476939
467687
459777
450451
442366
432978
424740
415303
406931
397459
388976
379485
370914
361424
352780
343277
334538
325028
316256
306797
298027
288638
279897
270596
261907
252710
244093
235013
226488
217540
209127
200323
192043
183399
175272
166802
158850
150570
142815
134740
127208
119355
112069
104458
97447.2
90094.5
83388.9
76319.7
69948.6
63183.7
57188.4
50758.5
45171.5
39107
33985
28321.5
23704.8
18550.8
14566.4
9844.16
6472.53
2852.31
670446
663474
660792
653692
650321
642947
638996
631389
626931
619108
614189
606163
600821
592607
586876
578489
572399
563852
557431
548737
542011
533182
526175
517224
509960
500898
493399
484239
476525
467279
459372
450052
441972
432590
424357
414926
406560
397094
388617
379133
370569
361086
352449
342952
334221
324718
315953
306502
297739
288357
279623
270330
261649
252459
243849
234777
226260
217319
208913
200117
191844
183208
175088
166625
158681
150408
142660
134592
127067
119222
111943
104339
97335.1
89989.5
83290.6
76228.4
69864
63105.8
57117
50693.8
45113.1
39055.1
33939.1
28281.8
23671
18522.9
14544
9827.37
6460.84
2845
670570
663657
661011
653931
650574
643227
639292
631707
627263
619457
614549
606535
601202
592997
587273
578892
572807
564263
557845
549153
542428
533599
526593
517639
510375
501310
493809
484645
476929
467678
459767
450441
442357
432969
424731
415294
406923
397451
388968
379478
370908
361417
352774
343270
334532
325023
316250
306792
298022
288633
279893
270592
261903
252706
244089
235010
226485
217537
209124
200321
192041
183397
175271
166800
158849
150568
142814
134739
127207
119354
112069
104457
97447.2
90094.6
83389.1
76320
69949
63184.1
57188.9
50759
45172.1
39107.6
33985.6
28322.1
23705.4
18551.3
14566.9
9844.61
6472.72
2852.46
670440
663376
660695
653583
650210
642835
638885
631277
626819
618995
614076
606050
600708
592494
586763
578376
572286
563739
557319
548624
541899
533070
526065
517113
509850
500789
493291
484131
476419
467173
459268
449948
441869
432488
424257
414827
406462
396998
388522
379040
370477
360995
352360
342865
334135
324634
315870
306421
297659
288279
279547
270256
261576
252388
243780
234710
226194
217255
208851
200057
191786
183151
175034
166573
158630
150359
142613
134547
127024
119181
111904
104301
97299.8
89956.2
83259.2
76199
69836.5
63080.3
57093.5
50672.2
45093.5
39037.4
33923.3
28267.9
23659
18512.7
14535.6
9820.79
6455.73
2841.68
670406
663739
661076
654111
650771
643461
639562
631980
627575
619755
614881
606847
601542
593313
587611
579205
573137
564569
558164
549448
542733
533883
526883
517912
510651
501570
494072
484893
477179
467915
460007
450670
442587
433189
424952
415506
407136
397656
389174
379677
371107
361611
352968
343459
334721
325206
316434
306971
298201
288807
280066
270762
262073
252872
244255
235172
226647
217695
209282
200475
192195
183548
175421
166947
158995
150711
142956
134877
127344
119487
112201
104585
97572.6
90214.7
83506.5
76431.4
70056.8
63285
57285.2
50847.5
45255.4
39182.1
34055
28381.6
23760.7
18595.5
14608.1
9871.95
6497.05
2861.56
670328
663719
661058
654095
650757
643447
639547
631966
627560
619741
614868
606834
601529
593301
587599
579194
573125
564558
558153
549438
542723
533874
526874
517903
510642
501562
494064
484886
477172
467908
460000
450663
442581
433183
424947
415501
407131
397651
389170
379672
371103
361607
352964
343455
334718
325203
316431
306968
298198
288804
280064
270759
262071
252870
244253
235170
226645
217693
209281
200474
192194
183546
175420
166946
158994
150710
142955
134876
127344
119487
112200
104584
97571.9
90214
83505.9
76430.8
70056.2
63284.4
57284.7
50847
45254.9
39181.7
34054.6
28381.2
23760.4
18595.2
14607.9
9871.71
6496.82
2861.34
670359
663731
661069
654107
650770
643460
639560
631978
627572
619753
614880
606845
601540
593312
587609
579204
573135
564568
558163
549448
542732
533882
526882
517911
510650
501569
494071
484893
477179
467915
460006
450669
442587
433189
424952
415506
407136
397656
389174
379677
371107
361611
352968
343459
334721
325206
316434
306971
298201
288807
280067
270762
262073
252872
244255
235172
226647
217695
209283
200476
192196
183548
175421
166948
158995
150711
142957
134878
127345
119488
112201
104585
97573.1
90215.2
83507
76431.9
70057.3
63285.4
57285.6
50848
45255.8
39182.5
34055.4
28381.9
23761
18595.8
14608.4
9872.19
6497.28
2861.54
670307
663698
661037
654079
650743
643434
639534
631952
627546
619727
614854
606820
601516
593288
587585
579181
573112
564545
558140
549426
542710
533861
526861
517890
510630
501550
494052
484874
477160
467897
459989
450652
442570
433172
424936
415490
407121
397641
389159
379662
371093
361597
352955
343446
334708
325194
316422
306959
298189
288796
280056
270751
262063
252862
244246
235162
226638
217686
209274
200468
192187
183540
175413
166940
158988
150705
142950
134871
127339
119482
112196
104580
97567.9
90210.2
83502.3
76427.4
70053.1
63281.4
57281.9
50844.5
45252.6
39179.6
34052.7
28379.6
23758.9
18594
14606.9
9870.91
6496.24
2860.86
670358
663726
661065
654106
650772
643463
639563
631980
627574
619755
614882
606848
601543
593314
587612
579206
573138
564570
558165
549450
542734
533884
526884
517913
510652
501571
494073
484894
477180
467917
460008
450671
442588
433190
424953
415507
407137
397657
389175
379678
371108
361612
352969
343460
334722
325207
316435
306972
298202
288808
280067
270763
262074
252873
244256
235173
226648
217696
209283
200477
192196
183549
175422
166948
158996
150712
142957
134878
127345
119488
112202
104585
97573.5
90215.5
83507.4
76432.3
70057.6
63285.8
57286
50848.3
45256.1
39182.8
34055.7
28382.2
23761.3
18596
14608.6
9872.37
6497.43
2861.58
670307
663696
661035
654078
650743
643435
639535
631952
627546
619727
614855
606821
601516
593288
587586
579181
573113
564546
558141
549426
542711
533862
526862
517891
510631
501550
494053
484875
477161
467898
459989
450653
442570
433173
424936
415491
407121
397642
389160
379663
371094
361598
352955
343447
334709
325194
316422
306960
298190
288797
280056
270752
262063
252863
244246
235163
226639
217687
209275
200468
192188
183541
175414
166941
158989
150705
142951
134872
127339
119483
112196
104580
97568.3
90210.6
83502.7
76427.8
70053.4
63281.8
57282.3
50844.8
45252.9
39179.9
34053
28379.8
23759.2
18594.2
14607.1
9871.1
6496.41
2860.94
670359
663726
661064
654103
650766
643457
639557
631975
627569
619750
614877
606843
601538
593309
587607
579202
573133
564566
558161
549446
542730
533881
526881
517909
510649
501568
494070
484891
477177
467914
460005
450668
442585
433187
424951
415505
407135
397655
389173
379676
371106
361610
352967
343458
334720
325205
316433
306970
298200
288807
280066
270761
262073
252871
244255
235172
226647
217695
209282
200476
192195
183548
175421
166948
158995
150711
142957
134878
127345
119488
112201
104585
97573.3
90215.3
83507.2
76432.1
70057.5
63285.6
57285.9
50848.2
45256.1
39182.7
34055.7
28382.2
23761.3
18596.1
14608.7
9872.43
6497.51
2861.62
670324
663706
661043
654082
650745
643435
639536
631954
627549
619729
614857
606823
601518
593290
587588
579183
573115
564548
558143
549428
542713
533864
526864
517893
510633
501552
494054
484876
477163
467900
459991
450655
442572
433175
424938
415493
407123
397643
389162
379665
371096
361599
352957
343448
334711
325196
316424
306961
298192
288798
280058
270754
262065
252864
244248
235165
226640
217688
209276
200470
192189
183542
175416
166942
158990
150707
142952
134873
127341
119484
112198
104581
97569.7
90211.9
83504
76429
70054.6
63283
57283.4
50845.9
45253.9
39180.8
34053.9
28380.6
23759.9
18594.9
14607.7
9871.59
6496.82
2861.22
670397
663715
661050
654087
650749
643439
639540
631959
627554
619734
614861
606827
601522
593294
587592
579187
573119
564552
558147
549432
542716
533867
526867
517896
510636
501555
494057
484879
477165
467902
459994
450657
442574
433177
424940
415494
407124
397645
389163
379666
371097
361600
352958
343449
334712
325197
316425
306962
298192
288799
280058
270754
262065
252864
244248
235165
226640
217688
209276
200469
192189
183542
175415
166942
158990
150706
142952
134873
127340
119484
112197
104581
97569.4
90211.7
83503.8
76428.9
70054.5
63282.8
57283.3
50845.8
45253.9
39180.8
34053.9
28380.7
23760
18595
14607.8
9871.81
6497.07
2861.4
670448
663402
660728
653620
650248
642874
638925
631318
626861
619037
614119
606092
600750
592536
586805
578418
572328
563781
557360
548665
541940
533110
526104
517152
509889
500827
493328
484168
476455
467209
459303
449983
441903
432522
424289
414859
406494
397029
388553
379070
370507
361024
352388
342893
334162
324661
315896
306446
297684
288304
279571
270279
261599
252410
243802
234731
226215
217275
208871
200076
191804
183169
175051
166590
158646
150374
142629
134562
127038
119194
111917
104314
97311.4
89967.2
83269.6
76208.9
69845.7
63088.9
57101.5
50679.6
45100.2
39043.5
33928.8
28272.8
23663.1
18516.2
14538.4
9822.95
6457.19
2842.8
670578
663666
661013
653926
650565
643214
639277
631690
627244
619437
614527
606513
601179
592974
587249
578868
572782
564238
557820
549127
542403
533574
526567
517614
510350
501285
493784
484621
476905
467654
459744
450418
442334
432947
424709
415273
406902
397430
388948
379457
370887
361397
352754
343251
334513
325004
316232
306774
298004
288616
279876
270575
261887
252690
244074
234994
226470
217522
209110
200307
192027
183384
175257
166788
158836
150556
142803
134728
127196
119344
112059
104448
97437.8
90085.6
83380.4
76311.8
69941.2
63176.7
57181.9
50752.5
45166
39102
33980.4
28317.4
23701.2
18547.7
14563.8
9842.04
6470.69
2851.2
670445
663483
660804
653704
650333
642960
639009
631403
626945
619122
614203
606178
600835
592622
586891
578504
572414
563866
557446
548751
542025
533196
526189
517237
509974
500911
493412
484252
476538
467291
459385
450064
441984
432601
424368
414937
406571
397105
388628
379144
370579
361096
352458
342962
334230
324728
315962
306511
297747
288365
279632
270338
261656
252466
243857
234784
226267
217325
208920
200124
191850
183214
175094
166631
158686
150413
142665
134597
127072
119226
111947
104342
97338.6
89992.9
83293.7
76231.4
69866.7
63108.3
57119.3
50695.9
45115
39056.8
33940.6
28283.2
23672.1
18523.8
14544.7
9827.96
6461.17
2845.32
670516
663685
661035
653952
650593
643243
639307
631719
627273
619466
614557
606543
601208
593003
587278
578896
572810
564266
557848
549154
542430
533600
526594
517640
510375
501310
493809
484644
476928
467677
459766
450440
442356
432968
424730
415293
406922
397449
388966
379476
370906
361415
352771
343268
334530
325020
316247
306789
298019
288630
279889
270589
261900
252703
244086
235006
226482
217533
209121
200317
192037
183393
175267
166796
158845
150564
142810
134735
127203
119350
112065
104453
97443.3
90090.7
83385.3
76316.3
69945.4
63180.6
57185.5
50755.8
45169.1
39104.8
33982.9
28319.6
23703.1
18549.4
14565.2
9843.18
6471.78
2851.84
670415
663463
660782
653685
650317
642944
638993
631385
626927
619104
614185
606159
600817
592603
586872
578485
572395
563848
557427
548732
542007
533177
526171
517219
509956
500894
493394
484234
476521
467274
459368
450047
441967
432585
424352
414921
406555
397090
388612
379129
370564
361081
352444
342948
334216
324714
315948
306497
297734
288352
279619
270326
261644
252454
243845
234773
226255
217314
208909
200113
191840
183204
175084
166621
158677
150404
142657
134589
127064
119218
111940
104335
97331.9
89986.5
83287.7
76225.6
69861.3
63103.3
57114.6
50691.5
45111
39053.1
33937.3
28280.2
23669.6
18521.6
14542.9
9826.49
6460.21
2844.58
670515
663684
661036
653956
650599
643251
639315
631728
627283
619476
614567
606553
601219
593014
587289
578907
572822
564277
557859
549166
542441
533611
526605
517651
510386
501321
493819
484655
476939
467687
459777
450451
442366
432978
424740
415303
406931
397459
388976
379485
370915
361424
352780
343277
334538
325028
316256
306797
298027
288638
279897
270596
261907
252710
244093
235013
226488
217540
209127
200324
192043
183399
175272
166802
158850
150570
142815
134740
127208
119355
112069
104458
97447.3
90094.6
83388.9
76319.7
69948.6
63183.7
57188.4
50758.5
45171.5
39107
33985
28321.5
23704.8
18550.8
14566.4
9844.16
6472.53
2852.31
670446
663474
660792
653692
650321
642948
638997
631389
626931
619108
614189
606163
600821
592607
586876
578489
572399
563852
557431
548737
542011
533182
526176
517224
509960
500898
493399
484239
476526
467279
459372
450052
441972
432590
424357
414926
406560
397094
388617
379133
370569
361086
352449
342952
334221
324719
315953
306502
297739
288357
279624
270330
261649
252459
243849
234777
226260
217319
208913
200117
191844
183208
175088
166625
158681
150408
142660
134592
127067
119222
111943
104339
97335.1
89989.5
83290.6
76228.4
69864
63105.8
57117
50693.8
45113.1
39055.1
33939.1
28281.8
23671
18522.9
14544
9827.37
6460.84
2845
670570
663657
661011
653931
650575
643227
639292
631707
627263
619457
614549
606535
601202
592997
587273
578892
572807
564263
557846
549153
542428
533599
526593
517640
510375
501310
493809
484645
476929
467678
459767
450442
442357
432969
424732
415294
406923
397451
388968
379478
370908
361417
352774
343270
334532
325023
316250
306792
298022
288633
279893
270592
261903
252706
244089
235010
226485
217537
209124
200321
192041
183397
175271
166801
158849
150568
142814
134739
127207
119354
112069
104457
97447.2
90094.6
83389.1
76320
69949
63184.1
57188.9
50759
45172.1
39107.6
33985.6
28322.1
23705.4
18551.3
14566.9
9844.61
6472.72
2852.46
670440
663376
660695
653583
650210
642835
638885
631277
626819
618995
614076
606050
600708
592494
586763
578376
572286
563739
557319
548624
541899
533070
526065
517114
509851
500789
493291
484131
476419
467174
459268
449948
441870
432488
424257
414827
406462
396998
388522
379040
370477
360995
352360
342865
334135
324634
315870
306421
297659
288279
279547
270256
261576
252388
243780
234710
226194
217255
208851
200057
191786
183151
175034
166573