/*--------------------------------*- C++ -*----------------------------------*\
  =========                 |
  \\      /  F ield         | OpenFOAM: The Open Source CFD Toolbox
   \\    /   O peration     | Website:  https://openfoam.org
    \\  /    A nd           | Version:  7
     \\/     M anipulation  |
\*---------------------------------------------------------------------------*/
FoamFile
{
    version     2.0;
    format      ascii;
    class       volScalarField;
    location    "3.55";
    object      alphat;
}
// * * * * * * * * * * * * * * * * * * * * * * * * * * * * * * * * * * * * * //

dimensions      [1 -1 -1 0 0 0 0];

internalField   nonuniform List<scalar> 
3000
(
0.0679351
0.0682482
0.0682614
0.0682636
0.0682576
0.0682543
0.0682528
0.0682484
0.0682534
0.068303
0.0356377
0.0345993
0.0345001
0.0345162
0.0344998
0.0345012
0.0345044
0.0345012
0.0345103
0.0345881
0.0265266
0.0260208
0.0258759
0.0259089
0.0258834
0.0258918
0.0258911
0.0258899
0.0258893
0.0259659
0.0252295
0.024969
0.0248476
0.0248958
0.0248696
0.0248817
0.0248798
0.0248791
0.0248812
0.0249342
0.0248665
0.0247395
0.0246653
0.0247223
0.0246961
0.0247106
0.0247083
0.0247082
0.0247092
0.0247576
0.0249129
0.0247933
0.0247057
0.0247676
0.0247426
0.024758
0.0247559
0.024756
0.0247573
0.024802
0.0249129
0.0247933
0.0247057
0.0247676
0.0247426
0.024758
0.0247559
0.024756
0.0247575
0.0248014
0.0248665
0.0247395
0.0246653
0.0247223
0.0246961
0.0247105
0.0247083
0.024708
0.0247096
0.024756
0.0252295
0.024969
0.0248476
0.0248958
0.0248696
0.0248817
0.0248798
0.0248789
0.0248818
0.0249318
0.0265266
0.0260208
0.0258759
0.0259089
0.0258834
0.0258918
0.0258912
0.0258896
0.0258899
0.0259633
0.0356377
0.0345993
0.0345001
0.0345162
0.0344998
0.0345012
0.0345044
0.0345011
0.0345107
0.0345857
0.0679351
0.0682482
0.0682614
0.0682636
0.0682576
0.0682542
0.0682528
0.0682484
0.0682534
0.0683028
0.0256773
0.0260643
0.0261398
0.0261135
0.0261155
0.0261101
0.0261049
0.0260968
0.0260894
0.0261289
0.0242107
0.0249799
0.0249363
0.0249567
0.0249506
0.0249533
0.0249584
0.0249564
0.0249715
0.0250047
0.023116
0.0241328
0.0241212
0.0241742
0.0241709
0.0241773
0.0241879
0.0241896
0.0242096
0.0242636
0.023332
0.0243199
0.0242927
0.0243363
0.0243397
0.0243471
0.0243567
0.0243571
0.0243747
0.0244137
0.0230944
0.0241087
0.0241299
0.0241935
0.0241999
0.0242072
0.0242165
0.0242175
0.0242296
0.0242716
0.0232032
0.0242025
0.0242131
0.0242634
0.0242678
0.0242758
0.0242847
0.0242843
0.0242953
0.0243335
0.0232032
0.0242025
0.0242131
0.0242634
0.0242678
0.0242757
0.0242848
0.0242842
0.0242952
0.0243333
0.0230944
0.0241087
0.0241299
0.0241934
0.0241999
0.0242071
0.0242166
0.0242174
0.0242296
0.0242707
0.023332
0.0243199
0.0242927
0.0243363
0.0243398
0.0243469
0.0243569
0.0243568
0.0243746
0.0244127
0.0231161
0.0241328
0.0241212
0.0241742
0.0241709
0.0241772
0.0241881
0.0241893
0.0242101
0.0242617
0.0242108
0.0249799
0.0249363
0.0249567
0.0249507
0.0249531
0.0249586
0.0249561
0.0249719
0.0250029
0.0256773
0.0260643
0.0261398
0.0261135
0.0261155
0.02611
0.026105
0.0260966
0.02609
0.0261269
0.0084574
0.00888023
0.00892099
0.00888148
0.00888646
0.00888333
0.00888149
0.00888157
0.00888213
0.0089365
0.00834243
0.00921451
0.00922972
0.00923484
0.00922999
0.00922898
0.00923043
0.00923239
0.00924503
0.00929431
0.00783977
0.00875088
0.00880764
0.00883577
0.0088372
0.0088411
0.00884532
0.00884774
0.0088523
0.00890546
0.00792366
0.00896607
0.00897731
0.00900252
0.0090062
0.00900736
0.00901267
0.00901888
0.00904233
0.00909186
0.00775951
0.00874862
0.0087504
0.00877191
0.00877822
0.00878271
0.00878699
0.00878983
0.00880002
0.00884679
0.00778127
0.00883965
0.00884262
0.00885881
0.00886036
0.00885914
0.00886374
0.00886964
0.00889347
0.008941
0.00778127
0.00883964
0.00884262
0.0088588
0.00886039
0.0088591
0.0088638
0.00886957
0.00889363
0.008941
0.00775951
0.00874861
0.00875042
0.00877189
0.00877825
0.0087826
0.00878715
0.00878956
0.00880043
0.00884562
0.00792366
0.00896607
0.00897733
0.0090025
0.00900626
0.00900723
0.00901284
0.00901847
0.00904273
0.00909058
0.00783977
0.00875087
0.00880765
0.00883574
0.00883727
0.00884096
0.00884555
0.00884732
0.00885326
0.00890346
0.00834243
0.00921451
0.00922973
0.00923482
0.00923004
0.00922889
0.0092306
0.00923206
0.00924584
0.00929211
0.0084574
0.00888023
0.008921
0.00888146
0.00888649
0.00888329
0.00888161
0.00888148
0.00888295
0.00893489
0.0256773
0.0260643
0.0261398
0.0261135
0.0261155
0.0261101
0.0261049
0.0260968
0.0260894
0.0261289
0.0242107
0.0249799
0.0249363
0.0249567
0.0249506
0.0249533
0.0249584
0.0249564
0.0249715
0.0250047
0.023116
0.0241328
0.0241212
0.0241742
0.0241709
0.0241773
0.0241879
0.0241896
0.0242096
0.0242636
0.023332
0.0243199
0.0242927
0.0243363
0.0243397
0.0243471
0.0243567
0.0243571
0.0243747
0.0244137
0.0230944
0.0241087
0.0241299
0.0241935
0.0241999
0.0242072
0.0242165
0.0242175
0.0242296
0.0242716
0.0232032
0.0242025
0.0242131
0.0242634
0.0242678
0.0242758
0.0242847
0.0242843
0.0242953
0.0243335
0.0232032
0.0242025
0.0242131
0.0242634
0.0242678
0.0242757
0.0242848
0.0242842
0.0242952
0.0243333
0.0230944
0.0241087
0.0241299
0.0241934
0.0241999
0.0242071
0.0242166
0.0242174
0.0242296
0.0242707
0.023332
0.0243199
0.0242927
0.0243363
0.0243398
0.0243469
0.0243569
0.0243568
0.0243746
0.0244127
0.0231161
0.0241328
0.0241212
0.0241742
0.0241709
0.0241772
0.0241881
0.0241893
0.0242101
0.0242617
0.0242108
0.0249799
0.0249363
0.0249567
0.0249507
0.0249531
0.0249586
0.0249561
0.0249719
0.0250029
0.0256773
0.0260643
0.0261398
0.0261135
0.0261155
0.02611
0.026105
0.0260966
0.02609
0.0261269
0.0679351
0.0682482
0.0682614
0.0682636
0.0682576
0.0682543
0.0682528
0.0682484
0.0682534
0.068303
0.0356377
0.0345993
0.0345001
0.0345162
0.0344998
0.0345012
0.0345044
0.0345012
0.0345103
0.0345881
0.0265266
0.0260208
0.0258759
0.0259089
0.0258834
0.0258918
0.0258911
0.0258899
0.0258893
0.0259659
0.0252295
0.024969
0.0248476
0.0248958
0.0248696
0.0248817
0.0248798
0.0248791
0.0248812
0.0249342
0.0248665
0.0247395
0.0246653
0.0247223
0.0246961
0.0247106
0.0247083
0.0247082
0.0247092
0.0247576
0.0249129
0.0247933
0.0247057
0.0247676
0.0247426
0.024758
0.0247559
0.024756
0.0247573
0.024802
0.0249129
0.0247933
0.0247057
0.0247676
0.0247426
0.024758
0.0247559
0.024756
0.0247575
0.0248014
0.0248665
0.0247395
0.0246653
0.0247223
0.0246961
0.0247105
0.0247083
0.024708
0.0247096
0.024756
0.0252295
0.024969
0.0248476
0.0248958
0.0248696
0.0248817
0.0248798
0.0248789
0.0248818
0.0249318
0.0265266
0.0260208
0.0258759
0.0259089
0.0258834
0.0258918
0.0258912
0.0258896
0.0258899
0.0259633
0.0356377
0.0345993
0.0345001
0.0345162
0.0344998
0.0345012
0.0345044
0.0345011
0.0345107
0.0345857
0.0679351
0.0682482
0.0682614
0.0682636
0.0682576
0.0682542
0.0682528
0.0682484
0.0682534
0.0683028
0.191724
0.191638
0.19153
0.191392
0.191273
0.191144
0.19102
0.190893
0.190767
0.19064
0.190514
0.190387
0.19026
0.190133
0.190006
0.189878
0.189751
0.189623
0.189495
0.189367
0.189238
0.18911
0.18898
0.188851
0.188721
0.188593
0.188465
0.188337
0.188207
0.188075
0.187941
0.187804
0.187667
0.187531
0.187397
0.187265
0.187137
0.187012
0.186888
0.186759
0.12832
0.128546
0.128466
0.128389
0.128303
0.128221
0.128137
0.128054
0.12797
0.127886
0.127802
0.127718
0.127634
0.12755
0.127465
0.127381
0.127296
0.127211
0.127126
0.127041
0.126956
0.126871
0.126785
0.126699
0.126613
0.126527
0.126442
0.126357
0.126272
0.126185
0.126097
0.126007
0.125916
0.125825
0.125734
0.125646
0.125559
0.125475
0.125386
0.125294
0.101356
0.10192
0.101836
0.101794
0.101717
0.101661
0.101592
0.10153
0.101464
0.101399
0.101334
0.101269
0.101204
0.101139
0.101073
0.101008
0.100942
0.100877
0.100811
0.100745
0.100679
0.100613
0.100547
0.10048
0.100413
0.100347
0.100281
0.100216
0.10015
0.100083
0.100016
0.0999464
0.0998759
0.0998052
0.0997344
0.0996652
0.0995964
0.0995303
0.0994597
0.0993792
0.0931198
0.0939425
0.0938468
0.0938252
0.0937468
0.0937016
0.0936369
0.0935829
0.0935229
0.093466
0.0934073
0.0933494
0.0932909
0.0932325
0.093174
0.0931155
0.0930567
0.0929978
0.0929389
0.09288
0.0928211
0.092762
0.0927026
0.0926428
0.0925829
0.0925232
0.092464
0.0924053
0.0923464
0.092287
0.0922263
0.0921646
0.0921015
0.0920384
0.0919748
0.0919129
0.0918506
0.0917912
0.0917264
0.0916493
0.0906351
0.0916062
0.0914998
0.0914889
0.091407
0.0913668
0.0913025
0.0912514
0.091193
0.0911384
0.0910816
0.0910259
0.0909694
0.0909131
0.0908567
0.0908002
0.0907435
0.0906867
0.0906299
0.090573
0.0905162
0.0904592
0.0904019
0.0903442
0.0902865
0.0902289
0.0901718
0.0901151
0.0900582
0.0900009
0.0899423
0.0898827
0.0898218
0.089761
0.0896996
0.08964
0.0895798
0.0895225
0.0894604
0.0893821
0.0902106
0.0912529
0.0911388
0.0911316
0.0910476
0.0910091
0.0909446
0.0908944
0.0908363
0.0907823
0.0907259
0.0906707
0.0906147
0.090559
0.090503
0.090447
0.0903908
0.0903345
0.0902782
0.0902218
0.0901655
0.090109
0.0900522
0.089995
0.0899378
0.0898807
0.0898241
0.0897679
0.0897115
0.0896546
0.0895964
0.0895374
0.0894769
0.0894167
0.0893557
0.0892968
0.089237
0.0891811
0.0891207
0.089042
0.0902107
0.091254
0.0911396
0.0911325
0.0910485
0.09101
0.0909455
0.0908953
0.0908372
0.0907832
0.0907268
0.0906716
0.0906156
0.0905599
0.0905039
0.0904479
0.0903918
0.0903355
0.0902791
0.0902228
0.0901664
0.0901099
0.0900531
0.089996
0.0899387
0.0898817
0.089825
0.0897688
0.0897124
0.0896556
0.0895974
0.0895384
0.0894779
0.0894176
0.0893567
0.0892977
0.089238
0.0891821
0.0891217
0.089043
0.0906345
0.0916076
0.0915009
0.0914901
0.091408
0.0913679
0.0913036
0.0912525
0.0911941
0.0911395
0.0910827
0.091027
0.0909705
0.0909143
0.0908578
0.0908014
0.0907447
0.0906879
0.090631
0.0905742
0.0905174
0.0904604
0.0904031
0.0903454
0.0902877
0.0902301
0.090173
0.0901163
0.0900595
0.0900021
0.0899435
0.089884
0.089823
0.0897623
0.0897008
0.0896413
0.0895811
0.0895238
0.0894618
0.0893834
0.0931157
0.0939413
0.0938452
0.0938237
0.0937451
0.0937
0.0936353
0.0935813
0.0935214
0.0934645
0.0934058
0.0933479
0.0932894
0.0932311
0.0931726
0.0931141
0.0930554
0.0929965
0.0929376
0.0928787
0.0928198
0.0927608
0.0927014
0.0926416
0.0925817
0.0925221
0.0924629
0.0924042
0.0923453
0.0922859
0.0922253
0.0921636
0.0921005
0.0920375
0.0919739
0.091912
0.0918497
0.0917904
0.0917256
0.0916483
0.101347
0.101915
0.10183
0.101789
0.101712
0.101655
0.101586
0.101524
0.101458
0.101394
0.101329
0.101264
0.101199
0.101134
0.101068
0.101003
0.100937
0.100872
0.100806
0.10074
0.100675
0.100609
0.100542
0.100476
0.100409
0.100342
0.100276
0.100211
0.100145
0.100079
0.100011
0.0999421
0.0998716
0.0998009
0.0997302
0.099661
0.0995923
0.0995262
0.0994555
0.099375
0.128327
0.128559
0.128481
0.128403
0.128317
0.128236
0.128151
0.128068
0.127984
0.127901
0.127817
0.127733
0.127648
0.127564
0.12748
0.127395
0.12731
0.127226
0.127141
0.127056
0.126971
0.126885
0.1268
0.126713
0.126627
0.126542
0.126457
0.126372
0.126287
0.1262
0.126112
0.126022
0.125931
0.12584
0.125749
0.125661
0.125574
0.125489
0.125401
0.125309
0.191799
0.191723
0.191617
0.19148
0.19136
0.191231
0.191107
0.19098
0.190854
0.190727
0.190601
0.190474
0.190347
0.190219
0.190092
0.189964
0.189836
0.189708
0.18958
0.189452
0.189324
0.189195
0.189065
0.188936
0.188807
0.188678
0.18855
0.188422
0.188292
0.18816
0.188025
0.187889
0.187752
0.187615
0.187481
0.187349
0.187221
0.187096
0.186972
0.186843
0.0861885
0.0862542
0.0861878
0.08613
0.0860724
0.0860155
0.0859591
0.0859024
0.0858459
0.0857892
0.0857324
0.0856756
0.0856187
0.0855617
0.0855046
0.0854474
0.0853901
0.0853327
0.0852753
0.0852179
0.0851605
0.0851028
0.0850448
0.0849866
0.0849284
0.0848707
0.0848133
0.084756
0.0846983
0.0846396
0.0845796
0.0845187
0.0844569
0.0843954
0.0843343
0.0842749
0.0842166
0.0841608
0.0841076
0.0840533
0.0915232
0.0917874
0.0917483
0.0916935
0.0916371
0.0915797
0.0915224
0.0914647
0.0914071
0.0913492
0.0912914
0.0912334
0.0911753
0.0911171
0.0910589
0.0910005
0.090942
0.0908834
0.0908247
0.090766
0.0907074
0.0906486
0.0905894
0.0905299
0.0904702
0.0904108
0.0903519
0.0902933
0.0902348
0.0901757
0.0901155
0.0900542
0.0899918
0.089929
0.089866
0.0898042
0.0897427
0.0896836
0.0896208
0.089565
0.0883234
0.0887958
0.0887715
0.0887178
0.0886648
0.0886086
0.0885535
0.0884973
0.0884415
0.0883854
0.0883293
0.088273
0.0882167
0.0881603
0.0881038
0.0880472
0.0879905
0.0879336
0.0878767
0.0878198
0.087763
0.087706
0.0876487
0.087591
0.087533
0.0874753
0.0874181
0.0873615
0.0873049
0.0872479
0.0871898
0.0871306
0.08707
0.087009
0.0869476
0.0868873
0.0868272
0.0867695
0.0867087
0.0866432
0.0879406
0.0885482
0.0885324
0.0884779
0.0884278
0.0883723
0.088319
0.0882641
0.0882098
0.088155
0.0881004
0.0880455
0.0879905
0.0879355
0.0878804
0.0878252
0.0877699
0.0877144
0.0876588
0.0876032
0.0875478
0.0874922
0.0874363
0.08738
0.0873233
0.0872669
0.0872108
0.0871554
0.0871002
0.0870447
0.0869884
0.086931
0.0868723
0.086813
0.0867532
0.0866941
0.0866349
0.0865776
0.0865161
0.0864491
0.0869942
0.0877126
0.0877001
0.0876439
0.0875952
0.0875394
0.087487
0.0874323
0.0873787
0.0873244
0.0872704
0.087216
0.0871617
0.0871072
0.0870527
0.0869981
0.0869433
0.0868884
0.0868334
0.0867784
0.0867235
0.0866685
0.0866132
0.0865575
0.0865015
0.0864456
0.0863901
0.0863352
0.0862806
0.0862257
0.0861701
0.0861134
0.0860554
0.0859968
0.0859377
0.0858791
0.0858206
0.0857638
0.0857037
0.085634
0.0870352
0.0877998
0.087789
0.087732
0.0876839
0.0876281
0.0875758
0.0875213
0.0874678
0.0874135
0.0873596
0.0873053
0.087251
0.0871966
0.0871421
0.0870876
0.0870329
0.086978
0.0869231
0.0868682
0.0868133
0.0867584
0.0867032
0.0866475
0.0865916
0.0865357
0.0864802
0.0864253
0.0863707
0.086316
0.0862604
0.0862038
0.086146
0.0860876
0.0860285
0.08597
0.0859115
0.0858547
0.0857946
0.0857243
0.0870347
0.0878002
0.0877893
0.0877323
0.0876841
0.0876284
0.0875761
0.0875216
0.0874681
0.0874139
0.0873599
0.0873056
0.0872513
0.0871969
0.0871424
0.0870879
0.0870332
0.0869784
0.0869234
0.0868685
0.0868137
0.0867587
0.0867035
0.0866479
0.0865919
0.086536
0.0864806
0.0864257
0.0863711
0.0863164
0.0862608
0.0862042
0.0861464
0.086088
0.0860289
0.0859704
0.0859119
0.0858551
0.085795
0.0857248
0.0869945
0.0877154
0.0877028
0.0876466
0.0875979
0.0875421
0.0874896
0.087435
0.0873814
0.0873272
0.0872731
0.0872188
0.0871644
0.0871099
0.0870554
0.0870008
0.0869461
0.0868911
0.0868361
0.0867812
0.0867263
0.0866713
0.086616
0.0865603
0.0865043
0.0864484
0.0863929
0.086338
0.0862833
0.0862285
0.0861729
0.0861162
0.0860582
0.0859997
0.0859405
0.085882
0.0858234
0.0857666
0.0857066
0.0856369
0.0879398
0.0885511
0.088535
0.0884806
0.0884305
0.0883751
0.0883218
0.0882668
0.0882126
0.0881578
0.0881031
0.0880483
0.0879933
0.0879383
0.0878832
0.0878281
0.0877727
0.0877172
0.0876617
0.0876061
0.0875506
0.0874951
0.0874392
0.0873829
0.0873263
0.0872698
0.0872138
0.0871583
0.0871031
0.0870477
0.0869914
0.086934
0.0868753
0.0868161
0.0867562
0.0866971
0.0866379
0.0865806
0.0865192
0.0864523
0.0883272
0.0888052
0.0887809
0.0887273
0.0886743
0.0886182
0.088563
0.0885069
0.0884511
0.0883949
0.0883388
0.0882826
0.0882262
0.0881698
0.0881134
0.0880568
0.0880001
0.0879432
0.0878863
0.0878294
0.0877726
0.0877156
0.0876583
0.0876006
0.0875426
0.0874849
0.0874277
0.0873711
0.0873145
0.0872576
0.0871995
0.0871402
0.0870796
0.0870186
0.0869572
0.0868969
0.0868368
0.086779
0.0867183
0.0866529
0.0915401
0.0918107
0.0917718
0.0917172
0.0916607
0.0916033
0.091546
0.0914883
0.0914306
0.0913728
0.0913149
0.0912569
0.0911988
0.0911406
0.0910823
0.091024
0.0909655
0.0909068
0.0908481
0.0907894
0.0907307
0.0906719
0.0906127
0.0905532
0.0904935
0.0904341
0.0903751
0.0903166
0.090258
0.0901989
0.0901387
0.0900774
0.0900149
0.0899521
0.0898891
0.0898273
0.0897657
0.0897066
0.0896439
0.0895881
0.0862404
0.0863141
0.0862485
0.0861908
0.0861332
0.0860762
0.0860197
0.0859629
0.0859063
0.0858495
0.0857927
0.0857358
0.0856788
0.0856217
0.0855646
0.0855073
0.0854499
0.0853924
0.0853349
0.0852775
0.0852199
0.0851621
0.085104
0.0850458
0.0849876
0.0849297
0.0848723
0.0848149
0.0847571
0.0846983
0.0846383
0.0845772
0.0845153
0.0844537
0.0843925
0.084333
0.0842747
0.0842188
0.0841657
0.0841113
0.0402028
0.0404419
0.0403873
0.040387
0.0403508
0.0403326
0.0403037
0.0402802
0.0402537
0.0402286
0.0402027
0.0401772
0.0401513
0.0401256
0.0400998
0.040074
0.0400481
0.0400221
0.0399961
0.0399702
0.0399442
0.0399182
0.039892
0.0398656
0.0398391
0.0398128
0.0397868
0.0397612
0.0397355
0.0397095
0.0396826
0.0396552
0.0396269
0.0395986
0.03957
0.0395427
0.0395152
0.0394911
0.0394647
0.039448
0.0482802
0.0487665
0.0487309
0.0487142
0.048678
0.0486513
0.0486196
0.0485904
0.0485599
0.04853
0.0484997
0.0484695
0.0484391
0.0484088
0.0483784
0.048348
0.0483175
0.0482869
0.0482562
0.0482256
0.0481951
0.0481645
0.0481337
0.0481025
0.0480711
0.0480399
0.0480091
0.0479788
0.0479488
0.0479187
0.0478878
0.047856
0.0478231
0.0477897
0.0477558
0.0477228
0.0476897
0.0476591
0.0476269
0.0476023
0.0478786
0.048593
0.0485757
0.0485535
0.048521
0.0484925
0.0484616
0.0484318
0.0484013
0.0483711
0.0483406
0.0483102
0.0482797
0.0482492
0.0482186
0.0481881
0.0481573
0.0481265
0.0480956
0.0480648
0.0480342
0.0480035
0.0479725
0.0479411
0.0479094
0.0478779
0.0478469
0.0478166
0.0477866
0.0477565
0.0477257
0.0476939
0.0476608
0.0476271
0.0475928
0.0475591
0.0475253
0.0474936
0.0474603
0.0474268
0.0476624
0.048549
0.0485452
0.0485138
0.0484844
0.0484533
0.0484241
0.0483939
0.0483643
0.0483344
0.0483046
0.0482746
0.0482447
0.0482146
0.0481846
0.0481545
0.0481244
0.048094
0.0480636
0.0480333
0.0480032
0.047973
0.0479426
0.0479117
0.0478805
0.0478494
0.0478187
0.0477888
0.0477593
0.04773
0.0476999
0.047669
0.0476368
0.0476038
0.0475701
0.0475368
0.0475036
0.047472
0.0474408
0.0474049
0.0469983
0.0480138
0.0480179
0.0479838
0.0479564
0.0479257
0.047897
0.0478671
0.0478378
0.0478082
0.0477786
0.0477489
0.0477192
0.0476894
0.0476597
0.0476299
0.0476
0.0475699
0.0475398
0.0475097
0.0474798
0.0474499
0.0474198
0.0473892
0.0473583
0.0473274
0.047297
0.0472673
0.0472381
0.0472091
0.0471794
0.0471489
0.0471171
0.0470845
0.0470512
0.0470182
0.0469855
0.0469541
0.0469241
0.0468866
0.0469526
0.048036
0.0480451
0.048008
0.0479811
0.0479484
0.0479204
0.04789
0.0478611
0.0478314
0.047802
0.0477724
0.0477428
0.0477132
0.0476835
0.0476538
0.0476241
0.0475941
0.0475641
0.0475342
0.0475044
0.0474746
0.0474446
0.0474142
0.0473833
0.0473526
0.0473222
0.0472926
0.0472635
0.0472346
0.0472052
0.0471748
0.0471432
0.0471108
0.0470776
0.0470446
0.0470119
0.0469804
0.0469505
0.0469124
0.0469509
0.048036
0.0480451
0.048008
0.0479811
0.0479484
0.0479204
0.04789
0.0478611
0.0478314
0.047802
0.0477724
0.0477429
0.0477132
0.0476835
0.0476539
0.0476241
0.0475941
0.0475641
0.0475342
0.0475044
0.0474746
0.0474446
0.0474142
0.0473834
0.0473526
0.0473222
0.0472926
0.0472635
0.0472346
0.0472052
0.0471749
0.0471433
0.0471109
0.0470777
0.0470447
0.047012
0.0469804
0.0469506
0.0469125
0.0469946
0.0480143
0.0480187
0.0479848
0.0479573
0.0479267
0.0478979
0.047868
0.0478388
0.0478091
0.0477796
0.0477499
0.0477202
0.0476904
0.0476606
0.0476308
0.0476009
0.0475709
0.0475407
0.0475107
0.0474808
0.0474509
0.0474208
0.0473902
0.0473593
0.0473284
0.0472979
0.0472682
0.0472391
0.0472101
0.0471804
0.0471499
0.0471181
0.0470854
0.0470521
0.0470191
0.0469864
0.0469549
0.046925
0.0468875
0.0476566
0.0485506
0.0485469
0.0485156
0.0484862
0.0484551
0.0484259
0.0483957
0.0483661
0.0483362
0.0483064
0.0482765
0.0482465
0.0482165
0.0481864
0.0481564
0.0481262
0.0480959
0.0480655
0.0480352
0.048005
0.0479749
0.0479444
0.0479136
0.0478824
0.0478513
0.0478206
0.0477907
0.0477612
0.0477319
0.0477019
0.0476709
0.0476387
0.0476057
0.047572
0.0475387
0.0475055
0.0474739
0.0474427
0.0474069
0.0478776
0.048601
0.0485839
0.0485619
0.0485293
0.0485009
0.0484699
0.0484401
0.0484096
0.0483794
0.048349
0.0483186
0.048288
0.0482575
0.0482269
0.0481964
0.0481656
0.0481348
0.0481039
0.0480731
0.0480425
0.0480118
0.0479808
0.0479494
0.0479177
0.0478862
0.0478551
0.0478248
0.0477948
0.0477648
0.047734
0.0477022
0.0476691
0.0476353
0.047601
0.0475672
0.0475335
0.0475018
0.0474685
0.047435
0.048292
0.0487879
0.0487523
0.0487359
0.0486996
0.048673
0.0486412
0.048612
0.0485814
0.0485515
0.0485211
0.0484909
0.0484605
0.0484302
0.0483998
0.0483693
0.0483388
0.0483081
0.0482774
0.0482468
0.0482163
0.0481857
0.0481548
0.0481236
0.0480921
0.0480609
0.04803
0.0479998
0.0479698
0.0479396
0.0479087
0.0478769
0.0478439
0.0478105
0.0477765
0.0477434
0.0477103
0.0476798
0.0476476
0.047623
0.0402417
0.0404892
0.0404347
0.0404347
0.0403984
0.0403801
0.0403512
0.0403276
0.040301
0.0402758
0.0402498
0.0402242
0.0401983
0.0401725
0.0401467
0.0401208
0.0400948
0.0400687
0.0400426
0.0400166
0.0399906
0.0399645
0.0399382
0.0399117
0.0398852
0.0398588
0.0398328
0.0398071
0.0397813
0.0397552
0.0397283
0.0397007
0.0396723
0.039644
0.0396153
0.0395879
0.0395603
0.0395362
0.0395098
0.039493
0.0861885
0.0862542
0.0861878
0.08613
0.0860724
0.0860155
0.0859591
0.0859024
0.0858459
0.0857892
0.0857324
0.0856756
0.0856187
0.0855617
0.0855046
0.0854474
0.0853901
0.0853327
0.0852753
0.0852179
0.0851605
0.0851028
0.0850448
0.0849866
0.0849284
0.0848707
0.0848133
0.084756
0.0846983
0.0846396
0.0845796
0.0845187
0.0844569
0.0843954
0.0843343
0.0842749
0.0842166
0.0841608
0.0841076
0.0840533
0.0915232
0.0917874
0.0917483
0.0916935
0.0916371
0.0915797
0.0915224
0.0914647
0.0914071
0.0913492
0.0912914
0.0912334
0.0911753
0.0911171
0.0910589
0.0910005
0.090942
0.0908834
0.0908247
0.090766
0.0907074
0.0906486
0.0905894
0.0905299
0.0904702
0.0904108
0.0903519
0.0902933
0.0902348
0.0901757
0.0901155
0.0900542
0.0899918
0.089929
0.089866
0.0898042
0.0897427
0.0896836
0.0896208
0.089565
0.0883234
0.0887958
0.0887715
0.0887178
0.0886648
0.0886086
0.0885535
0.0884973
0.0884415
0.0883854
0.0883293
0.088273
0.0882167
0.0881603
0.0881038
0.0880472
0.0879905
0.0879336
0.0878767
0.0878198
0.087763
0.087706
0.0876487
0.087591
0.087533
0.0874753
0.0874181
0.0873615
0.0873049
0.0872479
0.0871898
0.0871306
0.08707
0.087009
0.0869476
0.0868873
0.0868272
0.0867695
0.0867087
0.0866432
0.0879406
0.0885482
0.0885324
0.0884779
0.0884278
0.0883723
0.088319
0.0882641
0.0882098
0.088155
0.0881004
0.0880455
0.0879905
0.0879355
0.0878804
0.0878252
0.0877699
0.0877144
0.0876588
0.0876032
0.0875478
0.0874922
0.0874363
0.0873799
0.0873233
0.0872669
0.0872108
0.0871554
0.0871002
0.0870447
0.0869884
0.086931
0.0868723
0.086813
0.0867532
0.0866941
0.0866349
0.0865776
0.0865161
0.0864491
0.0869942
0.0877126
0.0877001
0.0876439
0.0875952
0.0875394
0.087487
0.0874323
0.0873787
0.0873245
0.0872704
0.087216
0.0871617
0.0871072
0.0870527
0.0869981
0.0869433
0.0868884
0.0868334
0.0867784
0.0867235
0.0866685
0.0866132
0.0865575
0.0865015
0.0864456
0.0863901
0.0863352
0.0862806
0.0862257
0.0861701
0.0861134
0.0860554
0.0859969
0.0859377
0.0858791
0.0858206
0.0857638
0.0857037
0.085634
0.0870352
0.0877998
0.087789
0.087732
0.0876839
0.0876281
0.0875758
0.0875213
0.0874678
0.0874135
0.0873596
0.0873053
0.087251
0.0871966
0.0871421
0.0870876
0.0870329
0.086978
0.0869231
0.0868682
0.0868133
0.0867584
0.0867032
0.0866475
0.0865916
0.0865357
0.0864802
0.0864253
0.0863707
0.086316
0.0862604
0.0862039
0.086146
0.0860876
0.0860285
0.08597
0.0859115
0.0858547
0.0857946
0.0857243
0.0870347
0.0878002
0.0877893
0.0877323
0.0876841
0.0876284
0.0875761
0.0875216
0.0874681
0.0874139
0.0873599
0.0873056
0.0872513
0.0871969
0.0871424
0.0870879
0.0870332
0.0869784
0.0869234
0.0868685
0.0868137
0.0867587
0.0867035
0.0866479
0.0865919
0.086536
0.0864806
0.0864257
0.0863711
0.0863164
0.0862608
0.0862042
0.0861464
0.086088
0.0860289
0.0859704
0.0859119
0.0858551
0.085795
0.0857248
0.0869945
0.0877154
0.0877028
0.0876466
0.0875979
0.0875421
0.0874896
0.087435
0.0873814
0.0873272
0.0872731
0.0872188
0.0871644
0.0871099
0.0870554
0.0870008
0.0869461
0.0868911
0.0868361
0.0867812
0.0867263
0.0866713
0.086616
0.0865603
0.0865043
0.0864484
0.0863929
0.086338
0.0862833
0.0862285
0.0861729
0.0861162
0.0860582
0.0859997
0.0859405
0.085882
0.0858234
0.0857666
0.0857066
0.0856369
0.0879398
0.0885511
0.088535
0.0884806
0.0884305
0.0883751
0.0883218
0.0882668
0.0882126
0.0881578
0.0881031
0.0880483
0.0879933
0.0879383
0.0878832
0.0878281
0.0877727
0.0877172
0.0876617
0.0876061
0.0875507
0.0874951
0.0874392
0.0873829
0.0873263
0.0872698
0.0872138
0.0871583
0.0871031
0.0870477
0.0869914
0.086934
0.0868753
0.0868161
0.0867562
0.0866971
0.0866379
0.0865806
0.0865192
0.0864523
0.0883273
0.0888052
0.0887809
0.0887273
0.0886743
0.0886182
0.088563
0.0885069
0.0884511
0.0883949
0.0883388
0.0882826
0.0882262
0.0881698
0.0881134
0.0880568
0.0880001
0.0879432
0.0878863
0.0878294
0.0877726
0.0877156
0.0876583
0.0876006
0.0875426
0.0874849
0.0874277
0.0873711
0.0873145
0.0872576
0.0871995
0.0871402
0.0870796
0.0870186
0.0869572
0.0868969
0.0868368
0.086779
0.0867183
0.0866529
0.0915401
0.0918107
0.0917718
0.0917172
0.0916607
0.0916033
0.091546
0.0914883
0.0914306
0.0913728
0.0913149
0.0912569
0.0911988
0.0911406
0.0910823
0.091024
0.0909655
0.0909068
0.0908481
0.0907894
0.0907307
0.0906719
0.0906127
0.0905532
0.0904935
0.0904341
0.0903751
0.0903166
0.090258
0.0901989
0.0901387
0.0900774
0.0900149
0.0899521
0.0898891
0.0898273
0.0897657
0.0897066
0.0896439
0.0895881
0.0862404
0.0863141
0.0862485
0.0861908
0.0861332
0.0860762
0.0860197
0.0859629
0.0859063
0.0858495
0.0857927
0.0857358
0.0856788
0.0856217
0.0855646
0.0855073
0.0854499
0.0853924
0.0853349
0.0852775
0.0852199
0.0851621
0.085104
0.0850458
0.0849876
0.0849297
0.0848723
0.0848149
0.0847571
0.0846983
0.0846383
0.0845772
0.0845153
0.0844537
0.0843925
0.084333
0.0842747
0.0842188
0.0841657
0.0841113
0.191724
0.191638
0.19153
0.191392
0.191273
0.191144
0.19102
0.190893
0.190767
0.19064
0.190514
0.190387
0.19026
0.190133
0.190006
0.189878
0.189751
0.189623
0.189495
0.189367
0.189238
0.18911
0.18898
0.188851
0.188721
0.188593
0.188465
0.188337
0.188207
0.188075
0.187941
0.187804
0.187667
0.187531
0.187397
0.187265
0.187137
0.187012
0.186888
0.186759
0.12832
0.128546
0.128466
0.128389
0.128303
0.128221
0.128137
0.128054
0.12797
0.127886
0.127802
0.127718
0.127634
0.12755
0.127465
0.127381
0.127296
0.127211
0.127126
0.127041
0.126956
0.126871
0.126785
0.126699
0.126613
0.126527
0.126442
0.126357
0.126272
0.126185
0.126097
0.126007
0.125916
0.125825
0.125734
0.125646
0.125559
0.125475
0.125386
0.125294
0.101356
0.10192
0.101836
0.101794
0.101717
0.101661
0.101592
0.10153
0.101464
0.101399
0.101334
0.101269
0.101204
0.101139
0.101073
0.101008
0.100942
0.100877
0.100811
0.100745
0.100679
0.100613
0.100547
0.10048
0.100413
0.100347
0.100281
0.100216
0.10015
0.100083
0.100016
0.0999464
0.0998759
0.0998052
0.0997344
0.0996652
0.0995964
0.0995303
0.0994597
0.0993792
0.0931198
0.0939424
0.0938468
0.0938252
0.0937468
0.0937016
0.0936369
0.0935829
0.0935229
0.093466
0.0934073
0.0933494
0.0932909
0.0932325
0.093174
0.0931155
0.0930567
0.0929978
0.0929389
0.09288
0.0928211
0.092762
0.0927026
0.0926428
0.0925829
0.0925232
0.092464
0.0924053
0.0923464
0.092287
0.0922263
0.0921646
0.0921015
0.0920384
0.0919748
0.0919129
0.0918506
0.0917912
0.0917264
0.0916493
0.0906351
0.0916062
0.0914998
0.0914889
0.091407
0.0913668
0.0913025
0.0912514
0.091193
0.0911384
0.0910816
0.0910259
0.0909694
0.0909131
0.0908567
0.0908002
0.0907435
0.0906867
0.0906299
0.090573
0.0905162
0.0904592
0.0904019
0.0903442
0.0902865
0.0902289
0.0901718
0.0901151
0.0900582
0.0900009
0.0899423
0.0898827
0.0898218
0.089761
0.0896996
0.08964
0.0895798
0.0895225
0.0894604
0.0893821
0.0902106
0.0912529
0.0911388
0.0911316
0.0910476
0.0910091
0.0909446
0.0908944
0.0908363
0.0907823
0.0907259
0.0906707
0.0906147
0.090559
0.090503
0.090447
0.0903908
0.0903345
0.0902782
0.0902218
0.0901655
0.090109
0.0900522
0.089995
0.0899378
0.0898807
0.0898241
0.0897679
0.0897115
0.0896546
0.0895964
0.0895374
0.0894769
0.0894167
0.0893557
0.0892968
0.089237
0.0891811
0.0891207
0.089042
0.0902107
0.091254
0.0911396
0.0911325
0.0910485
0.09101
0.0909455
0.0908953
0.0908372
0.0907832
0.0907268
0.0906716
0.0906156
0.0905599
0.0905039
0.0904479
0.0903918
0.0903355
0.0902791
0.0902228
0.0901664
0.0901099
0.0900531
0.089996
0.0899387
0.0898817
0.089825
0.0897688
0.0897124
0.0896556
0.0895974
0.0895384
0.0894779
0.0894176
0.0893567
0.0892977
0.089238
0.0891821
0.0891217
0.089043
0.0906345
0.0916076
0.0915009
0.0914901
0.091408
0.0913679
0.0913036
0.0912525
0.0911941
0.0911395
0.0910827
0.091027
0.0909705
0.0909143
0.0908578
0.0908014
0.0907447
0.0906879
0.090631
0.0905742
0.0905174
0.0904604
0.0904031
0.0903454
0.0902877
0.0902301
0.090173
0.0901163
0.0900595
0.0900021
0.0899435
0.089884
0.089823
0.0897623
0.0897008
0.0896413
0.0895811
0.0895238
0.0894618
0.0893834
0.0931157
0.0939413
0.0938452
0.0938237
0.0937451
0.0937
0.0936353
0.0935813
0.0935214
0.0934645
0.0934058
0.0933479
0.0932894
0.0932311
0.0931726
0.0931141
0.0930554
0.0929965
0.0929376
0.0928787
0.0928198
0.0927608
0.0927014
0.0926416
0.0925817
0.0925221
0.0924629
0.0924042
0.0923453
0.0922859
0.0922253
0.0921636
0.0921005
0.0920375
0.0919739
0.091912
0.0918497
0.0917904
0.0917256
0.0916483
0.101347
0.101915
0.10183
0.101789
0.101712
0.101655
0.101586
0.101524
0.101458
0.101394
0.101329
0.101264
0.101199
0.101134
0.101068
0.101003
0.100937
0.100872
0.100806
0.10074
0.100675
0.100609
0.100542
0.100476
0.100409
0.100342
0.100276
0.100211
0.100145
0.100079
0.100011
0.0999421
0.0998716
0.0998009
0.0997302
0.099661
0.0995923
0.0995262
0.0994555
0.099375
0.128327
0.128559
0.128481
0.128403
0.128317
0.128236
0.128151
0.128068
0.127984
0.127901
0.127817
0.127733
0.127648
0.127564
0.12748
0.127395
0.12731
0.127226
0.127141
0.127056
0.126971
0.126885
0.1268
0.126713
0.126627
0.126542
0.126457
0.126372
0.126287
0.1262
0.126112
0.126022
0.125931
0.12584
0.125749
0.125661
0.125574
0.125489
0.125401
0.125309
0.191799
0.191723
0.191617
0.19148
0.19136
0.191231
0.191107
0.19098
0.190854
0.190727
0.190601
0.190474
0.190347
0.190219
0.190092
0.189964
0.189836
0.189708
0.18958
0.189452
0.189324
0.189195
0.189065
0.188936
0.188807
0.188678
0.18855
0.188422
0.188292
0.18816
0.188025
0.187889
0.187752
0.187615
0.187481
0.187349