/*--------------------------------*- C++ -*----------------------------------*\
  =========                 |
  \\      /  F ield         | OpenFOAM: The Open Source CFD Toolbox
   \\    /   O peration     | Website:  https://openfoam.org
    \\  /    A nd           | Version:  7
     \\/     M anipulation  |
\*---------------------------------------------------------------------------*/
FoamFile
{
    version     2.0;
    format      ascii;
    class       volScalarField;
    location    "0.24";
    object      nut;
}
// * * * * * * * * * * * * * * * * * * * * * * * * * * * * * * * * * * * * * //

dimensions      [0 2 -1 0 0 0 0];

internalField   nonuniform List<scalar> 
8640
(
0.00334631
0.00324577
0.00320813
0.00320171
0.00319753
0.00319585
0.00319212
0.00319006
0.00318712
0.00318603
0.00318438
0.00318407
0.00318318
0.00318315
0.00318261
0.00318266
0.00318228
0.00318241
0.00318224
0.00318248
0.00318243
0.00318259
0.00318239
0.00318228
0.00318184
0.00318142
0.00318106
0.0031812
0.00318163
0.00318237
0.00318303
0.00318369
0.00318414
0.00318461
0.00318488
0.00318515
0.00318527
0.00318541
0.00318545
0.00318553
0.00318554
0.00318559
0.0031856
0.00318564
0.00318564
0.00318569
0.00318569
0.00318573
0.00318573
0.00318576
0.00318577
0.00318574
0.00318579
0.00318562
0.00318582
0.00318532
0.00318602
0.00318526
0.00318658
0.0032103
0.00208463
0.00173388
0.00154874
0.00148444
0.00146376
0.00144952
0.00143647
0.00142331
0.00140912
0.0013959
0.0013831
0.00137172
0.00136154
0.00135244
0.0013447
0.00133763
0.00133192
0.00132664
0.00132273
0.00131932
0.00131725
0.00131542
0.00131415
0.00131247
0.00131106
0.00131044
0.00131034
0.00131043
0.00131077
0.00131124
0.00131189
0.00131255
0.00131314
0.00131337
0.00131357
0.00131363
0.00131372
0.00131375
0.00131381
0.00131384
0.00131391
0.00131395
0.001314
0.00131406
0.00131412
0.00131421
0.00131428
0.00131443
0.00131457
0.0013148
0.00131526
0.00131559
0.00131694
0.00131717
0.0013214
0.00132041
0.00133396
0.00132936
0.00135903
0.00140325
0.0020125
0.00163882
0.0013837
0.00128481
0.001246
0.00123089
0.00122392
0.00122071
0.00121819
0.00121678
0.00121543
0.00121481
0.00121418
0.00121401
0.00121375
0.00121372
0.00121363
0.00121364
0.00121362
0.00121365
0.00121364
0.00121364
0.00121356
0.00121348
0.00121339
0.00121339
0.00121336
0.00121329
0.00121311
0.00121298
0.00121291
0.00121301
0.00121335
0.00121388
0.00121445
0.00121504
0.00121554
0.00121597
0.00121627
0.00121651
0.00121665
0.00121676
0.00121682
0.00121688
0.00121692
0.00121697
0.001217
0.00121704
0.00121707
0.00121713
0.00121716
0.00121723
0.00121728
0.00121738
0.00121751
0.00121766
0.00121804
0.00121828
0.00121929
0.0012282
0.0020118
0.00163461
0.00137542
0.00127452
0.00123428
0.00121877
0.00121204
0.00120944
0.00120794
0.00120755
0.00120736
0.00120755
0.00120785
0.00120852
0.00120893
0.00120955
0.00120991
0.00121044
0.00121073
0.00121114
0.00121132
0.00121154
0.00121159
0.00121169
0.00121174
0.00121188
0.00121196
0.00121199
0.0012119
0.00121176
0.00121168
0.00121174
0.00121205
0.00121261
0.00121325
0.00121396
0.00121459
0.00121514
0.00121554
0.00121585
0.00121605
0.0012162
0.00121628
0.00121636
0.0012164
0.00121645
0.00121648
0.00121653
0.00121656
0.00121661
0.00121666
0.00121669
0.00121677
0.00121679
0.0012169
0.00121691
0.0012171
0.00121705
0.00121761
0.00122396
0.00201159
0.00163421
0.00137482
0.00127382
0.00123346
0.00121787
0.00121108
0.00120844
0.00120694
0.00120657
0.00120641
0.00120663
0.00120698
0.00120769
0.00120813
0.00120879
0.00120918
0.00120973
0.00121006
0.00121051
0.00121074
0.00121101
0.0012111
0.00121125
0.00121135
0.00121152
0.0012116
0.00121164
0.00121158
0.00121149
0.00121143
0.00121153
0.00121186
0.00121243
0.00121308
0.0012138
0.00121444
0.00121502
0.00121543
0.00121576
0.00121597
0.00121613
0.00121621
0.00121629
0.00121634
0.00121639
0.00121642
0.00121646
0.0012165
0.00121653
0.00121658
0.00121661
0.00121668
0.00121671
0.00121682
0.00121684
0.00121705
0.00121706
0.00121768
0.00122408
0.00201184
0.00163384
0.00137421
0.00127324
0.00123303
0.00121752
0.00121078
0.00120816
0.00120667
0.00120631
0.00120616
0.00120639
0.00120675
0.00120747
0.0012079
0.00120856
0.00120895
0.00120951
0.00120984
0.0012103
0.00121052
0.00121079
0.00121089
0.00121107
0.00121119
0.0012114
0.00121152
0.00121159
0.00121156
0.00121151
0.00121149
0.00121164
0.00121202
0.00121261
0.00121328
0.00121401
0.00121466
0.00121523
0.00121565
0.00121598
0.00121618
0.00121634
0.00121643
0.00121651
0.00121655
0.0012166
0.00121664
0.00121668
0.00121672
0.00121675
0.00121681
0.00121684
0.00121693
0.00121694
0.00121709
0.00121708
0.00121735
0.0012173
0.00121798
0.0012243
0.00201184
0.00163384
0.00137421
0.00127324
0.00123303
0.00121752
0.00121078
0.00120816
0.00120667
0.00120631
0.00120616
0.00120639
0.00120675
0.00120747
0.0012079
0.00120856
0.00120895
0.00120951
0.00120984
0.0012103
0.00121052
0.00121079
0.00121089
0.00121107
0.00121119
0.0012114
0.00121152
0.00121159
0.00121156
0.00121151
0.00121149
0.00121164
0.00121202
0.00121261
0.00121328
0.00121401
0.00121466
0.00121523
0.00121565
0.00121598
0.00121618
0.00121634
0.00121643
0.00121651
0.00121655
0.0012166
0.00121664
0.00121668
0.00121672
0.00121676
0.00121681
0.00121684
0.00121693
0.00121695
0.00121709
0.00121709
0.00121735
0.00121731
0.00121798
0.00122431
0.00201159
0.00163421
0.00137482
0.00127382
0.00123346
0.00121787
0.00121108
0.00120844
0.00120694
0.00120657
0.00120641
0.00120663
0.00120698
0.00120769
0.00120813
0.00120879
0.00120918
0.00120973
0.00121006
0.00121051
0.00121074
0.00121101
0.0012111
0.00121125
0.00121135
0.00121152
0.0012116
0.00121164
0.00121158
0.00121149
0.00121143
0.00121153
0.00121186
0.00121243
0.00121308
0.0012138
0.00121444
0.00121502
0.00121543
0.00121577
0.00121597
0.00121613
0.00121621
0.00121629
0.00121634
0.00121639
0.00121642
0.00121647
0.0012165
0.00121654
0.00121658
0.00121661
0.00121668
0.00121671
0.00121682
0.00121684
0.00121705
0.00121707
0.00121768
0.00122409
0.0020118
0.00163461
0.00137542
0.00127452
0.00123428
0.00121877
0.00121204
0.00120944
0.00120794
0.00120755
0.00120736
0.00120755
0.00120785
0.00120852
0.00120893
0.00120955
0.00120991
0.00121044
0.00121073
0.00121114
0.00121132
0.00121154
0.00121159
0.00121169
0.00121174
0.00121188
0.00121196
0.00121199
0.0012119
0.00121176
0.00121168
0.00121174
0.00121205
0.00121261
0.00121325
0.00121396
0.00121459
0.00121514
0.00121554
0.00121586
0.00121605
0.0012162
0.00121628
0.00121636
0.0012164
0.00121645
0.00121648
0.00121653
0.00121656
0.00121662
0.00121665
0.0012167
0.00121676
0.0012168
0.0012169
0.00121692
0.00121709
0.00121707
0.00121761
0.00122396
0.0020125
0.00163882
0.0013837
0.00128481
0.001246
0.00123089
0.00122392
0.00122071
0.00121819
0.00121678
0.00121543
0.00121481
0.00121418
0.00121401
0.00121375
0.00121372
0.00121363
0.00121364
0.00121362
0.00121365
0.00121364
0.00121364
0.00121356
0.00121348
0.00121339
0.00121339
0.00121336
0.00121329
0.00121311
0.00121298
0.00121291
0.00121301
0.00121335
0.00121388
0.00121445
0.00121504
0.00121554
0.00121598
0.00121627
0.00121651
0.00121665
0.00121676
0.00121682
0.00121688
0.00121692
0.00121697
0.00121699
0.00121705
0.00121707
0.00121713
0.00121716
0.00121724
0.00121728
0.0012174
0.00121748
0.00121766
0.00121801
0.00121829
0.00121927
0.00122817
0.00208463
0.00173388
0.00154874
0.00148444
0.00146376
0.00144952
0.00143647
0.00142331
0.00140912
0.0013959
0.0013831
0.00137172
0.00136154
0.00135244
0.0013447
0.00133763
0.00133192
0.00132664
0.00132273
0.00131932
0.00131725
0.00131542
0.00131415
0.00131247
0.00131106
0.00131044
0.00131034
0.00131043
0.00131077
0.00131123
0.00131189
0.00131255
0.00131314
0.00131337
0.00131357
0.00131363
0.00131372
0.00131375
0.00131381
0.00131384
0.0013139
0.00131394
0.001314
0.00131405
0.0013141
0.00131419
0.00131426
0.0013144
0.00131453
0.00131476
0.0013152
0.00131553
0.00131686
0.00131709
0.00132127
0.00132029
0.00133372
0.0013292
0.00135854
0.00140276
0.00334631
0.00324577
0.00320813
0.00320171
0.00319753
0.00319585
0.00319212
0.00319006
0.00318712
0.00318603
0.00318438
0.00318407
0.00318318
0.00318315
0.00318261
0.00318266
0.00318228
0.00318241
0.00318223
0.00318248
0.00318242
0.00318258
0.00318239
0.00318228
0.00318184
0.00318142
0.00318106
0.0031812
0.00318162
0.00318236
0.00318303
0.00318369
0.00318414
0.00318461
0.00318488
0.00318515
0.00318527
0.00318541
0.00318545
0.00318553
0.00318554
0.0031856
0.0031856
0.00318565
0.00318564
0.00318569
0.00318569
0.00318574
0.00318573
0.00318577
0.00318576
0.00318576
0.00318578
0.00318566
0.00318579
0.0031854
0.00318595
0.00318542
0.00318643
0.00321038
0.000693268
0.00107465
0.00120395
0.00124425
0.00125951
0.00126069
0.00126063
0.00125843
0.00125715
0.00125419
0.00125306
0.00125041
0.00124932
0.00124692
0.00124597
0.00124398
0.00124325
0.00124173
0.00124131
0.00124044
0.0012404
0.00124009
0.00124024
0.00124014
0.00124038
0.00124035
0.00124055
0.00124051
0.00124063
0.00124058
0.00124069
0.00124066
0.00124074
0.00124071
0.00124078
0.00124075
0.0012408
0.00124077
0.00124081
0.00124079
0.00124082
0.0012408
0.00124083
0.00124081
0.00124084
0.00124082
0.00124085
0.00124082
0.00124086
0.00124081
0.00124088
0.00124079
0.00124088
0.00124073
0.00124074
0.0012406
0.00124013
0.00124031
0.00123743
0.0012501
0.000449315
0.000910791
0.00107299
0.00113646
0.00116089
0.00117056
0.00117356
0.00117451
0.00117433
0.00117421
0.00117406
0.00117419
0.00117431
0.00117466
0.00117484
0.00117519
0.00117535
0.00117558
0.0011756
0.00117564
0.00117557
0.00117555
0.00117548
0.0011755
0.00117546
0.00117545
0.00117545
0.00117557
0.00117581
0.00117616
0.00117652
0.00117692
0.00117725
0.00117756
0.00117778
0.00117796
0.00117807
0.00117817
0.00117822
0.00117826
0.00117829
0.00117832
0.00117834
0.00117836
0.00117838
0.0011784
0.00117843
0.00117845
0.00117847
0.0011785
0.00117851
0.00117856
0.00117857
0.00117864
0.00117872
0.00117879
0.00117903
0.00117888
0.00117923
0.00118643
0.000455506
0.000905034
0.00106476
0.00112781
0.00115204
0.00116189
0.00116489
0.00116577
0.00116543
0.00116503
0.00116448
0.00116433
0.00116412
0.00116415
0.00116411
0.00116416
0.00116415
0.00116422
0.00116423
0.00116432
0.00116433
0.00116437
0.00116439
0.00116449
0.00116457
0.00116471
0.00116475
0.00116474
0.00116465
0.00116461
0.00116467
0.00116497
0.00116544
0.00116604
0.00116664
0.00116722
0.00116768
0.00116804
0.00116828
0.00116845
0.00116855
0.00116862
0.00116866
0.00116868
0.0011687
0.00116872
0.00116874
0.00116875
0.00116877
0.00116878
0.00116881
0.00116881
0.00116883
0.00116882
0.00116884
0.00116882
0.00116884
0.00116881
0.00116884
0.00117466
0.000449556
0.000903315
0.00106455
0.00112807
0.00115243
0.00116226
0.0011652
0.00116604
0.00116568
0.00116528
0.00116473
0.00116457
0.00116435
0.00116436
0.00116429
0.00116431
0.00116427
0.00116431
0.0011643
0.00116436
0.00116436
0.00116437
0.00116435
0.00116439
0.00116446
0.00116462
0.00116469
0.0011647
0.00116459
0.00116448
0.00116446
0.00116463
0.00116506
0.00116566
0.0011663
0.00116695
0.00116751
0.00116796
0.00116828
0.00116851
0.00116865
0.00116874
0.00116879
0.00116882
0.00116885
0.00116887
0.00116889
0.0011689
0.00116892
0.00116893
0.00116895
0.00116896
0.00116899
0.001169
0.00116905
0.00116905
0.0011691
0.00116908
0.00116917
0.00117471
0.000452613
0.000903803
0.00106439
0.00112775
0.00115205
0.00116184
0.00116476
0.00116557
0.0011652
0.0011648
0.00116425
0.0011641
0.00116388
0.00116389
0.00116382
0.00116384
0.0011638
0.00116384
0.00116383
0.00116389
0.00116389
0.00116389
0.00116387
0.00116393
0.00116403
0.00116418
0.00116424
0.00116423
0.0011641
0.00116398
0.00116395
0.0011641
0.00116452
0.00116512
0.00116577
0.00116645
0.00116702
0.0011675
0.00116784
0.00116808
0.00116823
0.00116832
0.00116838
0.00116842
0.00116844
0.00116846
0.00116848
0.00116849
0.00116851
0.00116852
0.00116854
0.00116855
0.00116857
0.00116857
0.00116858
0.00116859
0.0011686
0.0011686
0.00116864
0.00117395
0.00045083
0.000903408
0.00106446
0.00112795
0.0011523
0.00116209
0.00116499
0.00116579
0.00116543
0.00116503
0.00116449
0.00116434
0.00116413
0.00116413
0.00116406
0.00116408
0.00116403
0.00116407
0.00116407
0.00116413
0.00116411
0.00116412
0.0011641
0.00116415
0.00116425
0.0011644
0.00116445
0.00116444
0.0011643
0.00116419
0.00116416
0.00116434
0.00116476
0.00116536
0.00116602
0.00116668
0.00116725
0.00116772
0.00116805
0.00116829
0.00116843
0.00116853
0.00116858
0.00116862
0.00116865
0.00116866
0.00116868
0.0011687
0.00116871
0.00116873
0.00116875
0.00116876
0.00116878
0.00116879
0.00116882
0.00116883
0.00116886
0.00116886
0.00116892
0.00117426
0.00045083
0.000903408
0.00106446
0.00112795
0.0011523
0.00116209
0.00116499
0.00116579
0.00116543
0.00116503
0.00116449
0.00116434
0.00116413
0.00116413
0.00116406
0.00116408
0.00116403
0.00116407
0.00116407
0.00116413
0.00116411
0.00116412
0.0011641
0.00116415
0.00116425
0.0011644
0.00116445
0.00116444
0.0011643
0.00116419
0.00116416
0.00116434
0.00116476
0.00116536
0.00116602
0.00116668
0.00116725
0.00116772
0.00116805
0.00116829
0.00116843
0.00116853
0.00116858
0.00116862
0.00116865
0.00116866
0.00116868
0.0011687
0.00116871
0.00116873
0.00116875
0.00116876
0.00116878
0.00116879
0.00116882
0.00116883
0.00116886
0.00116886
0.00116892
0.00117426
0.000452613
0.000903803
0.00106439
0.00112775
0.00115205
0.00116184
0.00116476
0.00116557
0.0011652
0.0011648
0.00116425
0.0011641
0.00116388
0.00116389
0.00116382
0.00116384
0.0011638
0.00116384
0.00116383
0.00116389
0.00116389
0.00116389
0.00116387
0.00116393
0.00116403
0.00116418
0.00116424
0.00116423
0.0011641
0.00116398
0.00116395
0.0011641
0.00116452
0.00116512
0.00116577
0.00116645
0.00116702
0.0011675
0.00116784
0.00116808
0.00116823
0.00116832
0.00116838
0.00116842
0.00116844
0.00116846
0.00116848
0.00116849
0.00116851
0.00116852
0.00116854
0.00116855
0.00116856
0.00116857
0.00116858
0.00116859
0.00116859
0.00116861
0.00116863
0.00117395
0.000449556
0.000903315
0.00106455
0.00112807
0.00115243
0.00116226
0.0011652
0.00116604
0.00116568
0.00116528
0.00116473
0.00116457
0.00116435
0.00116436
0.00116429
0.00116431
0.00116427
0.00116431
0.0011643
0.00116436
0.00116436
0.00116437
0.00116435
0.00116439
0.00116446
0.00116462
0.00116469
0.0011647
0.00116459
0.00116448
0.00116446
0.00116463
0.00116506
0.00116565
0.0011663
0.00116695
0.00116751
0.00116796
0.00116828
0.00116851
0.00116865
0.00116874
0.00116879
0.00116882
0.00116885
0.00116887
0.00116888
0.0011689
0.00116891
0.00116893
0.00116895
0.00116896
0.00116899
0.00116901
0.00116904
0.00116905
0.00116909
0.00116909
0.00116916
0.0011747
0.000455506
0.000905034
0.00106476
0.00112781
0.00115204
0.00116189
0.00116489
0.00116577
0.00116543
0.00116503
0.00116448
0.00116433
0.00116412
0.00116415
0.00116411
0.00116416
0.00116415
0.00116422
0.00116423
0.00116432
0.00116433
0.00116437
0.00116439
0.00116449
0.00116457
0.00116471
0.00116475
0.00116474
0.00116465
0.00116461
0.00116467
0.00116497
0.00116544
0.00116604
0.00116664
0.00116722
0.00116768
0.00116804
0.00116828
0.00116845
0.00116855
0.00116862
0.00116866
0.00116869
0.0011687
0.00116872
0.00116874
0.00116875
0.00116877
0.00116878
0.0011688
0.00116881
0.00116882
0.00116883
0.00116883
0.00116883
0.00116881
0.00116884
0.00116881
0.00117465
0.000449315
0.000910791
0.00107299
0.00113646
0.0011609
0.00117056
0.00117356
0.00117451
0.00117433
0.00117421
0.00117406
0.00117419
0.00117431
0.00117466
0.00117483
0.00117519
0.00117535
0.00117558
0.0011756
0.00117564
0.00117557
0.00117555
0.00117548
0.0011755
0.00117546
0.00117545
0.00117545
0.00117557
0.00117581
0.00117616
0.00117651
0.00117692
0.00117725
0.00117756
0.00117778
0.00117796
0.00117807
0.00117817
0.00117822
0.00117826
0.00117829
0.00117832
0.00117834
0.00117836
0.00117838
0.0011784
0.00117842
0.00117845
0.00117846
0.0011785
0.00117851
0.00117856
0.00117856
0.00117865
0.00117869
0.00117879
0.00117899
0.0011789
0.00117918
0.00118639
0.000693268
0.00107465
0.00120395
0.00124425
0.00125951
0.00126069
0.00126063
0.00125843
0.00125715
0.00125419
0.00125306
0.00125041
0.00124932
0.00124692
0.00124597
0.00124398
0.00124325
0.00124173
0.00124131
0.00124044
0.0012404
0.00124009
0.00124024
0.00124014
0.00124038
0.00124035
0.00124055
0.00124051
0.00124063
0.00124058
0.00124069
0.00124065
0.00124074
0.00124071
0.00124078
0.00124075
0.0012408
0.00124077
0.00124081
0.00124079
0.00124082
0.0012408
0.00124083
0.00124081
0.00124084
0.00124082
0.00124085
0.00124082
0.00124087
0.00124082
0.00124089
0.0012408
0.00124089
0.00124076
0.00124075
0.00124063
0.00124015
0.0012404
0.00123745
0.00125013
6.07431e-05
0.000146877
0.000234052
0.000297286
0.00034154
0.000374557
0.000397235
0.000412401
0.000421128
0.000425871
0.000427643
0.000427691
0.000427348
0.000426511
0.000425372
0.000424339
0.000423334
0.000422489
0.000421769
0.000421271
0.000420988
0.000420933
0.000421062
0.000421422
0.000421881
0.000422417
0.000422999
0.000423615
0.000424236
0.000424894
0.000425554
0.000426261
0.000426941
0.000427669
0.000428344
0.000429082
0.000429745
0.000430494
0.000431143
0.000431907
0.000432538
0.000433322
0.000433932
0.000434744
0.000435326
0.000436174
0.000436707
0.000437622
0.000438083
0.00043906
0.000439489
0.000440478
0.000440844
0.000441908
0.000442105
0.000443239
0.000443009
0.000444013
0.00044261
0.000445202
1.29838e-05
4.55344e-05
7.92715e-05
0.000113204
0.000136368
0.000157014
0.000173304
0.000187565
0.000197709
0.000205301
0.00020973
0.000212592
0.000213846
0.000214503
0.000214575
0.00021456
0.000214273
0.000213663
0.000212551
0.000211523
0.000210184
0.000209049
0.00020791
0.000207127
0.000206509
0.000206212
0.000206056
0.000206057
0.000206104
0.000206246
0.000206322
0.000206455
0.00020653
0.000206646
0.000206722
0.000206811
0.000206867
0.000206951
0.000207014
0.000207089
0.000207152
0.00020721
0.000207254
0.000207333
0.000207385
0.000207482
0.000207527
0.000207626
0.000207656
0.000207763
0.00020779
0.000207997
0.000207988
0.000208364
0.000208301
0.000209149
0.000209094
0.000210855
0.000211159
0.000216266
1.27822e-05
4.39324e-05
7.46598e-05
0.000107764
0.000128347
0.000147669
0.00016074
0.000172886
0.000180572
0.000186946
0.000190258
0.00019286
0.000193853
0.00019468
0.000194804
0.000194946
0.000194881
0.000194887
0.000194816
0.000194818
0.000194777
0.000194807
0.000194811
0.000194874
0.000194898
0.000194974
0.000195004
0.000195082
0.000195106
0.000195169
0.000195206
0.000195285
0.000195321
0.000195394
0.000195432
0.000195468
0.000195486
0.000195522
0.00019556
0.000195572
0.000195573
0.000195575
0.000195578
0.000195574
0.000195584
0.000195614
0.000195655
0.000195656
0.000195668
0.000195686
0.00019574
0.000195768
0.000195799
0.000195797
0.000195798
0.000195818
0.000195815
0.000195865
0.000195832
0.000198466
1.2791e-05
4.41847e-05
7.51112e-05
0.000108639
0.00012971
0.000149291
0.0001625
0.000174629
0.000182257
0.000188546
0.000191805
0.000194367
0.000195335
0.000196159
0.000196294
0.00019647
0.000196438
0.000196489
0.00019648
0.000196543
0.000196562
0.000196651
0.000196674
0.000196748
0.000196767
0.00019683
0.000196852
0.000196915
0.000196934
0.000196989
0.000197025
0.000197094
0.00019713
0.000197204
0.000197248
0.000197287
0.000197308
0.000197351
0.000197376
0.000197383
0.000197383
0.000197379
0.000197379
0.000197383
0.00019741
0.000197418
0.000197428
0.000197429
0.000197445
0.000197483
0.000197531
0.000197526
0.000197544
0.000197549
0.000197591
0.000197602
0.000197662
0.00019768
0.000197755
0.000200222
1.27514e-05
4.39435e-05
7.4652e-05
0.000108034
0.000128827
0.000148304
0.000161402
0.000173525
0.000181131
0.000187438
0.000190691
0.00019326
0.000194221
0.000195034
0.000195154
0.000195309
0.000195262
0.000195296
0.000195265
0.000195308
0.000195304
0.00019536
0.000195379
0.00019545
0.00019547
0.000195537
0.000195562
0.000195631
0.000195652
0.000195708
0.000195742
0.000195821
0.000195859
0.000195933
0.000195976
0.000196016
0.000196036
0.000196077
0.0001961
0.000196104
0.000196103
0.000196104
0.000196116
0.00019614
0.000196164
0.000196162
0.000196169
0.00019618
0.000196212
0.00019621
0.000196222
0.000196227
0.000196247
0.000196277
0.00019633
0.000196359
0.000196376
0.000196406
0.000196403
0.000198726
1.27596e-05
4.40409e-05
7.48519e-05
0.000108321
0.000129275
0.000148813
0.000161974
0.000174105
0.000181723
0.000188023
0.000191277
0.000193841
0.000194803
0.000195619
0.000195744
0.000195908
0.000195868
0.000195911
0.00019589
0.000195942
0.000195947
0.000196012
0.000196031
0.0001961
0.000196118
0.000196182
0.000196204
0.00019627
0.00019629
0.000196346
0.000196382
0.000196457
0.000196494
0.000196569
0.00019661
0.00019665
0.00019667
0.000196712
0.000196739
0.000196744
0.000196744
0.000196742
0.000196743
0.000196747
0.000196776
0.000196783
0.000196792
0.000196793
0.000196815
0.000196839
0.000196898
0.000196905
0.000196931
0.000196939
0.000196975
0.000196981
0.000197015
0.000197044
0.000197106
0.000199459
1.27596e-05
4.40409e-05
7.48519e-05
0.000108321
0.000129275
0.000148813
0.000161974
0.000174105
0.000181723
0.000188023
0.000191277
0.000193841
0.000194803
0.000195619
0.000195744
0.000195908
0.000195868
0.000195911
0.00019589
0.000195942
0.000195947
0.000196012
0.000196031
0.0001961
0.000196118
0.000196182
0.000196204
0.00019627
0.00019629
0.000196347
0.000196383
0.000196455
0.00019649
0.000196565
0.000196608
0.000196648
0.000196669
0.000196712
0.000196739
0.000196744
0.000196744
0.000196742
0.000196743
0.000196748
0.000196778
0.000196789
0.000196798
0.000196803
0.000196835
0.00019684
0.000196854
0.000196857
0.000196884
0.000196901
0.000196965
0.000196988
0.000197037
0.000197055
0.000197107
0.000199456
1.27514e-05
4.39435e-05
7.4652e-05
0.000108034
0.000128827
0.000148304
0.000161402
0.000173525
0.000181131
0.000187438
0.000190691
0.00019326
0.000194221
0.000195034
0.000195154
0.000195309
0.000195262
0.000195296
0.000195265
0.000195308
0.000195304
0.00019536
0.000195379
0.00019545
0.00019547
0.000195537
0.000195562
0.000195631
0.000195652
0.000195708
0.000195743
0.000195817
0.000195853
0.000195928
0.000195971
0.000196012
0.000196032
0.000196075
0.000196102
0.00019611
0.000196111
0.000196107
0.000196108
0.000196114
0.000196144
0.000196154
0.000196165
0.000196166
0.000196185
0.000196206
0.000196265
0.000196281
0.000196312
0.000196318
0.00019634
0.00019636
0.00019637
0.000196398
0.000196405
0.000198731
1.27909e-05
4.41847e-05
7.51112e-05
0.000108639
0.00012971
0.000149291
0.0001625
0.000174629
0.000182257
0.000188546
0.000191805
0.000194367
0.000195335
0.000196159
0.000196293
0.000196471
0.000196439
0.000196491
0.000196483
0.000196546
0.000196565
0.000196652
0.000196675
0.000196748
0.000196767
0.00019683
0.000196852
0.000196915
0.000196934
0.000196989
0.000197025
0.000197094
0.000197129
0.000197204
0.000197248
0.000197287
0.000197308
0.000197351
0.000197375
0.000197382
0.000197382
0.000197378
0.000197379
0.000197383
0.00019741
0.000197419
0.000197429
0.000197429
0.000197444
0.000197483
0.000197534
0.000197531
0.000197547
0.000197551
0.000197589
0.000197602
0.000197662
0.000197681
0.000197755
0.000200214
1.27822e-05
4.39324e-05
7.46598e-05
0.000107764
0.000128347
0.000147669
0.00016074
0.000172886
0.000180572
0.000186946
0.000190258
0.00019286
0.000193853
0.00019468
0.000194804
0.000194946
0.000194881
0.000194887
0.000194816
0.000194818
0.000194777
0.000194807
0.000194811
0.000194874
0.000194898
0.000194974
0.000195004
0.000195082
0.000195106
0.00019517
0.000195207
0.000195281
0.000195314
0.000195387
0.000195429
0.000195467
0.000195485
0.000195524
0.000195555
0.000195562
0.000195562
0.000195561
0.000195564
0.000195573
0.00019561
0.000195635
0.00019565
0.000195645
0.000195658
0.000195679
0.000195739
0.000195769
0.000195798
0.000195797
0.000195798
0.000195815
0.00019581
0.000195862
0.000195827
0.000198445
1.29838e-05
4.55344e-05
7.92715e-05
0.000113204
0.000136367
0.000157014
0.000173304
0.000187565
0.000197709
0.000205301
0.000209731
0.000212592
0.000213846
0.000214503
0.000214575
0.00021456
0.000214273
0.000213663
0.000212551
0.000211523
0.000210184
0.000209049
0.00020791
0.000207127
0.000206509
0.000206211
0.000206056
0.000206057
0.000206104
0.000206247
0.000206323
0.000206452
0.000206537
0.000206641
0.000206705
0.000206815
0.000206886
0.000206969
0.00020703
0.000207099
0.000207147
0.000207201
0.000207245
0.000207328
0.000207386
0.000207482
0.000207527
0.000207624
0.000207652
0.000207755
0.00020778
0.000207979
0.000207966
0.000208334
0.000208264
0.000209097
0.000209027
0.000210768
0.000211047
0.000216085
6.07431e-05
0.000146877
0.000234052
0.000297286
0.00034154
0.000374557
0.000397235
0.000412401
0.000421127
0.000425871
0.000427643
0.000427691
0.000427348
0.000426511
0.000425372
0.000424339
0.000423334
0.000422489
0.000421769
0.000421271
0.000420988
0.000420933
0.000421062
0.000421422
0.000421881
0.000422417
0.000422999
0.000423615
0.000424236
0.000424894
0.000425555
0.000426261
0.000426941
0.000427669
0.000428344
0.000429082
0.000429746
0.000430494
0.000431144
0.000431907
0.000432539
0.000433322
0.000433933
0.000434745
0.000435328
0.000436177
0.000436711
0.000437627
0.000438089
0.000439069
0.0004395
0.000440495
0.000440864
0.000441939
0.00044214
0.000443296
0.000443071
0.000444114
0.000442716
0.000445337
6.07431e-05
0.000146877
0.000234052
0.000297286
0.00034154
0.000374557
0.000397235
0.000412401
0.000421127
0.000425871
0.000427643
0.000427691
0.000427348
0.000426511
0.000425372
0.000424339
0.000423334
0.000422489
0.000421769
0.000421271
0.000420988
0.000420933
0.000421062
0.000421422
0.000421881
0.000422417
0.000422999
0.000423615
0.000424236
0.000424894
0.000425554
0.000426261
0.000426941
0.000427669
0.000428344
0.000429082
0.000429745
0.000430494
0.000431143
0.000431907
0.000432538
0.000433322
0.000433932
0.000434744
0.000435326
0.000436174
0.000436707
0.000437622
0.000438083
0.00043906
0.000439489
0.000440478
0.000440844
0.000441908
0.000442105
0.000443239
0.000443009
0.000444013
0.00044261
0.000445202
1.29838e-05
4.55344e-05
7.92715e-05
0.000113204
0.000136367
0.000157014
0.000173304
0.000187565
0.000197709
0.000205301
0.00020973
0.000212592
0.000213846
0.000214503
0.000214575
0.00021456
0.000214273
0.000213663
0.000212551
0.000211523
0.000210184
0.000209049
0.00020791
0.000207127
0.000206509
0.000206212
0.000206056
0.000206057
0.000206104
0.000206246
0.000206323
0.000206456
0.000206531
0.000206647
0.000206723
0.000206811
0.000206867
0.000206951
0.000207014
0.000207088
0.000207152
0.00020721
0.000207251
0.000207333
0.000207391
0.00020748
0.000207521
0.000207613
0.000207648
0.000207775
0.000207805
0.000208007
0.000207994
0.000208367
0.000208302
0.000209148
0.000209093
0.000210853
0.000211157
0.000216265
1.27822e-05
4.39324e-05
7.46599e-05
0.000107764
0.000128347
0.000147669
0.00016074
0.000172886
0.000180572
0.000186946
0.000190258
0.00019286
0.000193853
0.00019468
0.000194804
0.000194946
0.000194881
0.000194887
0.000194816
0.000194818
0.000194777
0.000194807
0.000194811
0.000194874
0.000194898
0.000194974
0.000195004
0.000195082
0.000195106
0.000195169
0.000195206
0.000195285
0.00019532
0.000195394
0.000195433
0.000195469
0.000195487
0.000195527
0.000195552
0.000195556
0.000195555
0.000195556
0.000195574
0.000195594
0.00019563
0.00019564
0.000195655
0.000195651
0.000195664
0.000195683
0.00019574
0.000195768
0.000195799
0.000195798
0.000195799
0.000195818
0.000195816
0.000195866
0.000195832
0.000198466
1.2791e-05
4.41847e-05
7.51112e-05
0.000108639
0.00012971
0.000149291
0.0001625
0.000174629
0.000182257
0.000188546
0.000191805
0.000194367
0.000195335
0.000196159
0.000196293
0.000196471
0.000196439
0.000196491
0.000196483
0.000196546
0.000196565
0.000196652
0.000196675
0.000196748
0.000196767
0.00019683
0.000196852
0.000196915
0.000196934
0.00019699
0.000197026
0.000197093
0.000197128
0.000197203
0.000197248
0.000197287
0.000197308
0.000197352
0.000197376
0.000197382
0.000197382
0.000197378
0.000197379
0.000197383
0.00019741
0.000197419
0.000197428
0.000197429
0.000197444
0.000197482
0.000197534
0.000197531
0.000197548
0.000197551
0.00019759
0.000197601
0.000197661
0.000197679
0.000197754
0.000200221
1.27514e-05
4.39435e-05
7.4652e-05
0.000108034
0.000128827
0.000148304
0.000161402
0.000173525
0.000181131
0.000187438
0.000190691
0.00019326
0.000194221
0.000195034
0.000195154
0.000195309
0.000195262
0.000195296
0.000195265
0.000195308
0.000195304
0.00019536
0.000195379
0.00019545
0.00019547
0.000195537
0.000195562
0.000195631
0.000195652
0.000195707
0.000195741
0.000195821
0.00019586
0.000195933
0.000195975
0.000196014
0.000196035
0.000196076
0.0001961
0.000196106
0.000196106
0.000196105
0.000196114
0.000196141
0.000196164
0.000196159
0.000196165
0.000196168
0.000196185
0.000196206
0.000196268
0.000196285
0.000196315
0.000196326
0.000196351
0.000196347
0.000196348
0.000196368
0.000196383
0.000198722
1.27596e-05
4.40409e-05
7.48519e-05
0.000108321
0.000129275
0.000148813
0.000161974
0.000174105
0.000181723
0.000188023
0.000191277
0.000193841
0.000194803
0.000195619
0.000195744
0.000195908
0.000195868
0.000195911
0.00019589
0.000195942
0.000195947
0.000196012
0.000196031
0.0001961
0.000196118
0.000196182
0.000196204
0.00019627
0.00019629
0.000196347
0.000196383
0.000196455
0.00019649
0.000196565
0.000196608
0.000196648
0.000196669
0.000196712
0.000196738
0.000196745
0.000196746
0.000196742
0.000196743
0.000196749
0.000196779
0.000196783
0.000196791
0.000196794
0.00019681
0.000196849
0.0001969
0.000196897
0.000196912
0.000196917
0.000196953
0.000196971
0.000197026
0.000197051
0.000197107
0.000199457
1.27596e-05
4.40409e-05
7.48519e-05
0.000108321
0.000129275
0.000148813
0.000161974
0.000174105
0.000181723
0.000188023
0.000191277
0.000193841
0.000194803
0.000195619
0.000195744
0.000195908
0.000195868
0.000195911
0.00019589
0.000195942
0.000195947
0.000196012
0.000196031
0.0001961
0.000196118
0.000196182
0.000196205
0.00019627
0.00019629
0.000196347
0.000196383
0.000196454
0.00019649
0.000196564
0.000196608
0.000196648
0.000196669
0.000196712
0.000196739
0.000196744
0.000196744
0.000196742
0.000196745
0.000196757
0.000196784
0.000196788
0.000196811
0.000196843
0.00019687
0.000196866
0.000196882
0.000196886
0.000196904
0.000196906
0.000196938
0.000196959
0.000197024
0.000197053
0.000197111
0.00019946
1.27514e-05
4.39435e-05