/*--------------------------------*- C++ -*----------------------------------*\
  =========                 |
  \\      /  F ield         | OpenFOAM: The Open Source CFD Toolbox
   \\    /   O peration     | Website:  https://openfoam.org
    \\  /    A nd           | Version:  7
     \\/     M anipulation  |
\*---------------------------------------------------------------------------*/
FoamFile
{
    version     2.0;
    format      ascii;
    class       volScalarField;
    location    "0.2";
    object      rho;
}
// * * * * * * * * * * * * * * * * * * * * * * * * * * * * * * * * * * * * * //

dimensions      [1 -3 0 0 0 0 0];

internalField   nonuniform List<scalar> 
5280
(
1.23875
1.23626
1.23614
1.236
1.23608
1.23615
1.23618
1.23617
1.23612
1.23606
1.23598
1.2359
1.23581
1.23574
1.23564
1.23558
1.23546
1.23545
1.23525
1.23541
1.24118
1.23904
1.23818
1.23806
1.23828
1.23861
1.23883
1.23889
1.23882
1.23867
1.23846
1.23825
1.238
1.2378
1.23751
1.23735
1.23697
1.23701
1.2363
1.23746
1.24348
1.24275
1.24219
1.24198
1.2423
1.24296
1.24356
1.2439
1.24394
1.24376
1.24338
1.24296
1.24243
1.24203
1.24142
1.2411
1.24026
1.24027
1.23882
1.24029
1.24349
1.24409
1.24385
1.24368
1.24401
1.24482
1.24576
1.24651
1.2469
1.24692
1.24658
1.24608
1.24538
1.24482
1.24402
1.24355
1.24248
1.24218
1.24059
1.24108
1.24381
1.24473
1.24495
1.24482
1.24519
1.24604
1.24711
1.24811
1.24878
1.24906
1.24888
1.24842
1.24768
1.247
1.24615
1.24552
1.24449
1.24379
1.24243
1.24184
1.24367
1.24477
1.24501
1.24501
1.24545
1.24633
1.24748
1.24859
1.24942
1.24986
1.24983
1.24942
1.24871
1.24796
1.24713
1.24639
1.24547
1.24453
1.24335
1.24224
1.24367
1.24477
1.24501
1.24501
1.24545
1.24633
1.24748
1.24859
1.24943
1.24986
1.24983
1.24942
1.24872
1.24794
1.24715
1.24636
1.24551
1.24449
1.2434
1.24218
1.24381
1.24473
1.24495
1.24482
1.24519
1.24604
1.24712
1.24811
1.24879
1.24905
1.2489
1.2484
1.24771
1.24695
1.24621
1.24543
1.24461
1.24364
1.24264
1.2416
1.24349
1.24409
1.24385
1.24368
1.24401
1.24482
1.24576
1.24651
1.2469
1.24691
1.24659
1.24606
1.24542
1.24476
1.24411
1.24342
1.24268
1.24189
1.24105
1.24043
1.24348
1.24275
1.24219
1.24198
1.24229
1.24296
1.24356
1.2439
1.24395
1.24375
1.24339
1.24294
1.24246
1.24198
1.24149
1.24098
1.24045
1.23994
1.23942
1.23919
1.24118
1.23904
1.23818
1.23805
1.23828
1.23861
1.23883
1.23889
1.23882
1.23867
1.23846
1.23824
1.23801
1.23778
1.23754
1.2373
1.23707
1.23685
1.23664
1.23659
1.23875
1.23626
1.23614
1.236
1.23608
1.23615
1.23618
1.23617
1.23612
1.23605
1.23598
1.2359
1.23581
1.23573
1.23565
1.23556
1.23548
1.23541
1.23534
1.23532
1.2329
1.23364
1.23333
1.23375
1.23407
1.23432
1.23447
1.23452
1.2345
1.23444
1.23437
1.2343
1.23421
1.23415
1.23405
1.23402
1.23389
1.234
1.23367
1.23527
1.23452
1.23555
1.23578
1.23649
1.23747
1.23837
1.239
1.23931
1.23935
1.23923
1.23901
1.23878
1.23849
1.23827
1.23791
1.23779
1.23727
1.23756
1.23646
1.23889
1.23357
1.23534
1.23562
1.23647
1.23769
1.23912
1.24035
1.24116
1.24151
1.24151
1.24126
1.24095
1.24051
1.24019
1.23961
1.23938
1.23848
1.23875
1.23708
1.23926
1.23432
1.23596
1.23668
1.23765
1.239
1.24066
1.24226
1.24351
1.24423
1.24448
1.24431
1.24398
1.24345
1.24305
1.24235
1.24196
1.2409
1.2407
1.23917
1.23984
1.23388
1.23573
1.23652
1.23771
1.23915
1.24091
1.24268
1.24418
1.24518
1.24568
1.24567
1.24539
1.24486
1.2444
1.24373
1.24321
1.24223
1.24156
1.24028
1.23981
1.23411
1.23583
1.23682
1.23803
1.23952
1.24132
1.24314
1.24471
1.24583
1.24644
1.24654
1.2463
1.24581
1.24531
1.24471
1.24411
1.24325
1.24231
1.24122
1.24013
1.23411
1.23583
1.23682
1.23803
1.23952
1.24132
1.24314
1.24471
1.24583
1.24644
1.24655
1.24629
1.24582
1.24529
1.24473
1.24408
1.24329
1.24226
1.24128
1.24006
1.23388
1.23573
1.23652
1.23771
1.23915
1.24091
1.24268
1.24418
1.24519
1.24567
1.24569
1.24537
1.2449
1.24435
1.2438
1.24312
1.24236
1.2414
1.2405
1.23954
1.23432
1.23596
1.23668
1.23765
1.239
1.24066
1.24227
1.2435
1.24424
1.24447
1.24433
1.24396
1.2435
1.24298
1.24245
1.24181
1.24112
1.24037
1.23965
1.23916
1.23357
1.23534
1.23562
1.23647
1.23769
1.23912
1.24035
1.24116
1.24151
1.2415
1.24127
1.24093
1.24055
1.24013
1.23971
1.23922
1.23875
1.2383
1.23786
1.2379
1.23452
1.23555
1.23578
1.23649
1.23747
1.23837
1.239
1.23931
1.23935
1.23922
1.23901
1.23877
1.23851
1.23824
1.23797
1.23768
1.23746
1.23722
1.23714
1.23735
1.2329
1.23364
1.23333
1.23375
1.23407
1.23432
1.23447
1.23452
1.2345
1.23444
1.23437
1.23429
1.23422
1.23414
1.23407
1.23399
1.23395
1.23389
1.23396
1.23409
1.2329
1.23364
1.23333
1.23375
1.23407
1.23432
1.23447
1.23452
1.2345
1.23444
1.23437
1.2343
1.23421
1.23415
1.23405
1.23402
1.23389
1.234
1.23367
1.23527
1.23452
1.23555
1.23578
1.23649
1.23747
1.23837
1.239
1.23931
1.23935
1.23923
1.23901
1.23878
1.23849
1.23828
1.23791
1.23779
1.23727
1.23756
1.23646
1.23889
1.23357
1.23534
1.23562
1.23647
1.23769
1.23912
1.24035
1.24116
1.24151
1.24151
1.24126
1.24095
1.24051
1.24019
1.23961
1.23938
1.23848
1.23875
1.23708
1.23926
1.23432
1.23596
1.23668
1.23765
1.239
1.24066
1.24226
1.24351
1.24423
1.24448
1.24431
1.24398
1.24346
1.24305
1.24235
1.24196
1.2409
1.2407
1.23917
1.23984
1.23388
1.23573
1.23652
1.23771
1.23915
1.24091
1.24268
1.24418
1.24518
1.24568
1.24567
1.24539
1.24486
1.2444
1.24373
1.24321
1.24223
1.24156
1.24028
1.23981
1.23411
1.23583
1.23682
1.23803
1.23952
1.24132
1.24314
1.24471
1.24583
1.24644
1.24654
1.2463
1.24581
1.24531
1.24471
1.24411
1.24325
1.24231
1.24122
1.24013
1.23411
1.23583
1.23682
1.23803
1.23952
1.24132
1.24314
1.24471
1.24583
1.24644
1.24655
1.24629
1.24582
1.24529
1.24473
1.24408
1.24329
1.24226
1.24128
1.24006
1.23388
1.23573
1.23652
1.23771
1.23915
1.24091
1.24268
1.24418
1.24519
1.24567
1.24569
1.24537
1.2449
1.24435
1.2438
1.24312
1.24236
1.2414
1.2405
1.23954
1.23432
1.23596
1.23668
1.23765
1.239
1.24066
1.24227
1.2435
1.24424
1.24447
1.24433
1.24396
1.2435
1.24298
1.24245
1.24181
1.24112
1.24037
1.23965
1.23916
1.23357
1.23534
1.23562
1.23647
1.23769
1.23912
1.24035
1.24116
1.24151
1.2415
1.24127
1.24093
1.24055
1.24013
1.23971
1.23922
1.23875
1.2383
1.23786
1.2379
1.23452
1.23555
1.23578
1.23649
1.23747
1.23837
1.239
1.23931
1.23935
1.23922
1.23901
1.23877
1.23851
1.23824
1.23797
1.23768
1.23746
1.23722
1.23714
1.23735
1.2329
1.23364
1.23333
1.23375
1.23407
1.23432
1.23447
1.23452
1.2345
1.23444
1.23437
1.23429
1.23422
1.23414
1.23407
1.23399
1.23395
1.23389
1.23396
1.23409
1.23875
1.23626
1.23614
1.236
1.23608
1.23615
1.23618
1.23617
1.23612
1.23606
1.23598
1.2359
1.23581
1.23574
1.23564
1.23558
1.23546
1.23545
1.23525
1.23541
1.24118
1.23904
1.23818
1.23806
1.23828
1.23861
1.23883
1.23889
1.23882
1.23867
1.23846
1.23825
1.238
1.2378
1.23751
1.23735
1.23697
1.23701
1.2363
1.23746
1.24348
1.24275
1.24219
1.24198
1.2423
1.24296
1.24356
1.2439
1.24394
1.24376
1.24338
1.24296
1.24243
1.24203
1.24142
1.2411
1.24026
1.24027
1.23882
1.24029
1.24349
1.24409
1.24385
1.24368
1.24401
1.24482
1.24576
1.24651
1.2469
1.24692
1.24658
1.24608
1.24538
1.24482
1.24402
1.24355
1.24248
1.24218
1.24059
1.24108
1.24381
1.24473
1.24495
1.24482
1.24519
1.24604
1.24711
1.24811
1.24878
1.24906
1.24888
1.24842
1.24768
1.247
1.24615
1.24552
1.24449
1.24379
1.24243
1.24184
1.24367
1.24477
1.24501
1.24501
1.24545
1.24633
1.24748
1.24859
1.24942
1.24986
1.24983
1.24942
1.24871
1.24796
1.24713
1.24639
1.24547
1.24453
1.24335
1.24224
1.24367
1.24477
1.24501
1.24501
1.24545
1.24633
1.24748
1.24859
1.24943
1.24986
1.24983
1.24942
1.24872
1.24794
1.24715
1.24636
1.24551
1.24449
1.2434
1.24218
1.24381
1.24473
1.24495
1.24482
1.24519
1.24604
1.24712
1.24811
1.24879
1.24905
1.2489
1.2484
1.24771
1.24695
1.24621
1.24543
1.24461
1.24364
1.24264
1.2416
1.24349
1.24409
1.24385
1.24368
1.24401
1.24482
1.24576
1.24651
1.2469
1.24691
1.24659
1.24606
1.24542
1.24476
1.24411
1.24342
1.24268
1.24189
1.24105
1.24043
1.24348
1.24275
1.24219
1.24198
1.24229
1.24296
1.24356
1.2439
1.24395
1.24375
1.24339
1.24294
1.24246
1.24198
1.24149
1.24098
1.24045
1.23994
1.23942
1.23919
1.24118
1.23904
1.23818
1.23805
1.23828
1.23861
1.23883
1.23889
1.23882
1.23867
1.23846
1.23824
1.23801
1.23778
1.23754
1.2373
1.23707
1.23685
1.23664
1.23659
1.23875
1.23626
1.23614
1.236
1.23608
1.23615
1.23618
1.23617
1.23612
1.23605
1.23598
1.2359
1.23581
1.23573
1.23565
1.23556
1.23548
1.23541
1.23534
1.23532
1.22271
1.211
1.20393
1.2003
1.19864
1.19794
1.19763
1.19746
1.19733
1.19722
1.19711
1.197
1.19689
1.19678
1.19668
1.19657
1.19647
1.19636
1.19626
1.19615
1.19605
1.19595
1.19585
1.19575
1.19564
1.19554
1.19544
1.19534
1.19523
1.19513
1.19502
1.19492
1.19481
1.1947
1.19459
1.19448
1.19437
1.19426
1.19414
1.19403
1.19392
1.1938
1.19369
1.19358
1.19348
1.19338
1.19328
1.19318
1.19309
1.19301
1.19293
1.19286
1.1928
1.19274
1.19268
1.19264
1.19259
1.19256
1.19252
1.19249
1.19247
1.19245
1.19243
1.19241
1.19239
1.19238
1.19237
1.19236
1.19235
1.19234
1.19233
1.19232
1.19231
1.19231
1.1923
1.19229
1.19229
1.19228
1.19227
1.19227
1.19226
1.19226
1.19225
1.19225
1.19225
1.19225
1.19225
1.19228
1.19228
1.19236
1.22537
1.21378
1.20663
1.20286
1.20109
1.20033
1.19999
1.19982
1.19969
1.19957
1.19946
1.19936
1.19925
1.19914
1.19903
1.19893
1.19882
1.19872
1.19862
1.19851
1.19841
1.19831
1.19821
1.1981
1.198
1.1979
1.1978
1.19769
1.19759
1.19749
1.19738
1.19727
1.19717
1.19706
1.19695
1.19684
1.19672
1.19661
1.1965
1.19638
1.19627
1.19616
1.19605
1.19594
1.19583
1.19573
1.19563
1.19553
1.19545
1.19536
1.19528
1.19521
1.19515
1.19509
1.19503
1.19499
1.19494
1.19491
1.19487
1.19484
1.19482
1.19479
1.19477
1.19475
1.19474
1.19472
1.19471
1.1947
1.19469
1.19468
1.19467
1.19466
1.19465
1.19465
1.19464
1.19463
1.19462
1.19462
1.19461
1.1946
1.19459
1.19459
1.19458
1.19457
1.19457
1.19457
1.19457
1.19459
1.1946
1.19468
1.23191
1.2214
1.21424
1.21017
1.20813
1.20721
1.20679
1.20659
1.20644
1.20633
1.20621
1.2061
1.20599
1.20588
1.20577
1.20567
1.20556
1.20545
1.20535
1.20524
1.20514
1.20503
1.20493
1.20483
1.20472
1.20462
1.20452
1.20441
1.20431
1.2042
1.20409
1.20399
1.20388
1.20377
1.20365
1.20354
1.20343
1.20331
1.2032
1.20308
1.20296
1.20285
1.20274
1.20263
1.20252
1.20241
1.20231
1.20222
1.20212
1.20204
1.20196
1.20189
1.20182
1.20176
1.2017
1.20165
1.20161
1.20157
1.20153
1.2015
1.20147
1.20145
1.20142
1.2014
1.20139
1.20137
1.20136
1.20134
1.20133
1.20132
1.20131
1.20129
1.20128
1.20127
1.20126
1.20125
1.20125
1.20124
1.20123
1.20122
1.20121
1.2012
1.20119
1.20118
1.20118
1.20118
1.20118
1.2012
1.20122
1.20129
1.23587
1.22735
1.22071
1.21649
1.21418
1.21306
1.21255
1.2123
1.21215
1.21203
1.21191
1.2118
1.21169
1.21158
1.21147
1.21136
1.21125
1.21114
1.21103
1.21093
1.21082
1.21071
1.21061
1.2105
1.21039
1.21029
1.21018
1.21007
1.20996
1.20985
1.20974
1.20963
1.20952
1.20941
1.20929
1.20917
1.20906
1.20894
1.20882
1.2087
1.20858
1.20846
1.20834
1.20823
1.20812
1.20801
1.2079
1.2078
1.20771
1.20762
1.20754
1.20746
1.20739
1.20732
1.20726
1.20721
1.20716
1.20712
1.20708
1.20704
1.20701
1.20698
1.20695
1.20693
1.20691
1.20689
1.20687
1.20685
1.20683
1.20682
1.2068
1.20679
1.20677
1.20676
1.20674
1.20673
1.20672
1.2067
1.20669
1.20667
1.20666
1.20665
1.20663
1.20662
1.20661
1.20661
1.20659
1.20661
1.20661
1.20667
1.23875
1.23265
1.22702
1.22297
1.22052
1.21924
1.21864
1.21834
1.21817
1.21804
1.21792
1.21781
1.21769
1.21758
1.21746
1.21735
1.21724
1.21712
1.21701
1.2169
1.21679
1.21668
1.21657
1.21646
1.21635
1.21624
1.21612
1.21601
1.2159
1.21579
1.21567
1.21556
1.21544
1.21532
1.2152
1.21508
1.21495
1.21483
1.21471
1.21458
1.21446
1.21433
1.21421
1.21409
1.21398
1.21386
1.21375
1.21365
1.21355
1.21345
1.21336
1.21328
1.2132
1.21313
1.21307
1.21301
1.21296
1.21291
1.21286
1.21282
1.21278
1.21275
1.21272
1.21269
1.21266
1.21263
1.21261
1.21259
1.21256
1.21254
1.21252
1.2125
1.21248
1.21246
1.21244
1.21242
1.2124
1.21238
1.21236
1.21234
1.21232
1.2123
1.21229
1.21227
1.21225
1.21224
1.21222
1.21224
1.21224
1.21227
1.23962
1.23536
1.23104
1.22753
1.2252
1.22391
1.22327
1.22297
1.22279
1.22266
1.22254
1.22242
1.22231
1.22219
1.22207
1.22196
1.22184
1.22172
1.22161
1.22149
1.22138
1.22126
1.22115
1.22103
1.22092
1.2208
1.22068
1.22057
1.22045
1.22033
1.22021
1.22009
1.21997
1.21985
1.21972
1.21959
1.21947
1.21934
1.21921
1.21908
1.21895
1.21882
1.21869
1.21857
1.21845
1.21833
1.21821
1.2181
1.218
1.2179
1.2178
1.21771
1.21763
1.21756
1.21749
1.21742
1.21736
1.21731
1.21726
1.21721
1.21717
1.21713
1.21709
1.21705
1.21702
1.21699
1.21696
1.21693
1.2169
1.21687
1.21685
1.21682
1.21679
1.21677
1.21674
1.21671
1.21669
1.21666
1.21664
1.21661
1.21658
1.21656
1.21653
1.21651
1.21648
1.21647
1.21643
1.21643
1.21642
1.2164
1.23981
1.23689
1.23376
1.23094
1.22892
1.22773
1.22712
1.22681
1.22663
1.2265
1.22637
1.22625
1.22613
1.22601
1.22589
1.22577
1.22565
1.22553
1.22541
1.22529
1.22517
1.22505
1.22493
1.22481
1.22469
1.22457
1.22445
1.22433
1.22421
1.22409
1.22396
1.22384
1.22371
1.22358
1.22345
1.22332
1.22319
1.22306
1.22292
1.22279
1.22265
1.22252
1.22239
1.22226
1.22213
1.22201
1.22189
1.22177
1.22166
1.22156
1.22146
1.22137
1.22128
1.2212
1.22112
1.22105
1.22099
1.22093
1.22088
1.22082
1.22078
1.22073
1.22069
1.22065
1.22061
1.22057
1.22054
1.2205
1.22047
1.22044
1.2204
1.22037
1.22034
1.22031
1.22028
1.22025
1.22021
1.22018
1.22015
1.22012
1.22009
1.22006
1.22003
1.21999
1.21996
1.21994
1.2199
1.2199
1.21988
1.21984
1.23967
1.23772
1.2355
1.23337
1.23175
1.23074
1.2302
1.22992
1.22974
1.2296
1.22947
1.22934
1.22921
1.22909
1.22896
1.22883
1.22871
1.22859
1.22846
1.22834
1.22821
1.22809
1.22797
1.22784
1.22772
1.2276
1.22747
1.22735
1.22722
1.2271
1.22697
1.22684
1.22671
1.22658
1.22645
1.22631
1.22617
1.22604
1.2259
1.22576
1.22563
1.22549
1.22535
1.22522
1.22509
1.22496
1.22484
1.22472
1.22461
1.2245
1.2244
1.2243
1.22421
1.22413
1.22405
1.22398
1.22391
1.22385
1.22379
1.22373
1.22368
1.22363
1.22359
1.22355
1.2235
1.22346
1.22343
1.22339
1.22335
1.22332
1.22328
1.22325
1.22321
1.22318
1.22315
1.22311
1.22308
1.22305
1.22301
1.22298
1.22295
1.22291
1.22288
1.22285
1.22282
1.2228
1.22276
1.22276
1.22274
1.22271
1.23857
1.2372
1.23575
1.23428
1.23312
1.23238
1.23196
1.23172
1.23155
1.23141
1.23128
1.23115
1.23102
1.23089
1.23076
1.23063
1.23051
1.23038
1.23025
1.23013
1.23
1.22987
1.22975
1.22962
1.2295
1.22937
1.22924
1.22912
1.22899
1.22886
1.22873
1.2286
1.22847
1.22833
1.2282
1.22806
1.22792
1.22778
1.22764
1.2275
1.22736
1.22723
1.22709
1.22695
1.22682
1.22669
1.22657
1.22645
1.22634
1.22623
1.22612
1.22603
1.22594
1.22585
1.22577
1.2257
1.22563
1.22557
1.22551
1.22546
1.22541
1.22536
1.22532
1.22527
1.22523
1.2252
1.22516
1.22512
1.22509
1.22506
1.22503
1.22499
1.22496
1.22493
1.2249
1.22487
1.22484
1.22481
1.22478
1.22476
1.22473
1.2247
1.22467
1.22464
1.22461
1.2246
1.22456
1.22456
1.22454
1.22451
1.23802
1.2372
1.23628
1.23535
1.23459
1.23408
1.23377
1.23357
1.23341
1.23327
1.23313
1.233
1.23286
1.23273
1.2326
1.23247
1.23234
1.23221
1.23209
1.23196
1.23183
1.23171
1.23158
1.23145
1.23133
1.2312
1.23107
1.23094
1.23081
1.23069
1.23055
1.23042
1.23029
1.23016
1.23002
1.22988
1.22974
1.22961
1.22947
1.22933
1.22919
1.22905
1.22891
1.22878
1.22865
1.22852
1.2284
1.22828
1.22816
1.22806
1.22796
1.22786
1.22777
1.22769
1.22762
1.22755
1.22748
1.22743
1.22737
1.22732
1.22728
1.22724
1.2272
1.22717
1.22713
1.2271
1.22708
1.22705
1.22703
1.227
1.22698
1.22696
1.22694
1.22692
1.22691
1.22689
1.22687
1.22686
1.22684
1.22683
1.22681
1.2268
1.22679
1.22677
1.22676
1.22676
1.22675
1.22675
1.22676
1.22675
1.23559
1.23509
1.23458
1.23407
1.23364
1.23333
1.23312
1.23295
1.2328
1.23266
1.23253
1.2324
1.23227
1.23214
1.23201
1.23188
1.23175
1.23163
1.2315
1.23138
1.23125
1.23113
1.231
1.23088
1.23076
1.23063
1.23051
1.23038
1.23025
1.23013
1.23
1.22987
1.22974
1.2296
1.22947
1.22933
1.2292
1.22906
1.22892
1.22878
1.22864
1.22851
1.22837
1.22824
1.22811
1.22799
1.22787
1.22775
1.22764
1.22754
1.22744
1.22735
1.22727
1.2272
1.22713
1.22707
1.22701
1.22697
1.22692
1.22689
1.22685
1.22683
1.2268
1.22678
1.22677
1.22675
1.22674
1.22673
1.22673
1.22672
1.22672
1.22671
1.22671
1.22671
1.22671
1.22672
1.22672
1.22672
1.22672
1.22673
1.22673
1.22674
1.22674
1.22675
1.22675
1.22676
1.22677
1.22679
1.2268
1.22682
1.23588
1.23565
1.23537
1.23511
1.23487
1.23467
1.23451
1.23436
1.23422
1.23408
1.23395
1.23382
1.23369
1.23356
1.23343
1.23331
1.23318
1.23306
1.23294
1.23281
1.23269
1.23257
1.23245
1.23233
1.23221
1.23209
1.23197
1.23185
1.23173
1.2316
1.23148
1.23135
1.23122
1.23109
1.23096
1.23083
1.23069
1.23056
1.23042
1.23029
1.23015
1.23002
1.22988
1.22975
1.22963
1.22951
1.22939
1.22928
1.22918
1.22908
1.22899
1.22892
1.22884
1.22878
1.22873
1.22868
1.22864
1.22861
1.22858
1.22856
1.22854
1.22853
1.22853
1.22852
1.22852
1.22853
1.22853
1.22854
1.22855
1.22856
1.22858
1.22859
1.2286
1.22862
1.22864
1.22865
1.22867
1.22869
1.22871
1.22872
1.22874
1.22876
1.22878
1.2288
1.22882
1.22884
1.22886
1.22888
1.22891
1.22894
1.21261
1.19936
1.1927
1.1893
1.18784
1.18728
1.18707
1.18697
1.1869
1.18682
1.18674
1.18665
1.18656
1.18646
1.18636
1.18627
1.18617
1.18607
1.18597
1.18587
1.18577
1.18567
1.18557
1.18547
1.18537
1.18527
1.18517
1.18507
1.18497
1.18486
1.18476
1.18466
1.18455
1.18444
1.18433
1.18422
1.18411
1.184
1.18389
1.18378
1.18367
1.18355
1.18345
1.18334
1.18323
1.18313
1.18304
1.18294
1.18286
1.18277
1.1827
1.18263
1.18256
1.1825
1.18245
1.18241
1.18237
1.18233
1.1823
1.18227
1.18224
1.18222
1.1822
1.18219
1.18217
1.18216
1.18215
1.18214
1.18213
1.18212
1.18211
1.1821
1.1821
1.18209
1.18208
1.18208
1.18207
1.18206
1.18206
1.18205
1.18204
1.18203
1.18202
1.18201
1.18199
1.18197
1.18194
1.18193
1.18182
1.18176
1.22343
1.21087
1.20399
1.20033
1.19867
1.198
1.19775
1.19763
1.19755
1.19747
1.19739
1.1973
1.19721
1.19711
1.19701
1.19691
1.19681
1.19671
1.19661
1.19651
1.19641
1.19631
1.19621
1.19611
1.196
1.1959
1.1958
1.1957
1.1956
1.19549
1.19539
1.19528
1.19517
1.19507
1.19496
1.19484
1.19473
1.19462
1.19451
1.19439
1.19428
1.19417
1.19406
1.19395
1.19384
1.19374
1.19364
1.19355
1.19346
1.19337
1.1933
1.19322
1.19316
1.1931
1.19305
1.193
1.19296
1.19292
1.19288
1.19286
1.19283
1.19281
1.19279
1.19277
1.19275
1.19274
1.19273
1.19271
1.1927
1.19269
1.19269
1.19268
1.19267
1.19266
1.19265
1.19265
1.19264
1.19263
1.19262
1.19261
1.1926
1.19259
1.19258
1.19257
1.19255
1.19253
1.1925
1.19249
1.19239
1.19232
1.22916
1.21783
1.21102
1.20709
1.20518
1.20435
1.20403
1.20389
1.2038
1.20373
1.20365
1.20356
1.20347
1.20337
1.20328
1.20318
1.20308
1.20298
1.20287
1.20277
1.20267
1.20256
1.20246
1.20236
1.20226
1.20215
1.20205
1.20194
1.20184
1.20173
1.20163
1.20152
1.20141
1.2013
1.20119
1.20107
1.20096
1.20084
1.20073
1.20061
1.20049
1.20038
1.20027
1.20015
1.20005
1.19994
1.19984
1.19974
1.19965
1.19957
1.19949
1.19941
1.19934
1.19928
1.19923
1.19918
1.19913
1.19909
1.19905
1.19902
1.19899
1.19897
1.19895
1.19893
1.19891
1.19889
1.19887
1.19886
1.19885
1.19883
1.19882
1.19881
1.1988
1.19879
1.19878
1.19877
1.19876
1.19875
1.19874
1.19872
1.19871
1.1987
1.19868
1.19866
1.19864
1.19862
1.19858
1.19857
1.19847
1.19837
1.23487
1.22607
1.2198
1.21577
1.2136
1.21258
1.21215
1.21197
1.21187
1.21179
1.21171
1.21162
1.21152
1.21143
1.21133
1.21122
1.21112
1.21102
1.21091
1.2108
1.2107
1.21059
1.21049
1.21038
1.21027
1.21017
1.21006
1.20995
1.20984
1.20973
1.20962
1.20951
1.2094
1.20928
1.20917
1.20905
1.20893
1.20881
1.20869
1.20857
1.20845
1.20833
1.20821
1.2081
1.20799
1.20788
1.20777
1.20767
1.20758
1.20749
1.2074
1.20732
1.20725
1.20719
1.20713
1.20707
1.20702
1.20698
1.20694
1.2069
1.20687
1.20684
1.20681
1.20679
1.20676
1.20674
1.20672
1.2067
1.20669
1.20667
1.20665
1.20664
1.20662
1.20661
1.20659
1.20658
1.20656
1.20655
1.20653
1.20652
1.2065
1.20648
1.20646
1.20644
1.20642
1.2064
1.20635
1.20633
1.20626
1.20615
1.23689
1.23055
1.22536
1.22158
1.21933
1.2182
1.21769
1.21748
1.21737
1.21729
1.2172
1.21712
1.21702
1.21692
1.21682
1.21671
1.21661
1.2165
1.21639
1.21628
1.21617
1.21606
1.21595
1.21584
1.21573
1.21562
1.21551
1.2154
1.21528
1.21517
1.21506
1.21494
1.21482
1.2147
1.21458
1.21446
1.21434
1.21421
1.21409
1.21397
1.21384
1.21372
1.21359
1.21347
1.21336
1.21324
1.21313
1.21303
1.21293
1.21283
1.21274
1.21266
1.21258
1.21251
1.21245
1.21239
1.21233
1.21228
1.21224
1.2122
1.21216
1.21212
1.21209
1.21206
1.21203
1.21201
1.21198
1.21196
1.21194
1.21191
1.21189
1.21187
1.21185
1.21183
1.21181
1.21179
1.21177
1.21175
1.21173
1.2117
1.21168
1.21166
1.21163
1.21161
1.21157
1.21155
1.21149
1.21146
1.21139
1.21126
1.23831
1.23411
1.23013
1.22685
1.22471
1.22354
1.22299
1.22275
1.22262
1.22253
1.22244
1.22234
1.22224
1.22214
1.22203
1.22192
1.22181
1.2217
1.22159
1.22147
1.22136
1.22125
1.22113
1.22102
1.2209
1.22079
1.22067
1.22056
1.22044
1.22032
1.2202
1.22008
1.21996
1.21983
1.21971
1.21958
1.21945
1.21933
1.2192
1.21907
1.21894
1.21881
1.21868
1.21856
1.21843
1.21831
1.2182
1.21809
1.21798
1.21788
1.21779
1.2177
1.21762
1.21754
1.21747
1.2174
1.21734
1.21729
1.21724
1.21719
1.21715
1.21711
1.21707
1.21703
1.217
1.21697
1.21694
1.21691
1.21688
1.21685
1.21682
1.2168
1.21677
1.21674
1.21672
1.21669
1.21666
1.21663
1.21661
1.21658
1.21655
1.21652
1.21649
1.21646
1.21642
1.2164
1.21633
1.2163
1.21625
1.21612
1.23853
1.23572
1.23291
1.2303
1.22845
1.22739
1.22686
1.22662
1.22649
1.22639
1.2263
1.2262
1.22609
1.22598
1.22587
1.22576
1.22564
1.22553
1.22541
1.22529
1.22517
1.22506
1.22494
1.22482
1.2247
1.22458
1.22446
1.22434
1.22422
1.2241
1.22397
1.22385
1.22372
1.22359
1.22346
1.22333
1.2232
1.22307
1.22293
1.2228
1.22267
1.22253
1.2224
1.22227
1.22214
1.22202
1.2219
1.22178
1.22167
1.22157
1.22147
1.22138
1.22129
1.22121
1.22113
1.22106
1.221
1.22094
1.22088
1.22083
1.22078
1.22073
1.22069
1.22065
1.22061
1.22057
1.22054
1.2205
1.22047
1.22043
1.2204
1.22037
1.22034
1.2203
1.22027
1.22024
1.22021
1.22017
1.22014
1.22011
1.22007
1.22004
1.22
1.21996
1.21992
1.21989
1.21982
1.21978
1.21973
1.21958
1.23789
1.23584
1.23402
1.23212
1.23068
1.22982
1.22938
1.22916
1.22904
1.22895
1.22885
1.22875
1.22864
1.22853
1.22841
1.22829
1.22818
1.22806
1.22794
1.22781
1.22769
1.22757
1.22745
1.22733
1.22721
1.22708
1.22696
1.22684
1.22671
1.22658
1.22646
1.22633
1.2262
1.22607
1.22593
1.2258
1.22566
1.22553
1.22539
1.22525
1.22511
1.22498
1.22484
1.22471
1.22458
1.22445
1.22433
1.22421
1.22409
1.22398
1.22388
1.22379
1.22369
1.22361
1.22353
1.22346
1.22339
1.22333
1.22327
1.22321
1.22316
1.22311
1.22306
1.22302
1.22298
1.22294
1.2229
1.22286
1.22282
1.22278
1.22275
1.22271
1.22268
1.22264
1.2226
1.22257
1.22253
1.2225
1.22246
1.22242
1.22238
1.22234
1.2223
1.22226
1.22221
1.22217
1.2221
1.22205
1.22198
1.22182
1.2377
1.23619
1.23503
1.23371
1.23266
1.232
1.23165
1.23147
1.23135
1.23125
1.23114
1.23103
1.23092
1.2308
1.23068
1.23056
1.23043
1.23031
1.23019
1.23006
1.22994
1.22981
1.22969
1.22956
1.22944
1.22931
1.22919
1.22906
1.22893
1.2288
1.22867
1.22854
1.22841
1.22828
1.22814
1.228
1.22787
1.22773
1.22759
1.22745
1.22731
1.22717
1.22703
1.2269
1.22676
1.22663
1.22651
1.22639
1.22627
1.22616
1.22606
1.22596
1.22587
1.22578
1.2257
1.22563
1.22556
1.2255
1.22544
1.22538
1.22533
1.22528
1.22523
1.22519
1.22514
1.2251
1.22506
1.22502
1.22499
1.22495
1.22491
1.22488
1.22484
1.22481
1.22477
1.22474
1.2247
1.22467
1.22463
1.2246
1.22456
1.22452
1.22448
1.22444
1.2244
1.22436
1.2243
1.22425
1.22419
1.22404
1.23555
1.23428
1.23365
1.23282
1.23214
1.2317
1.23145
1.23131
1.23119
1.23109
1.23098
1.23086
1.23074
1.23062
1.2305
1.23038
1.23025
1.23013
1.23
1.22988
1.22975
1.22962
1.2295
1.22937
1.22924
1.22912
1.22899
1.22886
1.22873
1.2286
1.22847
1.22834
1.22821
1.22807
1.22794
1.2278
1.22766
1.22752
1.22738
1.22724
1.2271
1.22696
1.22683
1.22669
1.22656
1.22643
1.22631
1.22619
1.22607
1.22596
1.22586
1.22576
1.22567
1.22559
1.22551
1.22544
1.22537
1.22531
1.22525
1.2252
1.22515
1.2251
1.22506
1.22502
1.22498
1.22495
1.22491
1.22488
1.22485
1.22482
1.22479
1.22476
1.22473
1.2247
1.22468
1.22465
1.22463
1.2246
1.22457
1.22455
1.22452
1.22449
1.22446
1.22443
1.2244
1.22436
1.22431
1.22427
1.2242
1.22408
1.23564
1.23485
1.23451
1.23402
1.23361
1.23333
1.23314
1.23301
1.23289
1.23277
1.23265
1.23253
1.23241
1.23229
1.23216
1.23204
1.23191
1.23179
1.23166
1.23153
1.23141
1.23128
1.23116
1.23103
1.2309
1.23078
1.23065
1.23052
1.23039
1.23027
1.23013
1.23
1.22987
1.22974
1.2296
1.22946
1.22933
1.22919
1.22905
1.22891
1.22877
1.22863
1.2285
1.22836
1.22823
1.22811
1.22798
1.22787
1.22775
1.22765
1.22755
1.22745
1.22737
1.22729
1.22722
1.22715
1.22709
1.22703
1.22698
1.22694
1.2269
1.22686
1.22683
1.2268
1.22677
1.22675
1.22673
1.22671
1.22669
1.22667
1.22666
1.22665
1.22663
1.22662
1.22661
1.2266
1.22659
1.22658
1.22657
1.22656
1.22656
1.22655
1.22654
1.22653
1.22651
1.2265
1.22647
1.22646
1.22642
1.22634
1.23221
1.23177
1.23167
1.23144
1.23125
1.23108
1.23095
1.23083
1.23071
1.23059
1.23047
1.23034
1.23022
1.2301
1.22997
1.22985
1.22973
1.22961
1.22948
1.22936
1.22924
1.22912
1.229
1.22888
1.22875
1.22863
1.22851
1.22839
1.22826
1.22814
1.22801
1.22788
1.22775
1.22762
1.22749
1.22736
1.22722
1.22709
1.22695
1.22681
1.22668
1.22654
1.22641
1.22628
1.22615
1.22603
1.22591
1.2258
1.22569
1.22559
1.2255
1.22542
1.22534
1.22527
1.22521
1.22516
1.22512
1.22508
1.22504
1.22502
1.22499
1.22498
1.22496
1.22495
1.22495
1.22495
1.22494
1.22495
1.22495
1.22496
1.22496
1.22497
1.22498
1.22499
1.22501
1.22502
1.22503
1.22504
1.22506
1.22507
1.22508
1.22509
1.22511
1.22512
1.22512
1.22513
1.22513
1.22513
1.22512
1.2251
1.21261
1.19936
1.1927
1.1893
1.18784
1.18728
1.18707
1.18697
1.1869
1.18682
1.18674
1.18665
1.18656
1.18646
1.18636
1.18627
1.18617
1.18607
1.18597
1.18587
1.18577
1.18567
1.18557
1.18547
1.18537
1.18527
1.18517
1.18507
1.18497
1.18486
1.18476
1.18466
1.18455
1.18444
1.18433
1.18422
1.18411
1.184
1.18389
1.18378
1.18367
1.18355
1.18345
1.18334
1.18323
1.18313
1.18304
1.18294
1.18286
1.18277
1.1827
1.18263
1.18256
1.1825
1.18245
1.18241
1.18237
1.18233
1.1823
1.18227
1.18224
1.18222
1.1822
1.18219
1.18217
1.18216
1.18215
1.18214
1.18213
1.18212
1.18211
1.1821
1.1821
1.18209
1.18208
1.18208
1.18207
1.18206
1.18206
1.18205
1.18204
1.18203
1.18202
1.18201
1.18199
1.18197
1.18194
1.18193
1.18182
1.18176
1.22343
1.21087
1.20399
1.20033
1.19867
1.198
1.19775
1.19763
1.19755
1.19747
1.19739
1.1973
1.19721
1.19711
1.19701
1.19691
1.19681
1.19671
1.19661
1.19651
1.19641
1.19631
1.19621
1.19611
1.196
1.1959
1.1958
1.1957
1.1956
1.19549
1.19539
1.19528
1.19517
1.19507
1.19496
1.19484
1.19473
1.19462
1.19451
1.19439
1.19428
1.19417
1.19406
1.19395
1.19384
1.19374
1.19364
1.19355
1.19346
1.19337
1.1933
1.19322
1.19316
1.1931
1.19305
1.193
1.19296
1.19292
1.19288
1.19285
1.19283
1.19281
1.19279
1.19277
1.19275
1.19274
1.19273
1.19271
1.1927
1.19269
1.19268
1.19268
1.19267
1.19266
1.19265
1.19265
1.19264
1.19263
1.19262
1.19261
1.1926
1.19259
1.19258
1.19257
1.19255
1.19253
1.1925
1.19249
1.19239
1.19232
1.22916
1.21783
1.21102
1.20709
1.20518
1.20435
1.20403
1.20389
1.2038
1.20373
1.20365
1.20356
1.20347
1.20337
1.20328
1.20318
1.20308
1.20298
1.20287
1.20277
1.20267
1.20256
1.20246
1.20236
1.20226
1.20215
1.20205
1.20194
1.20184
1.20173
1.20163
1.20152
1.20141
1.2013
1.20119
1.20107
1.20096
1.20084
1.20073
1.20061
1.20049
1.20038
1.20027
1.20015
1.20005
1.19994
1.19984
1.19974
1.19965
1.19957
1.19949
1.19941
1.19934
1.19928
1.19923
1.19918
1.19913
1.19909
1.19905
1.19902
1.19899
1.19897
1.19895
1.19893
1.19891
1.19889
1.19887
1.19886
1.19885
1.19883
1.19882
1.19881
1.1988
1.19879
1.19878
1.19877
1.19876
1.19875
1.19874
1.19872
1.19871
1.1987
1.19868
1.19866
1.19864
1.19862
1.19858
1.19857
1.19847
1.19837
1.23487
1.22607
1.2198
1.21577
1.2136
1.21258
1.21215
1.21197
1.21187
1.21179
1.21171
1.21162
1.21152
1.21143
1.21133
1.21122
1.21112
1.21102
1.21091
1.2108
1.2107
1.21059
1.21049
1.21038
1.21027
1.21017
1.21006
1.20995
1.20984
1.20973
1.20962
1.20951
1.2094
1.20928
1.20917
1.20905
1.20893
1.20881
1.20869
1.20857
1.20845
1.20833
1.20821
1.2081
1.20799
1.20788
1.20777
1.20767
1.20758
1.20749
1.2074
1.20732
1.20725
1.20719
1.20713
1.20707
1.20702
1.20698
1.20694
1.2069
1.20687
1.20684
1.20681
1.20679
1.20676
1.20674
1.20672
1.2067
1.20669
1.20667
1.20665
1.20664
1.20662
1.20661
1.20659
1.20658
1.20656
1.20655
1.20653
1.20652
1.2065
1.20648
1.20646
1.20644
1.20642
1.2064
1.20635
1.20633
1.20626
1.20615
1.23689
1.23055
1.22536
1.22158
1.21933
1.2182
1.21769
1.21748
1.21737
1.21729
1.2172
1.21712
1.21702
1.21692
1.21682
1.21671
1.21661
1.2165
1.21639
1.21628
1.21617
1.21606
1.21595
1.21584
1.21573
1.21562
1.21551
1.2154
1.21528
1.21517
1.21506
1.21494
1.21482
1.2147
1.21458
1.21446
1.21434
1.21421
1.21409
1.21397
1.21384
1.21372
1.21359
1.21347
1.21336
1.21324
1.21313
1.21303
1.21293
1.21283
1.21274
1.21266
1.21258
1.21251
1.21245
1.21239
1.21233
1.21228
1.21224
1.2122
1.21216
1.21212
1.21209
1.21206
1.21203
1.21201
1.21198
1.21196
1.21194
1.21191
1.21189
1.21187
1.21185
1.21183
1.21181
1.21179
1.21177
1.21175
1.21173
1.2117
1.21168
1.21166
1.21163
1.21161
1.21157
1.21155
1.21149
1.21146
1.21139
1.21126
1.23831
1.23411
1.23013
1.22685
1.22471
1.22354
1.22299
1.22275
1.22262
1.22253
1.22244
1.22234
1.22224
1.22214
1.22203
1.22192
1.22181
1.2217
1.22159
1.22147
1.22136
1.22125
1.22113
1.22102
1.2209
1.22079
1.22067
1.22056
1.22044
1.22032
1.2202
1.22008
1.21996
1.21983
1.21971
1.21958
1.21945
1.21933
1.2192
1.21907
1.21894
1.21881
1.21868
1.21856
1.21843
1.21831
1.2182
1.21809
1.21798
1.21788
1.21779
1.2177
1.21762
1.21754
1.21747
1.2174
1.21734
1.21729
1.21724
1.21719
1.21715
1.21711
1.21707
1.21703
1.217
1.21697
1.21694
1.21691
1.21688
1.21685
1.21682
1.2168
1.21677
1.21674
1.21672
1.21669
1.21666
1.21663
1.21661
1.21658
1.21655
1.21652
1.21649
1.21646
1.21642
1.2164
1.21633
1.2163
1.21625
1.21612
1.23853
1.23572
1.23291
1.2303
1.22845
1.22739
1.22686
1.22662
1.22649
1.22639
1.2263
1.2262
1.22609
1.22598
1.22587
1.22576
1.22564
1.22553
1.22541
1.22529
1.22517
1.22506
1.22494
1.22482
1.2247
1.22458
1.22446
1.22434
1.22422
1.2241
1.22397
1.22385
1.22372
1.22359
1.22346
1.22333
1.2232
1.22307
1.22293
1.2228
1.22267
1.22253
1.2224
1.22227
1.22214
1.22202
1.2219
1.22178
1.22167
1.22157
1.22147
1.22138
1.22129
1.22121
1.22113