/*--------------------------------*- C++ -*----------------------------------*\
  =========                 |
  \\      /  F ield         | OpenFOAM: The Open Source CFD Toolbox
   \\    /   O peration     | Website:  https://openfoam.org
    \\  /    A nd           | Version:  7
     \\/     M anipulation  |
\*---------------------------------------------------------------------------*/
FoamFile
{
    version     2.0;
    format      ascii;
    class       volScalarField;
    location    "0.6975";
    object      k;
}
// * * * * * * * * * * * * * * * * * * * * * * * * * * * * * * * * * * * * * //

dimensions      [0 2 -2 0 0 0 0];

internalField   nonuniform List<scalar> 
1600
(
2.70206e-05
1.8533e-05
1.16062e-05
7.63654e-06
5.42619e-06
4.10484e-06
3.23654e-06
2.61728e-06
2.15227e-06
1.79428e-06
1.5151e-06
1.29519e-06
1.12019e-06
9.79535e-07
8.65514e-07
7.72444e-07
6.96051e-07
6.33042e-07
5.80831e-07
5.37371e-07
5.0103e-07
4.70504e-07
4.44754e-07
4.22945e-07
4.04404e-07
3.88589e-07
3.75055e-07
3.6344e-07
3.53442e-07
3.44814e-07
3.37346e-07
3.30864e-07
3.25216e-07
3.20264e-07
3.15855e-07
3.11743e-07
3.07399e-07
3.01495e-07
2.90688e-07
2.72255e-07
2.62486e-05
2.8246e-05
2.49669e-05
1.95406e-05
1.50827e-05
1.18353e-05
9.48493e-06
7.72857e-06
6.3795e-06
5.32942e-06
4.5062e-06
3.85603e-06
3.33778e-06
2.92073e-06
2.58229e-06
2.3058e-06
2.07869e-06
1.89126e-06
1.73587e-06
1.60647e-06
1.49822e-06
1.40725e-06
1.33046e-06
1.26536e-06
1.20998e-06
1.16267e-06
1.12214e-06
1.0873e-06
1.05725e-06
1.03127e-06
1.00874e-06
9.89134e-07
9.72029e-07
9.57033e-07
9.43756e-07
9.31678e-07
9.1991e-07
9.069e-07
8.90092e-07
8.68877e-07
2.41217e-05
2.87779e-05
2.88153e-05
2.6092e-05
2.19925e-05
1.8254e-05
1.5117e-05
1.25471e-05
1.04652e-05
8.79584e-06
7.46548e-06
6.40475e-06
5.55416e-06
4.86679e-06
4.30727e-06
3.84909e-06
3.4721e-06
3.16061e-06
2.90218e-06
2.68685e-06
2.50664e-06
2.35512e-06
2.22716e-06
2.11862e-06
2.02618e-06
1.94715e-06
1.87934e-06
1.82096e-06
1.77053e-06
1.72682e-06
1.68883e-06
1.6557e-06
1.62672e-06
1.60128e-06
1.57885e-06
1.55887e-06
1.54064e-06
1.52341e-06
1.50669e-06
1.49213e-06
2.26164e-05
2.65477e-05
2.80234e-05
2.74607e-05
2.55007e-05
2.26134e-05
1.95805e-05
1.67245e-05
1.42078e-05
1.20858e-05
1.03419e-05
8.92341e-06
7.77012e-06
6.8287e-06
6.0565e-06
5.42048e-06
4.89488e-06
4.45923e-06
4.09697e-06
3.79463e-06
3.54127e-06
3.32802e-06
3.14771e-06
2.99457e-06
2.86396e-06
2.7521e-06
2.65595e-06
2.57299e-06
2.50115e-06
2.43874e-06
2.38432e-06
2.33673e-06
2.29497e-06
2.25823e-06
2.22588e-06
2.19737e-06
2.17233e-06
2.15064e-06
2.13282e-06
2.12074e-06
2.13956e-05
2.40155e-05
2.60486e-05
2.68987e-05
2.64351e-05
2.49214e-05
2.25451e-05
1.98984e-05
1.73158e-05
1.49921e-05
1.2997e-05
1.13233e-05
9.93085e-06
8.77409e-06
7.8122e-06
7.01149e-06
6.34437e-06
5.78802e-06
5.32327e-06
4.93407e-06
4.60702e-06
4.3311e-06
4.0973e-06
3.89831e-06
3.72821e-06
3.58218e-06
3.45632e-06
3.34742e-06
3.25285e-06
3.17042e-06
3.09831e-06
3.03502e-06
2.97929e-06
2.93012e-06
2.88673e-06
2.8486e-06
2.81553e-06
2.7878e-06
2.76639e-06
2.75317e-06
2.11356e-05
2.257e-05
2.42003e-05
2.55637e-05
2.59407e-05
2.53796e-05
2.39452e-05
2.18393e-05
1.95304e-05
1.72858e-05
1.52484e-05
1.34658e-05
1.19341e-05
1.06286e-05
9.52087e-06
8.58373e-06
7.79296e-06
7.12695e-06
6.56641e-06
6.09429e-06
5.69575e-06
5.35822e-06
5.07123e-06
4.82618e-06
4.61603e-06
4.43504e-06
4.27851e-06
4.14259e-06
4.02413e-06
3.92049e-06
3.8295e-06
3.74933e-06
3.67849e-06
3.61575e-06
3.5602e-06
3.51125e-06
3.46877e-06
3.43325e-06
3.406e-06
3.38937e-06
2.0816e-05
2.1473e-05
2.24558e-05
2.37705e-05
2.46693e-05
2.47013e-05
2.40151e-05
2.25776e-05
2.07568e-05
1.88198e-05
1.69403e-05
1.52088e-05
1.36586e-05
1.22932e-05
1.11032e-05
1.00744e-05
9.19095e-06
8.43653e-06
7.79463e-06
7.24935e-06
6.78599e-06
6.39138e-06
6.05423e-06
5.76505e-06
5.51599e-06
5.30058e-06
5.11349e-06
4.95036e-06
4.80757e-06
4.68212e-06
4.57152e-06
4.47368e-06
4.38688e-06
4.30972e-06
4.24114e-06
4.18043e-06
4.12742e-06
4.08271e-06
4.04792e-06
4.0263e-06
2.07781e-05
2.09142e-05
2.12745e-05
2.21737e-05
2.30774e-05
2.3423e-05
2.32419e-05
2.24262e-05
2.11029e-05
1.95857e-05
1.80003e-05
1.64518e-05
1.49986e-05
1.36682e-05
1.24708e-05
1.14074e-05
1.0474e-05
9.6625e-06
8.96212e-06
8.36035e-06
7.84427e-06
7.40151e-06
7.02083e-06
6.69242e-06
6.40802e-06
6.16078e-06
5.94496e-06
5.75583e-06
5.58947e-06
5.44262e-06
5.31255e-06
5.19699e-06
5.09404e-06
5.00216e-06
4.92014e-06
4.84717e-06
4.78301e-06
4.72822e-06
4.68473e-06
4.65696e-06
2.09933e-05
2.05639e-05
2.05301e-05
2.097e-05
2.16526e-05
2.20315e-05
2.2009e-05
2.16673e-05
2.08337e-05
1.96957e-05
1.84538e-05
1.71652e-05
1.5894e-05
1.468e-05
1.35472e-05
1.25097e-05
1.15751e-05
1.07448e-05
1.00156e-05
9.38017e-06
8.82891e-06
8.35145e-06
7.93765e-06
7.57818e-06
7.26486e-06
6.99078e-06
6.75013e-06
6.53805e-06
6.35046e-06
6.18398e-06
6.03578e-06
5.90347e-06
5.78507e-06
5.67894e-06
5.58379e-06
5.49871e-06
5.42334e-06
5.35819e-06
5.3054e-06
5.27064e-06
2.08926e-05
2.02874e-05
2.00991e-05
2.02194e-05
2.05405e-05
2.07666e-05
2.07674e-05
2.05928e-05
2.01249e-05
1.93702e-05
1.84152e-05
1.73948e-05
1.63463e-05
1.53009e-05
1.42879e-05
1.33287e-05
1.24393e-05
1.16298e-05
1.09043e-05
1.02615e-05
9.6963e-06
9.20115e-06
8.76785e-06
8.38833e-06
8.05508e-06
7.76151e-06
7.50204e-06
7.27193e-06
7.06716e-06
6.88438e-06
6.72074e-06
6.57389e-06
6.44182e-06
6.32289e-06
6.21576e-06
6.11946e-06
6.03354e-06
5.95842e-06
5.89632e-06
5.85408e-06
2.05941e-05
2.01049e-05
1.97924e-05
1.96859e-05
1.97097e-05
1.97302e-05
1.96849e-05
1.95366e-05
1.92189e-05
1.87108e-05
1.80541e-05
1.72658e-05
1.64183e-05
1.55566e-05
1.4692e-05
1.38457e-05
1.30371e-05
1.2282e-05
1.15904e-05
1.09663e-05
1.04091e-05
9.91462e-06
9.47717e-06
9.09033e-06
8.74782e-06
8.44381e-06
8.17316e-06
7.9315e-06
7.71508e-06
7.52068e-06
7.34563e-06
7.18764e-06
7.04479e-06
6.9155e-06
6.79845e-06
6.69266e-06
6.5976e-06
6.51359e-06
6.44282e-06
6.39312e-06
2.04462e-05
2.0112e-05
1.96075e-05
1.92849e-05
1.90929e-05
1.89445e-05
1.87941e-05
1.86084e-05
1.83405e-05
1.79577e-05
1.74645e-05
1.68825e-05
1.62308e-05
1.55226e-05
1.48018e-05
1.40806e-05
1.33718e-05
1.26932e-05
1.2058e-05
1.14739e-05
1.0944e-05
1.04672e-05
1.00404e-05
9.65901e-06
9.31824e-06
9.01332e-06
8.73984e-06
8.49394e-06
8.27225e-06
8.07188e-06
7.89035e-06
7.72557e-06
7.57575e-06
7.4394e-06
7.31531e-06
7.20252e-06
7.10046e-06
7.00933e-06
6.93119e-06
6.87453e-06
2.02767e-05
2.00259e-05
1.95039e-05
1.90366e-05
1.86735e-05
1.83764e-05
1.81151e-05
1.7862e-05
1.7581e-05
1.72414e-05
1.68346e-05
1.63675e-05
1.58499e-05
1.52952e-05
1.47011e-05
1.40862e-05
1.34776e-05
1.2884e-05
1.23169e-05
1.17863e-05
1.12972e-05
1.08511e-05
1.04468e-05
1.00817e-05
9.7524e-06
9.45527e-06
9.18681e-06
8.94375e-06
8.7232e-06
8.52265e-06
8.33991e-06
8.17308e-06
8.02058e-06
7.88104e-06
7.75334e-06
7.63659e-06
7.53022e-06
7.43431e-06
7.35068e-06
7.2881e-06
2.02409e-05
2.00269e-05
1.94978e-05
1.89164e-05
1.84209e-05
1.79986e-05
1.76335e-05
1.73034e-05
1.69791e-05
1.66345e-05
1.62577e-05
1.58483e-05
1.54091e-05
1.49431e-05
1.44524e-05
1.3943e-05
1.34187e-05
1.28992e-05
1.24003e-05
1.19274e-05
1.14854e-05
1.10771e-05
1.07028e-05
1.03613e-05
1.00505e-05
9.76772e-06
9.51044e-06
9.27602e-06
9.06207e-06
8.86647e-06
8.68732e-06
8.52296e-06
8.37198e-06
8.23314e-06
8.10542e-06
7.98799e-06
7.88028e-06
7.78225e-06
7.69544e-06
7.62841e-06
2.03997e-05
2.01616e-05
1.95487e-05
1.88819e-05
1.82931e-05
1.77763e-05
1.73232e-05
1.69185e-05
1.65396e-05
1.6165e-05
1.57833e-05
1.53911e-05
1.49876e-05
1.45713e-05
1.41411e-05
1.36985e-05
1.32494e-05
1.28012e-05
1.23604e-05
1.19382e-05
1.1542e-05
1.11726e-05
1.08306e-05
1.05158e-05
1.02269e-05
9.96221e-06
9.71985e-06
9.49785e-06
9.29427e-06
9.10734e-06
8.93546e-06
8.77718e-06
8.63122e-06
8.49648e-06
8.37199e-06
8.25696e-06
8.15081e-06
8.05338e-06
7.96583e-06
7.89614e-06
2.09014e-05
2.01536e-05
1.9509e-05
1.8863e-05
1.82429e-05
1.76681e-05
1.71467e-05
1.6676e-05
1.62422e-05
1.5829e-05
1.54255e-05
1.50272e-05
1.46316e-05
1.4236e-05
1.38376e-05
1.34358e-05
1.3033e-05
1.26338e-05
1.22444e-05
1.18695e-05
1.1512e-05
1.11759e-05
1.08638e-05
1.05748e-05
1.03078e-05
1.00618e-05
9.83549e-06
9.62735e-06
9.43586e-06
9.25956e-06
9.09709e-06
8.94717e-06
8.80863e-06
8.68043e-06
8.56166e-06
8.45153e-06
8.34941e-06
8.255e-06
8.16903e-06
8.09855e-06
2.03599e-05
1.99597e-05
1.94196e-05
1.88361e-05
1.82267e-05
1.76239e-05
1.70543e-05
1.65316e-05
1.60519e-05
1.56032e-05
1.5175e-05
1.47618e-05
1.43604e-05
1.39682e-05
1.35824e-05
1.32016e-05
1.28264e-05
1.2459e-05
1.21028e-05
1.17609e-05
1.14357e-05
1.11293e-05
1.08418e-05
1.05739e-05
1.0326e-05
1.00969e-05
9.88547e-06
9.69058e-06
9.51103e-06
9.34561e-06
9.19312e-06
9.05241e-06
8.92241e-06
8.80209e-06
8.69056e-06
8.58698e-06
8.49065e-06
8.40112e-06
8.31869e-06
8.24914e-06
2.06931e-05
2.01039e-05
1.94723e-05
1.88456e-05
1.82208e-05
1.75968e-05
1.69965e-05
1.6441e-05
1.59322e-05
1.54597e-05
1.50129e-05
1.45857e-05
1.41752e-05
1.37791e-05
1.33957e-05
1.30236e-05
1.26626e-05
1.23136e-05
1.19781e-05
1.16577e-05
1.13538e-05
1.10673e-05
1.07987e-05
1.05484e-05
1.03156e-05
1.01e-05
9.90084e-06
9.71726e-06
9.54822e-06
9.39266e-06
9.24954e-06
9.11777e-06
8.99632e-06
8.8842e-06
8.78045e-06
8.6842e-06
8.59466e-06
8.51121e-06
8.43372e-06
8.36649e-06
2.04906e-05
2.01007e-05
1.94936e-05
1.88463e-05
1.81994e-05
1.75587e-05
1.69465e-05
1.63802e-05
1.58607e-05
1.53778e-05
1.49213e-05
1.44853e-05
1.40675e-05
1.36668e-05
1.32821e-05
1.29127e-05
1.25581e-05
1.22187e-05
1.18948e-05
1.15872e-05
1.12965e-05
1.1023e-05
1.07669e-05
1.05282e-05
1.03063e-05
1.01009e-05
9.91121e-06
9.73659e-06
9.57616e-06
9.42897e-06
9.29402e-06
9.1703e-06
9.0568e-06
8.95249e-06
8.8564e-06
8.76757e-06
8.68512e-06
8.60829e-06
8.53659e-06
8.47265e-06
2.04134e-05
2.01187e-05
1.94941e-05
1.88472e-05
1.81877e-05
1.75345e-05
1.69184e-05
1.63525e-05
1.58326e-05
1.53475e-05
1.48875e-05
1.44475e-05
1.4026e-05
1.36225e-05
1.32367e-05
1.28682e-05
1.25168e-05
1.21823e-05
1.18649e-05
1.15647e-05
1.12818e-05
1.10163e-05
1.07681e-05
1.05368e-05
1.03223e-05
1.01242e-05
9.94181e-06
9.77439e-06
9.62108e-06
9.48097e-06
9.35313e-06
9.23658e-06
9.13029e-06
9.03322e-06
8.94434e-06
8.86265e-06
8.78716e-06
8.717e-06
8.65142e-06
8.59129e-06
2.06977e-05
2.01642e-05
1.95435e-05
1.89148e-05
1.82343e-05
1.75607e-05
1.69342e-05
1.63647e-05
1.58438e-05
1.53581e-05
1.48976e-05
1.44573e-05
1.40357e-05
1.36323e-05
1.32473e-05
1.28804e-05
1.25315e-05
1.22004e-05
1.18873e-05
1.1592e-05
1.13146e-05
1.1055e-05
1.0813e-05
1.05883e-05
1.03805e-05
1.0189e-05
1.00132e-05
9.85227e-06
9.70551e-06
9.57204e-06
9.45091e-06
9.34115e-06
9.2417e-06
9.15151e-06
9.06948e-06
8.99457e-06
8.92572e-06
8.86195e-06
8.80245e-06
8.74616e-06
2.05559e-05
2.01827e-05
1.97045e-05
1.91189e-05
1.84004e-05
1.7676e-05
1.70153e-05
1.64273e-05
1.58966e-05
1.54062e-05
1.49441e-05
1.45042e-05
1.4084e-05
1.3683e-05
1.33009e-05
1.29378e-05
1.25934e-05
1.22677e-05
1.19606e-05
1.16719e-05
1.14013e-05
1.11487e-05
1.09137e-05
1.06961e-05
1.04953e-05
1.03108e-05
1.01421e-05
9.98838e-06
9.8489e-06
9.72273e-06
9.60891e-06
9.50638e-06
9.41405e-06
9.33082e-06
9.25556e-06
9.18716e-06
9.12456e-06
9.0667e-06
9.01289e-06
8.95998e-06
2.06306e-05
2.03453e-05
1.99281e-05
1.93692e-05
1.86424e-05
1.78809e-05
1.71784e-05
1.65565e-05
1.60034e-05
1.55007e-05
1.50339e-05
1.45939e-05
1.41763e-05
1.37791e-05
1.34016e-05
1.30438e-05
1.27057e-05
1.2387e-05
1.20877e-05
1.18074e-05
1.15457e-05
1.13023e-05
1.10767e-05
1.08685e-05
1.06773e-05
1.05025e-05
1.03435e-05
1.01994e-05
1.00694e-05
9.95246e-06
9.84755e-06
9.75352e-06
9.66921e-06
9.59344e-06
9.52507e-06
9.46297e-06
9.40609e-06
9.35335e-06
9.30445e-06
9.25377e-06
2.04009e-05
2.02592e-05
1.99784e-05
1.95209e-05
1.88379e-05
1.80761e-05
1.73537e-05
1.67087e-05
1.61374e-05
1.56244e-05
1.51543e-05
1.4716e-05
1.43028e-05
1.39115e-05
1.35413e-05
1.31918e-05
1.28631e-05
1.25552e-05
1.22677e-05
1.20002e-05
1.1752e-05
1.15225e-05
1.13111e-05
1.11173e-05
1.09404e-05
1.07797e-05
1.06345e-05
1.05038e-05
1.03867e-05
1.02818e-05
1.01882e-05
1.01044e-05
1.00292e-05
9.96144e-06
9.89994e-06
9.84361e-06
9.79151e-06
9.74253e-06
9.69716e-06
9.64664e-06
2.04052e-05
2.03271e-05
2.00124e-05
1.95638e-05
1.89164e-05
1.81879e-05
1.74828e-05
1.68445e-05
1.62756e-05
1.57652e-05
1.53e-05
1.48688e-05
1.44643e-05
1.40831e-05
1.37241e-05
1.33874e-05
1.30731e-05
1.27813e-05
1.25114e-05
1.22628e-05
1.20345e-05
1.18255e-05
1.16348e-05
1.14616e-05
1.1305e-05
1.11641e-05
1.10379e-05
1.09251e-05
1.08246e-05
1.0735e-05
1.06548e-05
1.05827e-05
1.05174e-05
1.04575e-05
1.04022e-05
1.03503e-05
1.03011e-05
1.02537e-05
1.02096e-05
1.01561e-05
2.03545e-05
2.01607e-05
1.98601e-05
1.94457e-05
1.88575e-05
1.81941e-05
1.75464e-05
1.69499e-05
1.64096e-05
1.59203e-05
1.54725e-05
1.50575e-05
1.46693e-05
1.43051e-05
1.39643e-05
1.36474e-05
1.33549e-05
1.30868e-05
1.28424e-05
1.26208e-05
1.24205e-05
1.22399e-05
1.20775e-05
1.19321e-05
1.18024e-05
1.16869e-05
1.15846e-05
1.14938e-05
1.1413e-05
1.13407e-05
1.12752e-05
1.1215e-05
1.11589e-05
1.11056e-05
1.10542e-05
1.10042e-05
1.09551e-05
1.09058e-05
1.08599e-05
1.07992e-05
2.01264e-05
2.00219e-05
1.98232e-05
1.94322e-05
1.88541e-05
1.82224e-05
1.76188e-05
1.70668e-05
1.65653e-05
1.61086e-05
1.56894e-05
1.53011e-05
1.49395e-05
1.46028e-05
1.4291e-05
1.40047e-05
1.37447e-05
1.35109e-05
1.33024e-05
1.31175e-05
1.29543e-05
1.28105e-05
1.2684e-05
1.25729e-05
1.24753e-05
1.23897e-05
1.23143e-05
1.22475e-05
1.21875e-05
1.21324e-05
1.20806e-05
1.20305e-05
1.1981e-05
1.19311e-05
1.18804e-05
1.18284e-05
1.17754e-05
1.17202e-05
1.1669e-05
1.15965e-05
2.02073e-05
2.00968e-05
1.9919e-05
1.95611e-05
1.89723e-05
1.83469e-05
1.77697e-05
1.72513e-05
1.67869e-05
1.63676e-05
1.59861e-05
1.56368e-05
1.53164e-05
1.50229e-05
1.47559e-05
1.45158e-05
1.43027e-05
1.41163e-05
1.39552e-05
1.38173e-05
1.36998e-05
1.35997e-05
1.35143e-05
1.34411e-05
1.33779e-05
1.33229e-05
1.32742e-05
1.323e-05
1.31885e-05
1.31479e-05
1.31063e-05
1.30626e-05
1.30157e-05
1.29651e-05
1.29108e-05
1.28529e-05
1.27922e-05
1.27276e-05
1.26676e-05
1.25799e-05
2.07502e-05
2.03919e-05
2.01387e-05
1.97809e-05
1.9187e-05
1.85754e-05
1.80271e-05
1.75466e-05
1.71237e-05
1.675e-05
1.642e-05
1.61287e-05
1.58712e-05
1.56434e-05
1.54429e-05
1.52683e-05
1.51187e-05
1.4993e-05
1.48896e-05
1.48058e-05
1.47385e-05
1.46844e-05
1.46402e-05
1.46036e-05
1.45721e-05
1.4544e-05
1.45175e-05
1.44913e-05
1.44636e-05
1.44328e-05
1.43972e-05
1.43558e-05
1.43079e-05
1.42535e-05
1.41929e-05
1.41269e-05
1.40567e-05
1.3981e-05
1.39107e-05
1.38066e-05
2.06327e-05
2.03845e-05
2.02825e-05
1.99943e-05
1.9455e-05
1.89188e-05
1.84394e-05
1.80179e-05
1.76521e-05
1.73436e-05
1.70902e-05
1.68855e-05
1.67208e-05
1.65868e-05
1.64767e-05
1.63866e-05
1.63136e-05
1.62565e-05
1.62139e-05
1.6184e-05
1.61638e-05
1.61505e-05
1.61415e-05
1.61345e-05
1.61279e-05
1.61201e-05
1.61099e-05
1.60965e-05
1.6079e-05
1.60552e-05
1.60237e-05
1.59838e-05
1.5935e-05
1.58774e-05
1.58117e-05
1.5739e-05
1.56607e-05
1.55756e-05
1.54953e-05
1.53764e-05
2.06783e-05
2.05599e-05
2.05603e-05
2.03397e-05
1.98905e-05
1.94709e-05
1.9101e-05
1.87775e-05
1.85091e-05
1.83088e-05
1.81718e-05
1.80892e-05
1.80479e-05
1.80308e-05
1.80262e-05
1.80275e-05
1.80311e-05
1.80374e-05
1.80473e-05
1.80608e-05
1.80768e-05
1.80939e-05
1.81108e-05
1.81261e-05
1.8139e-05
1.81487e-05
1.81536e-05
1.81535e-05
1.81493e-05
1.81367e-05
1.81134e-05
1.80805e-05
1.80363e-05
1.79809e-05
1.79151e-05
1.78399e-05
1.7757e-05
1.76651e-05
1.75747e-05
1.74425e-05
2.08027e-05
2.11605e-05
2.12054e-05
2.09268e-05
2.05775e-05
2.03387e-05
2.01666e-05
2.00354e-05
1.99501e-05
1.99317e-05
1.99542e-05
2.00153e-05
2.0108e-05
2.0204e-05
2.02912e-05
2.03651e-05
2.04256e-05
2.04761e-05
2.05211e-05
2.05639e-05
2.06062e-05
2.06485e-05
2.06903e-05
2.0731e-05
2.07698e-05
2.08058e-05
2.08377e-05
2.08639e-05
2.08825e-05
2.0888e-05
2.08838e-05
2.08686e-05
2.08359e-05
2.07869e-05
2.07232e-05
2.0646e-05
2.0557e-05
2.04549e-05
2.03479e-05
2.01966e-05
2.09686e-05
2.13953e-05
2.15043e-05
2.14907e-05
2.15489e-05
2.17354e-05
2.19629e-05
2.21898e-05
2.24096e-05
2.26277e-05
2.28366e-05
2.30318e-05
2.32097e-05
2.33633e-05
2.34907e-05
2.35946e-05
2.36808e-05
2.37567e-05
2.38293e-05
2.39037e-05
2.39824e-05
2.40657e-05
2.41521e-05
2.42394e-05
2.43256e-05
2.44086e-05
2.44849e-05
2.45505e-05
2.4603e-05
2.46363e-05
2.46465e-05
2.46406e-05
2.46162e-05
2.45618e-05
2.44844e-05
2.43877e-05
2.4273e-05
2.41399e-05
2.3994e-05
2.38014e-05
2.09831e-05
2.15927e-05
2.20482e-05
2.26542e-05
2.34232e-05
2.42808e-05
2.5119e-05
2.58591e-05
2.64615e-05
2.69205e-05
2.72517e-05
2.74863e-05
2.76574e-05
2.77916e-05
2.79065e-05
2.80142e-05
2.8123e-05
2.82391e-05
2.83665e-05
2.85065e-05
2.86574e-05
2.88154e-05
2.89747e-05
2.91296e-05
2.92763e-05
2.94103e-05
2.95251e-05
2.96124e-05
2.96749e-05
2.97002e-05
2.96918e-05
2.96567e-05
2.95803e-05
2.94685e-05
2.93274e-05
2.91601e-05
2.89697e-05
2.87567e-05
2.85266e-05
2.82503e-05
2.25001e-05
2.30122e-05
2.39204e-05
2.54934e-05
2.73014e-05
2.90525e-05
3.05889e-05
3.18169e-05
3.27016e-05
3.32699e-05
3.35933e-05
3.37666e-05
3.38752e-05
3.3976e-05
3.40972e-05
3.42479e-05
3.44268e-05
3.46294e-05
3.48498e-05
3.50802e-05
3.53114e-05
3.55338e-05
3.57364e-05
3.59116e-05
3.60585e-05
3.61688e-05
3.62333e-05
3.62367e-05
3.62082e-05
3.61278e-05
3.59845e-05
3.57959e-05
3.55638e-05
3.5294e-05
3.4993e-05
3.4666e-05
3.43185e-05
3.39519e-05
3.35746e-05
3.31635e-05
2.24071e-05
2.53854e-05
2.81526e-05
3.15513e-05
3.48211e-05
3.74812e-05
3.9482e-05
4.08861e-05
4.17867e-05
4.23007e-05
4.25505e-05
4.26784e-05
4.27896e-05
4.29333e-05
4.312e-05
4.33374e-05
4.35688e-05
4.37985e-05
4.40153e-05
4.42069e-05
4.43613e-05
4.44684e-05
4.45152e-05
4.45042e-05
4.44483e-05
4.43209e-05
4.41161e-05
4.38411e-05
4.35049e-05
4.31107e-05
4.26606e-05
4.2163e-05
4.16305e-05
4.10728e-05
4.04984e-05
3.9914e-05
3.93261e-05
3.87366e-05
3.81601e-05
3.75852e-05
2.53075e-05
3.17418e-05
3.79231e-05
4.37726e-05
4.81147e-05
5.10711e-05
5.30441e-05
5.43217e-05
5.50881e-05
5.55121e-05
5.56588e-05
5.57083e-05
5.57396e-05
5.57578e-05
5.57486e-05
5.56981e-05
5.55872e-05
5.54166e-05
5.51919e-05
5.49072e-05
5.45557e-05
5.41332e-05
5.36344e-05
5.30489e-05
5.23936e-05
5.16746e-05
5.0897e-05
5.00699e-05
4.92043e-05
4.83107e-05
4.74027e-05
4.64937e-05
4.55878e-05
4.46909e-05
4.38089e-05
4.29466e-05
4.21099e-05
4.1301e-05
4.05423e-05
3.98445e-05
3.16191e-05
4.67435e-05
5.75377e-05
6.43923e-05
6.85964e-05
7.15172e-05
7.33546e-05
7.42598e-05
7.43302e-05
7.40108e-05
7.31543e-05
7.20026e-05
7.07555e-05
6.94767e-05
6.81888e-05
6.69235e-05
6.56937e-05
6.4473e-05
6.32474e-05
6.20061e-05
6.0742e-05
5.94515e-05
5.81336e-05
5.6788e-05
5.54217e-05
5.40422e-05
5.26576e-05
5.12769e-05
4.99104e-05
4.85677e-05
4.72574e-05
4.59874e-05
4.47644e-05
4.35923e-05
4.24739e-05
4.14111e-05
4.04072e-05
3.94653e-05
3.86136e-05
3.78884e-05
5.13978e-05
8.05204e-05
9.22373e-05
9.68333e-05
9.81259e-05
9.77786e-05
9.65337e-05
9.39384e-05
9.04819e-05
8.6617e-05
8.26667e-05
7.88729e-05
7.53319e-05
7.20561e-05
6.9028e-05
6.62224e-05
6.36179e-05
6.11908e-05
5.89127e-05
5.6757e-05
5.47021e-05
5.27322e-05
5.08364e-05
4.90076e-05
4.72428e-05
4.55414e-05
4.39045e-05
4.23345e-05
4.08344e-05
3.94068e-05
3.80537e-05
3.67759e-05
3.55737e-05
3.44458e-05
3.33905e-05
3.24065e-05
3.14938e-05
3.06557e-05
2.99176e-05
2.93252e-05
0.00012627
0.000142431
0.000134377
0.000120003
0.000106046
9.30149e-05
8.13509e-05
7.13881e-05
6.31638e-05
5.64827e-05
5.10652e-05
4.66379e-05
4.29627e-05
3.98554e-05
3.71834e-05
3.48519e-05
3.27924e-05
3.0953e-05
2.92924e-05
2.77779e-05
2.63845e-05
2.50934e-05
2.38907e-05
2.2766e-05
2.17119e-05
2.07233e-05
1.97963e-05
1.89282e-05
1.8117e-05
1.73607e-05
1.66575e-05
1.60051e-05
1.54012e-05
1.48434e-05
1.4329e-05
1.38558e-05
1.34223e-05
1.30287e-05
1.26842e-05
1.24073e-05
)
;

boundaryField
{
    upperWall
    {
        type            fixedValue;
        value           uniform 0;
    }
    lowerWall
    {
        type            fixedValue;
        value           uniform 0;
    }
    inlet
    {
        type            fixedValue;
        value           uniform 2e-05;
    }
    outlet
    {
        type            inletOutlet;
        inletValue      uniform 0;
        value           nonuniform List<scalar> 
40
(
2.72255e-07
8.68877e-07
1.49213e-06
2.12074e-06
2.75317e-06
3.38937e-06
4.0263e-06
4.65696e-06
5.27064e-06
5.85408e-06
6.39312e-06
6.87453e-06
7.2881e-06
7.62841e-06
7.89614e-06
8.09855e-06
8.24914e-06
8.36649e-06
8.47265e-06
8.59129e-06
8.74616e-06
8.95998e-06
9.25377e-06
9.64664e-06
1.01561e-05
1.07992e-05
1.15965e-05
1.25799e-05
1.38066e-05
1.53764e-05
1.74425e-05
2.01966e-05
2.38014e-05
2.82503e-05
3.31635e-05
3.75852e-05
3.98445e-05
3.78884e-05
2.93252e-05
1.24073e-05
)
;
    }
    frontAndBack
    {
        type            empty;
    }
}


// ************************************************************************* //
