/*--------------------------------*- C++ -*----------------------------------*\
  =========                 |
  \\      /  F ield         | OpenFOAM: The Open Source CFD Toolbox
   \\    /   O peration     | Website:  https://openfoam.org
    \\  /    A nd           | Version:  7
     \\/     M anipulation  |
\*---------------------------------------------------------------------------*/
FoamFile
{
    version     2.0;
    format      ascii;
    class       volScalarField;
    location    "0.0325";
    object      pMean;
}
// * * * * * * * * * * * * * * * * * * * * * * * * * * * * * * * * * * * * * //

dimensions      [1 -1 -2 0 0 0 0];

internalField   nonuniform List<scalar> 
7920
(
102350
102304
102307
102266
102266
102227
102225
102189
102185
102151
102146
102113
102107
102075
102068
102038
102029
102000
101990
101962
102337
102293
102296
102255
102255
102217
102215
102178
102175
102140
102135
102102
102096
102065
102057
102027
102018
101989
101980
101952
102343
102300
102302
102261
102261
102222
102221
102184
102181
102146
102141
102108
102102
102071
102063
102033
102024
101995
101986
101957
102338
102295
102297
102256
102256
102218
102216
102180
102176
102142
102136
102104
102097
102066
102058
102028
102020
101990
101981
101953
102341
102298
102300
102259
102259
102221
102219
102183
102179
102145
102140
102107
102100
102069
102061
102031
102023
101994
101984
101956
102339
102297
102299
102258
102258
102219
102217
102181
102177
102143
102138
102105
102099
102068
102060
102030
102021
101992
101982
101954
102339
102297
102299
102258
102258
102219
102217
102181
102177
102143
102138
102105
102099
102068
102060
102030
102021
101992
101982
101954
102341
102298
102300
102259
102259
102221
102219
102183
102179
102145
102140
102107
102100
102069
102061
102031
102023
101994
101984
101956
102338
102295
102297
102256
102256
102218
102216
102180
102176
102142
102136
102104
102097
102066
102058
102028
102020
101990
101981
101953
102343
102300
102302
102261
102261
102222
102221
102184
102181
102146
102141
102108
102102
102071
102063
102033
102024
101995
101986
101957
102337
102293
102296
102255
102255
102217
102215
102178
102175
102140
102135
102102
102096
102065
102057
102027
102018
101989
101980
101952
102350
102304
102307
102266
102266
102227
102225
102189
102185
102151
102146
102113
102107
102075
102068
102038
102029
102000
101990
101962
102321
102287
102283
102249
102245
102211
102207
102173
102168
102136
102130
102099
102092
102062
102054
102024
102016
101987
101978
101950
102330
102295
102292
102258
102254
102220
102216
102182
102177
102145
102139
102108
102101
102071
102063
102033
102025
101996
101987
101959
102323
102288
102285
102251
102247
102213
102209
102175
102170
102138
102132
102101
102094
102064
102056
102026
102018
101989
101980
101952
102328
102294
102290
102256
102252
102218
102214
102181
102176
102143
102137
102106
102099
102069
102061
102032
102023
101994
101985
101957
102325
102290
102287
102252
102249
102215
102210
102177
102172
102140
102134
102103
102096
102065
102058
102028
102020
101991
101982
101954
102326
102292
102289
102254
102250
102216
102212
102179
102174
102142
102136
102104
102098
102067
102059
102030
102021
101993
101984
101955
102326
102292
102289
102254
102250
102216
102212
102179
102174
102142
102136
102104
102098
102067
102059
102030
102021
101993
101984
101955
102325
102290
102287
102252
102249
102215
102210
102177
102172
102140
102134
102103
102096
102065
102058
102028
102020
101991
101982
101954
102328
102294
102290
102256
102252
102218
102214
102181
102176
102143
102137
102106
102099
102069
102061
102032
102023
101994
101985
101957
102323
102288
102285
102251
102247
102213
102209
102175
102170
102138
102132
102101
102094
102064
102056
102026
102018
101989
101980
101952
102330
102295
102292
102258
102254
102220
102216
102182
102177
102145
102139
102108
102101
102071
102063
102033
102025
101996
101987
101959
102321
102287
102283
102249
102245
102211
102207
102173
102168
102136
102130
102099
102092
102062
102054
102024
102016
101987
101978
101950
102319
102282
102282
102246
102244
102209
102206
102173
102168
102136
102130
102099
102092
102062
102054
102024
102016
101986
101977
101949
102319
102282
102282
102246
102244
102209
102206
102173
102168
102136
102130
102099
102092
102062
102054
102024
102016
101986
101977
101949
102319
102282
102282
102246
102244
102209
102206
102173
102168
102136
102130
102099
102092
102062
102054
102024
102016
101986
101977
101949
102319
102282
102282
102246
102244
102209
102206
102173
102168
102136
102130
102099
102092
102062
102054
102024
102016
101986
101977
101949
102319
102282
102282
102246
102244
102209
102206
102173
102168
102136
102130
102099
102092
102062
102054
102024
102016
101986
101977
101948
102319
102282
102282
102246
102244
102209
102206
102173
102168
102136
102130
102099
102092
102062
102054
102024
102016
101986
101977
101949
102319
102282
102282
102246
102244
102209
102206
102173
102168
102136
102130
102099
102092
102062
102054
102024
102016
101986
101977
101949
102319
102282
102282
102246
102244
102209
102206
102173
102168
102136
102130
102099
102092
102062
102054
102024
102016
101986
101977
101948
102319
102282
102282
102246
102244
102209
102206
102173
102168
102136
102130
102099
102092
102062
102054
102024
102016
101986
101977
101949
102319
102282
102282
102246
102244
102209
102206
102173
102168
102136
102130
102099
102092
102062
102054
102024
102016
101986
101977
101949
102319
102282
102282
102246
102244
102209
102206
102173
102168
102136
102130
102099
102092
102062
102054
102024
102016
101986
101977
101949
102319
102282
102282
102246
102244
102209
102206
102173
102168
102136
102130
102099
102092
102062
102054
102024
102016
101986
101977
101949
102319
102282
102282
102246
102244
102209
102206
102173
102168
102136
102130
102099
102092
102062
102054
102024
102016
101986
101977
101949
102319
102282
102282
102246
102244
102209
102206
102173
102168
102136
102130
102099
102092
102062
102054
102024
102016
101986
101977
101949
102319
102282
102282
102246
102244
102209
102206
102173
102168
102136
102130
102099
102092
102062
102054
102024
102016
101986
101977
101949
102319
102282
102282
102246
102244
102209
102206
102173
102168
102136
102130
102099
102092
102062
102054
102024
102016
101986
101977
101949
102319
102282
102282
102246
102244
102209
102206
102173
102168
102136
102130
102099
102092
102062
102054
102024
102016
101986
101977
101948
102319
102282
102282
102246
102244
102209
102206
102173
102168
102136
102130
102099
102092
102062
102054
102024
102016
101986
101977
101949
102319
102282
102282
102246
102244
102209
102206
102173
102168
102136
102130
102099
102092
102062
102054
102024
102016
101986
101977
101949
102319
102282
102282
102246
102244
102209
102206
102173
102168
102136
102130
102099
102092
102062
102054
102024
102016
101986
101977
101948
102319
102282
102282
102246
102244
102209
102206
102173
102168
102136
102130
102099
102092
102062
102054
102024
102016
101986
101977
101949
102319
102282
102282
102246
102244
102209
102206
102173
102168
102136
102130
102099
102092
102062
102054
102024
102016
101986
101977
101949
102319
102282
102282
102246
102244
102209
102206
102173
102168
102136
102130
102099
102092
102062
102054
102024
102016
101986
101977
101949
102319
102282
102282
102246
102244
102209
102206
102173
102168
102136
102130
102099
102092
102062
102054
102024
102016
101986
101977
101949
102321
102287
102283
102249
102245
102211
102207
102173
102168
102136
102130
102099
102092
102062
102054
102024
102016
101987
101978
101950
102330
102295
102292
102258
102254
102220
102216
102182
102177
102145
102139
102108
102101
102071
102063
102033
102025
101996
101987
101959
102323
102288
102285
102251
102247
102213
102209
102175
102170
102138
102132
102101
102094
102064
102056
102026
102018
101989
101980
101952
102328
102294
102290
102256
102252
102218
102214
102181
102176
102143
102137
102106
102099
102069
102061
102032
102023
101994
101985
101957
102325
102290
102287
102252
102249
102215
102210
102177
102172
102140
102134
102103
102096
102065
102058
102028
102020
101991
101982
101954
102326
102292
102289
102254
102250
102216
102212
102179
102174
102142
102136
102104
102098
102067
102059
102030
102021
101993
101984
101955
102326
102292
102289
102254
102250
102216
102212
102179
102174
102142
102136
102104
102098
102067
102059
102030
102021
101993
101984
101955
102325
102290
102287
102252
102249
102215
102210
102177
102172
102140
102134
102103
102096
102065
102058
102028
102020
101991
101982
101954
102328
102294
102290
102256
102252
102218
102214
102181
102176
102143
102137
102106
102099
102069
102061
102032
102023
101994
101985
101957
102323
102288
102285
102251
102247
102213
102209
102175
102170
102138
102132
102101
102094
102064
102056
102026
102018
101989
101980
101952
102330
102295
102292
102258
102254
102220
102216
102182
102177
102145
102139
102108
102101
102071
102063
102033
102025
101996
101987
101959
102321
102287
102283
102249
102245
102211
102207
102173
102168
102136
102130
102099
102092
102062
102054
102024
102016
101987
101978
101950
102350
102304
102307
102266
102266
102227
102225
102189
102185
102151
102146
102113
102107
102075
102068
102038
102029
102000
101990
101962
102337
102293
102296
102255
102255
102217
102215
102178
102175
102140
102135
102102
102096
102065
102057
102027
102018
101989
101980
101952
102343
102300
102302
102261
102261
102222
102221
102184
102181
102146
102141
102108
102102
102071
102063
102033
102024
101995
101986
101957
102338
102295
102297
102256
102256
102218
102216
102180
102176
102142
102136
102104
102097
102066
102058
102028
102020
101990
101981
101953
102341
102298
102300
102259
102259
102221
102219
102183
102179
102145
102140
102107
102100
102069
102061
102031
102023
101994
101984
101956
102339
102297
102299
102258
102258
102219
102217
102181
102177
102143
102138
102105
102099
102068
102060
102030
102021
101992
101982
101954
102339
102297
102299
102258
102258
102219
102217
102181
102177
102143
102138
102105
102099
102068
102060
102030
102021
101992
101982
101954
102341
102298
102300
102259
102259
102221
102219
102183
102179
102145
102140
102107
102100
102069
102061
102031
102023
101994
101984
101956
102338
102295
102297
102256
102256
102218
102216
102180
102176
102142
102136
102104
102097
102066
102058
102028
102020
101990
101981
101953
102343
102300
102302
102261
102261
102222
102221
102184
102181
102146
102141
102108
102102
102071
102063
102033
102024
101995
101986
101957
102337
102293
102296
102255
102255
102217
102215
102178
102175
102140
102135
102102
102096
102065
102057
102027
102018
101989
101980
101952
102350
102304
102307
102266
102266
102227
102225
102189
102185
102151
102146
102113
102107
102075
102068
102038
102029
102000
101990
101962
101955
101854
101817
101719
101680
101590
101548
101458
101411
101330
101286
101206
101153
101073
101024
100955
100906
100832
100772
100699
100646
100587
100541
100481
100422
100349
100278
100207
100147
100098
100062
100037
100020
100010
100004
100000
99998.6
99997.6
99997.1
99996.9
99996.8
99996.8
99996.7
99996.7
99996.7
99996.7
99996.7
99996.7
99996.8
99996.8
99996.8
99996.9
99997.1
99997.3
99997.6
99998
99998.7
99999.3
100000
100001
100002
100003
100004
100005
100006
100006
100007
100008
100009
100010
100010
100011
100012
100012
100013
100013
100014
100014
100015
100015
100016
100016
100016
100016
100016
100017
100016
100017
100016
100016
101926
101825
101788
101691
101651
101561
101519
101430
101383
101301
101258
101177
101125
101045
100996
100927
100878
100804
100744
100671
100618
100559
100513
100453
100394
100321
100250
100179
100120
100070
100034
100009
99992.4
99982.1
99976.1
99972.6
99970.8
99969.9
99969.4
99969.2
99969.1
99969
99969
99969
99969
99969
99969
99969
99969
99969
99969.1
99969.2
99969.3
99969.5
99969.9
99970.3
99970.9
99971.5
99972.5
99973.3
99974.4
99975.2
99976.3
99977
99978
99978.6
99979.6
99980.2
99981.2
99981.8
99982.7
99983.2
99983.9
99984.4
99985.2
99985.6
99986.2
99986.6
99987.1
99987.4
99987.8
99988.1
99988.4
99988.7
99988.7
99989
99988.7
99988.9
99988.2
99988.5
101940
101839
101802
101705
101665
101575
101533
101444
101397
101315
101271
101191
101139
101059
101009
100940
100891
100818
100758
100685
100632
100573
100527
100467
100408
100334
100264
100193
100133
100084
100048
100022
100006
99995.6
99989.6
99986.2
99984.3
99983.4
99982.9
99982.7
99982.6
99982.5
99982.5
99982.5
99982.5
99982.5
99982.5
99982.5
99982.5
99982.6
99982.6
99982.7
99982.9
99983.1
99983.4
99983.8
99984.4
99985.1
99986
99986.8
99988
99988.8
99989.8
99990.5
99991.5
99992.1
99993.1
99993.8
99994.7
99995.3
99996.2
99996.7
99997.5
99998
99998.7
99999.1
99999.7
100000
100001
100001
100001
100002
100002
100002
100002
100002
100002
100002
100002
100002
101929
101828
101791
101693
101654
101564
101522
101432
101386
101304
101260
101180
101127
101048
100998
100929
100880
100807
100747
100674
100620
100562
100516
100456
100397
100323
100253
100182
100122
100073
100037
100011
99994.9
99984.6
99978.6
99975.1
99973.3
99972.4
99971.9
99971.7
99971.6
99971.5
99971.5
99971.5
99971.5
99971.5
99971.5
99971.5
99971.5
99971.6
99971.6
99971.7
99971.8
99972
99972.4
99972.8
99973.4
99974
99975
99975.8
99976.9
99977.7
99978.8
99979.5
99980.5
99981.1
99982.1
99982.7
99983.7
99984.3
99985.2
99985.7
99986.4
99986.9
99987.7
99988.1
99988.7
99989.1
99989.6
99989.9
99990.3
99990.6
99990.9
99991.2
99991.2
99991.5
99991.2
99991.4
99990.7
99991
101936
101835
101798
101701
101661
101571
101530
101440
101393
101311
101268
101187
101135
101055
101005
100936
100888
100814
100754
100681
100628
100569
100523
100463
100404
100331
100260
100189
100129
100080
100044
100019
100002
99991.8
99985.8
99982.4
99980.5
99979.6
99979.1
99978.9
99978.8
99978.8
99978.7
99978.7
99978.7
99978.7
99978.7
99978.7
99978.8
99978.8
99978.8
99978.9
99979.1
99979.3
99979.6
99980
99980.7
99981.3
99982.2
99983
99984.2
99985
99986
99986.7
99987.7
99988.3
99989.3
99990
99991
99991.5
99992.4
99992.9
99993.7
99994.2
99994.9
99995.3
99995.9
99996.3
99996.8
99997.2
99997.6
99997.9
99998.1
99998.4
99998.4
99998.7
99998.4
99998.7
99997.9
99998.3
101932
101832
101795
101697
101657
101568
101526
101436
101389
101308
101264
101184
101131
101051
101002
100933
100884
100810
100750
100677
100624
100566
100519
100460
100400
100327
100256
100185
100126
100076
100041
100015
99998.6
99988.2
99982.2
99978.8
99976.9
99976
99975.5
99975.3
99975.2
99975.1
99975.1
99975.1
99975.1
99975.1
99975.1
99975.1
99975.1
99975.2
99975.2
99975.3
99975.5
99975.7
99976
99976.4
99977
99977.7
99978.6
99979.4
99980.6
99981.4
99982.4
99983.1
99984.1
99984.7
99985.7
99986.4
99987.3
99987.9
99988.8
99989.3
99990.1
99990.6
99991.3
99991.7
99992.3
99992.7
99993.2
99993.6
99994
99994.3
99994.5
99994.8
99994.8
99995.1
99994.8
99995.1
99994.3
99994.6
101932
101832
101795
101697
101657
101568
101526
101436
101389
101308
101264
101184
101131
101051
101002
100933
100884
100810
100750
100677
100624
100566
100519
100460
100400
100327
100256
100185
100126
100076
100041
100015
99998.6
99988.2
99982.2
99978.8
99977
99976
99975.5
99975.3
99975.2
99975.2
99975.1
99975.1
99975.1
99975.1
99975.1
99975.1
99975.2
99975.2
99975.2
99975.3
99975.5
99975.7
99976
99976.4
99977.1
99977.7
99978.6
99979.4
99980.6
99981.4
99982.5
99983.1
99984.1
99984.7
99985.7
99986.4
99987.4
99988
99988.8
99989.3
99990.1
99990.6
99991.3
99991.7
99992.3
99992.7
99993.2
99993.6
99994
99994.3
99994.5
99994.8
99994.8
99995.1
99994.8
99995.1
99994.4
99994.7
101936
101835
101798
101701
101661
101571
101529
101440
101393
101311
101268
101187
101135
101055
101005
100936
100887
100814
100754
100681
100628
100569
100523
100463
100404
100330
100260
100189
100129
100080
100044
100019
100002
99991.8
99985.8
99982.4
99980.5
99979.6
99979.1
99978.9
99978.8
99978.7
99978.7
99978.7
99978.7
99978.7
99978.7
99978.7
99978.7
99978.8
99978.8
99978.9
99979.1
99979.2
99979.6
99980
99980.6
99981.3
99982.2
99983
99984.2
99985
99986
99986.7
99987.7
99988.3
99989.3
99990
99990.9
99991.5
99992.4
99992.9
99993.7
99994.1
99994.9
99995.3
99995.9
99996.3
99996.8
99997.2
99997.5
99997.9
99998.1
99998.4
99998.4
99998.7
99998.4
99998.7
99997.9
99998.2
101929
101828
101791
101693
101654
101564
101522
101432
101386
101304
101260
101180
101127
101048
100998
100929
100880
100807
100747
100674
100620
100562
100516
100456
100397
100323
100253
100182
100122
100073
100037
100011
99994.9
99984.6
99978.6
99975.1
99973.3
99972.4
99971.9
99971.7
99971.6
99971.5
99971.5
99971.5
99971.5
99971.5
99971.5
99971.5
99971.5
99971.6
99971.6
99971.7
99971.8
99972
99972.4
99972.8
99973.4
99974
99975
99975.8
99976.9
99977.7
99978.8
99979.5
99980.5
99981.1
99982.1
99982.7
99983.7
99984.3
99985.2
99985.7
99986.4
99986.9
99987.7
99988.1
99988.7
99989.1
99989.6
99989.9
99990.3
99990.7
99990.9
99991.2
99991.2
99991.5
99991.2
99991.4
99990.7
99991
101940
101839
101802
101705
101665
101575
101533
101444
101397
101315
101271
101191
101139
101059
101009
100940
100891
100818
100758
100685
100632
100573
100527
100467
100408
100334
100264
100193
100133
100084
100048
100022
100006
99995.6
99989.6
99986.1
99984.3
99983.4
99982.9
99982.7
99982.6
99982.5
99982.5
99982.5
99982.5
99982.5
99982.5
99982.5
99982.5
99982.5
99982.6
99982.7
99982.8
99983
99983.4
99983.8
99984.4
99985
99986
99986.8
99987.9
99988.7
99989.8
99990.5
99991.5
99992.1
99993.1
99993.7
99994.7
99995.3
99996.2
99996.7
99997.4
99997.9
99998.7
99999.1
99999.7
100000
100001
100001
100001
100002
100002
100002
100002
100002
100002
100002
100002
100002
101926
101825
101788
101691
101651
101561
101519
101430
101383
101301
101258
101177
101125
101045
100996
100926
100878
100804
100744
100671
100618
100559
100513
100453
100394
100321
100250
100179
100120
100070
100034
100009
99992.4
99982
99976
99972.6
99970.8
99969.8
99969.3
99969.1
99969
99969
99968.9
99968.9
99968.9
99968.9
99968.9
99969
99969
99969
99969.1
99969.1
99969.3
99969.5
99969.8
99970.2
99970.9
99971.5
99972.5
99973.2
99974.4
99975.2
99976.3
99977
99977.9
99978.6
99979.5
99980.2
99981.2
99981.8
99982.6
99983.1
99983.9
99984.4
99985.1
99985.5
99986.1
99986.5
99987
99987.4
99987.8
99988.1
99988.3
99988.6
99988.7
99988.9
99988.6
99988.9
99988.2
99988.4
101955
101854
101817
101719
101679
101590
101548
101458
101411
101330
101286
101206
101153
101073
101024
100955
100906
100832
100772
100699
100646
100587
100541
100481
100422
100348
100278
100207
100147
100098
100062
100036
100020
100010
100004
100000
99998.4
99997.5
99997
99996.8
99996.7
99996.6
99996.6
99996.6
99996.6
99996.6
99996.6
99996.6
99996.6
99996.7
99996.7
99996.8
99997
99997.1
99997.5
99997.9
99998.5
99999.1
100000
100001
100002
100003
100004
100005
100006
100006
100007
100008
100009
100009
100010
100011
100012
100012
100013
100013
100014
100014
100015
100015
100015
100016
100016
100016
100016
100017
100016
100017
100016
100016
101919
101820
101785
101689
101650
101561
101520
101431
101384
101303
101259
101179
101126
101047
100997
100928
100879
100805
100745
100672
100619
100560
100514
100454
100394
100321
100250
100179
100119
100069
100033
100008
99991.2
99980.8
99974.8
99971.3
99969.5
99968.5
99968.1
99967.9
99967.7
99967.7
99967.7
99967.7
99967.7
99967.7
99967.7
99967.7
99967.7
99967.7
99967.8
99967.9
99968
99968.2
99968.6
99968.9
99969.6
99970.2
99971.2
99972
99973.1
99973.9
99975
99975.7
99976.7
99977.3
99978.3
99979
99979.9
99980.5
99981.4
99981.9
99982.7
99983.1
99983.9
99984.3
99984.9
99985.3
99985.8
99986.1
99986.5
99986.8
99987.1
99987.4
99987.7
99987.9
99988.3
99988.5
99989.2
99989.5
101944
101846
101810
101715
101676
101587
101546
101456
101410
101328
101285
101204
101152
101072
101023
100953
100905
100831
100771
100698
100644
100585
100539
100479
100420
100346
100275
100204
100144
100095
100058
100033
100016
100006
99999.8
99996.4
99994.6
99993.6
99993.1
99992.9
99992.8
99992.7
99992.7
99992.7
99992.7
99992.7
99992.7
99992.7
99992.8
99992.8
99992.8
99992.9
99993.1
99993.3
99993.6
99994
99994.7
99995.3
99996.3
99997
99998.2
99999
100000
100001
100002
100002
100003
100004
100005
100006
100006
100007
100008
100008
100009
100009
100010
100010
100011
100011
100012
100012
100012
100012
100013
100013
100013
100014
100014
100014
101925
101827
101791
101695
101656
101568
101526
101437
101390
101309
101265
101185
101133
101053
101003
100934
100885
100811
100752
100678
100625
100566
100520
100460
100401
100327
100256
100185
100125
100076
100039
100014
99997.3
99986.9
99980.9
99977.4
99975.6
99974.6
99974.1
99973.9
99973.8
99973.8
99973.8
99973.7
99973.7
99973.7
99973.7
99973.8
99973.8
99973.8
99973.9
99973.9
99974.1
99974.3
99974.6
99975
99975.7
99976.3
99977.3
99978.1
99979.2
99980
99981.1
99981.8
99982.8
99983.4
99984.4
99985
99986
99986.6
99987.5
99988
99988.7
99989.2
99989.9
99990.4
99991
99991.3
99991.8
99992.2
99992.6
99992.9
99993.2
99993.5
99993.7
99994
99994.3
99994.6
99995.3
99995.5
101939
101841
101805
101710
101671
101582
101541
101451
101405
101323
101280
101200
101147
101067
101018
100948
100900
100826
100766
100693
100639
100581
100534
100474
100415
100341
100270
100199
100139
100090
100054
100028
100011
100001
99994.9
99991.5
99989.7
99988.7
99988.2
99988
99987.9
99987.8
99987.8
99987.8
99987.8
99987.8
99987.8
99987.8
99987.9
99987.9
99987.9
99988
99988.2
99988.4
99988.7
99989.1
99989.8
99990.4
99991.4
99992.1
99993.3
99994.1
99995.2
99995.9
99996.8
99997.5
99998.5
99999.1
100000
100001
100002
100002
100003
100003
100004
100004
100005
100005
100006
100006
100007
100007
100007
100008
100008
100008
100008
100009
100009
100010
101930
101832
101796
101700
101661
101572
101531
101442
101395
101314
101270
101190
101137
101058
101008
100939
100890
100816
100756
100683
100630
100571
100525
100465
100405
100332
100261
100190
100130
100080
100044
100019
100002
99991.7
99985.6
99982.2
99980.3
99979.4
99978.9
99978.7
99978.6
99978.5
99978.5
99978.5
99978.5
99978.5
99978.5
99978.5
99978.5
99978.6
99978.6
99978.7
99978.8
99979
99979.4
99979.8
99980.4
99981
99982
99982.8
99984
99984.8
99985.8
99986.5
99987.5
99988.1
99989.1
99989.8
99990.8
99991.4
99992.2
99992.7
99993.5
99994
99994.7
99995.1
99995.7
99996.1
99996.6
99996.9
99997.3
99997.7
99997.9
99998.2
99998.5
99998.8
99999.1
99999.4
100000
100000
101934
101836
101801
101705
101666
101577
101536
101447
101400
101319
101275
101195
101142
101062
101013
100944
100895
100821
100761
100688
100635
100576
100530
100470
100410
100337
100266
100194
100135
100085
100049
100023
100007
99996.3
99990.2
99986.8
99985
99984
99983.5
99983.3
99983.2
99983.2
99983.1
99983.1
99983.1
99983.1
99983.1
99983.1
99983.2
99983.2
99983.2
99983.3
99983.5
99983.7
99984
99984.4
99985.1
99985.7
99986.7
99987.5
99988.6
99989.4
99990.5
99991.2
99992.1
99992.8
99993.8
99994.4
99995.4
99996
99996.8
99997.3
99998.1
99998.6
99999.3
99999.8
100000
100001
100001
100002
100002
100002
100003
100003
100003
100003
100004
100004
100005
100005
101934
101836
101801
101705
101666
101577
101536
101447
101400
101319
101275
101195
101142
101062
101013
100944
100895
100821
100761
100688
100635
100576
100530
100470
100410
100337
100266
100194
100135
100085
100049
100023
100007
99996.3
99990.2
99986.8
99985
99984
99983.5
99983.3
99983.2
99983.2
99983.1
99983.1
99983.1
99983.1
99983.1
99983.1
99983.2
99983.2
99983.2
99983.3
99983.5
99983.7
99984
99984.4
99985.1
99985.7
99986.7
99987.5
99988.6
99989.4
99990.5
99991.2
99992.1
99992.8
99993.8
99994.4
99995.4
99996
99996.8
99997.4
99998.1
99998.6
99999.3
99999.8
100000
100001
100001
100002
100002
100002
100003
100003
100003
100003
100004
100004
100005
100005
101930
101832
101796
101700
101661
101572
101531
101442
101395
101314
101270
101190
101137
101058
101008
100939
100890
100816
100756
100683
100630
100571
100525
100465
100405
100332
100261
100190
100130
100080
100044
100019
100002
99991.6
99985.6
99982.1
99980.3
99979.4
99978.9
99978.7
99978.6
99978.5
99978.5
99978.5
99978.5
99978.5
99978.5
99978.5
99978.5
99978.5
99978.6
99978.7
99978.8
99979
99979.4
99979.8
99980.4
99981
99982
99982.8
99984
99984.8
99985.8
99986.5
99987.5
99988.1
99989.1
99989.8
99990.7
99991.3
99992.2
99992.7
99993.5
99993.9
99994.7
99995.1
99995.7
99996.1
99996.6
99996.9
99997.3
99997.6
99997.9
99998.2
99998.5
99998.8
99999.1
99999.4
100000
100000
101939
101841
101805
101710
101671
101582
101541
101451
101405
101323
101280
101200
101147
101067
101018
100948
100900
100826
100766
100693
100639
100581
100534
100474
100415
100341
100270
100199
100139
100090
100054
100028
100011
100001
99994.9
99991.5
99989.7
99988.7
99988.2
99988
99987.9
99987.8
99987.8
99987.8
99987.8
99987.8
99987.8
99987.8
99987.9
99987.9
99987.9
99988
99988.2
99988.4
99988.7
99989.1
99989.8
99990.4
99991.4
99992.1
99993.3
99994.1
99995.2
99995.9
99996.8
99997.5
99998.5
99999.1
100000
100001
100002
100002
100003
100003
100004
100004
100005
100005
100006
100006
100007
100007
100007
100008
100008
100008
100008
100009
100009
100010
101925
101827
101791
101695
101656
101568
101526
101437
101390
101309
101265
101185
101133
101053
101003
100934
100885
100811
100752
100678
100625
100566
100520
100460
100401
100327
100256
100185
100125
100075
100039
100014
99997.3
99986.9
99980.8
99977.4
99975.6
99974.6
99974.1
99973.9
99973.8
99973.8
99973.7
99973.7
99973.7
99973.7
99973.7
99973.7
99973.8
99973.8
99973.8
99973.9
99974.1
99974.3
99974.6
99975
99975.7
99976.3
99977.3
99978
99979.2
99980
99981.1
99981.8
99982.7
99983.4
99984.4
99985
99986
99986.6
99987.4
99987.9
99988.7
99989.2
99989.9
99990.4
99990.9
99991.3
99991.8
99992.2
99992.6
99992.9
99993.2
99993.5
99993.7
99994
99994.3
99994.6
99995.3
99995.5
101944
101846
101810
101715
101676
101587
101546
101456
101410
101328
101285
101204
101152
101072
101023
100953
100904
100831
100771
100697
100644
100585
100539
100479
100420
100346
100275
100204
100144
100094
100058
100033
100016
100006
99999.8
99996.3
99994.5
99993.6
99993.1
99992.9
99992.8
99992.7
99992.7
99992.7
99992.7
99992.7
99992.7
99992.7
99992.7
99992.7
99992.8
99992.9
99993
99993.2
99993.6
99994
99994.6
99995.2
99996.2
99997
99998.2
99999
100000
100001
100002
100002
100003
100004
100005
100006
100006
100007
100008
100008
100009
100009
100010
100010
100011
100011
100012
100012
100012
100012
100013
100013
100013
100014
100014
100014
101919
101820
101784
101689
101650
101561
101520
101431
101384
101303
101259
101179
101126
101046
100997
100928
100879
100805
100745
100672
100619
100560
100514
100454
100394
100321
100250
100179
100119
100069
100033
100008
99991.1
99980.7
99974.6
99971.2
99969.4
99968.4
99967.9
99967.7
99967.6
99967.6
99967.5
99967.5
99967.5
99967.5
99967.5
99967.5
99967.6
99967.6
99967.7
99967.7
99967.9
99968.1
99968.4
99968.8
99969.5
99970.1
99971.1
99971.9
99973
99973.8
99974.9
99975.6
99976.5
99977.2
99978.2
99978.8
99979.8
99980.4
99981.2
99981.8
99982.5
99983
99983.7
99984.2
99984.7
99985.1
99985.6
99986
99986.4
99986.7
99987
99987.3
99987.5
99987.8
99988.1
99988.4
99989.1
99989.3
101927
101833
101797
101703
101664
101577
101535
101447
101400
101319
101276
101196
101143
101063
101014
100945
100896
100822
100762
100688
100635
100576
100530
100470
100410
100336
100265
100194
100134
100084
100048
100022
100005
99994.8
99988.7
99985.2
99983.4
99982.4
99981.9
99981.7
99981.6
99981.6
99981.5
99981.5
99981.5
99981.5
99981.5
99981.5
99981.6
99981.6
99981.6
99981.7
99981.9
99982.1
99982.4
99982.8
99983.5
99984.1
99985.1
99985.9
99987
99987.8
99988.9
99989.6
99990.6
99991.2
99992.2
99992.8
99993.8
99994.4
99995.3
99995.8
99996.5
99997
99997.8
99998.2
99998.8
99999.1
99999.6
100000
100000
100001
100001
100001
100001
100002
100001
100002
100001
100002
101927
101833
101797
101703
101664
101576
101535
101447
101400
101319
101276
101196
101143
101063
101014
100944
100896
100822
100762
100688
100635
100576
100530
100470
100410
100336
100265
100194
100134
100084
100048
100022
100005
99994.7
99988.6
99985.2
99983.3
99982.4
99981.9
99981.7
99981.5
99981.5
99981.5
99981.5
99981.5
99981.5
99981.5
99981.5
99981.5
99981.5
99981.6
99981.7
99981.8
99982
99982.4
99982.8
99983.4
99984
99985
99985.8
99987
99987.8
99988.8
99989.5
99990.5
99991.2
99992.1
99992.8
99993.8
99994.4
99995.2
99995.7
99996.5
99997
99997.7
99998.1
99998.7
99999.1
99999.6
99999.9
100000
100001
100001
100001
100001
100002
100001
100002
100001
100002
101927
101833
101797
101703
101664
101576
101535
101447
101400
101319
101276
101195
101143
101063
101014
100944
100896
100822
100762
100688
100635
100576
100530
100470
100410
100336
100265
100193
100133
100084
100047
100022
100005
99994.6
99988.5
99985.1
99983.2
99982.3
99981.8
99981.6
99981.5
99981.4
99981.4
99981.4
99981.4
99981.4
99981.4
99981.4
99981.4
99981.4
99981.5
99981.6
99981.7
99981.9
99982.3
99982.7
99983.3
99984
99984.9
99985.7
99986.9
99987.7
99988.8
99989.5
99990.4
99991.1
99992.1
99992.7
99993.7
99994.3
99995.1
99995.6
99996.4
99996.9
99997.6
99998
99998.6
99999
99999.5
99999.8
100000
100001
100001
100001
100001
100001
100001
100002
100001
100001
101927
101833
101797
101703
101664
101576
101535
101447
101400
101319
101276
101195
101143
101063
101014
100944
100896
100822
100762
100688
100635
100576
100530
100470
100410
100336
100265
100194
100134
100084
100047
100022
100005
99994.7
99988.6
99985.1
99983.3
99982.3
99981.9
99981.6
99981.5
99981.5
99981.5
99981.4
99981.4
99981.4
99981.5
99981.5
99981.5
99981.5
99981.6
99981.6
99981.8
99982
99982.3
99982.7
99983.4
99984
99985
99985.8
99986.9
99987.7
99988.8
99989.5
99990.5
99991.1
99992.1
99992.8
99993.7
99994.3
99995.2
99995.7
99996.5
99996.9
99997.7
99998.1
99998.7
99999.1
99999.5
99999.9
100000
100001
100001
100001
100001
100001
100001
100002
100001
100002
101927
101833
101797
101703
101664
101576
101535
101447
101400
101319
101276
101195
101143
101063
101014
100944
100896
100822
100762
100688
100635
100576
100530
100470
100410
100336
100265
100193
100133
100084
100047
100022
100005
99994.6
99988.6
99985.1
99983.2
99982.3
99981.8
99981.6
99981.5
99981.4
99981.4
99981.4
99981.4
99981.4
99981.4
99981.4
99981.4
99981.5
99981.5
99981.6
99981.8
99981.9
99982.3
99982.7
99983.3
99984
99985
99985.7
99986.9
99987.7
99988.8
99989.5
99990.4
99991.1