/*--------------------------------*- C++ -*----------------------------------*\
  =========                 |
  \\      /  F ield         | OpenFOAM: The Open Source CFD Toolbox
   \\    /   O peration     | Website:  https://openfoam.org
    \\  /    A nd           | Version:  7
     \\/     M anipulation  |
\*---------------------------------------------------------------------------*/
FoamFile
{
    version     2.0;
    format      ascii;
    class       surfaceScalarField;
    location    "0.1";
    object      phi_0;
}
// * * * * * * * * * * * * * * * * * * * * * * * * * * * * * * * * * * * * * //

dimensions      [1 0 -1 0 0 0 0];

internalField   nonuniform List<scalar> 
760
(
1.16244e-07
4.25272e-09
1.09642e-07
6.59979e-09
1.01863e-07
7.77678e-09
9.35937e-08
8.26701e-09
8.52643e-08
8.32704e-09
7.72434e-08
8.01839e-09
6.98169e-08
7.42412e-09
6.31574e-08
6.65719e-09
5.73427e-08
5.81256e-09
5.23845e-08
4.95602e-09
4.82429e-08
4.1395e-09
4.48455e-08
3.39525e-09
4.21025e-08
2.74074e-09
3.99197e-08
2.18049e-09
3.82024e-08
1.71485e-09
3.68692e-08
1.33063e-09
3.58393e-08
1.02729e-09
3.50654e-08
7.71163e-10
3.45105e-08
5.52184e-10
3.74225e-10
1.21043e-07
1.76971e-09
1.22817e-07
4.82425e-09
1.23958e-07
6.6338e-09
1.24352e-07
7.87214e-09
1.23979e-07
8.69807e-09
1.22911e-07
9.08473e-09
1.21265e-07
9.06819e-09
1.1918e-07
8.7408e-09
1.16793e-07
8.19856e-09
1.14229e-07
7.51876e-09
1.11594e-07
6.77371e-09
1.08975e-07
6.01325e-09
1.06428e-07
5.2863e-09
1.04007e-07
4.60053e-09
1.0172e-07
4.00072e-09
9.96188e-08
3.4304e-09
9.76507e-08
2.99415e-09
9.59346e-08
2.48619e-09
9.42387e-08
2.2467e-09
1.61253e-09
1.21091e-07
1.18074e-09
1.22417e-07
3.4958e-09
1.23961e-07
5.08811e-09
1.25614e-07
6.21796e-09
1.27253e-07
7.05762e-09
1.28732e-07
7.60424e-09
1.29949e-07
7.85009e-09
1.30858e-07
7.82991e-09
1.31453e-07
7.60236e-09
1.31752e-07
7.2188e-09
1.31785e-07
6.73963e-09
1.31597e-07
6.20015e-09
1.31222e-07
5.66025e-09
1.30711e-07
5.10983e-09
1.30081e-07
4.62976e-09
1.29394e-07
4.11642e-09
1.28628e-07
3.75865e-09
1.27881e-07
3.23209e-09
1.27066e-07
3.06064e-09
2.32429e-09
1.21902e-07
1.13088e-09
1.22645e-07
2.7511e-09
1.23663e-07
4.06876e-09
1.24874e-07
5.00463e-09
1.26234e-07
5.69619e-09
1.27669e-07
6.16805e-09
1.29098e-07
6.41952e-09
1.30457e-07
6.46969e-09
1.317e-07
6.35852e-09
1.32798e-07
6.1187e-09
1.3374e-07
5.79644e-09
1.34528e-07
5.41096e-09
1.3517e-07
5.01767e-09
1.35682e-07
4.59621e-09
1.36078e-07
4.23215e-09
1.36377e-07
3.81629e-09
1.36594e-07
3.54014e-09
1.36734e-07
3.09144e-09
1.36831e-07
2.96144e-09
2.3145e-09
1.17133e-07
6.1048e-10
1.18079e-07
1.8034e-09
1.19271e-07
2.87478e-09
1.20594e-07
3.68056e-09
1.22014e-07
4.27411e-09
1.23498e-07
4.68325e-09
1.24995e-07
4.92068e-09
1.26462e-07
5.00186e-09
1.27862e-07
4.95667e-09
1.29171e-07
4.80864e-09
1.30373e-07
4.59322e-09
1.31461e-07
4.32165e-09
1.32439e-07
4.03811e-09
1.3331e-07
3.72408e-09
1.34091e-07
3.44965e-09
1.34776e-07
3.12937e-09
1.35403e-07
2.91243e-09
1.35929e-07
2.56447e-09
1.36436e-07
2.4531e-09
1.95365e-09
1.19406e-07
7.15622e-10
1.19635e-07
1.5719e-09
1.20106e-07
2.40221e-09
1.20764e-07
3.02114e-09
1.21576e-07
3.46088e-09
1.22513e-07
3.74499e-09
1.23539e-07
3.89347e-09
1.24615e-07
3.92472e-09
1.25705e-07
3.86454e-09
1.26781e-07
3.732e-09
1.27819e-07
3.55414e-09
1.28802e-07
3.3372e-09
1.29725e-07
3.11307e-09
1.30582e-07
2.86589e-09
1.31384e-07
2.64695e-09
1.32116e-07
2.39547e-09
1.32811e-07
2.216e-09
1.33421e-07
1.95326e-09
1.34018e-07
1.8546e-09
1.50098e-09
1.17164e-07
3.78781e-10
1.17734e-07
1.00053e-09
1.18481e-07
1.65341e-09
1.19334e-07
2.16675e-09
1.2026e-07
2.53343e-09
1.21238e-07
2.76598e-09
1.22246e-07
2.88387e-09
1.23263e-07
2.90623e-09
1.2427e-07
2.85635e-09
1.2525e-07
2.75071e-09
1.26192e-07
2.61046e-09
1.27088e-07
2.4403e-09
1.27936e-07
2.2631e-09
1.28733e-07
2.06807e-09
1.29488e-07
1.89071e-09
1.30188e-07
1.69386e-09
1.30861e-07
1.54237e-09
1.3146e-07
1.35222e-09
1.32055e-07
1.25829e-09
1.02976e-09
1.20928e-07
5.33356e-10
1.21032e-07
8.95506e-10
1.21323e-07
1.36047e-09
1.21782e-07
1.70695e-09
1.22372e-07
1.94136e-09
1.2306e-07
2.07645e-09
1.23814e-07
2.12883e-09
1.24604e-07
2.11468e-09
1.25408e-07
2.05147e-09
1.26206e-07
1.9509e-09
1.26988e-07
1.82739e-09
1.27743e-07
1.68392e-09
1.28469e-07
1.53612e-09
1.29158e-07
1.3772e-09
1.29816e-07
1.2314e-09
1.30431e-07
1.07773e-09
1.31018e-07
9.54682e-10
1.31545e-07
8.23961e-10
1.32054e-07
7.47075e-10
6.20134e-10
1.183e-07
5.08416e-10
1.18571e-07
6.22665e-10
1.19046e-07
8.84243e-10
1.19712e-07
1.03938e-09
1.20537e-07
1.11468e-09
1.21478e-07
1.13451e-09
1.22489e-07
1.11653e-09
1.2353e-07
1.07254e-09
1.24568e-07
1.01199e-09
1.25578e-07
9.39597e-10
1.26543e-07
8.60753e-10
1.27452e-07
7.73914e-10
1.28301e-07
6.85833e-10
1.29085e-07
5.91244e-10
1.29812e-07
5.03088e-10
1.30475e-07
4.13507e-10
1.31091e-07
3.37366e-10
1.31638e-07
2.75678e-10
1.32156e-07
2.28056e-10
1.96101e-10
1.2018e-07
1.98796e-10
1.2062e-07
1.81554e-10
1.21211e-07
2.91247e-10
1.21906e-07
3.43232e-10
1.22691e-07
3.28247e-10
1.23553e-07
2.71129e-10
1.24475e-07
1.93371e-10
1.25436e-07
1.09997e-10
1.26412e-07
3.41205e-11
1.27378e-07
-2.74506e-11
1.28311e-07
-7.32501e-11
1.2919e-07
-1.07015e-10
1.30007e-07
-1.31676e-10
1.30749e-07
-1.5217e-10
1.3142e-07
-1.69675e-10
1.32014e-07
-1.81811e-10
1.32547e-07
-1.9675e-10
1.33008e-07
-1.86555e-10
1.3343e-07
-1.95697e-10
-1.65535e-10
1.21661e-07
5.96455e-11
1.21807e-07
3.413e-11
1.2209e-07
6.90516e-12
1.22567e-07
-1.35892e-10
1.23217e-07
-3.22532e-10
1.24008e-07
-5.21244e-10
1.24907e-07
-7.07237e-10
1.25874e-07
-8.58058e-10
1.26869e-07
-9.62476e-10
1.27859e-07
-1.01839e-09
1.28817e-07
-1.03287e-09
1.29723e-07
-1.01429e-09
1.30566e-07
-9.75586e-10
1.31334e-07
-9.21896e-10
1.32029e-07
-8.66565e-10
1.32646e-07
-7.99857e-10
1.33195e-07
-7.47243e-10
1.33671e-07
-6.63315e-10
1.34093e-07
-6.19453e-10
-5.2213e-10
1.19256e-07
-5.16041e-10
1.19881e-07
-5.92581e-10
1.20684e-07
-7.97719e-10
1.21616e-07
-1.06954e-09
1.22632e-07
-1.34003e-09
1.23695e-07
-1.58609e-09
1.24775e-07
-1.7886e-09
1.25846e-07
-1.93025e-09
1.26888e-07
-2.0059e-09
1.27886e-07
-2.0179e-09
1.28831e-07
-1.97852e-09
1.29712e-07
-1.89667e-09
1.30526e-07
-1.79085e-09
1.31266e-07
-1.66356e-09
1.31936e-07
-1.53773e-09
1.32531e-07
-1.3956e-09
1.33061e-07
-1.27892e-09
1.33521e-07
-1.12453e-09
1.33932e-07
-1.03211e-09
-8.54937e-10
1.20472e-07
-6.88939e-10
1.20856e-07
-9.78297e-10
1.215e-07
-1.44266e-09
1.22284e-07
-1.85554e-09
1.23126e-07
-2.18333e-09
1.23977e-07
-2.43862e-09
1.24812e-07
-2.62496e-09
1.25618e-07
-2.73793e-09
1.26392e-07
-2.78053e-09
1.27131e-07
-2.75824e-09
1.27837e-07
-2.68596e-09
1.28508e-07
-2.56926e-09
1.29146e-07
-2.43027e-09
1.29745e-07
-2.26388e-09
1.30311e-07
-2.10507e-09
1.30833e-07
-1.91828e-09
1.31328e-07
-1.77527e-09
1.31772e-07
-1.56964e-09
1.32209e-07
-1.47069e-09
-1.2331e-09
1.20297e-07
-3.59944e-10
1.204e-07
-1.08376e-09
1.20817e-07
-1.86081e-09
1.21438e-07
-2.47855e-09
1.22172e-07
-2.91862e-09
1.22963e-07
-3.23117e-09
1.23774e-07
-3.4366e-09
1.24575e-07
-3.54047e-09
1.2535e-07
-3.5575e-09
1.26092e-07
-3.5007e-09
1.26796e-07
-3.39197e-09
1.27462e-07
-3.23661e-09
1.28095e-07
-3.06395e-09
1.2869e-07
-2.86038e-09
1.2926e-07
-2.67668e-09
1.29792e-07
-2.45181e-09
1.30314e-07
-2.29808e-09
1.30787e-07
-2.04426e-09
1.31275e-07
-1.9599e-09
-1.64187e-09
1.14164e-07
-5.42883e-10
1.14886e-07
-1.80758e-09
1.15945e-07
-2.92122e-09
1.17166e-07
-3.70176e-09
1.18481e-07
-4.23505e-09
1.19839e-07
-4.58985e-09
1.21188e-07
-4.78736e-09
1.2249e-07
-4.84361e-09
1.23719e-07
-4.78853e-09
1.24863e-07
-4.64549e-09
1.25917e-07
-4.44713e-09
1.26881e-07
-4.202e-09
1.27766e-07
-3.95029e-09
1.28574e-07
-3.67009e-09
1.29327e-07
-3.43107e-09
1.30015e-07
-3.14039e-09
1.30675e-07
-2.95985e-09
1.31261e-07
-2.63157e-09
1.31855e-07
-2.55487e-09
-2.1134e-09
1.19762e-07
4.67138e-12
1.20024e-07
-2.07142e-09
1.20684e-07
-3.58202e-09
1.21563e-07
-4.58254e-09
1.22607e-07
-5.28068e-09
1.23758e-07
-5.74173e-09
1.24951e-07
-5.98195e-09
1.26138e-07
-6.03268e-09
1.27289e-07
-5.94009e-09
1.28379e-07
-5.73722e-09
1.29397e-07
-5.46629e-09
1.30335e-07
-5.14146e-09
1.31196e-07
-4.81258e-09
1.31979e-07
-4.45421e-09
1.32697e-07
-4.1508e-09
1.33342e-07
-3.78673e-09
1.33945e-07
-3.56371e-09
1.34464e-07
-3.15205e-09
1.34973e-07
-3.06522e-09
-2.47719e-09
1.18452e-07
-3.11628e-11
1.19372e-07
-2.99259e-09
1.20609e-07
-4.82031e-09
1.22023e-07
-5.99803e-09
1.23581e-07
-6.84042e-09
1.25205e-07
-7.36704e-09
1.26812e-07
-7.59047e-09
1.28345e-07
-7.56679e-09
1.29764e-07
-7.36029e-09
1.31042e-07
-7.01729e-09
1.32165e-07
-6.59073e-09
1.3313e-07
-6.10781e-09
1.3394e-07
-5.62378e-09
1.34607e-07
-5.1227e-09
1.35143e-07
-4.68749e-09
1.35563e-07
-4.20816e-09
1.35884e-07
-3.88589e-09
1.36111e-07
-3.38078e-09
1.36282e-07
-3.23709e-09
-2.53718e-09
1.21566e-07
-5.99852e-10
1.22793e-07
-4.22167e-09
1.24243e-07
-6.27198e-09
1.25873e-07
-7.62904e-09
1.27567e-07
-8.53641e-09
1.29175e-07
-8.97583e-09
1.30575e-07
-8.99207e-09
1.31699e-07
-8.69245e-09
1.32516e-07
-8.17845e-09
1.33024e-07
-7.52627e-09
1.33239e-07
-6.80749e-09
1.33199e-07
-6.06932e-09
1.32936e-07
-5.36212e-09
1.32503e-07
-4.6908e-09
1.31919e-07
-4.10501e-09
1.31252e-07
-3.54277e-09
1.30485e-07
-3.12037e-09
1.29724e-07
-2.62036e-09
1.28884e-07
-2.39888e-09
-1.80604e-09
1.23723e-07
-3.51036e-09
1.2571e-07
-6.21048e-09
1.27013e-07
-7.57623e-09
1.27545e-07
-8.16266e-09
1.27297e-07
-8.29032e-09
1.26356e-07
-8.03558e-09
1.24838e-07
-7.47621e-09
1.22875e-07
-6.72999e-09
1.20589e-07
-5.89404e-09
1.18097e-07
-5.03609e-09
1.15502e-07
-4.21336e-09
1.1289e-07
-3.45851e-09
1.10319e-07
-2.79289e-09
1.07849e-07
-2.22213e-09
1.05492e-07
-1.74923e-09
1.03307e-07
-1.35923e-09
1.01239e-07
-1.0542e-09
9.942e-08
-8.02132e-10
9.76094e-08
-5.89705e-10
-4.6037e-10
1.17938e-07
1.11726e-07
1.04148e-07
9.59837e-08
8.76917e-08
7.96545e-08
7.21765e-08
6.54447e-08
5.95487e-08
5.45108e-08
5.02955e-08
4.68351e-08
4.40403e-08
4.18163e-08
4.00652e-08
3.87041e-08
3.76481e-08
3.68441e-08
3.62526e-08
)
;

boundaryField
{
    upperWall
    {
        type            calculated;
        value           uniform 0;
    }
    lowerWall
    {
        type            calculated;
        value           uniform 0;
    }
    inlet
    {
        type            calculated;
        value           nonuniform List<scalar> 
20
(
-1.20498e-07
-1.18562e-07
-1.20504e-07
-1.21854e-07
-1.16614e-07
-1.19513e-07
-1.16829e-07
-1.21085e-07
-1.18277e-07
-1.19873e-07
-1.21524e-07
-1.18682e-07
-1.20301e-07
-1.20627e-07
-1.13983e-07
-1.20312e-07
-1.18419e-07
-1.20999e-07
-1.20814e-07
-1.2145e-07
)
;
    }
    outlet
    {
        type            calculated;
        value           nonuniform List<scalar> 
20
(
3.41346e-08
9.29996e-08
1.26353e-07
1.3684e-07
1.36795e-07
1.3447e-07
1.32525e-07
1.32463e-07
1.32579e-07
1.3379e-07
1.34449e-07
1.34264e-07
1.32586e-07
1.31683e-07
1.32325e-07
1.35335e-07
1.3634e-07
1.28152e-07
9.62624e-08
3.57906e-08
)
;
    }
    frontAndBack
    {
        type            empty;
        value           nonuniform 0();
    }
}


// ************************************************************************* //
