/*--------------------------------*- C++ -*----------------------------------*\
  =========                 |
  \\      /  F ield         | OpenFOAM: The Open Source CFD Toolbox
   \\    /   O peration     | Website:  https://openfoam.org
    \\  /    A nd           | Version:  7
     \\/     M anipulation  |
\*---------------------------------------------------------------------------*/
FoamFile
{
    version     2.0;
    format      ascii;
    class       volScalarField;
    location    "0.1";
    object      pPrime2Mean;
}
// * * * * * * * * * * * * * * * * * * * * * * * * * * * * * * * * * * * * * //

dimensions      [2 -2 -4 0 0 0 0];

internalField   nonuniform List<scalar> 
400
(
112353
112218
112080
111978
111876
111759
111631
111499
111364
111223
111075
110917
110751
110579
110404
110234
110075
109932
109808
109726
112138
112067
111986
111915
111832
111732
111620
111502
111378
111246
111104
110950
110784
110608
110428
110248
110078
109922
109767
109666
112001
111987
111944
111885
111813
111727
111633
111532
111422
111302
111167
111016
110848
110666
110474
110280
110092
109918
109745
109627
111915
111922
111898
111851
111790
111719
111639
111551
111453
111343
111215
111068
110900
110714
110514
110309
110108
109919
109734
109607
111855
111868
111857
111822
111772
111713
111644
111567
111479
111376
111254
111110
110942
110753
110548
110333
110122
109922
109726
109593
111811
111827
111825
111800
111759
111708
111648
111579
111498
111401
111283
111140
110972
110780
110570
110349
110129
109920
109718
109582
111779
111798
111801
111783
111748
111703
111651
111588
111512
111418
111303
111161
110992
110797
110583
110357
110132
109917
109711
109573
111756
111776
111783
111769
111739
111699
111651
111593
111520
111429
111315
111174
111004
110807
110590
110360
110131
109913
109704
109565
111740
111761
111770
111759
111732
111695
111650
111594
111524
111435
111321
111180
111009
110812
110593
110361
110129
109909
109698
109559
111731
111752
111762
111752
111727
111692
111648
111593
111524
111436
111323
111181
111010
110812
110593
110360
110127
109905
109693
109553
111727
111749
111759
111749
111724
111688
111645
111590
111521
111432
111319
111178
111008
110810
110590
110358
110125
109903
109690
109550
111730
111751
111760
111749
111722
111685
111640
111584
111514
111425
111311
111171
111001
110805
110587
110356
110124
109903
109690
109548
111739
111759
111766
111752
111722
111682
111634
111575
111503
111412
111299
111158
110990
110796
110581
110353
110124
109905
109692
109550
111755
111774
111778
111759
111725
111680
111627
111564
111488
111395
111280
111140
110974
110782
110571
110347
110123
109908
109698
109557
111781
111797
111796
111771
111729
111678
111618
111549
111468
111371
111255
111115
110950
110762
110555
110338
110121
109914
109709
109569
111818
111831
111821
111786
111736
111676
111607
111530
111442
111340
111221
111080
110916
110732
110532
110324
110117
109920
109724
109589
111872
111879
111855
111808
111746
111675
111595
111507
111410
111301
111176
111033
110870
110691
110499
110302
110109
109926
109742
109616
111951
111938
111895
111836
111763
111677
111582
111481
111373
111254
111123
110977
110816
110643
110461
110278
110100
109936
109766
109652
112082
112013
111933
111861
111777
111676
111564
111446
111323
111193
111056
110908
110751
110586
110418
110252
110093
109950
109803
109711
112288
112158
112023
111921
111818
111699
111571
111440
111306
111168
111025
110875
110719
110558
110397
110242
110096
109967
109855
109782
)
;

boundaryField
{
    upperWall
    {
        type            calculated;
        value           nonuniform List<scalar> 
20
(
112288
112158
112023
111921
111818
111699
111571
111440
111306
111168
111025
110875
110719
110558
110397
110242
110096
109967
109855
109782
)
;
    }
    lowerWall
    {
        type            calculated;
        value           nonuniform List<scalar> 
20
(
112353
112218
112080
111978
111876
111759
111631
111499
111364
111223
111075
110917
110751
110579
110404
110234
110075
109932
109808
109726
)
;
    }
    inlet
    {
        type            calculated;
        value           nonuniform List<scalar> 
20
(
112353
112138
112001
111915
111855
111811
111779
111756
111740
111731
111727
111730
111739
111755
111781
111818
111872
111951
112082
112288
)
;
    }
    outlet
    {
        type            calculated;
        value           nonuniform List<scalar> 
20
(
109695
109635
109596
109576
109562
109551
109541
109534
109527
109522
109518
109517
109519
109526
109538
109558
109585
109621
109680
109751
)
;
    }
    frontAndBack
    {
        type            empty;
    }
}


// ************************************************************************* //
