/*--------------------------------*- C++ -*----------------------------------*\
  =========                 |
  \\      /  F ield         | OpenFOAM: The Open Source CFD Toolbox
   \\    /   O peration     | Website:  https://openfoam.org
    \\  /    A nd           | Version:  7
     \\/     M anipulation  |
\*---------------------------------------------------------------------------*/
FoamFile
{
    version     2.0;
    format      ascii;
    class       volScalarField;
    location    "0.08";
    object      pPrime2Mean;
}
// * * * * * * * * * * * * * * * * * * * * * * * * * * * * * * * * * * * * * //

dimensions      [2 -2 -4 0 0 0 0];

internalField   nonuniform List<scalar> 
1352
(
158209
153460
149764
146614
143705
139724
158461
153526
149799
146825
144029
141665
158653
153588
149926
147136
144867
143063
158799
153741
150134
147520
145530
144009
159005
153959
150434
147993
146229
144938
159517
154503
151133
148925
147406
146284
159996
155017
151761
149680
148236
147129
159971
155196
152071
150032
148568
147434
159931
155336
152301
150252
148732
147550
159652
155320
152330
150281
148756
147555
143088
143104
143143
143223
143331
143445
143533
143564
143513
143371
143141
142842
142506
142163
141830
141511
141187
140843
140469
140060
139623
139166
138688
138188
137670
137140
136596
136031
135428
134779
134107
133439
132754
132008
131171
130234
129201
128088
126923
125740
124573
123453
122399
121422
120514
119656
118825
118001
117167
116311
115429
114518
113577
112603
111589
110530
109424
108271
107070
105839
142940
142986
143079
143218
143382
143543
143670
143730
143701
143571
143344
143044
142704
142353
142011
141680
141347
140999
140630
140233
139805
139349
138869
138370
137856
137331
136796
136239
135650
135019
134362
133699
133006
132239
131379
130418
129365
128234
127053
125855
124673
123538
122469
121480
120563
119698
118863
118034
117195
116335
115449
114535
113592
112616
111600
110539
109431
108273
107053
105767
142554
142639
142800
143030
143297
143567
143796
143943
143975
143884
143682
143394
143049
142676
142301
141936
141581
141223
140851
140456
140036
139586
139109
138614
138106
137586
137048
136485
135894
135281
134655
134004
133297
132512
131639
130676
129624
128494
127307
126093
124891
123731
122638
121628
120692
119812
118964
118124
117275
116407
115515
114596
113648
112666
111646
110581
109467
108297
107058
105740
141798
141902
142147
142519
142969
143433
143840
144136
144287
144277
144110
143810
143420
142991
142566
142168
141793
141430
141068
140688
140272
139818
139333
138826
138305
137771
137220
136649
136063
135469
134868
134234
133538
132763
131906
130959
129919
128793
127599
126371
125152
123974
122862
121831
120876
119978
119112
118257
117395
116518
115619
114696
113744
112758
111734
110665
109544
108361
107098
105745
140226
140285
140577
141150
141926
142788
143593
144233
144629
144739
144572
144192
143693
143169
142690
142273
141908
141566
141220
140848
140437
139982
139490
138972
138438
137892
137332
136756
136172
135589
135005
134391
133715
132957
132109
131168
130133
129014
127829
126611
125396
124217
123102
122063
121095
120180
119296
118424
117548
116661
115755
114828
113872
112881
111851
110778
109651
108455
107165
105772
137205
136753
136795
137734
139318
141063
142607
143777
144458
144676
144517
144108
143583
143054
142591
142207
141877
141569
141251
140900
140503
140056
139568
139050
138513
137961
137398
136826
136249
135670
135084
134465
133782
133014
132160
131221
130200
129105
127953
126769
125584
124432
123335
122303
121332
120405
119504
118614
117725
116827
115915
114981
114018
113020
111985
110910
109778
108565
107246
105813
133606
132755
133054
135095
137670
140043
141907
143208
143946
144188
144056
143691
143225
142760
142350
142002
141693
141395
141085
140741
140356
139927
139458
138960
138440
137903
137351
136788
136216
135632
135028
134385
133680
132901
132047
131120
130124
129070
127967
126837
125707
124603
123544
122533
121567
120633
119718
118814
117913
117007
116087
115146
114174
113166
112125
111048
109912
108682
107331
105856
132467
132582
133616
135703
138111
140228
141866
142996
143627
143821
143686
143348
142924
142498
142113
141774
141464
141162
140848
140506
140129
139714
139265
138787
138286
137765
137225
136668
136095
135503
134882
134218
133498
132715
131867
130959
129996
128985
127936
126867
125798
124748
123728
122740
121779
120839
119914
118998
118086
117171
116245
115297
114316
113298
112249
111172
110033
108788
107408
105893
132704
134098
135312
136928
138843
140605
141979
142918
143430
143562
143408
143082
142685
142284
141913
141578
141267
140960
140641
140295
139919
139511
139073
138609
138120
137607
137072
136516
135938
135334
134698
134020
133292
132511
131675
130789
129861
128895
127902
126893
125883
124882
123896
122924
121966
121020
120084
119155
118231
117307
116373
115418
114426
113397
112344
111270
110131
108874
107469
105917
136440
136322
136930
138113
139631
141071
142180
142906
143273
143330
143158
142850
142482
142106
141751
141420
141105
140789
140458
140103
139722
139314
138879
138418
137932
137420
136884
136322
135735
135120
134473
133787
133058
132284
131466
130609
129721
128805
127870
126922
125971
125018
124064
123109
122154
121200
120249
119304
118364
117426
116483
115518
114512
113469
112413
111346
110209
108945
107520
105934
139845
138876
138883
139619
140670
141663
142403
142856
143055
143042
142868
142590
142260
141916
141577
141248
140921
140587
140238
139869
139478
139063
138623
138158
137668
137151
136609
136041
135448
134828
134178
133494
132773
132017
131226
130407
129565
128706
127835
126956
126067
125164
124243
123305
122352
121387
120417
119447
118484
117526
116569
115589
114567
113510
112451
111390
110255
108986
107548
105940
141782
141093
140952
141244
141725
142195
142541
142737
142796
142731
142559
142307
142006
141680
141343
141000
140650
140290
139918
139531
139125
138699
138250
137779
137284
136767
136227
135664
135077
134464
133822
133149
132446
131717
130965
130195
129409
128612
127807
126994
126164
125306
124417
123496
122543
121562
120567
119568
118573
117592
116619
115626
114588
113519
112459
111398
110261
108990
107547
105934
143027
142474
142208
142200
142348
142533
142673
142728
142694
142572
142373
142111
141807
141475
141127
140768
140401
140024
139635
139233
138815
138379
137924
137449
136954
136438
135901
135343
134762
134156
133523
132864
132181
131479
130763
130035
129293
128541
127783
127018
126230
125407
124544
123636
122680
121684
120665
119638
118619
117619
116630
115624
114579
113506
112442
111377
110233
108961
107518
105915
144104
143572
143198
142985
142895
142868
142845
142778
142650
142463
142225
141943
141627
141286
140929
140560
140180
139791
139390
138977
138551
138108
137650
137173
136677
136161
135624
135068
134493
133896
133275
132630
131962
131280
130590
129893
129184
128465
127743
127015
126262
125462
124614
123709
122740
121726
120691
119651
118620
117607
116606
115595
114551
113474
112395
111317
110170
108905
107476
105894
145497
144925
144429
144029
143716
143454
143207
142951
142679
142390
142082
141755
141410
141048
140674
140290
139896
139494
139082
138660
138227
137780
137319
136842
136346
135831
135295
134743
134176
133594
132994
132370
131719
131050
130373
129697
129016
128331
127646
126950
126215
125419
124567
123658
122686
121668
120631
119592
118563
117545
116537
115530
114496
113411
112300
111198
110056
108813
107418
105875
146321
145711
145154
144664
144229
143831
143453
143088
142728
142370
142009
141640
141264
140879
140484
140081
139671
139252
138827
138394
137954
137503
137040
136564
136072
135565
135042
134502
133943
133365
132765
132146
131515
130877
130224
129545
128853
128176
127515
126831
126092
125298
124440
123516
122541
121534
120509
119480
118460
117450
116448
115445
114420
113332
112197
111076
109939
108719
107361
105861
146617
146000
145426
144901
144419
143967
143539
143130
142735
142349
141966
141582
141193
140797
140391
139976
139553
139123
138689
138252
137812
137367
136909
136434
135939
135425
134907
134392
133856
133291
132697
132072
131429
130789
130154
129496
128807
128121
127455
126760
126005
125198
124337
123416
122446
121443
120424
119403
118392
117390
116393
115394
114372
113288
112150
111017
109877
108666
107330
105856
146719
146105
145536
145004
144501
144024
143571
143141
142729
142330
141939
141551
141161
140765
140359
139944
139518
139086
138649
138211
137772
137330
136881
136416
135932
135426
134905
134381
133837
133268
132677
132059
131423
130783
130140
129476
128785
128098
127421
126718
125964
125158
124296
123377
122409
121410
120394
119378
118372
117374
116378
115379
114357
113277
112142
111006
109862
108650
107320
105862
146717
146117
145562
145035
144530
144048
143590
143155
142738
142335
141941
141551
141160
140764
140359
139944
139521
139090
138655
138218
137779
137335
136883
136414
135929
135422
134902
134378
133834
133266
132674
132054
131417
130778
130136
129471
128781
128094
127417
126712
125956
125151
124290
123371
122404
121406
120392
119377
118371
117373
116378
115379
114357
113278
112143
111007
109863
108651
107320
105872
104536
102775
100618
97979.4
94783.4
90952.6
86236.3
80337.3
104345
102615
100471
97823.8
94622.6
90793.8
86082.5
80187
104310
102618
100471
97805.9
94589.9
90755.6
86038.1
80148.4
104271
102542
100385
97712.6
94492.2
90658.6
85944.6
80058.7
104260
102519
100355
97674
94447.3
90611.7
85895.2
80016.4
104261
102483
100292
97604.4
94381.5
90550.3
85836
79965.5
104263
102446
100234
97544.1
94329.2
90503.5
85789.3
79934
104258
102399
100159
97467.9
94268.9
90453.7
85743.1
79908.7
104241
102340
100074
97386.2
94208.4
90405.9
85700.2
79893.6
104215
102271
99974.9
97291.9
94139.9
90353.7
85657
79887
104185
102202
99877.7
97198.1
94070.9
90301.3
85619.1
79893.5
104160
102150
99803.6
97125.4
94016.5
90260.4
85595.4
79914.7
104144
102121
99764.2
97086.4
93987.6
90240.3
85591.7
79953.4
104141
102113
99749.6
97074.3
93982.1
90242.4
85610.7
80007.1
104158
102144
99785.4
97110
94017.8
90282.7
85663.1
80082.6
104194
102167
99807.8
97136.8
94047.8
90318.9
85710.8
80141
104253
102228
99866.1
97195.2
94105.9
90377.6
85770.7
80203.1
104291
102243
99882.6
97213.2
94125.6
90399.9
85794.5
80232.5
104353
102285
99923.3
97252.7
94164.7
90438.4
85830.9
80272.8
)
;

boundaryField
{
    inlet
    {
        type            calculated;
        value           nonuniform List<scalar> 10(158209 158461 158653 158799 159005 159517 159996 159971 159931 159652);
    }
    outlet
    {
        type            calculated;
        value           nonuniform List<scalar> 
19
(
76067.8
75916.3
75877.6
75792.3
75752.3
75703.9
75674.2
75650.1
75635.8
75629.5
75635.6
75655.7
75692.4
75743.4
75814.9
75870.9
75932.8
75967.9
76021.1
)
;
    }
    upperWall
    {
        type            calculated;
        value           nonuniform List<scalar> 
74
(
159652
155320
152330
150281
148756
147555
146717
146117
145562
145035
144530
144048
143590
143155
142738
142335
141941
141551
141160
140764
140359
139944
139521
139090
138655
138218
137779
137335
136883
136414
135929
135422
134902
134378
133834
133266
132674
132054
131417
130778
130136
129471
128781
128094
127417
126712
125956
125151
124290
123371
122404
121406
120392
119377
118371
117373
116378
115379
114357
113278
112143
111007
109863
108651
107320
105872
104353
102285
99923.3
97252.7
94164.7
90438.4
85830.9
80272.8
)
;
    }
    lowerWall
    {
        type            calculated;
        value           nonuniform List<scalar> 
83
(
158209
153460
149764
146614
143705
139724
143088
142940
142554
141798
140226
137205
133606
132467
132704
143088
143104
143143
143223
143331
143445
143533
143564
143513
143371
143141
142842
142506
142163
141830
141511
141187
140843
140469
140060
139623
139166
138688
138188
137670
137140
136596
136031
135428
134779
134107
133439
132754
132008
131171
130234
129201
128088
126923
125740
124573
123453
122399
121422
120514
119656
118825
118001
117167
116311
115429
114518
113577
112603
111589
110530
109424
108271
107070
105839
104536
102775
100618
97979.4
94783.4
90952.6
86236.3
80337.3
)
;
    }
    frontAndBack
    {
        type            empty;
    }
}


// ************************************************************************* //
