/*--------------------------------*- C++ -*----------------------------------*\
  =========                 |
  \\      /  F ield         | OpenFOAM: The Open Source CFD Toolbox
   \\    /   O peration     | Website:  https://openfoam.org
    \\  /    A nd           | Version:  7
     \\/     M anipulation  |
\*---------------------------------------------------------------------------*/
FoamFile
{
    version     2.0;
    format      ascii;
    class       volScalarField;
    location    "0.3";
    object      k;
}
// * * * * * * * * * * * * * * * * * * * * * * * * * * * * * * * * * * * * * //

dimensions      [0 2 -2 0 0 0 0];

internalField   nonuniform List<scalar> 
6000
(
2210.5
2245.64
2245.94
2247.99
2248.12
2249.45
2252
2254.36
2256.72
2249.67
927.74
934.3
932.792
934.061
933.68
934.244
935.203
936.109
937.36
934.856
815.618
823.355
819.264
820.73
819.884
820.168
820.734
821.443
823.335
820.851
828.503
832.215
830.11
831.545
830.549
830.528
830.661
831.066
832.287
829.654
819.738
823.638
820.953
822.118
820.898
820.614
820.483
820.666
821.873
819.263
824.626
826.752
824.139
825.335
824.024
823.626
823.314
823.386
824.562
821.979
824.626
826.752
824.138
825.337
824.021
823.631
823.304
823.402
824.527
822.032
819.737
823.64
820.95
822.123
820.89
820.629
820.455
820.712
821.774
819.432
828.503
832.217
830.106
831.552
830.536
830.55
830.621
831.139
832.133
829.95
815.617
823.357
819.261
820.738
819.87
820.195
820.683
821.534
823.146
821.218
927.739
934.303
932.788
934.069
933.663
934.277
935.141
936.225
937.122
935.309
2210.5
2245.64
2245.93
2248.02
2248.08
2249.52
2251.85
2254.64
2256.16
2250.79
802.479
817.056
820.584
820.313
820.731
821.029
821.787
822.383
821.908
819.718
797.602
819.471
819.74
819.793
819.968
820.165
820.965
821.659
822.378
819.689
758.726
783.304
782.04
781.925
781.816
781.634
782.104
782.59
783.962
781.157
779.497
798.665
798.022
797.868
797.618
797.143
797.356
797.622
798.647
795.825
769.256
787.797
787.681
787.318
786.951
786.223
786.149
786.19
787.209
784.291
774.78
791.569
790.874
790.371
789.879
789.016
788.793
788.707
789.728
786.841
774.779
791.569
790.873
790.373
789.877
789.022
788.784
788.723
789.695
786.901
769.255
787.799
787.678
787.322
786.943
786.237
786.123
786.235
787.115
784.466
779.496
798.667
798.019
797.874
797.606
797.165
797.316
797.693
798.499
796.106
758.725
783.306
782.036
781.933
781.802
781.66
782.056
782.677
783.78
781.514
797.601
819.473
819.736
819.801
819.952
820.194
820.91
821.762
822.168
820.099
802.478
817.058
820.58
820.321
820.715
821.057
821.733
822.483
821.7
820.116
91.2332
95.8283
96.2038
95.9761
96.0139
96.0082
96.0627
96.1055
96.1594
96.0945
108.5
115.38
115.595
114.71
114.794
114.665
114.663
114.687
114.905
114.782
93.8691
100.109
99.9305
99.7116
99.7051
99.6291
99.6495
99.6812
99.9011
99.947
99.616
106.329
106.213
105.46
105.513
105.275
105.159
105.11
105.423
105.337
95.6376
101.963
101.792
100.658
100.662
100.352
100.186
100.085
100.34
100.287
97.285
103.306
103.102
102.087
102.07
101.776
101.591
101.479
101.773
101.71
97.285
103.306
103.102
102.088
102.07
101.777
101.589
101.482
101.769
101.719
95.6375
101.963
101.792
100.658
100.661
100.354
100.183
100.09
100.328
100.307
99.6158
106.329
106.213
105.461
105.512
105.279
105.153
105.12
105.404
105.376
93.869
100.109
99.93
99.7127
99.7033
99.6324
99.6433
99.692
99.8779
99.9909
108.5
115.38
115.594
114.711
114.791
114.669
114.655
114.702
114.874
114.843
91.2332
95.8285
96.2033
95.977
96.0121
96.0116
96.056
96.1182
96.1341
96.1442
10.2619
11.7377
11.7056
11.5989
11.5977
11.5885
11.5842
11.5855
11.6198
11.7159
12.5179
14.9939
14.9599
14.7971
14.7765
14.7275
14.7198
14.725
14.8081
14.9364
10.9039
12.9526
12.8927
12.8401
12.8304
12.8108
12.8133
12.8231
12.8693
13.0257
11.5082
13.7999
13.7584
13.6203
13.6098
13.5596
13.5388
13.5359
13.607
13.7543
11.0275
13.221
13.1192
12.9151
12.891
12.8258
12.7958
12.7838
12.878
13.0287
11.198
13.5213
13.3691
13.1574
13.1178
13.0478
13.0176
13.0025
13.0963
13.2584
11.198
13.5213
13.3691
13.1574
13.1177
13.0479
13.0173
13.0028
13.0955
13.2579
11.0275
13.221
13.1192
12.9152
12.8908
12.826
12.7952
12.7845
12.8768
13.0315
11.5082
13.7999
13.7584
13.6205
13.6096
13.5601
13.5379
13.5373
13.6049
13.7573
10.9039
12.9526
12.8926
12.8403
12.8301
12.8113
12.8125
12.8244
12.8669
13.0311
12.5179
14.9939
14.9598
14.7973
14.7761
14.7282
14.7186
14.7272
14.8036
14.9443
10.2619
11.7377
11.7056
11.5991
11.5974
11.5891
11.5833
11.5877
11.6169
11.724
1.52583
1.92308
1.85202
1.76203
1.74708
1.74392
1.73425
1.7594
1.75286
1.85391
1.24973
1.9709
2.05847
2.06552
2.06355
2.05941
2.05796
2.06494
2.07238
2.13135
1.03848
1.69967
1.76126
1.7765
1.7815
1.78078
1.78305
1.78926
1.80022
1.85476
1.08572
1.74431
1.81465
1.81496
1.81798
1.81568
1.8164
1.82016
1.83083
1.88494
1.0415
1.6842
1.74552
1.74144
1.73768
1.72766
1.72418
1.72484
1.7352
1.78633
1.05938
1.71376
1.76924
1.75713
1.74886
1.73766
1.73846
1.73893
1.74278
1.78998
1.05938
1.71376
1.76924
1.75714
1.74885
1.73768
1.73844
1.73895
1.74274
1.7898
1.04149
1.6842
1.74551
1.74146
1.73767
1.72768
1.72409
1.72481
1.73502
1.78615
1.08571
1.74432
1.81463
1.81497
1.81796
1.81573
1.81634
1.8202
1.83065
1.88454
1.03847
1.69967
1.76124
1.77654
1.78143
1.78085
1.78292
1.7894
1.79977
1.85495
1.24973
1.97091
2.05845
2.06556
2.06349
2.0596
2.05772
2.06552
2.07182
2.13212
1.52582
1.92309
1.85202
1.76209
1.74706
1.74422
1.73413
1.7611
1.7531
1.85841
1.52583
1.92308
1.85202
1.76203
1.74708
1.74392
1.73425
1.7594
1.75286
1.85391
1.24973
1.9709
2.05847
2.06552
2.06355
2.05941
2.05796
2.06494
2.07238
2.13135
1.03848
1.69967
1.76126
1.7765
1.7815
1.78078
1.78305
1.78926
1.80022
1.85476
1.08572
1.74431
1.81465
1.81496
1.81798
1.81568
1.8164
1.82016
1.83083
1.88494
1.0415
1.6842
1.74552
1.74144
1.73768
1.72766
1.72418
1.72484
1.7352
1.78633
1.05938
1.71376
1.76924
1.75713
1.74886
1.73766
1.73846
1.73893
1.74278
1.78998
1.05938
1.71376
1.76924
1.75714
1.74885
1.73768
1.73844
1.73895
1.74274
1.7898
1.04149
1.6842
1.74551
1.74146
1.73767
1.72768
1.72409
1.72481
1.73502
1.78615
1.08571
1.74432
1.81463
1.81497
1.81796
1.81573
1.81634
1.8202
1.83065
1.88454
1.03847
1.69967
1.76124
1.77654
1.78143
1.78085
1.78292
1.7894
1.79977
1.85495
1.24973
1.97091
2.05845
2.06556
2.06349
2.0596
2.05772
2.06552
2.07182
2.13212
1.52582
1.92309
1.85202
1.76209
1.74706
1.74422
1.73413
1.7611
1.7531
1.85841
10.2619
11.7377
11.7056
11.5989
11.5977
11.5885
11.5842
11.5855
11.6198
11.7159
12.5179
14.9939
14.9599
14.7971
14.7765
14.7275
14.7198
14.725
14.8081
14.9364
10.9039
12.9526
12.8927
12.8401
12.8304
12.8108
12.8133
12.8231
12.8693
13.0257
11.5082
13.7999
13.7584
13.6203
13.6098
13.5596
13.5388
13.5359
13.607
13.7543
11.0275
13.221
13.1192
12.9151
12.891
12.8258
12.7958
12.7838
12.878
13.0287
11.198
13.5213
13.3691
13.1574
13.1178
13.0478
13.0176
13.0025
13.0963
13.2584
11.198
13.5213
13.3691
13.1574
13.1177
13.0479
13.0173
13.0028
13.0955
13.2579
11.0275
13.221
13.1192
12.9152
12.8908
12.826
12.7952
12.7845
12.8768
13.0315
11.5082
13.7999
13.7584
13.6205
13.6096
13.5601
13.5379
13.5373
13.6049
13.7573
10.9039
12.9526
12.8926
12.8403
12.8301
12.8113
12.8125
12.8244
12.8669
13.0311
12.5179
14.9939
14.9598
14.7973
14.7761
14.7282
14.7186
14.7272
14.8036
14.9443
10.2619
11.7377
11.7056
11.5991
11.5974
11.5891
11.5833
11.5877
11.6169
11.724
91.2332
95.8283
96.2038
95.9761
96.0139
96.0082
96.0627
96.1055
96.1594
96.0945
108.5
115.38
115.595
114.71
114.794
114.665
114.663
114.687
114.905
114.782
93.8691
100.109
99.9305
99.7116
99.7051
99.6291
99.6495
99.6812
99.9011
99.947
99.616
106.329
106.213
105.46
105.513
105.275
105.159
105.11
105.423
105.337
95.6376
101.963
101.792
100.658
100.662
100.352
100.186
100.085
100.34
100.287
97.285
103.306
103.102
102.087
102.07
101.776
101.591
101.479
101.773
101.71
97.285
103.306
103.102
102.088
102.07
101.777
101.589
101.482
101.769
101.719
95.6375
101.963
101.792
100.658
100.661
100.354
100.183
100.09
100.328
100.307
99.6158
106.329
106.213
105.461
105.512
105.279
105.153
105.12
105.404
105.376
93.869
100.109
99.93
99.7127
99.7033
99.6324
99.6433
99.692
99.8779
99.9908
108.5
115.38
115.594
114.711
114.791
114.669
114.655
114.702
114.874
114.843
91.2332
95.8285
96.2033
95.977
96.0121
96.0116
96.056
96.1182
96.1341
96.1442
802.479
817.056
820.584
820.313
820.731
821.029
821.787
822.383
821.908
819.718
797.602
819.471
819.74
819.793
819.968
820.165
820.965
821.659
822.378
819.689
758.726
783.304
782.04
781.925
781.816
781.634
782.104
782.59
783.962
781.157
779.497
798.665
798.022
797.868
797.618
797.143
797.356
797.622
798.647
795.825
769.256
787.797
787.681
787.318
786.951
786.223
786.149
786.19
787.209
784.291
774.78
791.569
790.874
790.371
789.879
789.016
788.793
788.707
789.728
786.841
774.779
791.569
790.873
790.373
789.877
789.022
788.784
788.723
789.695
786.901
769.255
787.799
787.678
787.322
786.943
786.237
786.123
786.235
787.115
784.466
779.496
798.667
798.019
797.874
797.606
797.165
797.316
797.693
798.499
796.106
758.725
783.306
782.036
781.933
781.802
781.66
782.056
782.677
783.78
781.514
797.601
819.473
819.736
819.801
819.952
820.194
820.91
821.762
822.168
820.099
802.478
817.058
820.58
820.321
820.716
821.057
821.733
822.483
821.7
820.116
2210.5
2245.64
2245.94
2247.99
2248.12
2249.45
2252
2254.36
2256.72
2249.67
927.74
934.3
932.792
934.061
933.68
934.244
935.203
936.109
937.36
934.856
815.618
823.355
819.264
820.73
819.884
820.168
820.734
821.443
823.335
820.851
828.503
832.215
830.11
831.545
830.549
830.528
830.661
831.066
832.287
829.654
819.738
823.638
820.953
822.118
820.898
820.614
820.483
820.666
821.873
819.263
824.626
826.752
824.139
825.335
824.024
823.626
823.314
823.386
824.562
821.979
824.626
826.752
824.138
825.337
824.021
823.631
823.304
823.402
824.527
822.032
819.737
823.64
820.95
822.123
820.89
820.629
820.455
820.712
821.774
819.432
828.503
832.217
830.106
831.552
830.536
830.55
830.621
831.139
832.133
829.95
815.617
823.357
819.261
820.738
819.87
820.195
820.683
821.534
823.146
821.218
927.739
934.303
932.788
934.069
933.663
934.277
935.141
936.225
937.122
935.309
2210.5
2245.64
2245.93
2248.02
2248.08
2249.52
2251.85
2254.64
2256.16
2250.79
5391.45
5449.22
5473.67
5478.4
5475.84
5472.68
5470.66
5469.19
5467.98
5466.79
5465.65
5464.5
5463.36
5462.23
5461.09
5459.96
5458.83
5457.69
5456.55
5455.41
5454.26
5453.12
5451.97
5450.84
5449.7
5448.57
5447.44
5446.32
5445.21
5444.11
5443.01
5441.93
5440.84
5439.82
5438.54
5438.26
5435.12
5438.05
5433.39
5432.27
3293.88
3337.01
3352.4
3355.66
3353.97
3352.09
3350.76
3349.87
3349.09
3348.36
3347.64
3346.92
3346.2
3345.49
3344.78
3344.07
3343.36
3342.64
3341.93
3341.21
3340.49
3339.77
3339.05
3338.34
3337.63
3336.92
3336.21
3335.51
3334.81
3334.12
3333.44
3332.76
3332.08
3331.46
3330.66
3330.49
3328.53
3330.35
3327.39
3326.5
2875.6
2918.4
2932.05
2935.32
2933.78
2932.2
2930.95
2930.21
2929.49
2928.87
2928.21
2927.59
2926.95
2926.32
2925.69
2925.06
2924.43
2923.8
2923.16
2922.53
2921.89
2921.25
2920.62
2919.98
2919.35
2918.73
2918.1
2917.48
2916.87
2916.26
2915.66
2915.07
2914.48
2913.93
2913.23
2913.1
2911.37
2912.97
2910.42
2909.36
2854.62
2899.77
2913.37
2916.95
2915.4
2913.88
2912.59
2911.87
2911.14
2910.53
2909.87
2909.25
2908.61
2907.99
2907.36
2906.73
2906.1
2905.47
2904.83
2904.19
2903.55
2902.92
2902.28
2901.65
2901.02
2900.39
2899.77
2899.16
2898.55
2897.95
2897.35
2896.77
2896.18
2895.64
2894.94
2894.83
2893.1
2894.69
2892.23
2890.9
2824.2
2870.87
2884.4
2888.22
2886.66
2885.2
2883.88
2883.17
2882.43
2881.83
2881.17
2880.56
2879.93
2879.31
2878.68
2878.05
2877.42
2876.79
2876.16
2875.52
2874.88
2874.25
2873.61
2872.98
2872.35
2871.73
2871.11
2870.5
2869.9
2869.3
2868.71
2868.14
2867.56
2867.03
2866.34
2866.24
2864.52
2866.09
2863.71
2862.22
2823.84
2870.94
2884.4
2888.35
2886.79
2885.35
2884
2883.31
2882.56
2881.97
2881.3
2880.69
2880.05
2879.43
2878.8
2878.18
2877.54
2876.91
2876.27
2875.64
2875
2874.36
2873.72
2873.09
2872.46
2871.84
2871.22
2870.61
2870
2869.41
2868.82
2868.25
2867.67
2867.15
2866.45
2866.37
2864.64
2866.2
2863.86
2862.26
2822.45
2868.81
2882.14
2886.06
2884.49
2883.05
2881.71
2881.01
2880.26
2879.67
2879
2878.39
2877.75
2877.13
2876.5
2875.87
2875.23
2874.6
2873.96
2873.33
2872.68
2872.04
2871.41
2870.78
2870.15
2869.52
2868.9
2868.29
2867.68
2867.09
2866.5
2865.93
2865.35
2864.82
2864.13
2864.04
2862.31
2863.87
2861.53
2859.93
2819.97
2864.49
2877.62
2881.36
2879.8
2878.33
2877.01
2876.3
2875.56
2874.96
2874.3
2873.68
2873.04
2872.42
2871.79
2871.16
2870.53
2869.89
2869.25
2868.62
2867.97
2867.33
2866.7
2866.07
2865.44
2864.81
2864.19
2863.57
2862.97
2862.37
2861.78
2861.2
2860.61
2860.09
2859.39
2859.29
2857.56
2859.13
2856.75
2855.26
2847.34
2889.1
2902.09
2905.54
2903.99
2902.46
2901.17
2900.44
2899.71
2899.09
2898.43
2897.81
2897.16
2896.53
2895.9
2895.26
2894.63
2893.99
2893.35
2892.71
2892.06
2891.42
2890.78
2890.14
2889.51
2888.88
2888.25
2887.63
2887.01
2886.41
2885.81
2885.22
2884.63
2884.09
2883.38
2883.27
2881.53
2883.11
2880.66
2879.32
2864.97
2903.41
2916.28
2919.39
2917.85
2916.25
2915.01
2914.25
2913.53
2912.9
2912.24
2911.61
2910.96
2910.33
2909.69
2909.05
2908.42
2907.78
2907.14
2906.49
2905.84
2905.2
2904.56
2903.92
2903.28
2902.65
2902.02
2901.39
2900.77
2900.16
2899.55
2898.95
2898.35
2897.8
2897.09
2896.95
2895.21
2896.8
2894.26
2893.19
3277.96
3315.45
3329.85
3332.92
3331.22
3329.32
3327.99
3327.08
3326.29
3325.56
3324.82
3324.09
3323.37
3322.65
3321.92
3321.2
3320.48
3319.76
3319.03
3318.3
3317.57
3316.84
3316.11
3315.39
3314.67
3313.95
3313.23
3312.52
3311.81
3311.11
3310.42
3309.74
3309.05
3308.41
3307.6
3307.42
3305.45
3307.26
3304.29
3303.4
5362.18
5410.66
5433.47
5437.88
5435.3
5432.12
5430.1
5428.6
5427.37
5426.17
5425.01
5423.84
5422.68
5421.53
5420.38
5419.23
5418.08
5416.92
5415.76
5414.6
5413.44
5412.27
5411.11
5409.96
5408.81
5407.66
5406.51
5405.37
5404.24
5403.12
5402
5400.9
5399.79
5398.76
5397.46
5397.16
5394.01
5396.91
5392.25
5391.11
2383.5
2408.52
2418.77
2420.71
2419.59
2418.14
2417.27
2416.6
2416.07
2415.54
2415.04
2414.52
2414.02
2413.52
2413.02
2412.51
2412.01
2411.5
2411
2410.49
2409.98
2409.47
2408.97
2408.46
2407.96
2407.46
2406.96
2406.46
2405.97
2405.48
2404.99
2404.51
2404.03
2403.58
2403.01
2402.89
2401.5
2402.81
2400.81
2400.34
2689.47
2721.33
2733.74
2736.15
2734.88
2733.22
2732.2
2731.42
2730.81
2730.2
2729.62
2729.02
2728.44
2727.86
2727.28
2726.69
2726.11
2725.53
2724.94
2724.36
2723.77
2723.18
2722.59
2722.01
2721.43
2720.85
2720.27
2719.7
2719.12
2718.56
2718
2717.44
2716.88
2716.37
2715.71
2715.57
2713.96
2715.46
2713.1
2712.45
2574.68
2608.45
2620.66
2623.17
2621.99
2620.4
2619.4
2618.65
2618.06
2617.46
2616.9
2616.33
2615.77
2615.21
2614.65
2614.09
2613.53
2612.96
2612.4
2611.83
2611.27
2610.7
2610.13
2609.57
2609.01
2608.45
2607.9
2607.34
2606.79
2606.25
2605.71
2605.18
2604.64
2604.14
2603.51
2603.38
2601.83
2603.26
2601.06
2600.19
2583.31
2619.84
2632.41
2635.15
2634.03
2632.43
2631.41
2630.66
2630.06
2629.47
2628.9
2628.33
2627.77
2627.2
2626.64
2626.07
2625.51
2624.95
2624.38
2623.81
2623.24
2622.67
2622.1
2621.54
2620.98
2620.42
2619.86
2619.3
2618.75
2618.2
2617.66
2617.13
2616.59
2616.09
2615.45
2615.33
2613.76
2615.18
2613.03
2611.93
2558.9
2596.8
2609.49
2612.39
2611.31
2609.73
2608.7
2607.94
2607.35
2606.76
2606.19
2605.62
2605.06
2604.5
2603.94
2603.38
2602.82
2602.26
2601.69
2601.12
2600.56
2599.99
2599.42
2598.86
2598.3
2597.74
2597.19
2596.63
2596.08
2595.54
2595
2594.47
2593.93
2593.44
2592.79
2592.69
2591.11
2592.52
2590.43
2589.21
2556.08
2594.5
2607.2
2610.16
2609.12
2607.53
2606.5
2605.74
2605.14
2604.55
2603.99
2603.42
2602.86
2602.29
2601.73
2601.17
2600.61
2600.05
2599.48
2598.92
2598.35
2597.78
2597.22
2596.65
2596.09
2595.53
2594.98
2594.42
2593.87
2593.33
2592.79
2592.26
2591.72
2591.23
2590.58
2590.48
2588.9
2590.3
2588.24
2586.96
2554.8
2592.55
2605.12
2608.06
2607.01
2605.43
2604.39
2603.63
2603.03
2602.44
2601.88
2601.3
2600.74
2600.18
2599.62
2599.06
2598.49
2597.93
2597.36
2596.8
2596.23
2595.66
2595.09
2594.53
2593.97
2593.41
2592.85
2592.3
2591.75
2591.2
2590.66
2590.13
2589.59
2589.1
2588.45
2588.35
2586.77
2588.17
2586.11
2584.82
2555.02
2590.96
2603.28
2606.11
2605.03
2603.44
2602.41
2601.65
2601.05
2600.46
2599.89
2599.32
2598.75
2598.19
2597.63
2597.06
2596.5
2595.93
2595.37
2594.8
2594.23
2593.66
2593.09
2592.52
2591.96
2591.4
2590.84
2590.28
2589.73
2589.18
2588.64
2588.11
2587.57
2587.07
2586.42
2586.32
2584.74
2586.14
2584.05
2582.83
2576.6
2610.05
2622.05
2624.68
2623.56
2621.95
2620.93
2620.17
2619.57
2618.97
2618.4
2617.82
2617.25
2616.68
2616.12
2615.55
2614.98
2614.41
2613.84
2613.27
2612.69
2612.12
2611.55
2610.98
2610.41
2609.84
2609.28
2608.72
2608.16
2607.61
2607.07
2606.53
2605.98
2605.48
2604.83
2604.71
2603.14
2604.55
2602.4
2601.31
2565.02
2594.87
2606.38
2608.74
2607.57
2605.96
2604.96
2604.2
2603.6
2603
2602.44
2601.86
2601.29
2600.72
2600.16
2599.59
2599.02
2598.45
2597.88
2597.31
2596.74
2596.16
2595.59
2595.02
2594.46
2593.89
2593.33
2592.77
2592.21
2591.66
2591.12
2590.58
2590.03
2589.53
2588.89
2588.76
2587.2
2588.62
2586.42
2585.55
2676.28
2703.54
2715.13
2717.38
2716.1
2714.43
2713.41
2712.62
2712
2711.38
2710.79
2710.19
2709.6
2709.01
2708.42
2707.83
2707.24
2706.64
2706.05
2705.45
2704.86
2704.26
2703.67
2703.08
2702.49
2701.9
2701.31
2700.73
2700.15
2699.58
2699.01
2698.44
2697.88
2697.35
2696.69
2696.54
2694.92
2696.41
2694.04
2693.4
2370.04
2390.91
2400.43
2402.23
2401.11
2399.65
2398.78
2398.09
2397.56
2397.02
2396.51
2395.98
2395.47
2394.96
2394.45
2393.94
2393.43
2392.91
2392.4
2391.88
2391.37
2390.85
2390.34
2389.82
2389.31
2388.8
2388.29
2387.79
2387.29
2386.79
2386.29
2385.81
2385.31
2384.86
2384.28
2384.15
2382.76
2384.05
2382.05
2381.57
539.607
546.248
548.487
548.913
548.649
548.318
548.122
547.967
547.85
547.728
547.614
547.497
547.383
547.267
547.153
547.038
546.924
546.808
546.693
546.577
546.461
546.344
546.229
546.113
545.998
545.883
545.769
545.656
545.543
545.432
545.321
545.213
545.103
545.002
544.874
544.847
544.537
544.837
544.396
544.304
731.816
742.003
745.183
745.745
745.412
744.923
744.662
744.435
744.278
744.102
743.948
743.782
743.625
743.463
743.305
743.144
742.985
742.824
742.664
742.502
742.34
742.179
742.018
741.858
741.698
741.54
741.381
741.225
741.069
740.915
740.761
740.611
740.459
740.319
740.14
740.104
739.672
740.088
739.5
739.341
705.722
717.336
720.358
720.882
720.593
720.084
719.842
719.605
719.46
719.283
719.135
718.971
718.82
718.661
718.507
718.35
718.196
718.039
717.883
717.726
717.569
717.412
717.256
717.101
716.947
716.793
716.64
716.489
716.338
716.189
716.041
715.895
715.748
715.613
715.438
715.407
714.985
715.388
714.872
714.672
704.187
717.109
720.342
720.958
720.687
720.194
719.944
719.713
719.564
719.391
719.244
719.082
718.931
718.774
718.622
718.467
718.313
718.158
718.003
717.847
717.691
717.535
717.38
717.226
717.073
716.92
716.767
716.616
716.466
716.317
716.17
716.025
715.877
715.743
715.568
715.538
715.115
715.508
714.995
714.728
697.073
710.931
714.227
714.905
714.645
714.161
713.904
713.676
713.525
713.354
713.206
713.046
712.895
712.739
712.587
712.432
712.279
712.125
711.971
711.815
711.66
711.505
711.351
711.197
711.044
710.892
710.74
710.59
710.44
710.292
710.145
710
709.854
709.72
709.544
709.517
709.093
709.48
708.975
708.67
694.188
708.352
711.647
712.33
712.084
711.596
711.341
711.11
710.962
710.79
710.643
710.483
710.333
710.177
710.026
709.872
709.719
709.565
709.411
709.257
709.102
708.947
708.794
708.641
708.488
708.336
708.185
708.035
707.885
707.738
707.591
707.447
707.301
707.168
706.992
706.966
706.542
706.926
706.438
706.12
693.843
707.82
711.077
711.755
711.507
711.019
710.765
710.533
710.384
710.213
710.065
709.905
709.755
709.599
709.447
709.293
709.14
708.986
708.832
708.677
708.522
708.367
708.213
708.059
707.907
707.754
707.603
707.453
707.303
707.155
707.008
706.864
706.717
706.584
706.408
706.382
705.958
706.341
705.853
705.535
696.019
709.332
712.524
713.181
712.92
712.435
712.178
711.948
711.798
711.626
711.477
711.316
711.164
711.007
710.854
710.699
710.545
710.39
710.235
710.079
709.923
709.767
709.612
709.458
709.304
709.151
708.999
708.847
708.697
708.548
708.4
708.255
708.107
707.973
707.796
707.768
707.343
707.729
707.225
706.919
702.358
714.417
717.489
718.074
717.801
717.306
717.056
716.823
716.673
716.499
716.35
716.187
716.035
715.877
715.723
715.567
715.412
715.255
715.099
714.942
714.785
714.628
714.472
714.316
714.161
714.007
713.853
713.701
713.549
713.4
713.25
713.104
712.956
712.82
712.643
712.613
712.189
712.58
712.066
711.799
703.064
713.573
716.394
716.881
716.589
716.078
715.836
715.596
715.45
715.271
715.122
714.956
714.803
714.642
714.487
714.328
714.171
714.013
713.855
713.696
713.538
713.379
713.222
713.065
712.909
712.753
712.599
712.445
712.293
712.142
711.992
711.845
711.696
711.559
711.383
711.349
710.927
711.328
710.811
710.611
728.21
737.116
740.07
740.588
740.252
739.76
739.499
739.268
739.11
738.932
738.775
738.607
738.447
738.283
738.123
737.96
737.798
737.635
737.472
737.309
737.145
736.981
736.818
736.656
736.494
736.333
736.172
736.013
735.855
735.699
735.543
735.39
735.236
735.094
734.913
734.874
734.44
734.851
734.263
734.103
536.491
542.174
544.245
544.639
544.372
544.039
543.842
543.685
543.566
543.442
543.327
543.207
543.091
542.974
542.858
542.741
542.625
542.507
542.39
542.272
542.154
542.036
541.918
541.801
541.684
541.567
541.451
541.336
541.221
541.108
540.995
540.885
540.774
540.671
540.541
540.512
540.2
540.497
540.055
539.962
125.666
127.967
128.43
128.559
128.475
128.408
128.357
128.324
128.295
128.267
128.24
128.212
128.185
128.157
128.129
128.101
128.073
128.045
128.016
127.988
127.959
127.93
127.901
127.873
127.844
127.816
127.788
127.76
127.733
127.707
127.681
127.656
127.631
127.609
127.58
127.576
127.506
127.582
127.486
127.49
192.315
196.47
197.274
197.413
197.32
197.185
197.119
197.056
197.016
196.968
196.928
196.883
196.842
196.798
196.756
196.712
196.669
196.626
196.582
196.538
196.495
196.451
196.408
196.365
196.322
196.28
196.238
196.197
196.156
196.116
196.076
196.037
195.998
195.963
195.917
195.91
195.8
195.914
195.776
195.75
190.368
195.471
196.301
196.426
196.35
196.203
196.142
196.073
196.036
195.986
195.947
195.902
195.861
195.817
195.776
195.732
195.69
195.647
195.604
195.561
195.518
195.475
195.432
195.39
195.348
195.307
195.265
195.225
195.184
195.145
195.105
195.066
195.027
194.992
194.945
194.938
194.827
194.939
194.814
194.772
190.778
196.626
197.54
197.674
197.612
197.458
197.399
197.327
197.292
197.241
197.203
197.156
197.116
197.072
197.031
196.988
196.945
196.903
196.86
196.817
196.775
196.732
196.689
196.647
196.605
196.564
196.523
196.482
196.441
196.401
196.361
196.322
196.282
196.247
196.199
196.192
196.08
196.19
196.07
196.006
187.962
194.312
195.257
195.407
195.352
195.198
195.139
195.067
195.032
194.981
194.943
194.897
194.857
194.814
194.773
194.73
194.688
194.646
194.604
194.562
194.519
194.477
194.435
194.394
194.352
194.311
194.27
194.229
194.189
194.149
194.109
194.07
194.03
193.995
193.947
193.941
193.828
193.935
193.818
193.746
187.458
194.004
194.959
195.106
195.056
194.9
194.843
194.769
194.734
194.683
194.645
194.6
194.56
194.516
194.475
194.433
194.391
194.349
194.307
194.264
194.222
194.18
194.138
194.096
194.055
194.014
193.973
193.932
193.891
193.851
193.811
193.772
193.733
193.697
193.649
193.643
193.53
193.636
193.525
193.448
187.365
193.86
194.803
194.948
194.898
194.742
194.684
194.61
194.576
194.524
194.487
194.441
194.401
194.357
194.316
194.274
194.232
194.19
194.148
194.105
194.063
194.021
193.979
193.937
193.895
193.854
193.813
193.772
193.732
193.692
193.652
193.612
193.573
193.537
193.489
193.482
193.369
193.476
193.364
193.287
187.677
193.877
194.791
194.933
194.878
194.724
194.665
194.592
194.557
194.506
194.468
194.422
194.382
194.338
194.297
194.254
194.212
194.17
194.127
194.085
194.042
194
193.958
193.916
193.874
193.833
193.791
193.75
193.71
193.67
193.63
193.591
193.551
193.515
193.467
193.46
193.347
193.454
193.338
193.265
190.28
195.885
196.751
196.877
196.814
196.66
196.601
196.528
196.493
196.441
196.403
196.356
196.315
196.271
196.229
196.186
196.143
196.1
196.057
196.014
195.971
195.928
195.885
195.843
195.801
195.759
195.717
195.676
195.635
195.594
195.554
195.515
195.475
195.439
195.391
195.384
195.271
195.38
195.26
195.196
189.65
194.444
195.217
195.33
195.254
195.106
195.045
194.975
194.938
194.888
194.849
194.803
194.761
194.717
194.675
194.631
194.588
194.545
194.502
194.458
194.414
194.371
194.328
194.285
194.243
194.201
194.159
194.118
194.077
194.037
193.997
193.958
193.918
193.882
193.835
193.827
193.716
193.827
193.702
193.66
191.356
195.161
195.902
196.03
195.935
195.8
195.733
195.669
195.629
195.581
195.54
195.495
195.453
195.408
195.365
195.321
195.278
195.234
195.189
195.145
195.101
195.056
195.012
194.969
194.926
194.883
194.84
194.798
194.757
194.716
194.676
194.637
194.597
194.561
194.515
194.507
194.395
194.509
194.37
194.344
124.893
126.964
127.386
127.508
127.424
127.356
127.304
127.272
127.242
127.214
127.186
127.158
127.129
127.101
127.073
127.045
127.016
126.987
126.958
126.929
126.9
126.871
126.841
126.812
126.783
126.755
126.726
126.698
126.671
126.644
126.617
126.592
126.566
126.544
126.515
126.51
126.44
126.515
126.418
126.422
32.5575
33.7313
33.7553
33.8667
33.8066
33.8201
33.7898
33.7944
33.7794
33.7772
33.7665
33.7607
33.7511
33.7434
33.7339
33.725
33.7152
33.7056
33.6954
33.6853
33.6749
33.6646
33.6543
33.6443
33.6345
33.6251
33.6161
33.6077
33.5998
33.5927
33.5862
33.5806
33.5753
33.5716
33.5661
33.5684
33.553
33.5804
33.5575
33.5897
54.1924
56.4406
56.6467
56.7113
56.6702
56.6407
56.6166
56.6024
56.5893
56.5771
56.5649
56.5525
56.54
56.5273
56.5144
56.5013
56.488
56.4746
56.4611
56.4476
56.4341
56.4207
56.4076
56.3948
56.3823
56.3702
56.3583
56.347
56.336
56.3256
56.3153
56.3057
56.296
56.2878
56.2764
56.2766
56.2478
56.2843
56.2498
56.2566
55.3498
58.178
58.4388
58.4907
58.4615
58.4231
58.4019
58.3838
58.3718
58.358
58.3462
58.3331
58.3208
58.308
58.2955
58.2827
58.27
58.2572
58.2444
58.2315
58.2187
58.206
58.1935
58.1812
58.169
58.1571
58.1453
58.1338
58.1225
58.1115
58.1005
58.0901
58.0793
58.07
58.057
58.0562
58.0249
58.0591
58.0238
58.0152
55.2456
58.528
58.8399
58.8781
58.8609
58.8122
58.7959
58.773
58.7635
58.7476
58.7368
58.7229
58.7112
58.6981
58.6859
58.6732
58.6608
58.6482
58.6357
58.6232
58.6107
58.5983
58.586
58.5738
58.5617
58.5498
58.538
58.5263
58.5147
58.5034
58.492
58.481
58.4698
58.4599
58.4462
58.4449
58.4132
58.4464
58.4159
58.3996
54.3538
57.8887
58.221
58.2694
58.254
58.2082
58.1905
58.1687
58.1585
58.1432
58.1321
58.1186
58.1068
58.0939
58.0818
58.0692
58.057
58.0445
58.0321
58.0197
58.0073
57.9949
57.9826
57.9704
57.9582
57.9462
57.9342
57.9223
57.9105
57.8989
57.8873
57.876
57.8644
57.8541
57.84
57.8383
57.8059
57.8371
57.8051
57.784
54.0596
57.7448
58.0927
58.1295
58.1201
58.0681
58.0537
58.0287
58.0203
58.0036
57.9933
57.9791
57.9676
57.9545
57.9424
57.9297
57.9175
57.9049
57.8925
57.88
57.8675
57.8551
57.8427
57.8305
57.8182
57.8061
57.794
57.7821
57.7701
57.7584
57.7466
57.7352
57.7234
57.713
57.6987
57.6971
57.6649
57.6962
57.6688
57.6482
54.0325
57.7016
58.046
58.082
58.0726
58.0206
58.0062
57.9811
57.9727
57.9559
57.9457
57.9314
57.9199
57.9067
57.8947
57.882
57.8697
57.8571
57.8447
57.8321
57.8197
57.8072
57.7948
57.7825
57.7703
57.7581
57.746
57.734
57.7221
57.7103
57.6985
57.6871
57.6753
57.6649
57.6505
57.6489
57.6166
57.6479
57.6204
57.5999
54.2703
57.7597
58.0819
58.1279
58.1123
58.0663
58.0487
58.0267
58.0165
58.0012
57.9901
57.9764
57.9646
57.9516
57.9395
57.9268
57.9145
57.902
57.8895
57.877
57.8645
57.8521
57.8397
57.8275
57.8153
57.8032
57.7911
57.7792
57.7673
57.7556
57.7439
57.7325
57.7209
57.7105
57.6963
57.6946
57.6621
57.6933
57.6612
57.6402
55.0978
58.3085
58.6047
58.6398
58.6224
58.5736
58.5573
58.5342
58.5247
58.5086
58.4978
58.4838
58.4719
58.4587
58.4465
58.4336
58.4212
58.4084
58.3959
58.3832
58.3706
58.3581
58.3457
58.3334
58.3212
58.3092
58.2972
58.2855
58.2738
58.2623
58.2508
58.2398
58.2284
58.2184
58.2046
58.2032
58.1713
58.2044
58.1738
58.1575
55.1336
57.8742
58.1161
58.1644
58.135
58.0964
58.0751
58.0569
58.0448
58.0308
58.0188
58.0056
57.9932
57.9803
57.9676
57.9546
57.9418
57.9288
57.9159
57.9029
57.89
57.8771
57.8645
57.852
57.8397
57.8276
57.8157
57.8041
57.7926
57.7815
57.7704
57.7597
57.7489
57.7394
57.7263
57.7253
57.6938
57.7278
57.6924
57.6838
53.9117
56.0645
56.2508
56.3119
56.2706
56.2408
56.2166
56.2022
56.189
56.1766
56.1643
56.1517
56.139
56.1261
56.1131
56.0998
56.0864
56.0728
56.0591
56.0454
56.0318
56.0182
56.005
55.992
55.9793
55.967
55.955
55.9435
55.9323
55.9217
55.9113
55.9016
55.8916
55.8833
55.8717
55.8717
55.8427
55.8789
55.8443
55.8509
32.3358
33.4518
33.4645
33.5734
33.5133
33.5266
33.4964
33.5007
33.4857
33.4833
33.4725
33.4665
33.4569
33.449
33.4394
33.4304
33.4205
33.4107
33.4005
33.3902
33.3797
33.3693
33.3589
33.3488
33.3389
33.3293
33.3202
33.3117
33.3037
33.2966
33.2899
33.2842
33.2788
33.2749
33.2694
33.2715
33.256
33.2832
33.26
33.2919
32.5575
33.7313
33.7553
33.8667
33.8066
33.8201
33.7898
33.7944
33.7794
33.7772
33.7665
33.7607
33.7511
33.7434
33.7339
33.725
33.7152
33.7056
33.6954
33.6853
33.6749
33.6646
33.6543
33.6443
33.6345
33.6251
33.6161
33.6077
33.5998
33.5927
33.5862
33.5806
33.5753
33.5716
33.5661
33.5684
33.553
33.5804
33.5575
33.5897
54.1924
56.4406
56.6467
56.7113
56.6702
56.6407
56.6166
56.6024
56.5893
56.5771
56.5649
56.5525
56.54
56.5273
56.5144
56.5013
56.488
56.4746
56.4611
56.4476
56.4341
56.4207
56.4076
56.3948
56.3823
56.3702
56.3584
56.347
56.336
56.3256
56.3153
56.3057
56.296
56.2878
56.2764
56.2766
56.2478
56.2843
56.2498
56.2566
55.3498
58.178
58.4388
58.4907
58.4615
58.4231
58.4019
58.3838
58.3718
58.358
58.3462
58.3331
58.3208
58.308
58.2955
58.2827
58.27
58.2572
58.2444
58.2315
58.2187
58.206
58.1935
58.1812
58.169
58.1571
58.1453
58.1338
58.1225
58.1115
58.1005
58.0901
58.0793
58.07
58.0571
58.0562
58.0249
58.0591
58.0238
58.0152
55.2456
58.528
58.8399