/*--------------------------------*- C++ -*----------------------------------*\
  =========                 |
  \\      /  F ield         | OpenFOAM: The Open Source CFD Toolbox
   \\    /   O peration     | Website:  https://openfoam.org
    \\  /    A nd           | Version:  7
     \\/     M anipulation  |
\*---------------------------------------------------------------------------*/
FoamFile
{
    version     2.0;
    format      ascii;
    class       surfaceScalarField;
    location    "0.9";
    object      phi_0;
}
// * * * * * * * * * * * * * * * * * * * * * * * * * * * * * * * * * * * * * //

dimensions      [1 0 -1 0 0 0 0];

internalField   nonuniform List<scalar> 
36620
(
0.000467297
0.000913022
8.01958e-06
0.00026178
0.00020442
4.32637e-06
0.000187284
7.07713e-05
6.90904e-06
0.000163529
2.23581e-05
4.55693e-06
0.000150366
9.7928e-06
6.51424e-06
0.000142387
6.43855e-06
4.673e-06
0.000136371
2.91167e-06
6.22924e-06
0.00013179
2.94972e-06
4.76013e-06
0.000128007
9.27337e-07
5.99346e-06
0.000124952
1.38771e-06
4.81577e-06
0.000122322
-1.22069e-09
5.78966e-06
0.000120115
5.29797e-07
4.84447e-06
0.000118168
-4.86739e-07
5.60897e-06
0.000116502
-4.70807e-09
4.85117e-06
0.000114972
-7.33394e-07
5.44548e-06
0.000113743
-4.30707e-07
4.84016e-06
0.00011223
-6.05895e-07
5.29546e-06
0.000111384
-7.98165e-07
4.81515e-06
9.99855e-05
9.37997e-06
5.18508e-06
3.51765e-06
4.70925e-06
9.49284e-05
0.00100668
0.00129258
1.94555e-06
0.000749007
0.000466796
-1.45417e-06
0.00059782
0.000223854
1.20141e-06
0.000533687
9.06167e-05
-1.11859e-06
0.000496398
4.91661e-05
8.66699e-07
0.000473889
3.28255e-05
-9.70978e-07
0.000455863
2.32186e-05
5.9503e-07
0.000443253
1.93165e-05
-8.78408e-07
0.000431755
1.49687e-05
3.59333e-07
0.000423573
1.33341e-05
-8.23117e-07
0.000415573
1.08214e-05
1.54061e-07
0.000409884
1.00246e-05
-7.94576e-07
0.000404055
8.40718e-06
-2.72604e-08
0.000399951
7.94553e-06
-7.87743e-07
0.000395571
6.90845e-06
-1.91588e-07
0.000392677
6.32776e-06
-7.97591e-07
0.000389737
5.73985e-06
-3.47131e-07
0.000387777
5.01466e-06
-8.18148e-07
0.000403032
-2.31639e-06
-5.41191e-07
-9.55546e-06
-9.60759e-07
0.000420091
0.00139884
0.00127607
5.9935e-06
0.00129006
0.000576054
2.79439e-06
0.00116125
0.000350362
5.30563e-06
0.00107736
0.000174378
2.95402e-06
0.00101902
0.000105317
4.91099e-06
0.000979796
7.16266e-05
3.06034e-06
0.000948734
5.22024e-05
4.61897e-06
0.000925939
4.14666e-05
3.14421e-06
0.000905852
3.31908e-05
4.38048e-06
0.00089074
2.78339e-05
3.19843e-06
0.000876589
2.3465e-05
4.17479e-06
0.000865861
2.02721e-05
3.22632e-06
0.000855434
1.76564e-05
3.99298e-06
0.000847584
1.54382e-05
3.23269e-06
0.000839663
1.39246e-05
3.82898e-06
0.000834065
1.16494e-05
3.22157e-06
0.000826801
1.22721e-05
3.68168e-06
0.000823801
7.73273e-06
3.19535e-06
0.000807923
1.28309e-05
3.60709e-06
9.7161e-06
3.11727e-06
0.00078838
0.0015526
0.00110951
2.19229e-06
0.00157629
0.000556538
-8.79387e-07
0.00153761
0.000390437
1.60349e-06
0.00149516
0.000220307
-7.14301e-07
0.00145498
0.000146889
1.27214e-06
0.00142286
0.000106887
-5.62829e-07
0.00139411
8.23957e-05
1.00698e-06
0.00137082
6.75361e-05
-4.64649e-07
0.00134929
5.62023e-05
7.75128e-07
0.00133183
4.80071e-05
-4.06757e-07
0.00131548
4.16617e-05
5.71276e-07
0.00130225
3.64169e-05
-3.77076e-07
0.00128977
3.2401e-05
3.9062e-07
0.00127956
2.87693e-05
-3.70005e-07
0.00127021
2.59099e-05
2.25741e-07
0.00126179
2.33917e-05
-3.80818e-07
0.0012565
2.05033e-05
6.85207e-08
0.00124755
2.01026e-05
-4.05043e-07
0.00125413
9.36395e-06
-1.42671e-07
1.20272e-05
-5.29676e-07
0.00125528
0.00159153
0.000901123
5.15616e-06
0.00167889
0.000470194
2.30156e-06
0.00170566
0.000361984
4.69497e-06
0.00170786
0.000218507
2.37118e-06
0.00169805
0.000155021
4.33149e-06
0.00168664
0.000118415
2.48555e-06
0.00167258
9.4913e-05
4.04745e-06
0.00165983
8.00345e-05
2.57384e-06
0.00164622
6.81664e-05
3.81103e-06
0.00163449
5.9243e-05
2.62912e-06
0.0016227
5.20826e-05
3.60561e-06
0.00161281
4.60351e-05
2.65776e-06
0.00160309
4.12316e-05
3.42499e-06
0.00159498
3.68598e-05
2.6652e-06
0.00158707
3.33189e-05
3.26134e-06
0.00158067
3.00528e-05
2.65372e-06
0.00157377
2.73317e-05
3.11435e-06
0.00156872
2.5668e-05
2.62689e-06
0.00155869
1.95148e-05
3.04361e-06
2.91966e-05
2.555e-06
0.0015421
0.00158283
0.000703874
2.65493e-06
0.00168505
0.000371458
-1.7278e-07
0.00174564
0.00030225
2.16994e-06
0.00177774
0.000189319
-1.54731e-07
0.00179365
0.00013995
1.81117e-06
0.00180392
0.000110808
-3.01453e-08
0.00180804
9.18189e-05
1.53666e-06
0.00181058
7.98049e-05
6.3659e-08
0.00180979
6.98217e-05
1.30226e-06
0.00180875
6.22188e-05
1.19643e-07
0.00180607
5.57838e-05
1.0966e-06
0.00180389
5.03358e-05
1.48548e-07
0.00180096
4.56875e-05
9.16353e-07
0.00179853
4.16959e-05
1.56602e-07
0.00179602
3.77472e-05
7.52071e-07
0.00179339
3.53474e-05
1.44974e-07
0.00179265
3.04642e-05
5.94612e-07
0.00178963
3.17497e-05
1.16876e-07
0.00179287
1.91669e-05
3.90495e-07
2.94429e-05
1.4886e-08
0.00179593
0.00157212
0.000515505
4.52866e-06
0.00167319
0.000271851
1.85936e-06
0.00174519
0.000229107
4.15792e-06
0.00179009
0.000145318
1.84746e-06
0.00181939
0.000109493
3.80384e-06
0.0018426
8.82761e-05
1.96071e-06
0.00185898
7.45033e-05
3.52565e-06
0.00187318
6.596e-05
2.05356e-06
0.00188323
5.86593e-05
3.29217e-06
0.00189223
5.31418e-05
2.11052e-06
0.0018987
4.82706e-05
3.08714e-06
0.00190492
4.41767e-05
2.13987e-06
0.00190958
4.04981e-05
2.90781e-06
0.00191426
3.73892e-05
2.14914e-06
0.00191771
3.41431e-05
2.74541e-06
0.00192152
3.21317e-05
2.13765e-06
0.00192381
2.8459e-05
2.59709e-06
0.0019274
2.91821e-05
2.1086e-06
0.0019265
2.08715e-05
2.50973e-06
3.27903e-05
2.03953e-06
0.00192455
0.00156159
0.000339063
3.0968e-06
0.00165752
0.000178801
4.30454e-07
0.00173317
0.000153775
2.69563e-06
0.00178272
9.81331e-05
3.75152e-07
0.00181772
7.48041e-05
2.32845e-06
0.0018472
6.09528e-05
4.83722e-07
0.00187017
5.20801e-05
2.04877e-06
0.00189123
4.6748e-05
5.74844e-07
0.00190813
4.21405e-05
1.81282e-06
0.00192392
3.87304e-05
6.29457e-07
0.00193698
3.56133e-05
1.60545e-06
0.00194962
3.30413e-05
6.57146e-07
0.00196046
3.05888e-05
1.42479e-06
0.00197102
2.86627e-05
6.65685e-07
0.00198021
2.62592e-05
1.26112e-06
0.001989
2.53544e-05
6.53536e-07
0.00199732
2.18331e-05
1.10447e-06
0.00200519
2.376e-05
6.22858e-07
0.00201312
1.53099e-05
9.23237e-07
2.43412e-05
5.3752e-07
0.00202452
0.00155567
0.000167664
3.9985e-06
0.00164814
8.82252e-05
1.41276e-06
0.00172444
7.68328e-05
3.65861e-06
0.00177497
4.89888e-05
1.35133e-06
0.0018117
3.74006e-05
3.30301e-06
0.00184329
3.05423e-05
1.45976e-06
0.00186875
2.61936e-05
3.02544e-06
0.00189274
2.36344e-05
1.55312e-06
0.00191286
2.14142e-05
2.79215e-06
0.00193218
1.98049e-05
1.61012e-06
0.00194889
1.8312e-05
2.58677e-06
0.00196534
1.71005e-05
1.63942e-06
0.00197994
1.59221e-05
2.40768e-06
0.00199444
1.50155e-05
1.64942e-06
0.00200715
1.38515e-05
2.24583e-06
0.00202004
1.34677e-05
1.63789e-06
0.00203071
1.18192e-05
2.09512e-06
0.00204286
1.30222e-05
1.60669e-06
0.00205031
9.15853e-06
1.97899e-06
1.54215e-05
1.53634e-06
0.00206118
0.00155238
3.33362e-11
3.53505e-06
0.00164297
-4.46518e-10
9.49408e-07
0.00171963
-1.30102e-09
3.1841e-06
0.00177048
-1.06719e-09
8.71144e-07
0.0018077
-1.48863e-09
2.82037e-06
0.0018399
-1.00556e-10
9.75545e-07
0.00186615
-4.29598e-10
2.54055e-06
0.00189115
2.35239e-09
1.06705e-06
0.00191244
2.9073e-09
2.30543e-06
0.00193311
7.55937e-09
1.12248e-06
0.0019513
1.44895e-08
2.09862e-06
0.00196937
2.34454e-08
1.15071e-06
0.00198567
4.43951e-08
1.91859e-06
0.00200195
8.54746e-08
1.16011e-06
0.00201649
9.67304e-08
1.7559e-06
0.00203112
3.21876e-07
1.14837e-06
0.0020439
1.72218e-07
1.60183e-06
0.00205777
1.01555e-06
1.11724e-06
0.00206819
5.48527e-07
1.45156e-06
2.27371e-06
1.04243e-06
0.0020838
0.00155238
-0.000167664
3.53505e-06
0.00164297
-8.82261e-05
9.49408e-07
0.00171963
-7.68354e-05
3.1841e-06
0.00177048
-4.8991e-05
8.71144e-07
0.0018077
-3.74036e-05
2.82037e-06
0.0018399
-3.05426e-05
9.75543e-07
0.00186615
-2.61945e-05
2.54055e-06
0.00189115
-2.36299e-05
1.06704e-06
0.00191244
-2.14085e-05
2.30543e-06
0.00193311
-1.97906e-05
1.12246e-06
0.0019513
-1.82829e-05
2.09862e-06
0.00196937
-1.70565e-05
1.15063e-06
0.00198568
-1.58325e-05
1.91857e-06
0.00200196
-1.48533e-05
1.15985e-06
0.0020165
-1.36559e-05
1.75584e-06
0.00203115
-1.2842e-05
1.14757e-06
0.00204393
-1.14737e-05
1.60179e-06
0.00205782
-1.10084e-05
1.11508e-06
0.00206826
-8.08407e-06
1.45232e-06
-1.0823e-05
1.03882e-06
0.00208382
0.00155567
-0.000339063
3.9985e-06
0.00164814
-0.000178802
1.41276e-06
0.00172444
-0.000153778
3.65861e-06
0.00177497
-9.81352e-05
1.35133e-06
0.0018117
-7.48071e-05
3.30301e-06
0.00184329
-6.0953e-05
1.45976e-06
0.00186875
-5.2081e-05
3.02544e-06
0.00189274
-4.67434e-05
1.55313e-06
0.00191286
-4.2135e-05
2.79215e-06
0.00193218
-3.87156e-05
1.61014e-06
0.00194889
-3.55851e-05
2.58678e-06
0.00196534
-3.29959e-05
1.63949e-06
0.00197995
-3.05019e-05
2.40771e-06
0.00199444
-2.84981e-05
1.64968e-06
0.00200716
-2.60703e-05
2.24588e-06
0.00202005
-2.47315e-05
1.63868e-06
0.00203074
-2.15062e-05
2.09512e-06
0.00204291
-2.17782e-05
1.60875e-06
0.00205043
-1.43064e-05
1.97829e-06
-1.99246e-05
1.53939e-06
0.00206149
0.00156159
-0.000515505
3.0968e-06
0.00165752
-0.000271852
4.30454e-07
0.00173317
-0.00022911
2.69563e-06
0.00178272
-0.000145321
3.75152e-07
0.00181772
-0.000109496
2.32846e-06
0.0018472
-8.82764e-05
4.8372e-07
0.00187017
-7.45042e-05
2.04877e-06
0.00189124
-6.59556e-05
5.74839e-07
0.00190813
-5.8654e-05
1.81283e-06
0.00192392
-5.31281e-05
6.29438e-07
0.00193698
-4.82432e-05
1.60544e-06
0.00194963
-4.41358e-05
6.57079e-07
0.00196047
-4.04135e-05
1.42478e-06
0.00197105
-3.72395e-05
6.6547e-07
0.00198024
-3.39596e-05
1.26107e-06
0.00198907
-3.15495e-05
6.52869e-07
0.00199741
-2.81504e-05
1.10448e-06
0.00200536
-2.72825e-05
6.20984e-07
0.00201341
-1.9977e-05
9.24381e-07
-2.84765e-05
5.34256e-07
0.0020249
0.00157212
-0.000703874
4.52866e-06
0.00167319
-0.000371459
1.85936e-06
0.00174519
-0.000302253
4.15792e-06
0.00179009
-0.000189321
1.84746e-06
0.00181939
-0.000139952
3.80384e-06
0.0018426
-0.000110808
1.96071e-06
0.00185898
-9.18198e-05
3.52565e-06
0.00187318
-7.98008e-05
2.05356e-06
0.00188323
-6.98169e-05
3.29217e-06
0.00189223
-6.22058e-05
2.11054e-06
0.0018987
-5.57584e-05
3.08715e-06
0.00190492
-5.02968e-05
2.13993e-06
0.00190959
-4.56095e-05
2.90783e-06
0.00191428
-4.15538e-05
2.14937e-06
0.00191775
-3.75814e-05
2.74542e-06
0.00192159
-3.47998e-05
2.13837e-06
0.00192393
-3.02059e-05
2.59702e-06
0.00192764
-2.99663e-05
2.11038e-06
0.00192693
-1.84674e-05
2.50898e-06
-2.55593e-05
2.04179e-06
0.0019254
0.00158283
-0.000901123
2.65493e-06
0.00168505
-0.000470195
-1.7278e-07
0.00174564
-0.000361987
2.16995e-06
0.00177774
-0.000218509
-1.54731e-07
0.00179365
-0.000155024
1.81117e-06
0.00180392
-0.000118416
-3.01466e-08
0.00180804
-9.4914e-05
1.53667e-06
0.00181058
-8.00315e-05
6.36576e-08
0.00180979
-6.81622e-05
1.30227e-06
0.00180876
-5.92329e-05
1.19629e-07
0.00180608
-5.20594e-05
1.0966e-06
0.00180391
-4.60053e-05
1.48491e-07
0.00180098
-4.11605e-05
9.16348e-07
0.00179858
-3.67468e-05
1.56428e-07
0.00179609
-3.31696e-05
7.52045e-07
0.00179355
-2.95916e-05
1.44442e-07
0.00179285
-2.71143e-05
5.94679e-07
0.00179005
-2.41043e-05
1.15336e-07
0.00179348
-1.9005e-05
3.92139e-07
-2.56955e-05
1.18296e-08
0.00179692
0.00159153
-0.00110951
5.15616e-06
0.00167889
-0.000556539
2.30156e-06
0.00170566
-0.00039044
4.69497e-06
0.00170785
-0.000220309
2.37119e-06
0.00169804
-0.000146892
4.33149e-06
0.00168664
-0.000106888
2.48555e-06
0.00167258
-8.23969e-05
4.04745e-06
0.00165983
-6.75344e-05
2.57384e-06
0.00164622
-5.61992e-05
3.81104e-06
0.0016345
-4.79999e-05
2.62914e-06
0.00162271
-4.16425e-05
3.60562e-06
0.00161283
-3.63949e-05
2.65781e-06
0.00160312
-3.23417e-05
3.425e-06
0.00159504
-2.8683e-05
2.66538e-06
0.00158716
-2.57871e-05
3.26134e-06
0.00158085
-2.30299e-05
2.65432e-06
0.00157402
-2.03517e-05
3.11426e-06
0.00156926
-1.88282e-05
2.62827e-06
0.00155952
-9.1452e-06
3.0429e-06
-9.39576e-06
2.55642e-06
0.00154378
0.0015526
-0.00127607
2.19229e-06
0.00157629
-0.000576055
-8.79386e-07
0.00153761
-0.000350363
1.60349e-06
0.00149516
-0.00017438
-7.143e-07
0.00145498
-0.000105319
1.27214e-06
0.00142286
-7.16281e-05
-5.62829e-07
0.00139411
-5.22039e-05
1.00699e-06
0.00137082
-4.14667e-05
-4.6465e-07
0.00134929
-3.31891e-05
7.75134e-07
0.00133184
-2.78308e-05
-4.06772e-07
0.00131549
-2.34516e-05
5.71284e-07
0.00130228
-2.02618e-05
-3.77124e-07
0.00128981
-1.76131e-05
3.90631e-07
0.00127965
-1.53935e-05
-3.70142e-07
0.00127032
-1.3831e-05
2.25746e-07
0.00126205
-1.14363e-05
-3.81208e-07
0.00125678
-1.21462e-05
6.86634e-08
0.0012483
-6.92301e-06
-4.06229e-07
0.00125496
-1.26817e-05
-1.40492e-07
-7.81542e-06
-5.32591e-07
0.0012568
0.00139884
-0.00129258
5.9935e-06
0.00129006
-0.000466796
2.79439e-06
0.00116125
-0.000223855
5.30563e-06
0.00107736
-9.06182e-05
2.95401e-06
0.00101902
-4.91677e-05
4.91098e-06
0.000979795
-3.28271e-05
3.06034e-06
0.000948734
-2.32202e-05
4.61896e-06
0.000925941
-1.93175e-05
3.14421e-06
0.000905856
-1.49686e-05
4.38048e-06
0.000890748
-1.33334e-05
3.19844e-06
0.000876604
-1.08151e-05
4.17479e-06
0.000865883
-1.002e-05
3.22635e-06
0.000855477
-8.38538e-06
3.99299e-06
0.000847651
-7.92407e-06
3.23282e-06
0.000839774
-6.86125e-06
3.82897e-06
0.000834294
-6.2291e-06
3.22202e-06
0.00082709
-5.68171e-06
3.6816e-06
0.000824504
-4.61359e-06
3.19626e-06
0.000808866
2.2325e-06
3.60667e-06
1.03064e-05
3.11743e-06
0.000790418
0.00100668
-0.000913021
1.94555e-06
0.000749007
-0.00020442
-1.45417e-06
0.00059782
-7.07719e-05
1.20141e-06
0.000533686
-2.23589e-05
-1.11859e-06
0.000496397
-9.79379e-06
8.66699e-07
0.000473889
-6.43967e-06
-9.7098e-07
0.000455863
-2.91284e-06
5.9503e-07
0.000443255
-2.95072e-06
-8.78411e-07
0.000431758
-9.27904e-07
3.59336e-07
0.000423578
-1.38811e-06
-8.23126e-07
0.000415584
2.59243e-09
1.5407e-07
0.0004099
-5.29319e-07
-7.94603e-07
0.000404088
4.92643e-07
-2.72478e-08
0.000400002
8.8799e-09
-7.87819e-07
0.000395654
7.47142e-07
-1.91568e-07
0.000392837
4.54721e-07
-7.97814e-07
0.00038993
6.27002e-07
-3.46934e-07
0.000388274
9.01238e-07
-8.18985e-07
0.000403299
-9.23447e-06
-5.39181e-07
-3.2178e-06
-9.6331e-07
0.000420765
0.000467297
8.01958e-06
0.00026178
4.32637e-06
0.000187284
6.90904e-06
0.000163529
4.55693e-06
0.000150366
6.51424e-06
0.000142387
4.673e-06
0.000136372
6.22924e-06
0.000131791
4.76014e-06
0.000128008
5.99346e-06
0.000124954
4.81578e-06
0.000122326
5.78966e-06
0.000120121
4.8445e-06
0.00011818
5.60896e-06
0.000116518
4.85127e-06
0.000115002
5.44541e-06
0.000113798
4.8405e-06
0.000112307
5.29525e-06
0.000111565
4.81587e-06
0.000100313
5.18449e-06
4.71135e-06
9.55406e-05
0.000889439
0.00050461
1.87494e-06
0.000531902
0.000362689
2.41633e-06
0.00038058
0.000159857
1.51592e-06
0.000323406
6.26929e-05
2.11888e-06
0.000296466
3.49358e-05
1.56444e-06
0.000277871
2.43619e-05
1.92227e-06
0.000265731
1.98326e-05
1.54618e-06
0.000255075
1.66727e-05
1.76227e-06
0.000247845
1.47325e-05
1.53326e-06
0.000240831
1.32356e-05
1.65849e-06
0.000236013
1.21657e-05
1.52924e-06
0.000231044
1.13253e-05
1.59172e-06
0.00022759
1.06471e-05
1.53091e-06
0.00022394
1.00698e-05
1.55003e-06
0.000221272
9.69087e-06
1.53801e-06
0.000218708
8.98198e-06
1.52666e-06
0.000216971
8.57598e-06
1.5514e-06
0.000213416
9.93202e-06
1.51538e-06
0.00025747
-3.73684e-05
1.56377e-06
-2.30026e-05
1.55627e-06
0.000286716
0.00137896
0.000510635
5.06789e-06
0.00119785
0.000539977
5.62635e-06
0.00103152
0.000325639
4.78501e-06
0.000917103
0.000173532
5.32127e-06
0.000845034
0.000105821
4.81529e-06
0.000795082
7.08738e-05
5.13301e-06
0.000761037
5.22829e-05
4.79275e-06
0.000733593
4.08495e-05
4.985e-06
0.000713668
3.2889e-05
4.77944e-06
0.000696089
2.78266e-05
4.88459e-06
0.000682957
2.3472e-05
4.77389e-06
0.000670736
2.07921e-05
4.8165e-06
0.000661442
1.80492e-05
4.77307e-06
0.000652608
1.62846e-05
4.77232e-06
0.000645541
1.47412e-05
4.77801e-06
0.000639326
1.25859e-05
4.74655e-06
0.000632643
1.30289e-05
4.79183e-06
0.000631139
8.74143e-06
4.73134e-06
0.000597068
-5.85608e-06
4.83843e-06
1.23836e-05
4.79847e-06
0.000558726
0.00148621
0.000416116
2.29465e-06
0.00148942
0.000539868
2.97179e-06
0.0014237
0.000397752
1.91291e-06
0.00134593
0.000254368
2.67216e-06
0.00128169
0.000175672
1.98501e-06
0.00122911
0.000126583
2.49353e-06
0.0011892
9.72429e-05
1.99616e-06
0.0011555
7.77002e-05
2.3397e-06
0.00112941
6.37236e-05
2.00535e-06
0.00110636
5.42941e-05
2.23154e-06
0.00108819
4.63756e-05
2.01996e-06
0.00107158
4.11494e-05
2.15759e-06
0.00105829
3.60731e-05
2.03825e-06
0.00104585
3.27244e-05
2.10882e-06
0.00103592
2.93914e-05
2.05874e-06
0.00102595
2.66708e-05
2.08125e-06
0.00102042
2.31159e-05
2.08315e-06
0.00100865
2.45426e-05
2.07169e-06
0.00102347
-1.63097e-05
2.07622e-06
7.27089e-06
2.11555e-06
0.00103237
0.00146628
0.000335479
4.65184e-06
0.00154294
0.000460334
5.27265e-06
0.0015692
0.000371636
4.45391e-06
0.00155812
0.000262507
4.98803e-06
0.00153681
0.00019647
4.47074e-06
0.00151007
0.000150561
4.79508e-06
0.00148561
0.000120694
4.4493e-06
0.00146132
9.91451e-05
4.64629e-06
0.00144082
8.27661e-05
4.43632e-06
0.00142138
7.10585e-05
4.54499e-06
0.00140534
6.09691e-05
4.43095e-06
0.00139018
5.39889e-05
4.4768e-06
0.00137766
4.72246e-05
4.43093e-06
0.00136583
4.25454e-05
4.43186e-06
0.00135586
3.80945e-05
4.43423e-06
0.00134684
3.3954e-05
4.4032e-06
0.00133753
3.11539e-05
4.44638e-06
0.00133193
2.84335e-05
4.39003e-06
0.00130875
5.24265e-06
4.50475e-06
3.48644e-05
4.45877e-06
0.00127913
0.00146054
0.0002654
2.69989e-06
0.00154846
0.000374629
3.3733e-06
0.00160584
0.000319561
2.37597e-06
0.00163203
0.000238381
3.06153e-06
0.00164506
0.000188038
2.41791e-06
0.00164697
0.000150909
2.8711e-06
0.00164555
0.000126222
2.42695e-06
0.0016394
0.000107421
2.72042e-06
0.00163303
9.26515e-05
2.43245e-06
0.00162477
8.14911e-05
2.61469e-06
0.00161758
7.16177e-05
2.44112e-06
0.00160966
6.44576e-05
2.54413e-06
0.00160305
5.73713e-05
2.45414e-06
0.001596
5.24501e-05
2.49922e-06
0.00159062
4.71276e-05
2.4685e-06
0.00158414
4.3641e-05
2.47121e-06
0.00158163
3.74757e-05
2.48424e-06
0.00157412
3.93592e-05
2.46129e-06
0.00157757
5.58223e-06
2.46986e-06
3.30307e-05
2.50878e-06
0.00158262
0.00144406
0.000207791
4.28108e-06
0.00152657
0.000290304
4.93265e-06
0.001596
0.000251155
4.11534e-06
0.00164058
0.000191742
4.65716e-06
0.001674
0.000154981
4.12925e-06
0.00169543
0.000127637
4.4677e-06
0.0017121
0.000109507
4.11604e-06
0.00172214
9.54168e-05
4.32171e-06
0.00173004
8.40717e-05
4.10485e-06
0.00173425
7.52778e-05
4.21869e-06
0.00173788
6.71993e-05
4.09948e-06
0.00173948
6.12297e-05
4.15036e-06
0.00174108
5.5082e-05
4.10178e-06
0.00174146
5.07332e-05
4.10721e-06
0.001742
4.59764e-05
4.10707e-06
0.00174216
4.24994e-05
4.07911e-06
0.0017413
3.7968e-05
4.11962e-06
0.0017422
3.78381e-05
4.06977e-06
0.00173125
1.60844e-05
4.17973e-06
4.42481e-05
4.13632e-06
0.00171926
0.00144583
0.000151464
3.04961e-06
0.00152305
0.000214499
3.7197e-06
0.00158957
0.000188968
2.80065e-06
0.00163665
0.000145836
3.41607e-06
0.00167596
0.000119356
2.81074e-06
0.00170541
9.95895e-05
3.21924e-06
0.0017313
8.68797e-05
2.80851e-06
0.00175099
7.7027e-05
3.06842e-06
0.0017685
6.9167e-05
2.80496e-06
0.00178197
6.30122e-05
2.96076e-06
0.00179438
5.72508e-05
2.80609e-06
0.00180423
5.2974e-05
2.89011e-06
0.00181352
4.83595e-05
2.81506e-06
0.00182089
4.52333e-05
2.84609e-06
0.00182823
4.12206e-05
2.82572e-06
0.00183371
3.921e-05
2.818e-06
0.00184074
3.37835e-05
2.83891e-06
0.00184488
3.6334e-05
2.8111e-06
0.00185047
1.35881e-05
2.83583e-06
3.55789e-05
2.86614e-06
0.00186176
0.00143843
0.000100241
3.95272e-06
0.00151155
0.000140471
4.62005e-06
0.00157854
0.000123846
3.79322e-06
0.00162726
9.58898e-05
4.34295e-06
0.00166921
7.86292e-05
3.80085e-06
0.00170191
6.58901e-05
4.15243e-06
0.00173177
5.78287e-05
3.79178e-06
0.00175601
5.16703e-05
4.00707e-06
0.00177853
4.67867e-05
3.78222e-06
0.00179731
4.3012e-05
3.90275e-06
0.00181513
3.94132e-05
3.77763e-06
0.00183048
3.67912e-05
3.83435e-06
0.00184511
3.38408e-05
3.78174e-06
0.00185788
3.18894e-05
3.79153e-06
0.0018699
2.92992e-05
3.78762e-06
0.00188091
2.7908e-05
3.76316e-06
0.0018902
2.48253e-05
3.80032e-06
0.00190068
2.60411e-05
3.75721e-06
0.00190143
1.33479e-05
3.8517e-06
3.08545e-05
3.82233e-06
0.00190638
0.00143957
4.93443e-05
3.35752e-06
0.0015107
6.99969e-05
4.03224e-06
0.00157567
6.23492e-05
3.15924e-06
0.00162348
4.84363e-05
3.73907e-06
0.00166509
3.98484e-05
3.15962e-06
0.00169812
3.34566e-05
3.54191e-06
0.00172889
2.94737e-05
3.15288e-06
0.00175458
2.64576e-05
3.3924e-06
0.00177901
2.41104e-05
3.14531e-06
0.00180008
2.23136e-05
3.28488e-06
0.00182049
2.06011e-05
3.14282e-06
0.00183866
1.93809e-05
3.21467e-06
0.00185628
1.79537e-05
3.14926e-06
0.00187209
1.71038e-05
3.17078e-06
0.00188735
1.57404e-05
3.1569e-06
0.00190116
1.53806e-05
3.14192e-06
0.00191459
1.33121e-05
3.16877e-06
0.00192749
1.49101e-05
3.13708e-06
0.00193612
6.96519e-06
3.18393e-06
1.61459e-05
3.19637e-06
0.0019527
0.00143727
-2.28593e-10
3.65066e-06
0.00150718
-1.70729e-11
4.32456e-06
0.00157219
-1.33641e-10
3.47994e-06
0.00162021
8.23965e-10
4.04111e-06
0.00166209
5.81165e-10
3.48205e-06
0.00169534
1.96482e-09
3.8473e-06
0.00172643
1.35806e-09
3.4743e-06
0.00175256
4.09017e-09
3.70025e-06
0.00177761
4.92468e-09
3.46557e-06
0.00179948
1.16033e-08
3.59436e-06
0.00182086
1.53084e-08
3.46185e-06
0.00184017
3.5134e-08
3.52525e-06
0.00185901
3.92635e-08
3.46711e-06
0.00187623
1.09546e-07
3.48194e-06
0.00189275
1.10309e-07
3.47347e-06
0.00190828
3.16681e-07
3.45299e-06
0.00192235
3.44884e-07
3.48553e-06
0.00193733
8.79586e-07
3.44804e-06
0.00194466
1.02347e-06
3.52065e-06
2.41429e-06
3.5098e-06
0.00195946
0.00143727
-4.93448e-05
3.65066e-06
0.00150718
-6.99969e-05
4.32456e-06
0.00157219
-6.23494e-05
3.47994e-06
0.00162021
-4.84347e-05
4.04111e-06
0.00166209
-3.98473e-05
3.48205e-06
0.00169534
-3.34526e-05
3.8473e-06
0.00172643
-2.9471e-05
3.4743e-06
0.00175256
-2.64493e-05
3.70025e-06
0.00177761
-2.41006e-05
3.46558e-06
0.00179948
-2.22897e-05
3.59438e-06
0.00182086
-2.05709e-05
3.46186e-06
0.00184017
-1.93086e-05
3.5253e-06
0.00185901
-1.78764e-05
3.46712e-06
0.00187623
-1.6879e-05
3.48208e-06
0.00189275
-1.55245e-05
3.4735e-06
0.00190826
-1.47326e-05
3.45342e-06
0.00192234
-1.26385e-05
3.48558e-06
0.00193732
-1.31506e-05
3.44926e-06
0.00194474
-5.00573e-06
3.52026e-06
-1.15034e-05
3.5117e-06
0.00195972
0.00143957
-0.000100241
3.35752e-06
0.0015107
-0.000140471
4.03224e-06
0.00157567
-0.000123846
3.15924e-06
0.00162348
-9.58881e-05
3.73907e-06
0.00166509
-7.86281e-05
3.15962e-06
0.00169812
-6.58862e-05
3.54191e-06
0.0017289
-5.7826e-05
3.15288e-06
0.00175458
-5.16622e-05
3.3924e-06
0.00177901
-4.6777e-05
3.1453e-06
0.00180008
-4.29893e-05
3.28487e-06
0.00182049
-3.9383e-05
3.14282e-06
0.00183867
-3.67228e-05
3.21463e-06
0.00185629
-3.37637e-05
3.14925e-06
0.00187211
-3.16754e-05
3.17064e-06
0.00188737
-2.90842e-05
3.15686e-06
0.00190121
-2.72911e-05
3.14149e-06
0.00191465
-2.41538e-05
3.16869e-06
0.00192759
-2.43321e-05
3.13589e-06
0.00193621
-1.13654e-05
3.18421e-06
-2.61053e-05
3.19454e-06
0.00195268
0.00143843
-0.000151465
3.95272e-06
0.00151155
-0.000214499
4.62005e-06
0.00157854
-0.000188968
3.79322e-06
0.00162726
-0.000145835
4.34295e-06
0.00166921
-0.000119355
3.80085e-06
0.00170191
-9.95855e-05
4.15243e-06
0.00173177
-8.6877e-05
3.79178e-06
0.00175601
-7.70188e-05
4.00707e-06
0.00177853
-6.91576e-05
3.78222e-06
0.00179731
-6.29897e-05
3.90276e-06
0.00181514
-5.72216e-05
3.77763e-06
0.00183048
-5.29062e-05
3.83438e-06
0.00184511
-4.82861e-05
3.78175e-06
0.00185788
-4.50212e-05
3.79164e-06
0.00186992
-4.1019e-05
3.78763e-06
0.00188093
-3.86004e-05
3.76351e-06
0.00189027
-3.31567e-05
3.80026e-06
0.00190081
-3.46868e-05
3.75824e-06
0.00190176
-1.17947e-05
3.85096e-06
-3.11421e-05
3.8238e-06
0.001907
0.00144583
-0.000207791
3.04961e-06
0.00152305
-0.000290304
3.7197e-06
0.00158957
-0.000251156
2.80065e-06
0.00163665
-0.00019174
3.41607e-06
0.00167596
-0.00015498
2.81074e-06
0.00170541
-0.000127633
3.21924e-06
0.0017313
-0.000109505
2.80851e-06
0.00175099
-9.54091e-05
3.06841e-06
0.0017685
-8.40625e-05
2.80495e-06
0.00178198
-7.52574e-05
2.96075e-06
0.00179438
-6.7171e-05
2.80609e-06
0.00180424
-6.11691e-05
2.89008e-06
0.00181353
-5.50116e-05
2.81504e-06
0.00182092
-5.05412e-05
2.84597e-06
0.00182828
-4.57853e-05
2.82568e-06
0.00183382
-4.19487e-05
2.81761e-06
0.00184088
-3.73715e-05
2.83883e-06
0.00184515
-3.6326e-05
2.81004e-06
0.00185081
-1.43556e-05
2.83612e-06
-3.98571e-05
2.86454e-06
0.00186215
0.00144406
-0.0002654
4.28108e-06
0.00152657
-0.000374629
4.93265e-06
0.001596
-0.000319562
4.11534e-06
0.00164058
-0.00023838
4.65716e-06
0.001674
-0.000188036
4.12925e-06
0.00169543
-0.000150905
4.4677e-06
0.0017121
-0.00012622
4.11604e-06
0.00172214
-0.000107414
4.32171e-06
0.00173004
-9.26428e-05
4.10485e-06
0.00173425
-8.14729e-05
4.2187e-06
0.00173788
-7.15918e-05
4.09947e-06
0.00173949
-6.44033e-05
4.15038e-06
0.0017411
-5.73079e-05
4.10177e-06
0.00174149
-5.22759e-05
4.1073e-06
0.00174206
-4.69618e-05
4.10703e-06
0.00174227
-4.31383e-05
4.07938e-06
0.0017415
-3.69724e-05
4.11946e-06
0.00174255
-3.80093e-05
4.07059e-06
0.00173197
-4.20388e-06
4.17857e-06
-2.92547e-05
4.13754e-06
0.00172058
0.00146054
-0.000335479
2.69989e-06
0.00154846
-0.000460335
3.3733e-06
0.00160584
-0.000371637
2.37597e-06
0.00163203
-0.000262506
3.06153e-06
0.00164506
-0.000196469
2.41791e-06
0.00164697
-0.000150557
2.8711e-06
0.00164555
-0.000120692
2.42695e-06
0.0016394
-9.91392e-05
2.72042e-06
0.00163304
-8.27583e-05
2.43245e-06
0.00162478
-7.10446e-05
2.61468e-06
0.00161759
-6.09461e-05
2.44111e-06
0.00160968
-5.39479e-05
2.5441e-06
0.00160308
-4.7168e-05
2.45413e-06
0.00159607
-4.24104e-05
2.49912e-06
0.0015907
-3.7948e-05
2.46846e-06
0.00158434
-3.35648e-05
2.47092e-06
0.00158188
-3.07052e-05
2.48413e-06
0.00157466
-2.73674e-05
2.46053e-06
0.00157828
-4.02516e-06
2.47028e-06
-3.1444e-05
2.50741e-06
0.00158368
0.00146628
-0.000416116
4.65184e-06
0.00154294
-0.000539868
5.27265e-06
0.0015692
-0.000397752
4.45391e-06
0.00155812
-0.000254367
4.98803e-06
0.00153681
-0.000175672
4.47074e-06
0.00151007
-0.000126581
4.79508e-06
0.00148561
-9.72408e-05
4.4493e-06
0.00146132
-7.76961e-05
4.64629e-06
0.00144083
-6.37177e-05
4.43632e-06
0.00142139
-5.42846e-05
4.545e-06
0.00140535
-4.63577e-05
4.43095e-06
0.00139021
-4.11204e-05
4.47681e-06
0.0013777
-3.60289e-05
4.43093e-06
0.00136591
-3.26276e-05
4.43192e-06
0.00135597
-2.92807e-05
4.43418e-06
0.00134706
-2.63875e-05
4.40341e-06
0.00133788
-2.28037e-05
4.44613e-06
0.00133257
-2.37665e-05
4.39076e-06
0.00130996
1.69743e-05
4.50318e-06
-5.02273e-06
4.45984e-06
0.00128147
0.00148621
-0.000510635
2.29465e-06
0.00148942
-0.000539977
2.97179e-06
0.0014237
-0.000325639
1.91291e-06
0.00134593
-0.000173531
2.67216e-06
0.00128169
-0.000105821
1.98501e-06
0.00122911
-7.08731e-05
2.49353e-06
0.0011892
-5.22821e-05
1.99616e-06
0.0011555
-4.08479e-05
2.3397e-06
0.00112941
-3.28857e-05
2.00535e-06
0.00110637
-2.78221e-05
2.23153e-06
0.0010882
-2.34609e-05
2.01996e-06
0.00107161
-2.07773e-05
2.15756e-06
0.00105834
-1.80205e-05
2.03826e-06
0.00104595
-1.62336e-05
2.10871e-06
0.00103605
-1.46679e-05
2.05876e-06
0.00102622
-1.24444e-05
2.08101e-06
0.00102077
-1.27993e-05
2.08308e-06
0.0010094
-8.36508e-06
2.0713e-06
0.00102437
6.3858e-06
2.0764e-06
-1.08707e-05
2.11474e-06
0.00103396
0.00137896
-0.00050461
5.06789e-06
0.00119785
-0.000362689
5.62635e-06
0.00103152
-0.000159857
4.78501e-06
0.000917103
-6.26933e-05
5.32126e-06
0.000845034
-3.49363e-05
4.81529e-06
0.000795082
-2.43623e-05
5.13301e-06
0.000761038
-1.9833e-05
4.79275e-06
0.000733596
-1.66728e-05
4.985e-06
0.000713673
-1.47319e-05
4.77943e-06
0.000696097
-1.32344e-05
4.8846e-06
0.000682972
-1.21621e-05
4.77388e-06
0.000670761
-1.13203e-05
4.8165e-06
0.000661485
-1.06375e-05
4.77307e-06
0.000652684
-1.0052e-05
4.77232e-06
0.000645662
-9.66673e-06
4.77802e-06
0.000639541
-8.93081e-06
4.74657e-06
0.000633017
-8.51434e-06
4.79171e-06
0.000631721
-9.75421e-06
4.73175e-06
0.000598544
3.70042e-05
4.83705e-06
2.30444e-05
4.79969e-06
0.000561617
0.000889439
1.87494e-06
0.000531902
2.41633e-06
0.00038058
1.51592e-06
0.000323406
2.11888e-06
0.000296466
1.56443e-06
0.000277872
1.92227e-06
0.000265732
1.54618e-06
0.000255076
1.76227e-06
0.000247848
1.53326e-06
0.000240836
1.65848e-06
0.000236022
1.52923e-06
0.000231058
1.59171e-06
0.000227614
1.53091e-06
0.000223982
1.54997e-06
0.000221337
1.53804e-06
0.000218827
1.52651e-06
0.000217149
1.55146e-06
0.000213778
1.51506e-06
0.000257466
1.56395e-06
1.55532e-06
0.000286713
0.00107653
0.000313158
2.58403e-12
0.000789076
0.000293095
2.2987e-12
0.000588252
0.000205373
2.24053e-12
0.0004827
0.000110568
2.25826e-12
0.000433434
5.36395e-05
2.21701e-12
0.000411258
2.68663e-05
2.34218e-12
0.0003987
1.68763e-05
2.35298e-12
0.000390295
1.29708e-05
2.38178e-12
0.000383147
1.15278e-05
2.18628e-12
0.000377407
1.02832e-05
2.25867e-12
0.000372418
9.43135e-06
2.09494e-12
0.000368464
8.46838e-06
2.06123e-12
0.000365287
7.62534e-06
1.70505e-12
0.00036273
7.00602e-06
1.77051e-12
0.000360954
6.18809e-06
1.83987e-12
0.000359391
5.93568e-06
2.38809e-12
0.000358814
4.96258e-06
2.54347e-12
0.000356385
6.74978e-06
2.8596e-12
0.000361351
-5.77877e-07
2.70516e-12
9.13655e-06
2.86584e-12
0.000356631
0.00142537
0.000280706
2.61253e-12
0.00138664
0.000340708
2.43664e-12
0.00130223
0.000297532
2.29223e-12
0.00121889
0.000201998
2.11199e-12
0.00114951
0.000130452
1.64238e-12
0.00109535
8.86323e-05
1.2208e-12
0.00105196
6.74028e-05
1.20756e-12
0.00101707
5.51803e-05
1.62386e-12
0.000988145
4.76493e-05
1.73994e-12
0.000964403
4.14636e-05
1.8052e-12
0.000944596
3.67107e-05
1.70978e-12
0.00092818
3.25262e-05
1.89966e-12
0.000914571
2.89182e-05
1.58954e-12
0.00090298
2.63055e-05
1.26988e-12
0.000893477
2.33866e-05
6.67088e-13
0.000885054
2.19473e-05
6.01596e-13
0.000878168
1.94189e-05
4.18668e-13
0.000870972
2.13632e-05
5.64301e-13
0.000866545
1.13154e-05
2.45158e-13
2.9871e-05
3.58521e-13
0.000853229
0.00144318
0.000227678