/*--------------------------------*- C++ -*----------------------------------*\
  =========                 |
  \\      /  F ield         | OpenFOAM: The Open Source CFD Toolbox
   \\    /   O peration     | Website:  https://openfoam.org
    \\  /    A nd           | Version:  7
     \\/     M anipulation  |
\*---------------------------------------------------------------------------*/
FoamFile
{
    version     2.0;
    format      ascii;
    class       volVectorField;
    location    "2.8375";
    object      U_0;
}
// * * * * * * * * * * * * * * * * * * * * * * * * * * * * * * * * * * * * * //

dimensions      [0 1 -1 0 0 0 0];

internalField   nonuniform List<vector> 
4950
(
(3.51168 0.42042 -27.0286)
(2.80133 0.150565 -27.0655)
(2.04708 0.0449539 -27.0673)
(1.83688 -0.0235123 -27.0746)
(1.55783 -0.0446413 -27.0727)
(1.53939 -0.0515169 -27.0769)
(1.38249 -0.0525451 -27.0748)
(1.40564 -0.051415 -27.0779)
(1.29154 -0.0500674 -27.0761)
(1.32281 -0.0487365 -27.0787)
(1.23247 -0.0470102 -27.0772)
(1.2641 -0.0468151 -27.0792)
(1.19038 -0.0435669 -27.0781)
(1.22025 -0.0462461 -27.0796)
(1.15844 -0.0373991 -27.0788)
(1.18603 -0.0475447 -27.0797)
(1.13106 -0.016097 -27.0798)
(1.14563 -0.0454583 -27.0791)
(1.12173 0.0944975 -27.0822)
(0.893121 0.123338 -27.0713)
(4.60136 0.549334 -27.0537)
(4.79282 0.379459 -27.0824)
(4.49947 0.290988 -27.0822)
(4.4409 0.191501 -27.0889)
(4.14518 0.134755 -27.0888)
(4.11028 0.10296 -27.093)
(3.88194 0.0831701 -27.0925)
(3.87797 0.0716833 -27.0953)
(3.70079 0.0629959 -27.095)
(3.71381 0.0574676 -27.097)
(3.57281 0.0521451 -27.0969)
(3.59434 0.0496917 -27.0983)
(3.47891 0.0443931 -27.0984)
(3.50579 0.0458737 -27.0991)
(3.40636 0.0353298 -27.0999)
(3.44371 0.0454487 -27.099)
(3.34517 0.0165118 -27.1022)
(3.42466 0.0367192 -27.0968)
(3.286 -0.0184536 -27.1076)
(3.62625 -0.0750662 -27.076)
(4.72087 0.289008 -27.0553)
(5.20472 0.212205 -27.0786)
(5.32041 0.19133 -27.0709)
(5.56459 0.131253 -27.0748)
(5.51355 0.0941517 -27.0704)
(5.63642 0.0684962 -27.0739)
(5.55027 0.0500496 -27.0707)
(5.62878 0.0372816 -27.0738)
(5.54231 0.0273746 -27.0715)
(5.59915 0.0193667 -27.0742)
(5.52064 0.0137613 -27.0728)
(5.5635 0.00771049 -27.075)
(5.49602 0.00539502 -27.0743)
(5.52613 -0.000564821 -27.0759)
(5.47429 0.00172306 -27.0761)
(5.48347 -0.00628893 -27.0765)
(5.46005 0.00706137 -27.0783)
(5.41662 -0.00504441 -27.0763)
(5.43876 0.0392929 -27.0809)
(5.28038 0.054652 -27.0591)
(4.69892 0.169395 -27.0642)
(5.12183 0.13172 -27.0875)
(5.33746 0.124767 -27.0815)
(5.684 0.0952183 -27.0831)
(5.75715 0.0766762 -27.0796)
(5.98442 0.0644874 -27.0808)
(6.00521 0.0556033 -27.0786)
(6.16697 0.0497043 -27.0796)
(6.16733 0.0445727 -27.0782)
(6.28946 0.0406833 -27.0791)
(6.27963 0.0369158 -27.0783)
(6.37597 0.0342503 -27.0791)
(6.35903 0.0307245 -27.0788)
(6.44031 0.029742 -27.0794)
(6.41462 0.0245119 -27.0795)
(6.49481 0.026943 -27.0799)
(6.4532 0.0154881 -27.0805)
(6.56303 0.0212802 -27.0803)
(6.49305 0.00413773 -27.0813)
(6.72682 -0.0106681 -27.0603)
(4.70024 -2.38626e-07 -27.0593)
(5.11821 -1.38713e-07 -27.0813)
(5.34384 -2.64533e-07 -27.0722)
(5.70554 1.79178e-08 -27.0742)
(5.79384 -2.43788e-07 -27.0683)
(6.03771 4.31488e-07 -27.0704)
(6.0783 1.05727e-07 -27.0661)
(6.25953 1.49105e-06 -27.068)
(6.2832 1.7011e-06 -27.0649)
(6.42479 4.47833e-06 -27.0667)
(6.43991 6.52757e-06 -27.0645)
(6.55152 1.51783e-05 -27.0661)
(6.56265 1.6512e-05 -27.0646)
(6.64753 5.6451e-05 -27.0662)
(6.66186 2.91704e-05 -27.0652)
(6.71297 0.000196368 -27.0667)
(6.74636 6.06859e-05 -27.066)
(6.73523 0.000556786 -27.0673)
(6.80163 0.000207809 -27.0668)
(6.68895 0.000870206 -27.0478)
(4.69892 -0.169396 -27.0642)
(5.12183 -0.13172 -27.0875)
(5.33746 -0.124768 -27.0815)
(5.684 -0.0952184 -27.0831)
(5.75715 -0.0766764 -27.0796)
(5.98442 -0.0644869 -27.0809)
(6.00521 -0.0556026 -27.0786)
(6.16698 -0.0497025 -27.0796)
(6.16733 -0.0445683 -27.0782)
(6.28947 -0.0406782 -27.0792)
(6.27962 -0.0369003 -27.0783)
(6.376 -0.0342341 -27.0792)
(6.35903 -0.0306834 -27.0787)
(6.44037 -0.0296816 -27.0796)
(6.41466 -0.0244206 -27.0793)
(6.49496 -0.0267326 -27.0802)
(6.4534 -0.0152768 -27.0801)
(6.56334 -0.0207027 -27.0807)
(6.49363 -0.00339441 -27.0808)
(6.72766 0.0120826 -27.0607)
(4.72087 -0.289009 -27.0553)
(5.20473 -0.212205 -27.0786)
(5.32041 -0.19133 -27.0708)
(5.56459 -0.131253 -27.0748)
(5.51355 -0.094152 -27.0704)
(5.63642 -0.0684956 -27.0739)
(5.55027 -0.0500493 -27.0707)
(5.62879 -0.0372795 -27.0738)
(5.54231 -0.027372 -27.0715)
(5.59917 -0.0193604 -27.0743)
(5.52063 -0.0137521 -27.0726)
(5.56356 -0.00768938 -27.0752)
(5.49603 -0.00537462 -27.074)
(5.52628 0.00064237 -27.0763)
(5.47434 -0.00170023 -27.0755)
(5.48386 0.00655429 -27.0774)
(5.46033 -0.00705478 -27.0769)
(5.41754 0.00577501 -27.0784)
(5.43986 -0.0390824 -27.078)
(5.28291 -0.0531334 -27.0631)
(4.60136 -0.549335 -27.0537)
(4.79282 -0.379459 -27.0824)
(4.49947 -0.290988 -27.0822)
(4.4409 -0.191501 -27.0889)
(4.14518 -0.134755 -27.0887)
(4.11028 -0.10296 -27.093)
(3.88195 -0.0831694 -27.0924)
(3.87798 -0.0716831 -27.0953)
(3.70079 -0.062993 -27.095)
(3.71383 -0.0574667 -27.0971)
(3.57282 -0.0521358 -27.0968)
(3.5944 -0.0496875 -27.0985)
(3.47895 -0.0443692 -27.0982)
(3.50595 -0.0458516 -27.0995)
(3.40653 -0.0352758 -27.0992)
(3.44407 -0.0453539 -27.1002)
(3.3458 -0.0163887 -27.1)
(3.42543 -0.0364551 -27.1007)
(3.28768 0.0188464 -27.1003)
(3.62841 0.0752644 -27.0895)
(3.51168 -0.42042 -27.0286)
(2.80133 -0.150565 -27.0655)
(2.04708 -0.044954 -27.0673)
(1.83688 0.0235123 -27.0746)
(1.55783 0.0446411 -27.0727)
(1.53939 0.051517 -27.0769)
(1.38249 0.0525448 -27.0748)
(1.40564 0.0514154 -27.0779)
(1.29155 0.0500667 -27.0761)
(1.32282 0.0487375 -27.0787)
(1.23248 0.0470079 -27.0772)
(1.26414 0.0468173 -27.0792)
(1.19041 0.0435591 -27.078)
(1.22035 0.0462539 -27.0797)
(1.15855 0.0373825 -27.0787)
(1.18624 0.0475615 -27.08)
(1.13145 0.0160432 -27.0792)
(1.14612 0.0455115 -27.0803)
(1.12288 -0.0944493 -27.0795)
(0.895038 -0.122714 -27.079)
(4.49768 0.19295 0.0051764)
(3.73049 0.28183 0.00354715)
(3.12651 0.243691 0.00434224)
(2.53919 0.166873 0.00329218)
(2.26541 0.116573 0.00405577)
(1.98173 0.0829528 0.00322322)
(1.90068 0.0670117 0.00390181)
(1.75195 0.058106 0.00319129)
(1.73174 0.0541977 0.00376989)
(1.6363 0.0521586 0.00315239)
(1.63225 0.0506032 0.00364117)
(1.56338 0.0508291 0.00310479)
(1.56373 0.0481383 0.00351833)
(1.51136 0.0514666 0.00305412)
(1.51314 0.042069 0.00340536)
(1.47403 0.0552936 0.0030039)
(1.47179 0.0150258 0.00330656)
(1.47876 0.0612264 0.00295366)
(1.41085 -0.128149 0.00325237)
(1.84018 -0.171928 0.00284575)
(4.63437 0.109916 0.00329172)
(4.66664 0.234799 0.00197531)
(4.80829 0.214951 0.00272905)
(4.67348 0.162107 0.00169226)
(4.64827 0.106679 0.00244962)
(4.47632 0.0630273 0.00161446)
(4.42994 0.0340295 0.00228909)
(4.28666 0.0156365 0.00157666)
(4.24969 0.00366721 0.00215287)
(4.13769 -0.00405108 0.00153465)
(4.11017 -0.00935924 0.00202162)
(4.02205 -0.0141628 0.00148562)
(4.00218 -0.0153023 0.00189651)
(3.92964 -0.0214703 0.00143484)
(3.91962 -0.0153056 0.00177926)
(3.8483 -0.0287599 0.00138572)
(3.86343 -0.00553784 0.00166452)
(3.74748 -0.0271197 0.00133162)
(3.84604 0.00814181 0.0015248)
(3.42416 0.0661017 0.00114914)
(4.56558 0.0616658 0.0045978)
(4.7236 0.187383 0.00337275)
(5.0598 0.21916 0.00409378)
(5.17434 0.196985 0.00304521)
(5.36915 0.166833 0.00379086)
(5.38699 0.135547 0.00294991)
(5.48167 0.113892 0.00362531)
(5.46011 0.0972775 0.00291359)
(5.51045 0.0856207 0.00349331)
(5.48034 0.0768692 0.00287666)
(5.50951 0.069448 0.00336721)
(5.4811 0.0644159 0.0028314)
(5.49665 0.058223 0.00324695)
(5.47554 0.056171 0.00278209)
(5.47631 0.0478847 0.00313747)
(5.47456 0.0507989 0.00273264)
(5.44663 0.0288315 0.00304931)
(5.49843 0.0424671 0.00268689)
(5.42016 -0.0356829 0.00303623)
(5.57219 -0.0464556 0.00265196)
(4.52304 0.0291441 0.00312466)
(4.58584 0.0724646 0.0020167)
(4.94436 0.0768922 0.00272732)
(5.11356 0.0693076 0.00170017)
(5.39241 0.0564972 0.00244137)
(5.4975 0.0440188 0.00160008)
(5.67705 0.0347439 0.00227075)
(5.7371 0.0279335 0.00155714)
(5.86041 0.0230054 0.00213329)
(5.8994 0.0192733 0.00151604)
(5.99041 0.0162979 0.00200348)
(6.01743 0.0134941 0.00146881)
(6.08833 0.0118805 0.00187955)
(6.10474 0.00875173 0.00141923)
(6.16552 0.0094696 0.00176181)
(6.16346 0.00456112 0.00136947)
(6.22975 0.00936384 0.00164059)
(6.16921 0.00467329 0.0013073)
(6.27079 0.00638351 0.00146318)
(5.99129 0.0309074 0.00114319)
(4.5553 -2.48384e-07 0.00450871)
(4.66956 -1.60983e-07 0.00340244)
(5.00017 -2.4707e-07 0.00410144)
(5.16002 -5.05425e-08 0.00305842)
(5.43058 -1.599e-07 0.00379535)
(5.53924 2.36472e-07 0.00294999)
(5.72607 3.20668e-07 0.00362289)
(5.79814 9.58584e-07 0.00290978)
(5.93477 2.01694e-06 0.00348943)
(5.99043 2.87709e-06 0.00287288)
(6.09617 6.86907e-06 0.00336394)
(6.14356 8.51976e-06 0.00282853)
(6.2255 1.92854e-05 0.00324464)
(6.27026 2.46957e-05 0.00278007)
(6.32767 5.17409e-05 0.0031366)
(6.38206 6.40039e-05 0.00273155)
(6.40443 0.000149235 0.00305319)
(6.49343 0.000170715 0.00268757)
(6.48046 0.000484729 0.0030548)
(6.59372 0.000697109 0.00267655)
(4.52304 -0.0291446 0.00312466)
(4.58584 -0.0724649 0.0020167)
(4.94436 -0.0768928 0.00272732)
(5.11356 -0.0693076 0.00170017)
(5.39241 -0.0564977 0.00244137)
(5.4975 -0.0440177 0.00160008)
(5.67705 -0.0347441 0.00227075)
(5.7371 -0.02793 0.00155715)
(5.86041 -0.0230036 0.00213328)
(5.89941 -0.0192628 0.00151604)
(5.9904 -0.0162904 0.00200348)
(6.01745 -0.0134619 0.00146882)
(6.08833 -0.0118609 0.00187955)
(6.10479 -0.00864959 0.00141924)
(6.16553 -0.0094271 0.0017618)
(6.1636 -0.00425157 0.00136946)
(6.22986 -0.00925357 0.00164055)
(6.16956 -0.00384094 0.00130726)
(6.27129 -0.00600875 0.00146328)
(5.99226 -0.0291136 0.00114302)
(4.56558 -0.0616662 0.0045978)
(4.7236 -0.187384 0.00337275)
(5.0598 -0.21916 0.00409378)
(5.17434 -0.196985 0.00304521)
(5.36915 -0.166834 0.00379086)
(5.387 -0.135547 0.00294991)
(5.48167 -0.113891 0.00362531)
(5.46011 -0.097276 0.00291359)
(5.51044 -0.0856166 0.0034933)
(5.48036 -0.0768644 0.00287666)
(5.50951 -0.0694348 0.0033672)
(5.48115 -0.0644004 0.00283142)
(5.49666 -0.0581869 0.00324692)
(5.47566 -0.0561209 0.00278214)
(5.47638 -0.0477895 0.00313739)
(5.47486 -0.0506484 0.00273275)
(5.44694 -0.0285581 0.00304912)
(5.49913 -0.0420914 0.00268709)
(5.42114 0.0365464 0.0030358)
(5.57403 0.0473647 0.002652)
(4.63437 -0.109917 0.00329172)
(4.66664 -0.234799 0.00197531)
(4.80829 -0.214951 0.00272904)
(4.67348 -0.162107 0.00169226)
(4.64827 -0.106679 0.00244962)
(4.47632 -0.0630269 0.00161446)
(4.42994 -0.0340293 0.00228909)
(4.28667 -0.0156349 0.00157667)
(4.24969 -0.00366577 0.00215287)
(4.13771 0.004056 0.00153465)
(4.11017 0.00936365 0.00202161)
(4.02212 0.0141784 0.00148563)
(4.0022 0.0153113 0.00189649)
(3.92983 0.0215202 0.00143487)
(3.91969 0.0153167 0.00177919)
(3.84882 0.0289138 0.0013858)
(3.86366 0.0055452 0.00166435)
(3.74901 0.0275465 0.00133175)
(3.84667 -0.00798048 0.00152458)
(3.42893 -0.0648927 0.00114926)
(4.49768 -0.19295 0.0051764)
(3.73049 -0.28183 0.00354715)
(3.12651 -0.243691 0.00434224)
(2.53919 -0.166873 0.00329218)
(2.26541 -0.116573 0.00405577)
(1.98173 -0.082953 0.00322322)
(1.90068 -0.0670113 0.00390181)
(1.75195 -0.0581063 0.0031913)
(1.73175 -0.0541962 0.00376989)
(1.63631 -0.0521593 0.0031524)
(1.63227 -0.0505985 0.00364116)
(1.56343 -0.0508303 0.0031048)
(1.56378 -0.048125 0.00351831)
(1.51146 -0.0514668 0.00305417)
(1.51331 -0.0420343 0.00340529)
(1.47429 -0.055284 0.00300404)
(1.47233 -0.014948 0.0033063)
(1.47938 -0.0612256 0.00295413)
(1.41215 0.128181 0.00325111)
(1.84247 0.171184 0.00284822)
(4.45595 0.0663309 -9.97684e-10)
(4.2226 0.122454 -9.94113e-10)
(3.84497 0.134183 -9.9599e-10)
(3.47726 0.119675 -9.97033e-10)
(3.11512 0.0949237 -1.0042e-09)
(2.81552 0.0705358 -1.00446e-09)
(2.56437 0.0474484 -1.01342e-09)
(2.37117 0.0301013 -1.01457e-09)
(2.22488 0.0157783 -1.02584e-09)
(2.11224 0.00672537 -1.02906e-09)
(2.03441 -0.000742667 -1.03917e-09)
(1.96885 -0.00407699 -1.0411e-09)
(1.92833 -0.00813568 -1.04723e-09)
(1.88822 -0.00770129 -1.04539e-09)
(1.86473 -0.0117313 -1.04657e-09)
(1.84317 -0.00728999 -1.04184e-09)
(1.81757 -0.0159504 -1.04059e-09)
(1.82991 -0.00693142 -1.0361e-09)
(1.77029 -0.0278249 -1.03719e-09)
(1.87298 -0.0540645 -1.03434e-09)
(4.51428 0.0584666 -9.91308e-10)
(4.64503 0.113065 -1.00036e-09)
(4.7378 0.146197 -1.01317e-09)
(4.81658 0.157556 -1.01785e-09)
(4.83558 0.154051 -1.02033e-09)
(4.83312 0.139282 -1.0126e-09)
(4.80116 0.12108 -1.01104e-09)
(4.75871 0.100999 -1.00535e-09)
(4.70997 0.0842518 -1.01246e-09)
(4.65601 0.0688536 -1.01544e-09)
(4.60768 0.0580898 -1.02628e-09)
(4.55442 0.0481138 -1.02839e-09)
(4.51287 0.0422934 -1.035e-09)
(4.46403 0.0357816 -1.03375e-09)
(4.43164 0.032738 -1.03803e-09)
(4.38697 0.0291588 -1.03568e-09)
(4.36501 0.0251124 -1.03866e-09)
(4.32316 0.0289952 -1.03538e-09)
(4.30742 0.0154656 -1.03452e-09)
(4.26798 0.0368356 -1.03403e-09)
(4.50396 0.0220928 -9.92528e-10)
(4.62201 0.0569456 -9.96388e-10)
(4.74087 0.0842863 -1.00375e-09)
(4.90401 0.0987907 -1.00749e-09)
(5.04473 0.101976 -1.01353e-09)
(5.18455 0.0977317 -1.0116e-09)
(5.29565 0.0882785 -1.0154e-09)
(5.39022 0.077918 -1.01092e-09)
(5.46401 0.0672116 -1.01357e-09)
(5.52152 0.0583505 -1.0084e-09)
(5.56804 0.0503125 -1.01044e-09)
(5.6029 0.0445162 -1.00484e-09)
(5.63218 0.038738 -1.00708e-09)
(5.6557 0.0356637 -1.00435e-09)
(5.67323 0.0301411 -1.01022e-09)
(5.69292 0.030547 -1.01267e-09)
(5.70161 0.0209782 -1.0209e-09)
(5.72028 0.0275363 -1.02491e-09)
(5.7273 0.00608357 -1.03155e-09)
(5.73512 0.010118 -1.03311e-09)
(4.50235 0.0176863 -9.9256e-10)
(4.59606 0.0346856 -9.96006e-10)
(4.70206 0.0465079 -1.00003e-09)
(4.86028 0.0523935 -1.00109e-09)
(5.01014 0.0543566 -1.00571e-09)
(5.17107 0.0525922 -1.00469e-09)
(5.31283 0.0491513 -1.01034e-09)
(5.44495 0.0444052 -1.00871e-09)
(5.56078 0.0400906 -1.01433e-09)
(5.66224 0.0357918 -1.01144e-09)
(5.75505 0.0325918 -1.01511e-09)
(5.83404 0.0295806 -1.01072e-09)
(5.91123 0.0274875 -1.01272e-09)
(5.97459 0.0255866 -1.00902e-09)
(6.04284 0.0237535 -1.01186e-09)
(6.09191 0.0234838 -1.0123e-09)
(6.15992 0.0197759 -1.01684e-09)
(6.18463 0.024198 -1.02093e-09)
(6.26812 0.0143503 -1.02558e-09)
(6.23777 0.0292234 -1.03209e-09)
(4.50301 -2.70543e-07 -9.93458e-10)
(4.60848 -1.10367e-07 -9.96463e-10)
(4.71557 -3.24002e-07 -1.00026e-09)
(4.87279 6.16005e-08 -1.00041e-09)
(5.01876 -2.84487e-07 -1.00447e-09)
(5.178 5.12941e-07 -1.00247e-09)
(5.31989 2.0404e-07 -1.00763e-09)
(5.45509 1.65807e-06 -1.00523e-09)
(5.57538 1.96115e-06 -1.01068e-09)
(5.6838 4.94533e-06 -1.00819e-09)
(5.78351 6.38928e-06 -1.01314e-09)
(5.87247 1.56382e-05 -1.0113e-09)
(5.95735 1.52912e-05 -1.01632e-09)
(6.03385 4.91948e-05 -1.01602e-09)
(6.10884 3.40451e-05 -1.02134e-09)
(6.17517 0.000138304 -1.02268e-09)
(6.248 9.64897e-05 -1.028e-09)
(6.29471 0.000326502 -1.03055e-09)
(6.38967 0.000349654 -1.0356e-09)
(6.38249 0.000658028 -1.04019e-09)
(4.50235 -0.0176868 -9.92917e-10)
(4.59606 -0.0346857 -9.95932e-10)
(4.70206 -0.0465086 -9.9899e-10)
(4.86028 -0.0523933 -9.98591e-10)
(5.01014 -0.0543573 -1.00153e-09)
(5.17107 -0.052591 -9.99034e-10)
(5.31283 -0.0491513 -1.00331e-09)
(5.44495 -0.0444015 -1.00064e-09)
(5.56078 -0.0400878 -1.00594e-09)
(5.66224 -0.0357806 -1.00422e-09)
(5.75505 -0.0325823 -1.01074e-09)
(5.83405 -0.0295459 -1.01185e-09)
(5.91124 -0.0274656 -1.02027e-09)
(5.97461 -0.0254794 -1.02324e-09)
(6.04288 -0.0237077 -1.03105e-09)
(6.09197 -0.0231861 -1.03306e-09)
(6.16006 -0.0196369 -1.03928e-09)
(6.18478 -0.0235014 -1.03928e-09)
(6.26854 -0.0137766 -1.04496e-09)
(6.23823 -0.027851 -1.04656e-09)
(4.50396 -0.0220932 -9.94518e-10)
(4.62201 -0.0569458 -9.96342e-10)
(4.74087 -0.0842867 -9.96286e-10)
(4.90401 -0.0987906 -9.92729e-10)
(5.04473 -0.101977 -9.94694e-10)
(5.18456 -0.0977307 -9.92618e-10)
(5.29565 -0.088278 -9.99171e-10)
(5.39023 -0.0779149 -9.98998e-10)
(5.464 -0.067208 -1.00762e-09)
(5.52154 -0.0583416 -1.00837e-09)
(5.56803 -0.050301 -1.01733e-09)
(5.60295 -0.0444886 -1.02002e-09)
(5.63218 -0.0387115 -1.02863e-09)
(5.65581 -0.0355772 -1.03086e-09)
(5.67329 -0.0300856 -1.03523e-09)
(5.69316 -0.030304 -1.03554e-09)
(5.70189 -0.0208265 -1.0366e-09)
(5.72081 -0.0269708 -1.03832e-09)
(5.72822 -0.00552176 -1.04122e-09)
(5.73647 -0.00903963 -1.04697e-09)
(4.51428 -0.0584668 -9.94638e-10)
(4.64503 -0.113065 -9.90702e-10)
(4.7378 -0.146197 -9.84284e-10)
(4.81658 -0.157556 -9.80459e-10)
(4.83558 -0.154051 -9.86467e-10)
(4.83312 -0.139281 -9.91175e-10)
(4.80116 -0.12108 -1.00308e-09)
(4.75872 -0.100997 -1.00479e-09)
(4.70997 -0.084249 -1.00909e-09)
(4.65604 -0.0688471 -1.00216e-09)
(4.60767 -0.0580825 -1.00258e-09)
(4.55452 -0.0480925 -9.97823e-10)
(4.51287 -0.04228 -1.00188e-09)
(4.46427 -0.0357129 -1.00175e-09)
(4.43168 -0.0327186 -1.00787e-09)
(4.38754 -0.0289655 -1.01162e-09)
(4.36527 -0.0250594 -1.0193e-09)
(4.3245 -0.0285549 -1.02876e-09)
(4.30834 -0.0151817 -1.03564e-09)
(4.27128 -0.0360399 -1.05048e-09)
(4.45595 -0.0663309 -9.91247e-10)
(4.2226 -0.122454 -9.96059e-10)
(3.84497 -0.134183 -1.00167e-09)
(3.47726 -0.119675 -1.00397e-09)
(3.11512 -0.0949236 -1.00803e-09)
(2.81552 -0.0705359 -1.00571e-09)
(2.56437 -0.0474476 -1.0068e-09)
(2.37118 -0.0301015 -9.99544e-10)
(2.22489 -0.015776 -9.97789e-10)
(2.11226 -0.00672558 -9.90017e-10)
(2.03443 0.000748665 -9.91908e-10)
(1.96892 0.00407806 -9.89067e-10)
(1.9284 0.00814837 -9.95362e-10)
(1.8884 0.00771007 -9.97538e-10)
(1.86495 0.0117542 -1.00795e-09)
(1.84357 0.0073239 -1.01448e-09)
(1.81818 0.0159999 -1.02717e-09)
(1.83106 0.00700441 -1.03493e-09)
(1.77132 0.0279835 -1.04497e-09)
(1.87723 0.0539806 -1.0499e-09)
(4.49768 0.19295 -0.0051764)
(3.73049 0.28183 -0.00354716)
(3.12651 0.243691 -0.00434225)
(2.53919 0.166873 -0.00329218)
(2.26541 0.116573 -0.00405577)
(1.98173 0.0829528 -0.00322323)
(1.90068 0.0670117 -0.00390181)
(1.75195 0.058106 -0.0031913)
(1.73174 0.0541977 -0.00376989)
(1.6363 0.0521586 -0.00315239)
(1.63225 0.0506032 -0.00364117)
(1.56338 0.0508291 -0.00310479)
(1.56373 0.0481383 -0.00351833)
(1.51136 0.0514666 -0.00305412)
(1.51314 0.042069 -0.00340536)
(1.47403 0.0552936 -0.0030039)
(1.47179 0.0150258 -0.00330656)
(1.47876 0.0612264 -0.00295366)
(1.41085 -0.128149 -0.00325237)
(1.84018 -0.171928 -0.00284575)
(4.63437 0.109916 -0.00329172)
(4.66664 0.234799 -0.00197531)
(4.80829 0.214951 -0.00272905)
(4.67348 0.162107 -0.00169226)
(4.64827 0.106679 -0.00244962)
(4.47632 0.0630273 -0.00161446)
(4.42994 0.0340295 -0.0022891)
(4.28666 0.0156365 -0.00157666)
(4.24969 0.00366721 -0.00215288)
(4.13769 -0.00405107 -0.00153465)
(4.11017 -0.00935923 -0.00202162)
(4.02205 -0.0141628 -0.00148562)
(4.00218 -0.0153023 -0.00189651)
(3.92964 -0.0214703 -0.00143484)
(3.91962 -0.0153056 -0.00177926)
(3.8483 -0.0287599 -0.00138572)
(3.86343 -0.00553784 -0.00166452)
(3.74748 -0.0271197 -0.00133162)
(3.84604 0.0081418 -0.0015248)
(3.42416 0.0661017 -0.00114914)
(4.56558 0.0616658 -0.0045978)
(4.7236 0.187383 -0.00337275)
(5.0598 0.21916 -0.00409378)
(5.17434 0.196985 -0.00304521)
(5.36915 0.166833 -0.00379086)
(5.38699 0.135547 -0.00294991)
(5.48167 0.113892 -0.00362531)
(5.46011 0.0972775 -0.00291359)
(5.51045 0.0856207 -0.00349331)
(5.48034 0.0768692 -0.00287666)
(5.50951 0.069448 -0.00336722)
(5.4811 0.0644159 -0.0028314)
(5.49665 0.058223 -0.00324696)
(5.47554 0.056171 -0.0027821)
(5.47631 0.0478847 -0.00313747)
(5.47456 0.0507989 -0.00273264)
(5.44663 0.0288315 -0.00304931)
(5.49843 0.0424671 -0.00268689)
(5.42016 -0.0356829 -0.00303624)
(5.57219 -0.0464556 -0.00265196)
(4.52304 0.0291441 -0.00312466)
(4.58584 0.0724646 -0.0020167)
(4.94436 0.0768922 -0.00272733)
(5.11356 0.0693076 -0.00170017)
(5.39241 0.0564972 -0.00244137)
(5.4975 0.0440188 -0.00160008)
(5.67705 0.0347439 -0.00227075)
(5.7371 0.0279335 -0.00155715)
(5.86041 0.0230054 -0.00213329)
(5.8994 0.0192733 -0.00151604)
(5.99041 0.0162979 -0.00200348)
(6.01743 0.0134941 -0.00146881)
(6.08833 0.0118805 -0.00187956)
(6.10474 0.00875173 -0.00141923)
(6.16552 0.0094696 -0.00176182)
(6.16346 0.00456111 -0.00136947)
(6.22975 0.00936383 -0.00164059)
(6.16921 0.00467329 -0.00130731)
(6.27079 0.00638351 -0.00146318)
(5.99129 0.0309074 -0.00114319)
(4.5553 -2.48371e-07 -0.00450871)
(4.66956 -1.60388e-07 -0.00340244)
(5.00017 -2.45442e-07 -0.00410144)
(5.16002 -4.80623e-08 -0.00305842)
(5.43058 -1.56731e-07 -0.00379535)
(5.53924 2.39799e-07 -0.00294999)
(5.72607 3.23971e-07 -0.00362289)
(5.79814 9.61682e-07 -0.00290978)
(5.93477 2.02008e-06 -0.00348944)
(5.99043 2.8802e-06 -0.00287289)
(6.09617 6.87187e-06 -0.00336394)
(6.14356 8.52168e-06 -0.00282853)
(6.2255 1.92859e-05 -0.00324464)
(6.27026 2.46946e-05 -0.00278007)
(6.32767 5.17382e-05 -0.0031366)
(6.38206 6.40006e-05 -0.00273155)
(6.40443 0.000149231 -0.0030532)
(6.49343 0.000170711 -0.00268757)
(6.48046 0.000484726 -0.0030548)
(6.59372 0.000697106 -0.00267655)
(4.52304 -0.0291446 -0.00312466)
(4.58584 -0.0724649 -0.0020167)
(4.94436 -0.0768928 -0.00272733)
(5.11356 -0.0693076 -0.00170017)
(5.39241 -0.0564977 -0.00244137)
(5.4975 -0.0440177 -0.00160008)
(5.67705 -0.0347441 -0.00227075)
(5.7371 -0.02793 -0.00155715)
(5.86041 -0.0230036 -0.00213329)
(5.89941 -0.0192628 -0.00151604)
(5.9904 -0.0162904 -0.00200348)
(6.01745 -0.0134619 -0.00146882)
(6.08833 -0.0118609 -0.00187955)
(6.10479 -0.00864959 -0.00141924)
(6.16553 -0.00942711 -0.0017618)
(6.1636 -0.00425157 -0.00136947)
(6.22986 -0.00925357 -0.00164055)
(6.16956 -0.00384095 -0.00130726)
(6.27129 -0.00600876 -0.00146328)
(5.99226 -0.0291136 -0.00114303)
(4.56558 -0.0616662 -0.0045978)
(4.7236 -0.187384 -0.00337275)
(5.0598 -0.21916 -0.00409378)
(5.17434 -0.196985 -0.00304521)
(5.36915 -0.166834 -0.00379086)
(5.387 -0.135547 -0.00294992)
(5.48167 -0.113891 -0.00362531)
(5.46011 -0.097276 -0.00291359)
(5.51044 -0.0856166 -0.0034933)
(5.48036 -0.0768644 -0.00287667)
(5.50951 -0.0694348 -0.0033672)
(5.48115 -0.0644004 -0.00283142)
(5.49666 -0.0581869 -0.00324692)
(5.47566 -0.0561209 -0.00278214)
(5.47638 -0.0477895 -0.00313739)
(5.47486 -0.0506484 -0.00273276)
(5.44694 -0.0285581 -0.00304912)
(5.49913 -0.0420914 -0.00268709)
(5.42114 0.0365464 -0.0030358)
(5.57403 0.0473648 -0.00265201)
(4.63437 -0.109917 -0.00329172)
(4.66664 -0.234799 -0.00197531)
(4.80829 -0.214951 -0.00272905)
(4.67348 -0.162107 -0.00169226)
(4.64827 -0.106679 -0.00244962)
(4.47632 -0.0630269 -0.00161446)
(4.42994 -0.0340293 -0.00228909)
(4.28667 -0.0156349 -0.00157667)
(4.24969 -0.00366576 -0.00215287)
(4.13771 0.004056 -0.00153466)
(4.11017 0.00936366 -0.00202161)
(4.02212 0.0141784 -0.00148563)
(4.0022 0.0153113 -0.00189649)
(3.92983 0.0215202 -0.00143488)
(3.91969 0.0153167 -0.00177919)
(3.84882 0.0289138 -0.0013858)
(3.86366 0.0055452 -0.00166436)
(3.74901 0.0275465 -0.00133175)
(3.84667 -0.00798049 -0.00152458)
(3.42893 -0.0648927 -0.00114926)
(4.49768 -0.19295 -0.0051764)
(3.73049 -0.28183 -0.00354716)
(3.12651 -0.243691 -0.00434225)
(2.53919 -0.166873 -0.00329218)
(2.26541 -0.116573 -0.00405577)
(1.98173 -0.082953 -0.00322323)
(1.90068 -0.0670113 -0.00390181)
(1.75195 -0.0581063 -0.0031913)
(1.73175 -0.0541962 -0.00376989)
(1.63631 -0.0521593 -0.0031524)
(1.63227 -0.0505985 -0.00364116)
(1.56343 -0.0508303 -0.00310481)
(1.56378 -0.048125 -0.00351831)
(1.51146 -0.0514668 -0.00305417)
(1.51331 -0.0420343 -0.00340529)
(1.47429 -0.055284 -0.00300405)
(1.47233 -0.014948 -0.0033063)
(1.47938 -0.0612256 -0.00295413)
(1.41215 0.128181 -0.00325111)
(1.84247 0.171184 -0.00284822)
(3.51168 0.42042 27.0286)
(2.80133 0.150565 27.0655)
(2.04708 0.0449539 27.0673)
(1.83688 -0.0235123 27.0746)
(1.55783 -0.0446413 27.0727)
(1.53939 -0.0515169 27.0769)
(1.38249 -0.0525451 27.0748)
(1.40564 -0.051415 27.0779)
(1.29154 -0.0500674 27.0761)
(1.32281 -0.0487365 27.0787)
(1.23247 -0.0470102 27.0772)
(1.2641 -0.0468151 27.0792)
(1.19038 -0.0435669 27.0781)
(1.22025 -0.0462461 27.0796)
(1.15844 -0.0373991 27.0788)
(1.18603 -0.0475447 27.0797)
(1.13106 -0.016097 27.0798)
(1.14563 -0.0454583 27.0791)
(1.12173 0.0944975 27.0822)
(0.893121 0.123338 27.0713)
(4.60136 0.549334 27.0537)
(4.79282 0.379459 27.0824)
(4.49947 0.290988 27.0822)
(4.4409 0.191501 27.0889)
(4.14518 0.134755 27.0888)
(4.11028 0.10296 27.093)
(3.88194 0.0831701 27.0925)
(3.87797 0.0716833 27.0953)
(3.70079 0.0629959 27.095)
(3.71381 0.0574676 27.097)
(3.57281 0.0521451 27.0969)
(3.59434 0.0496917 27.0983)
(3.47891 0.0443931 27.0984)
(3.50579 0.0458737 27.0991)
(3.40636 0.0353298 27.0999)
(3.44371 0.0454487 27.099)
(3.34517 0.0165118 27.1022)
(3.42466 0.0367192 27.0968)
(3.286 -0.0184536 27.1076)
(3.62625 -0.0750662 27.076)
(4.72087 0.289008 27.0553)
(5.20472 0.212205 27.0786)
(5.32041 0.19133 27.0709)
(5.56459 0.131253 27.0748)
(5.51355 0.0941517 27.0704)
(5.63642 0.0684962 27.0739)
(5.55027 0.0500496 27.0707)
(5.62878 0.0372816 27.0738)
(5.54231 0.0273747 27.0715)
(5.59915 0.0193667 27.0742)
(5.52064 0.0137613 27.0728)
(5.5635 0.0077105 27.075)
(5.49602 0.00539503 27.0743)
(5.52613 -0.000564813 27.0759)
(5.47429 0.00172306 27.0761)
(5.48347 -0.00628893 27.0765)
(5.46005 0.00706137 27.0783)
(5.41662 -0.00504441 27.0763)
(5.43876 0.0392929 27.0809)
(5.28038 0.054652 27.0591)
(4.69892 0.169395 27.0642)
(5.12183 0.13172 27.0875)
(5.33746 0.124767 27.0815)
(5.684 0.0952183 27.0831)
(5.75715 0.0766761 27.0796)
(5.98442 0.0644874 27.0808)
(6.00521 0.0556033 27.0786)
(6.16697 0.0497043 27.0796)
(6.16733 0.0445728 27.0782)
(6.28946 0.0406833 27.0791)
(6.27963 0.0369158 27.0783)
(6.37597 0.0342503 27.0791)
(6.35903 0.0307245 27.0788)
(6.44031 0.029742 27.0794)
(6.41462 0.0245119 27.0795)
(6.49481 0.026943 27.0799)
(6.4532 0.0154881 27.0805)
(6.56303 0.0212802 27.0803)
(6.49305 0.00413773 27.0813)
(6.72682 -0.0106681 27.0603)
(4.70024 -2.39567e-07 27.0593)
(5.11821 -1.44572e-07 27.0813)
(5.34384 -2.73426e-07 27.0722)
(5.70554 9.64966e-09 27.0742)
(5.79384 -2.49036e-07 27.0683)
(6.03771 4.30088e-07 27.0704)
(6.0783 1.08125e-07 27.0661)
(6.25953 1.49692e-06 27.068)
(6.2832 1.71002e-06 27.0649)
(6.42479 4.48944e-06 27.0667)
(6.43991 6.54021e-06 27.0645)
(6.55152 1.51912e-05 27.0661)
(6.56265 1.65246e-05 27.0646)
(6.64753 5.64617e-05 27.0662)
(6.66186 2.91796e-05 27.0652)
(6.71297 0.000196374 27.0667)
(6.74636 6.06906e-05 27.066)
(6.73523 0.000556789 27.0673)
(6.80163 0.000207808 27.0668)
(6.68895 0.000870205 27.0478)
(4.69892 -0.169396 27.0642)
(5.12183 -0.13172 27.0875)
(5.33746 -0.124768 27.0815)
(5.684 -0.0952184 27.0831)
(5.75715 -0.0766764 27.0796)
(5.98442 -0.064487 27.0809)
(6.00521 -0.0556026 27.0786)
(6.16698 -0.0497025 27.0796)
(6.16733 -0.0445683 27.0782)
(6.28947 -0.0406782 27.0792)
(6.27962 -0.0369003 27.0783)
(6.376 -0.0342341 27.0792)
(6.35903 -0.0306834 27.0787)
(6.44037 -0.0296816 27.0796)
(6.41466 -0.0244206 27.0793)
(6.49496 -0.0267326 27.0802)
(6.4534 -0.0152768 27.0801)
(6.56334 -0.0207027 27.0807)
(6.49363 -0.00339441 27.0808)
(6.72766 0.0120826 27.0607)
(4.72087 -0.289009 27.0553)
(5.20473 -0.212205 27.0786)
(5.32041 -0.19133 27.0708)
(5.56459 -0.131253 27.0748)
(5.51355 -0.094152 27.0704)
(5.63642 -0.0684956 27.0739)
(5.55027 -0.0500493 27.0707)
(5.62879 -0.0372795 27.0738)
(5.54231 -0.027372 27.0715)
(5.59917 -0.0193604 27.0743)
(5.52063 -0.0137521 27.0726)
(5.56356 -0.00768937 27.0752)
(5.49603 -0.00537461 27.074)
(5.52628 0.000642379 27.0763)
(5.47434 -0.00170022 27.0755)
(5.48386 0.0065543 27.0774)
(5.46033 -0.00705478 27.0769)
(5.41754 0.00577501 27.0784)
(5.43986 -0.0390825 27.078)
(5.2829 -0.0531334 27.0631)
(4.60136 -0.549335 27.0537)
(4.79282 -0.379459 27.0824)
(4.49947 -0.290988 27.0822)
(4.4409 -0.191501 27.0889)
(4.14518 -0.134755 27.0887)
(4.11028 -0.10296 27.093)
(3.88195 -0.0831694 27.0924)
(3.87798 -0.0716831 27.0953)
(3.70079 -0.062993 27.095)
(3.71383 -0.0574667 27.0971)
(3.57282 -0.0521358 27.0968)
(3.5944 -0.0496875 27.0985)
(3.47895 -0.0443692 27.0982)
(3.50595 -0.0458516 27.0995)
(3.40653 -0.0352758 27.0992)
(3.44407 -0.0453539 27.1002)
(3.3458 -0.0163887 27.1)
(3.42543 -0.0364551 27.1007)
(3.28768 0.0188464 27.1003)
(3.62841 0.0752644 27.0895)
(3.51168 -0.42042 27.0286)
(2.80133 -0.150565 27.0655)
(2.04708 -0.044954 27.0673)
(1.83688 0.0235123 27.0746)
(1.55783 0.0446411 27.0727)
(1.53939 0.051517 27.0769)
(1.38249 0.0525448 27.0748)
(1.40564 0.0514154 27.0779)
(1.29155 0.0500667 27.0761)
(1.32282 0.0487375 27.0787)
(1.23248 0.0470079 27.0772)
(1.26414 0.0468173 27.0792)
(1.19041 0.0435591 27.078)
(1.22035 0.0462539 27.0797)
(1.15855 0.0373825 27.0787)
(1.18624 0.0475615 27.08)
(1.13145 0.0160431 27.0792)
(1.14612 0.0455115 27.0803)
(1.12288 -0.0944493 27.0795)
(0.895038 -0.122714 27.079)
(1.03049 -0.157315 -27.1311)
(1.13817 -0.145216 -27.2561)
(1.09984 -0.114813 -27.3383)
(1.12 -0.111552 -27.4061)
(1.09158 -0.111455 -27.4608)
(1.10776 -0.111735 -27.5109)
(1.08596 -0.112479 -27.5542)
(1.09943 -0.112881 -27.5956)
(1.08207 -0.113531 -27.6329)
(1.09347 -0.113907 -27.6688)
(1.07926 -0.114467 -27.7019)
(1.08909 -0.114822 -27.7338)
(1.07722 -0.115319 -27.7637)
(1.08587 -0.115658 -27.7927)
(1.07578 -0.116108 -27.8201)
(1.08351 -0.11643 -27.8467)
(1.07481 -0.11684 -27.872)
(1.0818 -0.117146 -27.8965)
(1.07419 -0.117523 -27.9198)
(1.08057 -0.117813 -27.9424)
(1.07385 -0.118161 -27.9641)
(1.07972 -0.118433 -27.985)
(1.07373 -0.118754 -28.005)
(1.07915 -0.119008 -28.0242)
(1.07376 -0.119303 -28.0427)
(1.07878 -0.119538 -28.0603)
(1.0739 -0.119806 -28.0772)
(1.07855 -0.120019 -28.0932)
(1.07411 -0.12026 -28.1084)
(1.07843 -0.120449 -28.1227)
(1.07438 -0.120661 -28.1362)
(1.07838 -0.120823 -28.1487)
(1.07467 -0.121004 -28.1602)
(1.07838 -0.121137 -28.1708)
(1.07495 -0.121286 -28.1804)
(1.07838 -0.12139 -28.189)
(1.07519 -0.121508 -28.1966)
(1.07837 -0.121584 -28.2033)
(1.07542 -0.121672 -28.2091)
(1.07836 -0.121723 -28.2139)
(1.07563 -0.121786 -28.218)
(1.07835 -0.121816 -28.2214)
(1.07582 -0.121858 -28.2241)
(1.07834 -0.121872 -28.2262)
(1.07599 -0.121899 -28.2278)
(1.07831 -0.121902 -28.229)
(1.07612 -0.12192 -28.2299)
(1.07826 -0.121916 -28.2305)
(1.07622 -0.121928 -28.2309)
(1.07821 -0.121921 -28.2312)
(1.07631 -0.121929 -28.2314)
(1.07816 -0.121922 -28.2315)