/*--------------------------------*- C++ -*----------------------------------*\
  =========                 |
  \\      /  F ield         | OpenFOAM: The Open Source CFD Toolbox
   \\    /   O peration     | Website:  https://openfoam.org
    \\  /    A nd           | Version:  7
     \\/     M anipulation  |
\*---------------------------------------------------------------------------*/
FoamFile
{
    version     2.0;
    format      ascii;
    class       surfaceScalarField;
    location    "2.2125";
    object      phi;
}
// * * * * * * * * * * * * * * * * * * * * * * * * * * * * * * * * * * * * * //

dimensions      [1 0 -1 0 0 0 0];

internalField   nonuniform List<scalar> 
21708
(
0.00129476
0.00100285
1.36414e-05
0.000897263
0.000390864
6.22978e-06
0.000688021
0.000197137
1.17075e-05
0.000598341
8.2545e-05
6.74009e-06
0.000546198
4.09094e-05
1.08447e-05
0.00051544
2.34275e-05
6.94686e-06
0.000492069
1.28471e-05
1.01436e-05
0.00047567
8.93567e-06
7.08647e-06
0.00046114
4.57319e-06
9.58113e-06
0.000450355
3.24092e-06
7.16766e-06
0.000440093
7.85663e-07
9.09899e-06
0.000432355
1.69485e-07
7.18882e-06
0.000424669
-1.36489e-06
8.66914e-06
0.000418847
-1.72109e-06
7.15901e-06
0.000412834
-2.64804e-06
8.27445e-06
0.000408042
-2.68439e-06
7.08857e-06
0.000401722
-1.96868e-06
7.90086e-06
0.000397904
-3.55664e-06
6.9853e-06
0.000345589
4.42778e-05
7.64946e-06
2.42028e-05
6.55009e-06
0.000314447
0.00224868
0.00106214
2.89167e-06
0.00205854
0.000584504
-3.89774e-06
0.00185397
0.000399629
1.67846e-06
0.00171127
0.000228004
-3.15309e-06
0.00160829
0.000142471
1.03719e-06
0.00153793
9.62383e-05
-2.81864e-06
0.00148225
6.77675e-05
4.13728e-07
0.00144157
5.19118e-05
-2.63233e-06
0.00140554
4.03958e-05
-1.20617e-07
0.00137817
3.28112e-05
-2.53157e-06
0.00135227
2.69481e-05
-5.90179e-07
0.0013323
2.23116e-05
-2.50074e-06
0.00131265
1.895e-05
-1.01376e-06
0.00129736
1.57484e-05
-2.52469e-06
0.00128235
1.34137e-05
-1.40682e-06
0.00126927
1.26138e-05
-2.59038e-06
0.0012613
7.43113e-06
-1.79642e-06
0.00124537
1.46755e-05
-2.68037e-06
0.00128578
5.77357e-06
-2.28486e-06
-2.29927e-05
-3.23289e-06
0.00133583
0.00257481
0.000788756
9.62185e-06
0.00266586
0.000489739
3.31029e-06
0.00265859
0.000397981
8.5171e-06
0.0026223
0.000260315
3.57969e-06
0.00257323
0.000183466
7.68986e-06
0.00252929
0.000136035
3.78738e-06
0.00248598
0.000103753
6.98331e-06
0.00245022
8.34275e-05
3.91672e-06
0.00241595
6.79638e-05
6.40937e-06
0.00238795
5.65302e-05
3.98974e-06
0.00236093
4.77724e-05
5.92034e-06
0.00233884
4.01066e-05
4.00627e-06
0.00231719
3.48313e-05
5.48641e-06
0.00229966
2.90056e-05
3.97347e-06
0.00228146
2.62122e-05
5.08963e-06
0.00226836
2.14831e-05
3.89972e-06
0.00224941
2.13113e-05
4.72167e-06
0.00224183
1.81158e-05
3.78006e-06
0.00221092
3.17952e-05
4.51068e-06
2.06901e-05
3.42015e-06
0.00216344
0.00258144
0.00051399
4.21111e-06
0.00274223
0.000330371
-1.83317e-06
0.00284789
0.000288598
3.32517e-06
0.00290923
0.000200127
-1.5561e-06
0.0029393
0.000150418
2.59392e-06
0.00295767
0.000118564
-1.27089e-06
0.0029633
9.58095e-05
1.96021e-06
0.00296651
8.09876e-05
-1.08707e-06
0.00296373
6.90172e-05
1.42451e-06
0.00296118
5.97848e-05
-9.84889e-07
0.00295546
5.22723e-05
9.56537e-07
0.00295065
4.56107e-05
-9.51594e-07
0.00294423
4.04543e-05
5.35134e-07
0.00293844
3.55151e-05
-9.73623e-07
0.00293278
3.1447e-05
1.44206e-07
0.00292591
2.90977e-05
-1.03998e-06
0.00292376
2.33957e-05
-2.42479e-07
0.00291578
2.69078e-05
-1.15394e-06
0.00292935
1.86099e-05
-7.45162e-07
7.96461e-06
-1.61977e-06
0.00294331
0.00257025
0.000247168
7.54521e-06
0.00273854
0.000159959
1.7125e-06
0.00287329
0.00014672
6.72958e-06
0.0029669
0.00010428
1.83767e-06
0.00303047
8.05005e-05
5.961e-06
0.00308162
6.49537e-05
2.08053e-06
0.00311809
5.36871e-05
5.29609e-06
0.00315017
4.63498e-05
2.23858e-06
0.00317391
4.02342e-05
4.74029e-06
0.00319562
3.54642e-05
2.3256e-06
0.00321193
3.14453e-05
4.26073e-06
0.00322713
2.78009e-05
2.34986e-06
0.00323856
2.49457e-05
3.83229e-06
0.00324949
2.20157e-05
2.32169e-06
0.00325729
1.99582e-05
3.43825e-06
0.00326595
1.79157e-05
2.24964e-06
0.00326974
1.62442e-05
3.0681e-06
0.00327791
1.62955e-05
2.12059e-06
0.00327682
1.6581e-05
2.78386e-06
1.63492e-05
1.77912e-06
0.00326628
0.00255228
-9.47149e-14
5.81166e-06
0.00271176
1.88032e-10
6.4944e-08
0.00285302
-7.18682e-12
5.06129e-06
0.00295673
5.39343e-10
1.71567e-07
0.00303255
9.53866e-11
4.29437e-06
0.00309671
1.37967e-09
4.17521e-07
0.0031464
7.68751e-10
3.6394e-06
0.00319183
3.31111e-09
5.84833e-07
0.00322867
3.8366e-09
3.09065e-06
0.00326317
7.67135e-09
6.77845e-07
0.00329172
1.46392e-08
2.61552e-06
0.00331854
2.04989e-08
7.0603e-07
0.00334101
4.19231e-08
2.19008e-06
0.00336202
7.41723e-08
6.80809e-07
0.00337985
8.50796e-08
1.7973e-06
0.00339661
2.85217e-07
6.11009e-07
0.00341103
1.35574e-07
1.41756e-06
0.00342566
8.75888e-07
4.82343e-07
0.00344042
4.80793e-07
1.00512e-06
1.66151e-06
1.00522e-07
0.00345464
0.00255228
-0.000247168
5.81167e-06
0.00271176
-0.000159959
6.49436e-08
0.00285302
-0.00014672
5.06129e-06
0.00295673
-0.000104279
1.71566e-07
0.00303255
-8.05002e-05
4.29437e-06
0.00309671
-6.49511e-05
4.17516e-07
0.0031464
-5.36854e-05
3.63941e-06
0.00319183
-4.63437e-05
5.8482e-07
0.00322867
-4.02262e-05
3.09066e-06
0.00326317
-3.54506e-05
6.77808e-07
0.00329172
-3.1415e-05
2.61555e-06
0.00331855
-2.77651e-05
7.05929e-07
0.00334101
-2.48587e-05
2.19017e-06
0.00336204
-2.18824e-05
6.80528e-07
0.00337986
-1.97789e-05
1.79761e-06
0.00339665
-1.73773e-05
6.10253e-07
0.00341105
-1.59526e-05
1.41892e-06
0.0034257
-1.45663e-05
4.80776e-07
0.00344044
-1.56085e-05
1.01206e-06
-1.28719e-05
9.84076e-08
0.00345452
0.00257025
-0.00051399
7.54521e-06
0.00273854
-0.000330371
1.7125e-06
0.00287329
-0.000288598
6.72958e-06
0.0029669
-0.000200126
1.83767e-06
0.00303047
-0.000150418
5.961e-06
0.00308162
-0.000118561
2.08053e-06
0.00311809
-9.5808e-05
5.29608e-06
0.00315017
-8.09818e-05
2.23859e-06
0.00317391
-6.90103e-05
4.74028e-06
0.00319563
-5.97712e-05
2.32563e-06
0.00321193
-5.22463e-05
4.2607e-06
0.00322714
-4.55752e-05
2.34994e-06
0.00323858
-4.03803e-05
3.8322e-06
0.00324951
-3.53864e-05
2.32194e-06
0.00325735
-3.13021e-05
3.43792e-06
0.00326604
-2.85933e-05
2.25036e-06
0.00326993
-2.31975e-05
3.06676e-06
0.00327825
-2.53256e-05
2.12188e-06
0.00327743
-1.79105e-05
2.77782e-06
-5.15798e-06
1.78007e-06
0.00326756
0.00258144
-0.000788756
4.21111e-06
0.00274223
-0.000489739
-1.83317e-06
0.00284789
-0.000397981
3.32517e-06
0.00290923
-0.000260314
-1.5561e-06
0.0029393
-0.000183466
2.59392e-06
0.00295767
-0.000136033
-1.2709e-06
0.0029633
-0.000103751
1.96021e-06
0.00296651
-8.34233e-05
-1.08708e-06
0.00296373
-6.79572e-05
1.42453e-06
0.00296119
-5.65212e-05
-9.8492e-07
0.00295547
-4.77489e-05
9.56582e-07
0.00295067
-4.00836e-05
-9.51675e-07
0.00294426
-3.47654e-05
5.35248e-07
0.00293851
-2.89169e-05
-9.73824e-07
0.00293287
-2.60822e-05
1.44512e-07
0.00292612
-2.11023e-05
-1.04049e-06
0.00292399
-2.11361e-05
-2.4118e-07
0.00291629
-1.68196e-05
-1.15516e-06
0.00292999
-3.1227e-05
-7.38376e-07
-1.82198e-05
-1.62125e-06
0.00294429
0.00257481
-0.00106214
9.62185e-06
0.00266586
-0.000584504
3.31029e-06
0.00265859
-0.000399629
8.5171e-06
0.0026223
-0.000228004
3.57969e-06
0.00257324
-0.000142471
7.68986e-06
0.00252929
-9.62373e-05
3.78739e-06
0.00248598
-6.77664e-05
6.98331e-06
0.00245023
-5.19093e-05
3.91673e-06
0.00241595
-4.03916e-05
6.40936e-06
0.00238796
-3.28058e-05
3.98975e-06
0.00236095
-2.69335e-05
5.92031e-06
0.00233887
-2.22981e-05
4.00632e-06
0.00231724
-1.89098e-05
5.48633e-06
0.00229975
-1.56944e-05
3.97365e-06
0.00228161
-1.33417e-05
5.08934e-06
0.00226865
-1.23751e-05
3.90027e-06
0.00224983
-7.3848e-06
4.72068e-06
0.00224271
-1.38435e-05
3.78093e-06
0.00221231
-5.7124e-06
4.50677e-06
2.40108e-05
3.41941e-06
0.00216629
0.00224868
-0.00100285
2.89168e-06
0.00205854
-0.000390864
-3.89774e-06
0.00185397
-0.000197137
1.67846e-06
0.00171127
-8.25449e-05
-3.15309e-06
0.00160829
-4.09093e-05
1.03719e-06
0.00153793
-2.34271e-05
-2.81864e-06
0.00148225
-1.28466e-05
4.13733e-07
0.00144157
-8.93492e-06
-2.63233e-06
0.00140555
-4.57153e-06
-1.20604e-07
0.00137818
-3.23951e-06
-2.53159e-06
0.00135229
-7.8007e-07
-5.90142e-07
0.00133233
-1.66439e-07
-2.50079e-06
0.00131271
1.38046e-06
-1.01367e-06
0.00129745
1.73456e-06
-2.52481e-06
0.00128248
2.67954e-06
-1.40658e-06
0.00126958
2.75343e-06
-2.59071e-06
0.0012616
2.01869e-06
-1.79543e-06
0.00124624
3.81747e-06
-2.68156e-06
0.00128633
-4.38981e-05
-2.27931e-06
-2.36139e-05
-3.23585e-06
0.00133682
0.00129476
1.36414e-05
0.000897263
6.2298e-06
0.000688021
1.17075e-05
0.000598341
6.74011e-06
0.000546198
1.08447e-05
0.00051544
6.94688e-06
0.00049207
1.01436e-05
0.000475672
7.08649e-06
0.000461143
9.58114e-06
0.000450359
7.16769e-06
0.000440103
9.09899e-06
0.000432368
7.18888e-06
0.000424698
8.6691e-06
0.000418889
7.15919e-06
0.000412908
8.27426e-06
0.000408184
7.08907e-06
0.000401914
7.90029e-06
0.000398357
6.98623e-06
0.000346422
7.64787e-06
6.5515e-06
0.000315871
0.00189987
0.000421096
3.13252e-06
0.00138414
0.00051662
4.93586e-06
0.00104136
0.000351845
2.24367e-06
0.000860899
0.000183074
3.73701e-06
0.000772366
9.674e-05
2.25559e-06
0.000718701
5.68364e-05
3.40151e-06
0.000685174
4.09083e-05
2.39454e-06
0.000655966
3.27805e-05
3.15038e-06
0.000635281
2.74435e-05
2.4587e-06
0.000615367
2.3794e-05
2.92349e-06
0.000600968
2.06466e-05
2.48456e-06
0.000586502
1.85311e-05
2.75317e-06
0.000575605
1.66844e-05
2.50785e-06
0.000564615
1.51287e-05
2.64263e-06
0.000555525
1.4439e-05
2.54533e-06
0.000546988
1.26632e-05
2.58033e-06
0.00054273
9.16539e-06
2.6104e-06
0.000525303
2.14798e-05
2.55007e-06
0.0006272
-9.72821e-05
2.65587e-06
-7.95999e-05
2.77396e-06
0.000710193
0.00240548
0.000320823
8.39005e-06
0.00234598
0.000561549
1.02666e-05
0.00222431
0.000467026
7.76422e-06
0.00208982
0.000304917
9.10243e-06
0.00198077
0.000198761
7.68822e-06
0.00189049
0.000135218
8.7227e-06
0.00182268
0.00010097
7.82023e-06
0.00176442
7.96206e-05
8.47599e-06
0.00171949
6.40637e-05
7.88193e-06
0.00167878
5.34035e-05
8.26153e-06
0.0016465
4.41282e-05
7.90207e-06
0.00161624
3.78815e-05
8.09637e-06
0.00159138
3.22827e-05
7.91753e-06
0.00156797
2.7696e-05
7.98453e-06
0.0015471
2.55966e-05
7.9458e-06
0.00152985
1.90538e-05
7.91669e-06
0.00150768
2.11603e-05
8.00428e-06
0.00150459
1.36449e-05
7.87449e-06
0.00142052
-2.4005e-05
8.13194e-06
3.34323e-06
8.13804e-06
0.00132584
0.00242896
0.000207858
4.12545e-06
0.00255872
0.000428517
6.17276e-06
0.00262299
0.000407574
3.30305e-06
0.00262373
0.00030228
5.0756e-06
0.00260365
0.000222839
3.30855e-06
0.00257043
0.000167148
4.71526e-06
0.00254053
0.000133949
3.56681e-06
0.00250851
0.000110751
4.4946e-06
0.00248171
9.32545e-05
3.72241e-06
0.00245425
8.02854e-05
4.29248e-06
0.00243125
6.89828e-05
3.79976e-06
0.00240792
6.08095e-05
4.13145e-06
0.0023883
5.32571e-05
3.85472e-06
0.00236806
4.75945e-05
4.02244e-06
0.00235189
4.26252e-05
3.91296e-06
0.00233237
3.81819e-05
3.96076e-06
0.00232326
3.06551e-05
3.98516e-06
0.00230078
3.55928e-05
3.94515e-06
0.00231015
-3.32286e-05
3.98725e-06
-1.52009e-05
4.12243e-06
0.0023276
0.00238098
0.000134466
7.25957e-06
0.00252392
0.000274161
9.17569e-06
0.00265888
0.000268772
6.77393e-06
0.00274062
0.000210404
8.17731e-06
0.00279556
0.000163396
6.70965e-06
0.00282458
0.000128727
7.76212e-06
0.00284582
0.000107493
6.829e-06
0.00285578
9.18869e-05
7.50848e-06
0.00286371
7.95487e-05
6.89874e-06
0.00286552
6.99247e-05
7.29738e-06
0.00286709
6.11819e-05
6.92574e-06
0.00286503
5.45302e-05
7.13326e-06
0.0028633
4.83168e-05
6.94429e-06
0.00285945
4.31919e-05
7.02083e-06
0.00285557
3.93884e-05
6.9738e-06
0.00285143
3.4025e-05
6.9544e-06
0.00284306
3.14282e-05
7.03083e-06
0.00284154
2.86738e-05
6.93327e-06
0.00280124
-1.22094e-06
7.17083e-06
2.28272e-05
7.17332e-06
0.00275403
0.00238307
6.42536e-05
5.22536e-06
0.00251641
0.000134919
7.20924e-06
0.00265156
0.000135298
4.65229e-06
0.002749
0.000108203
6.20693e-06
0.00282687
8.65078e-05
4.59067e-06
0.00288156
6.99667e-05
5.78001e-06
0.00292934
5.99142e-05
4.75033e-06
0.00296527
5.23413e-05
5.5353e-06
0.00299804
4.63644e-05
4.85626e-06
0.00302311
4.15711e-05
5.33215e-06
0.00304624
3.71437e-05
4.90831e-06
0.00306398
3.37132e-05
5.17284e-06
0.00308061
3.03325e-05
4.94499e-06
0.00309303
2.77711e-05
5.06419e-06
0.00310549
2.51186e-05
4.98818e-06
0.00311318
2.33023e-05
5.00254e-06
0.00312315
1.91772e-05
5.04737e-06
0.00312739
2.12213e-05
4.99533e-06
0.00312648
-2.96853e-06
5.08196e-06
7.31098e-06
5.18079e-06
0.0031382
0.00237442
-7.68763e-11
6.22664e-06
0.00250083
1.71878e-10
8.17212e-06
0.00263504
-6.62014e-11
5.74822e-06
0.00273581
5.02245e-10
7.20921e-06
0.00282054
8.27934e-11
5.67887e-06
0.00288378
1.33894e-09
6.77786e-06
0.00294118
9.5295e-10
5.80626e-06
0.00298725
3.42065e-09
6.52647e-06
0.00303052
4.28625e-09
5.89192e-06
0.00306616
9.12917e-09
6.32144e-06
0.00309971
1.45428e-08
5.93119e-06
0.00312769
2.7179e-08
6.16132e-06
0.00315397
4.12757e-08
5.95814e-06
0.00317603
8.65694e-08
6.0515e-06
0.00319659
1.10162e-07
5.99354e-06
0.00321398
2.63259e-07
5.98838e-06
0.00322791
3.15046e-07
6.0508e-06
0.00324257
7.3933e-07
5.98073e-06
0.00323318
9.17314e-07
6.15218e-06
1.9276e-06
6.1907e-06
0.00323209
0.00237442
-6.42537e-05
6.22664e-06
0.00250083
-0.000134919
8.17212e-06
0.00263504
-0.000135298
5.74822e-06
0.00273581
-0.000108202
7.20921e-06
0.00282054
-8.65077e-05
5.67887e-06
0.00288378
-6.9964e-05
6.77786e-06
0.00294118
-5.99126e-05
5.80626e-06
0.00298725
-5.23341e-05
6.52648e-06
0.00303052
-4.63567e-05
5.89191e-06
0.00306616
-4.15516e-05
6.32145e-06
0.00309972
-3.71174e-05
5.93117e-06
0.00312769
-3.36554e-05
6.16137e-06
0.00315398
-3.02592e-05
5.95808e-06
0.00317603
-2.75885e-05
6.05164e-06
0.00319662
-2.49304e-05
5.99336e-06
0.00321399
-2.2762e-05
5.98875e-06
0.00322804
-1.86574e-05
6.04995e-06
0.00324279
-1.98361e-05
5.98137e-06
0.00323352
4.69318e-06
6.14751e-06
-3.86174e-06
6.19178e-06
0.00323284
0.00238307
-0.000134466
5.22536e-06
0.00251641
-0.000274161
7.20924e-06
0.00265156
-0.000268772
4.65229e-06
0.002749
-0.000210403
6.20693e-06
0.00282687
-0.000163395
4.59067e-06
0.00288156
-0.000128725
5.78001e-06
0.00292934
-0.000107492
4.75034e-06
0.00296527
-9.18807e-05
5.5353e-06
0.00299804
-7.95408e-05
4.85626e-06
0.00302312
-6.99081e-05
5.33213e-06
0.00304625
-6.11554e-05
4.90833e-06
0.003064
-5.44812e-05
5.17279e-06
0.00308062
-4.82427e-05
4.94504e-06
0.00309307
-4.30369e-05
5.06405e-06
0.00310553
-3.91937e-05
4.98834e-06
0.00311329
-3.35567e-05
5.00218e-06
0.00312322
-3.08752e-05
5.04806e-06
0.00312755
-2.73836e-05
4.9947e-06
0.00312672
2.85817e-06
5.0858e-06
-1.93202e-05
5.17975e-06
0.00313839
0.00238098
-0.000207858
7.25957e-06
0.00252392
-0.000428516
9.17569e-06
0.00265888
-0.000407574
6.77393e-06
0.00274062
-0.000302279
8.17731e-06
0.00279556
-0.000222839
6.70965e-06
0.00282458
-0.000167146
7.76212e-06
0.00284582
-0.000133947
6.829e-06
0.00285578
-0.000110745
7.50849e-06
0.00286372
-9.32479e-05
6.89873e-06
0.00286552
-8.02712e-05
7.29739e-06
0.0028671
-6.89615e-05
6.92572e-06
0.00286504
-6.07675e-05
7.1333e-06
0.00286334
-5.31999e-05
6.94422e-06
0.0028595
-4.7461e-05
7.02093e-06
0.00285569
-4.24861e-05
6.97359e-06
0.00285162
-3.77833e-05
6.95465e-06
0.00284343
-3.02888e-05
7.0299e-06
0.00284217
-3.45653e-05
6.93379e-06
0.00280239
3.43582e-05
7.1664e-06
1.76793e-05
7.17341e-06
0.0027562
0.00242896
-0.000320823
4.12545e-06
0.00255872
-0.000561548
6.17276e-06
0.00262299
-0.000467026
3.30305e-06
0.00262373
-0.000304916
5.0756e-06
0.00260365
-0.000198761
3.30855e-06
0.00257043
-0.000135217
4.71526e-06
0.00254053
-0.000100968
3.56682e-06
0.00250851
-7.96176e-05
4.49459e-06
0.00248172
-6.40582e-05
3.72242e-06
0.00245426
-5.33955e-05
4.29247e-06
0.00243126
-4.41109e-05
3.79978e-06
0.00240795
-3.78584e-05
4.13142e-06
0.00238834
-3.22361e-05
3.85476e-06
0.00236816
-2.76216e-05
4.02234e-06
0.00235202
-2.54787e-05
3.91309e-06
0.00233267
-1.88277e-05
3.96047e-06
0.00232359
-2.08312e-05
3.98559e-06
0.00230151
-1.30141e-05
3.94465e-06
0.00231109
2.49175e-05
3.9895e-06
-1.34442e-06
4.12173e-06
0.00232902
0.00240548
-0.000421096
8.39005e-06
0.00234598
-0.00051662
1.02666e-05
0.00222431
-0.000351845
7.76422e-06
0.00208982
-0.000183074
9.10243e-06
0.00198077
-9.67398e-05
7.68822e-06
0.00189049
-5.68359e-05
8.72271e-06
0.00182269
-4.09077e-05
7.82023e-06
0.00176442
-3.27792e-05
8.47599e-06
0.00171949
-2.74412e-05
7.88192e-06
0.00167879
-2.37906e-05
8.26154e-06
0.00164652
-2.06396e-05
7.90205e-06
0.00161627
-1.85214e-05
8.0964e-06
0.00159145
-1.66666e-05
7.91747e-06
0.00156807
-1.50969e-05
7.98461e-06
0.00154729
-1.43989e-05
7.94562e-06
0.00153016
-1.25644e-05
7.91693e-06
0.00150825
-9.09449e-06
8.00351e-06
0.00150546
-2.11503e-05
7.8752e-06
0.00142253
9.70691e-05
8.12837e-06
7.96241e-05
8.13918e-06
0.00132982
0.00189987
3.13252e-06
0.00138414
4.93586e-06
0.00104136
2.24367e-06
0.000860899
3.73701e-06
0.000772366
2.25559e-06
0.000718702
3.40151e-06
0.000685176
2.39454e-06
0.000655969
3.15038e-06
0.000635286
2.4587e-06
0.000615375
2.92348e-06
0.000600983
2.48457e-06
0.000586527
2.75315e-06
0.000575648
2.50787e-06
0.00056469
2.64257e-06
0.000555639
2.54539e-06
0.000547202
2.58016e-06
0.000543015
2.61045e-06
0.000525919
2.54976e-06
0.000627599
2.65602e-06
2.77233e-06
0.000710627
0.00214196
0.000171439
-8.95886e-12
0.0018981
0.000248388
-8.99681e-12
0.00163741
0.00026253
-8.96314e-12
0.00140838
0.000232384
-9.01813e-12
0.00122402
0.000186242
-8.89251e-12
0.00108813
0.000138943
-8.86197e-12
0.000991061
9.91296e-05
-8.63884e-12
0.00092529
6.85849e-05
-8.56368e-12
0.000879632
4.77776e-05
-8.34912e-12
0.000848608
3.36023e-05
-8.341e-12
0.000825822
2.49213e-05
-8.26436e-12
0.000809074
1.91481e-05
-8.42935e-12
0.000795657
1.55672e-05
-8.5424e-12
0.000784556
1.33835e-05
-8.81722e-12
0.000775795
1.09455e-05
-8.98668e-12
0.000766344
1.16711e-05
-9.20124e-12
0.000762543
6.05224e-06
-9.27828e-12
0.000750843
1.38948e-05
-9.30947e-12
0.000758114
-4.96448e-06
-9.28048e-12
-4.54525e-06
-9.13219e-12
0.000765078
0.00236653
0.000123553
-8.95836e-12
0.00241195
0.000212831
-8.96914e-12
0.00241924
0.000262601
-8.92944e-12
0.00239574
0.000264591
-9.10142e-12
0.00235058
0.000238716
-9.25734e-12
0.00229772
0.000200165
-9.52996e-12
0.00224242
0.000161934
-9.51664e-12
0.00219027
0.000128908
-9.499e-12
0.00214151
0.000104138
-9.26599e-12
0.00209769
8.54032e-05
-9.19556e-12
0.00205781
7.24281e-05
-9.03783e-12
0.00202228
6.24978e-05
-9.07181e-12
0.00199017
5.52862e-05
-9.05659e-12
0.00196153
4.96798e-05
-9.2303e-12
0.0019359
4.41784e-05
-9.36634e-12
0.00191267
4.24515e-05
-9.64164e-12
0.00189287
3.34764e-05
-9.80464e-12
0.00187318
4.10896e-05
-1.00955e-11
0.00185883
1.71435e-05
-1.01934e-11
3.3421e-05
-1.03689e-11
0.00182863
0.00235455
8.33781e-05
-8.96835e-12
0.00242384
0.000149317
-9.00593e-12
0.00249544
0.000193898
-8.95195e-12
0.00256069
0.000204018
-9.00067e-12
0.00260938
0.000192955
-8.94954e-12
0.00264347
0.000170433
-9.08424e-12
0.00266331
0.000145327
-9.12436e-12
0.00267384
0.000122571
-9.34254e-12
0.00267691
0.000104509
-9.39598e-12
0.00267573
9.06095e-05
-9.54572e-12
0.00267138
8.03275e-05
-9.47569e-12
0.0026652
7.25551e-05
-9.47524e-12
0.00265803
6.6047e-05
-9.30978e-12
0.00264979
6.16736e-05
-9.28672e-12
0.00264203
5.55474e-05
-9.1591e-12
0.00263283
5.52808e-05
-9.21716e-12
0.0026258
4.41317e-05
-9.18408e-12
0.00261598
5.44762e-05
-9.42532e-12
0.00260982
2.68953e-05
-9.50521e-12
5.00149e-05
-9.91485e-12
0.00259693
0.00234467
5.6216e-05
-8.97379e-12
0.0024041
9.86585e-05
-9.01851e-12
0.00247656
0.000127811
-8.98085e-12
0.002553
0.000135357
-9.01545e-12
0.00262241
0.000129873
-8.90971e-12
0.00268342
0.000116826
-8.95071e-12
0.00273331
0.000101923
-8.89594e-12
0.00277491
8.81805e-05
-9.05309e-12
0.00280875
7.72797e-05
-9.09059e-12
0.00283748
6.89164e-05
-9.28156e-12
0.00286175
6.27344e-05
-9.30448e-12
0.00288299
5.81997e-05
-9.46339e-12
0.00290158
5.41518e-05
-9.4553e-12
0.00291817
5.18508e-05
-9.56725e-12
0.00293292
4.75004e-05
-9.49033e-12
0.00294646
4.83913e-05
-9.48652e-12
0.00295785
3.94471e-05
-9.33453e-12
0.00296967
4.92238e-05
-9.27077e-12
0.0029762
2.71571e-05
-9.17957e-12
5.15011e-05
-9.14577e-12
0.00298147
0.00234525
2.64366e-05
-8.97481e-12
0.00240289
4.78239e-05
-9.01926e-12
0.002472
6.29565e-05
-8.98334e-12
0.00254632
6.68487e-05
-9.03009e-12
0.00261613
6.42683e-05
-8.94071e-12
0.00268033
5.80437e-05
-8.99327e-12
0.0027358
5.08663e-05
-8.92094e-12
0.00278487
4.43479e-05
-9.03138e-12
0.00282757
3.91469e-05
-8.99968e-12
0.00286628
3.52777e-05
-9.12948e-12
0.0029013
3.23628e-05
-9.11338e-12
0.00293403
3.03994e-05
-9.2726e-12
0.00296445
2.84392e-05
-9.30731e-12
0.00299344
2.7676e-05
-9.4773e-12
0.00302033
2.53339e-05
-9.49575e-12
0.00304697
2.64556e-05
-9.54343e-12
0.0030698
2.1343e-05
-9.48436e-12
0.00309616
2.75125e-05
-9.39036e-12
0.00311278
1.52419e-05
-9.33109e-12
2.92672e-05
-9.16274e-12
0.00313979
0.00234291
-1.15397e-10
-8.97607e-12
0.0023985
3.12379e-10
-9.02106e-12
0.00246681
-2.27498e-10
-8.98487e-12
0.00254047
7.87072e-10
-9.03732e-12
0.00261003
-1.64983e-10
-8.96441e-12
0.00267449
1.89339e-09
-9.03864e-12
0.00273083
6.6595e-10
-8.97634e-12
0.00278139
4.44278e-09
-9.07469e-12
0.00282614
3.93796e-09
-9.01399e-12
0.00286747
1.10756e-08
-9.10678e-12
0.00290549
1.29782e-08
-9.05793e-12
0.00294178
3.19159e-08
-9.1728e-12
0.0029759
3.20175e-08
-9.16711e-12
0.00300928
9.97259e-08
-9.28696e-12
0.00304027
6.83367e-08
-9.2765e-12
0.00307213
2.9336e-07
-9.33494e-12
0.00309904
1.76424e-07
-9.29932e-12
0.00313145
7.28115e-07
-9.30144e-12
0.00315182
6.53609e-07
-9.27011e-12
1.4751e-06
-9.22761e-12
0.00318541
0.00234291
-2.64368e-05
-8.97562e-12
0.0023985
-4.78233e-05
-9.02299e-12
0.00246681
-6.2957e-05
-8.983e-12
0.00254047
-6.68471e-05
-9.04063e-12
0.00261003
-6.42687e-05
-8.97705e-12
0.00267449
-5.80399e-05
-9.07179e-12
0.00273083
-5.08652e-05
-9.02363e-12
0.00278139
-4.43388e-05
-9.1241e-12
0.00282614
-3.91395e-05
-9.05155e-12
0.00286747
-3.52552e-05
-9.1252e-12
0.00290549
-3.23378e-05
-9.05337e-12
0.00294178
-3.03351e-05
-9.12307e-12
0.0029759
-2.83773e-05
-9.05195e-12
0.00300928
-2.74766e-05
-9.09289e-12
0.00304028
-2.5202e-05
-8.99763e-12
0.00307215
-2.58726e-05
-9.04572e-12
0.00309906
-2.10043e-05
-8.98656e-12
0.0031315
-2.60778e-05
-9.10353e-12
0.00315192
-1.39885e-05
-9.09973e-12
-2.64234e-05
-9.21858e-12
0.00318561
0.00234525
-5.62162e-05
-8.9755e-12
0.00240289
-9.86579e-05
-9.02349e-12
0.002472
-0.000127812
-8.98259e-12
0.00254632
-0.000135356
-9.04661e-12
0.00261613
-0.000129874
-8.99984e-12
0.00268033
-0.000116822
-9.11614e-12
0.0027358
-0.000101922
-9.07653e-12
0.00278487
-8.81718e-05
-9.16344e-12
0.00282757
-7.72726e-05
-9.06026e-12
0.00286628
-6.8895e-05
-9.09705e-12
0.00290131
-6.271e-05
-8.9894e-12
0.00293404
-5.81392e-05
-9.01188e-12
0.00296445
-5.40909e-05
-8.89554e-12
0.00299346
-5.1663e-05
-8.88258e-12
0.00302035
-4.73729e-05
-8.76546e-12
0.00304702
-4.78363e-05
-8.82871e-12
0.00306988
-3.91302e-05
-8.80599e-12
0.00309628
-4.78416e-05
-9.02679e-12
0.00311299
-2.59857e-05
-9.04676e-12
-4.87384e-05
-9.30019e-12
0.00314008
0.00234467
-8.33783e-05
-8.98147e-12
0.0024041
-0.000149317
-9.0259e-12
0.00247656
-0.000193898
-8.98976e-12
0.002553
-0.000204016
-9.06593e-12
0.00262241
-0.000192955
-9.04003e-12
0.00268342
-0.00017043
-9.16598e-12
0.00273332
-0.000145327
-9.10452e-12
0.00277491
-0.000122563
-9.13708e-12
0.00280876
-0.000104503
-8.96081e-12
0.00283748
-9.05893e-05
-8.93686e-12
0.00286175
-8.03064e-05
-8.78739e-12
0.002883
-7.24995e-05
-8.81081e-12
0.0029016
-6.59948e-05
-8.73058e-12
0.00291821
-6.15032e-05
-8.77987e-12
0.00293298
-5.54434e-05
-8.7708e-12
0.00294657
-5.47791e-05
-8.89484e-12
0.00295803
-4.38851e-05
-8.98989e-12
0.00297
-5.32418e-05
-9.17293e-12
0.00297675
-2.59543e-05
-9.22335e-12
-4.77061e-05
-9.32405e-12
0.00298248
0.00235455
-0.000123553
-8.98329e-12
0.00242384
-0.000212831
-9.03547e-12
0.00249544
-0.000262601
-9.01405e-12
0.00256069
-0.00026459
-9.0795e-12
0.00260938
-0.000238716
-8.99771e-12
0.00264347
-0.000200163
-9.02492e-12
0.00266331
-0.000161933
-8.85673e-12
0.00267384
-0.000128902
-8.8175e-12
0.00267691
-0.000104133
-8.62415e-12
0.00267574
-8.53888e-05
-8.64758e-12
0.00267139
-7.24101e-05
-8.59984e-12
0.00266523
-6.24576e-05
-8.79271e-12
0.00265807
-5.5244e-05
-8.86653e-12
0.00264987
-4.95542e-05
-9.06772e-12
0.00264214
-4.41017e-05
-9.10344e-12
0.00263306
-4.20735e-05
-9.18905e-12
0.00262612
-3.33113e-05
-9.15827e-12
0.00261659
-4.01509e-05
-9.01254e-12
0.00261072
-1.64851e-05
-8.91766e-12
-3.1721e-05
-8.48309e-12
0.00259844
0.00236653
-0.000171439
-9.00283e-12
0.00241195
-0.000248388
-9.07462e-12
0.00241924
-0.000262529
-9.03756e-12
0.00239574
-0.000232383
-8.97583e-12
0.00235058
-0.000186242
-8.6968e-12
0.00229773
-0.000138942
-8.59589e-12
0.00224242
-9.91284e-05
-8.48975e-12
0.00219027
-6.85826e-05
-8.69143e-12
0.00214151
-4.77733e-05
-8.79619e-12
0.00209771
-3.35968e-05
-9.04934e-12
0.00205784
-2.49095e-05
-9.10644e-12
0.00202232
-1.91318e-05
-9.2574e-12
0.00199023
-1.55416e-05
-9.18513e-12
0.00196166
-1.33271e-05
-9.16759e-12
0.00193607
-1.09059e-05
-8.93584e-12
0.00191303
-1.14867e-05
-8.79612e-12
0.00189334
-5.98828e-06
-8.51513e-12
0.00187411
-1.34244e-05
-8.3618e-12
0.00186014
5.23533e-06
-8.20892e-12
5.06818e-06
-7.98397e-12
0.00183113
0.00214196
-8.98277e-12
0.0018981
-9.02042e-12
0.00163741
-8.95625e-12
0.00140838
-8.98156e-12
0.00122402
-8.96205e-12
0.00108813
-9.17963e-12
0.000991064
-9.31024e-12
0.000925296
-9.58762e-12
0.000879641
-9.66167e-12
0.000848623
-9.82769e-12
0.000825849
-9.77393e-12
0.000809117
-9.77549e-12
0.000795726
-9.57599e-12
0.000784681
-9.45554e-12
0.00077596
-9.22344e-12
0.000766692
-9.13947e-12
0.000762956
-9.00553e-12
0.000751726
-9.09242e-12
0.000759265
-9.08664e-12
-9.35968e-12
0.000766763
0.00214196
0.000171439
-3.13253e-06
0.0018981
0.000248388
-4.93587e-06
0.00163741
0.00026253
-2.24368e-06
0.00140838
0.000232384
-3.73702e-06
0.00122402
0.000186242
-2.2556e-06
0.00108813
0.000138943
-3.40153e-06
0.000991061
9.91296e-05
-2.39455e-06
0.00092529
6.85849e-05
-3.15039e-06
0.000879632
4.77776e-05
-2.45872e-06
0.000848608
3.36023e-05
-2.9235e-06
0.000825822
2.49213e-05
-2.48458e-06
0.000809074
1.91481e-05
-2.75318e-06
0.000795657
1.55671e-05
-2.50786e-06
0.000784556
1.33834e-05
-2.64265e-06
0.000775795
1.09455e-05
-2.54534e-06
0.000766344
1.1671e-05
-2.58034e-06
0.000762543
6.05224e-06
-2.61042e-06
0.000750843
1.38948e-05
-2.55009e-06
0.000758114
-4.96449e-06
-2.65588e-06
-4.54527e-06
-2.77398e-06
0.000765078
0.00236653
0.000123553
-8.39007e-06
0.00241195
0.000212831
-1.02666e-05
0.00241924
0.000262601
-7.76424e-06
0.00239574
0.000264591
-9.10244e-06
0.00235058
0.000238716
-7.68824e-06
0.00229772
0.000200165
-8.72272e-06
0.00224242
0.000161934
-7.82024e-06
0.00219027
0.000128908
-8.476e-06
0.00214151
0.000104138
-7.88194e-06
0.00209769
8.54032e-05
-8.26155e-06
0.00205781
7.24281e-05
-7.90208e-06
0.00202228
6.24978e-05
-8.09639e-06
0.00199017
5.52862e-05
-7.91754e-06
0.00196153
4.96798e-05
-7.98455e-06
0.0019359
4.41784e-05
-7.94582e-06
0.00191267
4.24515e-05
-7.9167e-06
0.00189287
3.34764e-05
-8.0043e-06
0.00187318
4.10896e-05
-7.87451e-06
0.00185883
1.71436e-05
-8.13195e-06
3.3421e-05
-8.13805e-06
0.00182863
0.00235455
8.33781e-05
-4.12547e-06
0.00242384
0.000149317
-6.17278e-06
0.00249544
0.000193898
-3.30307e-06
0.00256069
0.000204018
-5.07561e-06
0.00260938
0.000192955
-3.30856e-06
0.00264347
0.000170433
-4.71528e-06
0.00266331
0.000145327
-3.56683e-06
0.00267384
0.000122571
-4.49461e-06
0.00267691
0.000104509
-3.72243e-06
0.00267573
9.06095e-05
-4.29249e-06
0.00267138
8.03275e-05
-3.79978e-06
0.0026652
7.25551e-05
-4.13146e-06
0.00265803
6.6047e-05
-3.85473e-06
0.00264979
6.16736e-05
-4.02246e-06
0.00264203
5.55474e-05
-3.91297e-06
0.00263283
5.52808e-05
-3.96078e-06
0.0026258
4.41317e-05
-3.98517e-06
0.00261598
5.44762e-05
-3.94516e-06
0.00260982
2.68953e-05
-3.98726e-06
5.00149e-05
-4.12245e-06
0.00259693
0.00234467
5.6216e-05
-7.25958e-06
0.0024041
9.86585e-05
-9.17571e-06
0.00247656
0.000127811
-6.77395e-06
0.002553
0.000135357
-8.17732e-06
0.00262241
0.000129873
-6.70967e-06
0.00268342
0.000116826
-7.76213e-06
0.00273331
0.000101923
-6.82902e-06
0.00277491
8.81805e-05
-7.5085e-06
0.00280875
7.72797e-05
-6.89876e-06
0.00283748
6.89164e-05
-7.29739e-06
0.00286175
6.27344e-05
-6.92576e-06
0.00288299
5.81998e-05
-7.13328e-06
0.00290158
5.41518e-05
-6.9443e-06
0.00291817
5.18508e-05
-7.02085e-06
0.00293292
4.75004e-05
-6.97382e-06
0.00294646
4.83913e-05
-6.95441e-06
0.00295785
3.94471e-05
-7.03085e-06
0.00296967
4.92238e-05
-6.93329e-06
0.0029762
2.71571e-05
-7.17085e-06
5.15011e-05
-7.17333e-06
0.00298147
0.00234525
2.64366e-05
-5.22537e-06
0.00240289
4.78239e-05
-7.20925e-06
0.002472
6.29565e-05
-4.65231e-06
0.00254632
6.68487e-05
-6.20695e-06
0.00261613
6.42683e-05
-4.59068e-06
0.00268033
5.80437e-05
-5.78003e-06
0.0027358
5.08663e-05
-4.75035e-06
0.00278487
4.43479e-05
-5.53532e-06
0.00282757
3.91469e-05
-4.85627e-06
0.00286628
3.52778e-05
-5.33216e-06
0.0029013
3.23628e-05
-4.90833e-06
0.00293403
3.03994e-05
-5.17286e-06
0.00296445
2.84393e-05
-4.945e-06
0.00299344
2.7676e-05
-5.0642e-06
0.00302033
2.53339e-05
-4.9882e-06
0.00304697
2.64557e-05
-5.00256e-06
0.0030698
2.1343e-05
-5.04739e-06
0.00309616
2.75125e-05
-4.99535e-06
0.00311278
1.52419e-05
-5.08198e-06
2.92672e-05
-5.1808e-06
0.00313979
0.00234291
-1.15758e-10
-6.22666e-06
0.0023985
3.10126e-10
-8.17213e-06
0.00246681
-2.28949e-10
-5.74823e-06
0.00254047
7.83766e-10
-7.20923e-06
0.00261003
-1.68139e-10
-5.67889e-06
0.00267449
1.88702e-09
-6.77787e-06
0.00273083
6.61397e-10
-5.80628e-06
0.00278139
4.43962e-09
-6.52648e-06
0.00282614
3.94216e-09
-5.89194e-06
0.00286747
1.10875e-08
-6.32145e-06
0.00290549
1.30012e-08
-5.9312e-06
0.00294178
3.19488e-08
-6.16134e-06
0.0029759
3.20614e-08
-5.95815e-06
0.00300928
9.97761e-08
-6.05151e-06
0.00304027
6.8393e-08
-5.99356e-06
0.00307213
2.9341e-07
-5.9884e-06
0.00309904
1.76466e-07
-6.05082e-06
0.00313145
7.28143e-07
-5.98075e-06
0.00315182
6.5362e-07
-6.1522e-06
1.47511e-06
-6.19071e-06
0.00318541
0.00234291
-2.64368e-05