/*--------------------------------*- C++ -*----------------------------------*\
  =========                 |
  \\      /  F ield         | OpenFOAM: The Open Source CFD Toolbox
   \\    /   O peration     | Website:  https://openfoam.org
    \\  /    A nd           | Version:  7
     \\/     M anipulation  |
\*---------------------------------------------------------------------------*/
FoamFile
{
    version     2.0;
    format      ascii;
    class       volScalarField;
    location    "0.105";
    object      pPrime2Mean;
}
// * * * * * * * * * * * * * * * * * * * * * * * * * * * * * * * * * * * * * //

dimensions      [2 -2 -4 0 0 0 0];

internalField   nonuniform List<scalar> 
1440
(
3.40064e+06
3.37954e+06
3.3616e+06
3.34746e+06
3.3355e+06
3.32389e+06
3.31186e+06
3.29951e+06
3.28711e+06
3.27483e+06
3.26266e+06
3.25051e+06
3.2383e+06
3.22596e+06
3.21343e+06
3.20066e+06
3.18759e+06
3.17418e+06
3.1604e+06
3.14623e+06
3.13166e+06
3.11668e+06
3.10131e+06
3.08556e+06
3.06944e+06
3.05297e+06
3.03618e+06
3.01908e+06
3.00171e+06
2.98408e+06
2.96621e+06
2.94812e+06
2.92982e+06
2.91133e+06
2.89264e+06
2.87378e+06
2.85474e+06
2.83552e+06
2.81614e+06
2.79659e+06
2.77688e+06
2.75701e+06
2.73699e+06
2.7168e+06
2.69647e+06
2.676e+06
2.65538e+06
2.63462e+06
2.61373e+06
2.59271e+06
2.57155e+06
2.55027e+06
2.52887e+06
2.50735e+06
2.4857e+06
2.46394e+06
2.44206e+06
2.42007e+06
2.39797e+06
2.37576e+06
2.35344e+06
2.33102e+06
2.3085e+06
2.28588e+06
2.26316e+06
2.24035e+06
2.21745e+06
2.19445e+06
2.17137e+06
2.14821e+06
2.12496e+06
2.10163e+06
2.07823e+06
2.05475e+06
2.0312e+06
2.00757e+06
1.98388e+06
1.96012e+06
1.9363e+06
1.91242e+06
1.88847e+06
1.86447e+06
1.84041e+06
1.8163e+06
1.79214e+06
1.76793e+06
1.74367e+06
1.71936e+06
1.69501e+06
1.67062e+06
1.64619e+06
1.62173e+06
1.59723e+06
1.5727e+06
1.54814e+06
1.52355e+06
1.49893e+06
1.47428e+06
1.44959e+06
1.42487e+06
1.40011e+06
1.37531e+06
1.35046e+06
1.32556e+06
1.30062e+06
1.27562e+06
1.25058e+06
1.22551e+06
1.20041e+06
1.1753e+06
1.15021e+06
1.12517e+06
1.10021e+06
1.07536e+06
1.05067e+06
1.02618e+06
1.00193e+06
977969
954330
931182
3.40071e+06
3.37983e+06
3.3621e+06
3.34809e+06
3.33619e+06
3.32464e+06
3.31266e+06
3.30031e+06
3.28787e+06
3.27551e+06
3.26324e+06
3.25099e+06
3.23869e+06
3.22625e+06
3.21363e+06
3.20076e+06
3.18762e+06
3.17415e+06
3.16034e+06
3.14614e+06
3.13154e+06
3.11656e+06
3.10118e+06
3.08542e+06
3.0693e+06
3.05284e+06
3.03606e+06
3.01897e+06
3.0016e+06
2.98398e+06
2.96612e+06
2.94804e+06
2.92975e+06
2.91126e+06
2.89258e+06
2.87372e+06
2.85468e+06
2.83547e+06
2.8161e+06
2.79655e+06
2.77684e+06
2.75698e+06
2.73695e+06
2.71677e+06
2.69645e+06
2.67597e+06
2.65536e+06
2.6346e+06
2.61371e+06
2.59269e+06
2.57154e+06
2.55026e+06
2.52886e+06
2.50734e+06
2.48569e+06
2.46393e+06
2.44206e+06
2.42007e+06
2.39797e+06
2.37576e+06
2.35344e+06
2.33102e+06
2.3085e+06
2.28588e+06
2.26316e+06
2.24035e+06
2.21745e+06
2.19446e+06
2.17138e+06
2.14821e+06
2.12496e+06
2.10164e+06
2.07823e+06
2.05475e+06
2.0312e+06
2.00758e+06
1.98388e+06
1.96013e+06
1.9363e+06
1.91242e+06
1.88848e+06
1.86447e+06
1.84042e+06
1.8163e+06
1.79214e+06
1.76793e+06
1.74367e+06
1.71936e+06
1.69501e+06
1.67062e+06
1.6462e+06
1.62173e+06
1.59724e+06
1.57271e+06
1.54815e+06
1.52355e+06
1.49893e+06
1.47428e+06
1.44959e+06
1.42487e+06
1.40011e+06
1.37531e+06
1.35046e+06
1.32556e+06
1.30062e+06
1.27562e+06
1.25058e+06
1.2255e+06
1.2004e+06
1.1753e+06
1.15021e+06
1.12517e+06
1.1002e+06
1.07536e+06
1.05066e+06
1.02617e+06
1.00192e+06
977954
954295
931110
3.40089e+06
3.38008e+06
3.36245e+06
3.34851e+06
3.33667e+06
3.32516e+06
3.31324e+06
3.30092e+06
3.28846e+06
3.27603e+06
3.26366e+06
3.25128e+06
3.23882e+06
3.22621e+06
3.2134e+06
3.20035e+06
3.18704e+06
3.17345e+06
3.15953e+06
3.14527e+06
3.13065e+06
3.11566e+06
3.10031e+06
3.0846e+06
3.06855e+06
3.05216e+06
3.03546e+06
3.01845e+06
3.00117e+06
2.98362e+06
2.96582e+06
2.94779e+06
2.92955e+06
2.9111e+06
2.89245e+06
2.87361e+06
2.85459e+06
2.83539e+06
2.81602e+06
2.79648e+06
2.77678e+06
2.75691e+06
2.73689e+06
2.71672e+06
2.69639e+06
2.67593e+06
2.65531e+06
2.63456e+06
2.61368e+06
2.59266e+06
2.57151e+06
2.55024e+06
2.52884e+06
2.50731e+06
2.48567e+06
2.46391e+06
2.44203e+06
2.42004e+06
2.39794e+06
2.37573e+06
2.35342e+06
2.331e+06
2.30848e+06
2.28586e+06
2.26314e+06
2.24033e+06
2.21742e+06
2.19443e+06
2.17135e+06
2.14819e+06
2.12494e+06
2.10161e+06
2.07821e+06
2.05473e+06
2.03118e+06
2.00755e+06
1.98386e+06
1.9601e+06
1.93628e+06
1.9124e+06
1.88845e+06
1.86445e+06
1.84039e+06
1.81628e+06
1.79212e+06
1.76791e+06
1.74365e+06
1.71934e+06
1.69499e+06
1.6706e+06
1.64618e+06
1.62171e+06
1.59722e+06
1.57269e+06
1.54813e+06
1.52353e+06
1.49891e+06
1.47426e+06
1.44958e+06
1.42485e+06
1.40009e+06
1.37529e+06
1.35044e+06
1.32555e+06
1.3006e+06
1.2756e+06
1.25056e+06
1.22549e+06
1.20039e+06
1.17528e+06
1.15019e+06
1.12515e+06
1.10019e+06
1.07534e+06
1.05065e+06
1.02615e+06
1.00189e+06
977925
954255
931058
3.40106e+06
3.38027e+06
3.36269e+06
3.34881e+06
3.33701e+06
3.32554e+06
3.31363e+06
3.30131e+06
3.28882e+06
3.27633e+06
3.26387e+06
3.25138e+06
3.2388e+06
3.22607e+06
3.21315e+06
3.2e+06
3.18661e+06
3.17296e+06
3.15901e+06
3.14474e+06
3.13012e+06
3.11515e+06
3.09983e+06
3.08416e+06
3.06815e+06
3.05181e+06
3.03515e+06
3.01818e+06
3.00094e+06
2.98343e+06
2.96566e+06
2.94766e+06
2.92944e+06
2.911e+06
2.89236e+06
2.87353e+06
2.85452e+06
2.83532e+06
2.81595e+06
2.79642e+06
2.77672e+06
2.75685e+06
2.73683e+06
2.71666e+06
2.69634e+06
2.67588e+06
2.65527e+06
2.63452e+06
2.61364e+06
2.59262e+06
2.57147e+06
2.5502e+06
2.5288e+06
2.50728e+06
2.48564e+06
2.46388e+06
2.442e+06
2.42001e+06
2.39791e+06
2.3757e+06
2.35339e+06
2.33097e+06
2.30845e+06
2.28583e+06
2.26311e+06
2.2403e+06
2.21739e+06
2.1944e+06
2.17132e+06
2.14816e+06
2.12491e+06
2.10158e+06
2.07818e+06
2.0547e+06
2.03115e+06
2.00753e+06
1.98384e+06
1.96008e+06
1.93626e+06
1.91237e+06
1.88843e+06
1.86443e+06
1.84037e+06
1.81626e+06
1.7921e+06
1.76788e+06
1.74362e+06
1.71932e+06
1.69497e+06
1.67058e+06
1.64616e+06
1.62169e+06
1.59719e+06
1.57267e+06
1.54811e+06
1.52351e+06
1.49889e+06
1.47424e+06
1.44956e+06
1.42484e+06
1.40008e+06
1.37527e+06
1.35042e+06
1.32553e+06
1.30058e+06
1.27558e+06
1.25054e+06
1.22547e+06
1.20037e+06
1.17526e+06
1.15018e+06
1.12514e+06
1.10017e+06
1.07532e+06
1.05063e+06
1.02613e+06
1.00187e+06
977899
954225
931016
3.40118e+06
3.3804e+06
3.36285e+06
3.349e+06
3.33723e+06
3.32578e+06
3.31389e+06
3.30156e+06
3.28905e+06
3.27652e+06
3.26401e+06
3.25146e+06
3.23882e+06
3.22603e+06
3.21305e+06
3.19984e+06
3.1864e+06
3.17271e+06
3.15873e+06
3.14443e+06
3.1298e+06
3.11482e+06
3.0995e+06
3.08384e+06
3.06784e+06
3.05152e+06
3.03488e+06
3.01794e+06
3.00072e+06
2.98323e+06
2.96549e+06
2.94751e+06
2.92931e+06
2.91089e+06
2.89226e+06
2.87344e+06
2.85443e+06
2.83525e+06
2.81588e+06
2.79635e+06
2.77665e+06
2.7568e+06
2.73678e+06
2.71661e+06
2.6963e+06
2.67583e+06
2.65523e+06
2.63448e+06
2.6136e+06
2.59259e+06
2.57144e+06
2.55017e+06
2.52877e+06
2.50725e+06
2.48561e+06
2.46385e+06
2.44198e+06
2.41999e+06
2.39789e+06
2.37568e+06
2.35337e+06
2.33095e+06
2.30843e+06
2.28581e+06
2.26309e+06
2.24028e+06
2.21737e+06
2.19438e+06
2.1713e+06
2.14814e+06
2.12489e+06
2.10157e+06
2.07816e+06
2.05468e+06
2.03113e+06
2.00751e+06
1.98382e+06
1.96006e+06
1.93624e+06
1.91236e+06
1.88842e+06
1.86441e+06
1.84036e+06
1.81625e+06
1.79208e+06
1.76787e+06
1.74361e+06
1.71931e+06
1.69496e+06
1.67057e+06
1.64614e+06
1.62168e+06
1.59718e+06
1.57265e+06
1.54809e+06
1.5235e+06
1.49888e+06
1.47423e+06
1.44954e+06
1.42482e+06
1.40006e+06
1.37526e+06
1.35041e+06
1.32551e+06
1.30057e+06
1.27557e+06
1.25053e+06
1.22546e+06
1.20036e+06
1.17525e+06
1.15017e+06
1.12512e+06
1.10016e+06
1.07531e+06
1.05062e+06
1.02612e+06
1.00186e+06
977881
954205
930986
3.40125e+06
3.38048e+06
3.36294e+06
3.3491e+06
3.33735e+06
3.3259e+06
3.31401e+06
3.30168e+06
3.28916e+06
3.27662e+06
3.26408e+06
3.2515e+06
3.23884e+06
3.22602e+06
3.213e+06
3.19977e+06
3.18629e+06
3.17257e+06
3.15856e+06
3.14425e+06
3.12961e+06
3.11464e+06
3.09932e+06
3.08367e+06
3.06768e+06
3.05137e+06
3.03475e+06
3.01783e+06
3.00063e+06
2.98316e+06
2.96543e+06
2.94747e+06
2.92927e+06
2.91086e+06
2.89224e+06
2.87342e+06
2.85442e+06
2.83523e+06
2.81587e+06
2.79634e+06
2.77664e+06
2.75678e+06
2.73676e+06
2.7166e+06
2.69628e+06
2.67582e+06
2.65521e+06
2.63447e+06
2.61359e+06
2.59257e+06
2.57143e+06
2.55016e+06
2.52876e+06
2.50724e+06
2.4856e+06
2.46384e+06
2.44197e+06
2.41998e+06
2.39788e+06
2.37567e+06
2.35336e+06
2.33094e+06
2.30842e+06
2.2858e+06
2.26308e+06
2.24027e+06
2.21736e+06
2.19437e+06
2.17129e+06
2.14813e+06
2.12488e+06
2.10156e+06
2.07815e+06
2.05467e+06
2.03112e+06
2.0075e+06
1.98381e+06
1.96005e+06
1.93623e+06
1.91235e+06
1.8884e+06
1.8644e+06
1.84035e+06
1.81624e+06
1.79207e+06
1.76786e+06
1.7436e+06
1.7193e+06
1.69495e+06
1.67056e+06
1.64613e+06
1.62167e+06
1.59717e+06
1.57264e+06
1.54808e+06
1.52349e+06
1.49887e+06
1.47422e+06
1.44953e+06
1.42481e+06
1.40005e+06
1.37525e+06
1.3504e+06
1.32551e+06
1.30056e+06
1.27556e+06
1.25052e+06
1.22545e+06
1.20035e+06
1.17524e+06
1.15016e+06
1.12512e+06
1.10015e+06
1.0753e+06
1.05061e+06
1.02611e+06
1.00185e+06
977869
954190
930968
3.40125e+06
3.38048e+06
3.36294e+06
3.34911e+06
3.33735e+06
3.32591e+06
3.31402e+06
3.30169e+06
3.28917e+06
3.27663e+06
3.26409e+06
3.25151e+06
3.23884e+06
3.22602e+06
3.213e+06
3.19976e+06
3.18628e+06
3.17256e+06
3.15855e+06
3.14424e+06
3.1296e+06
3.11463e+06
3.09931e+06
3.08366e+06
3.06768e+06
3.05138e+06
3.03476e+06
3.01784e+06
3.00064e+06
2.98317e+06
2.96544e+06
2.94748e+06
2.92928e+06
2.91087e+06
2.89225e+06
2.87343e+06
2.85442e+06
2.83523e+06
2.81587e+06
2.79634e+06
2.77664e+06
2.75678e+06
2.73676e+06
2.71659e+06
2.69628e+06
2.67581e+06
2.65521e+06
2.63446e+06
2.61358e+06
2.59257e+06
2.57143e+06
2.55016e+06
2.52876e+06
2.50724e+06
2.4856e+06
2.46384e+06
2.44197e+06
2.41998e+06
2.39788e+06
2.37567e+06
2.35335e+06
2.33094e+06
2.30842e+06
2.2858e+06
2.26308e+06
2.24027e+06
2.21736e+06
2.19437e+06
2.17129e+06
2.14813e+06
2.12488e+06
2.10156e+06
2.07815e+06
2.05467e+06
2.03112e+06
2.0075e+06
1.98381e+06
1.96005e+06
1.93623e+06
1.91235e+06
1.8884e+06
1.8644e+06
1.84034e+06
1.81623e+06
1.79207e+06
1.76786e+06
1.7436e+06
1.71929e+06
1.69494e+06
1.67056e+06
1.64613e+06
1.62167e+06
1.59717e+06
1.57264e+06
1.54808e+06
1.52349e+06
1.49887e+06
1.47422e+06
1.44953e+06
1.42481e+06
1.40005e+06
1.37525e+06
1.3504e+06
1.3255e+06
1.30056e+06
1.27556e+06
1.25052e+06
1.22545e+06
1.20035e+06
1.17524e+06
1.15015e+06
1.12511e+06
1.10015e+06
1.0753e+06
1.05061e+06
1.02611e+06
1.00185e+06
977866
954187
930965
3.40119e+06
3.38041e+06
3.36286e+06
3.34902e+06
3.33725e+06
3.3258e+06
3.3139e+06
3.30158e+06
3.28907e+06
3.27654e+06
3.26402e+06
3.25147e+06
3.23882e+06
3.22603e+06
3.21304e+06
3.19983e+06
3.18638e+06
3.17268e+06
3.1587e+06
3.1444e+06
3.12977e+06
3.1148e+06
3.09948e+06
3.08383e+06
3.06784e+06
3.05152e+06
3.03489e+06
3.01796e+06
3.00075e+06
2.98326e+06
2.96553e+06
2.94755e+06
2.92934e+06
2.91092e+06
2.89229e+06
2.87346e+06
2.85445e+06
2.83526e+06
2.81589e+06
2.79635e+06
2.77665e+06
2.75679e+06
2.73677e+06
2.7166e+06
2.69628e+06
2.67582e+06
2.65521e+06
2.63447e+06
2.61359e+06
2.59258e+06
2.57143e+06
2.55016e+06
2.52877e+06
2.50725e+06
2.48561e+06
2.46385e+06
2.44197e+06
2.41998e+06
2.39789e+06
2.37568e+06
2.35336e+06
2.33094e+06
2.30842e+06
2.2858e+06
2.26309e+06
2.24028e+06
2.21737e+06
2.19438e+06
2.1713e+06
2.14814e+06
2.12489e+06
2.10156e+06
2.07816e+06
2.05468e+06
2.03113e+06
2.00751e+06
1.98381e+06
1.96006e+06
1.93623e+06
1.91235e+06
1.88841e+06
1.86441e+06
1.84035e+06
1.81624e+06
1.79207e+06
1.76786e+06
1.7436e+06
1.7193e+06
1.69495e+06
1.67056e+06
1.64613e+06
1.62167e+06
1.59717e+06
1.57264e+06
1.54808e+06
1.52349e+06
1.49887e+06
1.47422e+06
1.44953e+06
1.42481e+06
1.40005e+06
1.37525e+06
1.3504e+06
1.32551e+06
1.30056e+06
1.27556e+06
1.25052e+06
1.22545e+06
1.20035e+06
1.17524e+06
1.15016e+06
1.12511e+06
1.10015e+06
1.0753e+06
1.05061e+06
1.02611e+06
1.00185e+06
977871
954195
930977
3.40107e+06
3.38028e+06
3.36271e+06
3.34883e+06
3.33703e+06
3.32557e+06
3.31366e+06
3.30134e+06
3.28886e+06
3.27636e+06
3.26389e+06
3.25139e+06
3.23881e+06
3.22607e+06
3.21313e+06
3.19997e+06
3.18657e+06
3.17291e+06
3.15896e+06
3.14468e+06
3.13007e+06
3.11511e+06
3.0998e+06
3.08414e+06
3.06814e+06
3.05181e+06
3.03517e+06
3.01822e+06
3.00099e+06
2.98348e+06
2.96572e+06
2.94772e+06
2.9295e+06
2.91106e+06
2.89241e+06
2.87357e+06
2.85455e+06
2.83534e+06
2.81596e+06
2.79642e+06
2.77671e+06
2.75684e+06
2.73682e+06
2.71664e+06
2.69632e+06
2.67586e+06
2.65525e+06
2.6345e+06
2.61362e+06
2.59261e+06
2.57146e+06
2.55019e+06
2.52879e+06
2.50727e+06
2.48563e+06
2.46387e+06
2.442e+06
2.42001e+06
2.39791e+06
2.3757e+06
2.35338e+06
2.33097e+06
2.30844e+06
2.28582e+06
2.26311e+06
2.2403e+06
2.21739e+06
2.1944e+06
2.17132e+06
2.14815e+06
2.12491e+06
2.10158e+06
2.07818e+06
2.0547e+06
2.03114e+06
2.00752e+06
1.98383e+06
1.96007e+06
1.93625e+06
1.91236e+06
1.88842e+06
1.86442e+06
1.84036e+06
1.81625e+06
1.79208e+06
1.76787e+06
1.74361e+06
1.71931e+06
1.69496e+06
1.67057e+06
1.64614e+06
1.62168e+06
1.59718e+06
1.57265e+06
1.54809e+06
1.5235e+06
1.49888e+06
1.47423e+06
1.44954e+06
1.42482e+06
1.40006e+06
1.37526e+06
1.35041e+06
1.32551e+06
1.30057e+06
1.27557e+06
1.25053e+06
1.22545e+06
1.20036e+06
1.17525e+06
1.15016e+06
1.12512e+06
1.10016e+06
1.07531e+06
1.05061e+06
1.02612e+06
1.00186e+06
977884
954210
931002
3.40091e+06
3.3801e+06
3.36247e+06
3.34854e+06
3.3367e+06
3.32521e+06
3.31329e+06
3.30096e+06
3.2885e+06
3.27608e+06
3.26369e+06
3.2513e+06
3.23883e+06
3.2262e+06
3.21337e+06
3.2003e+06
3.18698e+06
3.17337e+06
3.15945e+06
3.14519e+06
3.13057e+06
3.11559e+06
3.10026e+06
3.08457e+06
3.06854e+06
3.05218e+06
3.03549e+06
3.01851e+06
3.00124e+06
2.9837e+06
2.96591e+06
2.94789e+06
2.92964e+06
2.91118e+06
2.89252e+06
2.87367e+06
2.85463e+06
2.83542e+06
2.81603e+06
2.79648e+06
2.77676e+06
2.75689e+06
2.73686e+06
2.71669e+06
2.69636e+06
2.67589e+06
2.65528e+06
2.63453e+06
2.61365e+06
2.59264e+06
2.57149e+06
2.55022e+06
2.52882e+06
2.5073e+06
2.48566e+06
2.4639e+06
2.44202e+06
2.42004e+06
2.39794e+06
2.37573e+06
2.35341e+06
2.33099e+06
2.30847e+06
2.28585e+06
2.26313e+06
2.24032e+06
2.21742e+06
2.19443e+06
2.17134e+06
2.14818e+06
2.12493e+06
2.1016e+06
2.0782e+06
2.05472e+06
2.03116e+06
2.00754e+06
1.98385e+06
1.96009e+06
1.93626e+06
1.91238e+06
1.88844e+06
1.86443e+06
1.84037e+06
1.81626e+06
1.7921e+06
1.76789e+06
1.74362e+06
1.71932e+06
1.69497e+06
1.67058e+06
1.64615e+06
1.62169e+06
1.59719e+06
1.57266e+06
1.5481e+06
1.52351e+06
1.49889e+06
1.47424e+06
1.44956e+06
1.42483e+06
1.40007e+06
1.37527e+06
1.35042e+06
1.32552e+06
1.30058e+06
1.27558e+06
1.25054e+06
1.22546e+06
1.20036e+06
1.17526e+06
1.15017e+06
1.12513e+06
1.10016e+06
1.07532e+06
1.05062e+06
1.02613e+06
1.00187e+06
977902
954233
931036
3.40073e+06
3.37985e+06
3.36213e+06
3.34813e+06
3.33624e+06
3.3247e+06
3.31273e+06
3.30038e+06
3.28793e+06
3.27557e+06
3.26329e+06
3.25103e+06
3.2387e+06
3.22624e+06
3.21359e+06
3.2007e+06
3.18753e+06
3.17405e+06
3.16022e+06
3.14602e+06
3.13143e+06
3.11646e+06
3.1011e+06
3.08537e+06
3.06929e+06
3.05286e+06
3.0361e+06
3.01904e+06
3.0017e+06
2.98409e+06
2.96624e+06
2.94816e+06
2.92986e+06
2.91136e+06
2.89267e+06
2.87379e+06
2.85473e+06
2.83551e+06
2.81611e+06
2.79655e+06
2.77683e+06
2.75695e+06
2.73692e+06
2.71674e+06
2.69641e+06
2.67594e+06
2.65532e+06
2.63457e+06
2.61369e+06
2.59267e+06
2.57152e+06
2.55025e+06
2.52885e+06
2.50733e+06
2.48568e+06
2.46392e+06
2.44205e+06
2.42006e+06
2.39796e+06
2.37575e+06
2.35344e+06
2.33102e+06
2.3085e+06
2.28588e+06
2.26316e+06
2.24035e+06
2.21744e+06
2.19445e+06
2.17137e+06
2.1482e+06
2.12496e+06
2.10163e+06
2.07822e+06
2.05474e+06
2.03119e+06
2.00756e+06
1.98387e+06
1.96011e+06
1.93629e+06
1.9124e+06
1.88846e+06
1.86445e+06
1.84039e+06
1.81628e+06
1.79212e+06
1.7679e+06
1.74364e+06
1.71934e+06
1.69499e+06
1.6706e+06
1.64617e+06
1.62171e+06
1.59721e+06
1.57268e+06
1.54812e+06
1.52353e+06
1.49891e+06
1.47426e+06
1.44957e+06
1.42485e+06
1.40009e+06
1.37529e+06
1.35044e+06
1.32554e+06
1.30059e+06
1.2756e+06
1.25056e+06
1.22548e+06
1.20038e+06
1.17527e+06
1.15018e+06
1.12514e+06
1.10018e+06
1.07533e+06
1.05064e+06
1.02614e+06
1.00189e+06
977927
954270
931087
3.40066e+06
3.37957e+06
3.36164e+06
3.34751e+06
3.33556e+06
3.32396e+06
3.31195e+06
3.2996e+06
3.2872e+06
3.27492e+06
3.26273e+06
3.25056e+06
3.23833e+06
3.22596e+06
3.21339e+06
3.20058e+06
3.18749e+06
3.17406e+06
3.16027e+06
3.14609e+06
3.13153e+06
3.11657e+06
3.10122e+06
3.0855e+06
3.06941e+06
3.05298e+06
3.03623e+06
3.01916e+06
3.00181e+06
2.9842e+06
2.96634e+06
2.94825e+06
2.92994e+06
2.91143e+06
2.89273e+06
2.87385e+06
2.85478e+06
2.83555e+06
2.81615e+06
2.79658e+06
2.77686e+06
2.75698e+06
2.73694e+06
2.71676e+06
2.69643e+06
2.67595e+06
2.65534e+06
2.63459e+06
2.6137e+06
2.59268e+06
2.57153e+06
2.55025e+06
2.52885e+06
2.50733e+06
2.48568e+06
2.46392e+06
2.44205e+06
2.42006e+06
2.39796e+06
2.37575e+06
2.35343e+06
2.33101e+06
2.30849e+06
2.28587e+06
2.26315e+06
2.24034e+06
2.21744e+06
2.19444e+06
2.17136e+06
2.14819e+06
2.12494e+06
2.10162e+06
2.07821e+06
2.05473e+06
2.03117e+06
2.00755e+06
1.98386e+06
1.9601e+06
1.93627e+06
1.91239e+06
1.88844e+06
1.86444e+06
1.84038e+06
1.81627e+06
1.7921e+06
1.76789e+06
1.74363e+06
1.71933e+06
1.69498e+06
1.67059e+06
1.64616e+06
1.6217e+06
1.5972e+06
1.57267e+06
1.54811e+06
1.52352e+06
1.4989e+06
1.47425e+06
1.44956e+06
1.42484e+06
1.40008e+06
1.37528e+06
1.35043e+06
1.32553e+06
1.30058e+06
1.27559e+06
1.25055e+06
1.22547e+06
1.20037e+06
1.17527e+06
1.15018e+06
1.12514e+06
1.10017e+06
1.07532e+06
1.05063e+06
1.02614e+06
1.00189e+06
977933
954296
931153
)
;

boundaryField
{
    upperWall
    {
        type            calculated;
        value           nonuniform List<scalar> 
120
(
3.40066e+06
3.37957e+06
3.36164e+06
3.34751e+06
3.33556e+06
3.32396e+06
3.31195e+06
3.2996e+06
3.2872e+06
3.27492e+06
3.26273e+06
3.25056e+06
3.23833e+06
3.22596e+06
3.21339e+06
3.20058e+06
3.18749e+06
3.17406e+06
3.16027e+06
3.14609e+06
3.13153e+06
3.11657e+06
3.10122e+06
3.0855e+06
3.06941e+06
3.05298e+06
3.03623e+06
3.01916e+06
3.00181e+06
2.9842e+06
2.96634e+06
2.94825e+06
2.92994e+06
2.91143e+06
2.89273e+06
2.87385e+06
2.85478e+06
2.83555e+06
2.81615e+06
2.79658e+06
2.77686e+06
2.75698e+06
2.73694e+06
2.71676e+06
2.69643e+06
2.67595e+06
2.65534e+06
2.63459e+06
2.6137e+06
2.59268e+06
2.57153e+06
2.55025e+06
2.52885e+06
2.50733e+06
2.48568e+06
2.46392e+06
2.44205e+06
2.42006e+06
2.39796e+06
2.37575e+06
2.35343e+06
2.33101e+06
2.30849e+06
2.28587e+06
2.26315e+06
2.24034e+06
2.21744e+06
2.19444e+06
2.17136e+06
2.14819e+06
2.12494e+06
2.10162e+06
2.07821e+06
2.05473e+06
2.03117e+06
2.00755e+06
1.98386e+06
1.9601e+06
1.93627e+06
1.91239e+06
1.88844e+06
1.86444e+06
1.84038e+06
1.81627e+06
1.7921e+06
1.76789e+06
1.74363e+06
1.71933e+06
1.69498e+06
1.67059e+06
1.64616e+06
1.6217e+06
1.5972e+06
1.57267e+06
1.54811e+06
1.52352e+06
1.4989e+06
1.47425e+06
1.44956e+06
1.42484e+06
1.40008e+06
1.37528e+06
1.35043e+06
1.32553e+06
1.30058e+06
1.27559e+06
1.25055e+06
1.22547e+06
1.20037e+06
1.17527e+06
1.15018e+06
1.12514e+06
1.10017e+06
1.07532e+06
1.05063e+06
1.02614e+06
1.00189e+06
977933
954296
931153
)
;
    }
    lowerWall
    {
        type            calculated;
        value           nonuniform List<scalar> 
120
(
3.40064e+06
3.37954e+06
3.3616e+06
3.34746e+06
3.3355e+06
3.32389e+06
3.31186e+06
3.29951e+06
3.28711e+06
3.27483e+06
3.26266e+06
3.25051e+06
3.2383e+06
3.22596e+06
3.21343e+06
3.20066e+06
3.18759e+06
3.17418e+06
3.1604e+06
3.14623e+06
3.13166e+06
3.11668e+06
3.10131e+06
3.08556e+06
3.06944e+06
3.05297e+06
3.03618e+06
3.01908e+06
3.00171e+06
2.98408e+06
2.96621e+06
2.94812e+06
2.92982e+06
2.91133e+06
2.89264e+06
2.87378e+06
2.85474e+06
2.83552e+06
2.81614e+06
2.79659e+06
2.77688e+06
2.75701e+06
2.73699e+06
2.7168e+06
2.69647e+06
2.676e+06
2.65538e+06
2.63462e+06
2.61373e+06
2.59271e+06
2.57155e+06
2.55027e+06
2.52887e+06
2.50735e+06
2.4857e+06
2.46394e+06
2.44206e+06
2.42007e+06
2.39797e+06
2.37576e+06
2.35344e+06
2.33102e+06
2.3085e+06
2.28588e+06
2.26316e+06
2.24035e+06
2.21745e+06
2.19445e+06
2.17137e+06
2.14821e+06
2.12496e+06
2.10163e+06
2.07823e+06
2.05475e+06
2.0312e+06
2.00757e+06
1.98388e+06
1.96012e+06
1.9363e+06
1.91242e+06
1.88847e+06
1.86447e+06
1.84041e+06
1.8163e+06
1.79214e+06
1.76793e+06
1.74367e+06
1.71936e+06
1.69501e+06
1.67062e+06
1.64619e+06
1.62173e+06
1.59723e+06
1.5727e+06
1.54814e+06
1.52355e+06
1.49893e+06
1.47428e+06
1.44959e+06
1.42487e+06
1.40011e+06
1.37531e+06
1.35046e+06
1.32556e+06
1.30062e+06
1.27562e+06
1.25058e+06
1.22551e+06
1.20041e+06
1.1753e+06
1.15021e+06
1.12517e+06
1.10021e+06
1.07536e+06
1.05067e+06
1.02618e+06
1.00193e+06
977969
954330
931182
)
;
    }
    inlet
    {
        type            calculated;
        value           nonuniform List<scalar> 
12
(
3.40064e+06
3.40071e+06
3.40089e+06
3.40106e+06
3.40118e+06
3.40125e+06
3.40125e+06
3.40119e+06
3.40107e+06
3.40091e+06
3.40073e+06
3.40066e+06
)
;
    }
    outlet
    {
        type            calculated;
        value           nonuniform List<scalar> 
12
(
919349
919223
919166
919123
919094
919076
919073
919085
919110
919144
919202
919328
)
;
    }
    frontAndBack
    {
        type            empty;
    }
}


// ************************************************************************* //
