/*--------------------------------*- C++ -*----------------------------------*\
  =========                 |
  \\      /  F ield         | OpenFOAM: The Open Source CFD Toolbox
   \\    /   O peration     | Website:  https://openfoam.org
    \\  /    A nd           | Version:  7
     \\/     M anipulation  |
\*---------------------------------------------------------------------------*/
FoamFile
{
    version     2.0;
    format      ascii;
    class       volVectorField;
    location    "0.3125";
    object      U_0;
}
// * * * * * * * * * * * * * * * * * * * * * * * * * * * * * * * * * * * * * //

dimensions      [0 1 -1 0 0 0 0];

internalField   nonuniform List<vector> 
7920
(
(2.93048 0.102011 -32.3825)
(2.10606 -0.461848 -32.4341)
(1.39433 -0.616236 -32.4331)
(1.28623 -0.672277 -32.4376)
(1.05254 -0.688714 -32.4262)
(1.0786 -0.693126 -32.4249)
(0.937097 -0.696567 -32.4165)
(0.981936 -0.696355 -32.4183)
(0.87788 -0.698411 -32.4143)
(0.927773 -0.698723 -32.4175)
(0.851985 -0.700695 -32.4161)
(0.903157 -0.700317 -32.4201)
(0.845272 -0.701621 -32.4206)
(0.89202 -0.70128 -32.4245)
(0.843393 -0.701765 -32.4255)
(0.885238 -0.701967 -32.4278)
(0.839394 -0.698395 -32.429)
(0.875713 -0.704794 -32.4287)
(0.83594 -0.648252 -32.4325)
(0.680109 -0.659411 -32.4237)
(4.41168 0.967645 -32.4287)
(4.33513 0.873013 -32.47)
(3.68372 0.818757 -32.4706)
(3.53705 0.751703 -32.475)
(3.13926 0.723919 -32.4533)
(3.13424 0.710427 -32.4358)
(2.87012 0.703226 -32.4135)
(2.91191 0.698724 -32.4058)
(2.72258 0.69532 -32.3977)
(2.79119 0.692333 -32.3978)
(2.66155 0.690117 -32.3971)
(2.74241 0.688391 -32.4022)
(2.64618 0.687879 -32.4078)
(2.72221 0.687874 -32.4162)
(2.64094 0.687343 -32.4244)
(2.71181 0.689092 -32.4299)
(2.62955 0.685197 -32.4378)
(2.72312 0.691795 -32.4352)
(2.5916 0.68417 -32.4491)
(2.90079 0.675474 -32.4161)
(4.75216 0.19318 -32.4333)
(5.25921 -0.228879 -32.463)
(5.11586 -0.374851 -32.4531)
(5.22862 -0.493442 -32.4634)
(4.98563 -0.557723 -32.4424)
(5.03643 -0.592782 -32.4187)
(4.82225 -0.616105 -32.3759)
(4.86455 -0.631597 -32.3523)
(4.69157 -0.646966 -32.3302)
(4.74189 -0.65968 -32.325)
(4.61538 -0.669608 -32.3166)
(4.67786 -0.675718 -32.3183)
(4.58738 -0.678777 -32.3207)
(4.6518 -0.679677 -32.3329)
(4.58095 -0.68117 -32.3478)
(4.63765 -0.678739 -32.3634)
(4.58216 -0.683326 -32.3806)
(4.61482 -0.673606 -32.3866)
(4.59106 -0.676127 -32.4032)
(4.54304 -0.690579 -32.3774)
(4.75313 0.649367 -32.4433)
(5.28545 0.749656 -32.4694)
(5.38713 0.796984 -32.4573)
(5.69296 0.766928 -32.4681)
(5.6346 0.748572 -32.4533)
(5.80756 0.734377 -32.431)
(5.71554 0.724122 -32.3837)
(5.82845 0.714718 -32.3489)
(5.73144 0.705108 -32.3184)
(5.80843 0.694677 -32.3074)
(5.71761 0.68644 -32.296)
(5.77919 0.680043 -32.2917)
(5.70396 0.676847 -32.2876)
(5.76057 0.674474 -32.2939)
(5.69853 0.67363 -32.3081)
(5.75413 0.673482 -32.3287)
(5.69416 0.67409 -32.3525)
(5.76286 0.67337 -32.3701)
(5.68506 0.684646 -32.388)
(5.83523 0.703707 -32.3728)
(4.74524 -0.0882033 -32.4426)
(5.24867 -0.387097 -32.4675)
(5.40781 -0.479481 -32.4523)
(5.77012 -0.545339 -32.4639)
(5.78122 -0.58117 -32.4493)
(6.01283 -0.600493 -32.4292)
(5.98614 -0.613558 -32.3802)
(6.1523 -0.621837 -32.3423)
(6.11446 -0.631827 -32.3071)
(6.23079 -0.641615 -32.2944)
(6.17741 -0.651386 -32.2814)
(6.25299 -0.658783 -32.2759)
(6.19386 -0.664374 -32.2666)
(6.2486 -0.66598 -32.2687)
(6.19826 -0.669639 -32.2777)
(6.2399 -0.665011 -32.2998)
(6.20871 -0.675099 -32.3244)
(6.22306 -0.658375 -32.3503)
(6.23011 -0.683994 -32.3693)
(6.19578 -0.697365 -32.3633)
(4.73275 0.35209 -32.4463)
(5.19181 0.55712 -32.4716)
(5.3609 0.635532 -32.4564)
(5.73909 0.655533 -32.468)
(5.77418 0.665328 -32.4532)
(6.02883 0.668158 -32.4333)
(6.02771 0.6698 -32.3839)
(6.21809 0.669568 -32.3454)
(6.2077 0.669615 -32.309)
(6.34668 0.668632 -32.296)
(6.31546 0.668216 -32.2828)
(6.40433 0.667481 -32.2772)
(6.35687 0.667742 -32.2661)
(6.41561 0.666827 -32.266)
(6.37016 0.668119 -32.2724)
(6.41298 0.664973 -32.294)
(6.38209 0.671263 -32.3187)
(6.40586 0.660935 -32.3473)
(6.40333 0.684471 -32.3677)
(6.41445 0.707246 -32.364)
(4.73275 -0.35209 -32.4463)
(5.19181 -0.55712 -32.4716)
(5.3609 -0.635532 -32.4564)
(5.73909 -0.655531 -32.468)
(5.77418 -0.665327 -32.4532)
(6.02883 -0.668156 -32.4333)
(6.02771 -0.6698 -32.3839)
(6.21809 -0.669565 -32.3454)
(6.2077 -0.669616 -32.309)
(6.34668 -0.668626 -32.296)
(6.31546 -0.668214 -32.2828)
(6.40432 -0.667466 -32.2772)
(6.35689 -0.667731 -32.2661)
(6.41559 -0.666781 -32.2661)
(6.37022 -0.668095 -32.2724)
(6.41293 -0.664797 -32.294)
(6.38221 -0.671213 -32.3187)
(6.40579 -0.660422 -32.3472)
(6.40338 -0.684143 -32.3679)
(6.41406 -0.706259 -32.3637)
(4.74524 0.0882034 -32.4426)
(5.24867 0.387097 -32.4675)
(5.40781 0.479481 -32.4523)
(5.77012 0.54534 -32.4639)
(5.78122 0.581172 -32.4493)
(6.01283 0.600494 -32.4292)
(5.98614 0.613559 -32.3801)
(6.15231 0.621839 -32.3424)
(6.11446 0.631827 -32.3071)
(6.2308 0.641618 -32.2945)
(6.17739 0.65139 -32.2813)
(6.25302 0.658791 -32.2761)
(6.19382 0.664388 -32.2665)
(6.24867 0.666007 -32.2689)
(6.1982 0.669669 -32.2776)
(6.24004 0.665158 -32.2999)
(6.20871 0.675159 -32.3243)
(6.22331 0.658845 -32.3503)
(6.2305 0.684254 -32.3695)
(6.19684 0.698466 -32.3628)
(4.75313 -0.649367 -32.4433)
(5.28545 -0.749656 -32.4694)
(5.38713 -0.796984 -32.4573)
(5.69296 -0.766927 -32.4681)
(5.6346 -0.748571 -32.4533)
(5.80756 -0.734375 -32.431)
(5.71554 -0.724122 -32.3837)
(5.82846 -0.714715 -32.349)
(5.73143 -0.705109 -32.3184)
(5.80843 -0.694671 -32.3075)
(5.7176 -0.686439 -32.2958)
(5.77922 -0.680025 -32.2919)
(5.70396 -0.676839 -32.2872)
(5.76062 -0.674408 -32.2944)
(5.69857 -0.673622 -32.3075)
(5.75424 -0.67326 -32.3293)
(5.69437 -0.674097 -32.3517)
(5.76307 -0.672833 -32.3708)
(5.68564 -0.684455 -32.3871)
(5.8356 -0.703044 -32.3736)
(4.75216 -0.19318 -32.4333)
(5.25921 0.228879 -32.463)
(5.11586 0.374851 -32.4531)
(5.22862 0.493442 -32.4634)
(4.98563 0.557724 -32.4424)
(5.03643 0.592783 -32.4187)
(4.82225 0.616106 -32.3759)
(4.86455 0.631597 -32.3524)
(4.69156 0.646968 -32.3301)
(4.74191 0.659678 -32.3252)
(4.61536 0.669616 -32.3163)
(4.67791 0.675713 -32.3186)
(4.58733 0.678793 -32.3202)
(4.65195 0.679669 -32.3336)
(4.58088 0.6812 -32.3467)
(4.63799 0.678782 -32.3648)
(4.58225 0.683375 -32.3787)
(4.61556 0.673908 -32.3892)
(4.5919 0.676343 -32.3994)
(4.54556 0.691478 -32.383)
(4.41168 -0.967645 -32.4287)
(4.33513 -0.873013 -32.47)
(3.68372 -0.818757 -32.4706)
(3.53706 -0.751703 -32.475)
(3.13927 -0.723918 -32.4533)
(3.13424 -0.710426 -32.4358)
(2.87012 -0.703225 -32.4135)
(2.91191 -0.698723 -32.4058)
(2.72258 -0.69532 -32.3977)
(2.79119 -0.692329 -32.3979)
(2.66156 -0.690117 -32.3969)
(2.74244 -0.688379 -32.4024)
(2.64619 -0.687877 -32.4074)
(2.7223 -0.687832 -32.4167)
(2.64099 -0.68735 -32.4234)
(2.71202 -0.688962 -32.4312)
(2.62991 -0.685245 -32.4356)
(2.72346 -0.691471 -32.4384)
(2.59287 -0.684305 -32.4432)
(2.90122 -0.675632 -32.428)
(2.93048 -0.102011 -32.3825)
(2.10606 0.461848 -32.4341)
(1.39433 0.616236 -32.4331)
(1.28623 0.672277 -32.4376)
(1.05254 0.688715 -32.4262)
(1.0786 0.693126 -32.4249)
(0.937097 0.696568 -32.4165)
(0.981936 0.696354 -32.4183)
(0.87788 0.698413 -32.4143)
(0.927776 0.69872 -32.4175)
(0.851984 0.700698 -32.416)
(0.903173 0.700306 -32.4202)
(0.845272 0.701628 -32.4205)
(0.892072 0.701246 -32.4247)
(0.843414 0.701786 -32.4252)
(0.885359 0.70189 -32.4283)
(0.839577 0.698466 -32.4283)
(0.875963 0.70466 -32.4299)
(0.836731 0.648619 -32.4305)
(0.681419 0.660002 -32.4288)
(4.32494 0.566064 0.0071648)
(3.08082 0.847671 0.00469952)
(2.31677 0.869783 0.0059706)
(1.75102 0.853037 0.00449111)
(1.61206 0.85489 0.00563308)
(1.41038 0.86541 0.0044615)
(1.406 0.874759 0.00540797)
(1.29188 0.883209 0.00441245)
(1.30804 0.88862 0.00518038)
(1.23715 0.893407 0.00434177)
(1.26014 0.895832 0.00497994)
(1.21631 0.898018 0.00428367)
(1.23757 0.89857 0.00481357)
(1.20769 0.900005 0.00423168)
(1.22314 0.899335 0.00466501)
(1.20102 0.902332 0.00417604)
(1.20934 0.893112 0.00452854)
(1.21259 0.918226 0.00411336)
(1.1493 0.796009 0.00443024)
(1.62015 0.817598 0.00398556)
(4.75898 -0.0999043 0.00458866)
(4.61419 -0.276852 0.00255832)
(4.52886 -0.476919 0.00386252)
(4.14997 -0.642646 0.00241889)
(4.00821 -0.738321 0.00356909)
(3.73255 -0.793383 0.00240226)
(3.65907 -0.821811 0.00335091)
(3.47985 -0.841273 0.00235979)
(3.45342 -0.854721 0.003129)
(3.34816 -0.865354 0.00229499)
(3.3548 -0.872464 0.00293522)
(3.29827 -0.877122 0.00224303)
(3.31638 -0.879512 0.00277447)
(3.2825 -0.881434 0.00219498)
(3.2984 -0.881518 0.00262796)
(3.2719 -0.88393 0.00214015)
(3.28897 -0.881495 0.00248738)
(3.24862 -0.886172 0.00207987)
(3.3161 -0.891938 0.00233057)
(3.00183 -0.893096 0.00193908)
(4.63755 0.43525 0.00588695)
(4.82875 0.871302 0.00393311)
(5.14428 0.969275 0.00511911)
(5.0867 0.959805 0.00363471)
(5.14895 0.940945 0.00475825)
(5.01605 0.92694 0.00357649)
(5.02127 0.916059 0.00451733)
(4.90288 0.90751 0.00352116)
(4.89794 0.897285 0.00428572)
(4.81107 0.890104 0.00344724)
(4.81574 0.882969 0.00408202)
(4.76423 0.880228 0.00338804)
(4.77786 0.877556 0.00391733)
(4.74912 0.877702 0.00333853)
(4.75974 0.876374 0.00377197)
(4.74782 0.877679 0.00328485)
(4.73767 0.873501 0.00363747)
(4.76756 0.882582 0.0032235)
(4.69272 0.831831 0.00354038)
(4.84988 0.884568 0.00312873)
(4.57564 -0.201677 0.00470832)
(4.70219 -0.397874 0.00297394)
(5.1335 -0.518388 0.00416417)
(5.23565 -0.623216 0.00270871)
(5.45241 -0.690983 0.00383535)
(5.45414 -0.737874 0.00266018)
(5.56406 -0.764928 0.00360672)
(5.53662 -0.786817 0.00261531)
(5.59484 -0.804938 0.00338356)
(5.55664 -0.822422 0.0025493)
(5.58523 -0.837003 0.00318713)
(5.54816 -0.847775 0.00249612)
(5.56589 -0.855417 0.00302626)
(5.53782 -0.858633 0.00244914)
(5.55367 -0.862502 0.00288139)
(5.53052 -0.860234 0.00239504)
(5.54968 -0.869396 0.00274183)
(5.50874 -0.855894 0.00233385)
(5.56144 -0.892203 0.00258497)
(5.353 -0.899538 0.00223048)
(4.58867 0.34138 0.00536161)
(4.69803 0.688223 0.00366686)
(5.10935 0.803085 0.00480952)
(5.23251 0.84432 0.0033395)
(5.48891 0.860406 0.00445234)
(5.53826 0.86922 0.00326985)
(5.69759 0.872237 0.00421333)
(5.72127 0.873829 0.0032197)
(5.82546 0.871436 0.00398606)
(5.82811 0.869457 0.00314846)
(5.88643 0.86565 0.00378317)
(5.87083 0.864034 0.00308992)
(5.90105 0.86215 0.0036184)
(5.8808 0.861695 0.00304006)
(5.89963 0.86175 0.00347131)
(5.88218 0.860266 0.0029843)
(5.89369 0.86243 0.00333419)
(5.87838 0.85919 0.00292273)
(5.88824 0.852559 0.00322257)
(5.84112 0.908806 0.00284709)
(4.58264 -0.26906 0.00499074)
(4.6697 -0.539099 0.00336043)
(5.07606 -0.653311 0.00450223)
(5.20129 -0.724039 0.00303935)
(5.46934 -0.764289 0.00415076)
(5.53284 -0.791569 0.00296889)
(5.70876 -0.806007 0.00391294)
(5.75118 -0.817331 0.00292018)
(5.87567 -0.825086 0.00368736)
(5.89824 -0.833397 0.00285087)
(5.97358 -0.839944 0.00348664)
(5.97038 -0.845797 0.00279451)
(6.0097 -0.850168 0.00332366)
(5.99326 -0.852236 0.00274597)
(6.01797 -0.855877 0.0031767)
(5.99607 -0.852731 0.00268991)
(6.02124 -0.862038 0.00303709)
(5.97816 -0.84838 0.0026277)
(6.03306 -0.87367 0.00290083)
(5.8745 -0.907114 0.00254577)
(4.58264 0.26906 0.00499074)
(4.6697 0.539099 0.00336043)
(5.07606 0.653311 0.00450223)
(5.20129 0.724039 0.00303935)
(5.46934 0.76429 0.00415076)
(5.53284 0.791569 0.00296889)
(5.70876 0.806005 0.00391294)
(5.75119 0.817332 0.00292018)
(5.87567 0.825084 0.00368736)
(5.89825 0.833403 0.00285086)
(5.97357 0.839944 0.00348665)
(5.9704 0.845813 0.0027945)
(6.00967 0.850179 0.00332367)
(5.99329 0.852282 0.00274592)
(6.01789 0.855913 0.00317676)
(5.99619 0.852895 0.00268975)
(6.02118 0.862163 0.00303731)
(5.97846 0.848854 0.00262751)
(6.03331 0.874193 0.00290158)
(5.87531 0.908268 0.00254584)
(4.58867 -0.34138 0.00536161)
(4.69803 -0.688223 0.00366686)
(5.10935 -0.803085 0.00480952)
(5.23251 -0.844319 0.0033395)
(5.48891 -0.860406 0.00445234)
(5.53826 -0.869219 0.00326985)
(5.69759 -0.872239 0.00421333)
(5.72127 -0.873827 0.00321971)
(5.82546 -0.871439 0.00398605)
(5.82811 -0.86945 0.00314848)
(5.88644 -0.865652 0.00378315)
(5.87083 -0.864013 0.00308995)
(5.90107 -0.862146 0.00361837)
(5.88081 -0.861633 0.00304012)
(5.89972 -0.86173 0.00347123)
(5.88215 -0.860091 0.00298446)
(5.89386 -0.862359 0.00333396)
(5.87824 -0.858776 0.00292286)
(5.8885 -0.852141 0.00322184)
(5.84081 -0.907985 0.00284674)
(4.57564 0.201677 0.00470832)
(4.70219 0.397874 0.00297394)
(5.1335 0.518388 0.00416417)
(5.23565 0.623216 0.00270871)
(5.45241 0.690984 0.00383535)
(5.45415 0.737874 0.00266018)
(5.56405 0.764927 0.00360672)
(5.53662 0.786817 0.00261531)
(5.59483 0.804938 0.00338356)
(5.55666 0.822424 0.0025493)
(5.58521 0.837006 0.00318712)
(5.5482 0.84778 0.00249613)
(5.56584 0.85543 0.00302625)
(5.53793 0.858648 0.00244913)
(5.55359 0.862543 0.0028814)
(5.53077 0.860297 0.00239497)
(5.54971 0.869544 0.00274195)
(5.50937 0.856241 0.00233385)
(5.56195 0.892733 0.00258561)
(5.35482 0.900801 0.00223052)
(4.63755 -0.43525 0.00588695)
(4.82875 -0.871302 0.00393311)
(5.14428 -0.969275 0.00511911)
(5.0867 -0.959805 0.0036347)
(5.14895 -0.940946 0.00475825)
(5.01605 -0.926939 0.00357649)
(5.02126 -0.91606 0.00451732)
(4.90288 -0.907508 0.00352116)
(4.89794 -0.897287 0.00428571)
(4.81108 -0.890098 0.00344726)
(4.81574 -0.882971 0.00408197)
(4.76426 -0.880208 0.0033881)
(4.77785 -0.877554 0.00391723)
(4.74922 -0.877631 0.00333867)
(4.75976 -0.87637 0.00377177)
(4.74804 -0.877458 0.00328511)
(4.73785 -0.873519 0.00363708)
(4.76798 -0.882185 0.00322373)
(4.69339 -0.831754 0.00353943)
(4.85094 -0.884241 0.00312884)
(4.75898 0.0999043 0.00458866)
(4.61419 0.276852 0.00255832)
(4.52886 0.476919 0.00386252)
(4.14997 0.642646 0.00241888)
(4.00821 0.738321 0.00356909)
(3.73255 0.793383 0.00240225)
(3.65907 0.821812 0.00335091)
(3.47985 0.841271 0.00235978)
(3.45341 0.854724 0.003129)
(3.34818 0.865351 0.00229499)
(3.35479 0.872471 0.00293521)
(3.29832 0.877111 0.00224305)
(3.31634 0.879527 0.00277441)
(3.28266 0.881405 0.00219505)
(3.29834 0.881557 0.00262783)
(3.27233 0.883879 0.00214028)
(3.289 0.881645 0.00248721)
(3.24982 0.886264 0.00208008)
(3.31638 0.892431 0.00233058)
(3.00646 0.894202 0.00193978)
(4.32494 -0.566064 0.0071648)
(3.08082 -0.847671 0.00469952)
(2.31677 -0.869783 0.0059706)
(1.75102 -0.853037 0.00449111)
(1.61206 -0.854891 0.00563308)
(1.41038 -0.86541 0.00446149)
(1.406 -0.87476 0.00540796)
(1.29188 -0.883207 0.00441244)
(1.30804 -0.888622 0.00518037)
(1.23715 -0.893403 0.00434177)
(1.26014 -0.895836 0.00497993)
(1.21633 -0.898002 0.0042837)
(1.23759 -0.898577 0.00481351)
(1.20774 -0.899955 0.00423179)
(1.22321 -0.899358 0.00466482)
(1.20116 -0.902197 0.00417636)
(1.20962 -0.893236 0.00452803)
(1.21293 -0.918066 0.00411404)
(1.15025 -0.796587 0.00442886)
(1.62081 -0.818544 0.00398785)
(4.3788 0.0974159 0.0015073)
(3.96861 0.149121 0.00205309)
(3.43498 0.162839 0.00109791)
(2.96214 0.15711 0.00163952)
(2.55139 0.144738 0.00111549)
(2.26021 0.132984 0.00153098)
(2.06788 0.124714 0.00118169)
(1.96966 0.124654 0.00143319)
(1.92599 0.131223 0.00118986)
(1.91029 0.141528 0.00133538)
(1.9092 0.151667 0.00118778)
(1.90729 0.159809 0.00126884)
(1.9106 0.165293 0.00119475)
(1.91092 0.169 0.00122774)
(1.90987 0.169903 0.001207)
(1.92032 0.173013 0.00120134)
(1.89877 0.168771 0.00122559)
(1.94683 0.176946 0.00118338)
(1.85906 0.161772 0.00123206)
(2.00153 0.16559 0.00124672)
(4.5419 0.08808 0.00329925)
(4.68146 0.119711 0.00402361)
(4.72385 0.120148 0.00306338)
(4.71643 0.093498 0.00358072)
(4.64125 0.0540108 0.00302851)
(4.55071 0.00662823 0.00342456)
(4.45197 -0.0396713 0.00306207)
(4.37061 -0.0800941 0.0033066)
(4.31219 -0.110322 0.00305895)
(4.27491 -0.132082 0.00320208)
(4.25848 -0.14651 0.00305396)
(4.25144 -0.155705 0.00313643)
(4.25392 -0.162001 0.00306514)
(4.26127 -0.164419 0.00310051)
(4.26662 -0.168171 0.00308249)
(4.28546 -0.165552 0.00307711)
(4.2784 -0.171838 0.00310582)
(4.32365 -0.161401 0.00305775)
(4.27077 -0.173148 0.00314898)
(4.37112 -0.158148 0.00315482)
(4.5167 0.0458715 0.00186445)
(4.66008 0.110901 0.00247313)
(4.79263 0.162672 0.00154457)
(4.94323 0.190583 0.0020667)
(5.05077 0.199305 0.00152295)
(5.13473 0.195093 0.00192867)
(5.17806 0.183712 0.00157714)
(5.19852 0.173507 0.00182925)
(5.20212 0.167628 0.00158897)
(5.19801 0.16689 0.00173493)
(5.19488 0.168621 0.00158934)
(5.19387 0.171908 0.0016709)
(5.19926 0.173383 0.00159907)
(5.20995 0.176321 0.00163346)
(5.22198 0.173811 0.00161429)
(5.24146 0.180213 0.00161043)
(5.25089 0.168401 0.00163201)
(5.2789 0.189227 0.00160135)
(5.27858 0.158586 0.00162584)
(5.3141 0.202431 0.0016596)
(4.5126 0.0442172 0.00288286)
(4.62529 0.0510815 0.0036012)
(4.75076 0.0464216 0.00269726)
(4.9125 0.0282495 0.00322407)
(5.051 0.00476389 0.00266473)
(5.18092 -0.0236799 0.00305734)
(5.27565 -0.0533293 0.00269375)
(5.34607 -0.0814311 0.00293938)
(5.39306 -0.105256 0.0026927)
(5.42415 -0.124466 0.0028349)
(5.44866 -0.139996 0.00268548)
(5.4653 -0.151013 0.00276582)
(5.48505 -0.160429 0.00269329)
(5.49822 -0.164373 0.00272805)
(5.52046 -0.170549 0.00270981)
(5.52918 -0.167362 0.00270624)
(5.56083 -0.176136 0.00273283)
(5.55218 -0.163317 0.00269787)
(5.61289 -0.177226 0.00278076)
(5.55976 -0.157821 0.00279362)
(4.51376 0.016615 0.00218239)
(4.62623 0.0558772 0.00285524)
(4.74488 0.0914839 0.00196077)
(4.90089 0.116898 0.00247883)
(5.03662 0.132247 0.00191826)
(5.16921 0.1409 0.00231256)
(5.27171 0.14524 0.0019536)
(5.35438 0.149323 0.00220302)
(5.41576 0.154117 0.00196033)
(5.4614 0.160102 0.00210477)
(5.49956 0.165727 0.00195804)
(5.52668 0.170765 0.00203924)
(5.55599 0.173561 0.00196733)
(5.57386 0.176144 0.00200126)
(5.60271 0.175129 0.00198168)
(5.61061 0.178673 0.00197813)
(5.65006 0.171717 0.00199963)
(5.63255 0.183862 0.00197449)
(5.71192 0.165841 0.0020104)
(5.63978 0.196273 0.00204086)
(4.51253 0.011928 0.00251537)
(4.61829 -0.00403381 0.00321734)
(4.73547 -0.0235113 0.00233066)
(4.89004 -0.0451505 0.0028545)
(5.02503 -0.0644905 0.00229193)
(5.15706 -0.0828388 0.00268382)
(5.25992 -0.0995083 0.00232182)
(5.34458 -0.115045 0.00256986)
(5.41006 -0.128905 0.00232568)
(5.46111 -0.141131 0.00246932)
(5.50582 -0.151741 0.00232158)
(5.53832 -0.159876 0.00240246)
(5.5732 -0.166455 0.00233037)
(5.59327 -0.169912 0.00236429)
(5.62602 -0.173078 0.00234497)
(5.63226 -0.173002 0.00234107)
(5.67675 -0.174704 0.00236464)
(5.6525 -0.173472 0.0023373)
(5.7417 -0.172132 0.00239787)
(5.65814 -0.177147 0.00241727)
(4.51253 -0.011928 0.00251537)
(4.61829 0.00403388 0.00321734)
(4.73547 0.0235113 0.00233066)
(4.89004 0.0451512 0.0028545)
(5.02503 0.0644903 0.00229193)
(5.15706 0.08284 0.00268382)
(5.25992 0.0995061 0.00232182)
(5.34459 0.115048 0.00256987)
(5.41006 0.128901 0.00232567)
(5.46111 0.14114 0.00246933)
(5.50582 0.151735 0.00232157)
(5.53833 0.159897 0.00240248)
(5.57319 0.166449 0.00233035)
(5.59328 0.16997 0.00236437)
(5.62601 0.173072 0.00234496)
(5.63228 0.173185 0.00234125)
(5.67676 0.174732 0.0023645)
(5.65256 0.173945 0.00233753)
(5.74177 0.17253 0.00239681)
(5.6583 0.178122 0.00241675)
(4.51376 -0.016615 0.00218239)
(4.62623 -0.0558771 0.00285524)
(4.74488 -0.0914839 0.00196077)
(4.90089 -0.116897 0.00247883)
(5.03662 -0.132247 0.00191826)
(5.16921 -0.140899 0.00231256)
(5.27171 -0.145242 0.0019536)
(5.35437 -0.14932 0.00220302)
(5.41576 -0.154121 0.00196033)
(5.4614 -0.160093 0.00210476)
(5.49956 -0.165733 0.00195804)
(5.52668 -0.170742 0.00203922)
(5.556 -0.173569 0.00196734)
(5.57386 -0.176085 0.0020012)
(5.60274 -0.175138 0.0019817)
(5.61061 -0.178491 0.00197794)
(5.65015 -0.171702 0.00199975)
(5.63258 -0.183404 0.00197423)
(5.71208 -0.165481 0.00201136)
(5.63998 -0.195355 0.0020411)
(4.5126 -0.0442171 0.00288286)
(4.62529 -0.0510815 0.0036012)
(4.75076 -0.0464216 0.00269726)
(4.9125 -0.028249 0.00322407)
(5.051 -0.00476393 0.00266473)
(5.18092 0.0236808 0.00305734)
(5.27565 0.0533277 0.00269374)
(5.34607 0.0814334 0.00293939)
(5.39306 0.105253 0.00269268)
(5.42416 0.124474 0.00283492)
(5.44866 0.139991 0.00268546)
(5.46531 0.151031 0.00276585)
(5.48505 0.160424 0.00269325)
(5.49826 0.164427 0.00272813)
(5.52047 0.17054 0.00270978)
(5.52923 0.167535 0.00270638)
(5.56094 0.176143 0.00273266)
(5.55233 0.163785 0.00269804)
(5.61327 0.177551 0.0027798)
(5.56031 0.158809 0.00279324)
(4.5167 -0.0458715 0.00186445)
(4.66008 -0.110901 0.00247313)
(4.79263 -0.162672 0.00154456)
(4.94323 -0.190583 0.00206669)
(5.05077 -0.199305 0.00152295)
(5.13473 -0.195092 0.00192866)
(5.17806 -0.183714 0.00157714)
(5.19852 -0.173505 0.00182925)
(5.20211 -0.167632 0.00158896)
(5.19803 -0.166882 0.00173494)
(5.19486 -0.168628 0.00158932)
(5.19391 -0.171888 0.00167091)
(5.19922 -0.173394 0.00159904)
(5.21003 -0.176267 0.00163346)
(5.22196 -0.17383 0.00161425)
(5.24161 -0.180047 0.00161035)
(5.25101 -0.168429 0.00163203)
(5.27918 -0.188813 0.00160126)
(5.27915 -0.15838 0.00162633)
(5.31494 -0.201684 0.00165985)
(4.5419 -0.0880799 0.00329925)
(4.68146 -0.119711 0.00402361)
(4.72385 -0.120148 0.00306338)
(4.71643 -0.093498 0.00358072)
(4.64125 -0.0540106 0.0030285)
(4.55071 -0.00662821 0.00342455)
(4.45197 0.0396717 0.00306206)
(4.37061 0.080094 0.0033066)
(4.31218 0.110323 0.00305892)
(4.27493 0.132083 0.00320212)
(4.25844 0.146512 0.00305389)
(4.25153 0.15571 0.00313656)
(4.25382 0.162004 0.00306496)
(4.26149 0.164445 0.00310079)
(4.26645 0.168169 0.00308212)
(4.28593 0.165657 0.00307763)
(4.27828 0.17184 0.00310509)
(4.32464 0.161711 0.00305866)
(4.27111 0.173345 0.00314721)
(4.37378 0.158829 0.00315648)
(4.3788 -0.0974159 0.0015073)
(3.96861 -0.149121 0.00205309)
(3.43498 -0.162839 0.00109791)
(2.96214 -0.157109 0.00163952)
(2.55139 -0.144738 0.00111548)
(2.26021 -0.132984 0.00153098)
(2.06788 -0.124714 0.00118168)
(1.96966 -0.124653 0.00143318)
(1.92599 -0.131223 0.00118986)
(1.9103 -0.141527 0.00133538)
(1.9092 -0.151667 0.00118777)
(1.90732 -0.159806 0.00126884)
(1.9106 -0.165295 0.00119473)
(1.91101 -0.168987 0.00122778)
(1.90991 -0.169913 0.0012069)
(1.92057 -0.172964 0.00120149)
(1.89903 -0.168811 0.00122526)
(1.9475 -0.176828 0.00118386)
(1.85981 -0.161815 0.00123126)
(2.00476 -0.165572 0.00124813)
(4.3788 0.0974159 -0.00150736)
(3.96861 0.149121 -0.00205314)
(3.43498 0.162839 -0.00109796)
(2.96214 0.157109 -0.00163958)
(2.55139 0.144738 -0.00111554)
(2.26021 0.132984 -0.00153103)
(2.06788 0.124714 -0.00118174)
(1.96966 0.124654 -0.00143324)
(1.92599 0.131223 -0.00118991)
(1.91029 0.141528 -0.00133543)
(1.90919 0.151667 -0.00118783)
(1.90729 0.159809 -0.00126889)
(1.9106 0.165293 -0.00119481)
(1.91092 0.169 -0.0012278)
(1.90987 0.169903 -0.00120706)
(1.92032 0.173013 -0.0012014)
(1.89877 0.168771 -0.00122564)
(1.94683 0.176946 -0.00118344)
(1.85906 0.161772 -0.00123211)
(2.00153 0.16559 -0.00124677)
(4.5419 0.0880799 -0.0032993)
(4.68146 0.119711 -0.00402367)
(4.72385 0.120148 -0.00306343)
(4.71643 0.093498 -0.00358077)
(4.64125 0.0540107 -0.00302856)
(4.55071 0.00662805 -0.00342461)
(4.45197 -0.0396715 -0.00306212)
(4.37061 -0.0800942 -0.00330665)
(4.31219 -0.110322 -0.003059)
(4.2749 -0.132082 -0.00320213)
(4.25848 -0.14651 -0.00305402)
(4.25144 -0.155705 -0.00313648)
(4.25392 -0.162001 -0.0030652)
(4.26127 -0.164419 -0.00310056)
(4.26661 -0.168171 -0.00308255)
(4.28546 -0.165552 -0.00307716)
(4.2784 -0.171838 -0.00310587)
(4.32365 -0.161401 -0.0030578)
(4.27077 -0.173148 -0.00314903)
(4.37112 -0.158148 -0.00315487)
(4.5167 0.0458715 -0.00186451)
(4.66008 0.110901 -0.00247318)
(4.79263 0.162672 -0.00154462)
(4.94323 0.190583 -0.00206675)
(5.05077 0.199304 -0.00152301)
(5.13473 0.195093 -0.00192872)
(5.17806 0.183712 -0.00157719)
(5.19852 0.173508 -0.0018293)
(5.20212 0.167629 -0.00158902)
(5.19801 0.166891 -0.00173499)
(5.19487 0.168622 -0.00158939)
(5.19386 0.171908 -0.00167095)
(5.19926 0.173384 -0.00159913)
(5.20994 0.176321 -0.00163351)
(5.22198 0.173811 -0.00161434)
(5.24145 0.180213 -0.00161049)
(5.25089 0.168401 -0.00163207)
(5.2789 0.189227 -0.00160141)
(5.27858 0.158586 -0.0016259)
(5.3141 0.202431 -0.00165966)
(4.5126 0.0442172 -0.00288292)
(4.62529 0.0510816 -0.00360126)
(4.75076 0.0464216 -0.00269731)
(4.9125 0.0282494 -0.00322413)
(5.051 0.00476369 -0.00266478)
(5.18092 -0.0236799 -0.00305739)
(5.27565 -0.053329 -0.0026938)
(5.34607 -0.0814306 -0.00293943)
(5.39306 -0.105256 -0.00269275)
(5.42415 -0.124466 -0.00283496)
(5.44866 -0.139995 -0.00268554)
(5.4653 -0.151012 -0.00276587)
(5.48505 -0.160429 -0.00269334)
(5.49822 -0.164373 -0.00272811)
(5.52046 -0.170549 -0.00270987)
(5.52918 -0.167361 -0.0027063)
(5.56083 -0.176136 -0.00273288)
(5.55218 -0.163317 -0.00269793)
(5.61289 -0.177226 -0.00278081)
(5.55976 -0.157821 -0.00279368)
(4.51376 0.0166151 -0.00218245)
(4.62623 0.0558772 -0.00285529)
(4.74488 0.0914839 -0.00196082)
(4.90089 0.116898 -0.00247888)
(5.03662 0.132247 -0.00191831)
(5.16921 0.1409 -0.00231261)
(5.27171 0.14524 -0.00195366)
(5.35438 0.149324 -0.00220307)
(5.41576 0.154117 -0.00196038)
(5.4614 0.160103 -0.00210482)
(5.49956 0.165727 -0.00195809)
(5.52668 0.170765 -0.00203929)
(5.55599 0.173561 -0.00196739)
(5.57386 0.176145 -0.00200132)
(5.60271 0.175129 -0.00198174)
(5.61061 0.178673 -0.00197818)
(5.65006 0.171717 -0.00199969)
(5.63255 0.183862 -0.00197455)
(5.71192 0.165841 -0.00201046)
(5.63978 0.196273 -0.00204091)
(4.51253 0.0119281 -0.00251542)
(4.61829 -0.00403378 -0.0032174)
(4.73547 -0.0235113 -0.00233072)
(4.89004 -0.0451507 -0.00285455)
(5.02503 -0.0644907 -0.00229199)
(5.15706 -0.0828387 -0.00268388)
(5.25992 -0.0995079 -0.00232187)
(5.34458 -0.115044 -0.00256992)
(5.41006 -0.128905 -0.00232573)
(5.46111 -0.141131 -0.00246937)
(5.50582 -0.151741 -0.00232163)
(5.53832 -0.159876 -0.00240251)
(5.5732 -0.166454 -0.00233042)
(5.59327 -0.169911 -0.00236435)
(5.62602 -0.173077 -0.00234503)
(5.63226 -0.173002 -0.00234113)
(5.67675 -0.174705 -0.00236469)
(5.6525 -0.173473 -0.00233736)
(5.7417 -0.172133 -0.00239793)
(5.65813 -0.177147 -0.00241733)
(4.51253 -0.011928 -0.00251542)
(4.61829 0.00403393 -0.0032174)
(4.73547 0.0235113 -0.00233072)
(4.89004 0.045151 -0.00285455)
(5.02503 0.0644902 -0.00229199)
(5.15706 0.0828401 -0.00268388)
(5.25992 0.0995066 -0.00232187)
(5.34459 0.115049 -0.00256992)
(5.41006 0.128902 -0.00232573)
(5.46111 0.141141 -0.00246938)
(5.50582 0.151735 -0.00232163)
(5.53833 0.159898 -0.00240254)
(5.57319 0.166449 -0.00233041)
(5.59328 0.169971 -0.00236442)
(5.62601 0.173073 -0.00234501)
(5.63228 0.173185 -0.0023413)
(5.67676 0.174732 -0.00236455)
(5.65256 0.173945 -0.00233758)
(5.74177 0.17253 -0.00239686)
(5.6583 0.178122 -0.00241681)
(4.51376 -0.016615 -0.00218244)
(4.62623 -0.0558771 -0.00285529)
(4.74488 -0.0914839 -0.00196082)
(4.90089 -0.116898 -0.00247888)
(5.03662 -0.132247 -0.00191832)
(5.16921 -0.140899 -0.00231262)
(5.27171 -0.145242 -0.00195366)
(5.35437 -0.149319 -0.00220307)
(5.41576 -0.154121 -0.00196038)
(5.4614 -0.160093 -0.00210482)
(5.49956 -0.165733 -0.0019581)
(5.52668 -0.170742 -0.00203927)
(5.556 -0.173568 -0.0019674)
(5.57386 -0.176085 -0.00200125)
(5.60274 -0.175138 -0.00198175)
(5.61061 -0.178491 -0.00197799)
(5.65015 -0.171703 -0.0019998)
(5.63258 -0.183404 -0.00197429)
(5.71208 -0.165481 -0.00201142)
(5.63998 -0.195356 -0.00204116)
(4.5126 -0.0442171 -0.00288292)
(4.62529 -0.0510815 -0.00360126)
(4.75076 -0.0464215 -0.00269732)
(4.9125 -0.0282491 -0.00322413)
(5.051 -0.00476405 -0.00266478)
(5.18092 0.0236809 -0.0030574)
(5.27565 0.053328 -0.0026938)
(5.34607 0.0814338 -0.00293944)
(5.39306 0.105254 -0.00269274)
(5.42416 0.124474 -0.00283498)
(5.44866 0.139991 -0.00268552)
(5.46531 0.151031 -0.00276591)
(5.48505 0.160424 -0.00269331)
(5.49826 0.164427 -0.00272818)
(5.52047 0.17054 -0.00270983)
(5.52923 0.167536 -0.00270643)
(5.56094 0.176143 -0.00273271)
(5.55232 0.163785 -0.0026981)
(5.61327 0.177551 -0.00277985)
(5.5603 0.158809 -0.0027933)
(4.5167 -0.0458715 -0.00186451)
(4.66008 -0.110901 -0.00247318)
(4.79263 -0.162672 -0.00154462)
(4.94323 -0.190583 -0.00206675)
(5.05077 -0.199305 -0.00152301)
(5.13473 -0.195092 -0.00192872)
(5.17806 -0.183714 -0.0015772)
(5.19852 -0.173505 -0.00182931)
(5.20211 -0.167632 -0.00158902)
(5.19803 -0.166882 -0.001735)
(5.19486 -0.168628 -0.00158938)
(5.19391 -0.171888 -0.00167097)
(5.19922 -0.173394 -0.00159909)
(5.21003 -0.176266 -0.00163351)
(5.22196 -0.17383 -0.00161431)
(5.24161 -0.180047 -0.00161041)
(5.25101 -0.168429 -0.00163209)
(5.27918 -0.188812 -0.00160132)
(5.27915 -0.15838 -0.00162639)
(5.31494 -0.201684 -0.00165991)
(4.5419 -0.0880799 -0.0032993)
(4.68146 -0.119711 -0.00402367)
(4.72385 -0.120148 -0.00306344)
(4.71643 -0.0934979 -0.00358078)
(4.64125 -0.0540106 -0.00302856)
(4.55071 -0.00662835 -0.00342461)
(4.45197 0.0396716 -0.00306212)
(4.37061 0.080094 -0.00330666)
(4.31218 0.110323 -0.00305898)
(4.27493 0.132083 -0.00320218)
(4.25844 0.146512 -0.00305394)
(4.25153 0.15571 -0.00313661)
(4.25383 0.162005 -0.00306501)
(4.26149 0.164445 -0.00310084)
(4.26645 0.16817 -0.00308217)
(4.28593 0.165657 -0.00307768)
(4.27828 0.171841 -0.00310515)
(4.32464 0.161711 -0.00305871)
(4.27111 0.173345 -0.00314727)
(4.37378 0.15883 -0.00315654)
(4.3788 -0.0974159 -0.00150736)
(3.96861 -0.149121 -0.00205314)
(3.43498 -0.162839 -0.00109796)
(2.96214 -0.157109 -0.00163958)
(2.55139 -0.144738 -0.00111555)
(2.26021 -0.132984 -0.00153104)
(2.06788 -0.124714 -0.00118175)
(1.96966 -0.124653 -0.00143325)
(1.92599 -0.131223 -0.00118992)
(1.9103 -0.141527 -0.00133544)
(1.9092 -0.151667 -0.00118783)
(1.90732 -0.159806 -0.0012689)
(1.9106 -0.165295 -0.00119479)
(1.91101 -0.168987 -0.00122783)
(1.90991 -0.169913 -0.00120695)
(1.92057 -0.172964 -0.00120154)
(1.89903 -0.168811 -0.00122531)
(1.9475 -0.176828 -0.00118392)
(1.85981 -0.161815 -0.00123132)
(2.00476 -0.165573 -0.00124818)
(4.32494 0.566064 -0.00716483)
(3.08082 0.847671 -0.00469956)
(2.31677 0.869783 -0.00597064)
(1.75102 0.853037 -0.00449115)
(1.61206 0.85489 -0.00563312)
(1.41038 0.86541 -0.00446153)
(1.406 0.874759 -0.005408)
(1.29188 0.883209 -0.00441248)
(1.30804 0.88862 -0.00518041)
(1.23715 0.893408 -0.0043418)
(1.26014 0.895832 -0.00497998)
(1.21631 0.898018 -0.00428371)
(1.23757 0.89857 -0.00481361)
(1.20768 0.900005 -0.00423172)