/*--------------------------------*- C++ -*----------------------------------*\
  =========                 |
  \\      /  F ield         | OpenFOAM: The Open Source CFD Toolbox
   \\    /   O peration     | Website:  https://openfoam.org
    \\  /    A nd           | Version:  7
     \\/     M anipulation  |
\*---------------------------------------------------------------------------*/
FoamFile
{
    version     2.0;
    format      ascii;
    class       volSymmTensorField;
    location    "1.2";
    object      UPrime2Mean;
}
// * * * * * * * * * * * * * * * * * * * * * * * * * * * * * * * * * * * * * //

dimensions      [0 2 -2 0 0 0 0];

internalField   nonuniform List<symmTensor> 
4950
(
(0.0116557 -0.00404664 -0.00085621 0.00262781 0.000604588 0.000231548)
(0.0602292 -0.0064185 -0.00333141 0.000857552 0.000428344 0.000527172)
(0.111805 -0.00378307 -0.00491794 0.000162117 0.00022812 0.000754257)
(0.1685 -0.000166595 -0.00600186 8.97037e-06 4.98962e-05 0.000862704)
(0.189563 0.00158674 -0.00656469 2.41114e-05 -2.33486e-05 0.000960143)
(0.221523 0.00237248 -0.00691974 4.19876e-05 -4.04782e-05 0.000965016)
(0.227662 0.00241805 -0.00715349 4.52142e-05 -3.77805e-05 0.000963319)
(0.249113 0.00242609 -0.00723399 4.42717e-05 -2.31509e-05 0.000895291)
(0.250955 0.0021501 -0.00729095 3.97631e-05 -1.16836e-05 0.000843601)
(0.267397 0.00205222 -0.00721918 3.60896e-05 -4.58354e-06 0.000762209)
(0.267805 0.0017355 -0.00717114 3.04156e-05 -5.60744e-07 0.000711313)
(0.280874 0.00170592 -0.00701872 2.79602e-05 -3.055e-06 0.000650089)
(0.280778 0.00133881 -0.00691091 2.22949e-05 1.59106e-06 0.000620173)
(0.291124 0.0014918 -0.00671934 2.30989e-05 -8.88037e-06 0.000589171)
(0.291223 0.00092763 -0.00657487 1.44644e-05 4.73676e-06 0.000581133)
(0.299151 0.00140337 -0.00638138 2.12065e-05 -1.95281e-05 0.000581083)
(0.300005 8.03159e-05 -0.00621239 4.67649e-06 2.18193e-05 0.000580929)
(0.307488 0.00101612 -0.00611093 1.93821e-05 -3.38174e-05 0.000611404)
(0.301682 -0.00571841 -0.00578187 0.000188868 0.000129416 0.000591335)
(0.345922 -0.000308213 -0.00481001 0.000208895 7.25678e-05 0.00062493)
(0.0066957 0.00209971 0.000481738 0.00459228 0.000741437 0.000230709)
(0.00782086 0.0010615 0.000454585 0.00445039 0.00108251 0.00074767)
(0.015117 -0.000205155 0.000409829 0.00338515 0.00119835 0.00138121)
(0.0220585 -0.00261186 -0.000750938 0.00200937 0.00103339 0.00193562)
(0.0348834 -0.00326331 -0.00154795 0.00116454 0.000840586 0.00255428)
(0.0514466 -0.00381329 -0.00284033 0.000734104 0.000657607 0.00300381)
(0.0688279 -0.00374499 -0.00372754 0.00047324 0.000484658 0.00336043)
(0.0894 -0.00369388 -0.00492931 0.000326689 0.000347332 0.00344045)
(0.107666 -0.00340438 -0.00565442 0.00023223 0.000239412 0.00337525)
(0.128183 -0.00313178 -0.00652899 0.00017234 0.000164551 0.00314303)
(0.145239 -0.0027845 -0.00692298 0.000131233 0.000114359 0.00284649)
(0.163972 -0.00246656 -0.00741202 0.000104175 8.79579e-05 0.0025226)
(0.17909 -0.00211446 -0.0075148 8.30358e-05 6.55977e-05 0.00220171)
(0.195755 -0.00181943 -0.00765808 7.20621e-05 7.77112e-05 0.00193455)
(0.20884 -0.00154024 -0.00750176 5.52832e-05 5.75925e-05 0.00168936)
(0.224401 -0.00113003 -0.00732508 5.38809e-05 9.9023e-05 0.0015638)
(0.233879 -0.00116424 -0.00697026 3.3122e-05 6.46817e-05 0.00141199)
(0.252356 0.000742233 -0.0066483 3.18467e-05 3.16271e-05 0.00146229)
(0.248588 -0.000579803 -0.00610159 4.60728e-05 0.000127846 0.00135518)
(0.268266 0.00866474 -0.00466341 0.000669811 -0.000521805 0.00149592)
(0.00797844 0.00179526 0.00066515 0.00156264 0.000417867 0.000229281)
(0.0151352 0.00354253 0.00168246 0.00183382 0.000695307 0.000790823)
(0.0395949 0.00638814 0.00399714 0.00196669 0.000978952 0.00151096)
(0.0503313 0.00595928 0.0050575 0.00152252 0.000972217 0.00218719)
(0.0704722 0.00546608 0.00681154 0.00110418 0.000908466 0.00298065)
(0.0762394 0.00423644 0.00725788 0.000822788 0.000771124 0.00372564)
(0.0910826 0.00339264 0.00821095 0.000594354 0.000613042 0.00447851)
(0.0956583 0.00246348 0.00779995 0.000442223 0.000450529 0.00501011)
(0.108376 0.00192315 0.00785546 0.000325346 0.000318858 0.00534746)
(0.113918 0.00135028 0.00691055 0.00024099 0.000203576 0.00540196)
(0.12594 0.00108782 0.00665357 0.0001814 0.000131442 0.00527297)
(0.13286 0.000739885 0.00573401 0.000133184 7.40673e-05 0.00497283)
(0.144712 0.000666159 0.00547808 0.000105561 4.63385e-05 0.00457271)
(0.152565 0.000406311 0.00475782 7.43814e-05 3.20137e-05 0.00410234)
(0.164698 0.000436711 0.00463231 6.78912e-05 1.92581e-05 0.00360131)
(0.172361 0.000240446 0.00436211 3.90688e-05 1.91949e-05 0.00311795)
(0.186039 0.00038128 0.00453511 5.62934e-05 3.94986e-05 0.00267443)
(0.191518 0.000130298 0.00490246 1.47061e-05 -6.71708e-05 0.00234293)
(0.207122 0.00126209 0.00512914 7.01188e-05 0.000141118 0.00204922)
(0.211632 0.00102471 0.00671474 0.000440436 -0.000571367 0.00197785)
(0.0078349 0.000992299 0.000605155 0.000447836 0.000210122 0.00021056)
(0.0137675 0.00182371 0.00145774 0.00054249 0.000370324 0.000753054)
(0.0417907 0.00396858 0.00395127 0.00062498 0.000538028 0.00147287)
(0.0620233 0.00439776 0.0057503 0.000525032 0.000576046 0.00215111)
(0.0994641 0.00486957 0.00850554 0.000419217 0.000561234 0.00295801)
(0.121299 0.00466896 0.0102489 0.000348042 0.000513202 0.00373832)
(0.158236 0.00467826 0.0124527 0.000283414 0.000432259 0.0045653)
(0.177772 0.00437768 0.0132844 0.000238472 0.000351619 0.00523117)
(0.211818 0.00429634 0.0143229 0.000197547 0.000269482 0.00571938)
(0.229363 0.00399135 0.0142333 0.000165645 0.000201872 0.00596223)
(0.260173 0.00386041 0.0146006 0.000137659 0.000144537 0.00598708)
(0.276587 0.0036055 0.0142247 0.000114609 0.000106325 0.00584803)
(0.304073 0.0034214 0.0143658 9.58184e-05 7.23424e-05 0.00557516)
(0.3204 0.00327966 0.013904 7.8674e-05 6.79091e-05 0.00518216)
(0.344326 0.00293112 0.0139376 6.73893e-05 4.39465e-05 0.00474121)
(0.361732 0.00295833 0.0136525 5.12425e-05 5.66951e-05 0.0041892)
(0.380985 0.00234167 0.0138839 4.84563e-05 4.61418e-05 0.00370114)
(0.402358 0.00193848 0.0142339 2.2708e-05 -6.52797e-06 0.00318321)
(0.410362 0.00196387 0.0144913 3.73665e-05 7.57124e-05 0.00275654)
(0.452149 -0.00288103 0.0171905 6.51236e-05 -0.000346771 0.00257444)
(0.00780407 -1.5161e-08 0.00062486 2.50562e-10 -3.42936e-11 0.000219287)
(0.0133666 4.06863e-09 0.00145549 2.66153e-10 -2.36958e-09 0.000782311)
(0.0419071 6.48821e-11 0.00410942 1.94285e-10 -4.22082e-09 0.00151134)
(0.0636948 5.08019e-09 0.00598665 9.25061e-11 -6.86391e-09 0.00219885)
(0.104113 -3.60128e-08 0.00907004 8.54203e-11 -6.92601e-09 0.00300445)
(0.129477 2.38687e-08 0.0109554 1.12118e-10 -1.31356e-08 0.00379102)
(0.172018 -4.99322e-08 0.0136108 1.50631e-10 -1.58597e-08 0.00463062)
(0.197059 5.84153e-08 0.0146173 1.84651e-10 -7.88561e-09 0.00531721)
(0.2392 1.40611e-07 0.0161561 2.21168e-10 -3.11591e-08 0.00584931)
(0.263322 5.75804e-07 0.0162177 2.57175e-10 3.12998e-08 0.00611925)
(0.303784 7.06056e-07 0.0170628 3.00743e-10 -7.93433e-08 0.00620666)
(0.326616 1.82871e-06 0.0167919 3.4046e-10 1.72831e-07 0.00609078)
(0.36498 2.26034e-06 0.0173795 4.33182e-10 -1.7151e-07 0.00588089)
(0.386139 8.0692e-06 0.0169499 6.50135e-10 4.26874e-07 0.00550411)
(0.422859 4.03297e-06 0.0174024 9.08555e-10 -1.17462e-07 0.00511187)
(0.441151 2.76243e-05 0.0169882 3.14922e-09 6.11312e-07 0.0045543)
(0.476783 6.29842e-06 0.0176697 2.87248e-09 6.7688e-07 0.00407595)
(0.492426 6.64495e-05 0.0177534 1.87258e-08 4.15163e-07 0.00353051)
(0.518166 1.21e-05 0.0185266 1.13532e-08 1.92127e-06 0.00305758)
(0.542911 5.23569e-05 0.021139 3.07781e-08 6.90713e-07 0.00289834)
(0.00783492 -0.000992327 0.000605162 0.000447831 -0.000210125 0.00021056)
(0.0137676 -0.00182367 0.00145772 0.000542487 -0.00037032 0.000753064)
(0.0417908 -0.00396857 0.00395134 0.000624977 -0.000538049 0.00147285)
(0.0620233 -0.00439774 0.00575015 0.00052503 -0.000576035 0.00215116)
(0.0994641 -0.00486965 0.00850582 0.000419214 -0.00056128 0.00295793)
(0.121299 -0.00466896 0.0102483 0.000348032 -0.00051317 0.00373836)
(0.158235 -0.00467834 0.0124536 0.000283401 -0.000432355 0.0045654)
(0.177773 -0.00437773 0.0132829 0.000238447 -0.000351526 0.00523073)
(0.211818 -0.00429599 0.0143255 0.0001975 -0.000269632 0.00572049)
(0.229365 -0.00399086 0.0142292 0.000165604 -0.000201727 0.00596019)
(0.260173 -0.00385887 0.014607 0.000137533 -0.000144681 0.00599035)
(0.276593 -0.00360424 0.014215 0.000114511 -0.00010615 0.00584373)
(0.304074 -0.00341665 0.0143805 9.55513e-05 -7.23878e-05 0.00558004)
(0.320417 -0.00327326 0.0138827 7.83992e-05 -6.76362e-05 0.00517795)
(0.344335 -0.00292073 0.0139685 6.6951e-05 -4.37204e-05 0.00474369)
(0.361774 -0.00293692 0.0136113 5.05478e-05 -5.58708e-05 0.00418996)
(0.381028 -0.00232214 0.0139367 4.77796e-05 -4.49008e-05 0.00369693)
(0.402442 -0.00188468 0.0141776 2.18707e-05 9.04912e-06 0.0031915)
(0.410486 -0.00190536 0.0145478 3.60311e-05 -7.14516e-05 0.00274456)
(0.452299 0.0029641 0.0171763 6.6895e-05 0.000350401 0.00259253)
(0.00797848 -0.00179528 0.000665158 0.00156263 -0.000417874 0.000229282)
(0.0151352 -0.00354251 0.00168243 0.00183382 -0.000695293 0.000790834)
(0.0395949 -0.00638814 0.00399722 0.00196669 -0.000978992 0.00151094)
(0.0503313 -0.00595928 0.00505733 0.00152251 -0.000972173 0.00218727)
(0.0704723 -0.00546615 0.00681182 0.00110418 -0.000908556 0.00298053)
(0.0762396 -0.00423646 0.00725743 0.00082277 -0.000771029 0.00372577)
(0.0910825 -0.00339275 0.00821172 0.000594343 -0.000613227 0.00447855)
(0.0956587 -0.00246362 0.00779888 0.000442184 -0.00045032 0.00500965)
(0.108376 -0.0019231 0.00785728 0.000325312 -0.000319179 0.00534908)
(0.11392 -0.00135012 0.00690778 0.000240923 -0.000203232 0.00539874)
(0.12594 -0.00108757 0.00665853 0.00018131 -0.000131874 0.00527893)
(0.132865 -0.000739468 0.00572539 0.000133062 -7.35297e-05 0.0049642)
(0.144711 -0.000665745 0.00549477 0.000105377 -4.69762e-05 0.00458439)
(0.152581 -0.000402517 0.00472825 7.41249e-05 -3.09226e-05 0.00408948)
(0.164694 -0.000438637 0.00468646 6.7635e-05 -2.02854e-05 0.00361438)
(0.1724 -0.000226204 0.0042747 3.85643e-05 -1.69313e-05 0.00310748)
(0.186035 -0.000394006 0.00467592 5.59139e-05 -4.05642e-05 0.00268172)
(0.191603 -9.35102e-05 0.00470902 1.4419e-05 7.00802e-05 0.00233985)
(0.207149 -0.00129265 0.00539437 6.8902e-05 -0.000141685 0.00204625)
(0.211798 -0.00096321 0.00643247 0.000437347 0.000573674 0.00199262)
(0.00669574 -0.00209974 0.000481742 0.00459225 -0.000741439 0.000230709)
(0.00782091 -0.00106147 0.000454579 0.00445039 -0.00108249 0.000747677)
(0.015117 0.000205126 0.000409813 0.00338514 -0.00119838 0.00138121)
(0.0220585 0.00261184 -0.000750909 0.00200937 -0.00103336 0.00193567)
(0.0348834 0.0032632 -0.00154814 0.00116454 -0.000840639 0.00255423)
(0.0514465 0.00381324 -0.00283995 0.000734101 -0.000657547 0.00300397)
(0.0688277 0.00374481 -0.00372842 0.000473226 -0.00048476 0.00336041)
(0.0893992 0.00369368 -0.00492758 0.000326684 -0.000347207 0.00344056)
(0.107666 0.00340402 -0.00565774 0.000232198 -0.000239585 0.00337589)
(0.12818 0.00313165 -0.00652325 0.000172333 -0.000164351 0.00314189)
(0.145237 0.00278345 -0.00693266 0.000131167 -0.000114568 0.00284965)
(0.163961 0.00246586 -0.00739725 0.00010415 -8.77149e-05 0.00251753)
(0.179083 0.00211212 -0.00753611 8.29206e-05 -6.58039e-05 0.00221065)
(0.195726 0.00181722 -0.00763059 7.19688e-05 -7.72334e-05 0.00192158)
(0.208809 0.00153557 -0.00753279 5.51106e-05 -5.81128e-05 0.00170861)
(0.224337 0.00112225 -0.00729952 5.36422e-05 -9.71125e-05 0.00153758)
(0.233766 0.00115587 -0.00697647 3.28766e-05 -6.61129e-05 0.00144631)
(0.252241 -0.000748742 -0.00669351 3.16502e-05 -2.758e-05 0.00142178)
(0.248284 0.000554398 -0.00600646 4.57577e-05 -0.000131302 0.00138531)
(0.268167 -0.00861124 -0.00487958 0.00066365 0.000489417 0.0015112)
(0.0116558 0.0040466 -0.000856175 0.00262779 -0.000604568 0.000231547)
(0.0602295 0.00641851 -0.00333135 0.000857544 -0.000428334 0.000527188)
(0.111805 0.00378304 -0.00491791 0.000162116 -0.000228121 0.000754283)
(0.1685 0.000166663 -0.00600197 8.96974e-06 -4.99026e-05 0.000862758)
(0.189563 -0.00158674 -0.00656502 2.41101e-05 2.3345e-05 0.000960205)
(0.221523 -0.00237243 -0.00691983 4.19871e-05 4.04659e-05 0.000965122)
(0.227662 -0.00241803 -0.00715415 4.5212e-05 3.77806e-05 0.000963405)
(0.249113 -0.00242613 -0.00723364 4.42728e-05 2.3128e-05 0.000895427)
(0.250955 -0.00215 -0.00729242 3.97591e-05 1.1693e-05 0.000843714)
(0.267394 -0.00205229 -0.00721748 3.60927e-05 4.54835e-06 0.000762271)
(0.267803 -0.00173511 -0.00717491 3.04064e-05 5.74875e-07 0.000711595)
(0.280867 -0.00170629 -0.00701321 2.79629e-05 3.02568e-06 0.000649773)
(0.280773 -0.00133773 -0.0069208 2.2281e-05 -1.60578e-06 0.000621139)
(0.291104 -0.00149226 -0.00670423 2.30978e-05 8.87322e-06 0.00058753)
(0.291201 -0.000924755 -0.00659946 1.44464e-05 -4.8834e-06 0.000584465)
(0.299111 -0.00140474 -0.0063449 2.12099e-05 1.95363e-05 0.000575197)
(0.299929 -7.52838e-05 -0.00626606 4.67695e-06 -2.2446e-05 0.000591344)
(0.307414 -0.00101934 -0.00604742 1.93969e-05 3.33703e-05 0.000594474)
(0.301506 0.0057029 -0.00578841 0.000188296 -0.000131765 0.000614519)
(0.345737 0.000286129 -0.00520949 0.000206948 -5.39199e-05 0.000603939)
(0.00619375 0.000199824 3.07402e-05 0.000905475 6.84018e-06 6.12871e-07)
(0.0251862 -0.00550326 -7.90352e-07 0.00171813 4.53459e-06 4.94211e-07)
(0.0619559 -0.00887869 2.06749e-05 0.00166662 4.08269e-06 5.57761e-07)
(0.151906 -0.010412 4.46658e-05 0.000833311 -1.22947e-06 4.83155e-07)
(0.194279 -0.00789441 5.02306e-05 0.000385928 3.48512e-07 5.33111e-07)
(0.279886 -0.00598948 8.1222e-05 0.000156671 -3.48648e-07 4.5826e-07)
(0.292945 -0.00409425 6.73485e-05 7.83874e-05 9.82146e-07 4.99752e-07)
(0.355674 -0.00331599 9.46666e-05 4.66018e-05 8.06271e-07 4.27939e-07)
(0.352685 -0.00261753 7.30561e-05 3.52703e-05 1.50434e-06 4.66037e-07)
(0.401239 -0.00251539 9.89528e-05 3.06691e-05 1.225e-06 4.00562e-07)
(0.39315 -0.00218988 7.51716e-05 2.76022e-05 1.61475e-06 4.3486e-07)
(0.432873 -0.00229748 0.000100844 2.77024e-05 1.34721e-06 3.75478e-07)
(0.42377 -0.00194147 7.66103e-05 2.42009e-05 1.5603e-06 4.04307e-07)
(0.457111 -0.00220367 0.000102491 2.84797e-05 1.53736e-06 3.50151e-07)
(0.448179 -0.00159308 7.83621e-05 1.99757e-05 1.27656e-06 3.73123e-07)
(0.477027 -0.00212268 0.000105351 3.48183e-05 2.02794e-06 3.24075e-07)
(0.466711 -0.000605208 8.03122e-05 1.08371e-05 -5.57192e-08 3.41963e-07)
(0.493466 -0.00119647 0.000112962 5.20757e-05 3.03267e-06 2.97806e-07)
(0.470469 0.00770653 7.8034e-05 0.00034227 -3.61535e-06 3.13681e-07)
(0.460125 0.0135338 0.000135103 0.00078734 -2.64741e-06 2.6498e-07)
(0.00759115 0.000939287 2.67374e-05 0.000502056 2.00091e-06 4.68155e-07)
(0.00770031 0.00095043 1.24665e-05 0.00206506 -2.45379e-06 3.98705e-07)
(0.0194004 0.0034587 4.74552e-05 0.0028522 -5.84536e-06 4.38474e-07)
(0.0182366 0.000672864 4.09154e-05 0.00241537 -1.22514e-05 3.85826e-07)
(0.0272429 0.000111557 7.05709e-05 0.00164737 -9.74934e-06 4.14951e-07)
(0.0328578 -0.00184807 7.20876e-05 0.000966333 -9.59651e-06 3.59838e-07)
(0.0441457 -0.00206593 9.59292e-05 0.00055748 -6.90818e-06 3.83049e-07)
(0.0588088 -0.0024863 9.9867e-05 0.000322899 -5.89426e-06 3.2976e-07)
(0.0724987 -0.00224317 0.000117521 0.000193567 -4.28155e-06 3.51862e-07)
(0.0923268 -0.00213453 0.000121642 0.00012174 -3.46665e-06 3.03573e-07)
(0.106394 -0.00181428 0.000133941 7.81122e-05 -2.53371e-06 3.24015e-07)
(0.127873 -0.00161161 0.000137503 5.28162e-05 -2.01992e-06 2.80434e-07)
(0.141038 -0.00135139 0.000145244 3.67538e-05 -1.47327e-06 2.97117e-07)
(0.162279 -0.00117414 0.00014821 2.63075e-05 -1.26958e-06 2.57652e-07)
(0.174102 -0.00103315 0.00015241 1.96995e-05 -8.37631e-07 2.69743e-07)
(0.194907 -0.00066382 0.000155334 1.65811e-05 -8.00481e-07 2.34986e-07)
(0.204439 -0.00104296 0.000156992 1.56358e-05 -4.3951e-07 2.42482e-07)
(0.227159 0.00100486 0.00016048 2.19711e-05 5.28549e-07 2.13428e-07)
(0.229228 -0.000901313 0.000159647 4.27129e-05 -3.46479e-07 2.16349e-07)
(0.27484 0.00771831 0.000170228 0.000551773 6.61635e-06 1.94678e-07)
(0.00667646 0.000296901 2.88319e-05 8.03395e-05 1.83776e-06 5.66371e-07)
(0.00802698 0.000852983 1.68173e-05 0.000900521 2.34363e-06 4.80106e-07)
(0.0294033 0.00522681 5.89845e-05 0.00182583 9.28115e-07 5.34727e-07)
(0.0357304 0.00565552 3.25363e-05 0.00187657 -5.81797e-06 4.61553e-07)
(0.0662638 0.0075782 6.61478e-05 0.0016452 -4.82129e-06 5.09789e-07)
(0.0691129 0.00618245 4.05462e-05 0.00125383 -7.16503e-06 4.37622e-07)
(0.094929 0.00612602 7.63099e-05 0.000970025 -5.1174e-06 4.78288e-07)
(0.0940811 0.00479501 5.53729e-05 0.000745982 -5.71875e-06 4.09104e-07)
(0.115326 0.00451449 9.11745e-05 0.000588874 -3.86121e-06 4.4656e-07)
(0.114334 0.00365591 7.35776e-05 0.000472789 -3.90265e-06 3.82968e-07)
(0.13314 0.00344986 0.000107463 0.000381133 -2.38897e-06 4.16892e-07)
(0.133714 0.00294294 9.23578e-05 0.00031321 -2.25414e-06 3.58836e-07)
(0.150781 0.00277373 0.000123352 0.000258197 -1.1387e-06 3.87651e-07)
(0.153523 0.00252613 0.000110333 0.000208939 -8.94327e-07 3.34277e-07)
(0.168575 0.00223858 0.000137931 0.000186909 -4.55364e-07 3.57556e-07)
(0.174325 0.0023066 0.000127216 0.000129251 2.80958e-07 3.08645e-07)
(0.186202 0.00144264 0.000151333 0.000155538 -9.06107e-07 3.27692e-07)
(0.1968 0.00197614 0.000143401 6.31426e-05 1.58816e-06 2.82988e-07)
(0.204397 -0.000899942 0.000167607 0.000165605 -2.96558e-06 3.02233e-07)
(0.221138 -0.00224325 0.000157845 0.000190301 1.29549e-06 2.59864e-07)
(0.00628322 0.000137296 2.25853e-05 3.37569e-05 5.84048e-07 4.54765e-07)
(0.00724771 7.43346e-05 1.337e-05 0.000190763 -4.97049e-07 3.97969e-07)
(0.0247131 0.00183849 4.4058e-05 0.000350421 -1.8214e-06 4.33787e-07)
(0.0333111 0.00237213 2.01774e-05 0.000394755 -4.64457e-06 3.80961e-07)
(0.0701793 0.00358935 4.30529e-05 0.000365758 -4.20002e-06 4.09812e-07)
(0.0830286 0.00341747 1.40511e-05 0.000296562 -4.98217e-06 3.55649e-07)
(0.124183 0.00363712 4.11736e-05 0.000239447 -4.03477e-06 3.78718e-07)
(0.135854 0.00328751 1.34055e-05 0.000192265 -4.1166e-06 3.26106e-07)
(0.175362 0.00327178 4.40446e-05 0.000157845 -3.28527e-06 3.47485e-07)
(0.185905 0.00301117 1.85225e-05 0.00013156 -3.1788e-06 2.99525e-07)
(0.222932 0.00296235 5.0831e-05 0.000110323 -2.4685e-06 3.1946e-07)
(0.232904 0.00274105 2.78691e-05 9.29152e-05 -2.29761e-06 2.7633e-07)
(0.267541 0.00268927 6.05859e-05 7.95447e-05 -1.7007e-06 2.92975e-07)
(0.277092 0.00243045 4.02077e-05 6.50039e-05 -1.54571e-06 2.54027e-07)
(0.309703 0.00242711 7.2576e-05 5.9539e-05 -1.06203e-06 2.66176e-07)
(0.318428 0.00201407 5.40249e-05 4.15589e-05 -8.80279e-07 2.31793e-07)
(0.349177 0.00203227 8.6441e-05 4.56067e-05 -6.10956e-07 2.39137e-07)
(0.356606 0.00119008 6.59563e-05 1.71032e-05 1.17502e-07 2.10669e-07)
(0.381838 0.000751794 0.000101984 2.67121e-05 -2.67777e-07 2.11376e-07)
(0.380816 -0.000601059 6.94396e-05 6.73534e-05 2.33624e-06 1.91591e-07)
(0.00655592 -3.5485e-09 2.80491e-05 1.84789e-10 -5.71766e-12 5.60001e-07)
(0.00750074 5.31613e-09 1.71464e-05 1.48682e-10 -1.14017e-11 4.8236e-07)
(0.0264891 6.84973e-09 5.92874e-05 1.13319e-10 1.18012e-11 5.34945e-07)
(0.0349322 7.77863e-09 3.30537e-05 7.64484e-11 -5.17043e-12 4.61449e-07)
(0.072994 6.74812e-09 6.42229e-05 8.46339e-11 3.10398e-11 5.09652e-07)
(0.0871422 5.41303e-08 3.21336e-05 1.13105e-10 -3.70448e-11 4.37606e-07)
(0.13161 3.78145e-08 6.54794e-05 1.5363e-10 -6.89453e-12 4.78426e-07)
(0.146426 5.80322e-08 3.45215e-05 1.88783e-10 -3.82567e-11 4.09306e-07)
(0.191051 2.56699e-07 7.04526e-05 2.3008e-10 -1.04131e-10 4.4653e-07)
(0.206182 3.97509e-07 4.1773e-05 2.638e-10 -1.19214e-10 3.82803e-07)
(0.249575 7.99055e-07 7.8909e-05 3.10855e-10 -3.57773e-10 4.16526e-07)
(0.265449 8.80651e-07 5.30409e-05 3.48397e-10 -1.59487e-10 3.58423e-07)
(0.306715 2.58929e-06 9.04101e-05 4.44209e-10 -7.46099e-10 3.87258e-07)
(0.323816 3.00785e-06 6.77606e-05 5.24991e-10 -6.59857e-10 3.33921e-07)
(0.361396 7.14252e-06 0.000104671 8.27636e-10 -1.2089e-09 3.57354e-07)
(0.380925 6.35641e-06 8.53138e-05 9.82175e-10 -1.57304e-09 3.08471e-07)
(0.411131 1.78676e-05 0.000121962 2.29301e-09 -2.40583e-09 3.27891e-07)
(0.435489 1.4538e-05 0.000104386 2.43404e-09 -2.18091e-09 2.83154e-07)
(0.450877 4.62386e-05 0.00014751 1.28571e-08 -3.81353e-09 3.03109e-07)
(0.476284 6.52129e-05 0.000125505 2.18212e-08 3.88083e-09 2.60324e-07)
(0.00628323 -0.000137308 2.25858e-05 3.37567e-05 -5.84043e-07 4.54765e-07)
(0.00724771 -7.4318e-05 1.33701e-05 0.000190763 4.97e-07 3.97969e-07)
(0.0247131 -0.00183847 4.40584e-05 0.000350423 1.82144e-06 4.33787e-07)
(0.0333111 -0.0023721 2.01783e-05 0.000394751 4.64451e-06 3.80961e-07)
(0.0701793 -0.00358935 4.3054e-05 0.00036576 4.2001e-06 4.09812e-07)
(0.0830287 -0.00341735 1.4052e-05 0.000296549 4.982e-06 3.55649e-07)
(0.124183 -0.00363711 4.11744e-05 0.000239449 4.03485e-06 3.78718e-07)
(0.135855 -0.0032873 1.34061e-05 0.00019223 4.11626e-06 3.26106e-07)
(0.175361 -0.00327151 4.40453e-05 0.000157831 3.28526e-06 3.47485e-07)
(0.185907 -0.00300996 1.85224e-05 0.000131489 3.17809e-06 2.99525e-07)
(0.222932 -0.00296161 5.08312e-05 0.000110254 2.46809e-06 3.1946e-07)
(0.232908 -0.0027378 2.78686e-05 9.27694e-05 2.29632e-06 2.76331e-07)
(0.267541 -0.00268699 6.05859e-05 7.93547e-05 1.69896e-06 2.92974e-07)
(0.277106 -0.00241884 4.02076e-05 6.46993e-05 1.54326e-06 2.5403e-07)
(0.309705 -0.00242208 7.25715e-05 5.91155e-05 1.0559e-06 2.66173e-07)
(0.318463 -0.00198182 5.40189e-05 4.09892e-05 8.78926e-07 2.31798e-07)
(0.349199 -0.00202206 8.6429e-05 4.4718e-05 5.91882e-07 2.39132e-07)
(0.356696 -0.00111113 6.59443e-05 1.62682e-05 -1.08621e-07 2.10673e-07)
(0.381956 -0.000747132 0.000101991 2.57055e-05 2.22669e-07 2.1139e-07)
(0.381056 0.000720757 6.94217e-05 6.58939e-05 -2.3154e-06 1.9161e-07)
(0.00667647 -0.000296908 2.88326e-05 8.03402e-05 -1.83778e-06 5.6637e-07)
(0.00802698 -0.000852971 1.68171e-05 0.000900523 -2.34365e-06 4.80106e-07)
(0.0294033 -0.00522679 5.89857e-05 0.00182584 -9.2809e-07 5.34728e-07)
(0.0357304 -0.00565552 3.25386e-05 0.00187657 5.81798e-06 4.61555e-07)
(0.0662638 -0.00757817 6.61515e-05 0.0016452 4.82136e-06 5.09791e-07)
(0.0691131 -0.00618239 4.05498e-05 0.00125382 7.165e-06 4.37623e-07)
(0.0949289 -0.00612593 7.63131e-05 0.000970006 5.11743e-06 4.7829e-07)
(0.0940816 -0.00479502 5.53759e-05 0.000745951 5.71868e-06 4.09104e-07)
(0.115326 -0.00451413 9.11774e-05 0.000588805 3.86109e-06 4.46562e-07)
(0.114336 -0.0036556 7.35786e-05 0.000472727 3.9024e-06 3.82967e-07)
(0.133139 -0.00344909 0.000107466 0.000380961 2.3884e-06 4.16894e-07)
(0.133719 -0.00294248 9.23611e-05 0.000313043 2.25373e-06 3.58835e-07)
(0.150782 -0.00277166 0.000123351 0.000257832 1.13742e-06 3.87649e-07)
(0.153537 -0.00252384 0.000110332 0.000208542 8.92824e-07 3.34283e-07)
(0.168579 -0.00223341 0.000137922 0.000186145 4.53314e-07 3.57545e-07)
(0.174361 -0.0023018 0.000127228 0.000128519 -2.84563e-07 3.08666e-07)
(0.186218 -0.00143046 0.000151311 0.000153854 9.02504e-07 3.27659e-07)
(0.196878 -0.00196472 0.000143415 6.2339e-05 -1.58895e-06 2.8305e-07)
(0.204448 0.000923437 0.000167548 0.000164106 2.95995e-06 3.02168e-07)
(0.221275 0.00226812 0.000157837 0.000190706 -1.27066e-06 2.59971e-07)
(0.00759117 -0.000939287 2.67384e-05 0.000502058 -2.00093e-06 4.68154e-07)
(0.00770032 -0.000950418 1.2467e-05 0.00206506 2.45375e-06 3.98705e-07)
(0.0194004 -0.00345869 4.74564e-05 0.0028522 5.84533e-06 4.38474e-07)
(0.0182366 -0.000672859 4.09181e-05 0.00241537 1.22514e-05 3.85828e-07)
(0.0272429 -0.00011154 7.05745e-05 0.00164737 9.74939e-06 4.14953e-07)
(0.0328577 0.00184809 7.20909e-05 0.000966322 9.59645e-06 3.59839e-07)
(0.0441457 0.00206595 9.5932e-05 0.000557477 6.90824e-06 3.83051e-07)
(0.0588081 0.00248614 9.98692e-05 0.000322877 5.89407e-06 3.2976e-07)
(0.072499 0.00224319 0.000117524 0.000193555 4.28157e-06 3.51863e-07)
(0.0923239 0.00213425 0.000121641 0.000121704 3.46619e-06 3.03572e-07)
(0.106394 0.00181412 0.000133944 7.8083e-05 2.53367e-06 3.24018e-07)
(0.127863 0.00161029 0.0001375 5.27634e-05 2.01891e-06 2.80431e-07)
(0.141036 0.00135085 0.000145248 3.66984e-05 1.47296e-06 2.97119e-07)
(0.162254 0.00117135 0.000148203 2.62404e-05 1.26803e-06 2.5765e-07)
(0.174078 0.00103069 0.000152403 1.9617e-05 8.3541e-07 2.69737e-07)
(0.194853 0.000658669 0.000155328 1.6574e-05 8.00824e-07 2.34998e-07)
(0.204338 0.0010311 0.000156948 1.54493e-05 4.27655e-07 2.42448e-07)
(0.227036 -0.00100111 0.0001605 2.20499e-05 -5.13626e-07 2.13482e-07)
(0.228963 0.000860758 0.000159535 4.15005e-05 3.10174e-07 2.16287e-07)
(0.274428 -0.00768898 0.000170245 0.000547582 -6.57172e-06 1.9478e-07)
(0.00619377 -0.000199827 3.07413e-05 0.000905471 -6.84015e-06 6.12863e-07)
(0.0251862 0.00550328 -7.89773e-07 0.00171813 -4.53465e-06 4.94209e-07)
(0.0619559 0.0088787 2.0677e-05 0.00166662 -4.08275e-06 5.5776e-07)
(0.151906 0.010412 4.46708e-05 0.000833313 1.2294e-06 4.83157e-07)
(0.194279 0.0078944 5.02364e-05 0.000385926 -3.48558e-07 5.33113e-07)
(0.279886 0.00598955 8.12277e-05 0.000156673 3.48645e-07 4.5826e-07)
(0.292945 0.00409418 6.73531e-05 7.83841e-05 -9.82184e-07 4.99752e-07)
(0.355673 0.00331607 9.4671e-05 4.66037e-05 -8.06257e-07 4.27937e-07)
(0.352683 0.00261726 7.30596e-05 3.52657e-05 -1.5045e-06 4.66035e-07)
(0.401235 0.00251555 9.89534e-05 3.06685e-05 -1.22476e-06 4.00559e-07)
(0.393144 0.00218894 7.51761e-05 2.75908e-05 -1.61508e-06 4.3486e-07)
(0.432859 0.00229789 0.000100843 2.77071e-05 -1.34701e-06 3.75472e-07)
(0.423755 0.00193893 7.66168e-05 2.41742e-05 -1.56091e-06 4.04307e-07)
(0.457075 0.00220403 0.000102474 2.84881e-05 -1.53743e-06 3.50142e-07)
(0.448129 0.00158702 7.83776e-05 1.9909e-05 -1.27686e-06 3.73123e-07)
(0.476948 0.00212341 0.000105312 3.48409e-05 -2.02802e-06 3.24074e-07)
(0.46656 0.000594598 8.03548e-05 1.07073e-05 5.78628e-08 3.41931e-07)
(0.493329 0.00120468 0.000112883 5.21195e-05 -3.03346e-06 2.979e-07)
(0.470087 -0.00768801 7.81023e-05 0.000341255 3.61769e-06 3.13411e-07)
(0.460239 -0.0133961 0.00013511 0.000776483 2.65543e-06 2.65562e-07)
(0.00585297 0.00017797 2.77303e-10 0.000178878 1.55572e-10 1.84462e-15)
(0.0114506 -0.00185698 -4.89795e-10 0.000866288 3.95231e-10 8.41845e-16)
(0.0291737 -0.00457476 -9.81e-10 0.00131447 5.01885e-10 2.34241e-15)
(0.0791041 -0.00879761 -3.11009e-09 0.00129119 4.91723e-10 1.3675e-15)
(0.134645 -0.0104754 -3.61625e-09 0.00101125 4.08766e-10 2.78673e-15)
(0.229888 -0.0112936 -4.78313e-09 0.000675783 3.02852e-10 2.11188e-15)
(0.302003 -0.00977418 -4.40561e-09 0.000390327 2.06619e-10 4.18041e-15)
(0.402332 -0.00785007 -4.77849e-09 0.000199395 1.39286e-10 3.801e-15)
(0.458822 -0.00535626 -4.70877e-09 8.89009e-05 9.47675e-11 4.06093e-15)
(0.538683 -0.00338425 -4.91872e-09 3.58512e-05 6.70601e-11 3.74871e-15)
(0.571933 -0.00171083 -5.00466e-09 1.31985e-05 4.36871e-11 3.2437e-15)
(0.630937 -0.000763491 -5.01908e-09 6.14282e-06 2.86109e-11 3.40209e-15)
(0.648764 3.20455e-05 -5.0295e-09 4.31293e-06 1.07632e-11 3.30793e-15)
(0.694126 0.000153646 -4.85293e-09 4.37362e-06 7.22585e-12 3.85782e-15)
(0.70466 0.00058227 -4.84442e-09 4.08885e-06 -8.26195e-12 3.76563e-15)
(0.742034 0.000334764 -4.58222e-09 5.00516e-06 3.80407e-12 4.14723e-15)
(0.747447 0.000466722 -4.62569e-09 5.02759e-06 -1.7341e-11 4.12435e-15)
(0.785125 0.0015756 -3.94112e-09 9.4768e-06 -3.84139e-12 5.39757e-15)
(0.765606 8.70332e-05 -3.55023e-09 1.88202e-05 -1.94537e-11 5.56475e-15)
(0.828552 0.0172663 -3.31535e-09 0.000421912 -1.94875e-10 4.57437e-15)
(0.00621215 0.000226913 3.05131e-10 0.000102241 1.10878e-10 1.56729e-15)
(0.00757797 0.000405718 6.06271e-10 0.00060531 3.25293e-10 7.63283e-16)
(0.0187926 0.00234357 1.58981e-09 0.00132025 4.99892e-10 1.87308e-15)
(0.0216854 0.00241574 1.36127e-09 0.00190517 5.88225e-10 1.20968e-15)
(0.0333112 0.00328007 2.29381e-09 0.00216392 5.78544e-10 2.33743e-15)
(0.0351365 0.00176464 2.36795e-09 0.00203833 4.98826e-10 2.00181e-15)
(0.0452162 0.00122572 3.42424e-09 0.00171392 4.05496e-10 3.66044e-15)
(0.0497039 -0.00034794 3.60522e-09 0.00130024 3.20524e-10 3.64865e-15)
(0.0614105 -0.000754865 4.04699e-09 0.000951578 2.64774e-10 3.85874e-15)
(0.0711736 -0.00149827 4.09802e-09 0.000661398 2.19791e-10 3.77849e-15)
(0.0855229 -0.00150107 4.24118e-09 0.000469811 1.94079e-10 3.29444e-15)
(0.0998541 -0.00173128 4.3092e-09 0.000322667 1.66175e-10 3.55564e-15)
(0.115904 -0.00160322 4.41066e-09 0.000240351 1.51756e-10 3.39811e-15)
(0.13324 -0.00159435 4.53863e-09 0.000162581 1.31642e-10 3.94949e-15)
(0.149735 -0.00161312 4.62127e-09 0.000139453 1.16927e-10 3.83515e-15)
(0.169483 -0.00108091 4.74826e-09 8.02707e-05 1.10823e-10 4.24019e-15)
(0.184625 -0.00192262 4.79551e-09 0.000100642 8.23215e-11 4.19543e-15)
(0.208291 0.000568561 5.24743e-09 4.34185e-05 9.39667e-11 5.48743e-15)
(0.218462 -0.00206487 5.8317e-09 7.54266e-05 6.26097e-11 5.5666e-15)
(0.248162 0.00610346 5.77905e-09 0.000326639 6.92854e-12 4.59587e-15)
(0.00613022 8.32773e-05 2.29956e-10 1.90472e-05 4.92916e-11 1.2186e-15)
(0.0074277 0.000147611 5.32177e-10 0.00018068 1.77699e-10 6.94726e-16)
(0.0188965 0.00143326 1.56036e-09 0.000497049 3.06399e-10 1.61149e-15)
(0.0250235 0.00226345 1.75423e-09 0.000832612 3.89249e-10 1.17007e-15)
(0.0464199 0.00421246 3.0633e-09 0.00106187 4.07073e-10 1.96615e-15)
(0.0571278 0.00480129 3.70259e-09 0.00112723 3.75839e-10 1.83464e-15)
(0.0837424 0.00583162 5.1593e-09 0.00105327 3.26255e-10 3.12065e-15)
(0.0943391 0.00561136 5.83532e-09 0.000908519 2.80152e-10 3.34364e-15)
(0.120041 0.0057408 6.67415e-09 0.000747036 2.45418e-10 3.48542e-15)
(0.128385 0.00518795 7.13376e-09 0.000602191 2.18343e-10 3.62082e-15)
(0.151048 0.00496987 7.6222e-09 0.000484628 1.97924e-10 3.1913e-15)
(0.157756 0.00445026 8.00792e-09 0.000391865 1.8101e-10 3.54062e-15)
(0.177428 0.00414835 8.40212e-09 0.000326665 1.66828e-10 3.36335e-15)
(0.183715 0.00378014 8.80297e-09 0.000264044 1.58291e-10 3.93436e-15)
(0.2008 0.00339558 9.12071e-09 0.000241019 1.41059e-10 3.72428e-15)
(0.207605 0.00326692 9.46316e-09 0.000176359 1.44441e-10 4.1305e-15)
(0.222589 0.00256529 9.76787e-09 0.000202595 1.12127e-10 4.17027e-15)