/*--------------------------------*- C++ -*----------------------------------*\
  =========                 |
  \\      /  F ield         | OpenFOAM: The Open Source CFD Toolbox
   \\    /   O peration     | Website:  https://openfoam.org
    \\  /    A nd           | Version:  7
     \\/     M anipulation  |
\*---------------------------------------------------------------------------*/
FoamFile
{
    version     2.0;
    format      ascii;
    class       volScalarField;
    location    "0.11";
    object      rho_0;
}
// * * * * * * * * * * * * * * * * * * * * * * * * * * * * * * * * * * * * * //

dimensions      [1 -3 0 0 0 0 0];

internalField   nonuniform List<scalar> 
400
(
1.25711
1.3583
1.32358
1.29138
1.30078
1.31065
1.30106
1.29251
1.28782
1.28494
1.30605
1.39466
1.4456
1.47779
1.49431
1.53919
1.53685
1.45959
1.43556
1.43939
1.21749
1.3066
1.28375
1.23531
1.24054
1.2356
1.24231
1.24682
1.25137
1.24947
1.24026
1.27566
1.30878
1.33905
1.39652
1.48321
1.44961
1.38958
1.38784
1.38182
1.22443
1.28369
1.27284
1.25455
1.24756
1.24498
1.24487
1.2517
1.25894
1.26286
1.25641
1.264
1.28644
1.2951
1.32341
1.43918
1.44498
1.39884
1.3664
1.29003
1.22957
1.27209
1.26854
1.25839
1.24815
1.24522
1.25006
1.25828
1.26574
1.26915
1.2683
1.26604
1.27285
1.28086
1.27159
1.33278
1.36945
1.36304
1.35474
1.28255
1.23009
1.2645
1.26361
1.25295
1.24521
1.24666
1.25508
1.26404
1.27173
1.2743
1.27395
1.271
1.27093
1.27676
1.26546
1.27632
1.31728
1.32998
1.30933
1.2629
1.22678
1.25437
1.25768
1.24538
1.24478
1.25109
1.26249
1.27014
1.27562
1.27693
1.27577
1.27397
1.27168
1.27276
1.26419
1.26611
1.29581
1.31239
1.25383
1.23183
1.22116
1.23904
1.24098
1.24306
1.25103
1.25974
1.27009
1.27476
1.27705
1.27618
1.27404
1.27249
1.27061
1.26863
1.26384
1.26787
1.2881
1.29106
1.21773
1.21365
1.22128
1.23017
1.2393
1.25396
1.26294
1.2694
1.27474
1.27615
1.27546
1.27169
1.27002
1.26864
1.26654
1.26608
1.26388
1.27465
1.27774
1.23568
1.21515
1.21717
1.22271
1.23658
1.25482
1.26752
1.27174
1.27383
1.27439
1.27386
1.27199
1.26898
1.26746
1.26526
1.26485
1.26833
1.2702
1.26739
1.24687
1.21158
1.21738
1.21693
1.22288
1.24708
1.26575
1.2728
1.27248
1.27169
1.27076
1.26902
1.269
1.2677
1.26786
1.26563
1.26538
1.26702
1.25884
1.24511
1.22477
1.21207
1.21783
1.21559
1.2251
1.25298
1.26795
1.2716
1.2692
1.26775
1.26753
1.26627
1.26748
1.26807
1.26834
1.26411
1.25757
1.25141
1.24038
1.22856
1.21705
1.21354
1.2158
1.2143
1.22733
1.25476
1.2674
1.27002
1.26711
1.26501
1.26458
1.26506
1.26822
1.26651
1.26361
1.25452
1.24374
1.23565
1.22751
1.22051
1.21442
1.21135
1.21038
1.21298
1.22887
1.25452
1.26542
1.26756
1.26434
1.26167
1.26142
1.26327
1.26578
1.26029
1.25402
1.24295
1.23187
1.22491
1.22044
1.21657
1.21192
1.20793
1.20777
1.21206
1.22871
1.25185
1.26248
1.26536
1.26253
1.26024
1.25955
1.25973
1.25948
1.25229
1.24446
1.23342
1.2235
1.21829
1.2164
1.21412
1.21023
1.20979
1.20989
1.21241
1.22622
1.24596
1.25823
1.26309
1.26064
1.25759
1.25644
1.25474
1.25204
1.24518
1.23703
1.22693
1.21846
1.21451
1.21397
1.21225
1.21109
1.2125
1.21264
1.21298
1.22245
1.23829
1.25231
1.25949
1.2587
1.25499
1.25316
1.25007
1.24581
1.23954
1.23165
1.22274
1.21527
1.2113
1.20987
1.20869
1.20907
1.21178
1.2151
1.21482
1.21696
1.22929
1.24373
1.25284
1.25545
1.25242
1.24984
1.246
1.24086
1.23448
1.22721
1.2195
1.21241
1.20742
1.20571
1.20498
1.20705
1.21118
1.21533
1.21721
1.21341
1.22138
1.23405
1.24034
1.24717
1.24865
1.24636
1.24231
1.23693
1.23043
1.22326
1.21643
1.21111
1.20636
1.20395
1.20575
1.20893
1.21302
1.21674
1.22274
1.2127
1.21561
1.22367
1.22568
1.23037
1.23742
1.23986
1.23793
1.23404
1.2287
1.22374
1.21994
1.21631
1.21283
1.21068
1.21225
1.21564
1.21787
1.22056
1.22834
1.21359
1.21419
1.21654
1.21595
1.21529
1.21782
1.22163
1.22326
1.22306
1.22167
1.22025
1.21934
1.21845
1.21719
1.21621
1.21606
1.21649
1.21658
1.21825
1.22233
)
;

boundaryField
{
    upperWall
    {
        type            calculated;
        value           nonuniform List<scalar> 
20
(
1.21703
1.21675
1.21646
1.21626
1.21614
1.21607
1.21603
1.216
1.21596
1.21593
1.21592
1.21591
1.21591
1.21589
1.21588
1.2159
1.21596
1.21603
1.21608
1.21608
)
;
    }
    lowerWall
    {
        type            calculated;
        value           nonuniform List<scalar> 
20
(
1.32998
1.43598
1.40062
1.36534
1.37808
1.39254
1.38259
1.37228
1.36636
1.36226
1.38488
1.48515
1.53484
1.56895
1.58575
1.63607
1.63971
1.55342
1.52501
1.5238
)
;
    }
    inlet
    {
        type            calculated;
        value           nonuniform List<scalar> 
20
(
1.22209
1.22168
1.22116
1.22073
1.22035
1.22
1.21962
1.21917
1.21873
1.21851
1.21831
1.21813
1.21796
1.21781
1.21766
1.2175
1.21732
1.21718
1.21709
1.21703
)
;
    }
    outlet
    {
        type            calculated;
        value           nonuniform List<scalar> 
20
(
1.53522
1.41652
1.2796
1.26015
1.24631
1.23239
1.2186
1.21851
1.21822
1.21791
1.21772
1.21763
1.21757
1.21751
1.21741
1.21723
1.21707
1.23275
1.23691
1.22888
)
;
    }
    frontAndBack
    {
        type            empty;
    }
}


// ************************************************************************* //
