/*--------------------------------*- C++ -*----------------------------------*\
  =========                 |
  \\      /  F ield         | OpenFOAM: The Open Source CFD Toolbox
   \\    /   O peration     | Website:  https://openfoam.org
    \\  /    A nd           | Version:  7
     \\/     M anipulation  |
\*---------------------------------------------------------------------------*/
FoamFile
{
    version     2.0;
    format      ascii;
    class       volVectorField;
    location    "2.25";
    object      UMean;
}
// * * * * * * * * * * * * * * * * * * * * * * * * * * * * * * * * * * * * * //

dimensions      [0 1 -1 0 0 0 0];

internalField   nonuniform List<vector> 
4950
(
(3.51805 0.415392 -27.029)
(2.82639 0.146786 -27.066)
(2.0882 0.043106 -27.0679)
(1.89213 -0.0235995 -27.0752)
(1.62187 -0.0437709 -27.0734)
(1.61156 -0.0501691 -27.0776)
(1.45993 -0.0510515 -27.0755)
(1.48851 -0.0498577 -27.0786)
(1.37822 -0.048531 -27.0768)
(1.4136 -0.0472034 -27.0792)
(1.32631 -0.0455517 -27.0778)
(1.36127 -0.0453951 -27.0797)
(1.29004 -0.0422956 -27.0786)
(1.32269 -0.0450088 -27.0801)
(1.26284 -0.036293 -27.0794)
(1.29304 -0.0464255 -27.0802)
(1.2392 -0.0155255 -27.0804)
(1.25714 -0.0449236 -27.0797)
(1.23141 0.0916774 -27.0829)
(1.01527 0.122693 -27.0714)
(4.59889 0.54258 -27.054)
(4.79149 0.37026 -27.083)
(4.50216 0.281488 -27.0829)
(4.4534 0.183041 -27.0899)
(4.16662 0.127546 -27.0899)
(4.14268 0.096653 -27.0943)
(3.92357 0.0776553 -27.0938)
(3.92934 0.0667224 -27.0967)
(3.76047 0.0584975 -27.0962)
(3.7817 0.0533306 -27.0982)
(3.64793 0.0483102 -27.0979)
(3.67632 0.046123 -27.0993)
(3.56707 0.041025 -27.0993)
(3.59984 0.042718 -27.1)
(3.50547 0.0323514 -27.1008)
(3.54825 0.0428252 -27.1001)
(3.45285 0.0141408 -27.1032)
(3.53864 0.035494 -27.0981)
(3.39777 -0.0196375 -27.1087)
(3.74145 -0.0695259 -27.0777)
(4.71755 0.285018 -27.0557)
(5.19533 0.206165 -27.0792)
(5.30097 0.183946 -27.0718)
(5.54048 0.123782 -27.0761)
(5.48332 0.087077 -27.0721)
(5.60498 0.0618011 -27.0759)
(5.51557 0.0438802 -27.073)
(5.59477 0.0315382 -27.0762)
(5.50668 0.0220894 -27.074)
(5.56514 0.0145089 -27.0767)
(5.48597 0.00926873 -27.0752)
(5.53091 0.00364878 -27.0773)
(5.46334 0.00157831 -27.0765)
(5.49573 -0.00387428 -27.078)
(5.44403 -0.00161587 -27.0781)
(5.45572 -0.00883627 -27.0786)
(5.43245 0.0037863 -27.0802)
(5.39183 -0.00635417 -27.0785)
(5.41448 0.0357121 -27.0831)
(5.26007 0.0579319 -27.0618)
(4.69551 0.167282 -27.0644)
(5.11343 0.12849 -27.0881)
(5.31672 0.120668 -27.0824)
(5.65446 0.0908657 -27.0845)
(5.715 0.0723348 -27.0813)
(5.93418 0.0601433 -27.0831)
(5.94337 0.0513568 -27.0811)
(6.09817 0.0455126 -27.0824)
(6.08813 0.0404948 -27.0812)
(6.20427 0.0367135 -27.0822)
(6.18526 0.0330731 -27.0814)
(6.27637 0.0305604 -27.0823)
(6.25151 0.0271523 -27.0819)
(6.32802 0.0263778 -27.0825)
(6.29588 0.0212179 -27.0825)
(6.37113 0.024019 -27.0829)
(6.32531 0.0125046 -27.0834)
(6.42875 0.0192716 -27.0832)
(6.35992 0.00151282 -27.0844)
(6.58245 -0.00973525 -27.0637)
(4.69678 -1.81086e-08 -27.0596)
(5.11007 6.92305e-08 -27.0819)
(5.32299 -3.54281e-08 -27.0732)
(5.67522 2.16731e-07 -27.0756)
(5.74985 -6.91393e-09 -27.0701)
(5.98435 5.99442e-07 -27.0726)
(6.0116 2.90817e-07 -27.0687)
(6.18395 1.53926e-06 -27.0709)
(6.19483 1.58592e-06 -27.068)
(6.32809 4.20973e-06 -27.0699)
(6.33122 5.47891e-06 -27.0679)
(6.43509 1.37944e-05 -27.0696)
(6.43525 1.32957e-05 -27.0681)
(6.51291 5.10604e-05 -27.0696)
(6.51757 2.20977e-05 -27.0686)
(6.56157 0.00017826 -27.0699)
(6.58765 4.13822e-05 -27.0693)
(6.56754 0.00051254 -27.0706)
(6.63318 0.000174065 -27.0702)
(6.50572 0.0008313 -27.0517)
(4.69551 -0.167282 -27.0644)
(5.11343 -0.12849 -27.0881)
(5.31672 -0.120668 -27.0824)
(5.65446 -0.0908654 -27.0845)
(5.715 -0.0723346 -27.0813)
(5.93418 -0.0601425 -27.0831)
(5.94337 -0.0513558 -27.0811)
(6.09817 -0.0455106 -27.0824)
(6.08813 -0.0404906 -27.0812)
(6.20428 -0.0367087 -27.0823)
(6.18526 -0.0330595 -27.0814)
(6.27639 -0.030546 -27.0824)
(6.25151 -0.0271166 -27.0818)
(6.32807 -0.0263248 -27.0827)
(6.29591 -0.0211386 -27.0823)
(6.37125 -0.0238323 -27.0831)
(6.32549 -0.0123169 -27.0831)
(6.42902 -0.0187464 -27.0836)
(6.36043 -0.000832433 -27.0839)
(6.58319 0.0110654 -27.0642)
(4.71755 -0.285018 -27.0557)
(5.19533 -0.206165 -27.0792)
(5.30097 -0.183946 -27.0718)
(5.54048 -0.123782 -27.0761)
(5.48332 -0.0870769 -27.0721)
(5.60499 -0.0618002 -27.0759)
(5.51557 -0.0438796 -27.073)
(5.59477 -0.0315361 -27.0762)
(5.50667 -0.0220869 -27.074)
(5.56516 -0.014503 -27.0767)
(5.48597 -0.00926094 -27.0751)
(5.53096 -0.00362961 -27.0775)
(5.46334 -0.00156197 -27.0763)
(5.49587 0.00394487 -27.0784)
(5.44407 0.00163184 -27.0776)
(5.45606 0.00908043 -27.0794)
(5.43268 -0.00378986 -27.0789)
(5.39263 0.00703846 -27.0805)
(5.41544 -0.0355378 -27.0803)
(5.26233 -0.0564687 -27.0656)
(4.59889 -0.54258 -27.054)
(4.79149 -0.37026 -27.083)
(4.50216 -0.281488 -27.0829)
(4.4534 -0.183041 -27.0899)
(4.16662 -0.127545 -27.0899)
(4.14268 -0.0966528 -27.0943)
(3.92357 -0.0776545 -27.0938)
(3.92934 -0.066722 -27.0967)
(3.76048 -0.0584948 -27.0962)
(3.78171 -0.0533296 -27.0983)
(3.64794 -0.0483019 -27.0978)
(3.67637 -0.0461193 -27.0995)
(3.5671 -0.0410034 -27.0991)
(3.59998 -0.0426985 -27.1004)
(3.50561 -0.0323027 -27.1002)
(3.54856 -0.0427398 -27.1012)
(3.45339 -0.0140292 -27.1011)
(3.53933 -0.0352416 -27.1019)
(3.39927 0.0199952 -27.1016)
(3.7435 0.069766 -27.0906)
(3.51805 -0.415392 -27.029)
(2.82639 -0.146786 -27.066)
(2.0882 -0.043106 -27.0679)
(1.89213 0.0235996 -27.0752)
(1.62187 0.0437708 -27.0734)
(1.61156 0.0501693 -27.0776)
(1.45993 0.0510513 -27.0755)
(1.48851 0.0498581 -27.0786)
(1.37823 0.0485304 -27.0768)
(1.41361 0.0472044 -27.0792)
(1.32632 0.0455497 -27.0777)
(1.3613 0.0453974 -27.0797)
(1.29007 0.0422894 -27.0785)
(1.32278 0.0450154 -27.0802)
(1.26293 0.0362786 -27.0792)
(1.29322 0.0464418 -27.0806)
(1.23955 0.0154843 -27.0798)
(1.25759 0.0449776 -27.0809)
(1.23248 -0.091638 -27.0801)
(1.01707 -0.122096 -27.0794)
(4.4981 0.18885 0.00524057)
(3.7491 0.275877 0.00362644)
(3.16138 0.237043 0.00441269)
(2.60047 0.161529 0.00337283)
(2.34121 0.112519 0.00412394)
(2.07791 0.0801385 0.00329727)
(2.00469 0.0649202 0.00396177)
(1.87031 0.0564838 0.00325545)
(1.85407 0.0528067 0.00382045)
(1.76953 0.0508799 0.00320696)
(1.76775 0.0493632 0.00368337)
(1.70774 0.0495875 0.0031511)
(1.70943 0.0468623 0.0035534)
(1.66465 0.0501845 0.00309326)
(1.66689 0.040691 0.00343414)
(1.63503 0.0540941 0.0030365)
(1.63123 0.0140396 0.00332933)
(1.64717 0.0604573 0.0029801)
(1.5711 -0.124622 0.00326886)
(2.00392 -0.166912 0.00286722)
(4.62939 0.106878 0.00336538)
(4.66433 0.228081 0.00206187)
(4.79984 0.205641 0.00280642)
(4.67322 0.152323 0.0017794)
(4.64921 0.0975873 0.00252424)
(4.48971 0.0553209 0.00169495)
(4.44772 0.0276023 0.00235572)
(4.31763 0.0103185 0.00164756)
(4.28572 -0.000785807 0.00221038)
(4.18621 -0.00782109 0.00159618)
(4.16357 -0.0125702 0.00207094)
(4.0869 -0.0168848 0.00153907)
(4.07143 -0.0176716 0.00193885)
(4.00935 -0.0233668 0.00148122)
(4.0029 -0.0171403 0.00181535)
(3.9417 -0.0298374 0.00142557)
(3.95842 -0.0073083 0.00169476)
(3.85445 -0.0266963 0.00136547)
(3.94852 0.00620143 0.00154921)
(3.55261 0.0698415 0.00118182)
(4.56195 0.0603897 0.00466373)
(4.72061 0.183029 0.00345038)
(5.04338 0.211852 0.00416262)
(5.15416 0.188503 0.00312439)
(5.3366 0.157917 0.00385799)
(5.35258 0.126966 0.00302335)
(5.43879 0.105662 0.00368496)
(5.41775 0.0895026 0.00297762)
(5.46252 0.0782107 0.00354386)
(5.43431 0.0698211 0.00293122)
(5.45974 0.0627152 0.00340939)
(5.43386 0.0580174 0.00287764)
(5.44693 0.05206 0.0032819)
(5.42856 0.0504455 0.00282103)
(5.42788 0.0421278 0.00316598)
(5.42857 0.0459781 0.00276487)
(5.40058 0.0231847 0.00307168)
(5.45347 0.0393039 0.00271293)
(5.3788 -0.0402556 0.00305209)
(5.52842 -0.0447938 0.00267398)
(4.52008 0.0283597 0.00319917)
(4.58578 0.070476 0.00210228)
(4.93058 0.0736734 0.00280374)
(5.0942 0.0653975 0.00178629)
(5.35685 0.0522743 0.00251525)
(5.45478 0.0398386 0.00168009)
(5.61977 0.0306568 0.00233705)
(5.67329 0.0239949 0.00162781)
(5.78388 0.0191854 0.00219058)
(5.81699 0.0155768 0.00157732)
(5.89675 0.0127057 0.0020525)
(5.91844 0.0100398 0.00152185)
(5.9794 0.00850349 0.00192144)
(5.99086 0.0055853 0.00146503)
(6.04315 0.00627432 0.00179733)
(6.03598 0.00180322 0.00140866)
(6.09621 0.0063447 0.00167024)
(6.02824 0.00284529 0.0013406)
(6.13032 0.00418068 0.00148716)
(5.83867 0.0310203 0.00117413)
(4.55184 -1.67028e-08 0.00457504)
(4.66823 6.19229e-08 0.00347958)
(4.98588 -1.08704e-09 0.00416981)
(5.14041 1.72299e-07 0.0031371)
(5.39471 7.98784e-08 0.00386214)
(5.49556 4.33005e-07 0.00302328)
(5.66672 4.87054e-07 0.00368249)
(5.73079 1.04267e-06 0.00297387)
(5.85295 1.90191e-06 0.00354007)
(5.90068 2.63681e-06 0.00292754)
(5.99303 5.99791e-06 0.00340619)
(6.03255 7.37646e-06 0.00287479)
(6.10223 1.65004e-05 0.00327958)
(6.1391 2.15914e-05 0.00281893)
(6.18587 4.43576e-05 0.00316501)
(6.23175 5.77711e-05 0.0027636)
(6.24659 0.000132172 0.00307525)
(6.32486 0.000157869 0.0027134)
(6.31167 0.000445575 0.00306979)
(6.41161 0.00063931 0.00269688)
(4.52008 -0.0283598 0.00319917)
(4.58578 -0.0704759 0.00210228)
(4.93058 -0.0736735 0.00280374)
(5.0942 -0.065397 0.00178629)
(5.35685 -0.0522744 0.00251525)
(5.45478 -0.0398373 0.00168009)
(5.61977 -0.0306565 0.00233705)
(5.67329 -0.0239915 0.00162781)
(5.78388 -0.0191837 0.00219058)
(5.817 -0.0155673 0.00157732)
(5.89675 -0.0126996 0.0020525)
(5.91846 -0.0100108 0.00152185)
(5.9794 -0.00848854 0.00192143)
(5.9909 -0.0054922 0.00146503)
(6.04316 -0.00624362 0.00179731)
(6.03609 -0.00151704 0.00140865)
(6.0963 -0.00626164 0.0016702)
(6.02854 -0.00206788 0.00134055)
(6.13076 -0.00384435 0.00148725)
(5.83951 -0.0293211 0.00117397)
(4.56195 -0.0603897 0.00466373)
(4.72061 -0.183029 0.00345038)
(5.04338 -0.211852 0.00416262)
(5.15416 -0.188502 0.00312439)
(5.3366 -0.157916 0.00385799)
(5.35258 -0.126965 0.00302335)
(5.43879 -0.105661 0.00368495)
(5.41775 -0.0895009 0.00297762)
(5.46251 -0.078207 0.00354385)
(5.43433 -0.0698167 0.00293123)
(5.45974 -0.0627037 0.00340938)
(5.4339 -0.0580039 0.00287766)
(5.44693 -0.0520289 0.00328187)
(5.42866 -0.0504011 0.00282107)
(5.42794 -0.0420461 0.00316591)
(5.42882 -0.0458424 0.00276498)
(5.40085 -0.0229449 0.0030715)
(5.45408 -0.0389573 0.00271313)
(5.37965 0.0410464 0.00305167)
(5.53005 0.0456723 0.00267405)
(4.62939 -0.106878 0.00336538)
(4.66433 -0.228081 0.00206187)
(4.79984 -0.205641 0.00280642)
(4.67323 -0.152323 0.0017794)
(4.64921 -0.0975873 0.00252424)
(4.48971 -0.0553203 0.00169495)
(4.44772 -0.027602 0.00235572)
(4.31764 -0.0103168 0.00164756)
(4.28572 0.000787157 0.00221038)
(4.18623 0.00782559 0.00159619)
(4.16358 0.0125739 0.00207093)
(4.08696 0.0168987 0.00153907)
(4.07144 0.0176785 0.00193883)
(4.00952 0.023412 0.00148124)
(4.00294 0.0171462 0.00181528)
(3.94217 0.0299798 0.00142564)
(3.95859 0.0073063 0.00169459)
(3.85582 0.0271004 0.00136559)
(3.94902 -0.00606632 0.00154898)
(3.55695 -0.0686841 0.00118192)
(4.4981 -0.18885 0.00524057)
(3.7491 -0.275877 0.00362644)
(3.16138 -0.237043 0.00441269)
(2.60047 -0.161529 0.00337283)
(2.34121 -0.112519 0.00412394)
(2.07792 -0.0801386 0.00329727)
(2.00469 -0.0649197 0.00396177)
(1.87031 -0.056484 0.00325545)
(1.85408 -0.0528053 0.00382045)
(1.76954 -0.0508805 0.00320696)
(1.76776 -0.0493588 0.00368336)
(1.70777 -0.0495885 0.00315112)
(1.70947 -0.04685 0.00355338)
(1.66474 -0.0501841 0.0030933)
(1.66704 -0.0406593 0.00343406)
(1.63525 -0.0540826 0.00303663)
(1.63172 -0.0139682 0.00332906)
(1.64772 -0.060448 0.00298057)
(1.57227 0.124677 0.00326763)
(2.00619 0.166271 0.00286964)
(4.45352 0.0647349 -9.89397e-09)
(4.23282 0.117249 -9.93826e-09)
(3.86857 0.126987 -9.96113e-09)
(3.52668 0.111775 -9.95461e-09)
(3.18666 0.0872113 -9.99139e-09)
(2.91657 0.0635868 -9.97018e-09)
(2.6876 0.0416134 -1.00118e-08)
(2.52051 0.0254745 -9.95783e-09)
(2.3916 0.0123445 -9.98488e-09)
(2.29919 0.00433301 -9.92667e-09)
(2.23317 -0.00224351 -9.99168e-09)
(2.18264 -0.00490746 -9.96581e-09)
(2.14949 -0.00843494 -1.00487e-08)
(2.12096 -0.0076634 -1.00223e-08)
(2.10151 -0.0114564 -1.01092e-08)
(2.0902 -0.00684668 -1.00976e-08)
(2.06493 -0.0155533 -1.01948e-08)
(2.08936 -0.00599256 -1.01875e-08)
(2.02119 -0.0274652 -1.02859e-08)
(2.14286 -0.0479546 -1.02371e-08)
(4.51247 0.0573192 -9.87509e-09)
(4.64409 0.108845 -9.88439e-09)
(4.72872 0.139007 -9.88987e-09)
(4.80825 0.147952 -9.88145e-09)
(4.82282 0.142769 -9.92507e-09)
(4.82546 0.127321 -9.94095e-09)
(4.7941 0.109136 -1.0026e-08)
(4.76059 0.0897197 -9.99555e-09)
(4.71606 0.0738256 -1.00266e-08)
(4.67327 0.0595316 -9.97071e-09)
(4.63113 0.0496929 -1.00443e-08)
(4.59002 0.0407696 -1.0033e-08)
(4.55539 0.0355879 -1.01229e-08)
(4.51907 0.0300521 -1.00887e-08)
(4.49327 0.0271558 -1.01528e-08)
(4.46161 0.024877 -1.01125e-08)
(4.44449 0.0200854 -1.02026e-08)
(4.41718 0.0268192 -1.01905e-08)
(4.40232 0.0111883 -1.03225e-08)
(4.37973 0.0401504 -1.0267e-08)
(4.50226 0.0215842 -9.88983e-09)
(4.62201 0.0546004 -9.9112e-09)
(4.7318 0.0798952 -9.91683e-09)
(4.891 0.0924564 -9.90401e-09)
(5.01882 0.0940928 -9.95014e-09)
(5.15201 0.0888607 -9.94957e-09)
(5.25003 0.0789571 -1.00117e-08)
(5.33858 0.0685708 -9.97612e-09)
(5.40152 0.0580943 -1.00308e-08)
(5.45502 0.0496386 -1.00112e-08)
(5.49351 0.0420012 -1.01208e-08)
(5.52631 0.0366978 -1.01418e-08)
(5.55009 0.031201 -1.02524e-08)
(5.57285 0.0286807 -1.02181e-08)
(5.58714 0.0231162 -1.02608e-08)
(5.60641 0.0244177 -1.01817e-08)
(5.61461 0.0141527 -1.02433e-08)
(5.63136 0.0227794 -1.02077e-08)
(5.64348 -0.00017668 -1.03245e-08)
(5.64447 0.00966198 -1.03002e-08)
(4.50057 0.0173227 -9.88329e-09)
(4.59666 0.0333959 -9.91176e-09)
(4.69441 0.0442701 -9.92229e-09)
(4.8492 0.0492668 -9.92133e-09)
(4.98594 0.0504533 -9.96813e-09)
(5.13891 0.0481652 -9.96347e-09)
(5.26519 0.0444028 -1.00126e-08)
(5.38776 0.0395651 -9.97041e-09)
(5.48832 0.0352521 -1.00179e-08)
(5.58048 0.0310781 -9.99342e-09)
(5.65937 0.0279755 -1.00923e-08)
(5.72979 0.025142 -1.01067e-08)
(5.79465 0.023106 -1.02117e-08)
(5.84987 0.0214148 -1.02083e-08)
(5.90755 0.0195179 -1.02851e-08)
(5.94808 0.0196091 -1.01914e-08)
(6.00821 0.0156223 -1.02465e-08)
(6.02221 0.0209114 -1.02395e-08)
(6.1037 0.010704 -1.03214e-08)
(6.05829 0.0277391 -1.02769e-08)
(4.50126 -3.62369e-08 -9.89067e-09)
(4.60868 1.03718e-07 -9.91746e-09)
(4.7074 -7.32787e-08 -9.93495e-09)
(4.86126 2.63587e-07 -9.93814e-09)
(4.99433 -3.71805e-08 -9.98594e-09)
(5.14577 6.58012e-07 -9.97132e-09)
(5.27218 3.43303e-07 -1.00191e-08)
(5.39756 1.62032e-06 -9.98667e-09)
(5.50206 1.68449e-06 -1.0054e-08)
(5.60036 4.41311e-06 -1.0038e-08)
(5.68514 5.0302e-06 -1.0123e-08)
(5.76423 1.36697e-05 -1.00962e-08)
(5.83532 1.15583e-05 -1.01613e-08)
(5.90198 4.32935e-05 -1.01211e-08)
(5.96453 2.5618e-05 -1.01929e-08)
(6.02042 0.000123179 -1.01555e-08)
(6.08302 7.85052e-05 -1.02237e-08)
(6.11753 0.000295792 -1.02109e-08)
(6.20727 0.000313453 -1.02971e-08)
(6.18572 0.000614381 -1.02435e-08)
(4.50057 -0.0173227 -9.88437e-09)
(4.59666 -0.0333957 -9.91499e-09)
(4.69441 -0.0442703 -9.9353e-09)
(4.8492 -0.0492662 -9.94697e-09)
(4.98594 -0.0504534 -9.99119e-09)
(5.13891 -0.0481638 -9.97129e-09)
(5.26519 -0.0444025 -1.00148e-08)
(5.38776 -0.0395615 -9.99707e-09)
(5.48832 -0.0352498 -1.00817e-08)
(5.58048 -0.0310681 -1.00732e-08)
(5.65937 -0.0279684 -1.01391e-08)
(5.7298 -0.0251114 -1.00758e-08)
(5.79466 -0.0230908 -1.01067e-08)
(5.84989 -0.0213198 -1.0048e-08)
(5.90759 -0.0194871 -1.01282e-08)
(5.94813 -0.0193429 -1.01212e-08)
(6.00833 -0.015515 -1.02177e-08)
(6.02234 -0.0202796 -1.02014e-08)
(6.10406 -0.0101926 -1.02676e-08)
(6.05871 -0.0264597 -1.02002e-08)
(4.50226 -0.0215843 -9.89128e-09)
(4.62201 -0.0546002 -9.92405e-09)
(4.7318 -0.0798952 -9.95493e-09)
(4.89101 -0.092456 -9.97212e-09)
(5.01882 -0.0940928 -1.00176e-08)
(5.15201 -0.0888595 -9.98907e-09)
(5.25002 -0.0789564 -1.0029e-08)
(5.33859 -0.0685679 -1.00073e-08)
(5.40151 -0.0580913 -1.00864e-08)
(5.45503 -0.0496308 -1.00628e-08)
(5.4935 -0.0419922 -1.01081e-08)
(5.52635 -0.0366738 -1.00261e-08)
(5.55009 -0.0311812 -1.00514e-08)
(5.57294 -0.0286045 -1.00254e-08)
(5.5872 -0.0230756 -1.01451e-08)
(5.60661 -0.0242003 -1.01268e-08)
(5.61485 -0.0140325 -1.019e-08)
(5.63181 -0.0222628 -1.01903e-08)
(5.64426 0.000676789 -1.02588e-08)
(5.64565 -0.00863473 -1.01763e-08)
(4.51247 -0.0573192 -9.89616e-09)
(4.64409 -0.108845 -9.94706e-09)
(4.72872 -0.139007 -9.9758e-09)
(4.80825 -0.147952 -9.98975e-09)
(4.82282 -0.142769 -1.00307e-08)
(4.82546 -0.12732 -9.98788e-09)
(4.7941 -0.109136 -1.00051e-08)
(4.7606 -0.0897178 -9.98215e-09)
(4.71606 -0.0738233 -1.008e-08)
(4.6733 -0.0595258 -1.00863e-08)
(4.63112 -0.0496874 -1.01597e-08)
(4.5901 -0.0407507 -1.01086e-08)
(4.55538 -0.0355791 -1.01619e-08)
(4.51928 -0.0299906 -1.0131e-08)
(4.49329 -0.0271459 -1.02206e-08)
(4.4621 -0.024701 -1.01965e-08)
(4.44469 -0.0200511 -1.02664e-08)
(4.41835 -0.0264089 -1.02028e-08)
(4.40308 -0.0109368 -1.02639e-08)
(4.38267 -0.0393681 -1.01713e-08)
(4.45352 -0.0647348 -9.8932e-09)
(4.23282 -0.117249 -9.90355e-09)
(3.86857 -0.126987 -9.91734e-09)
(3.52668 -0.111775 -9.92431e-09)
(3.18666 -0.0872111 -9.96642e-09)
(2.91657 -0.0635868 -9.94772e-09)
(2.68761 -0.0416127 -1.00143e-08)
(2.52052 -0.0254747 -1.00285e-08)
(2.3916 -0.0123425 -1.0141e-08)
(2.29922 -0.0043332 -1.01458e-08)
(2.23319 0.00224855 -1.02222e-08)
(2.1827 0.00490844 -1.01828e-08)
(2.14954 0.00844517 -1.02454e-08)
(2.1211 0.00767191 -1.02065e-08)
(2.10168 0.0114742 -1.02678e-08)
(2.09055 0.00688054 -1.02177e-08)
(2.06542 0.0155921 -1.0268e-08)
(2.0904 0.0060711 -1.02172e-08)
(2.02199 0.0276075 -1.02835e-08)
(2.14693 0.0479349 -1.02436e-08)
(4.4981 0.18885 -0.00524058)
(3.7491 0.275877 -0.00362646)
(3.16138 0.237043 -0.00441271)
(2.60047 0.161529 -0.00337284)
(2.34121 0.112519 -0.00412396)
(2.07791 0.0801385 -0.00329728)
(2.00469 0.0649202 -0.00396178)
(1.87031 0.0564838 -0.00325547)
(1.85407 0.0528067 -0.00382047)
(1.76953 0.0508799 -0.00320698)
(1.76775 0.0493632 -0.00368338)
(1.70774 0.0495875 -0.00315112)
(1.70943 0.0468623 -0.00355342)
(1.66465 0.0501845 -0.00309327)
(1.66689 0.040691 -0.00343416)
(1.63503 0.0540941 -0.00303651)
(1.63123 0.0140396 -0.00332935)
(1.64717 0.0604573 -0.00298012)
(1.5711 -0.124622 -0.00326888)
(2.00392 -0.166912 -0.00286723)
(4.62939 0.106878 -0.0033654)
(4.66433 0.228081 -0.00206189)
(4.79984 0.205641 -0.00280644)
(4.67322 0.152323 -0.00177942)
(4.64921 0.0975873 -0.00252426)
(4.48971 0.0553209 -0.00169497)
(4.44772 0.0276023 -0.00235574)
(4.31763 0.0103185 -0.00164757)
(4.28572 -0.000785813 -0.0022104)
(4.18621 -0.0078211 -0.0015962)
(4.16357 -0.0125702 -0.00207096)
(4.0869 -0.0168849 -0.00153908)
(4.07143 -0.0176716 -0.00193887)
(4.00935 -0.0233668 -0.00148124)
(4.0029 -0.0171403 -0.00181537)
(3.9417 -0.0298375 -0.00142559)
(3.95841 -0.00730831 -0.00169478)
(3.85445 -0.0266963 -0.00136549)
(3.94852 0.00620143 -0.00154923)
(3.55261 0.0698415 -0.00118183)
(4.56195 0.0603897 -0.00466374)
(4.72061 0.183029 -0.0034504)
(5.04338 0.211852 -0.00416264)
(5.15416 0.188503 -0.00312441)
(5.3366 0.157917 -0.00385801)
(5.35258 0.126966 -0.00302337)
(5.43879 0.105662 -0.00368497)
(5.41775 0.0895026 -0.00297764)
(5.46252 0.0782107 -0.00354387)
(5.43431 0.0698211 -0.00293124)
(5.45974 0.0627152 -0.00340941)
(5.43386 0.0580174 -0.00287766)
(5.44693 0.05206 -0.00328191)
(5.42856 0.0504455 -0.00282104)
(5.42788 0.0421278 -0.003166)
(5.42857 0.045978 -0.00276489)
(5.40058 0.0231847 -0.00307169)
(5.45347 0.0393039 -0.00271294)
(5.3788 -0.0402556 -0.00305211)
(5.52842 -0.0447939 -0.002674)
(4.52008 0.0283597 -0.00319919)
(4.58578 0.070476 -0.00210229)
(4.93058 0.0736734 -0.00280376)
(5.0942 0.0653975 -0.00178631)
(5.35685 0.0522743 -0.00251526)
(5.45478 0.0398386 -0.0016801)
(5.61977 0.0306568 -0.00233707)
(5.67329 0.0239949 -0.00162783)
(5.78388 0.0191854 -0.0021906)
(5.81699 0.0155768 -0.00157734)
(5.89675 0.0127057 -0.00205252)
(5.91844 0.0100398 -0.00152187)
(5.9794 0.00850349 -0.00192145)
(5.99086 0.00558529 -0.00146505)
(6.04315 0.00627431 -0.00179735)
(6.03598 0.00180321 -0.00140868)
(6.09621 0.0063447 -0.00167026)
(6.02824 0.00284528 -0.00134062)
(6.13032 0.00418067 -0.00148718)
(5.83867 0.0310203 -0.00117415)
(4.55184 -1.73534e-08 -0.00457506)
(4.66823 5.84782e-08 -0.0034796)
(4.98588 -4.36562e-09 -0.00416983)
(5.14041 1.69164e-07 -0.00313712)
(5.39471 7.89824e-08 -0.00386215)
(5.49556 4.32585e-07 -0.0030233)
(5.66672 4.88272e-07 -0.00368251)
(5.73079 1.04301e-06 -0.00297388)
(5.85295 1.90196e-06 -0.00354008)
(5.90068 2.63701e-06 -0.00292755)
(5.99303 5.99738e-06 -0.0034062)
(6.03255 7.37524e-06 -0.00287481)
(6.10223 1.64932e-05 -0.0032796)
(6.1391 2.15872e-05 -0.00281895)
(6.18587 4.43473e-05 -0.00316502)
(6.23175 5.77671e-05 -0.00276361)
(6.24659 0.000132164 -0.00307527)
(6.32486 0.000157863 -0.00271342)
(6.31167 0.000445569 -0.00306981)
(6.41161 0.000639297 -0.0026969)
(4.52008 -0.0283598 -0.00319919)
(4.58578 -0.0704759 -0.00210229)
(4.93058 -0.0736735 -0.00280376)
(5.0942 -0.065397 -0.00178631)
(5.35685 -0.0522744 -0.00251526)
(5.45478 -0.0398373 -0.0016801)
(5.61977 -0.0306565 -0.00233707)
(5.67329 -0.0239915 -0.00162783)
(5.78388 -0.0191837 -0.0021906)
(5.817 -0.0155673 -0.00157734)
(5.89675 -0.0126996 -0.00205252)
(5.91846 -0.0100108 -0.00152187)
(5.9794 -0.00848853 -0.00192145)
(5.9909 -0.0054922 -0.00146505)
(6.04316 -0.00624362 -0.00179733)
(6.03609 -0.00151704 -0.00140867)
(6.0963 -0.00626164 -0.00167022)
(6.02853 -0.00206789 -0.00134057)
(6.13076 -0.00384435 -0.00148726)
(5.83951 -0.0293211 -0.00117399)
(4.56195 -0.0603897 -0.00466374)
(4.72061 -0.183029 -0.0034504)
(5.04338 -0.211852 -0.00416264)
(5.15416 -0.188503 -0.00312441)
(5.3366 -0.157916 -0.00385801)
(5.35258 -0.126965 -0.00302337)
(5.43879 -0.105661 -0.00368497)
(5.41775 -0.0895009 -0.00297764)
(5.46251 -0.078207 -0.00354387)
(5.43433 -0.0698167 -0.00293124)
(5.45974 -0.0627037 -0.0034094)
(5.4339 -0.0580039 -0.00287767)
(5.44693 -0.0520289 -0.00328188)
(5.42866 -0.0504011 -0.00282109)
(5.42794 -0.0420461 -0.00316592)
(5.42882 -0.0458424 -0.002765)
(5.40085 -0.0229449 -0.00307151)
(5.45408 -0.0389573 -0.00271314)
(5.37965 0.0410464 -0.00305169)
(5.53005 0.0456722 -0.00267407)
(4.62939 -0.106878 -0.0033654)
(4.66433 -0.228081 -0.00206189)
(4.79984 -0.205641 -0.00280644)
(4.67322 -0.152323 -0.00177942)
(4.64921 -0.0975872 -0.00252426)
(4.48971 -0.0553203 -0.00169497)
(4.44772 -0.027602 -0.00235574)
(4.31764 -0.0103168 -0.00164757)
(4.28572 0.000787165 -0.00221039)
(4.18623 0.00782559 -0.0015962)
(4.16357 0.0125739 -0.00207095)
(4.08696 0.0168987 -0.00153909)
(4.07144 0.0176785 -0.00193885)
(4.00952 0.023412 -0.00148126)
(4.00294 0.0171462 -0.0018153)
(3.94217 0.0299798 -0.00142565)
(3.95859 0.00730631 -0.0016946)
(3.85582 0.0271004 -0.00136561)
(3.94902 -0.00606631 -0.001549)
(3.55695 -0.0686841 -0.00118194)
(4.4981 -0.18885 -0.00524058)
(3.7491 -0.275877 -0.00362646)
(3.16138 -0.237043 -0.00441271)
(2.60047 -0.161529 -0.00337284)
(2.34121 -0.112519 -0.00412396)
(2.07792 -0.0801386 -0.00329728)
(2.00469 -0.0649197 -0.00396178)
(1.87031 -0.056484 -0.00325547)
(1.85408 -0.0528053 -0.00382047)
(1.76954 -0.0508805 -0.00320698)
(1.76776 -0.0493588 -0.00368338)
(1.70777 -0.0495885 -0.00315113)
(1.70947 -0.04685 -0.0035534)
(1.66474 -0.0501841 -0.00309331)
(1.66704 -0.0406593 -0.00343408)
(1.63525 -0.0540826 -0.00303664)
(1.63172 -0.0139682 -0.00332908)
(1.64772 -0.060448 -0.00298058)
(1.57227 0.124677 -0.00326764)
(2.00619 0.166271 -0.00286965)
(3.51805 0.415392 27.029)
(2.82639 0.146786 27.066)
(2.0882 0.043106 27.0679)
(1.89213 -0.0235995 27.0752)
(1.62187 -0.0437709 27.0734)
(1.61156 -0.0501691 27.0776)
(1.45993 -0.0510515 27.0755)
(1.48851 -0.0498577 27.0786)
(1.37822 -0.048531 27.0768)
(1.4136 -0.0472034 27.0792)
(1.32631 -0.0455517 27.0778)
(1.36127 -0.0453951 27.0797)
(1.29004 -0.0422956 27.0786)
(1.32269 -0.0450089 27.0801)
(1.26284 -0.036293 27.0794)
(1.29304 -0.0464256 27.0802)
(1.2392 -0.0155255 27.0804)
(1.25714 -0.0449236 27.0797)
(1.23141 0.0916774 27.0829)
(1.01527 0.122693 27.0714)
(4.59889 0.54258 27.054)
(4.79149 0.37026 27.083)
(4.50216 0.281488 27.0829)
(4.4534 0.183041 27.0899)
(4.16662 0.127546 27.0899)
(4.14268 0.096653 27.0943)
(3.92357 0.0776553 27.0938)
(3.92934 0.0667224 27.0967)
(3.76047 0.0584975 27.0962)
(3.78169 0.0533306 27.0982)
(3.64793 0.0483102 27.0979)
(3.67632 0.046123 27.0993)
(3.56707 0.041025 27.0993)
(3.59984 0.0427179 27.1)
(3.50547 0.0323513 27.1008)
(3.54825 0.0428251 27.1001)
(3.45284 0.0141407 27.1032)
(3.53864 0.0354939 27.0981)
(3.39777 -0.0196375 27.1087)
(3.74145 -0.0695259 27.0777)
(4.71755 0.285018 27.0557)
(5.19533 0.206165 27.0792)
(5.30097 0.183946 27.0718)
(5.54048 0.123782 27.0761)
(5.48332 0.087077 27.0721)
(5.60498 0.0618011 27.0759)
(5.51557 0.0438802 27.073)
(5.59477 0.0315383 27.0762)
(5.50668 0.0220895 27.074)
(5.56514 0.0145089 27.0767)
(5.48597 0.00926873 27.0752)
(5.5309 0.00364878 27.0773)
(5.46334 0.00157831 27.0765)
(5.49573 -0.00387427 27.078)
(5.44403 -0.00161587 27.0781)
(5.45572 -0.00883627 27.0786)
(5.43245 0.0037863 27.0802)
(5.39183 -0.00635418 27.0785)
(5.41448 0.0357121 27.0831)
(5.26007 0.0579319 27.0618)
(4.69551 0.167282 27.0644)
(5.11343 0.12849 27.0881)
(5.31672 0.120668 27.0824)
(5.65446 0.0908657 27.0845)
(5.715 0.0723348 27.0813)
(5.93418 0.0601433 27.0831)
(5.94337 0.0513568 27.0811)
(6.09817 0.0455126 27.0824)
(6.08813 0.0404948 27.0812)
(6.20427 0.0367135 27.0822)
(6.18526 0.0330731 27.0814)
(6.27637 0.0305604 27.0823)
(6.25151 0.0271523 27.0819)
(6.32802 0.0263778 27.0825)
(6.29588 0.0212179 27.0825)
(6.37113 0.024019 27.0829)
(6.32531 0.0125046 27.0834)
(6.42875 0.0192716 27.0832)
(6.35992 0.00151281 27.0844)
(6.58245 -0.00973527 27.0637)
(4.69678 -6.93997e-09 27.0596)
(5.11007 8.00536e-08 27.0819)
(5.32299 -1.22245e-08 27.0732)
(5.67522 2.34747e-07 27.0756)
(5.74985 1.67941e-08 27.0701)
(5.98435 6.19323e-07 27.0726)
(6.0116 3.15305e-07 27.0687)
(6.18395 1.56073e-06 27.0709)
(6.19483 1.60605e-06 27.068)
(6.32809 4.22537e-06 27.0699)
(6.33122 5.49136e-06 27.0679)
(6.43509 1.38044e-05 27.0696)
(6.43525 1.33005e-05 27.0681)
(6.51291 5.10645e-05 27.0696)
(6.51757 2.21e-05 27.0686)
(6.56157 0.000178265 27.0699)
(6.58765 4.13931e-05 27.0693)
(6.56754 0.000512547 27.0706)
(6.63318 0.000174069 27.0702)
(6.50571 0.00083129 27.0517)
(4.69551 -0.167282 27.0644)
(5.11343 -0.12849 27.0881)
(5.31672 -0.120668 27.0824)
(5.65446 -0.0908654 27.0845)
(5.715 -0.0723346 27.0813)
(5.93418 -0.0601425 27.0831)
(5.94337 -0.0513558 27.0811)
(6.09817 -0.0455106 27.0824)
(6.08813 -0.0404906 27.0812)
(6.20428 -0.0367087 27.0823)
(6.18526 -0.0330595 27.0814)
(6.27639 -0.030546 27.0824)
(6.25151 -0.0271166 27.0818)
(6.32807 -0.0263248 27.0827)
(6.29591 -0.0211386 27.0823)
(6.37125 -0.0238323 27.0831)
(6.32549 -0.0123169 27.0831)
(6.42902 -0.0187464 27.0836)
(6.36043 -0.00083243 27.0839)
(6.58319 0.0110654 27.0642)
(4.71755 -0.285018 27.0557)
(5.19533 -0.206165 27.0792)
(5.30097 -0.183946 27.0718)
(5.54048 -0.123782 27.0761)
(5.48332 -0.0870769 27.0721)
(5.60499 -0.0618002 27.0759)
(5.51557 -0.0438796 27.073)
(5.59477 -0.031536 27.0762)
(5.50667 -0.0220869 27.074)
(5.56516 -0.014503 27.0767)
(5.48597 -0.00926093 27.0751)
(5.53095 -0.0036296 27.0775)
(5.46334 -0.00156196 27.0763)
(5.49587 0.00394489 27.0784)
(5.44407 0.00163185 27.0776)
(5.45606 0.00908044 27.0794)
(5.43268 -0.00378985 27.0789)
(5.39263 0.00703847 27.0805)
(5.41544 -0.0355378 27.0803)
(5.26233 -0.0564687 27.0656)
(4.59889 -0.54258 27.054)
(4.79149 -0.37026 27.083)
(4.50216 -0.281488 27.0829)
(4.4534 -0.183041 27.0899)
(4.16662 -0.127545 27.0899)
(4.14268 -0.0966528 27.0943)
(3.92357 -0.0776545 27.0938)
(3.92934 -0.066722 27.0967)
(3.76048 -0.0584947 27.0962)
(3.78171 -0.0533296 27.0983)
(3.64794 -0.0483018 27.0978)
(3.67637 -0.0461193 27.0995)
(3.5671 -0.0410034 27.0991)
(3.59998 -0.0426985 27.1004)
(3.50561 -0.0323027 27.1002)
(3.54856 -0.0427398 27.1012)
(3.45339 -0.0140292 27.1011)
(3.53933 -0.0352416 27.1019)
(3.39927 0.0199952 27.1016)
(3.7435 0.069766 27.0906)
(3.51805 -0.415392 27.029)
(2.82639 -0.146786 27.066)
(2.0882 -0.043106 27.0679)
(1.89213 0.0235996 27.0752)
(1.62187 0.0437708 27.0734)
(1.61156 0.0501693 27.0776)
(1.45993 0.0510513 27.0755)
(1.48851 0.0498581 27.0786)
(1.37823 0.0485304 27.0768)
(1.41361 0.0472044 27.0792)
(1.32632 0.0455497 27.0777)
(1.3613 0.0453974 27.0797)
(1.29007 0.0422894 27.0785)
(1.32278 0.0450154 27.0802)
(1.26293 0.0362786 27.0792)
(1.29322 0.0464418 27.0806)
(1.23955 0.0154843 27.0798)
(1.25759 0.0449776 27.0809)
(1.23248 -0.0916381 27.0801)
(1.01707 -0.122096 27.0794)
(1.09699 -0.15597 -27.1274)
(1.19045 -0.14498 -27.245)
(1.14679 -0.114 -27.3181)
(1.16618 -0.110489 -27.3753)
(1.13585 -0.110201 -27.4188)
(1.15235 -0.110282 -27.4571)
(1.12906 -0.110831 -27.4884)
(1.14301 -0.111024 -27.517)
(1.12432 -0.111468 -27.5411)
(1.13625 -0.111629 -27.5635)
(1.12084 -0.111976 -27.5828)
(1.13125 -0.112108 -27.6007)
(1.1183 -0.112384 -27.6162)
(1.12755 -0.112493 -27.6306)
(1.11649 -0.112714 -27.6431)
(1.12484 -0.1128 -27.6546)
(1.11527 -0.112978 -27.6646)
(1.1229 -0.113044 -27.6737)
(1.11452 -0.113185 -27.6816)
(1.12154 -0.113233 -27.6886)
(1.11414 -0.113343 -27.6947)
(1.12064 -0.113374 -27.7)
(1.11405 -0.113459 -27.7045)
(1.1201 -0.113475 -27.7083)
(1.11419 -0.113539 -27.7115)
(1.11985 -0.113544 -27.7141)
(1.11453 -0.113591 -27.7163)
(1.11982 -0.113587 -27.718)
(1.11501 -0.113622 -27.7194)
(1.11998 -0.113611 -27.7204)
(1.11562 -0.113636 -27.7212)
(1.12028 -0.113621 -27.7217)
(1.11632 -0.11364 -27.7221)
(1.12071 -0.113623 -27.7223)
(1.1171 -0.113638 -27.7225)
(1.12124 -0.113621 -27.7225)
(1.11795 -0.113633 -27.7225)
(1.12184 -0.113617 -27.7224)
(1.11884 -0.113627 -27.7224)
(1.12252 -0.113612 -27.7222)
(1.11978 -0.113622 -27.7221)
(1.12325 -0.113607 -27.722)
(1.12075 -0.113616 -27.7219)
(1.12403 -0.113603 -27.7218)
(1.12175 -0.113611 -27.7217)
(1.12485 -0.113599 -27.7215)
(1.12276 -0.113606 -27.7214)
(1.12569 -0.113595 -27.7213)
(1.12379 -0.113602 -27.7212)
(1.12656 -0.113592 -27.7211)
(1.12483 -0.113598 -27.721)
(1.12746 -0.113588 -27.7208)