/*--------------------------------*- C++ -*----------------------------------*\
  =========                 |
  \\      /  F ield         | OpenFOAM: The Open Source CFD Toolbox
   \\    /   O peration     | Website:  https://openfoam.org
    \\  /    A nd           | Version:  7
     \\/     M anipulation  |
\*---------------------------------------------------------------------------*/
FoamFile
{
    version     2.0;
    format      ascii;
    class       surfaceScalarField;
    location    "0.05";
    object      phi_0;
}
// * * * * * * * * * * * * * * * * * * * * * * * * * * * * * * * * * * * * * //

dimensions      [1 0 -1 0 0 0 0];

internalField   nonuniform List<scalar> 
2748
(
1.07455e-05
5.18511e-08
1.06017e-05
1.43672e-07
1.03806e-05
2.21103e-07
1.00961e-05
2.84409e-07
9.76282e-06
3.33275e-07
9.39564e-06
3.6714e-07
9.00856e-06
3.87039e-07
8.61356e-06
3.94964e-07
8.2199e-06
3.9363e-07
7.83481e-06
3.85056e-07
7.46355e-06
3.71235e-07
7.10944e-06
3.54079e-07
6.77523e-06
3.34192e-07
6.46274e-06
3.12468e-07
6.1723e-06
2.90411e-07
5.90393e-06
2.68337e-07
5.65725e-06
2.4665e-07
5.43153e-06
2.2568e-07
5.22582e-06
2.05672e-07
5.03898e-06
1.8679e-07
4.8698e-06
1.69133e-07
4.717e-06
1.52758e-07
4.57928e-06
1.37674e-07
4.45538e-06
1.23869e-07
4.34404e-06
1.11309e-07
4.2441e-06
9.99393e-08
4.15441e-06
8.96962e-08
4.07391e-06
8.05058e-08
4.00161e-06
7.22894e-08
3.9366e-06
6.49673e-08
3.87806e-06
5.84618e-08
3.82526e-06
5.26992e-08
3.77756e-06
4.76102e-08
3.7344e-06
4.31289e-08
3.69524e-06
3.91916e-08
3.65958e-06
3.57355e-08
3.62696e-06
3.26998e-08
3.59694e-06
3.0029e-08
3.56917e-06
2.76764e-08
3.54338e-06
2.56056e-08
3.51938e-06
2.37893e-08
3.49705e-06
2.2206e-08
3.47626e-06
2.08341e-08
3.45685e-06
1.96449e-08
3.43854e-06
1.86019e-08
3.421e-06
1.76675e-08
3.40398e-06
1.68173e-08
3.38746e-06
1.60475e-08
3.37158e-06
1.53722e-08
3.35657e-06
1.48065e-08
3.34248e-06
1.43477e-08
3.32911e-06
1.39682e-08
3.31609e-06
1.36249e-08
3.30303e-06
1.32804e-08
3.28979e-06
1.29204e-08
3.27648e-06
1.25583e-08
3.26339e-06
1.2225e-08
3.25084e-06
1.19515e-08
3.23902e-06
1.17545e-08
3.22794e-06
1.16313e-08
3.21749e-06
1.15635e-08
3.20745e-06
1.15263e-08
3.19766e-06
1.14969e-08
3.18798e-06
1.14593e-08
3.17835e-06
1.14056e-08
3.16877e-06
1.13344e-08
3.15925e-06
1.12476e-08
3.14983e-06
1.11486e-08
3.14052e-06
1.10406e-08
3.13135e-06
1.09264e-08
3.12232e-06
1.0808e-08
3.11346e-06
1.06871e-08
3.10475e-06
1.05652e-08
3.0962e-06
1.04436e-08
3.08782e-06
1.03235e-08
3.0796e-06
1.02057e-08
3.07155e-06
1.0091e-08
3.06367e-06
9.98008e-09
3.05594e-06
9.87329e-09
3.04837e-06
9.77105e-09
3.04094e-06
9.6736e-09
3.03366e-06
9.58104e-09
3.0265e-06
9.49336e-09
3.01948e-06
9.41051e-09
3.01256e-06
9.33242e-09
3.00576e-06
9.25896e-09
2.99906e-06
9.18985e-09
2.99246e-06
9.1245e-09
2.98595e-06
9.06215e-09
2.97954e-06
9.00185e-09
2.97321e-06
8.94269e-09
2.96698e-06
8.88373e-09
2.96084e-06
8.82405e-09
2.95479e-06
8.76262e-09
2.94883e-06
8.69859e-09
2.94297e-06
8.63125e-09
2.9372e-06
8.56036e-09
2.93153e-06
8.4859e-09
2.92595e-06
8.40817e-09
2.92047e-06
8.32744e-09
2.91507e-06
8.24424e-09
2.90977e-06
8.15915e-09
2.90455e-06
8.07318e-09
2.89942e-06
7.98718e-09
2.89437e-06
7.90188e-09
2.8894e-06
7.81791e-09
2.8845e-06
7.73462e-09
2.87969e-06
7.65307e-09
2.87496e-06
7.57002e-09
2.87032e-06
7.48931e-09
2.86576e-06
7.40143e-09
2.86131e-06
7.31721e-09
2.85696e-06
7.21304e-09
2.85272e-06
7.1165e-09
2.84863e-06
6.9749e-09
2.84466e-06
6.85596e-09
2.8409e-06
6.64903e-09
2.83728e-06
6.49411e-09
2.83393e-06
6.22944e-09
6.05751e-09
1.08173e-05
3.1721e-08
1.08652e-05
9.57133e-08
1.09319e-05
1.54293e-07
1.10099e-05
2.06411e-07
1.10906e-05
2.52551e-07
1.11657e-05
2.91915e-07
1.12293e-05
3.2341e-07
1.12777e-05
3.46602e-07
1.13093e-05
3.61961e-07
1.1324e-05
3.70337e-07
1.13225e-05
3.72679e-07
1.13065e-05
3.70008e-07
1.12776e-05
3.63134e-07
1.12371e-05
3.52891e-07
1.11873e-05
3.4017e-07
1.113e-05
3.25652e-07
1.10667e-05
3.09922e-07
1.09989e-05
2.93486e-07
1.09277e-05
2.7678e-07
1.08544e-05
2.60155e-07
1.07796e-05
2.43885e-07
1.07041e-05
2.28186e-07
1.06285e-05
2.13204e-07
1.05533e-05
1.99044e-07
1.04788e-05
1.85771e-07
1.04053e-05
1.73419e-07
1.0333e-05
1.61992e-07
1.02619e-05
1.51475e-07
1.01924e-05
1.41839e-07
1.01242e-05
1.33039e-07
1.00576e-05
1.25025e-07
9.99255e-06
1.17746e-07
9.92897e-06
1.11146e-07
9.86689e-06
1.0517e-07
9.80629e-06
9.976e-08
9.74713e-06
9.48603e-08
9.68939e-06
9.0416e-08
9.63302e-06
8.63771e-08
9.57799e-06
8.26999e-08
9.52423e-06
7.93475e-08
9.47171e-06
7.62886e-08
9.4204e-06
7.34947e-08
9.37028e-06
7.09372e-08
9.32133e-06
6.85854e-08
9.27352e-06
6.64083e-08
9.22681e-06
6.43816e-08
9.18113e-06
6.24917e-08
9.13643e-06
6.0731e-08
9.09266e-06
5.90967e-08
9.04982e-06
5.75846e-08
9.00791e-06
5.61822e-08
8.96695e-06
5.48674e-08
8.9269e-06
5.36159e-08
8.88773e-06
5.24092e-08
8.84935e-06
5.12408e-08
8.81173e-06
5.01163e-08
8.77482e-06
4.90482e-08
8.73863e-06
4.80486e-08
8.70317e-06
4.71231e-08
8.66846e-06
4.62682e-08
8.63452e-06
4.54731e-08
8.60134e-06
4.4723e-08
8.56892e-06
4.40033e-08
8.53722e-06
4.33017e-08
8.50621e-06
4.26097e-08
8.47587e-06
4.19222e-08
8.44617e-06
4.1237e-08
8.41709e-06
4.05536e-08
8.38861e-06
3.98728e-08
8.36072e-06
3.91955e-08
8.33341e-06
3.85228e-08
8.30666e-06
3.78559e-08
8.28048e-06
3.71961e-08
8.25486e-06
3.65447e-08
8.2298e-06
3.5903e-08
8.2053e-06
3.52721e-08
8.18136e-06
3.4653e-08
8.15798e-06
3.4047e-08
8.13517e-06
3.3455e-08
8.11291e-06
3.28782e-08
8.09121e-06
3.23176e-08
8.07004e-06
3.17739e-08
8.0494e-06
3.12472e-08
8.02926e-06
3.07379e-08
8.0096e-06
3.02459e-08
7.99039e-06
2.97713e-08
7.97159e-06
2.93134e-08
7.9532e-06
2.88711e-08
7.93517e-06
2.84427e-08
7.91749e-06
2.80258e-08
7.90015e-06
2.76184e-08
7.88314e-06
2.72181e-08
7.86648e-06
2.6823e-08
7.85018e-06
2.64307e-08
7.83425e-06
2.60393e-08
7.81872e-06
2.56469e-08
7.80361e-06
2.52528e-08
7.78895e-06
2.48567e-08
7.77475e-06
2.4459e-08
7.76102e-06
2.40597e-08
7.74776e-06
2.36599e-08
7.73495e-06
2.326e-08
7.72256e-06
2.28621e-08
7.71056e-06
2.24665e-08
7.69891e-06
2.20757e-08
7.68758e-06
2.16875e-08
7.6765e-06
2.13044e-08
7.66563e-06
2.09207e-08
7.65495e-06
2.05408e-08
7.64445e-06
2.01539e-08
7.63413e-06
1.97695e-08
7.62407e-06
1.93638e-08
7.61428e-06
1.8965e-08
7.60488e-06
1.85073e-08
7.59583e-06
1.80855e-08
7.58736e-06
1.75141e-08
7.57924e-06
1.70774e-08
7.57203e-06
1.62772e-08
7.565e-06
1.59285e-08
1.49115e-08
1.08061e-05
2.26745e-08
1.08335e-05
6.82545e-08
1.0877e-05
1.10676e-07
1.09349e-05
1.48513e-07
1.10058e-05
1.81577e-07
1.10879e-05
2.09765e-07
1.11786e-05
2.32753e-07
1.12748e-05
2.50358e-07
1.13739e-05
2.62809e-07
1.14735e-05
2.70672e-07
1.15716e-05
2.74554e-07
1.16665e-05
2.75034e-07
1.1757e-05
2.72663e-07
1.1842e-05
2.67863e-07
1.19211e-05
2.61057e-07
1.1994e-05
2.52705e-07
1.20607e-05
2.4322e-07
1.21212e-05
2.32968e-07
1.21756e-05
2.22283e-07
1.22243e-05
2.11431e-07
1.22676e-05
2.00624e-07
1.23057e-05
1.90033e-07
1.23391e-05
1.79789e-07
1.23681e-05
1.69991e-07
1.23931e-05
1.60708e-07
1.24145e-05
1.51988e-07
1.24326e-05
1.43856e-07
1.24477e-05
1.36318e-07
1.24601e-05
1.29368e-07
1.24701e-05
1.22989e-07
1.2478e-05
1.17153e-07
1.24838e-05
1.11831e-07
1.24879e-05
1.0699e-07
1.24905e-05
1.02595e-07
1.24916e-05
9.86084e-08
1.24914e-05
9.49932e-08
1.24901e-05
9.1712e-08
1.24877e-05
8.87298e-08
1.24843e-05
8.60156e-08
1.24801e-05
8.35423e-08
1.24751e-05
8.12863e-08
1.24693e-05
7.92257e-08
1.24629e-05
7.73393e-08
1.24558e-05
7.56058e-08
1.24482e-05
7.40024e-08
1.24401e-05
7.25115e-08
1.24315e-05
7.11322e-08
1.24224e-05
6.985e-08
1.24128e-05
6.86587e-08
1.24028e-05
6.75546e-08
1.23925e-05
6.65304e-08
1.23818e-05
6.55733e-08
1.23708e-05
6.46674e-08
1.23594e-05
6.37984e-08
1.23476e-05
6.29588e-08
1.23356e-05
6.21495e-08
1.23232e-05
6.13774e-08
1.23105e-05
6.06512e-08
1.22976e-05
5.99767e-08
1.22844e-05
5.93536e-08
1.2271e-05
5.87751e-08
1.22574e-05
5.823e-08
1.22436e-05
5.7706e-08
1.22296e-05
5.71916e-08
1.22154e-05
5.66781e-08
1.2201e-05
5.61598e-08
1.21865e-05
5.56338e-08
1.21719e-05
5.50995e-08
1.21572e-05
5.45569e-08
1.21423e-05
5.40068e-08
1.21274e-05
5.345e-08
1.21124e-05
5.28876e-08
1.20973e-05
5.23212e-08
1.20822e-05
5.17526e-08
1.2067e-05
5.11834e-08
1.20518e-05
5.06148e-08
1.20365e-05
5.0048e-08
1.20213e-05
4.94844e-08
1.2006e-05
4.89259e-08
1.19907e-05
4.83742e-08
1.19754e-05
4.78308e-08
1.19601e-05
4.72963e-08
1.19448e-05
4.67713e-08
1.19295e-05
4.62562e-08
1.19141e-05
4.57515e-08
1.18988e-05
4.52577e-08
1.18835e-05
4.47747e-08
1.18681e-05
4.43014e-08
1.18528e-05
4.38361e-08
1.18376e-05
4.33764e-08
1.18223e-05
4.29202e-08
1.18071e-05
4.24654e-08
1.1792e-05
4.20101e-08
1.17769e-05
4.15515e-08
1.1762e-05
4.10873e-08
1.17471e-05
4.06152e-08
1.17324e-05
4.01341e-08
1.17179e-05
3.96438e-08
1.17036e-05
3.91445e-08
1.16895e-05
3.86362e-08
1.16757e-05
3.81191e-08
1.16621e-05
3.75942e-08
1.16487e-05
3.70633e-08
1.16356e-05
3.65274e-08
1.16228e-05
3.59907e-08
1.16102e-05
3.54484e-08
1.15979e-05
3.49104e-08
1.15858e-05
3.43579e-08
1.15739e-05
3.38186e-08
1.15621e-05
3.3242e-08
1.15505e-05
3.27048e-08
1.15391e-05
3.20738e-08
1.15277e-05
3.15504e-08
1.15165e-05
3.0798e-08
1.15053e-05
3.03203e-08
1.14943e-05
2.93232e-08
1.14831e-05
2.89824e-08
1.14726e-05
2.75001e-08
1.14617e-05
2.74331e-08
2.51256e-08
1.08049e-05
1.4712e-08
1.08292e-05
4.39245e-08
1.08682e-05
7.16408e-08
1.092e-05
9.66299e-08
1.09831e-05
1.18459e-07
1.10558e-05
1.37035e-07
1.11362e-05
1.5227e-07
1.12224e-05
1.64088e-07
1.13126e-05
1.72574e-07
1.14052e-05
1.7804e-07
1.14989e-05
1.80863e-07
1.15925e-05
1.81431e-07
1.1685e-05
1.80096e-07
1.17757e-05
1.77152e-07
1.18638e-05
1.72888e-07
1.19489e-05
1.67611e-07
1.20305e-05
1.61589e-07
1.21084e-05
1.55033e-07
1.21825e-05
1.48239e-07
1.22525e-05
1.41356e-07
1.23186e-05
1.34512e-07
1.23808e-05
1.2781e-07
1.24392e-05
1.21319e-07
1.24941e-05
1.15097e-07
1.25456e-05
1.09188e-07
1.25939e-05
1.03626e-07
1.26393e-05
9.84273e-08
1.26819e-05
9.35992e-08
1.27221e-05
8.91387e-08
1.276e-05
8.50364e-08
1.27959e-05
8.12777e-08
1.28298e-05
7.78443e-08
1.2862e-05
7.47165e-08
1.28927e-05
7.18736e-08
1.2922e-05
6.9294e-08
1.29499e-05
6.69547e-08
1.29768e-05
6.48328e-08
1.30026e-05
6.29065e-08
1.30274e-05
6.11563e-08
1.30513e-05
5.95656e-08
1.30744e-05
5.81196e-08
1.30968e-05
5.68046e-08
1.31185e-05
5.56073e-08
1.31396e-05
5.4515e-08
1.31601e-05
5.35152e-08
1.318e-05
5.25979e-08
1.31994e-05
5.17566e-08
1.32182e-05
5.09841e-08
1.32366e-05
5.02758e-08
1.32546e-05
4.96292e-08
1.32721e-05
4.90403e-08
1.32892e-05
4.85017e-08
1.33059e-05
4.80029e-08
1.33222e-05
4.75339e-08
1.3338e-05
4.7089e-08
1.33535e-05
4.66688e-08
1.33686e-05
4.62773e-08
1.33834e-05
4.59182e-08
1.33977e-05
4.55971e-08
1.34117e-05
4.53136e-08
1.34253e-05
4.50629e-08
1.34386e-05
4.48366e-08
1.34516e-05
4.46255e-08
1.34643e-05
4.44207e-08
1.34766e-05
4.4215e-08
1.34886e-05
4.40037e-08
1.35003e-05
4.37843e-08
1.35117e-05
4.35557e-08
1.35227e-05
4.33175e-08
1.35335e-05
4.30696e-08
1.3544e-05
4.28123e-08
1.35542e-05
4.25464e-08
1.35642e-05
4.22731e-08
1.35739e-05
4.19939e-08
1.35834e-05
4.17105e-08
1.35926e-05
4.14239e-08
1.36016e-05
4.11357e-08
1.36103e-05
4.08469e-08
1.36188e-05
4.05591e-08
1.36271e-05
4.02737e-08
1.36351e-05
3.9992e-08
1.36429e-05
3.97148e-08
1.36505e-05
3.94427e-08
1.36578e-05
3.91762e-08
1.36649e-05
3.89153e-08
1.36717e-05
3.86601e-08
1.36782e-05
3.84102e-08
1.36845e-05
3.81646e-08
1.36905e-05
3.79219e-08
1.36963e-05
3.76804e-08
1.37017e-05
3.74384e-08
1.37069e-05
3.7194e-08
1.37117e-05
3.69456e-08
1.37163e-05
3.6691e-08
1.37207e-05
3.64283e-08
1.37247e-05
3.61556e-08
1.37286e-05
3.58727e-08
1.37322e-05
3.55789e-08
1.37355e-05
3.52744e-08
1.37387e-05
3.49587e-08
1.37418e-05
3.46322e-08
1.37447e-05
3.42943e-08
1.37475e-05
3.39484e-08
1.37502e-05
3.35918e-08
1.37528e-05
3.32339e-08
1.37554e-05
3.28621e-08
1.37579e-05
3.24961e-08
1.37605e-05
3.21029e-08
1.37631e-05
3.17281e-08
1.37657e-05
3.12973e-08
1.37683e-05
3.09234e-08
1.37709e-05
3.04276e-08
1.37734e-05
3.00779e-08
1.37757e-05
2.94586e-08
1.37781e-05
2.91656e-08
1.37803e-05
2.83154e-08
1.37825e-05
2.81504e-08
1.37843e-05
2.68747e-08
1.37858e-05
2.70013e-08
2.48286e-08
1.08044e-05
7.24118e-09
1.08267e-05
2.15825e-08
1.0863e-05
3.52946e-08
1.09118e-05
4.77606e-08
1.09715e-05
5.86739e-08
1.10406e-05
6.79581e-08
1.11172e-05
7.56132e-08
1.11996e-05
8.16231e-08
1.12861e-05
8.60027e-08
1.13753e-05
8.88815e-08
1.14657e-05
9.04384e-08
1.15562e-05
9.08649e-08
1.16459e-05
9.03383e-08
1.1734e-05
8.90151e-08
1.18199e-05
8.70399e-08
1.19029e-05
8.45507e-08
1.19828e-05
8.17014e-08
1.20591e-05
7.86154e-08
1.2132e-05
7.54068e-08
1.22011e-05
7.21542e-08
1.22667e-05
6.892e-08
1.23287e-05
6.57712e-08
1.23873e-05
6.27048e-08
1.24426e-05
5.97381e-08
1.24949e-05
5.68981e-08
1.25442e-05
5.42111e-08
1.25909e-05
5.16866e-08
1.26352e-05
4.93268e-08
1.26771e-05
4.71315e-08
1.2717e-05
4.50983e-08
1.2755e-05
4.32223e-08
1.27913e-05
4.14972e-08
1.28261e-05
3.99153e-08
1.28594e-05
3.8468e-08
1.28915e-05
3.71459e-08
1.29225e-05
3.59387e-08
1.29524e-05
3.48363e-08
1.29815e-05
3.38292e-08
1.30097e-05
3.29088e-08
1.30371e-05
3.20679e-08
1.30639e-05
3.13002e-08
1.30901e-05
3.06e-08
1.31157e-05
2.99617e-08
1.31408e-05
2.93799e-08
1.31655e-05
2.88494e-08
1.31897e-05
2.83653e-08
1.32135e-05
2.7924e-08
1.3237e-05
2.7523e-08
1.32601e-05
2.71609e-08
1.32829e-05
2.68366e-08
1.33054e-05
2.65482e-08
1.33277e-05
2.62915e-08
1.33497e-05
2.60607e-08
1.33714e-05
2.58501e-08
1.33928e-05
2.56568e-08
1.3414e-05
2.54809e-08
1.3435e-05
2.5325e-08
1.34557e-05
2.51923e-08
1.34762e-05
2.50851e-08
1.34965e-05
2.5003e-08
1.35165e-05
2.49424e-08
1.35364e-05
2.48978e-08
1.3556e-05
2.48629e-08
1.35755e-05
2.48316e-08
1.35948e-05
2.4798e-08
1.36139e-05
2.47584e-08
1.36328e-05
2.47111e-08
1.36515e-05
2.46545e-08
1.36701e-05
2.4588e-08
1.36885e-05
2.45117e-08
1.37067e-05
2.44256e-08
1.37248e-05
2.43299e-08
1.37427e-05
2.42256e-08
1.37605e-05
2.41142e-08
1.37782e-05
2.39976e-08
1.37958e-05
2.38774e-08
1.38132e-05
2.37548e-08
1.38305e-05
2.36308e-08
1.38477e-05
2.35062e-08
1.38647e-05
2.3382e-08
1.38817e-05
2.32597e-08
1.38985e-05
2.31402e-08
1.39152e-05
2.30239e-08
1.39317e-05
2.29108e-08
1.39481e-05
2.28001e-08
1.39644e-05
2.26914e-08
1.39804e-05
2.25845e-08
1.39963e-05
2.24791e-08
1.4012e-05
2.23744e-08
1.40276e-05
2.22694e-08
1.40429e-05
2.21625e-08
1.4058e-05
2.20521e-08
1.40728e-05
2.19372e-08
1.40875e-05
2.18171e-08
1.41019e-05
2.16917e-08
1.41161e-05
2.15604e-08
1.41301e-05
2.14231e-08
1.41438e-05
2.12793e-08
1.41574e-05
2.11291e-08
1.41707e-05
2.09721e-08
1.41838e-05
2.08092e-08
1.41968e-05
2.06398e-08
1.42097e-05
2.04663e-08
1.42225e-05
2.02864e-08
1.42352e-05
2.01056e-08
1.42477e-05
1.99154e-08
1.42602e-05
1.9727e-08
1.42727e-05
1.95211e-08
1.42851e-05
1.93238e-08
1.42976e-05
1.90952e-08
1.43102e-05
1.88954e-08
1.43227e-05
1.86325e-08
1.43352e-05
1.8442e-08
1.43475e-05
1.81188e-08
1.43597e-05
1.79506e-08
1.43717e-05
1.75209e-08
1.43838e-05
1.74005e-08
1.43953e-05
1.67713e-08
1.44073e-05
1.67277e-08
1.57394e-08
1.0804e-05
6.01079e-11
1.08254e-05
1.79625e-10
1.08604e-05
2.95317e-10
1.09077e-05
4.03818e-10
1.09658e-05
5.04028e-10
1.10331e-05
5.98946e-10
1.1108e-05
6.94359e-10
1.11888e-05
7.96293e-10
1.12738e-05
9.10103e-10
1.13616e-05
1.03953e-09
1.14509e-05
1.184e-09
1.15404e-05
1.34455e-09
1.16291e-05
1.52413e-09
1.17164e-05
1.72059e-09
1.18015e-05
1.93121e-09
1.18839e-05
2.1553e-09
1.19631e-05
2.40578e-09
1.2039e-05
2.68287e-09
1.21115e-05
2.96883e-09
1.21803e-05
3.26826e-09
1.22456e-05
3.57488e-09
1.23075e-05
3.87715e-09
1.2366e-05
4.15717e-09
1.24213e-05
4.40027e-09
1.24736e-05
4.59075e-09
1.2523e-05
4.76922e-09
1.25697e-05
4.92182e-09
1.2614e-05
5.04293e-09
1.26559e-05
5.13186e-09
1.26958e-05
5.18954e-09
1.27337e-05
5.2182e-09
1.27699e-05
5.22103e-09
1.28046e-05
5.20148e-09
1.28379e-05
5.1627e-09
1.28699e-05
5.10762e-09
1.29007e-05
5.03917e-09
1.29305e-05
4.96021e-09
1.29594e-05
4.87337e-09
1.29875e-05
4.78095e-09
1.30149e-05
4.68533e-09
1.30416e-05
4.58932e-09
1.30676e-05
4.49599e-09
1.30932e-05
4.40805e-09
1.31182e-05
4.3273e-09
1.31428e-05
4.25481e-09
1.31669e-05
4.19136e-09
1.31907e-05
4.13796e-09
1.32141e-05
4.09599e-09
1.32372e-05
4.06692e-09
1.32601e-05
4.05183e-09
1.32826e-05
4.05099e-09
1.33048e-05
4.06343e-09
1.33268e-05
4.08728e-09
1.33486e-05
4.12054e-09
1.33701e-05
4.16198e-09
1.33914e-05
4.21213e-09
1.34125e-05
4.27286e-09
1.34333e-05
4.34645e-09
1.34539e-05
4.43443e-09
1.34743e-05
4.53665e-09
1.34946e-05
4.65098e-09
1.35146e-05
4.77369e-09
1.35344e-05
4.90029e-09
1.35541e-05
5.02625e-09
1.35736e-05
5.14763e-09
1.3593e-05
5.26144e-09
1.36122e-05
5.36574e-09
1.36312e-05
5.45905e-09
1.36501e-05
5.54059e-09
1.36688e-05
5.61025e-09
1.36874e-05
5.66843e-09
1.37059e-05
5.71597e-09
1.37243e-05
5.75395e-09
1.37425e-05
5.78365e-09
1.37607e-05
5.8065e-09
1.37788e-05
5.82404e-09
1.37967e-05
5.83776e-09
1.38146e-05
5.84897e-09
1.38324e-05
5.85873e-09
1.38501e-05
5.8678e-09
1.38677e-05
5.8767e-09
1.38852e-05
5.88577e-09
1.39026e-05
5.89515e-09
1.39199e-05
5.90479e-09
1.3937e-05
5.9144e-09
1.39541e-05
5.92346e-09
1.3971e-05
5.93131e-09
1.39877e-05
5.93724e-09
1.40043e-05
5.94064e-09
1.40208e-05
5.94102e-09
1.4037e-05
5.938e-09
1.40531e-05
5.93132e-09
1.40689e-05
5.92085e-09
1.40846e-05
5.90665e-09
1.41001e-05
5.88892e-09
1.41154e-05
5.86805e-09
1.41305e-05
5.84462e-09
1.41454e-05
5.8192e-09
1.41601e-05
5.79237e-09
1.41746e-05
5.7645e-09
1.4189e-05
5.73592e-09
1.42033e-05
5.70665e-09
1.42175e-05
5.67668e-09
1.42316e-05
5.64567e-09
1.42456e-05
5.61335e-09
1.42595e-05
5.57894e-09
1.42734e-05
5.5423e-09
1.42873e-05
5.50254e-09
1.43012e-05
5.46013e-09
1.43152e-05
5.41447e-09
1.43293e-05
5.36694e-09
1.43433e-05
5.31759e-09
1.43574e-05
5.26867e-09
1.43711e-05
5.22091e-09
1.43849e-05
5.17709e-09
1.43985e-05
5.1389e-09
1.44121e-05
5.10675e-09
1.44253e-05
5.07984e-09
1.44388e-05
5.05413e-09
5.06096e-09
1.0804e-05
-7.11813e-09
1.08254e-05
-2.12161e-08
1.08603e-05
-3.4695e-08
1.09076e-05
-4.69458e-08
1.09658e-05
-5.76628e-08
1.10331e-05
-6.67628e-08
1.1108e-05
-7.4233e-08
1.11888e-05
-8.00438e-08
1.12738e-05
-8.41988e-08
1.13617e-05
-8.682e-08
1.14509e-05
-8.80844e-08
1.15404e-05
-8.81831e-08
1.16292e-05
-8.72945e-08
1.17165e-05
-8.55787e-08
1.18016e-05
-8.31841e-08
1.18839e-05
-8.0252e-08
1.19632e-05
-7.69114e-08
1.20392e-05
-7.3291e-08
1.21116e-05
-6.95032e-08
1.21805e-05
-6.56338e-08
1.22458e-05
-6.17737e-08
1.23077e-05
-5.79922e-08
1.23662e-05
-5.4355e-08
1.24214e-05
-5.09001e-08
1.24736e-05
-4.76419e-08
1.25229e-05
-4.45914e-08
1.25696e-05
-4.17628e-08
1.26137e-05
-3.91646e-08
1.26556e-05
-3.67974e-08
1.26954e-05
-3.46561e-08
1.27333e-05
-3.27306e-08
1.27695e-05
-3.1008e-08
1.28041e-05
-2.94732e-08
1.28373e-05
-2.81109e-08
1.28693e-05
-2.69052e-08
1.29001e-05
-2.584e-08
1.29299e-05
-2.48998e-08
1.29588e-05
-2.40705e-08
1.29869e-05
-2.33395e-08
1.30143e-05
-2.26943e-08
1.30409e-05
-2.21225e-08
1.3067e-05
-2.16116e-08
1.30926e-05
-2.11511e-08
1.31176e-05
-2.07321e-08
1.31422e-05
-2.03476e-08
1.31664e-05
-1.99914e-08
1.31902e-05
-1.96579e-08
1.32136e-05
-1.93418e-08
1.32367e-05
-1.90384e-08
1.32595e-05
-1.87441e-08
1.32821e-05
-1.84559e-08
1.33043e-05
-1.81721e-08
1.33263e-05
-1.78912e-08
1.33481e-05
-1.76121e-08
1.33696e-05
-1.73356e-08
1.33909e-05
-1.70603e-08
1.3412e-05
-1.67841e-08
1.34328e-05
-1.65045e-08
1.34534e-05
-1.62197e-08
1.34738e-05
-1.59296e-08
1.34941e-05
-1.56354e-08
1.35141e-05
-1.53398e-08
1.35339e-05
-1.50463e-08
1.35536e-05
-1.47583e-08
1.35731e-05
-1.44785e-08
1.35924e-05
-1.42089e-08
1.36115e-05
-1.39513e-08
1.36305e-05
-1.37071e-08
1.36494e-05
-1.34771e-08
1.36681e-05
-1.32615e-08
1.36867e-05
-1.30596e-08
1.37051e-05
-1.28697e-08
1.37235e-05
-1.26905e-08
1.37417e-05
-1.25208e-08
1.37598e-05
-1.23595e-08
1.37779e-05
-1.22052e-08
1.37958e-05
-1.20563e-08
1.38137e-05
-1.19109e-08
1.38315e-05
-1.17676e-08
1.38491e-05
-1.16258e-08
1.38667e-05
-1.14857e-08
1.38842e-05
-1.13478e-08
1.39016e-05
-1.12124e-08
1.39188e-05
-1.10795e-08
1.3936e-05
-1.09491e-08
1.3953e-05
-1.08218e-08
1.39699e-05
-1.06985e-08
1.39866e-05
-1.05805e-08
1.40032e-05
-1.04685e-08
1.40196e-05
-1.03624e-08
1.40358e-05
-1.02614e-08
1.40518e-05
-1.01647e-08
1.40677e-05
-1.00713e-08
1.40833e-05
-9.98037e-09
1.40988e-05
-9.89123e-09
1.41141e-05
-9.80268e-09
1.41292e-05
-9.71332e-09
1.4144e-05
-9.62159e-09
1.41587e-05
-9.52618e-09
1.41732e-05
-9.42605e-09
1.41876e-05
-9.32102e-09
1.42018e-05
-9.21084e-09
1.4216e-05
-9.09787e-09
1.42301e-05
-8.98064e-09
1.42441e-05
-8.86506e-09
1.4258e-05
-8.74433e-09
1.42719e-05
-8.62995e-09
1.42857e-05
-8.50498e-09
1.42997e-05
-8.39384e-09
1.43136e-05
-8.25883e-09
1.43278e-05
-8.15603e-09
1.43418e-05
-7.99541e-09
1.43558e-05
-7.90552e-09
1.43696e-05
-7.68234e-09
1.43834e-05
-7.60559e-09
1.4397e-05
-7.2552e-09
1.44107e-05
-7.20227e-09
1.44239e-05
-6.61226e-09
1.44373e-05
-6.61331e-09
-5.63595e-09
1.08044e-05
-1.45809e-08
1.08266e-05
-4.3534e-08
1.08629e-05
-7.10119e-08
1.09117e-05
-9.57903e-08
1.09714e-05
-1.17435e-07
1.10405e-05
-1.35842e-07
1.11171e-05
-1.50911e-07
1.11996e-05
-1.62547e-07
1.12861e-05
-1.70824e-07
1.13753e-05
-1.7604e-07
1.14658e-05
-1.78567e-07
1.15564e-05
-1.78795e-07
1.16461e-05
-1.77082e-07
1.17343e-05
-1.73736e-07
1.18201e-05
-1.6905e-07
1.19031e-05
-1.63313e-07
1.1983e-05
-1.56799e-07
1.20594e-05
-1.49752e-07
1.21323e-05
-1.42376e-07
1.22015e-05
-1.34841e-07
1.2267e-05
-1.27346e-07
1.2329e-05
-1.2001e-07
1.23876e-05
-1.12934e-07
1.24428e-05
-1.06191e-07
1.2495e-05
-9.98303e-08
1.25442e-05
-9.38852e-08
1.25908e-05
-8.83744e-08
1.26349e-05
-8.33046e-08
1.26767e-05
-7.86723e-08
1.27165e-05
-7.44648e-08
1.27543e-05
-7.06619e-08
1.27905e-05
-6.72386e-08
1.28252e-05
-6.41671e-08
1.28584e-05
-6.14187e-08
1.28904e-05
-5.89642e-08
1.29213e-05
-5.67751e-08
1.29512e-05
-5.48233e-08
1.29802e-05
-5.30833e-08
1.30083e-05
-5.15328e-08
1.30357e-05
-5.01491e-08
1.30625e-05
-4.89094e-08
1.30886e-05
-4.77927e-08
1.31142e-05
-4.67808e-08
1.31393e-05
-4.58582e-08
1.3164e-05
-4.50114e-08
1.31882e-05
-4.42292e-08
1.32121e-05
-4.35017e-08
1.32355e-05
-4.28193e-08
1.32587e-05
-4.21744e-08
1.32815e-05
-4.15605e-08
1.33041e-05
-4.09722e-08
1.33263e-05
-4.04047e-08
1.33483e-05
-3.98545e-08
1.33701e-05
-3.93188e-08
1.33915e-05
-3.87958e-08
1.34128e-05
-3.82836e-08
1.34338e-05
-3.77799e-08
1.34545e-05
-3.72806e-08
1.34751e-05
-3.67837e-08
1.34954e-05
-3.62891e-08
1.35155e-05
-3.57975e-08
1.35354e-05
-3.5311e-08
1.35551e-05
-3.4832e-08
1.35745e-05
-3.43628e-08
1.35938e-05
-3.39055e-08
1.36129e-05
-3.34618e-08
1.36318e-05
-3.30332e-08
1.36506e-05
-3.26206e-08
1.36692e-05
-3.22249e-08
1.36876e-05
-3.18458e-08
1.37059e-05
-3.14823e-08
1.3724e-05
-3.11329e-08
1.3742e-05
-3.07963e-08
1.37599e-05
-3.04709e-08
1.37776e-05
-3.01549e-08
1.37953e-05
-2.98464e-08
1.38128e-05
-2.95436e-08
1.38302e-05
-2.92448e-08
1.38476e-05
-2.89492e-08
1.38648e-05
-2.86563e-08
1.38819e-05
-2.83662e-08
1.38988e-05
-2.80793e-08
1.39157e-05
-2.7796e-08
1.39324e-05
-2.7517e-08
1.3949e-05
-2.72434e-08
1.39654e-05
-2.69763e-08
1.39817e-05
-2.67167e-08
1.39978e-05
-2.64653e-08
1.40137e-05
-2.62221e-08
1.40294e-05
-2.59867e-08
1.40449e-05
-2.57586e-08
1.40603e-05
-2.55364e-08
1.40754e-05
-2.53186e-08
1.40903e-05
-2.51026e-08
1.4105e-05
-2.48863e-08
1.41194e-05
-2.46669e-08
1.41337e-05
-2.44427e-08
1.41477e-05
-2.42118e-08
1.41616e-05
-2.39726e-08
1.41752e-05
-2.37239e-08
1.41887e-05
-2.34652e-08
1.4202e-05
-2.31961e-08
1.42152e-05
-2.29198e-08
1.42283e-05
-2.26341e-08
1.42413e-05
-2.23491e-08
1.42543e-05
-2.20542e-08
1.42671e-05
-2.17698e-08
1.42799e-05
-2.14652e-08
1.42928e-05
-2.11849e-08
1.43056e-05
-2.08566e-08
1.43186e-05
-2.05892e-08
1.43315e-05
-2.02055e-08
1.43445e-05
-1.99662e-08
1.43571e-05
-1.94567e-08
1.43698e-05
-1.92635e-08
1.43822e-05
-1.85039e-08
1.43947e-05
-1.84118e-08
1.44067e-05
-1.71801e-08
1.44191e-05
-1.73153e-08
-1.51681e-08
1.08049e-05
-2.25331e-08
1.08291e-05
-6.78184e-08
1.08681e-05
-1.09995e-07
1.09199e-05
-1.47628e-07
1.09829e-05
-1.80527e-07
1.10556e-05
-2.08572e-07
1.11361e-05
-2.31415e-07
1.12223e-05
-2.4886e-07
1.13126e-05
-2.6113e-07
1.14053e-05
-2.68772e-07
1.14991e-05
-2.72378e-07
1.15928e-05
-2.72528e-07
1.16854e-05
-2.6976e-07
1.17762e-05
-2.64522e-07
1.18644e-05
-2.57258e-07
1.19495e-05
-2.4841e-07
1.2031e-05
-2.38394e-07
1.21088e-05
-2.27573e-07
1.21827e-05
-2.16269e-07
1.22526e-05
-2.04764e-07
1.23185e-05
-1.93304e-07
1.23806e-05
-1.82087e-07
1.24389e-05
-1.71264e-07
1.24936e-05
-1.60949e-07
1.25449e-05
-1.5122e-07
1.25931e-05
-1.4213e-07
1.26384e-05
-1.33704e-07
1.2681e-05
-1.25949e-07
1.27212e-05
-1.18855e-07
1.27591e-05
-1.12402e-07
1.27949e-05
-1.06557e-07
1.28289e-05
-1.01282e-07
1.28612e-05
-9.65334e-08
1.2892e-05
-9.22677e-08
1.29214e-05
-8.84391e-08
1.29496e-05
-8.50051e-08
1.29767e-05
-8.19242e-08
1.30027e-05
-7.91599e-08
1.30278e-05
-7.6679e-08
1.30521e-05
-7.44456e-08
1.30755e-05
-7.24253e-08
1.30983e-05
-7.05883e-08
1.31204e-05
-6.89096e-08
1.31419e-05
-6.73673e-08
1.31628e-05
-6.59405e-08
1.31832e-05
-6.46129e-08
1.32031e-05
-6.33706e-08
1.32224e-05
-6.22e-08
1.32414e-05
-6.1091e-08
1.32599e-05
-6.00346e-08
1.32779e-05
-5.90229e-08
1.32956e-05
-5.80491e-08
1.33129e-05
-5.71077e-08
1.33298e-05
-5.61942e-08
1.33463e-05
-5.53049e-08
1.33625e-05
-5.44363e-08
1.33783e-05
-5.35853e-08
1.33937e-05
-5.27484e-08
1.34089e-05
-5.19233e-08
1.34236e-05
-5.11093e-08
1.34381e-05
-5.03067e-08
1.34522e-05
-4.95169e-08
1.3466e-05
-4.87417e-08
1.34795e-05
-4.79828e-08
1.34927e-05
-4.72414e-08
1.35056e-05
-4.65185e-08
1.35182e-05
-4.58152e-08
1.35306e-05
-4.51326e-08
1.35427e-05
-4.44712e-08
1.35545e-05
-4.38303e-08
1.35661e-05
-4.32086e-08
1.35774e-05
-4.26044e-08
1.35886e-05
-4.20163e-08
1.35995e-05
-4.14424e-08
1.36102e-05
-4.08806e-08
1.36207e-05
-4.03284e-08
1.3631e-05
-3.97838e-08
1.36411e-05
-3.92452e-08
1.3651e-05
-3.87122e-08
1.36607e-05
-3.81846e-08
1.36702e-05
-3.76629e-08
1.36795e-05
-3.71474e-08
1.36886e-05
-3.66386e-08
1.36975e-05
-3.61373e-08
1.37061e-05
-3.56452e-08
1.37145e-05
-3.5164e-08
1.37227e-05
-3.46952e-08
1.37306e-05
-3.42395e-08
1.37383e-05
-3.37967e-08
1.37457e-05
-3.33657e-08
1.37528e-05
-3.29454e-08
1.37597e-05
-3.25342e-08
1.37663e-05
-3.21303e-08
1.37727e-05
-3.17306e-08
1.37788e-05
-3.13321e-08
1.37846e-05
-3.09313e-08
1.37902e-05
-3.05261e-08
1.37956e-05
-3.01143e-08
1.38008e-05
-2.96946e-08
1.38057e-05
-2.92657e-08
1.38106e-05
-2.88273e-08
1.38153e-05
-2.83799e-08
1.38199e-05
-2.79256e-08
1.38243e-05
-2.74654e-08
1.38288e-05
-2.70052e-08
1.38331e-05
-2.65409e-08
1.38374e-05
-2.60856e-08
1.38417e-05
-2.56197e-08
1.3846e-05
-2.51746e-08
1.38504e-05
-2.46945e-08
1.38547e-05
-2.42633e-08
1.3859e-05
-2.37339e-08
1.38632e-05
-2.33241e-08
1.38673e-05
-2.26643e-08
1.38713e-05
-2.22976e-08
1.38752e-05
-2.13609e-08
1.38791e-05
-2.11164e-08
1.38825e-05
-1.96421e-08
1.38858e-05
-1.96555e-08
-1.719e-08
1.0806e-05
-3.15606e-08
1.08334e-05
-9.52129e-08
1.08769e-05
-1.53521e-07
1.09346e-05
-2.0544e-07
1.10055e-05
-2.5142e-07
1.10875e-05
-2.90637e-07
1.1178e-05
-3.21968e-07
1.12741e-05
-3.44985e-07
1.13731e-05
-3.60162e-07
1.14726e-05
-3.6833e-07
1.15707e-05
-3.70457e-07
1.16657e-05
-3.6755e-07
1.17563e-05
-3.60435e-07
1.18417e-05
-3.49913e-07
1.19212e-05
-3.36778e-07
1.19945e-05
-3.21752e-07
1.20615e-05
-3.05466e-07
1.21224e-05
-2.88448e-07
1.21772e-05
-2.71143e-07
1.22264e-05
-2.53918e-07
1.22701e-05
-2.37065e-07
1.23088e-05
-2.20821e-07
1.23429e-05
-2.05353e-07
1.23727e-05
-1.90775e-07
1.23986e-05
-1.77161e-07
1.24209e-05
-1.64546e-07
1.24401e-05
-1.52935e-07
1.24564e-05
-1.4231e-07
1.24702e-05
-1.32636e-07
1.24816e-05
-1.23866e-07
1.24909e-05
-1.15942e-07
1.24984e-05
-1.08801e-07
1.25042e-05
-1.02377e-07
1.25085e-05
-9.66031e-08
1.25114e-05
-9.14135e-08
1.25131e-05
-8.67431e-08
1.25137e-05
-8.25376e-08
1.25132e-05
-7.87631e-08
1.25119e-05
-7.53674e-08
1.25097e-05
-7.22967e-08
1.25067e-05
-6.95069e-08
1.25031e-05
-6.69622e-08
1.24988e-05
-6.46312e-08
1.24939e-05
-6.24863e-08
1.24885e-05
-6.05039e-08
1.24825e-05
-5.86629e-08
1.24761e-05
-5.69392e-08
1.24692e-05
-5.53208e-08
1.24619e-05
-5.37949e-08
1.24542e-05
-5.23499e-08
1.24462e-05
-5.09759e-08
1.24378e-05
-4.96646e-08
1.24291e-05
-4.84089e-08
1.24202e-05
-4.7203e-08
1.24109e-05
-4.60416e-08
1.24013e-05
-4.49203e-08
1.23916e-05
-4.38349e-08
1.23815e-05
-4.27821e-08
1.23713e-05
-4.1759e-08
1.23609e-05
-4.07639e-08
1.23503e-05
-3.97962e-08
1.23395e-05
-3.88559e-08
1.23286e-05
-3.79442e-08
1.23176e-05
-3.70624e-08
1.23064e-05
-3.62098e-08
1.22952e-05
-3.53849e-08
1.22839e-05
-3.45883e-08
1.22725e-05
-3.3821e-08
1.2261e-05
-3.30825e-08
1.22495e-05
-3.23716e-08
1.22379e-05
-3.16859e-08
1.22264e-05
-3.10238e-08
1.22148e-05
-3.03838e-08
1.22031e-05
-2.97631e-08
1.21915e-05
-2.91595e-08
1.21798e-05
-2.85708e-08
1.21681e-05
-2.79951e-08
1.21565e-05
-2.74309e-08
1.21447e-05
-2.68776e-08
1.2133e-05
-2.6335e-08
1.21213e-05
-2.58034e-08
1.21095e-05
-2.52834e-08
1.20977e-05
-2.47758e-08
1.20859e-05
-2.42816e-08
1.20741e-05
-2.3802e-08
1.20622e-05
-2.33385e-08
1.20504e-05
-2.28921e-08
1.20385e-05
-2.2463e-08
1.20266e-05
-2.20511e-08
1.20147e-05
-2.16552e-08
1.20028e-05
-2.1274e-08
1.19909e-05
-2.09056e-08
1.1979e-05
-2.05479e-08
1.19672e-05
-2.0198e-08
1.19554e-05
-1.98532e-08
1.19437e-05
-1.95103e-08
1.19321e-05
-1.91675e-08
1.19206e-05
-1.88228e-08
1.19092e-05
-1.84752e-08
1.1898e-05
-1.81237e-08
1.1887e-05
-1.77687e-08
1.18761e-05
-1.74102e-08
1.18655e-05
-1.70511e-08
1.1855e-05
-1.66916e-08
1.18447e-05
-1.63366e-08
1.18347e-05
-1.5984e-08
1.18248e-05
-1.56401e-08
1.1815e-05
-1.52975e-08
1.18054e-05
-1.49658e-08
1.17959e-05
-1.46276e-08
1.17864e-05
-1.43013e-08
1.1777e-05
-1.39486e-08
1.17676e-05
-1.36136e-08
1.17583e-05
-1.32055e-08
1.17488e-05
-1.28417e-08
1.17395e-05
-1.23065e-08
1.17299e-05
-1.18995e-08
1.17208e-05
-1.11158e-08
1.17112e-05
-1.07697e-08
-9.57044e-09
1.08169e-05
-5.13792e-08
1.08642e-05
-1.42533e-07
1.09302e-05
-2.19515e-07
1.10072e-05
-2.82565e-07
1.10871e-05
-3.31297e-07
1.11615e-05
-3.65137e-07
1.12246e-05
-3.85032e-07
1.12726e-05
-3.93033e-07
1.13041e-05
-3.9178e-07
1.13191e-05
-3.83283e-07
1.13182e-05
-3.69617e-07
1.13031e-05
-3.5253e-07
1.12755e-05
-3.32821e-07
1.12371e-05
-3.11518e-07
1.11897e-05
-2.89454e-07
1.11352e-05