/*--------------------------------*- C++ -*----------------------------------*\
  =========                 |
  \\      /  F ield         | OpenFOAM: The Open Source CFD Toolbox
   \\    /   O peration     | Website:  https://openfoam.org
    \\  /    A nd           | Version:  7
     \\/     M anipulation  |
\*---------------------------------------------------------------------------*/
FoamFile
{
    version     2.0;
    format      ascii;
    class       surfaceScalarField;
    location    "0.435";
    object      phi;
}
// * * * * * * * * * * * * * * * * * * * * * * * * * * * * * * * * * * * * * //

dimensions      [1 0 -1 0 0 0 0];

internalField   nonuniform List<scalar> 
3120
(
2.38465e-08
3.53149e-08
1.06465e-08
1.32102e-08
5.14454e-09
5.51247e-09
2.67646e-09
2.477e-09
1.50921e-09
1.17513e-09
9.13729e-10
6.02784e-10
5.7575e-10
3.45141e-10
3.64054e-10
2.19098e-10
2.25008e-10
1.46905e-10
1.34035e-10
9.93336e-11
7.83836e-11
6.44648e-11
4.81489e-11
3.94232e-11
4.19695e-11
1.56726e-11
5.08071e-11
9.37048e-13
7.29297e-11
-1.20697e-11
1.03596e-10
-2.03109e-11
1.40467e-10
-2.61884e-11
1.8226e-10
-3.07597e-11
2.27367e-10
-3.3708e-11
2.74523e-10
-3.53893e-11
3.22653e-10
-3.6003e-11
3.71779e-10
-3.66567e-11
4.21672e-10
-3.71041e-11
4.72173e-10
-3.74146e-11
5.23175e-10
-3.76418e-11
5.74583e-10
-3.7792e-11
6.26277e-10
-3.78364e-11
6.78102e-10
-3.77361e-11
7.29793e-10
-3.73811e-11
7.81e-10
-3.66799e-11
8.31231e-10
-3.54827e-11
8.79789e-10
-3.3568e-11
9.25724e-10
-3.06425e-11
9.67611e-10
-2.61179e-11
1.00333e-09
-1.8921e-11
1.03073e-09
-8.08598e-12
1.04263e-09
1.17701e-11
1.03494e-09
3.22503e-11
9.90869e-10
8.86249e-11
3.71496e-10
5.1413e-08
5.51329e-08
3.29309e-08
3.17019e-08
2.11033e-08
1.73495e-08
1.38056e-08
9.78318e-09
9.29938e-09
5.68913e-09
6.41399e-09
3.49535e-09
4.47949e-09
2.28666e-09
3.13608e-09
1.5698e-09
2.184e-09
1.10684e-09
1.50492e-09
7.86854e-10
1.02369e-09
5.54629e-10
6.90459e-10
3.81978e-10
4.62511e-10
2.53236e-10
3.1725e-10
1.56067e-10
2.31844e-10
8.34507e-11
1.92529e-10
2.93921e-11
1.87768e-10
-1.07377e-11
2.08285e-10
-4.02509e-11
2.48031e-10
-6.2071e-11
3.02666e-10
-7.82743e-11
3.69191e-10
-9.04117e-11
4.45151e-10
-1.00149e-10
5.29024e-10
-1.0818e-10
6.19727e-10
-1.15014e-10
7.16428e-10
-1.20954e-10
8.18437e-10
-1.26149e-10
9.25134e-10
-1.30635e-10
1.0359e-09
-1.34364e-10
1.14999e-09
-1.37117e-10
1.2666e-09
-1.3871e-10
1.38487e-09
-1.38948e-10
1.5039e-09
-1.37553e-10
1.62258e-09
-1.33991e-10
1.74023e-09
-1.28004e-10
1.85644e-09
-1.18505e-10
1.97163e-09
-1.04554e-10
2.09074e-09
-8.42434e-11
2.21065e-09
-6.00481e-11
2.33645e-09
-1.37893e-11
1.26853e-10
4.63576e-08
4.71754e-08
4.16483e-08
3.64287e-08
3.30061e-08
2.60036e-08
2.51177e-08
1.76808e-08
1.88718e-08
1.19428e-08
1.41423e-08
8.23153e-09
1.06147e-08
5.82058e-09
7.99628e-09
4.19495e-09
6.05559e-09
3.05506e-09
4.61942e-09
2.23133e-09
3.55975e-09
1.62322e-09
2.78254e-09
1.16855e-09
2.21872e-09
8.26715e-10
1.81586e-09
5.68807e-10
1.53474e-09
3.74665e-10
1.34564e-09
2.28812e-10
1.22739e-09
1.18099e-10
1.16391e-09
3.41383e-11
1.143e-09
-2.98961e-11
1.15574e-09
-7.9368e-11
1.19571e-09
-1.18359e-10
1.25811e-09
-1.50149e-10
1.33948e-09
-1.76791e-10
1.43722e-09
-1.99678e-10
1.54933e-09
-2.19678e-10
1.67407e-09
-2.37233e-10
1.80991e-09
-2.52569e-10
1.95538e-09
-2.65686e-10
2.10906e-09
-2.76426e-10
2.26953e-09
-2.8459e-10
2.43531e-09
-2.89933e-10
2.60494e-09
-2.92157e-10
2.77713e-09
-2.90911e-10
2.9506e-09
-2.85868e-10
3.12473e-09
-2.76456e-10
3.29977e-09
-2.62104e-10
3.47798e-09
-2.41975e-10
3.65951e-09
-2.16272e-10
3.85385e-09
-1.79682e-10
-1.27579e-10
5.91142e-08
5.61506e-08
5.18268e-08
4.37245e-08
4.37035e-08
3.41353e-08
3.56562e-08
2.57361e-08
2.84968e-08
1.91089e-08
2.25362e-08
1.41976e-08
1.7769e-08
1.0593e-08
1.40449e-08
7.9251e-09
1.11726e-08
5.93449e-09
8.97258e-09
4.43953e-09
7.29492e-09
3.30978e-09
6.02094e-09
2.4519e-09
5.05862e-09
1.79869e-09
4.33676e-09
1.30051e-09
3.80102e-09
9.2038e-10
3.41008e-09
6.29906e-10
3.13121e-09
4.07363e-10
2.93897e-09
2.37055e-10
2.81716e-09
1.02958e-10
2.75145e-09
-2.22316e-12
2.73191e-09
-8.69655e-11
2.7509e-09
-1.56879e-10
2.80256e-09
-2.15807e-10
2.88243e-09
-2.66529e-10
2.98691e-09
-3.10805e-10
3.11299e-09
-3.49669e-10
3.25799e-09
-3.83655e-10
3.41944e-09
-4.1298e-10
3.59502e-09
-4.37625e-10
3.78248e-09
-4.57465e-10
3.97965e-09
-4.7231e-10
4.18442e-09
-4.81942e-10
4.39486e-09
-4.86136e-10
4.60917e-09
-4.8472e-10
4.82603e-09
-4.77494e-10
5.04477e-09
-4.6437e-10
5.26614e-09
-4.45412e-10
5.49201e-09
-4.21498e-10
5.72946e-09
-3.93323e-10
-3.66717e-10
6.16065e-08
5.47149e-08
5.68785e-08
4.84597e-08
5.05468e-08
4.04743e-08
4.34766e-08
3.28129e-08
3.65363e-08
2.60543e-08
3.02843e-08
2.04539e-08
2.49519e-08
1.59302e-08
2.0557e-08
1.23259e-08
1.70097e-08
9.48908e-09
1.41829e-08
7.2747e-09
1.19491e-08
5.55274e-09
1.01949e-08
4.21575e-09
8.82481e-09
3.1786e-09
7.76071e-09
2.37452e-09
6.93972e-09
1.75133e-09
6.31165e-09
1.26803e-09
5.83681e-09
8.92397e-10
5.48542e-09
5.98905e-10
5.23171e-09
3.67459e-10
5.05828e-09
1.8241e-10
4.95146e-09
3.14932e-11
4.90118e-09
-9.45023e-11
4.89906e-09
-2.01148e-10
4.93856e-09
-2.93089e-10
5.01432e-09
-3.7326e-10
5.12184e-09
-4.43561e-10
5.25716e-09
-5.05069e-10
5.41669e-09
-5.58342e-10
5.59706e-09
-6.03615e-10
5.79511e-09
-6.40939e-10
6.00784e-09
-6.70271e-10
6.23237e-09
-6.91532e-10
6.46601e-09
-7.04654e-10
6.70624e-09
-7.09632e-10
6.95081e-09
-7.06533e-10
7.19793e-09
-6.9563e-10
7.44653e-09
-6.77604e-10
7.69649e-09
-6.54016e-10
7.94967e-09
-6.27653e-10
-6.05412e-10
6.15332e-08
5.38063e-08
5.93424e-08
5.06577e-08
5.45087e-08
4.53149e-08
4.86817e-08
3.86454e-08
4.26311e-08
3.21095e-08
3.68476e-08
2.62418e-08
3.16098e-08
2.11733e-08
2.70401e-08
1.69022e-08
2.31585e-08
1.33786e-08
1.99245e-08
1.05178e-08
1.72674e-08
8.21956e-09
1.51071e-08
6.38618e-09
1.33651e-08
4.93081e-09
1.19702e-08
3.77954e-09
1.08605e-08
2.87104e-09
9.98363e-09
2.15488e-09
9.29625e-09
1.58982e-09
8.76325e-09
1.14213e-09
8.35676e-09
7.84483e-10
8.05501e-09
4.95088e-10
7.84034e-09
2.57567e-10
7.69947e-09
5.82682e-11
7.62279e-09
-1.12078e-10
7.60218e-09
-2.59639e-10
7.63023e-09
-3.88066e-10
7.70091e-09
-5.00631e-10
7.80894e-09
-5.99201e-10
7.94956e-09
-6.84795e-10
8.11831e-09
-7.57999e-10
8.31108e-09
-8.1914e-10
8.52394e-09
-8.68406e-10
8.7532e-09
-9.0592e-10
8.99537e-09
-9.31804e-10
9.24711e-09
-9.46215e-10
9.50529e-09
-9.49398e-10
9.76696e-09
-9.41835e-10
1.00295e-08
-9.24497e-10
1.02908e-08
-8.99268e-10
1.05492e-08
-8.69722e-10
-8.44488e-10
6.26776e-08
5.29116e-08
6.03134e-08
5.30288e-08
5.65145e-08
4.91203e-08
5.19653e-08
4.32005e-08
4.71152e-08
3.69652e-08
4.22395e-08
3.11233e-08
3.75468e-08
2.58728e-08
3.31988e-08
2.12582e-08
2.93001e-08
1.72863e-08
2.58961e-08
1.39318e-08
2.29841e-08
1.1142e-08
2.05316e-08
8.84933e-09
1.84911e-08
6.98193e-09
1.68099e-08
5.47115e-09
1.5436e-08
4.25511e-09
1.43211e-08
3.2797e-09
1.34227e-08
2.49816e-09
1.27043e-08
1.87054e-09
1.21359e-08
1.36313e-09
1.16933e-08
9.48336e-10
1.13577e-08
6.04224e-10
1.11135e-08
3.14166e-10
1.09466e-08
6.7075e-11
1.08504e-08
-1.50758e-10
1.08152e-08
-3.39737e-10
1.08337e-08
-5.05516e-10
1.08992e-08
-6.50857e-10
1.1006e-08
-7.77387e-10
1.11484e-08
-8.86108e-10
1.13215e-08
-9.77698e-10
1.15204e-08
-1.05265e-09
1.17407e-08
-1.11136e-09
1.1978e-08
-1.15418e-09
1.22282e-08
-1.18147e-09
1.24875e-08
-1.19361e-09
1.27521e-08
-1.1912e-09
1.30182e-08
-1.1753e-09
1.32821e-08
-1.14789e-09
1.35409e-08
-1.11302e-09
-1.08205e-09
6.9021e-08
6.52623e-08
6.23732e-08
5.96848e-08
5.82777e-08
5.32239e-08
5.45344e-08
4.69516e-08
5.07178e-08
4.07896e-08
4.67769e-08
3.50723e-08
4.27853e-08
2.9873e-08
3.88787e-08
2.51741e-08
3.51941e-08
2.09811e-08
3.18298e-08
1.73069e-08
2.88369e-08
1.41461e-08
2.6228e-08
1.14694e-08
2.39902e-08
9.23076e-09
2.20955e-08
7.37658e-09
2.0508e-08
5.85295e-09
1.91891e-08
4.6086e-09
1.8101e-08
3.59598e-09
1.72095e-08
2.77181e-09
1.64848e-08
2.09781e-09
1.59021e-08
1.54136e-09
1.54413e-08
1.07587e-09
1.50862e-08
6.80634e-10
1.48242e-08
3.40975e-10
1.4642e-08
4.40088e-11
1.45327e-08
-2.17342e-10
1.44875e-08
-4.46867e-10
1.44989e-08
-6.48339e-10
1.45598e-08
-8.2417e-10
1.46639e-08
-9.75881e-10
1.48053e-08
-1.10454e-09
1.49782e-08
-1.21101e-09
1.51776e-08
-1.29601e-09
1.53984e-08
-1.3602e-09
1.5636e-08
-1.40419e-09
1.58859e-08
-1.42854e-09
1.61436e-08
-1.43396e-09
1.64048e-08
-1.42154e-09
1.66652e-08
-1.39325e-09
1.69206e-08
-1.35343e-09
-1.3162e-09
5.76781e-08
6.17924e-08
5.7891e-08
5.94823e-08
5.70671e-08
5.4058e-08
5.55278e-08
4.85012e-08
5.32618e-08
4.30658e-08
5.04384e-08
3.79058e-08
4.72642e-08
3.30575e-08
4.39389e-08
2.85101e-08
4.06359e-08
2.42952e-08
3.74869e-08
2.04674e-08
3.45778e-08
1.70669e-08
3.19559e-08
1.4103e-08
2.96394e-08
1.15587e-08
2.76255e-08
9.40141e-09
2.58974e-08
7.59156e-09
2.44295e-08
6.08653e-09
2.31926e-08
4.84265e-09
2.21572e-08
3.8168e-09
2.12963e-08
2.96833e-09
2.05866e-08
2.261e-09
2.00087e-08
1.66433e-09
1.95463e-08
1.15409e-09
1.91869e-08
7.12063e-10
1.8918e-08
3.25165e-10
1.87297e-08
-1.61162e-11
1.86147e-08
-3.18496e-10
1.85646e-08
-5.8436e-10
1.85715e-08
-8.17044e-10
1.86286e-08
-1.01861e-09
1.87291e-08
-1.19057e-09
1.88668e-08
-1.33413e-09
1.90359e-08
-1.45043e-09
1.92309e-08
-1.54046e-09
1.94466e-08
-1.60517e-09
1.96782e-08
-1.64541e-09
1.99211e-08
-1.66206e-09
2.01706e-08
-1.65626e-09
2.0422e-08
-1.62994e-09
2.06708e-08
-1.58747e-09
-1.54503e-09
5.53905e-08
6.08868e-08
5.67805e-08
5.81045e-08
5.72656e-08
5.35851e-08
5.68058e-08
4.8973e-08
5.54799e-08
4.44033e-08
5.3486e-08
3.99111e-08
5.10328e-08
3.55219e-08
4.83095e-08
3.12449e-08
4.54798e-08
2.71366e-08
4.26745e-08
2.32848e-08
3.999e-08
1.97635e-08
3.74921e-08
1.66128e-08
3.5221e-08
1.38415e-08
3.31949e-08
1.14386e-08
3.14152e-08
9.38197e-09
2.98704e-08
7.64148e-09
2.85416e-08
6.18114e-09
2.74067e-08
4.96109e-09
2.64439e-08
3.94064e-09
2.56329e-08
3.0816e-09
2.49567e-08
2.35072e-09
2.44005e-08
1.72098e-09
2.39522e-08
1.17177e-09
2.36013e-08
6.88127e-10
2.33374e-08
2.60533e-10
2.31522e-08
-1.20067e-10
2.30385e-08
-4.56914e-10
2.2988e-08
-7.52496e-10
2.29933e-08
-1.00965e-09
2.30475e-08
-1.23023e-09
2.31437e-08
-1.41584e-09
2.32759e-08
-1.56797e-09
2.34381e-08
-1.68807e-09
2.3625e-08
-1.77746e-09
2.38316e-08
-1.83739e-09
2.40532e-08
-1.86902e-09
2.42851e-08
-1.87367e-09
2.4523e-08
-1.85322e-09
2.47618e-08
-1.81179e-09
-1.76649e-09
5.05639e-08
5.9537e-08
5.48091e-08
5.38729e-08
5.70543e-08
5.13532e-08
5.76412e-08
4.83989e-08
5.71395e-08
4.49175e-08
5.5866e-08
4.11966e-08
5.40669e-08
3.73329e-08
5.1937e-08
3.33867e-08
4.96266e-08
2.94591e-08
4.72516e-08
2.56721e-08
4.49022e-08
2.21253e-08
4.26482e-08
1.8879e-08
4.05406e-08
1.59611e-08
3.86116e-08
1.33791e-08
3.68765e-08
1.11279e-08
3.53369e-08
9.19132e-09
3.39848e-08
7.54306e-09
3.28066e-08
6.14861e-09
3.17872e-08
4.9693e-09
3.09116e-08
3.96662e-09
3.01662e-08
3.10591e-09
2.95392e-08
2.35841e-09
2.90201e-08
1.70192e-09
2.85997e-08
1.12032e-09
2.82702e-08
6.02526e-10
2.8022e-08
1.41318e-10
2.78484e-08
-2.69739e-10
2.77421e-08
-6.32253e-10
2.76957e-08
-9.48968e-10
2.7702e-08
-1.22211e-09
2.77543e-08
-1.45359e-09
2.78462e-08
-1.64528e-09
2.79717e-08
-1.79902e-09
2.81254e-08
-1.91662e-09
2.83023e-08
-1.99979e-09
2.84978e-08
-2.05011e-09
2.87077e-08
-2.06919e-09
2.89279e-08
-2.05901e-09
2.91536e-08
-2.0232e-09
-1.97847e-09
5.43662e-08
5.79776e-08
5.73258e-08
5.09274e-08
5.87307e-08
4.99621e-08
5.90702e-08
4.80725e-08
5.86861e-08
4.53144e-08
5.77595e-08
4.21355e-08
5.6433e-08
3.86717e-08
5.48263e-08
3.50056e-08
5.30352e-08
3.12626e-08
5.11374e-08
2.75823e-08
4.92009e-08
2.40743e-08
4.72863e-08
2.08061e-08
4.54443e-08
1.78152e-08
4.37129e-08
1.51221e-08
4.21162e-08
1.27357e-08
4.06655e-08
1.06524e-08
3.93627e-08
8.85567e-09
3.82034e-08
7.31722e-09
3.71802e-08
6.00167e-09
3.62843e-08
4.87173e-09
3.55071e-08
3.89269e-09
3.48404e-08
3.03525e-09
3.42765e-08
2.27658e-09
3.38083e-08
1.60005e-09
3.34289e-08
9.94191e-10
3.31316e-08
4.51538e-10
3.29083e-08
-3.29607e-11
3.27538e-08
-4.6384e-10
3.26607e-08
-8.41703e-10
3.26223e-08
-1.16938e-09
3.26322e-08
-1.44896e-09
3.26841e-08
-1.68261e-09
3.27721e-08
-1.87255e-09
3.2891e-08
-2.02106e-09
3.3036e-08
-2.13037e-09
3.32028e-08
-2.2026e-09
3.33877e-08
-2.23981e-09
3.3587e-08
-2.2442e-09
3.37969e-08
-2.21888e-09
-2.17899e-09
6.50344e-08
5.41215e-08
6.28239e-08
5.31528e-08
6.13915e-08
5.14086e-08
6.05515e-08
4.8926e-08
5.98398e-08
4.60391e-08
5.90481e-08
4.29398e-08
5.80974e-08
3.96349e-08
5.6977e-08
3.61385e-08
5.57045e-08
3.25476e-08
5.43113e-08
2.89883e-08
5.2838e-08
2.55603e-08
5.13302e-08
2.23263e-08
4.98321e-08
1.93256e-08
4.83805e-08
1.65855e-08
4.70028e-08
1.41246e-08
4.57168e-08
1.1949e-08
4.45323e-08
1.00501e-08
4.34536e-08
8.40538e-09
4.2481e-08
6.98337e-09
4.16128e-08
5.74905e-09
4.08459e-08
4.66902e-09
4.01763e-08
3.71472e-09
3.95997e-08
2.86377e-09
3.91112e-08
2.09982e-09
3.87057e-08
1.41167e-09
3.83781e-08
7.91895e-10
3.81222e-08
2.3623e-10
3.79322e-08
-2.60082e-10
3.78028e-08
-6.98185e-10
3.77277e-08
-1.07998e-09
3.7701e-08
-1.40786e-09
3.7717e-08
-1.68416e-09
3.77704e-08
-1.91142e-09
3.7856e-08
-2.09234e-09
3.79696e-08
-2.22967e-09
3.81074e-08
-2.32615e-09
3.82661e-08
-2.3844e-09
3.8443e-08
-2.40703e-09
3.8635e-08
-2.39682e-09
-2.36643e-09
6.26929e-08
5.77502e-08
6.12322e-08
5.46292e-08
6.06851e-08
5.19703e-08
6.03317e-08
4.92934e-08
5.99808e-08
4.64033e-08
5.95773e-08
4.33562e-08
5.90829e-08
4.01421e-08
5.84662e-08
3.67679e-08
5.7713e-08
3.33136e-08
5.68295e-08
2.98845e-08
5.58386e-08
2.65639e-08
5.47724e-08
2.34052e-08
5.36651e-08
2.04452e-08
5.25484e-08
1.77143e-08
5.14485e-08
1.52359e-08
5.03864e-08
1.30219e-08
4.93777e-08
1.10689e-08
4.84337e-08
9.35886e-09
4.75625e-08
7.86385e-09
4.67688e-08
6.55188e-09
4.60551e-08
5.39201e-09
4.54219e-08
4.35766e-09
4.48681e-08
3.42799e-09
4.43912e-08
2.58779e-09
4.3988e-08
1.82664e-09
4.36547e-08
1.13768e-09
4.33875e-08
5.16582e-10
4.318e-08
-3.90058e-11
4.30296e-08
-5.33739e-10
4.29303e-08
-9.66477e-10
4.28772e-08
-1.34048e-09
4.28656e-08
-1.65809e-09
4.28906e-08
-1.92203e-09
4.29479e-08
-2.13532e-09
4.30336e-08
-2.30121e-09
4.31447e-08
-2.42302e-09
4.32783e-08
-2.50406e-09
4.34328e-08
-2.54751e-09
4.3606e-08
-2.55614e-09
-2.5398e-09
5.44679e-08
5.41126e-08
5.69341e-08
5.21788e-08
5.83808e-08
5.05387e-08
5.91465e-08
4.8542e-08
5.94991e-08
4.60645e-08
5.96328e-08
4.32358e-08
5.96276e-08
4.01603e-08
5.94931e-08
3.69154e-08
5.92226e-08
3.35971e-08
5.88178e-08
3.03024e-08
5.82916e-08
2.7103e-08
5.76646e-08
2.4045e-08
5.69599e-08
2.11625e-08
5.62009e-08
1.84853e-08
5.54103e-08
1.60381e-08
5.4609e-08
1.38341e-08
5.38163e-08
1.18719e-08
5.30489e-08
1.01359e-08
5.2321e-08
8.60117e-09
5.16431e-08
7.23895e-09
5.10228e-08
6.02171e-09
5.04642e-08
4.92594e-09
4.99692e-08
3.93331e-09
4.95374e-08
3.03052e-09
4.91673e-08
2.20842e-09
4.88564e-08
1.46095e-09
4.86017e-08
7.84214e-10
4.83999e-08
1.76207e-10
4.82471e-08
-3.67103e-10
4.81399e-08
-8.4527e-10
4.80746e-08
-1.26086e-09
4.8047e-08
-1.61626e-09
4.80536e-08
-1.91426e-09
4.80906e-08
-2.15812e-09
4.81551e-08
-2.35149e-09
4.82443e-08
-2.49823e-09
4.83565e-08
-2.60231e-09
4.84905e-08
-2.66768e-09
4.86456e-08
-2.69744e-09
-2.69897e-09
5.26913e-08
5.30857e-08
5.51098e-08
4.97764e-08
5.69228e-08
4.8741e-08
5.81863e-08
4.7293e-08
5.90331e-08
4.52317e-08
5.96127e-08
4.26697e-08
6.00188e-08
3.97675e-08
6.02862e-08
3.66612e-08
6.04228e-08
3.34736e-08
6.0432e-08
3.03062e-08
6.032e-08
2.7228e-08
6.00961e-08
2.42818e-08
5.97721e-08
2.14991e-08
5.93625e-08
1.89072e-08
5.88843e-08
1.6528e-08
5.83569e-08
1.43726e-08
5.78011e-08
1.24382e-08
5.72371e-08
1.07099e-08
5.66831e-08
9.1647e-09
5.61542e-08
7.77731e-09
5.56613e-08
6.5241e-09
5.52116e-08
5.38545e-09
5.48089e-08
4.34634e-09
5.44544e-08
3.39589e-09
5.41478e-08
2.52657e-09
5.38877e-08
1.73327e-09
5.36721e-08
1.01257e-09
5.34992e-08
3.62326e-10
5.33659e-08
-2.20101e-10
5.32702e-08
-7.35668e-10
5.32095e-08
-1.18602e-09
5.31809e-08
-1.57355e-09
5.31819e-08
-1.90102e-09
5.32097e-08
-2.17181e-09
5.32621e-08
-2.38982e-09
5.33373e-08
-2.55939e-09
5.34339e-08
-2.68511e-09
5.35517e-08
-2.77174e-09
5.3691e-08
-2.82306e-09
-2.84486e-09
5.29906e-08
5.00903e-08
5.52736e-08
4.75103e-08
5.6771e-08
4.72592e-08
5.80021e-08
4.60767e-08
5.90033e-08
4.42445e-08
5.98137e-08
4.1873e-08
6.04821e-08
3.91125e-08
6.10351e-08
3.61215e-08
6.14809e-08
3.3041e-08
6.18195e-08
2.99808e-08
6.20486e-08
2.7012e-08
6.21668e-08
2.41765e-08
6.21757e-08
2.15028e-08
6.20813e-08
1.90138e-08
6.18953e-08
1.67258e-08
6.16342e-08
1.46448e-08
6.13186e-08
1.27645e-08
6.09701e-08
1.10686e-08
6.0609e-08
9.53566e-09
6.02524e-08
8.14354e-09
5.99134e-08
6.87288e-09
5.96005e-08
5.70838e-09
5.93186e-08
4.63867e-09
5.90698e-08
3.65565e-09
5.88544e-08
2.7535e-09
5.86717e-08
1.92804e-09
5.85207e-08
1.17623e-09
5.84003e-08
4.95874e-10
5.83087e-08
-1.15007e-10
5.82449e-08
-6.5812e-10
5.82074e-08
-1.13463e-09
5.81947e-08
-1.54684e-09
5.82052e-08
-1.89742e-09
5.82372e-08
-2.18973e-09
5.82892e-08
-2.42784e-09
5.836e-08
-2.61641e-09
5.84493e-08
-2.76058e-09
5.85571e-08
-2.86589e-09
5.86847e-08
-2.93706e-09
-2.97949e-09
5.89529e-08
5.3329e-08
5.72182e-08
4.92614e-08
5.74904e-08
4.70024e-08
5.84136e-08
4.5168e-08
5.9394e-08
4.32782e-08
6.02931e-08
4.09876e-08
6.11065e-08
3.83126e-08
6.18438e-08
3.53975e-08
6.25061e-08
3.23919e-08
6.30869e-08
2.94132e-08
6.3576e-08
2.65359e-08
6.39637e-08
2.38017e-08
6.42437e-08
2.12355e-08
6.44157e-08
1.88541e-08
6.44866e-08
1.66668e-08
6.44701e-08
1.46726e-08
6.43852e-08
1.28603e-08
6.42528e-08
1.12115e-08
6.4093e-08
9.70556e-09
6.39231e-08
8.32348e-09
6.3756e-08
7.05007e-09
6.36004e-08
5.87433e-09
6.34611e-08
4.78859e-09
6.33404e-08
3.78741e-09
6.32389e-08
2.8666e-09
6.31562e-08
2.02276e-09
6.30919e-08
1.25307e-09
6.30455e-08
5.55256e-10
6.30165e-08
-7.26556e-11
6.30045e-08
-6.3252e-10
6.30091e-08
-1.12549e-09
6.30298e-08
-1.55368e-09
6.30659e-08
-1.91964e-09
6.31167e-08
-2.22664e-09
6.31815e-08
-2.47876e-09
6.32597e-08
-2.6809e-09
6.33514e-08
-2.8386e-09
6.34572e-08
-2.9581e-09
6.35788e-08
-3.04509e-09
-3.10595e-09
6.20049e-08
5.64025e-08
5.88695e-08
5.24119e-08
5.85926e-08
4.7294e-08
5.92434e-08
4.45313e-08
6.01104e-08
4.24251e-08
6.10109e-08
4.01007e-08
6.18921e-08
3.74448e-08
6.2739e-08
3.45639e-08
6.3542e-08
3.16022e-08
6.42882e-08
2.86802e-08
6.49623e-08
2.58749e-08
6.55494e-08
2.32275e-08
6.60385e-08
2.07591e-08
6.64253e-08
1.84797e-08
6.67134e-08
1.63907e-08
6.69139e-08
1.44836e-08
6.70433e-08
1.2742e-08
6.71202e-08
1.11454e-08
6.71625e-08
9.67374e-09
6.71854e-08
8.31094e-09
6.72003e-08
7.04566e-09
6.72145e-08
5.87079e-09
6.72321e-08
4.78192e-09
6.72549e-08
3.77585e-09
6.72835e-08
2.84972e-09
6.73177e-08
2.00063e-09
6.73575e-08
1.22579e-09
6.74028e-08
5.22792e-10
6.74541e-08
-1.10782e-10
6.75116e-08
-6.76584e-10
6.75757e-08
-1.17596e-09
6.76466e-08
-1.61089e-09
6.77244e-08
-1.98371e-09
6.78091e-08
-2.29755e-09
6.79005e-08
-2.55644e-09
6.79985e-08
-2.76535e-09
6.81036e-08
-2.93009e-09
6.82165e-08
-3.05746e-09
6.83388e-08
-3.15405e-09
-3.2282e-09
5.20712e-08
5.30239e-08
5.56694e-08
4.88284e-08
5.78951e-08
4.50824e-08
5.94474e-08
4.29929e-08
6.06776e-08
4.12084e-08
6.17434e-08
3.90484e-08
6.27266e-08
3.64749e-08
6.36649e-08
3.36389e-08
6.45679e-08
3.07125e-08
6.54287e-08
2.78325e-08
6.62331e-08
2.50835e-08
6.69654e-08
2.25081e-08
6.76133e-08
2.01238e-08
6.81712e-08
1.79342e-08
6.86412e-08
1.59327e-08
6.90324e-08
1.41041e-08
6.93583e-08
1.24275e-08
6.96341e-08
1.08807e-08
6.9874e-08
9.44475e-09
7.00896e-08
8.10612e-09
7.02894e-08
6.85679e-09
7.04784e-08
5.69275e-09
7.06595e-08
4.61204e-09
7.08338e-08
3.61307e-09
7.10017e-08
2.69372e-09
7.11632e-08
1.85129e-09
7.13187e-08
1.08276e-09
7.14683e-08
3.86021e-10
7.16135e-08
-2.42967e-10
7.17547e-08
-8.04516e-10
7.18929e-08
-1.30071e-09
7.20287e-08
-1.73324e-09
7.21628e-08
-2.10423e-09
7.22955e-08
-2.41662e-09
7.24269e-08
-2.67428e-09
7.25572e-08
-2.88215e-09
7.26868e-08
-3.04618e-09
7.28162e-08
-3.17353e-09
7.2947e-08
-3.27146e-09
-3.35066e-09
5.5125e-08
5.58116e-08
5.67486e-08
4.72186e-08
5.85317e-08
4.33127e-08
6.00564e-08
4.14815e-08
6.13558e-08
3.99223e-08
6.24954e-08
3.7922e-08
6.35482e-08
3.54355e-08
6.45596e-08
3.26407e-08
6.55439e-08
2.97415e-08
6.64956e-08
2.6894e-08
6.74011e-08
2.41911e-08
6.82461e-08
2.1676e-08
6.90202e-08
1.93625e-08
6.97192e-08
1.72477e-08
7.03455e-08
1.53186e-08
7.09069e-08
1.35546e-08
7.1414e-08
1.19321e-08
7.18777e-08
1.04284e-08
7.23075e-08
9.02617e-09
7.27109e-08
7.71407e-09
7.30923e-08
6.4866e-09
7.34546e-08
5.34185e-09
7.3799e-08
4.27928e-09
7.41258e-08
3.29801e-09
7.44354e-08
2.39612e-09
7.47282e-08
1.57077e-09
7.50048e-08
8.18697e-10
7.52667e-08
1.36896e-10
7.55142e-08
-4.77578e-10
7.57491e-08
-1.02624e-09
7.59723e-08
-1.51067e-09
7.61849e-08
-1.93238e-09
7.63873e-08
-2.29325e-09
7.65801e-08
-2.59594e-09
7.67633e-08
-2.8441e-09
7.69371e-08
-3.04254e-09
7.71014e-08
-3.1972e-09
7.72565e-08
-3.31536e-09
7.7403e-08
-3.40472e-09
-3.47764e-09
6.16992e-08
5.42668e-08
6.09494e-08
4.798e-08
6.09214e-08
4.33531e-08
6.14718e-08
4.09438e-08
6.23189e-08
3.90882e-08
6.32939e-08
3.69602e-08
6.43279e-08
3.44146e-08
6.53885e-08
3.15933e-08
6.64497e-08
2.86935e-08
6.74885e-08
2.58685e-08
6.84866e-08
2.32062e-08
6.94314e-08
2.07442e-08
7.03166e-08
1.84902e-08
7.11414e-08
1.64355e-08
7.191e-08
1.45624e-08
7.26291e-08
1.28476e-08
7.33064e-08
1.12668e-08
7.39481e-08
9.79854e-09
7.45589e-08
8.42704e-09
7.51416e-08
7.14309e-09
7.56971e-08
5.94272e-09
7.62259e-08
4.82491e-09
7.67276e-08
3.78941e-09
7.72025e-08
2.83518e-09
7.76509e-08
1.95994e-09
7.80736e-08
1.16037e-09
7.84721e-08
4.32837e-10
7.88477e-08
-2.25995e-10
7.92018e-08
-8.18781e-10
7.95359e-08
-1.34724e-09
7.9851e-08
-1.81263e-09
8.0148e-08
-2.21615e-09
8.04273e-08
-2.55932e-09
8.06891e-08
-2.84447e-09
8.09333e-08
-3.07497e-09
8.11594e-08
-3.25539e-09
8.13669e-08
-3.39148e-09
8.15552e-08
-3.49043e-09
8.17238e-08
-3.56013e-09
-3.61268e-09
6.64811e-08
5.72629e-08
6.43471e-08
5.01245e-08
6.32315e-08
4.44804e-08
6.29378e-08
4.12499e-08
6.32678e-08
3.87709e-08
6.40207e-08
3.62204e-08
6.50201e-08
3.34285e-08
6.6137e-08
3.04898e-08
6.72877e-08
2.75562e-08
6.84235e-08
2.4746e-08
6.95197e-08
2.21232e-08
7.05666e-08
1.97105e-08
7.15631e-08
1.75067e-08
7.25127e-08
1.54988e-08
7.34211e-08
1.36666e-08
7.4294e-08
1.19872e-08
7.51355e-08
1.04376e-08
7.59477e-08
8.99853e-09
7.67305e-08
7.65632e-09
7.74826e-08
6.40309e-09
7.8202e-08
5.23538e-09
7.88871e-08
4.15194e-09
7.95369e-08
3.15173e-09
8.01516e-08
2.23282e-09
8.07319e-08
1.39202e-09
8.12794e-08
6.25388e-10
8.17959e-08
-7.10781e-11
8.22834e-08
-7.00774e-10
8.27436e-08
-1.26611e-09
8.31779e-08
-1.76854e-09
8.35873e-08
-2.2089e-09
8.39721e-08
-2.58789e-09
8.43326e-08
-2.90663e-09
8.46683e-08
-3.16701e-09
8.49785e-08
-3.37204e-09
8.52622e-08
-3.52592e-09
8.5518e-08
-3.63411e-09
8.5744e-08
-3.70338e-09
8.59387e-08
-3.74174e-09
-3.75755e-09
6.36629e-08
5.84226e-08
6.37089e-08
5.0089e-08
6.34572e-08
4.47436e-08
6.33295e-08
4.13899e-08
6.36559e-08
3.84573e-08
6.44417e-08
3.54478e-08
6.55345e-08
3.23492e-08
6.67752e-08
2.92625e-08
6.80544e-08
2.62906e-08
6.93134e-08
2.35006e-08
7.05285e-08
2.09215e-08
7.16956e-08
1.85567e-08
7.28192e-08
1.63964e-08
7.39063e-08
1.44247e-08
7.49632e-08
1.26226e-08
7.59939e-08
1.09693e-08
7.69992e-08
9.44494e-09
7.79772e-08
8.03304e-09
7.89242e-08
6.72176e-09
7.98358e-08
5.50388e-09
8.07081e-08
4.37547e-09
8.15384e-08
3.33404e-09
8.23256e-08
2.37699e-09
8.30701e-08
1.50086e-09
8.37733e-08
7.01283e-10
8.44378e-08
-2.64137e-11
8.50659e-08
-6.86473e-10
8.566e-08
-1.28209e-09
8.6222e-08
-1.81526e-09
8.67532e-08
-2.28685e-09
8.72544e-08
-2.69705e-09
8.77255e-08
-3.04597e-09
8.81661e-08
-3.33415e-09
8.85751e-08
-3.56302e-09
8.89513e-08
-3.73512e-09
8.92927e-08
-3.85423e-09
8.9597e-08
-3.92536e-09
8.98611e-08
-3.95449e-09
9.00823e-08
-3.9499e-09
-3.91129e-09
5.76975e-08
5.41147e-08
6.02999e-08
4.74969e-08
6.14705e-08
4.35847e-08
6.22585e-08
4.06144e-08
6.31944e-08
3.75345e-08
6.43945e-08
3.42611e-08
6.57888e-08
3.09685e-08
6.72645e-08
2.78007e-08
6.87378e-08
2.48311e-08
7.01673e-08
2.20849e-08
7.15415e-08
1.9561e-08
7.28648e-08
1.7247e-08
7.41465e-08
1.51281e-08
7.53959e-08
1.31888e-08
7.66188e-08
1.14129e-08
7.78174e-08
9.78371e-09
7.899e-08
8.2853e-09
8.01319e-08
6.90393e-09
8.12373e-08
5.62921e-09
8.22999e-08
4.45393e-09
8.33151e-08
3.37293e-09
8.428e-08
2.38179e-09
8.51939e-08
1.47578e-09
8.60578e-08
6.49584e-10
8.68742e-08
-1.024e-10
8.76462e-08
-7.85691e-10
8.83769e-08
-1.4044e-09
8.90691e-08
-1.9614e-09
8.97247e-08
-2.45797e-09
9.03448e-08
-2.89412e-09
9.093e-08
-3.26924e-09
9.14797e-08
-3.58268e-09
9.19929e-08
-3.83436e-09
9.2468e-08
-4.02517e-09
9.29031e-08
-4.15719e-09
9.32955e-08
-4.23364e-09
9.36421e-08
-4.25899e-09
9.39386e-08
-4.23803e-09
9.41814e-08
-4.17976e-09
-4.06902e-09
6.65728e-08
6.09526e-08
6.22071e-08
5.1873e-08
6.09709e-08
4.4833e-08
6.13402e-08
4.0258e-08
6.25318e-08
3.63564e-08
6.41298e-08
3.26769e-08
6.58853e-08
2.9227e-08
6.76584e-08
2.60417e-08
6.93827e-08
2.3121e-08
7.10361e-08
2.04455e-08
7.26201e-08
1.79909e-08
7.41455e-08
1.57356e-08
7.56241e-08
1.36632e-08
7.70657e-08
1.17609e-08
7.84754e-08
1.00166e-08
7.98542e-08
8.41827e-09
8.1199e-08
6.95367e-09
8.25043e-08
5.61176e-09
8.37633e-08
4.38325e-09
8.49698e-08
3.26048e-09
8.6119e-08
2.23662e-09
8.72086e-08
1.305e-09
8.82388e-08
4.58495e-10
8.92114e-08
-3.10191e-10
9.01298e-08
-1.00799e-09
9.09977e-08
-1.6408e-09
9.18189e-08
-2.21273e-09
9.25963e-08
-2.72594e-09
9.3332e-08
-3.18075e-09
9.40269e-08
-3.57616e-09
9.46812e-08
-3.91059e-09
9.52941e-08
-4.18258e-09
9.58641e-08
-4.39142e-09
9.63893e-08
-4.53747e-09
9.68674e-08
-4.62234e-09
9.72954e-08
-4.64869e-09
9.76697e-08
-4.62038e-09
9.79852e-08
-4.54056e-09
9.8238e-08
-4.41968e-09
-4.22095e-09
5.66755e-08
5.11476e-08
5.83099e-08
5.02509e-08
5.87622e-08
4.4394e-08
5.99911e-08
3.9043e-08
6.18235e-08
3.45382e-08
6.39179e-08
3.0597e-08
6.60581e-08
2.71015e-08
6.81449e-08
2.39696e-08
7.01457e-08
2.11347e-08
7.20583e-08
1.85475e-08
7.38914e-08
1.61722e-08
7.56566e-08
1.39847e-08
7.73643e-08
1.19696e-08
7.90224e-08
1.01168e-08
8.06349e-08
8.41783e-09
8.22025e-08
6.86435e-09
8.37221e-08
5.44758e-09
8.51884e-08
4.15878e-09
8.65954e-08
2.98956e-09
8.79374e-08
1.93163e-09
8.92108e-08
9.76402e-10
9.04138e-08
1.15005e-10
9.15478e-08
-6.62437e-10
9.26153e-08
-1.36476e-09
9.36205e-08
-2.00027e-09
9.45678e-08
-2.57519e-09
9.54613e-08
-3.09328e-09
9.63041e-08
-3.55583e-09
9.70983e-08
-3.96205e-09
9.78449e-08
-4.30981e-09
9.85437e-08
-4.59651e-09
9.9194e-08
-4.81991e-09
9.97942e-08
-4.97875e-09
1.00343e-07
-5.07296e-09
1.00837e-07
-5.10378e-09
1.01275e-07
-5.07332e-09
1.01652e-07
-4.98485e-09
1.01964e-07
-4.83949e-09
1.02207e-07
-4.64994e-09
-4.35171e-09
5.94833e-08
5.95131e-08
5.74946e-08
5.22539e-08
5.79831e-08
4.392e-08
5.96312e-08
3.74099e-08
6.1865e-08
3.23196e-08
6.42813e-08
2.8196e-08
6.66872e-08
2.47108e-08
6.90211e-08
2.16509e-08
7.12723e-08
1.88987e-08
7.34434e-08
1.63913e-08
7.55381e-08
1.40922e-08
7.75598e-08
1.19775e-08
7.95118e-08
1.0032e-08
8.13971e-08
8.24567e-09
8.32178e-08
6.61114e-09
8.49741e-08
5.12196e-09
8.66638e-08
3.77167e-09
8.82828e-08
2.55342e-09
8.98263e-08
1.45955e-09
9.129e-08
4.81309e-10
9.26713e-08
-3.91632e-10
9.39699e-08
-1.1704e-09
9.51874e-08
-1.86679e-09
9.63276e-08
-2.49184e-09
9.73951e-08
-3.05473e-09
9.83948e-08
-3.56194e-09
9.93312e-08
-4.01671e-09
1.00208e-07
-4.41934e-09
1.01026e-07
-4.76784e-09
1.01789e-07
-5.05893e-09
1.02494e-07
-5.28911e-09
1.03143e-07
-5.45549e-09
1.03733e-07
-5.55642e-09
1.04265e-07
-5.59163e-09
1.04736e-07
-5.56214e-09
1.05145e-07
-5.4696e-09
1.0549e-07
-5.31677e-09
1.05766e-07
-5.10248e-09
1.05971e-07
-4.84236e-09
-4.44041e-09
5.24037e-08
5.73167e-08
5.57868e-08
4.88863e-08
5.81152e-08
4.16077e-08
6.04648e-08
3.50765e-08
6.2965e-08
2.98357e-08
6.55057e-08
2.56714e-08
6.80311e-08
2.22014e-08
7.05265e-08
1.91714e-08
7.29859e-08
1.64549e-08
7.53988e-08
1.39939e-08
7.7751e-08
1.17552e-08
8.00295e-08
9.71399e-09
8.22255e-08
7.85074e-09
8.43349e-08
6.15086e-09
8.63561e-08
4.60418e-09
8.82889e-08
3.20339e-09
9.01317e-08
1.94284e-09
9.18823e-08
8.1658e-10
9.35376e-08
-1.8202e-10
9.50953e-08
-1.06287e-09
9.65539e-08
-1.83677e-09
9.79142e-08
-2.5173e-09
9.91788e-08
-3.11822e-09
1.00352e-07
-3.65225e-09
1.0144e-07
-4.1295e-09
1.02448e-07
-4.55652e-09
1.0338e-07
-4.93594e-09
1.04241e-07
-5.267e-09
1.05033e-07
-5.54655e-09
1.05757e-07
-5.77027e-09
1.06415e-07
-5.93394e-09
1.07006e-07
-6.0343e-09
1.07533e-07
-6.06961e-09
1.07993e-07
-6.03961e-09
1.0839e-07
-5.94534e-09
1.08721e-07
-5.78817e-09
1.08988e-07
-5.57042e-09
1.09187e-07
-5.28874e-09
1.09319e-07
-4.96162e-09
-4.46215e-09
6.02915e-08
6.00229e-08
5.98116e-08
4.93838e-08
6.09502e-08
4.0487e-08
6.2844e-08
3.32003e-08
6.51044e-08
2.75928e-08
6.75515e-08
2.32415e-08
7.01118e-08
1.96579e-08
7.27461e-08
1.65537e-08
7.54155e-08
1.38018e-08
7.80774e-08
1.13479e-08
8.06914e-08
9.15686e-09
8.3225e-08
7.19569e-09
8.56566e-08
5.43423e-09
8.79742e-08
3.84809e-09
9.01727e-08
2.42034e-09
9.22514e-08
1.13907e-09
9.42099e-08
-1.43603e-12
9.60487e-08
-1.00821e-09
9.77673e-08
-1.88679e-09
9.93653e-08
-2.64716e-09
1.00844e-07
-3.30164e-09
1.02205e-07
-3.8652e-09
1.03454e-07
-4.3534e-09
1.04595e-07
-4.78038e-09
1.05636e-07
-5.15695e-09
1.06582e-07
-5.48957e-09
1.07439e-07
-5.78019e-09
1.08212e-07
-6.02697e-09
1.08905e-07
-6.22572e-09
1.09519e-07
-6.37132e-09
1.10057e-07
-6.4591e-09
1.10521e-07
-6.48579e-09
1.10914e-07
-6.44985e-09
1.11239e-07
-6.35135e-09
1.11498e-07
-6.19154e-09
1.11695e-07
-5.97171e-09
1.11831e-07
-5.6938e-09
1.11908e-07
-5.35282e-09
1.11928e-07
-4.96895e-09
-4.39115e-09
5.92134e-08
4.98223e-08
6.13392e-08
4.72785e-08
6.29635e-08
3.88826e-08
6.50483e-08
3.11349e-08
6.74012e-08
2.52587e-08
6.99753e-08
2.06857e-08
7.27437e-08
1.69073e-08
7.56507e-08
1.36639e-08
7.86235e-08
1.08458e-08
8.159e-08
8.39793e-09
8.44893e-08
6.27357e-09
8.72768e-08
4.42398e-09
8.99227e-08
2.80374e-09
9.24118e-08
1.37413e-09
9.47362e-08
1.10765e-10
9.68986e-08
-1.00871e-09
9.89009e-08
-1.98934e-09
1.00747e-07
-2.83989e-09
1.02441e-07
-3.56666e-09
1.03987e-07
-4.1791e-09
1.05389e-07
-4.69028e-09
1.06653e-07
-5.11615e-09
1.07787e-07
-5.47347e-09
1.08797e-07
-5.77727e-09
1.09692e-07
-6.03866e-09
1.1048e-07