/*--------------------------------*- C++ -*----------------------------------*\
  =========                 |
  \\      /  F ield         | OpenFOAM: The Open Source CFD Toolbox
   \\    /   O peration     | Website:  https://openfoam.org
    \\  /    A nd           | Version:  7
     \\/     M anipulation  |
\*---------------------------------------------------------------------------*/
FoamFile
{
    version     2.0;
    format      ascii;
    class       volScalarField;
    location    "0.2";
    object      k_0;
}
// * * * * * * * * * * * * * * * * * * * * * * * * * * * * * * * * * * * * * //

dimensions      [0 2 -2 0 0 0 0];

internalField   nonuniform List<scalar> 
600
(
2.18417
2.20677
1.6857
1.53028
1.42324
1.36314
1.32197
1.32693
1.29914
1.34542
0.866293
1.60104
1.64351
1.60368
1.54962
1.51988
1.49657
1.50838
1.49563
1.52442
0.138068
0.592211
0.892676
1.00504
1.05704
1.0839
1.08983
1.10521
1.10589
1.11824
0.0127952
0.0957286
0.261254
0.388057
0.490079
0.559469
0.598194
0.617613
0.62887
0.632847
0.00078413
0.00843986
0.0298761
0.0725216
0.129442
0.176469
0.208387
0.220799
0.229434
0.229327
6.87728e-05
0.000433076
0.00153764
0.00477372
0.0137927
0.026237
0.0336249
0.0364719
0.0369325
0.0366314
6.87698e-05
0.000433061
0.00153691
0.00477914
0.0137139
0.026357
0.0334362
0.0361719
0.0367762
0.0354869
0.000784102
0.00843956
0.0298688
0.0726184
0.129221
0.176604
0.208054
0.219982
0.22829
0.225441
0.0127951
0.0957318
0.261212
0.388113
0.489911
0.559495
0.597896
0.616665
0.628522
0.62978
0.138069
0.592213
0.89264
1.00512
1.05677
1.08417
1.08958
1.10552
1.10511
1.11741
0.866295
1.60103
1.64351
1.60376
1.5494
1.52053
1.49609
1.51052
1.49473
1.52842
2.18417
2.20677
1.68574
1.5303
1.42331
1.36381
1.32146
1.33004
1.29839
1.35118
2.07107
2.38398
2.34346
2.42111
2.44714
2.48747
2.52537
2.56421
2.60421
2.6449
2.68653
2.72888
2.77203
2.81582
2.86024
2.90511
2.95023
2.99527
3.03975
3.08295
3.12392
3.16142
3.19407
3.22035
3.23878
3.24817
3.24781
3.23793
3.21955
3.19471
3.16565
3.13574
3.10662
3.08271
3.06292
3.05393
3.04725
3.05576
3.05865
3.07886
2.85407
3.44037
3.48162
3.6069
3.68319
3.76775
3.85143
3.93547
4.02068
4.10642
4.19313
4.28054
4.3689
4.4581
4.5483
4.63947
4.73167
4.8249
4.9191
5.01414
5.10983
5.20576
5.30147
5.39622
5.4891
5.57907
5.6649
5.74545
5.8195
5.88644
5.94531
5.99701
6.04011
6.07856
6.10807
6.13914
6.15771
6.18887
6.19731
6.22988
2.42012
3.14689
3.28311
3.42004
3.52076
3.62225
3.72401
3.82546
3.92754
4.0296
4.1321
4.23477
4.33788
4.44132
4.54528
4.64977
4.75486
4.86063
4.96713
5.07438
5.18242
5.29117
5.40059
5.51048
5.62057
5.73052
5.83973
5.94761
6.05322
6.15586
6.25409
6.34792
6.43465
6.51685
6.58837
6.65877
6.71175
6.77271
6.80244
6.85748
1.65985
2.46316
2.67617
2.81193
2.9185
3.02056
3.12324
3.22532
3.32759
3.42943
3.53121
3.63263
3.7339
3.8349
3.93575
4.03643
4.13701
4.23752
4.33801
4.43849
4.53903
4.63957
4.74017
4.84077
4.94132
5.04174
5.14181
5.24132
5.33982
5.43697
5.53178
5.62438
5.71237
5.79786
5.87475
5.95151
6.01181
6.0788
6.1154
6.17596
0.875674
1.67432
1.93557
2.06486
2.16205
2.25162
2.34179
2.43169
2.52194
2.61181
2.70155
2.79078
2.87961
2.96784
3.0555
3.14253
3.2289
3.31461
3.39961
3.48389
3.56745
3.65021
3.73218
3.81329
3.89351
3.97283
4.05112
4.12832
4.20422
4.27869
4.35113
4.4219
4.48917
4.55501
4.6141
4.6745
4.72094
4.77505
4.80435
4.8552
0.299792
1.05742
1.35112
1.47779
1.56222
1.63651
1.71133
1.78668
1.86312
1.93973
2.01664
2.09332
2.16978
2.2457
2.32103
2.39559
2.46929
2.54205
2.61377
2.68437
2.75379
2.8219
2.88867
2.95398
3.01779
3.08008
3.14075
3.19978
3.25704
3.31251
3.36577
3.41735
3.46575
3.51313
3.55474
3.59883
3.63047
3.67149
3.69218
3.7327
0.304544
1.05995
1.35441
1.48094
1.56536
1.63964
1.71445
1.78978
1.86621
1.9428
2.0197
2.09638
2.17283
2.24873
2.32406
2.39862
2.47233
2.5451
2.61683
2.68744
2.75688
2.82501
2.89178
2.95711
3.02092
3.0832
3.14384
3.20283
3.26003
3.31543
3.36859
3.42006
3.46832
3.51555
3.55699
3.60092
3.63238
3.67325
3.69376
3.73413
0.881391
1.67916
1.94169
2.07056
2.16757
2.25701
2.34705
2.43683
2.52697
2.61674
2.70638
2.79553
2.8843
2.97246
3.06008
3.14707
3.23341
3.31909
3.40408
3.48835
3.57191
3.65466
3.7366
3.81769
3.89786
3.9771
4.05527
4.13232
4.20801
4.28222
4.35433
4.42474
4.4916
4.55702
4.61566
4.67563
4.72164
4.77538
4.80431
4.85487
1.66364
2.4668
2.67981
2.81489
2.92107
3.02284
3.12524
3.22707
3.32911
3.43073
3.53231
3.63354
3.73464
3.83547
3.93618
4.03673
4.13718
4.23758
4.33796
4.43834
4.53877
4.6392
4.73967
4.84013
4.94051
5.04072
5.14054
5.23976
5.3379
5.43466
5.52902
5.62114
5.70864
5.79364
5.87005
5.94636
6.00627
6.07295
6.10932
6.16978
2.42152
3.14557
3.28049
3.41679
3.51713
3.61831
3.71977
3.82096
3.92277
4.02458
4.12685
4.22928
4.33218
4.43542
4.53918
4.64347
4.74837
4.85395
4.96025
5.0673
5.17515
5.2837
5.39291
5.50257
5.61242
5.7221
5.83102
5.93859
6.04387
6.14617
6.24405
6.33754
6.42397
6.50588
6.57719
6.64743
6.70035
6.76129
6.79114
6.8464
2.85004
3.43068
3.47053
3.59539
3.67155
3.75588
3.83938
3.92324
4.00828
4.09384
4.18037
4.2676
4.35579
4.44482
4.53485
4.62585
4.71788
4.81093
4.90495
4.99982
5.09533
5.19109
5.28664
5.38124
5.474
5.56388
5.64966
5.73019
5.80428
5.87131
5.93034
5.98226
6.02565
6.06441
6.0943
6.12574
6.14476
6.1763
6.18519
6.21824
2.05981
2.36723
2.32651
2.40405
2.43024
2.47053
2.50845
2.54729
2.58729
2.62796
2.66957
2.71188
2.755
2.79876
2.84315
2.88798
2.93307
2.97809
3.02256
3.06579
3.10684
3.14447
3.17734
3.20394
3.22281
3.23276
3.23309
3.22402
3.20653
3.18264
3.1545
3.12546
3.09712
3.07387
3.05464
3.04605
3.03969
3.04838
3.05143
3.07172
)
;

boundaryField
{
    upperWall
    {
        type            fixedValue;
        value           uniform 0;
    }
    lowerWall
    {
        type            fixedValue;
        value           uniform 0;
    }
    heatedWall
    {
        type            fixedValue;
        value           uniform 0;
    }
    inlet
    {
        type            fixedValue;
        value           uniform 2e-05;
    }
    outlet
    {
        type            inletOutlet;
        inletValue      uniform 0;
        value           nonuniform List<scalar> 
12
(
3.07886
6.22988
6.85748
6.17596
4.8552
3.7327
3.73413
4.85487
6.16978
6.8464
6.21824
3.07172
)
;
    }
    frontAndBack
    {
        type            empty;
    }
}


// ************************************************************************* //
