/*--------------------------------*- C++ -*----------------------------------*\
  =========                 |
  \\      /  F ield         | OpenFOAM: The Open Source CFD Toolbox
   \\    /   O peration     | Website:  https://openfoam.org
    \\  /    A nd           | Version:  7
     \\/     M anipulation  |
\*---------------------------------------------------------------------------*/
FoamFile
{
    version     2.0;
    format      ascii;
    class       volScalarField;
    location    "2.3225";
    object      nut;
}
// * * * * * * * * * * * * * * * * * * * * * * * * * * * * * * * * * * * * * //

dimensions      [0 2 -1 0 0 0 0];

internalField   nonuniform List<scalar> 
7920
(
0.00875585
0.0091249
0.00912847
0.00913302
0.00912731
0.00912828
0.00912384
0.00912494
0.00912197
0.00912313
0.0091209
0.00912188
0.00912002
0.0091207
0.00911934
0.00911969
0.00911947
0.00911788
0.00912457
0.00913482
0.00451612
0.00454389
0.00445006
0.00435823
0.00431393
0.0042967
0.00428183
0.00427741
0.00426962
0.00426795
0.00426293
0.00426204
0.00425898
0.00425866
0.00425666
0.00425631
0.00425518
0.00425409
0.00428317
0.00428509
0.00345158
0.0036865
0.00371041
0.00370766
0.00370007
0.00369832
0.0036937
0.00369301
0.00368982
0.00368928
0.00368667
0.00368618
0.003684
0.00368355
0.00368175
0.0036813
0.00367986
0.00367925
0.00367992
0.00368488
0.00332044
0.00359153
0.00364314
0.00366186
0.0036669
0.00367389
0.00367521
0.00367908
0.00367949
0.00368188
0.00368186
0.00368337
0.0036831
0.00368408
0.00368365
0.00368427
0.00368376
0.00368414
0.0036841
0.00368856
0.00330598
0.00358051
0.00363485
0.00365686
0.00366455
0.0036743
0.00367764
0.00368437
0.0036865
0.00369144
0.00369295
0.00369672
0.00369778
0.00370066
0.00370136
0.00370355
0.00370401
0.00370554
0.00370613
0.00371104
0.00330752
0.0035798
0.00363381
0.00365614
0.00366458
0.00367529
0.00367961
0.00368751
0.00369059
0.00369686
0.00369925
0.00370431
0.00370617
0.00371024
0.00371166
0.0037149
0.00371599
0.00371836
0.00371969
0.00372474
0.00330752
0.0035798
0.00363381
0.00365615
0.00366458
0.00367529
0.00367961
0.00368751
0.00369058
0.00369687
0.00369925
0.00370431
0.00370617
0.00371024
0.00371166
0.00371491
0.00371599
0.00371837
0.00371971
0.00372475
0.00330598
0.00358051
0.00363484
0.00365686
0.00366455
0.0036743
0.00367764
0.00368437
0.0036865
0.00369144
0.00369294
0.00369673
0.00369777
0.00370067
0.00370135
0.00370358
0.003704
0.00370558
0.00370614
0.0037111
0.00332043
0.00359153
0.00364314
0.00366186
0.0036669
0.00367389
0.00367521
0.00367908
0.00367949
0.00368189
0.00368185
0.00368338
0.00368308
0.00368412
0.00368361
0.00368435
0.00368367
0.00368431
0.00368396
0.00368875
0.00345158
0.0036865
0.00371041
0.00370766
0.00370007
0.00369832
0.0036937
0.00369301
0.00368982
0.00368929
0.00368665
0.0036862
0.00368397
0.0036836
0.00368166
0.00368142
0.00367963
0.0036797
0.00367948
0.00368554
0.00451612
0.00454389
0.00445006
0.00435823
0.00431393
0.0042967
0.00428183
0.00427742
0.00426961
0.00426795
0.00426292
0.00426205
0.00425896
0.0042587
0.00425659
0.00425642
0.00425493
0.00425459
0.00428183
0.00428657
0.00875585
0.0091249
0.00912847
0.00913302
0.00912731
0.00912828
0.00912384
0.00912495
0.00912196
0.00912313
0.00912089
0.0091219
0.00911998
0.00912076
0.00911923
0.00911988
0.0091191
0.00911857
0.00912301
0.00913816
0.00336293
0.00377594
0.00379285
0.00376808
0.00376124
0.00374714
0.00374654
0.00373843
0.00373872
0.00373318
0.0037337
0.00372966
0.00373013
0.00372703
0.00372746
0.00372485
0.00372563
0.00372243
0.00372314
0.00373228
0.00297821
0.00348684
0.0035587
0.00356829
0.00356953
0.00356954
0.00356923
0.00356887
0.00356836
0.00356785
0.00356733
0.00356674
0.00356631
0.0035657
0.00356541
0.0035648
0.00356456
0.00356402
0.00356487
0.00356638
0.00289847
0.00341292
0.00348837
0.00350369
0.00350638
0.00351012
0.00351129
0.00351391
0.00351477
0.00351666
0.00351724
0.00351851
0.00351893
0.00351973
0.00352013
0.00352052
0.00352107
0.00352101
0.0035214
0.00352785
0.00289631
0.00341087
0.0034855
0.00350003
0.00350115
0.00350336
0.0035034
0.00350471
0.00350506
0.00350634
0.00350673
0.00350778
0.00350815
0.00350891
0.00350934
0.00350972
0.00351035
0.0035103
0.0035109
0.00351499
0.0028933
0.00340751
0.00348213
0.00349703
0.00349794
0.00349988
0.00349944
0.00350038
0.00350019
0.003501
0.00350097
0.00350163
0.00350167
0.00350216
0.00350221
0.00350255
0.00350261
0.00350283
0.00350299
0.00350724
0.00289491
0.00340926
0.00348365
0.00349844
0.00349931
0.00350121
0.00350073
0.00350162
0.00350134
0.00350206
0.0035019
0.00350246
0.00350234
0.00350272
0.00350261
0.00350283
0.00350273
0.00350284
0.00350275
0.00350665
0.00289491
0.00340926
0.00348365
0.00349844
0.00349931
0.00350121
0.00350073
0.00350162
0.00350134
0.00350206
0.0035019
0.00350246
0.00350233
0.00350272
0.0035026
0.00350284
0.00350272
0.00350284
0.00350276
0.00350664
0.0028933
0.00340751
0.00348213
0.00349703
0.00349794
0.00349988
0.00349944
0.00350038
0.00350019
0.00350101
0.00350097
0.00350164
0.00350166
0.00350217
0.0035022
0.00350257
0.00350259
0.00350286
0.00350296
0.00350725
0.00289631
0.00341087
0.0034855
0.00350003
0.00350115
0.00350336
0.0035034
0.00350471
0.00350506
0.00350635
0.00350673
0.00350779
0.00350814
0.00350895
0.00350925
0.00350983
0.00351019
0.00351039
0.00351079
0.0035151
0.00289846
0.00341292
0.00348837
0.00350369
0.00350638
0.00351012
0.00351129
0.00351391
0.00351477
0.00351666
0.00351723
0.00351853
0.0035189
0.00351979
0.00352002
0.0035207
0.00352079
0.00352136
0.00352092
0.00352833
0.00297821
0.00348684
0.0035587
0.00356829
0.00356953
0.00356954
0.00356923
0.00356887
0.00356836
0.00356786
0.00356732
0.00356675
0.00356628
0.00356575
0.00356532
0.00356495
0.0035643
0.00356444
0.00356414
0.00356771
0.00336293
0.00377594
0.00379285
0.00376808
0.00376124
0.00374714
0.00374654
0.00373843
0.00373872
0.00373318
0.00373369
0.00372966
0.00373012
0.00372705
0.00372744
0.00372492
0.00372555
0.00372266
0.00372279
0.00373329
0.000838531
0.00123548
0.00129259
0.00127575
0.00123242
0.00119184
0.0011595
0.00113597
0.00111843
0.00110462
0.00109454
0.00108526
0.0010788
0.00107186
0.00106736
0.00106205
0.00105834
0.00105537
0.00104948
0.00105521
0.000355992
0.000750822
0.000881111
0.00093164
0.000948957
0.000959651
0.000964966
0.000970727
0.00097358
0.000976627
0.000977632
0.000978838
0.000978884
0.000979036
0.000978766
0.000978609
0.000978129
0.00097782
0.000977198
0.000979332
0.000307677
0.000664809
0.000783358
0.000836485
0.000852616
0.000864325
0.000867047
0.000872559
0.000874491
0.000878661
0.000880689
0.000884362
0.000886538
0.000889549
0.000891783
0.000894187
0.000896411
0.000898395
0.000899864
0.000903558
0.000316786
0.00066882
0.000784468
0.000835309
0.000851079
0.000860863
0.000862327
0.000864922
0.000865062
0.000865944
0.00086618
0.000866993
0.000867452
0.000868308
0.000869203
0.00086985
0.000871151
0.000871755
0.000872877
0.000875707
0.000312463
0.000664396
0.000779613
0.000830731
0.000846188
0.000855994
0.000857216
0.000859577
0.000859394
0.000859822
0.000859567
0.000859742
0.000859594
0.000859683
0.000859689
0.000859733
0.000859925
0.000859986
0.000860215
0.000862057
0.000314889
0.000666873
0.000782109
0.000832876
0.000848429
0.000858098
0.000859449
0.000861738
0.000861591
0.000861969
0.000861711
0.000861805
0.000861609
0.000861584
0.000861481
0.000861348
0.000861354
0.000861253
0.000861349
0.000862934
0.000314889
0.000666873
0.000782109
0.000832876
0.000848429
0.000858098
0.000859449
0.000861738
0.000861591
0.000861969
0.00086171
0.000861805
0.000861609
0.000861584
0.000861481
0.000861349
0.000861353
0.000861254
0.000861347
0.000862932
0.000312462
0.000664396
0.000779612
0.000830731
0.000846188
0.000855994
0.000857215
0.000859577
0.000859394
0.000859822
0.000859566
0.000859742
0.000859593
0.000859684
0.000859688
0.000859733
0.000859924
0.000859983
0.000860212
0.000862047
0.000316785
0.00066882
0.000784468
0.00083531
0.000851078
0.000860863
0.000862327
0.000864923
0.000865062
0.000865944
0.00086618
0.000866997
0.000867444
0.00086832
0.000869181
0.000869864
0.000871129
0.000871742
0.000872854
0.000875668
0.000307677
0.00066481
0.000783358
0.000836486
0.000852615
0.000864326
0.000867046
0.00087256
0.00087449
0.000878663
0.000880682
0.000884369
0.000886523
0.000889566
0.000891746
0.000894214
0.000896351
0.000898392
0.000899817
0.000903475
0.000355991
0.000750822
0.000881111
0.00093164
0.000948956
0.000959652
0.000964963
0.000970729
0.000973575
0.000976633
0.000977622
0.000978845
0.000978877
0.00097904
0.000978729
0.000978616
0.000978058
0.00097784
0.000977099
0.00097934
0.000838531
0.00123548
0.00129259
0.00127575
0.00123242
0.00119184
0.0011595
0.00113597
0.00111843
0.00110463
0.00109454
0.00108528
0.0010788
0.0010719
0.00106736
0.00106216
0.00105835
0.00105561
0.00104956
0.00105589
0.000838531
0.00123548
0.00129259
0.00127575
0.00123242
0.00119184
0.0011595
0.00113597
0.00111843
0.00110462
0.00109454
0.00108526
0.0010788
0.00107186
0.00106736
0.00106205
0.00105834
0.00105537
0.00104948
0.00105521
0.000355992
0.000750822
0.000881111
0.00093164
0.000948957
0.000959651
0.000964966
0.000970727
0.00097358
0.000976627
0.000977632
0.000978838
0.000978884
0.000979036
0.000978766
0.000978609
0.000978129
0.00097782
0.000977198
0.000979332
0.000307677
0.000664809
0.000783358
0.000836485
0.000852616
0.000864325
0.000867047
0.000872559
0.000874491
0.000878661
0.000880689
0.000884362
0.000886538
0.000889549
0.000891783
0.000894187
0.000896411
0.000898395
0.000899864
0.000903558
0.000316786
0.00066882
0.000784468
0.000835309
0.000851079
0.000860863
0.000862327
0.000864922
0.000865062
0.000865944
0.00086618
0.000866993
0.000867452
0.000868308
0.000869203
0.00086985
0.000871151
0.000871755
0.000872877
0.000875707
0.000312463
0.000664396
0.000779613
0.000830731
0.000846188
0.000855994
0.000857216
0.000859577
0.000859394
0.000859822
0.000859567
0.000859742
0.000859594
0.000859683
0.000859689
0.000859733
0.000859925
0.000859986
0.000860215
0.000862057
0.000314889
0.000666873
0.000782109
0.000832876
0.000848429
0.000858098
0.000859449
0.000861738
0.000861591
0.000861969
0.000861711
0.000861805
0.000861609
0.000861584
0.000861481
0.000861348
0.000861354
0.000861253
0.000861349
0.000862934
0.000314889
0.000666873
0.000782109
0.000832876
0.000848429
0.000858099
0.000859449
0.000861738
0.000861591
0.000861969
0.000861711
0.000861805
0.000861609
0.000861584
0.000861481
0.000861349
0.000861353
0.000861254
0.000861347
0.000862932
0.000312462
0.000664396
0.000779612
0.000830731
0.000846188
0.000855994
0.000857215
0.000859577
0.000859394
0.000859822
0.000859566
0.000859742
0.000859593
0.000859684
0.000859688
0.000859733
0.000859924
0.000859983
0.000860212
0.000862047
0.000316785
0.00066882
0.000784468
0.00083531
0.000851078
0.000860863
0.000862327
0.000864923
0.000865062
0.000865944
0.00086618
0.000866997
0.000867444
0.00086832
0.000869181
0.000869864
0.000871129
0.000871742
0.000872854
0.000875668
0.000307677
0.00066481
0.000783358
0.000836486
0.000852615
0.000864326
0.000867046
0.00087256
0.00087449
0.000878664
0.000880682
0.000884369
0.000886523
0.000889566
0.000891746
0.000894214
0.000896351
0.000898392
0.000899817
0.000903475
0.000355991
0.000750822
0.000881111
0.00093164
0.000948956
0.000959652
0.000964964
0.000970729
0.000973575
0.000976633
0.000977622
0.000978845
0.000978877
0.00097904
0.000978729
0.000978616
0.000978058
0.00097784
0.000977099
0.00097934
0.000838531
0.00123548
0.00129259
0.00127575
0.00123242
0.00119184
0.0011595
0.00113597
0.00111843
0.00110463
0.00109454
0.00108528
0.0010788
0.0010719
0.00106736
0.00106216
0.00105835
0.00105561
0.00104956
0.00105589
0.00336293
0.00377594
0.00379285
0.00376808
0.00376124
0.00374714
0.00374654
0.00373843
0.00373872
0.00373318
0.0037337
0.00372966
0.00373013
0.00372703
0.00372746
0.00372485
0.00372563
0.00372243
0.00372314
0.00373228
0.00297821
0.00348684
0.0035587
0.00356829
0.00356953
0.00356954
0.00356923
0.00356887
0.00356836
0.00356785
0.00356733
0.00356674
0.00356631
0.0035657
0.00356541
0.0035648
0.00356456
0.00356402
0.00356487
0.00356638
0.00289847
0.00341292
0.00348837
0.00350369
0.00350638
0.00351012
0.00351129
0.00351391
0.00351477
0.00351666
0.00351724
0.00351851
0.00351893
0.00351973
0.00352013
0.00352052
0.00352107
0.00352101
0.0035214
0.00352785
0.00289631
0.00341087
0.0034855
0.00350003
0.00350115
0.00350336
0.0035034
0.00350471
0.00350506
0.00350634
0.00350673
0.00350778
0.00350815
0.00350891
0.00350934
0.00350972
0.00351035
0.0035103
0.0035109
0.00351499
0.0028933
0.00340751
0.00348213
0.00349703
0.00349794
0.00349988
0.00349944
0.00350038
0.00350019
0.003501
0.00350097
0.00350163
0.00350167
0.00350216
0.00350221
0.00350255
0.00350261
0.00350283
0.00350299
0.00350724
0.00289491
0.00340926
0.00348365
0.00349844
0.00349931
0.00350121
0.00350073
0.00350162
0.00350134
0.00350206
0.0035019
0.00350246
0.00350234
0.00350272
0.00350261
0.00350283
0.00350273
0.00350284
0.00350275
0.00350665
0.00289491
0.00340926
0.00348365
0.00349844
0.00349931
0.00350121
0.00350073
0.00350162
0.00350134
0.00350206
0.0035019
0.00350246
0.00350233
0.00350272
0.0035026
0.00350284
0.00350272
0.00350284
0.00350275
0.00350664
0.0028933
0.00340751
0.00348213
0.00349703
0.00349794
0.00349988
0.00349944
0.00350038
0.00350019
0.00350101
0.00350097
0.00350164
0.00350166
0.00350217
0.0035022
0.00350257
0.00350259
0.00350286
0.00350296
0.00350725
0.00289631
0.00341087
0.0034855
0.00350003
0.00350115
0.00350336
0.0035034
0.00350471
0.00350506
0.00350635
0.00350673
0.00350779
0.00350814
0.00350895
0.00350925
0.00350983
0.00351019
0.00351039
0.00351079
0.0035151
0.00289846
0.00341292
0.00348837
0.00350369
0.00350638
0.00351012
0.00351129
0.00351391
0.00351477
0.00351666
0.00351723
0.00351853
0.0035189
0.00351979
0.00352002
0.0035207
0.00352079
0.00352136
0.00352092
0.00352833
0.00297821
0.00348684
0.0035587
0.00356829
0.00356953
0.00356954
0.00356923
0.00356887
0.00356836
0.00356786
0.00356732
0.00356675
0.00356628
0.00356575
0.00356532
0.00356495
0.0035643
0.00356444
0.00356414
0.00356771
0.00336293
0.00377594
0.00379285
0.00376808
0.00376124
0.00374714
0.00374654
0.00373843
0.00373872
0.00373318
0.00373369
0.00372966
0.00373012
0.00372705
0.00372744
0.00372492
0.00372555
0.00372266
0.00372279
0.00373329
0.00875585
0.0091249
0.00912847
0.00913302
0.00912731
0.00912828
0.00912384
0.00912494
0.00912197
0.00912313
0.0091209
0.00912188
0.00912002
0.0091207
0.00911934
0.00911969
0.00911947
0.00911788
0.00912457
0.00913482
0.00451612
0.00454389
0.00445006
0.00435823
0.00431393
0.0042967
0.00428183
0.00427741
0.00426962
0.00426795
0.00426293
0.00426204
0.00425898
0.00425866
0.00425666
0.00425631
0.00425518
0.00425409
0.00428317
0.00428509
0.00345158
0.0036865
0.00371041
0.00370766
0.00370007
0.00369832
0.0036937
0.00369301
0.00368982
0.00368928
0.00368667
0.00368618
0.003684
0.00368355
0.00368175
0.0036813
0.00367986
0.00367925
0.00367992
0.00368488
0.00332044
0.00359153
0.00364314
0.00366186
0.0036669
0.00367389
0.00367521
0.00367908
0.00367949
0.00368188
0.00368186
0.00368337
0.0036831
0.00368408
0.00368365
0.00368427
0.00368376
0.00368414
0.0036841
0.00368856
0.00330598
0.00358051
0.00363485
0.00365686
0.00366455
0.0036743
0.00367764
0.00368437
0.0036865
0.00369144
0.00369295
0.00369672
0.00369778
0.00370066
0.00370136
0.00370355
0.00370401
0.00370554
0.00370613
0.00371104
0.00330752
0.0035798
0.00363381
0.00365614
0.00366458
0.00367529
0.00367961
0.00368751
0.00369059
0.00369686
0.00369925
0.00370431
0.00370617
0.00371024
0.00371166
0.0037149
0.00371599
0.00371836
0.00371969
0.00372474
0.00330752
0.0035798
0.00363381
0.00365615
0.00366458
0.00367529
0.00367961
0.00368751
0.00369058
0.00369687
0.00369925
0.00370431
0.00370617
0.00371024
0.00371166
0.00371491
0.00371599
0.00371837
0.00371971
0.00372475
0.00330598
0.00358051
0.00363484
0.00365686
0.00366455
0.0036743
0.00367764
0.00368437
0.0036865
0.00369144
0.00369294
0.00369673
0.00369777
0.00370067
0.00370135
0.00370358
0.003704
0.00370558
0.00370614
0.0037111
0.00332043
0.00359153
0.00364314
0.00366186
0.0036669
0.00367389
0.00367521
0.00367908
0.00367949
0.00368189
0.00368185
0.00368338
0.00368308
0.00368412
0.00368361
0.00368435
0.00368367
0.00368431
0.00368396
0.00368875
0.00345158
0.0036865
0.00371041
0.00370766
0.00370007
0.00369832
0.0036937
0.00369301
0.00368982
0.00368929
0.00368665
0.0036862
0.00368397
0.0036836
0.00368166
0.00368142
0.00367963
0.0036797
0.00367948
0.00368554
0.00451612
0.00454389
0.00445006
0.00435823
0.00431393
0.0042967
0.00428183
0.00427742
0.00426961
0.00426795
0.00426292
0.00426205
0.00425896
0.0042587
0.00425659
0.00425642
0.00425493
0.00425459
0.00428183
0.00428657
0.00875585
0.0091249
0.00912847
0.00913302
0.00912731
0.00912828
0.00912384
0.00912495
0.00912196
0.00912313
0.00912089
0.0091219
0.00911998
0.00912076
0.00911923
0.00911988
0.0091191
0.00911857
0.00912301
0.00913816
0.026615
0.0268096
0.026904
0.0269813
0.0270413
0.0270988
0.0271473
0.027195
0.0272361
0.0272766
0.0273124
0.0273484
0.0273813
0.0274144
0.0274445
0.0274744
0.0275018
0.0275291
0.0275544
0.0275795
0.0276024
0.0276246
0.0276447
0.027664
0.0276813
0.0276978
0.0277123
0.0277257
0.0277372
0.0277477
0.0277565
0.0277644
0.0277707
0.0277764
0.0277807
0.0277845
0.027787
0.0277893
0.0277906
0.0277918
0.0277924
0.027793
0.0277931
0.0277934
0.0277934
0.0277936
0.0277935
0.0277936
0.0277935
0.0277937
0.0277936
0.0277937
0.0277936
0.0277937
0.0277936
0.0277937
0.0277936
0.0277937
0.0277936
0.0277937
0.0277937
0.0277937
0.0277937
0.0277937
0.0277937
0.0277937
0.0277937
0.0277937
0.0277937
0.0277937
0.0277937
0.0277937
0.0277937
0.0277937
0.0277936
0.0277937
0.0277936
0.0277936
0.0277936
0.0277936
0.0277935
0.0277935
0.0277934
0.0277934
0.0277932
0.0277932
0.0277929
0.027793
0.02779
0.0277882
0.0152464
0.0155283
0.0155796
0.0156254
0.0156559
0.0156907
0.0157157
0.0157449
0.0157663
0.0157911
0.0158099
0.015832
0.0158494
0.0158697
0.0158857
0.0159041
0.0159187
0.0159355
0.0159491
0.0159645
0.0159768
0.0159906
0.0160014
0.0160134
0.0160227
0.016033
0.0160407
0.0160493
0.0160554
0.0160622
0.0160668
0.0160721
0.0160753
0.0160793
0.0160813
0.0160842
0.0160853
0.0160872
0.0160877
0.016089
0.016089
0.0160899
0.0160897
0.0160904
0.0160902
0.0160908
0.0160905
0.0160911
0.0160908
0.0160913
0.0160911
0.0160916
0.0160914
0.0160919
0.0160917
0.0160921
0.016092
0.0160924
0.0160923
0.0160926
0.0160925
0.0160929
0.0160928
0.0160931
0.016093
0.0160934
0.0160933
0.0160936
0.0160935
0.0160938
0.0160937
0.016094
0.0160939
0.0160942
0.0160941
0.0160943
0.0160943
0.0160945
0.0160944
0.0160946
0.0160945
0.0160947
0.0160946
0.0160948
0.0160946
0.0160948
0.0160945
0.0160948
0.0160921
0.0160906
0.0122439
0.012644
0.012683
0.0127198
0.0127381
0.0127668
0.0127823
0.0128071
0.012821
0.0128424
0.0128545
0.0128736
0.012885
0.0129027
0.0129135
0.0129296
0.0129396
0.0129543
0.0129636
0.0129772
0.0129859
0.0129982
0.0130058
0.0130167
0.0130233
0.0130329
0.0130384
0.0130466
0.0130509
0.0130577
0.0130609
0.0130663
0.0130685
0.0130728
0.0130742
0.0130775
0.0130782
0.0130806
0.0130808
0.0130826
0.0130825
0.0130839
0.0130835
0.0130848
0.0130844
0.0130854
0.013085
0.0130861
0.0130857
0.0130867
0.0130863
0.0130873
0.013087
0.0130878
0.0130876
0.0130884
0.0130882
0.013089
0.0130888
0.0130896
0.0130894
0.0130901
0.01309
0.0130907
0.0130906
0.0130912
0.0130911
0.0130918
0.0130917
0.0130923
0.0130922
0.0130928
0.0130927
0.0130932
0.0130932
0.0130937
0.0130936
0.0130941
0.0130941
0.0130945
0.0130945
0.0130949
0.0130948
0.0130952
0.0130951
0.0130954
0.0130952
0.0130956
0.0130947
0.0130908
0.0117863
0.0122822
0.0123221
0.0123554
0.0123678
0.0123935
0.0124045
0.0124276
0.0124382
0.0124587
0.012468
0.0124861
0.012495
0.012512
0.0125209
0.0125367
0.0125449
0.0125593
0.0125671
0.0125805
0.0125879
0.0126003
0.0126069
0.012618
0.0126238
0.0126336
0.0126386
0.0126472
0.0126512
0.0126585
0.0126615
0.0126675
0.0126695
0.0126744
0.0126758
0.0126797
0.0126804
0.0126834
0.0126836
0.0126859
0.0126857
0.0126875
0.0126871
0.0126887
0.0126883
0.0126896
0.0126892
0.0126905
0.0126901
0.0126913
0.012691
0.0126922
0.0126919
0.012693
0.0126927
0.0126938
0.0126936
0.0126946
0.0126944
0.0126954
0.0126953
0.0126962
0.0126961
0.012697
0.0126969
0.0126978
0.0126977
0.0126985
0.0126985
0.0126993
0.0126993
0.0127
0.0127
0.0127007
0.0127007
0.0127014
0.0127014
0.012702
0.012702
0.0127026
0.0127026
0.0127032
0.0127032
0.0127037
0.0127037
0.0127041
0.0127041
0.0127045
0.0127046
0.0126998
0.0117508
0.0122969
0.0123385
0.0123697
0.0123776
0.0124001
0.0124076
0.0124283
0.0124365
0.0124556
0.0124628
0.0124796
0.0124867
0.0125028
0.0125102
0.0125255
0.0125324
0.0125463
0.0125529
0.012566
0.0125724
0.0125847
0.0125906
0.0126016
0.0126068
0.0126167
0.0126213
0.0126301
0.0126339
0.0126415
0.0126444
0.0126506
0.0126527
0.0126579
0.0126593
0.0126636
0.0126644
0.0126677
0.012668
0.0126706
0.0126705
0.0126726
0.0126722
0.012674
0.0126736
0.0126751
0.0126747
0.0126762
0.0126758
0.0126772
0.0126768
0.0126781
0.0126779
0.0126791
0.0126789
0.0126801
0.0126799
0.0126811
0.012681
0.0126821
0.012682
0.012683
0.012683
0.012684
0.0126839
0.0126849
0.0126849
0.0126859
0.0126858
0.0126868
0.0126868
0.0126876
0.0126877
0.0126885
0.0126885
0.0126893
0.0126894
0.0126901
0.0126902
0.0126909
0.0126909
0.0126916
0.0126916
0.0126922
0.0126923
0.0126928
0.0126928
0.0126933
0.0126937
0.0126884
0.0117679
0.0123431
0.0123853
0.0124138
0.0124179
0.0124365
0.0124409
0.0124586
0.0124644
0.0124814
0.0124868
0.0125017
0.0125071
0.0125217
0.0125278
0.0125419
0.0125477
0.0125606
0.0125661
0.0125783
0.0125839
0.0125956
0.0126007
0.0126113
0.0126159
0.0126254
0.0126295
0.0126382
0.0126417
0.0126492
0.0126518
0.0126581
0.0126601
0.0126653
0.0126667
0.0126711
0.0126719
0.0126754
0.0126758
0.0126785
0.0126784
0.0126806
0.0126803
0.0126822
0.0126817
0.0126834
0.012683
0.0126845
0.0126841
0.0126856
0.0126853
0.0126867
0.0126864
0.0126878
0.0126875
0.0126888
0.0126887
0.0126899
0.0126898
0.012691
0.0126909
0.012692
0.012692
0.0126931
0.012693
0.0126941
0.0126941
0.0126951
0.0126951
0.0126961
0.0126961
0.0126971
0.0126971
0.012698
0.0126981
0.0126989
0.012699
0.0126998
0.0126999
0.0127007
0.0127007
0.0127014
0.0127015
0.0127022
0.0127022
0.0127029
0.0127029
0.0127033
0.012704
0.0126985
0.0117683
0.0123411
0.0123797
0.0124042
0.0124047
0.0124194
0.012421
0.0124356
0.0124393
0.0124538
0.0124573
0.0124702
0.0124741
0.0124869
0.0124917
0.0125043
0.0125089
0.0125204
0.0125249
0.0125359
0.0125405
0.0125511
0.0125554
0.0125651
0.0125689
0.0125777
0.0125813
0.0125893
0.0125924
0.0125994
0.0126017
0.0126077
0.0126094
0.0126144
0.0126157
0.0126199
0.0126206
0.0126241
0.0126244
0.0126271
0.012627
0.0126292
0.0126288
0.0126307
0.0126303
0.0126319
0.0126315
0.0126331
0.0126327
0.0126341
0.0126338
0.0126352
0.0126349
0.0126363
0.0126361
0.0126374
0.0126372
0.0126384
0.0126383
0.0126395
0.0126394
0.0126406
0.0126405
0.0126416
0.0126416
0.0126426
0.0126426
0.0126437
0.0126437
0.0126447
0.0126447
0.0126456
0.0126457
0.0126466
0.0126467
0.0126475
0.0126476
0.0126484
0.0126485
0.0126492
0.0126493
0.01265
0.0126501
0.0126508
0.0126508
0.0126514
0.0126515
0.0126519
0.0126527
0.0126472
0.0117513
0.0122888
0.0123182
0.0123368
0.0123338
0.0123452
0.0123443
0.0123562
0.0123579
0.0123699
0.0123718
0.0123825
0.012385
0.0123959
0.0123993
0.0124101
0.0124135
0.0124234
0.0124267
0.0124362
0.0124398
0.012449
0.0124524
0.0124607
0.0124637
0.0124714
0.0124742
0.0124813
0.0124837
0.0124899
0.0124918
0.0124971
0.0124985
0.012503
0.0125039
0.0125078
0.0125083
0.0125115
0.0125116
0.0125141
0.012514
0.012516
0.0125157
0.0125174
0.012517
0.0125185
0.0125181
0.0125196
0.0125192
0.0125206
0.0125203
0.0125216
0.0125213
0.0125226
0.0125224
0.0125236
0.0125234
0.0125246
0.0125244
0.0125256
0.0125254
0.0125265
0.0125264
0.0125275
0.0125274
0.0125284
0.0125284
0.0125294
0.0125294
0.0125303
0.0125303
0.0125312
0.0125312
0.0125321
0.0125321
0.0125329
0.0125329
0.0125337
0.0125338
0.0125345
0.0125345
0.0125352
0.0125352
0.0125358
0.0125359
0.0125364
0.0125365
0.0125369
0.0125375
0.0125325
0.0117826
0.0122572
0.0122744
0.0122865
0.0122812
0.0122895
0.0122869
0.0122963
0.0122964
0.0123057
0.0123062
0.0123147
0.012316
0.0123248
0.0123269
0.0123356
0.0123377
0.0123456
0.0123479
0.0123556
0.012358
0.0123654
0.0123678
0.0123746
0.0123767
0.0123829
0.0123849
0.0123907
0.0123924
0.0123975
0.0123988
0.0124031
0.012404
0.0124077
0.0124084
0.0124116
0.0124119
0.0124145
0.0124145
0.0124167
0.0124164
0.0124182
0.0124178
0.0124193
0.0124189
0.0124203
0.0124199
0.0124212
0.0124208
0.012422
0.0124217
0.0124229
0.0124226
0.0124237
0.0124234
0.0124245
0.0124243
0.0124254
0.0124252
0.0124262
0.012426
0.012427
0.0124269
0.0124278
0.0124277
0.0124286
0.0124285
0.0124294
0.0124293
0.0124301
0.0124301
0.0124309
0.0124309
0.0124316
0.0124316
0.0124323
0.0124323
0.0124329
0.012433
0.0124336
0.0124336
0.0124341
0.0124342
0.0124347
0.0124347
0.0124352
0.0124351
0.0124355
0.0124358
0.0124314
0.0122227
0.0125803
0.0125843
0.0125914
0.0125853
0.0125913
0.0125882
0.0125951
0.0125941
0.0126008
0.0126003
0.0126066
0.0126068
0.0126132
0.0126142
0.0126203
0.0126213
0.012627
0.0126282
0.0126337
0.0126351
0.0126403
0.0126416
0.0126464
0.0126476
0.0126521
0.0126532
0.0126573
0.0126583
0.0126619
0.0126626
0.0126657
0.0126661
0.0126689
0.0126691
0.0126715
0.0126715
0.0126735
0.0126733
0.012675
0.0126746
0.012676
0.0126756
0.0126768
0.0126764
0.0126775
0.0126771
0.0126782
0.0126778
0.0126788
0.0126785
0.0126794
0.0126791
0.01268
0.0126798
0.0126806
0.0126804
0.0126812
0.0126811
0.0126818
0.0126817
0.0126824
0.0126823
0.012683
0.0126829
0.0126836
0.0126835
0.0126841
0.0126841
0.0126847
0.0126846
0.0126852
0.0126852
0.0126857
0.0126857
0.0126862
0.0126862
0.0126867
0.0126866
0.0126871
0.012687
0.0126875
0.0126874
0.0126878
0.0126877
0.0126881
0.012688
0.0126883
0.0126878
0.0126844
0.0151799
0.0153872
0.0153865
0.0153903
0.0153863
0.01539
0.0153881
0.0153924
0.0153918
0.0153959
0.0153957
0.0153995
0.0153998
0.0154036
0.0154043
0.015408
0.0154087
0.0154121
0.0154129
0.0154162
0.0154171
0.0154202
0.0154211
0.0154239
0.0154247
0.0154273
0.0154281
0.0154305
0.0154311
0.0154332
0.0154337
0.0154355
0.0154358
0.0154373
0.0154375
0.0154389
0.0154389
0.01544
0.01544
0.0154409
0.0154407
0.0154414
0.0154412
0.0154419
0.0154416
0.0154422
0.015442
0.0154425
0.0154423
0.0154429
0.0154427
0.0154432
0.015443
0.0154435
0.0154433
0.0154438
0.0154437
0.0154441
0.015444
0.0154444
0.0154443
0.0154447
0.0154446
0.015445
0.0154449
0.0154452
0.0154452
0.0154455
0.0154454
0.0154458
0.0154457
0.015446
0.015446
0.0154462
0.0154462
0.0154465
0.0154464
0.0154467
0.0154466
0.0154468
0.0154468
0.015447
0.0154469
0.0154471
0.015447
0.0154472
0.015447
0.0154472
0.0154448
0.0154436
0.0264625
0.0265206
0.0265228
0.0265259
0.0265246
0.0265272
0.0265274
0.0265307
0.0265319
0.026535
0.0265363
0.0265393
0.0265409
0.026544
0.0265459
0.0265488
0.0265506
0.0265533
0.026555
0.0265577
0.0265595
0.026562
0.0265636
0.0265658
0.0265673
0.0265694
0.0265708
0.0265727
0.0265739
0.0265754
0.0265764
0.0265777
0.0265784
0.0265795
0.0265801
0.026581
0.0265814
0.026582
0.0265822
0.0265827
0.0265827
0.0265831
0.026583
0.0265833
0.0265832
0.0265834
0.0265833
0.0265835
0.0265834
0.0265836
0.0265835
0.0265837
0.0265836
0.0265838
0.0265837
0.0265839
0.0265838
0.026584
0.0265839
0.026584
0.026584
0.0265841
0.0265841
0.0265842
0.0265842
0.0265843
0.0265843
0.0265844
0.0265843
0.0265844
0.0265844
0.0265845
0.0265845
0.0265845
0.0265845
0.0265846
0.0265846
0.0265846
0.0265846
0.0265847
0.0265846
0.0265847
0.0265846
0.0265847
0.0265846
0.0265846
0.0265845
0.0265845
0.0265819
0.0265805
0.0121811
0.0123341
0.0123783
0.0124112
0.0124388
0.012464
0.0124861
0.0125074
0.0125257
0.0125442
0.01256
0.0125768
0.0125912
0.0126067
0.0126198
0.0126339
0.0126458
0.0126588
0.0126698
0.0126818
0.0126916
0.0127023
0.0127108
0.0127202
0.0127275
0.0127356
0.0127416
0.0127482
0.012753
0.0127582
0.0127617
0.0127658
0.0127682
0.0127713
0.0127728
0.012775
0.0127758
0.0127772
0.0127775
0.0127785
0.0127785
0.0127792
0.012779
0.0127796
0.0127794
0.0127798
0.0127796
0.0127801
0.0127799
0.0127803
0.0127801
0.0127805
0.0127803
0.0127807
0.0127806
0.0127809
0.0127808
0.0127811
0.012781
0.0127813
0.0127812
0.0127815
0.0127814
0.0127817
0.0127816
0.0127819
0.0127818
0.0127821
0.012782
0.0127823
0.0127822
0.0127824
0.0127824
0.0127826
0.0127826
0.0127828
0.0127827
0.0127829
0.0127829
0.0127831
0.0127831
0.0127833
0.0127833
0.0127835
0.0127835
0.0127837
0.0127837
0.0127842
0.0127835
0.0127835
0.0117436
0.0120175
0.0120626
0.012096
0.0121226
0.0121479
0.0121694
0.0121908
0.0122089
0.0122272
0.0122428
0.0122592
0.0122735
0.0122887
0.0123018
0.0123156
0.0123274
0.0123401
0.012351
0.0123627
0.0123726
0.012383
0.0123916
0.0124007
0.0124081
0.012416
0.0124221
0.0124286
0.0124335
0.0124386
0.0124423
0.0124462
0.0124489
0.0124518
0.0124535
0.0124556
0.0124566
0.0124579
0.0124584
0.0124592
0.0124593
0.0124599
0.0124598
0.0124603
0.0124601
0.0124605
0.0124603
0.0124607
0.0124605
0.0124608
0.0124607
0.012461
0.0124609
0.0124611
0.012461
0.0124613
0.0124612
0.0124615
0.0124614
0.0124616
0.0124615
0.0124618
0.0124617
0.0124619
0.0124619
0.0124621
0.012462
0.0124622
0.0124622
0.0124624
0.0124623
0.0124625
0.0124625
0.0124627
0.0124626
0.0124628
0.0124628
0.0124629
0.0124629
0.0124631
0.0124631
0.0124632
0.0124632
0.0124634
0.0124633
0.0124635
0.0124634
0.0124637
0.0124635
0.0124638
0.0112736
0.0116661
0.0117164
0.0117475
0.0117722
0.0117953
0.0118156
0.0118355
0.011853
0.01187
0.0118852
0.0119003
0.0119142
0.0119283
0.0119412
0.0119541
0.0119658
0.0119776
0.0119883
0.0119993
0.0120091
0.012019
0.0120277
0.0120364
0.0120439
0.0120514
0.0120578
0.0120641
0.0120693
0.0120743
0.0120782
0.0120821
0.012085
0.0120879
0.0120899
0.012092
0.0120932
0.0120946
0.0120952
0.012096
0.0120963
0.0120968
0.0120968
0.0120971
0.0120971
0.0120973
0.0120972
0.0120974
0.0120973
0.0120975
0.0120974
0.0120975
0.0120975
0.0120976
0.0120976
0.0120977
0.0120977
0.0120978
0.0120978
0.0120979
0.0120979
0.012098
0.0120979
0.0120981
0.012098
0.0120981
0.0120981
0.0120982
0.0120982
0.0120983
0.0120983
0.0120984
0.0120984
0.0120985
0.0120985