/*--------------------------------*- C++ -*----------------------------------*\
  =========                 |
  \\      /  F ield         | OpenFOAM: The Open Source CFD Toolbox
   \\    /   O peration     | Website:  https://openfoam.org
    \\  /    A nd           | Version:  7
     \\/     M anipulation  |
\*---------------------------------------------------------------------------*/
FoamFile
{
    version     2.0;
    format      ascii;
    class       volVectorField;
    location    "2.3225";
    object      U_0;
}
// * * * * * * * * * * * * * * * * * * * * * * * * * * * * * * * * * * * * * //

dimensions      [0 1 -1 0 0 0 0];

internalField   nonuniform List<vector> 
7920
(
(2.93027 0.101965 -32.3839)
(2.10559 -0.46207 -32.4377)
(1.3937 -0.616622 -32.4392)
(1.28553 -0.672888 -32.4489)
(1.0517 -0.689737 -32.4456)
(1.07798 -0.694719 -32.4516)
(0.93773 -0.698855 -32.4485)
(0.983386 -0.699086 -32.4529)
(0.878754 -0.701315 -32.4503)
(0.924059 -0.70108 -32.4536)
(0.840955 -0.702647 -32.4515)
(0.882026 -0.702138 -32.4539)
(0.814439 -0.703112 -32.4523)
(0.850562 -0.702533 -32.454)
(0.79489 -0.702886 -32.4529)
(0.826058 -0.702963 -32.4539)
(0.778923 -0.699014 -32.454)
(0.800775 -0.705532 -32.4532)
(0.766502 -0.646998 -32.4567)
(0.59584 -0.659528 -32.4464)
(4.4115 0.967668 -32.4306)
(4.33463 0.873013 -32.4751)
(3.68292 0.818764 -32.4787)
(3.53587 0.751753 -32.4918)
(3.13701 0.724107 -32.4919)
(3.13233 0.710774 -32.4995)
(2.87066 0.704277 -32.4988)
(2.91346 0.700848 -32.5038)
(2.71873 0.698806 -32.5034)
(2.77181 0.69713 -32.5066)
(2.61778 0.69605 -32.5058)
(2.67025 0.694875 -32.5077)
(2.54503 0.694203 -32.5071)
(2.59355 0.693237 -32.5079)
(2.49004 0.692596 -32.508)
(2.53533 0.692642 -32.5072)
(2.44333 0.689419 -32.5101)
(2.50493 0.694291 -32.5042)
(2.38506 0.684572 -32.5176)
(2.66203 0.676755 -32.4781)
(4.75201 0.193196 -32.435)
(5.25886 -0.229049 -32.4696)
(5.11487 -0.375143 -32.4612)
(5.22729 -0.493716 -32.4732)
(4.98353 -0.558753 -32.4688)
(5.03439 -0.595518 -32.4787)
(4.82104 -0.620035 -32.4758)
(4.86463 -0.633912 -32.484)
(4.68923 -0.644538 -32.482)
(4.73059 -0.651232 -32.4884)
(4.58665 -0.65669 -32.487)
(4.62524 -0.660721 -32.4914)
(4.50635 -0.663848 -32.4904)
(4.54123 -0.666577 -32.4926)
(4.44331 -0.668652 -32.4926)
(4.47103 -0.669633 -32.492)
(4.39731 -0.672867 -32.4953)
(4.39813 -0.668707 -32.4892)
(4.37282 -0.669624 -32.5007)
(4.27846 -0.690532 -32.4676)
(4.75305 0.649431 -32.445)
(5.28515 0.749732 -32.4766)
(5.38636 0.797062 -32.4662)
(5.69232 0.767431 -32.4744)
(5.63436 0.749584 -32.4692)
(5.80704 0.735282 -32.4767)
(5.71428 0.724976 -32.4741)
(5.82771 0.716966 -32.4806)
(5.73409 0.71092 -32.4795)
(5.81623 0.705322 -32.4848)
(5.73053 0.701376 -32.4846)
(5.79373 0.697202 -32.4884)
(5.71739 0.694721 -32.4887)
(5.76895 0.691247 -32.4904)
(5.69986 0.690399 -32.4913)
(5.74753 0.686413 -32.4907)
(5.67786 0.689375 -32.4928)
(5.74008 0.682177 -32.4895)
(5.65149 0.696727 -32.494)
(5.794 0.707348 -32.4668)
(4.74512 -0.0881663 -32.4441)
(5.24865 -0.387192 -32.4754)
(5.40705 -0.479934 -32.4618)
(5.76853 -0.545862 -32.4699)
(5.78007 -0.581808 -32.462)
(6.01309 -0.601911 -32.4695)
(5.98716 -0.616266 -32.4647)
(6.15338 -0.624291 -32.4713)
(6.11903 -0.631241 -32.4685)
(6.24485 -0.635641 -32.4742)
(6.20971 -0.639853 -32.4726)
(6.30791 -0.642897 -32.4771)
(6.27432 -0.645998 -32.4762)
(6.35248 -0.647888 -32.4792)
(6.32171 -0.651438 -32.4785)
(6.38335 -0.649998 -32.4799)
(6.35992 -0.659193 -32.4795)
(6.39905 -0.647991 -32.4796)
(6.39628 -0.67151 -32.4794)
(6.39593 -0.693315 -32.4564)
(4.7326 0.352123 -32.4477)
(5.19198 0.557241 -32.4797)
(5.36041 0.635741 -32.4659)
(5.73732 0.655965 -32.4741)
(5.77272 0.666246 -32.4656)
(6.02948 0.669603 -32.473)
(6.03032 0.671795 -32.4676)
(6.22109 0.671911 -32.474)
(6.21407 0.672258 -32.4706)
(6.36339 0.671517 -32.4761)
(6.35437 0.671398 -32.474)
(6.47403 0.670516 -32.4785)
(6.46408 0.670557 -32.4771)
(6.5615 0.669288 -32.4804)
(6.55064 0.670646 -32.4791)
(6.63137 0.667015 -32.4811)
(6.62024 0.67438 -32.4798)
(6.68837 0.663364 -32.4809)
(6.68161 0.68684 -32.4795)
(6.74711 0.709026 -32.4563)
(4.7326 -0.352123 -32.4477)
(5.19198 -0.557241 -32.4797)
(5.36041 -0.635741 -32.4659)
(5.73732 -0.655964 -32.4741)
(5.77272 -0.666246 -32.4656)
(6.02948 -0.669602 -32.473)
(6.03032 -0.671794 -32.4676)
(6.22109 -0.671908 -32.474)
(6.21407 -0.672254 -32.4706)
(6.36339 -0.671509 -32.4761)
(6.35437 -0.671383 -32.474)
(6.47402 -0.670494 -32.4785)
(6.46411 -0.670513 -32.4771)
(6.56148 -0.669208 -32.4804)
(6.55072 -0.670555 -32.4791)
(6.63131 -0.666706 -32.4811)
(6.62045 -0.674238 -32.4798)
(6.68822 -0.662419 -32.4809)
(6.68192 -0.686331 -32.4795)
(6.7468 -0.707241 -32.4563)
(4.74512 0.0881663 -32.4441)
(5.24865 0.387192 -32.4754)
(5.40705 0.479934 -32.4618)
(5.76853 0.545863 -32.4699)
(5.78007 0.581808 -32.462)
(6.01309 0.601912 -32.4695)
(5.98716 0.616267 -32.4647)
(6.15339 0.624294 -32.4714)
(6.11903 0.631245 -32.4684)
(6.24486 0.635647 -32.4742)
(6.20969 0.63987 -32.4725)
(6.30796 0.642913 -32.4772)
(6.27429 0.646047 -32.476)
(6.35259 0.647951 -32.4794)
(6.32168 0.651538 -32.4782)
(6.38363 0.650271 -32.4803)
(6.35999 0.659354 -32.4791)
(6.39974 0.648909 -32.4801)
(6.39691 0.672006 -32.4789)
(6.39776 0.69525 -32.4568)
(4.75305 -0.649431 -32.445)
(5.28515 -0.749732 -32.4766)
(5.38636 -0.797062 -32.4662)
(5.69232 -0.76743 -32.4744)
(5.63436 -0.749584 -32.4692)
(5.80705 -0.735281 -32.4767)
(5.71428 -0.724976 -32.474)
(5.82771 -0.716962 -32.4807)
(5.73409 -0.710917 -32.4794)
(5.81624 -0.705313 -32.4849)
(5.73053 -0.701365 -32.4845)
(5.79378 -0.697179 -32.4886)
(5.71742 -0.69469 -32.4884)
(5.76907 -0.69117 -32.4909)
(5.69997 -0.690345 -32.4906)
(5.7478 -0.686132 -32.4918)
(5.67832 -0.689331 -32.4913)
(5.74059 -0.681361 -32.4916)
(5.65283 -0.696484 -32.4912)
(5.79516 -0.706028 -32.4703)
(4.75201 -0.193196 -32.435)
(5.25886 0.229049 -32.4696)
(5.11487 0.375143 -32.4612)
(5.22729 0.493716 -32.4732)
(4.98353 0.558753 -32.4688)
(5.03439 0.595518 -32.4787)
(4.82104 0.620036 -32.4758)
(4.86463 0.633912 -32.484)
(4.68923 0.644543 -32.482)
(4.73061 0.651233 -32.4885)
(4.58665 0.656705 -32.4869)
(4.62532 0.660722 -32.4917)
(4.50635 0.663888 -32.49)
(4.54147 0.666592 -32.4932)
(4.44336 0.668736 -32.4916)
(4.47165 0.669753 -32.4938)
(4.39766 0.673002 -32.4924)
(4.39967 0.669242 -32.494)
(4.37433 0.669977 -32.493)
(4.28298 0.691772 -32.4796)
(4.4115 -0.967668 -32.4306)
(4.33463 -0.873013 -32.4751)
(3.68292 -0.818764 -32.4787)
(3.53587 -0.751753 -32.4918)
(3.13701 -0.724107 -32.4918)
(3.13233 -0.710774 -32.4995)
(2.87067 -0.704277 -32.4988)
(2.91347 -0.700846 -32.5038)
(2.71873 -0.698806 -32.5033)
(2.77183 -0.697125 -32.5066)
(2.6178 -0.696049 -32.5057)
(2.6703 -0.694862 -32.5079)
(2.54508 -0.694197 -32.5068)
(2.59373 -0.693192 -32.5083)
(2.49021 -0.692595 -32.5074)
(2.53573 -0.692478 -32.5084)
(2.44404 -0.6895 -32.5078)
(2.50553 -0.693852 -32.5088)
(2.38745 -0.684869 -32.508)
(2.66253 -0.676931 -32.4994)
(2.93027 -0.101965 -32.3839)
(2.10559 0.462069 -32.4377)
(1.3937 0.616622 -32.4392)
(1.28553 0.672888 -32.4489)
(1.0517 0.689737 -32.4456)
(1.07798 0.694718 -32.4516)
(0.937731 0.698856 -32.4485)
(0.983388 0.699085 -32.4529)
(0.878757 0.701317 -32.4503)
(0.924069 0.701076 -32.4536)
(0.840963 0.702651 -32.4515)
(0.882058 0.702128 -32.4539)
(0.814457 0.703123 -32.4522)
(0.850656 0.702502 -32.4541)
(0.794955 0.702918 -32.4527)
(0.826284 0.702875 -32.4542)
(0.779242 0.699148 -32.4533)
(0.801223 0.705379 -32.4546)
(0.767781 0.647667 -32.4538)
(0.597925 0.660341 -32.4542)
(4.32492 0.56602 0.00694517)
(3.07996 0.847736 0.00447771)
(2.31631 0.86966 0.00575043)
(1.74985 0.852904 0.00427441)
(1.61194 0.85566 0.00542009)
(1.40851 0.867527 0.00425217)
(1.40213 0.877557 0.00520803)
(1.28083 0.885681 0.00422769)
(1.28827 0.889987 0.00500994)
(1.20273 0.893675 0.0041829)
(1.21112 0.895429 0.00482437)
(1.14878 0.89748 0.00413017)
(1.15556 0.898251 0.00465716)
(1.10819 0.899711 0.00407637)
(1.11385 0.899544 0.0045085)
(1.0744 0.90194 0.00402279)
(1.08191 0.894418 0.00437763)
(1.05944 0.916244 0.00396697)
(1.01483 0.792552 0.0042894)
(1.45772 0.820069 0.00385708)
(4.75901 -0.100034 0.00436883)
(4.61282 -0.277163 0.00233609)
(4.5275 -0.477265 0.00363981)
(4.14604 -0.64329 0.00219744)
(4.00416 -0.739738 0.00335128)
(3.7267 -0.795138 0.00218882)
(3.65326 -0.822692 0.0031486)
(3.46692 -0.839833 0.00217087)
(3.42744 -0.850111 0.00295589)
(3.29555 -0.857912 0.00213054)
(3.27045 -0.863241 0.00277392)
(3.17305 -0.867719 0.00208058)
(3.15449 -0.870617 0.00260886)
(3.07916 -0.873908 0.00202859)
(3.06557 -0.874532 0.0024612)
(3.00051 -0.879058 0.00197646)
(3.00109 -0.875862 0.00232666)
(2.9163 -0.882947 0.00192424)
(2.99235 -0.886502 0.00217926)
(2.59116 -0.894452 0.00180147)
(4.63773 0.435273 0.00566721)
(4.82726 0.871381 0.00371132)
(5.14342 0.969603 0.00489711)
(5.08456 0.960464 0.00341456)
(5.14704 0.942358 0.00454267)
(5.01227 0.929215 0.00336765)
(5.01883 0.919901 0.00432158)
(4.90055 0.914096 0.00334042)
(4.89548 0.907701 0.00412374)
(4.8 0.904125 0.0032966)
(4.79006 0.899614 0.00393883)
(4.71359 0.897507 0.00324414)
(4.70099 0.894565 0.00377136)
(4.63997 0.893082 0.00318985)
(4.62426 0.891595 0.00362206)
(4.57955 0.889452 0.00313548)
(4.55079 0.888337 0.00349115)
(4.54632 0.888322 0.00307866)
(4.46644 0.849296 0.00340227)
(4.58474 0.890175 0.00299237)
(4.5759 -0.20172 0.00448836)
(4.70073 -0.398241 0.00275179)
(5.13198 -0.518942 0.00394207)
(5.23268 -0.623696 0.0024885)
(5.45044 -0.691544 0.00361804)
(5.45217 -0.73878 0.00244716)
(5.56439 -0.765484 0.00340384)
(5.53955 -0.784889 0.00242584)
(5.60445 -0.797522 0.00321178)
(5.57428 -0.808058 0.0023876)
(5.61297 -0.815855 0.00303168)
(5.58355 -0.82265 0.00233921)
(5.60659 -0.827936 0.00286758)
(5.57952 -0.832652 0.00228783)
(5.59342 -0.836565 0.00272011)
(5.56685 -0.839336 0.00223575)
(5.57949 -0.846492 0.00258487)
(5.53649 -0.840834 0.00218152)
(5.57629 -0.876326 0.00243446)
(5.38185 -0.897402 0.00208427)
(4.58897 0.341465 0.00514172)
(4.69677 0.688413 0.00344486)
(5.10797 0.803357 0.00458784)
(5.22949 0.844929 0.00312033)
(5.48744 0.862029 0.00423721)
(5.53822 0.871808 0.00305973)
(5.70124 0.875609 0.00401317)
(5.72885 0.878162 0.00303298)
(5.84236 0.877487 0.00381794)
(5.86023 0.877638 0.00299265)
(5.9414 0.876017 0.00363612)
(5.95342 0.875646 0.00294288)
(6.01205 0.874263 0.00347073)
(6.0208 0.873456 0.00289035)
(6.06212 0.873325 0.00332255)
(6.07168 0.870316 0.00283718)
(6.09396 0.874677 0.00319061)
(6.1127 0.866295 0.00278094)
(6.11292 0.870282 0.00308543)
(6.11159 0.917022 0.00270989)
(4.58292 -0.269101 0.00477081)
(4.66858 -0.539377 0.0031383)
(5.07465 -0.653846 0.00428046)
(5.1975 -0.724712 0.00282001)
(5.46691 -0.765252 0.00393508)
(5.53281 -0.792957 0.00275752)
(5.71382 -0.807641 0.00371087)
(5.7608 -0.818418 0.00273092)
(5.89435 -0.824222 0.00351628)
(5.93296 -0.829582 0.00269154)
(6.03449 -0.832761 0.00333538)
(6.0667 -0.836119 0.00264265)
(6.14497 -0.838398 0.00317076)
(6.17167 -0.840383 0.00259086)
(6.23253 -0.843115 0.00302295)
(6.25406 -0.842102 0.0025384)
(6.30205 -0.850933 0.0028889)
(6.31048 -0.840261 0.0024829)
(6.36145 -0.870945 0.0027585)
(6.27622 -0.905816 0.00240672)
(4.58292 0.269101 0.00477081)
(4.66858 0.539377 0.0031383)
(5.07465 0.653846 0.00428046)
(5.1975 0.724712 0.00282001)
(5.46691 0.765252 0.00393508)
(5.53281 0.792958 0.00275752)
(5.71382 0.807642 0.00371087)
(5.7608 0.818422 0.00273092)
(5.89434 0.824227 0.00351628)
(5.93296 0.829592 0.00269154)
(6.03448 0.832777 0.00333539)
(6.06672 0.836149 0.00264263)
(6.14494 0.838442 0.00317077)
(6.17173 0.840478 0.0025908)
(6.23246 0.843234 0.00302301)
(6.25425 0.842388 0.00253824)
(6.30193 0.851272 0.00288915)
(6.31111 0.841063 0.00248252)
(6.3617 0.871914 0.00275963)
(6.27734 0.907916 0.00240636)
(4.58897 -0.341465 0.00514172)
(4.69677 -0.688413 0.00344486)
(5.10797 -0.803357 0.00458784)
(5.22949 -0.844928 0.00312033)
(5.48744 -0.862029 0.00423721)
(5.53822 -0.871806 0.00305973)
(5.70124 -0.875608 0.00401317)
(5.72885 -0.878158 0.00303298)
(5.84236 -0.877483 0.00381793)
(5.86024 -0.877627 0.00299266)
(5.94141 -0.876004 0.00363611)
(5.95343 -0.875612 0.0029429)
(6.01208 -0.874229 0.0034707)
(6.02082 -0.87335 0.00289042)
(6.06225 -0.87324 0.00332244)
(6.07169 -0.870015 0.00283736)
(6.09435 -0.874447 0.00319027)
(6.11258 -0.865593 0.00278125)
(6.11369 -0.869586 0.00308428)
(6.11173 -0.915172 0.00270983)
(4.5759 0.20172 0.00448836)
(4.70073 0.398241 0.00275179)
(5.13198 0.518942 0.00394207)
(5.23268 0.623696 0.0024885)
(5.45043 0.691544 0.00361804)
(5.45218 0.738781 0.00244716)
(5.56439 0.765486 0.00340383)
(5.53956 0.784891 0.00242584)
(5.60445 0.797528 0.00321178)
(5.5743 0.808064 0.0023876)
(5.61296 0.815872 0.00303167)
(5.58361 0.822668 0.00233921)
(5.60658 0.827983 0.00286757)
(5.57969 0.832713 0.00228782)
(5.59343 0.836692 0.00272011)
(5.56732 0.839533 0.0022357)
(5.57966 0.846857 0.00258496)
(5.53784 0.841504 0.00218135)
(5.57733 0.877363 0.00243543)
(5.38543 0.899275 0.00208396)
(4.63773 -0.435273 0.00566721)
(4.82726 -0.87138 0.00371132)
(5.14342 -0.969604 0.0048971)
(5.08456 -0.960463 0.00341456)
(5.14704 -0.942358 0.00454267)
(5.01227 -0.929214 0.00336765)
(5.01883 -0.9199 0.00432157)
(4.90056 -0.914092 0.00334042)
(4.89549 -0.907699 0.00412373)
(4.80002 -0.904116 0.00329662)
(4.79007 -0.899607 0.0039388)
(4.71366 -0.897479 0.00324418)
(4.70103 -0.89455 0.00377129)
(4.64014 -0.892995 0.00318997)
(4.62443 -0.891571 0.00362185)
(4.57996 -0.889209 0.00313579)
(4.55138 -0.888298 0.00349054)
(4.54727 -0.887854 0.0030793)
(4.46797 -0.84917 0.00340064)
(4.58731 -0.889527 0.00299274)
(4.75901 0.100034 0.00436883)
(4.61282 0.277163 0.00233609)
(4.5275 0.477265 0.00363981)
(4.14604 0.64329 0.00219744)
(4.00416 0.739739 0.00335128)
(3.7267 0.795138 0.00218882)
(3.65327 0.822693 0.0031486)
(3.46693 0.839833 0.00217087)
(3.42744 0.850115 0.00295589)
(3.29558 0.857911 0.00213054)
(3.27046 0.863253 0.00277391)
(3.17313 0.867716 0.00208059)
(3.15453 0.870651 0.00260885)
(3.0794 0.873898 0.00202861)
(3.0657 0.87463 0.00246114)
(3.00119 0.879039 0.00197655)
(3.00147 0.876156 0.0023265)
(2.91845 0.883084 0.00192444)
(2.99308 0.887383 0.00217933)
(2.59938 0.895997 0.00180213)
(4.32492 -0.56602 0.00694517)
(3.07996 -0.847736 0.0044777)
(2.31631 -0.86966 0.00575042)
(1.74985 -0.852904 0.00427441)
(1.61194 -0.85566 0.00542008)
(1.40851 -0.867527 0.00425217)
(1.40213 -0.877557 0.00520803)
(1.28083 -0.885679 0.00422769)
(1.28828 -0.889988 0.00500993)
(1.20275 -0.893671 0.00418291)
(1.21114 -0.895433 0.00482435)
(1.14883 -0.897466 0.00413019)
(1.15562 -0.898264 0.00465712)
(1.10831 -0.899664 0.00407644)
(1.11401 -0.899594 0.00450837)
(1.0747 -0.901803 0.00402302)
(1.08243 -0.89463 0.00437719)
(1.06008 -0.916019 0.00396762)
(1.01643 -0.793665 0.00428767)
(1.45819 -0.821525 0.00386025)
(4.3785 0.0972573 0.00138384)
(3.96731 0.149128 0.0019277)
(3.43219 0.163048 0.00097303)
(2.9552 0.156806 0.00151598)
(2.54308 0.145199 0.000992754)
(2.2397 0.1366 0.00140954)
(2.01575 0.131597 0.0010657)
(1.86376 0.131226 0.00132825)
(1.76157 0.13361 0.00109632)
(1.6885 0.138105 0.00125042)
(1.64303 0.143137 0.00110694)
(1.60246 0.148542 0.00118922)
(1.58008 0.153153 0.00111479)
(1.55284 0.158021 0.00114783)
(1.53918 0.160769 0.00112702)
(1.52123 0.16604 0.00112327)
(1.50495 0.164462 0.00114857)
(1.50862 0.174659 0.00110982)
(1.46223 0.160077 0.00116279)
(1.53813 0.167315 0.00117938)
(4.5415 0.0879611 0.00317606)
(4.67884 0.119573 0.00389918)
(4.72152 0.120935 0.00293856)
(4.71049 0.0946529 0.00345712)
(4.63346 0.0564348 0.00290974)
(4.53815 0.013943 0.00331264)
(4.43076 -0.024146 0.00296035)
(4.32591 -0.0568695 0.00321938)
(4.23033 -0.0818302 0.00298507)
(4.13884 -0.10168 0.00313857)
(4.06211 -0.116112 0.0029942)
(3.9862 -0.127747 0.00307638)
(3.92609 -0.13623 0.00300155)
(3.86376 -0.143471 0.00303429)
(3.81722 -0.148834 0.00301384)
(3.76646 -0.153382 0.00300883)
(3.72994 -0.157832 0.00303799)
(3.69167 -0.159476 0.00299307)
(3.65689 -0.165589 0.0030894)
(3.63756 -0.170922 0.00309509)
(4.5168 0.0458417 0.00174101)
(4.65692 0.110577 0.00234828)
(4.78963 0.163001 0.00141924)
(4.93868 0.191479 0.00194143)
(5.0468 0.201806 0.00140016)
(5.13162 0.202702 0.00180973)
(5.18272 0.199445 0.00146564)
(5.21222 0.196406 0.00172973)
(5.22654 0.19451 0.00150076)
(5.22715 0.194075 0.00165624)
(5.2244 0.194468 0.00151462)
(5.21286 0.195382 0.00159728)
(5.2026 0.19608 0.00152375)
(5.18747 0.197238 0.00155673)
(5.17276 0.196703 0.00153611)
(5.15979 0.19928 0.00153288)
(5.13946 0.194133 0.00155512)
(5.13507 0.204055 0.00152537)
(5.10414 0.184055 0.00155197)
(5.11371 0.208291 0.00158643)
(4.51283 0.0442474 0.00275954)
(4.62243 0.0509477 0.0034768)
(4.7472 0.0466834 0.00257273)
(4.90743 0.0291689 0.00310056)
(5.04775 0.0069348 0.00254536)
(5.18082 -0.0182392 0.00294337)
(5.28827 -0.042113 0.00258852)
(5.37831 -0.0637037 0.00284758)
(5.45295 -0.0813835 0.0026142)
(5.51303 -0.0959918 0.00276808)
(5.56724 -0.107509 0.0026244)
(5.61026 -0.116813 0.00270645)
(5.65222 -0.124546 0.00263175)
(5.68526 -0.130455 0.00266432)
(5.71897 -0.136516 0.00264335)
(5.74528 -0.139483 0.00263949)
(5.77387 -0.146308 0.00266541)
(5.79237 -0.145014 0.00263188)
(5.82234 -0.155027 0.00271918)
(5.8206 -0.153067 0.00272456)
(4.51394 0.0166257 0.00205894)
(4.6236 0.0557424 0.00273054)
(4.74138 0.0915098 0.00183602)
(4.89558 0.117189 0.00235481)
(5.03367 0.133523 0.00179735)
(5.17052 0.14463 0.00219547)
(5.28657 0.152394 0.00184329)
(5.38965 0.159111 0.00210454)
(5.48028 0.164978 0.00187384)
(5.55885 0.170541 0.00202897)
(5.6334 0.175378 0.00188698)
(5.69798 0.179797 0.00196955)
(5.76311 0.183162 0.00189588)
(5.81904 0.186573 0.00192879)
(5.87814 0.187955 0.00190816)
(5.92638 0.191814 0.00190534)
(5.98403 0.189033 0.00192707)
(6.01804 0.198324 0.00190204)
(6.08904 0.184383 0.00193773)
(6.08562 0.209462 0.00197043)
(4.51268 0.0119425 0.00239197)
(4.61575 -0.00400839 0.00309282)
(4.73211 -0.023427 0.00220612)
(4.88459 -0.0448935 0.00273091)
(5.02182 -0.0640031 0.00217207)
(5.15854 -0.08182 0.00256855)
(5.27568 -0.0973393 0.00221391)
(5.38099 -0.11111 0.00247414)
(5.47519 -0.122612 0.00224237)
(5.55812 -0.13236 0.0023972)
(5.63847 -0.140347 0.00225469)
(5.70891 -0.146881 0.00233711)
(5.78201 -0.152363 0.00226315)
(5.84441 -0.156605 0.00229587)
(5.91414 -0.16051 0.00227523)
(5.96772 -0.163193 0.00227213)
(6.04032 -0.16591 0.00229584)
(6.07522 -0.168526 0.00226931)
(6.16892 -0.167897 0.0023333)
(6.15737 -0.177429 0.00234905)
(4.51268 -0.0119426 0.00239197)
(4.61575 0.00400872 0.00309282)
(4.73211 0.0234267 0.00220612)
(4.88459 0.0448943 0.00273091)
(5.02182 0.064003 0.00217207)
(5.15854 0.081822 0.00256855)
(5.27568 0.0973401 0.00221391)
(5.381 0.111115 0.00247414)
(5.47519 0.122617 0.00224237)
(5.55812 0.132372 0.0023972)
(5.63847 0.140361 0.00225469)
(5.70892 0.146916 0.00233713)
(5.78201 0.152397 0.00226313)
(5.84442 0.156714 0.00229593)
(5.91414 0.160582 0.00227517)
(5.96775 0.163512 0.00227226)
(6.04034 0.1661 0.00229552)
(6.07529 0.169315 0.00226955)
(6.16904 0.1686 0.00233153)
(6.15761 0.179036 0.0023494)
(4.51394 -0.0166258 0.00205894)
(4.6236 -0.0557421 0.00273054)
(4.74138 -0.0915101 0.00183602)
(4.89558 -0.117188 0.00235481)
(5.03367 -0.133523 0.00179735)
(5.17052 -0.144628 0.00219547)
(5.28657 -0.152393 0.00184329)
(5.38966 -0.159106 0.00210454)
(5.48028 -0.164974 0.00187385)
(5.55885 -0.170529 0.00202896)
(5.63341 -0.175365 0.00188698)
(5.69799 -0.179762 0.00196953)
(5.76313 -0.18313 0.0018959)
(5.81905 -0.186464 0.00192874)
(5.87822 -0.187887 0.00190822)
(5.92639 -0.1915 0.0019052)
(5.98423 -0.188858 0.00192734)
(6.01811 -0.197559 0.00190179)
(6.08948 -0.183735 0.00193918)
(6.08597 -0.207971 0.00197006)
(4.51283 -0.0442475 0.00275954)
(4.62243 -0.0509474 0.0034768)
(4.7472 -0.0466836 0.00257273)
(4.90743 -0.0291682 0.00310056)
(5.04775 -0.00693488 0.00254536)
(5.18082 0.018241 0.00294338)
(5.28827 0.0421139 0.00258852)
(5.37831 0.0637079 0.00284758)
(5.45295 0.0813878 0.0026142)
(5.51305 0.0960023 0.00276809)
(5.56723 0.107523 0.00262439)
(5.61029 0.116843 0.00270647)
(5.65223 0.12458 0.00263171)
(5.68534 0.130551 0.00266437)
(5.71904 0.136585 0.00264325)
(5.74546 0.13977 0.00263961)
(5.77415 0.146475 0.00266503)
(5.7928 0.145746 0.00263209)
(5.82324 0.155638 0.00271747)
(5.82184 0.154589 0.00272455)
(4.5168 -0.0458418 0.00174101)
(4.65692 -0.110577 0.00234828)
(4.78962 -0.163001 0.00141924)
(4.93868 -0.191478 0.00194144)
(5.0468 -0.201806 0.00140016)
(5.13162 -0.202701 0.00180973)
(5.18272 -0.199444 0.00146563)
(5.21223 -0.196401 0.00172974)
(5.22653 -0.194508 0.00150075)
(5.22718 -0.194064 0.00165625)
(5.22439 -0.194459 0.00151461)
(5.21294 -0.195352 0.00159729)
(5.20259 -0.196058 0.00152374)
(5.18766 -0.197147 0.00155674)
(5.17283 -0.196663 0.0015361)
(5.16021 -0.199022 0.00153287)
(5.13986 -0.194037 0.00155515)
(5.13599 -0.203446 0.00152535)
(5.10548 -0.183662 0.00155259)
(5.11596 -0.207279 0.00158639)
(4.5415 -0.0879611 0.00317606)
(4.67884 -0.119573 0.00389918)
(4.72152 -0.120934 0.00293856)
(4.7105 -0.0946527 0.00345712)
(4.63345 -0.0564344 0.00290974)
(4.53815 -0.0139424 0.00331265)
(4.43076 0.0241474 0.00296034)
(4.32592 0.0568709 0.0032194)
(4.23032 0.0818346 0.00298505)
(4.13889 0.101683 0.0031386)
(4.0621 0.116123 0.00299415)
(3.98633 0.127758 0.00307646)
(3.92609 0.136256 0.00300142)
(3.86409 0.143512 0.0030345)
(3.81727 0.148882 0.0030135)
(3.76727 0.153522 0.00300936)
(3.73025 0.157931 0.003037)
(3.69361 0.159855 0.00299439)
(3.65796 0.165935 0.00308643)
(3.64242 0.171713 0.00309782)
(4.3785 -0.0972573 0.00138384)
(3.96731 -0.149128 0.0019277)
(3.43219 -0.163048 0.00097303)
(2.9552 -0.156806 0.00151598)
(2.54308 -0.145199 0.000992755)
(2.23971 -0.1366 0.00140954)
(2.01575 -0.131597 0.00106571)
(1.86377 -0.131225 0.00132825)
(1.76158 -0.13361 0.00109632)
(1.68853 -0.138104 0.00125042)
(1.64306 -0.143136 0.00110694)
(1.60254 -0.148536 0.00118922)
(1.58016 -0.15315 0.00111478)
(1.55306 -0.158004 0.00114784)
(1.53942 -0.16077 0.00112699)
(1.5217 -0.165986 0.00112331)
(1.50571 -0.164487 0.00114838)
(1.50976 -0.174531 0.00111013)
(1.46385 -0.160161 0.00116188)
(1.5424 -0.167444 0.00118099)
(4.3785 0.0972573 -0.00138384)
(3.96731 0.149128 -0.00192771)
(3.43219 0.163048 -0.000973035)
(2.9552 0.156806 -0.00151599)
(2.54308 0.145199 -0.00099276)
(2.2397 0.1366 -0.00140955)
(2.01575 0.131597 -0.00106571)
(1.86376 0.131226 -0.00132826)
(1.76157 0.13361 -0.00109632)
(1.6885 0.138105 -0.00125043)
(1.64303 0.143137 -0.00110695)
(1.60246 0.148542 -0.00118923)
(1.58008 0.153153 -0.00111479)
(1.55284 0.158021 -0.00114784)
(1.53918 0.160769 -0.00112703)
(1.52123 0.16604 -0.00112327)
(1.50495 0.164462 -0.00114858)
(1.50861 0.174659 -0.00110982)
(1.46223 0.160077 -0.0011628)
(1.53813 0.167315 -0.00117938)
(4.5415 0.0879611 -0.00317607)
(4.67884 0.119573 -0.00389919)
(4.72152 0.120935 -0.00293856)
(4.71049 0.0946529 -0.00345713)
(4.63346 0.0564348 -0.00290975)
(4.53815 0.013943 -0.00331265)
(4.43076 -0.024146 -0.00296035)
(4.32591 -0.0568695 -0.00321939)
(4.23033 -0.0818302 -0.00298508)
(4.13884 -0.10168 -0.00313857)
(4.06211 -0.116112 -0.00299421)
(3.9862 -0.127747 -0.00307638)
(3.92609 -0.13623 -0.00300156)
(3.86376 -0.143471 -0.0030343)
(3.81722 -0.148834 -0.00301385)
(3.76646 -0.153382 -0.00300884)
(3.72994 -0.157832 -0.00303799)
(3.69167 -0.159476 -0.00299308)
(3.65689 -0.165589 -0.00308941)
(3.63756 -0.170922 -0.0030951)
(4.5168 0.0458417 -0.00174102)
(4.65692 0.110577 -0.00234828)
(4.78963 0.163001 -0.00141924)
(4.93868 0.191479 -0.00194144)
(5.0468 0.201806 -0.00140017)
(5.13162 0.202702 -0.00180973)
(5.18272 0.199445 -0.00146564)
(5.21222 0.196406 -0.00172974)
(5.22654 0.19451 -0.00150077)
(5.22715 0.194075 -0.00165624)
(5.2244 0.194468 -0.00151463)
(5.21286 0.195382 -0.00159728)
(5.2026 0.19608 -0.00152376)
(5.18747 0.197238 -0.00155673)
(5.17276 0.196703 -0.00153612)
(5.15979 0.19928 -0.00153289)
(5.13946 0.194133 -0.00155513)
(5.13507 0.204055 -0.00152538)
(5.10414 0.184055 -0.00155198)
(5.11371 0.208291 -0.00158643)
(4.51283 0.0442474 -0.00275955)
(4.62243 0.0509477 -0.0034768)
(4.7472 0.0466834 -0.00257274)
(4.90743 0.0291689 -0.00310056)
(5.04775 0.00693479 -0.00254537)
(5.18082 -0.0182392 -0.00294338)
(5.28827 -0.0421131 -0.00258852)
(5.37831 -0.0637037 -0.00284758)
(5.45295 -0.0813835 -0.00261421)
(5.51303 -0.0959918 -0.00276808)
(5.56724 -0.107509 -0.00262441)
(5.61026 -0.116813 -0.00270645)
(5.65222 -0.124546 -0.00263175)
(5.68526 -0.130456 -0.00266432)
(5.71897 -0.136516 -0.00264335)
(5.74528 -0.139483 -0.0026395)
(5.77387 -0.146308 -0.00266541)
(5.79237 -0.145014 -0.00263188)
(5.82234 -0.155027 -0.00271919)
(5.8206 -0.153067 -0.00272457)
(4.51394 0.0166257 -0.00205895)
(4.6236 0.0557424 -0.00273055)
(4.74138 0.0915098 -0.00183603)
(4.89558 0.117189 -0.00235481)
(5.03367 0.133523 -0.00179735)
(5.17052 0.14463 -0.00219548)
(5.28657 0.152394 -0.00184329)
(5.38965 0.159111 -0.00210454)
(5.48028 0.164978 -0.00187385)
(5.55885 0.170541 -0.00202897)
(5.6334 0.175378 -0.00188698)
(5.69798 0.179797 -0.00196955)
(5.76311 0.183162 -0.00189589)
(5.81904 0.186573 -0.00192879)
(5.87814 0.187955 -0.00190817)
(5.92638 0.191814 -0.00190534)
(5.98403 0.189033 -0.00192708)
(6.01804 0.198324 -0.00190204)
(6.08904 0.184383 -0.00193774)
(6.08562 0.209462 -0.00197043)
(4.51268 0.0119425 -0.00239198)
(4.61575 -0.00400839 -0.00309283)
(4.73211 -0.023427 -0.00220613)
(4.88459 -0.0448935 -0.00273092)
(5.02182 -0.0640031 -0.00217207)
(5.15854 -0.08182 -0.00256856)
(5.27568 -0.0973394 -0.00221392)
(5.38099 -0.11111 -0.00247415)
(5.47519 -0.122612 -0.00224238)
(5.55812 -0.13236 -0.0023972)
(5.63847 -0.140347 -0.0022547)
(5.70891 -0.146881 -0.00233712)
(5.78201 -0.152363 -0.00226315)
(5.84441 -0.156605 -0.00229588)
(5.91414 -0.16051 -0.00227524)
(5.96772 -0.163193 -0.00227213)
(6.04032 -0.16591 -0.00229585)
(6.07522 -0.168526 -0.00226932)
(6.16892 -0.167897 -0.00233331)
(6.15737 -0.177429 -0.00234905)
(4.51268 -0.0119426 -0.00239197)
(4.61575 0.00400872 -0.00309283)
(4.73211 0.0234267 -0.00220613)
(4.88459 0.0448943 -0.00273092)
(5.02182 0.064003 -0.00217207)
(5.15854 0.081822 -0.00256856)
(5.27568 0.0973401 -0.00221392)
(5.381 0.111115 -0.00247415)
(5.47519 0.122617 -0.00224237)
(5.55812 0.132372 -0.00239721)
(5.63847 0.140361 -0.00225469)
(5.70892 0.146916 -0.00233714)
(5.78201 0.152397 -0.00226313)
(5.84442 0.156714 -0.00229593)
(5.91414 0.160582 -0.00227517)
(5.96775 0.163512 -0.00227227)
(6.04034 0.1661 -0.00229553)
(6.07529 0.169315 -0.00226955)
(6.16904 0.1686 -0.00233154)
(6.15761 0.179036 -0.00234941)
(4.51394 -0.0166258 -0.00205895)
(4.6236 -0.0557421 -0.00273055)
(4.74138 -0.0915101 -0.00183603)
(4.89558 -0.117188 -0.00235481)
(5.03367 -0.133523 -0.00179735)
(5.17052 -0.144628 -0.00219548)
(5.28657 -0.152393 -0.0018433)
(5.38966 -0.159106 -0.00210454)
(5.48028 -0.164974 -0.00187385)
(5.55885 -0.170529 -0.00202897)
(5.63341 -0.175365 -0.00188699)
(5.69799 -0.179762 -0.00196954)
(5.76313 -0.18313 -0.00189591)
(5.81905 -0.186464 -0.00192874)
(5.87822 -0.187887 -0.00190823)
(5.92639 -0.1915 -0.00190521)
(5.98423 -0.188858 -0.00192734)
(6.01811 -0.197559 -0.0019018)
(6.08948 -0.183735 -0.00193918)
(6.08597 -0.207971 -0.00197006)
(4.51283 -0.0442475 -0.00275955)
(4.62243 -0.0509474 -0.0034768)
(4.7472 -0.0466836 -0.00257274)
(4.90743 -0.0291682 -0.00310056)
(5.04775 -0.00693488 -0.00254537)
(5.18082 0.018241 -0.00294338)
(5.28827 0.0421138 -0.00258852)
(5.37831 0.0637079 -0.00284759)
(5.45295 0.0813878 -0.0026142)
(5.51305 0.0960023 -0.0027681)
(5.56723 0.107523 -0.00262439)
(5.61029 0.116843 -0.00270648)
(5.65223 0.12458 -0.00263172)
(5.68534 0.130551 -0.00266438)
(5.71904 0.136585 -0.00264325)
(5.74546 0.13977 -0.00263961)
(5.77415 0.146475 -0.00266503)
(5.7928 0.145746 -0.0026321)
(5.82324 0.155638 -0.00271748)
(5.82184 0.154589 -0.00272455)
(4.5168 -0.0458418 -0.00174102)
(4.65692 -0.110577 -0.00234828)
(4.78962 -0.163001 -0.00141924)
(4.93868 -0.191478 -0.00194144)
(5.0468 -0.201806 -0.00140017)
(5.13162 -0.202701 -0.00180973)
(5.18272 -0.199444 -0.00146564)
(5.21223 -0.196401 -0.00172975)
(5.22653 -0.194508 -0.00150076)
(5.22718 -0.194064 -0.00165625)
(5.22439 -0.194459 -0.00151462)
(5.21294 -0.195352 -0.0015973)
(5.20259 -0.196058 -0.00152374)
(5.18766 -0.197147 -0.00155674)
(5.17283 -0.196663 -0.0015361)
(5.16021 -0.199022 -0.00153287)
(5.13986 -0.194037 -0.00155516)
(5.13599 -0.203446 -0.00152536)
(5.10548 -0.183662 -0.00155259)
(5.11596 -0.207279 -0.0015864)
(4.5415 -0.0879611 -0.00317607)
(4.67884 -0.119573 -0.00389919)
(4.72152 -0.120934 -0.00293856)
(4.7105 -0.0946527 -0.00345713)
(4.63345 -0.0564344 -0.00290974)
(4.53815 -0.0139424 -0.00331265)
(4.43076 0.0241474 -0.00296035)
(4.32592 0.0568709 -0.0032194)
(4.23032 0.0818346 -0.00298506)
(4.13889 0.101683 -0.00313861)
(4.0621 0.116123 -0.00299416)
(3.98633 0.127758 -0.00307647)
(3.92609 0.136256 -0.00300143)
(3.86409 0.143512 -0.00303451)
(3.81727 0.148882 -0.0030135)
(3.76727 0.153522 -0.00300937)
(3.73025 0.157931 -0.00303701)
(3.69361 0.159855 -0.0029944)
(3.65796 0.165935 -0.00308644)
(3.64242 0.171713 -0.00309783)
(4.3785 -0.0972573 -0.00138384)
(3.96731 -0.149128 -0.00192771)
(3.43219 -0.163048 -0.000973036)
(2.9552 -0.156806 -0.00151599)
(2.54308 -0.145199 -0.00099276)
(2.23971 -0.1366 -0.00140955)
(2.01575 -0.131597 -0.00106571)
(1.86377 -0.131225 -0.00132826)
(1.76158 -0.13361 -0.00109632)
(1.68853 -0.138104 -0.00125043)
(1.64306 -0.143136 -0.00110694)
(1.60254 -0.148536 -0.00118923)
(1.58016 -0.15315 -0.00111479)
(1.55306 -0.158004 -0.00114785)
(1.53942 -0.16077 -0.001127)
(1.52169 -0.165986 -0.00112332)
(1.50571 -0.164487 -0.00114839)
(1.50976 -0.174531 -0.00111013)
(1.46385 -0.160161 -0.00116189)
(1.5424 -0.167444 -0.001181)
(4.32492 0.56602 -0.00694517)
(3.07996 0.847736 -0.00447771)
(2.31631 0.86966 -0.00575042)
(1.74985 0.852904 -0.00427441)
(1.61194 0.85566 -0.00542008)
(1.40851 0.867527 -0.00425217)
(1.40213 0.877557 -0.00520803)
(1.28083 0.885681 -0.00422769)
(1.28827 0.889987 -0.00500994)
(1.20273 0.893675 -0.0041829)
(1.21112 0.895429 -0.00482436)
(1.14878 0.89748 -0.00413017)
(1.15556 0.898251 -0.00465715)