/*--------------------------------*- C++ -*----------------------------------*\
  =========                 |
  \\      /  F ield         | OpenFOAM: The Open Source CFD Toolbox
   \\    /   O peration     | Website:  https://openfoam.org
    \\  /    A nd           | Version:  7
     \\/     M anipulation  |
\*---------------------------------------------------------------------------*/
FoamFile
{
    version     2.0;
    format      ascii;
    class       volVectorField;
    location    "0.685";
    object      U_0;
}
// * * * * * * * * * * * * * * * * * * * * * * * * * * * * * * * * * * * * * //

dimensions      [0 1 -1 0 0 0 0];

internalField   nonuniform List<vector> 
4950
(
(3.5059 0.420057 -27.0345)
(2.78362 0.14983 -27.0715)
(2.01892 0.0441926 -27.071)
(1.7975 -0.0241601 -27.0756)
(1.50799 -0.0451512 -27.0704)
(1.47801 -0.0518621 -27.0712)
(1.31009 -0.0528029 -27.0661)
(1.32153 -0.0516079 -27.0674)
(1.19615 -0.050278 -27.0649)
(1.21583 -0.04896 -27.0675)
(1.11423 -0.0472774 -27.0669)
(1.13452 -0.0471189 -27.0703)
(1.04969 -0.0439293 -27.0708)
(1.0686 -0.0466424 -27.0742)
(0.995811 -0.037889 -27.0752)
(1.01311 -0.0479614 -27.0775)
(0.947342 -0.0165791 -27.0786)
(0.952301 -0.045418 -27.0784)
(0.918047 0.0954884 -27.0811)
(0.678253 0.117892 -27.0724)
(4.59585 0.549478 -27.0604)
(4.7739 0.37932 -27.0892)
(4.46814 0.290702 -27.0854)
(4.39616 0.191177 -27.0883)
(4.08827 0.134565 -27.0821)
(4.04014 0.10288 -27.0775)
(3.79956 0.0831571 -27.0665)
(3.78257 0.0717288 -27.0604)
(3.59317 0.063062 -27.0541)
(3.59344 0.0575704 -27.0534)
(3.44033 0.0522511 -27.0532)
(3.44938 0.0498373 -27.0567)
(3.3219 0.0445415 -27.0608)
(3.33663 0.046062 -27.0669)
(3.2252 0.0354441 -27.0739)
(3.25106 0.0455617 -27.0795)
(3.14066 0.0166447 -27.0877)
(3.20932 0.0362405 -27.0873)
(3.0609 -0.0191675 -27.0989)
(3.39208 -0.0794363 -27.0717)
(4.71567 0.289029 -27.0622)
(5.18674 0.212039 -27.0855)
(5.29054 0.19108 -27.0742)
(5.52152 0.130951 -27.0747)
(5.45853 0.0939516 -27.0662)
(5.56837 0.0684826 -27.0627)
(5.46995 0.0502337 -27.0481)
(5.53532 0.0376664 -27.0373)
(5.43678 0.0278538 -27.0225)
(5.48122 0.0199378 -27.0164)
(5.39144 0.0143307 -27.0102)
(5.4227 0.00832811 -27.0107)
(5.34457 0.00590159 -27.0102)
(5.36374 1.13659e-05 -27.0146)
(5.30183 0.00201498 -27.02)
(5.30092 -0.00590192 -27.0302)
(5.26775 0.00715292 -27.042)
(5.21517 -0.00509919 -27.0537)
(5.22654 0.0397384 -27.0667)
(5.05914 0.0508959 -27.0564)
(4.69368 0.169444 -27.071)
(5.10372 0.131714 -27.0945)
(5.30745 0.124711 -27.0846)
(5.64072 0.0951093 -27.0829)
(5.70173 0.0765939 -27.0762)
(5.91594 0.064438 -27.072)
(5.92443 0.055594 -27.0594)
(6.07313 0.0497373 -27.0464)
(6.06138 0.0446335 -27.0305)
(6.17122 0.0407793 -27.0201)
(6.15029 0.0370277 -27.0123)
(6.23531 0.0344025 -27.0099)
(6.20805 0.0308662 -27.0074)
(6.27836 0.029936 -27.0081)
(6.24309 0.024598 -27.0089)
(6.31261 0.0270605 -27.0162)
(6.26274 0.015458 -27.0255)
(6.36215 0.0210301 -27.0407)
(6.28439 0.00367508 -27.0557)
(6.50902 -0.0123236 -27.0494)
(4.695 1.78081e-07 -27.0662)
(5.10027 3.47631e-07 -27.0883)
(5.31423 2.35418e-07 -27.0753)
(5.66283 5.32897e-07 -27.0739)
(5.73917 2.99877e-07 -27.065)
(5.97006 1.00588e-06 -27.0618)
(5.99831 5.39155e-07 -27.0478)
(6.16625 1.91404e-06 -27.0357)
(6.17748 1.55129e-06 -27.0179)
(6.30641 4.5752e-06 -27.0078)
(6.31005 4.94592e-06 -26.9981)
(6.41009 1.43589e-05 -26.9963)
(6.41057 1.29109e-05 -26.9923)
(6.48439 4.96372e-05 -26.9932)
(6.48873 2.72252e-05 -26.9913)
(6.52922 0.000164064 -26.9981)
(6.5539 7.6426e-05 -27.005)
(6.53267 0.000459251 -27.021)
(6.59043 0.000249651 -27.0362)
(6.46654 0.00075881 -27.0326)
(4.69368 -0.169443 -27.071)
(5.10372 -0.131713 -27.0945)
(5.30745 -0.12471 -27.0846)
(5.64072 -0.0951083 -27.0829)
(5.70173 -0.076593 -27.0762)
(5.91594 -0.0644364 -27.072)
(5.92443 -0.0555924 -27.0594)
(6.07314 -0.0497347 -27.0464)
(6.06138 -0.044629 -27.0305)
(6.17122 -0.0407742 -27.0201)
(6.15029 -0.0370138 -27.0123)
(6.23534 -0.0343881 -27.01)
(6.20805 -0.0308294 -27.0073)
(6.27842 -0.0298847 -27.0082)
(6.24313 -0.0245143 -27.0087)
(6.31273 -0.0268833 -27.0164)
(6.26293 -0.0152581 -27.0253)
(6.36241 -0.0205378 -27.0409)
(6.28491 -0.00298389 -27.0556)
(6.50975 0.0135855 -27.0495)
(4.71567 -0.289028 -27.0622)
(5.18674 -0.212038 -27.0855)
(5.29054 -0.19108 -27.0741)
(5.52152 -0.13095 -27.0747)
(5.45853 -0.0939508 -27.0662)
(5.56838 -0.068481 -27.0627)
(5.46995 -0.0502325 -27.0481)
(5.53533 -0.0376636 -27.0373)
(5.43677 -0.0278512 -27.0224)
(5.48124 -0.0199311 -27.0164)
(5.39144 -0.0143239 -27.0101)
(5.42275 -0.00830691 -27.0109)
(5.34457 -0.00588727 -27.0099)
(5.36388 5.94096e-05 -27.015)
(5.30186 -0.0019952 -27.0195)
(5.30124 0.00612697 -27.0309)
(5.268 -0.00711927 -27.0411)
(5.21591 0.00569786 -27.055)
(5.22755 -0.0394379 -27.0648)
(5.06129 -0.049612 -27.059)
(4.59585 -0.549478 -27.0604)
(4.7739 -0.379319 -27.0892)
(4.46814 -0.290701 -27.0854)
(4.39616 -0.191176 -27.0883)
(4.08827 -0.134565 -27.0821)
(4.04014 -0.102879 -27.0775)
(3.79956 -0.0831555 -27.0665)
(3.78258 -0.0717279 -27.0604)
(3.59318 -0.0630585 -27.0541)
(3.59346 -0.0575693 -27.0534)
(3.44034 -0.0522419 -27.0531)
(3.44943 -0.0498338 -27.0569)
(3.32194 -0.044519 -27.0605)
(3.33676 -0.0460435 -27.0673)
(3.22534 -0.0353939 -27.0732)
(3.25138 -0.0454803 -27.0805)
(3.14119 -0.0165286 -27.0859)
(3.21002 -0.0360022 -27.0901)
(3.06238 0.0195367 -27.0936)
(3.39404 0.0796804 -27.0815)
(3.5059 -0.420056 -27.0345)
(2.78362 -0.149829 -27.0715)
(2.01892 -0.0441922 -27.071)
(1.7975 0.0241606 -27.0756)
(1.50799 0.0451517 -27.0704)
(1.47801 0.0518628 -27.0712)
(1.31009 0.0528031 -27.0661)
(1.32154 0.0516087 -27.0674)
(1.19616 0.0502776 -27.0648)
(1.21584 0.0489616 -27.0675)
(1.11424 0.0472751 -27.0669)
(1.13455 0.0471221 -27.0703)
(1.04972 0.0439211 -27.0707)
(1.06867 0.0466516 -27.0743)
(0.995902 0.0378724 -27.075)
(1.01329 0.0479798 -27.0778)
(0.947678 0.0165282 -27.078)
(0.952747 0.045462 -27.0795)
(0.919069 -0.0954471 -27.0791)
(0.679966 -0.117455 -27.0779)
(4.49186 0.193031 0.00511506)
(3.71148 0.281825 0.00348452)
(3.09538 0.243613 0.0042772)
(2.49561 0.166802 0.00322515)
(2.21024 0.116572 0.00398394)
(1.91414 0.0829239 0.00314851)
(1.82102 0.0669337 0.00382204)
(1.65919 0.0579456 0.00310857)
(1.62642 0.0540107 0.00368271)
(1.51759 0.051937 0.00306113)
(1.501 0.0503969 0.00354557)
(1.41887 0.0506626 0.00300307)
(1.4068 0.0480434 0.00341236)
(1.3416 0.0514345 0.00293952)
(1.33104 0.0420989 0.00328638)
(1.28037 0.0552542 0.00287351)
(1.26575 0.0151415 0.00317193)
(1.26248 0.0600495 0.00280432)
(1.18605 -0.129917 0.00309891)
(1.6056 -0.174955 0.00267668)
(4.62877 0.110005 0.00323003)
(4.64809 0.234848 0.00191268)
(4.77728 0.21479 0.00266525)
(4.62936 0.161814 0.00162754)
(4.59196 0.10646 0.00238122)
(4.40703 0.0631386 0.00154342)
(4.34822 0.0345251 0.00221274)
(4.19183 0.0164234 0.00149745)
(4.14257 0.00461951 0.00206846)
(4.01776 -0.0030433 0.0014465)
(3.97829 -0.00836961 0.00192832)
(3.87777 -0.0132168 0.00138701)
(3.84638 -0.0145208 0.00179338)
(3.76203 -0.0206894 0.00132421)
(3.74067 -0.0149513 0.00166396)
(3.65864 -0.0281778 0.00125929)
(3.66189 -0.00548488 0.00153314)
(3.53739 -0.0270929 0.00118573)
(3.62149 0.00885041 0.0013741)
(3.19196 0.0627612 0.000979301)
(4.55996 0.0617572 0.00453627)
(4.70532 0.187561 0.00331039)
(5.02927 0.219236 0.00402972)
(5.13055 0.196907 0.00297993)
(5.31278 0.166687 0.00372133)
(5.31723 0.135445 0.00287716)
(5.39938 0.113911 0.00354652)
(5.36484 0.097402 0.00283114)
(5.4034 0.0858515 0.00340468)
(5.36125 0.0771583 0.00278359)
(5.37947 0.0697875 0.00326807)
(5.33962 0.0647905 0.00272655)
(5.3447 0.0585634 0.0031372)
(5.31257 0.0565701 0.00266538)
(5.30356 0.0479925 0.00301688)
(5.29102 0.0510289 0.0026024)
(5.25414 0.0285192 0.00291543)
(5.29491 0.0418502 0.00253992)
(5.20765 -0.0371932 0.00288612)
(5.35071 -0.0486284 0.00248813)
(4.51738 0.0291633 0.0030629)
(4.56761 0.072498 0.00195415)
(4.91423 0.0768674 0.00266381)
(5.07044 0.0692169 0.00163573)
(5.33694 0.056386 0.00237332)
(5.42857 0.043984 0.00152947)
(5.59535 0.0348179 0.00219554)
(5.64186 0.0281017 0.0014795)
(5.75282 0.0232389 0.00205055)
(5.77916 0.0195428 0.00142921)
(5.85877 0.0165838 0.00191031)
(5.87397 0.0137887 0.00136948)
(5.93402 0.0121288 0.0017746)
(5.93909 0.00903059 0.00130715)
(5.98983 0.00954381 0.00164504)
(5.9769 0.00473065 0.00124245)
(6.0342 0.00924685 0.00150829)
(5.96257 0.00442895 0.00116089)
(6.05441 0.00632009 0.00131235)
(5.76156 0.0295937 0.000976499)
(4.54965 7.01851e-11 0.0044471)
(4.65122 4.92411e-08 0.00334004)
(4.96973 -6.07513e-08 0.00403743)
(5.11641 1.52855e-07 0.00299317)
(5.3744 -1.17626e-09 0.00372579)
(5.46949 4.92628e-07 0.00287729)
(5.64352 2.9082e-07 0.00354454)
(5.7021 1.05344e-06 0.00282818)
(5.82644 1.58586e-06 0.00340194)
(5.86953 2.43002e-06 0.00278083)
(5.96394 6.21414e-06 0.00326528)
(5.99955 6.39753e-06 0.00272361)
(6.07062 1.81041e-05 0.00313421)
(6.10389 1.94178e-05 0.00266254)
(6.15125 4.53294e-05 0.00301492)
(6.19418 5.74247e-05 0.00260038)
(6.20819 0.00012334 0.00291794)
(6.28515 0.00015815 0.00253939)
(6.26394 0.000414912 0.00290333)
(6.36573 0.000605056 0.00251236)
(4.51738 -0.0291632 0.0030629)
(4.56761 -0.0724979 0.00195415)
(4.91423 -0.0768675 0.00266381)
(5.07044 -0.0692164 0.00163573)
(5.33694 -0.0563861 0.00237332)
(5.42857 -0.0439825 0.00152947)
(5.59535 -0.034818 0.00219554)
(5.64186 -0.0280981 0.0014795)
(5.75282 -0.0232382 0.00205055)
(5.77917 -0.019533 0.00142921)
(5.85877 -0.0165788 0.0019103)
(5.87399 -0.01376 0.00136948)
(5.93401 -0.0121136 0.0017746)
(5.93914 -0.00894195 0.00130715)
(5.98984 -0.00951032 0.00164503)
(5.97701 -0.00446158 0.00124243)
(6.0343 -0.009143 0.00150824)
(5.96284 -0.00372481 0.00116083)
(6.05486 -0.00589181 0.0013124)
(5.76234 -0.0280735 0.000976343)
(4.55996 -0.0617571 0.00453627)
(4.70532 -0.187561 0.00331038)
(5.02927 -0.219236 0.00402971)
(5.13055 -0.196907 0.00297993)
(5.31277 -0.166687 0.00372133)
(5.31724 -0.135445 0.00287716)
(5.39938 -0.11391 0.00354652)
(5.36485 -0.0974004 0.00283114)
(5.40339 -0.0858482 0.00340467)
(5.36127 -0.0771542 0.0027836)
(5.37946 -0.0697758 0.00326805)
(5.33966 -0.0647786 0.00272656)
(5.3447 -0.0585303 0.00313717)
(5.31268 -0.0565298 0.00266542)
(5.30361 -0.0479103 0.00301682)
(5.29128 -0.0508936 0.00260248)
(5.25441 -0.0282936 0.00291531)
(5.2955 -0.0414958 0.00254005)
(5.20854 0.0379456 0.00288582)
(5.35231 0.0494642 0.0024881)
(4.62877 -0.110005 0.00323003)
(4.64809 -0.234848 0.00191267)
(4.77728 -0.21479 0.00266525)
(4.62936 -0.161814 0.00162754)
(4.59196 -0.10646 0.00238121)
(4.40704 -0.0631379 0.00154342)
(4.34822 -0.0345248 0.00221274)
(4.19183 -0.0164217 0.00149745)
(4.14257 -0.00461843 0.00206845)
(4.01778 0.00304801 0.00144651)
(3.97829 0.0083726 0.00192831)
(3.87784 0.0132312 0.00138702)
(3.84638 0.0145259 0.00179334)
(3.76221 0.0207367 0.00132424)
(3.7407 0.0149531 0.00166388)
(3.65909 0.028321 0.00125935)
(3.66211 0.0054878 0.00153298)
(3.53861 0.0274541 0.00118579)
(3.62223 -0.00864041 0.00137391)
(3.19572 -0.0618158 0.000979306)
(4.49186 -0.193031 0.00511506)
(3.71148 -0.281825 0.00348452)
(3.09538 -0.243613 0.0042772)
(2.49561 -0.166802 0.00322515)
(2.21024 -0.116572 0.00398394)
(1.91415 -0.082924 0.00314851)
(1.82102 -0.0669332 0.00382203)
(1.65919 -0.0579458 0.00310857)
(1.62643 -0.0540092 0.00368271)
(1.51761 -0.0519379 0.00306113)
(1.50101 -0.0503919 0.00354556)
(1.41891 -0.0506652 0.00300308)
(1.40684 -0.0480291 0.00341234)
(1.34169 -0.0514386 0.00293956)
(1.33118 -0.0420637 0.0032863)
(1.28059 -0.0552497 0.00287365)
(1.26622 -0.0150681 0.00317164)
(1.26303 -0.0600363 0.00280481)
(1.18722 0.129979 0.00309776)
(1.60773 0.174485 0.00267845)
(4.45029 0.0663665 -1.77663e-08)
(4.20383 0.122491 -1.81054e-08)
(3.81386 0.134183 -1.84089e-08)
(3.43313 0.119621 -1.89453e-08)
(3.05905 0.0948496 -1.90425e-08)
(2.74734 0.0705818 -1.84858e-08)
(2.48439 0.0477514 -1.84343e-08)
(2.27852 0.0306944 -1.83458e-08)
(2.11904 0.0165566 -1.85998e-08)
(1.99262 0.00752329 -1.86929e-08)
(1.90091 3.43446e-06 -1.88205e-08)
(1.82163 -0.0034209 -1.88044e-08)
(1.76739 -0.00757706 -1.88743e-08)
(1.71467 -0.00729653 -1.84179e-08)
(1.67807 -0.011568 -1.82633e-08)
(1.64682 -0.00716199 -1.81647e-08)
(1.60801 -0.0160359 -1.81717e-08)
(1.61442 -0.0069304 -1.79913e-08)
(1.54032 -0.0280121 -1.78905e-08)
(1.63946 -0.0558043 -1.8517e-08)
(4.50862 0.058505 -1.71119e-08)
(4.62655 0.113164 -1.74897e-08)
(4.70699 0.146243 -1.77876e-08)
(4.77272 0.15743 -1.83316e-08)
(4.77916 0.153715 -1.8478e-08)
(4.76356 0.138929 -1.80243e-08)
(4.71905 0.120918 -1.79527e-08)
(4.66408 0.101188 -1.76856e-08)
(4.60361 0.0847568 -1.76497e-08)
(4.53792 0.0695753 -1.75659e-08)
(4.47828 0.058846 -1.75688e-08)
(4.41374 0.0488905 -1.75091e-08)
(4.36124 0.042824 -1.74317e-08)
(4.30175 0.0362825 -1.76031e-08)
(4.25841 0.0325087 -1.74586e-08)
(4.20408 0.0290708 -1.74675e-08)
(4.17065 0.0239951 -1.6821e-08)
(4.12106 0.028262 -1.75048e-08)
(4.09287 0.0143429 -1.70243e-08)
(4.04759 0.0349406 -1.79379e-08)
(4.49828 0.0221142 -1.68579e-08)
(4.6036 0.0570193 -1.72899e-08)
(4.7103 0.0843587 -1.75623e-08)
(4.86054 0.098774 -1.80473e-08)
(4.98858 0.1018 -1.82255e-08)
(5.11474 0.0974801 -1.78525e-08)
(5.21252 0.0880828 -1.789e-08)
(5.29367 0.0778939 -1.76257e-08)
(5.35517 0.0673568 -1.75003e-08)
(5.40061 0.0586067 -1.72335e-08)
(5.4359 0.0506006 -1.70995e-08)
(5.45927 0.0448238 -1.69813e-08)
(5.47785 0.038931 -1.69391e-08)
(5.49015 0.0358339 -1.72537e-08)
(5.49779 0.0297642 -1.71244e-08)
(5.50609 0.0303028 -1.68069e-08)
(5.50551 0.0198024 -1.63041e-08)
(5.51176 0.0266779 -1.67575e-08)
(5.50981 0.00438121 -1.75064e-08)
(5.50506 0.0084403 -1.77667e-08)
(4.49666 0.0176963 -1.73323e-08)
(4.57762 0.0347182 -1.77374e-08)
(4.67149 0.0465287 -1.79772e-08)
(4.81687 0.0523645 -1.84478e-08)
(4.95418 0.0542489 -1.8702e-08)
(5.10142 0.0524459 -1.83745e-08)
(5.22971 0.0490185 -1.84226e-08)
(5.34803 0.0443398 -1.8143e-08)
(5.4511 0.0400994 -1.80362e-08)
(5.53989 0.0358588 -1.78307e-08)
(5.62083 0.0326787 -1.77704e-08)
(5.6877 0.0296749 -1.76697e-08)
(5.75336 0.0275219 -1.76173e-08)
(5.8049 0.0256108 -1.7892e-08)
(5.86229 0.023495 -1.78312e-08)
(5.89936 0.0232728 -1.74169e-08)
(5.95754 0.0191243 -1.71386e-08)
(5.96868 0.0235926 -1.73795e-08)
(6.04306 0.0135848 -1.73903e-08)
(5.99694 0.0283283 -1.80651e-08)
(4.49733 -2.65424e-08 -1.76488e-08)
(4.59005 1.0161e-07 -1.80491e-08)
(4.68499 -1.13545e-07 -1.82556e-08)
(4.82934 2.87171e-07 -1.87234e-08)
(4.96272 -1.43444e-07 -1.90139e-08)
(5.10826 7.94418e-07 -1.86822e-08)
(5.23666 8.99985e-08 -1.86901e-08)
(5.358 1.82696e-06 -1.83392e-08)
(5.4654 1.39305e-06 -1.8243e-08)
(5.56106 4.35601e-06 -1.81204e-08)
(5.64879 5.51022e-06 -1.82028e-08)
(5.72558 1.23137e-05 -1.82316e-08)
(5.79875 1.42632e-05 -1.81954e-08)
(5.8633 3.97716e-05 -1.80159e-08)
(5.92723 3.00732e-05 -1.77523e-08)
(5.98133 0.000120093 -1.75102e-08)
(6.04417 8.2149e-05 -1.74848e-08)
(6.07709 0.000292952 -1.77453e-08)
(6.1626 0.00031824 -1.78677e-08)
(6.1404 0.0006037 -1.83624e-08)
(4.49666 -0.0176963 -1.78361e-08)
(4.57762 -0.034718 -1.82329e-08)
(4.67149 -0.0465289 -1.84042e-08)
(4.81687 -0.052364 -1.88515e-08)
(4.95417 -0.0542493 -1.91394e-08)
(5.10142 -0.0524442 -1.87964e-08)
(5.22971 -0.0490186 -1.87455e-08)
(5.34803 -0.0443357 -1.83496e-08)
(5.4511 -0.0400978 -1.82713e-08)
(5.53989 -0.0358485 -1.82583e-08)
(5.62082 -0.0326715 -1.84795e-08)
(5.68771 -0.0296455 -1.8631e-08)
(5.75336 -0.0275034 -1.85919e-08)
(5.80493 -0.0255207 -1.79433e-08)
(5.86232 -0.0234566 -1.75166e-08)
(5.89941 -0.0230148 -1.74796e-08)
(5.95766 -0.0190007 -1.77607e-08)
(5.96881 -0.0229855 -1.7952e-08)
(6.04343 -0.0130297 -1.81133e-08)
(5.99735 -0.0271144 -1.83627e-08)
(4.49828 -0.0221142 -1.80857e-08)
(4.6036 -0.0570192 -1.85157e-08)
(4.7103 -0.0843589 -1.8688e-08)
(4.86055 -0.0987736 -1.91338e-08)
(4.98858 -0.101801 -1.94758e-08)
(5.11474 -0.0974788 -1.91392e-08)
(5.21252 -0.0880825 -1.91081e-08)
(5.29368 -0.0778906 -1.87253e-08)
(5.35517 -0.0673545 -1.87386e-08)
(5.40063 -0.0585986 -1.88007e-08)
(5.43589 -0.0505915 -1.90642e-08)
(5.45931 -0.0448013 -1.91429e-08)
(5.47784 -0.0389077 -1.90125e-08)
(5.49025 -0.0357626 -1.8342e-08)
(5.49783 -0.0297173 -1.80909e-08)
(5.5063 -0.030089 -1.81116e-08)
(5.50574 -0.0196784 -1.86066e-08)
(5.51222 -0.0261643 -1.86405e-08)
(5.51061 -0.00387322 -1.78561e-08)
(5.50625 -0.00743973 -1.84489e-08)
(4.50862 -0.0585049 -1.77722e-08)
(4.62655 -0.113164 -1.82665e-08)
(4.70699 -0.146243 -1.84358e-08)
(4.77272 -0.15743 -1.88242e-08)
(4.77916 -0.153715 -1.91486e-08)
(4.76356 -0.138928 -1.88256e-08)
(4.71904 -0.120918 -1.88724e-08)
(4.66409 -0.101186 -1.85754e-08)
(4.6036 -0.0847549 -1.85984e-08)
(4.53795 -0.0695692 -1.85063e-08)
(4.47826 -0.058841 -1.85412e-08)
(4.41383 -0.0488713 -1.84583e-08)
(4.36121 -0.0428155 -1.8371e-08)
(4.30197 -0.0362203 -1.79969e-08)
(4.25842 -0.0324994 -1.79386e-08)
(4.20458 -0.0288945 -1.76416e-08)
(4.17086 -0.0239564 -1.82327e-08)
(4.12218 -0.0278685 -1.7764e-08)
(4.09376 -0.0140638 -1.80988e-08)
(4.05035 -0.0342384 -1.80874e-08)
(4.45029 -0.0663664 -1.71194e-08)
(4.20383 -0.122491 -1.76782e-08)
(3.81386 -0.134183 -1.78734e-08)
(3.43314 -0.119621 -1.82902e-08)
(3.05905 -0.0948494 -1.86366e-08)
(2.74734 -0.0705818 -1.83887e-08)
(2.48439 -0.0477507 -1.84698e-08)
(2.27853 -0.0306947 -1.80775e-08)
(2.11905 -0.0165543 -1.78574e-08)
(1.99264 -0.00752405 -1.75361e-08)
(1.90093 2.60501e-06 -1.73983e-08)
(1.82169 0.00342029 -1.72732e-08)
(1.76744 0.00758948 -1.71028e-08)
(1.71481 0.00730279 -1.7393e-08)
(1.67824 0.0115866 -1.73419e-08)
(1.64716 0.00719729 -1.70896e-08)
(1.60853 0.0160679 -1.69885e-08)
(1.61538 0.007018 -1.73106e-08)
(1.54133 0.0281393 -1.72952e-08)
(1.64299 0.055795 -1.75848e-08)
(4.49186 0.193031 -0.00511508)
(3.71148 0.281825 -0.00348454)
(3.09538 0.243613 -0.00427722)
(2.49561 0.166802 -0.00322518)
(2.21024 0.116572 -0.00398397)
(1.91414 0.0829239 -0.00314854)
(1.82102 0.0669337 -0.00382206)
(1.65919 0.0579456 -0.0031086)
(1.62642 0.0540107 -0.00368274)
(1.51759 0.0519369 -0.00306116)
(1.501 0.0503968 -0.0035456)
(1.41887 0.0506625 -0.0030031)
(1.4068 0.0480433 -0.00341239)
(1.3416 0.0514344 -0.00293955)
(1.33104 0.0420987 -0.0032864)
(1.28037 0.055254 -0.00287353)
(1.26575 0.0151414 -0.00317196)
(1.26248 0.0600494 -0.00280434)
(1.18605 -0.129917 -0.00309893)
(1.6056 -0.174955 -0.00267671)
(4.62877 0.110005 -0.00323006)
(4.64809 0.234848 -0.0019127)
(4.77728 0.21479 -0.00266528)
(4.62936 0.161814 -0.00162757)
(4.59196 0.10646 -0.00238124)
(4.40703 0.0631385 -0.00154345)
(4.34822 0.0345251 -0.00221277)
(4.19183 0.0164234 -0.00149748)
(4.14257 0.00461948 -0.00206849)
(4.01776 -0.00304331 -0.00144653)
(3.97829 -0.00836958 -0.00192835)
(3.87777 -0.0132167 -0.00138704)
(3.84638 -0.0145206 -0.0017934)
(3.76203 -0.0206892 -0.00132424)
(3.74067 -0.0149511 -0.00166399)
(3.65864 -0.0281776 -0.00125932)
(3.66189 -0.0054847 -0.00153317)
(3.53739 -0.0270927 -0.00118575)
(3.62149 0.00885049 -0.00137413)
(3.19196 0.0627612 -0.000979331)
(4.55996 0.0617572 -0.0045363)
(4.70532 0.187561 -0.00331041)
(5.02927 0.219236 -0.00402974)
(5.13055 0.196907 -0.00297996)
(5.31278 0.166687 -0.00372136)
(5.31723 0.135445 -0.00287718)
(5.39938 0.113911 -0.00354655)
(5.36484 0.0974021 -0.00283116)
(5.4034 0.0858517 -0.00340471)
(5.36125 0.0771584 -0.00278362)
(5.37947 0.0697876 -0.00326809)
(5.33962 0.0647905 -0.00272657)
(5.3447 0.0585634 -0.00313723)
(5.31257 0.05657 -0.00266541)
(5.30356 0.0479925 -0.00301691)
(5.29102 0.0510288 -0.00260243)
(5.25414 0.0285191 -0.00291546)
(5.29491 0.0418501 -0.00253995)
(5.20765 -0.0371933 -0.00288615)
(5.35071 -0.0486283 -0.00248816)
(4.51738 0.0291632 -0.00306293)
(4.56761 0.072498 -0.00195417)
(4.91423 0.0768674 -0.00266384)
(5.07044 0.0692169 -0.00163576)
(5.33694 0.0563859 -0.00237335)
(5.42857 0.0439839 -0.0015295)
(5.59535 0.0348179 -0.00219557)
(5.64185 0.0281018 -0.00147952)
(5.75282 0.0232391 -0.00205058)
(5.77916 0.0195431 -0.00142924)
(5.85877 0.016584 -0.00191034)
(5.87397 0.0137888 -0.00136951)
(5.93402 0.0121289 -0.00177463)
(5.93909 0.00903075 -0.00130718)
(5.98983 0.00954399 -0.00164507)
(5.9769 0.00473079 -0.00124248)
(6.0342 0.00924688 -0.00150831)
(5.96257 0.00442888 -0.00116092)
(6.05441 0.00631987 -0.00131238)
(5.76156 0.0295936 -0.00097653)
(4.54965 -2.14346e-08 -0.00444713)
(4.65122 6.79008e-08 -0.00334007)
(4.96973 -1.95019e-08 -0.00403746)
(5.11641 1.88111e-07 -0.00299319)
(5.3744 8.82903e-09 -0.00372582)
(5.46949 5.03526e-07 -0.00287731)
(5.64352 3.77508e-07 -0.00354457)
(5.7021 1.24202e-06 -0.00282821)
(5.82644 1.83789e-06 -0.00340197)
(5.86953 2.6583e-06 -0.00278086)
(5.96394 6.35888e-06 -0.00326531)
(5.99955 6.44023e-06 -0.00272364)
(6.07062 1.80787e-05 -0.00313424)
(6.10389 1.93694e-05 -0.00266257)
(6.15125 4.52978e-05 -0.00301495)
(6.19418 5.73756e-05 -0.00260041)
(6.20819 0.000123226 -0.00291797)
(6.28515 0.000157997 -0.00253942)
(6.26394 0.000414643 -0.00290336)
(6.36573 0.000604834 -0.00251239)
(4.51738 -0.0291633 -0.00306293)
(4.56761 -0.0724979 -0.00195417)
(4.91423 -0.0768675 -0.00266384)
(5.07044 -0.0692164 -0.00163576)
(5.33694 -0.0563862 -0.00237335)
(5.42857 -0.0439826 -0.0015295)
(5.59535 -0.034818 -0.00219557)
(5.64186 -0.0280979 -0.00147953)
(5.75282 -0.023238 -0.00205058)
(5.77917 -0.0195327 -0.00142924)
(5.85877 -0.0165786 -0.00191033)
(5.87399 -0.0137599 -0.00136951)
(5.93401 -0.0121135 -0.00177463)
(5.93914 -0.00894179 -0.00130718)
(5.98984 -0.00951014 -0.00164506)
(5.97701 -0.00446144 -0.00124246)
(6.0343 -0.00914296 -0.00150827)
(5.96284 -0.00372488 -0.00116086)
(6.05486 -0.00589203 -0.00131243)
(5.76234 -0.0280737 -0.000976376)
(4.55996 -0.0617572 -0.0045363)
(4.70532 -0.187561 -0.00331041)
(5.02927 -0.219236 -0.00402974)
(5.13055 -0.196907 -0.00297996)
(5.31277 -0.166687 -0.00372136)
(5.31724 -0.135445 -0.00287719)
(5.39938 -0.11391 -0.00354655)
(5.36485 -0.0974003 -0.00283117)
(5.40339 -0.0858481 -0.0034047)
(5.36127 -0.0771541 -0.00278363)
(5.37946 -0.0697758 -0.00326808)
(5.33966 -0.0647786 -0.0027266)
(5.3447 -0.0585304 -0.0031372)
(5.31268 -0.0565299 -0.00266545)
(5.30361 -0.0479104 -0.00301685)
(5.29128 -0.0508937 -0.00260251)
(5.25441 -0.0282937 -0.00291534)
(5.2955 -0.041496 -0.00254009)
(5.20854 0.0379455 -0.00288586)
(5.35231 0.0494643 -0.00248813)
(4.62877 -0.110005 -0.00323006)
(4.64809 -0.234848 -0.0019127)
(4.77728 -0.21479 -0.00266528)
(4.62936 -0.161814 -0.00162757)
(4.59196 -0.10646 -0.00238125)
(4.40704 -0.063138 -0.00154345)
(4.34822 -0.0345249 -0.00221277)
(4.19183 -0.0164218 -0.00149748)
(4.14257 -0.00461846 -0.00206849)
(4.01778 0.003048 -0.00144654)
(3.97829 0.00837263 -0.00192834)
(3.87784 0.0132313 -0.00138705)
(3.84638 0.0145261 -0.00179337)
(3.76221 0.0207369 -0.00132427)
(3.7407 0.0149534 -0.00166392)
(3.65909 0.0283212 -0.00125938)
(3.66211 0.00548801 -0.00153302)
(3.53861 0.0274542 -0.00118582)
(3.62223 -0.0086403 -0.00137394)
(3.19571 -0.0618158 -0.000979339)
(4.49186 -0.193031 -0.00511509)
(3.71148 -0.281825 -0.00348455)
(3.09538 -0.243613 -0.00427723)
(2.49561 -0.166802 -0.00322518)
(2.21024 -0.116572 -0.00398397)
(1.91415 -0.082924 -0.00314854)
(1.82102 -0.0669333 -0.00382206)
(1.65919 -0.0579459 -0.0031086)
(1.62643 -0.0540092 -0.00368274)
(1.51761 -0.0519379 -0.00306117)
(1.50101 -0.0503919 -0.00354559)
(1.41891 -0.0506653 -0.00300311)
(1.40684 -0.0480293 -0.00341237)
(1.34169 -0.0514388 -0.00293959)
(1.33118 -0.0420639 -0.00328633)
(1.28059 -0.0552499 -0.00287369)
(1.26622 -0.0150683 -0.00317167)
(1.26303 -0.0600365 -0.00280484)
(1.18722 0.129979 -0.0030978)
(1.60773 0.174485 -0.00267848)
(3.5059 0.420056 27.0345)
(2.78362 0.149829 27.0715)
(2.01892 0.0441922 27.071)
(1.7975 -0.0241606 27.0756)
(1.50799 -0.0451517 27.0704)
(1.47801 -0.0518626 27.0712)
(1.31009 -0.0528034 27.0661)
(1.32153 -0.0516083 27.0674)
(1.19615 -0.0502784 27.0649)
(1.21583 -0.0489603 27.0675)
(1.11423 -0.0472776 27.0669)
(1.13452 -0.0471191 27.0703)
(1.04969 -0.0439294 27.0708)
(1.06859 -0.0466426 27.0742)
(0.995811 -0.0378891 27.0752)
(1.01311 -0.0479616 27.0775)
(0.947342 -0.0165792 27.0786)
(0.952301 -0.0454182 27.0784)
(0.918047 0.0954882 27.0811)
(0.678253 0.117892 27.0724)
(4.59585 0.549478 27.0604)
(4.7739 0.379319 27.0892)
(4.46814 0.290701 27.0854)
(4.39616 0.191177 27.0883)
(4.08827 0.134565 27.0821)
(4.04014 0.102879 27.0775)
(3.79956 0.0831564 27.0665)
(3.78257 0.0717282 27.0604)
(3.59317 0.0630614 27.0541)
(3.59344 0.0575699 27.0534)
(3.44033 0.0522505 27.0532)
(3.44938 0.0498368 27.0567)
(3.3219 0.044541 27.0608)
(3.33663 0.0460614 27.0669)
(3.2252 0.0354435 27.0739)
(3.25106 0.0455612 27.0795)
(3.14066 0.0166442 27.0877)
(3.20932 0.03624 27.0873)
(3.0609 -0.0191681 27.0989)
(3.39208 -0.0794368 27.0717)
(4.71567 0.289028 27.0622)
(5.18674 0.212038 27.0855)
(5.29054 0.19108 27.0742)
(5.52152 0.13095 27.0747)
(5.45853 0.0939509 27.0662)
(5.56837 0.0684819 27.0627)
(5.46995 0.0502331 27.0481)
(5.53532 0.0376658 27.0373)
(5.43677 0.0278534 27.0225)
(5.48122 0.0199374 27.0164)
(5.39144 0.0143304 27.0102)
(5.4227 0.00832789 27.0107)
(5.34457 0.0059014 27.0102)
(5.36374 1.12562e-05 27.0146)
(5.30182 0.00201494 27.02)
(5.30092 -0.00590193 27.0302)
(5.26774 0.00715286 27.042)
(5.21517 -0.00509922 27.0537)
(5.22654 0.0397382 27.0667)
(5.05913 0.0508958 27.0564)
(4.69368 0.169443 27.071)
(5.10372 0.131713 27.0945)
(5.30745 0.12471 27.0846)
(5.64072 0.0951087 27.0829)
(5.70173 0.0765932 27.0762)
(5.91594 0.0644373 27.072)
(5.92443 0.0555933 27.0594)
(6.07313 0.0497367 27.0464)
(6.06138 0.044633 27.0305)
(6.17121 0.0407789 27.0201)
(6.15029 0.0370274 27.0123)
(6.23531 0.0344022 27.0099)
(6.20805 0.0308658 27.0074)
(6.27836 0.0299355 27.0081)
(6.24309 0.0245976 27.0089)
(6.31261 0.02706 27.0162)
(6.26274 0.0154576 27.0255)
(6.36215 0.0210299 27.0407)
(6.28439 0.0036748 27.0557)
(6.50902 -0.0123238 27.0494)
(4.695 -1.57062e-07 27.0662)
(5.10027 -1.58281e-07 27.0883)
(5.31423 -2.93648e-07 27.0753)
(5.66282 -4.91557e-08 27.0739)
(5.73917 -3.60991e-07 27.065)
(5.97006 3.05603e-07 27.0618)
(5.99831 -1.2106e-07 27.0478)
(6.16625 1.36028e-06 27.0357)
(6.17748 1.14718e-06 27.0179)
(6.30641 4.3279e-06 27.0078)
(6.31005 4.82154e-06 26.9981)
(6.41009 1.42818e-05 26.9963)
(6.41057 1.28238e-05 26.9923)
(6.48439 4.95224e-05 26.9932)
(6.48873 2.71047e-05 26.9913)
(6.52922 0.000164022 26.9981)
(6.5539 7.63435e-05 27.005)
(6.53267 0.000459348 27.021)
(6.59043 0.00024966 27.0362)
(6.46654 0.000758844 27.0326)
(4.69368 -0.169444 27.071)
(5.10372 -0.131714 27.0945)
(5.30745 -0.124711 27.0846)
(5.64072 -0.095109 27.0829)
(5.70173 -0.0765937 27.0762)
(5.91594 -0.0644371 27.072)
(5.92443 -0.0555931 27.0594)
(6.07314 -0.0497353 27.0464)
(6.06138 -0.0446295 27.0305)
(6.17122 -0.0407746 27.0201)
(6.15029 -0.0370142 27.0123)
(6.23534 -0.0343884 27.01)
(6.20805 -0.0308298 27.0073)
(6.27842 -0.0298851 27.0082)
(6.24313 -0.0245147 27.0087)
(6.31273 -0.0268837 27.0164)
(6.26293 -0.0152584 27.0253)
(6.36241 -0.020538 27.0409)
(6.28491 -0.00298416 27.0556)
(6.50975 0.0135853 27.0495)
(4.71567 -0.289028 27.0622)
(5.18674 -0.212039 27.0855)
(5.29054 -0.19108 27.0741)
(5.52152 -0.130951 27.0747)
(5.45853 -0.0939515 27.0662)
(5.56837 -0.0684817 27.0627)
(5.46995 -0.0502332 27.0481)
(5.53533 -0.0376642 27.0373)
(5.43677 -0.0278516 27.0224)
(5.48124 -0.0199314 27.0164)
(5.39144 -0.0143241 27.0101)
(5.42276 -0.00830714 27.0109)
(5.34457 -0.00588748 27.0099)
(5.36388 5.92925e-05 27.015)
(5.30187 -0.00199523 27.0195)
(5.30124 0.00612699 27.0309)
(5.26801 -0.00711929 27.0411)
(5.21592 0.00569786 27.055)
(5.22755 -0.039438 27.0648)
(5.06129 -0.0496122 27.059)
(4.59585 -0.549478 27.0604)
(4.7739 -0.37932 27.0892)
(4.46814 -0.290701 27.0854)
(4.39616 -0.191177 27.0883)
(4.08827 -0.134565 27.0821)
(4.04014 -0.10288 27.0775)
(3.79956 -0.0831562 27.0665)
(3.78258 -0.0717285 27.0604)
(3.59318 -0.0630591 27.0541)
(3.59346 -0.0575698 27.0534)
(3.44034 -0.0522424 27.0531)
(3.44943 -0.0498343 27.0569)
(3.32194 -0.0445195 27.0605)
(3.33677 -0.046044 27.0673)
(3.22534 -0.0353944 27.0732)
(3.25138 -0.0454808 27.0806)
(3.14119 -0.0165291 27.0859)
(3.21002 -0.0360027 27.0901)
(3.06238 0.0195362 27.0936)
(3.39403 0.0796799 27.0815)
(3.5059 -0.420057 27.0345)
(2.78362 -0.149829 27.0715)
(2.01892 -0.0441926 27.071)
(1.7975 0.0241603 27.0756)
(1.50799 0.0451512 27.0704)
(1.47801 0.0518623 27.0712)
(1.31009 0.0528027 27.066)
(1.32154 0.0516083 27.0674)
(1.19616 0.0502773 27.0648)
(1.21584 0.0489613 27.0675)
(1.11424 0.0472749 27.0669)
(1.13455 0.0471219 27.0703)
(1.04972 0.0439211 27.0707)
(1.06867 0.0466515 27.0743)
(0.995902 0.0378723 27.075)
(1.01329 0.0479797 27.0778)
(0.947678 0.0165282 27.078)
(0.952746 0.0454618 27.0795)
(0.919068 -0.0954473 27.0791)
(0.679965 -0.117455 27.0779)
(0.852487 -0.163233 -27.107)
(0.934988 -0.145676 -27.2062)
(0.874393 -0.114923 -27.2803)
(0.872854 -0.111866 -27.3539)
(0.826187 -0.111837 -27.4163)
(0.824507 -0.112031 -27.4664)
(0.787297 -0.1125 -27.4992)
(0.785757 -0.112499 -27.5209)
(0.755199 -0.112668 -27.5328)
(0.753768 -0.112537 -27.5402)
(0.72798 -0.112582 -27.5436)
(0.726592 -0.112437 -27.546)
(0.704303 -0.112448 -27.5468)
(0.702959 -0.112325 -27.5477)
(0.683423 -0.112332 -27.548)
(0.682277 -0.112234 -27.5485)
(0.665135 -0.112241 -27.5488)
(0.664428 -0.112163 -27.5493)
(0.649513 -0.112169 -27.5495)
(0.64945 -0.112104 -27.5499)
(0.636619 -0.112109 -27.5502)
(0.63727 -0.112053 -27.5505)
(0.626293 -0.112056 -27.5508)
(0.627569 -0.112005 -27.5511)
(0.618105 -0.112007 -27.5514)
(0.619758 -0.111963 -27.5517)
(0.611359 -0.111965 -27.5519)
(0.613029 -0.111926 -27.5522)
(0.605243 -0.111928 -27.5524)
(0.606631 -0.111895 -27.5527)
(0.599197 -0.111899 -27.553)
(0.600244 -0.111871 -27.5532)
(0.593179 -0.111876 -27.5535)
(0.594052 -0.111852 -27.5537)
(0.587512 -0.111858 -27.554)
(0.588413 -0.111835 -27.5542)
(0.582507 -0.11184 -27.5545)
(0.583538 -0.111819 -27.5547)
(0.578256 -0.111822 -27.555)
(0.57942 -0.111801 -27.5552)
(0.574669 -0.111803 -27.5554)
(0.575894 -0.111783 -27.5557)
(0.571523 -0.111784 -27.5559)
(0.572675 -0.111766 -27.5561)
(0.56851 -0.111768 -27.5563)
(0.56945 -0.111752 -27.5566)
(0.565389 -0.111755 -27.5568)
(0.566086 -0.111741 -27.557)
(0.562184 -0.111744 -27.5573)