/*--------------------------------*- C++ -*----------------------------------*\
  =========                 |
  \\      /  F ield         | OpenFOAM: The Open Source CFD Toolbox
   \\    /   O peration     | Website:  https://openfoam.org
    \\  /    A nd           | Version:  7
     \\/     M anipulation  |
\*---------------------------------------------------------------------------*/
FoamFile
{
    version     2.0;
    format      ascii;
    class       volScalarField;
    location    "0.2575";
    object      k_0;
}
// * * * * * * * * * * * * * * * * * * * * * * * * * * * * * * * * * * * * * //

dimensions      [0 2 -2 0 0 0 0];

internalField   nonuniform List<scalar> 
7920
(
52.0443
56.4934
56.4597
56.4377
56.3161
56.3084
56.2413
56.2584
56.23
56.2639
56.2579
56.2967
56.2938
56.3198
56.3127
56.3266
56.3267
56.3134
56.3908
56.5343
13.8442
14.0096
13.4199
12.8512
12.5762
12.4655
12.3642
12.3288
12.2883
12.297
12.2941
12.3079
12.3067
12.3168
12.3138
12.3207
12.3176
12.3213
12.4825
12.5159
8.08546
9.22363
9.32464
9.2944
9.23265
9.21411
9.18105
9.17395
9.15739
9.16224
9.1627
9.17728
9.18298
9.19747
9.19961
9.20816
9.20798
9.21224
9.21904
9.25289
7.4823
8.75564
8.99257
9.06184
9.06643
9.08753
9.08822
9.09936
9.09398
9.09944
9.09872
9.11319
9.1216
9.14109
9.14701
9.15877
9.16097
9.16508
9.17005
9.19176
7.4175
8.70189
8.95193
9.0359
9.05251
9.08935
9.10012
9.12507
9.1248
9.13317
9.1332
9.14817
9.15737
9.17909
9.18727
9.20037
9.20509
9.20723
9.21392
9.23309
7.42456
8.6984
8.94654
9.03136
9.05139
9.09359
9.10975
9.14086
9.14384
9.15479
9.15532
9.17054
9.1802
9.20275
9.2121
9.2256
9.23208
9.23369
9.24236
9.25799
7.42456
8.6984
8.94654
9.03136
9.05139
9.09359
9.10975
9.14086
9.14383
9.1548
9.15531
9.17056
9.18018
9.20278
9.21205
9.22566
9.23202
9.23369
9.24239
9.25798
7.4175
8.70189
8.95193
9.0359
9.05251
9.08935
9.10012
9.12508
9.12479
9.13319
9.13317
9.14823
9.1573
9.17921
9.18706
9.20067
9.20484
9.20733
9.21402
9.23316
7.4823
8.75564
8.99257
9.06184
9.06643
9.08753
9.08822
9.09936
9.09396
9.09948
9.09867
9.11331
9.12146
9.14137
9.14674
9.15926
9.16055
9.16571
9.1697
9.19189
8.08546
9.22363
9.32464
9.2944
9.23265
9.21411
9.18105
9.17395
9.15738
9.16228
9.16263
9.17742
9.18279
9.19788
9.19912
9.20892
9.20667
9.21448
9.21745
9.25402
13.8442
14.0096
13.4199
12.8512
12.5762
12.4655
12.3642
12.3288
12.2883
12.297
12.2941
12.3079
12.3065
12.3172
12.3131
12.3219
12.3157
12.3239
12.4763
12.5213
52.0443
56.4934
56.4597
56.4377
56.3161
56.3084
56.2413
56.2584
56.2299
56.2639
56.2577
56.297
56.2931
56.321
56.3104
56.3305
56.32
56.3241
56.373
56.5635
7.67921
9.67531
9.75126
9.61769
9.57885
9.50922
9.51094
9.47944
9.49161
9.4756
9.48917
9.47855
9.48886
9.48
9.4872
9.47952
9.48565
9.47679
9.47453
9.53888
6.02141
8.24593
8.57115
8.59886
8.59309
8.58702
8.58077
8.57819
8.578
8.58132
8.58713
8.59266
8.59819
8.60114
8.60459
8.60546
8.60745
8.60774
8.61432
8.62234
5.70314
7.90106
8.23524
8.28313
8.27832
8.28359
8.28369
8.28913
8.28919
8.29548
8.30179
8.31411
8.32276
8.33163
8.33755
8.33992
8.3441
8.34175
8.34468
8.36926
5.69427
7.89243
8.22289
8.26523
8.25245
8.25002
8.24513
8.24765
8.2445
8.24692
8.25036
8.26273
8.27382
8.28726
8.29566
8.30182
8.30617
8.30696
8.31031
8.32987
5.68273
7.87666
8.2071
8.25038
8.23674
8.2331
8.22649
8.22825
8.22365
8.22449
8.22619
8.2377
8.24969
8.26545
8.27527
8.28398
8.28803
8.29069
8.2915
8.31266
5.68922
7.88456
8.21382
8.25636
8.24268
8.23917
8.23261
8.23425
8.22917
8.22933
8.22994
8.24053
8.2523
8.26889
8.27891
8.28892
8.29282
8.29675
8.29779
8.31875
5.68922
7.88456
8.21382
8.25636
8.24268
8.23917
8.23261
8.23425
8.22917
8.22934
8.22993
8.24055
8.25227
8.26893
8.27885
8.28898
8.29277
8.29679
8.2978
8.31867
5.68273
7.87666
8.2071
8.25038
8.23674
8.2331
8.22649
8.22825
8.22364
8.22451
8.22617
8.23777
8.24954
8.26564
8.27502
8.28429
8.28775
8.29094
8.29151
8.31263
5.69427
7.89243
8.22289
8.26523
8.25245
8.25002
8.24512
8.24766
8.24449
8.24696
8.25031
8.26286
8.27354
8.28767
8.29508
8.30258
8.30532
8.30746
8.3101
8.3301
5.70314
7.90106
8.23524
8.28313
8.27832
8.28359
8.28368
8.28914
8.28917
8.29552
8.30168
8.3143
8.32241
8.33221
8.33664
8.34116
8.34264
8.34341
8.34343
8.37016
6.02141
8.24593
8.57115
8.59886
8.59309
8.58702
8.58077
8.57819
8.57799
8.58133
8.58707
8.59276
8.59798
8.60153
8.60388
8.60654
8.60599
8.6099
8.61105
8.62597
7.67921
9.67531
9.75126
9.61769
9.57885
9.50922
9.51094
9.47944
9.4916
9.4756
9.48915
9.47858
9.48879
9.48013
9.48697
9.47998
9.48494
9.47835
9.47218
9.54304
0.480078
1.04007
1.13868
1.1117
1.04626
1.00518
0.983311
0.977898
0.977618
0.981358
0.985795
0.990823
0.995814
1.00151
1.0052
1.01426
1.01333
1.02838
1.01292
1.04332
0.0898105
0.38689
0.52713
0.582633
0.595433
0.598283
0.596211
0.59438
0.592674
0.593231
0.593922
0.595796
0.596808
0.598791
0.599559
0.601687
0.602443
0.604933
0.606448
0.611642
0.0669048
0.305272
0.418353
0.470453
0.483411
0.491334
0.491519
0.492936
0.49268
0.493705
0.493849
0.494796
0.495007
0.495544
0.495764
0.495871
0.49633
0.496112
0.496733
0.499056
0.0705911
0.30878
0.419476
0.469803
0.48325
0.490825
0.491131
0.492232
0.491916
0.492547
0.492701
0.493528
0.49382
0.494303
0.4945
0.494528
0.494705
0.494537
0.494825
0.497041
0.068854
0.304832
0.414409
0.464754
0.477927
0.485532
0.485688
0.48662
0.486155
0.486706
0.486752
0.487537
0.487826
0.488396
0.48856
0.488686
0.488783
0.488744
0.488745
0.49079
0.0698662
0.307009
0.416957
0.467108
0.480424
0.488014
0.488291
0.489296
0.488881
0.489392
0.489459
0.490226
0.490539
0.491103
0.491291
0.491404
0.491509
0.491418
0.491528
0.493553
0.0698662
0.307009
0.416957
0.467108
0.480424
0.488014
0.488291
0.489296
0.488881
0.489392
0.489459
0.490226
0.490538
0.491105
0.491289
0.491407
0.49151
0.491422
0.491528
0.493552
0.068854
0.304832
0.414409
0.464754
0.477927
0.485532
0.485688
0.48662
0.486155
0.486706
0.486751
0.487538
0.487824
0.488399
0.488552
0.488697
0.488783
0.48875
0.488751
0.490787
0.0705911
0.30878
0.419476
0.469803
0.48325
0.490825
0.491131
0.492232
0.491915
0.492548
0.4927
0.493532
0.493812
0.494314
0.494487
0.494543
0.494696
0.494543
0.494827
0.497034
0.0669048
0.305272
0.418353
0.470453
0.483411
0.491334
0.491519
0.492936
0.49268
0.493706
0.493847
0.4948
0.495
0.495559
0.495732
0.495877
0.496314
0.496137
0.496734
0.499025
0.0898105
0.38689
0.52713
0.582633
0.595433
0.598283
0.596211
0.59438
0.592673
0.593232
0.593919
0.595803
0.596795
0.598812
0.599537
0.601714
0.602393
0.604952
0.606328
0.611475
0.480078
1.04007
1.13868
1.1117
1.04626
1.00518
0.983311
0.977898
0.977618
0.98136
0.985791
0.990835
0.995795
1.00156
1.00517
1.01437
1.01329
1.02868
1.01279
1.04402
0.480078
1.04007
1.13868
1.1117
1.04626
1.00518
0.983311
0.977897
0.977618
0.981357
0.985795
0.990822
0.995814
1.00151
1.0052
1.01426
1.01333
1.02838
1.01292
1.04332
0.0898105
0.38689
0.52713
0.582633
0.595433
0.598283
0.596211
0.59438
0.592674
0.593231
0.593922
0.595796
0.596808
0.598791
0.599559
0.601687
0.602443
0.604933
0.606448
0.611642
0.0669048
0.305272
0.418353
0.470453
0.483411
0.491334
0.491519
0.492936
0.49268
0.493705
0.493849
0.494796
0.495007
0.495545
0.495764
0.495872
0.49633
0.496112
0.496733
0.499056
0.0705911
0.30878
0.419476
0.469803
0.48325
0.490825
0.491131
0.492232
0.491916
0.492547
0.492701
0.493529
0.49382
0.494303
0.4945
0.494528
0.494704
0.494536
0.494824
0.49704
0.068854
0.304832
0.414409
0.464754
0.477927
0.485532
0.485688
0.48662
0.486156
0.486706
0.486752
0.487537
0.487826
0.488396
0.48856
0.488686
0.488783
0.488744
0.488745
0.49079
0.0698662
0.307009
0.416957
0.467108
0.480424
0.488014
0.488291
0.489296
0.488881
0.489392
0.489459
0.490226
0.490539
0.491103
0.491291
0.491404
0.491509
0.491418
0.491528
0.493553
0.0698662
0.307009
0.416957
0.467108
0.480424
0.488014
0.488291
0.489296
0.488881
0.489392
0.489459
0.490226
0.490538
0.491105
0.491289
0.491407
0.49151
0.491422
0.491528
0.493552
0.068854
0.304832
0.414409
0.464754
0.477927
0.485532
0.485688
0.48662
0.486155
0.486706
0.486751
0.487539
0.487824
0.488399
0.488552
0.488697
0.488784
0.48875
0.488751
0.490787
0.0705911
0.30878
0.419476
0.469803
0.48325
0.490825
0.491131
0.492232
0.491915
0.492548
0.4927
0.493532
0.493812
0.494314
0.494487
0.494544
0.494697
0.494544
0.494828
0.497035
0.0669048
0.305272
0.418353
0.470453
0.483411
0.491334
0.491519
0.492936
0.49268
0.493706
0.493847
0.494801
0.495
0.495559
0.495732
0.495877
0.496314
0.496137
0.496734
0.499025
0.0898105
0.38689
0.52713
0.582633
0.595433
0.598283
0.596211
0.59438
0.592673
0.593233
0.593919
0.595803
0.596795
0.598812
0.599537
0.601714
0.602393
0.604952
0.606328
0.611475
0.480078
1.04007
1.13868
1.1117
1.04626
1.00518
0.983311
0.977898
0.977618
0.98136
0.985791
0.990835
0.995795
1.00156
1.00517
1.01437
1.01329
1.02868
1.01279
1.04402
7.67921
9.67531
9.75126
9.6177
9.57885
9.50922
9.51094
9.47944
9.4916
9.47559
9.48917
9.47854
9.48885
9.48
9.4872
9.47951
9.48565
9.47679
9.47453
9.53888
6.02141
8.24593
8.57115
8.59886
8.59309
8.58702
8.58077
8.57818
8.578
8.58131
8.58712
8.59266
8.59819
8.60113
8.60458
8.60546
8.60745
8.60774
8.61431
8.62234
5.70314
7.90106
8.23524
8.28313
8.27832
8.28359
8.28369
8.28913
8.28918
8.29548
8.30178
8.31411
8.32276
8.33163
8.33755
8.33992
8.3441
8.34175
8.34468
8.36926
5.69427
7.89243
8.22289
8.26522
8.25245
8.25002
8.24513
8.24765
8.2445
8.24692
8.25036
8.26273
8.27382
8.28726
8.29566
8.30182
8.30617
8.30696
8.31032
8.32987
5.68273
7.87666
8.2071
8.25038
8.23674
8.2331
8.22649
8.22825
8.22365
8.22449
8.22619
8.2377
8.24969
8.26545
8.27527
8.28398
8.28803
8.29069
8.2915
8.31266
5.68922
7.88456
8.21382
8.25636
8.24268
8.23917
8.23261
8.23425
8.22917
8.22933
8.22994
8.24053
8.25231
8.26889
8.27891
8.28892
8.29282
8.29676
8.29779
8.31875
5.68922
7.88456
8.21382
8.25636
8.24268
8.23917
8.23261
8.23425
8.22917
8.22934
8.22993
8.24055
8.25227
8.26894
8.27885
8.28898
8.29277
8.29679
8.2978
8.31867
5.68273
7.87666
8.2071
8.25038
8.23674
8.2331
8.22649
8.22825
8.22364
8.22451
8.22617
8.23777
8.24955
8.26564
8.27502
8.28429
8.28775
8.29094
8.29151
8.31263
5.69427
7.89243
8.22289
8.26523
8.25245
8.25003
8.24512
8.24766
8.24449
8.24696
8.25031
8.26286
8.27354
8.28768
8.29508
8.30258
8.30532
8.30746
8.3101
8.3301
5.70314
7.90106
8.23524
8.28313
8.27832
8.28359
8.28369
8.28914
8.28917
8.29552
8.30168
8.31431
8.32241
8.33222
8.33664
8.34116
8.34265
8.34341
8.34343
8.37016
6.02141
8.24593
8.57115
8.59886
8.59309
8.58702
8.58077
8.57819
8.578
8.58134
8.58708
8.59277
8.59799
8.60153
8.60388
8.60654
8.60599
8.6099
8.61105
8.62597
7.67921
9.67531
9.75126
9.61769
9.57885
9.50922
9.51094
9.47944
9.4916
9.4756
9.48916
9.47858
9.4888
9.48014
9.48697
9.47998
9.48494
9.47835
9.47218
9.54304
52.0443
56.4934
56.4597
56.4377
56.3161
56.3084
56.2413
56.2584
56.2299
56.2639
56.2579
56.2967
56.2938
56.3198
56.3127
56.3266
56.3267
56.3133
56.3908
56.5343
13.8442
14.0096
13.4199
12.8512
12.5762
12.4655
12.3642
12.3288
12.2883
12.297
12.2941
12.3078
12.3067
12.3168
12.3138
12.3207
12.3176
12.3213
12.4825
12.5159
8.08546
9.22363
9.32464
9.2944
9.23265
9.21411
9.18105
9.17395
9.15739
9.16224
9.16269
9.17727
9.18298
9.19746
9.1996
9.20816
9.20798
9.21223
9.21903
9.25289
7.4823
8.75564
8.99257
9.06184
9.06643
9.08753
9.08822
9.09936
9.09398
9.09944
9.09872
9.11319
9.12159
9.14109
9.14701
9.15877
9.16097
9.16508
9.17006
9.19176
7.4175
8.70189
8.95193
9.0359
9.05251
9.08934
9.10012
9.12507
9.1248
9.13317
9.1332
9.14816
9.15737
9.17909
9.18727
9.20037
9.20509
9.20723
9.21392
9.23309
7.42456
8.6984
8.94654
9.03136
9.05139
9.09358
9.10975
9.14086
9.14384
9.15479
9.15532
9.17054
9.18021
9.20275
9.2121
9.22561
9.23208
9.23369
9.24236
9.25799
7.42456
8.6984
8.94654
9.03136
9.05139
9.09359
9.10975
9.14086
9.14383
9.1548
9.15531
9.17056
9.18019
9.20279
9.21205
9.22567
9.23202
9.23369
9.24239
9.25798
7.4175
8.70189
8.95193
9.0359
9.05251
9.08935
9.10012
9.12508
9.12479
9.13319
9.13317
9.14823
9.15731
9.17922
9.18707
9.20067
9.20484
9.20733
9.21402
9.23316
7.4823
8.75564
8.99257
9.06184
9.06643
9.08753
9.08822
9.09936
9.09396
9.09948
9.09867
9.11332
9.12147
9.14137
9.14675
9.15926
9.16055
9.16571
9.1697
9.19189
8.08546
9.22363
9.32464
9.2944
9.23265
9.21411
9.18105
9.17395
9.15738
9.16228
9.16264
9.17743
9.1828
9.19789
9.19912
9.20892
9.20667
9.21448
9.21745
9.25402
13.8442
14.0096
13.4199
12.8512
12.5762
12.4655
12.3642
12.3288
12.2883
12.297
12.2941
12.308
12.3065
12.3172
12.3131
12.3219
12.3157
12.3239
12.4763
12.5213
52.0443
56.4934
56.4597
56.4377
56.3161
56.3084
56.2413
56.2584
56.2299
56.264
56.2577
56.2971
56.2932
56.321
56.3105
56.3305
56.3201
56.3241
56.373
56.5635
143.365
145.309
145.82
145.996
146.001
146.032
146.015
146.034
146.021
146.036
146.026
146.038
146.029
146.037
146.028
146.035
146.027
146.034
146.029
146.034
146.029
146.033
146.027
146.03
146.025
146.028
146.025
146.029
146.027
146.03
146.025
146.027
146.022
146.024
146.022
146.026
146.025
146.029
146.028
146.029
146.026
146.026
146.023
146.026
146.026
146.031
146.033
146.039
146.039
146.042
146.039
146.04
146.038
146.041
146.043
146.05
146.056
146.065
146.071
146.078
146.081
146.084
146.084
146.087
146.089
146.096
146.104
146.118
146.132
146.151
146.168
146.187
146.202
146.218
146.229
146.242
146.252
146.269
146.283
146.308
146.331
146.37
146.404
146.456
146.499
146.561
146.61
146.674
146.698
146.848
47.0894
48.8832
49.0131
49.0816
49.0628
49.0922
49.074
49.0981
49.0838
49.1053
49.0941
49.1134
49.1042
49.1217
49.1144
49.131
49.1256
49.1419
49.138
49.1537
49.1509
49.1659
49.164
49.1788
49.178
49.1931
49.1937
49.209
49.2106
49.2255
49.2275
49.2422
49.2453
49.2608
49.2654
49.2818
49.2876
49.3042
49.3106
49.327
49.3341
49.3511
49.3597
49.3782
49.389
49.4088
49.4211
49.4415
49.4544
49.475
49.4889
49.5105
49.5265
49.5504
49.5693
49.5958
49.6172
49.6454
49.6682
49.6972
49.7209
49.751
49.7768
49.8094
49.8388
49.8755
49.9094
49.9504
49.988
50.032
50.0721
50.1178
50.159
50.2059
50.2483
50.2976
50.3425
50.3956
50.4442
50.5026
50.5547
50.6177
50.671
50.7359
50.7859
50.8485
50.8897
50.9444
50.9601
50.981
30.4172
32.5586
32.6716
32.7535
32.7358
32.7834
32.769
32.8116
32.8023
32.8426
32.8375
32.876
32.8738
32.9109
32.9116
32.9483
32.9518
32.9886
32.9945
33.0311
33.0387
33.075
33.0841
33.1205
33.1317
33.1689
33.1823
33.2202
33.2352
33.2728
33.2888
33.3266
33.3445
33.3836
33.4041
33.4445
33.4671
33.5079
33.5316
33.5724
33.5974
33.6392
33.6668
33.7107
33.7416
33.7876
33.8206
33.8673
33.9013
33.9482
33.9835
34.0319
34.0702
34.1216
34.164
34.2188
34.2644
34.321
34.368
34.4251
34.4729
34.5307
34.5804
34.641
34.6949
34.76
34.8192
34.889
34.9521
35.0247
35.0895
35.1626
35.227
35.2993
35.3629
35.4357
35.5
35.575
35.6412
35.7204
35.7886
35.8712
35.9386
36.0216
36.083
36.1615
36.2106
36.2774
36.3094
36.3284
28.1833
30.7357
30.9288
31.0497
31.0423
31.1052
31.0961
31.1527
31.1495
31.2042
31.2058
31.2592
31.264
31.3163
31.3244
31.3767
31.3883
31.441
31.4553
31.5081
31.5243
31.5767
31.5948
31.6474
31.6679
31.7217
31.745
31.7995
31.8244
31.8785
31.9045
31.9586
31.9871
32.0426
32.0743
32.1312
32.1651
32.2223
32.2574
32.3142
32.3507
32.4084
32.4479
32.5082
32.5515
32.614
32.6597
32.7226
32.769
32.8317
32.8794
32.9435
32.9946
33.0623
33.1183
33.1899
33.2495
33.3229
33.3836
33.4568
33.518
33.5915
33.6547
33.7314
33.7996
33.882
33.9566
34.0446
34.124
34.2151
34.296
34.3871
34.4669
34.5565
34.6348
34.7246
34.8036
34.8963
34.9778
35.076
35.1603
35.2633
35.347
35.451
35.5276
35.6261
35.6878
35.7717
35.8149
35.8427
27.9711
30.7416
31.0076
31.1672
31.1664
31.2402
31.234
31.2998
31.3002
31.3646
31.3701
31.4331
31.4421
31.5042
31.5168
31.579
31.5953
31.6581
31.6775
31.7403
31.7618
31.8243
31.8477
31.9105
31.9366
32.0006
32.0297
32.0944
32.1253
32.1894
32.2215
32.2855
32.3203
32.3857
32.4241
32.491
32.5318
32.5988
32.6408
32.7073
32.7507
32.818
32.8648
32.935
32.986
33.0586
33.1121
33.1849
33.239
33.3114
33.3669
33.4408
33.5001
33.5781
33.6428
33.7251
33.794
33.8782
33.9481
34.0319
34.1021
34.1862
34.2587
34.3463
34.4245
34.5188
34.6044
34.7051
34.7961
34.9002
34.9929
35.0969
35.1882
35.2904
35.3799
35.4824
35.5726
35.6784
35.7717
35.8839
35.9805
36.0983
36.1942
36.3132
36.4011
36.5138
36.5849
36.6805
36.7322
36.7683
28.0144
30.9188
31.2229
31.3959
31.3972
31.4756
31.4706
31.5402
31.5422
31.6107
31.618
31.6852
31.6962
31.7626
31.7773
31.8441
31.8628
31.9302
31.9521
32.0197
32.0437
32.1109
32.137
32.2045
32.2334
32.3023
32.3344
32.404
32.4379
32.5068
32.542
32.6107
32.6487
32.719
32.7607
32.8325
32.8768
32.9486
32.9941
33.0653
33.1122
33.1843
33.2347
33.3098
33.3647
33.4423
33.4998
33.5776
33.6356
33.7129
33.7723
33.8512
33.9146
33.9978
34.067
34.1547
34.2282
34.3178
34.3924
34.4816
34.5564
34.6459
34.7231
34.8162
34.8995
34.9997
35.0909
35.1978
35.2946
35.4052
35.5039
35.6142
35.7112
35.8197
35.9148
36.0235
36.1193
36.2316
36.3306
36.4496
36.5522
36.6771
36.7791
36.9053
36.9987
37.1182
37.1941
37.2955
37.3504
37.3906
28.0165
30.908
31.197
31.3612
31.3595
31.4366
31.4315
31.5011
31.5032
31.5717
31.579
31.6463
31.6573
31.7237
31.7386
31.8053
31.8241
31.8916
31.9135
31.9811
32.0052
32.0726
32.0987
32.1663
32.1952
32.2642
32.2963
32.3661
32.4
32.469
32.5043
32.573
32.6111
32.6815
32.7233
32.7952
32.8395
32.9114
32.957
33.0283
33.0753
33.1475
33.198
33.2732
33.3282
33.4059
33.4634
33.5413
33.5995
33.6768
33.7363
33.8153
33.8788
33.962
34.0313
34.1191
34.1927
34.2825
34.3572
34.4464
34.5213
34.6109
34.6882
34.7814
34.8648
34.9651
35.0563
35.1634
35.2603
35.3709
35.4696
35.5801
35.6772
35.7857
35.8809
35.9897
36.0856
36.1979
36.2971
36.4161
36.5188
36.6438
36.7458
36.8721
36.9656
37.0852
37.1611
37.2627
37.3174
37.3585
27.9749
30.6993
30.9192
31.053
31.0438
31.1148
31.1082
31.1741
31.1746
31.2389
31.2446
31.3077
31.3168
31.379
31.3917
31.454
31.4706
31.5336
31.5531
31.6161
31.6378
31.7005
31.7241
31.787
31.8134
31.8776
31.9069
31.9719
32.003
32.0673
32.0997
32.1639
32.1989
32.2646
32.3033
32.3704
32.4115
32.4787
32.521
32.5877
32.6314
32.699
32.746
32.8165
32.8678
32.9406
32.9944
33.0675
33.1219
33.1946
33.2503
33.3245
33.3841
33.4624
33.5274
33.61
33.6791
33.7635
33.8337
33.9179
33.9883
34.0727
34.1455
34.2334
34.3119
34.4064
34.4923
34.5932
34.6845
34.7888
34.8818
34.986
35.0775
35.18
35.2698
35.3725
35.463
35.569
35.6626
35.7749
35.8718
35.9898
36.0859
36.2052
36.2932
36.4063
36.4775
36.5739
36.625
36.6632
28.1769
30.6272
30.7397
30.8232
30.8053
30.865
30.8557
30.9121
30.9091
30.9638
30.9656
31.0191
31.0241
31.0766
31.085
31.1375
31.1493
31.2023
31.2168
31.2699
31.2864
31.3391
31.3575
31.4105
31.4313
31.4854
31.509
31.5638
31.5891
31.6435
31.6699
31.7244
31.7532
31.8091
31.8411
31.8984
31.9327
31.9902
32.0257
32.0829
32.1198
32.1779
32.2178
32.2784
32.3222
32.3851
32.4311
32.4944
32.5412
32.6043
32.6524
32.7169
32.7685
32.8366
32.8929
32.9649
33.025
33.0987
33.1599
33.2335
33.295
33.369
33.4326
33.5097
33.5783
33.6611
33.7361
33.8245
33.9042
33.9957
34.077
34.1684
34.2485
34.3385
34.4172
34.5074
34.5868
34.6798
34.7617
34.8602
34.9449
35.0482
35.1322
35.2365
35.3134
35.4123
35.4741
35.5591
35.6015
35.6329
30.36
32.3045
32.3051
32.343
32.3171
32.3619
32.3475
32.3895
32.3804
32.4205
32.4157
32.4541
32.4522
32.4893
32.4902
32.5271
32.5309
32.5679
32.574
32.6109
32.6187
32.6553
32.6647
32.7013
32.7128
32.7503
32.7641
32.8022
32.8175
32.8554
32.8717
32.9098
32.928
32.9674
32.9883
33.029
33.0518
33.0929
33.1169
33.158
33.1834
33.2254
33.2533
33.2976
33.3287
33.375
33.4083
33.4553
33.4895
33.5368
33.5724
33.6211
33.6597
33.7114
33.754
33.8091
33.855
33.9119
33.9592
34.0165
34.0646
34.1227
34.1727
34.2336
34.2878
34.3532
34.4126
34.4827
34.5461
34.6189
34.684
34.7573
34.8219
34.8946
34.9584
35.0315
35.0961
35.1714
35.2379
35.3173
35.3858
35.4686
35.5363
35.6196
35.6812
35.76
35.8091
35.8771
35.9083
35.9316
46.8598
48.2395
48.1895
48.2019
48.1733
48.1992
48.1811
48.2041
48.19
48.2106
48.1996
48.2182
48.2092
48.2263
48.2191
48.2355
48.2303
48.2464
48.2426
48.2582
48.2554
48.2704
48.2686
48.2833
48.2826
48.2975
48.2982
48.3135
48.315
48.3298
48.3318
48.3464
48.3494
48.3648
48.3693
48.3855
48.3911
48.4075
48.4137
48.4299
48.4368
48.4535
48.4618
48.4799
48.4904
48.5099
48.5218
48.5418
48.5543
48.5744
48.5878
48.609
48.6244
48.6479
48.6662
48.6922
48.713
48.7406
48.7627
48.791
48.8141
48.8436
48.8686
48.9007
48.9293
48.9653
48.9985
49.0387
49.0755
49.1188
49.158
49.203
49.2434
49.2896
49.3313
49.3798
49.4241
49.4765
49.5244
49.582
49.6335
49.6958
49.7485
49.8127
49.8622
49.9243
49.9647
50.0201
50.034
50.0583
142.439
143.087
143.059
143.074
143.052
143.071
143.055
143.069
143.056
143.068
143.058
143.068
143.059
143.065
143.057
143.062
143.055
143.06
143.055
143.06
143.055
143.058
143.052
143.055
143.049
143.052
143.049
143.053
143.05
143.052
143.047
143.048
143.043
143.044
143.041
143.044
143.043
143.046
143.043
143.044
143.04
143.039
143.035
143.036
143.034
143.038
143.038
143.042
143.041
143.041
143.037
143.036
143.032
143.032
143.031
143.035
143.039
143.045
143.048
143.052
143.052
143.052
143.049
143.048
143.046
143.049
143.053
143.063
143.072
143.086
143.098
143.112
143.122
143.133
143.139
143.148
143.152
143.162
143.17
143.188
143.205
143.235
143.261
143.304
143.339
143.39
143.43
143.486
143.497
143.64
30.0765
30.8114
30.8979
30.9173
30.9167
30.9201
30.9143
30.9181
30.9118
30.9166
30.9104
30.9155
30.909
30.9138
30.9074
30.9123
30.9066
30.912
30.907
30.9125
30.9077
30.9127
30.9081
30.9127
30.9086
30.9137
30.9107
30.9163
30.9138
30.9189
30.9161
30.9206
30.9182
30.9232
30.922
30.9279
30.9277
30.9336
30.9335
30.9388
30.9384
30.9435
30.9438
30.95
30.9522
30.9598
30.9631
30.9708
30.974
30.9811
30.9839
30.991
30.9948
31.0034
31.0095
31.0203
31.0287
31.0409
31.0499
31.0619
31.0706
31.0823
31.0912
31.104
31.1152
31.131
31.1459
31.1656
31.184
31.2065
31.2269
31.2507
31.2714
31.2952
31.3156
31.3402
31.3617
31.3889
31.4132
31.4453
31.4737
31.5115
31.5431
31.5854
31.6172
31.6611
31.6889
31.7303
31.7458
31.7625
27.7894
29.2737
29.4004
29.4393
29.4477
29.4627
29.466
29.4794
29.4824
29.4958
29.499
29.5126
29.5161
29.5294
29.533
29.5463
29.5504
29.564
29.5687
29.5825
29.5878
29.6018
29.6075
29.6214
29.6275
29.6415
29.6484
29.663
29.6708
29.6857
29.694
29.7089
29.7175
29.7325
29.742
29.7577
29.7682
29.7846
29.7959
29.8126
29.8244
29.8412
29.8534
29.8706
29.8839
29.9021
29.9167
29.9359
29.9513
29.9709
29.9868
30.0066
30.0229
30.0431
30.0604
30.0817
30.1004
30.1229
30.1428
30.1661
30.1866
30.2102
30.2309
30.2545
30.2755
30.2996
30.3215
30.3467
30.3697
30.3959
30.4199
30.4469
30.4713
30.4984
30.5225
30.5492
30.5728
30.5991
30.6219
30.6479
30.67
30.6959
30.7171
30.7427
30.7623
30.7871
30.8044
30.827
30.8425
30.8657
25.5641
27.5625
27.7657
27.824
27.8416
27.8573
27.8652
27.8783
27.8858
27.8988
27.9065
27.9198
27.9275
27.9407
27.9484
27.9616
27.9696
27.983
27.9915
28.0052
28.0141
28.0279
28.0369
28.0507
28.0598
28.0736
28.0834
28.0976
28.108
28.1225
28.133
28.1472
28.1577
28.172
28.183
28.1976
28.2093
28.2244
28.2364
28.2515
28.2635
28.2783
28.2903
28.305
28.3175
28.3329
28.3461
28.3618
28.3753
28.3909
28.4042
28.4193
28.4322
28.447
28.4601
28.4754
28.4891
28.505
28.5191
28.5349
28.5487
28.5639
28.577
28.5912
28.6037
28.6175
28.6299
28.644
28.6568
28.6712
28.6843
28.6988
28.7116
28.7254
28.7372
28.75
28.7607
28.7725
28.7822
28.7935
28.8027
28.8142
28.8234
28.8356
28.8451
28.8578
28.868
28.8804
28.8922
28.8767
24.9627
27.087
27.3041
27.3643
27.3814
27.3952
27.4013
27.4114
27.4171
27.4269
27.4329
27.4428
27.4488
27.4585
27.4644
27.474
27.48
27.4898
27.4961
27.5061
27.5127
27.5226
27.5292
27.539
27.5456
27.5553
27.5623
27.5724
27.5798
27.59
27.5975
27.6073
27.6146
27.6243
27.6319
27.642
27.6501
27.6604
27.6687
27.679
27.6871
27.697
27.7049
27.7147
27.7229
27.7332
27.7421
27.7526
27.7617
27.772
27.7807
27.7905
27.7988
27.8084
27.8168
27.8267
27.8357
27.8462
27.8556
27.8661
27.8752
27.8851
27.8936
27.9028
27.9107
27.9197
27.9277
27.9371
27.9456
27.9555
27.9645
27.9747
27.9837
27.9936
28.0019
28.011
28.0186
28.0272
28.0342
28.0426
28.0495
28.0586
28.066
28.0759
28.084
28.0948
28.1039
28.1149
28.1253
28.1159
24.6611
26.8315
27.033
27.0892
27.1054
27.1185
27.1225
27.1307
27.1342
27.142
27.1458
27.1536
27.1574
27.1649
27.1687
27.176
27.1799
27.1873
27.1916
27.199
27.2035
27.211
27.2154
27.2228
27.2272
27.2346
27.2394
27.2472
27.2525
27.2604
27.2657
27.2732
27.2784
27.2859
27.2914
27.2993
27.3053
27.3135
27.3198
27.328
27.3341
27.3419
27.3479
27.3558
27.3621
27.3705
27.3776
27.3863
27.3936
27.4022
27.4092
27.4174
27.4242
27.4322
27.4392
27.4477
27.4554
27.4646
27.4727
27.482
27.49
27.4989
27.5064
27.5147
27.5218
27.5299
27.5373
27.5459
27.5539
27.5632
27.5718
27.5815
27.5901
27.5997
27.6078
27.6167
27.6241
27.6326
27.6395
27.6479
27.6549
27.6638
27.6712
27.6811
27.6892
27.6997
27.7087
27.7193
27.7293
27.7096
24.6575
26.8107
26.9881
27.0316
27.0423
27.0544
27.0574
27.0647
27.0673
27.0741
27.077
27.0838
27.0868
27.0933
27.0962
27.1027
27.1058
27.1126
27.116
27.1229
27.1266
27.1336
27.1373
27.1441
27.1479
27.1547
27.1589
27.1661
27.1708
27.1781
27.1828
27.1899
27.1945
27.2016
27.2065
27.214
27.2194
27.2272
27.233
27.2408
27.2465
27.2539
27.2595
27.267
27.273
27.2811
27.2878
27.2963
27.3033
27.3117
27.3184
27.3264
27.3329
27.3408
27.3476
27.356
27.3636
27.3727
27.3807
27.3899
27.3979
27.4068
27.4142
27.4226
27.4296
27.4379
27.4453
27.454
27.4621
27.4715
27.4802
27.49
27.4988
27.5084
27.5166
27.5257
27.5333
27.542
27.549
27.5576
27.5647
27.5738
27.5814
27.5914
27.5996
27.6103
27.6194
27.6302
27.6399
27.6217
24.6587
26.799
26.9622
26.9976
27.005
27.0162
27.0191
27.0264
27.0291
27.0358
27.0388
27.0455
27.0486
27.0552
27.0581
27.0647
27.0678
27.0746
27.0781
27.085
27.0888
27.0958
27.0996
27.1065
27.1103
27.1172
27.1214
27.1287
27.1334
27.1409
27.1456
27.1528
27.1574
27.1646
27.1696
27.1771
27.1827
27.1905
27.1964
27.2042
27.21
27.2176
27.2232
27.2308
27.2369
27.2451
27.2518
27.2604
27.2675
27.276
27.2828
27.2909
27.2975
27.3055
27.3124
27.3209
27.3285
27.3377
27.3458
27.3552
27.3632
27.3722
27.3797
27.3882
27.3954
27.4037
27.4112
27.4201
27.4282
27.4377
27.4465
27.4564
27.4653
27.4751
27.4834
27.4926
27.5003
27.509
27.5162
27.5249
27.5321
27.5413
27.549
27.5591
27.5674
27.5782
27.5873
27.5983
27.608
27.59
24.6639
26.7893
26.9471
26.9806
26.9884
26.9993
27.0031
27.0112
27.0148
27.0226
27.0264
27.0342
27.0382
27.0457
27.0496
27.057
27.061
27.0686
27.073
27.0806
27.0852
27.0929
27.0975
27.105
27.1096
27.1172
27.1221
27.1301
27.1355
27.1436
27.1491
27.1569
27.1623
27.17
27.1757
27.1838
27.19
27.1984
27.2049
27.2133
27.2197
27.2278
27.234
27.2421
27.2487
27.2573
27.2646
27.2736
27.2812
27.2901
27.2973
27.3058
27.3128
27.3211
27.3284
27.3372
27.3451
27.3546
27.363
27.3726
27.3809
27.3901
27.3978
27.4064
27.4138
27.4223
27.4299
27.4389
27.4472
27.4568
27.4657
27.4757
27.4846
27.4945
27.5029
27.5121
27.5199
27.5287
27.5359
27.5446
27.5519
27.5612
27.5689
27.5791
27.5874
27.5984
27.6076
27.6186
27.6288
27.6098
24.9551
26.9831
27.1249
27.1504
27.1575
27.1687
27.1745
27.1845
27.1902
27.2
27.2061
27.216
27.2221
27.2319
27.2379
27.2476
27.2538
27.2637
27.2702
27.2803
27.2871
27.2972
27.304
27.3139
27.3208
27.3307
27.3379
27.3482
27.3559
27.3663
27.374
27.3841
27.3917
27.4017
27.4095
27.4199
27.4282
27.4389
27.4475
27.458
27.4664
27.4766
27.4848
27.4949
27.5035
27.5141
27.5233
27.5342
27.5436
27.5543
27.5633
27.5735
27.5821
27.5921
27.6009
27.6112
27.6206
27.6315
27.6413
27.6522
27.6617
27.6721
27.681
27.6907
27.699
27.7084
27.7169
27.7268
27.7358
27.7461
27.7557
27.7663
27.7758
27.7861
27.795
27.8046
27.8127
27.8218
27.8293
27.8383
27.8457
27.8553
27.8632
27.8736
27.8822
27.8936
27.903
27.9148
27.9251
27.9167
25.5217
27.3522
27.4568
27.4781
27.4871
27.5006
27.5084
27.5211
27.5286
27.5415
27.5493
27.5624
27.5703
27.5835
27.5913
27.6045
27.6126
27.6261
27.6347
27.6485
27.6575
27.6714
27.6806
27.6944
27.7038
27.7177
27.7276
27.742
27.7525
27.7671
27.7778
27.7922
27.8028
27.8172
27.8284
27.8432
27.855
27.8702
27.8825
27.8977
27.9099
27.9248
27.937
27.9519
27.9646
27.9801
27.9935
28.0094
28.0231
28.0389
28.0523
28.0676
28.0807
28.0958
28.1092
28.1247
28.1386
28.1547
28.1691
28.1851
28.1993
28.2147
28.2281
28.2427
28.2554
28.2696
28.2824
28.2969
28.31
28.3249
28.3383
28.3532
28.3664
28.3807
28.393
28.4063
28.4174
28.4298
28.4399
28.4518
28.4616
28.4737
28.4835
28.4963
28.5064
28.5198
28.5303
28.5438
28.5556
28.5421
27.6663
28.9057
28.9225
28.9289
28.9313
28.9444
28.9478
28.9607
28.9636
28.9767
28.98
28.9933
28.9969
29.0101
29.0138
29.027
29.0311
29.0446
29.0494
29.0632
29.0685
29.0825
29.0882
29.1021
29.1082
29.1223
29.1291
29.1438
29.1515
29.1664
29.1747
29.1895
29.198
29.213
29.2224
29.2381
29.2484
29.2647
29.2759
29.2925
29.3041
29.3208
29.3328
29.3499
29.363
29.3811
29.3954
29.4144
29.4296
29.449
29.4646
29.4841
29.5002
29.5202
29.5372
29.5582
29.5766
29.5988
29.6184
29.6414
29.6615
29.6848
29.7052
29.7285
29.7492
29.773
29.7946
29.8194
29.8421
29.8681
29.8918
29.9185
29.9426
29.9694
29.9932
30.0197
30.0431
30.0692
30.0918
30.1177
30.1397
30.1656
30.1868
30.2124
30.2321
30.257
30.2743
30.2977
30.3124
30.3377
29.8497
30.3005
30.2788
30.269
30.2638
30.2656
30.26
30.2631
30.257
30.2613
30.2552
30.26
30.2536
30.2582
30.2519
30.2567
30.2511
30.2564
30.2515
30.2568
30.2521
30.2571
30.2525
30.2571
30.2529
30.258
30.2549
30.2604
30.2578
30.2628
30.2599
30.2642
30.2617
30.2665
30.2653
30.2709
30.2705
30.2762
30.2758
30.2808
30.2802
30.2849
30.285
30.2908
30.2926
30.2997
30.3026
30.3099
30.3126
30.3192
30.3216
30.3281
30.3314
30.3394
30.3448
30.3551
30.3627
30.3742
30.3824
30.3938
30.4016
30.4126
30.4207
30.4327
30.4429
30.4578
30.4718
30.4904
30.5077
30.5292
30.5485
30.5711
30.5907
30.6134
30.6327
30.6561
30.6764
30.7024
30.7254
30.7561
30.7831
30.8193
30.8494
30.89
30.9204
30.9625
30.9888
31.0291
31.0421
31.061
3.87039
3.99658
3.96941
3.96838
3.97868
3.99432
4.00326
4.02021
4.02666
4.04454
4.04931
4.0674
4.07089
4.08886
4.09174
4.10971
4.11248
4.13041
4.13318
4.15086
4.15366
4.17096
4.17398
4.19109
4.19468
4.21194
4.2163
4.23361
4.23846
4.2555
4.26075
4.27774
4.28387
4.30133
4.30861
4.32655
4.33469
4.35276
4.36151
4.37962
4.38909
4.40765
4.41839
4.43797
4.45026
4.47074
4.48407
4.50491
4.51885
4.53991
4.55465
4.57647
4.59266
4.61592
4.63398
4.65874
4.67832
4.70396
4.72432
4.75032