/*--------------------------------*- C++ -*----------------------------------*\
  =========                 |
  \\      /  F ield         | OpenFOAM: The Open Source CFD Toolbox
   \\    /   O peration     | Website:  https://openfoam.org
    \\  /    A nd           | Version:  7
     \\/     M anipulation  |
\*---------------------------------------------------------------------------*/
FoamFile
{
    version     2.0;
    format      ascii;
    class       volScalarField;
    location    "0.5";
    object      T;
}
// * * * * * * * * * * * * * * * * * * * * * * * * * * * * * * * * * * * * * //

dimensions      [0 0 0 1 0 0 0];

internalField   nonuniform List<scalar> 
6000
(
276.816
278.782
279.007
279.322
279.517
279.654
279.733
279.725
279.612
278.816
278.436
279.33
279.899
280.17
280.379
280.511
280.583
280.564
280.359
279.545
278.358
279.487
279.681
279.927
280.099
280.225
280.315
280.319
280.28
279.444
279.099
278.94
279.396
279.555
279.714
279.82
279.896
279.883
279.751
278.912
279.079
278.939
279.363
279.457
279.588
279.675
279.747
279.73
279.621
278.787
279.331
278.789
279.137
279.194
279.302
279.379
279.448
279.429
279.338
278.515
279.331
278.789
279.136
279.194
279.302
279.38
279.446
279.432
279.332
278.526
279.079
278.939
279.362
279.458
279.586
279.678
279.743
279.739
279.603
278.82
279.099
278.941
279.395
279.556
279.712
279.824
279.889
279.896
279.724
278.965
278.358
279.487
279.68
279.929
280.096
280.229
280.306
280.335
280.247
279.514
278.435
279.331
279.898
280.172
280.376
280.516
280.574
280.582
280.322
279.62
276.816
278.782
279.006
279.323
279.514
279.659
279.724
279.743
279.576
278.888
285.301
284.999
286.034
286.292
286.542
286.674
286.723
286.665
286.238
285.433
282.189
281.442
282.234
282.491
282.718
282.848
282.907
282.865
282.502
281.689
282.542
280.744
281.608
281.794
282.007
282.122
282.179
282.133
281.752
280.93
281.493
279.722
280.065
280.188
280.342
280.438
280.508
280.481
280.281
279.447
281.772
279.598
279.69
279.731
279.839
279.913
279.983
279.956
279.848
279.02
281.513
279.408
279.399
279.392
279.473
279.532
279.598
279.571
279.497
278.682
281.513
279.408
279.399
279.393
279.472
279.533
279.597
279.574
279.491
278.693
281.772
279.598
279.689
279.732
279.838
279.915
279.978
279.966
279.83
279.054
281.493
279.723
280.064
280.19
280.34
280.442
280.5
280.495
280.253
279.5
282.542
280.744
281.607
281.795
282.004
282.127
282.169
282.151
281.717
280.997
282.189
281.442
282.234
282.492
282.715
282.853
282.896
282.884
282.464
281.763
285.301
284.999
286.033
286.294
286.539
286.679
286.713
286.684
286.198
285.512
284.088
283.755
284.405
284.677
284.904
285.033
285.088
285.038
284.725
283.922
282.914
282.01
282.433
282.675
282.879
283.006
283.075
283.042
282.785
281.97
282.878
281.387
281.576
281.719
281.875
281.978
282.053
282.023
281.84
281.02
282.474
280.757
280.589
280.607
280.695
280.762
280.839
280.806
280.755
279.939
282.522
280.619
280.219
280.12
280.149
280.178
280.249
280.205
280.241
279.447
282.426
280.499
280.011
279.853
279.847
279.856
279.919
279.869
279.937
279.162
282.426
280.499
280.011
279.854
279.847
279.857
279.917
279.872
279.93
279.174
282.521
280.62
280.218
280.122
280.147
280.182
280.243
280.216
280.221
279.481
282.473
280.758
280.588
280.609
280.692
280.767
280.829
280.823
280.724
279.995
282.878
281.388
281.575
281.721
281.871
281.985
282.041
282.044
281.799
281.096
282.914
282.011
282.432
282.678
282.875
283.013
283.063
283.065
282.739
282.058
284.088
283.756
284.404
284.679
284.901
285.04
285.075
285.062
284.677
284.021
283.523
283.388
283.722
283.978
284.178
284.29
284.345
284.288
284.155
283.407
283.222
282.629
282.662
282.807
282.958
283.062
283.142
283.097
283.039
282.308
283.205
282.314
282.046
282.002
282.05
282.092
282.174
282.115
282.155
281.463
283.107
282.03
281.507
281.28
281.216
281.177
281.239
281.147
281.271
280.616
283.121
281.975
281.303
280.937
280.786
280.676
280.71
280.581
280.751
280.145
283.097
281.916
281.189
280.764
280.57
280.424
280.437
280.29
280.47
279.894
283.097
281.916
281.189
280.765
280.569
280.426
280.434
280.295
280.462
279.906
283.12
281.976
281.301
280.939
280.782
280.681
280.701
280.596
280.727
280.181
283.106
282.032
281.506
281.283
281.211
281.186
281.225
281.171
281.23
280.679
283.204
282.315
282.044
282.006
282.044
282.103
282.155
282.146
282.099
281.558
283.221
282.63
282.66
282.811
282.952
283.073
283.122
283.132
282.972
282.433
283.523
283.389
283.72
283.981
284.173
284.3
284.326
284.323
284.082
283.559
283.232
283.233
283.4
283.62
283.795
283.865
283.912
283.816
283.891
283.3
283.212
283.046
282.958
282.973
283.052
283.097
283.179
283.074
283.187
282.704
283.226
282.993
282.747
282.56
282.482
282.4
282.453
282.314
282.437
282.067
283.223
282.943
282.592
282.258
282.055
281.839
281.821
281.625
281.726
281.42
283.227
282.94
282.55
282.131
281.852
281.546
281.465
281.22
281.276
281.014
283.226
282.927
282.519
282.069
281.758
281.414
281.294
281.028
281.048
280.808
283.225
282.927
282.518
282.07
281.756
281.417
281.29
281.033
281.04
280.818
283.226
282.941
282.547
282.135
281.846
281.555
281.452
281.238
281.25
281.046
283.221
282.945
282.589
282.264
282.045
281.853
281.8
281.656
281.678
281.48
283.225
282.995
282.743
282.566
282.471
282.419
282.422
282.361
282.361
282.171
283.211
283.048
282.955
282.979
283.041
283.115
283.144
283.133
283.083
282.869
283.232
283.234
283.397
283.625
283.786
283.881
283.881
283.875
283.77
283.533
283.232
283.233
283.4
283.62
283.795
283.865
283.912
283.816
283.891
283.3
283.212
283.046
282.958
282.973
283.052
283.097
283.179
283.074
283.187
282.704
283.226
282.993
282.747
282.56
282.482
282.4
282.453
282.314
282.437
282.067
283.223
282.943
282.592
282.258
282.055
281.839
281.821
281.625
281.726
281.42
283.227
282.94
282.55
282.131
281.852
281.546
281.465
281.22
281.276
281.014
283.226
282.927
282.519
282.069
281.758
281.414
281.294
281.028
281.048
280.808
283.225
282.927
282.518
282.07
281.756
281.417
281.29
281.033
281.04
280.818
283.226
282.941
282.547
282.135
281.846
281.555
281.452
281.238
281.25
281.046
283.221
282.945
282.589
282.264
282.045
281.853
281.8
281.656
281.678
281.48
283.225
282.995
282.743
282.566
282.471
282.419
282.422
282.361
282.361
282.171
283.211
283.048
282.955
282.979
283.041
283.115
283.144
283.133
283.083
282.869
283.232
283.234
283.397
283.625
283.786
283.881
283.881
283.875
283.77
283.533
283.523
283.388
283.722
283.978
284.178
284.29
284.345
284.288
284.155
283.407
283.222
282.629
282.662
282.807
282.958
283.062
283.142
283.097
283.039
282.308
283.205
282.314
282.046
282.002
282.05
282.092
282.174
282.115
282.155
281.463
283.107
282.03
281.507
281.28
281.216
281.177
281.239
281.147
281.271
280.616
283.121
281.975
281.303
280.937
280.786
280.676
280.71
280.581
280.751
280.145
283.097
281.916
281.189
280.764
280.57
280.424
280.437
280.29
280.47
279.894
283.097
281.916
281.189
280.765
280.569
280.426
280.434
280.295
280.462
279.906
283.12
281.976
281.301
280.939
280.782
280.681
280.701
280.596
280.727
280.181
283.106
282.032
281.506
281.283
281.211
281.186
281.225
281.171
281.23
280.679
283.204
282.315
282.044
282.006
282.044
282.103
282.155
282.146
282.099
281.558
283.221
282.63
282.66
282.811
282.952
283.073
283.122
283.132
282.972
282.433
283.523
283.389
283.72
283.981
284.173
284.3
284.326
284.323
284.082
283.559
284.088
283.755
284.405
284.677
284.904
285.033
285.088
285.038
284.725
283.922
282.914
282.01
282.433
282.675
282.879
283.006
283.075
283.042
282.785
281.97
282.878
281.387
281.576
281.719
281.875
281.978
282.053
282.023
281.84
281.02
282.474
280.757
280.589
280.607
280.695
280.762
280.839
280.806
280.755
279.939
282.522
280.619
280.219
280.12
280.149
280.178
280.249
280.205
280.241
279.447
282.426
280.499
280.011
279.853
279.847
279.856
279.919
279.869
279.937
279.162
282.426
280.499
280.011
279.854
279.847
279.857
279.917
279.872
279.93
279.174
282.521
280.62
280.218
280.122
280.147
280.182
280.243
280.216
280.221
279.481
282.473
280.758
280.588
280.609
280.692
280.767
280.829
280.823
280.724
279.995
282.878
281.388
281.575
281.721
281.871
281.985
282.041
282.044
281.799
281.096
282.914
282.011
282.432
282.678
282.875
283.013
283.063
283.065
282.739
282.058
284.088
283.756
284.404
284.679
284.901
285.04
285.075
285.062
284.677
284.021
285.301
284.999
286.034
286.292
286.542
286.674
286.723
286.665
286.238
285.433
282.189
281.442
282.234
282.491
282.718
282.848
282.907
282.865
282.502
281.689
282.542
280.744
281.608
281.794
282.007
282.122
282.179
282.133
281.752
280.93
281.493
279.722
280.065
280.188
280.342
280.438
280.508
280.481
280.281
279.447
281.772
279.598
279.69
279.731
279.839
279.913
279.983
279.956
279.848
279.02
281.513
279.408
279.399
279.392
279.473
279.532
279.598
279.571
279.497
278.682
281.513
279.408
279.399
279.393
279.472
279.533
279.597
279.574
279.491
278.693
281.772
279.598
279.689
279.732
279.838
279.915
279.978
279.966
279.83
279.054
281.493
279.723
280.064
280.19
280.34
280.442
280.5
280.495
280.253
279.5
282.542
280.744
281.607
281.795
282.004
282.127
282.169
282.151
281.717
280.997
282.189
281.442
282.234
282.492
282.715
282.853
282.896
282.884
282.464
281.763
285.301
284.999
286.033
286.294
286.539
286.679
286.713
286.684
286.198
285.512
276.816
278.782
279.007
279.322
279.517
279.654
279.733
279.725
279.612
278.816
278.436
279.33
279.899
280.17
280.379
280.511
280.583
280.564
280.359
279.545
278.358
279.487
279.681
279.927
280.099
280.225
280.315
280.319
280.28
279.444
279.099
278.94
279.396
279.555
279.714
279.82
279.896
279.883
279.751
278.912
279.079
278.939
279.363
279.457
279.588
279.675
279.747
279.73
279.621
278.787
279.331
278.789
279.137
279.194
279.302
279.379
279.448
279.429
279.338
278.515
279.331
278.789
279.136
279.194
279.302
279.38
279.446
279.432
279.332
278.526
279.079
278.939
279.362
279.458
279.586
279.678
279.743
279.739
279.603
278.82
279.099
278.941
279.395
279.556
279.712
279.824
279.889
279.896
279.724
278.965
278.358
279.487
279.68
279.929
280.096
280.229
280.306
280.335
280.247
279.514
278.435
279.331
279.898
280.172
280.376
280.516
280.574
280.582
280.322
279.62
276.816
278.782
279.006
279.323
279.514
279.659
279.724
279.743
279.576
278.888
281.061
282.217
283.379
284.351
284.897
285.061
285.046
284.981
284.926
284.881
284.845
284.811
284.778
284.744
284.711
284.678
284.645
284.612
284.579
284.546
284.513
284.48
284.447
284.414
284.381
284.348
284.315
284.282
284.248
284.215
284.182
284.15
284.113
284.089
284.034
284.036
283.965
283.939
283.948
283.901
281.538
282.674
283.825
284.801
285.355
285.524
285.511
285.446
285.39
285.346
285.309
285.275
285.242
285.208
285.175
285.142
285.109
285.076
285.043
285.01
284.976
284.943
284.91
284.877
284.844
284.811
284.777
284.744
284.711
284.678
284.644
284.612
284.575
284.551
284.496
284.498
284.428
284.4
284.41
284.363
281.394
282.524
283.667
284.65
285.215
285.393
285.383
285.319
285.263
285.218
285.181
285.147
285.114
285.08
285.047
285.014
284.981
284.948
284.915
284.881
284.848
284.815
284.781
284.748
284.715
284.682
284.649
284.616
284.582
284.549
284.515
284.483
284.446
284.422
284.367
284.368
284.299
284.27
284.28
284.233
280.911
282.032
283.166
284.155
284.731
284.918
284.912
284.849
284.792
284.747
284.71
284.676
284.642
284.609
284.576
284.543
284.51
284.477
284.443
284.41
284.377
284.344
284.31
284.277
284.244
284.211
284.178
284.145
284.111
284.078
284.044
284.012
283.975
283.951
283.896
283.897
283.829
283.799
283.809
283.762
280.585
281.69
282.816
283.809
284.395
284.589
284.586
284.523
284.466
284.421
284.384
284.349
284.316
284.283
284.25
284.216
284.183
284.15
284.117
284.084
284.05
284.017
283.984
283.95
283.917
283.884
283.851
283.818
283.784
283.751
283.717
283.685
283.648
283.624
283.569
283.57
283.502
283.471
283.481
283.435
280.373
281.452
282.57
283.565
284.156
284.354
284.352
284.29
284.233
284.187
284.15
284.115
284.082
284.049
284.015
283.982
283.949
283.916
283.883
283.849
283.816
283.783
283.749
283.716
283.683
283.649
283.616
283.583
283.55
283.516
283.483
283.45
283.413
283.389
283.334
283.334
283.268
283.235
283.246
283.2
280.301
281.342
282.454
283.447
284.038
284.235
284.234
284.172
284.114
284.069
284.031
283.997
283.963
283.93
283.897
283.863
283.83
283.797
283.764
283.73
283.697
283.663
283.63
283.596
283.563
283.53
283.497
283.463
283.43
283.397
283.363
283.33
283.293
283.269
283.213
283.214
283.147
283.115
283.125
283.079
280.367
281.362
282.467
283.456
284.041
284.235
284.231
284.168
284.111
284.066
284.029
283.994
283.96
283.927
283.893
283.86
283.827
283.793
283.76
283.726
283.693
283.659
283.626
283.592
283.559
283.526
283.492
283.459
283.425
283.392
283.358
283.326
283.288
283.264
283.208
283.209
283.142
283.11
283.12
283.074
280.536
281.484
282.587
283.569
284.145
284.33
284.324
284.26
284.204
284.158
284.121
284.086
284.052
284.019
283.985
283.952
283.918
283.885
283.851
283.818
283.784
283.75
283.717
283.683
283.65
283.616
283.583
283.549
283.516
283.482
283.448
283.415
283.378
283.354
283.298
283.299
283.231
283.2
283.21
283.163
280.849
281.757
282.861
283.835
284.399
284.575
284.565
284.501
284.444
284.399
284.361
284.326
284.293
284.259
284.226
284.192
284.158
284.125
284.091
284.057
284.024
283.99
283.956
283.922
283.889
283.855
283.821
283.788
283.754
283.72
283.686
283.653
283.616
283.591
283.536
283.537
283.467
283.438
283.447
283.4
280.816
281.7
282.807
283.774
284.326
284.494
284.48
284.415
284.359
284.313
284.276
284.241
284.207
284.174
284.14
284.106
284.073
284.039
284.005
283.971
283.938
283.904
283.87
283.836
283.802
283.769
283.735
283.701
283.667
283.634
283.599
283.566
283.528
283.504
283.448
283.449
283.379
283.351
283.36
283.313
280.187
281.081
282.197
283.159
283.703
283.866
283.85
283.785
283.728
283.683
283.646
283.611
283.578
283.544
283.51
283.476
283.443
283.409
283.375
283.341
283.308
283.274
283.24
283.206
283.172
283.139
283.105
283.071
283.037
283.004
282.969
282.936
282.899
282.874
282.818
282.819
282.748
282.721
282.73
282.682
285.242
286.381
287.554
288.544
289.1
289.267
289.25
289.184
289.127
289.082
289.045
289.01
288.976
288.942
288.908
288.875
288.841
288.807
288.774
288.74
288.706
288.672
288.638
288.604
288.57
288.537
288.503
288.469
288.435
288.402
288.367
288.334
288.297
288.272
288.216
288.218
288.146
288.119
288.129
288.08
282.663
283.791
284.948
285.929
286.485
286.655
286.64
286.576
286.52
286.475
286.438
286.403
286.37
286.337
286.303
286.27
286.237
286.203
286.17
286.137
286.103
286.07
286.036
286.003
285.97
285.936
285.903
285.87
285.836
285.803
285.769
285.737
285.699
285.675
285.62
285.622
285.551
285.524
285.533
285.486
281.741
282.865
284.013
284.999
285.564
285.743
285.732
285.669
285.612
285.567
285.53
285.496
285.462
285.429
285.396
285.363
285.33
285.296
285.263
285.23
285.197
285.163
285.13
285.096
285.063
285.03
284.997
284.964
284.93
284.897
284.863
284.831
284.794
284.77
284.715
284.716
284.647
284.618
284.627
284.58
281.051
282.17
283.309
284.3
284.878
285.065
285.059
284.996
284.939
284.894
284.857
284.823
284.789
284.756
284.723
284.69
284.657
284.623
284.59
284.557
284.524
284.49
284.457
284.424
284.39
284.357
284.324
284.291
284.258
284.225
284.191
284.158
284.121
284.097
284.042
284.043
283.975
283.945
283.954
283.908
280.651
281.755
282.886
283.882
284.47
284.665
284.662
284.6
284.543
284.497
284.46
284.426
284.392
284.359
284.326
284.293
284.26
284.226
284.193
284.16
284.127
284.093
284.06
284.026
283.993
283.96
283.927
283.894
283.861
283.827
283.793
283.761
283.724
283.7
283.645
283.646
283.578
283.547
283.557
283.51
280.412
281.491
282.614
283.612
284.205
284.405
284.404
284.342
284.285
284.239
284.202
284.167
284.134
284.1
284.067
284.034
284.001
283.968
283.934
283.901
283.868
283.834
283.801
283.768
283.734
283.701
283.668
283.635
283.601
283.568
283.534
283.502
283.464
283.441
283.385
283.386
283.319
283.287
283.297
283.25
280.339
281.379
282.494
283.49
284.084
284.283
284.282
284.22
284.163
284.117
284.08
284.045
284.012
283.978
283.945
283.912
283.878
283.845
283.812
283.778
283.745
283.711
283.678
283.644
283.611
283.578
283.545
283.511
283.478
283.445
283.411
283.378
283.34
283.317
283.261
283.262
283.195
283.162
283.173
283.126
280.427
281.417
282.526
283.518
284.105
284.3
284.297
284.234
284.177
284.131
284.094
284.059
284.025
283.992
283.959
283.925
283.892
283.858
283.825
283.792
283.758
283.724
283.691
283.657
283.624
283.591
283.557
283.524
283.49
283.457
283.423
283.39
283.353
283.329
283.273
283.274
283.206
283.174
283.184
283.138
280.663
281.604
282.71
283.694
284.271
284.457
284.451
284.387
284.33
284.285
284.247
284.212
284.179
284.145
284.112
284.078
284.045
284.011
283.978
283.944
283.91
283.877
283.843
283.809
283.776
283.742
283.709
283.675
283.642
283.608
283.574
283.541
283.503
283.48
283.424
283.425
283.356
283.325
283.335
283.288
281.174
282.069
283.177
284.154
284.718
284.894
284.884
284.819
284.763
284.717
284.68
284.645
284.611
284.577
284.544
284.51
284.476
284.443
284.409
284.375
284.341
284.307
284.274
284.24
284.206
284.172
284.139
284.105
284.071
284.037
284.003
283.97
283.932
283.908
283.852
283.853
283.783
283.754
283.764
283.716
281.902
282.772
283.883
284.855
285.409
285.577
285.562
285.497
285.44
285.395
285.357
285.322
285.288
285.254
285.22
285.186
285.152
285.119
285.085
285.051
285.017
284.982
284.948
284.914
284.88
284.846
284.813
284.779
284.745
284.711
284.676
284.643
284.605
284.58
284.524
284.525
284.454
284.426
284.435
284.387
284.291
285.156
286.281
287.261
287.815
287.98
287.963
287.896
287.838
287.792
287.755
287.719
287.684
287.65
287.615
287.581
287.546
287.512
287.477
287.443
287.408
287.373
287.339
287.304
287.27
287.235
287.201
287.166
287.132
287.097
287.062
287.028
286.99
286.965
286.908
286.909
286.836
286.809
286.818
286.768
284.265
285.412
286.589
287.572
288.119
288.282
288.264
288.199
288.142
288.098
288.061
288.026
287.993
287.959
287.926
287.892
287.859
287.825
287.792
287.759
287.725
287.691
287.658
287.624
287.591
287.557
287.524
287.491
287.457
287.424
287.39
287.357
287.32
287.295
287.24
287.242
287.17
287.144
287.153
287.104
282.809
283.947
285.115
286.098
286.654
286.823
286.809
286.744
286.688
286.643
286.606
286.572
286.538
286.505
286.472
286.438
286.405
286.372
286.338
286.305
286.272
286.238
286.205
286.171
286.138
286.105
286.072
286.038
286.005
285.971
285.938
285.905
285.868
285.844
285.788
285.79
285.72
285.693
285.702
285.653
281.876
283.007
284.168
285.158
285.726
285.907
285.897
285.833
285.776
285.731
285.694
285.66
285.626
285.593
285.56
285.527
285.493
285.46
285.427
285.394
285.36
285.327
285.293
285.26
285.227
285.194
285.16
285.127
285.094
285.061
285.027
284.994
284.957
284.933
284.878
284.879
284.809
284.78
284.789
284.741
281.184
282.309
283.462
284.459
285.042
285.233
285.228
285.165
285.108
285.063
285.026
284.991
284.958
284.925
284.892
284.858
284.825
284.792
284.759
284.725
284.692
284.659
284.625
284.592
284.559
284.525
284.492
284.459
284.426
284.393
284.359
284.326
284.289
284.265
284.21
284.211
284.143
284.112
284.121
284.074
280.74
281.85
282.994
283.997
284.592
284.792
284.791
284.729
284.672
284.626
284.589
284.554
284.521
284.487
284.454
284.421
284.388
284.355
284.321
284.288
284.255
284.221
284.188
284.154
284.121
284.088
284.055
284.022
283.988
283.955
283.921
283.889
283.851
283.828
283.772
283.773
283.706
283.673
283.683
283.636
280.49
281.571
282.707
283.713
284.314
284.519
284.519
284.458
284.4
284.354
284.317
284.282
284.249
284.215
284.182
284.149
284.116
284.082
284.049
284.016
283.982
283.949
283.915
283.882
283.849
283.816
283.782
283.749
283.716
283.682
283.648
283.616
283.578
283.555
283.499
283.5
283.434
283.4
283.41
283.363
280.419
281.459
282.587
283.59
284.191
284.396
284.397
284.335
284.277
284.231
284.194
284.159
284.126
284.092
284.059
284.026
283.992
283.959
283.926
283.892
283.859
283.825
283.792
283.758
283.725
283.691
283.658
283.625
283.591
283.558
283.524
283.492
283.454
283.43
283.374
283.375
283.309
283.275
283.285
283.237
280.523
281.511
282.632
283.63
284.224
284.424
284.422
284.36
284.302
284.256
284.219
284.184
284.151
284.117
284.084
284.05
284.017
283.983
283.95
283.916
283.883
283.849
283.816
283.782
283.749
283.715
283.682
283.648
283.615
283.581
283.547
283.515
283.477
283.453
283.397
283.398
283.331
283.298
283.307
283.26
280.805
281.739
282.856
283.846
284.428
284.618
284.612
284.549
284.492
284.446
284.409
284.374
284.34
284.306
284.273
284.239
284.206
284.172
284.138
284.105
284.071
284.037
284.004
283.97
283.936
283.903
283.869
283.836
283.802
283.768
283.734
283.702
283.664
283.64
283.584
283.585
283.516
283.485
283.494
283.446
281.31
282.198
283.314
284.295
284.862
285.041
285.03
284.966
284.909
284.863
284.826
284.791
284.757
284.723
284.69
284.656
284.622
284.588
284.555
284.521
284.487
284.453
284.419
284.385
284.352
284.318
284.284
284.25
284.217
284.183
284.148
284.116
284.078
284.053
283.997
283.998
283.928
283.899
283.908
283.859
282.029
282.892
284.012
284.986
285.539
285.707
285.692
285.626
285.57
285.524
285.487
285.452
285.417
285.383
285.35
285.316
285.282
285.248
285.214
285.18
285.146
285.112
285.077
285.043
285.009
284.976
284.942
284.908
284.874
284.84
284.805
284.772
284.734
284.709
284.653
284.654
284.583
284.555
284.564
284.514
283.217
284.072
285.2
286.171
286.716
286.877
286.859
286.792
286.735
286.69
286.652
286.617
286.582
286.548
286.514
286.48
286.445
286.411
286.377
286.343
286.308
286.274
286.239
286.205
286.171
286.137
286.102
286.068
286.034
285.999
285.965
285.931
285.893
285.868
285.811
285.813
285.74
285.713
285.722
285.672
283.908
285.069
286.259
287.235
287.773
287.931
287.91
287.845
287.789
287.745
287.708
287.674
287.641
287.608
287.574
287.541
287.508
287.475
287.442
287.408
287.375
287.342
287.308
287.275
287.242
287.209
287.176
287.143
287.109
287.076
287.042
287.01
286.973
286.949
286.893
286.896
286.824
286.799
286.807
286.756
282.813
283.956
285.14
286.126
286.679
286.849
286.833
286.769
286.712
286.668
286.631
286.596
286.563
286.53
286.497
286.463
286.43
286.397
286.364
286.33
286.297
286.263
286.23
286.197
286.163
286.13
286.097
286.064
286.03
285.997
285.963
285.931
285.894
285.87
285.814
285.816
285.745
285.718
285.727
285.677
281.939
283.062
284.242
285.239
285.812
285.996
285.986
285.923
285.866
285.821
285.784
285.75
285.716
285.683
285.65
285.616
285.583
285.55
285.517
285.483
285.45
285.417
285.383
285.35
285.316
285.283
285.25
285.217
285.184
285.15
285.116
285.084
285.046
285.023
284.967
284.969
284.9
284.87
284.879
284.829
281.259
282.367
283.539
284.546
285.139
285.337
285.334
285.272
285.214
285.169
285.131
285.097
285.063
285.03
284.997
284.964
284.93
284.897
284.864
284.83
284.797
284.764
284.73
284.697
284.664
284.63
284.597
284.564
284.531
284.497
284.463
284.431
284.393
284.37
284.314
284.316
284.248
284.216
284.225
284.176
280.804
281.888
283.051
284.067
284.674
284.883
284.885
284.824
284.766
284.72
284.683
284.648
284.614
284.581
284.548
284.515
284.481
284.448
284.415
284.381
284.348
284.315
284.281
284.248
284.215
284.181
284.148
284.115
284.081
284.048
284.014
283.982
283.944
283.921
283.865
283.866
283.8
283.765
283.774
283.726
280.549
281.598
282.752
283.771
284.386
284.601
284.606
284.545
284.487
284.441
284.403
284.368
284.335
284.301
284.268
284.235
284.201
284.168
284.135
284.101
284.068
284.034
284.001
283.967
283.934
283.901
283.868
283.834
283.801
283.767
283.733
283.701
283.663
283.64
283.584
283.585
283.519
283.484
283.493
283.445
280.484
281.487
282.631
283.648
284.263
284.478
284.482
284.421
284.363
284.317
284.279
284.244
284.211
284.177
284.144
284.11
284.077
284.044
284.01
283.977
283.943
283.91
283.876
283.843
283.809
283.776
283.743
283.709
283.676
283.642
283.608
283.576
283.538
283.515
283.458
283.459
283.393
283.358
283.367
283.319
280.603
281.55
282.686
283.696
284.302
284.511
284.513
284.451
284.393
284.347
284.309
284.274
284.24
284.207
284.173
284.14
284.107
284.073
284.04
284.006
283.972
283.939
283.905
283.871
283.838
283.804
283.771
283.738
283.704
283.67
283.636
283.604
283.566
283.542
283.486
283.487
283.42
283.386
283.395
283.346
280.899
281.792
282.922
283.921
284.512
284.709
284.706
284.643
284.586
284.54
284.502
284.467
284.433
284.4
284.366
284.332
284.299
284.265
284.232
284.198
284.164
284.13
284.097
284.063
284.029
283.996
283.962
283.928
283.895
283.861
283.827
283.794
283.756
283.732
283.676
283.677
283.609
283.576
283.585
283.536
281.38
282.227
283.355
284.342
284.913
285.096
285.086
285.022
284.965
284.919
284.881
284.846
284.813
284.779
284.745
284.711
284.677
284.644
284.61
284.576
284.542
284.508
284.474
284.44
284.407
284.373
284.339
284.305
284.271
284.238
284.203
284.17
284.132
284.108
284.052
284.053
283.983
283.953
283.961
283.911
281.988
282.817
283.947
284.921
285.473
285.64
285.624
285.559
285.502
285.456
285.419
285.384
285.35
285.316
285.282
285.248
285.214
285.18
285.146
285.112
285.078
285.044
285.01
284.976
284.942
284.908
284.874
284.84
284.806
284.772
284.737
284.704
284.666
284.642
284.585
284.587
284.515
284.487
284.495
284.444
282.664
283.494
284.63
285.593
286.129
286.284
286.263
286.196
286.14
286.095
286.057
286.022
285.988
285.954
285.92
285.885
285.851
285.817
285.783
285.749
285.715
285.68
285.646
285.612
285.578
285.544
285.509
285.475
285.441
285.407
285.372
285.339
285.301
285.276
285.219
285.221
285.148
285.122
285.129
285.077
283.892
285.066
286.272
287.243
287.771
287.922
287.899
287.833
287.778
287.734
287.698
287.664
287.631
287.598
287.565
287.532
287.499
287.466
287.433
287.4
287.367
287.334
287.3
287.267
287.234
287.202
287.169
287.136
287.103
287.07
287.036
287.004
286.967
286.943
286.888
286.891
286.818
286.794
286.802
286.749
282.818
283.953
285.156
286.143
286.696
286.864
286.848
286.784
286.727
286.683
286.646
286.612
286.578
286.545
286.512
286.479
286.446
286.412
286.379
286.346
286.313
286.279
286.246
286.213
286.179
286.146
286.113
286.08
286.047
286.014
285.98
285.947
285.91
285.886
285.831
285.833
285.762
285.735
285.743
285.691
281.981
283.071
284.27
285.275
285.854
286.042
286.034
285.971
285.914
285.869
285.832
285.797
285.764
285.73
285.697
285.664
285.631
285.598
285.564
285.531
285.498
285.464
285.431
285.397
285.364
285.331
285.298
285.265
285.231
285.198
285.164
285.132
285.094
285.071
285.015
285.017
284.948
284.917
284.926
284.875
281.318
282.371
283.563
284.584
285.187
285.394
285.394
285.332
285.274
285.228
285.191
285.156
285.123
285.089
285.056
285.023
284.99
284.956
284.923
284.89
284.856
284.823
284.789
284.756
284.723
284.69
284.656
284.623
284.59
284.556
284.522
284.49
284.452
284.429
284.373
284.375
284.307
284.274
284.282
284.232
280.864
281.876
283.059
284.089
284.712
284.932
284.938
284.878
284.82
284.773
284.736
284.701
284.667
284.634
284.601
284.567
284.534
284.501
284.467
284.434
284.401
284.367
284.334
284.3
284.267
284.234
284.2
284.167
284.134
284.1
284.066
284.034
283.996
283.973
283.917
283.918
283.852
283.817
283.825
283.776
280.611
281.577
282.749
283.783
284.416
284.643
284.653
284.593
284.535
284.488
284.45
284.415
284.382
284.348
284.315
284.281
284.248
284.215
284.181
284.148
284.115
284.081
284.047
284.014
283.981
283.947
283.914
283.881
283.847
283.814
283.78
283.748
283.709
283.687
283.63
283.631
283.566
283.529
283.538
283.488
280.553
281.467
282.627
283.659
284.291
284.518
284.528
284.468
284.409
284.362
284.324
284.289
284.256
284.222
284.189
284.155
284.122
284.089
284.055
284.022
283.988
283.955
283.921
283.887
283.854
283.821
283.787
283.754
283.72
283.687
283.653
283.62
283.582
283.559
283.502
283.503
283.438
283.401
283.41
283.361
280.681
281.54
282.688
283.712
284.333
284.553
284.559
284.498
284.44
284.393
284.355
284.32
284.287
284.253
284.219
284.186
284.152
284.119
284.085
284.052
284.018
283.984
283.951
283.917
283.884
283.85
283.817
283.783
283.75
283.716
283.682
283.649
283.611
283.588
283.531
283.532
283.466
283.43
283.439
283.389
280.982
281.79
282.932
283.942
284.544
284.749
284.749
284.686
284.628
284.582
284.544
284.509
284.475
284.442
284.408
284.375
284.341
284.307
284.274
284.24
284.206
284.172
284.138
284.105
284.071
284.037
284.004
283.97
283.936
283.903
283.868
283.836
283.797
283.774
283.717
283.718
283.651
283.617
283.625
283.575
281.434
282.205
283.344
284.337
284.915
285.101
285.092
285.029
284.971
284.925
284.888
284.852
284.819
284.785
284.751
284.717
284.683
284.65
284.616
284.582
284.548
284.514
284.48
284.446
284.412
284.379
284.345
284.311
284.277
284.243
284.209
284.176
284.138
284.114
284.057
284.059
283.989
283.958
283.966
283.914
281.948
282.717
283.857
284.832
285.382
285.548
285.532
285.466
285.409
285.364
285.327
285.292
285.258
285.224
285.19
285.156
285.122
285.088
285.054
285.02
284.986
284.952
284.918
284.884
284.85
284.816
284.782
284.748
284.714
284.68
284.645
284.612
284.574
284.549
284.493
284.495
284.423
284.395
284.402
284.35
282.4
283.189
284.335
285.292
285.817
285.965
285.942
285.875
285.818
285.774
285.737
285.701
285.667
285.633
285.599
285.565
285.531
285.497
285.463
285.429
285.394
285.36
285.326
285.292
285.258
285.224
285.189
285.155
285.121
285.087
285.052
285.019
284.981
284.956
284.9
284.902
284.827
284.803
284.81
284.756
283.892
285.066
286.272
287.243
287.771
287.922
287.899
287.833
287.778
287.734
287.698
287.664
287.631
287.598
287.565
287.532
287.499
287.466
287.433
287.4
287.367
287.334
287.3
287.267
287.234
287.202
287.169
287.136
287.103
287.07
287.036
287.004
286.967
286.943
286.888
286.891
286.818
286.794
286.802
286.749
282.818
283.953
285.156
286.143
286.696
286.864
286.848
286.784
286.727
286.683
286.646
286.612
286.578
286.545
286.512
286.479
286.446
286.412
286.379
286.346
286.313
286.279
286.246
286.213
286.179
286.146
286.113
286.08
286.047
286.014
285.98
285.947
285.91
285.886
285.831
285.833
285.762
285.735
285.743
285.691
281.981
283.071
284.27
285.275
285.854
286.042
286.034
285.971
285.914
285.869
285.832
285.797
285.764
285.73
285.697
285.664
285.631
285.598
285.564
285.531
285.498
285.464
285.431
285.397
285.364
285.331
285.298
285.265
285.231
285.198
285.164
285.132
285.094
285.071
285.015
285.017