/*--------------------------------*- C++ -*----------------------------------*\
  =========                 |
  \\      /  F ield         | OpenFOAM: The Open Source CFD Toolbox
   \\    /   O peration     | Website:  https://openfoam.org
    \\  /    A nd           | Version:  7
     \\/     M anipulation  |
\*---------------------------------------------------------------------------*/
FoamFile
{
    version     2.0;
    format      ascii;
    class       surfaceScalarField;
    location    "0.11";
    object      phi;
}
// * * * * * * * * * * * * * * * * * * * * * * * * * * * * * * * * * * * * * //

dimensions      [1 0 -1 0 0 0 0];

internalField   nonuniform List<scalar> 
2058
(
0.00480119
5.80593e-05
0.00465983
0.000141372
0.00444282
0.000217036
0.00418046
0.00026238
0.00389589
0.00028459
0.00360887
0.000287036
0.0033334
0.000275484
0.00307787
0.000255548
0.002847
0.000230874
0.00264324
0.000203775
0.00246646
0.000176787
0.00231528
0.000151191
0.00218746
0.000127835
0.00208038
0.000107098
0.00199128
8.9117e-05
0.00191748
7.381e-05
0.00185649
6.10066e-05
0.00180607
5.04327e-05
0.00176427
4.1809e-05
0.00172945
3.48393e-05
0.00170021
2.9255e-05
0.00167541
2.48067e-05
0.00165414
2.12817e-05
0.00163566
1.84951e-05
0.00161937
1.62947e-05
0.00160483
1.45551e-05
0.00159167
1.31752e-05
0.0015796
1.20754e-05
0.00156842
1.11908e-05
0.00155796
1.04742e-05
0.00154809
9.88242e-06
0.00153871
9.39272e-06
0.00152976
8.97156e-06
0.00152115
8.61829e-06
0.00151287
8.29681e-06
0.00150486
8.02936e-06
0.0014971
7.76794e-06
0.00148956
7.55313e-06
0.00148223
7.34394e-06
7.1505e-06
0.00147509
0.00487719
3.99548e-05
0.00491765
0.000100933
0.00497311
0.000161593
0.00502725
0.000208267
0.00506869
0.000243169
0.00509153
0.000264217
0.00509432
0.000272708
0.00507904
0.000270838
0.00504894
0.000260982
0.00500757
0.000245156
0.00495842
0.00022594
0.00490451
0.000205106
0.00484818
0.000184162
0.0047912
0.000164088
0.00473476
0.000145559
0.00467967
0.000128909
0.00462642
0.000114276
0.00457525
0.000101619
0.00452626
9.08131e-05
0.00447946
8.16628e-05
0.00443477
7.39606e-05
0.00439211
6.74902e-05
0.00435136
6.20534e-05
0.0043124
5.74689e-05
0.00427513
5.35813e-05
0.00423943
5.0258e-05
0.00420522
4.73891e-05
0.00417241
4.48862e-05
0.00414092
4.26743e-05
0.0041107
4.07002e-05
0.00408167
3.89114e-05
0.00405378
3.72836e-05
0.00402699
3.57745e-05
0.00400123
3.43858e-05
0.00397648
3.30728e-05
0.00395267
3.18607e-05
0.00392976
3.06987e-05
0.00390772
2.96218e-05
0.00388648
2.86011e-05
2.7623e-05
0.00386603
0.00487255
2.6471e-05
0.00490321
7.02831e-05
0.00495103
0.000113797
0.00501166
0.000147659
0.00508076
0.000174093
0.00515381
0.00019118
0.00522656
0.000199979
0.0052958
0.00020161
0.00535923
0.000197561
0.00541538
0.000189016
0.00546369
0.000177627
0.00550423
0.000164575
0.00553745
0.000150939
0.00556407
0.000137469
0.0055849
0.000124728
0.00560077
0.000113048
0.00561244
0.000102609
0.00562062
9.34553e-05
0.00562589
8.55527e-05
0.00562877
7.88028e-05
0.00562967
7.30842e-05
0.00562893
6.82586e-05
0.00562682
6.41922e-05
0.00562355
6.07581e-05
0.00561932
5.78444e-05
0.00561424
5.53535e-05
0.00560845
5.32022e-05
0.00560202
5.1323e-05
0.00559505
4.96574e-05
0.00558758
4.81647e-05
0.00557969
4.68029e-05
0.00557141
4.55537e-05
0.00556279
4.43825e-05
0.00555388
4.32916e-05
0.0055447
4.22459e-05
0.00553529
4.12662e-05
0.00552567
4.03162e-05
0.00551588
3.94195e-05
0.00550594
3.85607e-05
3.77243e-05
0.00549586
0.00486821
1.72469e-05
0.00489224
4.62718e-05
0.00493147
7.45932e-05
0.00498277
9.63774e-05
0.00504354
0.00011334
0.00511043
0.000124311
0.00518028
0.000130151
0.00525043
0.000131473
0.00531879
0.00012921
0.00538371
0.000124098
0.00544422
0.000117123
0.0054998
0.000109
0.00555032
0.000100416
0.00559594
9.18555e-05
0.00563697
8.36968e-05
0.00567385
7.61699e-05
0.00570705
6.94112e-05
0.00573706
6.34641e-05
0.0057643
5.83207e-05
0.0057892
5.39271e-05
0.00581209
5.02114e-05
0.00583329
4.70879e-05
0.00585304
4.44717e-05
0.00587155
4.22805e-05
0.00588898
4.04407e-05
0.00590547
3.88879e-05
0.00592113
3.7566e-05
0.00593604
3.64304e-05
0.00595027
3.54402e-05
0.00596387
3.45684e-05
0.00597688
3.37847e-05
0.00598935
3.30785e-05
0.0060013
3.2424e-05
0.00601275
3.18247e-05
0.00602373
3.12547e-05
0.00603425
3.07284e-05
0.00604434
3.02214e-05
0.006054
2.97476e-05
0.00606327
2.93007e-05
2.88653e-05
0.00607213
0.00486796
8.25946e-06
0.00489187
2.2383e-05
0.00493025
3.62268e-05
0.00497954
4.71142e-05
0.00503714
5.57621e-05
0.00510003
6.14416e-05
0.00516565
6.45401e-05
0.00523182
6.53176e-05
0.00529678
6.4261e-05
0.00535913
6.1752e-05
0.00541796
5.82987e-05
0.00547269
5.42697e-05
0.0055231
5.00125e-05
0.00556918
4.57681e-05
0.00561116
4.17237e-05
0.00564934
3.79919e-05
0.00568412
3.46398e-05
0.0057159
3.16884e-05
0.00574511
2.91338e-05
0.0057721
2.69497e-05
0.00579724
2.5101e-05
0.00582081
2.35459e-05
0.00584306
2.22429e-05
0.00586422
2.11517e-05
0.00588446
2.02355e-05
0.00590391
1.94633e-05
0.00592269
1.88068e-05
0.00594089
1.82448e-05
0.00595859
1.7756e-05
0.00597583
1.73286e-05
0.00599267
1.69451e-05
0.00600913
1.66032e-05
0.00602526
1.62867e-05
0.00604107
1.60019e-05
0.00605657
1.57313e-05
0.0060718
1.54863e-05
0.00608676
1.5252e-05
0.00610146
1.50357e-05
0.00611593
1.4838e-05
1.46437e-05
0.00613016
0.00486721
5.45596e-12
0.00488961
1.1712e-11
0.00492586
2.58724e-11
0.004973
3.48913e-11
0.00502878
5.37339e-11
0.00509024
7.57083e-11
0.0051548
1.05243e-10
0.00522013
1.48524e-10
0.0052844
1.94501e-10
0.00534616
2.65663e-10
0.00540446
3.51516e-10
0.00545873
4.5623e-10
0.00550874
5.86314e-10
0.00555451
7.4649e-10
0.00559623
9.41669e-10
0.00563422
1.18714e-09
0.00566887
1.48131e-09
0.00570057
1.85797e-09
0.00572972
2.29842e-09
0.00575668
2.87937e-09
0.0057818
3.53401e-09
0.00580537
4.43787e-09
0.00582764
5.39908e-09
0.00584881
6.81507e-09
0.00586907
8.20314e-09
0.00588855
1.04333e-08
0.00590737
1.23967e-08
0.00592561
1.59099e-08
0.00594336
1.86467e-08
0.00596066
2.41268e-08
0.00597758
2.797e-08
0.00599414
3.63001e-08
0.00601037
4.19607e-08
0.0060263
5.4025e-08
0.00604195
6.31185e-08
0.00605734
7.93095e-08
0.00607249
9.5088e-08
0.0060874
1.14702e-07
0.0061021
1.41812e-07
1.6364e-07
0.00611659
0.00486721
-8.25945e-06
0.00488961
-2.2383e-05
0.00492586
-3.62267e-05
0.004973
-4.71141e-05
0.00502878
-5.5762e-05
0.00509024
-6.14415e-05
0.0051548
-6.45399e-05
0.00522013
-6.53173e-05
0.0052844
-6.42607e-05
0.00534616
-6.17515e-05
0.00540446
-5.8298e-05
0.00545873
-5.42688e-05
0.00550874
-5.00113e-05
0.00555451
-4.57667e-05
0.00559623
-4.17219e-05
0.00563422
-3.79896e-05
0.00566887
-3.46369e-05
0.00570057
-3.16848e-05
0.00572972
-2.91293e-05
0.00575668
-2.6944e-05
0.0057818
-2.5094e-05
0.00580537
-2.35372e-05
0.00582764
-2.22322e-05
0.00584882
-2.11382e-05
0.00586907
-2.02193e-05
0.00588855
-1.94427e-05
0.00590737
-1.87822e-05
0.00592561
-1.82133e-05
0.00594336
-1.77191e-05
0.00596067
-1.72808e-05
0.00597758
-1.68897e-05
0.00599414
-1.65312e-05
0.00601037
-1.62037e-05
0.0060263
-1.58946e-05
0.00604196
-1.56064e-05
0.00605735
-1.53287e-05
0.0060725
-1.50636e-05
0.00608741
-1.48077e-05
0.00610211
-1.45559e-05
-1.43181e-05
0.00611661
0.00486796
-1.72469e-05
0.00489187
-4.62717e-05
0.00493025
-7.45931e-05
0.00497954
-9.63773e-05
0.00503714
-0.00011334
0.00510003
-0.000124311
0.00516565
-0.000130151
0.00523182
-0.000131472
0.00529678
-0.000129209
0.00535913
-0.000124097
0.00541796
-0.000117122
0.00547269
-0.000108999
0.0055231
-0.000100415
0.00556918
-9.18541e-05
0.00561116
-8.3695e-05
0.00564934
-7.61677e-05
0.00568412
-6.94084e-05
0.0057159
-6.34606e-05
0.00574511
-5.83163e-05
0.0057721
-5.39216e-05
0.00579724
-5.02046e-05
0.00582081
-4.70795e-05
0.00584307
-4.44613e-05
0.00586423
-4.22675e-05
0.00588446
-4.04249e-05
0.00590391
-3.88679e-05
0.00592269
-3.75423e-05
0.0059409
-3.64e-05
0.00595859
-3.54045e-05
0.00597584
-3.45221e-05
0.00599268
-3.37313e-05
0.00600915
-3.30086e-05
0.00602527
-3.23439e-05
0.00604108
-3.17204e-05
0.0060566
-3.11344e-05
0.00607183
-3.05746e-05
0.00608679
-3.00395e-05
0.0061015
-2.9525e-05
0.00611597
-2.90251e-05
-2.85462e-05
0.00613021
0.00486821
-2.6471e-05
0.00489224
-7.02831e-05
0.00493147
-0.000113797
0.00498277
-0.000147659
0.00504354
-0.000174093
0.00511043
-0.00019118
0.00518028
-0.000199979
0.00525043
-0.00020161
0.00531879
-0.000197561
0.00538371
-0.000189015
0.00544422
-0.000177627
0.0054998
-0.000164574
0.00555032
-0.000150938
0.00559594
-0.000137467
0.00563697
-0.000124727
0.00567385
-0.000113045
0.00570705
-0.000102607
0.00573706
-9.34521e-05
0.0057643
-8.55487e-05
0.0057892
-7.87977e-05
0.0058121
-7.3078e-05
0.00583329
-6.82508e-05
0.00585304
-6.41827e-05
0.00587155
-6.07462e-05
0.00588899
-5.78299e-05
0.00590548
-5.53353e-05
0.00592114
-5.31804e-05
0.00593605
-5.12952e-05
0.00595028
-4.96249e-05
0.00596389
-4.81224e-05
0.00597691
-4.67545e-05
0.00598938
-4.54899e-05
0.00600134
-4.43106e-05
0.0060128
-4.31962e-05
0.00602379
-4.21386e-05
0.00603433
-4.11257e-05
0.00604443
-4.01535e-05
0.00605412
-3.9217e-05
0.0060634
-3.83097e-05
-3.74349e-05
0.0060723
0.00487255
-3.99548e-05
0.00490321
-0.000100933
0.00495103
-0.000161593
0.00501166
-0.000208267
0.00508076
-0.000243169
0.00515381
-0.000264217
0.00522656
-0.000272708
0.0052958
-0.000270837
0.00535923
-0.000260982
0.00541538
-0.000245156
0.00546369
-0.00022594
0.00550423
-0.000205105
0.00553745
-0.000184161
0.00556407
-0.000164087
0.0055849
-0.000145558
0.00560077
-0.000128907
0.00561244
-0.000114274
0.00562062
-0.000101617
0.0056259
-9.08099e-05
0.00562878
-8.16589e-05
0.00562968
-7.39557e-05
0.00562894
-6.74841e-05
0.00562683
-6.2046e-05
0.00562357
-5.74597e-05
0.00561933
-5.35702e-05
0.00561426
-5.02441e-05
0.00560847
-4.73726e-05
0.00560205
-4.4865e-05
0.00559509
-4.265e-05
0.00558763
-4.06682e-05
0.00557975
-3.88757e-05
0.00557149
-3.72352e-05
0.00556289
-3.57223e-05
0.005554
-3.43135e-05
0.00554485
-3.29958e-05
0.00553547
-3.17544e-05
0.0055259
-3.05816e-05
0.00551617
-2.94704e-05
0.00550629
-2.84136e-05
-2.7411e-05
0.00549628
0.00487719
-5.80593e-05
0.00491765
-0.000141372
0.00497311
-0.000217036
0.00502725
-0.00026238
0.00506869
-0.00028459
0.00509153
-0.000287036
0.00509432
-0.000275483
0.00507904
-0.000255548
0.00504894
-0.000230874
0.00500757
-0.000203775
0.00495842
-0.000176787
0.00490451
-0.000151191
0.00484819
-0.000127835
0.0047912
-0.000107098
0.00473476
-8.91163e-05
0.00467968
-7.38091e-05
0.00462642
-6.10055e-05
0.00457525
-5.04314e-05
0.00452627
-4.18074e-05
0.00447947
-3.48373e-05
0.00443479
-2.92525e-05
0.00439213
-2.48037e-05
0.00435138
-2.12781e-05
0.00431242
-1.84905e-05
0.00427515
-1.62893e-05
0.00423947
-1.45482e-05
0.00420526
-1.31672e-05
0.00417246
-1.20651e-05
0.00414099
-1.11791e-05
0.00411078
-1.04586e-05
0.00408177
-9.8656e-06
0.00405391
-9.36901e-06
0.00402714
-8.94754e-06
0.00400142
-8.58239e-06
0.00397671
-8.26231e-06
0.00395295
-7.97584e-06
0.00393011
-7.71599e-06
0.00390814
-7.4771e-06
0.00388701
-7.25411e-06
-7.04656e-06
0.00386666
0.00480119
0.00465983
0.00444282
0.00418046
0.00389589
0.00360887
0.0033334
0.00307787
0.002847
0.00264324
0.00246646
0.00231528
0.00218746
0.00208038
0.00199128
0.00191749
0.00185649
0.00180608
0.00176428
0.00172946
0.00170022
0.00167543
0.00165416
0.00163568
0.0016194
0.00160487
0.00159171
0.00157966
0.00156849
0.00155804
0.00154819
0.00153884
0.0015299
0.00152134
0.00151309
0.00150513
0.00149742
0.00148996
0.00148272
0.00147568
0.00146808
7.01614e-06
0.00146125
6.84171e-06
0.00145455
6.71239e-06
0.00144801
6.54747e-06
0.0014416
6.4242e-06
0.00143536
6.24634e-06
0.00142925
6.12239e-06
0.00142332
5.93927e-06
0.00141755
5.78448e-06
5.62915e-06
0.00141193
0.0038463
2.67586e-05
0.00382725
2.58929e-05
0.00380886
2.51074e-05
0.0037911
2.43041e-05
0.00377395
2.35765e-05
0.00375738
2.28116e-05
0.00374138
2.21233e-05
0.00372593
2.14022e-05
0.00371101
2.07127e-05
2.00587e-05
0.0036966
0.00548568
3.69613e-05
0.00547542
3.61906e-05
0.00546508
3.54769e-05
0.00545468
3.47386e-05
0.00544424
3.40509e-05
0.00543375
3.33234e-05
0.00542325
3.26413e-05
0.00541274
3.19267e-05
0.00540224
3.12209e-05
3.0534e-05
0.00539176
0.00608064
2.84787e-05
0.00608877
2.80803e-05
0.00609656
2.77207e-05
0.006104
2.73355e-05
0.00611111
2.69831e-05
0.00611789
2.65961e-05
0.00612434
2.62341e-05
0.00613046
2.58444e-05
0.00613626
2.54509e-05
2.50631e-05
0.00614175
0.00614417
1.44822e-05
0.00615797
1.43085e-05
0.00617156
1.41622e-05
0.00618495
1.39932e-05
0.00619813
1.38457e-05
0.0062111
1.36699e-05
0.00622388
1.3507e-05
0.00623644
1.33229e-05
0.0062488
1.31295e-05
1.29378e-05
0.00626095
0.00613089
2.03278e-07
0.006145
2.27731e-07
0.00615893
2.68052e-07
0.00617268
2.86493e-07
0.00618626
3.16211e-07
0.00619966
3.20873e-07
0.00621288
3.2849e-07
0.00622593
3.1664e-07
0.0062388
2.91618e-07
2.62757e-07
0.00625151
0.0061309
-1.40757e-05
0.00614501
-1.38524e-05
0.00615894
-1.36233e-05
0.00617269
-1.34167e-05
0.00618626
-1.32074e-05
0.00619965
-1.30222e-05
0.00621287
-1.2842e-05
0.00622591
-1.26816e-05
0.00623878
-1.25381e-05
-1.24032e-05
0.00625147
0.00614422
-2.80731e-05
0.00615802
-2.76224e-05
0.00617161
-2.71745e-05
0.00618498
-2.67501e-05
0.00619815
-2.63304e-05
0.00621111
-2.5935e-05
0.00622387
-2.55503e-05
0.00623641
-2.51866e-05
0.00624875
-2.4842e-05
-2.45106e-05
0.00626089
0.00608083
-3.65805e-05
0.00608899
-3.57577e-05
0.0060968
-3.49512e-05
0.00610426
-3.41749e-05
0.00611139
-3.3414e-05
0.00611818
-3.26823e-05
0.00612464
-3.19697e-05
0.00613078
-3.12836e-05
0.00613659
-3.06235e-05
-2.99849e-05
0.00614209
0.00548618
-2.64516e-05
0.005476
-2.55402e-05
0.00546574
-2.46636e-05
0.00545543
-2.38296e-05
0.00544507
-2.30276e-05
0.00543468
-2.22665e-05
0.00542427
-2.1539e-05
0.00541385
-2.0849e-05
0.00540343
-2.01945e-05
-1.95702e-05
0.00539301
0.00384707
-6.84859e-06
0.0038282
-6.66317e-06
0.00381002
-6.48287e-06
0.0037925
-6.31183e-06
0.00377562
-6.14446e-06
0.00375934
-5.98602e-06
0.00374363
-5.83306e-06
0.00372848
-5.68789e-06
0.00371385
-5.55036e-06
-5.41746e-06
0.00369971
0.00146884
0.00146219
0.00145572
0.00144942
0.00144329
0.00143731
0.00143149
0.00142582
0.00142028
0.00141488
0.00140656
5.38356e-06
0.00140135
5.22086e-06
0.00139634
5.0213e-06
0.0013915
4.853e-06
0.00138683
4.68543e-06
0.0013823
4.54126e-06
0.00137791
4.40443e-06
0.00137364
4.28341e-06
0.00136949
4.16843e-06
0.00136544
4.06246e-06
0.00136149
3.95934e-06
0.00135764
3.86231e-06
0.00135388
3.76817e-06
0.00135021
3.67991e-06
0.00134663
3.59566e-06
0.00134312
3.5181e-06
0.00133969
3.44415e-06
0.00133632
3.37547e-06
0.00133303
3.30635e-06
0.0013298
3.23988e-06
0.00132665
3.16888e-06
0.00132356
3.09796e-06
0.00132055
3.02158e-06
0.00131762
2.94784e-06
0.00131476
2.87441e-06
0.00131197
2.79952e-06
0.00130925
2.73543e-06
0.00130661
2.65597e-06
0.001304
2.61748e-06
0.0013015
2.51669e-06
0.00129899
2.5176e-06
0.00129664
2.36097e-06
0.00129423
2.42668e-06
0.00129206
2.18773e-06
0.00128975
2.31931e-06
0.00128777
1.99741e-06
0.00128569
2.08718e-06
0.00128388
1.82224e-06
0.00128237
1.52851e-06
1.4543e-06
0.00368269
1.93085e-05
0.00366929
1.86406e-05
0.00365637
1.79635e-05
0.00364389
1.73462e-05
0.00363183
1.67522e-05
0.00362018
1.62076e-05
0.0036089
1.56919e-05
0.00359798
1.5214e-05
0.0035874
1.47604e-05
0.00357714
1.43334e-05
0.00356719
1.39247e-05
0.00355754
1.35372e-05
0.00354816
1.31671e-05
0.00353903
1.28183e-05
0.00353015
1.24885e-05
0.00352149
1.21808e-05
0.00351305
1.18909e-05
0.0035048
1.1618e-05
0.00349676
1.13522e-05
0.00348891
1.10949e-05
0.00348124
1.08367e-05
0.00347377
1.05816e-05
0.00346649
1.03227e-05
0.00345938
1.0072e-05
0.00345245
9.82905e-06
0.00344568
9.59229e-06
0.00343905
9.38044e-06
0.00343257
9.15415e-06
0.00342621
8.99648e-06
0.00341998
8.7507e-06
0.00341384
8.67492e-06
0.00340786
8.3471e-06
0.00340189
8.40472e-06
0.00339618
7.90878e-06
0.00339035
8.1536e-06
0.00338496
7.39754e-06
0.00337926
7.80359e-06
0.00337432
6.77303e-06
0.00336881
7.05795e-06
5.68732e-06
0.00538128
2.97814e-05
0.00537082
2.90811e-05
0.0053604
2.83666e-05
0.00535004
2.7698e-05
0.00533973
2.70426e-05
0.00532951
2.64255e-05
0.00531937
2.58278e-05
0.00530933
2.52589e-05
0.0052994
2.47074e-05
0.00528959
2.41765e-05
0.00527989
2.36602e-05
0.00527031
2.31621e-05
0.00526084
2.26811e-05
0.00525149
2.22226e-05
0.00524223
2.17864e-05
0.00523307
2.13761e-05
0.005224
2.09872e-05
0.00521502
2.06176e-05
0.00520611
2.02575e-05
0.00519729
1.99045e-05
0.00518855
1.95485e-05
0.00517991
1.91907e-05
0.00517137
1.88257e-05
0.00516296
1.84616e-05
0.00515466
1.8102e-05
0.0051465
1.77441e-05
0.00513847
1.74154e-05
0.00513057
1.70677e-05
0.0051228
1.68036e-05
0.00511516
1.64383e-05
0.0051076
1.62867e-05
0.00510019
1.58214e-05
0.00509278
1.58692e-05
0.00508559
1.515e-05
0.00507824
1.55387e-05
0.00507133
1.43174e-05
0.00506392
1.52108e-05
0.00505754
1.31456e-05
0.00505007
1.45035e-05
1.12886e-05
0.00614692
2.4626e-05
0.00615178
2.42205e-05
0.00615633
2.37978e-05
0.00616061
2.34054e-05
0.0061646
2.30173e-05
0.00616834
2.26549e-05
0.00617183
2.23031e-05
0.00617509
2.19703e-05
0.00617813
2.16475e-05
0.00618095
2.13384e-05
0.00618357
2.10382e-05
0.006186
2.07504e-05
0.00618823
2.0474e-05
0.00619028
2.02127e-05
0.00619216
1.9966e-05
0.00619386
1.9736e-05
0.0061954
1.95198e-05
0.00619677
1.93155e-05
0.00619797
1.91157e-05
0.00619901
1.89186e-05
0.00619988
1.8717e-05
0.00620059
1.8511e-05
0.00620112
1.82978e-05
0.00620149
1.80813e-05
0.00620169
1.7867e-05
0.00620174
1.7647e-05
0.00620165
1.74523e-05
0.00620143
1.72303e-05
0.00620109
1.70891e-05
0.00620065
1.68388e-05
0.00620011
1.67997e-05
0.00619948
1.64416e-05
0.00619876
1.65961e-05
0.00619797
1.59693e-05
0.00619708
1.64824e-05
0.00619616
1.52951e-05
0.00619505
1.64116e-05
0.00619406
1.42137e-05
0.00619265
1.60142e-05
1.24626e-05
0.00627288
1.27099e-05
0.00628461
1.25001e-05
0.00629612
1.22736e-05
0.00630744
1.20674e-05
0.00631856
1.1862e-05
0.0063295
1.16758e-05
0.00634027
1.14977e-05
0.00635086
1.13352e-05
0.00636129
1.11813e-05
0.00637156
1.10391e-05
0.00638168
1.09044e-05
0.00639165
1.07791e-05
0.00640148
1.06615e-05
0.00641117
1.05533e-05
0.00642074
1.04535e-05
0.00643018
1.03627e-05
0.00643949
1.02791e-05
0.00644869
1.02013e-05
0.00645776
1.01253e-05
0.00646671
1.00503e-05
0.00647552
9.97297e-06
0.00648419
9.89297e-06
0.00649272
9.80837e-06
0.00650109
9.72148e-06
0.00650931
9.63653e-06
0.00651738
9.5474e-06
0.0065253
9.47299e-06
0.00653308
9.38165e-06
0.00654075
9.33731e-06
0.00654828
9.22954e-06
0.00655577
9.24315e-06
0.00656307
9.07438e-06
0.00657044
9.19514e-06
0.00657751
8.87291e-06
0.00658481
9.19262e-06
0.00659158
8.55075e-06
0.00659885
9.20853e-06
0.00660516
7.98968e-06
0.00661226
9.02421e-06
7.04113e-06
0.00626402
2.04691e-07
0.00627637
1.54861e-07
0.00628854
8.83441e-08
0.00630055
3.30376e-08
0.0063124
-2.5646e-08
0.00632411
-7.24908e-08
0.00633568
-1.15254e-07
0.00634712
-1.46956e-07
0.00635843
-1.72223e-07
0.00636963
-1.88152e-07
0.00638072
-1.97893e-07
0.0063917
-2.00731e-07
0.00640258
-1.98999e-07
0.00641337
-1.92612e-07
0.00642406
-1.83364e-07
0.00643467
-1.7189e-07
0.00644519
-1.58941e-07
0.00645562
-1.45222e-07
0.00646597
-1.31421e-07
0.00647622
-1.17649e-07
0.00648637
-1.04062e-07
0.00649641
-9.12322e-08
0.00650633
-7.95774e-08
0.00651613
-6.84714e-08
0.00652581
-5.81585e-08
0.00653536
-4.90106e-08
0.00654481
-4.10398e-08
0.00655414
-3.40006e-08
0.00656342
-2.74223e-08
0.00657258
-2.19712e-08
0.00658176
-1.68631e-08
0.00659078
-1.26636e-08
0.00659994
-9.31812e-09
0.00660879
-6.7161e-09
0.006618
-3.85262e-09
0.00662658
-2.24309e-09
0.00663587
-1.30593e-11
0.00664395
1.44411e-09
0.0066531
3.22331e-09
4.75501e-09
0.00626398
-1.22946e-05
0.00627632
-1.21861e-05
0.00628849
-1.20957e-05
0.0063005
-1.20022e-05
0.00631236
-1.19162e-05
0.00632407
-1.1825e-05
0.00633564
-1.17332e-05
0.00634709
-1.16344e-05
0.00635841
-1.15311e-05
0.00636961
-1.14204e-05
0.0063807
-1.13047e-05
0.00639169
-1.11845e-05
0.00640257
-1.10628e-05
0.00641336
-1.09413e-05
0.00642406
-1.08224e-05
0.00643467
-1.07081e-05
0.00644519
-1.0598e-05
0.00645562
-1.04924e-05
0.00646597
-1.03886e-05
0.00647622
-1.02859e-05
0.00648637
-1.01812e-05
0.00649641
-1.00754e-05
0.00650633
-9.96739e-06
0.00651613
-9.8582e-06
0.00652581
-9.75253e-06
0.00653536
-9.64511e-06
0.00654481
-9.55478e-06
0.00655414
-9.44937e-06
0.00656342
-9.39194e-06
0.00657258
-9.27325e-06
0.00658176
-9.27663e-06
0.00659077
-9.09953e-06
0.00659994
-9.21366e-06
0.00660879
-8.88625e-06
0.006618
-9.20017e-06
0.00662658
-8.55515e-06
0.00663586
-9.20841e-06
0.00664395
-7.98675e-06
0.0066531
-9.01766e-06
-7.03147e-06
0.00627281
-2.42046e-05
0.00628454
-2.39058e-05
0.00629606
-2.36268e-05
0.00630739
-2.33511e-05
0.00631852
-2.30857e-05
0.00632948
-2.28193e-05
0.00634026
-2.25541e-05
0.00635087
-2.22841e-05
0.00636131
-2.20103e-05
0.0063716
-2.17307e-05
0.00638172
-2.14474e-05
0.0063917
-2.11626e-05
0.00640153
-2.088e-05
0.00641123
-2.06033e-05
0.00642079
-2.03357e-05
0.00643023
-2.00808e-05
0.00643954
-1.98371e-05
0.00644874
-1.96041e-05
0.00645781
-1.9376e-05
0.00646675
-1.91509e-05
0.00647556
-1.89215e-05
0.00648423
-1.86898e-05
0.00649275
-1.84534e-05
0.00650112
-1.82145e-05
0.00650934
-1.79797e-05
0.0065174
-1.77417e-05
0.00652532
-1.75316e-05
0.0065331
-1.72958e-05
0.00654077
-1.71419e-05
0.0065483
-1.68807e-05
0.00655578
-1.68315e-05
0.00656309
-1.64656e-05
0.00657045
-1.66138e-05
0.00657752
-1.59817e-05
0.00658482
-1.64895e-05
0.00659159
-1.52994e-05
0.00659886
-1.64119e-05
0.00660517
-1.42116e-05
0.00661227
-1.60086e-05
-1.24538e-05
0.00614727
-2.93765e-05
0.00615215
-2.87851e-05
0.00615673
-2.82198e-05
0.00616103
-2.7668e-05
0.00616505
-2.71341e-05
0.0061688
-2.66087e-05
0.00617231
-2.60927e-05
0.00617558
-2.55806e-05
0.00617861
-2.5072e-05
0.00618143
-2.4565e-05
0.00618404
-2.40605e-05
0.00618646
-2.35612e-05
0.00618867
-2.30705e-05
0.00619071
-2.25942e-05
0.00619256
-2.21357e-05
0.00619424
-2.16994e-05
0.00619576
-2.12831e-05
0.00619711
-2.08856e-05
0.00619829
-2.0498e-05
0.00619931
-2.0118e-05
0.00620017
-1.97361e-05
0.00620086
-1.93544e-05
0.00620138
-1.89676e-05
0.00620173
-1.85833e-05
0.00620192
-1.82054e-05
0.00620197
-1.78315e-05
0.00620187
-1.74891e-05
0.00620165
-1.7129e-05
0.00620131
-1.6854e-05
0.00620086
-1.64792e-05
0.00620032
-1.63195e-05
0.00619969
-1.5848e-05
0.00619898
-1.5891e-05
0.00619819
-1.51674e-05
0.00619731
-1.55525e-05
0.0061964
-1.4328e-05
0.0061953
-1.52192e-05
0.00619432
-1.31512e-05
0.00619292
-1.45079e-05
-1.12888e-05
0.0053826
-1.89804e-05
0.00537222
-1.84155e-05
0.00536187
-1.78814e-05
0.00535155
-1.73694e-05
0.00534129
-1.68829e-05
0.00533108
-1.64152e-05
0.00532096
-1.5966e-05
0.00531092
-1.55308e-05
0.00530097
-1.51079e-05
0.00529113
-1.46945e-05
0.00528139
-1.42894e-05
0.00527177
-1.38947e-05
0.00526226
-1.35114e-05
0.00525286
-1.31425e-05
0.00524355
-1.27896e-05
0.00523435
-1.2457e-05
0.00522523
-1.21411e-05
0.0052162
-1.18429e-05
0.00520726
-1.15532e-05
0.0051984
-1.12723e-05
0.00518963
-1.0991e-05
0.00518096
-1.07159e-05
0.0051724
-1.04398e-05
0.00516396
-1.01722e-05
0.00515564
-9.91381e-06
0.00514746
-9.6644e-06
0.00513942
-9.44294e-06
0.00513152
-9.20797e-06
0.00512374
-9.04165e-06
0.0051161
-8.78856e-06
0.00510854
-8.70574e-06
0.00510113
-8.37276e-06
0.00509372
-8.42778e-06
0.00508653
-7.92803e-06
0.00507918
-8.17045e-06
0.00507228
-7.41224e-06
0.00506488
-7.81766e-06
0.0050585
-6.78402e-06
0.00505103
-7.06876e-06
-5.69274e-06
0.00368604
-5.29155e-06
0.00367281
-5.16757e-06
0.00366
-5.04942e-06
0.00364758
-4.93319e-06
0.00363553
-4.82144e-06
0.00362383
-4.71124e-06
0.00361248
-4.60298e-06
0.00360145
-4.49542e-06
0.00359074
-4.38737e-06
0.00358034
-4.27852e-06
0.00357024
-4.1684e-06
0.00356042
-4.05883e-06
0.00355088
-3.95024e-06
0.00354159
-3.84452e-06
0.00353256
-3.74202e-06
0.00352375
-3.64623e-06
0.00351517
-3.55498e-06
0.00350679
-3.47079e-06
0.00349863
-3.38786e-06
0.00349067
-3.30755e-06
0.0034829
-3.22315e-06
0.00347534
-3.14178e-06
0.00346798
-3.05728e-06
0.0034608
-2.97512e-06
0.0034538
-2.89443e-06
0.00344697
-2.81455e-06
0.00344029
-2.74731e-06
0.00343377
-2.66524e-06
0.00342736
-2.62305e-06
0.00342111
-2.51905e-06
0.00341493
-2.51716e-06
0.00340892
-2.35967e-06
0.00340293
-2.4257e-06
0.00339719
-2.18581e-06
0.00339135
-2.31631e-06
0.00338594
-1.99562e-06
0.00338022
-2.08543e-06
0.00337527
-1.82119e-06
0.00336975
-1.52792e-06
-1.45173e-06
0.0014096
0.00140444
0.00139941
0.00139448
0.00138968
0.00138498
0.00138039
0.0013759
0.00137153
0.00136726
0.00136311
0.00135906
0.00135512
0.00135129
0.00134756
0.00134392
0.00134038
0.00133692
0.00133354
0.00133025
0.00132704
0.00132391
0.00132086
0.0013179
0.00131502
0.00131222
0.00130948
0.00130683
0.00130422
0.00130171
0.00129921
0.00129686
0.00129445
0.00129227
0.00128997
0.00128799
0.00128591
0.0012841
0.00128259
)
;

boundaryField
{
    upperWall
    {
        type            calculated;
        value           uniform 0;
    }
    lowerWall
    {
        type            calculated;
        value           uniform 0;
    }
    heatedWall
    {
        type            calculated;
        value           uniform 0;
    }
    inlet
    {
        type            calculated;
        value           nonuniform List<scalar> 
12
(
-0.00485923
-0.00485907
-0.00485905
-0.00485897
-0.00485896
-0.00485894
-0.00485894
-0.00485896
-0.00485897
-0.00485905
-0.00485907
-0.00485923
)
;
    }
    outlet
    {
        type            calculated;
        value           nonuniform List<scalar> 
12
(
0.00128093
0.00336458
0.00504444
0.00619155
0.00661781
0.00666028
0.00666028
0.00661782
0.00619182
0.0050454
0.00336551
0.00128115
)
;
    }
    frontAndBack
    {
        type            empty;
        value           nonuniform 0();
    }
}


// ************************************************************************* //
