/*--------------------------------*- C++ -*----------------------------------*\
  =========                 |
  \\      /  F ield         | OpenFOAM: The Open Source CFD Toolbox
   \\    /   O peration     | Website:  https://openfoam.org
    \\  /    A nd           | Version:  7
     \\/     M anipulation  |
\*---------------------------------------------------------------------------*/
FoamFile
{
    version     2.0;
    format      ascii;
    class       volScalarField;
    location    "2.4675";
    object      rho_0;
}
// * * * * * * * * * * * * * * * * * * * * * * * * * * * * * * * * * * * * * //

dimensions      [1 -3 0 0 0 0 0];

internalField   nonuniform List<scalar> 
7920
(
1.23346
1.23329
1.23387
1.23351
1.23395
1.23358
1.23383
1.23348
1.23366
1.23341
1.23356
1.23338
1.23347
1.23336
1.23336
1.23338
1.23319
1.23354
1.2328
1.23413
1.23305
1.2329
1.23328
1.23304
1.23338
1.23317
1.23335
1.23314
1.23322
1.23306
1.23312
1.23301
1.23303
1.23298
1.23291
1.23299
1.23273
1.23316
1.2323
1.23382
1.23329
1.2331
1.23357
1.23325
1.23363
1.2334
1.23369
1.23348
1.23367
1.23347
1.23358
1.23341
1.23345
1.23334
1.23328
1.23329
1.23308
1.23332
1.23278
1.23352
1.23309
1.23289
1.23326
1.23295
1.23324
1.23303
1.23327
1.23311
1.23328
1.23315
1.23324
1.23313
1.23314
1.23305
1.23299
1.23295
1.23281
1.23285
1.23262
1.23279
1.23323
1.233
1.23344
1.23308
1.23342
1.23316
1.23344
1.23324
1.23346
1.2333
1.23345
1.23331
1.23339
1.23326
1.23327
1.23314
1.23311
1.23299
1.23294
1.23283
1.23318
1.2329
1.23334
1.23296
1.2333
1.23303
1.2333
1.2331
1.23332
1.23316
1.23332
1.23318
1.23328
1.23313
1.23317
1.23302
1.23302
1.23286
1.23284
1.23268
1.23318
1.2329
1.23334
1.23296
1.2333
1.23303
1.23331
1.2331
1.23332
1.23316
1.23332
1.23318
1.23328
1.23313
1.23317
1.23302
1.23302
1.23286
1.23284
1.23268
1.23323
1.233
1.23344
1.23308
1.23342
1.23316
1.23344
1.23324
1.23346
1.2333
1.23346
1.23331
1.2334
1.23325
1.23328
1.23313
1.23313
1.23297
1.23296
1.23281
1.23309
1.23289
1.23326
1.23295
1.23324
1.23303
1.23327
1.23311
1.23328
1.23314
1.23325
1.23312
1.23316
1.23303
1.23302
1.2329
1.23287
1.23277
1.23273
1.23266
1.23329
1.2331
1.23357
1.23325
1.23363
1.23339
1.23369
1.23347
1.23367
1.23346
1.23359
1.23339
1.23347
1.2333
1.23334
1.2332
1.23322
1.2331
1.23312
1.23303
1.23305
1.2329
1.23328
1.23304
1.23338
1.23317
1.23336
1.23314
1.23323
1.23305
1.23313
1.23299
1.23305
1.23294
1.23298
1.23288
1.23292
1.23284
1.23286
1.23281
1.23346
1.23329
1.23387
1.23351
1.23395
1.23357
1.23383
1.23348
1.23366
1.2334
1.23357
1.23336
1.23349
1.23332
1.23342
1.23328
1.23336
1.23324
1.23331
1.2332
1.23075
1.23091
1.23046
1.23088
1.23062
1.23098
1.23067
1.23089
1.23063
1.23084
1.23066
1.23086
1.23067
1.23089
1.23065
1.23099
1.23054
1.2313
1.22995
1.2326
1.23113
1.23134
1.23108
1.23131
1.23121
1.23143
1.23135
1.23147
1.23138
1.23145
1.23136
1.23144
1.23132
1.23144
1.23126
1.23151
1.23112
1.23175
1.23078
1.23243
1.23082
1.23109
1.23069
1.23097
1.23074
1.23102
1.23087
1.2311
1.23097
1.23114
1.23101
1.23114
1.231
1.23113
1.23095
1.23114
1.23085
1.23123
1.23071
1.23145
1.23103
1.23133
1.231
1.23126
1.23107
1.23131
1.23121
1.23141
1.23134
1.23149
1.23144
1.23153
1.23146
1.23153
1.23144
1.2315
1.23137
1.23147
1.23131
1.23147
1.23087
1.23121
1.2308
1.23113
1.23087
1.23115
1.231
1.23123
1.23113
1.23132
1.23124
1.23137
1.23129
1.23137
1.23129
1.23133
1.23125
1.23127
1.2312
1.23121
1.23093
1.23132
1.23091
1.23126
1.231
1.23129
1.23113
1.23137
1.23126
1.23146
1.23138
1.23152
1.23144
1.23153
1.23145
1.23149
1.23142
1.23142
1.23137
1.23136
1.23093
1.23132
1.23091
1.23126
1.231
1.23129
1.23113
1.23137
1.23126
1.23146
1.23138
1.23152
1.23145
1.23152
1.23145
1.23149
1.23142
1.23142
1.23137
1.23137
1.23087
1.23121
1.2308
1.23113
1.23088
1.23115
1.231
1.23123
1.23113
1.23132
1.23124
1.23137
1.2313
1.23137
1.2313
1.23132
1.23126
1.23126
1.23121
1.23121
1.23103
1.23133
1.231
1.23126
1.23107
1.23131
1.23121
1.23141
1.23135
1.23149
1.23144
1.23152
1.23148
1.23151
1.23146
1.23146
1.23142
1.2314
1.23139
1.23137
1.23082
1.23109
1.23069
1.23097
1.23074
1.23101
1.23087
1.23109
1.23098
1.23113
1.23102
1.23112
1.23103
1.23109
1.23101
1.23105
1.23099
1.23103
1.23099
1.23105
1.23113
1.23134
1.23108
1.23131
1.23121
1.23142
1.23136
1.23146
1.23139
1.23144
1.23137
1.23141
1.23136
1.23139
1.23135
1.23137
1.23135
1.23138
1.23138
1.23143
1.23075
1.23091
1.23046
1.23088
1.23062
1.23097
1.23068
1.23089
1.23063
1.23083
1.23067
1.23084
1.23071
1.23083
1.23074
1.23084
1.23079
1.23086
1.23083
1.23094
1.23102
1.23099
1.23092
1.23097
1.23099
1.2311
1.23103
1.23096
1.23078
1.23081
1.23076
1.2309
1.23074
1.23095
1.23059
1.23116
1.23027
1.23179
1.22925
1.23348
1.23102
1.23102
1.23098
1.23101
1.23102
1.23109
1.23111
1.23116
1.23112
1.23113
1.23103
1.23108
1.23092
1.23105
1.23076
1.23112
1.23057
1.23137
1.23028
1.23183
1.23102
1.23101
1.23097
1.23099
1.23099
1.23105
1.23106
1.23112
1.23113
1.23117
1.23113
1.23115
1.23106
1.23108
1.23093
1.231
1.2308
1.23096
1.23071
1.23097
1.23102
1.23101
1.23098
1.23101
1.23102
1.23107
1.23109
1.23115
1.23117
1.23122
1.23122
1.23123
1.2312
1.23118
1.23112
1.23108
1.23102
1.23096
1.23093
1.23086
1.23102
1.23101
1.23098
1.231
1.23101
1.23106
1.23108
1.23113
1.23116
1.2312
1.23121
1.23122
1.2312
1.23118
1.23114
1.23109
1.23105
1.23097
1.23095
1.23085
1.23101
1.23101
1.23098
1.23101
1.23102
1.23107
1.2311
1.23115
1.23118
1.23122
1.23123
1.23125
1.23123
1.23121
1.23117
1.23112
1.23108
1.23101
1.23098
1.23091
1.23101
1.23101
1.23098
1.23101
1.23102
1.23107
1.2311
1.23115
1.23118
1.23122
1.23123
1.23125
1.23123
1.23121
1.23117
1.23113
1.23108
1.23102
1.23097
1.23091
1.23102
1.23101
1.23098
1.231
1.23101
1.23106
1.23108
1.23113
1.23116
1.2312
1.23121
1.23122
1.2312
1.23118
1.23114
1.23109
1.23104
1.23098
1.23093
1.23087
1.23102
1.23101
1.23099
1.23101
1.23102
1.23107
1.2311
1.23115
1.23118
1.23122
1.23122
1.23123
1.2312
1.23117
1.23113
1.23107
1.23102
1.23096
1.23093
1.23087
1.23102
1.23101
1.23097
1.23099
1.231
1.23104
1.23107
1.23112
1.23114
1.23116
1.23115
1.23113
1.23109
1.23105
1.23098
1.23094
1.23089
1.23085
1.23083
1.23082
1.23102
1.23102
1.23098
1.23101
1.23102
1.23108
1.23112
1.23115
1.23113
1.23111
1.23106
1.23103
1.23098
1.23095
1.23091
1.2309
1.23089
1.23091
1.23092
1.23095
1.23102
1.23099
1.23092
1.23097
1.23099
1.2311
1.23103
1.23095
1.23079
1.23079
1.23079
1.23085
1.23082
1.23082
1.2308
1.23083
1.23083
1.23085
1.23085
1.23086
1.23102
1.23099
1.23092
1.23097
1.23099
1.2311
1.23103
1.23096
1.23078
1.23081
1.23076
1.2309
1.23074
1.23095
1.23059
1.23116
1.23027
1.23179
1.22925
1.23348
1.23102
1.23102
1.23098
1.23101
1.23102
1.23109
1.23111
1.23116
1.23112
1.23113
1.23103
1.23108
1.23092
1.23105
1.23076
1.23112
1.23057
1.23137
1.23028
1.23183
1.23102
1.23101
1.23097
1.23099
1.23099
1.23105
1.23106
1.23112
1.23113
1.23117
1.23113
1.23115
1.23106
1.23108
1.23093
1.231
1.2308
1.23096
1.23071
1.23097
1.23102
1.23101
1.23098
1.23101
1.23102
1.23107
1.23109
1.23115
1.23117
1.23122
1.23122
1.23123
1.2312
1.23118
1.23112
1.23108
1.23102
1.23096
1.23093
1.23086
1.23102
1.23101
1.23098
1.231
1.23101
1.23106
1.23108
1.23113
1.23116
1.2312
1.23121
1.23122
1.2312
1.23118
1.23114
1.23109
1.23105
1.23097
1.23095
1.23085
1.23101
1.23101
1.23098
1.23101
1.23102
1.23107
1.2311
1.23115
1.23118
1.23122
1.23123
1.23125
1.23123
1.23121
1.23117
1.23112
1.23108
1.23101
1.23098
1.23091
1.23101
1.23101
1.23098
1.23101
1.23102
1.23107
1.2311
1.23115
1.23118
1.23122
1.23123
1.23125
1.23123
1.23121
1.23117
1.23113
1.23108
1.23102
1.23097
1.23091
1.23102
1.23101
1.23098
1.231
1.23101
1.23106
1.23108
1.23113
1.23116
1.2312
1.23121
1.23122
1.2312
1.23118
1.23114
1.23109
1.23104
1.23098
1.23093
1.23088
1.23102
1.23101
1.23099
1.23101
1.23102
1.23107
1.2311
1.23115
1.23118
1.23122
1.23122
1.23123
1.2312
1.23117
1.23113
1.23108
1.23102
1.23096
1.23093
1.23087
1.23102
1.23101
1.23097
1.23099
1.231
1.23104
1.23107
1.23112
1.23114
1.23116
1.23115
1.23113
1.23109
1.23105
1.23098
1.23094
1.23089
1.23085
1.23083
1.23082
1.23102
1.23102
1.23098
1.23101
1.23102
1.23108
1.23112
1.23115
1.23113
1.23111
1.23106
1.23103
1.23098
1.23095
1.23091
1.2309
1.23089
1.23091
1.23092
1.23095
1.23102
1.23099
1.23092
1.23097
1.23099
1.2311
1.23103
1.23095
1.23079
1.23079
1.23079
1.23085
1.23082
1.23082
1.2308
1.23083
1.23083
1.23085
1.23085
1.23086
1.23075
1.23091
1.23046
1.23088
1.23062
1.23098
1.23067
1.23089
1.23063
1.23084
1.23066
1.23086
1.23067
1.23089
1.23065
1.23099
1.23054
1.2313
1.22995
1.2326
1.23113
1.23134
1.23108
1.23131
1.23121
1.23143
1.23135
1.23147
1.23138
1.23145
1.23136
1.23144
1.23132
1.23144
1.23126
1.23151
1.23112
1.23175
1.23078
1.23243
1.23082
1.23109
1.23069
1.23097
1.23074
1.23102
1.23087
1.2311
1.23097
1.23114
1.23101
1.23114
1.231
1.23113
1.23095
1.23114
1.23085
1.23123
1.23071
1.23145
1.23103
1.23133
1.231
1.23126
1.23107
1.23131
1.23121
1.23141
1.23134
1.23149
1.23144
1.23153
1.23146
1.23153
1.23144
1.2315
1.23137
1.23147
1.23131
1.23147
1.23087
1.23121
1.2308
1.23113
1.23087
1.23115
1.231
1.23123
1.23113
1.23132
1.23124
1.23137
1.23129
1.23137
1.23129
1.23133
1.23125
1.23127
1.2312
1.23121
1.23093
1.23132
1.23091
1.23126
1.231
1.23129
1.23113
1.23137
1.23126
1.23146
1.23138
1.23152
1.23144
1.23153
1.23145
1.23149
1.23142
1.23142
1.23137
1.23136
1.23093
1.23132
1.23091
1.23126
1.231
1.23129
1.23113
1.23137
1.23126
1.23146
1.23138
1.23152
1.23145
1.23152
1.23145
1.23149
1.23142
1.23142
1.23137
1.23137
1.23087
1.23121
1.2308
1.23113
1.23088
1.23115
1.231
1.23123
1.23113
1.23132
1.23124
1.23137
1.2313
1.23137
1.2313
1.23132
1.23126
1.23126
1.23121
1.23121
1.23103
1.23133
1.231
1.23126
1.23107
1.23131
1.23121
1.23141
1.23135
1.23149
1.23144
1.23152
1.23148
1.23151
1.23146
1.23146
1.23142
1.2314
1.23139
1.23137
1.23082
1.23109
1.23069
1.23097
1.23074
1.23101
1.23087
1.23109
1.23098
1.23113
1.23102
1.23112
1.23103
1.23109
1.23101
1.23105
1.23099
1.23103
1.23099
1.23105
1.23113
1.23134
1.23108
1.23131
1.23121
1.23142
1.23136
1.23146
1.23139
1.23144
1.23137
1.23141
1.23136
1.23139
1.23135
1.23137
1.23135
1.23138
1.23138
1.23143
1.23075
1.23091
1.23046
1.23088
1.23062
1.23097
1.23068
1.23089
1.23063
1.23083
1.23067
1.23084
1.23071
1.23083
1.23074
1.23084
1.23079
1.23086
1.23083
1.23094
1.23346
1.23329
1.23387
1.23351
1.23395
1.23358
1.23383
1.23348
1.23366
1.23341
1.23356
1.23338
1.23347
1.23336
1.23336
1.23338
1.23319
1.23354
1.2328
1.23413
1.23305
1.2329
1.23328
1.23304
1.23338
1.23317
1.23335
1.23314
1.23322
1.23306
1.23312
1.23301
1.23303
1.23298
1.23291
1.23299
1.23273
1.23316
1.2323
1.23382
1.23329
1.2331
1.23357
1.23325
1.23363
1.2334
1.23369
1.23348
1.23367
1.23347
1.23358
1.23341
1.23345
1.23334
1.23328
1.23329
1.23308
1.23332
1.23278
1.23352
1.23309
1.23289
1.23326
1.23295
1.23324
1.23303
1.23327
1.23311
1.23328
1.23315
1.23324
1.23313
1.23314
1.23305
1.23299
1.23295
1.23281
1.23285
1.23262
1.23279
1.23323
1.233
1.23344
1.23308
1.23342
1.23316
1.23344
1.23324
1.23346
1.2333
1.23345
1.23331
1.23339
1.23326
1.23327
1.23314
1.23311
1.23299
1.23294
1.23283
1.23318
1.2329
1.23334
1.23296
1.2333
1.23303
1.2333
1.2331
1.23332
1.23316
1.23332
1.23318
1.23328
1.23313
1.23317
1.23302
1.23302
1.23286
1.23284
1.23268
1.23318
1.2329
1.23334
1.23296
1.2333
1.23303
1.23331
1.2331
1.23332
1.23316
1.23332
1.23318
1.23328
1.23313
1.23317
1.23302
1.23302
1.23286
1.23284
1.23268
1.23323
1.233
1.23344
1.23308
1.23342
1.23316
1.23344
1.23324
1.23346
1.2333
1.23346
1.23331
1.2334
1.23325
1.23328
1.23313
1.23313
1.23297
1.23296
1.23281
1.23309
1.23289
1.23326
1.23295
1.23324
1.23303
1.23327
1.23311
1.23328
1.23314
1.23325
1.23312
1.23316
1.23303
1.23302
1.2329
1.23287
1.23277
1.23273
1.23266
1.23329
1.2331
1.23357
1.23325
1.23363
1.23339
1.23369
1.23347
1.23367
1.23346
1.23359
1.23339
1.23347
1.2333
1.23334
1.2332
1.23322
1.2331
1.23312
1.23303
1.23305
1.2329
1.23328
1.23304
1.23338
1.23317
1.23336
1.23314
1.23323
1.23305
1.23313
1.23299
1.23305
1.23294
1.23298
1.23288
1.23292
1.23284
1.23286
1.23281
1.23346
1.23329
1.23387
1.23351
1.23395
1.23357
1.23383
1.23348
1.23366
1.2334
1.23357
1.23336
1.23349
1.23332
1.23342
1.23328
1.23336
1.23324
1.23331
1.2332
1.22417
1.21721
1.21281
1.2091
1.20622
1.20355
1.20135
1.19919
1.19732
1.19545
1.1938
1.19214
1.19066
1.18916
1.18779
1.18639
1.1851
1.18379
1.18258
1.18135
1.18021
1.17904
1.17796
1.17686
1.17585
1.17484
1.17392
1.173
1.17217
1.17137
1.17066
1.16999
1.16942
1.16889
1.16845
1.16806
1.16775
1.16748
1.16728
1.16711
1.16699
1.16687
1.16681
1.16673
1.16669
1.16663
1.1666
1.16656
1.16653
1.16649
1.16646
1.16642
1.1664
1.16636
1.16633
1.1663
1.16627
1.16623
1.16621
1.16617
1.16614
1.16611
1.16608
1.16604
1.16602
1.16598
1.16595
1.16592
1.16589
1.16586
1.16583
1.1658
1.16577
1.16573
1.16571
1.16567
1.16564
1.16561
1.16558
1.16555
1.16552
1.16549
1.16547
1.16543
1.16541
1.16538
1.16536
1.16532
1.16531
1.16529
1.2273
1.22089
1.21663
1.21301
1.21015
1.2075
1.20531
1.20317
1.20131
1.19944
1.19778
1.19613
1.19465
1.19314
1.19177
1.19037
1.18907
1.18775
1.18654
1.1853
1.18415
1.18297
1.18188
1.18077
1.17975
1.17872
1.17778
1.17684
1.176
1.17517
1.17444
1.17375
1.17315
1.1726
1.17214
1.17173
1.1714
1.17111
1.1709
1.17071
1.17058
1.17045
1.17038
1.1703
1.17025
1.1702
1.17017
1.17012
1.17009
1.17005
1.17002
1.16998
1.16996
1.16992
1.1699
1.16986
1.16983
1.16979
1.16977
1.16973
1.1697
1.16967
1.16964
1.1696
1.16958
1.16954
1.16951
1.16948
1.16945
1.16942
1.16939
1.16936
1.16933
1.16929
1.16927
1.16923
1.16921
1.16917
1.16914
1.16911
1.16908
1.16905
1.16902
1.16899
1.16897
1.16893
1.16891
1.16888
1.16887
1.16885
1.231
1.22631
1.22271
1.21939
1.21671
1.21415
1.21204
1.20997
1.20817
1.20634
1.20471
1.20306
1.20159
1.2001
1.19874
1.19734
1.19604
1.19472
1.1935
1.19225
1.19109
1.1899
1.18879
1.18767
1.18662
1.18557
1.18459
1.18363
1.18274
1.18187
1.1811
1.18036
1.17972
1.17911
1.17861
1.17814
1.17777
1.17744
1.17719
1.17697
1.17681
1.17667
1.17658
1.17649
1.17643
1.17637
1.17633
1.17629
1.17626
1.17621
1.17619
1.17615
1.17612
1.17608
1.17606
1.17602
1.17599
1.17596
1.17593
1.17589
1.17587
1.17583
1.1758
1.17577
1.17574
1.17571
1.17568
1.17564
1.17562
1.17558
1.17555
1.17552
1.17549
1.17546
1.17543
1.1754
1.17537
1.17534
1.17531
1.17527
1.17525
1.17522
1.17519
1.17516
1.17513
1.1751
1.17508
1.17504
1.17504
1.17503
1.23208
1.22939
1.22686
1.2242
1.2219
1.21961
1.21769
1.2158
1.21414
1.21243
1.21088
1.20929
1.20787
1.20643
1.20511
1.20375
1.20248
1.20117
1.19996
1.19872
1.19756
1.19638
1.19526
1.19412
1.19306
1.19198
1.19098
1.18998
1.18906
1.18814
1.18732
1.18653
1.18583
1.18517
1.18461
1.18409
1.18367
1.18328
1.18299
1.18273
1.18254
1.18237
1.18226
1.18215
1.18209
1.18202
1.18198
1.18193
1.1819
1.18185
1.18183
1.18179
1.18176
1.18172
1.1817
1.18166
1.18163
1.18159
1.18157
1.18153
1.1815
1.18147
1.18144
1.18141
1.18138
1.18134
1.18131
1.18128
1.18125
1.18122
1.18119
1.18116
1.18113
1.18109
1.18107
1.18103
1.181
1.18097
1.18094
1.18091
1.18088
1.18085
1.18082
1.18079
1.18076
1.18073
1.18071
1.18067
1.18066
1.18065
1.23277
1.23137
1.22991
1.22797
1.22619
1.22425
1.22262
1.22096
1.21952
1.21798
1.21656
1.21508
1.21374
1.21237
1.21113
1.20982
1.2086
1.20732
1.20613
1.20491
1.20377
1.2026
1.20149
1.20035
1.19927
1.19818
1.19716
1.19613
1.19518
1.19424
1.19338
1.19254
1.1918
1.19109
1.19048
1.18992
1.18945
1.18903
1.18869
1.1884
1.18818
1.18799
1.18786
1.18774
1.18767
1.18759
1.18755
1.18749
1.18746
1.18742
1.18739
1.18735
1.18732
1.18728
1.18726
1.18722
1.18719
1.18716
1.18713
1.18709
1.18707
1.18703
1.187
1.18697
1.18694
1.1869
1.18687
1.18684
1.18681
1.18678
1.18675
1.18672
1.18669
1.18665
1.18662
1.18659
1.18656
1.18653
1.1865
1.18647
1.18644
1.18641
1.18638
1.18635
1.18632
1.18629
1.18627
1.18624
1.18622
1.18621
1.23267
1.23194
1.23124
1.22995
1.22869
1.22717
1.22586
1.22451
1.22332
1.222
1.22075
1.21942
1.2182
1.21694
1.21578
1.21456
1.21341
1.21218
1.21104
1.20986
1.20875
1.2076
1.20651
1.20537
1.2043
1.20321
1.20219
1.20115
1.20019
1.19922
1.19834
1.19748
1.19671
1.19598
1.19535
1.19475
1.19426
1.19381
1.19346
1.19315
1.19291
1.19271
1.19257
1.19244
1.19236
1.19228
1.19223
1.19218
1.19215
1.1921
1.19207
1.19203
1.192
1.19197
1.19194
1.1919
1.19187
1.19184
1.19181
1.19177
1.19175
1.19171
1.19168
1.19165
1.19162
1.19158
1.19156
1.19152
1.19149
1.19146
1.19143
1.1914
1.19137
1.19133
1.1913
1.19127
1.19124
1.19121
1.19118
1.19115
1.19112
1.19109
1.19106
1.19103
1.191
1.19097
1.19094
1.19091
1.19089
1.19087
1.23266
1.23221
1.23195
1.23112
1.23029
1.22914
1.22816
1.22709
1.22614
1.22504
1.22397
1.22279
1.2217
1.22056
1.21951
1.21837
1.21729
1.21613
1.21503
1.2139
1.21282
1.2117
1.21063
1.20952
1.20846
1.20738
1.20636
1.20532
1.20436
1.2034
1.20251
1.20165
1.20088
1.20014
1.19951
1.19891
1.19842
1.19797
1.19762
1.1973
1.19707
1.19686
1.19672
1.19659
1.19651
1.19643
1.19638
1.19633
1.19629
1.19625
1.19622
1.19618
1.19615
1.19611
1.19609
1.19605
1.19602
1.19599
1.19596
1.19592
1.19589
1.19586
1.19583
1.19579
1.19577
1.19573
1.1957
1.19567
1.19564
1.19561
1.19558
1.19554
1.19551
1.19548
1.19545
1.19542
1.19539
1.19536
1.19533
1.19529
1.19526
1.19523
1.1952
1.19517
1.19514
1.19511
1.19508
1.19506
1.19503
1.195
1.2328
1.23247
1.23242
1.23187
1.23133
1.23049
1.22979
1.22894
1.2282
1.22726
1.22636
1.22531
1.22436
1.22332
1.22235
1.22129
1.22027
1.21917
1.21813
1.21704
1.216
1.21491
1.21386
1.21277
1.21173
1.21066
1.20965
1.20863
1.20768
1.20674
1.20587
1.20502
1.20427
1.20356
1.20294
1.20237
1.2019
1.20147
1.20114
1.20084
1.20062
1.20043
1.2003
1.20018
1.2001
1.20002
1.19998
1.19992
1.19989
1.19985
1.19982
1.19978
1.19975
1.19971
1.19969
1.19965
1.19962
1.19958
1.19956
1.19952
1.19949
1.19945
1.19943
1.19939
1.19936
1.19933
1.1993
1.19926
1.19924
1.1992
1.19917
1.19914
1.19911
1.19908
1.19905
1.19901
1.19898
1.19895
1.19892
1.19889
1.19886
1.19883
1.1988
1.19877
1.19874
1.19871
1.19869
1.19866
1.19863
1.1986
1.23258
1.23233
1.23233
1.23196
1.23161
1.23101
1.23052
1.22986
1.22926
1.22846
1.22769
1.22677
1.22593
1.22498
1.22409
1.2231
1.22214
1.22109
1.2201
1.21904
1.21804
1.21697
1.21595
1.21488
1.21386
1.21281
1.21183
1.21083
1.20991
1.20899
1.20815
1.20735
1.20664
1.20597
1.20539
1.20487
1.20444
1.20405
1.20375
1.20348
1.20329
1.20312
1.203
1.2029
1.20283
1.20276
1.20272
1.20267
1.20264
1.20259
1.20257
1.20253
1.2025
1.20246
1.20243
1.20239
1.20237
1.20233
1.2023
1.20227
1.20224
1.2022
1.20217
1.20214
1.20211
1.20207
1.20205
1.20201
1.20198
1.20195
1.20192
1.20189
1.20186
1.20182
1.20179
1.20176
1.20173
1.2017
1.20167
1.20164
1.20161
1.20157
1.20155
1.20151
1.20149
1.20145
1.20143
1.2014
1.20137
1.20134
1.23308
1.2328
1.23282
1.23247
1.23225
1.23177
1.23142
1.23085
1.23034
1.22962
1.22893
1.2281
1.22733
1.22644
1.22559
1.22463
1.22372
1.22271
1.22175
1.22072
1.21973
1.21868
1.21767
1.21662
1.21562
1.21459
1.21364
1.21267
1.21178
1.2109
1.21011
1.20935
1.20869
1.20807
1.20755
1.20708
1.2067
1.20636
1.2061
1.20587
1.20571
1.20557
1.20547
1.20538
1.20533
1.20526
1.20523
1.20518
1.20515
1.20511
1.20508
1.20504
1.20501
1.20497
1.20495
1.20491
1.20488
1.20485
1.20482
1.20478
1.20475
1.20472
1.20469
1.20465
1.20463
1.20459
1.20456
1.20453
1.2045
1.20446
1.20443
1.2044
1.20437
1.20434
1.20431
1.20427
1.20425
1.20421
1.20418
1.20415
1.20412
1.20409
1.20406
1.20403
1.204
1.20397
1.20395
1.20392
1.20389
1.20386
1.23273
1.23247
1.23247
1.23217
1.23201
1.23162
1.23133
1.23082
1.23035
1.22967
1.22904
1.22826
1.22753
1.22667
1.22584
1.22491
1.22401
1.22303
1.22209
1.22107
1.2201
1.21906
1.21806
1.21702
1.21604
1.21503
1.2141
1.21315
1.21229
1.21145
1.2107
1.20999
1.20937
1.2088
1.20833
1.2079
1.20757
1.20727
1.20705
1.20685
1.20672
1.20659
1.20652
1.20644
1.20639
1.20633
1.2063
1.20625
1.20623
1.20618
1.20616
1.20612
1.20609
1.20605
1.20603
1.20599
1.20596
1.20592
1.2059
1.20586
1.20583
1.20579
1.20577
1.20573
1.2057
1.20567
1.20564
1.2056
1.20557
1.20554
1.20551
1.20548
1.20545
1.20541
1.20538
1.20535
1.20532
1.20529
1.20526
1.20523
1.2052
1.20516
1.20514
1.2051
1.20508
1.20505
1.20502
1.20499
1.20496
1.20494
1.23343
1.23316
1.23317
1.23285
1.23271
1.23234
1.23207
1.23156
1.2311
1.23042
1.22981
1.22904
1.22832
1.22746
1.22665
1.22571
1.22482
1.22384
1.22291
1.2219
1.22093
1.21989
1.2189
1.21786
1.21689
1.21589
1.21496
1.21403
1.21318
1.21235
1.21162
1.21093
1.21034
1.20979
1.20934
1.20893
1.20861
1.20833
1.20813
1.20794
1.20782
1.20771
1.20764
1.20756
1.20752
1.20746
1.20743
1.20738
1.20736
1.20732
1.20729
1.20725
1.20722
1.20718
1.20716
1.20712
1.20709
1.20705
1.20703
1.20699
1.20696
1.20693
1.2069
1.20686
1.20683
1.2068
1.20677
1.20673
1.20671
1.20667
1.20664
1.20661
1.20658
1.20655
1.20652
1.20648
1.20645
1.20642
1.20639
1.20636
1.20633
1.2063
1.20627
1.20624
1.20621
1.20618
1.20616
1.20613
1.2061
1.20607
1.22058
1.21309
1.20843
1.20481
1.20184
1.19926
1.19701
1.19492
1.19302
1.19119
1.18953
1.18791
1.18643
1.18495
1.18358
1.1822
1.18091
1.17962
1.17841
1.17719
1.17606
1.1749
1.17383
1.17274
1.17174
1.17074
1.16982
1.16892
1.1681
1.16731
1.16661
1.16595
1.16539
1.16487
1.16445
1.16406
1.16377
1.1635
1.16331
1.16314
1.16302
1.16291
1.16285
1.16278
1.16273
1.16268
1.16265
1.16261
1.16258
1.16254
1.16251
1.16247
1.16245
1.16241
1.16239
1.16235
1.16232
1.16228
1.16226
1.16222
1.1622
1.16216
1.16213
1.1621
1.16207
1.16203
1.16201
1.16197
1.16194
1.16191
1.16188
1.16185
1.16182
1.16179
1.16176
1.16172
1.16169
1.16166
1.16163
1.1616
1.16157
1.16154
1.16151
1.16147
1.16144
1.16141
1.16137
1.16135
1.16129
1.16126
1.22672
1.22046
1.21606
1.2125
1.20957
1.20697
1.20473
1.20263
1.20075
1.1989
1.19723
1.19559
1.1941
1.19261
1.19123
1.18983
1.18853
1.18722
1.186
1.18477
1.18362
1.18244
1.18135
1.18025
1.17922
1.1782
1.17725
1.17632
1.17547
1.17465
1.17392
1.17322
1.17263
1.17207
1.17161
1.17119
1.17087
1.17057
1.17036
1.17016
1.17003
1.16991
1.16983
1.16975
1.16971
1.16965
1.16962
1.16957
1.16955
1.1695
1.16948
1.16944
1.16941
1.16938
1.16935
1.16931
1.16929
1.16925
1.16922
1.16919
1.16916
1.16912
1.1691
1.16906
1.16903
1.169
1.16897
1.16893
1.16891
1.16887
1.16884
1.16881
1.16878
1.16875
1.16872
1.16869
1.16866
1.16862
1.16859
1.16856
1.16853
1.1685
1.16847
1.16844
1.1684
1.16837
1.16834
1.16831
1.16826
1.16823
1.22937
1.22531
1.22173
1.2186
1.21588
1.21342
1.21128
1.20927
1.20746
1.20567
1.20402
1.2024
1.20092
1.19944
1.19808
1.19669
1.1954
1.19408
1.19286
1.19162
1.19045
1.18927
1.18816
1.18704
1.18599
1.18494
1.18396
1.18299
1.1821
1.18123
1.18045
1.1797
1.17905
1.17844
1.17793
1.17746
1.17708
1.17674
1.17649
1.17626
1.1761
1.17595
1.17586
1.17576
1.17571
1.17565
1.17561
1.17556
1.17553
1.17549
1.17546
1.17542
1.1754
1.17536
1.17533
1.1753
1.17527
1.17523
1.17521
1.17517
1.17514
1.17511
1.17508
1.17504
1.17502
1.17498
1.17495
1.17492
1.17489
1.17485
1.17483
1.17479
1.17476
1.17473
1.1747
1.17467
1.17464
1.17461
1.17457
1.17454
1.17451
1.17448
1.17445
1.17442
1.17438
1.17435
1.17431
1.17428
1.17424
1.17421
1.23108
1.22901
1.22665
1.22424
1.22196
1.21978
1.21786
1.21603
1.21437
1.21269
1.21113
1.20956
1.20813
1.2067
1.20538
1.20402
1.20275
1.20145
1.20023
1.19899
1.19783
1.19665
1.19553
1.19439
1.19332
1.19224
1.19124
1.19024
1.18931
1.18839
1.18756
1.18676
1.18605
1.18538
1.18481
1.18428
1.18384
1.18345
1.18315
1.18288
1.18268
1.18251
1.18239
1.18228
1.18221
1.18214
1.1821
1.18205
1.18202
1.18197
1.18195
1.18191
1.18188
1.18184
1.18182
1.18178
1.18175
1.18171
1.18169
1.18165
1.18162
1.18159
1.18156
1.18152
1.1815
1.18146
1.18143
1.1814
1.18137
1.18134
1.18131
1.18127
1.18124
1.18121
1.18118
1.18115
1.18112
1.18109
1.18106
1.18102
1.18099
1.18096
1.18093
1.1809
1.18086
1.18083
1.1808
1.18077
1.18072
1.1807
1.23112
1.23035
1.22907
1.22751
1.22581
1.22406
1.22245
1.2209
1.21947
1.218
1.21658
1.21513
1.21379
1.21245
1.2112
1.20992
1.20869
1.20743
1.20624
1.20503
1.20389
1.20272
1.20161
1.20047
1.19939
1.1983
1.19728
1.19625
1.1953
1.19435
1.19348
1.19263
1.19187
1.19115
1.19053
1.18996
1.18948
1.18904
1.18869
1.18839
1.18816
1.18796
1.18783
1.1877
1.18762
1.18754
1.1875
1.18744
1.18741
1.18736
1.18734
1.1873
1.18727
1.18723
1.18721
1.18717
1.18714
1.1871
1.18708
1.18704
1.18701
1.18698
1.18695
1.18691
1.18689
1.18685
1.18682
1.18679
1.18676
1.18672
1.1867
1.18666
1.18663
1.1866
1.18657
1.18654
1.18651
1.18647
1.18644
1.18641
1.18638
1.18635
1.18632
1.18628
1.18625
1.18622
1.18618
1.18615
1.18611
1.18608
1.23132
1.23116
1.23061
1.22973
1.22858
1.22726
1.22602
1.22477
1.22361
1.22236
1.22113
1.21982
1.21861
1.21737
1.21623
1.21502
1.21387
1.21266
1.21151
1.21034
1.20923
1.20809
1.207
1.20587
1.20479
1.2037
1.20267
1.20164
1.20067
1.19969
1.1988
1.19793
1.19715
1.1964
1.19575
1.19514
1.19464
1.19417
1.1938
1.19348
1.19323
1.19302
1.19287
1.19274
1.19265
1.19257
1.19252
1.19246
1.19243
1.19238
1.19235
1.19231
1.19228
1.19224
1.19222
1.19218
1.19215
1.19212
1.19209
1.19205
1.19203
1.19199
1.19196
1.19193
1.1919
1.19186
1.19184
1.1918
1.19177
1.19174
1.19171
1.19167
1.19165
1.19161
1.19158
1.19155
1.19152
1.19149
1.19146
1.19142
1.19139
1.19136
1.19133
1.1913
1.19126
1.19123
1.1912
1.19117
1.19113
1.1911
1.23129
1.23136
1.23121
1.23076
1.23003
1.22911
1.22821
1.22725
1.22635
1.22532
1.22429
1.22315
1.22208
1.22097
1.21993
1.21882
1.21775
1.21661
1.21552
1.21439
1.21333
1.21222
1.21115
1.21004
1.20898
1.2079
1.20688
1.20584
1.20487
1.2039
1.20301
1.20213
1.20135
1.2006
1.19995
1.19934
1.19883
1.19837
1.198
1.19767
1.19742
1.1972
1.19706
1.19692
1.19684
1.19675
1.1967
1.19664
1.19661
1.19656
1.19654
1.1965
1.19647
1.19643
1.1964
1.19637
1.19634
1.1963
1.19628
1.19624
1.19621
1.19617
1.19615
1.19611
1.19608
1.19605
1.19602
1.19598
1.19596
1.19592
1.19589
1.19586
1.19583
1.1958
1.19577
1.19573
1.1957
1.19567
1.19564
1.19561
1.19558
1.19554
1.19551
1.19548
1.19545
1.19542
1.19538
1.19535
1.19531
1.19528
1.23112
1.23126
1.23127
1.23104
1.23059
1.22996
1.22934
1.22864
1.22795
1.22712
1.22626
1.22529
1.22436
1.22337
1.22243
1.22141
1.22041
1.21934
1.21831
1.21724
1.21621
1.21513
1.2141
1.21301
1.21197
1.21091
1.2099
1.20889
1.20793
1.20698
1.20611
1.20525
1.20449
1.20376
1.20314
1.20255
1.20207
1.20162
1.20127
1.20096
1.20074
1.20053
1.2004
1.20027
1.20019
1.20011
1.20007
1.20001
1.19998
1.19993
1.1999
1.19986
1.19984
1.1998
1.19977
1.19973
1.19971
1.19967
1.19964
1.19961
1.19958
1.19954
1.19952
1.19948
1.19945
1.19942
1.19939
1.19935
1.19932
1.19929
1.19926
1.19923
1.1992
1.19916
1.19913
1.1991
1.19907
1.19904
1.19901
1.19897
1.19894
1.19891
1.19888
1.19885
1.19881
1.19878
1.19874
1.19871
1.19867
1.19863
1.23142
1.23151
1.23157
1.23141
1.23112
1.23067
1.23024
1.22971
1.22916
1.22845
1.22772
1.22687
1.22605
1.22515
1.22429
1.22333
1.22238
1.22137
1.22039
1.21935
1.21836
1.21731
1.21629
1.21523
1.21421
1.21317
1.21219
1.21119
1.21026
1.20934
1.2085
1.20769
1.20697
1.20628
1.2057
1.20516
1.20472
1.20432
1.20401
1.20374
1.20354
1.20336
1.20324
1.20313
1.20306
1.20299
1.20295
1.2029
1.20287
1.20282
1.20279
1.20275
1.20273
1.20269
1.20266
1.20262
1.2026
1.20256
1.20253
1.2025
1.20247
1.20243
1.2024
1.20237
1.20234
1.20231
1.20228
1.20224
1.20221
1.20218
1.20215
1.20212
1.20209
1.20205
1.20202
1.20199
1.20196
1.20193
1.2019
1.20186
1.20183
1.2018
1.20177
1.20174
1.2017
1.20167
1.20163
1.20161
1.20157
1.20153
1.23098
1.23107
1.23109
1.23098
1.23078
1.23048
1.23017
1.22974
1.22927
1.22864
1.22799
1.22723
1.22649
1.22565
1.22483
1.22391
1.22301
1.22203
1.22109
1.22008
1.21911
1.21808
1.21708
1.21604
1.21504
1.21402
1.21307
1.2121
1.21121
1.21032
1.20953
1.20877
1.2081
1.20748
1.20695
1.20647
1.20608
1.20573
1.20547
1.20524
1.20507
1.20492
1.20483
1.20473
1.20468
1.20461
1.20458
1.20453
1.2045
1.20446
1.20443
1.20439
1.20436
1.20432
1.2043
1.20426
1.20423
1.2042
1.20417
1.20413
1.2041
1.20407
1.20404
1.204
1.20398
1.20394
1.20391
1.20388
1.20385
1.20381
1.20378
1.20375
1.20372
1.20369
1.20366
1.20362
1.20359
1.20356
1.20353
1.2035
1.20346
1.20343
1.2034
1.20337
1.20333
1.2033
1.20326
1.20324
1.20319
1.20316
1.23151
1.23152
1.23151
1.23138
1.23124
1.23098
1.23072
1.23031
1.22986
1.22926
1.22866
1.22793
1.22722
1.22641
1.2256
1.2247
1.22382
1.22286
1.22193
1.22093
1.21997
1.21894
1.21795
1.21692
1.21595
1.21494
1.21401
1.21307
1.21221
1.21137
1.21062
1.2099
1.20929
1.20871
1.20824
1.20781
1.20747
1.20717
1.20695
1.20675
1.20662
1.20649
1.20641
1.20633
1.20629
1.20623
1.2062
1.20615
1.20612
1.20608
1.20605
1.20601
1.20599
1.20595
1.20592
1.20588
1.20586
1.20582
1.20579
1.20576
1.20573
1.20569
1.20566
1.20563
1.2056
1.20556
1.20554
1.2055
1.20547
1.20544
1.20541
1.20537
1.20534
1.20531
1.20528
1.20525
1.20522
1.20518
1.20515
1.20512
1.20509
1.20506
1.20502
1.20499
1.20496
1.20493
1.20489
1.20486
1.20482
1.20479
1.23069
1.23071
1.23067
1.23056
1.23043
1.23021
1.22996
1.22956
1.22911
1.22853
1.22793
1.22723
1.22652
1.22572
1.22492
1.22402
1.22314
1.22219
1.22127
1.22028
1.21932
1.21829
1.21731
1.21629
1.21532
1.21433
1.21341
1.21249
1.21165
1.21083
1.21011
1.20943
1.20884
1.2083
1.20786
1.20746
1.20716
1.20688
1.20668
1.20651
1.20639
1.20628
1.20621
1.20614
1.20609
1.20604
1.20601
1.20596
1.20594
1.2059
1.20587
1.20583
1.20581
1.20577
1.20574
1.2057
1.20568
1.20564
1.20561
1.20557
1.20555
1.20551
1.20548
1.20545
1.20542
1.20538
1.20535
1.20532
1.20529
1.20525
1.20523
1.20519
1.20516
1.20513
1.2051
1.20506
1.20503
1.205
1.20497
1.20494
1.20491
1.20487
1.20484
1.20481
1.20477
1.20474
1.2047
1.20468
1.20463
1.2046
1.2181
1.20849
1.20308
1.19914
1.196
1.19331
1.19098
1.18883
1.18688
1.18503
1.18335
1.18172
1.18022
1.17874
1.17736
1.17598
1.17469
1.17341
1.17221
1.171
1.16986
1.16872
1.16766
1.16659
1.16561
1.16463
1.16373
1.16285
1.16206
1.16129
1.16062
1.16
1.15946
1.15897
1.15858
1.15822
1.15795
1.15771
1.15753
1.15738
1.15728
1.15718
1.15712
1.15705
1.15701
1.15697
1.15694
1.15689
1.15687
1.15683
1.1568
1.15677
1.15674
1.1567
1.15668
1.15664
1.15661
1.15658
1.15655
1.15652
1.15649
1.15645
1.15643
1.15639
1.15637
1.15633
1.1563
1.15627
1.15624
1.15621
1.15618
1.15615
1.15612
1.15609
1.15606
1.15603
1.156
1.15596
1.15593
1.1559
1.15587
1.15584
1.15581
1.15578
1.15575
1.15572
1.15568
1.15566
1.1556
1.15556
1.22748
1.22057
1.2155
1.21157
1.20838
1.20564
1.20328
1.20109
1.19912
1.19722
1.1955
1.19382
1.1923
1.19078
1.18937
1.18796
1.18665
1.18532
1.18409
1.18285
1.18169
1.18051