/*--------------------------------*- C++ -*----------------------------------*\
  =========                 |
  \\      /  F ield         | OpenFOAM: The Open Source CFD Toolbox
   \\    /   O peration     | Website:  https://openfoam.org
    \\  /    A nd           | Version:  7
     \\/     M anipulation  |
\*---------------------------------------------------------------------------*/
FoamFile
{
    version     2.0;
    format      ascii;
    class       volVectorField;
    location    "3.05";
    object      U;
}
// * * * * * * * * * * * * * * * * * * * * * * * * * * * * * * * * * * * * * //

dimensions      [0 1 -1 0 0 0 0];

internalField   nonuniform List<vector> 
3960
(
(4.48821 0.020215 0)
(4.42422 0.0734034 0)
(4.29798 0.11796 0)
(4.12358 0.147724 0)
(3.91906 0.162748 0)
(3.69988 0.16481 0)
(3.47648 0.156872 0)
(3.25714 0.141952 0)
(3.04832 0.123637 0)
(2.85237 0.104124 0)
(2.67284 0.0845875 0)
(2.51065 0.0664425 0)
(2.36579 0.0503272 0)
(2.23772 0.0364928 0)
(2.12546 0.0249347 0)
(2.02783 0.0155016 0)
(1.9434 0.00796403 0)
(1.87075 0.00206706 0)
(1.80844 -0.00244332 0)
(1.75511 -0.00580254 0)
(1.70951 -0.00822139 0)
(1.67049 -0.00988209 0)
(1.63705 -0.0109381 0)
(1.6083 -0.0115171 0)
(1.58346 -0.0117223 0)
(1.56188 -0.0116392 0)
(1.543 -0.0113313 0)
(1.5264 -0.0108701 0)
(1.51163 -0.0103455 0)
(1.49837 -0.00979879 0)
(1.48634 -0.00923759 0)
(1.47534 -0.00866438 0)
(1.46518 -0.00808648 0)
(1.45573 -0.0075135 0)
(1.44686 -0.00695453 0)
(1.43849 -0.00641722 0)
(1.43053 -0.00590624 0)
(1.42294 -0.00542429 0)
(1.41564 -0.00497253 0)
(1.40861 -0.00455134 0)
(1.40182 -0.00416023 0)
(1.39523 -0.00379861 0)
(1.38881 -0.00346577 0)
(1.38257 -0.00316087 0)
(1.37647 -0.00288387 0)
(1.3705 -0.00263141 0)
(1.36466 -0.00239705 0)
(1.35891 -0.00217046 0)
(1.3533 -0.00196103 0)
(1.34771 -0.00175013 0)
(1.34236 -0.0015731 0)
(1.33676 -0.00135715 0)
(1.33182 -0.00124543 0)
(1.32582 -0.000918085 0)
(1.32173 -0.00108974 0)
(1.3145 -7.03394e-05 0)
(1.31218 -0.00210081 0)
(1.30414 0.00274632 0)
(1.30414 -0.0128743 0)
(1.31989 0.0137397 0)
(4.5012 0.0271445 0)
(4.5241 0.0740974 0)
(4.56261 0.113123 0)
(4.60781 0.145498 0)
(4.65109 0.171218 0)
(4.68619 0.189625 0)
(4.70956 0.200817 0)
(4.71983 0.20552 0)
(4.71771 0.204867 0)
(4.70436 0.199968 0)
(4.68192 0.191757 0)
(4.65231 0.181134 0)
(4.61733 0.168947 0)
(4.57857 0.155917 0)
(4.5374 0.142633 0)
(4.49489 0.129546 0)
(4.45192 0.116997 0)
(4.4091 0.105229 0)
(4.36689 0.0943756 0)
(4.32559 0.0845073 0)
(4.2854 0.0756368 0)
(4.24645 0.0677365 0)
(4.20878 0.0607526 0)
(4.17241 0.0546146 0)
(4.13733 0.049243 0)
(4.10349 0.0445553 0)
(4.07086 0.0404699 0)
(4.03939 0.036908 0)
(4.00899 0.0337905 0)
(3.97964 0.0310519 0)
(3.9513 0.0286408 0)
(3.92392 0.0265148 0)
(3.89745 0.0246357 0)
(3.87186 0.0229695 0)
(3.8471 0.0214876 0)
(3.82314 0.0201666 0)
(3.79995 0.0189862 0)
(3.7775 0.0179272 0)
(3.75577 0.0169735 0)
(3.73472 0.0161101 0)
(3.71434 0.0153258 0)
(3.69459 0.0146092 0)
(3.67546 0.0139536 0)
(3.65691 0.0133495 0)
(3.63894 0.0127939 0)
(3.62149 0.0122806 0)
(3.60459 0.0118088 0)
(3.58815 0.0113802 0)
(3.57224 0.0109803 0)
(3.55669 0.0106381 0)
(3.54171 0.0102796 0)
(3.52694 0.0100571 0)
(3.51279 0.00966705 0)
(3.49869 0.00970951 0)
(3.48515 0.00905011 0)
(3.47192 0.00980832 0)
(3.45777 0.00798903 0)
(3.44707 0.0105555 0)
(3.42611 0.00422585 0)
(3.42744 0.0106016 0)
(4.50044 0.0159468 0)
(4.51244 0.0465531 0)
(4.53677 0.0743882 0)
(4.57247 0.0985833 0)
(4.61761 0.118658 0)
(4.66964 0.134146 0)
(4.72577 0.144833 0)
(4.78321 0.150861 0)
(4.83955 0.152696 0)
(4.89301 0.150989 0)
(4.9424 0.146374 0)
(4.98702 0.139544 0)
(5.02655 0.131217 0)
(5.06097 0.122051 0)
(5.09051 0.112591 0)
(5.11551 0.103251 0)
(5.13639 0.0943352 0)
(5.15358 0.0860506 0)
(5.1675 0.0785145 0)
(5.17858 0.0717746 0)
(5.18719 0.0658267 0)
(5.19367 0.0606343 0)
(5.19832 0.05614 0)
(5.20142 0.0522746 0)
(5.20318 0.0489628 0)
(5.20378 0.0461288 0)
(5.2034 0.0436985 0)
(5.20215 0.0416087 0)
(5.20015 0.0398115 0)
(5.19751 0.0382593 0)
(5.1943 0.0369062 0)
(5.19058 0.0357134 0)
(5.18642 0.0346495 0)
(5.18185 0.0336898 0)
(5.17692 0.0328141 0)
(5.17166 0.0320067 0)
(5.16611 0.0312541 0)
(5.16028 0.030546 0)
(5.15421 0.0298733 0)
(5.14791 0.0292302 0)
(5.1414 0.0286113 0)
(5.13469 0.0280144 0)
(5.12782 0.027436 0)
(5.12078 0.0268771 0)
(5.11359 0.0263346 0)
(5.10628 0.0258134 0)
(5.09882 0.0253053 0)
(5.09129 0.024823 0)
(5.08357 0.0243468 0)
(5.07588 0.0239122 0)
(5.06787 0.0234655 0)
(5.06013 0.0231008 0)
(5.05172 0.0226751 0)
(5.04418 0.0224299 0)
(5.03494 0.0220001 0)
(5.02817 0.0219633 0)
(5.0169 0.0214865 0)
(5.01216 0.0218432 0)
(4.99554 0.0219945 0)
(4.99658 0.0241572 0)
(4.50039 0.011229 0)
(4.51114 0.0330747 0)
(4.5327 0.0531184 0)
(4.56407 0.0703561 0)
(4.60359 0.0842838 0)
(4.64931 0.0947286 0)
(4.69932 0.101713 0)
(4.75188 0.105465 0)
(4.80545 0.106421 0)
(4.85877 0.105135 0)
(4.91085 0.10214 0)
(4.96096 0.0979346 0)
(5.00852 0.0929548 0)
(5.05317 0.0875723 0)
(5.09467 0.0820682 0)
(5.13297 0.0766479 0)
(5.16816 0.0714347 0)
(5.20036 0.0665106 0)
(5.2298 0.06193 0)
(5.25669 0.0577286 0)
(5.2813 0.0539169 0)
(5.30389 0.0504925 0)
(5.3247 0.0474384 0)
(5.34395 0.044733 0)
(5.36184 0.0423474 0)
(5.37855 0.0402529 0)
(5.39423 0.0384176 0)
(5.40902 0.0368142 0)
(5.42301 0.0354152 0)
(5.43633 0.0341944 0)
(5.44903 0.0331227 0)
(5.46119 0.0321765 0)
(5.47285 0.0313343 0)
(5.48407 0.0305806 0)
(5.49487 0.0298996 0)
(5.5053 0.029279 0)
(5.51536 0.0287067 0)
(5.52508 0.0281763 0)
(5.53448 0.0276802 0)
(5.54357 0.0272155 0)
(5.55236 0.026777 0)
(5.56088 0.0263644 0)
(5.5691 0.0259733 0)
(5.57707 0.0256057 0)
(5.58476 0.0252571 0)
(5.59222 0.0249315 0)
(5.59939 0.0246226 0)
(5.60635 0.0243368 0)
(5.61301 0.0240687 0)
(5.61951 0.0238263 0)
(5.62565 0.0236105 0)
(5.63173 0.0234151 0)
(5.63732 0.0232771 0)
(5.64305 0.0231176 0)
(5.648 0.0231341 0)
(5.6535 0.0229733 0)
(5.65755 0.0234812 0)
(5.66309 0.0234006 0)
(5.66607 0.0259558 0)
(5.67286 0.0265871 0)
(4.50035 0.00661854 0)
(4.51027 0.0194743 0)
(4.53023 0.0312513 0)
(4.55948 0.0413605 0)
(4.59663 0.0495023 0)
(4.63986 0.0556066 0)
(4.68733 0.0597309 0)
(4.73741 0.0620285 0)
(4.78868 0.0627584 0)
(4.83993 0.0622271 0)
(4.89022 0.0607286 0)
(4.93881 0.0585027 0)
(4.98515 0.0557489 0)
(5.02888 0.0526435 0)
(5.0698 0.0493399 0)
(5.10782 0.0459665 0)
(5.14299 0.0426154 0)
(5.17544 0.0393598 0)
(5.20537 0.0362634 0)
(5.23298 0.0333841 0)
(5.25851 0.0307653 0)
(5.2822 0.0284262 0)
(5.30425 0.0263643 0)
(5.32489 0.0245625 0)
(5.34429 0.0229979 0)
(5.36263 0.0216455 0)
(5.38004 0.0204812 0)
(5.39667 0.0194809 0)
(5.41261 0.018623 0)
(5.42796 0.0178863 0)
(5.44279 0.0172518 0)
(5.45719 0.016702 0)
(5.47119 0.0162232 0)
(5.48485 0.0158031 0)
(5.49819 0.0154326 0)
(5.51126 0.0151032 0)
(5.52407 0.014809 0)
(5.53665 0.0145447 0)
(5.54901 0.0143068 0)
(5.56117 0.0140917 0)
(5.57314 0.0138971 0)
(5.58493 0.0137207 0)
(5.59655 0.0135616 0)
(5.608 0.0134182 0)
(5.61929 0.0132911 0)
(5.63043 0.0131779 0)
(5.64141 0.013083 0)
(5.65224 0.0129997 0)
(5.66294 0.0129433 0)
(5.67348 0.0128919 0)
(5.6839 0.0128905 0)
(5.69415 0.0128676 0)
(5.70432 0.0129543 0)
(5.71428 0.0129363 0)
(5.72425 0.0132018 0)
(5.73395 0.0131555 0)
(5.7439 0.0139522 0)
(5.75357 0.013972 0)
(5.76425 0.016432 0)
(5.77489 0.016687 0)
(4.50032 0.00217832 0)
(4.50983 0.00639907 0)
(4.52901 0.0102639 0)
(4.55723 0.0135865 0)
(4.59324 0.0162693 0)
(4.63532 0.0182906 0)
(4.68171 0.0196764 0)
(4.73081 0.0204846 0)
(4.78123 0.0207939 0)
(4.83176 0.0206893 0)
(4.88144 0.0202539 0)
(4.92951 0.0195539 0)
(4.97542 0.0186533 0)
(5.0188 0.017611 0)
(5.05945 0.0164845 0)
(5.09727 0.015316 0)
(5.1323 0.014151 0)
(5.16467 0.0130274 0)
(5.19457 0.011976 0)
(5.2222 0.0110221 0)
(5.24777 0.0101884 0)
(5.27151 0.0094817 0)
(5.29361 0.00889663 0)
(5.31427 0.00841796 0)
(5.33369 0.00802946 0)
(5.35201 0.00771436 0)
(5.36941 0.00745907 0)
(5.386 0.00725109 0)
(5.4019 0.00708103 0)
(5.41721 0.00694051 0)
(5.432 0.00682343 0)
(5.44635 0.00672419 0)
(5.46032 0.00663905 0)
(5.47394 0.00656465 0)
(5.48726 0.00649908 0)
(5.50031 0.0064405 0)
(5.51311 0.00638799 0)
(5.52569 0.00634058 0)
(5.53806 0.00629792 0)
(5.55024 0.00625963 0)
(5.56224 0.00622576 0)
(5.57408 0.00619644 0)
(5.58575 0.00617227 0)
(5.59727 0.00615375 0)
(5.60865 0.00614217 0)
(5.61989 0.00613799 0)
(5.631 0.00614404 0)
(5.64196 0.00615958 0)
(5.65281 0.00619155 0)
(5.66352 0.0062341 0)
(5.67414 0.00630514 0)
(5.68459 0.00638149 0)
(5.69501 0.00651142 0)
(5.70522 0.00662268 0)
(5.71551 0.00685234 0)
(5.72554 0.00700206 0)
(5.73599 0.00746093 0)
(5.7462 0.00769691 0)
(5.75766 0.00871795 0)
(5.7691 0.00906214 0)
(4.50032 -0.00217823 0)
(4.50983 -0.00639896 0)
(4.52901 -0.0102638 0)
(4.55723 -0.0135864 0)
(4.59324 -0.0162692 0)
(4.63532 -0.0182904 0)
(4.68171 -0.0196762 0)
(4.73081 -0.0204843 0)
(4.78123 -0.0207934 0)
(4.83176 -0.0206887 0)
(4.88144 -0.0202532 0)
(4.92951 -0.0195529 0)
(4.97542 -0.0186522 0)
(5.0188 -0.0176095 0)
(5.05945 -0.0164827 0)
(5.09727 -0.0153138 0)
(5.1323 -0.0141482 0)
(5.16467 -0.013024 0)
(5.19457 -0.0119718 0)
(5.2222 -0.0110169 0)
(5.24777 -0.0101821 0)
(5.27151 -0.00947403 0)
(5.29361 -0.00888731 0)
(5.31428 -0.00840665 0)
(5.33369 -0.00801576 0)
(5.35201 -0.00769777 0)
(5.36941 -0.00743899 0)
(5.386 -0.00722681 0)
(5.4019 -0.0070517 0)
(5.41721 -0.0069051 0)
(5.43201 -0.00678071 0)
(5.44636 -0.0066727 0)
(5.46032 -0.00657705 0)
(5.47394 -0.00649009 0)
(5.48726 -0.00640953 0)
(5.50031 -0.00633307 0)
(5.51312 -0.00625925 0)
(5.5257 -0.00618635 0)
(5.53807 -0.00611339 0)
(5.55026 -0.00603883 0)
(5.56226 -0.00596202 0)
(5.5741 -0.00588126 0)
(5.58578 -0.00579639 0)
(5.5973 -0.0057049 0)
(5.60869 -0.0056077 0)
(5.61993 -0.00550003 0)
(5.63104 -0.00538578 0)
(5.64202 -0.00525467 0)
(5.65288 -0.00511873 0)
(5.6636 -0.00495348 0)
(5.67424 -0.00479168 0)
(5.6847 -0.00457277 0)
(5.69514 -0.0043838 0)
(5.70537 -0.00407715 0)
(5.71568 -0.00388574 0)
(5.72573 -0.00345874 0)
(5.7362 -0.00341226 0)
(5.7464 -0.00289996 0)
(5.75787 -0.0034407 0)
(5.76927 -0.00290144 0)
(4.50035 -0.00661847 0)
(4.51027 -0.0194742 0)
(4.53023 -0.0312512 0)
(4.55948 -0.0413603 0)
(4.59663 -0.0495021 0)
(4.63986 -0.0556063 0)
(4.68733 -0.0597307 0)
(4.73741 -0.0620282 0)
(4.78868 -0.062758 0)
(4.83993 -0.0622265 0)
(4.89022 -0.0607279 0)
(4.93881 -0.0585018 0)
(4.98515 -0.0557478 0)
(5.02888 -0.0526421 0)
(5.0698 -0.0493381 0)
(5.10782 -0.0459643 0)
(5.14299 -0.0426127 0)
(5.17544 -0.0393564 0)
(5.20537 -0.0362593 0)
(5.23298 -0.033379 0)
(5.25851 -0.0307591 0)
(5.2822 -0.0284186 0)
(5.30425 -0.0263551 0)
(5.32489 -0.0245512 0)
(5.34429 -0.0229843 0)
(5.36263 -0.021629 0)
(5.38005 -0.0204612 0)
(5.39667 -0.0194568 0)
(5.41261 -0.0185939 0)
(5.42796 -0.0178511 0)
(5.4428 -0.0172094 0)
(5.4572 -0.016651 0)
(5.4712 -0.0161618 0)
(5.48486 -0.0157293 0)
(5.49821 -0.0153439 0)
(5.51128 -0.0149968 0)
(5.5241 -0.0146816 0)
(5.53668 -0.0143922 0)
(5.54905 -0.0141244 0)
(5.56122 -0.0138736 0)
(5.5732 -0.0136368 0)
(5.585 -0.0134099 0)
(5.59663 -0.0131912 0)
(5.60809 -0.0129762 0)
(5.6194 -0.0127652 0)
(5.63056 -0.0125503 0)
(5.64157 -0.0123374 0)
(5.65243 -0.0121098 0)
(5.66316 -0.0118892 0)
(5.67375 -0.0116334 0)
(5.68422 -0.0114057 0)
(5.69453 -0.0110908 0)
(5.70477 -0.0108692 0)
(5.71482 -0.0104314 0)
(5.72488 -0.01029 0)
(5.73466 -0.0096431 0)
(5.74471 -0.00994813 0)
(5.75442 -0.00914371 0)
(5.76516 -0.0111578 0)
(5.77574 -0.0103706 0)
(4.50039 -0.011229 0)
(4.51114 -0.0330746 0)
(4.5327 -0.0531183 0)
(4.56407 -0.0703559 0)
(4.60359 -0.0842836 0)
(4.64931 -0.0947284 0)
(4.69932 -0.101713 0)
(4.75188 -0.105465 0)
(4.80545 -0.106421 0)
(4.85877 -0.105134 0)
(4.91085 -0.10214 0)
(4.96096 -0.0979338 0)
(5.00852 -0.0929538 0)
(5.05317 -0.087571 0)
(5.09467 -0.0820665 0)
(5.13297 -0.0766459 0)
(5.16816 -0.0714321 0)
(5.20037 -0.0665075 0)
(5.2298 -0.0619261 0)
(5.25669 -0.0577238 0)
(5.28131 -0.053911 0)
(5.30389 -0.0504854 0)
(5.3247 -0.0474296 0)
(5.34395 -0.0447224 0)
(5.36184 -0.0423345 0)
(5.37856 -0.0402372 0)
(5.39424 -0.0383987 0)
(5.40903 -0.0367913 0)
(5.42303 -0.0353875 0)
(5.43634 -0.034161 0)
(5.44905 -0.0330824 0)
(5.46121 -0.0321281 0)
(5.47288 -0.031276 0)
(5.48411 -0.0305107 0)
(5.49492 -0.0298156 0)
(5.50535 -0.0291783 0)
(5.51542 -0.0285862 0)
(5.52516 -0.0280319 0)
(5.53458 -0.0275075 0)
(5.54369 -0.0270091 0)
(5.55251 -0.0265308 0)
(5.56105 -0.0260705 0)
(5.56932 -0.0256234 0)
(5.57733 -0.0251885 0)
(5.58508 -0.0247616 0)
(5.5926 -0.0243403 0)
(5.59985 -0.023921 0)
(5.60691 -0.0234988 0)
(5.61368 -0.0230783 0)
(5.62033 -0.0226423 0)
(5.62663 -0.0222191 0)
(5.63292 -0.0217449 0)
(5.63874 -0.02133 0)
(5.64478 -0.0207595 0)
(5.65003 -0.0204184 0)
(5.65594 -0.019632 0)
(5.66037 -0.0197221 0)
(5.66637 -0.0186774 0)
(5.66974 -0.0209027 0)
(5.67693 -0.0201207 0)
(4.50044 -0.0159468 0)
(4.51244 -0.0465531 0)
(4.53677 -0.0743881 0)
(4.57247 -0.0985832 0)
(4.61761 -0.118658 0)
(4.66964 -0.134146 0)
(4.72577 -0.144832 0)
(4.78321 -0.15086 0)
(4.83955 -0.152696 0)
(4.89301 -0.150988 0)
(4.9424 -0.146373 0)
(4.98702 -0.139543 0)
(5.02655 -0.131216 0)
(5.06097 -0.12205 0)
(5.09051 -0.11259 0)
(5.11551 -0.103249 0)
(5.13639 -0.0943328 0)
(5.15358 -0.0860476 0)
(5.16751 -0.0785109 0)
(5.17858 -0.0717702 0)
(5.18719 -0.0658214 0)
(5.19367 -0.0606279 0)
(5.19833 -0.0561321 0)
(5.20143 -0.0522652 0)
(5.20319 -0.0489514 0)
(5.2038 -0.0461151 0)
(5.20342 -0.043682 0)
(5.20217 -0.041589 0)
(5.20019 -0.0397878 0)
(5.19755 -0.0382309 0)
(5.19435 -0.0368721 0)
(5.19064 -0.0356727 0)
(5.18649 -0.0346008 0)
(5.18194 -0.0336316 0)
(5.17703 -0.0327444 0)
(5.1718 -0.0319233 0)
(5.16628 -0.0311543 0)
(5.16049 -0.0304266 0)
(5.15446 -0.0297306 0)
(5.14821 -0.0290597 0)
(5.14176 -0.028408 0)
(5.13514 -0.0277719 0)
(5.12835 -0.0271477 0)
(5.12143 -0.0265338 0)
(5.11437 -0.0259278 0)
(5.10723 -0.0253289 0)
(5.09994 -0.0247314 0)
(5.09266 -0.0241376 0)
(5.08518 -0.0235384 0)
(5.07786 -0.0229441 0)
(5.07018 -0.0223311 0)
(5.06299 -0.0217341 0)
(5.055 -0.02109 0)
(5.04828 -0.0204954 0)
(5.03958 -0.019787 0)
(5.034 -0.0191855 0)
(5.02337 -0.0183708 0)
(5.02027 -0.0177417 0)
(5.00426 -0.017629 0)
(5.00724 -0.0182044 0)
(4.5012 -0.0271446 0)
(4.5241 -0.0740975 0)
(4.56261 -0.113123 0)
(4.60781 -0.145498 0)
(4.65109 -0.171218 0)
(4.68619 -0.189624 0)
(4.70956 -0.200816 0)
(4.71983 -0.20552 0)
(4.71771 -0.204867 0)
(4.70436 -0.199968 0)
(4.68192 -0.191756 0)
(4.65231 -0.181134 0)
(4.61734 -0.168946 0)
(4.57858 -0.155916 0)
(4.5374 -0.142632 0)
(4.49489 -0.129544 0)
(4.45193 -0.116995 0)
(4.40911 -0.105227 0)
(4.3669 -0.0943731 0)
(4.3256 -0.0845042 0)
(4.28541 -0.0756331 0)
(4.24646 -0.067732 0)
(4.2088 -0.0607472 0)
(4.17243 -0.054608 0)
(4.13735 -0.0492351 0)
(4.10352 -0.0445459 0)
(4.0709 -0.0404585 0)
(4.03944 -0.0368943 0)
(4.00905 -0.0337742 0)
(3.97972 -0.0310323 0)
(3.95139 -0.0286175 0)
(3.92403 -0.0264869 0)
(3.89758 -0.0246025 0)
(3.87202 -0.0229297 0)
(3.84729 -0.0214401 0)
(3.82337 -0.0201098 0)
(3.80023 -0.0189184 0)
(3.77784 -0.0178462 0)
(3.75618 -0.016877 0)
(3.73522 -0.015995 0)
(3.71493 -0.0151889 0)
(3.6953 -0.0144458 0)
(3.6763 -0.0137593 0)
(3.65792 -0.0131176 0)
(3.64014 -0.0125193 0)
(3.62294 -0.0119534 0)
(3.6063 -0.0114258 0)
(3.59022 -0.0109238 0)
(3.57466 -0.0104494 0)
(3.55965 -0.00999814 0)
(3.54511 -0.0095448 0)
(3.53116 -0.00915442 0)
(3.51752 -0.00865804 0)
(3.50476 -0.00842094 0)
(3.49167 -0.00767622 0)
(3.48066 -0.00789736 0)
(3.46661 -0.0060768 0)
(3.45957 -0.00740636 0)
(3.43764 -0.00129192 0)
(3.44453 -0.00465604 0)
(4.48821 -0.0202151 0)
(4.42422 -0.0734035 0)
(4.29798 -0.11796 0)
(4.12358 -0.147724 0)
(3.91906 -0.162748 0)
(3.69988 -0.16481 0)
(3.47648 -0.156872 0)
(3.25714 -0.141952 0)
(3.04832 -0.123637 0)
(2.85237 -0.104124 0)
(2.67284 -0.0845873 0)
(2.51066 -0.0664423 0)
(2.3658 -0.050327 0)
(2.23772 -0.0364925 0)
(2.12547 -0.0249344 0)
(2.02783 -0.0155012 0)
(1.94341 -0.00796353 0)
(1.87076 -0.00206646 0)
(1.80845 0.00244405 0)
(1.75513 0.00580341 0)
(1.70952 0.00822245 0)
(1.67051 0.00988338 0)
(1.63707 0.0109397 0)
(1.60832 0.011519 0)
(1.58349 0.0117247 0)
(1.56191 0.0116421 0)
(1.54305 0.011335 0)
(1.52646 0.0108744 0)
(1.5117 0.0103506 0)
(1.49845 0.0098047 0)
(1.48644 0.00924461 0)
(1.47545 0.00867274 0)
(1.46532 0.00809648 0)
(1.45589 0.00752543 0)
(1.44706 0.00696871 0)
(1.43872 0.00643392 0)
(1.43081 0.00592595 0)
(1.42327 0.00544754 0)
(1.41604 0.00500005 0)
(1.40909 0.00458399 0)
(1.40238 0.00419906 0)
(1.3959 0.00384508 0)
(1.38962 0.00352161 0)
(1.38353 0.00322842 0)
(1.37761 0.00296616 0)
(1.37186 0.00272794 0)
(1.36626 0.00250439 0)
(1.36082 0.00229437 0)
(1.35555 0.00209863 0)
(1.35041 0.00191523 0)
(1.34551 0.00175366 0)
(1.34057 0.00158256 0)
(1.3362 0.00148192 0)
(1.33121 0.00123212 0)
(1.32779 0.00140064 0)
(1.32225 0.000542532 0)
(1.3204 0.00257123 0)
(1.31579 -0.00167129 0)
(1.3145 0.0141679 0)
(1.33711 -0.00925909 0)
(1.26255 0.0164008 0)
(1.28608 0.00156872 0)
(1.29655 0.00334761 0)
(1.2904 0.00332432 0)
(1.27938 0.00239095 0)
(1.27076 0.00147338 0)
(1.26468 0.000879219 0)
(1.25999 0.000579008 0)
(1.25582 0.000436587 0)
(1.2519 0.000343956 0)
(1.24834 0.000281336 0)
(1.24524 0.000253623 0)
(1.24261 0.000253611 0)
(1.2404 0.000265945 0)
(1.23856 0.000279405 0)
(1.23707 0.000290358 0)
(1.23587 0.000297653 0)
(1.23493 0.000300621 0)
(1.23423 0.000299304 0)
(1.23373 0.000294973 0)
(1.23341 0.000287358 0)
(1.23326 0.000278878 0)
(1.23323 0.000270223 0)
(1.23333 0.000259951 0)
(1.23353 0.000249435 0)
(1.23381 0.000238873 0)
(1.23418 0.000229135 0)
(1.23461 0.000220476 0)
(1.23509 0.000211822 0)
(1.23563 0.000203783 0)
(1.2362 0.000196268 0)
(1.23682 0.000189592 0)
(1.23746 0.00018339 0)
(1.23812 0.000177395 0)
(1.23882 0.000171727 0)
(1.23954 0.000166466 0)
(1.24028 0.00016152 0)
(1.24105 0.000156828 0)
(1.24183 0.000152343 0)
(1.24265 0.000148064 0)
(1.24349 0.000143936 0)
(1.24435 0.000139901 0)
(1.24525 0.00013596 0)
(1.24617 0.000132114 0)
(1.24713 0.000128335 0)
(1.24813 0.000124599 0)
(1.24916 0.000120894 0)
(1.25024 0.000117195 0)
(1.25136 0.000113497 0)
(1.25253 0.000109807 0)
(1.25376 0.000106132 0)
(1.25503 0.000102474 0)
(1.25636 9.88405e-05 0)
(1.25774 9.52438e-05 0)
(1.25917 9.16993e-05 0)
(1.26067 8.82286e-05 0)
(1.26222 8.48524e-05 0)
(1.26382 8.15906e-05 0)
(1.26548 7.84651e-05 0)
(1.26718 7.54952e-05 0)
(1.26894 7.27002e-05 0)
(1.27073 7.01016e-05 0)
(1.27257 6.77165e-05 0)
(1.27443 6.55596e-05 0)
(1.27633 6.36452e-05 0)
(1.27824 6.19831e-05 0)
(1.28017 6.05803e-05 0)
(1.28211 5.94426e-05 0)
(1.28404 5.85702e-05 0)
(1.28598 5.79592e-05 0)
(1.28789 5.76049e-05 0)
(1.28979 5.74966e-05 0)
(1.29166 5.76198e-05 0)
(1.2935 5.79598e-05 0)
(1.2953 5.84972e-05 0)
(1.29705 5.92091e-05 0)
(1.29875 6.00659e-05 0)
(1.3004 6.10315e-05 0)
(1.302 6.20716e-05 0)
(1.30353 6.31574e-05 0)
(1.30501 6.42596e-05 0)
(1.30643 6.53491e-05 0)
(1.30779 6.64003e-05 0)
(1.30909 6.7386e-05 0)
(1.31034 6.82802e-05 0)
(1.31154 6.90609e-05 0)
(1.3127 6.97053e-05 0)
(1.31381 7.01925e-05 0)
(1.31489 7.05069e-05 0)
(1.31594 7.06335e-05 0)
(1.31698 7.05607e-05 0)
(1.318 7.02834e-05 0)
(1.31901 6.97983e-05 0)
(1.32003 6.91064e-05 0)
(1.32106 6.82159e-05 0)
(1.3221 6.71373e-05 0)
(1.32317 6.58854e-05 0)
(1.32427 6.44823e-05 0)
(1.3254 6.29517e-05 0)
(1.32658 6.13206e-05 0)
(1.3278 5.96218e-05 0)
(1.32907 5.78876e-05 0)
(1.33038 5.61518e-05 0)
(1.33175 5.44509e-05 0)
(1.33318 5.28191e-05 0)
(1.33465 5.12887e-05 0)
(1.33618 4.98928e-05 0)
(1.33775 4.86589e-05 0)
(1.33937 4.76107e-05 0)
(1.34103 4.67702e-05 0)
(1.34273 4.61521e-05 0)
(1.34447 4.5766e-05 0)
(1.34623 4.56185e-05 0)
(1.34803 4.57093e-05 0)
(1.34984 4.60338e-05 0)
(1.35168 4.65864e-05 0)
(1.35352 4.73561e-05 0)
(1.35538 4.83286e-05 0)
(1.35725 4.94908e-05 0)
(1.35912 5.0826e-05 0)
(1.36099 5.2317e-05 0)
(1.36287 5.39499e-05 0)
(1.36474 5.57093e-05 0)
(1.36662 5.75818e-05 0)
(1.3685 5.95589e-05 0)
(1.37038 6.16325e-05 0)
(1.37226 6.37975e-05 0)
(1.37414 6.60551e-05 0)
(1.37603 6.84073e-05 0)
(1.37793 7.08597e-05 0)
(1.37984 7.34238e-05 0)
(1.38175 7.61136e-05 0)
(1.38368 7.89387e-05 0)
(1.38563 8.19271e-05 0)
(1.38758 8.50969e-05 0)
(1.38956 8.84592e-05 0)
(1.39154 9.2055e-05 0)
(1.39354 9.59013e-05 0)
(1.39555 0.000100012 0)
(1.39757 0.000104428 0)
(1.39959 0.000109165 0)
(1.40162 0.000114232 0)
(1.40364 0.000119667 0)
(1.40565 0.000125476 0)
(1.40764 0.000131662 0)
(1.40961 0.000138251 0)
(1.41156 0.00014524 0)
(1.41346 0.000152616 0)
(1.41532 0.000160394 0)
(1.41712 0.000168556 0)
(1.41887 0.000177077 0)
(1.42055 0.000185954 0)
(1.42215 0.000195156 0)
(1.42367 0.000204644 0)
(1.42511 0.000214401 0)
(1.42646 0.000224385 0)
(1.42772 0.000234543 0)
(1.42889 0.000244852 0)
(1.42996 0.000255258 0)
(1.43095 0.000265705 0)
(1.43184 0.000276163 0)
(1.43264 0.00028658 0)
(1.43337 0.0002969 0)
(1.43402 0.000307099 0)
(1.4346 0.000317129 0)
(1.43512 0.000326945 0)
(1.43559 0.000336534 0)
(1.43602 0.000345864 0)
(1.43641 0.000354904 0)
(1.43679 0.000363661 0)
(1.43715 0.00037212 0)
(1.43751 0.000380272 0)
(1.43788 0.000388141 0)
(1.43826 0.000395735 0)
(1.43867 0.00040306 0)
(1.43911 0.00041016 0)
(1.43959 0.000417057 0)
(1.44012 0.000423771 0)
(1.4407 0.000430357 0)
(1.44132 0.000436845 0)
(1.44201 0.000443261 0)
(1.44275 0.000449661 0)
(1.44355 0.000456075 0)
(1.4444 0.000462526 0)
(1.4453 0.000469065 0)
(1.44626 0.00047571 0)
(1.44726 0.000482475 0)
(1.44831 0.000489402 0)
(1.44939 0.000496498 0)
(1.4505 0.00050376 0)
(1.45164 0.00051121 0)
(1.4528 0.000518836 0)
(1.45398 0.000526618 0)
(1.45517 0.000534559 0)
(1.45636 0.000542635 0)
(1.45755 0.00055081 0)
(1.45874 0.000559078 0)
(1.45992 0.000567402 0)
(1.4611 0.000575741 0)
(1.46226 0.000584082 0)
(1.46341 0.000592389 0)
(1.46454 0.000600619 0)
(1.46567 0.000608766 0)
(1.46678 0.000616797 0)
(1.46788 0.00062468 0)
(1.46898 0.000632418 0)
(1.47007 0.00063999 0)
(1.47116 0.000647376 0)
(1.47225 0.000654591 0)
(1.47335 0.000661626 0)
(1.47445 0.000668471 0)
(1.47557 0.000675152 0)
(1.4767 0.00068167 0)
(1.47784 0.000688022 0)
(1.479 0.000694243 0)
(1.48017 0.000700339 0)
(1.48137 0.000706313 0)
(1.48258 0.000712202 0)
(1.48381 0.000718017 0)
(1.48505 0.000723763 0)
(1.48631 0.000729478 0)
(1.48757 0.000735173 0)
(1.48884 0.000740851 0)
(1.49012 0.000746549 0)
(1.49139 0.000752273 0)
(1.49265 0.000758024 0)
(1.4939 0.000763833 0)
(1.49512 0.0007697 0)
(1.49633 0.000775624 0)
(1.49749 0.000781629 0)
(1.49862 0.000787712 0)
(1.49971 0.000793862 0)
(1.50075 0.000800101 0)
(1.50173 0.000806414 0)
(1.50265 0.000812784 0)
(1.50351 0.000819216 0)
(1.5043 0.000825689 0)
(1.50502 0.000832166 0)
(1.50567 0.000838652 0)
(1.50625 0.000845107 0)
(1.50676 0.000851504 0)
(1.50721 0.000857827 0)
(1.50759 0.000864063 0)
(1.5079 0.000870157 0)
(1.50816 0.000876138 0)
(1.50837 0.000881937 0)
(1.50853 0.000887574 0)
(1.50865 0.000892955 0)
(1.50874 0.000898165 0)
(1.5088 0.000902966 0)
(1.50884 0.000907621 0)
(1.50888 0.00091166 0)
(1.50891 0.000915685 0)
(1.50896 0.000918759 0)
(1.50903 0.000922301 0)
(1.50914 0.000924129 0)
(1.50928 0.000927531 0)
(1.50949 0.00092777 0)
(1.50972 0.000931926 0)
(1.51005 0.000929542 0)
(1.51037 0.000936347 0)
(1.51086 0.000929008 0)
(1.51127 0.000941658 0)
(1.51195 0.000924512 0)
(1.51243 0.000949396 0)
(1.51339 0.000913216 0)
(1.51386 0.000961617 0)
(1.51525 0.000887882 0)
(1.51559 0.000976232 0)
(1.51835 0.000823678 0)
(3.33059 0.0163828 0)
(3.28072 0.010085 0)
(3.25057 0.00979686 0)
(3.22303 0.0105923 0)
(3.19737 0.0103036 0)
(3.17599 0.00935599 0)
(3.15908 0.00856297 0)
(3.14551 0.00814901 0)
(3.13398 0.00786269 0)
(3.12383 0.00749153 0)
(3.11488 0.00703308 0)
(3.10708 0.00655248 0)
(3.10035 0.00609192 0)
(3.0946 0.00566399 0)
(3.08975 0.00527184 0)
(3.08569 0.00491703 0)
(3.08236 0.00459838 0)
(3.07968 0.00431267 0)
(3.07759 0.00405541 0)
(3.07603 0.00382322 0)
(3.07494 0.00361231 0)
(3.07428 0.00342034 0)
(3.07402 0.0032452 0)
(3.0741 0.00308394 0)
(3.0745 0.00293451 0)
(3.07518 0.00279499 0)
(3.07613 0.00266491 0)
(3.07731 0.00254354 0)
(3.07872 0.00242917 0)
(3.08032 0.00232133 0)
(3.0821 0.00221914 0)
(3.08406 0.00212343 0)
(3.08616 0.00203248 0)
(3.08841 0.00194508 0)
(3.0908 0.00186161 0)
(3.09331 0.00178241 0)
(3.09594 0.00170718 0)
(3.09868 0.0016356 0)
(3.10154 0.00156738 0)
(3.10449 0.00150247 0)
(3.10754 0.00144059 0)
(3.11069 0.00138143 0)
(3.11392 0.00132488 0)
(3.11725 0.00127083 0)
(3.12066 0.00121911 0)
(3.12416 0.00116962 0)
(3.12774 0.00112225 0)
(3.13141 0.00107686 0)
(3.13516 0.00103333 0)
(3.13899 0.000991595 0)
(3.1429 0.000951603 0)
(3.14689 0.000913285 0)
(3.15096 0.000876584 0)
(3.15511 0.000841459 0)
(3.15933 0.00080789 0)
(3.16363 0.00077587 0)
(3.16799 0.000745392 0)
(3.17243 0.000716443 0)
(3.17692 0.000689011 0)
(3.18148 0.000663085 0)
(3.18609 0.000638652 0)
(3.19075 0.000615705 0)
(3.19545 0.000594228 0)
(3.20019 0.000574201 0)
(3.20496 0.000555601 0)
(3.20975 0.000538404 0)
(3.21455 0.000522578 0)
(3.21937 0.00050809 0)
(3.22418 0.000494896 0)
(3.22899 0.000482948 0)
(3.23378 0.000472192 0)
(3.23855 0.000462565 0)
(3.24329 0.000453998 0)
(3.24799 0.000446414 0)
(3.25265 0.000439727 0)
(3.25727 0.000433865 0)
(3.26183 0.00042875 0)
(3.26633 0.000424295 0)
(3.27078 0.000420401 0)
(3.27516 0.000416971 0)
(3.27948 0.000413904 0)
(3.28374 0.000411099 0)
(3.28793 0.000408458 0)
(3.29207 0.000405886 0)
(3.29614 0.000403292 0)
(3.30016 0.000400594 0)
(3.30413 0.000397713 0)
(3.30806 0.000394579 0)
(3.31194 0.000391132 0)
(3.31579 0.000387322 0)
(3.31961 0.000383108 0)
(3.32342 0.000378466 0)
(3.32721 0.00037338 0)
(3.331 0.000367847 0)
(3.33478 0.000361878 0)
(3.33858 0.000355496 0)
(3.34239 0.000348734 0)
(3.34623 0.00034164 0)
(3.35009 0.000334272 0)
(3.35398 0.000326695 0)
(3.35791 0.000318985 0)
(3.36187 0.000311223 0)
(3.36588 0.000303491 0)
(3.36993 0.000295875 0)
(3.37401 0.00028846 0)
(3.37814 0.000281328 0)
(3.38231 0.000274556 0)
(3.38652 0.000268213 0)
(3.39076 0.000262359 0)
(3.39504 0.000257045 0)
(3.39934 0.000252307 0)
(3.40367 0.000248171 0)
(3.40801 0.000244653 0)
(3.41238 0.000241755 0)
(3.41675 0.000239465 0)
(3.42114 0.000237765 0)
(3.42553 0.000236626 0)
(3.42992 0.000236011 0)
(3.43431 0.000235879 0)
(3.4387 0.000236188 0)
(3.44308 0.000236892 0)
(3.44745 0.000237949 0)
(3.45182 0.000239321 0)
(3.45617 0.000240972 0)
(3.46052 0.000242876 0)
(3.46486 0.000245012 0)
(3.4692 0.000247367 0)
(3.47353 0.000249941 0)
(3.47785 0.000252742 0)
(3.48217 0.000255787 0)
(3.48649 0.000259103 0)
(3.49081 0.00026273 0)
(3.49513 0.000266707 0)
(3.49946 0.000271092 0)
(3.50378 0.000275947 0)
(3.50811 0.00028132 0)
(3.51243 0.000287295 0)
(3.51676 0.000293936 0)
(3.52109 0.0003013 0)
(3.5254 0.000309466 0)
(3.52971 0.000318496 0)
(3.53401 0.000328434 0)
(3.53829 0.000339345 0)
(3.54254 0.000351266 0)
(3.54676 0.000364218 0)
(3.55095 0.000378235 0)
(3.55509 0.000393323 0)
(3.55918 0.000409465 0)
(3.56321 0.000426657 0)
(3.56717 0.000444865 0)
(3.57106 0.00046403 0)
(3.57487 0.000484109 0)
(3.5786 0.000505026 0)
(3.58223 0.000526685 0)
(3.58576 0.000549005 0)
(3.5892 0.000571879 0)
(3.59253 0.00059518 0)
(3.59576 0.000618804 0)
(3.59888 0.000642623 0)
(3.60191 0.000666499 0)
(3.60483 0.000690319 0)
(3.60765 0.000713958 0)
(3.61038 0.000737284 0)
(3.61303 0.0007602 0)
(3.61559 0.000782601 0)
(3.61809 0.000804386 0)
(3.62052 0.00082549 0)
(3.6229 0.000845851 0)
(3.62523 0.00086541 0)
(3.62753 0.000884154 0)
(3.62981 0.000902072 0)
(3.63207 0.000919156 0)
(3.63433 0.000935446 0)
(3.63659 0.00095098 0)
(3.63886 0.0009658 0)
(3.64115 0.000979988 0)
(3.64346 0.000993621 0)
(3.64581 0.00100677 0)
(3.64819 0.00101955 0)
(3.65062 0.00103206 0)
(3.65308 0.00104438 0)
(3.65559 0.00105662 0)
(3.65814 0.00106887 0)
(3.66074 0.00108123 0)
(3.66337 0.00109377 0)
(3.66605 0.00110657 0)
(3.66876 0.00111966 0)
(3.6715 0.00113312 0)
(3.67427 0.00114699 0)
(3.67706 0.00116125 0)
(3.67988 0.00117595 0)
(3.6827 0.00119107 0)
(3.68554 0.00120658 0)
(3.68838 0.00122247 0)
(3.69122 0.00123868 0)
(3.69405 0.00125517 0)
(3.69688 0.00127187 0)
(3.69971 0.00128873 0)
(3.70251 0.00130567 0)
(3.70531 0.00132263 0)
(3.70809 0.00133954 0)
(3.71086 0.00135632 0)
(3.71362 0.00137294 0)
(3.71636 0.00138935 0)
(3.7191 0.00140549 0)
(3.72182 0.00142135 0)
(3.72454 0.0014369 0)
(3.72726 0.00145214 0)
(3.72998 0.00146707 0)
(3.73269 0.00148171 0)
(3.73542 0.00149607 0)
(3.73815 0.00151018 0)
(3.74088 0.00152408 0)
(3.74363 0.00153778 0)
(3.74638 0.00155135 0)
(3.74915 0.00156483 0)
(3.75193 0.00157824 0)
(3.75471 0.00159164 0)
(3.75751 0.00160506 0)
(3.76031 0.00161854 0)
(3.76311 0.00163213 0)
(3.76591 0.00164584 0)
(3.76871 0.00165969 0)
(3.7715 0.00167372 0)
(3.77428 0.00168792 0)
(3.77703 0.0017023 0)
(3.77977 0.00171687 0)
(3.78247 0.00173161 0)
(3.78514 0.0017465 0)
(3.78776 0.00176153 0)
(3.79035 0.00177669 0)
(3.79288 0.00179194 0)
(3.79535 0.00180724 0)
(3.79777 0.00182258 0)
(3.80012 0.00183788 0)
(3.80241 0.00185312 0)
(3.80463 0.00186822 0)
(3.80678 0.00188312 0)
(3.80886 0.00189775 0)
(3.81087 0.00191206 0)
(3.81282 0.00192597 0)
(3.8147 0.00193944 0)
(3.81653 0.00195243 0)
(3.8183 0.00196488 0)
(3.82001 0.0019768 0)
(3.82169 0.00198813 0)
(3.82332 0.00199887 0)
(3.82493 0.00200892 0)
(3.82651 0.00201837 0)
(3.82807 0.00202691 0)
(3.82962 0.00203485 0)
(3.83118 0.0020416 0)
(3.83273 0.00204792 0)
(3.83432 0.00205263 0)
(3.83593 0.00205761 0)
(3.83759 0.00205999 0)
(3.83927 0.00206435 0)
(3.84104 0.00206413 0)
(3.84281 0.00206972 0)
(3.84473 0.0020654 0)
(3.84656 0.0020756 0)
(3.84868 0.00206321 0)
(3.85054 0.00208382 0)
(3.85293 0.00205402 0)
(3.85472 0.00209749 0)
(3.85755 0.00203161 0)
(3.85908 0.002121 0)
(3.86266 0.00198054 0)
(3.86353 0.00213719 0)
(3.869 0.00180639 0)
(4.94124 0.0504786 0)
(4.87942 0.0467406 0)
(4.82061 0.0374936 0)
(4.76106 0.0327624 0)
(4.70655 0.0287186 0)
(4.6616 0.0241735 0)
(4.62673 0.0204926 0)
(4.60006 0.0181748 0)
(4.57927 0.0166847 0)
(4.56276 0.0154937 0)
(4.54949 0.0144577 0)
(4.53874 0.0135651 0)
(4.52999 0.0127899 0)
(4.52288 0.0120918 0)
(4.51715 0.0114467 0)
(4.5126 0.0108461 0)
(4.50908 0.0102855 0)
(4.50647 0.00975985 0)
(4.50468 0.00926574 0)
(4.50361 0.00880103 0)
(4.5032 0.00836403 0)
(4.50338 0.00795383 0)