/*--------------------------------*- C++ -*----------------------------------*\
  =========                 |
  \\      /  F ield         | OpenFOAM: The Open Source CFD Toolbox
   \\    /   O peration     | Website:  https://openfoam.org
    \\  /    A nd           | Version:  7
     \\/     M anipulation  |
\*---------------------------------------------------------------------------*/
FoamFile
{
    version     2.0;
    format      ascii;
    class       volScalarField;
    location    "0.665";
    object      alphat;
}
// * * * * * * * * * * * * * * * * * * * * * * * * * * * * * * * * * * * * * //

dimensions      [1 -1 -1 0 0 0 0];

internalField   nonuniform List<scalar> 
13200
(
0.00991643
0.0101835
0.0101809
0.0101803
0.0101771
0.0101763
0.0101746
0.0101747
0.0101738
0.0101743
0.0101739
0.0101746
0.0101746
0.0101752
0.0101752
0.0101753
0.0101755
0.0101747
0.0101784
0.0101829
0.00480297
0.00457662
0.00442277
0.00436257
0.00434093
0.00433552
0.00432821
0.00432779
0.00432401
0.00432397
0.00432179
0.00432192
0.00432015
0.00432031
0.00431882
0.00431904
0.00431786
0.00431791
0.00432498
0.00432798
0.00300321
0.00299348
0.00293663
0.00289341
0.00287354
0.00286604
0.00285846
0.00285586
0.00285111
0.00284953
0.00284623
0.00284506
0.00284245
0.0028415
0.00283923
0.00283864
0.00283644
0.00283651
0.00283433
0.00284147
0.00253399
0.00268123
0.00269556
0.00269411
0.00269102
0.00268967
0.00268699
0.00268604
0.00268371
0.00268264
0.00268067
0.00267972
0.00267813
0.0026772
0.00267562
0.00267478
0.00267322
0.00267273
0.00267094
0.00267533
0.00242616
0.00262146
0.0026562
0.00266635
0.00266827
0.00267043
0.00267094
0.00267205
0.00267178
0.00267216
0.00267155
0.00267164
0.002671
0.00267095
0.00267008
0.00266999
0.00266884
0.00266862
0.00266741
0.00266977
0.0024114
0.00261356
0.00265286
0.00266609
0.00266965
0.00267373
0.00267538
0.0026779
0.00267893
0.00268048
0.00268076
0.00268177
0.00268191
0.00268274
0.00268258
0.00268326
0.00268258
0.00268282
0.00268225
0.00268373
0.0024068
0.00260934
0.00264923
0.00266323
0.00266751
0.00267256
0.00267496
0.00267837
0.00268032
0.00268282
0.00268389
0.00268577
0.00268661
0.00268828
0.00268887
0.00269028
0.00269023
0.00269097
0.00269081
0.0026925
0.00240904
0.00260975
0.00264949
0.00266359
0.00266825
0.00267383
0.0026767
0.00268063
0.00268319
0.00268645
0.00268804
0.00269061
0.00269195
0.00269427
0.00269547
0.00269749
0.00269808
0.00269916
0.00269965
0.00270132
0.00240856
0.00260851
0.00264795
0.00266186
0.00266654
0.00267223
0.00267525
0.00267943
0.00268223
0.00268586
0.00268773
0.00269071
0.00269238
0.00269514
0.00269677
0.00269923
0.00270028
0.0027017
0.00270253
0.00270459
0.00240961
0.00260881
0.00264809
0.00266195
0.00266664
0.00267236
0.00267545
0.00267971
0.0026826
0.00268636
0.00268835
0.00269151
0.00269332
0.00269628
0.00269812
0.00270078
0.0027021
0.0027036
0.00270482
0.00270683
0.00240961
0.00260881
0.00264809
0.00266195
0.00266664
0.00267236
0.00267545
0.00267971
0.0026826
0.00268636
0.00268835
0.00269151
0.00269332
0.00269628
0.00269812
0.00270078
0.0027021
0.00270361
0.00270482
0.00270685
0.00240856
0.00260851
0.00264795
0.00266186
0.00266654
0.00267223
0.00267525
0.00267943
0.00268224
0.00268585
0.00268773
0.00269071
0.00269238
0.00269514
0.00269677
0.00269923
0.00270029
0.0027017
0.00270254
0.00270463
0.00240904
0.00260975
0.00264949
0.00266359
0.00266825
0.00267383
0.00267671
0.00268063
0.00268319
0.00268645
0.00268804
0.00269061
0.00269195
0.00269426
0.00269548
0.00269749
0.00269809
0.00269917
0.00269965
0.00270138
0.0024068
0.00260934
0.00264923
0.00266323
0.00266751
0.00267256
0.00267496
0.00267837
0.00268032
0.00268282
0.0026839
0.00268576
0.00268661
0.00268827
0.00268888
0.00269028
0.00269024
0.00269098
0.00269083
0.00269258
0.0024114
0.00261356
0.00265286
0.00266609
0.00266965
0.00267373
0.00267538
0.0026779
0.00267893
0.00268047
0.00268077
0.00268177
0.00268193
0.00268273
0.00268261
0.00268325
0.0026826
0.00268282
0.00268231
0.0026837
0.00242616
0.00262146
0.0026562
0.00266635
0.00266827
0.00267042
0.00267094
0.00267205
0.00267179
0.00267215
0.00267155
0.00267163
0.00267103
0.00267094
0.00267013
0.00266996
0.00266889
0.00266857
0.00266756
0.0026696
0.00253399
0.00268123
0.00269556
0.00269411
0.00269102
0.00268967
0.00268699
0.00268604
0.00268371
0.00268264
0.00268068
0.00267971
0.00267816
0.00267717
0.00267566
0.00267473
0.00267327
0.00267264
0.00267117
0.00267485
0.00300321
0.00299348
0.00293663
0.00289341
0.00287354
0.00286604
0.00285846
0.00285585
0.00285111
0.00284952
0.00284623
0.00284505
0.00284246
0.00284148
0.00283925
0.00283858
0.0028365
0.00283636
0.00283459
0.00284081
0.00480297
0.00457662
0.00442277
0.00436257
0.00434093
0.00433552
0.00432821
0.00432779
0.00432401
0.00432397
0.0043218
0.00432192
0.00432016
0.0043203
0.00431884
0.00431902
0.00431789
0.00431785
0.00432499
0.00432723
0.00991643
0.0101835
0.0101809
0.0101803
0.0101771
0.0101763
0.0101746
0.0101747
0.0101738
0.0101743
0.0101739
0.0101746
0.0101746
0.0101752
0.0101751
0.0101754
0.0101753
0.010175
0.0101778
0.0101844
0.00278342
0.00296864
0.00293945
0.00290574
0.00290016
0.00288702
0.00288713
0.00287938
0.00288024
0.00287478
0.00287564
0.00287157
0.00287227
0.00286921
0.00286975
0.00286745
0.00286785
0.00286602
0.00286559
0.00287168
0.0022979
0.00264901
0.00268623
0.00268101
0.00267461
0.00266895
0.00266589
0.00266249
0.0026605
0.00265794
0.00265638
0.0026543
0.00265297
0.00265143
0.0026504
0.00264955
0.00264855
0.00264904
0.00264645
0.00265103
0.00213321
0.0025065
0.00256446
0.00257845
0.00258241
0.00258594
0.00258688
0.00258837
0.00258825
0.00258875
0.00258823
0.00258821
0.0025874
0.00258708
0.00258624
0.00258606
0.00258525
0.00258553
0.00258404
0.00259069
0.00211341
0.00248869
0.002544
0.00255619
0.00255903
0.00256292
0.00256477
0.0025675
0.00256865
0.00257051
0.00257116
0.00257234
0.00257257
0.00257305
0.00257298
0.00257311
0.00257297
0.00257306
0.00257278
0.00257446
0.00210343
0.00247901
0.00253382
0.00254472
0.00254528
0.00254737
0.00254772
0.00254971
0.00255026
0.00255187
0.00255248
0.00255396
0.00255441
0.00255535
0.00255556
0.00255605
0.00255633
0.00255649
0.00255673
0.00255902
0.00210796
0.00248397
0.00253849
0.00254913
0.00254931
0.00255076
0.0025501
0.00255133
0.002551
0.00255206
0.00255215
0.0025531
0.00255325
0.00255397
0.00255399
0.00255447
0.00255463
0.00255487
0.002555
0.00255617
0.00210465
0.00248029
0.00253472
0.00254539
0.00254551
0.00254691
0.00254602
0.00254698
0.00254626
0.00254703
0.00254679
0.0025475
0.00254739
0.00254771
0.00254753
0.00254794
0.0025479
0.00254827
0.00254849
0.00254959
0.00210766
0.00248349
0.0025377
0.00254831
0.00254846
0.00254989
0.002549
0.00254991
0.00254911
0.00254981
0.00254947
0.00255012
0.00254988
0.00255002
0.00254964
0.00254996
0.00254976
0.00255015
0.00255021
0.00255121
0.00210614
0.00248169
0.00253587
0.0025464
0.00254653
0.00254796
0.00254706
0.00254798
0.00254718
0.00254787
0.00254755
0.00254818
0.00254792
0.00254801
0.00254757
0.00254782
0.00254757
0.002548
0.00254803
0.00254907
0.00210728
0.00248284
0.00253693
0.00254741
0.00254753
0.00254894
0.00254804
0.00254897
0.00254817
0.00254886
0.00254855
0.00254918
0.00254891
0.00254899
0.00254852
0.00254874
0.00254848
0.00254891
0.00254893
0.00255001
0.00210728
0.00248284
0.00253693
0.00254741
0.00254753
0.00254894
0.00254804
0.00254897
0.00254817
0.00254886
0.00254855
0.00254918
0.00254891
0.00254899
0.00254852
0.00254874
0.00254848
0.00254891
0.00254892
0.00255001
0.00210614
0.00248169
0.00253587
0.0025464
0.00254653
0.00254796
0.00254706
0.00254798
0.00254718
0.00254787
0.00254755
0.00254818
0.00254792
0.00254801
0.00254757
0.00254782
0.00254757
0.00254799
0.00254803
0.0025491
0.00210766
0.00248349
0.0025377
0.00254831
0.00254846
0.00254989
0.002549
0.00254991
0.00254911
0.0025498
0.00254948
0.00255012
0.00254988
0.00255002
0.00254964
0.00254996
0.00254976
0.00255015
0.00255018
0.00255123
0.00210465
0.00248029
0.00253472
0.00254539
0.00254551
0.00254691
0.00254602
0.00254698
0.00254626
0.00254702
0.00254679
0.0025475
0.0025474
0.00254771
0.00254752
0.00254795
0.00254789
0.00254827
0.0025485
0.00254964
0.00210796
0.00248397
0.00253849
0.00254913
0.00254931
0.00255075
0.00255011
0.00255133
0.002551
0.00255206
0.00255215
0.0025531
0.00255326
0.00255397
0.00255397
0.00255449
0.0025546
0.00255488
0.002555
0.00255611
0.00210343
0.00247901
0.00253382
0.00254472
0.00254528
0.00254736
0.00254772
0.0025497
0.00255026
0.00255186
0.00255249
0.00255395
0.0025544
0.00255537
0.00255553
0.00255608
0.00255628
0.00255651
0.00255681
0.00255885
0.00211341
0.00248869
0.002544
0.00255619
0.00255903
0.00256292
0.00256477
0.0025675
0.00256865
0.0025705
0.00257116
0.00257233
0.00257257
0.00257304
0.00257297
0.0025731
0.00257301
0.00257291
0.00257291
0.00257409
0.00213321
0.0025065
0.00256446
0.00257845
0.00258241
0.00258594
0.00258688
0.00258836
0.00258826
0.00258874
0.00258824
0.00258819
0.00258742
0.00258704
0.00258631
0.00258594
0.00258547
0.00258527
0.00258449
0.00258967
0.0022979
0.00264901
0.00268623
0.00268101
0.00267461
0.00266895
0.0026659
0.00266249
0.0026605
0.00265793
0.00265638
0.00265428
0.002653
0.00265138
0.00265048
0.00264943
0.00264875
0.00264868
0.00264715
0.00264956
0.00278342
0.00296864
0.00293945
0.00290574
0.00290016
0.00288702
0.00288713
0.00287938
0.00288024
0.00287478
0.00287564
0.00287157
0.00287228
0.00286921
0.00286978
0.00286743
0.00286793
0.00286594
0.00286593
0.00287064
0.00106719
0.0012086
0.00112226
0.00100736
0.000935441
0.000895737
0.00086748
0.000847936
0.000831258
0.000817925
0.000806569
0.000796819
0.00078885
0.000781971
0.000776731
0.000773002
0.000769533
0.000770069
0.000763876
0.000774019
0.000436151
0.000698026
0.000766554
0.000779247
0.000779118
0.000776745
0.00077108
0.000765236
0.000759015
0.000753231
0.000747466
0.000742272
0.000737223
0.000733111
0.000728954
0.000726577
0.000723118
0.000723095
0.000719754
0.000723347
0.000189856
0.000431399
0.000522038
0.000561071
0.000577671
0.000591624
0.000600423
0.000609816
0.000616003
0.000622411
0.000626469
0.000630443
0.000632682
0.000634695
0.000635351
0.000635944
0.000635495
0.000635521
0.000634429
0.000635549
0.000174571
0.000393947
0.00047709
0.000515858
0.000530426
0.000540215
0.000544584
0.000549773
0.000553019
0.000557317
0.000560736
0.000564633
0.000567925
0.000570944
0.00057358
0.000575511
0.000577382
0.000578139
0.000579455
0.000580258
0.000170826
0.000384709
0.000463296
0.000501979
0.000515825
0.000524913
0.000527325
0.000530336
0.000531019
0.000532488
0.000533242
0.000534741
0.000535798
0.000536994
0.000538077
0.00053883
0.000539989
0.000540349
0.00054126
0.000541809
0.000174388
0.000390996
0.000469193
0.000506794
0.000520812
0.000529377
0.000531865
0.000534265
0.000534631
0.000535332
0.000535565
0.000536041
0.000536365
0.000536608
0.000536863
0.000536805
0.000537187
0.000537034
0.000537363
0.000537707
0.000171945
0.000386769
0.000464936
0.000502866
0.000516669
0.000525369
0.000527667
0.000530094
0.000530343
0.000530913
0.000531
0.000531285
0.000531327
0.000531366
0.000531264
0.000531055
0.000531011
0.000530794
0.000530755
0.000530896
0.000173964
0.000390429
0.00046868
0.000506135
0.000519993
0.000528463
0.000530878
0.000533198
0.000533494
0.000534066
0.00053418
0.000534418
0.000534462
0.000534432
0.00053433
0.000534079
0.000534043
0.000533772
0.000533784
0.000533907
0.000172739
0.000388218
0.00046644
0.000504094
0.000517862
0.000526424
0.000528755
0.000531124
0.000531398
0.00053198
0.000532084
0.000532338
0.000532353
0.000532325
0.000532186
0.00053198
0.000531879
0.000531684
0.000531587
0.000531721
0.000173424
0.000389486
0.000467752
0.000505243
0.000519013
0.000527488
0.000529844
0.000532173
0.00053246
0.000533042
0.000533159
0.000533404
0.00053343
0.000533396
0.000533269
0.000533052
0.000532978
0.000532764
0.000532713
0.000532856
0.000173424
0.000389486
0.000467752
0.000505243
0.000519013
0.000527488
0.000529844
0.000532173
0.00053246
0.000533042
0.000533159
0.000533404
0.00053343
0.000533396
0.000533269
0.000533053
0.000532978
0.000532767
0.000532715
0.00053286
0.000172739
0.000388218
0.00046644
0.000504094
0.000517862
0.000526424
0.000528755
0.000531124
0.000531398
0.00053198
0.000532084
0.000532338
0.000532352
0.000532325
0.000532187
0.000531978
0.000531879
0.00053168
0.000531583
0.000531719
0.000173964
0.000390429
0.00046868
0.000506135
0.000519993
0.000528464
0.000530877
0.000533198
0.000533494
0.000534067
0.00053418
0.000534419
0.000534461
0.000534433
0.000534328
0.000534081
0.000534042
0.000533777
0.000533782
0.000533915
0.000171945
0.000386769
0.000464936
0.000502866
0.000516669
0.000525369
0.000527667
0.000530094
0.000530343
0.000530913
0.000531
0.000531287
0.000531326
0.000531368
0.000531258
0.000531058
0.000531005
0.000530794
0.000530744
0.000530898
0.000174388
0.000390997
0.000469193
0.000506794
0.000520812
0.000529377
0.000531865
0.000534265
0.000534632
0.000535332
0.000535565
0.000536044
0.000536358
0.000536617
0.000536851
0.000536816
0.000537172
0.00053704
0.000537344
0.00053771
0.000170826
0.000384709
0.000463296
0.000501979
0.000515825
0.000524913
0.000527326
0.000530335
0.00053102
0.000532487
0.000533244
0.000534742
0.000535789
0.000537003
0.00053806
0.00053884
0.000539964
0.000540344
0.000541222
0.000541778
0.000174571
0.000393947
0.00047709
0.000515858
0.000530426
0.000540215
0.000544584
0.000549772
0.00055302
0.000557314
0.000560737
0.000564628
0.000567927
0.000570933
0.00057358
0.000575484
0.000577383
0.000578076
0.000579413
0.000580119
0.000189856
0.000431399
0.000522038
0.000561071
0.000577672
0.000591623
0.000600423
0.000609814
0.000616005
0.000622406
0.000626476
0.000630428
0.0006327
0.000634655
0.000635396
0.00063584
0.000635597
0.000635317
0.00063456
0.000635132
0.000436151
0.000698026
0.000766554
0.000779246
0.000779119
0.000776744
0.000771081
0.000765235
0.000759016
0.000753228
0.000747471
0.000742263
0.000737241
0.000733081
0.00072901
0.000726484
0.000723298
0.000722728
0.000720347
0.00072244
0.00106719
0.0012086
0.00112226
0.00100736
0.000935441
0.000895737
0.00086748
0.000847936
0.000831259
0.000817929
0.000806572
0.00079683
0.000788862
0.000781998
0.000776778
0.000773057
0.000769731
0.000770103
0.000764679
0.000773358
0.00106719
0.0012086
0.00112226
0.00100736
0.00093544
0.000895736
0.00086748
0.000847935
0.000831257
0.000817925
0.000806569
0.000796818
0.00078885
0.000781971
0.000776731
0.000773002
0.000769533
0.000770069
0.000763876
0.000774019
0.000436151
0.000698026
0.000766554
0.000779247
0.000779118
0.000776745
0.00077108
0.000765236
0.000759015
0.000753231
0.000747466
0.000742272
0.000737223
0.000733111
0.000728954
0.000726577
0.000723118
0.000723095
0.000719754
0.000723347
0.000189856
0.000431399
0.000522038
0.000561071
0.000577671
0.000591624
0.000600423
0.000609816
0.000616003
0.000622411
0.000626469
0.000630443
0.000632682
0.000634695
0.000635351
0.000635944
0.000635495
0.000635521
0.00063443
0.000635549
0.000174571
0.000393947
0.00047709
0.000515858
0.000530426
0.000540215
0.000544584
0.000549773
0.000553019
0.000557317
0.000560736
0.000564633
0.000567925
0.000570943
0.00057358
0.00057551
0.000577382
0.000578139
0.000579455
0.000580259
0.000170826
0.000384709
0.000463296
0.000501979
0.000515825
0.000524914
0.000527325
0.000530336
0.000531019
0.000532488
0.000533242
0.000534742
0.000535798
0.000536994
0.000538077
0.00053883
0.000539989
0.000540348
0.00054126
0.000541809
0.000174388
0.000390997
0.000469193
0.000506794
0.000520812
0.000529377
0.000531866
0.000534265
0.000534631
0.000535332
0.000535565
0.000536041
0.000536366
0.000536608
0.000536863
0.000536804
0.000537187
0.000537034
0.000537363
0.000537706
0.000171945
0.000386769
0.000464936
0.000502866
0.000516669
0.000525369
0.000527667
0.000530094
0.000530343
0.000530913
0.000531
0.000531286
0.000531327
0.000531366
0.000531264
0.000531055
0.000531011
0.000530794
0.000530755
0.000530896
0.000173964
0.000390429
0.00046868
0.000506135
0.000519993
0.000528464
0.000530878
0.000533198
0.000533494
0.000534066
0.00053418
0.000534418
0.000534462
0.000534432
0.00053433
0.000534079
0.000534043
0.000533772
0.000533784
0.000533907
0.000172739
0.000388218
0.00046644
0.000504094
0.000517862
0.000526424
0.000528755
0.000531125
0.000531398
0.00053198
0.000532084
0.000532338
0.000532353
0.000532325
0.000532186
0.00053198
0.000531879
0.000531684
0.000531587
0.000531721
0.000173424
0.000389486
0.000467753
0.000505244
0.000519013
0.000527488
0.000529844
0.000532174
0.00053246
0.000533042
0.000533159
0.000533404
0.00053343
0.000533396
0.000533269
0.000533052
0.000532978
0.000532764
0.000532713
0.000532856
0.000173424
0.000389486
0.000467753
0.000505244
0.000519013
0.000527488
0.000529844
0.000532174
0.00053246
0.000533043
0.000533159
0.000533405
0.00053343
0.000533396
0.000533269
0.000533053
0.000532978
0.000532767
0.000532715
0.00053286
0.000172739
0.000388218
0.00046644
0.000504094
0.000517862
0.000526424
0.000528755
0.000531125
0.000531398
0.00053198
0.000532084
0.000532338
0.000532353
0.000532325
0.000532187
0.000531978
0.00053188
0.00053168
0.000531583
0.000531719
0.000173964
0.000390429
0.00046868
0.000506135
0.000519993
0.000528464
0.000530877
0.000533198
0.000533494
0.000534067
0.00053418
0.000534419
0.000534461
0.000534433
0.000534328
0.000534081
0.000534043
0.000533777
0.000533782
0.000533915
0.000171945
0.000386769
0.000464936
0.000502866
0.000516669
0.000525369
0.000527667
0.000530094
0.000530343
0.000530914
0.000531
0.000531287
0.000531326
0.000531368
0.000531259
0.000531059
0.000531006
0.000530794
0.000530744
0.000530899
0.000174388
0.000390997
0.000469193
0.000506794
0.000520812
0.000529377
0.000531865
0.000534265
0.000534632
0.000535332
0.000535566
0.000536044
0.000536358
0.000536617
0.000536851
0.000536816
0.000537173
0.000537041
0.000537344
0.000537711
0.000170826
0.00038471
0.000463296
0.000501979
0.000515825
0.000524913
0.000527326
0.000530335
0.000531021
0.000532488
0.000533244
0.000534743
0.000535789
0.000537003
0.000538061
0.00053884
0.000539964
0.000540344
0.000541222
0.000541778
0.000174571
0.000393947
0.00047709
0.000515858
0.000530426
0.000540215
0.000544584
0.000549772
0.00055302
0.000557314
0.000560737
0.000564628
0.000567927
0.000570934
0.000573581
0.000575485
0.000577384
0.000578076
0.000579413
0.000580119
0.000189856
0.000431399
0.000522038
0.000561071
0.000577672
0.000591623
0.000600423
0.000609814
0.000616005
0.000622406
0.000626476
0.000630428
0.0006327
0.000634655
0.000635396
0.000635841
0.000635597
0.000635317
0.00063456
0.000635132
0.000436151
0.000698026
0.000766554
0.000779246
0.000779119
0.000776744
0.000771081
0.000765235
0.000759016
0.000753228
0.000747471
0.000742263
0.000737241
0.00073308
0.00072901
0.000726484
0.000723298
0.000722728
0.000720347
0.00072244
0.00106719
0.0012086
0.00112226
0.00100736
0.000935441
0.000895737
0.000867481
0.000847937
0.000831259
0.000817929
0.000806572
0.00079683
0.000788862
0.000781998
0.000776778
0.000773057
0.000769731
0.000770103
0.000764679
0.000773358
0.00278342
0.00296864
0.00293945
0.00290574
0.00290016
0.00288702
0.00288713
0.00287938
0.00288024
0.00287478
0.00287564
0.00287157
0.00287227
0.00286921
0.00286975
0.00286745
0.00286785
0.00286602
0.00286559
0.00287168
0.0022979
0.00264901
0.00268623
0.00268101
0.00267461
0.00266895
0.00266589
0.00266249
0.0026605
0.00265794
0.00265638
0.0026543
0.00265297
0.00265143
0.0026504
0.00264955
0.00264855
0.00264904
0.00264645
0.00265103
0.00213321
0.0025065
0.00256446
0.00257845
0.00258241
0.00258594
0.00258688
0.00258837
0.00258825
0.00258875
0.00258823
0.00258821
0.0025874
0.00258707
0.00258624
0.00258606
0.00258525
0.00258553
0.00258403
0.00259069
0.00211341
0.00248869
0.002544
0.00255619
0.00255903
0.00256292
0.00256477
0.0025675
0.00256865
0.00257051
0.00257116
0.00257234
0.00257257
0.00257305
0.00257298
0.00257311
0.00257297
0.00257306
0.00257278
0.00257445
0.00210343
0.00247901
0.00253382
0.00254472
0.00254528
0.00254737
0.00254772
0.00254971
0.00255026
0.00255187
0.00255248
0.00255396
0.00255441
0.00255535
0.00255556
0.00255605
0.00255633
0.00255649
0.00255673
0.00255902
0.00210796
0.00248397
0.00253849
0.00254913
0.00254931
0.00255076
0.0025501
0.00255133
0.002551
0.00255206
0.00255215
0.0025531
0.00255325
0.00255397
0.00255399
0.00255447
0.00255463
0.00255487
0.002555
0.00255617
0.00210465
0.00248029
0.00253472
0.00254539
0.00254551
0.00254691
0.00254602
0.00254698
0.00254626
0.00254702
0.00254678
0.0025475
0.00254739
0.00254771
0.00254753
0.00254794
0.0025479
0.00254827
0.00254849
0.00254959
0.00210766
0.00248349
0.0025377
0.00254831
0.00254846
0.00254989
0.002549
0.00254991
0.00254911
0.00254981
0.00254947
0.00255012
0.00254988
0.00255002
0.00254964
0.00254995
0.00254976
0.00255015
0.00255021
0.0025512
0.00210614
0.00248169
0.00253587
0.0025464
0.00254653
0.00254796
0.00254706
0.00254798
0.00254718
0.00254787
0.00254755
0.00254818
0.00254792
0.00254801
0.00254757
0.00254782
0.00254757
0.002548
0.00254803
0.00254907
0.00210728
0.00248284
0.00253693
0.00254741
0.00254753
0.00254894
0.00254804
0.00254897
0.00254817
0.00254886
0.00254855
0.00254918
0.00254891
0.00254899
0.00254852
0.00254874
0.00254848
0.00254891
0.00254893
0.00255001
0.00210728
0.00248284
0.00253693
0.00254741
0.00254753
0.00254894
0.00254804
0.00254897
0.00254817
0.00254886
0.00254855
0.00254918
0.00254891
0.00254899
0.00254852
0.00254874
0.00254848
0.00254891
0.00254892
0.00255001
0.00210614
0.00248169
0.00253587
0.0025464
0.00254653
0.00254796
0.00254706
0.00254798
0.00254718
0.00254787
0.00254755
0.00254818
0.00254792
0.00254801
0.00254757
0.00254782
0.00254757
0.00254799
0.00254803
0.0025491
0.00210766
0.00248349
0.0025377
0.00254831
0.00254846
0.00254989
0.002549
0.00254991
0.00254911
0.0025498
0.00254948
0.00255012
0.00254988
0.00255002
0.00254964
0.00254996
0.00254976
0.00255015
0.00255018
0.00255123
0.00210465
0.00248029
0.00253472
0.00254539
0.00254551
0.00254691
0.00254602
0.00254698
0.00254626
0.00254702
0.00254679
0.0025475
0.0025474
0.00254771
0.00254752
0.00254795
0.00254789
0.00254828
0.0025485
0.00254964
0.00210796
0.00248397
0.00253849
0.00254913
0.00254931
0.00255075
0.0025501
0.00255133
0.002551
0.00255206
0.00255215
0.0025531
0.00255326
0.00255397
0.00255397
0.00255449
0.0025546
0.00255489
0.002555
0.00255611
0.00210343
0.00247901
0.00253382
0.00254472
0.00254528
0.00254736
0.00254772
0.0025497
0.00255026
0.00255186
0.00255249
0.00255395
0.0025544
0.00255537
0.00255553
0.00255609
0.00255629
0.00255651
0.00255681
0.00255885
0.00211341
0.00248869
0.002544
0.00255619
0.00255903
0.00256292
0.00256477
0.0025675
0.00256865
0.0025705
0.00257116
0.00257233
0.00257257
0.00257305
0.00257298
0.00257311
0.00257301
0.00257291
0.00257291
0.00257409
0.00213321
0.0025065
0.00256446
0.00257845
0.00258241
0.00258594
0.00258688
0.00258836
0.00258826
0.00258874
0.00258824
0.0025882
0.00258742
0.00258704
0.00258631
0.00258594
0.00258547
0.00258527
0.00258449
0.00258967
0.0022979
0.00264901
0.00268623
0.00268101
0.00267461
0.00266895
0.0026659
0.00266249
0.0026605
0.00265793
0.00265639
0.00265428
0.002653
0.00265138
0.00265048
0.00264943
0.00264875
0.00264868
0.00264715
0.00264957
0.00278342
0.00296864
0.00293945
0.00290574
0.00290016
0.00288702
0.00288713
0.00287938
0.00288024
0.00287478
0.00287564
0.00287157
0.00287228
0.00286921
0.00286978
0.00286743
0.00286793
0.00286594
0.00286593
0.00287064
0.00991643
0.0101835
0.0101809
0.0101803
0.0101771
0.0101763
0.0101746
0.0101747
0.0101738
0.0101743
0.0101739
0.0101746
0.0101746
0.0101752
0.0101752
0.0101753
0.0101755
0.0101747
0.0101784
0.0101829
0.00480297
0.00457662
0.00442277
0.00436257
0.00434093
0.00433552
0.00432821
0.00432779
0.00432401
0.00432397
0.00432179
0.00432192
0.00432015
0.00432031
0.00431882
0.00431905
0.00431786
0.00431791
0.00432498
0.00432798
0.00300321
0.00299348
0.00293663
0.00289341
0.00287354
0.00286604
0.00285846
0.00285586
0.00285111
0.00284953
0.00284623
0.00284506
0.00284245
0.0028415
0.00283923
0.00283864
0.00283644
0.00283651
0.00283433
0.00284147
0.00253399
0.00268123
0.00269556
0.00269411
0.00269102
0.00268967
0.00268699
0.00268604
0.00268371
0.00268264
0.00268067
0.00267972
0.00267813
0.00267719
0.00267562
0.00267478
0.00267322
0.00267273
0.00267094
0.00267533
0.00242616
0.00262146
0.0026562
0.00266635
0.00266827
0.00267043
0.00267094
0.00267205
0.00267178
0.00267216
0.00267155
0.00267164
0.002671
0.00267095
0.00267008
0.00266999
0.00266884
0.00266862
0.00266741
0.00266977
0.0024114
0.00261356
0.00265286
0.00266609
0.00266965
0.00267373
0.00267538
0.0026779
0.00267893
0.00268048
0.00268076
0.00268177
0.00268191
0.00268274
0.00268258
0.00268326
0.00268258
0.00268282
0.00268225
0.00268373
0.0024068
0.00260934
0.00264923
0.00266323
0.00266751
0.00267256
0.00267496
0.00267837
0.00268032
0.00268282
0.00268389
0.00268577
0.00268661
0.00268828
0.00268887
0.00269028
0.00269023
0.00269097
0.00269081
0.0026925
0.00240904
0.00260975
0.00264949
0.00266359
0.00266825
0.00267383
0.0026767
0.00268063
0.00268319
0.00268645
0.00268804
0.00269061
0.00269195
0.00269427
0.00269547
0.00269749
0.00269808
0.00269916
0.00269965
0.00270132
0.00240856
0.00260851
0.00264795
0.00266186
0.00266654
0.00267223
0.00267525
0.00267943
0.00268223
0.00268586
0.00268773
0.00269071
0.00269238
0.00269514
0.00269677
0.00269923
0.00270028
0.0027017
0.00270253
0.00270459
0.00240961
0.00260881
0.00264809
0.00266195
0.00266664
0.00267236
0.00267545
0.00267971
0.0026826
0.00268636
0.00268835
0.00269151
0.00269332
0.00269628
0.00269812
0.00270078
0.0027021
0.0027036
0.00270482
0.00270683
0.00240961
0.00260881
0.00264809
0.00266195
0.00266664
0.00267236
0.00267545
0.00267971
0.0026826
0.00268636
0.00268835
0.00269151
0.00269332
0.00269628
0.00269812
0.00270078
0.0027021
0.00270361
0.00270482
0.00270685
0.00240856
0.00260851
0.00264795
0.00266186
0.00266654
0.00267223
0.00267525
0.00267943
0.00268224
0.00268585
0.00268773
0.00269071
0.00269238
0.00269514
0.00269677
0.00269923
0.00270029
0.0027017
0.00270254
0.00270463
0.00240904
0.00260975
0.00264949
0.00266359
0.00266825
0.00267383
0.00267671
0.00268063
0.00268319
0.00268645
0.00268804
0.00269061
0.00269195
0.00269426
0.00269548
0.00269749
0.00269809
0.00269917
0.00269965
0.00270138
0.0024068
0.00260934
0.00264923
0.00266323
0.00266751
0.00267256
0.00267496
0.00267837
0.00268032
0.00268282
0.0026839
0.00268576
0.00268661
0.00268827
0.00268888
0.00269028
0.00269024
0.00269098
0.00269083
0.00269258
0.0024114
0.00261356
0.00265286
0.00266609
0.00266965
0.00267373
0.00267538
0.0026779
0.00267893
0.00268047
0.00268077
0.00268177
0.00268193
0.00268273
0.00268261
0.00268325
0.0026826
0.00268282
0.00268231
0.0026837
0.00242616
0.00262146
0.0026562
0.00266635
0.00266827
0.00267042
0.00267094
0.00267205
0.00267179
0.00267215
0.00267155
0.00267163
0.00267103
0.00267094
0.00267013
0.00266996
0.00266888
0.00266857
0.00266756
0.0026696
0.00253399
0.00268123
0.00269556
0.0026941
0.00269102
0.00268967
0.00268699
0.00268604
0.00268371
0.00268264
0.00268068
0.00267971
0.00267816
0.00267717
0.00267566
0.00267473
0.00267327
0.00267264
0.00267117
0.00267485
0.00300321
0.00299348
0.00293663
0.00289341
0.00287354
0.00286604
0.00285846
0.00285585
0.00285111
0.00284952
0.00284623
0.00284505
0.00284246
0.00284148
0.00283925
0.00283858
0.0028365
0.00283636
0.00283459
0.00284081
0.00480297
0.00457662
0.00442277
0.00436257
0.00434093
0.00433552
0.00432821
0.00432779
0.00432401
0.00432397
0.0043218
0.00432192
0.00432016
0.0043203
0.00431883
0.00431902
0.00431789
0.00431784
0.00432499
0.00432723
0.00991643
0.0101835
0.0101809
0.0101803
0.0101771
0.0101763
0.0101746
0.0101747
0.0101738
0.0101743
0.0101739
0.0101746
0.0101746
0.0101752
0.0101751
0.0101754
0.0101753
0.010175
0.0101778
0.0101844
0.027934
0.0279458
0.0279449
0.0279423
0.0279429
0.0279426
0.0279447
0.0279455
0.0279483
0.0279499
0.0279534
0.0279557
0.0279598
0.0279628
0.0279675
0.0279711
0.0279764
0.0279806
0.0279863
0.027991
0.027997
0.028002
0.0280083
0.0280134
0.0280197
0.0280249
0.028031
0.0280361
0.0280421
0.0280471
0.0280528
0.0280576
0.0280632
0.0280678
0.0280732
0.0280777
0.0280829
0.0280873
0.0280924
0.0280967
0.0281017
0.028106
0.0281109
0.0281151
0.0281198
0.0281239
0.0281285
0.0281324
0.0281368
0.0281407
0.0281449
0.0281487
0.0281528
0.0281565
0.0281606
0.0281642
0.0281682
0.0281718
0.0281757
0.0281793
0.0281831
0.0281866
0.0281904
0.0281938
0.0281975
0.0282009
0.0282045
0.0282078
0.0282114
0.0282147
0.0282182
0.0282215
0.028225
0.0282282
0.0282316
0.0282348
0.0282382
0.0282413
0.0282446
0.0282477
0.028251
0.0282541
0.0282573
0.0282605
0.0282637
0.0282668
0.0282699
0.0282733
0.0282738
0.0282867
0.0158162
0.0158834
0.0158812
0.0158802
0.015877
0.0158764
0.0158749
0.0158755
0.0158754
0.0158767
0.0158774
0.0158791
0.0158803
0.0158822
0.0158838
0.0158859
0.0158878
0.0158901
0.0158923
0.0158948
0.0158972
0.0158997
0.0159022
0.0159048
0.0159073
0.0159099
0.0159124
0.0159149
0.0159174
0.0159198
0.0159223
0.0159246
0.015927
0.0159293
0.0159316
0.0159339
0.0159362
0.0159384
0.0159408
0.015943
0.0159453
0.0159475
0.0159499
0.015952
0.0159543
0.0159565
0.0159587
0.0159608
0.015963
0.015965
0.0159672
0.0159692
0.0159713
0.0159733
0.0159754
0.0159774
0.0159795
0.0159814
0.0159835
0.0159855
0.0159875
0.0159895
0.0159915
0.0159934
0.0159954
0.0159973
0.0159992
0.0160011
0.016003
0.0160049
0.0160068
0.0160087
0.0160106
0.0160124
0.0160143
0.0160161
0.016018
0.0160198
0.0160216
0.0160234
0.0160252
0.016027
0.0160288
0.0160307
0.0160324
0.0160343
0.016036
0.016038
0.0160362
0.0160443
0.0106134
0.0107609
0.0107559
0.010756
0.0107489
0.0107487
0.010744
0.0107452
0.0107428
0.0107448
0.0107436
0.0107458
0.0107451
0.0107473
0.010747
0.0107492
0.0107492
0.0107514
0.0107516
0.0107537
0.010754
0.010756
0.0107564
0.0107583
0.0107587
0.0107604
0.0107608
0.0107624
0.0107627
0.0107641
0.0107644
0.0107657
0.010766
0.0107671
0.0107674
0.0107684
0.0107687
0.0107697
0.0107701
0.010771
0.0107714
0.0107724
0.0107727
0.0107737
0.0107741
0.010775
0.0107754
0.0107763
0.0107768
0.0107776
0.0107781
0.010779
0.0107795
0.0107804
0.010781
0.0107818
0.0107825
0.0107834
0.010784
0.010785
0.0107857
0.0107866
0.0107874
0.0107883
0.0107891
0.0107901
0.0107909
0.0107918