/*--------------------------------*- C++ -*----------------------------------*\
  =========                 |
  \\      /  F ield         | OpenFOAM: The Open Source CFD Toolbox
   \\    /   O peration     | Website:  https://openfoam.org
    \\  /    A nd           | Version:  7
     \\/     M anipulation  |
\*---------------------------------------------------------------------------*/
FoamFile
{
    version     2.0;
    format      ascii;
    class       volVectorField;
    location    "0.7775";
    object      UMean;
}
// * * * * * * * * * * * * * * * * * * * * * * * * * * * * * * * * * * * * * //

dimensions      [0 1 -1 0 0 0 0];

internalField   nonuniform List<vector> 
7920
(
(2.9551 0.096344 -32.3683)
(2.18276 -0.455537 -32.4079)
(1.50654 -0.603365 -32.3973)
(1.4263 -0.656598 -32.4076)
(1.20928 -0.67238 -32.3978)
(1.25124 -0.677015 -32.4068)
(1.12123 -0.680879 -32.4014)
(1.17713 -0.681057 -32.4103)
(1.07967 -0.683212 -32.407)
(1.1323 -0.682804 -32.4138)
(1.05468 -0.684192 -32.4111)
(1.10141 -0.68355 -32.4161)
(1.03813 -0.684499 -32.4149)
(1.07895 -0.683922 -32.4187)
(1.02638 -0.684364 -32.4198)
(1.06231 -0.684471 -32.4212)
(1.01568 -0.681122 -32.4265)
(1.04526 -0.687215 -32.421)
(1.00418 -0.633234 -32.4384)
(0.855329 -0.638819 -32.4075)
(4.40938 0.942526 -32.4295)
(4.35428 0.840678 -32.4682)
(3.74135 0.78677 -32.4624)
(3.63874 0.722382 -32.4708)
(3.27992 0.697121 -32.4642)
(3.30894 0.685357 -32.4698)
(3.0781 0.67994 -32.466)
(3.14428 0.677275 -32.4718)
(2.97347 0.675609 -32.4706)
(3.04378 0.674406 -32.4754)
(2.90935 0.6735 -32.475)
(2.97541 0.672647 -32.4784)
(2.86665 0.672089 -32.4789)
(2.92664 0.671594 -32.4812)
(2.83628 0.670901 -32.4837)
(2.89294 0.671867 -32.4835)
(2.80804 0.668336 -32.4904)
(2.88672 0.674974 -32.4828)
(2.75444 0.66602 -32.5026)
(3.05421 0.664648 -32.4591)
(4.74246 0.181152 -32.4371)
(5.23475 -0.241003 -32.4719)
(5.08236 -0.386588 -32.4614)
(5.20114 -0.502777 -32.4705)
(4.96556 -0.56393 -32.4624)
(5.03219 -0.597713 -32.4685)
(4.83301 -0.619106 -32.462)
(4.89429 -0.630928 -32.4672)
(4.73455 -0.639682 -32.4631)
(4.79284 -0.64504 -32.468)
(4.66415 -0.649403 -32.4661)
(4.7181 -0.652371 -32.4704)
(4.61325 -0.654874 -32.4703)
(4.66217 -0.656507 -32.4736)
(4.57633 -0.658582 -32.4757)
(4.61809 -0.657737 -32.4768)
(4.5522 -0.662569 -32.4825)
(4.57086 -0.652825 -32.4787)
(4.54245 -0.65967 -32.4917)
(4.48018 -0.658084 -32.4611)
(4.7429 0.63286 -32.4471)
(5.25447 0.722986 -32.4807)
(5.32507 0.764692 -32.4711)
(5.6117 0.733458 -32.4789)
(5.53061 0.715518 -32.4722)
(5.69298 0.70134 -32.4775)
(5.58518 0.691618 -32.472)
(5.69485 0.684334 -32.4757)
(5.59171 0.679023 -32.4717)
(5.67371 0.674312 -32.4747)
(5.58198 0.671022 -32.4724)
(5.64696 0.667729 -32.4751)
(5.56699 0.665711 -32.4749)
(5.6211 0.663327 -32.4774)
(5.55031 0.662278 -32.4792)
(5.60005 0.660437 -32.4809)
(5.53134 0.661215 -32.4848)
(5.59292 0.659025 -32.4847)
(5.51177 0.670086 -32.4912)
(5.64781 0.691673 -32.4676)
(4.73482 -0.0901326 -32.4463)
(5.22107 -0.386258 -32.4791)
(5.34527 -0.478918 -32.4673)
(5.68049 -0.544687 -32.4754)
(5.6572 -0.579543 -32.4674)
(5.86707 -0.598921 -32.4733)
(5.80961 -0.612069 -32.4669)
(5.95677 -0.619556 -32.4712)
(5.89466 -0.625786 -32.4662)
(6.00465 -0.629832 -32.4695)
(5.94515 -0.633581 -32.4659)
(6.02989 -0.636209 -32.4688)
(5.97506 -0.639031 -32.4671)
(6.04141 -0.640322 -32.4701)
(5.99282 -0.643813 -32.4702)
(6.04286 -0.641164 -32.4734)
(6.00721 -0.651062 -32.4748)
(6.03001 -0.635541 -32.4779)
(6.03041 -0.663858 -32.4805)
(5.99892 -0.668711 -32.4617)
(4.72206 0.345145 -32.45)
(5.16636 0.543932 -32.483)
(5.30142 0.619202 -32.4712)
(5.6516 0.638167 -32.4793)
(5.64977 0.64751 -32.471)
(5.8799 0.650238 -32.477)
(5.84398 0.651825 -32.4705)
(6.00996 0.651759 -32.4749)
(5.96775 0.651916 -32.4698)
(6.09392 0.651302 -32.4731)
(6.05173 0.65118 -32.4693)
(6.14967 0.650507 -32.4722)
(6.10916 0.650589 -32.4699)
(6.18591 0.649669 -32.473)
(6.14826 0.6508 -32.4724)
(6.20771 0.647858 -32.4759)
(6.17702 0.654176 -32.4766)
(6.21782 0.643717 -32.4803)
(6.2101 0.668177 -32.482)
(6.2338 0.687291 -32.4634)
(4.72206 -0.345145 -32.45)
(5.16636 -0.543932 -32.483)
(5.30142 -0.619202 -32.4712)
(5.6516 -0.638167 -32.4793)
(5.64978 -0.647511 -32.471)
(5.8799 -0.650237 -32.477)
(5.84398 -0.651825 -32.4705)
(6.00995 -0.651757 -32.4749)
(5.96775 -0.651914 -32.4698)
(6.09392 -0.651297 -32.4732)
(6.05174 -0.651173 -32.4693)
(6.14966 -0.65049 -32.4722)
(6.10919 -0.650569 -32.4699)
(6.18588 -0.649605 -32.473)
(6.14834 -0.650765 -32.4724)
(6.20763 -0.64761 -32.4759)
(6.17721 -0.654137 -32.4766)
(6.21761 -0.642958 -32.4804)
(6.21025 -0.667862 -32.482)
(6.23335 -0.685804 -32.4634)
(4.73482 0.0901325 -32.4463)
(5.22108 0.386258 -32.4791)
(5.34527 0.478918 -32.4673)
(5.68049 0.544687 -32.4754)
(5.6572 0.579543 -32.4673)
(5.86707 0.598922 -32.4733)
(5.80961 0.61207 -32.4669)
(5.95678 0.619558 -32.4712)
(5.89465 0.625788 -32.4662)
(6.00467 0.629835 -32.4695)
(5.94514 0.63359 -32.4659)
(6.02993 0.63622 -32.4689)
(5.97503 0.639058 -32.4669)
(6.0415 0.64037 -32.4703)
(5.99277 0.643861 -32.4699)
(6.04307 0.641377 -32.4736)
(6.00721 0.651124 -32.4745)
(6.03052 0.636281 -32.4783)
(6.03088 0.664176 -32.48)
(6.00044 0.670335 -32.4622)
(4.7429 -0.63286 -32.4471)
(5.25447 -0.722986 -32.4807)
(5.32507 -0.764692 -32.4711)
(5.6117 -0.733457 -32.4789)
(5.53061 -0.715518 -32.4722)
(5.69298 -0.701339 -32.4775)
(5.58518 -0.691619 -32.4719)
(5.69486 -0.684331 -32.4757)
(5.59171 -0.679023 -32.4716)
(5.67372 -0.674305 -32.4747)
(5.58199 -0.671019 -32.4723)
(5.64699 -0.667711 -32.4753)
(5.56701 -0.665701 -32.4746)
(5.62116 -0.66326 -32.4779)
(5.55039 -0.662267 -32.4786)
(5.60017 -0.660186 -32.4819)
(5.53169 -0.661243 -32.4835)
(5.59312 -0.658317 -32.4865)
(5.51268 -0.670002 -32.4887)
(5.64834 -0.690678 -32.4707)
(4.74246 -0.181152 -32.4371)
(5.23475 0.241003 -32.4719)
(5.08236 0.386588 -32.4614)
(5.20115 0.502777 -32.4705)
(4.96556 0.56393 -32.4624)
(5.03219 0.597713 -32.4685)
(4.83301 0.619107 -32.462)
(4.8943 0.630928 -32.4672)
(4.73454 0.639685 -32.4631)
(4.79286 0.64504 -32.4681)
(4.66414 0.649414 -32.4659)
(4.71816 0.65237 -32.4707)
(4.61322 0.654901 -32.4698)
(4.66236 0.656517 -32.4743)
(4.57629 0.658634 -32.4745)
(4.61855 0.657824 -32.4787)
(4.55234 0.662643 -32.4795)
(4.57198 0.653282 -32.4834)
(4.54348 0.659917 -32.4844)
(4.48365 0.659334 -32.4718)
(4.40938 -0.942526 -32.4295)
(4.35428 -0.840678 -32.4682)
(3.74135 -0.78677 -32.4624)
(3.63874 -0.722382 -32.4708)
(3.27992 -0.697121 -32.4642)
(3.30894 -0.685356 -32.4698)
(3.0781 -0.67994 -32.466)
(3.14429 -0.677274 -32.4718)
(2.97347 -0.67561 -32.4705)
(3.04379 -0.674401 -32.4755)
(2.90936 -0.673502 -32.4748)
(2.97545 -0.672634 -32.4787)
(2.86667 -0.672092 -32.4785)
(2.92675 -0.671552 -32.4819)
(2.83639 -0.670919 -32.4824)
(2.89319 -0.671719 -32.4857)
(2.80853 -0.668432 -32.4865)
(2.88711 -0.674588 -32.4897)
(2.75617 -0.666317 -32.49)
(3.05455 -0.66486 -32.4818)
(2.9551 -0.096344 -32.3683)
(2.18276 0.455537 -32.4079)
(1.50654 0.603365 -32.3973)
(1.4263 0.656598 -32.4076)
(1.20928 0.67238 -32.3978)
(1.25124 0.677014 -32.4068)
(1.12123 0.680879 -32.4014)
(1.17713 0.681056 -32.4103)
(1.07967 0.683214 -32.407)
(1.13231 0.6828 -32.4138)
(1.05468 0.684198 -32.411)
(1.10143 0.683539 -32.4163)
(1.03813 0.684513 -32.4146)
(1.07903 0.683891 -32.4194)
(1.0264 0.684406 -32.4187)
(1.0625 0.684389 -32.4231)
(1.01587 0.681253 -32.4232)
(1.04569 0.687097 -32.4272)
(1.00508 0.633798 -32.4269)
(0.857155 0.639624 -32.4293)
(4.33392 0.548734 0.00712959)
(3.15796 0.823395 0.00470906)
(2.45033 0.844269 0.00594643)
(1.95142 0.829499 0.00449817)
(1.83728 0.832364 0.00559662)
(1.67432 0.843251 0.00444603)
(1.67627 0.852112 0.00535464)
(1.58477 0.859304 0.00438996)
(1.59604 0.862891 0.00512947)
(1.53423 0.866024 0.0043179)
(1.54424 0.867292 0.00492068)
(1.50122 0.86891 0.00424123)
(1.50836 0.869309 0.00473242)
(1.4773 0.870476 0.00416482)
(1.48205 0.870049 0.00456295)
(1.45801 0.872563 0.00408849)
(1.46047 0.864556 0.00441049)
(1.45969 0.887833 0.00400993)
(1.39184 0.771361 0.00429945)
(1.84946 0.792783 0.00387508)
(4.7403 -0.10769 0.00457606)
(4.61176 -0.288039 0.0025879)
(4.5337 -0.487281 0.00385445)
(4.2032 -0.645909 0.00244014)
(4.08549 -0.735535 0.00354743)
(3.86082 -0.785419 0.00240261)
(3.80923 -0.80933 0.00331484)
(3.66917 -0.82392 0.00235248)
(3.64746 -0.83218 0.00309448)
(3.5553 -0.838447 0.00228467)
(3.54464 -0.842402 0.00288924)
(3.48136 -0.845759 0.00221069)
(3.47463 -0.847768 0.00270271)
(3.42919 -0.850082 0.00213551)
(3.42476 -0.850512 0.00253355)
(3.38773 -0.853587 0.00206006)
(3.39193 -0.851878 0.00237718)
(3.34037 -0.854781 0.00198466)
(3.39952 -0.864087 0.00220786)
(3.07847 -0.851909 0.0018414)
(4.6246 0.423284 0.00585848)
(4.81046 0.84037 0.00394129)
(5.09142 0.927742 0.00509138)
(5.03921 0.916523 0.0036379)
(5.089 0.897865 0.00471985)
(4.97501 0.885319 0.00356282)
(4.98038 0.876457 0.00446923)
(4.88704 0.871415 0.00350352)
(4.88538 0.865847 0.00424343)
(4.81522 0.863064 0.00343201)
(4.81073 0.859329 0.00403518)
(4.75855 0.85787 0.00335565)
(4.7522 0.855481 0.00384674)
(4.71394 0.85468 0.00327882)
(4.70429 0.853179 0.00367659)
(4.68115 0.852638 0.00320191)
(4.6569 0.849385 0.00352349)
(4.67347 0.855668 0.00312334)
(4.59512 0.810037 0.00341061)
(4.73501 0.862294 0.00302089)
(4.56585 -0.202007 0.00469245)
(4.69339 -0.39891 0.00299437)
(5.08016 -0.522429 0.00414946)
(5.16817 -0.625682 0.00272524)
(5.34862 -0.6915 0.00380995)
(5.34343 -0.736232 0.00265783)
(5.42838 -0.761155 0.00356766)
(5.40152 -0.778938 0.00260491)
(5.44627 -0.790197 0.00334758)
(5.41734 -0.799469 0.00253852)
(5.44104 -0.806094 0.0031435)
(5.4149 -0.811719 0.0024656)
(5.42668 -0.816167 0.00295767)
(5.40394 -0.819527 0.00239099)
(5.40935 -0.823386 0.0027889)
(5.38736 -0.823684 0.00231584)
(5.39428 -0.832729 0.00263229)
(5.35367 -0.82045 0.00223872)
(5.39644 -0.860573 0.00246008)
(5.18819 -0.859004 0.00212225)
(4.57807 0.334008 0.005338)
(4.69083 0.669161 0.00367733)
(5.05923 0.777005 0.00478526)
(5.16573 0.81508 0.00334716)
(5.37993 0.829654 0.00441897)
(5.41417 0.837934 0.00326021)
(5.53813 0.840559 0.0041666)
(5.54978 0.84246 0.00320169)
(5.6285 0.841402 0.0039432)
(5.63162 0.841406 0.00313301)
(5.68209 0.83978 0.00373718)
(5.68073 0.83947 0.00305848)
(5.71253 0.838197 0.00354993)
(5.70882 0.83765 0.00298265)
(5.72748 0.837437 0.00338022)
(5.72362 0.835337 0.00290639)
(5.73015 0.838136 0.00322588)
(5.72856 0.832815 0.00282776)
(5.73074 0.832544 0.0030966)
(5.69816 0.881698 0.0027357)
(4.57209 -0.26541 0.00497079)
(4.66408 -0.529832 0.00337406)
(5.0286 -0.642253 0.00448119)
(5.13743 -0.710922 0.0030503)
(5.36241 -0.749679 0.00412082)
(5.40977 -0.775845 0.00296248)
(5.54835 -0.789492 0.00386914)
(5.57477 -0.799482 0.00290464)
(5.66802 -0.804722 0.00364672)
(5.68534 -0.809616 0.00283707)
(5.74915 -0.812433 0.00344172)
(5.76018 -0.815389 0.00276347)
(5.80369 -0.817471 0.00325518)
(5.80944 -0.818964 0.00268829)
(5.83936 -0.821784 0.00308579)
(5.83883 -0.819882 0.00261266)
(5.86297 -0.828977 0.00292984)
(5.8426 -0.815887 0.00253452)
(5.88949 -0.8464 0.00277627)
(5.75837 -0.871709 0.00243562)
(4.57209 0.26541 0.00497079)
(4.66409 0.529832 0.00337406)
(5.0286 0.642253 0.00448119)
(5.13743 0.710923 0.0030503)
(5.36241 0.749679 0.00412082)
(5.40978 0.775846 0.00296248)
(5.54834 0.789492 0.00386914)
(5.57477 0.799484 0.00290464)
(5.66801 0.804724 0.00364672)
(5.68535 0.809622 0.00283706)
(5.74913 0.812439 0.00344173)
(5.7602 0.81541 0.00276344)
(5.80366 0.817488 0.00325521)
(5.80949 0.819039 0.00268822)
(5.83928 0.821831 0.00308588)
(5.83899 0.820113 0.00261246)
(5.86285 0.829157 0.00293016)
(5.8431 0.816512 0.00253407)
(5.88969 0.847124 0.00277756)
(5.75941 0.873299 0.00243533)
(4.57807 -0.334008 0.005338)
(4.69083 -0.669161 0.00367733)
(5.05923 -0.777005 0.00478526)
(5.16573 -0.815079 0.00334716)
(5.37993 -0.829654 0.00441897)
(5.41417 -0.837933 0.00326021)
(5.53813 -0.840559 0.0041666)
(5.54978 -0.842457 0.00320169)
(5.6285 -0.841402 0.00394319)
(5.63162 -0.841398 0.00313302)
(5.6821 -0.839777 0.00373716)
(5.68073 -0.839444 0.00305851)
(5.71257 -0.83819 0.00354988)
(5.70881 -0.837562 0.00298273)
(5.72759 -0.837417 0.00338008)
(5.72356 -0.835086 0.00290661)
(5.73046 -0.838035 0.00322548)
(5.72835 -0.832267 0.00282815)
(5.73123 -0.831954 0.00309531)
(5.69792 -0.880409 0.00273555)
(4.56585 0.202007 0.00469245)
(4.69339 0.39891 0.00299437)
(5.08016 0.522429 0.00414946)
(5.16817 0.625682 0.00272524)
(5.34861 0.691501 0.00380995)
(5.34343 0.736233 0.00265783)
(5.42838 0.761155 0.00356766)
(5.40152 0.778939 0.00260491)
(5.44626 0.7902 0.00334758)
(5.41736 0.799472 0.00253852)
(5.44103 0.806103 0.0031435)
(5.41495 0.81173 0.00246559)
(5.42665 0.816189 0.00295768)
(5.40407 0.819569 0.00239096)
(5.40931 0.823447 0.00278892)
(5.38769 0.823831 0.00231575)
(5.39434 0.832943 0.00263245)
(5.35462 0.820963 0.00223845)
(5.39712 0.861348 0.00246118)
(5.19076 0.86057 0.00212186)
(4.6246 -0.423284 0.00585848)
(4.81046 -0.84037 0.00394129)
(5.09142 -0.927742 0.00509138)
(5.03921 -0.916523 0.0036379)
(5.089 -0.897866 0.00471985)
(4.97501 -0.885318 0.00356282)
(4.98038 -0.876457 0.00446923)
(4.88704 -0.871412 0.00350352)
(4.88537 -0.865847 0.00424342)
(4.81523 -0.863056 0.00343203)
(4.81073 -0.85933 0.00403514)
(4.75859 -0.857845 0.0033557)
(4.75222 -0.855485 0.00384665)
(4.71404 -0.854596 0.00327895)
(4.7044 -0.853195 0.00367634)
(4.68136 -0.8524 0.00320225)
(4.6573 -0.849412 0.00352284)
(4.67396 -0.855245 0.00312402)
(4.59618 -0.809905 0.00340899)
(4.7364 -0.861806 0.0030212)
(4.7403 0.10769 0.00457606)
(4.61176 0.288039 0.0025879)
(4.5337 0.487281 0.00385445)
(4.20321 0.645909 0.00244014)
(4.08549 0.735536 0.00354743)
(3.86082 0.785418 0.00240261)
(3.80923 0.809331 0.00331484)
(3.66918 0.823919 0.00235248)
(3.64746 0.832183 0.00309447)
(3.55532 0.838444 0.00228467)
(3.54463 0.842411 0.00288923)
(3.48143 0.845751 0.00221069)
(3.47462 0.847791 0.00270269)
(3.42938 0.850064 0.00213553)
(3.42477 0.850576 0.00253347)
(3.38824 0.853564 0.00206013)
(3.39204 0.852082 0.00237703)
(3.34203 0.854908 0.00198478)
(3.3998 0.864825 0.00220802)
(3.08487 0.853212 0.00184176)
(4.33392 -0.548734 0.00712959)
(3.15796 -0.823395 0.00470906)
(2.45033 -0.844269 0.00594643)
(1.95142 -0.829499 0.00449817)
(1.83728 -0.832364 0.00559662)
(1.67433 -0.843251 0.00444603)
(1.67627 -0.852112 0.00535463)
(1.58477 -0.859302 0.00438997)
(1.59604 -0.862893 0.00512946)
(1.53424 -0.866018 0.00431791)
(1.54425 -0.867298 0.00492064)
(1.50125 -0.868893 0.00424128)
(1.50839 -0.869326 0.00473231)
(1.47736 -0.870422 0.00416499)
(1.48218 -0.870101 0.00456262)
(1.45817 -0.872421 0.004089)
(1.46088 -0.86474 0.00440952)
(1.46012 -0.887629 0.00401139)
(1.3929 -0.772268 0.00429625)
(1.85058 -0.793923 0.00387952)
(4.37769 0.0900446 0.00147623)
(4.01618 0.134136 0.0020092)
(3.53677 0.143524 0.00108149)
(3.14975 0.135781 0.00160598)
(2.81389 0.124667 0.00109087)
(2.59954 0.117657 0.00148263)
(2.43755 0.114382 0.00114045)
(2.35158 0.115444 0.00138344)
(2.28761 0.118555 0.0011531)
(2.25835 0.123174 0.00129357)
(2.2337 0.127753 0.00115113)
(2.22339 0.132263 0.00122402)
(2.2124 0.13588 0.00114927)
(2.20889 0.139373 0.00117579)
(2.20105 0.141173 0.00115277)
(2.20578 0.144966 0.00114472)
(2.18696 0.142646 0.00116561)
(2.22227 0.151686 0.00112546)
(2.14632 0.136938 0.00116818)
(2.28369 0.147689 0.00118153)
(4.53299 0.0814247 0.00324814)
(4.67073 0.105047 0.00395303)
(4.69605 0.0994379 0.00301918)
(4.70052 0.0692358 0.00352012)
(4.62977 0.0304892 0.0029819)
(4.5706 -0.00930732 0.00336137)
(4.48693 -0.0429841 0.00301101)
(4.42834 -0.0703037 0.00325111)
(4.36362 -0.0901436 0.00301855)
(4.32065 -0.105083 0.0031591)
(4.27611 -0.115568 0.00301616)
(4.24751 -0.123453 0.00308956)
(4.21799 -0.12937 0.00301467)
(4.2011 -0.133435 0.00304137)
(4.18094 -0.137836 0.00301878)
(4.17589 -0.13829 0.00300996)
(4.1563 -0.144865 0.00303422)
(4.17112 -0.137467 0.00298906)
(4.13107 -0.152026 0.00307426)
(4.18303 -0.132267 0.00308291)
(4.51005 0.0427725 0.00183072)
(4.65161 0.100005 0.00242416)
(4.75507 0.143419 0.00152313)
(4.89211 0.164043 0.00202848)
(4.96662 0.168813 0.00149746)
(5.04113 0.16667 0.0018835)
(5.06769 0.162066 0.00154107)
(5.09643 0.158745 0.00178546)
(5.09796 0.156754 0.00155745)
(5.10659 0.156334 0.00169918)
(5.10031 0.156392 0.00155834)
(5.10266 0.157074 0.00163169)
(5.09527 0.157079 0.00155765)
(5.0975 0.158217 0.00158429)
(5.09013 0.156454 0.00156134)
(5.09601 0.160319 0.00155427)
(5.08714 0.15224 0.00157193)
(5.09965 0.16721 0.00154205)
(5.08878 0.14197 0.00156075)
(5.10332 0.179994 0.00159199)
(4.50603 0.0407079 0.00283729)
(4.61988 0.0438985 0.0035361)
(4.71763 0.0361687 0.00265737)
(4.86525 0.0161376 0.00316654)
(4.96679 -0.0073708 0.00262161)
(5.07897 -0.0322041 0.00299701)
(5.147 -0.054588 0.00264473)
(5.21756 -0.0738504 0.00288488)
(5.25842 -0.0890834 0.00265298)
(5.30326 -0.10113 0.00279357)
(5.32989 -0.11053 0.00265093)
(5.36112 -0.117635 0.00272398)
(5.38082 -0.123951 0.00264905)
(5.40406 -0.127722 0.00267559)
(5.4208 -0.133408 0.00265255)
(5.43693 -0.13326 0.00264504)
(5.45664 -0.141829 0.00266621)
(5.45852 -0.133758 0.00263246)
(5.49797 -0.149051 0.00270889)
(5.46048 -0.130553 0.00271741)
(4.50702 0.0157072 0.0021451)
(4.6207 0.0512205 0.00279925)
(4.71226 0.0823885 0.00193057)
(4.85504 0.10371 0.00243175)
(4.95524 0.116486 0.00188566)
(5.0709 0.124947 0.00226153)
(5.14583 0.130685 0.00191219)
(5.22606 0.13577 0.00215435)
(5.27801 0.140108 0.001925)
(5.33492 0.144195 0.00206653)
(5.37412 0.147519 0.00192535)
(5.41783 0.150472 0.00199864)
(5.45041 0.152404 0.00192445)
(5.48522 0.15455 0.00195105)
(5.51491 0.154629 0.00192806)
(5.53997 0.157727 0.00192155)
(5.57416 0.153618 0.00193872)
(5.5787 0.163026 0.00191368)
(5.64093 0.148955 0.00194239)
(5.59608 0.175041 0.00196942)
(4.5058 0.0107299 0.0024743)
(4.61342 -0.0051517 0.00315682)
(4.70388 -0.0240093 0.00229547)
(4.8454 -0.0445265 0.00280198)
(4.94526 -0.0624909 0.00225432)
(5.06128 -0.0788611 0.00262861)
(5.13751 -0.0927069 0.00227692)
(5.21985 -0.104622 0.00251817)
(5.27473 -0.114265 0.0022878)
(5.33494 -0.122151 0.00242912)
(5.37819 -0.128462 0.00228748)
(5.42574 -0.133342 0.0023607)
(5.46324 -0.137527 0.00228629)
(5.50163 -0.140278 0.00231278)
(5.5374 -0.143427 0.00228986)
(5.56443 -0.144447 0.002283)
(5.60715 -0.147335 0.00230197)
(5.60953 -0.14707 0.00227489)
(5.68519 -0.148586 0.00232916)
(5.63219 -0.151534 0.00234281)
(4.5058 -0.01073 0.0024743)
(4.61342 0.00515194 0.00315682)
(4.70388 0.0240091 0.00229547)
(4.8454 0.0445271 0.00280198)
(4.94526 0.0624905 0.00225432)
(5.06128 0.0788624 0.00262862)
(5.13751 0.0927064 0.00227692)
(5.21985 0.104625 0.00251818)
(5.27473 0.114265 0.0022878)
(5.33495 0.122159 0.00242913)
(5.37818 0.128464 0.00228747)
(5.42575 0.133366 0.00236073)
(5.46324 0.137531 0.00228626)
(5.50164 0.140354 0.00231285)
(5.53739 0.143438 0.00228977)
(5.56446 0.144672 0.00228319)
(5.60716 0.147409 0.00230159)
(5.6096 0.147639 0.00227523)
(5.68528 0.149079 0.00232753)
(5.6324 0.152763 0.00234302)
(4.50702 -0.0157073 0.0021451)
(4.6207 -0.0512203 0.00279925)
(4.71226 -0.0823887 0.00193057)
(4.85504 -0.103709 0.00243175)
(4.95524 -0.116486 0.00188566)
(5.0709 -0.124945 0.00226153)
(5.14583 -0.130685 0.00191219)
(5.22606 -0.135766 0.00215435)
(5.27801 -0.140109 0.001925)
(5.33492 -0.144186 0.00206652)
(5.37412 -0.147519 0.00192536)
(5.41783 -0.150448 0.00199861)
(5.45043 -0.152402 0.00192447)
(5.48521 -0.154473 0.00195098)
(5.51496 -0.154623 0.00192813)
(5.53996 -0.157504 0.00192136)
(5.57429 -0.153558 0.00193904)
(5.57873 -0.162478 0.00191332)
(5.6412 -0.148506 0.00194379)
(5.59634 -0.173896 0.00196909)
(4.50603 -0.040708 0.00283728)
(4.61988 -0.0438983 0.0035361)
(4.71763 -0.0361689 0.00265737)
(4.86526 -0.0161371 0.00316654)
(4.96679 0.0073705 0.00262161)
(5.07897 0.0322052 0.00299702)
(5.14699 0.0545877 0.00264473)
(5.21757 0.073853 0.00288488)
(5.25842 0.0890837 0.00265297)
(5.30327 0.101137 0.00279358)
(5.32988 0.110532 0.00265092)
(5.36114 0.117656 0.00272401)
(5.38082 0.123956 0.002649)
(5.4041 0.127789 0.00267566)
(5.42084 0.133418 0.00265243)
(5.43701 0.133465 0.00264521)
(5.45681 0.141887 0.0026658)
(5.45877 0.134296 0.00263275)
(5.49852 0.14947 0.00270729)
(5.4613 0.131747 0.00271755)
(4.51005 -0.0427726 0.00183072)
(4.65161 -0.100005 0.00242416)
(4.75507 -0.14342 0.00152313)
(4.89211 -0.164042 0.00202848)
(4.96662 -0.168813 0.00149746)
(5.04114 -0.166669 0.0018835)
(5.06769 -0.162066 0.00154107)
(5.09644 -0.158742 0.00178546)
(5.09796 -0.156755 0.00155745)
(5.1066 -0.156326 0.00169919)
(5.1003 -0.156393 0.00155834)
(5.1027 -0.157052 0.00163169)
(5.09526 -0.157081 0.00155764)
(5.09759 -0.15815 0.00158427)
(5.09017 -0.156462 0.00156135)
(5.0962 -0.160129 0.00155418)
(5.08739 -0.152229 0.00157206)
(5.10009 -0.166757 0.00154185)
(5.08962 -0.141702 0.0015615)
(5.10459 -0.179148 0.00159192)
(4.53299 -0.0814247 0.00324814)
(4.67073 -0.105047 0.00395303)
(4.69605 -0.0994379 0.00301918)
(4.70052 -0.0692357 0.00352012)
(4.62977 -0.0304891 0.00298189)
(4.57061 0.00930759 0.00336138)
(4.48692 0.0429846 0.003011)
(4.42835 0.0703044 0.00325112)
(4.36361 0.0901451 0.00301853)
(4.32068 0.105084 0.00315914)
(4.27608 0.115572 0.00301611)
(4.2476 0.123461 0.00308965)
(4.21795 0.129378 0.00301452)
(4.20131 0.133466 0.0030416)
(4.18088 0.137848 0.00301842)
(4.17639 0.138399 0.00301048)
(4.15636 0.144902 0.00303329)
(4.17233 0.13778 0.00299022)
(4.13163 0.152283 0.00307168)
(4.18624 0.133002 0.00308524)
(4.37769 -0.0900446 0.00147623)
(4.01618 -0.134136 0.0020092)
(3.53677 -0.143524 0.00108149)
(3.14975 -0.135781 0.00160598)
(2.81389 -0.124667 0.00109087)
(2.59955 -0.117657 0.00148263)
(2.43755 -0.114382 0.00114045)
(2.35158 -0.115443 0.00138344)
(2.28761 -0.118555 0.0011531)
(2.25837 -0.123172 0.00129357)
(2.23369 -0.127754 0.00115112)
(2.22344 -0.132257 0.00122403)
(2.2124 -0.135885 0.00114923)
(2.20904 -0.139354 0.00117584)
(2.20109 -0.141189 0.00115266)
(2.20617 -0.144908 0.00114486)
(2.18716 -0.142692 0.00116527)
(2.2234 -0.151554 0.00112591)
(2.14676 -0.137009 0.00116715)
(2.28776 -0.147691 0.00118318)
(4.37769 0.0900446 -0.00147631)
(4.01618 0.134136 -0.00200928)
(3.53677 0.143524 -0.00108157)
(3.14975 0.135781 -0.00160606)
(2.81389 0.124667 -0.00109095)
(2.59954 0.117658 -0.00148271)
(2.43755 0.114382 -0.00114053)
(2.35158 0.115444 -0.00138352)
(2.28761 0.118555 -0.00115318)
(2.25835 0.123174 -0.00129365)
(2.2337 0.127753 -0.00115121)
(2.22339 0.132263 -0.0012241)
(2.2124 0.13588 -0.00114935)
(2.20889 0.139373 -0.00117587)
(2.20105 0.141174 -0.00115285)
(2.20578 0.144966 -0.0011448)
(2.18696 0.142646 -0.00116569)
(2.22227 0.151687 -0.00112554)
(2.14632 0.136938 -0.00116826)
(2.28369 0.147689 -0.00118161)
(4.53299 0.0814247 -0.00324822)
(4.67073 0.105047 -0.00395311)
(4.69605 0.0994379 -0.00301926)
(4.70052 0.0692358 -0.00352019)
(4.62977 0.0304891 -0.00298197)
(4.5706 -0.00930739 -0.00336145)
(4.48693 -0.0429842 -0.00301109)
(4.42834 -0.0703038 -0.00325119)
(4.36362 -0.0901437 -0.00301863)
(4.32065 -0.105083 -0.00315918)
(4.27611 -0.115568 -0.00301624)
(4.24751 -0.123453 -0.00308964)
(4.21799 -0.12937 -0.00301475)
(4.2011 -0.133435 -0.00304145)
(4.18094 -0.137836 -0.00301886)
(4.17589 -0.13829 -0.00301004)
(4.1563 -0.144865 -0.0030343)
(4.17112 -0.137467 -0.00298914)
(4.13107 -0.152026 -0.00307435)
(4.18303 -0.132267 -0.003083)
(4.51005 0.0427725 -0.0018308)
(4.65161 0.100005 -0.00242424)
(4.75507 0.143419 -0.0015232)
(4.89211 0.164043 -0.00202856)
(4.96662 0.168813 -0.00149754)
(5.04113 0.166671 -0.00188358)
(5.06769 0.162066 -0.00154115)
(5.09643 0.158745 -0.00178554)
(5.09796 0.156754 -0.00155753)
(5.10658 0.156334 -0.00169926)
(5.10031 0.156392 -0.00155842)
(5.10266 0.157075 -0.00163177)
(5.09527 0.157079 -0.00155773)
(5.0975 0.158217 -0.00158437)
(5.09013 0.156454 -0.00156142)
(5.09601 0.160319 -0.00155435)
(5.08714 0.15224 -0.00157201)
(5.09965 0.16721 -0.00154213)
(5.08878 0.14197 -0.00156083)
(5.10332 0.179994 -0.00159207)
(4.50603 0.0407079 -0.00283736)
(4.61988 0.0438985 -0.00353618)
(4.71763 0.0361687 -0.00265745)
(4.86525 0.0161375 -0.00316662)
(4.96679 -0.00737086 -0.00262169)
(5.07897 -0.0322042 -0.00299709)
(5.147 -0.0545881 -0.00264481)
(5.21756 -0.0738505 -0.00288496)
(5.25842 -0.0890834 -0.00265306)
(5.30326 -0.10113 -0.00279365)
(5.32989 -0.11053 -0.00265101)
(5.36112 -0.117635 -0.00272406)
(5.38082 -0.123952 -0.00264913)
(5.40406 -0.127722 -0.00267567)
(5.4208 -0.133408 -0.00265263)
(5.43693 -0.13326 -0.00264512)
(5.45664 -0.141829 -0.00266629)
(5.45852 -0.133758 -0.00263254)
(5.49797 -0.149051 -0.00270897)
(5.46048 -0.130553 -0.00271749)
(4.50702 0.0157073 -0.00214518)
(4.6207 0.0512205 -0.00279933)
(4.71226 0.0823885 -0.00193065)
(4.85504 0.10371 -0.00243183)
(4.95524 0.116486 -0.00188574)
(5.0709 0.124947 -0.00226161)
(5.14583 0.130685 -0.00191227)
(5.22606 0.13577 -0.00215443)
(5.27801 0.140108 -0.00192508)
(5.33492 0.144195 -0.00206661)
(5.37412 0.147519 -0.00192543)
(5.41783 0.150473 -0.00199872)
(5.45041 0.152404 -0.00192453)
(5.48522 0.154551 -0.00195113)
(5.51491 0.154629 -0.00192814)
(5.53997 0.157727 -0.00192163)
(5.57416 0.153618 -0.0019388)
(5.57869 0.163026 -0.00191376)
(5.64093 0.148955 -0.00194248)
(5.59608 0.175041 -0.0019695)
(4.5058 0.0107299 -0.00247438)
(4.61342 -0.00515173 -0.0031569)
(4.70388 -0.0240093 -0.00229555)
(4.8454 -0.0445266 -0.00280206)
(4.94526 -0.062491 -0.0022544)
(5.06128 -0.0788612 -0.00262869)
(5.13751 -0.0927069 -0.002277)
(5.21985 -0.104622 -0.00251825)
(5.27473 -0.114266 -0.00228788)
(5.33494 -0.122151 -0.0024292)
(5.37818 -0.128462 -0.00228756)
(5.42574 -0.133342 -0.00236078)
(5.46324 -0.137527 -0.00228637)
(5.50163 -0.140278 -0.00231286)
(5.5374 -0.143427 -0.00228994)
(5.56443 -0.144447 -0.00228308)
(5.60715 -0.147335 -0.00230205)
(5.60953 -0.14707 -0.00227497)
(5.68519 -0.148586 -0.00232924)
(5.63219 -0.151534 -0.00234289)
(4.5058 -0.01073 -0.00247438)
(4.61342 0.00515194 -0.0031569)
(4.70388 0.0240091 -0.00229555)
(4.8454 0.0445271 -0.00280206)
(4.94526 0.0624906 -0.0022544)
(5.06128 0.0788624 -0.0026287)
(5.13751 0.0927065 -0.002277)
(5.21985 0.104625 -0.00251826)
(5.27472 0.114266 -0.00228788)
(5.33494 0.122159 -0.00242921)
(5.37818 0.128464 -0.00228755)
(5.42574 0.133366 -0.00236081)
(5.46324 0.137531 -0.00228634)
(5.50164 0.140354 -0.00231293)
(5.53739 0.143438 -0.00228985)
(5.56446 0.144672 -0.00228327)
(5.60716 0.147409 -0.00230167)
(5.6096 0.147639 -0.00227531)
(5.68528 0.149079 -0.00232761)
(5.6324 0.152763 -0.0023431)
(4.50702 -0.0157073 -0.00214518)
(4.6207 -0.0512203 -0.00279933)
(4.71226 -0.0823888 -0.00193065)
(4.85504 -0.103709 -0.00243183)
(4.95524 -0.116486 -0.00188574)
(5.0709 -0.124945 -0.00226161)
(5.14583 -0.130685 -0.00191227)
(5.22606 -0.135766 -0.00215443)
(5.27801 -0.140109 -0.00192508)
(5.33492 -0.144186 -0.0020666)
(5.37412 -0.147519 -0.00192544)
(5.41783 -0.150448 -0.00199869)
(5.45043 -0.152402 -0.00192455)
(5.48521 -0.154473 -0.00195106)
(5.51496 -0.154623 -0.00192822)
(5.53996 -0.157504 -0.00192144)
(5.57429 -0.153558 -0.00193912)
(5.57873 -0.162478 -0.0019134)
(5.6412 -0.148506 -0.00194387)
(5.59634 -0.173896 -0.00196917)
(4.50603 -0.040708 -0.00283736)
(4.61988 -0.0438983 -0.00353618)
(4.71763 -0.0361689 -0.00265745)
(4.86526 -0.0161371 -0.00316662)
(4.96679 0.00737052 -0.00262169)
(5.07897 0.0322053 -0.0029971)
(5.14699 0.0545877 -0.00264481)
(5.21757 0.0738531 -0.00288496)
(5.25841 0.0890837 -0.00265305)
(5.30327 0.101137 -0.00279366)
(5.32988 0.110532 -0.002651)
(5.36114 0.117656 -0.00272409)
(5.38082 0.123956 -0.00264908)
(5.4041 0.127789 -0.00267574)
(5.42084 0.133418 -0.00265251)
(5.43701 0.133465 -0.00264529)
(5.45681 0.141887 -0.00266588)
(5.45876 0.134297 -0.00263283)
(5.49852 0.14947 -0.00270737)
(5.4613 0.131747 -0.00271763)
(4.51005 -0.0427726 -0.0018308)
(4.65161 -0.100005 -0.00242424)
(4.75507 -0.14342 -0.0015232)
(4.89211 -0.164042 -0.00202856)
(4.96662 -0.168813 -0.00149754)
(5.04114 -0.166669 -0.00188358)
(5.06769 -0.162066 -0.00154115)
(5.09644 -0.158742 -0.00178554)
(5.09796 -0.156755 -0.00155753)
(5.1066 -0.156326 -0.00169927)
(5.1003 -0.156393 -0.00155841)
(5.1027 -0.157052 -0.00163177)
(5.09526 -0.157081 -0.00155772)
(5.09759 -0.15815 -0.00158435)
(5.09017 -0.156462 -0.00156143)
(5.0962 -0.160129 -0.00155426)
(5.08739 -0.152229 -0.00157214)
(5.10009 -0.166757 -0.00154193)
(5.08962 -0.141702 -0.00156158)
(5.10459 -0.179148 -0.001592)
(4.53299 -0.0814247 -0.00324822)
(4.67073 -0.105047 -0.00395311)
(4.69605 -0.0994379 -0.00301926)
(4.70052 -0.0692357 -0.0035202)
(4.62977 -0.030489 -0.00298197)
(4.5706 0.00930763 -0.00336146)
(4.48692 0.0429847 -0.00301108)
(4.42835 0.0703044 -0.0032512)
(4.36361 0.0901452 -0.00301861)
(4.32068 0.105085 -0.00315922)
(4.27608 0.115572 -0.00301619)
(4.2476 0.123461 -0.00308973)
(4.21795 0.129378 -0.0030146)
(4.20131 0.133466 -0.00304168)
(4.18088 0.137848 -0.0030185)
(4.17639 0.138399 -0.00301056)
(4.15636 0.144902 -0.00303337)
(4.17232 0.13778 -0.0029903)
(4.13163 0.152283 -0.00307176)
(4.18624 0.133002 -0.00308532)
(4.37769 -0.0900446 -0.00147631)
(4.01618 -0.134136 -0.00200928)
(3.53677 -0.143524 -0.00108157)
(3.14975 -0.135781 -0.00160606)
(2.81389 -0.124667 -0.00109095)
(2.59955 -0.117657 -0.00148271)
(2.43755 -0.114382 -0.00114053)
(2.35158 -0.115443 -0.00138352)
(2.28761 -0.118555 -0.00115318)
(2.25837 -0.123172 -0.00129365)
(2.23369 -0.127754 -0.0011512)
(2.22344 -0.132257 -0.00122412)
(2.2124 -0.135885 -0.00114931)
(2.20904 -0.139354 -0.00117593)
(2.20109 -0.141189 -0.00115275)
(2.20617 -0.144908 -0.00114494)
(2.18716 -0.142692 -0.00116535)
(2.2234 -0.151554 -0.001126)
(2.14676 -0.137009 -0.00116723)
(2.28776 -0.147691 -0.00118326)
(4.33392 0.548734 -0.00712965)
(3.15796 0.823395 -0.00470912)
(2.45033 0.844269 -0.00594649)
(1.95142 0.829499 -0.00449823)
(1.83728 0.832364 -0.00559668)
(1.67432 0.843251 -0.00444609)
(1.67627 0.852112 -0.00535469)
(1.58477 0.859304 -0.00439002)
(1.59604 0.862891 -0.00512953)
(1.53423 0.866024 -0.00431795)
(1.54424 0.867292 -0.00492074)
(1.50122 0.86891 -0.00424129)
(1.50836 0.869309 -0.00473248)
(1.47729 0.870476 -0.00416488)
(1.48205 0.870049 -0.004563)