/*--------------------------------*- C++ -*----------------------------------*\
  =========                 |
  \\      /  F ield         | OpenFOAM: The Open Source CFD Toolbox
   \\    /   O peration     | Website:  https://openfoam.org
    \\  /    A nd           | Version:  7
     \\/     M anipulation  |
\*---------------------------------------------------------------------------*/
FoamFile
{
    version     2.0;
    format      ascii;
    class       surfaceScalarField;
    location    "0.02";
    object      phi;
}
// * * * * * * * * * * * * * * * * * * * * * * * * * * * * * * * * * * * * * //

dimensions      [1 0 -1 0 0 0 0];

internalField   nonuniform List<scalar> 
2748
(
0.00597197
3.34462e-05
0.00588753
8.67089e-05
0.00576136
0.000128435
0.00560171
0.000161899
0.0054159
0.000187987
0.00521176
0.000206211
0.0049968
0.000216884
0.00477754
0.000220981
0.004559
0.00022002
0.0043454
0.000214778
0.00414019
0.000206093
0.00394422
0.00019653
0.00375874
0.000185747
0.00358461
0.000174115
0.00342224
0.000162181
0.00327175
0.000150296
0.00313302
0.000138694
0.00300577
0.000127542
0.00288963
0.000116978
0.00278411
0.000107087
0.00268853
9.78952e-05
0.00260216
8.93871e-05
0.00252415
8.15269e-05
0.00245356
7.42622e-05
0.00238933
6.75276e-05
0.00233047
6.12685e-05
0.00227619
5.54528e-05
0.00222582
5.00662e-05
0.00217881
4.51167e-05
0.002135
4.06508e-05
0.00209473
3.67531e-05
0.00205871
3.35063e-05
0.00202745
3.09297e-05
0.00200083
2.89416e-05
0.00197807
2.73794e-05
0.00195817
2.60615e-05
0.00194028
2.48491e-05
0.00192404
2.36743e-05
0.00190942
2.25306e-05
0.00189654
2.14417e-05
0.00188545
2.04286e-05
0.00187608
1.94934e-05
0.00186824
1.86242e-05
0.00186166
1.78119e-05
0.00185612
1.7062e-05
0.00185138
1.6394e-05
0.00184727
1.58302e-05
0.00184365
1.53835e-05
0.0018404
1.50518e-05
0.00183744
1.48225e-05
0.00183472
1.46811e-05
0.00183217
1.46153e-05
0.00182976
1.46113e-05
0.00182746
1.46465e-05
0.00182525
1.46899e-05
0.00182315
1.47075e-05
0.00182115
1.4671e-05
0.00181928
1.45644e-05
0.00181758
1.4386e-05
0.00181608
1.41425e-05
0.00181481
1.38393e-05
0.00181381
1.34751e-05
0.00181311
1.30456e-05
0.00181275
1.25538e-05
0.00181273
1.20195e-05
0.00181305
1.14861e-05
0.00181367
1.10102e-05
0.0018145
1.06454e-05
0.00181544
1.04318e-05
0.00181639
1.03824e-05
0.00181726
1.04764e-05
0.00181799
1.06645e-05
0.00181858
1.08886e-05
0.00181905
1.10997e-05
0.00181944
1.12692e-05
0.00181977
1.13925e-05
0.00182009
1.14805e-05
0.00182038
1.15487e-05
0.00182067
1.16088e-05
0.00182093
1.16659e-05
0.00182117
1.17204e-05
0.0018214
1.177e-05
0.00182161
1.18117e-05
0.00182182
1.18425e-05
0.00182203
1.18596e-05
0.00182225
1.18615e-05
0.0018225
1.18481e-05
0.00182278
1.1821e-05
0.0018231
1.17827e-05
0.00182347
1.17369e-05
0.00182388
1.16873e-05
0.00182433
1.16376e-05
0.00182482
1.15906e-05
0.00182534
1.15486e-05
0.00182588
1.15129e-05
0.00182644
1.14839e-05
0.00182701
1.14617e-05
0.00182758
1.14456e-05
0.00182815
1.14349e-05
0.00182872
1.14283e-05
0.00182928
1.14252e-05
0.00182983
1.14243e-05
0.00183037
1.14257e-05
0.0018309
1.1428e-05
0.00183141
1.14318e-05
0.00183191
1.14358e-05
0.00183239
1.14405e-05
0.00183286
1.14454e-05
0.00183331
1.14495e-05
0.00183375
1.14551e-05
0.00183418
1.14562e-05
0.0018346
1.1462e-05
0.001835
1.14546e-05
0.0018354
1.1458e-05
0.00183581
1.14281e-05
0.00183622
1.14217e-05
0.00183672
1.13247e-05
0.00183726
1.12302e-05
0.00183802
1.10473e-05
1.0356e-05
0.00602014
1.85335e-05
0.00605339
5.57294e-05
0.00609549
8.86102e-05
0.00614265
0.000116976
0.00619075
0.000142077
0.00623525
0.000163805
0.00627275
0.000181368
0.00630125
0.000194312
0.00632009
0.000202836
0.00632888
0.000207442
0.00632741
0.000208799
0.00631724
0.000207714
0.00629927
0.00020449
0.00627449
0.000199456
0.00624398
0.000193048
0.00620876
0.000185693
0.00616976
0.000177738
0.00612783
0.000169461
0.00608374
0.000161083
0.00603817
0.00015277
0.00599174
0.000144643
0.00594495
0.000136772
0.00589823
0.0001292
0.00585191
0.000121952
0.00580619
0.000115031
0.0057612
0.000108439
0.00571703
0.000102185
0.00567366
9.62921e-05
0.00563106
9.08039e-05
0.00558911
8.57864e-05
0.00554771
8.13167e-05
0.00550683
7.7449e-05
0.0054665
7.41725e-05
0.0054268
7.13969e-05
0.00538782
6.89826e-05
0.00534961
6.67925e-05
0.00531216
6.47292e-05
0.0052754
6.2741e-05
0.00523921
6.08095e-05
0.00520347
5.8934e-05
0.00516823
5.71126e-05
0.00513369
5.53347e-05
0.00510007
5.35917e-05
0.00506749
5.18877e-05
0.00503588
5.02441e-05
0.00500512
4.8685e-05
0.00497529
4.72319e-05
0.00494673
4.58952e-05
0.00491984
4.46666e-05
0.00489493
4.35222e-05
0.00487201
4.24355e-05
0.00485096
4.1388e-05
0.00483177
4.03681e-05
0.00481464
3.93621e-05
0.00479996
3.83482e-05
0.00478802
3.72955e-05
0.00477882
3.617e-05
0.00477207
3.49506e-05
0.0047673
3.36418e-05
0.00476408
3.22688e-05
0.00476219
3.08576e-05
0.00476162
2.9416e-05
0.00476248
2.79322e-05
0.00476478
2.63966e-05
0.00476832
2.48305e-05
0.0047726
2.33048e-05
0.00477696
2.1932e-05
0.00478068
2.08371e-05
0.00478318
2.01249e-05
0.00478413
1.98417e-05
0.00478351
1.99411e-05
0.00478155
2.02918e-05
0.00477867
2.07313e-05
0.00477531
2.11266e-05
0.00477185
2.14104e-05
0.00476853
2.15828e-05
0.00476547
2.16827e-05
0.00476269
2.17522e-05
0.00476015
2.18158e-05
0.00475782
2.18776e-05
0.00475568
2.1931e-05
0.00475372
2.19681e-05
0.00475195
2.19839e-05
0.0047504
2.19763e-05
0.00474908
2.19448e-05
0.004748
2.18903e-05
0.00474717
2.18146e-05
0.00474659
2.17211e-05
0.00474624
2.16141e-05
0.0047461
2.14991e-05
0.00474614
2.1382e-05
0.00474634
2.12684e-05
0.00474666
2.11632e-05
0.00474708
2.10699e-05
0.00474757
2.09911e-05
0.00474811
2.09277e-05
0.00474869
2.08797e-05
0.0047493
2.08457e-05
0.00474991
2.08242e-05
0.00475052
2.08127e-05
0.00475113
2.08095e-05
0.00475173
2.08122e-05
0.00475232
2.08202e-05
0.0047529
2.0831e-05
0.00475346
2.08451e-05
0.004754
2.08598e-05
0.00475452
2.08766e-05
0.00475503
2.08929e-05
0.00475552
2.09098e-05
0.004756
2.09264e-05
0.00475645
2.09394e-05
0.00475689
2.09543e-05
0.00475732
2.09549e-05
0.00475773
2.09614e-05
0.00475813
2.09344e-05
0.00475854
2.08997e-05
0.00475893
2.08273e-05
0.00475942
2.05896e-05
0.00475985
2.04786e-05
1.97021e-05
0.00601055
1.31209e-05
0.00602907
3.94764e-05
0.00605649
6.3463e-05
0.00609136
8.435e-05
0.00613323
0.000102395
0.00618126
0.00011787
0.00623398
0.000130626
0.00628967
0.000140449
0.00634674
0.000147424
0.00640369
0.000151963
0.00645934
0.000154428
0.00651304
0.000155075
0.00656417
0.000154216
0.00661219
0.000152096
0.00665676
0.00014895
0.00669774
0.000145024
0.00673511
0.00014056
0.0067689
0.000135753
0.00679927
0.000130759
0.00682638
0.000125698
0.00685046
0.000120657
0.00687176
0.000115696
0.0068905
0.000110853
0.00690692
0.000106154
0.00692127
0.00010161
0.00693374
9.72286e-05
0.00694452
9.30308e-05
0.0069538
8.90499e-05
0.00696173
8.53292e-05
0.00696848
8.19209e-05
0.0069742
7.88824e-05
0.00697906
7.62595e-05
0.00698315
7.40575e-05
0.00698653
7.22264e-05
0.00698919
7.06749e-05
0.00699109
6.92994e-05
0.00699216
6.80129e-05
0.00699239
6.67566e-05
0.00699173
6.55041e-05
0.00699015
6.42539e-05
0.00698761
6.30055e-05
0.00698408
6.17515e-05
0.00697953
6.04866e-05
0.00697394
5.92149e-05
0.00696726
5.79671e-05
0.00695949
5.67532e-05
0.00695063
5.558e-05
0.00694083
5.44527e-05
0.0069303
5.33705e-05
0.00691935
5.23261e-05
0.00690821
5.13068e-05
0.006897
5.02948e-05
0.00688564
4.9267e-05
0.00687405
4.81978e-05
0.00686231
4.70629e-05
0.00685085
4.58364e-05
0.00684043
4.44938e-05
0.00683183
4.30244e-05
0.00682552
4.14389e-05
0.00682142
3.97626e-05
0.00681899
3.80187e-05
0.00681761
3.62177e-05
0.006817
3.43592e-05
0.00681745
3.24471e-05
0.00681978
3.05121e-05
0.00682482
2.8629e-05
0.00683306
2.69088e-05
0.00684427
2.54706e-05
0.00685756
2.44107e-05
0.00687175
2.37696e-05
0.00688582
2.35046e-05
0.00689919
2.35001e-05
0.00691186
2.36201e-05
0.00692415
2.37623e-05
0.00693637
2.38883e-05
0.00694857
2.402e-05
0.00696034
2.42093e-05
0.00697093
2.44998e-05
0.00697941
2.49025e-05
0.00698495
2.53922e-05
0.00698702
2.59196e-05
0.0069855
2.64261e-05
0.00698075
2.68566e-05
0.00697343
2.71681e-05
0.00696443
2.7334e-05
0.00695468
2.73464e-05
0.00694501
2.72146e-05
0.00693608
2.69628e-05
0.00692835
2.66237e-05
0.00692205
2.62342e-05
0.00691725
2.5829e-05
0.00691388
2.54378e-05
0.0069118
2.5082e-05
0.00691081
2.47748e-05
0.00691071
2.45215e-05
0.0069113
2.43214e-05
0.00691243
2.41701e-05
0.00691396
2.40609e-05
0.00691575
2.3987e-05
0.00691775
2.39408e-05
0.00691986
2.39171e-05
0.00692205
2.39091e-05
0.00692429
2.39143e-05
0.00692654
2.39269e-05
0.0069288
2.39465e-05
0.00693105
2.39687e-05
0.00693329
2.39947e-05
0.00693552
2.40211e-05
0.00693772
2.40481e-05
0.00693991
2.40758e-05
0.00694208
2.40983e-05
0.00694422
2.41236e-05
0.00694636
2.41324e-05
0.00694847
2.41446e-05
0.00695057
2.41251e-05
0.00695265
2.40881e-05
0.00695472
2.40243e-05
0.00695672
2.38356e-05
0.00695865
2.37873e-05
2.32079e-05
0.00600968
8.51146e-06
0.00602605
2.53774e-05
0.00605059
4.11871e-05
0.00608202
5.51691e-05
0.00611939
6.72035e-05
0.00616193
7.74262e-05
0.00620865
8.58839e-05
0.0062584
9.25274e-05
0.00631009
9.73885e-05
0.00636287
0.000100651
0.00641608
0.000102489
0.0064691
0.000103103
0.00652144
0.00010273
0.00657262
0.000101566
0.00662227
9.97662e-05
0.00667015
9.74574e-05
0.00671609
9.48149e-05
0.00675997
9.19725e-05
0.00680177
8.90246e-05
0.00684148
8.60445e-05
0.00687919
8.30791e-05
0.00691496
8.01535e-05
0.00694894
7.72866e-05
0.00698122
7.44939e-05
0.00701194
7.17858e-05
0.00704121
6.91716e-05
0.00706914
6.66664e-05
0.00709584
6.42952e-05
0.00712141
6.209e-05
0.00714598
6.0087e-05
0.00716968
5.83234e-05
0.00719266
5.68281e-05
0.00721505
5.56062e-05
0.00723692
5.46293e-05
0.00725828
5.38352e-05
0.00727911
5.31498e-05
0.00729935
5.25124e-05
0.00731898
5.18719e-05
0.00733793
5.12086e-05
0.00735615
5.05311e-05
0.00737354
4.98405e-05
0.00739003
4.91265e-05
0.00740554
4.83815e-05
0.00742001
4.76096e-05
0.00743338
4.68284e-05
0.00744555
4.60551e-05
0.00745638
4.52981e-05
0.00746576
4.45559e-05
0.00747375
4.38205e-05
0.00748056
4.30877e-05
0.00748657
4.23626e-05
0.00749206
4.16547e-05
0.00749707
4.09531e-05
0.00750131
4.02223e-05
0.00750427
3.94191e-05
0.00750565
3.85018e-05
0.00750567
3.74563e-05
0.00750517
3.63078e-05
0.00750538
3.51052e-05
0.00750734
3.38877e-05
0.00751136
3.26574e-05
0.00751681
3.13769e-05
0.0075225
3.00003e-05
0.00752736
2.85164e-05
0.00753113
2.69733e-05
0.00753467
2.54722e-05
0.00753967
2.413e-05
0.00754793
2.30355e-05
0.00756051
2.22295e-05
0.00757727
2.17046e-05
0.00759698
2.14107e-05
0.00761787
2.12771e-05
0.00763842
2.12435e-05
0.00765784
2.12756e-05
0.0076763
2.13647e-05
0.00769455
2.15193e-05
0.00771344
2.17475e-05
0.00773337
2.2047e-05
0.00775398
2.2405e-05
0.0077742
2.28055e-05
0.00779248
2.32352e-05
0.00780723
2.36832e-05
0.0078172
2.41352e-05
0.00782175
2.45678e-05
0.00782092
2.49464e-05
0.0078154
2.52307e-05
0.00780631
2.53842e-05
0.00779499
2.53852e-05
0.00778278
2.52322e-05
0.00777082
2.4944e-05
0.00775999
2.45542e-05
0.00775087
2.41042e-05
0.00774374
2.36349e-05
0.00773866
2.31805e-05
0.00773551
2.27666e-05
0.00773409
2.24086e-05
0.00773413
2.21143e-05
0.00773536
2.18838e-05
0.00773751
2.17127e-05
0.00774036
2.15917e-05
0.00774373
2.15115e-05
0.00774747
2.14622e-05
0.00775147
2.14371e-05
0.00775565
2.14297e-05
0.00775994
2.14351e-05
0.0077643
2.145e-05
0.00776871
2.14702e-05
0.00777312
2.14966e-05
0.00777755
2.15214e-05
0.00778197
2.15535e-05
0.00778639
2.15743e-05
0.00779078
2.16074e-05
0.00779517
2.16126e-05
0.00779954
2.16383e-05
0.0078039
2.16107e-05
0.00780821
2.16094e-05
0.00781252
2.1534e-05
0.0078167
2.14726e-05
0.00782094
2.1346e-05
2.1146e-05
0.00600928
4.25339e-06
0.00602427
1.26598e-05
0.0060471
2.06269e-05
0.00607678
2.77367e-05
0.00611232
3.38402e-05
0.00615286
3.89893e-05
0.00619744
4.32725e-05
0.00624509
4.67106e-05
0.00629483
4.93052e-05
0.00634583
5.11086e-05
0.00639737
5.22124e-05
0.00644879
5.27371e-05
0.00649956
5.27991e-05
0.00654928
5.24956e-05
0.0065976
5.19051e-05
0.00664427
5.11056e-05
0.0066891
5.01663e-05
0.00673203
4.91408e-05
0.00677305
4.80687e-05
0.00681217
4.69809e-05
0.00684948
4.59006e-05
0.00688506
4.48208e-05
0.00691903
4.37415e-05
0.00695151
4.26629e-05
0.00698263
4.15919e-05
0.0070125
4.05428e-05
0.00704124
3.95294e-05
0.00706895
3.85681e-05
0.00709574
3.76808e-05
0.0071217
3.6894e-05
0.00714697
3.62358e-05
0.00717165
3.57271e-05
0.00719587
3.53685e-05
0.00721967
3.51406e-05
0.00724306
3.50019e-05
0.00726601
3.49008e-05
0.00728847
3.48062e-05
0.00731042
3.46788e-05
0.0073318
3.45135e-05
0.00735255
3.43151e-05
0.00737258
3.40711e-05
0.00739181
3.37727e-05
0.00741018
3.34231e-05
0.00742765
3.30333e-05
0.00744415
3.26178e-05
0.00745958
3.21895e-05
0.00747374
3.17515e-05
0.00748648
3.12986e-05
0.00749779
3.0828e-05
0.00750794
3.03486e-05
0.00751735
2.98821e-05
0.00752642
2.94453e-05
0.00753516
2.90285e-05
0.00754314
2.85928e-05
0.00754967
2.80902e-05
0.00755422
2.74923e-05
0.00755695
2.68147e-05
0.00755884
2.61163e-05
0.00756135
2.54612e-05
0.00756573
2.48676e-05
0.00757233
2.42878e-05
0.00758038
2.3636e-05
0.00758835
2.28489e-05
0.00759486
2.19342e-05
0.00759953
2.09712e-05
0.00760334
2.00832e-05
0.00760832
1.93766e-05
0.00761661
1.88841e-05
0.00762955
1.85607e-05
0.00764709
1.83239e-05
0.0076679
1.81046e-05
0.00769001
1.78844e-05
0.00771167
1.77018e-05
0.007732
1.76216e-05
0.00775114
1.76903e-05
0.00777
1.79037e-05
0.00778965
1.82018e-05
0.00781072
1.84951e-05
0.00783305
1.87038e-05
0.00785564
1.87928e-05
0.00787691
1.87832e-05
0.00789512
1.87392e-05
0.0079088
1.8739e-05
0.00791704
1.88429e-05
0.00791966
1.90709e-05
0.00791713
1.93973e-05
0.00791045
1.97628e-05
0.0079009
2.0095e-05
0.00788984
2.03299e-05
0.0078785
2.04268e-05
0.00786789
2.03738e-05
0.00785871
2.01859e-05
0.00785137
1.98957e-05
0.00784604
1.95439e-05
0.00784267
1.91699e-05
0.0078411
1.88071e-05
0.0078411
1.84795e-05
0.00784239
1.82011e-05
0.00784473
1.79772e-05
0.00784786
1.78058e-05
0.00785161
1.76809e-05
0.00785579
1.75948e-05
0.00786029
1.75396e-05
0.007865
1.75088e-05
0.00786986
1.74952e-05
0.00787482
1.74964e-05
0.00787983
1.75046e-05
0.00788487
1.75236e-05
0.00788993
1.75406e-05
0.00789499
1.75695e-05
0.00790005
1.75845e-05
0.0079051
1.76187e-05
0.00791014
1.76191e-05
0.00791516
1.76534e-05
0.00792017
1.76228e-05
0.00792514
1.76506e-05
0.0079301
1.75738e-05
0.00793497
1.75902e-05
0.00793979
1.74936e-05
1.74702e-05
0.00600905
2.06589e-07
0.00602337
6.0947e-07
0.0060453
9.6359e-07
0.00607406
1.21803e-06
0.00610872
1.37182e-06
0.00614833
1.4767e-06
0.00619198
1.59008e-06
0.00623877
1.74904e-06
0.00628777
1.96377e-06
0.00633811
2.22658e-06
0.00638905
2.53635e-06
0.00643992
2.91294e-06
0.00649021
3.35639e-06
0.00653948
3.8694e-06
0.00658739
4.45272e-06
0.0066337
5.10425e-06
0.00667824
5.81429e-06
0.00672092
6.55993e-06
0.00676171
7.33318e-06
0.00680064
8.11817e-06
0.00683777
8.89447e-06
0.00687321
9.63831e-06
0.00690705
1.03303e-05
0.00693941
1.09552e-05
0.00697043
1.15099e-05
0.00700021
1.20132e-05
0.00702889
1.24713e-05
0.00705656
1.28971e-05
0.00708333
1.33075e-05
0.00710929
1.37218e-05
0.00713457
1.41588e-05
0.00715927
1.4633e-05
0.00718349
1.51502e-05
0.00720726
1.56982e-05
0.00723058
1.62571e-05
0.00725338
1.68004e-05
0.00727565
1.72887e-05
0.00729742
1.76635e-05
0.00731862
1.7994e-05
0.0073392
1.82609e-05
0.00735906
1.84454e-05
0.00737813
1.85513e-05
0.00739633
1.85874e-05
0.00741364
1.85638e-05
0.00743002
1.84942e-05
0.00744533
1.83889e-05
0.00745937
1.82498e-05
0.00747195
1.80756e-05
0.00748309
1.78725e-05
0.00749308
1.76601e-05
0.0075024
1.74649e-05
0.00751144
1.73002e-05
0.00752019
1.7152e-05
0.00752812
1.6985e-05
0.00753445
1.67671e-05
0.00753869
1.64987e-05
0.00754112
1.62242e-05
0.00754287
1.60105e-05
0.00754552
1.59013e-05
0.00755028
1.58803e-05
0.00755735
1.58715e-05
0.00756575
1.57689e-05
0.00757384
1.55131e-05
0.00758026
1.51543e-05
0.00758479
1.48076e-05
0.00758865
1.459e-05
0.00759399
1.4548e-05
0.007603
1.46193e-05
0.00761688
1.46781e-05
0.00763538
1.46096e-05
0.00765697
1.43751e-05
0.00767958
1.40414e-05
0.00770147
1.37498e-05
0.00772185
1.36402e-05
0.00774102
1.37755e-05
0.00776
1.41082e-05
0.00777986
1.44973e-05
0.0078012
1.4768e-05
0.00782378
1.47838e-05
0.0078465
1.44998e-05
0.00786776
1.39781e-05
0.00788584
1.336e-05
0.00789935
1.28154e-05
0.00790749
1.24872e-05
0.00791016
1.24503e-05
0.00790793
1.26993e-05
0.00790182
1.31625e-05
0.00789309
1.37307e-05
0.00788305
1.42913e-05
0.00787285
1.47535e-05
0.00786341
1.50625e-05
0.00785536
1.52032e-05
0.00784906
1.51915e-05
0.00784463
1.50613e-05
0.00784203
1.48545e-05
0.00784109
1.4611e-05
0.00784158
1.43637e-05
0.00784326
1.41357e-05
0.00784588
1.39406e-05
0.00784923
1.37834e-05
0.00785314
1.36632e-05
0.00785744
1.35765e-05
0.00786203
1.35172e-05
0.00786681
1.34812e-05
0.00787172
1.34615e-05
0.00787672
1.34571e-05
0.00788177
1.34596e-05
0.00788685
1.34741e-05
0.00789194
1.34866e-05
0.00789703
1.35129e-05
0.00790211
1.3525e-05
0.00790719
1.35593e-05
0.00791225
1.35593e-05
0.0079173
1.36001e-05
0.00792232
1.35742e-05
0.00792732
1.36228e-05
0.00793228
1.35601e-05
0.00793719
1.36237e-05
0.00794209
1.35222e-05
1.36406e-05
0.00600902
-3.80781e-06
0.00602325
-1.13603e-05
0.0060451
-1.86163e-05
0.00607381
-2.52471e-05
0.00610845
-3.10828e-05
0.00614808
-3.60587e-05
0.00619178
-4.01311e-05
0.00623861
-4.3256e-05
0.00628765
-4.54218e-05
0.00633804
-4.66945e-05
0.00638901
-4.71731e-05
0.00643992
-4.69558e-05
0.00649026
-4.61373e-05
0.00653957
-4.48046e-05
0.00658753
-4.3043e-05
0.00663388
-4.09396e-05
0.00667846
-3.858e-05
0.00672117
-3.6049e-05
0.00676197
-3.34112e-05
0.00680089
-3.07292e-05
0.00683798
-2.80659e-05
0.00687334
-2.54765e-05
0.0069071
-2.29992e-05
0.00693938
-2.0665e-05
0.0069703
-1.8477e-05
0.007
-1.64285e-05
0.0070286
-1.45136e-05
0.00705622
-1.27199e-05
0.00708296
-1.1033e-05
0.00710891
-9.43813e-06
0.00713418
-7.92057e-06
0.00715889
-6.46834e-06
0.00718312
-5.07058e-06
0.00720688
-3.73256e-06
0.00723017
-2.46327e-06
0.00725293
-1.26544e-06
0.00727509
-1.14504e-07
0.00729677
7.3399e-07
0.00731787
1.58301e-06
0.00733833
2.3169e-06
0.00735809
2.92958e-06
0.00737704
3.44223e-06
0.00739512
3.86244e-06
0.00741233
4.19759e-06
0.00742861
4.4631e-06
0.00744384
4.67186e-06
0.00745779
4.82913e-06
0.00747028
4.93946e-06
0.00748131
5.01204e-06
0.00749119
5.07127e-06
0.00750042
5.14389e-06
0.00750939
5.23861e-06
0.00751807
5.34552e-06
0.00752593
5.444e-06
0.00753215
5.52385e-06
0.00753625
5.60695e-06
0.00753854
5.75109e-06
0.00754017
6.02497e-06
0.00754274
6.45625e-06
0.00754748
6.98645e-06
0.00755457
7.49948e-06
0.00756299
7.90865e-06
0.00757104
8.19837e-06
0.00757733
8.45295e-06
0.00758171
8.76432e-06
0.00758547
9.20456e-06
0.00759085
9.75661e-06
0.00760006
1.02741e-05
0.00761428
1.05957e-05
0.00763314
1.06372e-05
0.00765499
1.04316e-05
0.00767767
1.01176e-05
0.00769944
9.87304e-06
0.0077196
9.83304e-06
0.00773857
1.00275e-05
0.00775748
1.03653e-05
0.00777749
1.06684e-05
0.00779915
1.07445e-05
0.00782214
1.04662e-05
0.00784523
9.81905e-06
0.00786671
8.9049e-06
0.00788476
7.90274e-06
0.007898
7.01533e-06
0.00790568
6.4169e-06
0.0079078
6.20481e-06
0.00790504
6.38404e-06
0.0078985
6.87989e-06
0.00788952
7.56885e-06
0.00787941
8.31813e-06
0.00786932
9.01179e-06
0.00786013
9.56928e-06
0.00785244
9.95752e-06
0.00784653
1.01786e-05
0.00784251
1.02577e-05
0.00784028
1.02314e-05
0.00783967
1.01379e-05
0.00784044
1.00107e-05
0.00784234
9.87586e-06
0.00784514
9.75049e-06
0.00784862
9.64407e-06
0.00785262
9.55962e-06
0.007857
9.49715e-06
0.00786163
9.4535e-06
0.00786644
9.42698e-06
0.00787138
9.41217e-06
0.00787638
9.40998e-06
0.00788144
9.41229e-06
0.00788651
9.42622e-06
0.0078916
9.43667e-06
0.00789669
9.46257e-06
0.00790177
9.47306e-06
0.00790684
9.50975e-06
0.00791189
9.50968e-06
0.00791693
9.55841e-06
0.00792194
9.5362e-06
0.00792693
9.60319e-06
0.0079319
9.54845e-06
0.00793681
9.64895e-06
0.00794168
9.58264e-06
9.73599e-06
0.00600917
-7.95121e-06
0.00602386
-2.37828e-05
0.00604639
-3.88806e-05
0.00607588
-5.24977e-05
0.0061114
-6.441e-05
0.00615199
-7.4558e-05
0.00619669
-8.28506e-05
0.00624447
-8.92129e-05
0.00629438
-9.36774e-05
0.00634556
-9.64042e-05
0.00639725
-9.76017e-05
0.00644881
-9.74718e-05
0.00649973
-9.62105e-05
0.00654957
-9.3996e-05
0.00659798
-9.09965e-05
0.00664473
-8.73766e-05
0.00668963
-8.32965e-05
0.00673259
-7.89079e-05
0.00677358
-7.43427e-05
0.00681263
-6.9708e-05
0.00684979
-6.50995e-05
0.00688518
-6.06161e-05
0.00691892
-5.63167e-05
0.00695114
-5.22418e-05
0.00698199
-4.84067e-05
0.00701162
-4.48104e-05
0.00704015
-4.14435e-05
0.00706771
-3.82932e-05
0.0070944
-3.53453e-05
0.00712032
-3.25839e-05
0.00714557
-2.99926e-05
0.00717025
-2.75568e-05
0.00719442
-2.5266e-05
0.00721812
-2.312e-05
0.00724134
-2.11207e-05
0.00726404
-1.92701e-05
0.00728626
-1.75818e-05
0.00730785
-1.60992e-05
0.00732887
-1.47557e-05
0.00734927
-1.35527e-05
0.00736896
-1.25005e-05
0.00738786
-1.15868e-05
0.00740592
-1.07933e-05
0.00742309
-1.01016e-05
0.00743934
-9.49593e-06
0.00745454
-8.96697e-06
0.00746849
-8.51091e-06
0.00748101
-8.12177e-06
0.00749209
-7.7864e-06
0.00750201
-7.47402e-06
0.00751122
-7.15141e-06
0.00752015
-6.81429e-06
0.00752881
-6.46629e-06
0.00753673
-6.10912e-06
0.00754312
-5.72656e-06
0.00754743
-5.2752e-06
0.00754984
-4.69336e-06
0.00755144
-3.93141e-06
0.00755382
-2.99012e-06
0.00755826
-1.93552e-06
0.00756503
-8.62685e-07
0.00757323
1.15019e-07
0.00758124
9.67772e-07
0.00758759
1.86516e-06
0.00759198
2.8686e-06
0.00759555
3.97295e-06
0.00760052
5.09294e-06
0.00760916
6.00801e-06
0.00762274
6.58585e-06
0.00764102
6.77382e-06
0.00766244
6.64638e-06
0.00768487
6.38796e-06
0.00770652
6.20231e-06
0.00772662
6.21354e-06
0.00774553
6.40978e-06
0.00776439
6.6666e-06
0.00778435
6.80191e-06
0.00780601
6.64906e-06
0.00782903
6.12405e-06
0.00785216
5.24923e-06
0.0078736
4.15086e-06
0.00789146
3.0169e-06
0.00790428
2.04253e-06
0.0079113
1.38787e-06
0.00791255
1.13256e-06
0.00790877
1.27343e-06
0.0079012
1.7389e-06
0.00789125
2.41066e-06
0.00788032
3.16261e-06
0.00786959
3.88454e-06
0.00785994
4.49647e-06
0.00785195
4.96704e-06
0.00784588
5.29163e-06
0.00784179
5.487e-06
0.00783957
5.58093e-06
0.00783899
5.6039e-06
0.00783981
5.58317e-06
0.00784176
5.54131e-06
0.00784461
5.49389e-06
0.00784813
5.45046e-06
0.00785216
5.41475e-06
0.00785655
5.38869e-06
0.0078612
5.37098e-06
0.00786602
5.36252e-06
0.00787095
5.35916e-06
0.00787595
5.36452e-06
0.007881
5.37021e-06
0.00788607
5.38682e-06
0.00789114
5.39653e-06
0.00789621
5.42422e-06
0.00790128
5.43213e-06
0.00790634
5.47396e-06
0.00791138
5.47172e-06
0.0079164
5.53273e-06
0.00792141
5.50801e-06
0.00792638
5.59649e-06
0.00793134
5.53987e-06
0.00793626
5.67221e-06
0.00794118
5.59263e-06
5.79105e-06
0.00600947
-1.23591e-05
0.00602519
-3.72353e-05
0.00604916
-6.05781e-05
0.00608026
-8.13533e-05
0.00611759
-9.95537e-05
0.00616021
-0.000115085
0.00620704
-0.000127706
0.00625696
-0.000137298
0.00630893
-0.000143993
0.00636209
-0.000148099
0.00641568
-0.000149924
0.00646902
-0.000149764
0.00652159
-0.000147927
0.00657291
-0.000144676
0.00662266
-0.000140267
0.00667055
-0.000134952
0.00671641
-0.000128967
0.00676013
-0.00012253
0.00680168
-0.000115834
0.00684109
-0.000109048
0.00687843
-0.000102317
0.00691382
-9.57669e-05
0.0069474
-8.94897e-05
0.00697933
-8.35388e-05
0.00700976
-7.79358e-05
0.00703885
-7.26813e-05
0.00706675
-6.77653e-05
0.00709358
-6.31732e-05
0.00711947
-5.88872e-05
0.00714451
-5.48877e-05
0.00716882
-5.11536e-05
0.00719248
-4.76664e-05
0.00721557
-4.44173e-05
0.00723812
-4.1399e-05
0.00726013
-3.86092e-05
0.00728159
-3.60515e-05
0.00730247
-3.37159e-05
0.00732273
-3.16133e-05
0.00734237
-2.97307e-05
0.00736137
-2.80377e-05
0.00737965
-2.65244e-05
0.00739714
-2.51848e-05
0.00741378
-2.40014e-05
0.00742953
-2.29453e-05
0.00744433
-2.19984e-05
0.00745806
-2.1146e-05
0.00747056
-2.03769e-05
0.00748167
-1.96813e-05
0.00749139
-1.905e-05
0.00749995
-1.84696e-05
0.00750775
-1.79206e-05
0.00751516
-1.73803e-05
0.00752224
-1.68188e-05
0.00752861
-1.62014e-05
0.00753363
-1.54944e-05
0.00753681
-1.46713e-05
0.00753833
-1.37101e-05
0.00753914
-1.25826e-05
0.00754063
-1.128e-05
0.00754402
-9.85587e-06
0.00754967
-8.39526e-06
0.0075568
-6.92015e-06
0.00756388
-5.39891e-06
0.00756959
-3.7944e-06
0.00757367
-2.17386e-06
0.00757725
-6.86927e-07
0.00758224
7.6168e-07
0.0075908
1.7923e-06
0.00760409
2.43633e-06
0.00762182
2.75602e-06
0.00764245
2.88254e-06
0.00766393
2.93655e-06
0.00768464
2.97517e-06
0.007704
3.00062e-06
0.00772247
2.97532e-06
0.00774116
2.85264e-06
0.00776111
2.57237e-06
0.00778271
2.10345e-06
0.00780542
1.46824e-06
0.00782781
7.34349e-07
0.00784793
2.7841e-08
0.00786387
-5.65168e-07
0.00787424
-1.00122e-06
0.00787848
-1.22908e-06
0.00787686
-1.24484e-06
0.00787036
-1.07656e-06
0.00786042
-7.76405e-07
0.00784858
-4.09218e-07
0.00783625
-4.28905e-09
0.00782458
3.90185e-07
0.00781439
7.12059e-07
0.00780614
9.69239e-07
0.0078
1.16359e-06
0.00779594
1.30309e-06
0.00779376
1.39857e-06
0.00779322
1.46221e-06
0.00779403
1.50397e-06
0.00779592
1.53191e-06
0.00779865
1.55094e-06
0.00780201
1.56505e-06
0.00780583
1.5759e-06
0.00780998
1.58599e-06
0.00781436
1.59491e-06
0.0078189
1.60562e-06
0.00782354
1.61495e-06
0.00782824
1.62901e-06
0.00783298
1.639e-06
0.00783774
1.65925e-06
0.0078425
1.66845e-06
0.00784726
1.69899e-06
0.00785201
1.70331e-06
0.00785675
1.75102e-06
0.00786148
1.74221e-06
0.00786619
1.81821e-06
0.00787089
1.78256e-06
0.00787556
1.89907e-06
0.00788023
1.81933e-06
0.00788486
1.98661e-06
0.00788951
1.87153e-06
2.07506e-06
0.00601017
-1.73993e-05
0.00602769
-5.24878e-05
0.0060541
-8.47206e-05
0.00608848
-0.000113486
0.00613013
-0.000139018
0.00617792
-0.000160779
0.00623032
-0.000178125
0.00628569
-0.000190839
0.00634256
-0.000199205
0.0063996
-0.000203669
0.00645566
-0.000204722
0.00650987
-0.00020291
0.0065615
-0.000198704
0.00661004
-0.000192565
0.0066552
-0.000184947
0.00669683
-0.000176261
0.00673492
-0.000166866
0.00676957
-0.000157067
0.00680094
-0.00014713
0.00682924
-0.000137272
0.00685474
-0.000127669
0.0068777
-0.000118462
0.0068984
-0.000109745
0.00691712
-0.000101569
0.0069341
-9.39489e-05
0.00694959
-8.68677e-05
0.00696378
-8.02985e-05
0.00697686
-7.42126e-05
0.00698899
-6.85821e-05
0.00700032
-6.33795e-05
0.00701097
-5.85758e-05
0.00702105
-5.41433e-05
0.00703063
-5.00579e-05
0.00703975
-4.62981e-05
0.0070484
-4.28556e-05
0.00705658
-3.97371e-05
0.00706429
-3.6931e-05
0.00707153
-3.44271e-05
0.00707826
-3.22006e-05
0.00708442
-3.02036e-05
0.00708993
-2.84017e-05
0.00709471
-2.67852e-05
0.00709871
-2.53456e-05
0.00710185
-2.40514e-05
0.00710404
-2.28787e-05
0.00710519
-2.18207e-05
0.00710525
-2.0868e-05
0.00710425
-2.00139e-05
0.00710238
-1.9253e-05
0.00709989
-1.85746e-05
0.00709706
-1.79557e-05
0.00709394
-1.73648e-05
0.00709038
-1.67651e-05
0.00708615
-1.6119e-05
0.00708117
-1.53968e-05
0.00707579
-1.45863e-05
0.00707078
-1.36826e-05
0.00706707
-1.26683e-05
0.00706532
-1.15301e-05
0.00706556
-1.0283e-05
0.00706719
-8.96445e-06
0.00706936
-7.58868e-06
0.00707153
-6.12835e-06
0.00707385
-4.58073e-06
0.00707721
-3.05162e-06
0.00708281
-1.70459e-06
0.00709179
-6.54013e-07
0.00710419
6.60084e-08
0.00711924
4.80393e-07
0.00713564
6.30534e-07
0.00715213
5.86736e-07
0.00716793
4.51435e-07
0.00718292
2.7596e-07
0.00719749
8.59683e-08
0.00721229
-2.14771e-07
0.00722762
-5.41936e-07
0.00724323
-8.57334e-07
0.00725826
-1.11557e-06
0.00727145
-1.28498e-06
0.00728151
-1.36778e-06
0.0072875
-1.3831e-06
0.00728901
-1.36081e-06
0.00728622
-1.32598e-06
0.00727985
-1.28512e-06
0.00727094
-1.23954e-06
0.00726066
-1.18453e-06
0.0072501
-1.11606e-06
0.00724012
-1.03592e-06
0.00723137
-9.46303e-07
0.00722421
-8.49868e-07
0.00721874
-7.58172e-07
0.00721492
-6.71793e-07
0.00721258
-5.95822e-07
0.00721153
-5.32451e-07
0.00721153
-4.80644e-07
0.00721236
-4.38637e-07
0.00721383
-4.05393e-07
0.00721578
-3.79071e-07
0.00721807
-3.58663e-07
0.00722061
-3.42307e-07
0.00722331
-3.29586e-07
0.00722612
-3.18402e-07
0.007229
-3.09218e-07
0.00723193
-2.99049e-07
0.00723488
-2.90654e-07
0.00723783
-2.78283e-07
0.00724079
-2.69771e-07
0.00724375
-2.52095e-07
0.0072467
-2.44398e-07
0.00724964
-2.16981e-07
0.00725257
-2.13994e-07
0.00725549
-1.68711e-07
0.0072584
-1.75678e-07
0.0072613
-1.0453e-07
0.00726419
-1.40036e-07
0.00726707
-2.96034e-08
0.00726995
-1.1169e-07
0.00727282
4.74996e-08
0.0072757
-8.52519e-08
-3.31937e-09
0.00601631
-2.84922e-05
0.00604485
-7.87531e-05
0.00608377
-0.000121376
0.00612902
-0.000156494
0.00617586
-0.000183668
0.00621967
-0.000202496
0.00625708
-0.000213559
0.00628609
-0.000218019
0.00630591
-0.000217366
0.00631637
-0.000212674
0.00631793
-0.000205023
0.00631149
-0.000195418
0.00629794
-0.000184318
0.00627833
-0.000172303
0.00625372
-0.000159857
0.00622513
-0.000147311
0.00619346
-0.000134927
0.00615954
-0.000122914
0.00612412
-0.000111442
0.00608784
-0.00010063
0.00605123
-9.05471e-05
0.00601473
-8.12327e-05
0.00597867
-7.26941e-05
0.0059433
-6.49164e-05
0.00590882
-5.78609e-05
0.00587536
-5.14712e-05
0.005843
-4.56886e-05
0.00581182
-4.04622e-05
0.00578184
-3.57485e-05
0.00575307
-3.15076e-05
0.0057255
-2.7702e-05
0.00569908
-2.42972e-05
0.00567378
-2.12634e-05
0.0056495
-1.85675e-05
0.00562615
-1.61741e-05
0.00560369
-1.41168e-05
0.00558203
-1.23591e-05
0.00556102
-1.08661e-05
0.00554049
-9.59877e-06
0.00552026
-8.51142e-06
0.0055003
-7.57281e-06
0.00548064
-6.76777e-06
0.0054613
-6.08042e-06
0.00544223
-5.48936e-06
0.00542329
-4.98191e-06
0.00540444
-4.55976e-06
0.00538583
-4.22937e-06
0.00536778
-3.99679e-06
0.00535065
-3.86374e-06
0.00533464
-3.8229e-06
0.00531972
-3.85596e-06
0.00530585
-3.93651e-06
0.00529305
-4.03273e-06
0.0052816
-4.11033e-06
0.00527188
-4.14027e-06
0.0052642
-4.11377e-06
0.00525867
-4.02044e-06
0.00525507
-3.82606e-06
0.00525311
-3.54669e-06
0.00525245
-3.19783e-06
0.00525291
-2.80043e-06
0.00525443
-2.35819e-06
0.00525711
-1.85328e-06
0.00526103
-1.2918e-06
0.00526608
-7.29904e-07
0.00527191
-2.2091e-07
0.00527801
1.24619e-07
0.00528378
3.24411e-07
0.00528869
4.15955e-07
0.00529234
4.31545e-07
0.00529462
3.65363e-07
0.00529564
2.47246e-07
0.00529564
1.06331e-07
0.00529489
-3.08476e-08
0.00529346
-1.17662e-07
0.00529154
-2.15188e-07
0.00528924