/*--------------------------------*- C++ -*----------------------------------*\
  =========                 |
  \\      /  F ield         | OpenFOAM: The Open Source CFD Toolbox
   \\    /   O peration     | Website:  https://openfoam.org
    \\  /    A nd           | Version:  7
     \\/     M anipulation  |
\*---------------------------------------------------------------------------*/
FoamFile
{
    version     2.0;
    format      ascii;
    class       volScalarField;
    location    "1.7";
    object      rho_0;
}
// * * * * * * * * * * * * * * * * * * * * * * * * * * * * * * * * * * * * * //

dimensions      [1 -3 0 0 0 0 0];

internalField   nonuniform List<scalar> 
2400
(
1.229
1.22899
1.22897
1.22896
1.22895
1.22896
1.22896
1.22897
1.22897
1.22898
1.22899
1.22899
1.229
1.229
1.229
1.229
1.22899
1.22899
1.22899
1.22898
1.22897
1.22897
1.22896
1.22895
1.22895
1.22894
1.22894
1.22893
1.22893
1.22892
1.22892
1.22892
1.22891
1.22893
1.22889
1.22899
1.22878
1.22922
1.22826
1.23042
1.22899
1.22898
1.22897
1.22896
1.22895
1.22895
1.22896
1.22897
1.22898
1.22899
1.22901
1.22902
1.22903
1.22905
1.22906
1.22907
1.22907
1.22908
1.22908
1.22909
1.22908
1.22907
1.22906
1.22905
1.22903
1.22901
1.22899
1.22898
1.22896
1.22895
1.22892
1.22893
1.22889
1.22893
1.22884
1.22897
1.22877
1.22908
1.22863
1.22929
1.22898
1.22897
1.22896
1.22895
1.22895
1.22895
1.22896
1.22896
1.22898
1.22899
1.229
1.22902
1.22903
1.22905
1.22906
1.22907
1.22908
1.22909
1.2291
1.22911
1.22911
1.22912
1.22912
1.22912
1.22911
1.2291
1.22908
1.22906
1.22904
1.22902
1.22899
1.22897
1.22894
1.22893
1.2289
1.2289
1.22886
1.22887
1.22884
1.22883
1.22896
1.22896
1.22895
1.22894
1.22893
1.22894
1.22894
1.22895
1.22897
1.22898
1.22899
1.22901
1.22902
1.22904
1.22905
1.22907
1.22908
1.22909
1.22909
1.2291
1.22911
1.22912
1.22913
1.22913
1.22914
1.22913
1.22912
1.22911
1.22909
1.22907
1.22905
1.22903
1.229
1.22898
1.22896
1.22893
1.22891
1.22889
1.22888
1.22885
1.22894
1.22894
1.22893
1.22892
1.22892
1.22892
1.22893
1.22894
1.22895
1.22896
1.22898
1.22899
1.22901
1.22902
1.22904
1.22905
1.22906
1.22907
1.22908
1.22909
1.2291
1.22911
1.22912
1.22912
1.22913
1.22912
1.22911
1.2291
1.22908
1.22907
1.22905
1.22903
1.22901
1.22898
1.22896
1.22893
1.22891
1.22889
1.22887
1.22886
1.22893
1.22892
1.22891
1.22891
1.2289
1.2289
1.22891
1.22892
1.22894
1.22895
1.22896
1.22898
1.22899
1.22901
1.22902
1.22904
1.22905
1.22906
1.22907
1.22907
1.22908
1.22909
1.2291
1.22911
1.22911
1.22911
1.2291
1.22909
1.22907
1.22905
1.22903
1.22901
1.22899
1.22897
1.22894
1.22892
1.2289
1.22888
1.22886
1.22885
1.22891
1.22891
1.2289
1.22889
1.22888
1.22889
1.22889
1.22891
1.22892
1.22893
1.22895
1.22896
1.22898
1.22899
1.22901
1.22902
1.22903
1.22904
1.22905
1.22906
1.22907
1.22908
1.22909
1.22909
1.2291
1.22909
1.22908
1.22907
1.22905
1.22904
1.22902
1.229
1.22898
1.22895
1.22893
1.22891
1.22888
1.22886
1.22884
1.22883
1.22889
1.22889
1.22888
1.22887
1.22886
1.22887
1.22887
1.22889
1.2289
1.22891
1.22893
1.22894
1.22896
1.22897
1.22899
1.229
1.22901
1.22902
1.22903
1.22904
1.22905
1.22906
1.22907
1.22908
1.22908
1.22908
1.22907
1.22906
1.22904
1.22902
1.229
1.22898
1.22896
1.22894
1.22892
1.22889
1.22887
1.22885
1.22883
1.22882
1.22888
1.22887
1.22886
1.22885
1.22885
1.22885
1.22886
1.22887
1.22889
1.2289
1.22892
1.22893
1.22894
1.22896
1.22898
1.22899
1.229
1.22901
1.22902
1.22903
1.22904
1.22905
1.22906
1.22906
1.22907
1.22906
1.22905
1.22904
1.22902
1.229
1.22898
1.22896
1.22894
1.22891
1.22889
1.22886
1.22884
1.22882
1.2288
1.22879
1.22887
1.22886
1.22885
1.22884
1.22884
1.22884
1.22885
1.22886
1.22887
1.22889
1.2289
1.22891
1.22893
1.22894
1.22896
1.22897
1.22898
1.22899
1.229
1.22901
1.22902
1.22903
1.22903
1.22903
1.22902
1.229
1.22899
1.22897
1.22895
1.22893
1.2289
1.22888
1.22886
1.22884
1.22882
1.2288
1.22878
1.22877
1.22876
1.22874
1.22886
1.22886
1.22885
1.22883
1.22883
1.22883
1.22883
1.22884
1.22886
1.22887
1.22888
1.2289
1.22891
1.22893
1.22894
1.22895
1.22896
1.22897
1.22897
1.22897
1.22897
1.22896
1.22895
1.22894
1.22892
1.22891
1.22889
1.22887
1.22886
1.22884
1.22883
1.22882
1.22881
1.2288
1.22879
1.22879
1.22879
1.22879
1.22879
1.22881
1.22886
1.22885
1.22883
1.22882
1.22882
1.22882
1.22883
1.22883
1.22884
1.22885
1.22886
1.22886
1.22887
1.22887
1.22887
1.22887
1.22887
1.22887
1.22887
1.22886
1.22886
1.22885
1.22884
1.22884
1.22883
1.22883
1.22882
1.22882
1.22881
1.22881
1.22881
1.22881
1.22881
1.22881
1.22881
1.22881
1.22881
1.22882
1.22882
1.22882
1.21814
1.20862
1.2025
1.19768
1.19358
1.18995
1.18666
1.18364
1.18086
1.17827
1.17584
1.17356
1.17141
1.16937
1.16743
1.16557
1.16379
1.16207
1.16042
1.15882
1.15728
1.15578
1.15433
1.15293
1.15157
1.15024
1.14896
1.1477
1.14648
1.14529
1.14412
1.14298
1.14187
1.1408
1.13975
1.13874
1.13777
1.13683
1.13594
1.13508
1.13426
1.13348
1.13273
1.13202
1.13135
1.1307
1.13009
1.12951
1.12897
1.12846
1.12798
1.12753
1.12711
1.12673
1.12637
1.12604
1.12573
1.12545
1.12519
1.12494
1.12471
1.12449
1.1243
1.12411
1.12394
1.12379
1.12366
1.12354
1.12343
1.12333
1.12325
1.12317
1.1231
1.12304
1.12298
1.12293
1.12288
1.12283
1.12279
1.12275
1.12272
1.1227
1.12268
1.12267
1.12266
1.12266
1.12267
1.12267
1.12268
1.12269
1.1227
1.12271
1.12273
1.12274
1.12276
1.12277
1.12279
1.1228
1.12282
1.12284
1.12285
1.12287
1.12288
1.1229
1.12292
1.12293
1.12295
1.12296
1.12298
1.12299
1.12301
1.12303
1.12304
1.12306
1.12307
1.12309
1.1231
1.12312
1.12314
1.12315
1.12317
1.12318
1.1232
1.12321
1.12323
1.12324
1.12326
1.12327
1.12329
1.1233
1.12332
1.12333
1.12335
1.12336
1.12338
1.12339
1.12341
1.12342
1.12344
1.12345
1.12347
1.12348
1.1235
1.12351
1.12352
1.12354
1.12355
1.12357
1.12358
1.1236
1.12361
1.12362
1.12364
1.12365
1.12366
1.12368
1.12369
1.12371
1.12371
1.12374
1.22721
1.22195
1.21708
1.21289
1.20921
1.20589
1.20283
1.19999
1.19734
1.19485
1.19251
1.19029
1.18819
1.1862
1.18429
1.18247
1.18071
1.17901
1.17737
1.17577
1.17422
1.1727
1.17123
1.1698
1.16842
1.16706
1.16575
1.16447
1.16323
1.16202
1.16083
1.15967
1.15853
1.15743
1.15634
1.15529
1.15426
1.15327
1.15232
1.15141
1.15053
1.1497
1.1489
1.14814
1.14742
1.14672
1.14606
1.14543
1.14483
1.14425
1.14371
1.1432
1.14272
1.14227
1.14186
1.14148
1.14112
1.14079
1.14049
1.1402
1.13994
1.13968
1.13945
1.13923
1.13902
1.13883
1.13865
1.13849
1.13834
1.13821
1.1381
1.138
1.13791
1.13783
1.13776
1.13769
1.13762
1.13756
1.1375
1.13744
1.13739
1.13735
1.13731
1.13728
1.13725
1.13723
1.13722
1.13721
1.1372
1.1372
1.1372
1.13721
1.13721
1.13722
1.13723
1.13724
1.13724
1.13725
1.13726
1.13727
1.13728
1.13729
1.1373
1.13731
1.13732
1.13733
1.13734
1.13735
1.13736
1.13737
1.13738
1.13739
1.1374
1.13741
1.13742
1.13743
1.13743
1.13744
1.13745
1.13746
1.13747
1.13748
1.13749
1.1375
1.13751
1.13752
1.13753
1.13754
1.13755
1.13756
1.13757
1.13758
1.13758
1.13759
1.1376
1.13761
1.13762
1.13763
1.13764
1.13765
1.13766
1.13767
1.13767
1.13768
1.13769
1.1377
1.13771
1.13772
1.13773
1.13774
1.13774
1.13775
1.13776
1.13777
1.13778
1.13779
1.13779
1.13781
1.13781
1.13783
1.22888
1.22757
1.22531
1.22275
1.22017
1.21766
1.21523
1.21288
1.21062
1.20844
1.20635
1.20435
1.20244
1.2006
1.19885
1.19716
1.19553
1.19394
1.1924
1.19088
1.1894
1.18794
1.1865
1.1851
1.18372
1.18238
1.18108
1.17981
1.17858
1.17738
1.17621
1.17506
1.17394
1.17284
1.17175
1.17068
1.16962
1.16859
1.16759
1.16662
1.16569
1.16479
1.16394
1.16313
1.16236
1.16162
1.16091
1.16023
1.15958
1.15894
1.15833
1.15774
1.15718
1.15665
1.15615
1.15569
1.15526
1.15487
1.1545
1.15417
1.15386
1.15356
1.15328
1.15302
1.15276
1.15251
1.15227
1.15205
1.15185
1.15167
1.1515
1.15136
1.15124
1.15114
1.15104
1.15096
1.15088
1.1508
1.15072
1.15064
1.15057
1.15049
1.15042
1.15036
1.15031
1.15026
1.15022
1.15019
1.15017
1.15015
1.15013
1.15013
1.15012
1.15012
1.15012
1.15012
1.15012
1.15012
1.15013
1.15013
1.15013
1.15014
1.15014
1.15014
1.15015
1.15015
1.15016
1.15016
1.15017
1.15017
1.15017
1.15018
1.15018
1.15019
1.15019
1.15019
1.1502
1.1502
1.15021
1.15021
1.15022
1.15022
1.15022
1.15023
1.15023
1.15024
1.15024
1.15025
1.15025
1.15025
1.15026
1.15026
1.15027
1.15027
1.15027
1.15028
1.15028
1.15029
1.15029
1.15029
1.1503
1.1503
1.1503
1.15031
1.15031
1.15032
1.15032
1.15032
1.15033
1.15033
1.15033
1.15034
1.15034
1.15035
1.15035
1.15035
1.15035
1.15036
1.15036
1.15037
1.22884
1.22873
1.22829
1.22744
1.22631
1.22498
1.22353
1.222
1.22042
1.21882
1.21722
1.21563
1.21408
1.21257
1.2111
1.20969
1.20832
1.20698
1.20566
1.20436
1.20306
1.20177
1.20048
1.19919
1.19791
1.19664
1.1954
1.1942
1.19303
1.1919
1.1908
1.18974
1.18869
1.18766
1.18663
1.18561
1.18458
1.18356
1.18255
1.18156
1.1806
1.17967
1.17878
1.17793
1.17713
1.17637
1.17565
1.17495
1.17426
1.17359
1.17293
1.17228
1.17165
1.17104
1.17045
1.1699
1.16939
1.16891
1.16848
1.16809
1.16773
1.1674
1.16708
1.16677
1.16647
1.16617
1.16587
1.16558
1.16531
1.16505
1.16482
1.16462
1.16444
1.1643
1.16418
1.16407
1.16398
1.16389
1.16379
1.1637
1.1636
1.1635
1.16339
1.16329
1.1632
1.16312
1.16305
1.16298
1.16293
1.16289
1.16286
1.16283
1.16281
1.1628
1.16279
1.16278
1.16278
1.16277
1.16277
1.16277
1.16276
1.16276
1.16276
1.16276
1.16276
1.16276
1.16276
1.16276
1.16276
1.16276
1.16276
1.16276
1.16276
1.16275
1.16275
1.16275
1.16275
1.16275
1.16275
1.16275
1.16275
1.16275
1.16275
1.16275
1.16275
1.16275
1.16275
1.16275
1.16275
1.16275
1.16275
1.16274
1.16274
1.16274
1.16274
1.16274
1.16274
1.16274
1.16274
1.16274
1.16274
1.16274
1.16274
1.16274
1.16274
1.16274
1.16273
1.16273
1.16273
1.16273
1.16273
1.16273
1.16273
1.16273
1.16273
1.16273
1.16272
1.16273
1.16272
1.16273
1.22881
1.22874
1.22872
1.22865
1.22847
1.22815
1.22766
1.22702
1.22625
1.22537
1.2244
1.22337
1.22231
1.22125
1.2202
1.21918
1.21818
1.21721
1.21626
1.2153
1.21434
1.21335
1.21233
1.21129
1.21022
1.20913
1.20806
1.207
1.20597
1.20497
1.20402
1.20311
1.20222
1.20134
1.20047
1.19959
1.19869
1.19777
1.19684
1.1959
1.19497
1.19406
1.19318
1.19235
1.19156
1.19083
1.19013
1.18946
1.18881
1.18817
1.18752
1.18687
1.18621
1.18555
1.18491
1.18429
1.1837
1.18315
1.18266
1.18221
1.18181
1.18144
1.1811
1.18077
1.18045
1.18012
1.17978
1.17944
1.1791
1.17877
1.17846
1.17818
1.17794
1.17774
1.17758
1.17745
1.17734
1.17724
1.17714
1.17704
1.17693
1.1768
1.17667
1.17654
1.17641
1.17629
1.17617
1.17607
1.17599
1.17591
1.17585
1.17581
1.17577
1.17574
1.17572
1.1757
1.17569
1.17568
1.17567
1.17566
1.17565
1.17565
1.17564
1.17563
1.17563
1.17562
1.17562
1.17561
1.17561
1.1756
1.1756
1.17559
1.17559
1.17558
1.17558
1.17558
1.17557
1.17557
1.17556
1.17556
1.17555
1.17555
1.17554
1.17554
1.17553
1.17553
1.17552
1.17552
1.17551
1.17551
1.1755
1.1755
1.17549
1.17549
1.17549
1.17548
1.17548
1.17547
1.17547
1.17546
1.17546
1.17545
1.17545
1.17544
1.17544
1.17543
1.17543
1.17542
1.17542
1.17541
1.17541
1.1754
1.1754
1.17539
1.17539
1.17538
1.17538
1.17537
1.17537
1.17536
1.22879
1.22872
1.22871
1.22874
1.22879
1.22884
1.22886
1.2288
1.22864
1.22837
1.228
1.22753
1.227
1.22643
1.22584
1.22526
1.2247
1.22417
1.22365
1.22313
1.22259
1.22201
1.22139
1.22071
1.21997
1.21919
1.21839
1.21758
1.2168
1.21604
1.21532
1.21465
1.21401
1.21339
1.21278
1.21214
1.21148
1.21078
1.21004
1.20926
1.20847
1.20768
1.20691
1.20618
1.20549
1.20485
1.20426
1.2037
1.20316
1.20263
1.20208
1.20151
1.20091
1.2003
1.19967
1.19905
1.19845
1.19788
1.19736
1.1969
1.19649
1.19613
1.19579
1.19548
1.19516
1.19484
1.1945
1.19415
1.19378
1.1934
1.19304
1.19271
1.19241
1.19216
1.19196
1.1918
1.19168
1.19158
1.19148
1.19138
1.19127
1.19113
1.19099
1.19083
1.19067
1.19051
1.19036
1.19023
1.19011
1.19001
1.18993
1.18986
1.1898
1.18976
1.18972
1.18969
1.18967
1.18965
1.18964
1.18962
1.18961
1.1896
1.18959
1.18958
1.18957
1.18956
1.18955
1.18955
1.18954
1.18953
1.18952
1.18951
1.1895
1.18949
1.18949
1.18948
1.18947
1.18946
1.18945
1.18944
1.18943
1.18943
1.18942
1.18941
1.1894
1.18939
1.18938
1.18937
1.18937
1.18936
1.18935
1.18934
1.18933
1.18932
1.18932
1.18931
1.1893
1.18929
1.18928
1.18927
1.18926
1.18926
1.18925
1.18924
1.18923
1.18922
1.18921
1.18921
1.1892
1.18919
1.18918
1.18917
1.18916
1.18916
1.18915
1.18914
1.18913
1.18912
1.18911
1.1891
1.22878
1.22871
1.22869
1.22872
1.22879
1.22888
1.22897
1.22904
1.22905
1.229
1.22888
1.2287
1.22848
1.22824
1.228
1.22777
1.22757
1.22739
1.22722
1.22706
1.22687
1.22663
1.22635
1.226
1.22559
1.22513
1.22465
1.22415
1.22367
1.22322
1.2228
1.22241
1.22205
1.22171
1.22136
1.22099
1.22058
1.22012
1.21962
1.21907
1.21851
1.21794
1.21738
1.21685
1.21636
1.21591
1.2155
1.21512
1.21474
1.21436
1.21395
1.21352
1.21305
1.21255
1.21204
1.21152
1.21101
1.21054
1.21011
1.20972
1.20938
1.20908
1.20881
1.20854
1.20827
1.20799
1.20769
1.20736
1.20702
1.20667
1.20633
1.20602
1.20574
1.2055
1.20532
1.20517
1.20506
1.20496
1.20487
1.20477
1.20466
1.20453
1.20438
1.20422
1.20406
1.2039
1.20375
1.20361
1.20349
1.20339
1.2033
1.20323
1.20317
1.20312
1.20308
1.20305
1.20303
1.20301
1.20299
1.20297
1.20296
1.20295
1.20293
1.20292
1.20291
1.2029
1.20289
1.20287
1.20286
1.20285
1.20284
1.20283
1.20282
1.20281
1.2028
1.20279
1.20277
1.20276
1.20275
1.20274
1.20273
1.20272
1.20271
1.2027
1.20269
1.20268
1.20266
1.20265
1.20264
1.20263
1.20262
1.20261
1.2026
1.20259
1.20258
1.20257
1.20256
1.20255
1.20253
1.20252
1.20251
1.2025
1.20249
1.20248
1.20247
1.20246
1.20245
1.20244
1.20243
1.20242
1.20241
1.20239
1.20238
1.20237
1.20236
1.20235
1.20234
1.20233
1.20232
1.20231
1.22877
1.22869
1.22868
1.22873
1.22881
1.22889
1.22896
1.229
1.229
1.22895
1.22886
1.22875
1.22864
1.22854
1.22845
1.22839
1.22836
1.22833
1.22831
1.22828
1.22822
1.22812
1.22797
1.22778
1.22754
1.22729
1.22702
1.22675
1.22649
1.22625
1.22604
1.22585
1.22567
1.22548
1.22527
1.22504
1.22477
1.22446
1.22412
1.22376
1.22338
1.22301
1.22265
1.22232
1.22201
1.22173
1.22146
1.22121
1.22094
1.22066
1.22036
1.22003
1.21967
1.21929
1.21891
1.21853
1.21817
1.21783
1.21753
1.21726
1.21702
1.21679
1.21658
1.21636
1.21614
1.2159
1.21564
1.21537
1.21509
1.21482
1.21456
1.21432
1.21412
1.21396
1.21382
1.21372
1.21363
1.21354
1.21345
1.21335
1.21324
1.21311
1.21298
1.21284
1.2127
1.21257
1.21245
1.21234
1.21225
1.21217
1.2121
1.21205
1.212
1.21197
1.21194
1.21191
1.21189
1.21187
1.21185
1.21184
1.21183
1.21181
1.2118
1.21179
1.21178
1.21176
1.21175
1.21174
1.21173
1.21172
1.2117
1.21169
1.21168
1.21167
1.21166
1.21165
1.21163
1.21162
1.21161
1.2116
1.21159
1.21158
1.21157
1.21155
1.21154
1.21153
1.21152
1.21151
1.2115
1.21149
1.21147
1.21146
1.21145
1.21144
1.21143
1.21142
1.21141
1.21139
1.21138
1.21137
1.21136
1.21135
1.21134
1.21133
1.21131
1.2113
1.21129
1.21128
1.21127
1.21126
1.21125
1.21124
1.21122
1.21121
1.2112
1.21119
1.21118
1.21117
1.21116
1.21114
1.22874
1.2287
1.22872
1.22878
1.22885
1.22891
1.22894
1.22893
1.2289
1.22884
1.22876
1.2287
1.22864
1.22861
1.22859
1.2286
1.22861
1.22862
1.22863
1.22861
1.22857
1.22851
1.22841
1.22829
1.22815
1.22801
1.22786
1.22772
1.2276
1.22748
1.22738
1.22727
1.22717
1.22704
1.2269
1.22673
1.22654
1.22632
1.22609
1.22585
1.22561
1.22538
1.22516
1.22495
1.22476
1.22458
1.2244
1.22422
1.22402
1.2238
1.22357
1.22332
1.22305
1.22278
1.22251
1.22226
1.22202
1.2218
1.2216
1.22142
1.22124
1.22108
1.22091
1.22073
1.22055
1.22035
1.22015
1.21994
1.21974
1.21955
1.21938
1.21922
1.2191
1.21899
1.2189
1.21882
1.21874
1.21866
1.21858
1.21849
1.21838
1.21828
1.21817
1.21806
1.21796
1.21786
1.21778
1.21771
1.21764
1.21759
1.21755
1.21751
1.21748
1.21746
1.21743
1.21742
1.2174
1.21738
1.21737
1.21736
1.21734
1.21733
1.21732
1.21731
1.2173
1.21729
1.21728
1.21726
1.21725
1.21724
1.21723
1.21722
1.21721
1.2172
1.21719
1.21717
1.21716
1.21715
1.21714
1.21713
1.21712
1.21711
1.2171
1.21709
1.21707
1.21706
1.21705
1.21704
1.21703
1.21702
1.21701
1.217
1.21699
1.21698
1.21696
1.21695
1.21694
1.21693
1.21692
1.21691
1.2169
1.21689
1.21688
1.21687
1.21686
1.21684
1.21683
1.21682
1.21681
1.2168
1.21679
1.21678
1.21677
1.21676
1.21675
1.21673
1.21673
1.21671
1.2167
1.21669
1.22874
1.22875
1.22879
1.22883
1.22887
1.22889
1.22888
1.22885
1.2288
1.22875
1.22871
1.22868
1.22866
1.22866
1.22867
1.22869
1.2287
1.22871
1.2287
1.22868
1.22864
1.22859
1.22853
1.22845
1.22838
1.2283
1.22823
1.22816
1.2281
1.22805
1.22799
1.22792
1.22784
1.22775
1.22764
1.22752
1.22739
1.22724
1.22709
1.22694
1.2268
1.22666
1.22653
1.22641
1.22629
1.22617
1.22604
1.2259
1.22575
1.22559
1.22542
1.22524
1.22506
1.22489
1.22472
1.22456
1.22441
1.22427
1.22414
1.22402
1.22389
1.22377
1.22364
1.22351
1.22337
1.22322
1.22308
1.22294
1.22281
1.2227
1.22259
1.2225
1.22242
1.22236
1.22229
1.22223
1.22217
1.2221
1.22203
1.22195
1.22187
1.22179
1.22171
1.22164
1.22158
1.22152
1.22146
1.22142
1.22138
1.22135
1.22132
1.2213
1.22128
1.22126
1.22124
1.22123
1.22122
1.2212
1.22119
1.22118
1.22117
1.22116
1.22115
1.22114
1.22113
1.22112
1.22111
1.2211
1.22109
1.22108
1.22107
1.22106
1.22105
1.22103
1.22102
1.22101
1.221
1.22099
1.22098
1.22097
1.22096
1.22095
1.22094
1.22093
1.22092
1.22091
1.2209
1.22089
1.22088
1.22087
1.22086
1.22085
1.22084
1.22083
1.22082
1.22081
1.2208
1.22079
1.22078
1.22077
1.22076
1.22075
1.22074
1.22073
1.22072
1.22071
1.2207
1.22069
1.22068
1.22067
1.22066
1.22065
1.22064
1.22063
1.22062
1.22061
1.2206
1.22059
1.22058
1.22057
1.2288
1.2288
1.22881
1.22883
1.22884
1.22883
1.2288
1.22877
1.22874
1.22871
1.22869
1.22868
1.22868
1.22868
1.22869
1.2287
1.2287
1.2287
1.22868
1.22866
1.22863
1.2286
1.22856
1.22852
1.22848
1.22845
1.22841
1.22838
1.22835
1.22832
1.22828
1.22823
1.22818
1.22812
1.22804
1.22796
1.22788
1.2278
1.22771
1.22763
1.22755
1.22748
1.2274
1.22733
1.22725
1.22718
1.22709
1.227
1.2269
1.22679
1.22669
1.22658
1.22647
1.22637
1.22628
1.22619
1.2261
1.22602
1.22594
1.22586
1.22578
1.2257
1.22561
1.22553
1.22544
1.22535
1.22526
1.22518
1.22511
1.22505
1.22499
1.22494
1.2249
1.22485
1.22481
1.22477
1.22472
1.22467
1.22462
1.22457
1.22452
1.22447
1.22442
1.22438
1.22434
1.2243
1.22427
1.22425
1.22422
1.22421
1.22419
1.22417
1.22416
1.22415
1.22414
1.22413
1.22411
1.2241
1.22409
1.22409
1.22408
1.22407
1.22406
1.22405
1.22404
1.22403
1.22402
1.22401
1.224
1.22399
1.22398
1.22398
1.22397
1.22396
1.22395
1.22394
1.22393
1.22392
1.22391
1.2239
1.2239
1.22389
1.22388
1.22387
1.22386
1.22385
1.22384
1.22383
1.22382
1.22382
1.22381
1.2238
1.22379
1.22378
1.22377
1.22376
1.22375
1.22374
1.22374
1.22373
1.22372
1.22371
1.2237
1.22369
1.22368
1.22367
1.22366
1.22366
1.22365
1.22364
1.22363
1.22362
1.22361
1.2236
1.22359
1.22358
1.22358
1.22357
1.22356
1.22355
1.22879
1.22877
1.22876
1.22876
1.22875
1.22874
1.22872
1.2287
1.22868
1.22867
1.22866
1.22866
1.22865
1.22865
1.22865
1.22864
1.22864
1.22863
1.22862
1.22861
1.22859
1.22858
1.22856
1.22854
1.22853
1.22852
1.2285
1.22849
1.22847
1.22846
1.22844
1.22842
1.22839
1.22836
1.22833
1.2283
1.22827
1.22823
1.2282
1.22817
1.22814
1.22811
1.22808
1.22805
1.22802
1.22798
1.22795
1.22791
1.22787
1.22783
1.22778
1.22774
1.2277
1.22767
1.22763
1.22759
1.22756
1.22753
1.2275
1.22746
1.22743
1.22739
1.22736
1.22732
1.22728
1.22725
1.22722
1.22719
1.22716
1.22714
1.22711
1.22709
1.22707
1.22705
1.22703
1.22701
1.22699
1.22696
1.22694
1.22692
1.2269
1.22687
1.22685
1.22684
1.22682
1.2268
1.22679
1.22678
1.22676
1.22675
1.22674
1.22673
1.22673
1.22672
1.22671
1.2267
1.22669
1.22668
1.22668
1.22667
1.22666
1.22665
1.22665
1.22664
1.22663
1.22663
1.22662
1.22661
1.2266
1.2266
1.22659
1.22658
1.22657
1.22657
1.22656
1.22655
1.22655
1.22654
1.22653
1.22652
1.22652
1.22651
1.2265
1.2265
1.22649
1.22648
1.22647
1.22647
1.22646
1.22645
1.22645
1.22644
1.22643
1.22642
1.22642
1.22641
1.2264
1.2264
1.22639
1.22638
1.22637
1.22637
1.22636
1.22635
1.22635
1.22634
1.22633
1.22632
1.22632
1.22631
1.2263
1.22629
1.22629
1.22628
1.22627
1.22626
1.22626
1.22625
1.22624
1.22624
)
;

boundaryField
{
    upperWall
    {
        type            calculated;
        value           nonuniform List<scalar> 
200
(
1.22885
1.22884
1.22883
1.22882
1.22881
1.22881
1.2288
1.22879
1.22879
1.22878
1.22878
1.22878
1.22878
1.22877
1.22877
1.22877
1.22877
1.22877
1.22877
1.22877
1.22876
1.22876
1.22876
1.22876
1.22876
1.22876
1.22876
1.22875
1.22875
1.22875
1.22875
1.22875
1.22875
1.22875
1.22875
1.22874
1.22874
1.22874
1.22874
1.22874
1.22874
1.22872
1.22871
1.2287
1.22868
1.22867
1.22866
1.22865
1.22864
1.22864
1.22863
1.22862
1.22861
1.22861
1.2286
1.22859
1.22859
1.22858
1.22857
1.22857
1.22856
1.22856
1.22855
1.22854
1.22854
1.22853
1.22853
1.22852
1.22851
1.22851
1.2285
1.22849
1.22849
1.22848
1.22847
1.22846
1.22845
1.22845
1.22844
1.22843
1.22842
1.22841
1.22841
1.2284
1.22839
1.22838
1.22837
1.22837
1.22836
1.22835
1.22834
1.22833
1.22832
1.22832
1.22831
1.2283
1.22829
1.22828
1.22827
1.22826
1.22825
1.22825
1.22824
1.22823
1.22822
1.22821
1.2282
1.22819
1.22819
1.22818
1.22817
1.22816
1.22815
1.22815
1.22814
1.22813
1.22812
1.22812
1.22811
1.2281
1.22809
1.22808
1.22808
1.22807
1.22806
1.22805
1.22805
1.22804
1.22803
1.22802
1.22802
1.22801
1.228
1.228
1.22799
1.22798
1.22798
1.22797
1.22796
1.22796
1.22795
1.22794
1.22794
1.22793
1.22792
1.22792
1.22791
1.22791
1.2279
1.22789
1.22789
1.22788
1.22788
1.22787
1.22786
1.22786
1.22785
1.22785
1.22784
1.22784
1.22783
1.22782
1.22782
1.22781
1.22781
1.2278
1.22779
1.22779
1.22778
1.22778
1.22777
1.22776
1.22776
1.22775
1.22775
1.22774
1.22773
1.22773
1.22772
1.22772
1.22771
1.2277
1.2277
1.22769
1.22768
1.22768
1.22767
1.22767
1.22766
1.22765
1.22765
1.22764
1.22763
1.22763
1.22762
1.22762
1.22761
1.2276
1.2276
1.22759
)
;
    }
    lowerWall
    {
        type            calculated;
        value           nonuniform List<scalar> 
40
(
1.22903
1.22902
1.22901
1.229
1.22899
1.22898
1.22897
1.22896
1.22896
1.22895
1.22895
1.22894
1.22894
1.22893
1.22893
1.22893
1.22892
1.22892
1.22892
1.22892
1.22891
1.22891
1.22891
1.22891
1.2289
1.2289
1.2289
1.2289
1.22889
1.22889
1.22889
1.22889
1.22888
1.22888
1.22888
1.22888
1.22888
1.22888
1.22887
1.22887
)
;
    }
    heatedWall
    {
        type            calculated;
        value           nonuniform List<scalar> 
160
(
1.2085
1.1996
1.19352
1.18865
1.18451
1.18084
1.17752
1.17448
1.17167
1.16907
1.16664
1.16436
1.16221
1.16017
1.15823
1.15639
1.15462
1.15291
1.15128
1.14969
1.14817
1.14669
1.14526
1.14387
1.14252
1.14122
1.13994
1.13871
1.1375
1.13632
1.13517
1.13404
1.13295
1.13189
1.13085
1.12986
1.1289
1.12797
1.12709
1.12624
1.12544
1.12467
1.12393
1.12323
1.12256
1.12193
1.12133
1.12076
1.12022
1.11971
1.11924
1.1188
1.11839
1.11801
1.11766
1.11734
1.11704
1.11676
1.1165
1.11626
1.11603
1.11582
1.11563
1.11545
1.11529
1.11514
1.11501
1.11489
1.11479
1.1147
1.11461
1.11454
1.11448
1.11442
1.11436
1.11431
1.11426
1.11422
1.11418
1.11415
1.11413
1.11411
1.11409
1.11408
1.11408
1.11408
1.11409
1.1141
1.11411
1.11412
1.11414
1.11416
1.11417
1.11419
1.11421
1.11423
1.11425
1.11427
1.11429
1.11431
1.11432
1.11434
1.11436
1.11438
1.1144
1.11442
1.11444
1.11446
1.11448
1.1145
1.11452
1.11454
1.11456
1.11457
1.11459
1.11461
1.11463
1.11465
1.11467
1.11469
1.11471
1.11473
1.11475
1.11476
1.11478
1.1148
1.11482
1.11484
1.11486
1.11488
1.11489
1.11491
1.11493
1.11495
1.11497
1.11498
1.115
1.11502
1.11504
1.11506
1.11507
1.11509
1.11511
1.11513
1.11514
1.11516
1.11518
1.1152
1.11521
1.11523
1.11525
1.11527
1.11528
1.1153
1.11532
1.11534
1.11535
1.11538
1.11538
1.11541
)
;
    }
    inlet
    {
        type            calculated;
        value           nonuniform List<scalar> 
12
(
1.22903
1.22901
1.229
1.22898
1.22896
1.22893
1.22891
1.22889
1.22887
1.22885
1.22884
1.22885
)
;
    }
    outlet
    {
        type            calculated;
        value           nonuniform List<scalar> 
12
(
1.12374
1.13782
1.15037
1.16272
1.17536
1.1891
1.2023
1.21114
1.21669
1.22057
1.22354
1.22623
)
;
    }
    frontAndBack
    {
        type            empty;
    }
}


// ************************************************************************* //
