/*--------------------------------*- C++ -*----------------------------------*\
  =========                 |
  \\      /  F ield         | OpenFOAM: The Open Source CFD Toolbox
   \\    /   O peration     | Website:  https://openfoam.org
    \\  /    A nd           | Version:  7
     \\/     M anipulation  |
\*---------------------------------------------------------------------------*/
FoamFile
{
    version     2.0;
    format      ascii;
    class       volVectorField;
    location    "0.3075";
    object      UMean;
}
// * * * * * * * * * * * * * * * * * * * * * * * * * * * * * * * * * * * * * //

dimensions      [0 1 -1 0 0 0 0];

internalField   nonuniform List<vector> 
8640
(
(4.2215 0.164125 -32.3257)
(4.20941 0.0484447 -32.4295)
(3.76007 0.0263232 -32.4322)
(3.59175 -0.0662564 -32.4403)
(3.23195 -0.134999 -32.4433)
(3.07911 -0.209209 -32.4499)
(2.80752 -0.271514 -32.4522)
(2.7057 -0.326174 -32.4572)
(2.51224 -0.372008 -32.4585)
(2.45835 -0.409563 -32.4621)
(2.32584 -0.440283 -32.4628)
(2.30581 -0.464954 -32.4656)
(2.21616 -0.484618 -32.4662)
(2.2159 -0.500453 -32.4684)
(2.15448 -0.512869 -32.4689)
(2.16388 -0.523121 -32.4707)
(2.12054 -0.531127 -32.4712)
(2.13356 -0.537985 -32.4728)
(2.10191 -0.543337 -32.4733)
(2.11543 -0.548087 -32.4747)
(2.09162 -0.551798 -32.4752)
(2.1043 -0.555202 -32.4764)
(2.086 -0.557843 -32.4769)
(2.09736 -0.56032 -32.478)
(2.08305 -0.562221 -32.4786)
(2.09297 -0.564053 -32.4795)
(2.08154 -0.565452 -32.48)
(2.09005 -0.566806 -32.4809)
(2.08074 -0.567822 -32.4814)
(2.08803 -0.568838 -32.4821)
(2.08041 -0.569625 -32.4826)
(2.08675 -0.570428 -32.4833)
(2.08035 -0.571069 -32.4837)
(2.08572 -0.571706 -32.4843)
(2.07991 -0.572178 -32.4848)
(2.08428 -0.572597 -32.4853)
(2.07879 -0.572829 -32.4856)
(2.08247 -0.573027 -32.486)
(2.07732 -0.573082 -32.4863)
(2.08066 -0.573159 -32.4866)
(2.07581 -0.573146 -32.4869)
(2.07904 -0.573209 -32.4871)
(2.07436 -0.573158 -32.4873)
(2.0776 -0.573249 -32.4875)
(2.07293 -0.573113 -32.4877)
(2.07627 -0.573282 -32.4878)
(2.07136 -0.572937 -32.488)
(2.07485 -0.573356 -32.4881)
(2.06936 -0.572472 -32.4883)
(2.07292 -0.573518 -32.4884)
(2.06629 -0.571237 -32.4886)
(2.06909 -0.573857 -32.4887)
(2.06098 -0.567425 -32.489)
(2.05901 -0.574236 -32.489)
(2.05161 -0.555349 -32.4895)
(2.02842 -0.573722 -32.4894)
(2.03498 -0.517241 -32.4902)
(1.93497 -0.55982 -32.4896)
(1.99078 -0.415115 -32.4923)
(1.68166 -0.32285 -32.4652)
(4.49313 0.282205 -32.3515)
(4.66177 0.336552 -32.4458)
(4.61001 0.468474 -32.4423)
(4.73203 0.504928 -32.4446)
(4.65082 0.545694 -32.4421)
(4.70998 0.55984 -32.4442)
(4.6121 0.568162 -32.443)
(4.63205 0.568251 -32.4453)
(4.53286 0.565114 -32.4447)
(4.53468 0.560341 -32.4468)
(4.44481 0.555612 -32.4465)
(4.44119 0.55133 -32.4483)
(4.3655 0.548613 -32.4481)
(4.36238 0.546399 -32.4495)
(4.30141 0.546018 -32.4493)
(4.30073 0.545633 -32.4507)
(4.25297 0.546796 -32.4512)
(4.2548 0.547499 -32.4532)
(4.21802 0.549354 -32.4546)
(4.22183 0.55049 -32.4572)
(4.19387 0.552444 -32.4591)
(4.19916 0.553606 -32.4617)
(4.17829 0.555383 -32.4637)
(4.18466 0.556448 -32.4663)
(4.16937 0.558008 -32.4683)
(4.17639 0.558955 -32.4707)
(4.16535 0.560277 -32.4727)
(4.1726 0.561071 -32.4751)
(4.16459 0.562118 -32.4771)
(4.17168 0.562697 -32.4793)
(4.16577 0.563503 -32.4812)
(4.17242 0.564052 -32.4832)
(4.16765 0.564934 -32.4851)
(4.17326 0.565673 -32.4872)
(4.16862 0.566568 -32.4891)
(4.17293 0.567158 -32.4911)
(4.16815 0.567697 -32.493)
(4.17154 0.567922 -32.4948)
(4.16674 0.568106 -32.4963)
(4.16968 0.568128 -32.4978)
(4.16502 0.568169 -32.499)
(4.16792 0.56817 -32.5001)
(4.16339 0.56817 -32.501)
(4.1665 0.568241 -32.5017)
(4.1619 0.568188 -32.5023)
(4.16543 0.568436 -32.5028)
(4.16033 0.568237 -32.5033)
(4.16464 0.568924 -32.5036)
(4.15822 0.568361 -32.504)
(4.1642 0.570001 -32.5042)
(4.15466 0.568784 -32.5047)
(4.16447 0.572176 -32.5047)
(4.14767 0.57013 -32.5054)
(4.1664 0.575894 -32.505)
(4.13276 0.5746 -32.5063)
(4.17349 0.581215 -32.5049)
(4.10059 0.588196 -32.5073)
(4.20024 0.59054 -32.5035)
(4.04008 0.616553 -32.509)
(4.30022 0.641729 -32.4249)
(4.49567 0.0314135 -32.3543)
(4.66529 -0.033796 -32.4478)
(4.64786 -0.0322677 -32.4435)
(4.8139 -0.0849202 -32.4441)
(4.80065 -0.115429 -32.4395)
(4.93124 -0.163047 -32.4392)
(4.91655 -0.204179 -32.4356)
(5.01256 -0.2476 -32.4354)
(4.99257 -0.287687 -32.4327)
(5.05991 -0.324987 -32.4327)
(5.03525 -0.358766 -32.4307)
(5.0813 -0.388673 -32.4309)
(5.05452 -0.414808 -32.4294)
(5.08584 -0.437637 -32.4296)
(5.0594 -0.456983 -32.4284)
(5.08091 -0.47398 -32.4286)
(5.05634 -0.488045 -32.4277)
(5.07138 -0.500588 -32.4281)
(5.04942 -0.510794 -32.4281)
(5.06017 -0.520121 -32.4295)
(5.04106 -0.527684 -32.4306)
(5.04894 -0.53475 -32.4327)
(5.03251 -0.540412 -32.4346)
(5.03834 -0.545731 -32.4371)
(5.02427 -0.549911 -32.4393)
(5.02865 -0.553824 -32.4419)
(5.01665 -0.556779 -32.4442)
(5.02001 -0.559481 -32.4469)
(5.00974 -0.561413 -32.4493)
(5.01234 -0.563247 -32.452)
(5.00344 -0.564486 -32.4545)
(5.00541 -0.565508 -32.4571)
(4.99759 -0.565888 -32.4596)
(4.99924 -0.566095 -32.4623)
(4.99249 -0.56595 -32.4648)
(4.99404 -0.565858 -32.4675)
(4.98802 -0.565643 -32.4699)
(4.98942 -0.565558 -32.4724)
(4.9839 -0.565439 -32.4748)
(4.98532 -0.565458 -32.4773)
(4.98031 -0.565484 -32.4798)
(4.98199 -0.565597 -32.4823)
(4.97746 -0.56569 -32.4848)
(4.97945 -0.565755 -32.4872)
(4.97526 -0.565826 -32.4893)
(4.97745 -0.565697 -32.4911)
(4.97354 -0.565774 -32.4927)
(4.97566 -0.565247 -32.4939)
(4.9722 -0.56545 -32.4949)
(4.97365 -0.564043 -32.4956)
(4.97129 -0.564492 -32.4963)
(4.97062 -0.561184 -32.4965)
(4.97071 -0.56147 -32.4973)
(4.96498 -0.554531 -32.4971)
(4.96961 -0.552415 -32.4982)
(4.95441 -0.538966 -32.4973)
(4.96315 -0.529562 -32.4991)
(4.9373 -0.500544 -32.4968)
(4.93431 -0.486461 -32.5005)
(4.91068 -0.408623 -32.4105)
(4.47235 0.118881 -32.3571)
(4.57977 0.20371 -32.4517)
(4.55261 0.322928 -32.4488)
(4.69124 0.372415 -32.45)
(4.68187 0.428652 -32.4457)
(4.81296 0.457179 -32.4455)
(4.81035 0.483077 -32.4418)
(4.9195 0.498176 -32.4415)
(4.91616 0.509984 -32.4385)
(5.001 0.517694 -32.4382)
(4.99429 0.523576 -32.436)
(5.05795 0.527923 -32.4359)
(5.04825 0.531702 -32.4343)
(5.09541 0.534784 -32.4343)
(5.08403 0.53793 -32.433)
(5.11897 0.540509 -32.433)
(5.10711 0.543355 -32.4319)
(5.13314 0.545546 -32.4322)
(5.12162 0.548009 -32.4319)
(5.14117 0.549773 -32.433)
(5.13037 0.551789 -32.4339)
(5.145 0.553145 -32.4359)
(5.13495 0.554747 -32.4376)
(5.14581 0.555781 -32.4401)
(5.1365 0.557036 -32.4422)
(5.14452 0.557814 -32.4448)
(5.13598 0.558806 -32.4471)
(5.14191 0.55939 -32.4497)
(5.13417 0.560122 -32.4522)
(5.13862 0.560531 -32.4549)
(5.13161 0.561125 -32.4573)
(5.13502 0.561537 -32.46)
(5.12883 0.562116 -32.4625)
(5.13182 0.562575 -32.4652)
(5.12657 0.563165 -32.4678)
(5.1294 0.563603 -32.4705)
(5.12483 0.564019 -32.473)
(5.12746 0.564159 -32.4755)
(5.12324 0.56418 -32.4779)
(5.12573 0.563987 -32.4803)
(5.12173 0.56379 -32.4828)
(5.12426 0.5635 -32.4854)
(5.12036 0.563313 -32.4882)
(5.1231 0.563084 -32.4909)
(5.11911 0.563023 -32.4935)
(5.12219 0.562902 -32.4959)
(5.11784 0.563021 -32.498)
(5.12156 0.563011 -32.4997)
(5.11654 0.563416 -32.5012)
(5.12149 0.563569 -32.5021)
(5.11539 0.564605 -32.5031)
(5.12293 0.565054 -32.5035)
(5.11508 0.567692 -32.5043)
(5.12852 0.568681 -32.5043)
(5.11723 0.575481 -32.5051)
(5.14483 0.578224 -32.5045)
(5.12715 0.593482 -32.5057)
(5.18666 0.60624 -32.5039)
(5.16595 0.627157 -32.506)
(5.2744 0.695151 -32.4105)
(4.47096 -0.0216935 -32.3568)
(4.5753 -0.0906373 -32.4509)
(4.549 -0.129416 -32.448)
(4.68412 -0.182332 -32.4489)
(4.67168 -0.220078 -32.4444)
(4.7986 -0.260971 -32.444)
(4.79293 -0.295014 -32.44)
(4.90005 -0.327679 -32.4394)
(4.89585 -0.356674 -32.4361)
(4.98122 -0.382971 -32.4356)
(4.97573 -0.406543 -32.433)
(5.04152 -0.427373 -32.4327)
(5.03416 -0.445808 -32.4308)
(5.08405 -0.461957 -32.4307)
(5.07534 -0.476003 -32.4292)
(5.11297 -0.488316 -32.4289)
(5.10368 -0.498877 -32.4277)
(5.13214 -0.508186 -32.4278)
(5.12289 -0.516101 -32.4275)
(5.14447 -0.523158 -32.4285)
(5.13557 -0.529144 -32.4293)
(5.1519 -0.53453 -32.4312)
(5.14346 -0.539069 -32.4329)
(5.15574 -0.54315 -32.4352)
(5.14776 -0.546555 -32.4373)
(5.15691 -0.549609 -32.4398)
(5.14942 -0.552098 -32.442)
(5.15621 -0.554272 -32.4446)
(5.14924 -0.555982 -32.447)
(5.15429 -0.557481 -32.4497)
(5.14783 -0.558641 -32.4521)
(5.15167 -0.559609 -32.4547)
(5.14582 -0.560223 -32.4572)
(5.14898 -0.560641 -32.4599)
(5.14389 -0.560806 -32.4625)
(5.14687 -0.560874 -32.4651)
(5.1426 -0.560811 -32.4677)
(5.14561 -0.560744 -32.4701)
(5.14188 -0.560682 -32.4725)
(5.1448 -0.560709 -32.4749)
(5.14123 -0.56083 -32.4774)
(5.14397 -0.560963 -32.48)
(5.14034 -0.561189 -32.4827)
(5.14294 -0.561227 -32.4854)
(5.13922 -0.561484 -32.4882)
(5.1418 -0.561221 -32.4906)
(5.1381 -0.561634 -32.4929)
(5.14066 -0.560777 -32.4947)
(5.13734 -0.561721 -32.4962)
(5.13963 -0.559616 -32.4973)
(5.13756 -0.561763 -32.4983)
(5.1389 -0.557112 -32.4989)
(5.13991 -0.561572 -32.4996)
(5.13896 -0.552079 -32.4998)
(5.14672 -0.560673 -32.5004)
(5.14163 -0.542659 -32.5002)
(5.16234 -0.558117 -32.5011)
(5.15175 -0.527912 -32.5002)
(5.19544 -0.551221 -32.5015)
(5.17781 -0.522433 -32.4095)
(4.46619 0.058781 -32.3577)
(4.5596 0.137719 -32.4522)
(4.52797 0.217061 -32.4499)
(4.65328 0.27016 -32.4511)
(4.63936 0.319779 -32.4468)
(4.76297 0.355322 -32.4465)
(4.75746 0.386619 -32.4425)
(4.86449 0.410844 -32.4419)
(4.8611 0.431764 -32.4386)
(4.94757 0.448951 -32.438)
(4.94319 0.463879 -32.4354)
(5.01049 0.476593 -32.4351)
(5.00442 0.487784 -32.4332)
(5.05589 0.497477 -32.433)
(5.04856 0.506101 -32.4314)
(5.08777 0.513583 -32.4312)
(5.07987 0.520282 -32.43)
(5.10983 0.526048 -32.4301)
(5.10195 0.531227 -32.4298)
(5.12496 0.535641 -32.4308)
(5.11739 0.539628 -32.4317)
(5.13507 0.542997 -32.4336)
(5.12788 0.546055 -32.4353)
(5.14142 0.548604 -32.4377)
(5.13464 0.550917 -32.4398)
(5.14497 0.552813 -32.4423)
(5.1386 0.554528 -32.4445)
(5.14649 0.555886 -32.4471)
(5.14058 0.557093 -32.4495)
(5.14668 0.55803 -32.4522)
(5.14124 0.558886 -32.4546)
(5.14604 0.559548 -32.4572)
(5.14113 0.560123 -32.4597)
(5.1452 0.560527 -32.4623)
(5.14097 0.560864 -32.4649)
(5.14474 0.561063 -32.4676)
(5.14117 0.561183 -32.4701)
(5.1448 0.561169 -32.4725)
(5.14164 0.561114 -32.4748)
(5.14509 0.560997 -32.4772)
(5.14197 0.560935 -32.4797)
(5.14515 0.560811 -32.4823)
(5.14182 0.560819 -32.485)
(5.14481 0.560665 -32.4878)
(5.14119 0.56079 -32.4905)
(5.14419 0.560509 -32.493)
(5.14033 0.56089 -32.4952)
(5.14355 0.560282 -32.497)
(5.13963 0.561258 -32.4986)
(5.1433 0.559919 -32.4997)
(5.13979 0.562208 -32.5007)
(5.14423 0.559406 -32.5012)
(5.1423 0.564481 -32.5019)
(5.14833 0.559163 -32.5022)
(5.15047 0.56987 -32.5028)
(5.16013 0.561348 -32.5026)
(5.17241 0.581309 -32.5033)
(5.18887 0.574849 -32.5027)
(5.22802 0.600494 -32.5037)
(5.24905 0.631144 -32.4107)
(4.46619 -0.0587811 -32.3577)
(4.5596 -0.137719 -32.4522)
(4.52797 -0.217061 -32.4499)
(4.65328 -0.270161 -32.4511)
(4.63936 -0.319779 -32.4468)
(4.76297 -0.355322 -32.4465)
(4.75746 -0.38662 -32.4425)
(4.86449 -0.410845 -32.4419)
(4.8611 -0.431765 -32.4386)
(4.94757 -0.448951 -32.438)
(4.94319 -0.46388 -32.4354)
(5.01049 -0.476593 -32.4351)
(5.00442 -0.487785 -32.4332)
(5.05589 -0.497478 -32.433)
(5.04856 -0.506101 -32.4314)
(5.08777 -0.513584 -32.4312)
(5.07987 -0.520283 -32.43)
(5.10983 -0.526048 -32.4301)
(5.10195 -0.531227 -32.4298)
(5.12496 -0.535642 -32.4308)
(5.11739 -0.539628 -32.4317)
(5.13507 -0.542997 -32.4336)
(5.12788 -0.546055 -32.4353)
(5.14142 -0.548604 -32.4377)
(5.13464 -0.550917 -32.4398)
(5.14497 -0.552813 -32.4423)
(5.1386 -0.554528 -32.4445)
(5.14649 -0.555886 -32.4471)
(5.14058 -0.557092 -32.4495)
(5.14667 -0.558029 -32.4522)
(5.14124 -0.558885 -32.4546)
(5.14604 -0.559546 -32.4572)
(5.14113 -0.56012 -32.4597)
(5.1452 -0.560523 -32.4623)
(5.14097 -0.56086 -32.4649)
(5.14474 -0.561056 -32.4676)
(5.14117 -0.561175 -32.4701)
(5.1448 -0.561158 -32.4725)
(5.14164 -0.561102 -32.4748)
(5.14509 -0.560979 -32.4772)
(5.14197 -0.560916 -32.4797)
(5.14515 -0.560783 -32.4823)
(5.14182 -0.56079 -32.485)
(5.14481 -0.560618 -32.4878)
(5.14121 -0.560744 -32.4905)
(5.14419 -0.560432 -32.493)
(5.14036 -0.560819 -32.4952)
(5.14355 -0.560156 -32.497)
(5.13966 -0.561149 -32.4986)
(5.14328 -0.559716 -32.4997)
(5.13983 -0.56204 -32.5007)
(5.14418 -0.559082 -32.5013)
(5.14232 -0.564223 -32.5019)
(5.14821 -0.558653 -32.5022)
(5.15048 -0.569455 -32.5027)
(5.1599 -0.560564 -32.5027)
(5.17234 -0.580634 -32.5033)
(5.18846 -0.573684 -32.5028)
(5.22774 -0.599385 -32.5035)
(5.24836 -0.629464 -32.411)
(4.47096 0.0216935 -32.3568)
(4.5753 0.0906373 -32.4509)
(4.549 0.129415 -32.448)
(4.68412 0.182332 -32.4489)
(4.67168 0.220078 -32.4444)
(4.7986 0.260971 -32.444)
(4.79293 0.295013 -32.44)
(4.90005 0.327678 -32.4394)
(4.89585 0.356674 -32.4361)
(4.98122 0.38297 -32.4356)
(4.97573 0.406542 -32.433)
(5.04152 0.427373 -32.4327)
(5.03416 0.445808 -32.4308)
(5.08405 0.461956 -32.4307)
(5.07534 0.476002 -32.4292)
(5.11297 0.488316 -32.4289)
(5.10368 0.498877 -32.4277)
(5.13214 0.508185 -32.4278)
(5.12289 0.516101 -32.4275)
(5.14447 0.523157 -32.4285)
(5.13557 0.529143 -32.4293)
(5.1519 0.53453 -32.4312)
(5.14346 0.539069 -32.4329)
(5.15574 0.54315 -32.4352)
(5.14776 0.546555 -32.4373)
(5.15691 0.549609 -32.4398)
(5.14942 0.552098 -32.442)
(5.15621 0.554273 -32.4446)
(5.14924 0.555983 -32.447)
(5.15429 0.557482 -32.4497)
(5.14783 0.558643 -32.4521)
(5.15167 0.559611 -32.4547)
(5.14582 0.560226 -32.4572)
(5.14898 0.560645 -32.4599)
(5.14389 0.56081 -32.4625)
(5.14688 0.56088 -32.4651)
(5.1426 0.560818 -32.4677)
(5.14561 0.560755 -32.4701)
(5.14189 0.560694 -32.4725)
(5.1448 0.560726 -32.4749)
(5.14124 0.56085 -32.4773)
(5.14398 0.560989 -32.48)
(5.14035 0.56122 -32.4827)
(5.14296 0.56127 -32.4854)
(5.13923 0.561531 -32.4882)
(5.14182 0.56129 -32.4906)
(5.13812 0.561707 -32.4929)
(5.14069 0.560891 -32.4947)
(5.13738 0.561831 -32.4962)
(5.13971 0.559804 -32.4973)
(5.13763 0.561943 -32.4983)
(5.13905 0.557426 -32.4989)
(5.14006 0.561869 -32.4995)
(5.13924 0.552598 -32.4999)
(5.14698 0.561162 -32.5003)
(5.14212 0.543499 -32.5004)
(5.16279 0.558924 -32.5008)
(5.1526 0.529231 -32.5006)
(5.19624 0.552524 -32.5011)
(5.17925 0.524405 -32.4102)
(4.47235 -0.118881 -32.3571)
(4.57977 -0.20371 -32.4517)
(4.55261 -0.322928 -32.4488)
(4.69124 -0.372416 -32.45)
(4.68187 -0.428652 -32.4457)
(4.81296 -0.457179 -32.4455)
(4.81035 -0.483078 -32.4418)
(4.9195 -0.498176 -32.4415)
(4.91616 -0.509984 -32.4385)
(5.001 -0.517694 -32.4382)
(4.99429 -0.523576 -32.436)
(5.05795 -0.527923 -32.4359)
(5.04825 -0.531702 -32.4343)
(5.09541 -0.534784 -32.4343)
(5.08403 -0.537931 -32.433)
(5.11897 -0.540509 -32.433)
(5.10711 -0.543355 -32.4319)
(5.13314 -0.545546 -32.4322)
(5.12162 -0.54801 -32.4319)
(5.14117 -0.549773 -32.433)
(5.13037 -0.55179 -32.4339)
(5.145 -0.553145 -32.4359)
(5.13495 -0.554748 -32.4376)
(5.14581 -0.555781 -32.4401)
(5.1365 -0.557036 -32.4422)
(5.14452 -0.557814 -32.4448)
(5.13598 -0.558806 -32.4471)
(5.14191 -0.55939 -32.4497)
(5.13417 -0.560121 -32.4522)
(5.13862 -0.56053 -32.4549)
(5.13161 -0.561124 -32.4573)
(5.13502 -0.561535 -32.46)
(5.12883 -0.562114 -32.4625)
(5.13182 -0.562572 -32.4652)
(5.12657 -0.563161 -32.4678)
(5.1294 -0.563598 -32.4705)
(5.12483 -0.564014 -32.473)
(5.12746 -0.56415 -32.4755)
(5.12324 -0.56417 -32.4779)
(5.12574 -0.563971 -32.4803)
(5.12174 -0.563774 -32.4828)
(5.12427 -0.563474 -32.4854)
(5.12038 -0.563288 -32.4882)
(5.12311 -0.56304 -32.4909)
(5.11915 -0.562984 -32.4935)
(5.12222 -0.562828 -32.4959)
(5.11791 -0.562957 -32.498)
(5.1216 -0.562888 -32.4997)
(5.11663 -0.563319 -32.5011)
(5.12154 -0.563374 -32.5022)
(5.11553 -0.564467 -32.5031)
(5.12298 -0.564762 -32.5036)
(5.11527 -0.567503 -32.5042)
(5.12856 -0.568254 -32.5044)
(5.11749 -0.575209 -32.5049)
(5.14486 -0.577606 -32.5049)
(5.12748 -0.593056 -32.5051)
(5.18666 -0.605391 -32.5047)
(5.16624 -0.626429 -32.5049)
(5.2743 -0.694047 -32.4122)
(4.49567 -0.0314136 -32.3543)
(4.66529 0.033796 -32.4478)
(4.64786 0.0322675 -32.4435)
(4.8139 0.08492 -32.4441)
(4.80065 0.115429 -32.4395)
(4.93124 0.163047 -32.4392)
(4.91655 0.204179 -32.4356)
(5.01256 0.2476 -32.4354)
(4.99257 0.287686 -32.4327)
(5.05991 0.324986 -32.4327)
(5.03525 0.358766 -32.4307)
(5.0813 0.388673 -32.4309)
(5.05452 0.414808 -32.4294)
(5.08584 0.437637 -32.4296)
(5.0594 0.456982 -32.4284)
(5.08091 0.47398 -32.4286)
(5.05634 0.488045 -32.4277)
(5.07138 0.500587 -32.4281)
(5.04942 0.510793 -32.4281)
(5.06017 0.520121 -32.4295)
(5.04106 0.527684 -32.4306)
(5.04894 0.53475 -32.4327)
(5.03251 0.540412 -32.4346)
(5.03834 0.545731 -32.4371)
(5.02427 0.549911 -32.4393)
(5.02865 0.553824 -32.4419)
(5.01665 0.556779 -32.4442)
(5.02001 0.559482 -32.4469)
(5.00974 0.561415 -32.4493)
(5.01234 0.563249 -32.452)
(5.00344 0.564488 -32.4545)
(5.00541 0.56551 -32.4571)
(4.99759 0.565891 -32.4596)
(4.99924 0.566098 -32.4623)
(4.99249 0.565955 -32.4648)
(4.99405 0.565864 -32.4675)
(4.98803 0.56565 -32.4699)
(4.98943 0.565566 -32.4724)
(4.98391 0.56545 -32.4748)
(4.98533 0.56547 -32.4773)
(4.98033 0.565501 -32.4798)
(4.98202 0.565616 -32.4823)
(4.97749 0.565716 -32.4848)
(4.97949 0.565784 -32.4872)
(4.97531 0.565866 -32.4893)
(4.97751 0.565744 -32.4912)
(4.97362 0.565836 -32.4927)
(4.97576 0.565317 -32.4939)
(4.97234 0.565544 -32.4949)
(4.97383 0.564165 -32.4956)
(4.97152 0.564649 -32.4963)
(4.97092 0.561409 -32.4967)
(4.97111 0.561748 -32.4971)
(4.96551 0.554952 -32.4974)
(4.97023 0.55291 -32.4977)
(4.95532 0.539705 -32.498)
(4.96412 0.53043 -32.4981)
(4.93887 0.501792 -32.4984)
(4.93586 0.487926 -32.4982)
(4.91338 0.410664 -32.4139)
(4.49313 -0.282205 -32.3515)
(4.66177 -0.336552 -32.4458)
(4.61001 -0.468474 -32.4423)
(4.73203 -0.504928 -32.4446)
(4.65082 -0.545694 -32.4421)
(4.70998 -0.55984 -32.4442)
(4.6121 -0.568162 -32.443)
(4.63205 -0.568251 -32.4453)
(4.53286 -0.565114 -32.4447)
(4.53468 -0.560342 -32.4468)
(4.44481 -0.555613 -32.4465)
(4.44119 -0.551331 -32.4483)
(4.3655 -0.548614 -32.4481)
(4.36238 -0.546399 -32.4495)
(4.30141 -0.546019 -32.4493)
(4.30073 -0.545634 -32.4507)
(4.25297 -0.546797 -32.4512)
(4.2548 -0.5475 -32.4532)
(4.21802 -0.549354 -32.4546)
(4.22183 -0.550491 -32.4572)
(4.19387 -0.552444 -32.4591)
(4.19916 -0.553607 -32.4617)
(4.17829 -0.555383 -32.4637)
(4.18466 -0.556448 -32.4663)
(4.16937 -0.558009 -32.4683)
(4.17639 -0.558956 -32.4707)
(4.16535 -0.560278 -32.4727)
(4.1726 -0.561072 -32.4751)
(4.16459 -0.562119 -32.4771)
(4.17168 -0.562698 -32.4793)
(4.16577 -0.563504 -32.4812)
(4.17242 -0.564052 -32.4832)
(4.16765 -0.564933 -32.4851)
(4.17326 -0.565672 -32.4872)
(4.16862 -0.566567 -32.4891)
(4.17294 -0.567156 -32.4911)
(4.16816 -0.567694 -32.493)
(4.17155 -0.567917 -32.4948)
(4.16676 -0.568102 -32.4963)
(4.16971 -0.568119 -32.4978)
(4.16505 -0.568162 -32.499)
(4.16796 -0.568155 -32.5001)
(4.16344 -0.568158 -32.501)
(4.16656 -0.568214 -32.5017)
(4.16199 -0.568168 -32.5023)
(4.16552 -0.568387 -32.5028)
(4.16048 -0.568204 -32.5033)
(4.16479 -0.568834 -32.5036)
(4.15846 -0.568305 -32.504)
(4.16443 -0.569869 -32.5043)
(4.15503 -0.568716 -32.5046)
(4.16482 -0.571988 -32.5049)
(4.14826 -0.570069 -32.5052)
(4.16692 -0.575665 -32.5055)
(4.13369 -0.57457 -32.5056)
(4.17428 -0.580945 -32.5059)
(4.10203 -0.588192 -32.5057)
(4.20143 -0.590316 -32.506)
(4.04212 -0.616503 -32.5051)
(4.30171 -0.641863 -32.4308)
(4.2215 -0.164125 -32.3257)
(4.20941 -0.0484448 -32.4295)
(3.76007 -0.0263234 -32.4322)
(3.59175 0.0662562 -32.4403)
(3.23196 0.134998 -32.4433)
(3.07911 0.209209 -32.4499)
(2.80752 0.271514 -32.4522)
(2.7057 0.326174 -32.4571)
(2.51224 0.372008 -32.4585)
(2.45835 0.409563 -32.4621)
(2.32584 0.440283 -32.4628)
(2.3058 0.464954 -32.4656)
(2.21616 0.484618 -32.4662)
(2.2159 0.500453 -32.4684)
(2.15447 0.512869 -32.4689)
(2.16388 0.523121 -32.4707)
(2.12054 0.531127 -32.4712)
(2.13356 0.537985 -32.4728)
(2.10191 0.543337 -32.4732)
(2.11543 0.548087 -32.4747)
(2.09162 0.551798 -32.4752)
(2.1043 0.555202 -32.4764)
(2.086 0.557843 -32.4769)
(2.09736 0.56032 -32.478)
(2.08305 0.562221 -32.4786)
(2.09297 0.564054 -32.4795)
(2.08153 0.565453 -32.48)
(2.09005 0.566807 -32.4809)
(2.08074 0.567823 -32.4814)
(2.08803 0.568839 -32.4821)
(2.08041 0.569626 -32.4826)
(2.08676 0.570429 -32.4833)
(2.08036 0.57107 -32.4837)
(2.08572 0.571707 -32.4843)
(2.07991 0.572179 -32.4848)
(2.08428 0.572599 -32.4853)
(2.0788 0.572832 -32.4856)
(2.08248 0.573028 -32.486)
(2.07734 0.573086 -32.4863)
(2.08069 0.573161 -32.4866)
(2.07584 0.573151 -32.4869)
(2.07908 0.573211 -32.4871)
(2.07441 0.573166 -32.4873)
(2.07767 0.573249 -32.4875)
(2.07301 0.573124 -32.4877)
(2.07637 0.573277 -32.4878)
(2.0715 0.572953 -32.488)
(2.07501 0.573341 -32.4881)
(2.06959 0.572494 -32.4883)
(2.07317 0.573502 -32.4884)
(2.06666 0.571288 -32.4886)
(2.06949 0.573858 -32.4887)
(2.06158 0.567553 -32.4889)
(2.05966 0.574305 -32.4891)
(2.05258 0.555657 -32.4893)
(2.0295 0.573918 -32.4897)
(2.03652 0.517903 -32.4897)
(1.9369 0.560322 -32.4906)
(1.9931 0.416653 -32.4903)
(1.68573 0.324785 -32.4697)
(4.60939 0.0535672 0.00548765)
(4.41478 0.240073 0.00444355)
(4.38451 0.32036 0.00498298)
(4.18104 0.390764 0.00435254)
(4.09717 0.435868 0.0047278)
(3.90921 0.473069 0.00425688)
(3.81945 0.501811 0.00454342)
(3.6543 0.524794 0.00417139)
(3.57313 0.543515 0.00440173)
(3.43404 0.558452 0.00410546)
(3.3674 0.570728 0.00429494)
(3.25546 0.580854 0.0040579)
(3.20553 0.589203 0.00421416)
(3.11984 0.59667 0.00402339)
(3.08624 0.602934 0.00415169)
(3.02399 0.609072 0.00399705)
(3.00452 0.614251 0.00410118)
(2.96189 0.619701 0.00397453)
(2.95367 0.624419 0.00405781)
(2.92648 0.629594 0.00395323)
(2.92632 0.634117 0.00401894)
(2.91039 0.639079 0.0039321)
(2.91515 0.643478 0.00398333)
(2.90649 0.648286 0.003911)
(2.91308 0.652533 0.00395027)
(2.90805 0.656967 0.00388971)
(2.91407 0.660742 0.00391901)
(2.91013 0.664474 0.00386813)
(2.91427 0.667453 0.00388932)
(2.91026 0.670176 0.00384663)
(2.91254 0.672102 0.00386125)
(2.90855 0.673749 0.00382545)
(2.90969 0.6748 0.00383446)
(2.90601 0.67573 0.00380422)
(2.90647 0.676289 0.00380827)
(2.90314 0.67683 0.00378262)
(2.90315 0.677136 0.00378248)
(2.90015 0.677481 0.00376098)
(2.89988 0.677657 0.00375738)
(2.89713 0.677882 0.00373971)
(2.89667 0.677982 0.00373315)
(2.89406 0.678135 0.00371901)
(2.89348 0.678174 0.00370977)
(2.89088 0.678295 0.00369893)
(2.89027 0.678263 0.00368718)
(2.88752 0.67843 0.00367952)
(2.88702 0.678221 0.00366529)
(2.88396 0.67868 0.00366079)
(2.88361 0.677841 0.00364408)
(2.88038 0.679411 0.00364285)
(2.87943 0.676369 0.00362365)
(2.87783 0.681689 0.00362582)
(2.87223 0.671466 0.00360466)
(2.88084 0.68754 0.00360951)
(2.85499 0.655775 0.00358977)
(2.90373 0.696817 0.00359164)
(2.81354 0.610571 0.00358892)
(2.98179 0.682664 0.00356155)
(2.75709 0.506869 0.00363557)
(3.18361 0.409199 0.00347556)
(4.52142 -0.0625838 0.00427026)
(4.47823 -0.054091 0.00363057)
(4.58184 -0.112638 0.00407874)
(4.55582 -0.151334 0.00352447)
(4.63514 -0.198546 0.00389042)
(4.60865 -0.240394 0.00343979)
(4.66098 -0.280029 0.0037318)
(4.63178 -0.317524 0.00337015)
(4.66331 -0.351689 0.0036079)
(4.63231 -0.384491 0.00331942)
(4.64909 -0.414508 0.00351524)
(4.61799 -0.443105 0.00328448)
(4.62503 -0.469497 0.00344531)
(4.59551 -0.494128 0.00325908)
(4.59676 -0.516921 0.00339011)
(4.57021 -0.537671 0.00323858)
(4.56859 -0.556885 0.00334446)
(4.54586 -0.573984 0.00322032)
(4.54329 -0.589783 0.003305)
(4.52465 -0.603474 0.00320253)
(4.52223 -0.615992 0.00326941)
(4.50745 -0.626494 0.00318432)
(4.50558 -0.635874 0.00323648)
(4.49414 -0.643349 0.00316558)
(4.49287 -0.649793 0.00320561)
(4.48411 -0.654635 0.00314626)
(4.48329 -0.658672 0.00317624)
(4.47656 -0.661527 0.0031264)
(4.47598 -0.66395 0.00314817)
(4.47071 -0.665675 0.00310629)
(4.47013 -0.667247 0.00312134)
(4.46574 -0.668367 0.0030861)
(4.46491 -0.669397 0.00309539)
(4.46099 -0.670089 0.00306556)
(4.45986 -0.670744 0.00306992)
(4.4563 -0.671183 0.00304479)
(4.45503 -0.671634 0.0030451)
(4.45184 -0.671949 0.00302414)
(4.45055 -0.672265 0.0030209)
(4.44766 -0.672493 0.00300354)
(4.44639 -0.672682 0.00299708)
(4.44365 -0.672859 0.002983)
(4.44239 -0.672917 0.00297367)
(4.43962 -0.673112 0.00296278)
(4.43843 -0.673002 0.00295085)
(4.4354 -0.673328 0.00294318)
(4.43446 -0.67294 0.00292871)
(4.43082 -0.673553 0.00292435)
(4.43056 -0.672708 0.00290715)
(4.42557 -0.673723 0.00290638)
(4.42696 -0.672332 0.0028859)
(4.4189 -0.673356 0.00288927)
(4.42425 -0.672082 0.00286434)
(4.40831 -0.670455 0.00287258)
(4.4237 -0.672294 0.00284121)
(4.38495 -0.65946 0.00285291)
(4.42675 -0.672463 0.00281201)
(4.32244 -0.633219 0.00281484)
(4.40633 -0.669309 0.00274871)
(4.14527 -0.609108 0.00269903)
(4.5198 0.0461008 0.00481748)
(4.47094 0.171283 0.00417114)
(4.56269 0.249053 0.00460095)
(4.53567 0.327817 0.00404406)
(4.61964 0.383616 0.0044053)
(4.60687 0.434024 0.00395491)
(4.67751 0.473168 0.00424366)
(4.67255 0.506301 0.00387787)
(4.73011 0.532947 0.0041097)
(4.72847 0.554661 0.00381373)
(4.77367 0.572133 0.004002)
(4.77237 0.586141 0.0037631)
(4.80625 0.597235 0.00391667)
(4.80365 0.606252 0.0037235)
(4.82769 0.613272 0.00384858)
(4.82328 0.619281 0.00369182)
(4.83933 0.623898 0.00379314)
(4.83332 0.628213 0.00366514)
(4.84324 0.631569 0.00374635)
(4.83618 0.635091 0.003641)
(4.84165 0.637966 0.00370522)
(4.83414 0.641247 0.003618)
(4.83662 0.644098 0.00366822)
(4.82929 0.64742 0.00359581)
(4.83005 0.650361 0.00363449)
(4.82347 0.653618 0.00357412)
(4.82345 0.656418 0.00360317)
(4.81794 0.659308 0.00355262)
(4.81768 0.66162 0.00357376)
(4.81322 0.663791 0.00353146)
(4.81286 0.66536 0.0035461)
(4.80916 0.666765 0.00351062)
(4.80859 0.667697 0.00351967)
(4.80534 0.668516 0.00348973)
(4.80449 0.668977 0.00349397)
(4.8015 0.669369 0.00346881)
(4.80041 0.669519 0.00346907)
(4.79762 0.66966 0.00344813)
(4.7964 0.669672 0.00344489)
(4.79381 0.66971 0.00342755)
(4.79253 0.669706 0.00342108)
(4.79007 0.669709 0.003407)
(4.78866 0.669746 0.0033977)
(4.78624 0.669713 0.00338685)
(4.78458 0.669814 0.00337506)
(4.78227 0.66973 0.00336742)
(4.78014 0.669898 0.00335321)
(4.77828 0.669808 0.0033487)
(4.77512 0.669911 0.00333206)
(4.77469 0.670149 0.00333054)
(4.76907 0.669497 0.00331158)
(4.77249 0.671365 0.00331287)
(4.76142 0.667488 0.00329249)
(4.77401 0.674322 0.00329553)
(4.7523 0.66084 0.00327711)
(4.78372 0.679509 0.00327752)
(4.74606 0.646953 0.00327217)
(4.80833 0.684113 0.00325653)
(4.7614 0.636119 0.00329322)
(4.85429 0.700295 0.00323229)
(4.52468 -0.044136 0.00428281)
(4.47301 -0.0878779 0.00373818)
(4.54816 -0.15235 0.00415264)
(4.5175 -0.196414 0.00365079)
(4.59284 -0.245138 0.0040074)
(4.57755 -0.285177 0.00357875)
(4.64552 -0.323289 0.00386917)
(4.64031 -0.357192 0.00351282)
(4.6989 -0.38787 0.00374826)
(4.6995 -0.416118 0.00345752)
(4.74832 -0.441534 0.00364933)
(4.7514 -0.465238 0.003414)
(4.79065 -0.486763 0.0035704)
(4.79385 -0.506816 0.00337997)
(4.82415 -0.525196 0.00350722)
(4.82613 -0.542154 0.00335272)
(4.84852 -0.55779 0.0034557)
(4.84872 -0.572031 0.00332958)
(4.86441 -0.58517 0.00341198)
(4.8628 -0.596938 0.00330816)
(4.8731 -0.60772 0.00337326)
(4.87 -0.61716 0.00328732)
(4.87622 -0.625664 0.00333822)
(4.87222 -0.632851 0.00326692)
(4.87567 -0.639147 0.00330613)
(4.87144 -0.644255 0.00324665)
(4.87324 -0.648602 0.00327612)
(4.86928 -0.651984 0.0032263)
(4.87018 -0.654829 0.00324775)
(4.8667 -0.657 0.003206)
(4.86703 -0.658851 0.0032208)
(4.86394 -0.660218 0.00318565)
(4.86382 -0.661367 0.00319472)
(4.86103 -0.662176 0.00316495)
(4.86054 -0.662885 0.00316917)
(4.85791 -0.663419 0.00314417)
(4.8571 -0.663958 0.00314448)
(4.85453 -0.664407 0.00312372)
(4.85342 -0.664859 0.00312055)
(4.85086 -0.665227 0.00310333)
(4.84954 -0.665542 0.00309685)
(4.84695 -0.665785 0.00308282)
(4.8455 -0.665947 0.00307344)
(4.84285 -0.666084 0.00306264)
(4.84131 -0.666145 0.00305073)
(4.83851 -0.666193 0.00304324)
(4.83699 -0.666288 0.00302883)
(4.83383 -0.666092 0.00302463)
(4.83262 -0.6666 0.00300733)
(4.82856 -0.665507 0.00300645)
(4.82854 -0.667544 0.0029855)
(4.82182 -0.663652 0.002988)
(4.8253 -0.670124 0.00296192)
(4.81055 -0.658899 0.00296749)
(4.82391 -0.676196 0.00293327)
(4.78692 -0.64976 0.00294059)
(4.82311 -0.687518 0.00288992)
(4.73499 -0.641395 0.00289731)
(4.80444 -0.699116 0.0028021)
(4.6357 -0.668206 0.00281665)
(4.52611 0.0445086 0.00454503)
(4.4779 0.137485 0.00400393)
(4.55141 0.209158 0.00441166)
(4.5204 0.276378 0.00390928)
(4.59361 0.329402 0.00426264)
(4.57704 0.376835 0.00383337)
(4.64314 0.415592 0.0041219)
(4.63645 0.449357 0.00376395)
(4.69355 0.477507 0.0039972)
(4.69286 0.501762 0.0037038)
(4.74067 0.522186 0.0038929)
(4.74291 0.539814 0.00365451)
(4.78169 0.554762 0.00380811)
(4.78459 0.567835 0.00361485)
(4.81494 0.579007 0.00373957)
(4.81711 0.588983 0.00358273)
(4.83995 0.597578 0.00368365)
(4.84071 0.605447 0.00355573)
(4.85715 0.612301 0.00363654)
(4.85637 0.61874 0.00353139)
(4.86759 0.624412 0.00359531)
(4.86546 0.629844 0.0035084)
(4.87266 0.634664 0.00355841)
(4.86964 0.639293 0.00348635)
(4.87401 0.643363 0.00352489)
(4.87067 0.647198 0.00346486)
(4.87328 0.650478 0.00349382)
(4.8701 0.653463 0.0034436)
(4.87169 0.655904 0.00346469)
(4.8689 0.658027 0.00342264)
(4.86986 0.659672 0.00343719)
(4.86742 0.661041 0.00340182)
(4.8679 0.662035 0.0034107)
(4.8657 0.662828 0.00338081)
(4.86578 0.663359 0.00338495)
(4.8637 0.663771 0.00335992)
(4.86338 0.664032 0.00336021)
(4.86129 0.664234 0.00333946)
(4.86059 0.66436 0.00333626)
(4.85843 0.664448 0.00331903)
(4.85738 0.664515 0.00331252)
(4.85513 0.664526 0.00329844)
(4.85379 0.664593 0.003289)
(4.85147 0.664534 0.00327812)
(4.84982 0.664672 0.0032662)
(4.8475 0.664502 0.00325859)
(4.84548 0.664822 0.00324427)
(4.84334 0.664432 0.00323983)
(4.8408 0.665138 0.00322293)
(4.83913 0.664331 0.00322139)
(4.83594 0.66575 0.00320172)
(4.835 0.664285 0.00320263)
(4.83162 0.666856 0.00318031)
(4.83131 0.664924 0.00318257)
(4.83027 0.669555 0.00315837)
(4.82886 0.669054 0.00315925)
(4.83826 0.67807 0.00313572)
(4.8307 0.68799 0.00313044)
(4.87012 0.703797 0.00311236)
(4.84867 0.769593 0.00309266)