/*--------------------------------*- C++ -*----------------------------------*\
  =========                 |
  \\      /  F ield         | OpenFOAM: The Open Source CFD Toolbox
   \\    /   O peration     | Website:  https://openfoam.org
    \\  /    A nd           | Version:  7
     \\/     M anipulation  |
\*---------------------------------------------------------------------------*/
FoamFile
{
    version     2.0;
    format      ascii;
    class       volVectorField;
    location    "0.085";
    object      UMean;
}
// * * * * * * * * * * * * * * * * * * * * * * * * * * * * * * * * * * * * * //

dimensions      [0 1 -1 0 0 0 0];

internalField   nonuniform List<vector> 
1440
(
(24.6555 0.0725245 0)
(24.5222 0.271199 0)
(24.1931 0.453003 0)
(23.6794 0.598515 0)
(23.03 0.704807 0)
(22.289 0.77083 0)
(21.4941 0.799963 0)
(20.6682 0.797347 0)
(19.8366 0.771362 0)
(19.0111 0.728285 0)
(18.212 0.673978 0)
(17.4449 0.615653 0)
(16.717 0.555317 0)
(16.0343 0.495042 0)
(15.3984 0.436871 0)
(14.8096 0.381863 0)
(14.2673 0.33072 0)
(13.7704 0.283839 0)
(13.3173 0.241359 0)
(12.9057 0.203234 0)
(12.5332 0.169285 0)
(12.1971 0.139266 0)
(11.8947 0.11289 0)
(11.6232 0.0898573 0)
(11.3799 0.0698596 0)
(11.1624 0.0525973 0)
(10.968 0.0377876 0)
(10.7946 0.0251683 0)
(10.64 0.0144973 0)
(10.502 0.00555163 0)
(10.3791 -0.00187281 0)
(10.2694 -0.00796205 0)
(10.1714 -0.0128854 0)
(10.0838 -0.0167963 0)
(10.0054 -0.0198331 0)
(9.93505 -0.0221202 0)
(9.87177 -0.0237679 0)
(9.8147 -0.0248737 0)
(9.76308 -0.0255229 0)
(9.71622 -0.02579 0)
(9.67354 -0.0257396 0)
(9.6345 -0.0254272 0)
(9.59865 -0.0249006 0)
(9.56557 -0.0242002 0)
(9.53492 -0.0233602 0)
(9.50637 -0.0224094 0)
(9.47966 -0.0213718 0)
(9.45455 -0.0202671 0)
(9.43082 -0.0191112 0)
(9.4083 -0.0179178 0)
(9.38682 -0.0167 0)
(9.36624 -0.0154701 0)
(9.34646 -0.0142385 0)
(9.32735 -0.0130139 0)
(9.30884 -0.0118031 0)
(9.29084 -0.0106116 0)
(9.2733 -0.00944386 0)
(9.25616 -0.00830346 0)
(9.23936 -0.00719358 0)
(9.22288 -0.00611627 0)
(9.20668 -0.00507297 0)
(9.19072 -0.00406549 0)
(9.175 -0.00309431 0)
(9.15949 -0.00215978 0)
(9.14417 -0.00126205 0)
(9.12904 -0.000401215 0)
(9.11409 0.000422932 0)
(9.09931 0.00121078 0)
(9.08469 0.00196289 0)
(9.07024 0.00267982 0)
(9.05595 0.00336229 0)
(9.04182 0.00401109 0)
(9.02784 0.00462756 0)
(9.01402 0.00521248 0)
(9.00036 0.00576703 0)
(8.98686 0.0062919 0)
(8.97352 0.00678842 0)
(8.96033 0.00725783 0)
(8.9473 0.00770097 0)
(8.93443 0.00811924 0)
(8.92172 0.00851395 0)
(8.90918 0.00888626 0)
(8.89679 0.00923754 0)
(8.88458 0.00956871 0)
(8.87252 0.00988108 0)
(8.86064 0.0101756 0)
(8.84892 0.0104538 0)
(8.83737 0.0107165 0)
(8.82599 0.0109644 0)
(8.81478 0.0111983 0)
(8.80373 0.0114191 0)
(8.79285 0.0116271 0)
(8.78213 0.0118234 0)
(8.77157 0.0120084 0)
(8.76117 0.0121826 0)
(8.75092 0.0123461 0)
(8.74083 0.0124997 0)
(8.7309 0.0126442 0)
(8.72111 0.0127791 0)
(8.71148 0.0129071 0)
(8.702 0.0130257 0)
(8.69267 0.0131396 0)
(8.6835 0.0132423 0)
(8.67448 0.0133446 0)
(8.66561 0.013432 0)
(8.65689 0.0135261 0)
(8.64834 0.013594 0)
(8.6399 0.0136846 0)
(8.63168 0.0137248 0)
(8.6235 0.0138219 0)
(8.61564 0.0138146 0)
(8.60766 0.0139397 0)
(8.60023 0.0138399 0)
(8.59237 0.0140406 0)
(8.58556 0.0137498 0)
(8.57762 0.0141317 0)
(8.57188 0.0134564 0)
(8.56335 0.0142812 0)
(8.55985 0.0130657 0)
(8.54777 0.0152062 0)
(24.6797 0.101924 0)
(24.7707 0.28037 0)
(24.9183 0.432327 0)
(25.0954 0.564953 0)
(25.2839 0.680961 0)
(25.4685 0.778112 0)
(25.6371 0.854509 0)
(25.7785 0.910334 0)
(25.8868 0.947706 0)
(25.9585 0.969112 0)
(25.9953 0.976785 0)
(25.9992 0.97297 0)
(25.9737 0.959554 0)
(25.9226 0.938003 0)
(25.8498 0.909751 0)
(25.7589 0.876278 0)
(25.6534 0.838988 0)
(25.5367 0.799121 0)
(25.4115 0.757742 0)
(25.2801 0.715725 0)
(25.1445 0.673831 0)
(25.0065 0.632683 0)
(24.8673 0.592743 0)
(24.728 0.554382 0)
(24.5896 0.51786 0)
(24.4527 0.483343 0)
(24.3178 0.450922 0)
(24.1854 0.420634 0)
(24.0557 0.392468 0)
(23.929 0.366382 0)
(23.8053 0.342304 0)
(23.6848 0.320143 0)
(23.5675 0.299798 0)
(23.4533 0.281157 0)
(23.3422 0.264106 0)
(23.2343 0.248528 0)
(23.1294 0.234311 0)
(23.0275 0.221345 0)
(22.9285 0.209525 0)
(22.8323 0.198751 0)
(22.7389 0.188931 0)
(22.6481 0.179978 0)
(22.56 0.171811 0)
(22.4743 0.164356 0)
(22.3911 0.157543 0)
(22.3103 0.15131 0)
(22.2318 0.145599 0)
(22.1556 0.140357 0)
(22.0815 0.135538 0)
(22.0095 0.131099 0)
(21.9395 0.127004 0)
(21.8715 0.123218 0)
(21.8054 0.11971 0)
(21.7412 0.116453 0)
(21.6787 0.11342 0)
(21.618 0.11059 0)
(21.5589 0.107943 0)
(21.5015 0.105459 0)
(21.4457 0.103124 0)
(21.3914 0.100922 0)
(21.3385 0.0988415 0)
(21.2871 0.0968695 0)
(21.2371 0.0949959 0)
(21.1885 0.093212 0)
(21.1411 0.0915099 0)
(21.0951 0.0898828 0)
(21.0502 0.0883247 0)
(21.0065 0.0868302 0)
(20.964 0.0853948 0)
(20.9226 0.084014 0)
(20.8823 0.0826842 0)
(20.8431 0.081402 0)
(20.8048 0.0801646 0)
(20.7676 0.0789694 0)
(20.7313 0.0778138 0)
(20.6959 0.0766956 0)
(20.6615 0.075613 0)
(20.6279 0.0745641 0)
(20.5952 0.0735473 0)
(20.5633 0.0725611 0)
(20.5322 0.0716044 0)
(20.5018 0.0706758 0)
(20.4723 0.0697745 0)
(20.4434 0.0688991 0)
(20.4153 0.0680488 0)
(20.3879 0.0672227 0)
(20.3611 0.06642 0)
(20.335 0.0656397 0)
(20.3095 0.064881 0)
(20.2846 0.0641428 0)
(20.2604 0.0634245 0)
(20.2367 0.0627252 0)
(20.2136 0.0620443 0)
(20.191 0.0613811 0)
(20.169 0.0607351 0)
(20.1475 0.0601055 0)
(20.1265 0.059492 0)
(20.1061 0.0588947 0)
(20.0861 0.0583124 0)
(20.0665 0.0577464 0)
(20.0475 0.0571943 0)
(20.0289 0.0566591 0)
(20.0107 0.0561349 0)
(19.9929 0.0556298 0)
(19.9756 0.0551309 0)
(19.9587 0.0546552 0)
(19.9422 0.0541752 0)
(19.926 0.0537284 0)
(19.9103 0.0532573 0)
(19.8949 0.052841 0)
(19.88 0.0523606 0)
(19.8652 0.0519785 0)
(19.8512 0.0514563 0)
(19.8368 0.0511128 0)
(19.824 0.0504926 0)
(19.8096 0.0501737 0)
(19.7986 0.0493686 0)
(19.7833 0.0489841 0)
(19.7765 0.0479952 0)
(19.7572 0.047468 0)
(24.6764 0.063596 0)
(24.7258 0.184712 0)
(24.8135 0.294629 0)
(24.9318 0.392371 0)
(25.0777 0.478402 0)
(25.2494 0.552184 0)
(25.4435 0.612625 0)
(25.6543 0.659252 0)
(25.8752 0.692531 0)
(26.0999 0.713531 0)
(26.3231 0.723347 0)
(26.5409 0.723296 0)
(26.7501 0.714607 0)
(26.9485 0.698659 0)
(27.1346 0.676991 0)
(27.3075 0.651117 0)
(27.4668 0.622388 0)
(27.6126 0.591938 0)
(27.7451 0.560698 0)
(27.8648 0.52942 0)
(27.9724 0.498709 0)
(28.0686 0.469045 0)
(28.1541 0.440784 0)
(28.2299 0.414168 0)
(28.2966 0.389345 0)
(28.355 0.366381 0)
(28.406 0.34528 0)
(28.4503 0.326003 0)
(28.4884 0.308481 0)
(28.5211 0.292622 0)
(28.5489 0.278322 0)
(28.5723 0.265468 0)
(28.5918 0.253943 0)
(28.6078 0.243628 0)
(28.6207 0.234409 0)
(28.6307 0.226174 0)
(28.6383 0.218819 0)
(28.6437 0.212247 0)
(28.647 0.206368 0)
(28.6485 0.201102 0)
(28.6484 0.196374 0)
(28.6469 0.192119 0)
(28.644 0.188278 0)
(28.6399 0.184797 0)
(28.6347 0.18163 0)
(28.6286 0.178734 0)
(28.6215 0.176072 0)
(28.6136 0.17361 0)
(28.6049 0.171317 0)
(28.5956 0.169165 0)
(28.5856 0.167128 0)
(28.575 0.165189 0)
(28.5638 0.16333 0)
(28.5522 0.161538 0)
(28.5401 0.159802 0)
(28.5275 0.158112 0)
(28.5146 0.156462 0)
(28.5013 0.154845 0)
(28.4876 0.153257 0)
(28.4737 0.151693 0)
(28.4594 0.15015 0)
(28.4449 0.148625 0)
(28.4302 0.147116 0)
(28.4152 0.145621 0)
(28.4001 0.144139 0)
(28.3848 0.142668 0)
(28.3693 0.141208 0)
(28.3537 0.139759 0)
(28.3379 0.13832 0)
(28.3221 0.136892 0)
(28.3061 0.135475 0)
(28.2901 0.134068 0)
(28.274 0.132672 0)
(28.2579 0.131288 0)
(28.2417 0.129916 0)
(28.2255 0.128557 0)
(28.2093 0.127212 0)
(28.193 0.125879 0)
(28.1768 0.124561 0)
(28.1606 0.123258 0)
(28.1444 0.12197 0)
(28.1282 0.120697 0)
(28.1121 0.11944 0)
(28.096 0.118199 0)
(28.08 0.116975 0)
(28.064 0.115767 0)
(28.0481 0.114575 0)
(28.0323 0.1134 0)
(28.0165 0.112242 0)
(28.0009 0.111099 0)
(27.9853 0.109973 0)
(27.9699 0.108863 0)
(27.9545 0.10777 0)
(27.9393 0.106691 0)
(27.9241 0.105629 0)
(27.9091 0.104582 0)
(27.8942 0.103551 0)
(27.8795 0.102535 0)
(27.8648 0.101536 0)
(27.8503 0.10055 0)
(27.8359 0.0995825 0)
(27.8217 0.0986257 0)
(27.8076 0.0976902 0)
(27.7937 0.0967602 0)
(27.7799 0.0958559 0)
(27.7663 0.0949477 0)
(27.7529 0.0940755 0)
(27.7396 0.0931794 0)
(27.7265 0.0923427 0)
(27.7135 0.0914398 0)
(27.7008 0.0906492 0)
(27.6881 0.0897028 0)
(27.6758 0.0889845 0)
(27.6633 0.0879156 0)
(27.6518 0.0873253 0)
(27.639 0.0859627 0)
(27.6289 0.0856114 0)
(27.6148 0.0835737 0)
(27.6081 0.0836093 0)
(27.59 0.0799217 0)
(24.6762 0.0429656 0)
(24.7204 0.1267 0)
(24.7985 0.204726 0)
(24.9039 0.274567 0)
(25.0339 0.335347 0)
(25.1865 0.38679 0)
(25.3586 0.428576 0)
(25.5463 0.460542 0)
(25.7451 0.483016 0)
(25.9507 0.496844 0)
(26.1596 0.503139 0)
(26.3688 0.503118 0)
(26.5762 0.497961 0)
(26.7799 0.488803 0)
(26.9784 0.476707 0)
(27.1705 0.462585 0)
(27.3553 0.447177 0)
(27.532 0.43105 0)
(27.7002 0.414644 0)
(27.8597 0.398281 0)
(28.0105 0.382199 0)
(28.1526 0.366557 0)
(28.2864 0.351473 0)
(28.4121 0.337028 0)
(28.5302 0.323283 0)
(28.6411 0.310274 0)
(28.7453 0.298016 0)
(28.8433 0.286505 0)
(28.9356 0.27573 0)
(29.0225 0.265668 0)
(29.1048 0.256296 0)
(29.1826 0.24758 0)
(29.2565 0.239487 0)
(29.3267 0.231978 0)
(29.3938 0.225019 0)
(29.4578 0.218571 0)
(29.5192 0.212598 0)
(29.5782 0.207062 0)
(29.6349 0.201931 0)
(29.6897 0.19717 0)
(29.7426 0.192749 0)
(29.7938 0.188638 0)
(29.8435 0.184812 0)
(29.8917 0.181244 0)
(29.9386 0.177913 0)
(29.9843 0.174798 0)
(30.0288 0.171878 0)
(30.0722 0.169137 0)
(30.1146 0.166557 0)
(30.156 0.164122 0)
(30.1964 0.161816 0)
(30.236 0.159628 0)
(30.2747 0.157547 0)
(30.3126 0.155565 0)
(30.3498 0.153674 0)
(30.3861 0.151867 0)
(30.4217 0.150139 0)
(30.4567 0.148483 0)
(30.4909 0.146895 0)
(30.5244 0.14537 0)
(30.5573 0.143905 0)
(30.5895 0.142496 0)
(30.6212 0.14114 0)
(30.6522 0.139833 0)
(30.6826 0.138573 0)
(30.7124 0.137356 0)
(30.7416 0.136179 0)
(30.7703 0.135038 0)
(30.7984 0.133931 0)
(30.8259 0.132855 0)
(30.853 0.131809 0)
(30.8795 0.130789 0)
(30.9054 0.129795 0)
(30.9309 0.128824 0)
(30.9559 0.127875 0)
(30.9804 0.126946 0)
(31.0044 0.126038 0)
(31.0279 0.125147 0)
(31.051 0.124275 0)
(31.0736 0.123419 0)
(31.0957 0.12258 0)
(31.1174 0.121755 0)
(31.1387 0.120946 0)
(31.1596 0.12015 0)
(31.18 0.119367 0)
(31.2001 0.118597 0)
(31.2197 0.11784 0)
(31.239 0.117093 0)
(31.2578 0.116358 0)
(31.2763 0.115632 0)
(31.2944 0.114917 0)
(31.3122 0.11421 0)
(31.3296 0.113512 0)
(31.3466 0.112822 0)
(31.3633 0.11214 0)
(31.3797 0.111464 0)
(31.3957 0.110797 0)
(31.4115 0.110134 0)
(31.4269 0.109481 0)
(31.442 0.10883 0)
(31.4568 0.10819 0)
(31.4712 0.107547 0)
(31.4854 0.106921 0)
(31.4994 0.106284 0)
(31.513 0.105673 0)
(31.5264 0.105033 0)
(31.5395 0.104441 0)
(31.5524 0.103785 0)
(31.5649 0.103221 0)
(31.5774 0.102522 0)
(31.5893 0.102009 0)
(31.6015 0.101218 0)
(31.6126 0.100802 0)
(31.6248 0.0998202 0)
(31.6348 0.0995848 0)
(31.6475 0.098228 0)
(31.6555 0.0983128 0)
(31.67 0.0962388 0)
(31.674 0.0967651 0)
(31.6926 0.093231 0)
(24.676 0.0252345 0)
(24.7177 0.0746485 0)
(24.7906 0.121167 0)
(24.8891 0.163019 0)
(25.0116 0.199334 0)
(25.1563 0.229973 0)
(25.3203 0.254962 0)
(25.4997 0.274333 0)
(25.6903 0.288292 0)
(25.8881 0.297331 0)
(26.0896 0.30214 0)
(26.2921 0.303451 0)
(26.4933 0.301946 0)
(26.6913 0.298201 0)
(26.8848 0.292681 0)
(27.0724 0.285763 0)
(27.2532 0.277754 0)
(27.4265 0.268919 0)
(27.5919 0.259495 0)
(27.7493 0.249694 0)
(27.8985 0.239692 0)
(28.0397 0.229631 0)
(28.1731 0.219633 0)
(28.2991 0.209804 0)
(28.4181 0.200239 0)
(28.5304 0.191019 0)
(28.6366 0.182215 0)
(28.7371 0.17388 0)
(28.8322 0.166052 0)
(28.9226 0.158748 0)
(29.0086 0.151971 0)
(29.0906 0.145711 0)
(29.169 0.139947 0)
(29.2441 0.134656 0)
(29.3163 0.12981 0)
(29.3858 0.125379 0)
(29.4529 0.121333 0)
(29.5179 0.117644 0)
(29.5809 0.114284 0)
(29.6422 0.111225 0)
(29.7019 0.108443 0)
(29.7602 0.105915 0)
(29.8172 0.103618 0)
(29.8729 0.101534 0)
(29.9276 0.0996429 0)
(29.9813 0.0979286 0)
(30.034 0.0963747 0)
(30.0859 0.0949666 0)
(30.1369 0.0936913 0)
(30.1873 0.0925375 0)
(30.2369 0.0914947 0)
(30.2858 0.0905526 0)
(30.3341 0.0897011 0)
(30.3819 0.0889308 0)
(30.429 0.0882328 0)
(30.4756 0.0875993 0)
(30.5217 0.0870225 0)
(30.5673 0.0864959 0)
(30.6124 0.086013 0)
(30.657 0.0855684 0)
(30.7012 0.0851573 0)
(30.7449 0.084776 0)
(30.7882 0.0844211 0)
(30.8311 0.0840893 0)
(30.8735 0.0837772 0)
(30.9156 0.083482 0)
(30.9572 0.0832009 0)
(30.9985 0.0829313 0)
(31.0394 0.082671 0)
(31.0799 0.082418 0)
(31.12 0.0821706 0)
(31.1598 0.0819274 0)
(31.1992 0.081687 0)
(31.2382 0.0814486 0)
(31.2769 0.0812111 0)
(31.3153 0.080974 0)
(31.3533 0.0807367 0)
(31.3909 0.080499 0)
(31.4283 0.0802607 0)
(31.4653 0.0800217 0)
(31.502 0.0797819 0)
(31.5383 0.0795411 0)
(31.5744 0.0792995 0)
(31.6101 0.079057 0)
(31.6455 0.0788136 0)
(31.6807 0.0785694 0)
(31.7155 0.0783244 0)
(31.75 0.0780785 0)
(31.7842 0.0778318 0)
(31.8182 0.077584 0)
(31.8519 0.0773354 0)
(31.8852 0.0770856 0)
(31.9183 0.0768351 0)
(31.9511 0.0765832 0)
(31.9837 0.076331 0)
(32.016 0.0760773 0)
(32.048 0.0758238 0)
(32.0797 0.0755685 0)
(32.1112 0.0753143 0)
(32.1424 0.0750571 0)
(32.1734 0.0748029 0)
(32.2041 0.0745431 0)
(32.2346 0.0742896 0)
(32.2648 0.074025 0)
(32.2947 0.0737735 0)
(32.3245 0.0734994 0)
(32.3539 0.0732523 0)
(32.3833 0.0729595 0)
(32.4121 0.0727228 0)
(32.4412 0.0723943 0)
(32.4693 0.0721811 0)
(32.4984 0.0717851 0)
(32.5252 0.0716216 0)
(32.5549 0.0710989 0)
(32.5797 0.0710328 0)
(32.6113 0.070273 0)
(32.6319 0.0703758 0)
(32.6684 0.0691711 0)
(32.68 0.0694818 0)
(32.7276 0.0674144 0)
(24.676 0.00855175 0)
(24.7164 0.0252911 0)
(24.7869 0.0410605 0)
(24.8819 0.0552415 0)
(25.0005 0.0675141 0)
(25.1414 0.0778816 0)
(25.3016 0.0864523 0)
(25.4774 0.0933074 0)
(25.6645 0.0985272 0)
(25.8592 0.10226 0)
(26.058 0.104712 0)
(26.2582 0.106111 0)
(26.4575 0.106647 0)
(26.6538 0.10647 0)
(26.8457 0.105687 0)
(27.032 0.104398 0)
(27.2116 0.102688 0)
(27.3839 0.100648 0)
(27.5484 0.0983541 0)
(27.705 0.0958876 0)
(27.8535 0.0933215 0)
(27.9942 0.0907279 0)
(28.1273 0.0881602 0)
(28.253 0.0856586 0)
(28.3717 0.0832476 0)
(28.4839 0.0809486 0)
(28.5899 0.0787797 0)
(28.6903 0.0767574 0)
(28.7854 0.0748903 0)
(28.8757 0.07318 0)
(28.9616 0.0716191 0)
(29.0435 0.0701984 0)
(29.1218 0.0689052 0)
(29.1968 0.0677279 0)
(29.2688 0.0666536 0)
(29.3382 0.0656713 0)
(29.4052 0.0647697 0)
(29.47 0.0639398 0)
(29.5328 0.0631734 0)
(29.5939 0.0624644 0)
(29.6535 0.0618072 0)
(29.7116 0.0611983 0)
(29.7684 0.0606343 0)
(29.824 0.0601131 0)
(29.8785 0.0596324 0)
(29.932 0.0591906 0)
(29.9847 0.0587852 0)
(30.0365 0.0584147 0)
(30.0875 0.0580772 0)
(30.1377 0.0577714 0)
(30.1873 0.0574948 0)
(30.2363 0.0572449 0)
(30.2847 0.0570184 0)
(30.3324 0.0568125 0)
(30.3797 0.0566243 0)
(30.4264 0.0564514 0)
(30.4727 0.0562913 0)
(30.5184 0.0561421 0)
(30.5637 0.0560017 0)
(30.6086 0.0558684 0)
(30.653 0.0557401 0)
(30.6971 0.0556152 0)
(30.7407 0.055492 0)
(30.784 0.0553694 0)
(30.8268 0.0552464 0)
(30.8693 0.0551225 0)
(30.9115 0.054997 0)
(30.9533 0.0548697 0)
(30.9947 0.0547402 0)
(31.0358 0.0546083 0)
(31.0766 0.0544738 0)
(31.117 0.0543366 0)
(31.1572 0.0541967 0)
(31.197 0.0540542 0)
(31.2365 0.053909 0)
(31.2757 0.0537614 0)
(31.3146 0.0536113 0)
(31.3532 0.0534594 0)
(31.3915 0.0533058 0)
(31.4295 0.0531511 0)
(31.4673 0.0529954 0)
(31.5048 0.0528393 0)
(31.542 0.0526827 0)
(31.5789 0.0525262 0)
(31.6156 0.0523698 0)
(31.652 0.0522137 0)
(31.6882 0.052058 0)
(31.7241 0.0519029 0)
(31.7598 0.0517484 0)
(31.7952 0.0515945 0)
(31.8304 0.0514414 0)
(31.8654 0.051289 0)
(31.9001 0.0511375 0)
(31.9346 0.0509867 0)
(31.9688 0.0508368 0)
(32.0029 0.0506878 0)
(32.0367 0.0505401 0)
(32.0703 0.050393 0)
(32.1037 0.0502476 0)
(32.1369 0.0501023 0)
(32.1699 0.0499589 0)
(32.2027 0.0498144 0)
(32.2352 0.0496726 0)
(32.2676 0.0495273 0)
(32.2997 0.0493863 0)
(32.3318 0.0492371 0)
(32.3635 0.0490962 0)
(32.3952 0.0489384 0)
(32.4264 0.0487979 0)
(32.458 0.0486238 0)
(32.4884 0.0484863 0)
(32.5202 0.0482824 0)
(32.5495 0.048156 0)
(32.582 0.0478986 0)
(32.6091 0.0478021 0)
(32.6439 0.047447 0)
(32.6665 0.0474183 0)
(32.7068 0.0468689 0)
(32.7194 0.0469447 0)
(32.7721 0.0459287 0)
(24.676 -0.00780791 0)
(24.7163 -0.0231289 0)
(24.7867 -0.0376558 0)
(24.8816 -0.050874 0)
(25.0001 -0.0624308 0)
(25.1411 -0.0721392 0)
(25.3014 -0.0798843 0)
(25.4774 -0.085611 0)
(25.6646 -0.0893715 0)
(25.8594 -0.0913326 0)
(26.0584 -0.0917146 0)
(26.2587 -0.0907452 0)
(26.4581 -0.0886278 0)
(26.6545 -0.0855555 0)
(26.8465 -0.0816993 0)
(27.0328 -0.0772243 0)
(27.2124 -0.0722715 0)
(27.3847 -0.0669758 0)
(27.5492 -0.0614549 0)
(27.7057 -0.0558254 0)
(27.8542 -0.050187 0)
(27.9949 -0.0446342 0)
(28.1278 -0.0392489 0)
(28.2534 -0.0341116 0)
(28.3719 -0.0292874 0)
(28.4839 -0.0248277 0)
(28.5898 -0.0207683 0)
(28.6899 -0.0171345 0)
(28.7848 -0.0139392 0)
(28.8749 -0.0111846 0)
(28.9606 -0.00885642 0)
(29.0424 -0.00692779 0)
(29.1205 -0.00536051 0)
(29.1953 -0.00411315 0)
(29.2672 -0.00314251 0)
(29.3364 -0.00240765 0)
(29.4032 -0.00186888 0)
(29.4679 -0.00149079 0)
(29.5307 -0.00124129 0)
(29.5917 -0.00109288 0)
(29.6512 -0.00102047 0)
(29.7092 -0.00100289 0)
(29.766 -0.0010217 0)
(29.8215 -0.00106201 0)
(29.876 -0.00111136 0)
(29.9295 -0.0011601 0)
(29.9821 -0.00120021 0)
(30.0339 -0.00122603 0)
(30.0849 -0.00123299 0)
(30.1351 -0.00121863 0)
(30.1847 -0.00118139 0)
(30.2336 -0.0011212 0)
(30.282 -0.00103825 0)
(30.3297 -0.000933536 0)
(30.3769 -0.000807893 0)
(30.4236 -0.000662806 0)
(30.4698 -0.000499457 0)
(30.5155 -0.000319437 0)
(30.5608 -0.000124044 0)
(30.6056 8.53347e-05 0)
(30.65 0.000307424 0)
(30.694 0.00054039 0)
(30.7376 0.000782845 0)
(30.7808 0.00103332 0)
(30.8236 0.00129077 0)
(30.866 0.00155399 0)
(30.9081 0.001822 0)
(30.9498 0.00209366 0)
(30.9912 0.00236811 0)
(31.0323 0.00264421 0)
(31.073 0.00292127 0)
(31.1133 0.00319845 0)
(31.1534 0.00347518 0)
(31.1931 0.00375084 0)
(31.2326 0.00402504 0)
(31.2717 0.00429728 0)
(31.3105 0.00456712 0)
(31.3491 0.00483386 0)
(31.3873 0.00509721 0)
(31.4253 0.00535697 0)
(31.463 0.00561315 0)
(31.5004 0.00586559 0)
(31.5375 0.00611421 0)
(31.5744 0.00635882 0)
(31.611 0.00659931 0)
(31.6474 0.00683553 0)
(31.6835 0.00706741 0)
(31.7193 0.0072948 0)
(31.7549 0.00751765 0)
(31.7903 0.00773583 0)
(31.8254 0.00794935 0)
(31.8603 0.00815814 0)
(31.8949 0.0083622 0)
(31.9294 0.00856149 0)
(31.9636 0.00875595 0)
(31.9975 0.00894565 0)
(32.0313 0.00913045 0)
(32.0649 0.00931061 0)
(32.0982 0.00948607 0)
(32.1313 0.00965723 0)
(32.1642 0.00982346 0)
(32.1969 0.00998544 0)
(32.2294 0.0101416 0)
(32.2618 0.0102937 0)
(32.2938 0.0104383 0)
(32.3259 0.0105796 0)
(32.3575 0.0107106 0)
(32.3892 0.0108406 0)
(32.4203 0.010955 0)
(32.4519 0.0110745 0)
(32.4822 0.0111681 0)
(32.514 0.0112808 0)
(32.5432 0.0113471 0)
(32.5757 0.011463 0)
(32.6027 0.0114936 0)
(32.6375 0.01164 0)
(32.66 0.011627 0)
(32.7004 0.0118686 0)
(32.7129 0.0118121 0)
(32.7655 0.0122923 0)
(24.676 -0.0244428 0)
(24.7175 -0.0723312 0)
(24.7901 -0.11753 0)
(24.8882 -0.158419 0)
(25.0104 -0.194065 0)
(25.1552 -0.224087 0)
(25.3195 -0.248283 0)
(25.4994 -0.266586 0)
(25.6905 -0.279195 0)
(25.8887 -0.28661 0)
(26.0907 -0.289503 0)
(26.2936 -0.288571 0)
(26.4951 -0.284459 0)
(26.6935 -0.277738 0)
(26.8872 -0.268928 0)
(27.0749 -0.258502 0)
(27.2557 -0.246886 0)
(27.4289 -0.234447 0)
(27.5942 -0.221501 0)
(27.7513 -0.208322 0)
(27.9003 -0.195149 0)
(28.0411 -0.182185 0)
(28.1742 -0.169599 0)
(28.2998 -0.15752 0)
(28.4182 -0.146044 0)
(28.53 -0.135244 0)
(28.6356 -0.125174 0)
(28.7354 -0.115868 0)
(28.83 -0.107346 0)
(28.9197 -0.0996057 0)
(29.0051 -0.0926256 0)
(29.0866 -0.0863679 0)
(29.1644 -0.0807845 0)
(29.239 -0.0758212 0)
(29.3108 -0.0714216 0)
(29.3799 -0.067529 0)
(29.4467 -0.0640885 0)
(29.5113 -0.0610484 0)
(29.5741 -0.0583608 0)
(29.6351 -0.0559805 0)
(29.6946 -0.0538652 0)
(29.7527 -0.0519757 0)
(29.8095 -0.050277 0)
(29.8652 -0.0487393 0)
(29.9197 -0.0473376 0)
(29.9733 -0.0460504 0)
(30.0259 -0.0448592 0)
(30.0777 -0.0437482 0)
(30.1287 -0.0427045 0)
(30.179 -0.0417173 0)
(30.2286 -0.0407784 0)
(30.2775 -0.039881 0)
(30.3258 -0.0390196 0)
(30.3734 -0.0381899 0)
(30.4206 -0.0373882 0)
(30.4672 -0.0366119 0)
(30.5132 -0.0358584 0)
(30.5588 -0.035126 0)
(30.6039 -0.0344128 0)
(30.6485 -0.0337174 0)
(30.6927 -0.0330384 0)
(30.7364 -0.032375 0)
(30.7797 -0.0317263 0)
(30.8226 -0.0310915 0)
(30.8651 -0.0304697 0)
(30.9072 -0.0298606 0)
(30.949 -0.029264 0)
(30.9903 -0.0286801 0)
(31.0312 -0.0281089 0)
(31.0718 -0.0275505 0)
(31.1121 -0.0270045 0)
(31.1519 -0.0264709 0)
(31.1915 -0.0259492 0)
(31.2307 -0.0254393 0)
(31.2695 -0.0249407 0)
(31.308 -0.0244533 0)
(31.3462 -0.0239768 0)
(31.3841 -0.0235114 0)
(31.4216 -0.0230565 0)
(31.4589 -0.0226121 0)
(31.4958 -0.0221775 0)
(31.5324 -0.0217526 0)
(31.5687 -0.021337 0)
(31.6048 -0.0209306 0)
(31.6405 -0.020533 0)
(31.676 -0.020144 0)
(31.7111 -0.0197634 0)
(31.746 -0.0193909 0)
(31.7806 -0.0190264 0)
(31.8149 -0.0186696 0)
(31.849 -0.0183205 0)
(31.8828 -0.0179789 0)
(31.9163 -0.0176446 0)
(31.9496 -0.0173175 0)
(31.9826 -0.0169975 0)
(32.0153 -0.0166843 0)
(32.0478 -0.0163781 0)
(32.0801 -0.0160781 0)
(32.1121 -0.0157853 0)
(32.1439 -0.0154977 0)
(32.1754 -0.0152183 0)
(32.2067 -0.0149427 0)
(32.2377 -0.0146777 0)
(32.2686 -0.0144134 0)
(32.2991 -0.014165 0)
(32.3296 -0.0139109 0)
(32.3596 -0.0136834 0)
(32.3897 -0.0134356 0)
(32.4191 -0.0132363 0)
(32.449 -0.0129853 0)
(32.4777 -0.012827 0)
(32.5075 -0.0125509 0)
(32.5351 -0.0124569 0)
(32.5656 -0.0121104 0)
(32.591 -0.0121214 0)
(32.6235 -0.0116109 0)
(32.6447 -0.0117855 0)
(32.6823 -0.0109126 0)
(32.6942 -0.0112691 0)
(32.7432 -0.00956207 0)
(24.6762 -0.0421006 0)
(24.7201 -0.124233 0)
(24.7975 -0.201061 0)
(24.9021 -0.270159 0)
(25.0317 -0.330383 0)
(25.1845 -0.381132 0)
(25.3572 -0.421946 0)
(25.5456 -0.452686 0)
(25.7452 -0.473744 0)
(25.9516 -0.485986 0)
(26.1612 -0.490523 0)
(26.3713 -0.488531 0)
(26.5795 -0.481118 0)
(26.7838 -0.469299 0)
(26.9828 -0.454038 0)
(27.1752 -0.436242 0)
(27.3599 -0.416733 0)
(27.5362 -0.396208 0)
(27.7039 -0.375253 0)
(27.8627 -0.354332 0)
(28.0125 -0.33382 0)
(28.1536 -0.313995 0)
(28.2863 -0.295068 0)
(28.4108 -0.277171 0)
(28.5277 -0.260388 0)
(28.6375 -0.244764 0)
(28.7406 -0.230316 0)
(28.8376 -0.217035 0)
(28.9289 -0.204891 0)
(29.0151 -0.193831 0)
(29.0966 -0.183795 0)
(29.1739 -0.174714 0)
(29.2473 -0.166521 0)
(29.3173 -0.15914 0)
(29.3841 -0.152502 0)
(29.4482 -0.146534 0)
(29.5097 -0.141169 0)
(29.5688 -0.136342 0)
(29.6259 -0.131999 0)
(29.6811 -0.128084 0)
(29.7345 -0.124544 0)
(29.7863 -0.121327 0)
(29.8366 -0.118388 0)
(29.8856 -0.115686 0)
(29.9333 -0.113189 0)
(29.9798 -0.110866 0)
(30.0251 -0.108694 0)
(30.0694 -0.106649 0)
(30.1127 -0.104715 0)
(30.1551 -0.102875 0)
(30.1965 -0.101116 0)
(30.2371 -0.0994261 0)
(30.2769 -0.0977983 0)
(30.3158 -0.0962243 0)
(30.354 -0.0946996 0)
(30.3914 -0.0932188 0)
(30.4281 -0.0917793 0)
(30.4641 -0.0903774 0)
(30.4995 -0.0890118 0)
(30.5341 -0.0876801 0)
(30.5682 -0.0863819 0)
(30.6016 -0.0851151 0)
(30.6344 -0.0838795 0)
(30.6666 -0.0826722 0)
(30.6982 -0.0814921 0)
(30.7292 -0.0803365 0)
(30.7597 -0.0792055 0)
(30.7896 -0.0780977 0)
(30.819 -0.0770139 0)
(30.8478 -0.0759523 0)
(30.8761 -0.0749135 0)
(30.9039 -0.0738957 0)
(30.9312 -0.0728993 0)
(30.9581 -0.0719225 0)
(30.9844 -0.0709661 0)
(31.0102 -0.0700281 0)
(31.0356 -0.0691093 0)
(31.0605 -0.0682074 0)
(31.085 -0.0673232 0)
(31.109 -0.0664547 0)
(31.1326 -0.0656029 0)
(31.1557 -0.0647658 0)
(31.1784 -0.0639444 0)
(31.2007 -0.0631366 0)
(31.2226 -0.0623436 0)
(31.2441 -0.061563 0)
(31.2652 -0.0607962 0)
(31.2859 -0.060041 0)
(31.3063 -0.0592987 0)
(31.3262 -0.058567 0)
(31.3458 -0.0578476 0)
(31.365 -0.0571379 0)
(31.3839 -0.0564399 0)
(31.4024 -0.0557508 0)
(31.4206 -0.0550728 0)
(31.4384 -0.0544027 0)
(31.4559 -0.0537436 0)
(31.4731 -0.0530912 0)
(31.49 -0.0524503 0)
(31.5065 -0.0518149 0)
(31.5227 -0.0511927 0)
(31.5386 -0.0505736 0)
(31.5543 -0.0499712 0)
(31.5696 -0.0493668 0)
(31.5847 -0.0487872 0)
(31.5994 -0.0481947 0)
(31.6139 -0.0476438 0)
(31.6282 -0.047056 0)
(31.642 -0.0465454 0)
(31.6559 -0.0459453 0)
(31.669 -0.0454963 0)
(31.6826 -0.0448462 0)
(31.6949 -0.0444995 0)
(31.7085 -0.0437193 0)
(31.7196 -0.0435503 0)
(31.7337 -0.0424833 0)
(31.7426 -0.0426201 0)
(31.7588 -0.0409594 0)
(31.7634 -0.0415227 0)
(31.784 -0.0385624 0)
(24.6764 -0.06252 0)
(24.7251 -0.182307 0)
(24.8116 -0.292206 0)
(24.9289 -0.39063 0)
(25.0746 -0.477059 0)
(25.2467 -0.550496 0)
(25.4414 -0.609954 0)
(25.6526 -0.655213 0)
(25.8736 -0.686932 0)
(26.0979 -0.706234 0)
(26.3205 -0.714377 0)
(26.5372 -0.712769 0)
(26.7451 -0.702725 0)
(26.942 -0.685533 0)
(27.1263 -0.662546 0)
(27.2972 -0.635128 0)
(27.4541 -0.604549 0)
(27.5971 -0.571944 0)
(27.7266 -0.538296 0)
(27.8431 -0.504445 0)
(27.9475 -0.471079 0)
(28.0405 -0.438752 0)
(28.123 -0.407887 0)
(28.1959 -0.378791 0)
(28.2601 -0.35167 0)
(28.3164 -0.326642 0)
(28.3655 -0.303745 0)
(28.4083 -0.282958 0)
(28.4453 -0.264212 0)
(28.4771 -0.247402 0)
(28.5044 -0.232401 0)
(28.5276 -0.219067 0)
(28.5471 -0.207252 0)
(28.5633 -0.196804 0)
(28.5766 -0.187574 0)
(28.5873 -0.179418 0)
(28.5955 -0.172199 0)
(28.6017 -0.165792 0)
(28.6058 -0.160094 0)
(28.6082 -0.155012 0)
(28.609 -0.150457 0)
(28.6083 -0.146349 0)
(28.6062 -0.142618 0)
(28.6029 -0.139203 0)
(28.5984 -0.136053 0)
(28.5929 -0.133125 0)
(28.5864 -0.130382 0)
(28.5789 -0.127794 0)
(28.5706 -0.125335 0)
(28.5616 -0.122986 0)
(28.5517 -0.120726 0)
(28.5412 -0.118543 0)
(28.5301 -0.116422 0)
(28.5184 -0.114356 0)
(28.5061 -0.112335 0)
(28.4933 -0.110355 0)
(28.4801 -0.108411 0)
(28.4664 -0.106501 0)
(28.4523 -0.104621 0)
(28.4379 -0.10277 0)
(28.4231 -0.100949 0)
(28.408 -0.0991555 0)
(28.3926 -0.0973904 0)
(28.377 -0.0956524 0)
(28.3611 -0.0939401 0)
(28.345 -0.0922514 0)
(28.3288 -0.0905854 0)
(28.3123 -0.0889413 0)
(28.2957 -0.0873189 0)
(28.279 -0.0857181 0)
(28.2621 -0.084139 0)
(28.2451 -0.0825817 0)
(28.2281 -0.0810465 0)
(28.211 -0.0795333 0)
(28.1938 -0.0780428 0)
(28.1765 -0.0765747 0)
(28.1593 -0.0751295 0)
(28.142 -0.073707 0)
(28.1247 -0.0723077 0)
(28.1074 -0.0709315 0)
(28.09 -0.0695789 0)
(28.0728 -0.0682496 0)
(28.0555 -0.066944 0)
(28.0383 -0.0656616 0)
(28.0211 -0.0644029 0)
(28.004 -0.063167 0)
(27.9869 -0.0619548 0)
(27.9699 -0.060765 0)
(27.9529 -0.0595986 0)
(27.9361 -0.0584542 0)
(27.9193 -0.0573327 0)
(27.9026 -0.0562324 0)
(27.886 -0.0551546 0)
(27.8695 -0.0540971 0)
(27.8531 -0.0530617 0)
(27.8368 -0.0520457 0)
(27.8207 -0.0510516 0)
(27.8046 -0.050076 0)
(27.7887 -0.0491227 0)
(27.7729 -0.0481864 0)
(27.7572 -0.0472735 0)
(27.7417 -0.0463757 0)
(27.7262 -0.0455037 0)
(27.711 -0.0446431 0)
(27.6958 -0.0438134 0)
(27.6808 -0.0429875 0)
(27.666 -0.0422033 0)
(27.6513 -0.0414066 0)
(27.6368 -0.040674 0)
(27.6224 -0.0398937 0)
(27.6082 -0.0392247 0)
(27.594 -0.0384322 0)
(27.5803 -0.0378502 0)
(27.5661 -0.0369817 0)
(27.5531 -0.0365335 0)
(27.5386 -0.0354561 0)
(27.5272 -0.0352387 0)
(27.511 -0.0336732 0)
(27.5033 -0.0338371 0)
(27.4822 -0.0311348 0)
(24.6792 -0.0955255 0)
(24.7657 -0.267516 0)
(24.9072 -0.419201 0)
(25.0785 -0.554046 0)
(25.2606 -0.671773 0)
(25.4377 -0.769325 0)
(25.5963 -0.844914 0)
(25.7254 -0.898976 0)
(25.8191 -0.933607 0)
(25.8749 -0.951173 0)
(25.8945 -0.954015 0)
(25.8804 -0.944521 0)
(25.8368 -0.924748 0)
(25.7681 -0.896623 0)
(25.6782 -0.862041 0)
(25.5712 -0.822733 0)
(25.4506 -0.780194 0)
(25.3197 -0.73568 0)
(25.1814 -0.690248 0)
(25.0381 -0.644784 0)
(24.8918 -0.600009 0)
(24.7442 -0.556525 0)
(24.5966 -0.514787 0)
(24.4501 -0.475126 0)
(24.3055 -0.437783 0)
(24.1633 -0.4029 0)
(24.0241 -0.370537 0)
(23.888 -0.340688 0)
(23.7553 -0.313301 0)
(23.626 -0.288283 0)
(23.5002 -0.265516 0)
(23.3779 -0.244867 0)
(23.259 -0.226185 0)
(23.1433 -0.209316 0)
(23.0309 -0.194109 0)
(22.9215 -0.18041 0)
(22.8151 -0.168069 0)
(22.7116 -0.156943 0)
(22.6108 -0.146894 0)
(22.5127 -0.137793 0)
(22.4171 -0.129535 0)
(22.324 -0.122027 0)
(22.2332 -0.11519 0)
(22.1448 -0.108952 0)
(22.0586 -0.103247 0)
(21.9746 -0.0980189 0)
(21.8927 -0.0932156 0)
(21.8128 -0.0887928 0)
(21.735 -0.0847114 0)
(21.6591 -0.0809352 0)
(21.5852 -0.0774355 0)
(21.5131 -0.0741833 0)
(21.4428 -0.0711534 0)
(21.3743 -0.0683245 0)
(21.3076 -0.0656778 0)
(21.2425 -0.0631962 0)
(21.1792 -0.0608646 0)
(21.1174 -0.0586699 0)
(21.0573 -0.0566003 0)
(20.9987 -0.0546452 0)
(20.9416 -0.052795 0)
(20.886 -0.0510412 0)
(20.8319 -0.0493765 0)
(20.7791 -0.0477953 0)
(20.7277 -0.0462937 0)
(20.6776 -0.0448678 0)
(20.6289 -0.0435128 0)
(20.5814 -0.0422232 0)
(20.5351 -0.0409938 0)
(20.49 -0.0398203 0)
(20.446 -0.0386989 0)
(20.4032 -0.0376262 0)
(20.3615 -0.0365993 0)
(20.3208 -0.0356155 0)
(20.2812 -0.0346723 0)
(20.2425 -0.0337672 0)
(20.2048 -0.0328982 0)
(20.1681 -0.0320632 0)
(20.1323 -0.0312605 0)
(20.0973 -0.0304884 0)
(20.0632 -0.0297453 0)
(20.03 -0.0290296 0)
(19.9975 -0.0283399 0)
(19.9659 -0.0276748 0)
(19.9349 -0.0270333 0)
(19.9048 -0.0264141 0)
(19.8753 -0.0258164 0)
(19.8466 -0.0252391 0)
(19.8185 -0.0246815 0)
(19.791 -0.0241425 0)
(19.7642 -0.0236216 0)
(19.738 -0.0231178 0)
(19.7125 -0.0226307 0)
(19.6875 -0.0221593 0)
(19.663 -0.0217034 0)
(19.6391 -0.0212621 0)
(19.6158 -0.0208355 0)
(19.593 -0.0204226 0)
(19.5706 -0.0200237 0)
(19.5488 -0.0196378 0)
(19.5275 -0.0192653 0)
(19.5066 -0.0189052 0)
(19.4861 -0.0185582 0)
(19.4661 -0.0182233 0)
(19.4466 -0.0179013 0)
(19.4274 -0.0175912 0)
(19.4086 -0.0172932 0)
(19.3903 -0.0170075 0)
(19.3723 -0.0167313 0)
(19.3546 -0.0164692 0)
(19.3374 -0.0162084 0)
(19.3203 -0.0159682 0)
(19.304 -0.0157083 0)
(19.2872 -0.0154861 0)
(19.2721 -0.0151959 0)
(19.2551 -0.0149754 0)
(19.2421 -0.0145991 0)
(19.2235 -0.0143275 0)
(19.215 -0.0138455 0)
(19.1911 -0.0134693 0)
(24.6361 -0.066776 0)
(24.4438 -0.259191 0)
(24.0524 -0.439427 0)
(23.4822 -0.584761 0)
(22.7802 -0.690016 0)
(21.9902 -0.753923 0)
(21.1472 -0.779705 0)
(20.2771 -0.773187 0)
(19.4029 -0.742353 0)
(18.5402 -0.693337 0)
(17.7066 -0.632966 0)
(16.9079 -0.567315 0)
(16.152 -0.498667 0)
(15.4441 -0.430309 0)
(14.7859 -0.364835 0)
(14.1779 -0.303793 0)
(13.6196 -0.248083 0)
(13.1099 -0.198136 0)