/*--------------------------------*- C++ -*----------------------------------*\
  =========                 |
  \\      /  F ield         | OpenFOAM: The Open Source CFD Toolbox
   \\    /   O peration     | Website:  https://openfoam.org
    \\  /    A nd           | Version:  7
     \\/     M anipulation  |
\*---------------------------------------------------------------------------*/
FoamFile
{
    version     2.0;
    format      ascii;
    class       volSymmTensorField;
    location    "0.745";
    object      UPrime2Mean;
}
// * * * * * * * * * * * * * * * * * * * * * * * * * * * * * * * * * * * * * //

dimensions      [0 2 -2 0 0 0 0];

internalField   nonuniform List<symmTensor> 
1440
(
(0.00627828 6.16845e-05 0 8.60857e-07 0 0)
(0.0013397 4.27685e-05 0 1.7914e-05 0 0)
(0.00326751 -9.54295e-05 0 6.79466e-05 0 0)
(0.00501161 -0.000167342 0 0.000154696 0 0)
(0.00686015 -0.000289585 0 0.000270147 0 0)
(0.00948749 -0.000616776 0 0.000393374 0 0)
(0.01326 -0.00117814 0 0.000498856 0 0)
(0.0184454 -0.00188503 0 0.000566165 0 0)
(0.0252427 -0.00261449 0 0.000591306 0 0)
(0.0337589 -0.00328027 0 0.000579292 0 0)
(0.0439705 -0.00383525 0 0.000541261 0 0)
(0.055927 -0.00426474 0 0.00049015 0 0)
(0.0694862 -0.00453432 0 0.000430852 0 0)
(0.084329 -0.00463314 0 0.000369258 0 0)
(0.100103 -0.0045702 0 0.000309526 0 0)
(0.116479 -0.00436788 0 0.000254076 0 0)
(0.13317 -0.00406034 0 0.000204413 0 0)
(0.149924 -0.00368404 0 0.000161211 0 0)
(0.166532 -0.00326942 0 0.000124556 0 0)
(0.182821 -0.00283841 0 9.41903e-05 0 0)
(0.198672 -0.00240582 0 6.9629e-05 0 0)
(0.214003 -0.00198079 0 5.02942e-05 0 0)
(0.228762 -0.00156771 0 3.5574e-05 0 0)
(0.242916 -0.0011681 0 2.4845e-05 0 0)
(0.25644 -0.000782933 0 1.74634e-05 0 0)
(0.269324 -0.000414198 0 1.2799e-05 0 0)
(0.28156 -6.51017e-05 0 1.0256e-05 0 0)
(0.293152 0.000260705 0 9.29487e-06 0 0)
(0.304112 0.000559735 0 9.45758e-06 0 0)
(0.314458 0.000828856 0 1.03824e-05 0 0)
(0.324216 0.00106625 0 1.17904e-05 0 0)
(0.333421 0.00127114 0 1.34657e-05 0 0)
(0.342109 0.00144375 0 1.52413e-05 0 0)
(0.350324 0.0015855 0 1.69909e-05 0 0)
(0.358107 0.00169877 0 1.86231e-05 0 0)
(0.365503 0.00178684 0 2.00772e-05 0 0)
(0.372552 0.00185318 0 2.13162e-05 0 0)
(0.379293 0.00190114 0 2.23209e-05 0 0)
(0.385763 0.0019338 0 2.30875e-05 0 0)
(0.391995 0.00195382 0 2.36241e-05 0 0)
(0.398017 0.00196342 0 2.39475e-05 0 0)
(0.403857 0.00196437 0 2.40796e-05 0 0)
(0.409538 0.00195805 0 2.40436e-05 0 0)
(0.415082 0.00194569 0 2.38633e-05 0 0)
(0.420506 0.00192808 0 2.35596e-05 0 0)
(0.42583 0.00190596 0 2.31505e-05 0 0)
(0.431067 0.00188002 0 2.26521e-05 0 0)
(0.436232 0.00185091 0 2.20813e-05 0 0)
(0.441335 0.00181934 0 2.14565e-05 0 0)
(0.446388 0.00178598 0 2.07947e-05 0 0)
(0.451399 0.00175144 0 2.01103e-05 0 0)
(0.456376 0.00171616 0 1.94146e-05 0 0)
(0.461324 0.00168057 0 1.87168e-05 0 0)
(0.46625 0.00164497 0 1.80235e-05 0 0)
(0.471157 0.00160971 0 1.73408e-05 0 0)
(0.476048 0.00157497 0 1.66734e-05 0 0)
(0.480927 0.00154099 0 1.60244e-05 0 0)
(0.485796 0.00150799 0 1.53972e-05 0 0)
(0.490656 0.00147593 0 1.47934e-05 0 0)
(0.495511 0.00144502 0 1.42149e-05 0 0)
(0.500359 0.0014153 0 1.36629e-05 0 0)
(0.505204 0.00138678 0 1.31379e-05 0 0)
(0.510045 0.00135949 0 1.26403e-05 0 0)
(0.514883 0.0013334 0 1.21699e-05 0 0)
(0.519718 0.0013085 0 1.17261e-05 0 0)
(0.524552 0.00128475 0 1.13081e-05 0 0)
(0.529384 0.00126213 0 1.09149e-05 0 0)
(0.534214 0.00124056 0 1.05451e-05 0 0)
(0.539042 0.00122006 0 1.01976e-05 0 0)
(0.543869 0.00120052 0 9.87122e-06 0 0)
(0.548694 0.00118199 0 9.56461e-06 0 0)
(0.553516 0.00116441 0 9.27653e-06 0 0)
(0.558336 0.00114777 0 9.00577e-06 0 0)
(0.563154 0.00113213 0 8.75156e-06 0 0)
(0.567968 0.00111732 0 8.51252e-06 0 0)
(0.57278 0.00110343 0 8.28791e-06 0 0)
(0.577588 0.00109045 0 8.07689e-06 0 0)
(0.582391 0.00107835 0 7.87877e-06 0 0)
(0.587191 0.00106709 0 7.69278e-06 0 0)
(0.591986 0.00105666 0 7.5184e-06 0 0)
(0.596776 0.00104701 0 7.35477e-06 0 0)
(0.601561 0.00103812 0 7.20139e-06 0 0)
(0.60634 0.00102991 0 7.05744e-06 0 0)
(0.611114 0.00102241 0 6.92261e-06 0 0)
(0.61588 0.00101552 0 6.79636e-06 0 0)
(0.620641 0.00100928 0 6.67828e-06 0 0)
(0.625394 0.00100359 0 6.56777e-06 0 0)
(0.630141 0.000998452 0 6.4642e-06 0 0)
(0.634879 0.00099388 0 6.367e-06 0 0)
(0.63961 0.000989707 0 6.27561e-06 0 0)
(0.644333 0.000985973 0 6.18967e-06 0 0)
(0.649048 0.00098271 0 6.10909e-06 0 0)
(0.653753 0.000979895 0 6.0336e-06 0 0)
(0.65845 0.0009775 0 5.96295e-06 0 0)
(0.663139 0.000975478 0 5.89659e-06 0 0)
(0.667818 0.000973789 0 5.83388e-06 0 0)
(0.672489 0.000972408 0 5.7744e-06 0 0)
(0.677152 0.000971314 0 5.71767e-06 0 0)
(0.681805 0.000970512 0 5.66419e-06 0 0)
(0.686451 0.000969986 0 5.61337e-06 0 0)
(0.691089 0.000969773 0 5.56656e-06 0 0)
(0.695721 0.000969835 0 5.52162e-06 0 0)
(0.700345 0.000970213 0 5.48155e-06 0 0)
(0.704965 0.000970743 0 5.44011e-06 0 0)
(0.709577 0.000971567 0 5.40592e-06 0 0)
(0.714185 0.000972221 0 5.36318e-06 0 0)
(0.71878 0.000973492 0 5.33599e-06 0 0)
(0.72337 0.000973769 0 5.28703e-06 0 0)
(0.727938 0.000976048 0 5.27392e-06 0 0)
(0.732501 0.000975264 0 5.21395e-06 0 0)
(0.737029 0.000980038 0 5.23071e-06 0 0)
(0.741555 0.00097701 0 5.14973e-06 0 0)
(0.746016 0.00098701 0 5.22319e-06 0 0)
(0.750507 0.000979157 0 5.10052e-06 0 0)
(0.754833 0.000999235 0 5.2636e-06 0 0)
(0.759347 0.000981982 0 5.07982e-06 0 0)
(0.763328 0.00102007 0 5.34362e-06 0 0)
(0.768109 0.000993612 0 5.11212e-06 0 0)
(0.771059 0.00105318 0 5.39218e-06 0 0)
(0.777141 0.00106974 0 5.33683e-06 0 0)
(0.00634931 8.69127e-05 0 1.78847e-06 0 0)
(0.00144654 6.54581e-05 0 2.03515e-05 0 0)
(0.00317626 8.77172e-06 0 6.40542e-05 0 0)
(0.00518298 0.000137522 0 0.000137106 0 0)
(0.0075998 0.00038911 0 0.000243584 0 0)
(0.0102428 0.000645721 0 0.000383156 0 0)
(0.0128384 0.000836594 0 0.000545828 0 0)
(0.0154232 0.000945777 0 0.000713391 0 0)
(0.0181303 0.000994787 0 0.000869996 0 0)
(0.0208754 0.000998806 0 0.00100788 0 0)
(0.0235052 0.000950985 0 0.00112449 0 0)
(0.026028 0.000843316 0 0.00121863 0 0)
(0.0285479 0.000687002 0 0.00128825 0 0)
(0.0311223 0.000503917 0 0.00133131 0 0)
(0.0337639 0.000315197 0 0.00134738 0 0)
(0.0364913 0.000136021 0 0.00133859 0 0)
(0.0393332 -2.81116e-05 0 0.00130885 0 0)
(0.0423145 -0.000179782 0 0.00126231 0 0)
(0.0454481 -0.000324329 0 0.0012028 0 0)
(0.0487366 -0.000467302 0 0.00113354 0 0)
(0.0521789 -0.000613565 0 0.00105729 0 0)
(0.0557772 -0.000766588 0 0.000976722 0 0)
(0.0595387 -0.000926326 0 0.000894144 0 0)
(0.0634733 -0.0010888 0 0.000811814 0 0)
(0.0675916 -0.00124738 0 0.00073174 0 0)
(0.0719033 -0.00139478 0 0.000655471 0 0)
(0.0764158 -0.00152458 0 0.000584096 0 0)
(0.0811334 -0.00163192 0 0.000518284 0 0)
(0.0860558 -0.00171392 0 0.000458374 0 0)
(0.0911782 -0.00176996 0 0.000404434 0 0)
(0.0964926 -0.0018015 0 0.000356297 0 0)
(0.101988 -0.00181138 0 0.000313622 0 0)
(0.107652 -0.00180324 0 0.00027597 0 0)
(0.113471 -0.00178093 0 0.000242856 0 0)
(0.119434 -0.0017481 0 0.000213796 0 0)
(0.125529 -0.00170796 0 0.000188327 0 0)
(0.131747 -0.00166307 0 0.000166024 0 0)
(0.138077 -0.00161535 0 0.000146504 0 0)
(0.144514 -0.00156613 0 0.000129432 0 0)
(0.15105 -0.00151626 0 0.000114512 0 0)
(0.157681 -0.0014663 0 0.000101481 0 0)
(0.164401 -0.00141661 0 9.01071e-05 0 0)
(0.171206 -0.00136746 0 8.01834e-05 0 0)
(0.178092 -0.00131902 0 7.15246e-05 0 0)
(0.185056 -0.00127139 0 6.39667e-05 0 0)
(0.192094 -0.00122464 0 5.73651e-05 0 0)
(0.199202 -0.00117882 0 5.15977e-05 0 0)
(0.206377 -0.00113392 0 4.65571e-05 0 0)
(0.213615 -0.00108989 0 4.21472e-05 0 0)
(0.220912 -0.00104662 0 3.82831e-05 0 0)
(0.228265 -0.00100396 0 3.48909e-05 0 0)
(0.23567 -0.000961802 0 3.19062e-05 0 0)
(0.243121 -0.000920018 0 2.92734e-05 0 0)
(0.250615 -0.000878526 0 2.69444e-05 0 0)
(0.258148 -0.000837271 0 2.48776e-05 0 0)
(0.265715 -0.000796224 0 2.3037e-05 0 0)
(0.273313 -0.000755371 0 2.13916e-05 0 0)
(0.280938 -0.000714698 0 1.99145e-05 0 0)
(0.288587 -0.000674228 0 1.85834e-05 0 0)
(0.296256 -0.000633984 0 1.73797e-05 0 0)
(0.303944 -0.000593981 0 1.62875e-05 0 0)
(0.311647 -0.000554213 0 1.52935e-05 0 0)
(0.319364 -0.000514661 0 1.43861e-05 0 0)
(0.327092 -0.000475279 0 1.35555e-05 0 0)
(0.33483 -0.000436012 0 1.27936e-05 0 0)
(0.342575 -0.000396794 0 1.20934e-05 0 0)
(0.350326 -0.00035757 0 1.14492e-05 0 0)
(0.358082 -0.000318288 0 1.08561e-05 0 0)
(0.36584 -0.000278918 0 1.03101e-05 0 0)
(0.373598 -0.00023944 0 9.80777e-06 0 0)
(0.381356 -0.000199865 0 9.34603e-06 0 0)
(0.389112 -0.000160209 0 8.92233e-06 0 0)
(0.396863 -0.000120519 0 8.53445e-06 0 0)
(0.404609 -8.08361e-05 0 8.18024e-06 0 0)
(0.412347 -4.12269e-05 0 7.85781e-06 0 0)
(0.420078 -1.74753e-06 0 7.56526e-06 0 0)
(0.427798 3.75493e-05 0 7.30079e-06 0 0)
(0.435508 7.66282e-05 0 7.06259e-06 0 0)
(0.443206 0.00011544 0 6.84901e-06 0 0)
(0.450891 0.000153954 0 6.65839e-06 0 0)
(0.458563 0.000192126 0 6.48921e-06 0 0)
(0.46622 0.000229932 0 6.33991e-06 0 0)
(0.473863 0.000267337 0 6.20908e-06 0 0)
(0.481489 0.000304334 0 6.09528e-06 0 0)
(0.489099 0.000340905 0 5.99724e-06 0 0)
(0.496692 0.000377048 0 5.91369e-06 0 0)
(0.504268 0.000412749 0 5.84351e-06 0 0)
(0.511825 0.000447992 0 5.7856e-06 0 0)
(0.519365 0.000482768 0 5.73892e-06 0 0)
(0.526885 0.000517064 0 5.70248e-06 0 0)
(0.534387 0.00055088 0 5.67539e-06 0 0)
(0.541869 0.000584228 0 5.6568e-06 0 0)
(0.549331 0.000617138 0 5.64601e-06 0 0)
(0.556773 0.0006496 0 5.64235e-06 0 0)
(0.564195 0.000681625 0 5.64523e-06 0 0)
(0.571597 0.000713156 0 5.65399e-06 0 0)
(0.578979 0.000744217 0 5.66808e-06 0 0)
(0.586341 0.000774745 0 5.68684e-06 0 0)
(0.593683 0.00080483 0 5.71011e-06 0 0)
(0.601006 0.000834388 0 5.73722e-06 0 0)
(0.60831 0.000863595 0 5.76873e-06 0 0)
(0.615595 0.000892229 0 5.8032e-06 0 0)
(0.622863 0.00092063 0 5.84234e-06 0 0)
(0.630112 0.000948226 0 5.88272e-06 0 0)
(0.637343 0.000975798 0 5.92843e-06 0 0)
(0.644557 0.00100208 0 5.97223e-06 0 0)
(0.651746 0.00102895 0 6.02378e-06 0 0)
(0.658924 0.00105361 0 6.06899e-06 0 0)
(0.666057 0.00108045 0 6.12801e-06 0 0)
(0.673198 0.00110319 0 6.17546e-06 0 0)
(0.680245 0.00113157 0 6.2462e-06 0 0)
(0.687363 0.00115201 0 6.30116e-06 0 0)
(0.694253 0.00118441 0 6.38874e-06 0 0)
(0.70141 0.00120259 0 6.46456e-06 0 0)
(0.70798 0.00124229 0 6.57051e-06 0 0)
(0.715367 0.00126176 0 6.70467e-06 0 0)
(0.721219 0.00131177 0 6.82275e-06 0 0)
(0.729364 0.0013526 0 7.13778e-06 0 0)
(0.733493 0.00140389 0 7.22516e-06 0 0)
(0.744307 0.00153196 0 8.17353e-06 0 0)
(0.00634666 5.26308e-05 0 7.01503e-07 0 0)
(0.0014328 4.00604e-05 0 8.25825e-06 0 0)
(0.0031718 -1.90395e-06 0 2.71758e-05 0 0)
(0.00510434 7.17074e-05 0 6.03214e-05 0 0)
(0.00738417 0.000224169 0 0.000109775 0 0)
(0.009914 0.00038438 0 0.000176125 0 0)
(0.0124714 0.000519667 0 0.000256396 0 0)
(0.0151354 0.000637407 0 0.0003439 0 0)
(0.0180831 0.000760425 0 0.000431021 0 0)
(0.0212467 0.000899025 0 0.000511945 0 0)
(0.0244575 0.00104591 0 0.000582726 0 0)
(0.0276989 0.00119286 0 0.000640691 0 0)
(0.0310451 0.0013396 0 0.000683494 0 0)
(0.0345198 0.00149016 0 0.000709863 0 0)
(0.0381033 0.00164776 0 0.000720552 0 0)
(0.0417841 0.0018108 0 0.000717693 0 0)
(0.0455644 0.00197114 0 0.000703843 0 0)
(0.0494453 0.00211659 0 0.000681333 0 0)
(0.0534186 0.00223602 0 0.000652196 0 0)
(0.0574639 0.0023217 0 0.000618186 0 0)
(0.061553 0.00236936 0 0.000580819 0 0)
(0.0656586 0.00237801 0 0.000541446 0 0)
(0.0697578 0.00235052 0 0.000501296 0 0)
(0.0738324 0.0022933 0 0.000461482 0 0)
(0.0778675 0.00221488 0 0.00042299 0 0)
(0.0818529 0.00212378 0 0.000386569 0 0)
(0.0857854 0.00202746 0 0.000352721 0 0)
(0.0896667 0.00193186 0 0.000321768 0 0)
(0.0935012 0.00184113 0 0.000293834 0 0)
(0.0972946 0.00175766 0 0.000268876 0 0)
(0.101053 0.0016823 0 0.00024675 0 0)
(0.104783 0.00161481 0 0.000227232 0 0)
(0.108489 0.00155435 0 0.000210063 0 0)
(0.112179 0.00149983 0 0.000194985 0 0)
(0.115855 0.00145019 0 0.00018176 0 0)
(0.119523 0.00140449 0 0.000170169 0 0)
(0.123185 0.001362 0 0.000160015 0 0)
(0.126845 0.0013222 0 0.000151126 0 0)
(0.130506 0.00128469 0 0.000143349 0 0)
(0.134173 0.00124912 0 0.000136547 0 0)
(0.137847 0.00121515 0 0.0001306 0 0)
(0.141532 0.00118239 0 0.000125396 0 0)
(0.14523 0.00115046 0 0.000120838 0 0)
(0.148944 0.00111902 0 0.000116836 0 0)
(0.152676 0.00108775 0 0.000113307 0 0)
(0.156429 0.00105641 0 0.000110176 0 0)
(0.160204 0.00102484 0 0.000107366 0 0)
(0.164003 0.000993018 0 0.000104814 0 0)
(0.167827 0.000961027 0 0.000102471 0 0)
(0.171677 0.000929059 0 0.0001003 0 0)
(0.175554 0.000897356 0 9.82716e-05 0 0)
(0.179458 0.000866169 0 9.63631e-05 0 0)
(0.183391 0.000835715 0 9.45546e-05 0 0)
(0.187352 0.00080616 0 9.28292e-05 0 0)
(0.191342 0.00077759 0 9.11723e-05 0 0)
(0.195361 0.000750027 0 8.95704e-05 0 0)
(0.199409 0.000723415 0 8.80107e-05 0 0)
(0.203487 0.00069765 0 8.64791e-05 0 0)
(0.207594 0.000672582 0 8.49638e-05 0 0)
(0.211731 0.00064806 0 8.34546e-05 0 0)
(0.215898 0.000623934 0 8.19438e-05 0 0)
(0.220095 0.000600081 0 8.04249e-05 0 0)
(0.224323 0.000576395 0 7.88937e-05 0 0)
(0.228581 0.00055282 0 7.73468e-05 0 0)
(0.232872 0.000529329 0 7.57829e-05 0 0)
(0.237194 0.000505943 0 7.42019e-05 0 0)
(0.241549 0.000482698 0 7.26053e-05 0 0)
(0.245936 0.000459667 0 7.09951e-05 0 0)
(0.250358 0.000436923 0 6.93741e-05 0 0)
(0.254813 0.00041456 0 6.77453e-05 0 0)
(0.259303 0.00039266 0 6.61123e-05 0 0)
(0.263827 0.000371317 0 6.4479e-05 0 0)
(0.268386 0.000350597 0 6.28499e-05 0 0)
(0.272981 0.000330578 0 6.12289e-05 0 0)
(0.27761 0.000311302 0 5.96202e-05 0 0)
(0.282274 0.000292813 0 5.80275e-05 0 0)
(0.286973 0.000275127 0 5.64543e-05 0 0)
(0.291706 0.000258271 0 5.49032e-05 0 0)
(0.296473 0.000242232 0 5.3377e-05 0 0)
(0.301274 0.000227014 0 5.18775e-05 0 0)
(0.306108 0.000212585 0 5.04067e-05 0 0)
(0.310976 0.000198937 0 4.89655e-05 0 0)
(0.315875 0.000186033 0 4.75551e-05 0 0)
(0.320806 0.00017386 0 4.61756e-05 0 0)
(0.325769 0.000162374 0 4.48274e-05 0 0)
(0.330763 0.000151562 0 4.351e-05 0 0)
(0.335786 0.000141384 0 4.22238e-05 0 0)
(0.34084 0.000131835 0 4.09679e-05 0 0)
(0.345922 0.000122885 0 3.97428e-05 0 0)
(0.351033 0.000114535 0 3.85473e-05 0 0)
(0.356172 0.00010676 0 3.73817e-05 0 0)
(0.361338 9.95726e-05 0 3.62443e-05 0 0)
(0.366532 9.29567e-05 0 3.51358e-05 0 0)
(0.371751 8.69314e-05 0 3.40544e-05 0 0)
(0.376997 8.14707e-05 0 3.30014e-05 0 0)
(0.382269 7.65997e-05 0 3.19752e-05 0 0)
(0.387567 7.22816e-05 0 3.09772e-05 0 0)
(0.392889 6.85572e-05 0 3.00052e-05 0 0)
(0.398237 6.53698e-05 0 2.90604e-05 0 0)
(0.40361 6.27774e-05 0 2.814e-05 0 0)
(0.409009 6.06932e-05 0 2.72457e-05 0 0)
(0.414433 5.91961e-05 0 2.63747e-05 0 0)
(0.419882 5.8165e-05 0 2.55298e-05 0 0)
(0.425355 5.77007e-05 0 2.47078e-05 0 0)
(0.430854 5.7654e-05 0 2.39132e-05 0 0)
(0.436373 5.81392e-05 0 2.31388e-05 0 0)
(0.441916 5.90475e-05 0 2.23943e-05 0 0)
(0.447477 6.03976e-05 0 2.16613e-05 0 0)
(0.453053 6.23706e-05 0 2.09653e-05 0 0)
(0.458646 6.45361e-05 0 2.02605e-05 0 0)
(0.46423 6.79068e-05 0 1.9615e-05 0 0)
(0.469857 7.10646e-05 0 1.89166e-05 0 0)
(0.475397 7.64467e-05 0 1.83352e-05 0 0)
(0.481085 8.16814e-05 0 1.7609e-05 0 0)
(0.486466 9.00642e-05 0 1.71274e-05 0 0)
(0.49234 0.000101712 0 1.63188e-05 0 0)
(0.497287 0.000114268 0 1.60108e-05 0 0)
(0.503714 0.00014681 0 1.50437e-05 0 0)
(0.507537 0.000160634 0 1.5018e-05 0 0)
(0.51622 0.000249375 0 1.38366e-05 0 0)
(0.00634686 3.69384e-05 0 3.60423e-07 0 0)
(0.00143309 2.84691e-05 0 4.20395e-06 0 0)
(0.00316978 -1.83626e-06 0 1.3854e-05 0 0)
(0.00508641 4.9367e-05 0 3.07624e-05 0 0)
(0.00733494 0.00015391 0 5.5468e-05 0 0)
(0.00981422 0.000259235 0 8.75871e-05 0 0)
(0.012297 0.000345317 0 0.000125564 0 0)
(0.0148698 0.000419801 0 0.000166532 0 0)
(0.0177229 0.000496665 0 0.000207044 0 0)
(0.0207963 0.000582245 0 0.000244273 0 0)
(0.0239259 0.000674455 0 0.000276514 0 0)
(0.0271021 0.000770445 0 0.000302944 0 0)
(0.0304078 0.000871006 0 0.00032326 0 0)
(0.0338752 0.000979271 0 0.000337569 0 0)
(0.0374917 0.00109791 0 0.00034644 0 0)
(0.0412516 0.00122692 0 0.000350684 0 0)
(0.0451644 0.0013628 0 0.000351145 0 0)
(0.0492426 0.00149968 0 0.000348488 0 0)
(0.0534904 0.00163147 0 0.000343175 0 0)
(0.0578965 0.00175284 0 0.000335543 0 0)
(0.0624366 0.00185936 0 0.000325941 0 0)
(0.0670832 0.00194759 0 0.000314741 0 0)
(0.0718115 0.00201573 0 0.000302322 0 0)
(0.0765982 0.00206404 0 0.000289041 0 0)
(0.0814218 0.00209465 0 0.000275245 0 0)
(0.0862642 0.00211077 0 0.000261277 0 0)
(0.0911138 0.00211597 0 0.000247461 0 0)
(0.0959646 0.00211355 0 0.000234057 0 0)
(0.100815 0.00210636 0 0.000221257 0 0)
(0.105665 0.00209661 0 0.000209169 0 0)
(0.110517 0.00208595 0 0.000197853 0 0)
(0.115374 0.00207544 0 0.000187326 0 0)
(0.120239 0.00206564 0 0.00017759 0 0)
(0.125114 0.00205671 0 0.000168624 0 0)
(0.130001 0.00204862 0 0.000160404 0 0)
(0.134902 0.00204121 0 0.000152887 0 0)
(0.139818 0.00203427 0 0.000146032 0 0)
(0.14475 0.00202759 0 0.000139788 0 0)
(0.149697 0.00202094 0 0.000134105 0 0)
(0.154661 0.00201409 0 0.000128931 0 0)
(0.159641 0.00200691 0 0.000124218 0 0)
(0.164638 0.00199926 0 0.000119918 0 0)
(0.169651 0.00199114 0 0.000115991 0 0)
(0.174682 0.00198257 0 0.000112397 0 0)
(0.179728 0.00197368 0 0.000109105 0 0)
(0.184791 0.0019646 0 0.000106079 0 0)
(0.189868 0.00195546 0 0.000103285 0 0)
(0.194961 0.00194643 0 0.00010069 0 0)
(0.200068 0.00193773 0 9.82741e-05 0 0)
(0.205188 0.00192959 0 9.60198e-05 0 0)
(0.210323 0.00192227 0 9.39168e-05 0 0)
(0.21547 0.00191591 0 9.19522e-05 0 0)
(0.22063 0.00191065 0 9.0118e-05 0 0)
(0.225802 0.0019065 0 8.84026e-05 0 0)
(0.230986 0.00190346 0 8.67986e-05 0 0)
(0.236182 0.00190139 0 8.52951e-05 0 0)
(0.241389 0.00190018 0 8.38865e-05 0 0)
(0.246607 0.00189963 0 8.25648e-05 0 0)
(0.251835 0.00189956 0 8.13242e-05 0 0)
(0.257072 0.00189972 0 8.01532e-05 0 0)
(0.262319 0.0018999 0 7.9043e-05 0 0)
(0.267574 0.00189986 0 7.79815e-05 0 0)
(0.272837 0.00189946 0 7.69613e-05 0 0)
(0.278106 0.00189854 0 7.59724e-05 0 0)
(0.283381 0.00189704 0 7.50102e-05 0 0)
(0.28866 0.00189488 0 7.40675e-05 0 0)
(0.293944 0.00189211 0 7.31427e-05 0 0)
(0.299231 0.0018887 0 7.22313e-05 0 0)
(0.304521 0.00188476 0 7.13335e-05 0 0)
(0.309812 0.0018803 0 7.04462e-05 0 0)
(0.315104 0.00187542 0 6.95707e-05 0 0)
(0.320397 0.00187017 0 6.87043e-05 0 0)
(0.32569 0.00186462 0 6.78491e-05 0 0)
(0.330982 0.00185882 0 6.70028e-05 0 0)
(0.336273 0.00185285 0 6.6168e-05 0 0)
(0.341562 0.00184671 0 6.53423e-05 0 0)
(0.346849 0.00184049 0 6.45285e-05 0 0)
(0.352132 0.00183417 0 6.37242e-05 0 0)
(0.357413 0.00182781 0 6.2932e-05 0 0)
(0.36269 0.00182137 0 6.21494e-05 0 0)
(0.367963 0.00181492 0 6.13791e-05 0 0)
(0.37323 0.00180838 0 6.06181e-05 0 0)
(0.378493 0.00180181 0 5.98692e-05 0 0)
(0.383749 0.00179514 0 5.91288e-05 0 0)
(0.389 0.0017884 0 5.83995e-05 0 0)
(0.394243 0.00178151 0 5.76776e-05 0 0)
(0.39948 0.0017745 0 5.69657e-05 0 0)
(0.404708 0.0017673 0 5.62598e-05 0 0)
(0.409929 0.00175995 0 5.5563e-05 0 0)
(0.41514 0.00175237 0 5.48708e-05 0 0)
(0.420343 0.00174461 0 5.41868e-05 0 0)
(0.425536 0.0017366 0 5.35056e-05 0 0)
(0.43072 0.00172839 0 5.28314e-05 0 0)
(0.435894 0.00171991 0 5.21587e-05 0 0)
(0.441058 0.00171126 0 5.14927e-05 0 0)
(0.446211 0.00170233 0 5.08276e-05 0 0)
(0.451355 0.00169325 0 5.01696e-05 0 0)
(0.456488 0.00168391 0 4.95112e-05 0 0)
(0.461613 0.00167446 0 4.88606e-05 0 0)
(0.466728 0.00166471 0 4.8207e-05 0 0)
(0.471836 0.00165492 0 4.75629e-05 0 0)
(0.476934 0.00164476 0 4.69116e-05 0 0)
(0.482028 0.00163469 0 4.62758e-05 0 0)
(0.48711 0.00162411 0 4.56247e-05 0 0)
(0.49219 0.00161391 0 4.50028e-05 0 0)
(0.497255 0.00160282 0 4.43468e-05 0 0)
(0.502321 0.0015927 0 4.37474e-05 0 0)
(0.507363 0.00158082 0 4.30704e-05 0 0)
(0.512409 0.00157116 0 4.25073e-05 0 0)
(0.51742 0.00155783 0 4.17741e-05 0 0)
(0.522432 0.00154944 0 4.12785e-05 0 0)
(0.527403 0.00153356 0 4.04241e-05 0 0)
(0.532346 0.0015282 0 4.00667e-05 0 0)
(0.537287 0.00150823 0 3.8976e-05 0 0)
(0.542084 0.00150951 0 3.88957e-05 0 0)
(0.54707 0.00148375 0 3.73704e-05 0 0)
(0.551536 0.00149752 0 3.77906e-05 0 0)
(0.55682 0.00146418 0 3.54926e-05 0 0)
(0.560472 0.00149271 0 3.65628e-05 0 0)
(0.567613 0.00144489 0 3.28094e-05 0 0)
(0.00634693 2.1829e-05 0 1.28887e-07 0 0)
(0.00143309 1.68667e-05 0 1.49005e-06 0 0)
(0.00316863 -1.27533e-06 0 4.86801e-06 0 0)
(0.00507554 2.82603e-05 0 1.07195e-05 0 0)
(0.00730748 8.82215e-05 0 1.91542e-05 0 0)
(0.00976497 0.000147864 0 2.99752e-05 0 0)
(0.0122173 0.00019659 0 4.26914e-05 0 0)
(0.0147518 0.000239429 0 5.64657e-05 0 0)
(0.0175653 0.000283928 0 7.02553e-05 0 0)
(0.0206012 0.000333036 0 8.3145e-05 0 0)
(0.0236946 0.000385435 0 9.45669e-05 0 0)
(0.026835 0.000439737 0 0.000104268 0 0)
(0.0301048 0.000496697 0 0.000112168 0 0)
(0.0335349 0.000558308 0 0.000118231 0 0)
(0.0371087 0.000626283 0 0.00012245 0 0)
(0.0408157 0.000700947 0 0.000124881 0 0)
(0.0446606 0.000780428 0 0.000125644 0 0)
(0.0486529 0.000860794 0 0.000124883 0 0)
(0.0527969 0.000937182 0 0.000122714 0 0)
(0.0570836 0.0010051 0 0.000119258 0 0)
(0.061493 0.00106107 0 0.000114679 0 0)
(0.0660035 0.00110281 0 0.000109191 0 0)
(0.0705975 0.00112959 0 0.000103052 0 0)
(0.0752593 0.00114235 0 9.65393e-05 0 0)
(0.0799734 0.00114333 0 8.99048e-05 0 0)
(0.084726 0.00113544 0 8.33698e-05 0 0)
(0.0895073 0.0011216 0 7.71033e-05 0 0)
(0.0943121 0.00110433 0 7.1205e-05 0 0)
(0.0991381 0.00108572 0 6.57239e-05 0 0)
(0.103985 0.0010674 0 6.0681e-05 0 0)
(0.108852 0.00105046 0 5.60837e-05 0 0)
(0.113743 0.00103544 0 5.19236e-05 0 0)
(0.118657 0.00102246 0 4.81781e-05 0 0)
(0.123598 0.00101135 0 4.48157e-05 0 0)
(0.128565 0.0010018 0 4.1803e-05 0 0)
(0.133561 0.000993422 0 3.91077e-05 0 0)
(0.138586 0.000985871 0 3.66994e-05 0 0)
(0.143641 0.000978852 0 3.45494e-05 0 0)
(0.148726 0.000972165 0 3.26305e-05 0 0)
(0.153841 0.000965717 0 3.09187e-05 0 0)
(0.158987 0.000959492 0 2.93926e-05 0 0)
(0.164164 0.000953523 0 2.80329e-05 0 0)
(0.169371 0.000947854 0 2.68223e-05 0 0)
(0.174609 0.000942538 0 2.57451e-05 0 0)
(0.179877 0.000937635 0 2.47873e-05 0 0)
(0.185175 0.000933229 0 2.39375e-05 0 0)
(0.190503 0.000929464 0 2.31878e-05 0 0)
(0.195861 0.000926503 0 2.25314e-05 0 0)
(0.201248 0.000924473 0 2.19606e-05 0 0)
(0.206665 0.000923481 0 2.1467e-05 0 0)
(0.212111 0.000923597 0 2.10425e-05 0 0)
(0.217588 0.000924869 0 2.06793e-05 0 0)
(0.223095 0.000927305 0 2.037e-05 0 0)
(0.228633 0.000930885 0 2.01079e-05 0 0)
(0.234201 0.00093555 0 1.98868e-05 0 0)
(0.239802 0.000941217 0 1.97014e-05 0 0)
(0.245434 0.000947787 0 1.95475e-05 0 0)
(0.251097 0.000955165 0 1.94224e-05 0 0)
(0.256792 0.00096322 0 1.93227e-05 0 0)
(0.262518 0.0009718 0 1.92445e-05 0 0)
(0.268275 0.000980734 0 1.91836e-05 0 0)
(0.274062 0.000989863 0 1.9136e-05 0 0)
(0.279878 0.000999039 0 1.90978e-05 0 0)
(0.285722 0.00100814 0 1.9066e-05 0 0)
(0.291594 0.00101707 0 1.90378e-05 0 0)
(0.297491 0.00102576 0 1.90107e-05 0 0)
(0.303414 0.00103414 0 1.89824e-05 0 0)
(0.309361 0.00104216 0 1.89512e-05 0 0)
(0.315332 0.00104982 0 1.89158e-05 0 0)
(0.321324 0.00105712 0 1.88754e-05 0 0)
(0.327337 0.00106407 0 1.88297e-05 0 0)
(0.333371 0.00107069 0 1.87784e-05 0 0)
(0.339425 0.00107702 0 1.87217e-05 0 0)
(0.345497 0.00108308 0 1.86596e-05 0 0)
(0.351587 0.00108892 0 1.85924e-05 0 0)
(0.357695 0.00109457 0 1.85205e-05 0 0)
(0.363819 0.00110007 0 1.84442e-05 0 0)
(0.369959 0.00110544 0 1.83638e-05 0 0)
(0.376116 0.00111071 0 1.82796e-05 0 0)
(0.382286 0.0011159 0 1.81922e-05 0 0)
(0.388472 0.00112102 0 1.81017e-05 0 0)
(0.394671 0.00112609 0 1.80084e-05 0 0)
(0.400883 0.00113109 0 1.79124e-05 0 0)
(0.407108 0.00113604 0 1.78142e-05 0 0)
(0.413346 0.00114091 0 1.77136e-05 0 0)
(0.419594 0.0011457 0 1.76109e-05 0 0)
(0.425853 0.0011504 0 1.7506e-05 0 0)
(0.432122 0.00115498 0 1.73992e-05 0 0)
(0.438401 0.00115944 0 1.72905e-05 0 0)
(0.444688 0.00116376 0 1.718e-05 0 0)
(0.450984 0.00116793 0 1.70676e-05 0 0)
(0.457286 0.00117193 0 1.69535e-05 0 0)
(0.463595 0.00117578 0 1.68378e-05 0 0)
(0.469909 0.00117945 0 1.67203e-05 0 0)
(0.47623 0.00118295 0 1.66016e-05 0 0)
(0.482555 0.00118627 0 1.64813e-05 0 0)
(0.488885 0.00118944 0 1.63603e-05 0 0)
(0.495219 0.00119242 0 1.62377e-05 0 0)
(0.501558 0.00119528 0 1.61149e-05 0 0)
(0.507901 0.00119791 0 1.59897e-05 0 0)
(0.514249 0.00120046 0 1.58655e-05 0 0)
(0.520601 0.0012027 0 1.57373e-05 0 0)
(0.526959 0.00120498 0 1.56129e-05 0 0)
(0.533319 0.00120681 0 1.5481e-05 0 0)
(0.539686 0.00120891 0 1.5359e-05 0 0)
(0.546052 0.00121021 0 1.52211e-05 0 0)
(0.552424 0.00121227 0 1.51049e-05 0 0)
(0.558792 0.00121275 0 1.49543e-05 0 0)
(0.565159 0.00121501 0 1.48495e-05 0 0)
(0.571523 0.00121405 0 1.46725e-05 0 0)
(0.577862 0.00121706 0 1.45915e-05 0 0)
(0.584222 0.00121364 0 1.43637e-05 0 0)
(0.590481 0.00121869 0 1.43336e-05 0 0)
(0.596872 0.00121137 0 1.40133e-05 0 0)
(0.602931 0.00122112 0 1.4084e-05 0 0)
(0.609489 0.00120779 0 1.35987e-05 0 0)
(0.615063 0.00122597 0 1.3839e-05 0 0)
(0.622184 0.00120242 0 1.30496e-05 0 0)
(0.626548 0.00122851 0 1.34673e-05 0 0)
(0.636156 0.00118337 0 1.21046e-05 0 0)
(0.00634693 7.15134e-06 0 1.31013e-08 0 0)
(0.0014329 5.2784e-06 0 1.53302e-07 0 0)
(0.00316797 -6.64857e-07 0 5.01931e-07 0 0)
(0.00507041 9.17723e-06 0 1.10385e-06 0 0)
(0.00729463 2.86426e-05 0 1.96713e-06 0 0)
(0.00974228 4.77503e-05 0 3.06955e-06 0 0)
(0.0121813 6.36421e-05 0 4.36426e-06 0 0)
(0.0146989 7.82711e-05 0 5.77589e-06 0 0)
(0.0174942 9.37313e-05 0 7.21087e-06 0 0)
(0.0205128 0.000110491 0 8.58511e-06 0 0)
(0.023591 0.000128079 0 9.84105e-06 0 0)
(0.0267183 0.000146334 0 1.09471e-05 0 0)
(0.0299765 0.000165633 0 1.18799e-05 0 0)
(0.033395 0.000186531 0 1.26195e-05 0 0)
(0.0369559 0.000209454 0 1.31465e-05 0 0)
(0.0406457 0.000234466 0 1.34584e-05 0 0)
(0.0444657 0.000260811 0 1.35621e-05 0 0)
(0.0484236 0.000286973 0 1.34755e-05 0 0)
(0.0525244 0.000311276 0 1.32263e-05 0 0)
(0.0567617 0.000332573 0 1.28494e-05 0 0)
(0.0611187 0.000350336 0 1.23744e-05 0 0)
(0.0655761 0.000364567 0 1.18304e-05 0 0)
(0.0701185 0.000375689 0 1.12501e-05 0 0)
(0.0747316 0.000384497 0 1.06699e-05 0 0)
(0.0794003 0.000391906 0 1.01219e-05 0 0)
(0.0841105 0.000398623 0 9.62475e-06 0 0)
(0.0888516 0.000405068 0 9.18728e-06 0 0)
(0.0936178 0.000411414 0 8.81103e-06 0 0)
(0.0984067 0.000417704 0 8.49221e-06 0 0)
(0.103218 0.000423974 0 8.22535e-06 0 0)
(0.108051 0.000430228 0 8.00382e-06 0 0)
(0.112908 0.000436447 0 7.8219e-06 0 0)
(0.117789 0.000442584 0 7.67352e-06 0 0)
(0.122698 0.000448628 0 7.55281e-06 0 0)
(0.127634 0.00045458 0 7.45351e-06 0 0)
(0.132599 0.000460452 0 7.37002e-06 0 0)
(0.137594 0.00046623 0 7.29716e-06 0 0)
(0.142618 0.000471889 0 7.23098e-06 0 0)
(0.147672 0.000477375 0 7.16859e-06 0 0)
(0.152757 0.000482649 0 7.10865e-06 0 0)
(0.157872 0.000487671 0 7.05064e-06 0 0)
(0.163018 0.000492424 0 6.99468e-06 0 0)
(0.168193 0.000496887 0 6.94095e-06 0 0)
(0.173399 0.000501062 0 6.88984e-06 0 0)
(0.178634 0.000504966 0 6.84182e-06 0 0)
(0.183899 0.00050866 0 6.79771e-06 0 0)
(0.189194 0.000512235 0 6.75837e-06 0 0)
(0.194518 0.000515803 0 6.7244e-06 0 0)
(0.199871 0.000519457 0 6.6957e-06 0 0)
(0.205255 0.000523281 0 6.67176e-06 0 0)
(0.210668 0.000527342 0 6.65188e-06 0 0)
(0.216112 0.000531697 0 6.63551e-06 0 0)
(0.221587 0.000536382 0 6.62212e-06 0 0)
(0.227094 0.000541406 0 6.61123e-06 0 0)
(0.232633 0.00054675 0 6.60224e-06 0 0)
(0.238205 0.000552379 0 6.59465e-06 0 0)
(0.24381 0.000558228 0 6.58776e-06 0 0)
(0.249448 0.000564207 0 6.58065e-06 0 0)
(0.25512 0.000570223 0 6.57249e-06 0 0)
(0.260825 0.000576186 0 6.56258e-06 0 0)
(0.266562 0.000582011 0 6.55035e-06 0 0)
(0.272332 0.000587625 0 6.53533e-06 0 0)
(0.278133 0.00059297 0 6.51717e-06 0 0)
(0.283965 0.000598004 0 6.49569e-06 0 0)
(0.289826 0.000602696 0 6.47071e-06 0 0)
(0.295716 0.000607032 0 6.4422e-06 0 0)
(0.301634 0.000611 0 6.41e-06 0 0)
(0.307578 0.000614603 0 6.37409e-06 0 0)
(0.313549 0.000617854 0 6.33457e-06 0 0)
(0.319544 0.00062078 0 6.29164e-06 0 0)
(0.325562 0.00062341 0 6.2455e-06 0 0)
(0.331604 0.000625779 0 6.19647e-06 0 0)
(0.337668 0.00062792 0 6.14484e-06 0 0)
(0.343754 0.000629871 0 6.09096e-06 0 0)
(0.349861 0.000631663 0 6.03512e-06 0 0)
(0.355988 0.000633328 0 5.97767e-06 0 0)
(0.362135 0.000634891 0 5.91888e-06 0 0)
(0.368301 0.000636379 0 5.85906e-06 0 0)
(0.374486 0.000637805 0 5.79847e-06 0 0)
(0.380689 0.000639185 0 5.73735e-06 0 0)
(0.386911 0.000640527 0 5.67589e-06 0 0)
(0.39315 0.000641839 0 5.61432e-06 0 0)
(0.399406 0.000643121 0 5.55277e-06 0 0)
(0.405679 0.000644376 0 5.49142e-06 0 0)
(0.411968 0.000645598 0 5.43035e-06 0 0)
(0.418273 0.000646786 0 5.36972e-06 0 0)
(0.424593 0.000647936 0 5.30959e-06 0 0)
(0.430928 0.000649041 0 5.25007e-06 0 0)
(0.437278 0.000650096 0 5.1912e-06 0 0)
(0.443641 0.000651098 0 5.13305e-06 0 0)
(0.450017 0.000652044 0 5.07568e-06 0 0)
(0.456405 0.00065293 0 5.01913e-06 0 0)
(0.462806 0.000653751 0 4.96343e-06 0 0)
(0.469218 0.000654504 0 4.90858e-06 0 0)
(0.475641 0.000655192 0 4.85464e-06 0 0)
(0.482074 0.000655806 0 4.80159e-06 0 0)
(0.488519 0.000656357 0 4.74952e-06 0 0)
(0.494973 0.000656825 0 4.69826e-06 0 0)
(0.501438 0.00065723 0 4.64807e-06 0 0)
(0.507913 0.000657531 0 4.59851e-06 0 0)
(0.514399 0.000657772 0 4.55017e-06 0 0)
(0.520896 0.000657873 0 4.50215e-06 0 0)
(0.527404 0.000657935 0 4.45575e-06 0 0)
(0.533921 0.000657792 0 4.40902e-06 0 0)
(0.54045 0.000657669 0 4.36476e-06 0 0)
(0.546988 0.000657205 0 4.31879e-06 0 0)
(0.553535 0.000656887 0 4.27703e-06 0 0)
(0.560088 0.00065593 0 4.23069e-06 0 0)
(0.566642 0.000655397 0 4.19225e-06 0 0)
(0.573207 0.000653633 0 4.14351e-06 0 0)
(0.579743 0.000652945 0 4.11038e-06 0 0)
(0.586323 0.000649914 0 4.05573e-06 0 0)
(0.592787 0.000649413 0 4.0325e-06 0 0)
(0.599424 0.000644482 0 3.96566e-06 0 0)
(0.605686 0.000645097 0 3.96108e-06 0 0)
(0.61253 0.000637253 0 3.86954e-06 0 0)
(0.618284 0.000640648 0 3.8967e-06 0 0)
(0.625756 0.000627341 0 3.75104e-06 0 0)
(0.630224 0.000634391 0 3.81272e-06 0 0)
(0.6403 0.000606506 0 3.53303e-06 0 0)
(0.00634693 -7.35554e-06 0 1.79505e-08 0 0)