/*--------------------------------*- C++ -*----------------------------------*\
  =========                 |
  \\      /  F ield         | OpenFOAM: The Open Source CFD Toolbox
   \\    /   O peration     | Website:  https://openfoam.org
    \\  /    A nd           | Version:  7
     \\/     M anipulation  |
\*---------------------------------------------------------------------------*/
FoamFile
{
    version     2.0;
    format      ascii;
    class       volScalarField;
    location    "0.6025";
    object      alphat;
}
// * * * * * * * * * * * * * * * * * * * * * * * * * * * * * * * * * * * * * //

dimensions      [1 -1 -1 0 0 0 0];

internalField   nonuniform List<scalar> 
13200
(
0.00995571
0.010223
0.0102192
0.0102181
0.0102153
0.0102153
0.0102142
0.0102149
0.0102146
0.0102154
0.0102153
0.0102159
0.0102156
0.0102158
0.0102153
0.010215
0.0102148
0.0102135
0.0102169
0.0102211
0.00482224
0.00459577
0.00444178
0.00438189
0.00436031
0.00435485
0.0043474
0.0043469
0.00434244
0.00434261
0.00433976
0.00433984
0.00433803
0.00433825
0.00433685
0.00433716
0.00433607
0.00433635
0.00434366
0.00434714
0.00301499
0.00300581
0.0029493
0.00290673
0.00288736
0.00288003
0.00287243
0.00286976
0.00286515
0.00286346
0.00286013
0.00285881
0.00285621
0.00285537
0.00285325
0.00285291
0.00285089
0.00285151
0.00284941
0.00285721
0.00254377
0.00269193
0.00270639
0.00270601
0.00270333
0.00270252
0.00270022
0.00269906
0.00269709
0.00269599
0.00269421
0.00269303
0.00269129
0.00269028
0.00268879
0.00268806
0.00268657
0.00268628
0.00268461
0.00268952
0.0024355
0.00263181
0.00266668
0.00267756
0.00268059
0.0026835
0.00268404
0.00268502
0.00268488
0.0026854
0.00268491
0.00268514
0.00268406
0.00268402
0.00268286
0.00268272
0.00268174
0.00268165
0.00268046
0.00268318
0.00242068
0.00262385
0.00266325
0.00267715
0.00268182
0.00268687
0.00268854
0.00269109
0.00269192
0.00269374
0.00269423
0.00269572
0.00269536
0.00269626
0.00269554
0.00269617
0.00269557
0.00269584
0.00269536
0.0026968
0.00241607
0.00261962
0.00265959
0.00267424
0.00267963
0.0026857
0.0026881
0.00269172
0.00269325
0.00269613
0.00269745
0.00269997
0.00270041
0.00270212
0.00270198
0.00270325
0.00270324
0.00270402
0.00270417
0.00270537
0.00241832
0.00262002
0.00265984
0.0026746
0.00268037
0.00268696
0.0026898
0.00269409
0.00269611
0.00269971
0.00270161
0.00270488
0.00270598
0.00270831
0.00270875
0.00271052
0.00271111
0.0027123
0.00271312
0.00271402
0.00241784
0.00261877
0.00265829
0.00267288
0.00267867
0.00268536
0.00268835
0.00269288
0.00269512
0.00269908
0.00270131
0.00270502
0.00270654
0.00270926
0.00271013
0.00271225
0.0027133
0.00271483
0.00271606
0.00271722
0.00241889
0.00261907
0.00265844
0.00267298
0.00267879
0.00268551
0.00268854
0.00269315
0.00269548
0.00269957
0.00270194
0.00270582
0.00270754
0.00271044
0.00271151
0.0027138
0.00271511
0.00271675
0.00271835
0.00271946
0.00241889
0.00261907
0.00265844
0.00267298
0.00267879
0.00268551
0.00268854
0.00269315
0.00269548
0.00269957
0.00270194
0.00270582
0.00270754
0.00271044
0.00271151
0.0027138
0.00271511
0.00271676
0.00271835
0.00271947
0.00241784
0.00261877
0.00265829
0.00267288
0.00267867
0.00268536
0.00268835
0.00269288
0.00269512
0.00269908
0.00270132
0.00270502
0.00270654
0.00270926
0.00271013
0.00271225
0.0027133
0.00271484
0.00271606
0.00271727
0.00241832
0.00262002
0.00265984
0.0026746
0.00268037
0.00268696
0.0026898
0.00269409
0.00269611
0.00269971
0.00270162
0.00270488
0.00270598
0.00270831
0.00270875
0.00271052
0.00271112
0.00271231
0.00271312
0.00271408
0.00241607
0.00261962
0.00265959
0.00267424
0.00267963
0.0026857
0.0026881
0.00269172
0.00269326
0.00269613
0.00269746
0.00269997
0.00270041
0.00270212
0.00270198
0.00270325
0.00270325
0.00270403
0.00270421
0.00270543
0.00242068
0.00262385
0.00266325
0.00267715
0.00268182
0.00268687
0.00268854
0.00269108
0.00269192
0.00269373
0.00269424
0.00269571
0.00269536
0.00269626
0.00269557
0.00269615
0.00269563
0.00269578
0.00269543
0.00269676
0.0024355
0.00263181
0.00266668
0.00267756
0.00268059
0.0026835
0.00268405
0.00268502
0.00268489
0.00268539
0.00268492
0.00268514
0.00268409
0.00268399
0.00268292
0.00268265
0.00268179
0.00268154
0.0026807
0.00268297
0.00254377
0.00269193
0.00270639
0.00270601
0.00270333
0.00270252
0.00270022
0.00269906
0.0026971
0.00269599
0.00269422
0.00269302
0.0026913
0.00269025
0.00268881
0.002688
0.00268661
0.00268626
0.00268485
0.00268892
0.00301499
0.00300581
0.0029493
0.00290673
0.00288736
0.00288003
0.00287243
0.00286976
0.00286515
0.00286345
0.00286013
0.0028588
0.00285621
0.00285535
0.00285328
0.00285284
0.00285098
0.00285132
0.00284974
0.00285644
0.00482224
0.00459577
0.00444178
0.00438189
0.00436031
0.00435485
0.0043474
0.0043469
0.00434244
0.00434261
0.00433976
0.00433984
0.00433803
0.00433825
0.00433686
0.00433713
0.00433611
0.00433626
0.00434371
0.00434635
0.00995571
0.010223
0.0102192
0.0102181
0.0102153
0.0102153
0.0102142
0.0102149
0.0102146
0.0102155
0.0102153
0.0102159
0.0102155
0.0102158
0.0102152
0.0102151
0.0102146
0.0102139
0.0102161
0.0102228
0.00279483
0.00298113
0.00295218
0.00291865
0.00291306
0.00289986
0.00289986
0.00289207
0.00289287
0.00288744
0.00288835
0.00288442
0.00288522
0.00288231
0.00288297
0.00288084
0.00288143
0.00287975
0.00287941
0.00288628
0.00230693
0.00265929
0.00269743
0.00269329
0.00268727
0.00268138
0.00267791
0.00267417
0.00267176
0.00266893
0.00266717
0.0026652
0.00266413
0.00266293
0.00266232
0.0026619
0.00266132
0.00266231
0.00265986
0.00266466
0.00214147
0.00251565
0.00257402
0.00258914
0.00259396
0.00259759
0.00259811
0.00259937
0.00259879
0.00259888
0.00259777
0.00259739
0.00259645
0.00259625
0.00259561
0.00259573
0.00259521
0.00259588
0.00259461
0.00260136
0.00212158
0.00249777
0.00255319
0.00256622
0.00256991
0.00257417
0.00257574
0.00257852
0.00257944
0.00258112
0.00258124
0.00258191
0.0025817
0.00258204
0.00258182
0.00258204
0.00258168
0.00258202
0.00258202
0.00258391
0.00211158
0.00248812
0.00254303
0.00255462
0.00255594
0.00255825
0.00255856
0.00256049
0.00256105
0.00256278
0.00256306
0.00256415
0.00256418
0.0025649
0.00256496
0.00256539
0.0025654
0.00256568
0.0025659
0.00256856
0.00211611
0.00249316
0.00254779
0.0025591
0.00255985
0.0025614
0.00256091
0.002562
0.00256192
0.00256286
0.00256273
0.00256356
0.00256337
0.00256401
0.00256398
0.00256436
0.00256432
0.0025644
0.00256442
0.00256619
0.00211279
0.00248944
0.00254404
0.00255532
0.00255596
0.00255736
0.00255666
0.00255754
0.00255718
0.00255776
0.00255729
0.00255782
0.00255744
0.00255799
0.00255784
0.00255819
0.00255803
0.00255815
0.00255831
0.00255981
0.00211582
0.00249264
0.00254702
0.00255824
0.00255888
0.00256029
0.00255959
0.00256046
0.00256004
0.00256055
0.00255994
0.00256029
0.00255982
0.00256033
0.00256009
0.00256042
0.00256013
0.00256023
0.00256007
0.00256142
0.0021143
0.00249082
0.00254516
0.00255632
0.00255693
0.00255834
0.00255765
0.00255853
0.00255812
0.00255862
0.00255798
0.00255828
0.00255779
0.0025583
0.00255805
0.0025584
0.00255805
0.00255819
0.00255808
0.0025593
0.00211545
0.00249197
0.00254622
0.00255732
0.00255793
0.00255933
0.00255865
0.00255953
0.00255912
0.00255962
0.00255897
0.00255926
0.00255876
0.00255928
0.00255902
0.00255939
0.00255901
0.00255916
0.00255897
0.00256019
0.00211545
0.00249197
0.00254622
0.00255732
0.00255793
0.00255933
0.00255865
0.00255953
0.00255912
0.00255962
0.00255897
0.00255926
0.00255876
0.00255928
0.00255902
0.00255939
0.00255901
0.00255916
0.00255896
0.00256019
0.0021143
0.00249082
0.00254516
0.00255632
0.00255693
0.00255834
0.00255765
0.00255853
0.00255812
0.00255862
0.00255798
0.00255828
0.00255779
0.0025583
0.00255805
0.0025584
0.00255805
0.00255818
0.00255809
0.00255933
0.00211582
0.00249264
0.00254702
0.00255824
0.00255888
0.00256029
0.00255959
0.00256046
0.00256004
0.00256055
0.00255994
0.00256029
0.00255982
0.00256033
0.00256008
0.00256043
0.00256012
0.00256023
0.00256004
0.00256144
0.00211279
0.00248944
0.00254404
0.00255532
0.00255596
0.00255736
0.00255666
0.00255754
0.00255718
0.00255776
0.00255729
0.00255782
0.00255743
0.002558
0.00255782
0.00255821
0.00255802
0.00255816
0.00255829
0.00255982
0.00211611
0.00249316
0.00254779
0.0025591
0.00255985
0.0025614
0.00256091
0.002562
0.00256193
0.00256286
0.00256273
0.00256357
0.00256336
0.00256403
0.00256396
0.00256438
0.00256429
0.00256439
0.00256441
0.00256613
0.00211158
0.00248812
0.00254303
0.00255462
0.00255594
0.00255825
0.00255856
0.00256049
0.00256105
0.00256278
0.00256306
0.00256415
0.00256417
0.00256491
0.00256494
0.0025654
0.00256543
0.00256566
0.00256591
0.00256837
0.00212158
0.00249777
0.00255319
0.00256622
0.00256991
0.00257417
0.00257574
0.00257852
0.00257944
0.00258111
0.00258124
0.0025819
0.00258171
0.00258202
0.00258186
0.00258195
0.00258186
0.00258189
0.00258208
0.00258362
0.00214147
0.00251565
0.00257402
0.00258914
0.00259396
0.00259759
0.00259811
0.00259936
0.0025988
0.00259887
0.00259778
0.00259738
0.00259648
0.00259619
0.00259572
0.0025956
0.00259546
0.00259559
0.00259506
0.00260027
0.00230693
0.00265929
0.00269743
0.00269329
0.00268727
0.00268138
0.00267791
0.00267417
0.00267176
0.00266893
0.00266717
0.00266519
0.00266415
0.00266289
0.0026624
0.00266178
0.00266155
0.00266186
0.00266071
0.00266306
0.00279483
0.00298113
0.00295218
0.00291865
0.00291306
0.00289986
0.00289986
0.00289207
0.00289287
0.00288744
0.00288836
0.00288441
0.00288522
0.0028823
0.00288299
0.00288081
0.00288152
0.00287965
0.00287982
0.00288514
0.00107161
0.0012158
0.00113094
0.00101742
0.000945967
0.000907143
0.000879518
0.000860996
0.000845122
0.000832935
0.000822517
0.000814219
0.000807845
0.000803555
0.000800792
0.000800301
0.000799505
0.0008025
0.000798646
0.000810991
0.000437832
0.000701252
0.000770691
0.000784012
0.000783945
0.000781362
0.000775393
0.000769036
0.00076227
0.000756012
0.000749946
0.000744704
0.000739814
0.00073621
0.000732667
0.000731303
0.000728715
0.000729729
0.000727353
0.00073113
0.000190638
0.000432902
0.00052407
0.000563787
0.000580737
0.000594652
0.000603253
0.000612431
0.000618346
0.00062432
0.000627908
0.000631309
0.000632956
0.000634131
0.000634116
0.000634199
0.000633348
0.00063338
0.000632342
0.000633709
0.000175342
0.000395389
0.000478918
0.000518459
0.000533566
0.000543471
0.000547721
0.000552884
0.00055615
0.000560326
0.000563384
0.000566731
0.000569428
0.000571803
0.000573761
0.0005749
0.000575975
0.000576391
0.000577074
0.000578355
0.000171641
0.000386208
0.00046508
0.000504518
0.000518897
0.000528119
0.000530433
0.000533461
0.00053419
0.000535735
0.000536166
0.000537246
0.00053777
0.000538602
0.000539339
0.000539771
0.000540426
0.000540551
0.000541087
0.00054206
0.000175213
0.000392527
0.000470988
0.000509357
0.000523875
0.00053255
0.000534963
0.000537364
0.000537794
0.000538587
0.000538517
0.000538666
0.000538522
0.000538532
0.000538591
0.000538454
0.00053846
0.000538187
0.000538399
0.000539049
0.000172766
0.000388285
0.000466717
0.000505413
0.000519706
0.000528496
0.00053073
0.000533158
0.000533465
0.000534099
0.000533881
0.000533852
0.000533494
0.000533374
0.000533154
0.000532885
0.000532612
0.000532273
0.000532006
0.000532515
0.000174788
0.00039195
0.000470475
0.000508706
0.000523044
0.000531603
0.000533954
0.000536276
0.000536626
0.000537243
0.00053704
0.000536986
0.000536667
0.000536505
0.000536316
0.000536029
0.000535772
0.000535408
0.000535204
0.00053563
0.000173559
0.000389729
0.000468227
0.000506661
0.000520907
0.000529556
0.000531826
0.000534201
0.000534522
0.000535133
0.000534913
0.000534873
0.000534538
0.000534406
0.000534197
0.000533929
0.000533653
0.000533326
0.000533029
0.000533498
0.000174246
0.000390998
0.000469544
0.000507819
0.000522065
0.000530627
0.000532923
0.00053526
0.000535592
0.000536198
0.000535985
0.000535943
0.000535626
0.000535488
0.000535296
0.000535026
0.000534768
0.000534447
0.000534209
0.000534661
0.000174246
0.000390998
0.000469544
0.000507819
0.000522065
0.000530627
0.000532923
0.00053526
0.000535592
0.000536198
0.000535985
0.000535943
0.000535626
0.000535488
0.000535297
0.000535027
0.000534769
0.00053445
0.00053421
0.000534665
0.000173559
0.000389729
0.000468227
0.000506661
0.000520907
0.000529556
0.000531826
0.000534201
0.000534522
0.000535133
0.000534913
0.000534873
0.000534538
0.000534405
0.000534197
0.000533928
0.000533651
0.000533324
0.000533027
0.000533496
0.000174788
0.00039195
0.000470475
0.000508706
0.000523044
0.000531603
0.000533954
0.000536276
0.000536626
0.000537244
0.00053704
0.000536987
0.000536666
0.000536506
0.000536315
0.000536031
0.000535772
0.000535413
0.000535202
0.000535637
0.000172766
0.000388285
0.000466717
0.000505414
0.000519705
0.000528496
0.00053073
0.000533158
0.000533465
0.000534099
0.000533881
0.000533853
0.000533492
0.000533376
0.000533151
0.000532888
0.000532607
0.000532274
0.000531994
0.000532514
0.000175213
0.000392527
0.000470988
0.000509357
0.000523875
0.00053255
0.000534963
0.000537364
0.000537794
0.000538588
0.000538517
0.000538668
0.000538517
0.000538537
0.000538583
0.000538459
0.000538453
0.000538195
0.00053838
0.00053905
0.000171641
0.000386208
0.00046508
0.000504518
0.000518897
0.000528119
0.000530433
0.00053346
0.000534191
0.000535735
0.000536165
0.000537247
0.000537766
0.000538605
0.000539329
0.000539775
0.00054041
0.000540545
0.00054105
0.000542024
0.000175342
0.000395389
0.000478918
0.000518459
0.000533565
0.000543471
0.000547721
0.000552883
0.000556151
0.000560324
0.000563387
0.000566724
0.000569434
0.000571787
0.000573772
0.00057487
0.000575983
0.000576322
0.000577042
0.000578215
0.000190638
0.000432902
0.00052407
0.000563787
0.000580737
0.000594652
0.000603253
0.000612429
0.000618348
0.000624314
0.000627914
0.000631293
0.000632976
0.000634084
0.000634175
0.000634086
0.000633452
0.000633171
0.000632491
0.000633261
0.000437831
0.000701252
0.000770691
0.000784012
0.000783946
0.000781361
0.000775393
0.000769035
0.000762271
0.000756011
0.000749949
0.000744696
0.00073983
0.000736178
0.00073273
0.000731186
0.000728956
0.000729321
0.000727987
0.000730115
0.00107161
0.0012158
0.00113094
0.00101742
0.000945967
0.000907143
0.000879518
0.000860997
0.000845124
0.000832939
0.00082252
0.000814231
0.000807855
0.00080358
0.000800847
0.00080034
0.000799725
0.0008025
0.000799552
0.000810192
0.00107161
0.0012158
0.00113094
0.00101742
0.000945967
0.000907143
0.000879517
0.000860996
0.000845122
0.000832935
0.000822517
0.000814219
0.000807845
0.000803555
0.000800792
0.000800301
0.000799505
0.0008025
0.000798645
0.000810991
0.000437832
0.000701252
0.000770691
0.000784012
0.000783945
0.000781362
0.000775393
0.000769036
0.00076227
0.000756012
0.000749946
0.000744704
0.000739814
0.000736211
0.000732667
0.000731303
0.000728715
0.000729729
0.000727353
0.00073113
0.000190638
0.000432902
0.00052407
0.000563787
0.000580737
0.000594652
0.000603253
0.00061243
0.000618346
0.000624319
0.000627908
0.000631309
0.000632955
0.000634131
0.000634116
0.000634199
0.000633348
0.00063338
0.000632343
0.000633709
0.000175342
0.000395388
0.000478918
0.000518459
0.000533566
0.000543471
0.000547721
0.000552884
0.00055615
0.000560326
0.000563384
0.000566731
0.000569427
0.000571803
0.000573761
0.0005749
0.000575975
0.000576391
0.000577075
0.000578355
0.000171641
0.000386208
0.00046508
0.000504518
0.000518897
0.000528119
0.000530433
0.000533461
0.00053419
0.000535735
0.000536166
0.000537246
0.00053777
0.000538601
0.000539339
0.000539771
0.000540426
0.000540551
0.000541087
0.00054206
0.000175213
0.000392526
0.000470988
0.000509357
0.000523875
0.00053255
0.000534963
0.000537364
0.000537794
0.000538587
0.000538517
0.000538666
0.000538522
0.000538531
0.000538591
0.000538454
0.00053846
0.000538187
0.000538399
0.000539049
0.000172766
0.000388285
0.000466717
0.000505413
0.000519706
0.000528496
0.00053073
0.000533158
0.000533465
0.000534099
0.000533881
0.000533852
0.000533494
0.000533374
0.000533154
0.000532886
0.000532612
0.000532273
0.000532005
0.000532515
0.000174788
0.00039195
0.000470475
0.000508706
0.000523044
0.000531603
0.000533954
0.000536276
0.000536626
0.000537243
0.00053704
0.000536986
0.000536667
0.000536505
0.000536316
0.000536029
0.000535772
0.000535408
0.000535204
0.000535629
0.000173559
0.000389728
0.000468227
0.000506661
0.000520907
0.000529556
0.000531826
0.000534201
0.000534522
0.000535133
0.000534913
0.000534873
0.000534538
0.000534406
0.000534198
0.000533929
0.000533653
0.000533326
0.000533029
0.000533498
0.000174246
0.000390998
0.000469544
0.000507819
0.000522065
0.000530627
0.000532923
0.00053526
0.000535592
0.000536198
0.000535985
0.000535943
0.000535626
0.000535488
0.000535296
0.000535026
0.000534768
0.000534447
0.000534208
0.000534661
0.000174246
0.000390998
0.000469544
0.000507819
0.000522065
0.000530627
0.000532923
0.00053526
0.000535592
0.000536198
0.000535985
0.000535943
0.000535626
0.000535488
0.000535297
0.000535027
0.000534769
0.00053445
0.00053421
0.000534665
0.000173559
0.000389729
0.000468227
0.000506661
0.000520907
0.000529556
0.000531826
0.000534201
0.000534522
0.000535133
0.000534913
0.000534873
0.000534538
0.000534405
0.000534197
0.000533928
0.000533651
0.000533324
0.000533027
0.000533496
0.000174788
0.00039195
0.000470475
0.000508706
0.000523044
0.000531603
0.000533954
0.000536276
0.000536626
0.000537244
0.00053704
0.000536987
0.000536666
0.000536507
0.000536315
0.000536031
0.000535772
0.000535413
0.000535203
0.000535637
0.000172766
0.000388285
0.000466717
0.000505414
0.000519706
0.000528497
0.00053073
0.000533158
0.000533465
0.000534099
0.000533881
0.000533853
0.000533492
0.000533376
0.000533151
0.000532888
0.000532607
0.000532274
0.000531994
0.000532514
0.000175213
0.000392527
0.000470988
0.000509357
0.000523875
0.00053255
0.000534963
0.000537364
0.000537794
0.000538588
0.000538517
0.000538668
0.000538517
0.000538537
0.000538583
0.000538459
0.000538453
0.000538195
0.000538381
0.00053905
0.000171641
0.000386208
0.00046508
0.000504518
0.000518897
0.000528119
0.000530433
0.00053346
0.000534191
0.000535735
0.000536165
0.000537248
0.000537766
0.000538605
0.000539329
0.000539775
0.00054041
0.000540545
0.00054105
0.000542024
0.000175342
0.000395389
0.000478918
0.000518459
0.000533565
0.000543471
0.000547721
0.000552883
0.000556151
0.000560324
0.000563387
0.000566724
0.000569434
0.000571787
0.000573772
0.00057487
0.000575983
0.000576322
0.000577042
0.000578215
0.000190638
0.000432902
0.00052407
0.000563787
0.000580737
0.000594652
0.000603253
0.000612429
0.000618348
0.000624315
0.000627915
0.000631293
0.000632977
0.000634084
0.000634175
0.000634085
0.000633452
0.000633171
0.00063249
0.000633261
0.000437831
0.000701252
0.000770691
0.000784012
0.000783946
0.000781361
0.000775393
0.000769036
0.000762271
0.000756011
0.000749949
0.000744696
0.00073983
0.000736178
0.00073273
0.000731186
0.000728956
0.000729321
0.000727987
0.000730115
0.00107161
0.0012158
0.00113094
0.00101742
0.000945967
0.000907143
0.000879518
0.000860997
0.000845124
0.000832939
0.00082252
0.00081423
0.000807855
0.00080358
0.000800847
0.00080034
0.000799725
0.0008025
0.000799552
0.000810192
0.00279483
0.00298113
0.00295218
0.00291865
0.00291306
0.00289986
0.00289986
0.00289207
0.00289287
0.00288744
0.00288835
0.00288442
0.00288522
0.00288231
0.00288297
0.00288084
0.00288143
0.00287975
0.00287941
0.00288628
0.00230693
0.00265929
0.00269743
0.00269329
0.00268726
0.00268138
0.00267791
0.00267417
0.00267176
0.00266893
0.00266717
0.0026652
0.00266413
0.00266293
0.00266232
0.0026619
0.00266132
0.00266231
0.00265986
0.00266466
0.00214147
0.00251565
0.00257402
0.00258914
0.00259396
0.00259759
0.00259811
0.00259937
0.00259879
0.00259888
0.00259777
0.00259739
0.00259645
0.00259625
0.00259561
0.00259573
0.00259521
0.00259588
0.00259461
0.00260136
0.00212158
0.00249777
0.00255319
0.00256622
0.00256991
0.00257417
0.00257574
0.00257852
0.00257944
0.00258112
0.00258124
0.00258191
0.0025817
0.00258203
0.00258182
0.00258204
0.00258168
0.00258202
0.00258202
0.00258391
0.00211158
0.00248812
0.00254303
0.00255462
0.00255594
0.00255825
0.00255856
0.00256049
0.00256105
0.00256278
0.00256306
0.00256415
0.00256418
0.00256489
0.00256496
0.00256539
0.0025654
0.00256568
0.0025659
0.00256856
0.00211611
0.00249316
0.00254779
0.0025591
0.00255985
0.0025614
0.00256091
0.002562
0.00256193
0.00256286
0.00256273
0.00256356
0.00256337
0.00256401
0.00256398
0.00256436
0.00256432
0.00256439
0.00256442
0.00256619
0.00211279
0.00248944
0.00254404
0.00255532
0.00255596
0.00255736
0.00255666
0.00255754
0.00255718
0.00255776
0.00255729
0.00255782
0.00255744
0.00255799
0.00255783
0.00255819
0.00255803
0.00255815
0.00255831
0.0025598
0.00211582
0.00249264
0.00254702
0.00255824
0.00255888
0.00256029
0.00255959
0.00256046
0.00256004
0.00256055
0.00255994
0.00256029
0.00255982
0.00256033
0.00256009
0.00256042
0.00256013
0.00256023
0.00256006
0.00256142
0.0021143
0.00249082
0.00254516
0.00255632
0.00255693
0.00255834
0.00255765
0.00255853
0.00255812
0.00255862
0.00255798
0.00255828
0.00255779
0.0025583
0.00255805
0.0025584
0.00255805
0.00255818
0.00255808
0.0025593
0.00211545
0.00249197
0.00254622
0.00255732
0.00255793
0.00255933
0.00255865
0.00255953
0.00255912
0.00255962
0.00255897
0.00255926
0.00255876
0.00255928
0.00255902
0.00255939
0.00255901
0.00255916
0.00255897
0.00256019
0.00211545
0.00249197
0.00254622
0.00255732
0.00255793
0.00255933
0.00255865
0.00255953
0.00255912
0.00255962
0.00255897
0.00255926
0.00255876
0.00255928
0.00255902
0.00255939
0.00255901
0.00255916
0.00255896
0.00256019
0.0021143
0.00249082
0.00254516
0.00255632
0.00255693
0.00255834
0.00255765
0.00255853
0.00255812
0.00255862
0.00255798
0.00255828
0.00255779
0.0025583
0.00255805
0.0025584
0.00255805
0.00255818
0.00255809
0.00255933
0.00211582
0.00249264
0.00254702
0.00255824
0.00255888
0.00256029
0.00255959
0.00256046
0.00256004
0.00256055
0.00255994
0.00256029
0.00255982
0.00256033
0.00256008
0.00256043
0.00256012
0.00256024
0.00256004
0.00256144
0.00211279
0.00248944
0.00254404
0.00255532
0.00255596
0.00255736
0.00255666
0.00255754
0.00255718
0.00255776
0.00255729
0.00255782
0.00255743
0.002558
0.00255782
0.00255821
0.00255802
0.00255816
0.0025583
0.00255983
0.00211611
0.00249316
0.00254779
0.0025591
0.00255985
0.0025614
0.00256091
0.002562
0.00256193
0.00256285
0.00256273
0.00256357
0.00256336
0.00256403
0.00256396
0.00256438
0.00256429
0.00256439
0.00256441
0.00256613
0.00211158
0.00248812
0.00254303
0.00255462
0.00255594
0.00255825
0.00255857
0.00256049
0.00256105
0.00256278
0.00256306
0.00256415
0.00256417
0.00256491
0.00256495
0.0025654
0.00256543
0.00256566
0.00256591
0.00256837
0.00212158
0.00249777
0.00255319
0.00256622
0.00256991
0.00257417
0.00257574
0.00257852
0.00257944
0.00258112
0.00258124
0.0025819
0.00258171
0.00258202
0.00258186
0.00258195
0.00258186
0.00258189
0.00258208
0.00258362
0.00214147
0.00251565
0.00257402
0.00258914
0.00259396
0.00259759
0.00259811
0.00259936
0.0025988
0.00259887
0.00259778
0.00259738
0.00259648
0.00259619
0.00259572
0.0025956
0.00259546
0.00259559
0.00259506
0.00260027
0.00230693
0.00265929
0.00269743
0.00269329
0.00268727
0.00268138
0.00267791
0.00267417
0.00267176
0.00266893
0.00266718
0.00266519
0.00266415
0.00266289
0.0026624
0.00266178
0.00266155
0.00266186
0.00266071
0.00266306
0.00279483
0.00298113
0.00295218
0.00291865
0.00291306
0.00289986
0.00289986
0.00289207
0.00289287
0.00288744
0.00288836
0.00288441
0.00288522
0.0028823
0.00288299
0.00288081
0.00288152
0.00287965
0.00287982
0.00288514
0.00995571
0.010223
0.0102192
0.0102181
0.0102153
0.0102153
0.0102142
0.0102149
0.0102146
0.0102154
0.0102153
0.0102159
0.0102156
0.0102158
0.0102153
0.010215
0.0102148
0.0102135
0.0102169
0.0102211
0.00482224
0.00459577
0.00444178
0.00438189
0.00436031
0.00435485
0.0043474
0.0043469
0.00434244
0.00434261
0.00433976
0.00433984
0.00433803
0.00433825
0.00433685
0.00433716
0.00433607
0.00433635
0.00434366
0.00434714
0.00301499
0.00300581
0.0029493
0.00290673
0.00288736
0.00288003
0.00287243
0.00286976
0.00286515
0.00286346
0.00286013
0.00285881
0.00285621
0.00285537
0.00285325
0.00285291
0.00285089
0.00285151
0.00284941
0.00285721
0.00254377
0.00269193
0.00270639
0.00270601
0.00270333
0.00270252
0.00270022
0.00269906
0.00269709
0.00269599
0.00269421
0.00269303
0.00269129
0.00269028
0.00268879
0.00268806
0.00268657
0.00268628
0.00268461
0.00268952
0.0024355
0.00263181
0.00266668
0.00267756
0.00268059
0.0026835
0.00268404
0.00268502
0.00268488
0.0026854
0.00268491
0.00268514
0.00268406
0.00268402
0.00268286
0.00268272
0.00268174
0.00268165
0.00268046
0.00268318
0.00242068
0.00262385
0.00266325
0.00267715
0.00268182
0.00268687
0.00268854
0.00269109
0.00269192
0.00269374
0.00269423
0.00269572
0.00269536
0.00269626
0.00269554
0.00269617
0.00269557
0.00269584
0.00269536
0.0026968
0.00241607
0.00261962
0.00265959
0.00267424
0.00267963
0.0026857
0.0026881
0.00269172
0.00269325
0.00269613
0.00269745
0.00269997
0.00270041
0.00270212
0.00270198
0.00270325
0.00270324
0.00270402
0.00270417
0.00270537
0.00241832
0.00262002
0.00265984
0.0026746
0.00268037
0.00268696
0.0026898
0.00269409
0.00269611
0.00269971
0.00270161
0.00270488
0.00270598
0.00270831
0.00270875
0.00271052
0.00271111
0.0027123
0.00271312
0.00271402
0.00241784
0.00261877
0.00265829
0.00267288
0.00267867
0.00268536
0.00268835
0.00269288
0.00269512
0.00269908
0.00270131
0.00270502
0.00270654
0.00270926
0.00271013
0.00271225
0.0027133
0.00271483
0.00271606
0.00271722
0.00241889
0.00261907
0.00265844
0.00267298
0.00267879
0.00268551
0.00268854
0.00269315
0.00269548
0.00269957
0.00270194
0.00270582
0.00270754
0.00271044
0.00271151
0.0027138
0.00271511
0.00271675
0.00271835
0.00271946
0.00241889
0.00261907
0.00265844
0.00267298
0.00267879
0.00268551
0.00268854
0.00269315
0.00269548
0.00269957
0.00270194
0.00270582
0.00270754
0.00271044
0.00271151
0.0027138
0.00271511
0.00271676
0.00271835
0.00271947
0.00241784
0.00261877
0.00265829
0.00267288
0.00267867
0.00268536
0.00268835
0.00269288
0.00269512
0.00269908
0.00270132
0.00270502
0.00270654
0.00270926
0.00271013
0.00271225
0.0027133
0.00271484
0.00271606
0.00271727
0.00241832
0.00262002
0.00265984
0.0026746
0.00268037
0.00268696
0.0026898
0.00269409
0.00269611
0.00269971
0.00270162
0.00270488
0.00270598
0.00270831
0.00270875
0.00271052
0.00271112
0.00271231
0.00271312
0.00271408
0.00241607
0.00261962
0.00265959
0.00267424
0.00267963
0.0026857
0.0026881
0.00269172
0.00269326
0.00269613
0.00269746
0.00269997
0.00270041
0.00270212
0.00270198
0.00270325
0.00270325
0.00270403
0.00270421
0.00270543
0.00242068
0.00262385
0.00266325
0.00267715
0.00268182
0.00268687
0.00268854
0.00269108
0.00269192
0.00269373
0.00269424
0.00269571
0.00269536
0.00269626
0.00269557
0.00269615
0.00269563
0.00269578
0.00269543
0.00269676
0.0024355
0.00263181
0.00266668
0.00267756
0.00268059
0.0026835
0.00268404
0.00268502
0.00268489
0.00268539
0.00268492
0.00268514
0.00268409
0.00268399
0.00268292
0.00268265
0.00268179
0.00268154
0.0026807
0.00268297
0.00254377
0.00269193
0.00270639
0.00270601
0.00270333
0.00270252
0.00270022
0.00269906
0.0026971
0.00269599
0.00269422
0.00269302
0.0026913
0.00269025
0.00268881
0.002688
0.00268661
0.00268626
0.00268485
0.00268892
0.00301499
0.00300581
0.0029493
0.00290673
0.00288736
0.00288003
0.00287243
0.00286976
0.00286515
0.00286345
0.00286013
0.0028588
0.00285621
0.00285535
0.00285328
0.00285284
0.00285098
0.00285132
0.00284974
0.00285644
0.00482224
0.00459577
0.00444178
0.00438189
0.00436031
0.00435485
0.0043474
0.0043469
0.00434244
0.0043426
0.00433976
0.00433984
0.00433803
0.00433825
0.00433686
0.00433713
0.00433611
0.00433626
0.00434371
0.00434635
0.00995571
0.010223
0.0102192
0.0102181
0.0102153
0.0102153
0.0102142
0.0102149
0.0102146
0.0102155
0.0102153
0.0102159
0.0102155
0.0102158
0.0102152
0.0102151
0.0102146
0.0102139
0.0102161
0.0102228
0.0280436
0.0280546
0.0280528
0.0280494
0.0280488
0.028047
0.0280473
0.028046
0.0280464
0.0280452
0.0280457
0.0280447
0.0280453
0.0280444
0.028045
0.0280442
0.0280448
0.0280442
0.0280448
0.0280442
0.0280449
0.0280444
0.0280451
0.0280448
0.0280456
0.0280454
0.0280462
0.0280461
0.028047
0.028047
0.0280479
0.028048
0.0280488
0.0280491
0.02805
0.0280504
0.0280514
0.0280519
0.0280531
0.0280537
0.0280549
0.0280556
0.0280569
0.0280576
0.0280589
0.0280598
0.0280611
0.0280621
0.0280636
0.0280648
0.0280664
0.0280678
0.0280696
0.0280711
0.0280729
0.0280746
0.0280765
0.0280783
0.0280803
0.0280823
0.0280844
0.0280866
0.028089
0.0280914
0.0280942
0.0280971
0.0281002
0.0281036
0.0281071
0.0281111
0.0281151
0.0281196
0.028124
0.0281292
0.0281342
0.02814
0.0281457
0.0281523
0.0281588
0.0281665
0.028174
0.0281828
0.0281914
0.0282013
0.0282112
0.0282222
0.0282332
0.0282453
0.0282557
0.0282685
0.0158816
0.0159502
0.0159465
0.0159442
0.0159403
0.0159392
0.0159373
0.0159372
0.0159364
0.0159367
0.0159362
0.0159366
0.0159364
0.0159367
0.0159366
0.015937
0.015937
0.0159373
0.0159374
0.0159378
0.0159379
0.0159384
0.0159386
0.0159391
0.0159394
0.01594
0.0159404
0.015941
0.0159414
0.0159421
0.0159426
0.0159433
0.0159439
0.0159446
0.0159453
0.0159461
0.0159469
0.0159478
0.0159486
0.0159497
0.0159506
0.0159516
0.0159526
0.0159537
0.0159548
0.015956
0.0159571
0.0159585
0.0159597
0.0159612
0.0159625
0.0159641
0.0159656
0.0159673
0.0159689
0.0159707
0.0159725
0.0159744
0.0159762
0.0159783
0.0159802
0.0159825
0.0159847
0.0159872
0.0159896
0.0159923
0.015995
0.0159981
0.0160011
0.0160045
0.0160078
0.0160116
0.0160152
0.0160194
0.0160232
0.0160279
0.0160321
0.0160372
0.0160419
0.0160475
0.0160526
0.0160588
0.0160644
0.0160712
0.0160772
0.0160845
0.0160907
0.0160986
0.0161037
0.0161096
0.0106618
0.0108153
0.0108089
0.010808
0.0108006
0.010801
0.010797
0.0107991
0.0107972
0.0107998
0.0107988
0.0108014
0.0108008
0.0108033
0.0108031
0.0108056
0.0108055
0.010808
0.0108082
0.0108106
0.010811
0.0108135
0.010814
0.0108165
0.0108173
0.0108198
0.0108207
0.0108233
0.0108244
0.010827
0.0108282
0.0108309
0.0108322
0.010835
0.0108365
0.0108393
0.010841
0.0108439
0.0108457
0.0108488
0.0108507
0.0108539
0.010856
0.0108592
0.0108614
0.0108647
0.0108672
0.0108706
0.0108732
0.0108768
0.0108795
0.0108833
0.0108862
0.0108901
0.0108932
0.0108973
0.0109005
0.0109047
0.0109081
0.0109125
0.0109161
0.0109206
0.0109244
0.0109291