/*--------------------------------*- C++ -*----------------------------------*\
  =========                 |
  \\      /  F ield         | OpenFOAM: The Open Source CFD Toolbox
   \\    /   O peration     | Website:  https://openfoam.org
    \\  /    A nd           | Version:  7
     \\/     M anipulation  |
\*---------------------------------------------------------------------------*/
FoamFile
{
    version     2.0;
    format      ascii;
    class       volScalarField;
    location    "0.025";
    object      pPrime2Mean;
}
// * * * * * * * * * * * * * * * * * * * * * * * * * * * * * * * * * * * * * //

dimensions      [2 -2 -4 0 0 0 0];

internalField   nonuniform List<scalar> 
7920
(
48129
123709
144422
215564
248849
310374
350813
403455
447108
492162
537226
576711
622499
657938
703996
735899
781318
809498
856618
886411
47638.6
122453
143052
213455
246593
307482
347731
399835
443264
487862
532683
571782
617320
652432
698243
729871
775043
802996
849743
879411
47863
123180
143808
214642
247860
309113
349471
401881
445437
490296
535254
574570
620250
655547
701497
733276
778592
806653
853659
883146
47649.5
122636
143210
213720
246873
307843
348117
400286
443743
488396
533248
572390
617958
653108
698950
730604
775801
803761
850511
879950
47766.6
123010
143600
214334
247527
308687
349017
401346
444869
489660
534583
573839
619482
654731
700647
732382
777655
805671
852592
881930
47697.9
122828
143401
214027
247199
308263
348566
400814
444304
489026
533914
573111
618715
653915
699796
731489
776720
804702
851527
880858
47697.9
122828
143401
214027
247199
308264
348566
400814
444304
489027
533915
573110
618715
653916
699798
731488
776717
804700
851529
880859
47766.7
123010
143600
214334
247527
308687
349018
401347
444869
489662
534587
573841
619480
654732
700653
732386
777654
805670
852595
881933
47649.6
122636
143210
213720
246873
307844
348119
400286
443742
488399
533253
572389
617956
653111
698958
730607
775794
803757
850519
879955
47863.3
123180
143808
214642
247860
309114
349474
401883
445437
490299
535261
574571
620247
655549
701508
733282
778587
806649
853667
883152
47638.9
122453
143053
213455
246592
307483
347734
399836
443263
487867
532690
571781
617316
652437
698255
729875
775035
802990
849755
879420
48129.5
123709
144423
215565
248849
310376
350819
403458
447108
492168
537235
576712
622496
657943
704010
735906
781311
809493
856630
886425
44833.1
114494
133883
203095
235156
296092
335521
388054
430918
475983
520456
559922
605303
640628
686444
718109
763430
791246
838229
867606
45070.5
115472
134930
204784
236950
298431
338007
391004
434045
479505
524177
563978
609567
645180
691207
723117
768648
796663
844006
873461
44877.8
114691
134117
203466
235549
296603
336062
388696
431596
476748
521262
560801
606225
641615
687475
719194
764552
792412
839405
868679
45013.6
115255
134722
204450
236598
297975
337522
390430
433436
478822
523456
563192
608740
644300
690287
722149
767641
795609
842927
872184
44917.6
114868
134319
203793
235898
297059
336548
389272
432207
477437
521991
561594
607058
642506
688409
720174
765572
793464
840554
869747
44962.8
115055
134519
204120
236247
297516
337035
389851
432821
478130
522725
562394
607899
643404
689352
721164
766608
794533
841753
870932
44962.7
115055
134519
204120
236247
297516
337035
389851
432820
478131
522726
562393
607898
643405
689353
721164
766606
794533
841752
870932
44917.6
114868
134319
203793
235898
297060
336549
389272
432206
477438
521994
561594
607056
642507
688414
720176
765569
793461
840561
869754
45013.5
115255
134722
204450
236597
297975
337524
390430
433434
478824
523459
563191
608736
644301
690294
722152
767635
795605
842933
872189
44877.7
114690
134117
203466
235548
296604
336064
388696
431593
476750
521267
560800
606220
641617
687484
719197
764545
792407
839417
868690
45070.3
115472
134930
204784
236948
298431
338009
391004
434042
479508
524182
563977
609561
645183
691217
723121
768639
796657
844017
873473
44832.9
114494
133882
203096
235155
296092
335523
388054
430915
475986
520462
559920
605296
640631
686455
718113
763421
791239
838241
867629
44879.3
111981
131407
199128
231227
291510
331032
383327
426300
471304
515874
555323
600770
636034
681868
713350
758622
786050
832974
861511
44877.6
111982
131408
199130
231229
291512
331034
383329
426302
471306
515876
555325
600771
636036
681870
713352
758623
786051
832974
861509
44877.2
111981
131406
199129
231227
291511
331033
383329
426302
471307
515876
555325
600772
636037
681872
713353
758624
786051
832976
861498
44876.3
111982
131408
199130
231229
291512
331035
383329
426302
471306
515876
555324
600770
636036
681871
713352
758621
786048
832975
861491
44876.1
111981
131406
199129
231227
291511
331034
383329
426301
471307
515877
555324
600770
636037
681873
713353
758621
786048
832976
861485
44875.8
111981
131407
199130
231228
291512
331035
383329
426301
471307
515878
555323
600769
636036
681874
713353
758619
786046
832978
861484
44875.8
111981
131407
199130
231227
291512
331035
383329
426300
471308
515879
555323
600768
636037
681876
713353
758618
786045
832978
861485
44876
111981
131406
199129
231226
291511
331035
383328
426300
471308
515880
555323
600767
636038
681878
713355
758618
786046
832982
861492
44876.1
111982
131407
199130
231228
291512
331036
383328
426300
471308
515880
555323
600766
636037
681878
713354
758615
786044
832982
861499
44877
111981
131406
199129
231226
291511
331035
383328
426299
471309
515881
555323
600767
636039
681881
713356
758617
786047
832987
861511
44877.2
111982
131407
199130
231228
291512
331036
383328
426299
471309
515881
555323
600765
636038
681880
713355
758614
786045
832986
861524
44878.9
111981
131406
199129
231226
291510
331034
383326
426297
471307
515880
555321
600764
636037
681879
713354
758613
786044
832986
861539
44879.3
111981
131407
199128
231227
291510
331032
383327
426300
471304
515874
555323
600770
636034
681868
713350
758622
786050
832973
861510
44877.6
111983
131408
199130
231229
291512
331034
383329
426302
471306
515875
555324
600771
636035
681869
713351
758623
786050
832973
861509
44877.3
111981
131407
199129
231227
291511
331034
383329
426302
471306
515876
555325
600771
636036
681871
713353
758623
786051
832975
861497
44876.4
111982
131408
199130
231229
291512
331035
383329
426301
471306
515876
555324
600770
636035
681871
713351
758621
786047
832974
861490
44876.2
111981
131406
199129
231227
291511
331034
383329
426301
471307
515877
555324
600770
636036
681873
713353
758621
786048
832976
861484
44875.8
111981
131407
199130
231228
291512
331035
383329
426301
471307
515878
555323
600768
636036
681874
713352
758619
786046
832977
861484
44875.8
111981
131407
199130
231227
291512
331035
383329
426300
471307
515878
555323
600767
636036
681875
713353
758617
786045
832978
861485
44876
111981
131406
199129
231226
291511
331035
383328
426300
471308
515879
555323
600767
636037
681877
713354
758617
786045
832982
861491
44876.1
111982
131407
199130
231228
291512
331036
383328
426299
471308
515880
555322
600766
636037
681878
713354
758615
786044
832981
861498
44877
111981
131406
199129
231226
291511
331035
383328
426299
471309
515881
555323
600766
636039
681880
713356
758616
786046
832986
861510
44877.2
111982
131407
199130
231228
291512
331035
383328
426299
471309
515881
555322
600765
636038
681880
713355
758614
786044
832985
861523
44878.9
111981
131406
199129
231226
291510
331033
383326
426297
471307
515879
555321
600763
636037
681879
713354
758612
786044
832985
861539
44833.4
114494
133883
203095
235156
296092
335521
388054
430917
475983
520455
559921
605301
640627
686443
718108
763428
791244
838227
867604
45070.7
115472
134931
204784
236949
298432
338007
391004
434045
479504
524176
563977
609566
645179
691205
723115
768647
796661
844004
873459
44878
114691
134117
203466
235549
296604
336063
388696
431595
476747
521261
560800
606224
641614
687474
719192
764551
792410
839403
868677
45013.7
115255
134722
204450
236598
297975
337522
390430
433436
478821
523455
563191
608739
644298
690286
722148
767640
795607
842925
872181
44917.7
114868
134319
203793
235898
297060
336548
389272
432206
477436
521990
561593
607057
642505
688408
720172
765571
793462
840551
869745
44962.8
115055
134519
204120
236247
297516
337035
389851
432820
478129
522724
562393
607898
643403
689351
721162
766606
794532
841751
870930
44962.7
115055
134519
204120
236247
297516
337035
389850
432820
478130
522725
562392
607897
643403
689352
721162
766604
794531
841749
870929
44917.6
114868
134318
203793
235897
297059
336549
389271
432205
477437
521993
561593
607055
642505
688413
720174
765568
793459
840559
869752
45013.4
115255
134722
204450
236597
297975
337523
390429
433434
478823
523458
563190
608735
644300
690293
722150
767634
795603
842930
872186
44877.5
114690
134116
203466
235548
296603
336063
388695
431592
476749
521266
560799
606218
641615
687483
719196
764543
792405
839415
868688
45070.2
115472
134930
204784
236948
298431
338008
391003
434041
479507
524181
563976
609560
645181
691216
723119
768638
796655
844014
873471
44832.7
114494
133882
203095
235154
296092
335522
388053
430914
475985
520461
559919
605295
640630
686454
718112
763419
791237
838239
867627
48130
123710
144423
215565
248850
310375
350816
403458
447110
492164
537227
576711
622500
657939
703996
735899
781318
809498
856617
886409
47639.3
122454
143053
213455
246593
307483
347732
399836
443264
487863
532683
571781
617319
652431
698242
729869
775042
802994
849741
879408
47863.6
123181
143808
214642
247860
309114
349472
401883
445439
490296
535254
574570
620250
655546
701497
733275
778591
806651
853657
883143
47649.9
122636
143210
213720
246873
307843
348117
400286
443743
488395
533247
572388
617957
653106
698948
730602
775798
803759
850508
879947
47766.9
123010
143600
214334
247527
308687
349017
401347
444869
489660
534583
573838
619481
654730
700646
732380
777653
805669
852589
881927
47698
122828
143401
214027
247198
308263
348565
400813
444302
489024
533912
573109
618713
653912
699793
731486
776717
804699
851523
880854
47697.9
122828
143400
214027
247198
308264
348565
400813
444302
489025
533913
573108
618712
653914
699796
731485
776714
804697
851525
880855
47766.5
123010
143599
214334
247526
308687
349017
401346
444866
489659
534584
573837
619477
654728
700649
732382
777650
805666
852590
881928
47649.3
122635
143209
213720
246872
307843
348117
400284
443740
488397
533250
572386
617952
653108
698955
730603
775791
803753
850515
879950
47862.8
123180
143807
214642
247858
309113
349471
401880
445433
490296
535257
574567
620242
655545
701504
733278
778582
806644
853662
883146
47638.3
122453
143052
213455
246591
307482
347731
399833
443259
487864
532687
571778
617312
652433
698251
729871
775031
802986
849749
879414
48128.6
123709
144421
215564
248847
310373
350814
403454
447103
492164
537230
576707
622491
657938
704004
735901
781306
809488
856624
886418
985192
1.00479e+06
1.12458e+06
1.13868e+06
1.23961e+06
1.21874e+06
1.27825e+06
1.24231e+06
1.29625e+06
1.24418e+06
1.24655e+06
1.14435e+06
1.11645e+06
1.04003e+06
1.02857e+06
938695
852824
665568
480541
287118
155150
70610.2
29688
11182.6
4262.22
1772.24
963.14
691.844
600.644
566.994
554.326
549.303
547.387
546.647
546.382
546.285
546.254
546.243
546.24
546.239
546.238
546.238
546.238
546.238
546.238
546.238
546.238
546.239
546.239
546.241
546.245
546.255
546.282
546.332
546.475
546.712
547.353
548.31
550.786
554.088
562.28
571.987
595.084
619.019
672.469
718.965
811.425
875.161
981.208
1037.84
1114.63
1151.21
1196.01
1222.69
1254.37
1274.71
1280.64
1288.43
1259.23
1259.12
1206.02
1200.47
1114.32
1103.49
981.751
968.7
805.076
791.203
562.452
548.587
966814
985924
1.10486e+06
1.11912e+06
1.21981e+06
1.19972e+06
1.25954e+06
1.22461e+06
1.27902e+06
1.22814e+06
1.23138e+06
1.13065e+06
1.10373e+06
1.02852e+06
1.01792e+06
929291
844635
658986
475438
283458
152592
68900.2
28535.3
10395.5
3687.05
1318.47
572.659
333.627
257.574
230.917
221.243
217.486
216.067
215.521
215.325
215.254
215.231
215.223
215.22
215.219
215.219
215.219
215.219
215.219
215.219
215.219
215.219
215.219
215.22
215.221
215.224
215.231
215.251
215.288
215.393
215.566
216.035
216.736
218.552
220.982
227.057
234.324
251.861
270.301
312.128
348.951
422.672
473.484
556.84
600.388
655.937
681.307
707.467
723.909
737.517
748.461
739.912
740.824
704.637
700.2
648.392
641.303
570.646
561.758
475.903
467.946
369.434
363.353
241.971
236.896
975195
994637
1.11384e+06
1.12783e+06
1.22844e+06
1.20782e+06
1.26733e+06
1.23179e+06
1.28582e+06
1.23432e+06
1.23708e+06
1.13568e+06
1.10829e+06
1.03255e+06
1.02156e+06
932431
847318
661124
477091
284644
153424
69462.7
28920.5
10663
3887.24
1480.44
714.918
465.957
385.274
356.489
345.906
341.765
340.195
339.59
339.374
339.295
339.269
339.26
339.258
339.257
339.257
339.257
339.257
339.257
339.257
339.257
339.257
339.257
339.257
339.259
339.262
339.27
339.292
339.333
339.449
339.642
340.163
340.942
342.959
345.657
352.381
360.399
379.656
399.805
445.278
485.165
564.914
619.967
711.013
759.169
822.713
852.54
886.85
907.869
930.443
946.057
946.27
951.298
922.109
920.988
873.356
868.432
796.037
787.687
690.349
681.229
555.925
547.143
375.246
367.771
967873
987114
1.10599e+06
1.12011e+06
1.2207e+06
1.20047e+06
1.26018e+06
1.2251e+06
1.27938e+06
1.22839e+06
1.23156e+06
1.13074e+06
1.10375e+06
1.02847e+06
1.01782e+06
929180
844544
658936
475425
283458
152594
68900
28537.5
10399.7
3694.15
1328.2
583.947
345.818
270.216
243.776
234.196
230.48
229.076
228.536
228.342
228.272
228.249
228.241
228.239
228.238
228.238
228.238
228.238
228.238
228.238
228.238
228.238
228.238
228.239
228.24
228.243
228.25
228.27
228.306
228.409
228.581
229.044
229.737
231.533
233.937
239.948
247.144
264.523
282.813
324.343
360.937
434.274
484.873
568.008
611.538
667.37
693.032
720.111
737.111
752.205
763.922
757.466
759.347
725.784
722.384
673.292
667.158
598.776
590.634
505.681
498.139
397.702
391.697
263.305
258.489
972560
992100
1.11118e+06
1.12521e+06
1.22581e+06
1.20532e+06
1.26489e+06
1.22949e+06
1.2836e+06
1.23227e+06
1.23517e+06
1.13397e+06
1.10671e+06
1.03111e+06
1.02023e+06
931272
846335
660366
476531
284256
153156
69280.2
28792.2
10571.6
3818.34
1425.27
667.155
422.048
343.193
315.256
305.037
301.05
299.54
298.959
298.751
298.675
298.65
298.642
298.64
298.639
298.638
298.638
298.638
298.638
298.638
298.638
298.639
298.639
298.639
298.64
298.644
298.651
298.673
298.712
298.823
299.008
299.509
300.256
302.193
304.783
311.248
318.968
337.543
357.019
401.067
439.768
517.218
570.683
658.939
705.483
766.398
794.827
826.771
846.475
866.642
880.991
879.112
883.147
852.687
850.868
802.932
797.66
726.782
718.554
625.506
616.956
500.064
492.25
334.937
328.326
970164
989583
1.10854e+06
1.12261e+06
1.2232e+06
1.20284e+06
1.26248e+06
1.22724e+06
1.28143e+06
1.23027e+06
1.23331e+06
1.13231e+06
1.10518e+06
1.02974e+06
1.01897e+06
930183
845414
659638
475975
283854
152869
69083.3
28660.8
10483.2
3754.6
1375.32
624.177
382.557
305.317
278.123
268.221
264.368
262.91
262.35
262.148
262.076
262.052
262.043
262.041
262.04
262.04
262.04
262.04
262.04
262.04
262.04
262.04
262.04
262.041
262.042
262.045
262.052
262.073
262.111
262.218
262.396
262.878
263.598
265.465
267.962
274.2
281.656
299.631
318.509
361.287
398.923
474.291
526.303
611.96
656.976
715.316
742.346
771.838
790.181
807.8
820.827
816.654
819.612
787.619
785.016
736.54
730.849
661.282
653.114
564.202
556.174
447.609
440.719
297.982
292.266
970154
989621
1.1086e+06
1.12267e+06
1.22328e+06
1.20292e+06
1.26256e+06
1.22732e+06
1.28152e+06
1.23036e+06
1.2334e+06
1.13239e+06
1.10526e+06
1.02982e+06
1.01905e+06
930259
845477
659692
476020
283895
152904
69109.5
28674.4
10489.2
3757.27
1376.56
624.905
383.099
305.792
278.568
268.653
264.794
263.334
262.773
262.571
262.499
262.474
262.466
262.464
262.463
262.463
262.463
262.463
262.463
262.463
262.463
262.463
262.463
262.464
262.465
262.468
262.475
262.496
262.534
262.641
262.82
263.302
264.023
265.892
268.392
274.638
282.102
300.095
318.99
361.803
399.466
474.882
526.922
612.62
657.653
716.01
743.047
772.545
790.892
808.511
821.538
817.347
820.297
788.268
785.654
737.133
731.428
661.798
653.616
564.636
556.594
447.971
441.07
298.363
292.631
972596
992095
1.11116e+06
1.12519e+06
1.22578e+06
1.20528e+06
1.26485e+06
1.22945e+06
1.28356e+06
1.23222e+06
1.23511e+06
1.13391e+06
1.10666e+06
1.03106e+06
1.02018e+06
931221
846286
660312
476476
284205
153113
69251.7
28778.4
10566.9
3817.4
1425.68
667.898
422.826
343.951
315.998
305.77
301.778
300.267
299.685
299.476
299.4
299.375
299.367
299.364
299.364
299.363
299.363
299.363
299.363
299.363
299.363
299.363
299.364
299.364
299.365
299.369
299.376
299.398
299.437
299.548
299.733
300.234
300.982
302.92
305.512
311.979
319.7
338.278
357.754
401.798
440.493
517.925
571.375
659.6
706.129
767.019
795.439
827.378
847.081
867.251
881.601
879.73
883.77
853.341
851.534
803.648
798.392
727.583
719.376
626.419
617.886
501.072
493.272
335.971
329.365
967890
987175
1.10607e+06
1.12019e+06
1.2208e+06
1.20057e+06
1.26028e+06
1.2252e+06
1.27949e+06
1.2285e+06
1.23166e+06
1.13084e+06
1.10385e+06
1.02857e+06
1.01792e+06
929268
844609
658979
475450
283480
152615
68920.2
28550.2
10406.4
3698.27
1330.89
585.962
347.54
271.794
245.283
235.671
231.94
230.53
229.988
229.794
229.723
229.7
229.692
229.69
229.689
229.689
229.689
229.689
229.689
229.689
229.689
229.689
229.689
229.69
229.691
229.694
229.701
229.721
229.757
229.861
230.033
230.498
231.193
232.994
235.406
241.433
248.646
266.061
284.382
325.971
362.608
436.013
486.649
569.83
613.376
669.218
694.885
721.969
738.978
754.077
765.796
759.318
761.192
727.597
724.191
675.066
668.925
600.498
592.35
507.363
499.812
399.341
393.327
264.992
260.151
975246
994656
1.11385e+06
1.12783e+06
1.22844e+06
1.20781e+06
1.26732e+06
1.23178e+06
1.28581e+06
1.2343e+06
1.23705e+06
1.13565e+06
1.10827e+06
1.03253e+06
1.02154e+06
932406
847281
661069
477025
284584
153376
69434.8
28908
10660.2
3887.66
1482.28
717.058
468.038
387.281
358.451
347.846
343.695
342.12
341.514
341.296
341.217
341.191
341.183
341.18
341.179
341.179
341.179
341.179
341.179
341.179
341.179
341.179
341.179
341.18
341.181
341.185
341.192
341.215
341.256
341.372
341.565
342.087
342.868
344.888
347.59
354.322
362.348
381.619
401.777
447.262
487.154
566.897
621.939
712.953
761.09
824.598
854.413
888.715
909.735
932.315
947.93
948.147
953.18
924.026
922.921
875.352
870.449
798.143
789.823
692.621
683.526
558.361
549.603
377.818
370.341
966822
985958
1.1049e+06
1.11916e+06
1.21986e+06
1.19977e+06
1.25959e+06
1.22466e+06
1.27907e+06
1.22819e+06
1.23143e+06
1.13069e+06
1.10377e+06
1.02857e+06
1.01797e+06
929332
844651
658978
475413
283439
152583
68903.2
28541.1
10399.3
3690.63
1321.65
575.382
336.093
259.887
233.15
223.439
219.664
218.238
217.689
217.492
217.421
217.397
217.389
217.387
217.386
217.386
217.386
217.386
217.386
217.386
217.386
217.386
217.386
217.386
217.387
217.391
217.398
217.418
217.455
217.56
217.734
218.205
218.908
220.73
223.169
229.26
236.545
254.118
272.587
314.466
351.322
425.089
475.921
559.288
602.832
658.359
683.721
709.868
726.311
739.917
750.859
742.287
743.192
706.997
702.563
650.769
643.687
573.057
564.185
478.402
470.456
372.031
365.962
244.762
239.672
985239
1.00481e+06
1.12459e+06
1.13868e+06
1.23959e+06
1.21872e+06
1.27821e+06
1.24226e+06
1.2962e+06
1.24412e+06
1.24646e+06
1.14426e+06
1.11636e+06
1.03994e+06
1.02849e+06
938593
852692
665420
480394
287008
155080
70578.9
29678.2
11182.5
4265.9
1777.15
968.268
696.824
605.496
571.773
559.069
554.03
552.106
551.364
551.097
551.001
550.969
550.958
550.955
550.954
550.954
550.954
550.954
550.954
550.954
550.954
550.954
550.954
550.955
550.956
550.961
550.97
550.998
551.048
551.191
551.429
552.071
553.031
555.513
558.823
567.032
576.756
599.888
623.852
677.354
723.885
816.395
880.156
986.231
1042.87
1119.68
1156.27
1201.11
1227.81
1259.54
1279.9
1285.86
1293.68
1264.53
1264.44
1211.41
1205.9
1119.83
1109.03
987.381
974.35
810.76
796.895
568.108
554.219
949919
971979
1.09196e+06
1.10887e+06
1.21074e+06
1.1926e+06
1.25363e+06
1.21993e+06
1.27547e+06
1.2255e+06
1.22982e+06
1.12961e+06
1.10349e+06
1.0287e+06
1.01893e+06
930706
846582
660655
476608
283798
152395
68436.1
28052.4
9991.07
3373.71
1075.03
371.417
155.737
91.1365
69.8872
62.5556
59.7941
58.7661
58.3733
58.2327
58.1818
58.165
58.1593
58.1576
58.1571
58.1569
58.1569
58.1569
58.1569
58.1569
58.1569
58.1569
58.157
58.1574
58.1582
58.1606
58.1655
58.1798
58.2061
58.2805
58.404
58.7382
59.2381
60.5391
62.292
66.7279
72.1155
85.4072
99.6801
132.816
162.476
222.592
264.144
331.753
366.431
408.471
426.974
442.83
453.634
458.316
464.52
450.157
448.183
411.148
405.209
356.26
348.66
286.838
278.418
209.05
201.826
130.202
124.864
54.3747
51.7926
967329
990448
1.11154e+06
1.12868e+06
1.23111e+06
1.21253e+06
1.27352e+06
1.23904e+06
1.29436e+06
1.24336e+06
1.24696e+06
1.1453e+06
1.11821e+06
1.04215e+06
1.03153e+06
941967
856532
668750
482944
288335
155520
70448.9
29328.5
10785
3889.08
1431.51
645.663
388.081
303.807
273.471
262.246
257.838
256.163
255.517
255.286
255.202
255.174
255.165
255.162
255.161
255.161
255.161
255.161
255.161
255.161
255.161
255.161
255.161
255.162
255.163
255.167
255.175
255.199
255.243
255.367
255.572
256.129
256.96
259.113
261.988
269.145
277.659
298.056
319.32
367.176
408.996
492.469
549.916
644.941
695.039
761.174
791.942
826.934
848.083
869.554
884.48
880.776
883.983
847.181
843.254
784.737
776.198
690.386
677.701
567.862
553.892
424.776
410.776
264.38
252.267
954145
976623
1.09686e+06
1.11389e+06
1.21595e+06
1.19777e+06
1.25883e+06
1.22498e+06
1.28052e+06
1.23034e+06
1.23451e+06
1.13395e+06
1.10759e+06
1.03248e+06
1.02251e+06
933947
849480
663040
478491
285150
153321
69023.1
28414.6
10205.9
3503.71
1156.84
428.322
199.961
129.406
105.405
96.8939
93.6331
92.4088
91.9393
91.771
91.7101
91.6899
91.6831
91.6811
91.6805
91.6803
91.6802
91.6802
91.6802
91.6802
91.6802
91.6803
91.6804
91.6809
91.6818
91.6847
91.6906
91.7078
91.7394
91.8287
91.977
92.3784
92.978
94.5352
96.6246
101.876
108.197
123.605
139.952
177.433
210.658
277.562
323.678
399.014
437.942
486.358
508.001
528.426
541.685
549.995
558.11
545.392
544.27
505.827
499.885
446.991
438.673
369.353
359.437
278.862
269.632
183.33
175.603
86.9423
81.8117
963895
987050
1.10796e+06
1.12507e+06
1.22742e+06
1.20893e+06
1.26995e+06
1.23562e+06
1.291e+06
1.2402e+06
1.24394e+06
1.14255e+06
1.11564e+06
1.0398e+06
1.02935e+06
940030
854842
667396
481899
287589
155002
70107.6
29104.3
10638.1
3787.28
1355.6
583.269
332.607
251.588
222.756
212.175
208.039
206.471
205.867
205.651
205.572
205.546
205.538
205.535
205.534
205.534
205.534
205.534
205.534
205.534
205.534
205.534
205.534
205.535
205.536
205.54
205.547
205.569
205.61
205.726
205.918
206.438
207.214
209.224
211.911
218.613
226.601
245.803
265.887
311.252
351.004
430.485
485.196
575.46
622.85
684.684
713.236
744.685
763.916
782.18
795.446
789.524
791.667
754.425
749.995
692.795
684.294
602.431
590.404
487.627
474.794
356.048
343.557
211.372
200.92
957327
980100
1.10054e+06
1.1176e+06
1.21975e+06
1.20147e+06
1.26252e+06
1.22851e+06
1.28399e+06
1.23361e+06
1.23764e+06
1.13681e+06
1.11027e+06
1.03491e+06
1.02478e+06
935971
851273
664505
479644
285975
153888
69385.6
28641.7
10344.9
3592.11
1216.41
473.04
237.136
163.045
137.412
128.201
124.644
123.304
122.789
122.604
122.537
122.515
122.508
122.505
122.505
122.504
122.504
122.504
122.504
122.504
122.504
122.504
122.505
122.505
122.506
122.509
122.516
122.535
122.569
122.668
122.831
123.272
123.931
125.641
127.931
133.67
140.551
157.233
174.833
214.954
250.362
321.466
370.448
450.752
492.491
545.356
569.288
593.363
608.602
620.207
630.027
619.548
619.504
581.446
576.003
521.676
513.297
439.818
429.204
341.28
330.858
233.833
224.536
121.634
114.742
960585
983600
1.10429e+06
1.12137e+06
1.22363e+06
1.20524e+06
1.26627e+06
1.2321e+06
1.28754e+06
1.23694e+06
1.24083e+06
1.13972e+06
1.11299e+06
1.03739e+06
1.0271e+06
938032
853090
665981
480798
286802
154457
69752.6
28875
10491
3687.88
1283.58
525.424
281.986
204.356
177.088
167.177
163.324
161.867
161.306
161.105
161.033
161.009
161
160.998
160.997
160.997
160.997
160.997
160.997
160.997
160.997
160.997
160.997
160.998
160.999
161.002
161.009
161.03
161.068
161.175
161.353
161.834
162.553
164.416
166.908
173.136
180.58
198.541
217.402
260.18
297.788
373.13
425.006
510.337
554.926
612.312
638.573
666.369
683.624
698.591
710.15
701.968
703.028
665.383
660.454
604.682
596.244
518.541
507.217
411.812
400.173
292.186
281.276
163.632
154.938
960561
983587
1.10426e+06
1.12134e+06
1.22359e+06
1.20521e+06
1.26624e+06
1.23207e+06
1.2875e+06
1.23691e+06
1.2408e+06
1.13969e+06
1.11296e+06
1.03736e+06
1.02707e+06
938006
853065
665959
480779
286788
154448
69748.2
28872.9
10490.1
3687.45
1283.26
525.135
281.709
204.082
176.815
166.904
163.05
161.593
161.033
160.832
160.759
160.735
160.727
160.724
160.724
160.723
160.723
160.723
160.723
160.723
160.723
160.723
160.724
160.724
160.725
160.729
160.736
160.756
160.794
160.901
161.079
161.56
162.279
164.142
166.634
172.861
180.304
198.26
217.116
259.884
297.482
372.801
424.661
509.96
554.532
611.888
638.136
665.912
683.157
698.107
709.656
701.458
702.51
664.857
659.923
604.15
595.709
518.016
506.692
411.321
399.688
291.79
280.893
163.426
154.75
957379
980142
1.1006e+06
1.11766e+06
1.21982e+06
1.20153e+06
1.26258e+06
1.22857e+06
1.28405e+06
1.23366e+06
1.2377e+06
1.13686e+06
1.11032e+06
1.03496e+06
1.02483e+06
936016
851314
664537
479667
285992
153899
69392.6
28646.3
10347.8
3593.94
1217.63
473.899
237.782
163.58
137.893
128.658
125.09
123.745
123.229
123.043
122.976
122.954
122.947
122.944
122.944
122.944
122.943
122.943
122.943
122.943
122.943
122.944
122.944
122.944
122.945
122.948
122.955
122.974
123.009
123.107
123.271
123.713
124.374
126.088
128.384
134.135
141.03
157.739
175.365
215.535
250.98
322.147
371.165
451.522
493.286
546.184
570.134
594.24
609.499
621.138
630.975
620.514
620.481
582.432
577
522.678
514.306
440.814
430.204
342.248
331.82
234.694
225.381
122.321
115.412
963896
987060
1.10796e+06
1.12507e+06
1.22741e+06
1.20893e+06
1.26994e+06
1.23561e+06
1.29099e+06
1.24019e+06
1.24394e+06
1.14254e+06
1.11563e+06
1.03979e+06
1.02934e+06
940024
854835
667386
481886
287579
154995
70104.9
29104.2
10638.9
3788.04
1356.12
583.566
332.752
251.647
222.771
212.169
208.024
206.452
205.847
205.63
205.551
205.525
205.516
205.514
205.513
205.513
205.512
205.512
205.512
205.512
205.512
205.513
205.513
205.513
205.515
205.518
205.526
205.548
205.589
205.705
205.897
206.418
207.195
209.209
211.9
218.61
226.607
245.824
265.922
311.306
351.07
430.56
485.271
575.519
622.897
684.703
713.245
744.686
763.917
782.182
795.446
789.513
791.654
754.414
749.988
692.8
684.303
602.455
590.435
487.698
474.868
356.182
343.7
211.685
201.251
954221
976691
1.09694e+06
1.11397e+06
1.21603e+06
1.19784e+06
1.25891e+06
1.22506e+06
1.2806e+06
1.23041e+06
1.23458e+06
1.13401e+06
1.10765e+06
1.03254e+06
1.02257e+06
933999
849524
663071
478509
285161
153329
69030
28420
10209.8
3506.31
1158.49
429.36
200.635
129.889
105.793
97.2387
93.9589
92.7268
92.2542
92.0847
92.0233
92.0031
91.9962
91.9942
91.9935
91.9933
91.9933
91.9933
91.9933
91.9933
91.9933
91.9934
91.9935
91.9939
91.9949
91.9978
92.0037
92.021
92.0528
92.1426
92.2918
92.6952
93.298
94.8626
96.9612
102.233
108.577
124.031
140.42
177.978
211.259
278.253
324.42
399.824
438.781
487.233
508.898
529.365
542.655
551.016
559.155
546.461
545.354
506.929
501.004
448.126
439.821
370.493
360.587
279.991
270.758
184.371
176.633
87.881
82.739
967338
990453
1.11154e+06
1.12867e+06
1.2311e+06
1.21251e+06
1.2735e+06
1.23902e+06
1.29434e+06
1.24334e+06
1.24694e+06
1.14527e+06
1.11819e+06
1.04212e+06
1.03151e+06
941950
856513
668728
482919
288314
155505
70441.7
29326.6
10785.4
3889.96
1432.15
646.037
388.262
303.876
273.481
262.227
257.806
256.126
255.479
255.246
255.162
255.134
255.125
255.122
255.121
255.121
255.121
255.121
255.121
255.121
255.121
255.121
255.121
255.122
255.123
255.127
255.135
255.159
255.203
255.327
255.533
256.091
256.924
259.081
261.96
269.128
277.651
298.066
319.344
367.217
409.043
492.511
549.944
644.926
694.995
761.08
791.83
826.813
847.965
869.451
884.382
880.691
883.906
847.152
843.247
784.805
776.291
690.568
677.914
568.197
554.248
425.241
411.259
265.075
252.997
949999
972035
1.09202e+06
1.10892e+06
1.21079e+06
1.19264e+06
1.25367e+06
1.21995e+06
1.27549e+06
1.22551e+06
1.22983e+06
1.12961e+06
1.10349e+06
1.0287e+06
1.01892e+06
930702
846569
660636
476585
283783
152389
68438.3
28057.1
9995.31
3376.58
1076.8
372.384
156.195
91.3208
69.9346
62.5408
59.752
58.7128
58.3155
58.1732
58.1217
58.1047
58.0989
58.0972
58.0967
58.0965
58.0965
58.0965
58.0965
58.0965
58.0965
58.0965
58.0967
58.097
58.0978
58.1003
58.1052
58.1197
58.1463
58.2214
58.3461
58.6835
59.188
60.5003
62.2672
66.7354
72.158
85.5237
99.8636
133.128
162.883
223.16
264.807
332.553
367.298
409.422
427.972
443.904
454.758
459.517
465.759
451.421
449.465
412.426
406.502
357.532
349.937
288.044
279.623
210.161
202.923
131.153
125.798
55.2013
52.6083
950609
976833
1.09738e+06
1.11679e+06
1.21969e+06
1.20296e+06
1.26492e+06
1.23182e+06
1.28825e+06
1.23838e+06
1.24313e+06
1.14227e+06
1.11609e+06
1.04066e+06
1.03094e+06
941955
857166
669379
483352
288236
155108
69915
28843.1
10405.1
3606.27
1218.34
473.403
238.107
164.666
139.419
130.391
126.916
125.608
125.105
124.925
124.86
124.839
124.831
124.829
124.829
124.828
124.828
124.828
124.828
124.828
124.828
124.828
124.828
124.829
124.83
124.833
124.839
124.858
124.892
124.987
125.146
125.576
126.218
127.885
130.119
135.724
142.452
158.801
176.075
215.552
250.421
320.544
368.802
447.863
488.776
540.269
563.355
585.919
600.247
609.957
618.757
605.936
604.825
563.994
557.418
499.771
490.183
413.049
401.167
309.158
297.43
196.118
185.84
85.8227
79.0602
950675
976895
1.09745e+06
1.11685e+06
1.21976e+06
1.20303e+06
1.26499e+06
1.23189e+06
1.28832e+06
1.23846e+06
1.2432e+06
1.14234e+06
1.11615e+06
1.04072e+06
1.031e+06
942016
857224
669430
483393
288265
155127
69926.4
28849.6
10408.6
3608.07
1219.25
473.85
238.317
164.762
139.462