/*--------------------------------*- C++ -*----------------------------------*\
  =========                 |
  \\      /  F ield         | OpenFOAM: The Open Source CFD Toolbox
   \\    /   O peration     | Website:  https://openfoam.org
    \\  /    A nd           | Version:  7
     \\/     M anipulation  |
\*---------------------------------------------------------------------------*/
FoamFile
{
    version     2.0;
    format      ascii;
    class       volScalarField;
    location    "2.85";
    object      k_0;
}
// * * * * * * * * * * * * * * * * * * * * * * * * * * * * * * * * * * * * * //

dimensions      [0 2 -2 0 0 0 0];

internalField   nonuniform List<scalar> 
7920
(
52.0227
56.466
56.4709
56.5221
56.4312
56.4464
56.3805
56.4009
56.3586
56.3789
56.3479
56.3641
56.3409
56.3505
56.3389
56.3369
56.3502
56.3058
56.4334
56.4942
13.8415
14.0083
13.4294
12.8772
12.6121
12.5104
12.4216
12.3961
12.35
12.3407
12.3114
12.3065
12.2895
12.2876
12.2772
12.2738
12.2701
12.2599
12.4345
12.4366
8.08876
9.22709
9.34509
9.33001
9.2894
9.27901
9.25366
9.24907
9.23174
9.22839
9.21475
9.2121
9.20138
9.19915
9.19086
9.18858
9.18246
9.17885
9.18308
9.20759
7.48698
8.75928
9.01228
9.10437
9.1283
9.16171
9.16699
9.1845
9.18544
9.19589
9.19509
9.20196
9.2004
9.20521
9.20339
9.20684
9.20496
9.20734
9.20768
9.23057
7.42211
8.7057
8.97174
9.08024
9.1177
9.16515
9.18076
9.21287
9.22253
9.24585
9.25262
9.27061
9.27551
9.28975
9.29342
9.3049
9.30765
9.31621
9.31971
9.34523
7.42903
8.70225
8.96667
9.07677
9.11802
9.1704
9.19096
9.22929
9.24369
9.27385
9.28504
9.30949
9.31843
9.33859
9.34579
9.36255
9.36844
9.38131
9.38861
9.41496
7.42903
8.70225
8.96666
9.07677
9.11802
9.1704
9.19096
9.22929
9.24368
9.27385
9.28504
9.3095
9.31842
9.33861
9.34578
9.36259
9.36844
9.38138
9.38867
9.41504
7.42211
8.70571
8.97174
9.08024
9.11769
9.16516
9.18075
9.21288
9.22252
9.24588
9.25259
9.27066
9.27547
9.28984
9.29336
9.30504
9.30759
9.31642
9.31974
9.34553
7.48697
8.75928
9.01227
9.10437
9.12828
9.16172
9.16698
9.18452
9.18542
9.19593
9.19502
9.20206
9.20026
9.20544
9.2031
9.20731
9.20444
9.2083
9.207
9.23146
8.08876
9.22709
9.34509
9.33002
9.28939
9.27902
9.25364
9.2491
9.23169
9.22845
9.21464
9.21225
9.2011
9.1995
9.19022
9.18942
9.18094
9.1816
9.18068
9.21097
13.8415
14.0083
13.4294
12.8773
12.6121
12.5104
12.4215
12.3962
12.3499
12.3408
12.3112
12.3067
12.289
12.2882
12.276
12.2756
12.267
12.2654
12.423
12.4485
52.0227
56.466
56.4709
56.5222
56.4312
56.4465
56.3804
56.4012
56.3583
56.3795
56.3471
56.3654
56.3388
56.3539
56.3334
56.346
56.3348
56.332
56.3853
56.5748
7.67321
9.66772
9.74756
9.61986
9.58175
9.51074
9.50632
9.46619
9.46694
9.43973
9.44172
9.42178
9.42412
9.4084
9.41136
9.39683
9.40345
9.38261
9.39402
9.42871
6.02163
8.25112
8.58972
8.63396
8.63689
8.63619
8.63321
8.63148
8.62848
8.62631
8.62366
8.62104
8.61935
8.61637
8.61579
8.61226
8.61275
8.60809
8.61579
8.61912
5.70496
7.90946
8.26117
8.3323
8.3431
8.35924
8.36341
8.37434
8.3777
8.3859
8.38847
8.39433
8.39667
8.40058
8.40337
8.40517
8.40897
8.40837
8.41107
8.44184
5.69662
7.90079
8.24988
8.31808
8.32245
8.33145
8.3305
8.33556
8.33615
8.34097
8.34229
8.34668
8.34845
8.35216
8.35473
8.35697
8.36077
8.36113
8.36457
8.38472
5.68482
7.88529
8.23436
8.30456
8.30834
8.31643
8.31347
8.31691
8.31503
8.31795
8.31703
8.31963
8.31951
8.32182
8.32234
8.3246
8.32546
8.32753
8.32886
8.35003
5.69116
7.89338
8.24155
8.31134
8.315
8.3231
8.32003
8.32339
8.32115
8.32376
8.32223
8.32436
8.32347
8.32531
8.32497
8.32662
8.32671
8.32821
8.32851
8.34798
5.69116
7.89338
8.24155
8.31134
8.315
8.3231
8.32003
8.32339
8.32115
8.32376
8.32223
8.32437
8.32346
8.32533
8.32495
8.32664
8.3267
8.32821
8.32853
8.34794
5.68482
7.88529
8.23436
8.30457
8.30833
8.31643
8.31346
8.31692
8.31502
8.31797
8.317
8.31967
8.31947
8.32191
8.32227
8.32471
8.32534
8.32766
8.32871
8.35005
5.69661
7.90079
8.24988
8.31809
8.32245
8.33145
8.33049
8.33558
8.33613
8.34101
8.34224
8.34678
8.34835
8.35241
8.3542
8.35764
8.3599
8.3617
8.36406
8.38526
5.70496
7.90947
8.26116
8.3323
8.34308
8.35926
8.36339
8.37437
8.37767
8.38596
8.38839
8.3945
8.39639
8.40107
8.40256
8.4064
8.40723
8.41048
8.4086
8.44419
6.02163
8.25113
8.58972
8.63396
8.63688
8.6362
8.63319
8.63152
8.62842
8.62641
8.6235
8.62129
8.61895
8.61698
8.61498
8.61364
8.61054
8.61146
8.61
8.62712
7.67321
9.66773
9.74756
9.61987
9.58174
9.51075
9.5063
9.46623
9.46688
9.43981
9.44159
9.422
9.4238
9.40896
9.41054
9.39833
9.40114
9.38702
9.38721
9.44043
0.477093
1.03581
1.13362
1.10424
1.03041
0.963642
0.911889
0.875202
0.848226
0.827358
0.812221
0.798466
0.788966
0.778737
0.772282
0.764388
0.759288
0.754581
0.746597
0.754381
0.08588
0.382295
0.526332
0.588384
0.610348
0.624177
0.631061
0.63866
0.642428
0.646516
0.647886
0.649535
0.649639
0.649896
0.649576
0.649381
0.648804
0.648335
0.647611
0.650403
0.0641886
0.299882
0.416301
0.474617
0.493009
0.506573
0.509722
0.516159
0.518426
0.523357
0.525777
0.530173
0.532811
0.536444
0.539183
0.542099
0.544838
0.547236
0.549049
0.553561
0.0680499
0.303544
0.417595
0.473451
0.49145
0.502761
0.504432
0.507434
0.507573
0.508572
0.508844
0.509799
0.510352
0.511374
0.512453
0.513233
0.514794
0.515515
0.516851
0.52021
0.0662059
0.299537
0.412455
0.468316
0.48589
0.497171
0.498557
0.501283
0.501049
0.501533
0.501228
0.501436
0.501276
0.501395
0.501424
0.50151
0.501772
0.501862
0.502144
0.504308
0.06724
0.301774
0.415102
0.470738
0.488467
0.49963
0.501176
0.503831
0.503644
0.504074
0.503768
0.503885
0.503664
0.503657
0.503579
0.503459
0.503488
0.503398
0.503527
0.505404
0.0672399
0.301774
0.415102
0.470738
0.488467
0.49963
0.501176
0.503832
0.503644
0.504075
0.503768
0.503886
0.503664
0.503657
0.503579
0.503461
0.503487
0.503399
0.503525
0.505402
0.0662056
0.299537
0.412455
0.468316
0.48589
0.497171
0.498557
0.501283
0.501049
0.501533
0.501228
0.501437
0.501275
0.501397
0.501424
0.501509
0.501771
0.501859
0.502141
0.504296
0.0680495
0.303545
0.417595
0.473452
0.49145
0.502761
0.504431
0.507435
0.507573
0.508573
0.508843
0.509804
0.51034
0.511392
0.512423
0.513254
0.514762
0.515504
0.516824
0.520164
0.0641882
0.299882
0.4163
0.474618
0.493008
0.506574
0.509722
0.51616
0.518425
0.523362
0.525766
0.530187
0.532786
0.536475
0.539127
0.542142
0.544756
0.547241
0.548993
0.553457
0.0858797
0.382296
0.526332
0.588385
0.610346
0.62418
0.631056
0.638666
0.642418
0.64653
0.647865
0.649554
0.649627
0.649907
0.649513
0.649398
0.64869
0.648404
0.647442
0.6504
0.477093
1.03581
1.13362
1.10424
1.03041
0.963646
0.911886
0.87521
0.848218
0.827379
0.812203
0.798517
0.788928
0.778856
0.7722
0.764672
0.759114
0.755183
0.746429
0.7555
0.477093
1.03581
1.13362
1.10424
1.03041
0.963642
0.911889
0.875202
0.848226
0.827358
0.812221
0.798466
0.788966
0.778737
0.772282
0.764388
0.759288
0.754581
0.746597
0.754381
0.08588
0.382295
0.526332
0.588384
0.610348
0.624177
0.631061
0.63866
0.642428
0.646516
0.647886
0.649535
0.649639
0.649896
0.649576
0.649381
0.648804
0.648335
0.647611
0.650403
0.0641886
0.299882
0.416301
0.474617
0.493009
0.506573
0.509722
0.516159
0.518426
0.523357
0.525777
0.530174
0.532811
0.536444
0.539183
0.542099
0.544838
0.547236
0.549049
0.553561
0.0680499
0.303545
0.417595
0.473451
0.49145
0.502761
0.504432
0.507434
0.507573
0.508572
0.508844
0.509799
0.510352
0.511374
0.512453
0.513233
0.514794
0.515515
0.516851
0.52021
0.0662059
0.299537
0.412455
0.468316
0.48589
0.497171
0.498557
0.501283
0.501049
0.501533
0.501228
0.501436
0.501276
0.501395
0.501424
0.50151
0.501772
0.501862
0.502144
0.504308
0.06724
0.301774
0.415102
0.470738
0.488467
0.49963
0.501176
0.503831
0.503644
0.504074
0.503768
0.503885
0.503664
0.503657
0.503579
0.503459
0.503488
0.503398
0.503527
0.505404
0.0672399
0.301774
0.415102
0.470738
0.488467
0.49963
0.501176
0.503832
0.503644
0.504075
0.503768
0.503886
0.503664
0.503657
0.503579
0.503461
0.503487
0.503399
0.503525
0.505402
0.0662056
0.299537
0.412455
0.468316
0.48589
0.497171
0.498557
0.501283
0.501049
0.501533
0.501228
0.501437
0.501275
0.501397
0.501424
0.501509
0.501771
0.501859
0.502141
0.504296
0.0680495
0.303545
0.417595
0.473452
0.49145
0.502761
0.504431
0.507435
0.507573
0.508573
0.508843
0.509805
0.51034
0.511392
0.512423
0.513254
0.514762
0.515504
0.516824
0.520164
0.0641882
0.299882
0.4163
0.474618
0.493008
0.506574
0.509722
0.51616
0.518425
0.523362
0.525766
0.530187
0.532786
0.536475
0.539127
0.542142
0.544756
0.547241
0.548993
0.553457
0.0858797
0.382296
0.526332
0.588385
0.610346
0.62418
0.631056
0.638666
0.642418
0.64653
0.647865
0.649554
0.649627
0.649907
0.649513
0.649398
0.64869
0.648404
0.647442
0.6504
0.477093
1.03581
1.13362
1.10424
1.03041
0.963646
0.911886
0.87521
0.848218
0.827379
0.812203
0.798517
0.788928
0.778856
0.7722
0.764672
0.759114
0.755183
0.746429
0.7555
7.67321
9.66772
9.74756
9.61987
9.58175
9.51074
9.50632
9.46619
9.46694
9.43972
9.44172
9.42178
9.42412
9.4084
9.41136
9.39683
9.40345
9.38261
9.39402
9.42871
6.02163
8.25112
8.58972
8.63396
8.63689
8.63619
8.63321
8.63148
8.62848
8.62631
8.62366
8.62104
8.61934
8.61637
8.61579
8.61226
8.61275
8.60809
8.61579
8.61912
5.70496
7.90946
8.26117
8.3323
8.3431
8.35924
8.36341
8.37434
8.3777
8.3859
8.38847
8.39433
8.39666
8.40058
8.40337
8.40517
8.40897
8.40837
8.41107
8.44184
5.69662
7.90079
8.24988
8.31808
8.32245
8.33145
8.3305
8.33556
8.33615
8.34097
8.34229
8.34668
8.34845
8.35216
8.35473
8.35697
8.36077
8.36113
8.36457
8.38472
5.68482
7.88529
8.23436
8.30456
8.30834
8.31643
8.31347
8.31691
8.31503
8.31795
8.31703
8.31963
8.31951
8.32182
8.32234
8.3246
8.32546
8.32753
8.32886
8.35003
5.69116
7.89338
8.24155
8.31134
8.315
8.3231
8.32003
8.32339
8.32115
8.32376
8.32223
8.32436
8.32347
8.32531
8.32497
8.32662
8.32671
8.32821
8.32851
8.34798
5.69116
7.89338
8.24155
8.31134
8.315
8.3231
8.32003
8.32339
8.32115
8.32376
8.32223
8.32437
8.32346
8.32533
8.32495
8.32664
8.3267
8.32821
8.32853
8.34794
5.68482
7.88529
8.23436
8.30457
8.30833
8.31643
8.31346
8.31692
8.31502
8.31797
8.317
8.31967
8.31947
8.32191
8.32227
8.32471
8.32534
8.32766
8.32871
8.35005
5.69661
7.90079
8.24988
8.31809
8.32245
8.33145
8.33049
8.33558
8.33613
8.34101
8.34224
8.34678
8.34835
8.35241
8.3542
8.35764
8.3599
8.3617
8.36406
8.38526
5.70496
7.90947
8.26116
8.3323
8.34308
8.35926
8.36339
8.37437
8.37767
8.38596
8.38839
8.3945
8.39639
8.40107
8.40256
8.4064
8.40723
8.41048
8.4086
8.44419
6.02163
8.25113
8.58972
8.63396
8.63688
8.6362
8.63319
8.63152
8.62842
8.62641
8.6235
8.62129
8.61895
8.61698
8.61498
8.61364
8.61054
8.61146
8.61
8.62712
7.67321
9.66773
9.74756
9.61987
9.58174
9.51075
9.5063
9.46623
9.46688
9.43981
9.44159
9.422
9.4238
9.40896
9.41054
9.39833
9.40114
9.38702
9.38721
9.44043
52.0227
56.466
56.4709
56.5221
56.4312
56.4464
56.3805
56.4009
56.3586
56.3789
56.3479
56.3641
56.3409
56.3505
56.3389
56.3369
56.3502
56.3058
56.4334
56.4942
13.8415
14.0083
13.4294
12.8772
12.6121
12.5104
12.4216
12.3961
12.35
12.3407
12.3114
12.3065
12.2895
12.2876
12.2772
12.2738
12.2701
12.2599
12.4345
12.4366
8.08876
9.22709
9.34509
9.33001
9.2894
9.27901
9.25366
9.24907
9.23174
9.22839
9.21475
9.2121
9.20138
9.19915
9.19086
9.18858
9.18246
9.17885
9.18308
9.20759
7.48698
8.75928
9.01228
9.10437
9.1283
9.16171
9.16699
9.1845
9.18544
9.19589
9.19509
9.20196
9.2004
9.20521
9.20339
9.20684
9.20496
9.20734
9.20768
9.23057
7.42211
8.7057
8.97174
9.08024
9.1177
9.16515
9.18076
9.21287
9.22253
9.24585
9.25262
9.27061
9.27551
9.28975
9.29342
9.3049
9.30765
9.31621
9.31971
9.34523
7.42903
8.70225
8.96667
9.07677
9.11802
9.1704
9.19096
9.22929
9.24369
9.27385
9.28504
9.30949
9.31843
9.33859
9.34579
9.36255
9.36844
9.38131
9.38861
9.41496
7.42903
8.70225
8.96666
9.07677
9.11802
9.1704
9.19096
9.22929
9.24368
9.27385
9.28504
9.3095
9.31842
9.33861
9.34578
9.36259
9.36844
9.38138
9.38867
9.41504
7.42211
8.70571
8.97174
9.08024
9.11769
9.16516
9.18075
9.21288
9.22252
9.24588
9.25259
9.27066
9.27547
9.28984
9.29336
9.30504
9.30759
9.31642
9.31974
9.34553
7.48697
8.75928
9.01227
9.10437
9.12828
9.16172
9.16698
9.18452
9.18542
9.19593
9.19502
9.20206
9.20026
9.20544
9.2031
9.20731
9.20444
9.2083
9.207
9.23146
8.08876
9.22709
9.34509
9.33002
9.28939
9.27902
9.25364
9.2491
9.23169
9.22845
9.21464
9.21225
9.2011
9.1995
9.19022
9.18942
9.18094
9.1816
9.18068
9.21097
13.8415
14.0083
13.4294
12.8773
12.6121
12.5104
12.4215
12.3962
12.3499
12.3408
12.3112
12.3067
12.289
12.2882
12.276
12.2756
12.267
12.2654
12.423
12.4485
52.0227
56.466
56.4709
56.5222
56.4312
56.4465
56.3804
56.4012
56.3583
56.3795
56.3471
56.3655
56.3388
56.3539
56.3334
56.346
56.3348
56.332
56.3853
56.5748
144.12
146.283
147.336
148.208
148.886
149.527
150.057
150.578
151.032
151.486
151.89
152.296
152.663
153.034
153.377
153.725
154.05
154.379
154.69
155.004
155.303
155.605
155.895
156.187
156.467
156.748
157.019
157.289
157.548
157.805
158.048
158.287
158.511
158.727
158.926
159.114
159.283
159.438
159.574
159.696
159.797
159.886
159.957
160.017
160.062
160.1
160.125
160.146
160.158
160.169
160.174
160.179
160.18
160.182
160.181
160.182
160.181
160.182
160.18
160.18
160.179
160.179
160.178
160.178
160.177
160.177
160.175
160.176
160.174
160.175
160.173
160.174
160.172
160.172
160.171
160.171
160.17
160.17
160.169
160.169
160.167
160.167
160.165
160.165
160.163
160.163
160.159
160.16
160.125
160.105
47.2888
49.0641
49.3948
49.6928
49.8924
50.1157
50.2732
50.4567
50.5926
50.753
50.8752
51.0185
51.1302
51.2612
51.3663
51.4891
51.5895
51.7055
51.8019
51.9124
52.0057
52.1122
52.203
52.3056
52.3938
52.4926
52.578
52.6728
52.7548
52.8448
52.9221
53.0058
53.0768
53.1527
53.2156
53.2819
53.3349
53.3902
53.4325
53.4762
53.5075
53.5402
53.5614
53.5844
53.5973
53.6125
53.6191
53.6288
53.6313
53.6375
53.6377
53.6419
53.641
53.6441
53.6428
53.6454
53.644
53.6464
53.6451
53.6474
53.6461
53.6483
53.6471
53.6492
53.6482
53.6502
53.6492
53.6512
53.6503
53.6523
53.6514
53.6533
53.6525
53.6544
53.6536
53.6554
53.6547
53.6564
53.6557
53.6574
53.6566
53.6583
53.6574
53.659
53.6579
53.6594
53.6576
53.6599
53.6418
53.6332
30.5036
32.5279
32.7285
32.9209
33.019
33.1698
33.249
33.3749
33.4445
33.5558
33.6202
33.7207
33.7807
33.8728
33.9303
34.0168
34.0729
34.1551
34.2098
34.2882
34.3419
34.4174
34.4705
34.5434
34.5957
34.666
34.7171
34.7848
34.8344
34.899
34.9464
35.0071
35.051
35.1067
35.1461
35.1956
35.2292
35.2717
35.2986
35.3334
35.3535
35.3808
35.3944
35.415
35.423
35.438
35.4419
35.4526
35.4538
35.4615
35.4612
35.4672
35.4661
35.4712
35.4699
35.4745
35.4732
35.4775
35.4763
35.4805
35.4794
35.4835
35.4825
35.4865
35.4857
35.4895
35.4888
35.4926
35.492
35.4957
35.4952
35.4988
35.4984
35.5019
35.5015
35.505
35.5047
35.5081
35.5078
35.5111
35.5108
35.514
35.5137
35.5168
35.5163
35.5194
35.5185
35.5219
35.517
35.498
28.277
30.6982
30.8912
31.0568
31.1219
31.2553
31.3105
31.4236
31.4731
31.5749
31.6231
31.7171
31.7635
31.8503
31.8956
31.9779
32.0236
32.1024
32.148
32.2236
32.2691
32.3422
32.3879
32.4589
32.5046
32.5734
32.6187
32.6853
32.7299
32.794
32.8372
32.898
32.9388
32.9954
33.0326
33.0839
33.1164
33.1613
33.1881
33.226
33.2465
33.2772
33.2916
33.3155
33.3245
33.3426
33.3474
33.3608
33.3627
33.3727
33.3729
33.3809
33.3803
33.3871
33.3861
33.3924
33.3914
33.3973
33.3964
33.4021
33.4014
33.4069
33.4064
33.4118
33.4114
33.4167
33.4164
33.4216
33.4214
33.4265
33.4265
33.4315
33.4315
33.4364
33.4366
33.4414
33.4416
33.4463
33.4465
33.4511
33.4513
33.4559
33.4561
33.4605
33.4606
33.465
33.4649
33.4691
33.4699
33.4473
28.1149
30.7775
30.9752
31.1263
31.168
31.2861
31.325
31.4267
31.4629
31.5562
31.5942
31.6828
31.7211
31.8043
31.8427
31.9226
31.9626
32.0405
32.0814
32.1566
32.1981
32.2712
32.3137
32.3853
32.4285
32.4982
32.5415
32.6093
32.6525
32.7182
32.7606
32.8234
32.8641
32.9231
32.9608
33.0149
33.0483
33.0964
33.1246
33.1658
33.1879
33.2219
33.2378
33.2649
33.2753
33.2962
33.3021
33.3178
33.3206
33.3325
33.3333
33.3428
33.3426
33.3508
33.3502
33.3576
33.357
33.364
33.3635
33.3703
33.37
33.3766
33.3764
33.3828
33.3829
33.3892
33.3893
33.3955
33.3958
33.4019
33.4023
33.4083
33.4088
33.4147
33.4153
33.4211
33.4217
33.4274
33.4281
33.4337
33.4344
33.4398
33.4405
33.4458
33.4464
33.4517
33.4521
33.4569
33.4595
33.4348
28.2012
31.0134
31.2119
31.3473
31.3688
31.4682
31.4922
31.5793
31.6035
31.6856
31.7146
31.7953
31.8268
31.9043
31.9373
32.013
32.0487
32.1239
32.1614
32.235
32.2737
32.3458
32.3862
32.4573
32.4989
32.5686
32.6108
32.679
32.7216
32.7879
32.8302
32.894
32.9348
32.9951
33.0333
33.0889
33.1232
33.1731
33.2022
33.2452
33.2684
33.3042
33.3212
33.3501
33.3613
33.3838
33.3905
33.4074
33.4108
33.4237
33.4249
33.4353
33.4354
33.4442
33.444
33.452
33.4517
33.4593
33.459
33.4663
33.4663
33.4734
33.4735
33.4805
33.4808
33.4877
33.4881
33.4949
33.4954
33.5021
33.5028
33.5093
33.5101
33.5165
33.5174
33.5237
33.5246
33.5308
33.5318
33.5379
33.5389
33.5449
33.5458
33.5517
33.5526
33.5583
33.5593
33.5642
33.5684
33.5423
28.2028
31.0035
31.1828
31.297
31.2999
31.3796
31.3897
31.4616
31.4752
31.5457
31.5667
31.6386
31.664
31.7348
31.7631
31.8337
31.8658
31.9371
31.9717
32.0424
32.0788
32.1488
32.1873
32.2568
32.297
32.3655
32.4067
32.474
32.5158
32.5816
32.6233
32.6867
32.7271
32.7871
32.8249
32.8803
32.9144
32.964
32.993
33.0359
33.0589
33.0946
33.1115
33.1402
33.1515
33.1738
33.1805
33.1974
33.2007
33.2136
33.2149
33.2252
33.2254
33.2342
33.2339
33.2419
33.2416
33.2492
33.2489
33.2563
33.2562
33.2634
33.2635
33.2705
33.2708
33.2776
33.2781
33.2848
33.2854
33.292
33.2927
33.2993
33.3
33.3065
33.3073
33.3137
33.3146
33.3208
33.3218
33.3279
33.3289
33.3348
33.3358
33.3416
33.3426
33.3483
33.3493
33.3541
33.3585
33.3325
28.1177
30.7365
30.8701
30.9555
30.9416
31.0034
31.0009
31.0592
31.0647
31.1248
31.1396
31.2031
31.2237
31.2877
31.3126
31.3779
31.4073
31.4741
31.5065
31.5735
31.6083
31.6752
31.7125
31.7793
31.8186
31.8847
31.9252
31.9904
32.0316
32.0954
32.1364
32.1978
32.2374
32.2953
32.3322
32.3855
32.4184
32.4658
32.4934
32.5341
32.5558
32.5894
32.6051
32.6319
32.6421
32.6628
32.6686
32.6841
32.6869
32.6987
32.6995
32.709
32.7088
32.7169
32.7164
32.7238
32.7232
32.7302
32.7297
32.7365
32.7362
32.7427
32.7426
32.749
32.7491
32.7554
32.7556
32.7618
32.7621
32.7682
32.7686
32.7746
32.7751
32.781
32.7816
32.7873
32.788
32.7937
32.7944
32.7999
32.8006
32.8061
32.8068
32.8121
32.8127
32.8179
32.8186
32.823
32.8265
32.8028
28.2586
30.5694
30.6444
30.7001
30.6753
30.7212
30.711
30.7583
30.7592
30.8104
30.8222
30.8781
30.8965
30.9544
30.9781
31.0385
31.067
31.1295
31.1615
31.2247
31.2595
31.3231
31.3606
31.4244
31.464
31.5274
31.5682
31.6308
31.6722
31.7335
31.7744
31.8331
31.8722
31.9271
31.963
32.013
32.0445
32.0883
32.1143
32.1513
32.1712
32.2012
32.2152
32.2387
32.2474
32.2652
32.2698
32.2829
32.2848
32.2947
32.2949
32.3028
32.3022
32.309
32.308
32.3143
32.3133
32.3192
32.3183
32.324
32.3233
32.3288
32.3283
32.3337
32.3333
32.3386
32.3384
32.3435
32.3434
32.3485
32.3485
32.3534
32.3535
32.3584
32.3586
32.3633
32.3636
32.3683
32.3685
32.3731
32.3734
32.3779
32.3781
32.3825
32.3827
32.387
32.3872
32.391
32.3925
32.371
30.3921
32.1879
32.2014
32.2369
32.209
32.2452
32.2338
32.2746
32.2767
32.3236
32.337
32.389
32.4098
32.4651
32.4921
32.5507
32.5831
32.6438
32.6801
32.7418
32.7813
32.844
32.8862
32.9494
32.9934
33.0565
33.1017
33.1641
33.2094
33.2701
33.3143
33.3721
33.4137
33.467
33.5045
33.5522
33.5843
33.6252
33.6509
33.6845
33.7037
33.73
33.743
33.7629
33.7705
33.785
33.7887
33.799
33.8001
33.8077
33.8073
33.8133
33.8122
33.8173
33.8159
33.8206
33.8192
33.8236
33.8224
33.8266
33.8255
33.8295
33.8286
33.8326
33.8318
33.8356
33.8349
33.8387
33.8381
33.8418
33.8413
33.8449
33.8445
33.848
33.8477
33.8511
33.8508
33.8542
33.854
33.8572
33.857
33.8602
33.8599
33.863
33.8626
33.8656
33.865
33.8679
33.8651
33.8476
46.8503
48.1346
48.1262
48.155
48.1369
48.1726
48.1736
48.2191
48.2384
48.2952
48.3288
48.3936
48.4375
48.5084
48.5614
48.6379
48.698
48.7781
48.8431
48.9258
48.9949
49.0798
49.1521
49.2383
49.3126
49.3992
49.4743
49.5602
49.6347
49.718
49.7897
49.8684
49.935
50.0068
50.0661
50.129
50.1791
50.2316
50.2714
50.313
50.3424
50.3734
50.3933
50.4151
50.427
50.4415
50.4475
50.4568
50.459
50.4649
50.465
50.469
50.468
50.4711
50.4697
50.4723
50.4709
50.4733
50.4719
50.4742
50.4729
50.4751
50.4739
50.476
50.4749
50.477
50.476
50.478
50.477
50.479
50.4781
50.48
50.4792
50.481
50.4803
50.4821
50.4813
50.4831
50.4824
50.484
50.4833
50.4849
50.4841
50.4856
50.4846
50.486
50.4846
50.4863
50.47
50.4626
142.346
142.98
142.998
143.054
143.067
143.142
143.194
143.3
143.396
143.538
143.672
143.84
144.001
144.19
144.374
144.581
144.784
145.004
145.218
145.448
145.672
145.91
146.142
146.384
146.621
146.866
147.104
147.347
147.582
147.819
148.045
148.268
148.478
148.681
148.868
149.046
149.205
149.352
149.48
149.595
149.69
149.774
149.84
149.897
149.938
149.973
149.997
150.016
150.028
150.038
150.042
150.047
150.047
150.049
150.048
150.049
150.048
150.048
150.046
150.047
150.045
150.045
150.044
150.044
150.043
150.043
150.041
150.042
150.04
150.04
150.039
150.039
150.038
150.038
150.037
150.037
150.035
150.035
150.034
150.034
150.032
150.032
150.031
150.03
150.028
150.028
150.025
150.025
149.993
149.978
30.185
30.9561
31.1831
31.3534
31.4961
31.6241
31.7341
31.841
31.9338
32.0286
32.1102
32.1958
32.2693
32.3486
32.4169
32.4919
32.5565
32.6277
32.6892
32.7575
32.8168
32.8827
32.9402
33.0039
33.0595
33.121
33.1746
33.2336
33.285
33.3409
33.3891
33.4411
33.4852
33.5321
33.5709
33.6116
33.6441
33.6778
33.7034
33.7299
33.7486
33.7682
33.7807
33.7943
33.8017
33.8106
33.8142
33.8198
33.8209
33.8245
33.8243
33.8267
33.8259
33.8277
33.8267
33.8282
33.8272
33.8286
33.8275
33.8289
33.8279
33.8292
33.8283
33.8296
33.8288
33.83
33.8292
33.8304
33.8297
33.8309
33.8302
33.8314
33.8308
33.8319
33.8314
33.8325
33.832
33.8332
33.8327
33.8339
33.8335
33.8347
33.8345
33.8358
33.8356
33.8373
33.8371
33.8398
33.8359
33.8366
28.0603
29.3894
29.6148
29.7832
29.9181
30.0442
30.1493
30.2536
30.3429
30.4348
30.514
30.5967
30.6682
30.7444
30.811
30.8828
30.9459
31.0141
31.0742
31.1394
31.1973
31.2603
31.3165
31.3773
31.4317
31.4904
31.5428
31.5992
31.6495
31.703
31.7503
31.8002
31.8436
31.8887
31.9271
31.9665
31.9989
32.0317
32.0576
32.0834
32.1027
32.1219
32.1351
32.1485
32.1566
32.1655
32.1698
32.1754
32.1773
32.1808
32.1813
32.1836
32.1834
32.1851
32.1847
32.1861
32.1856
32.1869
32.1865
32.1877
32.1873
32.1885
32.1881
32.1892
32.1889
32.19
32.1897
32.1908
32.1906
32.1917
32.1914
32.1925
32.1923
32.1934
32.1932
32.1943
32.1941
32.1952
32.195
32.1961
32.196
32.1971
32.1969
32.1981
32.1978
32.1992
32.1986
32.2005
32.1996
32.2016
25.869
27.7009
27.9406
28.0921
28.2151
28.3288
28.4262
28.5199
28.6032
28.6861
28.761
28.8362
28.9044
28.9737
29.0372
29.1029
29.1635
29.2262
29.2841
29.3442
29.4001
29.4583
29.5126
29.5691
29.6218
29.6765
29.7276
29.7803
29.8295
29.88
29.9266
29.974
30.0173
30.0606
30.0994
30.1377
30.1711
30.2035
30.2307
30.2566
30.2776
30.2971
30.3121
30.3259
30.3357
30.3448
30.3506
30.3562
30.3593
30.3626
30.364
30.366
30.3665
30.3679
30.368
30.369
30.3691
30.3699
30.3699
30.3708
30.3708
30.3716
30.3716
30.3724
30.3724
30.3732
30.3732
30.374
30.374
30.3748
30.3749
30.3756
30.3757
30.3765
30.3766
30.3773
30.3774
30.3782
30.3783
30.379
30.3791
30.3799
30.3798
30.3807
30.3805
30.3814
30.3808
30.3819
30.3807
30.3614
25.1404
27.2201
27.4524
27.5792
27.6838
27.784
27.871
27.9551
28.031
28.107
28.1772
28.2476
28.3125
28.3776
28.4385
28.5007
28.5595
28.6194
28.6761
28.7338
28.7886
28.8448
28.8984
28.9533
29.0057
29.059
29.11
29.1618
29.2112
29.2612
29.3085
29.3559
29.4002
29.444
29.4844
29.5237
29.5592
29.5929
29.6225
29.65
29.6733
29.6945
29.7117
29.7269
29.7386
29.7488
29.756
29.7623
29.7663
29.7699
29.7719
29.774
29.7749
29.776
29.7764
29.7772
29.7774
29.778
29.7781
29.7786
29.7787
29.7793
29.7794
29.7799
29.78
29.7805
29.7806
29.7811
29.7812
29.7818
29.7819
29.7824
29.7825
29.783
29.7831
29.7837
29.7838
29.7843
29.7844
29.7849
29.785
29.7855
29.7855
29.7861
29.786
29.7866
29.7862
29.787
29.7863
29.7722
24.6969
26.9367
27.1512
27.2493
27.3294
27.4114
27.4836
27.5554
27.6207
27.6876
27.7504
27.8144
27.8739
27.9338
27.9904
28.0481
28.1035
28.1602
28.2143
28.2693
28.322
28.376
28.4279
28.4811
28.5322
28.5843
28.6343
28.6852
28.7341
28.7836
28.8308
28.8781
28.9227
28.967
29.0081
29.0483
29.0848
29.1198
29.1508
29.1798
29.2046
29.2272
29.2458
29.2624
29.2753
29.2866
29.2948
29.3017
29.3064
29.3104
29.3128
29.3149
29.316
29.3172
29.3176
29.3183
29.3184
29.319
29.319
29.3194
29.3195
29.3199
29.3199
29.3203
29.3204
29.3208
29.3208
29.3212
29.3213
29.3217
29.3218
29.3222
29.3222
29.3226
29.3227
29.3231
29.3232
29.3236
29.3237
29.3241
29.3241
29.3245
29.3245
29.3249
29.3247
29.3252
29.3247
29.3252
29.3245
29.3023
24.6076
26.8894
27.079
27.1477
27.2033
27.2655
27.3221
27.3799
27.4336
27.4903
27.5447
27.6014
27.6548
27.7094
27.7611
27.8149
27.8666
27.9204
27.9717
28.0246
28.075
28.1272
28.1775
28.2294
28.2793
28.3306
28.3797
28.4301
28.4784
28.5276
28.5746
28.622
28.6668
28.7113
28.7528
28.7936
28.8307
28.8665
28.8982
28.928
28.9537
28.9772
28.9966
29.0139
29.0276
29.0394
29.0481
29.0556
29.0606
29.0649
29.0674
29.0697
29.0708
29.072
29.0724
29.0731
29.0732
29.0737
29.0737
29.0741
29.0741
29.0745
29.0745
29.0748
29.0748
29.0752
29.0752
29.0755
29.0755
29.0759
29.0759
29.0763
29.0763
29.0766
29.0767
29.077
29.077
29.0774
29.0774
29.0778
29.0777
29.0781
29.0781
29.0785
29.0783
29.0787
29.0783
29.0788
29.0781
29.0583
24.6078
26.8777
27.0483
27.0963
27.1331
27.1784
27.2203
27.265
27.3075
27.3543
27.4003
27.4496
27.4964
27.5453
27.5921
27.6416
27.6895
27.7399
27.7882
27.8385
27.8867
27.9369
27.9854
28.0358
28.0844
28.1345
28.1826
28.2322
28.2798
28.3284
28.3749
28.4219
28.4662
28.5104
28.5516
28.5921
28.629
28.6645
28.6961
28.7257
28.7512
28.7745
28.7938
28.8111
28.8246
28.8364
28.8451
28.8525
28.8574
28.8617
28.8642
28.8665
28.8676
28.8688
28.8692
28.8699
28.87
28.8705
28.8705
28.8709
28.8709
28.8712
28.8712
28.8716
28.8716
28.8719
28.8719
28.8723
28.8723
28.8727
28.8727
28.873
28.8731
28.8734
28.8734
28.8738
28.8738
28.8742
28.8742
28.8746
28.8745
28.8749
28.8748
28.8752
28.8751
28.8755
28.8752
28.8755
28.875
28.8555
24.6965
26.8924
27.0469
27.0835
27.1086
27.1416
27.1718
27.2064
27.24
27.2788
27.3175
27.3602
27.4014
27.4453
27.4878
27.5332
27.5777
27.6248
27.6705
27.7182
27.7644
27.8126
27.8596
27.9085
27.9558
28.0047
28.0519
28.1005
28.1473
28.1951
28.2409
28.287
28.3305
28.3738
28.4141
28.4535
28.4893
28.5237
28.5541
28.5825
28.6069
28.6291
28.6474
28.6637
28.6763
28.6874
28.6954
28.7023
28.7068
28.7108
28.7131
28.7152
28.7162
28.7174
28.7178
28.7185
28.7186
28.7192
28.7192
28.7196
28.7197
28.7201
28.7201
28.7205
28.7206
28.721
28.721
28.7214
28.7215
28.7219
28.722
28.7224
28.7225
28.7229
28.7229
28.7233
28.7234
28.7238
28.7239
28.7243
28.7243
28.7248
28.7247
28.7252
28.725
28.7255
28.7251
28.7253
28.7251
28.7041
25.1198
27.0952
27.2155
27.2412
27.258
27.2816
27.3033
27.3301
27.3569
27.3896
27.4226
27.46
27.4966
27.5366
27.5758
27.6186
27.6607
27.7058
27.7494
27.7957
27.8404
27.8877
27.9337
27.9818
28.0284
28.0767
28.1234
28.1716
28.2179
28.2652
28.3102
28.3556
28.3983
28.4406
28.4796
28.5177
28.552
28.5847
28.6134
28.6401
28.6626
28.6831
28.6997
28.7145
28.7258
28.7357
28.7427
28.7487
28.7526
28.7561
28.7581
28.76
28.7609
28.7621
28.7624
28.7632
28.7634
28.764
28.7641
28.7646
28.7647
28.7652
28.7653
28.7659
28.766
28.7665
28.7666
28.7671
28.7672
28.7677
28.7679
28.7684
28.7685
28.769
28.7691
28.7697
28.7698
28.7703
28.7704
28.7709
28.771
28.7715
28.7716
28.7721
28.772
28.7726
28.7724
28.7728
28.7725
28.7599
25.7856
27.4241
27.502
27.5191
27.5295
27.5465
27.562
27.5843
27.6064
27.6356
27.6643
27.6987
27.7316
27.7697
27.8062
27.8479
27.8876
27.9318
27.9735
28.0193
28.0626
28.1098
28.1545
28.2027
28.2482
28.2966
28.3424
28.3906
28.4359
28.4831
28.5269
28.5718
28.6128
28.6542
28.6912
28.7279
28.7599
28.7909
28.8169
28.8418
28.8618
28.8805
28.8947
28.908
28.9173
28.926
28.9315
28.9369
28.9398
28.943
28.9443
28.9462
28.9467
28.948
28.9482
28.9492
28.9492
28.95
28.95
28.9508
28.9508
28.9516
28.9516
28.9524
28.9525
28.9532
28.9533
28.954
28.9541
28.9549
28.9549
28.9557
28.9558
28.9565
28.9566
28.9574
28.9575
28.9582
28.9583
28.9591
28.9591
28.9599
28.9599
28.9607
28.9606
28.9615
28.9611
28.9619
28.962
28.9444
27.828
28.8693
28.8909
28.8987
28.9021
28.9164
28.927
28.9493
28.9681
28.9983
29.024
29.0598
29.0905
29.1308
29.166
29.2102
29.249
29.2957
29.337
29.3857
29.429
29.4792
29.5242
29.5753
29.6213
29.6727
29.719
29.7701
29.8159
29.8655
29.9094
29.9563
29.997
30.0397
30.076
30.1134
30.144
30.1751
30.1995
30.2241
30.2421
30.2604
30.2727
30.2855
30.293
30.3014
30.3054
30.3107
30.3124
30.3157
30.3161
30.3184
30.3182
30.3198
30.3194
30.3208
30.3203
30.3216
30.3211
30.3223
30.3219
30.3231
30.3227
30.3238
30.3235
30.3246
30.3243
30.3254
30.3251
30.3262
30.326
30.327
30.3268
30.3279
30.3277
30.3288
30.3286
30.3297
30.3295
30.3306
30.3304
30.3316
30.3314
30.3326
30.3323
30.3337
30.3332
30.3349
30.3348
30.3374
29.778
30.2137
30.2195
30.2177
30.2194
30.2284
30.2372
30.2568
30.2742
30.3033
30.3277
30.3634
30.3932
30.4341
30.4689
30.5142
30.5529
30.6011
30.6425
30.6929
30.7366
30.7887
30.8342
30.8875
30.934
30.9877
31.0347
31.0879
31.1344
31.186
31.2306
31.2792
31.3203
31.3645
31.4009
31.4394
31.4699
31.5018
31.5258
31.5508
31.5682
31.5867
31.5983
31.6111
31.6178
31.6262
31.6294
31.6347
31.6357
31.6391
31.6388
31.6411
31.6402
31.642
31.6409
31.6425
31.6414
31.6428
31.6417
31.643
31.6421
31.6433
31.6424
31.6437
31.6428
31.644
31.6433
31.6444
31.6437
31.6449
31.6442
31.6453
31.6447
31.6459
31.6453
31.6464
31.6459
31.647
31.6466
31.6477
31.6474
31.6486
31.6483
31.6496
31.6494
31.651
31.6509
31.6533
31.6497
31.6505
3.62235
3.82096
3.84204
3.85218
3.86902
3.88447
3.8994
3.91656
3.92867
3.94601
3.95548
3.9724
3.97986
3.9962
4.00225
4.0179
4.02294
4.03788
4.04222
4.0565
4.06038
4.07403
4.07758
4.0906
4.0939
4.10628
4.10938
4.12111
4.12397
4.13498
4.13755
4.14774
4.14991
4.15918
4.16083
4.16908
4.17012
4.17729
4.17769
4.18379
4.18358
4.1887
4.18797
4.19228
4.19115
4.19482
4.19345
4.19665
4.19519
4.19807
4.19661
4.19927
4.19786
4.20037
4.19906
4.20145