/*--------------------------------*- C++ -*----------------------------------*\
  =========                 |
  \\      /  F ield         | OpenFOAM: The Open Source CFD Toolbox
   \\    /   O peration     | Website:  https://openfoam.org
    \\  /    A nd           | Version:  7
     \\/     M anipulation  |
\*---------------------------------------------------------------------------*/
FoamFile
{
    version     2.0;
    format      ascii;
    class       volScalarField;
    location    "0.22";
    object      k_0;
}
// * * * * * * * * * * * * * * * * * * * * * * * * * * * * * * * * * * * * * //

dimensions      [0 2 -2 0 0 0 0];

internalField   nonuniform List<scalar> 
400
(
5.30576e-05
3.59011e-05
1.96686e-05
1.28572e-05
9.12736e-06
6.80668e-06
5.30718e-06
4.2965e-06
3.5884e-06
3.0832e-06
2.72002e-06
2.45765e-06
2.26713e-06
2.12835e-06
2.0272e-06
1.95343e-06
1.89827e-06
1.85007e-06
1.78712e-06
1.6513e-06
3.68826e-05
4.62642e-05
4.34453e-05
3.50046e-05
2.64003e-05
2.00324e-05
1.57154e-05
1.27814e-05
1.0716e-05
9.23533e-06
8.16722e-06
7.39387e-06
6.83102e-06
6.4192e-06
6.11667e-06
5.89367e-06
5.72749e-06
5.59455e-06
5.47321e-06
5.34633e-06
2.6073e-05
4.13509e-05
4.58409e-05
4.38447e-05
3.78004e-05
3.07347e-05
2.51393e-05
2.09766e-05
1.78591e-05
1.55249e-05
1.37936e-05
1.25185e-05
1.15798e-05
1.08861e-05
1.03704e-05
9.98472e-06
9.69439e-06
9.47257e-06
9.30437e-06
9.16868e-06
2.27655e-05
3.24005e-05
4.01751e-05
4.18127e-05
4.00467e-05
3.59469e-05
3.14409e-05
2.74617e-05
2.40802e-05
2.13138e-05
1.91429e-05
1.74862e-05
1.62383e-05
1.52997e-05
1.45905e-05
1.40507e-05
1.36372e-05
1.33202e-05
1.30865e-05
1.29109e-05
2.17839e-05
2.61292e-05
3.16608e-05
3.57053e-05
3.67996e-05
3.55608e-05
3.31562e-05
3.057e-05
2.78837e-05
2.53634e-05
2.32067e-05
2.14701e-05
2.01174e-05
1.9073e-05
1.82649e-05
1.76369e-05
1.71463e-05
1.67643e-05
1.64755e-05
1.625e-05
2.11784e-05
2.31701e-05
2.59828e-05
2.90488e-05
3.10215e-05
3.18326e-05
3.13912e-05
3.01851e-05
2.85341e-05
2.67574e-05
2.50682e-05
2.36103e-05
2.24187e-05
2.14726e-05
2.07271e-05
2.01385e-05
1.96716e-05
1.93036e-05
1.90189e-05
1.87799e-05
2.12782e-05
2.21158e-05
2.28926e-05
2.44436e-05
2.60121e-05
2.71218e-05
2.75379e-05
2.74314e-05
2.69083e-05
2.58367e-05
2.46837e-05
2.36538e-05
2.28132e-05
2.21353e-05
2.1587e-05
2.11433e-05
2.07835e-05
2.04968e-05
2.02811e-05
2.01003e-05
2.12408e-05
2.13551e-05
2.14482e-05
2.18823e-05
2.27543e-05
2.35376e-05
2.39882e-05
2.40329e-05
2.38857e-05
2.3457e-05
2.28286e-05
2.2223e-05
2.17109e-05
2.13151e-05
2.10166e-05
2.07873e-05
2.06085e-05
2.04743e-05
2.03767e-05
2.03053e-05
2.12806e-05
2.11756e-05
2.07992e-05
2.08054e-05
2.10376e-05
2.13726e-05
2.14949e-05
2.14483e-05
2.12947e-05
2.09781e-05
2.05919e-05
2.0232e-05
1.99519e-05
1.97654e-05
1.96598e-05
1.96061e-05
1.95926e-05
1.96082e-05
1.96437e-05
1.97236e-05
2.14272e-05
2.12961e-05
2.08491e-05
2.05122e-05
2.04024e-05
2.03049e-05
2.01118e-05
1.98552e-05
1.95673e-05
1.92429e-05
1.89179e-05
1.86425e-05
1.84535e-05
1.83631e-05
1.83642e-05
1.84053e-05
1.85059e-05
1.86645e-05
1.88163e-05
1.90833e-05
2.11414e-05
2.12046e-05
2.08597e-05
2.04405e-05
2.01508e-05
1.9835e-05
1.94692e-05
1.9096e-05
1.87377e-05
1.83945e-05
1.80873e-05
1.78451e-05
1.77008e-05
1.76897e-05
1.77392e-05
1.78744e-05
1.8091e-05
1.83722e-05
1.86261e-05
1.90566e-05
2.11377e-05
2.13519e-05
2.11262e-05
2.05974e-05
2.02102e-05
1.98094e-05
1.93978e-05
1.90218e-05
1.86845e-05
1.8376e-05
1.81279e-05
1.79506e-05
1.79288e-05
1.79927e-05
1.81684e-05
1.84829e-05
1.88664e-05
1.93256e-05
1.9729e-05
2.03701e-05
2.13377e-05
2.15683e-05
2.13602e-05
2.0922e-05
2.05301e-05
2.01331e-05
1.97786e-05
1.95026e-05
1.92936e-05
1.91323e-05
1.91062e-05
1.91677e-05
1.93499e-05
1.97213e-05
2.02295e-05
2.08456e-05
2.15183e-05
2.22426e-05
2.28639e-05
2.37455e-05
2.14967e-05
2.19854e-05
2.1958e-05
2.1705e-05
2.14055e-05
2.11615e-05
2.10473e-05
2.10773e-05
2.11899e-05
2.1422e-05
2.18102e-05
2.23554e-05
2.30655e-05
2.39398e-05
2.49419e-05
2.60094e-05
2.7085e-05
2.81345e-05
2.90185e-05
3.0115e-05
2.29258e-05
2.33189e-05
2.34029e-05
2.33861e-05
2.34709e-05
2.37596e-05
2.43677e-05
2.51735e-05
2.61082e-05
2.71564e-05
2.8324e-05
2.96313e-05
3.10815e-05
3.2645e-05
3.42698e-05
3.58654e-05
3.73793e-05
3.87406e-05
3.98704e-05
4.10713e-05
2.29704e-05
2.44915e-05
2.5703e-05
2.68648e-05
2.84019e-05
3.05158e-05
3.30217e-05
3.55668e-05
3.79624e-05
4.02538e-05
4.25147e-05
4.48019e-05
4.71284e-05
4.94632e-05
5.17409e-05
5.38436e-05
5.57349e-05
5.73012e-05
5.85616e-05
5.9595e-05
2.37035e-05
2.7e-05
3.11475e-05
3.62453e-05
4.21188e-05
4.85368e-05
5.45185e-05
5.94712e-05
6.36612e-05
6.75153e-05
7.11181e-05
7.45452e-05
7.77981e-05
8.08379e-05
8.3548e-05
8.57725e-05
8.75592e-05
8.871e-05
8.94695e-05
8.93936e-05
2.80476e-05
3.89874e-05
5.21835e-05
6.70159e-05
8.14599e-05
9.37997e-05
0.000103318
0.000110031
0.000116152
0.000121817
0.000126201
0.000129671
0.000132314
0.00013414
0.000134959
0.000134782
0.000134034
0.000132295
0.000130303
0.000126302
4.99308e-05
9.00928e-05
0.000128468
0.000159231
0.000181804
0.000197292
0.000205006
0.000207324
0.000206017
0.000202603
0.000198678
0.000194428
0.000189506
0.000183828
0.000177468
0.000170563
0.000163533
0.000156231
0.000149703
0.000141674
0.000163584
0.000271191
0.000321293
0.000338092
0.000334372
0.000318028
0.000288085
0.000256983
0.000228613
0.000204102
0.000183079
0.000165111
0.000149618
0.000136131
0.000124318
0.000113934
0.000104877
9.6855e-05
9.02014e-05
8.36633e-05
)
;

boundaryField
{
    upperWall
    {
        type            fixedValue;
        value           uniform 0;
    }
    lowerWall
    {
        type            fixedValue;
        value           uniform 0;
    }
    inlet
    {
        type            fixedValue;
        value           uniform 2e-05;
    }
    outlet
    {
        type            inletOutlet;
        inletValue      uniform 0;
        value           nonuniform List<scalar> 
20
(
1.6513e-06
5.34633e-06
9.16868e-06
1.29109e-05
1.625e-05
1.87799e-05
2.01003e-05
2.03053e-05
1.97236e-05
1.90833e-05
1.90566e-05
2.03701e-05
2.37455e-05
3.0115e-05
4.10713e-05
5.9595e-05
8.93936e-05
0.000126302
0.000141674
8.36633e-05
)
;
    }
    frontAndBack
    {
        type            empty;
    }
}


// ************************************************************************* //
