/*--------------------------------*- C++ -*----------------------------------*\
  =========                 |
  \\      /  F ield         | OpenFOAM: The Open Source CFD Toolbox
   \\    /   O peration     | Website:  https://openfoam.org
    \\  /    A nd           | Version:  7
     \\/     M anipulation  |
\*---------------------------------------------------------------------------*/
FoamFile
{
    version     2.0;
    format      ascii;
    class       volVectorField;
    location    "1.2075";
    object      U_0;
}
// * * * * * * * * * * * * * * * * * * * * * * * * * * * * * * * * * * * * * //

dimensions      [0 1 -1 0 0 0 0];

internalField   nonuniform List<vector> 
13200
(
(1.9458 0.0372587 -32.2483)
(1.08392 -0.368877 -32.3024)
(0.62109 -0.418062 -32.3052)
(0.597239 -0.429634 -32.3119)
(0.47717 -0.435431 -32.3107)
(0.511479 -0.437301 -32.3152)
(0.43511 -0.439287 -32.3137)
(0.473168 -0.438915 -32.3165)
(0.414381 -0.439553 -32.3146)
(0.450014 -0.43908 -32.3162)
(0.402765 -0.43966 -32.3143)
(0.434787 -0.43907 -32.3151)
(0.396027 -0.439427 -32.3135)
(0.42449 -0.438883 -32.3141)
(0.392316 -0.439 -32.3131)
(0.417301 -0.438848 -32.3136)
(0.391135 -0.437377 -32.3136)
(0.409984 -0.439356 -32.3132)
(0.393036 -0.414234 -32.3158)
(0.335931 -0.423912 -32.3086)
(3.66003 0.929008 -32.3729)
(2.86617 0.570725 -32.4358)
(1.99193 0.476316 -32.4467)
(1.87879 0.437751 -32.4611)
(1.58404 0.43153 -32.4633)
(1.63498 0.429766 -32.4727)
(1.44648 0.42797 -32.4733)
(1.51732 0.427624 -32.4784)
(1.37229 0.426088 -32.4767)
(1.44252 0.426109 -32.4782)
(1.32588 0.425193 -32.4752)
(1.3909 0.425164 -32.4748)
(1.29491 0.424401 -32.4717)
(1.35377 0.424373 -32.4709)
(1.27356 0.423671 -32.4693)
(1.32644 0.423841 -32.4683)
(1.2598 0.422232 -32.47)
(1.30769 0.4238 -32.4665)
(1.25449 0.409927 -32.4775)
(1.40231 0.415173 -32.4436)
(4.53677 0.48948 -32.3968)
(4.52841 -0.0487247 -32.4478)
(3.82813 -0.21882 -32.4544)
(3.67938 -0.325797 -32.4748)
(3.28459 -0.365615 -32.4792)
(3.29172 -0.3825 -32.4965)
(3.03122 -0.392013 -32.5005)
(3.08237 -0.396501 -32.512)
(2.88368 -0.40047 -32.511)
(2.94435 -0.402281 -32.5152)
(2.78423 -0.40412 -32.5103)
(2.84422 -0.404966 -32.5098)
(2.712 -0.406029 -32.5037)
(2.76861 -0.406479 -32.5007)
(2.65776 -0.407011 -32.4965)
(2.7096 -0.407793 -32.4925)
(2.6177 -0.406588 -32.4951)
(2.6537 -0.409781 -32.486)
(2.59737 -0.401515 -32.507)
(2.53336 -0.413955 -32.4569)
(4.8155 0.873129 -32.4129)
(5.24814 0.654563 -32.4521)
(4.96398 0.580141 -32.4539)
(4.98167 0.496689 -32.4706)
(4.68667 0.461961 -32.4756)
(4.7089 0.442746 -32.493)
(4.47665 0.431679 -32.5021)
(4.51203 0.424906 -32.5176)
(4.32386 0.420323 -32.5224)
(4.36269 0.416684 -32.5288)
(4.20732 0.41412 -32.527)
(4.24607 0.411799 -32.526)
(4.11603 0.410249 -32.5205)
(4.15353 0.40869 -32.5141)
(4.04253 0.407707 -32.5081)
(4.08045 0.406283 -32.4981)
(3.97971 0.405989 -32.4989)
(4.03267 0.403038 -32.4843)
(3.9148 0.402932 -32.5033)
(4.06315 0.409165 -32.4564)
(4.86917 0.340166 -32.4138)
(5.44589 -0.041074 -32.4469)
(5.43025 -0.147505 -32.442)
(5.60401 -0.248877 -32.456)
(5.4423 -0.294135 -32.4569)
(5.52781 -0.318373 -32.4728)
(5.36623 -0.333896 -32.4808)
(5.42612 -0.343225 -32.4992)
(5.28261 -0.35097 -32.5066)
(5.32973 -0.356306 -32.5171)
(5.20499 -0.360842 -32.5171)
(5.24388 -0.364408 -32.5191)
(5.13619 -0.367576 -32.5143)
(5.16951 -0.370047 -32.5092)
(5.0765 -0.372625 -32.5012)
(5.10545 -0.374001 -32.4895)
(5.02578 -0.376682 -32.4844)
(5.04601 -0.375938 -32.4691)
(4.9826 -0.384593 -32.4759)
(4.96638 -0.394582 -32.4389)
(4.85541 0.622754 -32.4209)
(5.4047 0.537809 -32.4526)
(5.51359 0.526743 -32.4463)
(5.7829 0.472702 -32.4583)
(5.72004 0.449224 -32.4575)
(5.87388 0.434068 -32.471)
(5.78492 0.424337 -32.4777)
(5.89042 0.417727 -32.4959)
(5.80102 0.412753 -32.5047)
(5.8782 0.40856 -32.517)
(5.79453 0.405354 -32.5188)
(5.85352 0.402385 -32.5224)
(5.77762 0.400182 -32.5195)
(5.82456 0.39807 -32.5165)
(5.7559 0.396598 -32.5091)
(5.79618 0.394669 -32.4978)
(5.73017 0.394804 -32.4886)
(5.77744 0.390905 -32.473)
(5.69799 0.396039 -32.4702)
(5.78731 0.409982 -32.4352)
(4.84324 0.146664 -32.421)
(5.34646 -0.128666 -32.4512)
(5.49353 -0.193074 -32.4431)
(5.79904 -0.261572 -32.4546)
(5.78338 -0.291768 -32.452)
(5.97724 -0.308096 -32.4646)
(5.93268 -0.318902 -32.4696)
(6.07376 -0.325251 -32.4873)
(6.02498 -0.33109 -32.4959)
(6.13263 -0.335113 -32.5089)
(6.08456 -0.338983 -32.511)
(6.16843 -0.342 -32.5156)
(6.12323 -0.345124 -32.5133)
(6.18969 -0.347315 -32.5122)
(6.14851 -0.350456 -32.5059)
(6.20093 -0.351043 -32.4964)
(6.16524 -0.356206 -32.4852)
(6.20252 -0.35222 -32.47)
(6.17585 -0.368342 -32.4608)
(6.18272 -0.377149 -32.4263)
(4.83206 0.404229 -32.4255)
(5.29009 0.415837 -32.4559)
(5.44918 0.433736 -32.4475)
(5.76663 0.411456 -32.459)
(5.76943 0.402859 -32.4559)
(5.98212 0.396394 -32.4682)
(5.95979 0.392395 -32.4725)
(6.12177 0.389577 -32.4899)
(6.09692 0.387542 -32.4982)
(6.22536 0.385653 -32.5112)
(6.2012 0.384222 -32.5132)
(6.30474 0.382781 -32.5179)
(6.28233 0.381719 -32.5158)
(6.36666 0.380588 -32.5158)
(6.34629 0.379995 -32.5104)
(6.4155 0.37852 -32.5023)
(6.39589 0.380002 -32.4908)
(6.45713 0.37587 -32.476)
(6.4343 0.384707 -32.4637)
(6.49596 0.402099 -32.4286)
(4.82549 -0.0336706 -32.4267)
(5.25771 -0.218923 -32.4555)
(5.4198 -0.264158 -32.4467)
(5.73839 -0.302199 -32.4578)
(5.74644 -0.318928 -32.4543)
(5.96529 -0.327378 -32.4665)
(5.95068 -0.332944 -32.4706)
(6.12133 -0.335858 -32.4879)
(6.10707 -0.338814 -32.4959)
(6.24615 -0.3406 -32.5088)
(6.2345 -0.342591 -32.5106)
(6.34947 -0.343971 -32.5152)
(6.34066 -0.345737 -32.513)
(6.43608 -0.34669 -32.5133)
(6.43037 -0.348883 -32.5084)
(6.50805 -0.34834 -32.5012)
(6.50678 -0.353434 -32.4898)
(6.56521 -0.34785 -32.4754)
(6.57335 -0.364505 -32.4615)
(6.59955 -0.37518 -32.4263)
(4.82192 0.212861 -32.4298)
(5.24022 0.312103 -32.4578)
(5.40399 0.344924 -32.4489)
(5.72332 0.352795 -32.4596)
(5.73275 0.356974 -32.4561)
(5.95338 0.358063 -32.4683)
(5.94105 0.358959 -32.4723)
(6.11464 0.35913 -32.4895)
(6.10405 0.359688 -32.4975)
(6.24715 0.359749 -32.5103)
(6.24043 0.360113 -32.5119)
(6.36026 0.360169 -32.5164)
(6.3573 0.36058 -32.5141)
(6.45801 0.360554 -32.5145)
(6.4586 0.361405 -32.5098)
(6.54194 0.360474 -32.5029)
(6.54638 0.363906 -32.4917)
(6.61301 0.359333 -32.4775)
(6.6244 0.372338 -32.463)
(6.66713 0.388434 -32.4276)
(4.82192 -0.212861 -32.4298)
(5.24022 -0.312103 -32.4578)
(5.40399 -0.344925 -32.4489)
(5.72332 -0.352795 -32.4596)
(5.73275 -0.356975 -32.4561)
(5.95338 -0.358062 -32.4683)
(5.94105 -0.358958 -32.4723)
(6.11464 -0.359126 -32.4895)
(6.10405 -0.359684 -32.4975)
(6.24715 -0.35974 -32.5103)
(6.24043 -0.360095 -32.5119)
(6.36026 -0.360143 -32.5164)
(6.35732 -0.360526 -32.5141)
(6.45801 -0.36046 -32.5145)
(6.45868 -0.361286 -32.5099)
(6.54192 -0.360117 -32.5029)
(6.54658 -0.363678 -32.4917)
(6.61301 -0.358193 -32.4775)
(6.62467 -0.371641 -32.4631)
(6.66721 -0.3858 -32.4276)
(4.82549 0.0336701 -32.4267)
(5.25771 0.218922 -32.4555)
(5.4198 0.264157 -32.4467)
(5.73839 0.302198 -32.4578)
(5.74644 0.318927 -32.4543)
(5.96529 0.327379 -32.4665)
(5.95068 0.332945 -32.4706)
(6.12133 0.335862 -32.4879)
(6.10706 0.338819 -32.4959)
(6.24616 0.340609 -32.5088)
(6.2345 0.342609 -32.5106)
(6.34948 0.343995 -32.5152)
(6.34064 0.345791 -32.513)
(6.4361 0.34678 -32.5133)
(6.43035 0.349005 -32.5084)
(6.50811 0.348687 -32.5012)
(6.5068 0.353655 -32.4898)
(6.56537 0.348998 -32.4754)
(6.57371 0.365149 -32.4616)
(6.60018 0.377856 -32.4261)
(4.83206 -0.404229 -32.4255)
(5.29009 -0.415837 -32.4559)
(5.44918 -0.433737 -32.4475)
(5.76663 -0.411456 -32.459)
(5.76943 -0.402859 -32.4559)
(5.98212 -0.396393 -32.4682)
(5.95979 -0.392395 -32.4725)
(6.12177 -0.389573 -32.4899)
(6.09692 -0.387538 -32.4981)
(6.22537 -0.385643 -32.5112)
(6.2012 -0.384205 -32.5132)
(6.30476 -0.382754 -32.518)
(6.28236 -0.381668 -32.5158)
(6.3667 -0.380494 -32.5159)
(6.34641 -0.379882 -32.5103)
(6.41559 -0.378168 -32.5024)
(6.39629 -0.379782 -32.4907)
(6.45736 -0.374773 -32.4761)
(6.43526 -0.384034 -32.4638)
(6.49681 -0.399599 -32.4284)
(4.84324 -0.146664 -32.4209)
(5.34646 0.128666 -32.4512)
(5.49353 0.193073 -32.4431)
(5.79904 0.261572 -32.4546)
(5.78338 0.291767 -32.452)
(5.97724 0.308096 -32.4646)
(5.93268 0.318902 -32.4695)
(6.07377 0.325254 -32.4874)
(6.02498 0.331094 -32.4958)
(6.13264 0.335121 -32.5089)
(6.08455 0.338999 -32.5109)
(6.16846 0.342021 -32.5157)
(6.12322 0.345175 -32.5131)
(6.18979 0.34739 -32.5125)
(6.14854 0.35057 -32.5056)
(6.2012 0.351341 -32.4968)
(6.16548 0.356392 -32.4847)
(6.20315 0.353255 -32.4707)
(6.17701 0.368805 -32.4602)
(6.18471 0.379567 -32.4269)
(4.85541 -0.622754 -32.4209)
(5.4047 -0.53781 -32.4526)
(5.51359 -0.526743 -32.4463)
(5.7829 -0.472702 -32.4583)
(5.72004 -0.449225 -32.4575)
(5.87388 -0.434067 -32.471)
(5.78492 -0.424337 -32.4777)
(5.89043 -0.417724 -32.4959)
(5.80102 -0.41275 -32.5046)
(5.87823 -0.408551 -32.5171)
(5.79454 -0.40534 -32.5187)
(5.85359 -0.40236 -32.5227)
(5.77765 -0.400138 -32.5192)
(5.82473 -0.397985 -32.517)
(5.75604 -0.396504 -32.5084)
(5.79658 -0.39435 -32.4989)
(5.73076 -0.39463 -32.4871)
(5.77836 -0.389917 -32.4752)
(5.69984 -0.395511 -32.4675)
(5.78961 -0.407797 -32.4384)
(4.86917 -0.340167 -32.4138)
(5.44589 0.0410734 -32.4469)
(5.43025 0.147504 -32.442)
(5.60401 0.248877 -32.4561)
(5.4423 0.294134 -32.4568)
(5.52781 0.318373 -32.4729)
(5.36623 0.333896 -32.4808)
(5.42613 0.343227 -32.4993)
(5.28261 0.350974 -32.5065)
(5.32976 0.356311 -32.5172)
(5.205 0.360855 -32.5169)
(5.24396 0.364418 -32.5194)
(5.1362 0.367615 -32.5138)
(5.16976 0.37009 -32.5099)
(5.07658 0.372711 -32.5)
(5.1061 0.374182 -32.4915)
(5.02622 0.376792 -32.4812)
(5.04757 0.376625 -32.474)
(4.98459 0.384752 -32.4687)
(4.97083 0.396175 -32.4485)
(4.8155 -0.873129 -32.4129)
(5.24814 -0.654563 -32.4521)
(4.96398 -0.580142 -32.4539)
(4.98167 -0.49669 -32.4706)
(4.68667 -0.461961 -32.4756)
(4.7089 -0.442746 -32.493)
(4.47665 -0.431679 -32.502)
(4.51204 -0.424904 -32.5176)
(4.32387 -0.42032 -32.5223)
(4.36272 -0.416679 -32.529)
(4.20735 -0.414109 -32.5268)
(4.24617 -0.411782 -32.5264)
(4.1161 -0.410216 -32.52)
(4.15382 -0.40863 -32.5149)
(4.04274 -0.407637 -32.5067)
(4.08116 -0.406034 -32.5006)
(3.98057 -0.40587 -32.4946)
(4.03428 -0.402204 -32.492)
(3.91757 -0.402682 -32.4898)
(4.06685 -0.407804 -32.4781)
(4.53677 -0.48948 -32.3968)
(4.52841 0.0487241 -32.4478)
(3.82813 0.21882 -32.4544)
(3.67938 0.325796 -32.4748)
(3.28459 0.365615 -32.4792)
(3.29172 0.3825 -32.4965)
(3.03122 0.392013 -32.5005)
(3.08238 0.396501 -32.512)
(2.88369 0.400471 -32.5109)
(2.94438 0.402281 -32.5153)
(2.78425 0.404124 -32.5102)
(2.84431 0.404962 -32.5101)
(2.71204 0.406039 -32.5033)
(2.76888 0.406466 -32.5013)
(2.65793 0.407027 -32.4955)
(2.7103 0.407789 -32.4944)
(2.61842 0.406627 -32.4915)
(2.65531 0.40986 -32.4931)
(2.60006 0.401492 -32.4922)
(2.53892 0.414729 -32.4891)
(3.66003 -0.929008 -32.3729)
(2.86617 -0.570725 -32.4358)
(1.99193 -0.476316 -32.4467)
(1.87879 -0.437752 -32.4611)
(1.58404 -0.431531 -32.4633)
(1.63498 -0.429767 -32.4727)
(1.44648 -0.427971 -32.4733)
(1.51732 -0.427623 -32.4784)
(1.3723 -0.426088 -32.4767)
(1.44253 -0.426107 -32.4783)
(1.3259 -0.425189 -32.4751)
(1.39096 -0.425154 -32.4749)
(1.29496 -0.424385 -32.4716)
(1.35395 -0.424335 -32.4711)
(1.27372 -0.423634 -32.4688)
(1.32686 -0.423723 -32.4692)
(1.26045 -0.422199 -32.4684)
(1.30846 -0.423453 -32.4698)
(1.25683 -0.409942 -32.4696)
(1.40244 -0.415091 -32.4677)
(1.9458 -0.0372589 -32.2483)
(1.08392 0.368877 -32.3024)
(0.62109 0.418061 -32.3052)
(0.597239 0.429634 -32.3119)
(0.47717 0.43543 -32.3107)
(0.511479 0.4373 -32.3152)
(0.435111 0.439287 -32.3137)
(0.47317 0.438914 -32.3165)
(0.414385 0.439552 -32.3146)
(0.450021 0.439077 -32.3162)
(0.402772 0.439658 -32.3143)
(0.434808 0.439061 -32.3152)
(0.396043 0.439418 -32.3135)
(0.424555 0.438851 -32.3142)
(0.392366 0.438978 -32.313)
(0.417462 0.438761 -32.3138)
(0.391356 0.437367 -32.3132)
(0.410303 0.439133 -32.3141)
(0.393953 0.414424 -32.3137)
(0.337396 0.424198 -32.3147)
(3.7172 0.563737 0.00648453)
(2.05909 0.631016 0.0042248)
(1.39184 0.606513 0.00546667)
(1.08018 0.603138 0.00423)
(1.02365 0.611321 0.00524504)
(0.911005 0.616976 0.00420457)
(0.907141 0.619733 0.00504444)
(0.838034 0.621124 0.00417581)
(0.842844 0.621649 0.00488168)
(0.796692 0.622239 0.00415686)
(0.802429 0.622294 0.00474754)
(0.770725 0.622413 0.00414194)
(0.775356 0.622151 0.00463404)
(0.753396 0.622435 0.00412868)
(0.756762 0.622119 0.00453702)
(0.74106 0.622915 0.00411601)
(0.74504 0.61914 0.0044549)
(0.733906 0.627893 0.00410167)
(0.729287 0.559346 0.00440085)
(1.02027 0.584409 0.00406519)
(4.79147 0.000248551 0.0041739)
(4.16007 -0.220328 0.00222617)
(3.60326 -0.41681 0.00348961)
(3.07322 -0.520034 0.00226261)
(2.85358 -0.559566 0.00328563)
(2.60248 -0.577622 0.00224877)
(2.52557 -0.586003 0.00309245)
(2.37945 -0.591397 0.00222339)
(2.34424 -0.59449 0.0029306)
(2.24739 -0.596697 0.00220466)
(2.22652 -0.59794 0.00279641)
(2.15853 -0.598965 0.00218954)
(2.14339 -0.599467 0.00268237)
(2.09431 -0.600347 0.00217617)
(2.0819 -0.600494 0.00258499)
(2.04436 -0.60197 0.00216389)
(2.0373 -0.598579 0.00250071)
(1.99627 -0.606305 0.00215089)
(2.02575 -0.584609 0.00241306)
(1.75613 -0.594905 0.00210934)
(4.77351 0.531216 0.00535977)
(4.87819 0.78071 0.00345575)
(4.78178 0.7447 0.00463456)
(4.44156 0.683211 0.00338885)
(4.26565 0.649902 0.00440312)
(4.017 0.630799 0.00336341)
(3.91626 0.619737 0.00420682)
(3.75227 0.61346 0.00333708)
(3.69099 0.608622 0.00404507)
(3.57673 0.605952 0.00331789)
(3.53397 0.603123 0.00390944)
(3.45089 0.601718 0.00330121)
(3.41756 0.599769 0.00379342)
(3.3555 0.598827 0.0032859)
(3.3274 0.597145 0.00369475)
(3.28122 0.596535 0.00327233)
(3.25338 0.593538 0.00361349)
(3.23417 0.596116 0.00325775)
(3.17135 0.561533 0.00356954)
(3.32175 0.586951 0.00323781)
(4.63618 -0.0623941 0.00408197)
(4.88456 -0.176612 0.00238821)
(5.1226 -0.295103 0.00355506)
(5.04727 -0.389757 0.00232461)
(5.04034 -0.44237 0.00334547)
(4.9014 -0.476981 0.00231261)
(4.85811 -0.498126 0.00315914)
(4.73665 -0.513342 0.00229181)
(4.69421 -0.523994 0.00300053)
(4.59817 -0.53185 0.002275)
(4.56111 -0.537991 0.0028675)
(4.48627 -0.542569 0.00226001)
(4.45387 -0.546549 0.0027522)
(4.39518 -0.549395 0.00224449)
(4.36656 -0.55188 0.00265227)
(4.31881 -0.554192 0.00223026)
(4.29648 -0.555379 0.00256607)
(4.24542 -0.557468 0.00221658)
(4.25082 -0.564 0.00247323)
(4.08107 -0.572699 0.00218826)
(4.62069 0.410493 0.00498465)
(4.86442 0.658071 0.00335995)
(5.18176 0.68026 0.00446357)
(5.23115 0.656281 0.00321975)
(5.3432 0.637309 0.00422745)
(5.30958 0.622149 0.00318944)
(5.34756 0.610997 0.00403377)
(5.29498 0.602955 0.00316519)
(5.30233 0.596005 0.00387418)
(5.24968 0.591308 0.00314825)
(5.24354 0.586648 0.00374132)
(5.19689 0.58376 0.00313395)
(5.18457 0.580504 0.00362667)
(5.14516 0.578594 0.00311861)
(5.12916 0.576187 0.00352674)
(5.09882 0.574579 0.0031037)
(5.0754 0.572905 0.00344347)
(5.06911 0.571103 0.00308877)
(5.01353 0.557902 0.00339518)
(5.08448 0.587922 0.0030767)
(4.59697 -0.110808 0.00416945)
(4.77942 -0.239009 0.00264913)
(5.12241 -0.320779 0.00373161)
(5.22528 -0.384995 0.00249292)
(5.4044 -0.42076 0.00350027)
(5.43749 -0.446094 0.00246506)
(5.53675 -0.461908 0.00331009)
(5.54121 -0.474454 0.00244209)
(5.5975 -0.483665 0.00315063)
(5.58961 -0.491216 0.00242539)
(5.62092 -0.497441 0.00301856)
(5.60836 -0.502491 0.0024117)
(5.62488 -0.507163 0.00290441)
(5.61109 -0.510547 0.00239666)
(5.61866 -0.514323 0.00280447)
(5.60416 -0.516245 0.00238234)
(5.6084 -0.521386 0.00271795)
(5.58525 -0.518743 0.00236842)
(5.60022 -0.54137 0.00262704)
(5.50168 -0.548014 0.00234953)
(4.60994 0.326054 0.0047323)
(4.7789 0.542451 0.0032702)
(5.10136 0.581751 0.00431868)
(5.20593 0.581328 0.00307761)
(5.40003 0.577301 0.00407806)
(5.457 0.572968 0.00304041)
(5.58525 0.569134 0.00388465)
(5.62147 0.56634 0.00301597)
(5.70936 0.563253 0.00372485)
(5.73308 0.56125 0.00299941)
(5.7939 0.558708 0.00359294)
(5.80979 0.557235 0.00298624)
(5.85225 0.555163 0.00347935)
(5.8631 0.553997 0.00297166)
(5.8923 0.552437 0.00338017)
(5.90114 0.550971 0.00295775)
(5.91739 0.551326 0.00329726)
(5.93422 0.547549 0.00294408)
(5.92917 0.549512 0.00324248)
(5.96027 0.57931 0.00293589)
(4.59925 -0.154942 0.00427187)
(4.74058 -0.3025 0.00285993)
(5.06348 -0.369354 0.00389426)
(5.1706 -0.415696 0.00265344)
(5.37284 -0.440341 0.00365158)
(5.43907 -0.457481 0.0026144)
(5.57955 -0.46747 0.00345842)
(5.6298 -0.475468 0.0025895)
(5.7337 -0.480977 0.00329775)
(5.77448 -0.485738 0.00257219)
(5.85314 -0.489539 0.00316539)
(5.88688 -0.492824 0.00255853)
(5.94757 -0.495926 0.00305126)
(5.97524 -0.498106 0.00254344)
(6.02304 -0.501147 0.00295158)
(6.04407 -0.501638 0.0025297)
(6.08447 -0.507863 0.00286644)
(6.09223 -0.502107 0.00251692)
(6.13779 -0.527531 0.00278351)
(6.08372 -0.538092 0.00250476)
(4.6049 0.258724 0.00453905)
(4.74289 0.449287 0.00315932)
(5.0564 0.498105 0.00417834)
(5.15969 0.514009 0.00293891)
(5.3598 0.519985 0.0039346)
(5.42603 0.523317 0.00289692)
(5.5687 0.524584 0.00374104)
(5.62294 0.525865 0.00287213)
(5.73252 0.526068 0.00358086)
(5.78031 0.526707 0.00285539)
(5.86716 0.526584 0.00344893)
(5.90983 0.52697 0.00284223)
(5.98024 0.526791 0.00333526)
(6.01775 0.526914 0.00282754)
(6.07571 0.527021 0.00323614)
(6.10781 0.526191 0.00281412)
(6.15565 0.529153 0.00315324)
(6.18331 0.524191 0.00280154)
(6.22458 0.536976 0.00309023)
(6.22715 0.563083 0.00279426)
(4.60147 -0.202974 0.00439147)
(4.73111 -0.370998 0.00302656)
(5.0448 -0.428067 0.00404081)
(5.14824 -0.459044 0.00280061)
(5.34946 -0.474306 0.00379502)
(5.41628 -0.484567 0.00275717)
(5.5599 -0.490151 0.00360102)
(5.61527 -0.494729 0.0027319)
(5.7267 -0.497495 0.00344033)
(5.77679 -0.500109 0.00271471)
(5.86669 -0.50187 0.00330803)
(5.91269 -0.503621 0.00270118)
(5.98726 -0.50505 0.00319398)
(6.02863 -0.506085 0.00268618)
(6.09193 -0.507751 0.00309452)
(6.12693 -0.507232 0.00267278)
(6.18313 -0.512406 0.00301064)
(6.20664 -0.505963 0.00266069)
(6.26584 -0.526842 0.00293758)
(6.24105 -0.544631 0.00265216)
(4.60147 0.202974 0.00439147)
(4.73111 0.370999 0.00302656)
(5.0448 0.428067 0.00404081)
(5.14824 0.459045 0.00280061)
(5.34946 0.474306 0.00379502)
(5.41628 0.484569 0.00275717)
(5.5599 0.490153 0.00360102)
(5.61527 0.494734 0.00273189)
(5.7267 0.4975 0.00344033)
(5.77679 0.500122 0.0027147)
(5.86668 0.501888 0.00330803)
(5.91269 0.503659 0.00270116)
(5.98724 0.505099 0.00319397)
(6.02863 0.506207 0.00268609)
(6.09187 0.507883 0.00309448)
(6.12696 0.507598 0.00267252)
(6.18298 0.512802 0.00301062)
(6.20675 0.506972 0.00265997)
(6.26567 0.528047 0.00293781)
(6.24171 0.547302 0.00265092)
(4.6049 -0.258724 0.00453905)
(4.74289 -0.449286 0.00315932)
(5.0564 -0.498105 0.00417834)
(5.15969 -0.514008 0.00293891)
(5.3598 -0.519984 0.0039346)
(5.42603 -0.523315 0.00289692)
(5.5687 -0.524582 0.00374104)
(5.62294 -0.52586 0.00287213)
(5.73252 -0.526062 0.00358086)
(5.78032 -0.526694 0.0028554)
(5.86717 -0.526567 0.00344893)
(5.90984 -0.526931 0.00284226)
(5.98028 -0.526744 0.00333527)
(6.01776 -0.526788 0.00282762)
(6.07583 -0.526892 0.00323616)
(6.10782 -0.525818 0.00281437)
(6.15599 -0.528764 0.0031532)
(6.18336 -0.523201 0.0028022)
(6.22531 -0.535735 0.00308995)
(6.227 -0.560603 0.00279507)
(4.59925 0.154942 0.00427187)
(4.74058 0.3025 0.00285993)
(5.06348 0.369354 0.00389426)
(5.1706 0.415697 0.00265344)
(5.37284 0.440341 0.00365158)
(5.43908 0.457484 0.0026144)
(5.57955 0.467471 0.00345842)
(5.62981 0.475473 0.00258949)
(5.7337 0.480982 0.00329774)
(5.77449 0.48575 0.00257218)
(5.85314 0.489556 0.00316539)
(5.88689 0.492857 0.00255851)
(5.94757 0.495973 0.00305124)
(5.97528 0.498216 0.00254337)
(6.02304 0.501273 0.00295153)
(6.04419 0.501968 0.00252949)
(6.08454 0.508232 0.00286637)
(6.09261 0.503045 0.00251628)
(6.13831 0.528523 0.00278373)
(6.08527 0.540772 0.00250343)
(4.60994 -0.326054 0.0047323)
(4.7789 -0.542451 0.0032702)
(5.10136 -0.581751 0.00431868)
(5.20593 -0.581327 0.00307761)
(5.40003 -0.577301 0.00407805)
(5.457 -0.572966 0.00304041)
(5.58524 -0.569133 0.00388465)
(5.62147 -0.566335 0.00301597)
(5.70936 -0.563248 0.00372484)
(5.73309 -0.561237 0.00299942)
(5.79391 -0.558692 0.00359293)
(5.80982 -0.557197 0.00298627)
(5.85229 -0.555118 0.00347934)
(5.86317 -0.553873 0.00297175)
(5.89246 -0.552318 0.00338014)
(5.90131 -0.550602 0.002958)
(5.91794 -0.550964 0.00329712)
(5.93463 -0.546609 0.00294468)
(5.93069 -0.548172 0.00324206)
(5.96104 -0.577059 0.00293627)
(4.59697 0.110808 0.00416945)
(4.77942 0.23901 0.00264913)
(5.12241 0.320779 0.00373161)
(5.22529 0.384996 0.00249292)
(5.40439 0.42076 0.00350026)
(5.43749 0.446096 0.00246506)
(5.53674 0.461909 0.00331009)
(5.54122 0.474458 0.00244209)
(5.59749 0.48367 0.00315062)
(5.58963 0.491225 0.00242539)
(5.62091 0.497456 0.00301854)
(5.60842 0.502517 0.0024117)
(5.62488 0.507206 0.00290437)
(5.61124 0.510631 0.00239663)
(5.61872 0.514431 0.00280436)
(5.60455 0.516495 0.00238224)
(5.60871 0.521693 0.00271775)
(5.58637 0.51948 0.00236801)
(5.60156 0.541906 0.00262712)
(5.50517 0.550425 0.00234836)
(4.62069 -0.410493 0.00498465)
(4.86442 -0.658071 0.00335995)
(5.18176 -0.68026 0.00446357)
(5.23115 -0.65628 0.00321975)
(5.3432 -0.637308 0.00422745)
(5.30958 -0.622147 0.00318945)
(5.34756 -0.610996 0.00403376)
(5.29499 -0.602951 0.0031652)
(5.30233 -0.596 0.00387417)
(5.24971 -0.591296 0.00314827)
(5.24355 -0.586635 0.00374129)
(5.19697 -0.583727 0.00313399)
(5.18461 -0.580467 0.00362662)
(5.14537 -0.578483 0.00311874)
(5.12935 -0.576091 0.00352659)
(5.09935 -0.574246 0.00310408)
(5.07613 -0.572614 0.00344304)
(5.07038 -0.570281 0.00308966)
(5.0158 -0.556723 0.0033942)
(5.08727 -0.586034 0.0030773)
(4.63618 0.0623942 0.00408197)
(4.88456 0.176613 0.00238821)
(5.1226 0.295104 0.00355506)
(5.04727 0.389757 0.00232461)
(5.04034 0.44237 0.00334547)
(4.9014 0.476982 0.00231261)
(4.85811 0.498128 0.00315914)
(4.73666 0.513344 0.00229181)
(4.69421 0.523998 0.00300052)
(4.59821 0.531854 0.00227501)
(4.56111 0.538003 0.00286747)
(4.48637 0.54258 0.00226002)
(4.4539 0.546579 0.00275213)
(4.39546 0.549427 0.00224451)
(4.36669 0.55195 0.00265209)
(4.31958 0.554281 0.00223035)
(4.29695 0.555566 0.0025656)
(4.24776 0.557755 0.00221676)
(4.25237 0.564326 0.00247255)
(4.08856 0.574166 0.0021883)
(4.77351 -0.531216 0.00535977)
(4.87819 -0.78071 0.00345575)
(4.78178 -0.744699 0.00463456)
(4.44156 -0.68321 0.00338885)
(4.26565 -0.649902 0.00440312)
(4.017 -0.630798 0.00336341)
(3.91626 -0.619736 0.00420681)
(3.75228 -0.613457 0.00333709)
(3.69099 -0.608619 0.00404505)
(3.57677 -0.605945 0.00331791)
(3.53399 -0.603114 0.0039094)
(3.451 -0.601696 0.00330127)
(3.41763 -0.599742 0.00379335)
(3.35579 -0.598745 0.00328606)
(3.32765 -0.597073 0.00369455)
(3.28198 -0.59627 0.00327279)
(3.25423 -0.593323 0.00361276)
(3.2362 -0.595452 0.00325918)
(3.17361 -0.561104 0.00356705)
(3.32704 -0.58612 0.00324089)
(4.79147 -0.000248557 0.0041739)
(4.16007 0.220328 0.00222617)
(3.60326 0.41681 0.00348961)
(3.07322 0.520034 0.00226261)
(2.85358 0.559567 0.00328562)
(2.60249 0.577622 0.00224877)
(2.52557 0.586004 0.00309245)
(2.37946 0.591397 0.00222339)
(2.34425 0.594492 0.00293059)
(2.24743 0.596695 0.00220467)
(2.22654 0.597942 0.00279639)
(2.15862 0.598956 0.00218955)
(2.14346 0.599473 0.00268233)
(2.09456 0.600324 0.00217619)
(2.08213 0.600503 0.00258486)
(2.04502 0.601876 0.00216396)
(2.038 0.598612 0.00250039)
(1.99837 0.606069 0.00215112)
(2.02702 0.584854 0.00241213)
(1.76674 0.595646 0.00211111)
(3.7172 -0.563738 0.00648453)
(2.05909 -0.631016 0.0042248)
(1.39184 -0.606513 0.00546667)
(1.08018 -0.603138 0.00423)
(1.02365 -0.611321 0.00524504)
(0.911006 -0.616976 0.00420457)
(0.907144 -0.619733 0.00504444)
(0.838038 -0.621123 0.00417581)
(0.842851 -0.621649 0.00488168)
(0.796706 -0.622236 0.00415687)
(0.802447 -0.62229 0.00474753)
(0.770766 -0.622399 0.00414196)
(0.775406 -0.622145 0.00463401)
(0.75351 -0.622392 0.00412875)
(0.756928 -0.622101 0.00453693)
(0.741347 -0.622762 0.00411623)
(0.745554 -0.619102 0.00445457)
(0.73463 -0.627471 0.00410227)
(0.730863 -0.559943 0.00439957)
(1.0192 -0.585115 0.00406856)
(4.00326 0.159216 0.00119947)
(2.98206 0.122555 0.00144682)
(2.12545 0.0736851 0.000932301)
(1.66986 0.0385228 0.00129197)
(1.43759 0.0255258 0.000975432)
(1.34895 0.0257891 0.0011838)
(1.29317 0.0304871 0.000964633)
(1.26583 0.0357595 0.00109207)
(1.23695 0.0398883 0.000958102)
(1.21709 0.0430406 0.00103143)
(1.19768 0.0451621 0.000958135)
(1.18219 0.0467546 0.000992504)
(1.17005 0.0477533 0.00096211)
(1.15896 0.0486778 0.000969284)
(1.15122 0.0489781 0.000970081)
(1.1453 0.0499979 0.000957983)
(1.13794 0.0491562 0.000983045)
(1.13984 0.0518521 0.000954562)
(1.1245 0.0459022 0.000996695)
(1.16034 0.0506764 0.000982706)
(4.62198 0.179797 0.00301892)
(4.6307 0.194852 0.003376)
(4.35627 0.148311 0.00283906)
(4.06811 0.0800813 0.00318349)
(3.80362 0.0312362 0.00285979)
(3.60765 0.00197486 0.00306765)
(3.44397 -0.0133716 0.00284859)
(3.31832 -0.0228409 0.00297706)
(3.21037 -0.028484 0.00284275)
(3.12257 -0.0330327 0.00291588)
(3.04809 -0.0360616 0.00284151)
(2.98457 -0.0387681 0.00287517)
(2.93224 -0.0406303 0.00284418)
(2.88564 -0.0422369 0.00285068)
(2.84701 -0.0434879 0.00285195)
(2.8137 -0.0445217 0.00283895)
(2.78206 -0.0450675 0.00286778)
(2.75986 -0.0462742 0.00283394)
(2.73112 -0.0464387 0.00290729)
(2.71667 -0.046502 0.00288001)
(4.5642 0.124928 0.00145978)
(4.80528 0.174682 0.00172445)
(4.91305 0.174398 0.0011999)
(4.93967 0.138266 0.00154579)
(4.89079 0.109233 0.00123116)
(4.82867 0.0930718 0.00144299)
(4.75097 0.0855272 0.00122714)
(4.67712 0.081711 0.00135552)
(4.60099 0.0791748 0.00122244)
(4.52915 0.0769011 0.00129544)
(4.46059 0.0747863 0.00122204)
(4.39595 0.0728473 0.00125531)
(4.33703 0.0709237 0.00122422)
(4.2824 0.0697277 0.00123031)
(4.23175 0.0676858 0.00123079)
(4.18995 0.0677548 0.00121819)
(4.14173 0.0647476 0.00124245)
(4.11916 0.0674386 0.00121618)
(4.0596 0.0594582 0.00124102)
(4.0706 0.0697162 0.00124353)
(4.54596 0.121641 0.00276054)
(4.73993 0.141748 0.00314922)
(4.91282 0.12965 0.00263337)
(5.04881 0.0885611 0.00297129)
(5.11752 0.0537823 0.00264464)
(5.16425 0.0300227 0.00285278)
(5.18508 0.0159907 0.002634)
(5.19889 0.00662179 0.0027625)
(5.2006 9.4103e-05 0.00262852)
(5.19689 -0.00549752 0.00270206)
(5.18702 -0.010136 0.00262832)
(5.17299 -0.0142736 0.00266211)
(5.15614 -0.0180771 0.00263047)
(5.13741 -0.0208368 0.00263591)
(5.1161 -0.024404 0.00263526)
(5.09835 -0.0255531 0.00262156)
(5.07181 -0.0295111 0.00264791)
(5.06299 -0.0284613 0.0026175)
(5.02253 -0.0345789 0.00269073)
(5.03374 -0.027897 0.00266564)
(4.54892 0.0843558 0.00165321)
(4.72685 0.120963 0.0019638)
(4.88676 0.12945 0.00144405)
(5.03185 0.111342 0.00177273)
(5.12497 0.0965646 0.00144962)
(5.20436 0.0888948 0.00165978)
(5.26211 0.0864203 0.00144312)
(5.31637 0.0860448 0.00157136)
(5.3603 0.0860587 0.0014382)
(5.40017 0.0858234 0.00151145)
(5.4334 0.0851555 0.00143856)
(5.46219 0.0844039 0.00147241)
(5.48589 0.0830385 0.0014415)
(5.50652 0.0825959 0.0014474)
(5.52153 0.0802916 0.00144717)
(5.53794 0.0813339 0.00143427)
(5.54423 0.0768506 0.00145693)
(5.56259 0.0820072 0.00143206)
(5.5562 0.0707726 0.00145049)
(5.58145 0.0888464 0.00146233)
(4.54435 0.0797796 0.00253423)
(4.70105 0.0908944 0.00293137)
(4.85661 0.0830546 0.00242594)
(4.9994 0.0540372 0.00276039)
(5.09633 0.0295043 0.00243393)
(5.18369 0.01231 0.00264422)
(5.25231 0.00192931 0.00242637)
(5.31991 -0.00479305 0.00255521)
(5.37933 -0.00939106 0.00242141)
(5.43657 -0.0130143 0.00249509)
(5.48901 -0.0161203 0.00242179)
(5.53778 -0.0185743 0.00245598)
(5.5834 -0.021282 0.00242485)
(5.62456 -0.0225868 0.00243065)
(5.66399 -0.02562 0.0024303)
(5.69839 -0.0252496 0.00241696)
(5.73384 -0.0295655 0.00244282)
(5.76199 -0.026275 0.00241502)
(5.7965 -0.0335851 0.00248386)
(5.81203 -0.0240742 0.00245896)
(4.54488 0.0499403 0.00182646)
(4.69684 0.0759834 0.00217433)
(4.84637 0.0858837 0.00166382)
(4.98623 0.0782206 0.00198622)
(5.08242 0.0720605 0.00165852)
(5.17002 0.0696291 0.00186746)
(5.23965 0.0700265 0.0016494)
(5.30939 0.0714395 0.00177695)
(5.37233 0.0728151 0.00164291)
(5.4343 0.0738648 0.00171581)
(5.49315 0.0743762 0.00164258)
(5.54893 0.0748148 0.00167624)
(5.60362 0.0745118 0.00164519)
(5.65313 0.0750555 0.00165093)
(5.70426 0.0737307 0.00165093)
(5.74688 0.0754519 0.00163826)
(5.79754 0.0719968 0.00166133)
(5.83115 0.0774035 0.00163783)
(5.88844 0.0683116 0.00166057)
(5.90218 0.0852376 0.00167154)
(4.54223 0.044148 0.00233703)
(4.68238 0.0464497 0.0027333)
(4.8304 0.0395343 0.00223187)
(4.96889 0.0202446 0.00256142)
(5.06567 0.00375892 0.00223398)
(5.15427 -0.00840215 0.00244476)
(5.22517 -0.0163015 0.00222713)
(5.29611 -0.0216093 0.002356)
(5.36066 -0.0253439 0.00222224)
(5.42429 -0.0281257 0.00229591)
(5.48573 -0.0304766 0.00222278)
(5.54383 -0.0321473 0.00225683)
(5.60256 -0.0340462 0.00222577)
(5.65469 -0.0347723 0.00223152)
(5.71193 -0.0368311 0.00223161)
(5.7564 -0.0363483 0.00221882)
(5.81655 -0.0392021 0.0022445)
(5.84896 -0.0369065 0.00221912)
(5.92177 -0.0409425 0.00227821)
(5.92853 -0.0364147 0.00226032)
(4.54241 0.0184962 0.00199282)
(4.68027 0.0346888 0.00236647)
(4.82562 0.0439379 0.00186237)
(4.96289 0.0455152 0.00218427)
(5.05927 0.0470476 0.00185514)
(5.14751 0.0494632 0.00206428)
(5.21798 0.0523661 0.00184595)
(5.2885 0.0550951 0.00197366)
(5.3529 0.0573113 0.00183939)
(5.41651 0.0590111 0.00191231)
(5.47844 0.0602048 0.0018389)
(5.53702 0.0611604 0.00187242)
(5.59705 0.0616433 0.00184114)
(5.65005 0.0624013 0.00184668)
(5.70953 0.0621996 0.0018467)
(5.75502 0.0634531 0.00183423)
(5.81856 0.0619842 0.00185802)
(5.8517 0.0653711 0.00183524)
(5.93006 0.0605834 0.00186793)
(5.93741 0.0714032 0.00187133)
(4.54157 0.0121539 0.00215954)
(4.67563 0.00537015 0.00254798)
(4.82047 -0.00246039 0.00204688)
(4.95726 -0.0128147 0.0023719)
(5.05383 -0.0217701 0.00204334)
(5.14233 -0.0290385 0.00225347)
(5.21307 -0.034459 0.00203555)
(5.28374 -0.0384777 0.00216393)
(5.34831 -0.0414684 0.00202994)
(5.41198 -0.0436927 0.00210326)
(5.47419 -0.0454678 0.00203001)