/*--------------------------------*- C++ -*----------------------------------*\
  =========                 |
  \\      /  F ield         | OpenFOAM: The Open Source CFD Toolbox
   \\    /   O peration     | Website:  https://openfoam.org
    \\  /    A nd           | Version:  7
     \\/     M anipulation  |
\*---------------------------------------------------------------------------*/
FoamFile
{
    version     2.0;
    format      ascii;
    class       volScalarField;
    location    "3.95";
    object      pPrime2Mean;
}
// * * * * * * * * * * * * * * * * * * * * * * * * * * * * * * * * * * * * * //

dimensions      [2 -2 -4 0 0 0 0];

internalField   nonuniform List<scalar> 
7920
(
495785
491130
498040
497002
500855
501325
503841
504860
506696
507868
509321
510492
511671
512773
513679
514682
515222
516125
516122
516719
485984
480290
486499
485200
488821
489155
491520
492419
494137
495200
496555
497645
498754
499794
500663
501628
502163
503059
503050
503811
489837
484060
490422
489024
492711
493052
495490
496438
498223
499336
500743
501872
503025
504096
504991
505976
506527
507434
507393
508232
487632
481780
488049
486689
490331
490694
493085
494018
495761
496845
498214
499315
500438
501485
502360
503330
503875
504772
504772
505592
488881
483114
489535
488065
491731
492069
494487
495434
497205
498311
499706
500825
501967
503030
503919
504898
505445
506359
506293
507192
488379
482593
488953
487516
491178
491534
493940
494887
496646
497745
499128
500239
501372
502428
503310
504284
504830
505738
505698
506566
488379
482593
488953
487515
491177
491533
493941
494887
496646
497744
499129
500243
501372
502427
503311
504285
504829
505740
505696
506565
488881
483115
489535
488065
491731
492069
494488
495435
497206
498311
499706
500828
501967
503029
503921
504897
505445
506356
506299
507162
487632
481780
488049
486689
490329
490693
493086
494018
495761
496845
498214
499316
500438
501485
502360
503330
503873
504772
504774
505563
489837
484060
490421
489023
492709
493052
495491
496437
498224
499336
500744
501876
503025
504095
504992
505976
506527
507426
507399
508174
485984
480290
486499
485200
488821
489153
491521
492418
494133
495201
496557
497643
498754
499796
500665
501628
502163
503057
503052
503766
495785
491130
498040
497002
500856
501327
503847
504863
506699
507877
509325
510497
511673
512775
513682
514683
515221
516121
516110
516675
474915
482215
479513
482696
483112
485125
486228
487816
489025
490404
491598
492842
494021
495141
496339
497321
498671
499464
501335
501649
484015
493553
490835
494477
494960
497184
498390
500126
501446
502948
504250
505599
506862
508065
509331
510374
511764
512580
514376
514621
479362
487239
484804
488020
488615
490657
491844
493467
494723
496137
497371
498650
499850
501000
502197
503202
504510
505307
507023
507302
481430
490944
488073
491703
492188
494355
495544
497230
498520
499982
501258
502577
503825
505009
506275
507302
508722
509528
511451
511690
480532
489279
486533
489903
490366
492453
493630
495275
496538
497969
499216
500512
501730
502895
504118
505132
506483
507280
509058
509333
480857
490045
487177
490709
491179
493303
494487
496147
497419
498858
500115
501420
502653
503824
505071
506090
507486
508290
510169
510428
480857
490045
487177
490709
491179
493303
494487
496147
497418
498858
500116
501420
502653
503825
505071
506091
507488
508291
510170
510428
480533
489279
486533
489903
490366
492454
493630
495275
496537
497968
499215
500511
501730
502895
504118
505132
506481
507278
509045
509326
481430
490944
488073
491703
492188
494355
495544
497231
498519
499982
501259
502578
503825
505010
506275
507301
508720
509528
511435
511680
479362
487239
484804
488020
488614
490657
491844
493466
494723
496136
497370
498649
499850
500999
502197
503201
504508
505304
507008
507287
484015
493553
490835
494477
494961
497184
498391
500128
501445
502951
504253
505600
506862
508067
509332
510372
511762
512577
514348
514608
474915
482215
479513
482696
483112
485122
486223
487814
489022
490398
491596
492840
494019
495141
496337
497319
498669
499462
501319
501611
482827
485768
485075
488581
488638
491554
492171
494478
495415
497262
498357
499889
501030
502328
503421
504524
505478
506431
507111
508035
482829
485911
485125
488642
488687
491593
492221
494518
495461
497300
498397
499922
501062
502356
503450
504548
505509
506454
507149
508052
482650
485532
484819
488338
488411
491347
491975
494285
495221
497064
498154
499681
500816
502111
503198
504298
505243
506195
506849
507810
482826
485963
485190
488749
488769
491678
492308
494603
495548
497383
498478
500000
501139
502432
503524
504623
505578
506528
507207
508098
482706
485688
484953
488491
488542
491490
492132
494438
495384
497219
498310
499831
500966
502258
503344
504443
505388
506342
506999
507938
482776
485858
485106
488680
488708
491637
492274
494572
495519
497351
498444
499964
501101
502392
503481
504580
505529
506483
507148
508053
482776
485858
485106
488680
488708
491637
492274
494572
495519
497350
498444
499964
501101
502392
503481
504580
505528
506482
507143
508045
482706
485688
484953
488491
488542
491490
492132
494438
495384
497219
498310
499831
500966
502258
503344
504443
505388
506342
506996
507931
482826
485963
485190
488749
488769
491678
492308
494603
495548
497382
498478
500000
501139
502432
503524
504622
505576
506525
507194
508077
482650
485532
484819
488338
488411
491347
491975
494285
495221
497064
498153
499680
500816
502111
503197
504297
505241
506192
506838
507788
482829
485911
485125
488642
488687
491593
492220
494517
495461
497300
498396
499922
501062
502356
503449
504548
505506
506451
507132
508023
482827
485768
485075
488580
488638
491554
492171
494478
495415
497262
498357
499889
501030
502328
503421
504523
505475
506428
507095
508005
482827
485768
485075
488581
488638
491554
492171
494478
495415
497262
498357
499889
501030
502329
503421
504524
505478
506431
507111
508035
482829
485911
485125
488642
488687
491593
492221
494518
495461
497300
498397
499922
501062
502356
503450
504548
505509
506455
507150
508052
482649
485532
484819
488338
488411
491347
491975
494285
495221
497064
498154
499680
500816
502111
503198
504298
505243
506195
506849
507810
482826
485963
485190
488748
488769
491678
492308
494603
495548
497383
498478
500000
501139
502432
503524
504623
505578
506528
507207
508098
482706
485688
484953
488491
488542
491490
492132
494438
495384
497219
498310
499831
500966
502258
503344
504443
505388
506342
507000
507938
482776
485858
485106
488680
488708
491637
492274
494572
495519
497351
498444
499964
501101
502392
503481
504580
505529
506483
507148
508053
482776
485858
485106
488680
488708
491637
492274
494571
495518
497350
498444
499964
501101
502392
503481
504579
505528
506482
507143
508044
482706
485688
484953
488491
488542
491490
492132
494438
495384
497219
498310
499831
500966
502258
503344
504443
505388
506342
506996
507931
482826
485963
485190
488749
488769
491678
492308
494603
495548
497382
498478
500000
501139
502432
503523
504622
505576
506525
507194
508077
482649
485532
484819
488338
488411
491347
491975
494285
495221
497064
498153
499680
500816
502111
503197
504297
505241
506193
506838
507788
482829
485911
485125
488642
488687
491592
492221
494517
495461
497300
498396
499922
501062
502356
503449
504548
505506
506451
507132
508023
482827
485768
485075
488581
488638
491554
492171
494477
495415
497262
498357
499889
501030
502328
503421
504523
505476
506428
507095
508005
474915
482214
479513
482699
483110
485120
486224
487808
489020
490402
491598
492840
494019
495141
496339
497318
498671
499464
501337
501649
484015
493554
490836
494475
494962
497185
498390
500131
501445
502949
504252
505599
506862
508068
509332
510374
511766
512582
514375
514621
479361
487238
484804
488020
488614
490657
491844
493465
494723
496136
497370
498649
499850
500999
502197
503201
504511
505307
507022
507302
481430
490944
488073
491703
492189
494355
495544
497232
498519
499982
501259
502577
503825
505010
506274
507302
508722
509529
511451
511690
480532
489279
486533
489903
490366
492453
493630
495275
496536
497967
499215
500511
501730
502895
504118
505132
506482
507280
509058
509333
480856
490045
487177
490709
491179
493303
494487
496148
497417
498857
500116
501420
502652
503825
505071
506090
507487
508290
510168
510427
480856
490046
487177
490709
491179
493303
494487
496147
497419
498858
500115
501420
502652
503825
505070
506090
507488
508291
510169
510428
480532
489279
486533
489903
490366
492453
493630
495275
496538
497969
499215
500511
501730
502895
504117
505132
506482
507278
509044
509326
481430
490944
488073
491703
492188
494355
495543
497230
498519
499980
501257
502577
503827
505010
506273
507302
508721
509528
511434
511680
479361
487238
484804
488019
488615
490657
491844
493467
494723
496137
497371
498650
499850
500999
502197
503201
504509
505304
507007
507287
484015
493555
490836
494477
494960
497184
498390
500125
501445
502948
504249
505599
506864
508068
509330
510373
511763
512578
514348
514608
474915
482214
479513
482695
483111
485125
486227
487815
489025
490404
491597
492842
494020
495138
496337
497320
498669
499462
501319
501611
495785
491133
498041
496997
500860
501330
503846
504872
506700
507869
509322
510496
511673
512774
513681
514686
515222
516125
516119
516719
485984
480289
486499
485200
488820
489153
491521
492416
494131
495198
496554
497641
498754
499797
500663
501626
502163
503059
503050
503811
489837
484060
490421
489023
492711
493052
495490
496437
498223
499336
500743
501873
503026
504096
504992
505976
506527
507433
507393
508232
487632
481779
488048
486689
490330
490692
493085
494018
495760
496845
498215
499318
500438
501484
502361
503329
503874
504772
504772
505591
488881
483114
489535
488065
491729
492067
494489
495435
497205
498312
499705
500826
501967
503031
503920
504897
505446
506359
506293
507192
488379
482592
488953
487515
491176
491532
493942
494887
496646
497745
499127
500239
501372
502430
503311
504283
504831
505739
505698
506565
488379
482592
488953
487515
491177
491533
493941
494887
496646
497745
499127
500240
501372
502428
503311
504284
504830
505740
505696
506565
488881
483114
489535
488065
491731
492069
494487
495433
497205
498311
499706
500828
501967
503029
503919
504898
505445
506353
506298
507162
487632
481779
488049
486689
490329
490692
493087
494018
495757
496844
498217
499316
500437
501487
502361
503328
503873
504773
504774
505563
489837
484060
490421
489023
492709
493050
495491
496437
498222
499336
500743
501873
503025
504098
504993
505974
506527
507429
507401
508174
485984
480289
486499
485200
488821
489153
491520
492418
494137
495200
496554
497643
498755
499796
500663
501627
502165
503056
503050
503766
495785
491133
498041
497002
500855
501325
503841
504859
506696
507868
509321
510492
511672
512779
513681
514682
515222
516120
516109
516675
525309
527839
527550
528629
528639
529248
529101
529215
528683
528251
527308
526369
525019
523616
521863
520013
517881
515623
513112
510456
507589
504561
501342
497957
494397
490668
486773
482709
478483
474088
469532
464803
459908
454831
449576
444122
438442
432516
426316
419778
412813
405267
397025
388032
378420
368387
358165
347905
337706
327592
317587
307677
297876
288162
278553
269026
259603
250265
241024
231868
222823
213860
205012
196251
187609
179060
170635
162309
154113
146026
138071
130237
122538
114973
107545
100268
93126.8
86157.5
79317.6
72678.8
66145.8
59863.2
53619.3
47726.7
41683.2
36228.8
30082
25182.1
18067.7
14247.1
507843
510076
510132
511462
511603
512255
512128
512250
511751
511346
510440
509537
508229
506863
505166
503368
501293
499089
496649
494060
491265
488313
485173
481871
478397
474757
470955
466987
462861
458569
454119
449499
444717
439757
434621
429286
423739
417946
411884
405491
398677
391294
383221
374420
365007
355180
345168
335119
325130
315226
305429
295725
286129
276619
267212
257886
248663
239520
230481
221521
212671
203902
195246
186677
178225
169864
161626
153486
145474
137568
129795
122138
114616
107225
99969
92859.4
85884.4
79074.5
72391.8
65900.7
59512.7
53362.2
47248
41472.6
35554.2
30235.2
24310.4
19703.9
13367.5
10034.1
511399
513536
513605
514998
515181
515856
515739
515866
515368
514963
514054
513146
511831
510456
508749
506939
504852
502634
500179
497576
494765
491795
488638
485317
481824
478166
474343
470355
466208
461894
457421
452779
447974
442990
437830
432470
426897
421077
414987
408566
401722
394307
386200
377362
367911
358045
347993
337903
327875
317930
308093
298350
288715
279166
269721
260357
251095
241914
232837
223841
214953
206148
197456
188849
180361
171964
163689
155513
147464
139522
131711
124017
116456
109025
101727
94574.3
87553.2
80694.6
73959
67412.4
60963.9
54752.1
48572.1
42737
36755.7
31386.8
25397.9
20722.3
14223.5
10771.8
509808
511945
511980
513353
513535
514218
514110
514244
513754
513356
512454
511553
510246
508879
507180
505378
503299
501089
498643
496048
493245
490284
487137
483825
480342
476693
472880
468902
464765
460461
455999
451368
446573
441601
436452
431103
425543
419736
413658
407250
400420
393019
384928
376108
366675
356828
346795
336724
326714
316788
306970
297246
287628
278097
268669
259322
250078
240912
231853
222873
214001
205211
196534
187943
179470
171087
162826
154664
146628
138699
130900
123218
115668
108247
100960
93816.1
86803.4
79952.9
73223.5
66682.7
60237.4
54029.2
47848.5
42013.8
36030.8
30670
24706.6
20077.7
13710.4
10324.8
510494
512490
512493
513873
514062
514747
514637
514768
514275
513875
512970
512068
510759
509390
507689
505884
503804
501592
499143
496546
493741
490777
487627
484313
480826
477174
473359
469377
465237
460930
456464
451829
447031
442054
436901
431548
425984
420172
414090
407676
400841
393434
385337
376510
367071
357216
347176
337098
327080
317147
307322
297590
287965
278427
268992
259638
250387
241214
232148
223161
214283
205486
196803
188205
179726
171337
163071
154902
146861
138927
131123
123436
115881
108456
101165
94018.2
87003.1
80151.1
73421.4
66881.9
60439.7
54237.5
48066.2
42242.8
36274.8
30924
24966.2
20327.4
13920.3
10511.2
510361
512356
512332
513701
513890
514578
514470
514603
514111
513711
512807
511906
510597
509229
507529
505725
503645
501434
498986
496390
493586
490623
487474
484161
480675
477024
473209
469229
465089
460784
456319
451685
446888
441912
436760
431408
425845
420034
413953
407541
400707
393301
385205
376381
366943
357091
347052
336976
326961
317030
307206
297476
287853
278316
268883
259531
250281
241110
232046
223060
214183
205388
196707
188111
179633
171245
162981
154814
146774
138841
131039
123353
115799
108376
101086
93939.9
86925.4
80073.3
73343.6
66803.2
60359.2
54153.5
47977.2
42148.8
36174.6
30821.7
24866
20235.5
13853.5
10456.6
510347
512325
512279
513639
513826
514515
514407
514540
514048
513648
512743
511842
510533
509164
507464
505660
503580
501369
498921
496325
493520
490558
487409
484096
480610
476959
473145
469164
465025
460720
456255
451621
446824
441849
436697
431346
425782
419971
413891
407478
400645
393239
385144
376320
366882
357031
346992
336917
326902
316971
307148
297418
287796
278260
268827
259475
250226
241056
231992
223007
214130
205336
196655
188060
179583
171196
162932
154766
146727
138795
130994
123309
115757
108335
101047
93902.3
86889.3
80038.7
73310.9
66772.2
60330.1
54125.9
47951.3
42124.3
36151.5
30800.2
24847.2
20219.5
13843.4
10451
510409
512363
512290
513638
513821
514507
514397
514528
514032
513630
512724
511821
510511
509141
507439
505636
503554
501342
498894
496297
493493
490530
487380
484066
480580
476929
473114
469133
464994
460688
456223
451588
446791
441815
436663
431311
425747
419935
413854
407441
400607
393201
385105
376279
366842
356989
346950
336874
326858
316926
307102
297372
287748
278212
268778
259425
250176
241006
231941
222955
214079
205284
196603
188008
179531
171144
162881
154716
146678
138747
130947
123264
115714
108294
101008
93866.9
86857.8
80012.1
73289.6
66757.3
60323.5
54128.1
47965.1
42149.3
36190.2
30848.2
24902.9
20275.2
13887.7
10493.3
509737
511805
511716
513038
513210
513896
513791
513925
513433
513034
512131
511229
509922
508555
506856
505056
502977
500768
498323
495729
492928
489968
486822
483512
480030
476382
472570
468594
464458
460155
455695
451064
446271
441299
436151
430804
425244
419438
413361
406953
400124
392725
384635
375816
366385
356540
346508
336440
326431
316507
306690
296967
287350
277821
268394
259048
249805
240642
231583
222604
213734
204946
196270
187681
179209
170829
162571
154411
146378
138452
130657
122978
115433
108017
100735
93597.2
86590.9
79747.5
73026
66494
60058.3
53859
47689
41864.7
35893.6
30545.5
24600.9
19989.6
13656.1
10292.8
511341
513400
513271
514578
514740
515419
515307
515435
514937
514531
513622
512715
511402
510029
508324
506517
504432
502217
499765
497164
494356
491389
488235
484917
481426
477770
473950
469964
465819
461507
457036
452396
447592
442610
437451
432091
426520
420701
414612
408191
401348
393934
385827
376991
367542
357678
347628
337539
327512
317568
307732
297990
288355
278807
269362
259998
250737
241556
232480
223483
214596
205790
197099
188492
180005
171608
163335
155159
147112
139172
131363
123671
116113
108686
101392
94245
87230
80379.2
73652.4
67116.7
60680
54482.7
48318
42500.7
36540.1
31192.7
25234.2
20585.5
14138.9
10722.6
507895
510044
509862
511091
511210
511872
511756
511886
511391
510991
510090
509192
507890
506530
504839
503046
500977
498778
496342
493759
490968
488020
484885
481586
478115
474479
470680
466715
462591
458302
453853
449236
444455
439496
434362
429027
423481
417689
411626
405233
398419
391035
382962
374161
364749
354923
344910
334860
324871
314965
305167
295462
285864
276352
266942
257614
248388
239242
230200
221237
212384
203611
194952
186379
177923
169558
161316
153172
145155
137246
129468
121807
114281
106886
99626
92513.5
85535.1
78723.8
72039.1
65549.1
59162.1
53017.2
46909.5
41147.1
35246.2
29951.8
24067.6
19499.6
13243.8
9957.47
524783
527152
526871
528031
528098
528737
528588
528697
528171
527740
526799
525862
524514
523106
521360
519512
517381
515118
512615
509960
507095
504068
500851
497474
493909
490182
486288
482226
478002
473608
469054
464327
459433
454359
449105
443648
437975
432051
425853
419318
412354
404811
396566
387581
377973
367949
357730
347467
337272
327161
317159
307253
297454
287744
278138
268614
259193
249854
240620
231468
222425
213465
204620
195862
187223
178676
170254
161931
153738
145653
137701
129869
122172
114609
107184
99908.8
92770.1
85802.8
78965.2
72328.4
65798.5
59523.7
53281.2
47397
41372.9
35939.5
29830
24966.7
17931.7
14136.9
497871
501075
502732
504389
504924
505748
505769
505975
505556
505212
504360
503505
502242
500914
499259
497498
495460
493287
490885
488332
485572
482653
479549
476282
472843
469239
465473
461543
457454
453200
448789
444209
439467
434548
429455
424160
418661
412913
406898
400555
393793
386465
378448
369712
360365
350607
340664
330684
320764
310928
301199
291562
282032
272586
263243
253980
244818
235732
226755
217853
209059
200345
191742
183223
174821
166506
158313
150214
142239
134368
126624
118992
111488
104108
96854.6
89737.8
82743.6
75902
69170.1
62615.8
56141.3
49894.1
43655.5
37765.6
31716.8
26329.9
20385.4
15859
9848.61
6748.79
514232
517623
518978
520368
520761
521522
521504
521689
521226
520846
519952
519058
517749
516382
514672
512859
510765
508540
506070
503451
500621
497631
494451
491105
487584
483895
480040
476018
471835
467483
462970
458286
453436
448407
443199
437791
432164
426290
420143
413663
406756
399273
391094
382175
372639
362685
352542
342362
332242
322207
312279
302446
292720
283081
273545
264090
254738
245467
236298
227209
218229
209331
200546
191846
183263
174771
166400
158126
149979
141938
134025
126229
118563
111025
103618
96355.4
89220.4
82248.7
75394.9
68734
62164.9
55841.6
49540.9
43597.9
37491.6
32003.2
25835.6
20971.6
14055.7
10439.3
507728
511116
512503
513917
514315
515083
515074
515263
514815
514445
513564
512682
511390
510036
508348
506555
504483
502279
499836
497244
494443
491482
488333
485019
481531
477877
474059
470074
465929
461617
457145
452503
447697
442713
437551
432187
426613
420790
414696
408270
401421
394000
385886
377042
367584
357710
347649
337549
327511
317556
307709
297955
288308
278747
269288
259910
250635
241437
232346
223332
214427
205603
196891
188264
179754
171334
163035
154833
146757
138786
130943
123216
115619
108149
100809
93611.5
86539.7
79627.8
72830.1
66218.4
59691.1
53398.6
47116.8
41183.6
35079
29611.3
23506.2
18769.7
12212.3
8819.03
509479
512855
514315
515755
516152
516902
516875
517052
516590
516211
515322
514432
513132
511772
510074
508274
506193
503982
501529
498928
496118
493147
489989
486665
483167
479503
475673
471677
467520
463196
458713
454058
449239
444242
439066
433691
428100
422262
416153
409711
402845
395405
387272
378404
368921
359022
348935
338810
328747
318767
308895
299117
289446
279861
270379
260978
251680
242462
233347
224312
215385
206540
197808
189160
180631
172191
163874
155653
147559
139571
131713
123970
116359
108877
101526
94320.2
87243.4
80330.2
73537
66935.8
60428.9
54164.4
47924.7
42035
35984.7
30544.7
24445.4
19662.1
12956.4
9470.21
508694
512067
513543
514983
515379
516133
516112
516292
515837
515461
514575
513688
512391
511032
509338
507540
505463
503254
500805
498207
495400
492434
489279
485959
482465
478805
474980
470988
466837
462518
458039
453390
448576
443584
438415
433044
427461
421629
415527
409091
402233
394802
386677
377821
368350
358462
348388
338275
328223
318255
308395
298628
288968
279394
269923
260533
251246
242037
232933
223909
214992
206157
197435
188797
180277
171847
163538
155327
147242
139262
131412
123677
116073
108597
101252
94050.5
86976.4
80063.9
73268.5
66661.6
60143.8
53864.2
47601.9
41688.6
35608.8
30152.3
24044.7
19278.5
12632.9
9185.02
508817
512149
513650
515107
515507
516257
516231
516408
515948
515570
514683
513794
512495
511136
509440
507642
505563
503353
500904
498305
495497
492530
489373
486053
482558
478897
475071
471079
466926
462606
458127
453476
448662
443669
438498
433127
427542
421710
415606
409169
402310
394877
386751
377892
368418
358529
348452
338337
328283
318313
308450
298681
289019
279443
269971
260579
251289
242079
232974
223947
215029
206193
197469
188830
180309
171877
163568
155356
147270
139290
131439
123704
116101
108625
101282
94081.9
87010.9
80102.4
73312.9
66713.6
60206.5
53939.4
47693.5
41795.9
35733.8
30286.4
24182.5
19408.7
12741.8
9279.34
508775
512077
513592
515067
515478
516232
516205
516381
515921
515543
514655
513766
512467
511107
509411
507612
505534
503323
500873
498274
495466
492498
489342
486022
482527
478865
475039
471047
466894
462574
458095
453445
448630
443637
438466
433095
427511
421678
415575
409139
402279
394846
386721
377862
368389
358500
348423
338309
328255
318285
308423
298655
288993
279418
269946
260555
251266
242056
232951
223926
215008
206172
197449
188811
180291
171860
163551
155340
147255
139275
131425
123691
116088
108614
101271
94072
87001.7
80093.7
73305
66706.1
60199.6
53933
47687.5
41790.1
35728.7
30281.5
24178.5
19405.2
12741.5
9277.43
508575
511856
513363
514846
515267
516029
516008
516186
515729
515352
514466
513578
512280
510921
509226
507428
505350
503141
500692
498093
495286
492319
489164
485844
482350
478690
474865
470873
466722
462403
457924
453275
448462
443470
438301
432932
427348
421517
415415
408981
402123
394692
386569
377713
368243
358357
348283
338172
328122
318155
308296
298530
288871
279299
269829
260441
251154
241947
232845
223822
214907
206073
197353
188717
180198
171770
163463
155254
147170
139193
131344
123611
116009
108535
101193
93993.1
86921.4
80010.9
73218.1
66613.6
60098.8
53821.9
47563.4
41653.5
35578.5
30125.9
24024.5
19262.4
12627.5
9178.49
509253
512478
513994
515509
515951
516714
516686
516857
516393
516011
515121
514229
512927
511565
509866
508064
505983
503769
501317
498715
495903
492932
489773
486450
482951
479286
475457
471460
467304
462980
458497
453843
449025
444028
438853
433478
427889
422052
415944
409503
402638
395200
387068
378202
368722
358825
348741
338618
328557
318579
308710
298934
289266
279684
270204
260806
251511
242295
233183
224151
215228
206386
197657
189013
180487
172051
163737
155521
147431
139447
131593
123855
116248
108771
101425
94224.1
87152.8
80244.6
73457.4
66861.3
60360.7
54101.9
47868.4
41984.2
35941.8
30507.2
24416.7
19638.9
12950.9
9460.26
507377
510563
512043
513564
514022
514805
514795
514979
514526
514154
513272
512388
511094
509739
508049
506255
504181
501976
499532
496939
494137
491176
488026
484712
481225
477571
473753
469768
465623
461312
456841
452200
447395
442411
437250
431889
426315
420494
414401
407977
401130
393711
385600
376758
367303
357431
347373
337278
327243
317292
307447
297697
288053
278495
269040
259666
250394
241201
232112
223103
214201
205381
196674
188051
179545
171129
162835
154637
146566
138599
130762
123040
115448
107984
100651
93458.7
86393.8
79488.4
72698.5
66094.2
59575.9
53291.1
47020.6
41096.7
35004.7
29547.3
23458.9
18733.1
12201.6
8803.24
513591
516689
518211
519767
520246
521028
521002
521173
520705
520320
519422
518523
517211
515837
514125
512309
510212
507982
505512
502891
500060
497069
493888
490543
487019
483330
479476
475454
471271
466920
462408
457726
452877
447850
442643
437236
431614
425743
419599
413121
406217
398738
390562
381650
372120
362174
352038
341862
331748
321719
311799
301972
292253
282620
273091
263644
254299
245033
235873
226792
217820
208930
200153
191461
182887
174404
166043
157779
149641
141610
133708
125922
118268
110742
103349
96098.6
88977.9
82020.3
75182.9
68537
61986.4
55681
49399
43473
37391.1
31919.6
25776.5
20927.4
14050.1
10421.6
497680
500619
502197
503858
504416
505250
505277
505485
505061
504715
503864
503010
501748
500425
498768
497009
494973
492806
490403
487851
485093
482177
479075
475807
472373
468772
465008
461080
456993
452741
448332
443754
439013
434097
429005
423714
418213
412468
406454
400112
393351
386025
378013
369276
359933
350176
340236
330263
320346
310513
300786
291152
281623
272180
262839
253578
244418
235336
226358
217458
208666
199953
191353
182836
174435
166123
157931
149835
141863
133995
126254
118625
111125
103750
96501.5
89391.4
82404.3
75571.9
68850.7
62309.3
55850.3
49618.9
43405
37539.6
31519.1
26160.6
20255.2
15756.1
9786.48
6709.9
507657
509674
511346
512836
513462
514281
514334
514548
514123
513770
512905
512036
510756
509415
507737
505955
503893
501699
499265
496681
493888
490935
487794
484487
481006
477358
473546
469566
465426
461119
456652
452015
447213
442232
437074
431715
426143
420323
414232
407809
400964
393545
385433
376589
367129
357254
347191
337091
327052
317096
307248
297493
287844
278281
268821
259440
250162
240962
231866
222849
213939
205109
196392
187759
179243
170815
162509
154298
146213
138233
130381
122644
115037
107557
100208
93002
85923.2
79006.3
72207
65597.7
59078.9
52800.4
46542.4
40634.2
34564.4
29113.4
23024
18266.5
11706.4
8274.15
508443
510535
512201
513693
514323
515150
515210
515430
515010
514660
513797
512930
511650
510309
508630
506848
504784
502588
500152
497566
494770
491813
488668
485358
481873
478221
474404
470420
466276
461964
457492
452849
448042
443055
437891
432527
426949
421123
415025
408596
401743
394316
386197
377344
367877
357993
347921
337812
327764
317799
307941
298177
288519
278947
269478
260088
250801
241591
232486
223459
214540
205701
196974
188331
179805
171367
163050
154829
146733
138741
130878
123128
115508
108015
100651
93428.7
86332.5
79397
72576.9
65945.4
59401.2
53096.6
46808
40871.4
34768.7
29293.2
23176
18402.4
11814.8
8367.23
507699
509633
511313
512809
513440
514263
514319
514536
514114
513763
512900
512034
510755
509415
507739
505958
503897
501704
499271
496688
493896
490944
487802
484496
481016
477368
473556
469577
465437
461130
456664
452026
447224
442244
437086
431727
426155
420335
414244
407821
400975
393556
385444
376599
367140
357265
347202
337102
327062
317106
307258
297502
287853
278290
268829
259448
250169
240968
231872
222853
213943
205113
196394
187760
179242
170814
162506
154294
146207
138225
130371
122631
115022
107539
100187
92977.1
85894.3
78973.1
72168.8
65554.1
59028.8
52743.6
46477.4
40562.2
34485.1
29032
22946.1
18198.4
11660.5
8240.3
508385
510411
512079
513579
514212
515039
515098
515317
514897
514547
513685
512818
511539
510198
508520
506738
504675
502480
500045
497459
494664
491709
488564
485254
481770
478119
474303
470320
466176
461864
457393
452751
447944
442959
437795
432431
426854
421028
414931
408502
401650
394224
386105
377254
367787
357903
347833
337725
327677
317713
307856
298092
288435
278863
269394
260005
250718
241509
232404
223378
214459
205620
196893
188251
179724
171287
162970
154750
146654
138663
130799
123050
115431
107938
100575
93353.7
86258.8
79325
72506.9
65878
59337
53036.4
46753.2
40822.9
34728.7
29261.6
23155.3
18388.3
11807.8
8364.87
508045
509959
511639
513146
513783
514610
514668
514886
514466
514116
513254
512388
511110
509770
508093
506312
504250
502056
499623
497039
494246
491292
488149
484842
481359
477711
473897
469915
465774
461465
456996
452357
447553
442570
437409
432048
426473
420651
414557
408131
401282
393860
385744
376897
367434
357555
347489
337385
327341
317382
307529
297770
288117
278550
269084
259700
250417
241212
232112
223089
214175
205340
196618
187979
179457
171024
162712
154495
146404
138417
130558
122813
115198
107710
100352
93136.3
86046.8
79118.6
72306.6
65683.9
59149.7
52855.9
46580.1
40657.1
34572.2
29114.9
23024.7
18273.1
11723.1
8295.84
508229
510159
511828
513337
513977
514805
514864
515082
514661
514312
513449
512583
511304
509964
508287
506505
504443
502248
499814
497229
494435
491480
488337
485028
481545
477895
474080
470098
465955
461645
457175
452534
447729
442745
437583
432220
426644
420820
414724
408297
401446
394022
385905
377056
367591
357710
347641
337535
327490
317528
307673
297912
288257
278688
269220
259834
250549
241342
232239
223215
214298
205462
196737
188097
179573
171138
162823
154605
146511
138522
130661
122915
115298
107808
100447
93229.1
86137.4
79206.9
72392.4
65767.4
59230.8
52934.9
46657.2
40732.7
34646