/*--------------------------------*- C++ -*----------------------------------*\
  =========                 |
  \\      /  F ield         | OpenFOAM: The Open Source CFD Toolbox
   \\    /   O peration     | Website:  https://openfoam.org
    \\  /    A nd           | Version:  7
     \\/     M anipulation  |
\*---------------------------------------------------------------------------*/
FoamFile
{
    version     2.0;
    format      ascii;
    class       volScalarField;
    location    "2.6";
    object      T;
}
// * * * * * * * * * * * * * * * * * * * * * * * * * * * * * * * * * * * * * //

dimensions      [0 0 0 1 0 0 0];

internalField   nonuniform List<scalar> 
1200
(
283.151
283.152
283.151
283.15
283.15
283.15
283.15
283.15
283.15
283.149
283.15
283.149
283.151
283.146
283.155
283.14
283.167
283.112
283.243
282.863
283.149
283.149
283.15
283.15
283.151
283.15
283.151
283.15
283.151
283.149
283.152
283.147
283.155
283.14
283.165
283.123
283.195
283.07
283.289
282.911
283.149
283.148
283.148
283.147
283.148
283.148
283.149
283.148
283.15
283.148
283.152
283.146
283.155
283.14
283.163
283.129
283.178
283.106
283.207
283.073
283.15
283.148
283.147
283.146
283.146
283.146
283.146
283.146
283.147
283.145
283.148
283.145
283.149
283.144
283.151
283.142
283.153
283.14
283.153
283.142
283.15
283.149
283.148
283.147
283.146
283.146
283.146
283.145
283.145
283.145
283.145
283.145
283.145
283.145
283.144
283.145
283.142
283.147
283.139
283.15
283.15
283.149
283.148
283.147
283.147
283.146
283.146
283.146
283.145
283.145
283.145
283.145
283.144
283.144
283.143
283.144
283.143
283.143
283.142
283.143
283.15
283.149
283.148
283.147
283.147
283.146
283.146
283.146
283.146
283.145
283.145
283.145
283.144
283.144
283.144
283.143
283.143
283.143
283.143
283.142
283.15
283.149
283.148
283.147
283.147
283.146
283.146
283.146
283.146
283.146
283.145
283.145
283.145
283.145
283.145
283.144
283.144
283.144
283.144
283.143
283.15
283.149
283.148
283.147
283.147
283.147
283.147
283.147
283.147
283.147
283.147
283.147
283.147
283.147
283.147
283.147
283.147
283.147
283.147
283.147
283.15
283.149
283.148
283.148
283.149
283.149
283.15
283.15
283.15
283.15
283.15
283.15
283.15
283.15
283.15
283.15
283.149
283.149
283.149
283.149
283.15
283.15
283.151
283.151
283.152
283.152
283.152
283.152
283.151
283.151
283.151
283.151
283.151
283.151
283.15
283.15
283.15
283.15
283.15
283.15
283.152
283.152
283.152
283.151
283.151
283.151
283.151
283.151
283.151
283.151
283.151
283.151
283.151
283.151
283.151
283.151
283.15
283.15
283.15
283.15
286.28
288.39
289.752
290.81
291.698
292.479
293.187
293.842
294.455
295.036
295.588
296.116
296.622
297.108
297.577
298.029
298.468
298.893
299.306
299.708
300.1
300.482
300.855
301.218
301.574
301.921
302.259
302.59
302.913
303.229
303.536
303.836
304.127
304.411
304.686
304.952
305.209
305.456
305.693
305.919
306.134
306.338
306.53
306.71
306.877
307.031
307.173
307.303
307.42
307.525
307.619
307.702
307.773
307.835
307.888
307.932
307.969
307.998
308.021
308.039
308.052
308.06
308.065
308.067
308.066
308.063
308.059
308.053
308.047
308.04
308.032
308.024
308.016
308.007
307.999
307.989
307.983
307.971
307.968
307.953
284.361
286.138
287.419
288.435
289.299
290.066
290.763
291.409
292.016
292.59
293.136
293.659
294.16
294.642
295.107
295.557
295.992
296.414
296.825
297.224
297.613
297.993
298.363
298.725
299.078
299.423
299.76
300.089
300.411
300.725
301.031
301.33
301.621
301.904
302.179
302.445
302.703
302.951
303.189
303.418
303.635
303.842
304.037
304.22
304.391
304.55
304.697
304.831
304.953
305.064
305.163
305.25
305.327
305.394
305.452
305.501
305.541
305.575
305.602
305.623
305.639
305.65
305.658
305.662
305.664
305.663
305.661
305.657
305.652
305.646
305.64
305.633
305.626
305.618
305.612
305.603
305.598
305.587
305.584
305.571
283.46
284.591
285.641
286.538
287.33
288.046
288.707
289.324
289.907
290.461
290.99
291.497
291.985
292.455
292.909
293.349
293.775
294.189
294.591
294.983
295.366
295.739
296.103
296.458
296.806
297.145
297.477
297.802
298.119
298.428
298.731
299.026
299.314
299.594
299.867
300.132
300.388
300.636
300.874
301.103
301.322
301.531
301.729
301.916
302.091
302.255
302.407
302.547
302.675
302.792
302.897
302.991
303.075
303.148
303.212
303.267
303.313
303.352
303.384
303.409
303.43
303.445
303.456
303.464
303.468
303.47
303.47
303.468
303.465
303.461
303.456
303.45
303.444
303.438
303.432
303.424
303.42
303.411
303.408
303.396
283.149
283.662
284.355
285.042
285.695
286.312
286.896
287.452
287.985
288.496
288.988
289.463
289.922
290.366
290.797
291.216
291.622
292.018
292.403
292.78
293.147
293.506
293.857
294.2
294.535
294.863
295.183
295.497
295.804
296.104
296.398
296.684
296.964
297.237
297.503
297.761
298.012
298.256
298.491
298.717
298.934
299.142
299.34
299.528
299.705
299.872
300.028
300.172
300.305
300.427
300.538
300.638
300.728
300.808
300.878
300.939
300.991
301.036
301.073
301.104
301.129
301.149
301.164
301.175
301.183
301.188
301.19
301.19
301.189
301.187
301.183
301.179
301.175
301.169
301.165
301.158
301.154
301.146
301.144
301.134
283.109
283.241
283.577
284.002
284.459
284.924
285.386
285.842
286.29
286.728
287.155
287.573
287.981
288.379
288.768
289.148
289.519
289.882
290.237
290.584
290.924
291.258
291.584
291.903
292.215
292.521
292.821
293.115
293.402
293.684
293.959
294.229
294.492
294.75
295.001
295.246
295.484
295.715
295.939
296.156
296.365
296.566
296.758
296.941
297.115
297.28
297.434
297.578
297.713
297.836
297.95
298.053
298.147
298.231
298.305
298.371
298.428
298.477
298.519
298.554
298.584
298.608
298.627
298.641
298.652
298.66
298.665
298.668
298.668
298.668
298.666
298.663
298.66
298.656
298.652
298.647
298.644
298.638
298.636
298.628
283.137
283.133
283.222
283.405
283.652
283.938
284.247
284.569
284.897
285.229
285.562
285.893
286.222
286.548
286.871
287.189
287.503
287.813
288.117
288.416
288.711
289.001
289.286
289.565
289.839
290.108
290.372
290.631
290.886
291.135
291.379
291.618
291.853
292.082
292.306
292.525
292.739
292.946
293.148
293.344
293.534
293.717
293.893
294.061
294.222
294.375
294.519
294.655
294.782
294.901
295.01
295.11
295.201
295.284
295.358
295.424
295.482
295.533
295.576
295.613
295.645
295.671
295.692
295.709
295.722
295.732
295.739
295.744
295.746
295.747
295.747
295.745
295.744
295.741
295.738
295.735
295.732
295.728
295.726
295.72
283.142
283.137
283.145
283.192
283.286
283.42
283.586
283.775
283.98
284.197
284.423
284.655
284.891
285.131
285.372
285.614
285.856
286.097
286.336
286.573
286.807
287.039
287.268
287.493
287.715
287.934
288.149
288.361
288.569
288.773
288.973
289.17
289.363
289.552
289.737
289.918
290.095
290.268
290.436
290.599
290.758
290.912
291.06
291.202
291.338
291.468
291.592
291.709
291.818
291.921
292.016
292.104
292.184
292.258
292.324
292.383
292.436
292.482
292.522
292.556
292.585
292.61
292.63
292.647
292.66
292.67
292.678
292.683
292.686
292.688
292.689
292.688
292.688
292.686
292.684
292.682
292.68
292.677
292.676
292.671
283.144
283.144
283.143
283.152
283.182
283.237
283.318
283.42
283.54
283.674
283.82
283.974
284.136
284.304
284.477
284.653
284.831
285.009
285.188
285.367
285.545
285.722
285.897
286.07
286.24
286.409
286.576
286.74
286.902
287.061
287.217
287.371
287.522
287.669
287.814
287.956
288.095
288.231
288.363
288.492
288.617
288.739
288.856
288.969
289.077
289.18
289.279
289.372
289.46
289.542
289.618
289.689
289.754
289.814
289.867
289.915
289.958
289.995
290.028
290.056
290.08
290.101
290.118
290.132
290.143
290.151
290.158
290.162
290.165
290.167
290.168
290.168
290.167
290.166
290.165
290.163
290.162
290.16
290.159
290.156
283.147
283.147
283.146
283.147
283.156
283.18
283.22
283.277
283.349
283.433
283.527
283.63
283.741
283.858
283.98
284.106
284.234
284.364
284.495
284.626
284.757
284.888
285.018
285.146
285.273
285.399
285.524
285.647
285.768
285.888
286.005
286.12
286.234
286.345
286.454
286.561
286.666
286.768
286.868
286.966
287.06
287.152
287.241
287.326
287.408
287.486
287.561
287.632
287.698
287.76
287.818
287.872
287.921
287.966
288.006
288.043
288.075
288.103
288.128
288.149
288.167
288.183
288.196
288.206
288.214
288.221
288.226
288.229
288.231
288.233
288.233
288.233
288.233
288.232
288.232
288.231
288.23
288.228
288.228
288.226
283.149
283.149
283.148
283.147
283.15
283.161
283.182
283.215
283.259
283.311
283.372
283.439
283.513
283.592
283.675
283.762
283.85
283.94
284.031
284.122
284.214
284.305
284.395
284.485
284.575
284.663
284.751
284.837
284.923
285.007
285.089
285.171
285.251
285.33
285.407
285.482
285.556
285.629
285.699
285.768
285.835
285.9
285.962
286.023
286.081
286.136
286.188
286.238
286.285
286.328
286.369
286.407
286.441
286.473
286.501
286.526
286.549
286.568
286.585
286.6
286.613
286.623
286.632
286.639
286.645
286.649
286.653
286.655
286.656
286.657
286.658
286.658
286.657
286.657
286.656
286.656
286.655
286.654
286.654
286.652
283.15
283.149
283.149
283.148
283.149
283.154
283.166
283.184
283.209
283.239
283.275
283.315
283.359
283.406
283.457
283.509
283.563
283.618
283.673
283.729
283.785
283.84
283.895
283.95
284.005
284.059
284.113
284.166
284.218
284.27
284.321
284.371
284.42
284.468
284.516
284.562
284.608
284.652
284.696
284.738
284.779
284.819
284.857
284.894
284.929
284.963
284.995
285.026
285.054
285.081
285.105
285.128
285.149
285.168
285.185
285.2
285.214
285.226
285.236
285.245
285.252
285.258
285.264
285.268
285.271
285.274
285.276
285.277
285.278
285.278
285.279
285.279
285.278
285.278
285.278
285.278
285.277
285.277
285.276
285.275
283.15
283.15
283.15
283.149
283.15
283.151
283.155
283.162
283.17
283.18
283.193
283.206
283.221
283.238
283.255
283.274
283.293
283.312
283.332
283.351
283.37
283.39
283.408
283.427
283.446
283.465
283.483
283.502
283.52
283.538
283.556
283.574
283.591
283.608
283.624
283.64
283.656
283.672
283.687
283.702
283.716
283.73
283.743
283.756
283.769
283.78
283.791
283.802
283.812
283.821
283.83
283.837
283.844
283.851
283.857
283.862
283.866
283.87
283.874
283.877
283.879
283.882
283.883
283.885
283.886
283.887
283.888
283.888
283.888
283.889
283.889
283.889
283.889
283.889
283.889
283.888
283.888
283.888
283.888
283.887
)
;

boundaryField
{
    upperWall
    {
        type            fixedValue;
        value           uniform 283.15;
    }
    lowerWall
    {
        type            fixedValue;
        value           uniform 283.15;
    }
    heatedWall
    {
        type            externalWallHeatFluxTemperature;
        mode            power;
        kappaMethod     fluidThermo;
        kappa           none;
        alphaAni        Anialpha;
        Q               5040;
        qr              none;
        refValue        nonuniform List<scalar> 
80
(
287.688
289.737
291.111
292.174
293.062
293.843
294.55
295.205
295.818
296.399
296.952
297.48
297.986
298.473
298.942
299.395
299.834
300.26
300.673
301.076
301.468
301.85
302.223
302.587
302.943
303.29
303.629
303.96
304.283
304.599
304.907
305.206
305.498
305.782
306.057
306.323
306.581
306.828
307.065
307.291
307.507
307.71
307.902
308.082
308.249
308.403
308.545
308.675
308.792
308.897
308.99
309.072
309.144
309.206
309.258
309.302
309.338
309.367
309.389
309.406
309.418
309.426
309.431
309.432
309.431
309.427
309.423
309.416
309.409
309.401
309.393
309.384
309.376
309.366
309.358
309.347
309.341
309.328
309.324
309.308
)
;
        refGradient     nonuniform List<scalar> 
80
(
169.005
161.609
163.1
163.637
163.681
163.63
163.583
163.556
163.561
163.592
163.64
163.694
163.751
163.808
163.863
163.916
163.967
164.014
164.059
164.101
164.14
164.177
164.212
164.245
164.278
164.31
164.342
164.373
164.403
164.432
164.46
164.487
164.512
164.536
164.558
164.579
164.597
164.614
164.628
164.639
164.648
164.653
164.654
164.652
164.646
164.636
164.622
164.604
164.581
164.554
164.523
164.488
164.448
164.405
164.358
164.308
164.254
164.198
164.139
164.079
164.016
163.951
163.885
163.818
163.75
163.68
163.61
163.538
163.467
163.395
163.324
163.25
163.181
163.104
163.04
162.955
162.901
162.801
162.767
162.636
)
;
        valueFraction   uniform 0;
        value           nonuniform List<scalar> 
80
(
287.688
289.737
291.111
292.174
293.062
293.843
294.55
295.205
295.818
296.399
296.952
297.48
297.986
298.473
298.942
299.395
299.834
300.26
300.673
301.076
301.468
301.85
302.223
302.587
302.943
303.29
303.629
303.96
304.283
304.599
304.907
305.206
305.498
305.782
306.057
306.323
306.581
306.828
307.065
307.291
307.507
307.71
307.902
308.082
308.249
308.403
308.545
308.675
308.792
308.897
308.99
309.072
309.144
309.206
309.258
309.302
309.338
309.367
309.389
309.406
309.418
309.426
309.431
309.432
309.431
309.427
309.423
309.416
309.409
309.401
309.393
309.384
309.376
309.366
309.358
309.347
309.341
309.328
309.324
309.308
)
;
    }
    inlet
    {
        type            fixedValue;
        value           uniform 283.15;
    }
    outlet
    {
        type            inletOutlet;
        inletValue      uniform 283.15;
        value           nonuniform List<scalar> 
12
(
307.953
305.571
303.396
301.134
298.628
295.72
292.671
290.156
288.226
286.652
285.275
283.887
)
;
    }
    frontAndBack
    {
        type            empty;
    }
}


// ************************************************************************* //
