/*--------------------------------*- C++ -*----------------------------------*\
  =========                 |
  \\      /  F ield         | OpenFOAM: The Open Source CFD Toolbox
   \\    /   O peration     | Website:  https://openfoam.org
    \\  /    A nd           | Version:  7
     \\/     M anipulation  |
\*---------------------------------------------------------------------------*/
FoamFile
{
    version     2.0;
    format      ascii;
    class       volScalarField;
    location    "2.85";
    object      k_0;
}
// * * * * * * * * * * * * * * * * * * * * * * * * * * * * * * * * * * * * * //

dimensions      [0 2 -2 0 0 0 0];

internalField   nonuniform List<scalar> 
1800
(
0.27231
1.43147
1.9137
1.87999
1.7251
1.51261
1.35103
1.23389
1.14897
1.08507
1.03488
0.993873
0.959274
0.929394
0.903151
0.879872
0.859038
0.840299
0.823334
0.807942
0.793854
0.781002
0.769049
0.758196
0.747759
0.738633
0.729073
0.721675
0.71098
0.718076
0.00872006
0.142088
0.435967
0.639292
0.745687
0.784889
0.793844
0.79203
0.786785
0.778042
0.768693
0.758974
0.749087
0.739412
0.730064
0.721147
0.712584
0.704486
0.696637
0.689325
0.682038
0.675555
0.668594
0.663145
0.656109
0.652047
0.644578
0.641412
0.632035
0.632095
0.000106356
0.00540001
0.027724
0.0758125
0.127916
0.16805
0.196659
0.217405
0.233418
0.246651
0.258108
0.268737
0.2788
0.288501
0.297536
0.306269
0.314177
0.32193
0.328635
0.335471
0.340921
0.346982
0.351156
0.356623
0.359574
0.364519
0.366529
0.370779
0.372
0.374865
2.08569e-05
0.000143718
0.000989248
0.00358896
0.00914178
0.0164603
0.0236075
0.0303072
0.0362561
0.04179
0.0467999
0.0516582
0.0561845
0.0607642
0.065101
0.0696002
0.0738796
0.0783885
0.0826802
0.087233
0.0915772
0.0961585
0.100591
0.105131
0.10971
0.114068
0.118897
0.12283
0.128057
0.131303
2.02319e-05
2.39752e-05
4.58559e-05
0.000121783
0.000307571
0.000663933
0.00119019
0.00174108
0.0023976
0.00303602
0.00377364
0.004482
0.00529556
0.00606756
0.00695491
0.00778329
0.00874026
0.00961771
0.0106444
0.0115677
0.0126698
0.0136378
0.0148267
0.0158369
0.0171312
0.0181721
0.0196017
0.0206373
0.0222543
0.0232515
2.01429e-05
2.18127e-05
2.69914e-05
3.21156e-05
4.28086e-05
5.04124e-05
6.68661e-05
7.80478e-05
0.000101599
0.00011686
0.000148766
0.0001692
0.000211785
0.000238465
0.000293822
0.000327542
0.000397171
0.000438559
0.000523669
0.000573377
0.00067502
0.000734189
0.00085149
0.00092534
0.0010583
0.00114685
0.0012994
0.00140042
0.00157944
0.00169171
2.01431e-05
2.18124e-05
2.69914e-05
3.21185e-05
4.34633e-05
5.08341e-05
6.77325e-05
7.8617e-05
0.000102406
0.000117403
0.000149556
0.000169737
0.000212596
0.000239
0.000294614
0.00032801
0.00039786
0.000438864
0.000524158
0.000573363
0.000675229
0.000733231
0.000852711
0.000920115
0.0010581
0.00113529
0.001292
0.00137847
0.00155283
0.00165139
2.02322e-05
2.39786e-05
4.58894e-05
0.000121914
0.000340913
0.000634547
0.0012387
0.00169462
0.00244502
0.0029885
0.00382196
0.00443361
0.00534581
0.00601741
0.0070065
0.00773017
0.00879263
0.0095612
0.0106971
0.0115072
0.0127204
0.0135709
0.0148684
0.0157577
0.0171488
0.0180685
0.0195633
0.0204849
0.0220923
0.0230051
2.08601e-05
0.000143883
0.000990083
0.00359126
0.00915887
0.0164479
0.0236233
0.0302837
0.036274
0.0417614
0.0468276
0.0516251
0.0562231
0.0607206
0.065149
0.06954
0.0739386
0.0783067
0.0827525
0.0871218
0.0916601
0.0960035
0.100669
0.104909
0.109745
0.113746
0.1188
0.122353
0.127616
0.130596
0.000106536
0.00540311
0.0277332
0.0758281
0.127929
0.168058
0.196659
0.217402
0.233417
0.246651
0.258112
0.268739
0.278806
0.288499
0.297539
0.306257
0.314178
0.321903
0.328633
0.335418
0.34091
0.346879
0.351117
0.356435
0.359454
0.364209
0.36618
0.370169
0.371292
0.373777
0.00872534
0.142117
0.436003
0.639322
0.745713
0.784904
0.793852
0.792034
0.786787
0.778045
0.768696
0.758977
0.749086
0.739415
0.730059
0.721154
0.712572
0.704504
0.696611
0.689363
0.681987
0.67563
0.668505
0.663272
0.655999
0.652196
0.644518
0.641503
0.632087
0.632369
0.272309
1.43145
1.91368
1.87996
1.72507
1.51259
1.35102
1.23388
1.14897
1.08507
1.03488
0.993875
0.959276
0.929406
0.903162
0.879902
0.85906
0.840365
0.823378
0.808082
0.793939
0.781293
0.769217
0.758791
0.748101
0.739806
0.729802
0.723814
0.713065
0.720807
1.26598
1.40777
1.39199
1.36586
1.34858
1.3355
1.32575
1.31926
1.31557
1.31384
1.31354
1.31407
1.31518
1.31654
1.31802
1.3195
1.32095
1.32234
1.32366
1.32492
1.32611
1.32725
1.32835
1.32942
1.33045
1.33146
1.33246
1.33343
1.33439
1.33533
1.33626
1.33718
1.33809
1.33899
1.33988
1.34077
1.34164
1.3425
1.34336
1.3442
1.34504
1.34587
1.34669
1.3475
1.34831
1.3491
1.34989
1.35067
1.35144
1.3522
1.35295
1.35369
1.35443
1.35515
1.35587
1.35658
1.35727
1.35796
1.35864
1.35931
1.35998
1.36063
1.36127
1.36191
1.36253
1.36315
1.36375
1.36436
1.36495
1.36553
1.36611
1.36668
1.36724
1.36779
1.36834
1.36888
1.36942
1.36994
1.37047
1.37099
1.3715
1.37201
1.37252
1.37302
1.37351
1.374
1.37449
1.37498
1.37546
1.37594
1.37642
1.3769
1.37737
1.37785
1.37832
1.37879
1.37926
1.37972
1.38019
1.38065
1.38112
1.38158
1.38204
1.38251
1.38297
1.38343
1.38389
1.38435
1.38481
1.38527
1.38572
1.3862
1.38663
1.38713
1.38754
1.38808
1.38842
1.38906
1.38928
1.39009
1.24796
1.55195
1.60835
1.60524
1.5959
1.58807
1.58335
1.58101
1.58066
1.58128
1.58277
1.58461
1.58655
1.58848
1.59032
1.59207
1.59371
1.59526
1.59672
1.59812
1.59946
1.60075
1.602
1.60323
1.60443
1.60561
1.60676
1.60791
1.60904
1.61015
1.61125
1.61234
1.61342
1.61449
1.61554
1.61659
1.61762
1.61865
1.61966
1.62066
1.62166
1.62264
1.62362
1.62458
1.62554
1.62648
1.62742
1.62834
1.62926
1.63016
1.63106
1.63195
1.63282
1.63369
1.63455
1.6354
1.63623
1.63706
1.63788
1.63868
1.63948
1.64027
1.64105
1.64181
1.64257
1.64332
1.64405
1.64478
1.6455
1.64621
1.64692
1.64761
1.6483
1.64897
1.64964
1.6503
1.65096
1.65161
1.65225
1.65288
1.65351
1.65414
1.65476
1.65537
1.65598
1.65658
1.65718
1.65778
1.65837
1.65896
1.65955
1.66013
1.66071
1.66129
1.66187
1.66245
1.66302
1.66359
1.66416
1.66473
1.6653
1.66586
1.66643
1.667
1.66756
1.66812
1.66869
1.66925
1.66981
1.67038
1.67093
1.67151
1.67204
1.67266
1.67314
1.67382
1.67422
1.67501
1.67531
1.67625
0.725188
1.07221
1.20654
1.25112
1.26769
1.27672
1.28391
1.29031
1.29609
1.30096
1.30501
1.30827
1.31084
1.31287
1.31452
1.3159
1.3171
1.31818
1.31918
1.32015
1.32108
1.322
1.32291
1.32382
1.32472
1.32561
1.3265
1.32738
1.32826
1.32913
1.33
1.33086
1.33171
1.33256
1.3334
1.33423
1.33506
1.33587
1.33668
1.33749
1.33828
1.33907
1.33986
1.34063
1.3414
1.34217
1.34292
1.34367
1.34442
1.34515
1.34588
1.3466
1.34732
1.34803
1.34873
1.34943
1.35012
1.3508
1.35147
1.35214
1.3528
1.35346
1.35411
1.35475
1.35538
1.35601
1.35663
1.35725
1.35785
1.35845
1.35905
1.35964
1.36022
1.3608
1.36137
1.36193
1.36249
1.36305
1.36359
1.36414
1.36468
1.36521
1.36574
1.36627
1.36679
1.36731
1.36782
1.36833
1.36884
1.36934
1.36984
1.37034
1.37084
1.37133
1.37182
1.37231
1.3728
1.37328
1.37377
1.37425
1.37473
1.37521
1.37568
1.37616
1.37664
1.37711
1.37759
1.37806
1.37853
1.37901
1.37947
1.37997
1.38041
1.38093
1.38133
1.3819
1.38223
1.38289
1.38316
1.38393
0.223744
0.492132
0.681507
0.786042
0.843507
0.879001
0.903709
0.921944
0.935563
0.945492
0.952531
0.957368
0.960601
0.96272
0.964106
0.965037
0.965701
0.966225
0.966687
0.967133
0.967587
0.96806
0.968555
0.969072
0.969607
0.970155
0.970714
0.971281
0.971851
0.972425
0.973
0.973575
0.97415
0.974723
0.975293
0.97586
0.976422
0.976981
0.977536
0.978087
0.978634
0.979179
0.97972
0.980258
0.980792
0.981323
0.981849
0.982371
0.982889
0.983403
0.983914
0.984422
0.984928
0.98543
0.985929
0.986424
0.986916
0.987404
0.987888
0.988369
0.988846
0.98932
0.989792
0.99026
0.990726
0.991188
0.991646
0.992101
0.992551
0.992998
0.993441
0.993882
0.994319
0.994753
0.995184
0.995611
0.996035
0.996456
0.996872
0.997285
0.997695
0.998102
0.998506
0.998907
0.999305
0.999701
1.00009
1.00048
1.00087
1.00126
1.00164
1.00202
1.00239
1.00277
1.00314
1.00351
1.00388
1.00425
1.00462
1.00498
1.00535
1.00571
1.00607
1.00642
1.00678
1.00714
1.00749
1.00785
1.0082
1.00857
1.00891
1.00928
1.00961
1.01
1.01029
1.01072
1.01097
1.01144
1.01166
1.01223
0.0364101
0.0931585
0.209891
0.324822
0.413115
0.476419
0.521056
0.5523
0.573995
0.5888
0.598662
0.605034
0.609004
0.611368
0.612702
0.613402
0.613737
0.613883
0.613947
0.613993
0.614057
0.614153
0.614287
0.614457
0.614659
0.614888
0.615137
0.615402
0.61568
0.615966
0.61626
0.616559
0.616861
0.617166
0.617472
0.617778
0.618083
0.618387
0.61869
0.618991
0.619292
0.619591
0.61989
0.620188
0.620484
0.62078
0.621074
0.621366
0.621657
0.621947
0.622237
0.622525
0.622814
0.623103
0.623391
0.623679
0.623966
0.624252
0.624537
0.624821
0.625105
0.625388
0.625672
0.625955
0.626238
0.626521
0.626803
0.627085
0.627365
0.627643
0.627921
0.628198
0.628474
0.62875
0.629025
0.629299
0.629572
0.629843
0.630113
0.630381
0.630647
0.630911
0.631175
0.631437
0.631698
0.631957
0.632216
0.632472
0.632727
0.63298
0.633231
0.63348
0.633728
0.633974
0.63422
0.634464
0.634707
0.634949
0.635189
0.635428
0.635665
0.635902
0.636136
0.636371
0.636603
0.636837
0.637067
0.637302
0.637528
0.637766
0.637985
0.63823
0.638436
0.638694
0.638879
0.63916
0.639318
0.63962
0.639766
0.640131
0.0026123
0.00731523
0.0217643
0.0535563
0.102388
0.154692
0.202281
0.241397
0.271428
0.293399
0.308904
0.319527
0.326614
0.331219
0.334125
0.335898
0.336936
0.337511
0.337808
0.337946
0.338002
0.338023
0.338037
0.338058
0.338092
0.338143
0.338209
0.33829
0.338383
0.338486
0.338599
0.338719
0.338846
0.338977
0.339113
0.339252
0.339393
0.339535
0.339679
0.339824
0.339971
0.340119
0.340269
0.34042
0.340573
0.340726
0.340878
0.341031
0.341183
0.341335
0.341488
0.34164
0.341793
0.341947
0.3421
0.342254
0.342408
0.342562
0.342716
0.342869
0.343023
0.343176
0.343331
0.343485
0.34364
0.343796
0.343951
0.344106
0.344261
0.344415
0.344569
0.344724
0.344877
0.345031
0.345185
0.345339
0.345492
0.345645
0.345797
0.345948
0.346098
0.346247
0.346396
0.346544
0.346692
0.346839
0.346986
0.347131
0.347275
0.347419
0.347561
0.347702
0.347842
0.347982
0.348121
0.348259
0.348396
0.348533
0.348669
0.348804
0.348938
0.349071
0.349203
0.349335
0.349465
0.349598
0.349726
0.34986
0.349984
0.350121
0.350239
0.350383
0.350491
0.350643
0.350739
0.350901
0.350987
0.351154
0.351238
0.351443
0.00257928
0.00718329
0.0214151
0.0528676
0.101892
0.154568
0.202557
0.242053
0.272401
0.294641
0.310376
0.321203
0.328476
0.333256
0.336331
0.338269
0.339467
0.340198
0.340647
0.340934
0.341135
0.341296
0.341446
0.3416
0.341763
0.341939
0.342127
0.342326
0.342534
0.342749
0.342971
0.343197
0.343427
0.34366
0.343895
0.344131
0.344366
0.344602
0.344836
0.34507
0.345303
0.345536
0.345769
0.346002
0.346235
0.346466
0.346695
0.346922
0.347148
0.347371
0.347593
0.347813
0.348031
0.348249
0.348465
0.348679
0.348891
0.349101
0.349308
0.349514
0.349717
0.349919
0.350119
0.350317
0.350514
0.350709
0.350902
0.351093
0.351281
0.351468
0.351652
0.351833
0.352014
0.352192
0.352369
0.352544
0.352718
0.352889
0.353058
0.353225
0.353389
0.353552
0.353713
0.353873
0.354031
0.354187
0.354342
0.354496
0.354647
0.354797
0.354945
0.355092
0.355237
0.355381
0.355523
0.355665
0.355806
0.355946
0.356084
0.356222
0.356357
0.356493
0.356626
0.35676
0.356891
0.357025
0.357154
0.357289
0.357415
0.357553
0.357672
0.357817
0.357927
0.358081
0.358178
0.358342
0.358428
0.358599
0.358683
0.358891
0.0363107
0.0925717
0.20858
0.324324
0.413787
0.478069
0.523384
0.555141
0.577201
0.592309
0.602415
0.608999
0.613158
0.615702
0.617206
0.618072
0.618567
0.618867
0.619079
0.619269
0.619471
0.619701
0.619965
0.620262
0.620587
0.620936
0.621303
0.621683
0.622073
0.622471
0.622873
0.623278
0.623686
0.624094
0.624502
0.624909
0.625313
0.625714
0.626113
0.626509
0.626902
0.627293
0.627682
0.628068
0.628452
0.628833
0.629211
0.629586
0.629958
0.630327
0.630693
0.631056
0.631418
0.631777
0.632134
0.632488
0.632839
0.633187
0.633532
0.633873
0.634211
0.634546
0.634879
0.63521
0.635538
0.635864
0.636186
0.636505
0.636821
0.637134
0.637443
0.63775
0.638054
0.638355
0.638654
0.638951
0.639245
0.639535
0.639823
0.640107
0.640389
0.640667
0.640943
0.641217
0.641489
0.641759
0.642026
0.642291
0.642553
0.642813
0.64307
0.643325
0.643578
0.643829
0.644079
0.644327
0.644573
0.644818
0.645061
0.645303
0.645543
0.645781
0.646018
0.646254
0.646488
0.646724
0.646956
0.647192
0.64742
0.647659
0.64788
0.648126
0.648335
0.648595
0.648781
0.649065
0.649224
0.649529
0.649677
0.650046
0.224664
0.490882
0.682008
0.788275
0.846834
0.882915
0.907895
0.926268
0.939863
0.949763
0.9567
0.961416
0.964512
0.966489
0.967733
0.96852
0.969043
0.969427
0.969753
0.970066
0.970391
0.97074
0.971116
0.971519
0.971945
0.972391
0.972852
0.973325
0.973807
0.974297
0.974793
0.975293
0.975795
0.9763
0.976805
0.977309
0.977813
0.978316
0.978816
0.979316
0.979815
0.980312
0.980808
0.981302
0.981794
0.982283
0.98277
0.983254
0.983736
0.984215
0.984692
0.985167
0.98564
0.98611
0.986579
0.987044
0.987507
0.987967
0.988424
0.988879
0.989331
0.989782
0.99023
0.990676
0.99112
0.991562
0.992
0.992436
0.99287
0.9933
0.993728
0.994154
0.994578
0.994999
0.995418
0.995835
0.996249
0.99666
0.997068
0.997473
0.997876
0.998276
0.998675
0.999071
0.999465
0.999856
1.00025
1.00063
1.00102
1.0014
1.00178
1.00215
1.00253
1.0029
1.00328
1.00365
1.00402
1.00438
1.00475
1.00511
1.00547
1.00584
1.00619
1.00655
1.00691
1.00727
1.00763
1.00799
1.00834
1.0087
1.00904
1.00941
1.00974
1.01013
1.01042
1.01085
1.0111
1.01158
1.0118
1.01236
0.726661
1.07346
1.20994
1.25521
1.27166
1.28033
1.28704
1.29296
1.29816
1.30261
1.30612
1.30886
1.31093
1.31247
1.31363
1.31452
1.31525
1.31587
1.31643
1.31695
1.31747
1.31798
1.3185
1.31903
1.31956
1.3201
1.32065
1.32121
1.32177
1.32234
1.32291
1.32349
1.32406
1.32464
1.32522
1.32579
1.32637
1.32695
1.32753
1.3281
1.32868
1.32925
1.32983
1.3304
1.33097
1.33153
1.3321
1.33266
1.33322
1.33378
1.33434
1.3349
1.33545
1.336
1.33655
1.3371
1.33764
1.33818
1.33873
1.33927
1.3398
1.34034
1.34088
1.34141
1.34194
1.34247
1.343
1.34353
1.34405
1.34458
1.3451
1.34562
1.34614
1.34666
1.34717
1.34768
1.3482
1.34871
1.34921
1.34972
1.35023
1.35073
1.35123
1.35173
1.35223
1.35273
1.35322
1.35371
1.3542
1.35469
1.35518
1.35567
1.35615
1.35664
1.35712
1.3576
1.35808
1.35856
1.35904
1.35952
1.35999
1.36047
1.36095
1.36142
1.36189
1.36237
1.36284
1.36332
1.36378
1.36426
1.36472
1.36521
1.36565
1.36617
1.36657
1.36713
1.36746
1.36811
1.36839
1.36915
1.24927
1.55514
1.61094
1.60698
1.59624
1.58718
1.58131
1.57797
1.57655
1.57655
1.57705
1.5781
1.57925
1.5804
1.58148
1.58247
1.58338
1.58422
1.58499
1.58571
1.5864
1.58706
1.5877
1.58833
1.58896
1.58958
1.5902
1.59082
1.59144
1.59206
1.59268
1.5933
1.59392
1.59454
1.59516
1.59578
1.5964
1.59702
1.59764
1.59825
1.59887
1.59948
1.60009
1.6007
1.60131
1.60191
1.60251
1.60311
1.60371
1.6043
1.6049
1.60549
1.60608
1.60667
1.60726
1.60785
1.60843
1.60901
1.6096
1.61018
1.61076
1.61134
1.61192
1.6125
1.61308
1.61365
1.61423
1.61481
1.61538
1.61596
1.61653
1.6171
1.61768
1.61825
1.61882
1.61939
1.61996
1.62053
1.6211
1.62167
1.62224
1.62281
1.62338
1.62394
1.62451
1.62507
1.62564
1.6262
1.62677
1.62733
1.62789
1.62845
1.62902
1.62958
1.63014
1.6307
1.63126
1.63182
1.63238
1.63294
1.6335
1.63406
1.63462
1.63518
1.63574
1.6363
1.63685
1.63741
1.63797
1.63853
1.63908
1.63966
1.64018
1.64079
1.64127
1.64194
1.64233
1.64311
1.64341
1.64434
1.26296
1.40568
1.38721
1.36005
1.34138
1.32698
1.31614
1.30872
1.30415
1.30169
1.30057
1.30041
1.30075
1.30142
1.30219
1.30299
1.30376
1.30449
1.30517
1.3058
1.30638
1.30694
1.30746
1.30797
1.30845
1.30893
1.30941
1.30987
1.31034
1.3108
1.31126
1.31172
1.31217
1.31263
1.31308
1.31354
1.31399
1.31444
1.31489
1.31534
1.31579
1.31623
1.31667
1.31712
1.31756
1.318
1.31843
1.31887
1.3193
1.31974
1.32017
1.3206
1.32103
1.32146
1.32189
1.32232
1.32274
1.32317
1.3236
1.32403
1.32445
1.32488
1.32531
1.32573
1.32616
1.32658
1.32701
1.32744
1.32787
1.3283
1.32873
1.32916
1.32959
1.33002
1.33045
1.33089
1.33132
1.33175
1.33219
1.33262
1.33306
1.3335
1.33394
1.33438
1.33482
1.33525
1.3357
1.33614
1.33658
1.33702
1.33747
1.33791
1.33836
1.3388
1.33925
1.33969
1.34014
1.34059
1.34104
1.34149
1.34194
1.34239
1.34284
1.34329
1.34374
1.34419
1.34464
1.3451
1.34554
1.346
1.34644
1.34691
1.34734
1.34783
1.34822
1.34876
1.34909
1.34972
1.34994
1.35073
)
;

boundaryField
{
    upperWall
    {
        type            fixedValue;
        value           uniform 0;
    }
    lowerWall
    {
        type            fixedValue;
        value           uniform 0;
    }
    heatedWall
    {
        type            fixedValue;
        value           uniform 0;
    }
    inlet
    {
        type            fixedValue;
        value           uniform 2e-05;
    }
    outlet
    {
        type            inletOutlet;
        inletValue      uniform 0;
        value           nonuniform List<scalar> 
12
(
1.39009
1.67625
1.38393
1.01223
0.640131
0.351443
0.358891
0.650046
1.01236
1.36915
1.64434
1.35073
)
;
    }
    frontAndBack
    {
        type            empty;
    }
}


// ************************************************************************* //
