/*--------------------------------*- C++ -*----------------------------------*\
  =========                 |
  \\      /  F ield         | OpenFOAM: The Open Source CFD Toolbox
   \\    /   O peration     | Website:  https://openfoam.org
    \\  /    A nd           | Version:  7
     \\/     M anipulation  |
\*---------------------------------------------------------------------------*/
FoamFile
{
    version     2.0;
    format      ascii;
    class       volSymmTensorField;
    location    "0.5525";
    object      UPrime2Mean;
}
// * * * * * * * * * * * * * * * * * * * * * * * * * * * * * * * * * * * * * //

dimensions      [0 2 -2 0 0 0 0];

internalField   nonuniform List<symmTensor> 
7920
(
(0.0416988 -0.00331645 -0.00367616 0.000450668 0.000423484 0.000745346)
(0.174191 0.0239426 -0.00928285 0.00423641 -0.00138832 0.0012424)
(0.260191 0.0425248 -0.0114673 0.0090903 -0.00211246 0.00157531)
(0.342898 0.0549496 -0.0124301 0.0113739 -0.00213469 0.00166449)
(0.352714 0.0551979 -0.0127813 0.0121687 -0.00227053 0.00181768)
(0.393965 0.0583178 -0.0128099 0.0124234 -0.00213448 0.00177142)
(0.386126 0.0557804 -0.0128247 0.012599 -0.0022416 0.00176897)
(0.413809 0.0571601 -0.01258 0.0126256 -0.00212889 0.00162657)
(0.403084 0.054483 -0.0124543 0.0127045 -0.00221435 0.00155706)
(0.424111 0.055128 -0.0121169 0.0127019 -0.00212366 0.00141639)
(0.413722 0.0525878 -0.0119428 0.0127414 -0.00218472 0.001355)
(0.430227 0.0526963 -0.0115716 0.012728 -0.00210198 0.00125441)
(0.421126 0.0503882 -0.0113505 0.012748 -0.0021388 0.00122334)
(0.434078 0.0501273 -0.0109472 0.0127393 -0.00206451 0.00117035)
(0.426848 0.0480714 -0.0106531 0.012742 -0.00207657 0.0011652)
(0.436623 0.0475281 -0.0102401 0.0127644 -0.00202172 0.00115705)
(0.431957 0.0455126 -0.00986568 0.0126498 -0.00198478 0.00114939)
(0.439292 0.0450306 -0.00954738 0.0129132 -0.00200906 0.00119056)
(0.433341 0.0389495 -0.00885795 0.0110671 -0.00172496 0.00112007)
(0.469592 0.0521702 -0.00748542 0.0136972 -0.00196256 0.0012045)
(0.01293 0.00161151 0.000524986 0.0208263 0.0031861 0.000809638)
(0.0252174 -0.0121261 -0.00206503 0.0228844 0.0043371 0.00221589)
(0.0716482 -0.0213372 -0.00546283 0.0196128 0.00443503 0.00374071)
(0.134696 -0.0292009 -0.00936297 0.015848 0.00369192 0.00484583)
(0.194995 -0.0283167 -0.0121181 0.0142025 0.00334305 0.00607036)
(0.250785 -0.0301959 -0.0142175 0.0134652 0.00284117 0.00669666)
(0.296403 -0.0278666 -0.0156561 0.0131911 0.00268024 0.00717323)
(0.337049 -0.0284519 -0.0167253 0.0130208 0.00240142 0.00701202)
(0.370364 -0.0260242 -0.0174781 0.012974 0.0023937 0.00672972)
(0.400795 -0.025885 -0.0180775 0.0128923 0.00226211 0.00614325)
(0.425819 -0.0235267 -0.0184964 0.0128834 0.00230951 0.00558706)
(0.449411 -0.0228889 -0.0187733 0.0128226 0.00223868 0.00497749)
(0.468896 -0.0207289 -0.018902 0.0128281 0.00228451 0.00447577)
(0.487712 -0.0197837 -0.0188032 0.0127902 0.00224638 0.00405826)
(0.50394 -0.0178837 -0.0184511 0.0127845 0.0022425 0.00372282)
(0.519538 -0.0165099 -0.0179316 0.0128306 0.0022526 0.00360756)
(0.533037 -0.015088 -0.0170959 0.0126814 0.00211683 0.00337768)
(0.549982 -0.0116916 -0.0163539 0.0129592 0.00222561 0.00360193)
(0.543997 -0.0120026 -0.0147667 0.012556 0.00183597 0.00325323)
(0.573278 0.00462012 -0.0122247 0.0116863 0.00191962 0.00369398)
(0.0173529 0.00264814 0.00188393 0.00295853 0.000983256 0.000828699)
(0.0299888 -0.000980114 0.00405973 0.00418421 0.000137797 0.00250318)
(0.0565358 -0.00775098 0.00697332 0.00678847 -0.000199534 0.00453054)
(0.0597756 -0.0109965 0.00632038 0.00931049 -0.000487953 0.00620732)
(0.0755693 -0.0168805 0.00671917 0.0104885 -0.00108763 0.00827304)
(0.0845316 -0.0170771 0.00511857 0.0111213 -0.00144687 0.0100143)
(0.103575 -0.0205676 0.00450872 0.0114684 -0.00206941 0.0117487)
(0.121976 -0.0195595 0.00221593 0.011685 -0.00231649 0.0126607)
(0.144881 -0.0218644 0.000833328 0.0118662 -0.00265981 0.0131183)
(0.168803 -0.0208472 -0.00144069 0.0120039 -0.00269237 0.0127877)
(0.192901 -0.0227484 -0.00257616 0.0121191 -0.00282482 0.0121547)
(0.218643 -0.0221463 -0.00423429 0.0122197 -0.00275383 0.0111203)
(0.241828 -0.0238963 -0.00496287 0.0122963 -0.0027945 0.00998283)
(0.267478 -0.0238245 -0.00597652 0.012355 -0.00268471 0.00880703)
(0.28909 -0.0256317 -0.00620502 0.0124373 -0.00270076 0.00762797)
(0.314702 -0.0256308 -0.00620067 0.0123666 -0.00259723 0.00676711)
(0.334562 -0.0283367 -0.00582841 0.0126569 -0.00252327 0.00587909)
(0.361574 -0.0262469 -0.00474584 0.0121576 -0.00273788 0.00561457)
(0.377755 -0.030655 -0.00415529 0.0125075 -0.00201795 0.00503486)
(0.412334 -0.0223371 -0.000782364 0.0161047 -0.00453604 0.00525087)
(0.0177667 0.00753009 0.00187026 0.00930613 0.0020428 0.000775515)
(0.0345195 0.0171033 0.00456636 0.0159525 0.00382553 0.00244447)
(0.0863985 0.0331599 0.0103217 0.0187443 0.00507413 0.00457342)
(0.114488 0.0352503 0.0130829 0.0174126 0.00488547 0.00630037)
(0.160104 0.0411504 0.0175577 0.0162442 0.00478486 0.00851816)
(0.178669 0.0394712 0.0188276 0.0152984 0.00417877 0.0104931)
(0.212449 0.0428433 0.0211429 0.0146513 0.00383602 0.0127547)
(0.226836 0.0410073 0.0199991 0.0141244 0.00325389 0.0142819)
(0.25527 0.0438732 0.0197749 0.0137902 0.00302739 0.0154649)
(0.270908 0.0426519 0.0173064 0.0134603 0.00266984 0.0157177)
(0.297423 0.0452953 0.0165781 0.0132762 0.00262352 0.0155822)
(0.315802 0.0447173 0.014666 0.0130606 0.00248498 0.0148545)
(0.341189 0.0471323 0.0142888 0.0129648 0.00254197 0.0138467)
(0.362414 0.0471245 0.013092 0.0128196 0.00253451 0.0125814)
(0.386333 0.049179 0.0129758 0.0127749 0.00257628 0.011133)
(0.410824 0.0498029 0.0129705 0.0126836 0.0026333 0.0097264)
(0.432207 0.0511996 0.0133876 0.0126631 0.00264445 0.00836165)
(0.462098 0.0526827 0.0150913 0.0126229 0.00258522 0.00730612)
(0.478802 0.0530826 0.0150832 0.01259 0.00257141 0.00644546)
(0.524825 0.058627 0.0201648 0.0140261 0.00217891 0.00610298)
(0.0175977 -0.00053142 0.0018523 0.000359306 -9.17831e-05 0.000772782)
(0.0324719 -0.00499823 0.00428314 0.00382233 -0.00114597 0.00247645)
(0.0891954 -0.0135541 0.0105904 0.00669546 -0.00154682 0.0046093)
(0.128247 -0.0172666 0.0142342 0.00903246 -0.00150779 0.00637979)
(0.193261 -0.0254721 0.0204915 0.0102921 -0.00180172 0.00857076)
(0.229717 -0.0281058 0.0233247 0.0109151 -0.00188608 0.0106333)
(0.287433 -0.0348643 0.0276962 0.0112792 -0.00231959 0.0129618)
(0.31734 -0.0364133 0.0277327 0.0114749 -0.00245711 0.0147381)
(0.367399 -0.0415946 0.0288145 0.0116522 -0.00278384 0.0161235)
(0.393791 -0.0426124 0.026675 0.011765 -0.00283368 0.0166764)
(0.437938 -0.0467722 0.0266166 0.0118834 -0.00302442 0.0167881)
(0.462844 -0.0476339 0.0247851 0.011963 -0.00299439 0.0163176)
(0.502375 -0.0511297 0.0251012 0.012068 -0.00310475 0.015567)
(0.526812 -0.0518963 0.0239549 0.0120976 -0.00299273 0.0144285)
(0.563122 -0.0552163 0.0246141 0.0122548 -0.00308245 0.0131397)
(0.586273 -0.0554399 0.0244268 0.0120848 -0.00290027 0.0115729)
(0.621903 -0.0594541 0.0260961 0.0125697 -0.00297609 0.0101561)
(0.640962 -0.059135 0.0276242 0.0117967 -0.00303132 0.00866217)
(0.676412 -0.061836 0.0294772 0.0128168 -0.00263817 0.00762476)
(0.699849 -0.0738094 0.0351923 0.0149022 -0.00462751 0.00699371)
(0.0173269 0.00372683 0.0017795 0.00234487 0.000992391 0.000752764)
(0.029758 0.00943916 0.00386717 0.00749575 0.00235648 0.00244008)
(0.0836634 0.0226752 0.00993278 0.010652 0.00326602 0.0045799)
(0.123362 0.027035 0.0136512 0.0117393 0.00319751 0.00634799)
(0.192032 0.0358243 0.0202167 0.0122834 0.00337446 0.00854931)
(0.234654 0.0377213 0.0235262 0.0124273 0.00313321 0.0106236)
(0.301388 0.044184 0.0285174 0.0125226 0.00321524 0.0129692)
(0.340194 0.0449756 0.0291058 0.0125013 0.00297258 0.0147913)
(0.402115 0.0499513 0.0307634 0.0125248 0.00301771 0.0162297)
(0.437812 0.0503345 0.0289447 0.0124806 0.0028181 0.0168597)
(0.494231 0.0543331 0.0292473 0.0124907 0.00287232 0.0170533)
(0.527282 0.0546738 0.0275639 0.0124487 0.00274898 0.016678)
(0.578074 0.05801 0.0282108 0.0124692 0.00283058 0.0160456)
(0.608948 0.058371 0.0271442 0.0124185 0.00275048 0.0150014)
(0.654739 0.0613709 0.0281139 0.0124829 0.00284018 0.0138298)
(0.682879 0.0614004 0.0278965 0.0123387 0.00275234 0.0122812)
(0.724943 0.0647528 0.0300135 0.0125952 0.00284912 0.0108857)
(0.749544 0.0643856 0.0317102 0.0121382 0.0028225 0.00929222)
(0.785042 0.0667814 0.03438 0.0127229 0.00270462 0.00814238)
(0.816447 0.0744661 0.0408055 0.0145363 0.00348256 0.00745771)
(0.0173269 -0.00372687 0.00177951 0.00234486 -0.000992397 0.000752765)
(0.0297579 -0.00943911 0.00386716 0.00749576 -0.0023565 0.0024401)
(0.0836634 -0.0226752 0.00993281 0.0106521 -0.00326607 0.00457987)
(0.123362 -0.027035 0.0136511 0.0117393 -0.00319753 0.00634806)
(0.192032 -0.0358244 0.0202169 0.0122835 -0.00337455 0.0085492)
(0.234654 -0.0377212 0.0235258 0.0124274 -0.00313326 0.0106237)
(0.301388 -0.0441843 0.028518 0.0125227 -0.00321544 0.0129693)
(0.340194 -0.0449758 0.0291048 0.0125013 -0.00297256 0.014791)
(0.402116 -0.0499515 0.0307651 0.0125248 -0.00301807 0.0162306)
(0.437812 -0.0503335 0.0289423 0.0124806 -0.00281787 0.016858)
(0.494235 -0.0543322 0.029251 0.0124905 -0.00287299 0.017056)
(0.527282 -0.0546713 0.0275587 0.0124482 -0.0027483 0.0166744)
(0.578088 -0.0580054 0.0282185 0.0124686 -0.00283173 0.0160497)
(0.608944 -0.0583572 0.027134 0.0124163 -0.0027492 0.0149979)
(0.654778 -0.0613629 0.0281279 0.0124821 -0.00284159 0.0138319)
(0.682868 -0.0613493 0.0278791 0.012329 -0.00274987 0.0122819)
(0.725003 -0.0647573 0.0300304 0.0125973 -0.00284923 0.0108815)
(0.749485 -0.0642358 0.0316944 0.0121084 -0.00281803 0.00930134)
(0.785092 -0.0667851 0.0343844 0.0127276 -0.00269941 0.00812761)
(0.816274 -0.0742791 0.040826 0.0144824 -0.00347932 0.00748132)
(0.0175977 0.00053138 0.00185231 0.000359301 9.1779e-05 0.000772785)
(0.0324719 0.00499824 0.0042831 0.00382231 0.00114595 0.00247649)
(0.0891954 0.013554 0.0105905 0.00669544 0.00154679 0.00460923)
(0.128248 0.0172665 0.0142339 0.00903243 0.00150774 0.00637999)
(0.193261 0.025472 0.020492 0.0102921 0.00180168 0.00857046)
(0.229717 0.0281057 0.0233237 0.010915 0.00188594 0.0106336)
(0.287432 0.0348641 0.027698 0.0112792 0.00231954 0.0129618)
(0.317341 0.036413 0.02773 0.0114748 0.00245689 0.0147373)
(0.367397 0.0415945 0.0288191 0.0116521 0.00278391 0.0161262)
(0.393794 0.0426128 0.026668 0.0117649 0.00283311 0.0166712)
(0.437933 0.046773 0.0266272 0.0118835 0.00302497 0.0167971)
(0.462854 0.0476349 0.0247684 0.0119631 0.00299296 0.0163053)
(0.502363 0.051134 0.0251264 0.0120686 0.00310635 0.0155821)
(0.526841 0.0519052 0.0239155 0.0120989 0.00298988 0.014414)
(0.563098 0.0552228 0.0246729 0.0122559 0.00308592 0.0131512)
(0.586344 0.0554779 0.0243418 0.0120916 0.00289544 0.0115694)
(0.621908 0.0594504 0.0262081 0.0125696 0.0029848 0.0101505)
(0.641155 0.0592671 0.0274948 0.0118243 0.00302353 0.00868149)
(0.676555 0.0618341 0.0296126 0.0128175 0.00265454 0.00758996)
(0.700314 0.0740025 0.0351171 0.0149663 0.00461278 0.00705495)
(0.0177667 -0.00753013 0.00187027 0.0093061 -0.00204282 0.000775518)
(0.0345196 -0.0171033 0.0045663 0.0159525 -0.00382549 0.0024445)
(0.0863985 -0.0331599 0.0103218 0.0187443 -0.00507427 0.00457336)
(0.114488 -0.0352503 0.0130825 0.0174126 -0.00488534 0.00630064)
(0.160104 -0.0411506 0.0175583 0.0162442 -0.00478519 0.00851773)
(0.178669 -0.0394712 0.0188265 0.0152984 -0.00417842 0.0104936)
(0.212448 -0.0428437 0.0211447 0.0146514 -0.00383675 0.0127545)
(0.226836 -0.0410077 0.0199964 0.0141244 -0.00325303 0.014281)
(0.25527 -0.0438736 0.0197796 0.0137903 -0.00302882 0.0154687)
(0.27091 -0.0426515 0.0172991 0.0134601 -0.00266802 0.0157098)
(0.297424 -0.0452956 0.0165902 0.0132761 -0.00262613 0.0155975)
(0.315808 -0.0447166 0.0146448 0.01306 -0.0024811 0.014832)
(0.341195 -0.0471315 0.0143274 0.0129643 -0.00254735 0.0138777)
(0.362428 -0.0471165 0.013024 0.0128169 -0.00252502 0.0125468)
(0.386357 -0.0491813 0.0130941 0.0127747 -0.00258888 0.0111692)
(0.410855 -0.0497706 0.012779 0.0126725 -0.00260959 0.00969749)
(0.432273 -0.0512243 0.0136785 0.0126672 -0.00267353 0.00838157)
(0.462113 -0.0526004 0.0146857 0.0125929 -0.00253424 0.00730301)
(0.478931 -0.0531565 0.0156073 0.0126058 -0.002628 0.00642517)
(0.524774 -0.0585749 0.0195861 0.0139971 -0.00208682 0.00616492)
(0.0173529 -0.00264818 0.00188394 0.0029585 -0.000983263 0.000828704)
(0.0299889 0.000980114 0.00405968 0.00418417 -0.00013779 0.00250322)
(0.0565358 0.00775093 0.00697337 0.00678845 0.00019949 0.00453055)
(0.0597756 0.0109964 0.00632023 0.00931045 0.000487968 0.00620759)
(0.0755692 0.0168804 0.00671906 0.0104885 0.00108758 0.00827269)
(0.0845314 0.017077 0.0051188 0.0111211 0.00144681 0.010015)
(0.103575 0.0205673 0.00450787 0.0114683 0.0020694 0.0117484)
(0.121975 0.0195592 0.00221824 0.0116849 0.00231623 0.0126609)
(0.144881 0.021864 0.000828951 0.0118662 0.00266021 0.0131213)
(0.168801 0.0208472 -0.00143313 0.0120036 0.00269111 0.0127817)
(0.192901 0.022748 -0.00258781 0.0121194 0.00282683 0.0121697)
(0.218639 0.0221459 -0.00422007 0.0122194 0.00274964 0.011097)
(0.241826 0.0238963 -0.00497534 0.012297 0.00280072 0.0100212)
(0.267469 0.0238256 -0.00597789 0.0123549 0.0026732 0.0087566)
(0.289061 0.0256319 -0.00616648 0.0124394 0.00271863 0.00769575)
(0.314695 0.0256314 -0.00631468 0.0123684 0.00256598 0.00668745)
(0.334464 0.0283287 -0.00558072 0.0126593 0.00257773 0.00597055)
(0.361601 0.0262847 -0.0051881 0.0121739 0.00264449 0.00552022)
(0.377524 0.0306512 -0.0034438 0.0125152 0.00217399 0.00510203)
(0.412377 0.0225278 -0.0017598 0.0161561 0.00420971 0.00525476)
(0.0129301 -0.00161158 0.000524991 0.0208263 -0.00318611 0.000809651)
(0.0252175 0.0121261 -0.00206504 0.0228843 -0.00433711 0.00221597)
(0.0716483 0.0213371 -0.00546301 0.0196128 -0.00443512 0.00374084)
(0.134696 0.0292009 -0.00936302 0.015848 -0.00369192 0.00484606)
(0.194995 0.0283166 -0.012119 0.0142025 -0.00334321 0.0060704)
(0.250785 0.0301957 -0.0142167 0.0134652 -0.00284108 0.00669733)
(0.296402 0.0278663 -0.0156588 0.0131912 -0.00268055 0.00717341)
(0.337047 0.0284512 -0.0167211 0.0130208 -0.00240107 0.00701315)
(0.370363 0.0260236 -0.0174867 0.0129742 -0.00239436 0.00673078)
(0.40079 0.0258836 -0.0180635 0.0128921 -0.00226107 0.00614291)
(0.425815 0.0235251 -0.0185209 0.0128836 -0.00231109 0.00559184)
(0.449393 0.0228851 -0.0187348 0.0128222 -0.00223582 0.00497058)
(0.468887 0.0207243 -0.0189626 0.012828 -0.0022889 0.00449145)
(0.487661 0.0197746 -0.0187151 0.0127883 -0.00223764 0.00403359)
(0.503905 0.0178757 -0.0185764 0.0127857 -0.00225691 0.00376579)
(0.519427 0.0164912 -0.0177722 0.0128236 -0.00222245 0.00354047)
(0.532876 0.0150765 -0.0172909 0.0126875 -0.00217062 0.00348014)
(0.549823 0.0116739 -0.016185 0.0129409 -0.00211207 0.00345741)
(0.543513 0.0119702 -0.0149397 0.0125851 -0.0020671 0.00340891)
(0.573373 -0.00449914 -0.0122777 0.0117026 -0.00146516 0.00363191)
(0.041699 0.00331636 -0.00367606 0.000450655 -0.000423465 0.000745351)
(0.174192 -0.0239426 -0.00928278 0.00423639 0.00138832 0.00124248)
(0.260191 -0.0425249 -0.0114673 0.00909033 0.00211248 0.0015754)
(0.342898 -0.0549497 -0.0124298 0.0113739 0.00213465 0.0016646)
(0.352714 -0.0551982 -0.0127812 0.0121688 0.00227051 0.0018178)
(0.393965 -0.0583175 -0.01281 0.0124232 0.00213451 0.00177169)
(0.386126 -0.0557804 -0.0128258 0.012599 0.00224176 0.00176923)
(0.413809 -0.0571597 -0.01258 0.0126255 0.00212896 0.001627)
(0.403084 -0.0544831 -0.0124571 0.0127044 0.00221469 0.00155736)
(0.424109 -0.0551267 -0.0121151 0.0127015 0.00212355 0.00141675)
(0.413721 -0.052588 -0.0119491 0.0127415 0.00218536 0.00135549)
(0.430221 -0.0526938 -0.011564 0.0127274 0.0021013 0.00125424)
(0.421124 -0.0503877 -0.0113663 0.0127481 0.00214026 0.00122482)
(0.434057 -0.0501197 -0.0109243 0.0127376 0.00206202 0.00116803)
(0.426838 -0.0480728 -0.0106935 0.0127438 0.00208071 0.00117071)
(0.436576 -0.0475132 -0.0101788 0.01276 0.00201312 0.00114702)
(0.431892 -0.0455187 -0.00996774 0.0126562 0.00199931 0.00116864)
(0.439229 -0.045014 -0.00939232 0.0129048 0.00197675 0.00115697)
(0.433117 -0.0390039 -0.00907768 0.0110987 0.00178912 0.00117548)
(0.469405 -0.0522076 -0.00764846 0.0137378 0.00181688 0.00112491)
(0.0140571 -0.00112406 6.96327e-05 0.00769646 6.93313e-05 1.88061e-06)
(0.113875 -0.0389795 -2.4277e-05 0.018197 7.56238e-05 1.44645e-06)
(0.239155 -0.0556896 -9.84266e-07 0.0209801 0.00010507 1.69454e-06)
(0.44992 -0.0763397 5.32574e-05 0.0205763 8.06892e-05 1.42182e-06)
(0.471196 -0.0727085 2.00069e-05 0.0210716 0.000108786 1.62925e-06)
(0.596261 -0.0852171 8.15515e-05 0.0218668 8.76925e-05 1.37163e-06)
(0.564429 -0.079486 2.66251e-05 0.022562 0.000114382 1.55646e-06)
(0.655508 -0.0882907 8.83865e-05 0.0230744 9.37291e-05 1.32444e-06)
(0.617341 -0.08177 3.0645e-05 0.023367 0.000117446 1.49184e-06)
(0.689877 -0.0877585 9.17773e-05 0.0235777 9.73316e-05 1.28494e-06)
(0.653301 -0.0814126 3.41311e-05 0.0236906 0.000118136 1.42822e-06)
(0.711754 -0.0854905 9.40213e-05 0.0237895 9.90515e-05 1.24148e-06)
(0.679249 -0.0796879 3.80611e-05 0.0238332 0.000117299 1.35859e-06)
(0.726704 -0.082424 9.78056e-05 0.023899 9.92497e-05 1.1905e-06)
(0.699138 -0.077241 4.50381e-05 0.0238855 0.00011494 1.28387e-06)
(0.73802 -0.0791295 0.0001067 0.024049 9.80228e-05 1.13454e-06)
(0.714089 -0.0739666 5.63427e-05 0.0235827 0.00011017 1.20743e-06)
(0.747694 -0.0758831 0.000128451 0.0250509 9.7212e-05 1.0763e-06)
(0.718037 -0.061049 5.97671e-05 0.0189504 9.73106e-05 1.13606e-06)
(0.690479 -0.0538872 0.000198296 0.0203468 8.05183e-05 9.89196e-07)
(0.0197921 0.000741014 9.50027e-05 0.00137647 -2.06365e-05 1.4455e-06)
(0.0158789 -9.51056e-05 5.33126e-05 0.00429668 -5.0137e-05 1.17619e-06)
(0.0330532 -0.00712992 0.000159716 0.00897114 -8.19066e-05 1.37566e-06)
(0.0581907 -0.000120927 0.000159994 0.0136791 -7.45834e-05 1.16347e-06)
(0.0868579 -0.00343406 0.000221548 0.0173263 -9.65649e-05 1.32598e-06)
(0.147676 0.00923458 0.000234663 0.0197141 -7.65046e-05 1.11476e-06)
(0.176804 0.00490888 0.000268336 0.0209562 -9.99984e-05 1.26244e-06)
(0.244278 0.0148385 0.000285131 0.0217557 -7.90846e-05 1.06961e-06)
(0.266452 0.00965641 0.000304042 0.0222195 -0.000100715 1.20662e-06)
(0.328263 0.0169433 0.000320541 0.0225899 -8.02821e-05 1.03241e-06)
(0.343078 0.0117013 0.000328262 0.0228255 -9.9694e-05 1.15079e-06)
(0.395947 0.0168426 0.000342588 0.0230351 -8.04436e-05 9.91345e-07)
(0.405451 0.0118001 0.000341881 0.023156 -9.77748e-05 1.08833e-06)
(0.449821 0.0152756 0.000355301 0.0233066 -7.9729e-05 9.4343e-07)
(0.456654 0.0105338 0.000349519 0.0233283 -9.49607e-05 1.02088e-06)
(0.494741 0.0130987 0.000364719 0.023537 -7.77467e-05 8.92173e-07)
(0.499108 0.00762864 0.000356205 0.0234603 -9.16149e-05 9.5246e-07)
(0.536556 0.0128934 0.00037551 0.0237451 -7.28732e-05 8.41728e-07)
(0.527826 0.00188564 0.000365747 0.0242178 -8.8197e-05 8.84625e-07)
(0.606993 0.0294868 0.000391541 0.0281796 -6.09833e-05 7.77975e-07)
(0.0160018 0.00437735 9.31112e-05 0.00421657 4.91319e-05 1.64817e-06)
(0.0198054 0.00841955 5.61721e-05 0.0215337 6.39269e-05 1.32485e-06)
(0.0657304 0.0336607 0.000178218 0.0297238 9.22246e-05 1.5356e-06)
(0.060233 0.0249463 0.00012655 0.0291673 6.13395e-05 1.28186e-06)
(0.0934055 0.0358248 0.00022607 0.0277247 9.22811e-05 1.46985e-06)
(0.0843045 0.024529 0.000188485 0.0265255 6.84466e-05 1.23199e-06)
(0.112186 0.0325616 0.000275207 0.025722 9.72872e-05 1.40247e-06)
(0.113957 0.0241096 0.000247868 0.0251982 7.64558e-05 1.1888e-06)
(0.143038 0.0315256 0.000323632 0.024709 0.000102183 1.34529e-06)
(0.154409 0.0255763 0.000302521 0.0244279 8.29855e-05 1.15369e-06)
(0.183784 0.0323537 0.00036733 0.0241266 0.000105339 1.28912e-06)
(0.200562 0.0282405 0.000349622 0.0239858 8.71677e-05 1.11518e-06)
(0.228485 0.0342295 0.000403506 0.0238092 0.000106284 1.22656e-06)
(0.247864 0.0314904 0.000388485 0.0237354 8.88064e-05 1.06877e-06)
(0.273455 0.0365488 0.000432462 0.0236297 0.000104964 1.15752e-06)
(0.295211 0.0353376 0.000421863 0.023593 8.83663e-05 1.01644e-06)
(0.316635 0.0384069 0.000455748 0.0233395 0.000100966 1.08589e-06)
(0.344994 0.0410232 0.000454685 0.0239141 8.74271e-05 9.62689e-07)
(0.357778 0.0373318 0.000476029 0.0203812 9.06224e-05 1.02009e-06)
(0.398702 0.0500698 0.000485964 0.0251003 8.72554e-05 9.06309e-07)
(0.0144635 -0.0011494 8.10248e-05 0.000852207 -2.61574e-05 1.45759e-06)
(0.0168198 -0.000707082 5.13412e-05 0.004497 -5.02602e-05 1.21385e-06)
(0.0659393 -0.0105014 0.000159498 0.00901297 -8.1455e-05 1.40269e-06)
(0.0777295 -0.01113 0.000102345 0.0132197 -7.45794e-05 1.18086e-06)
(0.141992 -0.0255111 0.000195432 0.0162207 -9.79687e-05 1.34849e-06)
(0.144823 -0.0250637 0.000139157 0.0183507 -8.1072e-05 1.13413e-06)
(0.198818 -0.0378181 0.000230065 0.0195546 -0.000104368 1.28605e-06)
(0.196926 -0.0357343 0.000179114 0.0204053 -8.52725e-05 1.08961e-06)
(0.242781 -0.0458982 0.000265747 0.0209317 -0.000106087 1.22924e-06)
(0.241836 -0.0433082 0.000221716 0.0213834 -8.62087e-05 1.05171e-06)
(0.2828 -0.0514396 0.000303373 0.0217078 -0.000104302 1.17361e-06)
(0.285255 -0.0489881 0.000266358 0.0219984 -8.48235e-05 1.0119e-06)
(0.323042 -0.0556382 0.000341557 0.0222448 -0.000100824 1.11278e-06)
(0.329318 -0.0536408 0.000310607 0.0224144 -8.23141e-05 9.65581e-07)
(0.364728 -0.0593967 0.000378331 0.0226767 -9.69758e-05 1.04605e-06)
(0.373937 -0.0577341 0.000352693 0.0226138 -7.88496e-05 9.14696e-07)
(0.408542 -0.0634482 0.000413743 0.0232762 -9.36614e-05 9.77334e-07)
(0.417489 -0.0614243 0.000390067 0.022445 -7.25547e-05 8.64031e-07)
(0.457213 -0.0676874 0.00045148 0.024301 -9.00936e-05 9.08698e-07)
(0.45163 -0.0695014 0.00041074 0.0272707 -6.70213e-05 8.11022e-07)
(0.014702 0.00273185 8.57206e-05 0.00235036 3.91838e-05 1.56126e-06)
(0.0165393 0.00288509 5.57047e-05 0.0124527 5.82689e-05 1.29513e-06)
(0.0630409 0.0248785 0.000171042 0.0188065 8.65754e-05 1.4908e-06)
(0.077085 0.0251365 0.00011202 0.0215288 6.37123e-05 1.24701e-06)
(0.149364 0.04336 0.000208212 0.0227394 9.16821e-05 1.42768e-06)
(0.162707 0.0405928 0.000144557 0.0233804 6.93446e-05 1.19797e-06)
(0.233576 0.0541 0.000238038 0.0236236 9.63226e-05 1.36183e-06)
(0.243943 0.0506365 0.00017631 0.0237429 7.55375e-05 1.15352e-06)
(0.308441 0.0609814 0.000266817 0.0236674 9.99552e-05 1.30302e-06)
(0.317268 0.0576596 0.000210918 0.0236359 8.04753e-05 1.11563e-06)
(0.374899 0.0658223 0.000298596 0.0235118 0.00010194 1.2461e-06)
(0.383545 0.0630708 0.000250908 0.0234648 8.36063e-05 1.07655e-06)
(0.435098 0.0696987 0.000334854 0.0233705 0.000102242 1.18485e-06)
(0.444691 0.0675994 0.000295496 0.0233155 8.47838e-05 1.03104e-06)
(0.490902 0.0730622 0.000374275 0.0232978 0.000100782 1.1175e-06)
(0.501981 0.0715135 0.000341938 0.0231505 8.38848e-05 9.79996e-07)
(0.542682 0.0759667 0.000415716 0.0232475 9.74103e-05 1.0475e-06)
(0.555879 0.0753799 0.000386727 0.023083 8.12756e-05 9.27888e-07)
(0.58975 0.0751007 0.000463598 0.0217601 9.10845e-05 9.81636e-07)
(0.598801 0.0818715 0.000424852 0.0268979 8.41664e-05 8.76133e-07)
(0.0145874 -0.00192484 8.27755e-05 0.00134999 -3.20692e-05 1.5023e-06)
(0.0162114 -0.00145852 5.3782e-05 0.00724864 -5.343e-05 1.25758e-06)
(0.060005 -0.0170002 0.000165602 0.011965 -8.27168e-05 1.44607e-06)
(0.073449 -0.0172723 0.000109511 0.0156469 -6.83356e-05 1.21217e-06)
(0.145493 -0.0335348 0.000202116 0.0179885 -9.40558e-05 1.3866e-06)
(0.161776 -0.0324314 0.000138563 0.019649 -7.50852e-05 1.16484e-06)
(0.237341 -0.0460899 0.000228801 0.0205628 -0.000100201 1.32297e-06)
(0.253378 -0.0442307 0.000164834 0.0212061 -8.07518e-05 1.12058e-06)
(0.325699 -0.0552982 0.000252795 0.0215569 -0.000103291 1.26477e-06)
(0.341202 -0.0533629 0.000193116 0.0218666 -8.39506e-05 1.08213e-06)
(0.407785 -0.0623975 0.000279302 0.0220567 -0.000103556 1.20812e-06)
(0.422688 -0.0607279 0.000227375 0.0222437 -8.47762e-05 1.04261e-06)
(0.483155 -0.0682296 0.000311379 0.0223923 -0.000101832 1.14727e-06)
(0.497661 -0.0668862 0.000268269 0.0224793 -8.37976e-05 9.96956e-07)
(0.552539 -0.0733571 0.000349016 0.0226917 -9.8925e-05 1.08044e-06)
(0.565823 -0.072112 0.000313472 0.0225302 -8.11298e-05 9.46213e-07)
(0.6159 -0.0781744 0.000391448 0.0231065 -9.54197e-05 1.01127e-06)
(0.626055 -0.0772569 0.000357583 0.0223425 -7.61304e-05 8.95234e-07)
(0.671532 -0.0806355 0.000441625 0.0230586 -9.08644e-05 9.43796e-07)
(0.669384 -0.0883071 0.000394257 0.0269827 -7.63347e-05 8.43989e-07)
(0.0145874 0.00192483 8.27757e-05 0.00134998 3.20692e-05 1.5023e-06)
(0.0162114 0.00145856 5.37831e-05 0.00724864 5.343e-05 1.25758e-06)
(0.060005 0.0170003 0.000165603 0.011965 8.2717e-05 1.44607e-06)
(0.073449 0.0172723 0.000109512 0.0156469 6.83357e-05 1.21217e-06)
(0.145493 0.0335348 0.000202117 0.0179885 9.40561e-05 1.3866e-06)
(0.161776 0.0324316 0.000138566 0.0196491 7.5085e-05 1.16484e-06)
(0.23734 0.0460899 0.000228803 0.0205629 0.000100201 1.32297e-06)
(0.253378 0.0442308 0.000164833 0.0212062 8.07516e-05 1.12058e-06)
(0.325698 0.0552987 0.000252796 0.021557 0.000103291 1.26477e-06)
(0.341204 0.0533645 0.000193119 0.0218669 8.39499e-05 1.08213e-06)
(0.407782 0.0623986 0.0002793 0.0220572 0.000103556 1.20812e-06)
(0.422694 0.0607319 0.000227364 0.0222448 8.4775e-05 1.04261e-06)
(0.483145 0.0682338 0.000311373 0.0223934 0.000101831 1.14728e-06)
(0.497677 0.066902 0.000268268 0.0224829 8.37941e-05 9.96937e-07)
(0.552514 0.0733682 0.000349004 0.0226945 9.89204e-05 1.08044e-06)
(0.565872 0.0721579 0.000313439 0.0225428 8.11274e-05 9.46133e-07)
(0.615869 0.0782081 0.000391419 0.0231139 9.54087e-05 1.01134e-06)
(0.626234 0.077378 0.000357574 0.0223815 7.61573e-05 8.95084e-07)
(0.67165 0.0807252 0.000441739 0.023079 9.08603e-05 9.44228e-07)
(0.669859 0.0885873 0.000394369 0.0270939 7.64582e-05 8.43802e-07)
(0.014702 -0.00273186 8.57212e-05 0.00235037 -3.91838e-05 1.56125e-06)
(0.0165393 -0.00288506 5.57036e-05 0.0124527 -5.82689e-05 1.29513e-06)
(0.0630409 -0.0248785 0.000171043 0.0188065 -8.65752e-05 1.4908e-06)
(0.077085 -0.0251365 0.00011202 0.0215287 -6.37122e-05 1.24701e-06)
(0.149364 -0.04336 0.000208214 0.0227393 -9.16817e-05 1.42768e-06)
(0.162707 -0.0405926 0.000144557 0.0233803 -6.93449e-05 1.19797e-06)
(0.233576 -0.0541 0.000238044 0.0236236 -9.63221e-05 1.36183e-06)
(0.243944 -0.0506363 0.000176322 0.0237427 -7.55378e-05 1.15351e-06)
(0.308441 -0.060981 0.000266824 0.0236673 -9.99547e-05 1.30302e-06)
(0.317269 -0.057658 0.000210921 0.0236354 -8.04761e-05 1.11563e-06)
(0.374901 -0.0658216 0.000298607 0.0235114 -0.00010194 1.2461e-06)
(0.383547 -0.0630669 0.000250928 0.0234632 -8.36069e-05 1.07655e-06)
(0.435109 -0.0696965 0.000334859 0.0233698 -0.000102245 1.18484e-06)
(0.444693 -0.067584 0.000295502 0.0233104 -8.47845e-05 1.03108e-06)
(0.49094 -0.0730582 0.000374283 0.0232966 -0.00010079 1.11747e-06)
(0.501977 -0.0714735 0.000341982 0.0231355 -8.38813e-05 9.80109e-07)
(0.542776 -0.0759591 0.000415724 0.0232455 -9.74315e-05 1.04739e-06)
(0.555815 -0.0752905 0.000386725 0.023049 -8.12466e-05 9.28099e-07)
(0.589891 -0.0750794 0.000463482 0.0217527 -9.11063e-05 9.81248e-07)
(0.598609 -0.0817055 0.000424682 0.0268275 -8.40748e-05 8.76434e-07)
(0.0144635 0.0011494 8.10257e-05 0.000852207 2.61574e-05 1.45759e-06)
(0.0168199 0.000707115 5.13423e-05 0.00449701 5.02602e-05 1.21385e-06)
(0.0659393 0.0105014 0.0001595 0.00901301 8.14552e-05 1.4027e-06)
(0.0777296 0.01113 0.000102347 0.0132198 7.45796e-05 1.18086e-06)
(0.141992 0.0255111 0.000195435 0.0162207 9.79689e-05 1.34849e-06)
(0.144823 0.0250638 0.000139162 0.0183507 8.1072e-05 1.13413e-06)
(0.198818 0.0378182 0.000230073 0.0195547 0.000104368 1.28606e-06)
(0.196927 0.0357344 0.000179121 0.0204054 8.52725e-05 1.08961e-06)
(0.24278 0.0458987 0.000265755 0.0209319 0.000106087 1.22924e-06)
(0.241839 0.0433091 0.000221723 0.0213835 8.62081e-05 1.05171e-06)
(0.282797 0.0514405 0.000303377 0.0217083 0.000104302 1.17361e-06)
(0.285265 0.0489897 0.000266356 0.0219987 8.48218e-05 1.0119e-06)
(0.323035 0.0556412 0.000341558 0.0222462 0.000100825 1.11277e-06)
(0.329348 0.0536477 0.000310618 0.0224157 8.23089e-05 9.65579e-07)
(0.364711 0.0594043 0.000378308 0.0226807 9.69783e-05 1.04602e-06)
(0.374026 0.0577555 0.000352692 0.0226204 7.8842e-05 9.1467e-07)
(0.408521 0.0634692 0.000413683 0.0232881 9.36661e-05 9.77335e-07)
(0.41774 0.0615099 0.000390102 0.0224782 7.25873e-05 8.6399e-07)
(0.457268 0.0677424 0.000451539 0.024332 9.0105e-05 9.09052e-07)
(0.452258 0.0697679 0.000410891 0.0274054 6.71839e-05 8.11072e-07)
(0.0160018 -0.00437736 9.31123e-05 0.00421657 -4.91319e-05 1.64817e-06)
(0.0198055 -0.00841954 5.61717e-05 0.0215337 -6.39268e-05 1.32485e-06)
(0.0657305 -0.0336607 0.000178222 0.0297238 -9.22244e-05 1.53559e-06)
(0.060233 -0.0249463 0.000126553 0.0291672 -6.13394e-05 1.28186e-06)
(0.0934055 -0.0358248 0.000226074 0.0277247 -9.22808e-05 1.46985e-06)
(0.0843046 -0.024529 0.000188489 0.0265254 -6.84469e-05 1.232e-06)
(0.112186 -0.0325615 0.000275221 0.025722 -9.72867e-05 1.40247e-06)
(0.113957 -0.0241098 0.000247888 0.025198 -7.6456e-05 1.18879e-06)
(0.143039 -0.0315253 0.000323649 0.0247089 -0.000102182 1.34529e-06)
(0.154409 -0.0255763 0.000302529 0.0244274 -8.29861e-05 1.15369e-06)
(0.183785 -0.0323538 0.00036735 0.0241264 -0.000105338 1.28913e-06)
(0.200558 -0.0282413 0.00034964 0.0239843 -8.71681e-05 1.11518e-06)
(0.228487 -0.0342313 0.000403517 0.0238091 -0.000106285 1.22655e-06)
(0.247855 -0.0314908 0.000388488 0.0237305 -8.8807e-05 1.06881e-06)
(0.27345 -0.0365584 0.000432457 0.0236305 -0.00010497 1.15745e-06)
(0.295196 -0.0353373 0.000421923 0.0235782 -8.83648e-05 1.01661e-06)
(0.3166 -0.0384399 0.000455691 0.0233454 -0.000100986 1.08565e-06)
(0.344973 -0.0410127 0.000454795 0.0238862 -8.74138e-05 9.63107e-07)
(0.357671 -0.0374129 0.0004758 0.0204032 -9.06697e-05 1.01948e-06)
(0.398631 -0.0500513 0.000486096 0.0250856 -8.7242e-05 9.06966e-07)
(0.0197921 -0.000741005 9.50037e-05 0.00137647 2.06365e-05 1.4455e-06)
(0.0158789 9.51336e-05 5.33137e-05 0.00429669 5.0137e-05 1.17619e-06)
(0.0330533 0.00712995 0.00015972 0.00897117 8.19067e-05 1.37565e-06)
(0.0581906 0.000120974 0.000159998 0.0136791 7.45834e-05 1.16347e-06)