/*--------------------------------*- C++ -*----------------------------------*\
  =========                 |
  \\      /  F ield         | OpenFOAM: The Open Source CFD Toolbox
   \\    /   O peration     | Website:  https://openfoam.org
    \\  /    A nd           | Version:  7
     \\/     M anipulation  |
\*---------------------------------------------------------------------------*/
FoamFile
{
    version     2.0;
    format      ascii;
    class       volVectorField;
    location    "0.1225";
    object      U;
}
// * * * * * * * * * * * * * * * * * * * * * * * * * * * * * * * * * * * * * //

dimensions      [0 1 -1 0 0 0 0];

internalField   nonuniform List<vector> 
1440
(
(11.9935 0.0450313 0)
(11.9515 0.153772 0)
(11.8163 0.246398 0)
(11.5876 0.317541 0)
(11.2885 0.369123 0)
(10.9424 0.401739 0)
(10.5678 0.416918 0)
(10.1762 0.417445 0)
(9.77909 0.407486 0)
(9.3847 0.391035 0)
(9.00262 0.369508 0)
(8.63574 0.344805 0)
(8.28593 0.31746 0)
(7.95607 0.288649 0)
(7.64749 0.259998 0)
(7.36073 0.232375 0)
(7.0959 0.20626 0)
(6.85251 0.181891 0)
(6.62993 0.1594 0)
(6.42714 0.138827 0)
(6.24309 0.120149 0)
(6.0766 0.103302 0)
(5.92643 0.0881948 0)
(5.79134 0.0747211 0)
(5.67011 0.0627622 0)
(5.56155 0.0521966 0)
(5.4645 0.0429047 0)
(5.3779 0.0347703 0)
(5.30073 0.0276812 0)
(5.23203 0.0215304 0)
(5.17096 0.0162162 0)
(5.1167 0.0116408 0)
(5.06852 0.00770537 0)
(5.02578 0.00430745 0)
(4.98788 0.00136489 0)
(4.9543 -0.00118306 0)
(4.92453 -0.00338638 0)
(4.89816 -0.00529018 0)
(4.87479 -0.00694043 0)
(4.85407 -0.00837941 0)
(4.8357 -0.00964453 0)
(4.81942 -0.0107339 0)
(4.80495 -0.0116275 0)
(4.79208 -0.0123111 0)
(4.78058 -0.0127933 0)
(4.77026 -0.0131003 0)
(4.76097 -0.0132624 0)
(4.75257 -0.0133046 0)
(4.74492 -0.0132463 0)
(4.73794 -0.0131031 0)
(4.73154 -0.0128884 0)
(4.72563 -0.0126141 0)
(4.72015 -0.0122908 0)
(4.71505 -0.0119273 0)
(4.71028 -0.0115315 0)
(4.7058 -0.0111103 0)
(4.70157 -0.0106698 0)
(4.69757 -0.0102156 0)
(4.69376 -0.0097528 0)
(4.69012 -0.00928546 0)
(4.68665 -0.00881708 0)
(4.68331 -0.00835058 0)
(4.68009 -0.00788837 0)
(4.67699 -0.00743253 0)
(4.674 -0.00698468 0)
(4.6711 -0.0065462 0)
(4.6683 -0.00611809 0)
(4.66558 -0.00570113 0)
(4.66294 -0.00529579 0)
(4.66038 -0.00490246 0)
(4.65789 -0.0045213 0)
(4.65547 -0.00415252 0)
(4.65313 -0.00379611 0)
(4.65085 -0.00345222 0)
(4.64865 -0.0031208 0)
(4.64651 -0.00280195 0)
(4.64445 -0.00249551 0)
(4.64245 -0.00220144 0)
(4.64051 -0.0019193 0)
(4.63865 -0.00164881 0)
(4.63685 -0.00138932 0)
(4.63512 -0.00114055 0)
(4.63346 -0.000902047 0)
(4.63187 -0.000673921 0)
(4.63035 -0.00045597 0)
(4.6289 -0.000248285 0)
(4.62753 -5.03162e-05 0)
(4.62622 0.000138371 0)
(4.62498 0.000318789 0)
(4.62381 0.00049154 0)
(4.6227 0.000657211 0)
(4.62168 0.000815728 0)
(4.62072 0.000966604 0)
(4.61983 0.00110951 0)
(4.61902 0.00124369 0)
(4.61828 0.00137035 0)
(4.6176 0.00148907 0)
(4.61699 0.00160338 0)
(4.61645 0.00171123 0)
(4.61597 0.00181808 0)
(4.61557 0.00191654 0)
(4.61524 0.0020159 0)
(4.61499 0.00210005 0)
(4.61481 0.00218912 0)
(4.61472 0.00225288 0)
(4.61467 0.00233462 0)
(4.61472 0.00237579 0)
(4.61479 0.00246296 0)
(4.61501 0.00247816 0)
(4.61518 0.00259025 0)
(4.61563 0.00256101 0)
(4.61591 0.00272344 0)
(4.61665 0.00259937 0)
(4.61705 0.00285511 0)
(4.61818 0.00253668 0)
(4.61873 0.00296906 0)
(4.62032 0.0023181 0)
(4.62113 0.00312096 0)
(4.62308 0.00211652 0)
(4.6243 0.00388459 0)
(12.0029 0.0591343 0)
(12.0467 0.1572 0)
(12.1204 0.234022 0)
(12.2114 0.297589 0)
(12.3089 0.353056 0)
(12.4049 0.400621 0)
(12.4934 0.439063 0)
(12.5696 0.468301 0)
(12.6303 0.489157 0)
(12.6738 0.502922 0)
(12.6994 0.509878 0)
(12.7082 0.510342 0)
(12.7022 0.505045 0)
(12.6838 0.495026 0)
(12.6546 0.481344 0)
(12.6164 0.464935 0)
(12.5708 0.446538 0)
(12.5193 0.426787 0)
(12.4632 0.406215 0)
(12.4036 0.385265 0)
(12.3417 0.364345 0)
(12.278 0.343742 0)
(12.2135 0.323689 0)
(12.1485 0.304374 0)
(12.0837 0.285924 0)
(12.0193 0.268426 0)
(11.9556 0.251929 0)
(11.8929 0.236456 0)
(11.8313 0.222006 0)
(11.771 0.208561 0)
(11.712 0.196094 0)
(11.6545 0.18457 0)
(11.5984 0.173951 0)
(11.5438 0.164204 0)
(11.4907 0.155291 0)
(11.4391 0.14716 0)
(11.3891 0.139757 0)
(11.3405 0.133026 0)
(11.2935 0.126915 0)
(11.2479 0.121373 0)
(11.2038 0.116355 0)
(11.1611 0.111801 0)
(11.1199 0.107643 0)
(11.0801 0.103831 0)
(11.0416 0.100323 0)
(11.0043 0.0970845 0)
(10.9683 0.0940856 0)
(10.9334 0.0913015 0)
(10.8997 0.0887104 0)
(10.8672 0.0862925 0)
(10.8356 0.0840298 0)
(10.8051 0.0819049 0)
(10.7757 0.0799016 0)
(10.7472 0.0780061 0)
(10.7196 0.0762076 0)
(10.693 0.074498 0)
(10.6673 0.0728705 0)
(10.6424 0.0713188 0)
(10.6184 0.0698371 0)
(10.5952 0.06842 0)
(10.5728 0.0670625 0)
(10.5512 0.06576 0)
(10.5303 0.0645084 0)
(10.5101 0.0633038 0)
(10.4907 0.0621428 0)
(10.4719 0.061022 0)
(10.4539 0.0599388 0)
(10.4364 0.0588905 0)
(10.4196 0.0578749 0)
(10.4034 0.0568899 0)
(10.3878 0.0559337 0)
(10.3728 0.0550046 0)
(10.3584 0.0541013 0)
(10.3444 0.0532223 0)
(10.3311 0.0523665 0)
(10.3182 0.0515327 0)
(10.3059 0.0507199 0)
(10.294 0.0499272 0)
(10.2826 0.0491534 0)
(10.2717 0.0483977 0)
(10.2612 0.0476594 0)
(10.2511 0.0469381 0)
(10.2415 0.0462334 0)
(10.2323 0.0455446 0)
(10.2235 0.0448712 0)
(10.2151 0.0442126 0)
(10.2071 0.0435685 0)
(10.1994 0.0429387 0)
(10.1921 0.0423232 0)
(10.1851 0.0417219 0)
(10.1785 0.0411348 0)
(10.1722 0.0405614 0)
(10.1662 0.0400013 0)
(10.1606 0.0394538 0)
(10.1552 0.038918 0)
(10.1502 0.0383943 0)
(10.1454 0.0378816 0)
(10.1409 0.0373821 0)
(10.1367 0.0368933 0)
(10.1328 0.0364194 0)
(10.1291 0.0359542 0)
(10.1256 0.0355052 0)
(10.1224 0.0350592 0)
(10.1195 0.0346323 0)
(10.1167 0.0341994 0)
(10.1142 0.0337945 0)
(10.112 0.0333695 0)
(10.1099 0.032992 0)
(10.1081 0.0325687 0)
(10.1064 0.0322275 0)
(10.105 0.0317908 0)
(10.1037 0.0314938 0)
(10.1028 0.0310115 0)
(10.1019 0.03076 0)
(10.1015 0.0301766 0)
(10.101 0.0299507 0)
(10.101 0.0291912 0)
(10.1013 0.028916 0)
(10.1018 0.0280236 0)
(10.1035 0.0276646 0)
(12.001 0.0314462 0)
(12.0218 0.0913663 0)
(12.063 0.14552 0)
(12.1226 0.193426 0)
(12.1972 0.235846 0)
(12.2842 0.272863 0)
(12.3816 0.30381 0)
(12.4872 0.327945 0)
(12.5979 0.345099 0)
(12.7104 0.355305 0)
(12.8221 0.359451 0)
(12.9313 0.358752 0)
(13.0367 0.354205 0)
(13.1376 0.346535 0)
(13.2329 0.336388 0)
(13.3223 0.324405 0)
(13.4051 0.311181 0)
(13.4815 0.297226 0)
(13.5513 0.282959 0)
(13.615 0.268712 0)
(13.6726 0.254749 0)
(13.7245 0.241267 0)
(13.7711 0.228413 0)
(13.8127 0.216284 0)
(13.8498 0.204942 0)
(13.8827 0.194416 0)
(13.9118 0.18471 0)
(13.9375 0.175809 0)
(13.96 0.167685 0)
(13.9796 0.160299 0)
(13.9967 0.153612 0)
(14.0116 0.147578 0)
(14.0243 0.142158 0)
(14.0353 0.137315 0)
(14.0446 0.133009 0)
(14.0525 0.129193 0)
(14.059 0.125821 0)
(14.0644 0.122849 0)
(14.0686 0.120241 0)
(14.072 0.117963 0)
(14.0745 0.115982 0)
(14.0762 0.114252 0)
(14.0772 0.112719 0)
(14.0776 0.111324 0)
(14.0774 0.110022 0)
(14.0767 0.108789 0)
(14.0756 0.107615 0)
(14.0741 0.106493 0)
(14.0722 0.105419 0)
(14.07 0.104387 0)
(14.0674 0.103394 0)
(14.0646 0.102434 0)
(14.0615 0.101501 0)
(14.0582 0.100589 0)
(14.0546 0.0996922 0)
(14.0509 0.0988076 0)
(14.047 0.0979329 0)
(14.0429 0.0970662 0)
(14.0388 0.0962062 0)
(14.0344 0.0953518 0)
(14.03 0.0945023 0)
(14.0254 0.093657 0)
(14.0208 0.0928157 0)
(14.0161 0.0919781 0)
(14.0113 0.0911441 0)
(14.0065 0.0903137 0)
(14.0016 0.0894871 0)
(13.9966 0.0886646 0)
(13.9917 0.0878466 0)
(13.9867 0.0870333 0)
(13.9816 0.0862251 0)
(13.9766 0.0854221 0)
(13.9716 0.0846249 0)
(13.9666 0.0838337 0)
(13.9616 0.0830491 0)
(13.9566 0.0822711 0)
(13.9516 0.0815001 0)
(13.9466 0.0807359 0)
(13.9417 0.0799788 0)
(13.9368 0.0792286 0)
(13.932 0.078486 0)
(13.9272 0.0777512 0)
(13.9225 0.0770247 0)
(13.9178 0.0763065 0)
(13.9132 0.0755969 0)
(13.9086 0.0748957 0)
(13.9041 0.0742036 0)
(13.8997 0.0735201 0)
(13.8954 0.0728461 0)
(13.8911 0.0721811 0)
(13.8869 0.0715259 0)
(13.8828 0.0708796 0)
(13.8788 0.0702432 0)
(13.8749 0.0696154 0)
(13.8711 0.0689973 0)
(13.8674 0.0683875 0)
(13.8637 0.0677877 0)
(13.8602 0.0671957 0)
(13.8567 0.0666142 0)
(13.8534 0.0660399 0)
(13.8501 0.0654767 0)
(13.847 0.0649186 0)
(13.844 0.0643728 0)
(13.8411 0.0638279 0)
(13.8383 0.0632988 0)
(13.8356 0.0627628 0)
(13.833 0.0622517 0)
(13.8305 0.0617184 0)
(13.8282 0.0612298 0)
(13.8259 0.0606861 0)
(13.8238 0.0602291 0)
(13.8218 0.0596454 0)
(13.8199 0.0592384 0)
(13.8182 0.0585509 0)
(13.8165 0.0582337 0)
(13.8151 0.057308 0)
(13.8137 0.0571645 0)
(13.8125 0.0557043 0)
(13.8118 0.0558511 0)
(13.8112 0.0530969 0)
(12.0009 0.0223212 0)
(12.0193 0.0659254 0)
(12.0555 0.106457 0)
(12.108 0.14234 0)
(12.1741 0.173172 0)
(12.2513 0.199143 0)
(12.3375 0.220336 0)
(12.4309 0.236642 0)
(12.5298 0.248141 0)
(12.6322 0.255297 0)
(12.7365 0.259004 0)
(12.8415 0.260165 0)
(12.9459 0.259403 0)
(13.0491 0.257076 0)
(13.15 0.253456 0)
(13.248 0.248803 0)
(13.3426 0.243382 0)
(13.4334 0.237415 0)
(13.5201 0.231093 0)
(13.6026 0.22456 0)
(13.6808 0.217931 0)
(13.7549 0.211299 0)
(13.8249 0.20474 0)
(13.891 0.198315 0)
(13.9534 0.192074 0)
(14.0123 0.186053 0)
(14.0678 0.180276 0)
(14.1204 0.174757 0)
(14.1701 0.169507 0)
(14.2171 0.16453 0)
(14.2618 0.159824 0)
(14.3044 0.155383 0)
(14.3449 0.151197 0)
(14.3836 0.147244 0)
(14.4207 0.143508 0)
(14.4563 0.139973 0)
(14.4904 0.136631 0)
(14.5234 0.133471 0)
(14.5551 0.130484 0)
(14.5859 0.127655 0)
(14.6157 0.124971 0)
(14.6445 0.122424 0)
(14.6726 0.120012 0)
(14.6998 0.117724 0)
(14.7264 0.115547 0)
(14.7523 0.113473 0)
(14.7776 0.111498 0)
(14.8024 0.109618 0)
(14.8266 0.107829 0)
(14.8504 0.106125 0)
(14.8736 0.104502 0)
(14.8965 0.102955 0)
(14.9188 0.101486 0)
(14.9408 0.100095 0)
(14.9623 0.0987784 0)
(14.9835 0.0975319 0)
(15.0042 0.0963498 0)
(15.0246 0.095226 0)
(15.0446 0.0941557 0)
(15.0643 0.0931335 0)
(15.0836 0.0921557 0)
(15.1026 0.0912175 0)
(15.1213 0.090316 0)
(15.1396 0.0894474 0)
(15.1577 0.0886093 0)
(15.1754 0.0877987 0)
(15.1928 0.0870138 0)
(15.2099 0.0862525 0)
(15.2268 0.0855138 0)
(15.2433 0.0847958 0)
(15.2596 0.084098 0)
(15.2756 0.0834186 0)
(15.2913 0.0827575 0)
(15.3068 0.0821134 0)
(15.322 0.0814864 0)
(15.337 0.0808748 0)
(15.3517 0.0802777 0)
(15.3661 0.0796927 0)
(15.3804 0.0791193 0)
(15.3944 0.0785565 0)
(15.4081 0.078005 0)
(15.4217 0.077464 0)
(15.435 0.0769341 0)
(15.4481 0.0764138 0)
(15.461 0.0759036 0)
(15.4737 0.0754022 0)
(15.4862 0.0749101 0)
(15.4985 0.0744261 0)
(15.5106 0.0739509 0)
(15.5226 0.0734832 0)
(15.5343 0.073024 0)
(15.5459 0.0725715 0)
(15.5573 0.0721271 0)
(15.5685 0.0716885 0)
(15.5795 0.0712576 0)
(15.5904 0.0708316 0)
(15.6012 0.0704132 0)
(15.6118 0.0699986 0)
(15.6222 0.0695925 0)
(15.6325 0.069188 0)
(15.6427 0.0687941 0)
(15.6527 0.0683976 0)
(15.6626 0.0680154 0)
(15.6723 0.0676228 0)
(15.6819 0.0672529 0)
(15.6915 0.066858 0)
(15.7008 0.0665041 0)
(15.7101 0.0660967 0)
(15.7192 0.0657674 0)
(15.7284 0.0653282 0)
(15.7372 0.0650407 0)
(15.7463 0.0645309 0)
(15.7547 0.0643169 0)
(15.7639 0.0636623 0)
(15.7716 0.0635805 0)
(15.7813 0.0626436 0)
(15.7878 0.0627913 0)
(15.7989 0.0613161 0)
(15.8026 0.0617805 0)
(15.8172 0.0592082 0)
(12.0009 0.013364 0)
(12.0175 0.0394108 0)
(12.0504 0.0635636 0)
(12.0988 0.0848721 0)
(12.1607 0.10303 0)
(12.2339 0.118204 0)
(12.316 0.130623 0)
(12.4054 0.1404 0)
(12.5003 0.147657 0)
(12.599 0.152665 0)
(12.7 0.155808 0)
(12.8018 0.15743 0)
(12.9032 0.157765 0)
(13.0033 0.156962 0)
(13.1013 0.155149 0)
(13.1966 0.15246 0)
(13.2887 0.149038 0)
(13.3773 0.145032 0)
(13.4621 0.140588 0)
(13.5431 0.135844 0)
(13.6201 0.130924 0)
(13.6934 0.125938 0)
(13.763 0.120975 0)
(13.829 0.116116 0)
(13.8916 0.111419 0)
(13.9511 0.106926 0)
(14.0075 0.10266 0)
(14.0612 0.0986303 0)
(14.1124 0.0948409 0)
(14.1611 0.0912887 0)
(14.2078 0.0879675 0)
(14.2525 0.0848679 0)
(14.2954 0.0819785 0)
(14.3367 0.0792875 0)
(14.3765 0.076785 0)
(14.415 0.0744635 0)
(14.4523 0.0723159 0)
(14.4886 0.0703336 0)
(14.5238 0.0685057 0)
(14.5581 0.0668207 0)
(14.5917 0.0652672 0)
(14.6244 0.0638395 0)
(14.6565 0.0625347 0)
(14.688 0.0613579 0)
(14.7189 0.0603096 0)
(14.7493 0.0593824 0)
(14.7792 0.0585637 0)
(14.8087 0.0578402 0)
(14.8378 0.0571995 0)
(14.8665 0.0566306 0)
(14.8949 0.0561244 0)
(14.9229 0.0556739 0)
(14.9507 0.0552766 0)
(14.9781 0.0549308 0)
(15.0052 0.0546325 0)
(15.0321 0.0543764 0)
(15.0587 0.0541569 0)
(15.085 0.0539686 0)
(15.1111 0.0538065 0)
(15.1369 0.0536666 0)
(15.1625 0.0535449 0)
(15.1879 0.0534381 0)
(15.213 0.053343 0)
(15.2379 0.053257 0)
(15.2626 0.0531776 0)
(15.287 0.0531029 0)
(15.3113 0.0530309 0)
(15.3354 0.0529595 0)
(15.3592 0.0528872 0)
(15.3829 0.0528128 0)
(15.4063 0.0527352 0)
(15.4296 0.052654 0)
(15.4526 0.0525688 0)
(15.4755 0.0524801 0)
(15.4982 0.0523887 0)
(15.5207 0.0522963 0)
(15.543 0.0522019 0)
(15.5652 0.0521025 0)
(15.5871 0.0519967 0)
(15.6089 0.0518843 0)
(15.6305 0.0517662 0)
(15.652 0.051643 0)
(15.6733 0.0515151 0)
(15.6944 0.0513827 0)
(15.7153 0.0512461 0)
(15.7361 0.0511055 0)
(15.7567 0.0509613 0)
(15.7772 0.0508137 0)
(15.7975 0.0506631 0)
(15.8177 0.0505097 0)
(15.8377 0.0503539 0)
(15.8575 0.0501957 0)
(15.8773 0.0500356 0)
(15.8968 0.0498734 0)
(15.9162 0.0497098 0)
(15.9355 0.049544 0)
(15.9547 0.0493777 0)
(15.9737 0.0492091 0)
(15.9925 0.0490411 0)
(16.0113 0.0488699 0)
(16.0298 0.048701 0)
(16.0483 0.0485267 0)
(16.0667 0.0483575 0)
(16.0849 0.0481783 0)
(16.1029 0.0480098 0)
(16.121 0.0478223 0)
(16.1387 0.0476569 0)
(16.1565 0.0474551 0)
(16.174 0.047298 0)
(16.1917 0.0470701 0)
(16.2088 0.0469305 0)
(16.2265 0.046653 0)
(16.2429 0.0465473 0)
(16.261 0.0461761 0)
(16.2763 0.0461324 0)
(16.2955 0.0455862 0)
(16.3084 0.0456456 0)
(16.3305 0.0447801 0)
(16.3381 0.0449863 0)
(16.3672 0.0435632 0)
(12.0008 0.00479667 0)
(12.0165 0.0140985 0)
(12.0478 0.0226656 0)
(12.0942 0.0301706 0)
(12.154 0.0365217 0)
(12.2251 0.0418268 0)
(12.3055 0.0462463 0)
(12.3932 0.0498957 0)
(12.4865 0.0528441 0)
(12.5837 0.0551587 0)
(12.6834 0.0568955 0)
(12.784 0.058124 0)
(12.8844 0.0589171 0)
(12.9835 0.059346 0)
(13.0806 0.0594654 0)
(13.1752 0.0593403 0)
(13.2666 0.0590368 0)
(13.3546 0.0586223 0)
(13.439 0.0581451 0)
(13.5196 0.057647 0)
(13.5964 0.0571548 0)
(13.6695 0.0566887 0)
(13.7389 0.0562575 0)
(13.8048 0.0558623 0)
(13.8673 0.0554979 0)
(13.9266 0.0551603 0)
(13.9829 0.0548438 0)
(14.0365 0.0545425 0)
(14.0874 0.0542476 0)
(14.136 0.053951 0)
(14.1824 0.0536442 0)
(14.2268 0.0533211 0)
(14.2695 0.0529765 0)
(14.3105 0.0526081 0)
(14.35 0.0522151 0)
(14.3883 0.0517987 0)
(14.4253 0.0513613 0)
(14.4612 0.0509062 0)
(14.4962 0.0504371 0)
(14.5303 0.0499593 0)
(14.5636 0.0494799 0)
(14.5962 0.0490064 0)
(14.6281 0.0485455 0)
(14.6593 0.0481047 0)
(14.6901 0.0476886 0)
(14.7204 0.0472973 0)
(14.7502 0.0469285 0)
(14.7795 0.0465796 0)
(14.8085 0.0462496 0)
(14.8372 0.0459387 0)
(14.8655 0.045647 0)
(14.8935 0.0453744 0)
(14.9212 0.0451172 0)
(14.9486 0.0448708 0)
(14.9757 0.0446319 0)
(15.0026 0.0443986 0)
(15.0293 0.0441695 0)
(15.0557 0.043944 0)
(15.0818 0.0437216 0)
(15.1078 0.0435021 0)
(15.1335 0.0432851 0)
(15.159 0.0430704 0)
(15.1843 0.042858 0)
(15.2095 0.0426474 0)
(15.2344 0.0424387 0)
(15.2591 0.0422314 0)
(15.2837 0.0420253 0)
(15.308 0.0418198 0)
(15.3322 0.0416141 0)
(15.3562 0.0414083 0)
(15.3801 0.0412018 0)
(15.4038 0.0409949 0)
(15.4273 0.0407864 0)
(15.4506 0.0405776 0)
(15.4738 0.0403677 0)
(15.4969 0.0401634 0)
(15.5198 0.0399655 0)
(15.5425 0.0397718 0)
(15.5651 0.0395807 0)
(15.5875 0.0393918 0)
(15.6098 0.0392047 0)
(15.6319 0.0390194 0)
(15.654 0.038836 0)
(15.6758 0.0386545 0)
(15.6976 0.0384751 0)
(15.7192 0.0382978 0)
(15.7406 0.038123 0)
(15.762 0.0379506 0)
(15.7832 0.0377807 0)
(15.8043 0.0376136 0)
(15.8253 0.0374492 0)
(15.8461 0.0372877 0)
(15.8668 0.0371291 0)
(15.8875 0.0369733 0)
(15.908 0.0368203 0)
(15.9283 0.0366699 0)
(15.9486 0.0365225 0)
(15.9688 0.0363771 0)
(15.9888 0.0362349 0)
(16.0088 0.0360941 0)
(16.0286 0.0359567 0)
(16.0484 0.0358194 0)
(16.068 0.035686 0)
(16.0875 0.0355504 0)
(16.107 0.0354203 0)
(16.1263 0.0352841 0)
(16.1455 0.0351569 0)
(16.1648 0.0350164 0)
(16.1837 0.0348927 0)
(16.2029 0.0347415 0)
(16.2214 0.0346233 0)
(16.2407 0.0344498 0)
(16.2586 0.0343427 0)
(16.2784 0.0341247 0)
(16.2951 0.0340417 0)
(16.3163 0.0337372 0)
(16.3303 0.0337084 0)
(16.3547 0.0332304 0)
(16.3629 0.0332979 0)
(16.3949 0.032396 0)
(12.0008 -0.00348813 0)
(12.0164 -0.0103687 0)
(12.0475 -0.0169524 0)
(12.0936 -0.0230227 0)
(12.1532 -0.0284091 0)
(12.2243 -0.0329898 0)
(12.3047 -0.036662 0)
(12.3925 -0.0393604 0)
(12.4859 -0.04109 0)
(12.5832 -0.0419287 0)
(12.6829 -0.0419883 0)
(12.7836 -0.0413721 0)
(12.8841 -0.0401517 0)
(12.9833 -0.0383919 0)
(13.0805 -0.0361543 0)
(13.1751 -0.0335128 0)
(13.2667 -0.0305397 0)
(13.3547 -0.0273154 0)
(13.4391 -0.0239219 0)
(13.5197 -0.0204484 0)
(13.5965 -0.0169856 0)
(13.6694 -0.0136203 0)
(13.7386 -0.0104255 0)
(13.8043 -0.00747174 0)
(13.8666 -0.00481109 0)
(13.9257 -0.00247185 0)
(13.9817 -0.000458653 0)
(14.035 0.00123881 0)
(14.0858 0.00264061 0)
(14.1341 0.00377116 0)
(14.1803 0.00465768 0)
(14.2246 0.00532781 0)
(14.2671 0.00580904 0)
(14.3079 0.00612732 0)
(14.3474 0.00630692 0)
(14.3855 0.00637009 0)
(14.4224 0.0063372 0)
(14.4582 0.00622666 0)
(14.4931 0.00605479 0)
(14.5272 0.00583697 0)
(14.5604 0.00558763 0)
(14.5929 0.00532264 0)
(14.6248 0.00505894 0)
(14.656 0.00480986 0)
(14.6868 0.00458318 0)
(14.717 0.00438218 0)
(14.7468 0.00420759 0)
(14.7761 0.00405926 0)
(14.8051 0.00393688 0)
(14.8337 0.00383995 0)
(14.862 0.00376839 0)
(14.89 0.00372186 0)
(14.9177 0.0036984 0)
(14.945 0.0036959 0)
(14.9722 0.00371273 0)
(14.999 0.00374801 0)
(15.0256 0.00380075 0)
(15.0519 0.00386985 0)
(15.0781 0.00395379 0)
(15.104 0.00405106 0)
(15.1296 0.00415997 0)
(15.1551 0.00427897 0)
(15.1804 0.00440648 0)
(15.2054 0.0045411 0)
(15.2303 0.00468144 0)
(15.255 0.00482634 0)
(15.2795 0.00497476 0)
(15.3038 0.00512602 0)
(15.3279 0.00527971 0)
(15.3519 0.0054352 0)
(15.3756 0.00559231 0)
(15.3992 0.00574997 0)
(15.4227 0.00590814 0)
(15.446 0.00606376 0)
(15.4691 0.00621542 0)
(15.4921 0.00635402 0)
(15.5149 0.00648058 0)
(15.5376 0.00660183 0)
(15.5601 0.00672224 0)
(15.5825 0.00684258 0)
(15.6047 0.0069617 0)
(15.6268 0.00707864 0)
(15.6487 0.007193 0)
(15.6705 0.00730485 0)
(15.6922 0.00741421 0)
(15.7137 0.00752114 0)
(15.7352 0.00762556 0)
(15.7564 0.00772749 0)
(15.7776 0.00782689 0)
(15.7986 0.00792383 0)
(15.8195 0.00801833 0)
(15.8403 0.00811046 0)
(15.861 0.00820021 0)
(15.8815 0.00828762 0)
(15.902 0.00837264 0)
(15.9223 0.00845528 0)
(15.9425 0.00853548 0)
(15.9626 0.0086133 0)
(15.9826 0.00868861 0)
(16.0025 0.00876149 0)
(16.0223 0.00883164 0)
(16.042 0.00889921 0)
(16.0616 0.00896355 0)
(16.0811 0.00902521 0)
(16.1005 0.00908286 0)
(16.1198 0.00913798 0)
(16.139 0.00918774 0)
(16.1582 0.00923569 0)
(16.177 0.00927573 0)
(16.1962 0.00931603 0)
(16.2147 0.00934369 0)
(16.234 0.00937648 0)
(16.2518 0.00938783 0)
(16.2716 0.00941501 0)
(16.2882 0.00940551 0)
(16.3094 0.00943434 0)
(16.3233 0.00940216 0)
(16.3477 0.00944999 0)
(16.3558 0.00939938 0)
(16.3878 0.00949989 0)
(12.0008 -0.0118186 0)
(12.017 -0.0350665 0)
(12.0491 -0.0570738 0)
(12.0967 -0.0770549 0)
(12.158 -0.0945394 0)
(12.231 -0.109318 0)
(12.3133 -0.121281 0)
(12.4031 -0.130378 0)
(12.4983 -0.136683 0)
(12.5974 -0.140417 0)
(12.6986 -0.141893 0)
(12.8006 -0.14144 0)
(12.9023 -0.139362 0)
(13.0026 -0.135926 0)
(13.1008 -0.131374 0)
(13.1962 -0.125929 0)
(13.2885 -0.119805 0)
(13.3771 -0.113197 0)
(13.4619 -0.106281 0)
(13.5428 -0.0992122 0)
(13.6198 -0.0921222 0)
(13.6928 -0.0851211 0)
(13.762 -0.0783073 0)
(13.8276 -0.0717643 0)
(13.8897 -0.0655608 0)
(13.9486 -0.0597477 0)
(14.0044 -0.0543583 0)
(14.0575 -0.0494098 0)
(14.108 -0.0449062 0)
(14.1562 -0.040841 0)
(14.2023 -0.0371993 0)
(14.2464 -0.0339594 0)
(14.2888 -0.0310953 0)
(14.3296 -0.0285778 0)
(14.369 -0.0263762 0)
(14.4071 -0.0244599 0)
(14.444 -0.0227987 0)
(14.4799 -0.0213637 0)
(14.5148 -0.0201267 0)
(14.5489 -0.0190607 0)
(14.5821 -0.0181395 0)
(14.6147 -0.0173373 0)
(14.6466 -0.0166277 0)
(14.678 -0.0159887 0)
(14.7088 -0.0154041 0)
(14.739 -0.0148623 0)
(14.7689 -0.0143553 0)
(14.7983 -0.0138773 0)
(14.8273 -0.0134243 0)
(14.8559 -0.0129933 0)
(14.8842 -0.0125828 0)
(14.9122 -0.0121922 0)
(14.9399 -0.0118206 0)
(14.9672 -0.0114668 0)
(14.9943 -0.0111289 0)
(15.0211 -0.0108053 0)
(15.0477 -0.0104941 0)
(15.074 -0.0101944 0)
(15.1 -0.00990501 0)
(15.1258 -0.00962528 0)
(15.1514 -0.00935444 0)
(15.1767 -0.00909216 0)
(15.2019 -0.00883782 0)
(15.2268 -0.00859124 0)
(15.2515 -0.00835191 0)
(15.276 -0.0081197 0)
(15.3003 -0.00789393 0)
(15.3244 -0.00767438 0)
(15.3483 -0.00746026 0)
(15.372 -0.00725173 0)
(15.3956 -0.00704821 0)
(15.4189 -0.00685057 0)
(15.4421 -0.00665817 0)
(15.4651 -0.00647359 0)
(15.4879 -0.00629716 0)
(15.5105 -0.0061368 0)
(15.533 -0.00599062 0)
(15.5553 -0.00585233 0)
(15.5774 -0.00571745 0)
(15.5994 -0.00558532 0)
(15.6212 -0.00545649 0)
(15.6429 -0.00533184 0)
(15.6644 -0.00521134 0)
(15.6857 -0.005095 0)
(15.7069 -0.00498241 0)
(15.728 -0.0048736 0)
(15.7489 -0.00476827 0)
(15.7696 -0.00466648 0)
(15.7902 -0.00456791 0)
(15.8107 -0.00447261 0)
(15.831 -0.00438027 0)
(15.8512 -0.00429092 0)
(15.8712 -0.00420433 0)
(15.8911 -0.00412049 0)
(15.9109 -0.00403932 0)
(15.9305 -0.00396067 0)
(15.95 -0.00388469 0)
(15.9694 -0.00381093 0)
(15.9887 -0.00374005 0)
(16.0078 -0.00367096 0)
(16.0268 -0.00360547 0)
(16.0457 -0.00354101 0)
(16.0644 -0.00348171 0)
(16.0831 -0.00342169 0)
(16.1016 -0.00337004 0)
(16.12 -0.00331373 0)
(16.1382 -0.0032724 0)
(16.1565 -0.00321781 0)
(16.1744 -0.00319151 0)
(16.1926 -0.00313343 0)
(16.2101 -0.00313031 0)
(16.2283 -0.00305697 0)
(16.2451 -0.00309116 0)
(16.2637 -0.00297758 0)
(16.2794 -0.00307158 0)
(16.2992 -0.00286663 0)
(16.3123 -0.003049 0)
(16.3351 -0.00264761 0)
(16.3428 -0.00291324 0)
(16.3726 -0.00206717 0)
(12.0009 -0.0204789 0)
(12.0182 -0.0606489 0)
(12.0526 -0.0985539 0)
(12.1034 -0.13292 0)
(12.1684 -0.163041 0)
(12.2453 -0.188558 0)
(12.3318 -0.209227 0)
(12.4258 -0.224946 0)
(12.5254 -0.235857 0)
(12.6286 -0.242347 0)
(12.7337 -0.244943 0)
(12.8394 -0.244222 0)
(12.9445 -0.240738 0)
(13.0479 -0.235007 0)
(13.1489 -0.227526 0)
(13.2468 -0.218754 0)
(13.341 -0.209109 0)
(13.4313 -0.198938 0)
(13.5175 -0.18853 0)
(13.5992 -0.178108 0)
(13.6767 -0.167845 0)
(13.75 -0.157868 0)
(13.819 -0.148283 0)
(13.8842 -0.139159 0)
(13.9455 -0.130551 0)
(14.0034 -0.122493 0)
(14.058 -0.11501 0)
(14.1096 -0.108112 0)
(14.1584 -0.101799 0)
(14.2047 -0.0960577 0)
(14.2487 -0.0908678 0)
(14.2906 -0.0862011 0)
(14.3307 -0.0820249 0)
(14.369 -0.0783015 0)
(14.4058 -0.0749928 0)
(14.4412 -0.0720597 0)
(14.4754 -0.0694668 0)
(14.5084 -0.06718 0)
(14.5403 -0.0651643 0)
(14.5713 -0.0633813 0)
(14.6014 -0.0617949 0)
(14.6307 -0.0603732 0)
(14.6593 -0.0590922 0)
(14.6871 -0.0579294 0)
(14.7143 -0.0568647 0)
(14.7409 -0.0558771 0)
(14.7669 -0.0549501 0)
(14.7924 -0.0540705 0)
(14.8173 -0.0532298 0)
(14.8418 -0.0524209 0)
(14.8658 -0.0516413 0)
(14.8893 -0.0508888 0)
(14.9124 -0.0501625 0)
(14.9351 -0.0494602 0)
(14.9574 -0.0487805 0)
(14.9792 -0.0481208 0)
(15.0007 -0.0474801 0)
(15.0219 -0.046856 0)
(15.0426 -0.0462476 0)
(15.063 -0.045653 0)
(15.0831 -0.0450717 0)
(15.1028 -0.0445022 0)
(15.1221 -0.0439446 0)
(15.1412 -0.0433973 0)
(15.1599 -0.0428609 0)
(15.1783 -0.0423342 0)
(15.1964 -0.0418176 0)
(15.2142 -0.0413096 0)
(15.2317 -0.0408104 0)
(15.2489 -0.0403187 0)
(15.2658 -0.0398356 0)
(15.2824 -0.0393604 0)
(15.2987 -0.0388952 0)
(15.3148 -0.0384378 0)
(15.3306 -0.0379895 0)
(15.3461 -0.0375422 0)
(15.3613 -0.0370966 0)
(15.3763 -0.0366549 0)
(15.391 -0.0362203 0)
(15.4055 -0.0357925 0)
(15.4197 -0.0353724 0)
(15.4337 -0.0349586 0)
(15.4474 -0.0345524 0)
(15.4609 -0.0341524 0)
(15.4741 -0.0337597 0)
(15.4871 -0.033373 0)
(15.4999 -0.0329934 0)
(15.5125 -0.0326193 0)
(15.5248 -0.032252 0)
(15.5369 -0.0318899 0)
(15.5488 -0.0315342 0)
(15.5605 -0.0311833 0)
(15.572 -0.0308386 0)
(15.5833 -0.0304982 0)
(15.5943 -0.0301639 0)
(15.6052 -0.0298335 0)
(15.6159 -0.0295093 0)
(15.6263 -0.0291884 0)
(15.6366 -0.0288741 0)
(15.6467 -0.0285623 0)
(15.6567 -0.0282581 0)
(15.6664 -0.0279549 0)
(15.6759 -0.0276618 0)
(15.6853 -0.0273664 0)
(15.6945 -0.0270861 0)
(15.7036 -0.0267967 0)
(15.7124 -0.0265331 0)
(15.7212 -0.026245 0)
(15.7297 -0.0260054 0)
(15.7381 -0.025708 0)
(15.7462 -0.0255063 0)
(15.7545 -0.0251763 0)
(15.7621 -0.0250387 0)
(15.7703 -0.0246272 0)
(15.7772 -0.0246004 0)
(15.7857 -0.024009 0)
(15.7914 -0.0241656 0)
(15.8009 -0.0231992 0)
(15.8042 -0.023595 0)
(15.8163 -0.0218226 0)
(12.001 -0.0297576 0)
(12.0202 -0.0871626 0)
(12.0587 -0.140356 0)
(12.1155 -0.18841 0)
(12.1884 -0.230989 0)
(12.2749 -0.267586 0)
(12.3723 -0.297631 0)
(12.4776 -0.320869 0)
(12.5879 -0.337479 0)
(12.7001 -0.347901 0)
(12.8117 -0.352677 0)
(12.9207 -0.352458 0)
(13.0255 -0.347872 0)
(13.125 -0.339557 0)
(13.2183 -0.328208 0)
(13.3051 -0.314532 0)
(13.385 -0.2992 0)
(13.4581 -0.282807 0)
(13.5246 -0.265869 0)
(13.5847 -0.248822 0)
(13.6389 -0.232032 0)
(13.6874 -0.215795 0)
(13.7308 -0.200334 0)
(13.7694 -0.185806 0)
(13.8037 -0.17231 0)
(13.8341 -0.159898 0)
(13.861 -0.148586 0)
(13.8846 -0.138358 0)
(13.9054 -0.129177 0)
(13.9236 -0.120984 0)
(13.9395 -0.11371 0)
(13.9534 -0.10728 0)
(13.9654 -0.101612 0)
(13.9757 -0.0966275 0)
(13.9845 -0.0922451 0)
(13.9919 -0.0883883 0)
(13.9981 -0.0849907 0)
(14.0031 -0.082002 0)
(14.0071 -0.0793709 0)
(14.0102 -0.0770441 0)
(14.0123 -0.074972 0)
(14.0136 -0.0731122 0)
(14.0142 -0.0714288 0)
(14.0141 -0.0698913 0)
(14.0133 -0.0684719 0)
(14.0119 -0.0671482 0)
(14.01 -0.0659018 0)
(14.0075 -0.0647181 0)
(14.0045 -0.0635851 0)
(14.001 -0.0624934 0)
(13.9971 -0.0614347 0)
(13.9928 -0.0604018 0)
(13.9881 -0.0593893 0)
(13.983 -0.0583932 0)
(13.9776 -0.0574106 0)
(13.9719 -0.0564394 0)
(13.9659 -0.0554782 0)
(13.9596 -0.0545261 0)
(13.953 -0.0535826 0)
(13.9462 -0.0526475 0)
(13.9391 -0.0517209 0)
(13.9318 -0.050803 0)
(13.9244 -0.0498943 0)
(13.9167 -0.0489953 0)
(13.9089 -0.0481067 0)
(13.9009 -0.0472292 0)
(13.8927 -0.0463637 0)
(13.8844 -0.0455106 0)
(13.876 -0.0446694 0)
(13.8675 -0.0438398 0)
(13.8588 -0.0430221 0)
(13.8501 -0.0422165 0)
(13.8412 -0.0414231 0)
(13.8323 -0.0406413 0)
(13.8233 -0.0398702 0)
(13.8142 -0.0391083 0)
(13.8051 -0.0383576 0)
(13.7959 -0.0376213 0)
(13.7866 -0.0369014 0)
(13.7774 -0.0361976 0)
(13.7681 -0.0355092 0)
(13.7587 -0.0348349 0)
(13.7494 -0.0341745 0)
(13.74 -0.0335272 0)
(13.7306 -0.0328931 0)
(13.7212 -0.0322716 0)
(13.7118 -0.0316627 0)
(13.7024 -0.0310658 0)
(13.693 -0.0304812 0)
(13.6836 -0.029908 0)
(13.6742 -0.0293468 0)
(13.6648 -0.0287966 0)
(13.6555 -0.028258 0)
(13.6462 -0.02773 0)
(13.6369 -0.0272136 0)
(13.6277 -0.0267072 0)
(13.6184 -0.0262122 0)
(13.6093 -0.0257267 0)
(13.6001 -0.025253 0)
(13.591 -0.0247878 0)
(13.582 -0.024335 0)
(13.573 -0.0238896 0)
(13.564 -0.023458 0)
(13.5551 -0.0230313 0)
(13.5463 -0.0226217 0)
(13.5375 -0.0222121 0)
(13.5287 -0.0218266 0)
(13.52 -0.0214306 0)
(13.5114 -0.0210731 0)
(13.5028 -0.0206826 0)
(13.4944 -0.0203615 0)
(13.4858 -0.0199584 0)
(13.4776 -0.0196902 0)
(13.469 -0.0192346 0)
(13.4612 -0.0190509 0)
(13.4522 -0.0184551 0)
(13.4455 -0.0184119 0)
(13.4351 -0.0174848 0)
(13.4309 -0.01765 0)
(13.4173 -0.0159569 0)
(12.0022 -0.0492934 0)
(12.0396 -0.137136 0)
(12.1048 -0.213227 0)
(12.1878 -0.279972 0)
(12.278 -0.338042 0)
(12.3661 -0.386295 0)
(12.4447 -0.423883 0)
(12.5084 -0.450963 0)
(12.5545 -0.468518 0)
(12.5818 -0.477658 0)
(12.5911 -0.479498 0)
(12.5837 -0.475182 0)
(12.5615 -0.465692 0)
(12.5266 -0.451955 0)
(12.481 -0.434889 0)
(12.4268 -0.415337 0)
(12.3657 -0.394053 0)
(12.2994 -0.371679 0)
(12.2295 -0.348769 0)
(12.157 -0.325798 0)
(12.083 -0.303151 0)
(12.0085 -0.281164 0)
(11.9339 -0.260074 0)
(11.86 -0.240054 0)
(11.787 -0.221226 0)
(11.7152 -0.203661 0)
(11.6449 -0.187389 0)
(11.5762 -0.172406 0)
(11.5092 -0.158683 0)
(11.4439 -0.146172 0)
(11.3803 -0.134807 0)
(11.3184 -0.12452 0)
(11.2582 -0.115228 0)
(11.1995 -0.106853 0)
(11.1424 -0.0993163 0)
(11.0867 -0.092535 0)
(11.0325 -0.0864293 0)
(10.9796 -0.0809164 0)
(10.928 -0.0759242 0)
(10.8777 -0.0713948 0)
(10.8285 -0.0672797 0)
(10.7805 -0.0635346 0)
(10.7337 -0.0601185 0)
(10.6879 -0.0569933 0)
(10.6432 -0.0541262 0)
(10.5994 -0.0514911 0)
(10.5567 -0.0490654 0)
(10.515 -0.0468279 0)
(10.4742 -0.0447589 0)
(10.4344 -0.0428403 0)
(10.3954 -0.0410556 0)
(10.3574 -0.0393898 0)
(10.3202 -0.0378307 0)
(10.284 -0.0363679 0)
(10.2486 -0.0349916 0)
(10.214 -0.0336956 0)
(10.1802 -0.032472 0)
(10.1473 -0.0313142 0)
(10.1151 -0.0302174 0)
(10.0837 -0.0291765 0)
(10.053 -0.0281873 0)
(10.0231 -0.0272459 0)
(9.99395 -0.0263487 0)
(9.96548 -0.0254924 0)
(9.93769 -0.0246743 0)
(9.91058 -0.0238915 0)
(9.88413 -0.0231422 0)
(9.85833 -0.0224247 0)
(9.83315 -0.0217386 0)
(9.80859 -0.0210833 0)
(9.78462 -0.0204573 0)
(9.76124 -0.0198585 0)
(9.73842 -0.019285 0)
(9.71615 -0.0187347 0)
(9.69442 -0.018206 0)
(9.67321 -0.0176979 0)
(9.65251 -0.01721 0)
(9.63231 -0.0167424 0)
(9.61259 -0.0162944 0)
(9.59334 -0.015865 0)
(9.57454 -0.0154525 0)
(9.55619 -0.0150556 0)
(9.53826 -0.0146733 0)
(9.52075 -0.0143048 0)
(9.50365 -0.0139493 0)
(9.48693 -0.0136063 0)
(9.4706 -0.0132752 0)
(9.45464 -0.0129554 0)
(9.43904 -0.0126465 0)
(9.42378 -0.012348 0)
(9.40886 -0.0120595 0)
(9.39427 -0.0117808 0)
(9.38 -0.0115114 0)
(9.36604 -0.0112511 0)
(9.35238 -0.0109996 0)
(9.33901 -0.0107565 0)
(9.32592 -0.0105216 0)
(9.31311 -0.0102948 0)
(9.30056 -0.0100758 0)
(9.28827 -0.00986443 0)
(9.27623 -0.00966048 0)
(9.26444 -0.00946379 0)
(9.25288 -0.00927413 0)
(9.24155 -0.00909158 0)
(9.23044 -0.00891564 0)
(9.21955 -0.00874684 0)
(9.20886 -0.00858382 0)
(9.19837 -0.00842829 0)
(9.1881 -0.00827669 0)
(9.17797 -0.00813379 0)
(9.16811 -0.00799067 0)
(9.15826 -0.00785888 0)
(9.14889 -0.00771744 0)
(9.13917 -0.0075914 0)
(9.13048 -0.00743683 0)
(9.12055 -0.00729857 0)
(9.11312 -0.00710336 0)
(9.10211 -0.00689919 0)
(9.09752 -0.00664843 0)
(9.08325 -0.00628295 0)
(11.9797 -0.0359572 0)
(11.8808 -0.134864 0)