/*--------------------------------*- C++ -*----------------------------------*\
  =========                 |
  \\      /  F ield         | OpenFOAM: The Open Source CFD Toolbox
   \\    /   O peration     | Website:  https://openfoam.org
    \\  /    A nd           | Version:  7
     \\/     M anipulation  |
\*---------------------------------------------------------------------------*/
FoamFile
{
    version     2.0;
    format      ascii;
    class       volScalarField;
    location    "1.9125";
    object      k;
}
// * * * * * * * * * * * * * * * * * * * * * * * * * * * * * * * * * * * * * //

dimensions      [0 2 -2 0 0 0 0];

internalField   nonuniform List<scalar> 
7920
(
52.0601
56.5447
56.5931
56.6527
56.5842
56.5973
56.5427
56.5557
56.5176
56.5304
56.5012
56.5119
56.4873
56.4949
56.4778
56.4824
56.4801
56.4615
56.5457
56.6736
13.8499
14.0211
13.4487
12.9001
12.6397
12.5392
12.4526
12.4266
12.3809
12.3707
12.3409
12.3352
12.3178
12.3158
12.304
12.302
12.2955
12.2895
12.4576
12.4692
8.09022
9.22915
9.35007
9.33677
9.29935
9.29095
9.26809
9.26459
9.24827
9.24498
9.23097
9.22778
9.21592
9.21304
9.20324
9.20067
9.19313
9.19014
9.19351
9.21866
7.48716
8.75981
9.01409
9.10766
9.13345
9.16876
9.1757
9.19531
9.19726
9.20866
9.20788
9.21446
9.21213
9.21598
9.21284
9.21502
9.21179
9.21314
9.21277
9.23511
7.42212
8.70615
8.97311
9.08286
9.12174
9.17081
9.18781
9.22181
9.23249
9.25694
9.26395
9.28187
9.28627
9.29943
9.3021
9.31178
9.31335
9.31992
9.32258
9.34694
7.429
8.7027
8.96802
9.07934
9.12191
9.17574
9.19775
9.23756
9.253
9.28431
9.29578
9.32021
9.32873
9.34788
9.35417
9.36913
9.37382
9.38452
9.39076
9.41568
7.429
8.70271
8.96802
9.07934
9.1219
9.17574
9.19775
9.23757
9.253
9.28431
9.29578
9.32022
9.32873
9.34789
9.35417
9.36917
9.37382
9.38458
9.39082
9.41577
7.42212
8.70615
8.97311
9.08287
9.12174
9.17082
9.1878
9.22182
9.23248
9.25696
9.26393
9.28191
9.28623
9.2995
9.30205
9.31192
9.3133
9.32015
9.32261
9.34725
7.48716
8.75982
9.01408
9.10766
9.13344
9.16877
9.1757
9.19532
9.19724
9.20868
9.20784
9.21454
9.21204
9.21615
9.21262
9.21543
9.21133
9.21401
9.21205
9.23607
8.09022
9.22915
9.35006
9.33678
9.29935
9.29096
9.26808
9.26461
9.24824
9.24502
9.2309
9.22786
9.21576
9.21326
9.20283
9.20126
9.19199
9.19235
9.19134
9.22203
13.8499
14.0211
13.4487
12.9001
12.6397
12.5392
12.4526
12.4266
12.3809
12.3707
12.3408
12.3353
12.3177
12.316
12.3036
12.3026
12.2941
12.2923
12.4498
12.4779
52.0601
56.5447
56.5931
56.6527
56.5842
56.5973
56.5427
56.5557
56.5175
56.5305
56.5011
56.5122
56.4868
56.4957
56.4765
56.4847
56.4756
56.4699
56.5265
56.7155
7.67964
9.68225
9.76956
9.6426
9.60783
9.53598
9.53289
9.49147
9.49277
9.46447
9.46689
9.44626
9.44853
9.43275
9.43494
9.42177
9.42575
9.40966
9.41335
9.45958
6.02319
8.25689
8.60148
8.64861
8.65511
8.6554
8.65392
8.65191
8.64906
8.6461
8.64309
8.63978
8.63737
8.63419
8.63266
8.6297
8.62862
8.62625
8.63046
8.63811
5.70497
7.91057
8.26506
8.33863
8.35217
8.37056
8.37646
8.38915
8.39304
8.40149
8.40369
8.40891
8.41029
8.41344
8.41487
8.41646
8.419
8.41883
8.4209
8.45227
5.69651
7.90107
8.25145
8.32117
8.32723
8.33835
8.33896
8.34565
8.34731
8.35311
8.35443
8.35849
8.35957
8.36219
8.36349
8.36463
8.36706
8.36659
8.36947
8.38916
5.68467
7.88554
8.23553
8.30694
8.31188
8.32188
8.32019
8.32498
8.32424
8.32792
8.32729
8.32973
8.32906
8.3305
8.32991
8.33061
8.33029
8.33055
8.33115
8.35124
5.691
7.89366
8.24271
8.31365
8.31838
8.32823
8.32631
8.33091
8.32972
8.33305
8.33182
8.3338
8.33241
8.33336
8.33196
8.33212
8.33091
8.33062
8.32979
8.34805
5.69099
7.89366
8.24271
8.31365
8.31838
8.32823
8.32631
8.33091
8.32972
8.33305
8.33182
8.33381
8.33241
8.33338
8.33194
8.33214
8.33089
8.33063
8.32982
8.34801
5.68467
7.88554
8.23553
8.30694
8.31188
8.32188
8.32018
8.32499
8.32423
8.32794
8.32727
8.32976
8.32902
8.33056
8.32983
8.33072
8.33015
8.33073
8.33102
8.35127
5.69651
7.90107
8.25145
8.32118
8.32723
8.33836
8.33896
8.34566
8.3473
8.35314
8.3544
8.35856
8.35949
8.36237
8.36316
8.3651
8.36636
8.36705
8.36893
8.38972
5.70497
7.91057
8.26505
8.33863
8.35216
8.37057
8.37645
8.38917
8.39302
8.40152
8.40365
8.409
8.41018
8.4137
8.41444
8.41727
8.41767
8.42054
8.41866
8.45462
6.02319
8.25689
8.60148
8.64861
8.65511
8.65541
8.65391
8.65193
8.64904
8.64613
8.64303
8.63986
8.63722
8.63443
8.63224
8.63041
8.62738
8.6282
8.62698
8.64467
7.67964
9.68225
9.76956
9.6426
9.60783
9.53599
9.53289
9.49148
9.49277
9.46448
9.46687
9.4463
9.44849
9.43286
9.43482
9.4221
9.42537
9.41081
9.41163
9.46471
0.477483
1.03635
1.13412
1.10459
1.03051
0.963512
0.911778
0.874957
0.847998
0.827014
0.811847
0.797993
0.788403
0.77815
0.771522
0.763763
0.758303
0.753947
0.745472
0.753492
0.0860441
0.382834
0.527241
0.589447
0.611555
0.625403
0.632328
0.639861
0.643581
0.64757
0.648856
0.650421
0.650453
0.650631
0.650264
0.650054
0.649429
0.649028
0.648199
0.651077
0.0642588
0.300129
0.416752
0.475217
0.493732
0.507393
0.510589
0.517089
0.51936
0.524283
0.52667
0.531035
0.533622
0.537231
0.539919
0.542837
0.545556
0.548003
0.549813
0.554382
0.0681156
0.303751
0.417929
0.473877
0.491957
0.503338
0.505051
0.508082
0.50823
0.509222
0.509467
0.510366
0.51087
0.511841
0.512866
0.513621
0.515152
0.515881
0.517231
0.520625
0.0662663
0.299746
0.412768
0.468696
0.486314
0.49766
0.499084
0.501813
0.501579
0.50205
0.501712
0.501875
0.501659
0.501726
0.501698
0.501727
0.501926
0.501995
0.502275
0.50446
0.0673006
0.301985
0.415418
0.471121
0.488894
0.500112
0.501691
0.504341
0.504151
0.504565
0.504224
0.504293
0.504028
0.503962
0.503784
0.503605
0.503601
0.503476
0.503591
0.505463
0.0673006
0.301986
0.415418
0.471121
0.488894
0.500112
0.501691
0.504341
0.504151
0.504565
0.504224
0.504294
0.504028
0.503962
0.503783
0.503606
0.5036
0.503477
0.503589
0.505462
0.0662662
0.299746
0.412768
0.468696
0.486314
0.497661
0.499084
0.501813
0.501579
0.50205
0.501712
0.501875
0.501659
0.501726
0.501696
0.501726
0.501924
0.501992
0.502272
0.504448
0.0681154
0.303752
0.417929
0.473878
0.491956
0.503339
0.50505
0.508083
0.50823
0.509223
0.509467
0.510369
0.510863
0.511853
0.512844
0.513633
0.515126
0.515866
0.517205
0.52058
0.0642586
0.300129
0.416752
0.475218
0.493731
0.507393
0.510589
0.51709
0.519359
0.524286
0.526661
0.531045
0.533604
0.537251
0.539876
0.542868
0.545481
0.548001
0.54976
0.554282
0.086044
0.382835
0.52724
0.589448
0.611554
0.625405
0.632325
0.639865
0.643575
0.647577
0.648843
0.650431
0.650445
0.650636
0.650215
0.650063
0.649337
0.649054
0.64807
0.651089
0.477483
1.03635
1.13412
1.10459
1.03051
0.963513
0.911778
0.874961
0.847997
0.827024
0.811845
0.798019
0.7884
0.778215
0.771523
0.763921
0.758323
0.754292
0.745575
0.754459
0.477483
1.03635
1.13412
1.10459
1.03051
0.963512
0.911778
0.874957
0.847998
0.827014
0.811847
0.797993
0.788403
0.77815
0.771522
0.763763
0.758303
0.753947
0.745472
0.753492
0.0860442
0.382834
0.527241
0.589447
0.611555
0.625403
0.632328
0.639861
0.643581
0.64757
0.648856
0.650421
0.650453
0.650631
0.650264
0.650054
0.649429
0.649028
0.648199
0.651077
0.0642588
0.300129
0.416752
0.475217
0.493732
0.507393
0.510589
0.517089
0.51936
0.524283
0.526671
0.531035
0.533622
0.537231
0.539919
0.542837
0.545557
0.548003
0.549813
0.554382
0.0681156
0.303751
0.417929
0.473877
0.491957
0.503338
0.505051
0.508082
0.50823
0.509222
0.509467
0.510366
0.51087
0.511841
0.512866
0.513621
0.515152
0.515881
0.517231
0.520625
0.0662663
0.299746
0.412769
0.468696
0.486314
0.49766
0.499084
0.501813
0.501579
0.50205
0.501712
0.501875
0.501659
0.501726
0.501698
0.501727
0.501926
0.501995
0.502275
0.50446
0.0673006
0.301986
0.415418
0.471121
0.488894
0.500112
0.501691
0.504341
0.504151
0.504565
0.504224
0.504293
0.504028
0.503962
0.503784
0.503605
0.503601
0.503476
0.503591
0.505464
0.0673006
0.301986
0.415418
0.471121
0.488894
0.500112
0.501691
0.504341
0.504151
0.504565
0.504224
0.504294
0.504028
0.503962
0.503783
0.503606
0.5036
0.503477
0.503589
0.505462
0.0662662
0.299746
0.412768
0.468696
0.486314
0.497661
0.499084
0.501813
0.501579
0.50205
0.501712
0.501875
0.501659
0.501726
0.501696
0.501726
0.501924
0.501992
0.502272
0.504448
0.0681154
0.303752
0.417929
0.473878
0.491956
0.503339
0.50505
0.508083
0.50823
0.509223
0.509467
0.510369
0.510863
0.511853
0.512844
0.513633
0.515126
0.515866
0.517205
0.52058
0.0642586
0.300129
0.416752
0.475218
0.493731
0.507393
0.510589
0.51709
0.519359
0.524286
0.526661
0.531045
0.533604
0.537251
0.539876
0.542868
0.545481
0.548001
0.54976
0.554282
0.086044
0.382835
0.52724
0.589448
0.611554
0.625405
0.632325
0.639865
0.643575
0.647577
0.648843
0.650431
0.650445
0.650636
0.650215
0.650063
0.649337
0.649054
0.64807
0.651089
0.477483
1.03635
1.13412
1.10459
1.03051
0.963513
0.911778
0.874961
0.847997
0.827024
0.811845
0.798019
0.7884
0.778215
0.771523
0.763921
0.758323
0.754292
0.745575
0.754459
7.67964
9.68225
9.76956
9.6426
9.60783
9.53598
9.53289
9.49147
9.49277
9.46447
9.46689
9.44626
9.44853
9.43275
9.43494
9.42177
9.42575
9.40966
9.41335
9.45958
6.02319
8.25689
8.60148
8.64861
8.65511
8.6554
8.65392
8.65191
8.64906
8.6461
8.64309
8.63978
8.63737
8.63419
8.63266
8.6297
8.62862
8.62625
8.63046
8.63811
5.70497
7.91057
8.26506
8.33863
8.35217
8.37056
8.37646
8.38915
8.39304
8.40149
8.40369
8.40891
8.41029
8.41344
8.41487
8.41646
8.419
8.41883
8.4209
8.45227
5.69651
7.90107
8.25145
8.32117
8.32723
8.33835
8.33896
8.34565
8.34731
8.35311
8.35443
8.35849
8.35957
8.36219
8.36349
8.36463
8.36706
8.36659
8.36947
8.38916
5.68467
7.88554
8.23553
8.30694
8.31188
8.32188
8.32019
8.32498
8.32424
8.32792
8.32729
8.32973
8.32906
8.3305
8.32991
8.33061
8.33029
8.33055
8.33115
8.35124
5.691
7.89366
8.24271
8.31365
8.31838
8.32823
8.32631
8.33091
8.32972
8.33305
8.33182
8.3338
8.33241
8.33336
8.33196
8.33212
8.33091
8.33062
8.32979
8.34805
5.69099
7.89366
8.24271
8.31365
8.31838
8.32823
8.32631
8.33091
8.32972
8.33305
8.33182
8.33381
8.3324
8.33338
8.33194
8.33214
8.33088
8.33063
8.32982
8.34801
5.68467
7.88554
8.23553
8.30694
8.31188
8.32188
8.32018
8.32499
8.32423
8.32794
8.32727
8.32976
8.32902
8.33056
8.32983
8.33072
8.33015
8.33073
8.33102
8.35127
5.69651
7.90107
8.25145
8.32118
8.32723
8.33836
8.33896
8.34566
8.3473
8.35314
8.3544
8.35856
8.35949
8.36237
8.36316
8.3651
8.36636
8.36705
8.36893
8.38972
5.70497
7.91057
8.26505
8.33863
8.35216
8.37057
8.37645
8.38917
8.39302
8.40152
8.40365
8.409
8.41018
8.4137
8.41444
8.41727
8.41767
8.42054
8.41866
8.45462
6.02319
8.25689
8.60148
8.64861
8.65511
8.65541
8.65391
8.65193
8.64904
8.64613
8.64303
8.63986
8.63722
8.63443
8.63224
8.63041
8.62738
8.6282
8.62698
8.64467
7.67964
9.68225
9.76956
9.6426
9.60783
9.53599
9.53289
9.49148
9.49277
9.46448
9.46687
9.4463
9.44849
9.43286
9.43482
9.4221
9.42537
9.41081
9.41163
9.46471
52.0601
56.5447
56.5931
56.6527
56.5842
56.5973
56.5427
56.5557
56.5176
56.5304
56.5012
56.5119
56.4873
56.495
56.4778
56.4824
56.4801
56.4615
56.5457
56.6736
13.8499
14.0211
13.4487
12.9001
12.6397
12.5392
12.4526
12.4266
12.3809
12.3707
12.3409
12.3352
12.3178
12.3158
12.304
12.302
12.2955
12.2895
12.4576
12.4692
8.09022
9.22915
9.35007
9.33677
9.29935
9.29095
9.26809
9.26459
9.24827
9.24498
9.23097
9.22778
9.21592
9.21305
9.20324
9.20068
9.19313
9.19014
9.19351
9.21866
7.48716
8.75981
9.01409
9.10766
9.13345
9.16876
9.1757
9.19531
9.19726
9.20866
9.20788
9.21446
9.21213
9.21598
9.21284
9.21502
9.21179
9.21314
9.21277
9.23511
7.42212
8.70615
8.97311
9.08286
9.12174
9.17081
9.18781
9.22181
9.23249
9.25694
9.26395
9.28187
9.28627
9.29943
9.3021
9.31178
9.31335
9.31992
9.32258
9.34694
7.429
8.7027
8.96802
9.07934
9.12191
9.17574
9.19775
9.23756
9.253
9.28431
9.29578
9.32021
9.32873
9.34788
9.35417
9.36913
9.37382
9.38452
9.39076
9.41568
7.429
8.70271
8.96802
9.07934
9.1219
9.17574
9.19775
9.23757
9.253
9.28431
9.29578
9.32022
9.32873
9.34789
9.35417
9.36917
9.37382
9.38458
9.39082
9.41577
7.42212
8.70615
8.97311
9.08287
9.12174
9.17082
9.1878
9.22182
9.23248
9.25696
9.26393
9.28191
9.28623
9.2995
9.30205
9.31192
9.3133
9.32015
9.32261
9.34725
7.48716
8.75982
9.01408
9.10766
9.13344
9.16877
9.1757
9.19532
9.19724
9.20868
9.20784
9.21454
9.21204
9.21615
9.21261
9.21542
9.21133
9.214
9.21205
9.23607
8.09022
9.22915
9.35006
9.33678
9.29935
9.29096
9.26808
9.26461
9.24824
9.24502
9.2309
9.22786
9.21576
9.21326
9.20283
9.20126
9.19199
9.19235
9.19134
9.22203
13.8499
14.0211
13.4487
12.9001
12.6397
12.5392
12.4526
12.4266
12.3809
12.3707
12.3408
12.3353
12.3177
12.316
12.3036
12.3026
12.2941
12.2923
12.4498
12.4779
52.0601
56.5447
56.5931
56.6527
56.5842
56.5973
56.5427
56.5557
56.5175
56.5305
56.5011
56.5122
56.4868
56.4957
56.4765
56.4847
56.4756
56.4699
56.5265
56.7155
144.361
146.477
147.494
148.331
148.992
149.636
150.18
150.709
151.156
151.596
151.989
152.389
152.753
153.112
153.431
153.742
154.021
154.293
154.536
154.767
154.965
155.148
155.3
155.44
155.554
155.659
155.741
155.813
155.864
155.907
155.934
155.956
155.967
155.977
155.979
155.984
155.983
155.985
155.984
155.985
155.983
155.984
155.982
155.983
155.981
155.982
155.98
155.981
155.979
155.98
155.978
155.978
155.976
155.977
155.975
155.976
155.974
155.974
155.973
155.973
155.971
155.971
155.97
155.97
155.968
155.968
155.967
155.967
155.965
155.965
155.963
155.963
155.962
155.961
155.96
155.959
155.958
155.957
155.956
155.955
155.953
155.953
155.951
155.95
155.947
155.947
155.942
155.943
155.908
155.887
47.3698
49.1351
49.4546
49.7411
49.9347
50.1596
50.3223
50.5091
50.6434
50.7995
50.9179
51.0596
51.1703
51.298
51.3956
51.5065
51.5915
51.689
51.7632
51.8467
51.9069
51.9739
52.0194
52.0717
52.1053
52.1456
52.1688
52.1979
52.2113
52.2304
52.2359
52.2476
52.2481
52.2553
52.2534
52.2585
52.2556
52.2598
52.2568
52.2604
52.2576
52.2609
52.2583
52.2614
52.2589
52.2619
52.2596
52.2624
52.2603
52.2629
52.2609
52.2634
52.2615
52.2639
52.2622
52.2644
52.2628
52.2648
52.2634
52.2653
52.2639
52.2658
52.2645
52.2663
52.2651
52.2667
52.2656
52.2672
52.2661
52.2676
52.2666
52.268
52.2671
52.2684
52.2675
52.2687
52.2679
52.269
52.2681
52.2692
52.2683
52.2692
52.2682
52.269
52.2678
52.2686
52.2667
52.2683
52.2502
52.2413
30.544
32.5707
32.7688
32.9537
33.045
33.1938
33.2762
33.4058
33.4759
33.5842
33.6447
33.7423
33.8011
33.8914
33.9448
34.0238
34.0696
34.1394
34.18
34.2416
34.2752
34.3262
34.351
34.3919
34.4094
34.4421
34.4537
34.479
34.485
34.5032
34.5043
34.5166
34.5144
34.5232
34.5193
34.5261
34.5217
34.5275
34.5231
34.5285
34.5243
34.5293
34.5254
34.5302
34.5266
34.5311
34.5279
34.5321
34.5291
34.5332
34.5304
34.5343
34.5318
34.5355
34.5332
34.5367
34.5346
34.5379
34.536
34.5392
34.5375
34.5406
34.539
34.5419
34.5405
34.5433
34.5421
34.5448
34.5436
34.5462
34.5452
34.5477
34.5468
34.5492
34.5483
34.5506
34.5499
34.552
34.5514
34.5534
34.5527
34.5547
34.554
34.5558
34.555
34.5568
34.5556
34.5577
34.5525
34.5328
28.2969
30.7295
30.928
31.0886
31.1447
31.271
31.3283
31.4467
31.499
31.5985
31.6413
31.7297
31.7737
31.8589
31.9014
31.9769
32.0127
32.0792
32.1117
32.1722
32.2006
32.2525
32.2735
32.3155
32.3301
32.3642
32.3742
32.4017
32.4071
32.4279
32.4288
32.4434
32.4409
32.4514
32.4468
32.4551
32.4498
32.4569
32.4515
32.458
32.453
32.459
32.4544
32.4601
32.4559
32.4613
32.4575
32.4627
32.4592
32.4641
32.4609
32.4656
32.4627
32.4672
32.4646
32.4689
32.4666
32.4707
32.4686
32.4726
32.4707
32.4745
32.4729
32.4766
32.4751
32.4786
32.4773
32.4808
32.4797
32.483
32.482
32.4852
32.4844
32.4875
32.4868
32.4898
32.4892
32.4921
32.4916
32.4944
32.4939
32.4966
32.4962
32.4987
32.4983
32.5008
32.5001
32.5026
32.5026
32.4789
28.1217
30.8002
31.01
31.1595
31.1911
31.2982
31.3377
31.4455
31.4864
31.5787
31.6101
31.6903
31.725
31.8056
31.8416
31.9148
31.9446
32.0085
32.0361
32.0958
32.1214
32.1742
32.1935
32.2364
32.2498
32.2849
32.2945
32.3238
32.3295
32.3524
32.3537
32.3701
32.3677
32.3797
32.3749
32.3842
32.3785
32.3864
32.3806
32.3878
32.3824
32.3891
32.3841
32.3904
32.3859
32.392
32.3878
32.3936
32.3899
32.3954
32.392
32.3973
32.3943
32.3993
32.3966
32.4015
32.399
32.4037
32.4016
32.4061
32.4042
32.4085
32.4069
32.4111
32.4096
32.4137
32.4125
32.4165
32.4154
32.4193
32.4184
32.4221
32.4214
32.4251
32.4245
32.428
32.4276
32.431
32.4307
32.4339
32.4337
32.4368
32.4367
32.4397
32.4395
32.4424
32.4421
32.4447
32.4464
32.4201
28.2009
31.0304
31.2458
31.3823
31.3933
31.4797
31.5032
31.5964
31.6263
31.7081
31.7294
31.7995
31.8257
31.8992
31.9291
31.9971
32.0215
32.0806
32.1037
32.1602
32.1829
32.2341
32.2515
32.2934
32.3054
32.34
32.3488
32.3784
32.384
32.4077
32.4092
32.4265
32.4242
32.4369
32.4321
32.4419
32.4361
32.4443
32.4384
32.4459
32.4403
32.4474
32.4422
32.4489
32.4442
32.4506
32.4464
32.4524
32.4486
32.4544
32.451
32.4566
32.4535
32.4589
32.4561
32.4613
32.4588
32.4638
32.4617
32.4665
32.4646
32.4692
32.4676
32.4721
32.4707
32.4751
32.4739
32.4781
32.4772
32.4813
32.4805
32.4845
32.484
32.4879
32.4874
32.4912
32.4909
32.4946
32.4944
32.4979
32.4979
32.5013
32.5013
32.5045
32.5046
32.5077
32.5078
32.5102
32.5134
32.4857
28.2023
31.0208
31.2178
31.3334
31.326
31.3939
31.4026
31.4801
31.499
31.5683
31.5802
31.6397
31.6581
31.7227
31.746
31.8065
31.8252
31.8777
31.8961
31.9472
31.9662
32.0133
32.0278
32.0666
32.0764
32.1088
32.1162
32.1443
32.1492
32.1721
32.1732
32.1901
32.1877
32.2002
32.1954
32.2051
32.1993
32.2075
32.2017
32.2091
32.2036
32.2106
32.2055
32.2121
32.2075
32.2138
32.2096
32.2157
32.2119
32.2177
32.2143
32.2198
32.2168
32.2221
32.2194
32.2245
32.2221
32.227
32.2249
32.2297
32.2278
32.2325
32.2308
32.2353
32.234
32.2383
32.2372
32.2414
32.2405
32.2446
32.2438
32.2478
32.2472
32.2511
32.2507
32.2545
32.2542
32.2578
32.2577
32.2612
32.2612
32.2646
32.2646
32.2678
32.2679
32.271
32.2712
32.2735
32.2769
32.2496
28.124
30.7602
30.9092
30.9943
30.9705
31.0225
31.0188
31.0818
31.0901
31.1462
31.1502
31.1995
31.211
31.2658
31.2821
31.3332
31.3459
31.3906
31.404
31.4481
31.4626
31.5033
31.5141
31.5478
31.5549
31.5834
31.5888
31.6139
31.6173
31.6379
31.6381
31.6535
31.6507
31.6622
31.6573
31.6665
31.6608
31.6686
31.6629
31.67
31.6646
31.6712
31.6663
31.6726
31.6681
31.6742
31.6701
31.6758
31.6721
31.6776
31.6743
31.6795
31.6765
31.6816
31.6789
31.6837
31.6813
31.686
31.6839
31.6883
31.6865
31.6908
31.6892
31.6934
31.692
31.696
31.6948
31.6988
31.6978
31.7016
31.7008
31.7045
31.7038
31.7074
31.7069
31.7104
31.71
31.7134
31.7131
31.7163
31.7162
31.7193
31.7191
31.7221
31.722
31.7249
31.7248
31.727
31.7297
31.705
28.2783
30.6048
30.6907
30.7438
30.71
30.7482
30.7369
30.786
30.7855
30.8282
30.8262
30.8657
30.8714
30.9153
30.925
30.9653
30.9725
31.0083
31.0169
31.0526
31.0622
31.0949
31.1017
31.1288
31.133
31.1564
31.1596
31.1803
31.1819
31.199
31.1981
31.2112
31.2078
31.2178
31.213
31.221
31.2157
31.2226
31.2174
31.2237
31.2188
31.2248
31.2203
31.2259
31.2218
31.2272
31.2234
31.2285
31.2251
31.23
31.2268
31.2315
31.2287
31.2332
31.2306
31.2349
31.2326
31.2367
31.2346
31.2386
31.2368
31.2406
31.2389
31.2426
31.2412
31.2447
31.2435
31.2469
31.2458
31.2491
31.2482
31.2514
31.2506
31.2537
31.2531
31.2561
31.2555
31.2584
31.258
31.2607
31.2604
31.263
31.2627
31.2652
31.2649
31.2673
31.267
31.269
31.2701
31.2484
30.4354
32.2424
32.2616
32.2925
32.2567
32.286
32.2715
32.3084
32.3019
32.3334
32.3277
32.3581
32.3592
32.3918
32.3957
32.425
32.4277
32.4542
32.4585
32.4849
32.4899
32.5137
32.5168
32.5368
32.5384
32.5559
32.5569
32.5725
32.5725
32.5854
32.5836
32.5937
32.5903
32.5982
32.5939
32.6004
32.596
32.6017
32.5974
32.6027
32.5986
32.6036
32.5998
32.6045
32.6011
32.6056
32.6024
32.6067
32.6038
32.6078
32.6052
32.609
32.6066
32.6103
32.6081
32.6116
32.6096
32.613
32.6112
32.6144
32.6127
32.6158
32.6143
32.6173
32.616
32.6188
32.6176
32.6203
32.6193
32.6219
32.621
32.6235
32.6227
32.6251
32.6244
32.6267
32.626
32.6282
32.6277
32.6298
32.6292
32.6312
32.6307
32.6325
32.632
32.6337
32.6329
32.6346
32.6318
32.6146
46.948
48.2399
48.2345
48.2546
48.2264
48.2499
48.2396
48.2681
48.2635
48.2873
48.2839
48.3074
48.3097
48.3344
48.3382
48.3599
48.3629
48.3827
48.3872
48.4068
48.4116
48.429
48.4321
48.4466
48.4487
48.4616
48.4632
48.4745
48.4752
48.4845
48.4837
48.4909
48.4889
48.4945
48.4918
48.4964
48.4936
48.4976
48.4948
48.4986
48.4959
48.4994
48.497
48.5003
48.498
48.5011
48.499
48.502
48.5001
48.5028
48.5011
48.5037
48.5021
48.5046
48.5031
48.5054
48.5041
48.5063
48.505
48.5072
48.506
48.508
48.507
48.5089
48.5079
48.5097
48.5089
48.5106
48.5098
48.5114
48.5107
48.5123
48.5116
48.5131
48.5124
48.5138
48.5132
48.5145
48.5139
48.5152
48.5146
48.5157
48.5151
48.5161
48.5154
48.5162
48.5151
48.5164
48.5009
48.494
142.67
143.304
143.328
143.354
143.336
143.365
143.371
143.411
143.423
143.454
143.465
143.497
143.517
143.552
143.572
143.603
143.62
143.648
143.666
143.694
143.712
143.737
143.751
143.771
143.782
143.799
143.808
143.823
143.83
143.842
143.846
143.853
143.855
143.859
143.859
143.862
143.861
143.864
143.862
143.864
143.863
143.865
143.863
143.865
143.864
143.866
143.864
143.866
143.865
143.866
143.865
143.867
143.866
143.867
143.866
143.867
143.866
143.867
143.866
143.867
143.866
143.867
143.867
143.867
143.867
143.868
143.867
143.868
143.867
143.867
143.867
143.867
143.867
143.867
143.867
143.867
143.866
143.867
143.866
143.866
143.866
143.866
143.865
143.865
143.864
143.864
143.862
143.863
143.834
143.819
30.2382
31.0011
31.2201
31.3836
31.5241
31.6542
31.7676
31.876
31.9675
32.0599
32.1399
32.2253
32.2983
32.3754
32.4388
32.5062
32.5612
32.6209
32.6683
32.7192
32.7571
32.7977
32.8262
32.858
32.8789
32.9033
32.9175
32.935
32.9429
32.9543
32.9573
32.9643
32.9644
32.9689
32.9675
32.9708
32.969
32.9717
32.9699
32.9723
32.9705
32.9728
32.9711
32.9733
32.9717
32.9737
32.9723
32.9742
32.9729
32.9747
32.9734
32.9751
32.9739
32.9755
32.9744
32.9759
32.9749
32.9763
32.9754
32.9767
32.9759
32.9771
32.9763
32.9775
32.9767
32.9779
32.9772
32.9782
32.9776
32.9786
32.978
32.9789
32.9784
32.9793
32.9788
32.9797
32.9792
32.9801
32.9797
32.9806
32.9802
32.9811
32.9808
32.9818
32.9816
32.9829
32.9827
32.9851
32.9811
32.9814
28.1053
29.4274
29.6453
29.8061
29.9368
30.0633
30.1711
30.2767
30.3646
30.4532
30.5295
30.6107
30.6811
30.7548
30.8164
30.8804
30.9337
30.9903
31.0366
31.0851
31.1227
31.1615
31.1899
31.2201
31.2411
31.2642
31.2789
31.2953
31.304
31.3145
31.3183
31.3245
31.3251
31.3286
31.3278
31.3301
31.3287
31.3304
31.3289
31.3304
31.3289
31.3302
31.3288
31.3301
31.3288
31.33
31.3288
31.3299
31.3288
31.3299
31.3288
31.3298
31.3289
31.3298
31.3289
31.3298
31.329
31.3298
31.329
31.3299
31.3291
31.3299
31.3293
31.33
31.3294
31.3301
31.3295
31.3302
31.3297
31.3304
31.3299
31.3305
31.3301
31.3307
31.3303
31.3309
31.3306
31.3312
31.3308
31.3314
31.3311
31.3318
31.3314
31.3321
31.3316
31.3326
31.3318
31.3333
31.3321
31.3334
25.901
27.7337
27.9705
28.1148
28.2309
28.3423
28.442
28.5386
28.622
28.7017
28.7726
28.8449
28.9115
28.9791
29.0389
29.0977
29.149
29.2007
29.2462
29.2916
29.3298
29.3668
29.3963
29.4248
29.4471
29.469
29.4854
29.5014
29.5121
29.5224
29.5281
29.5339
29.536
29.539
29.5392
29.5406
29.54
29.5408
29.54
29.5405
29.5397
29.5401
29.5393
29.5397
29.539
29.5394
29.5386
29.539
29.5383
29.5387
29.5381
29.5384
29.5378
29.5381
29.5376
29.5379
29.5374
29.5377
29.5372
29.5375
29.5371
29.5373
29.5369
29.5372
29.5368
29.5371
29.5368
29.537
29.5367
29.537
29.5367
29.5369
29.5367
29.5369
29.5367
29.537
29.5368
29.537
29.5368
29.5371
29.5369
29.5372
29.5369
29.5373
29.5369
29.5374
29.5366
29.5373
29.5358
29.5169
25.1581
27.2481
27.4849
27.6068
27.7022
27.797
27.8857
27.9749
28.0536
28.1274
28.1925
28.2584
28.3213
28.3856
28.4441
28.5005
28.5505
28.5996
28.6445
28.6892
28.7286
28.766
28.7971
28.826
28.8498
28.8723
28.8906
28.9077
28.9207
28.9323
28.94
28.9466
28.9502
28.9534
28.9545
28.956
28.9559
28.9565
28.9561
28.9564
28.9559
28.9561
28.9556
28.9557
28.9552
28.9554
28.9549
28.955
28.9546
28.9547
28.9543
28.9544
28.954
28.9541
28.9538
28.9539
28.9535
28.9536
28.9533
28.9534
28.9531
28.9532
28.9529
28.953
28.9528
28.9528
28.9526
28.9527
28.9525
28.9526
28.9524
28.9525
28.9523
28.9524
28.9522
28.9523
28.9522
28.9523
28.9521
28.9523
28.9521
28.9522
28.952
28.9522
28.9518
28.9521
28.9514
28.952
28.951
28.9371
24.7024
26.9588
27.1849
27.2814
27.3512
27.4251
27.4981
27.5764
27.6467
27.7126
27.7696
27.8274
27.8838
27.9428
27.9977
28.0502
28.0967
28.1421
28.1843
28.2268
28.2654
28.3022
28.3333
28.3619
28.3858
28.4083
28.4272
28.4451
28.4592
28.4719
28.4808
28.4883
28.4928
28.4965
28.4981
28.4998
28.5
28.5006
28.5004
28.5006
28.5002
28.5004
28.4999
28.5
28.4996
28.4997
28.4993
28.4994
28.499
28.4991
28.4988
28.4989
28.4985
28.4986
28.4983
28.4984
28.4981
28.4981
28.4978
28.4979
28.4976
28.4977
28.4975
28.4975
28.4973
28.4973
28.4971
28.4972
28.497
28.4971
28.4969
28.4969
28.4968
28.4968
28.4967
28.4967
28.4966
28.4967
28.4965
28.4966
28.4964
28.4965
28.4963
28.4964
28.496
28.4963
28.4955
28.4958
28.4949
28.4735
24.6065
26.9073
27.113
27.1827
27.228
27.2804
27.3368
27.4017
27.4617
27.5178
27.5656
27.6146
27.6634
27.7162
27.7657
27.8137
27.8555
27.8967
27.935
27.9746
28.0109
28.046
28.0756
28.1031
28.1259
28.1478
28.1663
28.1842
28.1986
28.2117
28.2211
28.2291
28.2339
28.2381
28.2399
28.2418
28.2421
28.2428
28.2426
28.2429
28.2425
28.2427
28.2423
28.2424
28.242
28.2422
28.2418
28.2419
28.2415
28.2416
28.2413
28.2414
28.241
28.2411
28.2408
28.2409
28.2406
28.2406
28.2404
28.2404
28.2402
28.2402
28.24
28.24
28.2398
28.2399
28.2396
28.2397
28.2395
28.2395
28.2393
28.2394
28.2392
28.2393
28.2391
28.2391
28.239
28.239
28.2388
28.2389
28.2387
28.2388
28.2386
28.2387
28.2384
28.2385
28.238
28.2382
28.2374
28.2184
24.6065
26.8959
27.0836
27.1332
27.1598
27.1953
27.2368
27.2883
27.3365
27.3818
27.4198
27.4595
27.5
27.5452
27.5877
27.6291
27.6648
27.7003
27.7335
27.7684
27.8007
27.8322
27.8587
27.8834
27.904
27.9239
27.9408
27.9575
27.9709
27.9834
27.9923
28
28.0047
28.0087
28.0105
28.0123
28.0126
28.0134
28.0131
28.0135
28.0131
28.0133
28.0128
28.013
28.0126
28.0127
28.0123
28.0124
28.0121
28.0122
28.0118
28.0119
28.0116
28.0117
28.0114
28.0115
28.0112
28.0112
28.011
28.011
28.0108
28.0108
28.0106
28.0106
28.0104
28.0105
28.0103
28.0103
28.0101
28.0102
28.01
28.01
28.0098
28.0099
28.0097
28.0098
28.0096
28.0097
28.0095
28.0096
28.0094
28.0095
28.0093
28.0094
28.0091
28.0092
28.0087
28.0089
28.0082
27.9896
24.7017
26.9158
27.085
27.1218
27.137
27.1613
27.1913
27.2313
27.268
27.3027
27.3314
27.3627
27.3951
27.4321
27.4667
27.5001
27.5289
27.5577
27.5851
27.6142
27.6411
27.6675
27.6896
27.7102
27.7274
27.7443
27.7587
27.773
27.7845
27.7953
27.8029
27.8096
27.8135
27.817
27.8184
27.8199
27.8201
27.8208
27.8205
27.8208
27.8204
27.8205
27.8201
27.8203
27.8198
27.82
27.8196
27.8197
27.8193
27.8194
27.8191
27.8192
27.8189
27.819
27.8187
27.8187
27.8185
27.8185
27.8183
27.8183
27.8181
27.8182
27.8179
27.818
27.8178
27.8179
27.8177
27.8177
27.8175
27.8176
27.8174
27.8175
27.8173
27.8174
27.8173
27.8174
27.8172
27.8173
27.8172
27.8173
27.8171
27.8172
27.817
27.8172
27.8168
27.817
27.8165
27.8165
27.8162
27.7962
25.1376
27.1273
27.2575
27.2807
27.2886
27.3049
27.3261
27.355
27.3805
27.4048
27.4246
27.4479
27.4721
27.5002
27.5258
27.551
27.5722
27.5944
27.6152
27.638
27.6584
27.6788
27.6954
27.7114
27.7244
27.7377
27.7487
27.7601
27.7689
27.7774
27.783
27.7883
27.791
27.7938
27.7946
27.7959
27.7958
27.7964
27.796
27.7963
27.7958
27.796
27.7956
27.7957
27.7953
27.7954
27.795
27.7952
27.7948
27.7949
27.7945
27.7947
27.7943
27.7944
27.7941
27.7942
27.7939
27.7941
27.7938
27.7939
27.7936
27.7937
27.7935
27.7936
27.7934
27.7935
27.7933
27.7934
27.7932
27.7933
27.7932
27.7933
27.7931
27.7933
27.7931
27.7933
27.7931
27.7933
27.7931
27.7933
27.7931
27.7933
27.7931
27.7934
27.7931
27.7933
27.7929
27.793
27.7927
27.7805
25.82
27.4666
27.549
27.5613
27.564
27.5744
27.5876
27.6066
27.6212
27.6368
27.6483
27.6646
27.6798
27.6994
27.715
27.7322
27.745
27.7608
27.7738
27.79
27.8027
27.817
27.8269
27.8382
27.846
27.8557
27.8623
27.8706
27.8756
27.8818
27.8848
27.8887
27.8898
27.892
27.8919
27.8931
27.8925
27.8933
27.8925
27.8931
27.8923
27.8928
27.8921
27.8926
27.8918
27.8923
27.8916
27.8921
27.8915
27.8919
27.8913
27.8917
27.8912
27.8916
27.8911
27.8914
27.891
27.8913
27.8909
27.8913
27.8909
27.8912
27.8909
27.8912
27.8909
27.8912
27.8909
27.8912
27.891
27.8913
27.8911
27.8914
27.8912
27.8915
27.8913
27.8917
27.8915
27.8918
27.8917
27.8921
27.8919
27.8923
27.8921
27.8925
27.8923
27.8927
27.8923
27.8927
27.8928
27.876
27.8806
28.9254
28.9481
28.95
28.947
28.954
28.9585
28.9708
28.9756
28.9861
28.9899
29.0014
29.0076
29.0209
29.027
29.0387
29.0435
29.0546
29.0598
29.071
29.076
29.0859
29.0895
29.0976
29.1002
29.1075
29.1096
29.1159
29.1172
29.1222
29.1224
29.126
29.1253
29.1279
29.1266
29.1286
29.1272
29.1289
29.1275
29.129
29.1277
29.1291
29.1279
29.1292
29.128
29.1293
29.1282
29.1294
29.1284
29.1296
29.1287
29.1297
29.1289
29.1299
29.1291
29.1301
29.1294
29.1304
29.1297
29.1306
29.13
29.1309
29.1303
29.1311
29.1307
29.1315
29.131
29.1318
29.1314
29.1321
29.1318
29.1325
29.1322
29.1329
29.1327
29.1334
29.1331
29.1338
29.1336
29.1343
29.1342
29.1349
29.1347
29.1355
29.1353
29.1363
29.1359
29.1373
29.1374
29.1397
29.8422
30.2806
30.2872
30.2799
30.276
30.2765
30.276
30.2813
30.2805
30.2863
30.285
30.2921
30.292
30.3003
30.3002
30.3079
30.3074
30.315
30.315
30.3227
30.3226
30.3297
30.3292
30.3354
30.3347
30.3404
30.3396
30.3448
30.3438
30.3483
30.3469
30.3507
30.349
30.3523
30.3504
30.3534
30.3516
30.3543
30.3525
30.3551
30.3535
30.3559
30.3544
30.3566
30.3553
30.3574
30.3562
30.3582
30.357
30.3589
30.3579
30.3597
30.3587
30.3604
30.3595
30.3611
30.3603
30.3619
30.3611
30.3626
30.3619
30.3633
30.3626
30.364
30.3634
30.3646
30.3641
30.3653
30.3649
30.366
30.3656
30.3667
30.3663
30.3674
30.3671
30.3681
30.3679
30.3689
30.3687
30.3697
30.3696
30.3706
30.3706
30.3717
30.3718
30.3732
30.3734
30.3757
30.3724
30.3732
3.62788
3.82615
3.84656
3.85613
3.87324
3.88909
3.90455
3.92173
3.93384
3.95098
3.96057
3.97749
3.98497
4.00092
4.00643
4.0211
4.02512
4.03859
4.0413
4.05329
4.05465
4.06506
4.06529
4.07431
4.07367
4.08146
4.08005
4.0867
4.08465
4.09029
4.08781
4.0927
4.09004
4.0944
4.09173
4.09572
4.09314
4.09684
4.0944
4.09786
4.09557
4.09881
4.09667
4.09971
4.09771
4.10057
4.09871
4.1014
4.09968
4.10222