/*--------------------------------*- C++ -*----------------------------------*\
  =========                 |
  \\      /  F ield         | OpenFOAM: The Open Source CFD Toolbox
   \\    /   O peration     | Website:  https://openfoam.org
    \\  /    A nd           | Version:  7
     \\/     M anipulation  |
\*---------------------------------------------------------------------------*/
FoamFile
{
    version     2.0;
    format      ascii;
    class       volScalarField;
    location    "2.8475";
    object      nut;
}
// * * * * * * * * * * * * * * * * * * * * * * * * * * * * * * * * * * * * * //

dimensions      [0 2 -1 0 0 0 0];

internalField   nonuniform List<scalar> 
4950
(
0.00876984
0.00934311
0.00936323
0.0093714
0.00936638
0.00936916
0.00936389
0.00936512
0.00936053
0.00936148
0.0093578
0.00935872
0.0093558
0.00935663
0.00935443
0.00935491
0.00935416
0.00935275
0.00935837
0.00938174
0.00461215
0.00491411
0.00488122
0.00479062
0.00472237
0.00468834
0.00466412
0.00465337
0.0046419
0.00463707
0.00462978
0.00462692
0.00462166
0.00461976
0.00461605
0.00461448
0.00461492
0.00460914
0.00465467
0.00466705
0.0036662
0.00406236
0.00414967
0.00417151
0.00417468
0.00418051
0.00418156
0.00418521
0.00418581
0.0041884
0.00418856
0.00419027
0.00419016
0.00419135
0.00419103
0.00419197
0.00419157
0.004192
0.00419353
0.00420164
0.0035849
0.00397938
0.00408205
0.0041228
0.00414119
0.00415785
0.00416692
0.00417802
0.00418386
0.00419218
0.00419624
0.00420277
0.00420569
0.00421092
0.00421306
0.00421716
0.004219
0.00422158
0.00422358
0.00423125
0.00357295
0.00397109
0.00407441
0.0041169
0.00413618
0.00415417
0.00416413
0.00417664
0.00418352
0.00419335
0.00419858
0.00420662
0.00421073
0.00421736
0.00422064
0.00422601
0.00422884
0.0042328
0.00423519
0.00424377
0.0035849
0.00397939
0.00408205
0.0041228
0.00414119
0.00415785
0.00416692
0.00417803
0.00418386
0.00419219
0.00419623
0.00420278
0.00420567
0.00421094
0.00421303
0.00421721
0.00421896
0.00422163
0.00422359
0.00423131
0.0036662
0.00406237
0.00414967
0.00417151
0.00417468
0.00418052
0.00418156
0.00418522
0.00418581
0.00418841
0.00418856
0.00419028
0.00419013
0.00419138
0.00419097
0.00419206
0.00419146
0.00419214
0.00419342
0.00420188
0.00461215
0.00491411
0.00488122
0.00479062
0.00472237
0.00468834
0.00466411
0.00465337
0.00464189
0.00463708
0.00462976
0.00462694
0.00462161
0.00461979
0.00461594
0.00461458
0.00461463
0.00460959
0.00465343
0.00466777
0.00876984
0.00934311
0.00936323
0.0093714
0.00936638
0.00936916
0.00936389
0.00936512
0.00936052
0.00936149
0.00935778
0.00935874
0.00935576
0.00935671
0.00935431
0.00935514
0.00935376
0.0093535
0.00935702
0.0093846
0.00344749
0.00414557
0.00423524
0.00422024
0.00420877
0.0041894
0.00418502
0.00417355
0.00417178
0.00416416
0.00416329
0.00415772
0.0041573
0.00415293
0.00415293
0.00414898
0.00414989
0.00414481
0.0041446
0.00416118
0.0029726
0.0037656
0.00392084
0.0039529
0.00396064
0.00396416
0.00396623
0.00396819
0.00396929
0.00397045
0.00397101
0.00397169
0.00397193
0.00397238
0.00397243
0.0039728
0.0039726
0.0039727
0.00397426
0.00397902
0.00289878
0.00368525
0.00384465
0.00388244
0.00389018
0.00389429
0.00389535
0.00389778
0.00389886
0.00390113
0.00390222
0.00390419
0.00390525
0.00390682
0.00390787
0.00390898
0.00391005
0.00391066
0.0039109
0.00391942
0.00290189
0.00368699
0.00384471
0.00388215
0.00388977
0.00389307
0.00389321
0.00389407
0.0038941
0.00389476
0.0038949
0.00389557
0.00389576
0.00389638
0.00389662
0.00389715
0.00389748
0.00389783
0.00389837
0.00390479
0.00289518
0.00367936
0.00383811
0.00387638
0.00388402
0.00388751
0.00388746
0.0038882
0.00388799
0.00388852
0.00388836
0.0038888
0.00388871
0.00388907
0.00388902
0.00388932
0.00388924
0.00388945
0.00388928
0.00389491
0.00290189
0.00368699
0.00384471
0.00388215
0.00388977
0.00389307
0.00389321
0.00389407
0.0038941
0.00389476
0.0038949
0.00389557
0.00389576
0.00389639
0.0038966
0.00389718
0.00389742
0.00389787
0.00389834
0.00390477
0.00289878
0.00368525
0.00384465
0.00388244
0.00389018
0.00389429
0.00389535
0.00389778
0.00389885
0.00390114
0.0039022
0.00390422
0.0039052
0.00390689
0.00390776
0.00390914
0.00390982
0.00391089
0.00391072
0.0039195
0.0029726
0.0037656
0.00392084
0.0039529
0.00396064
0.00396416
0.00396623
0.00396819
0.00396929
0.00397046
0.00397099
0.00397171
0.00397191
0.00397242
0.00397237
0.0039729
0.00397238
0.00397301
0.00397378
0.00397974
0.00344749
0.00414557
0.00423524
0.00422024
0.00420877
0.0041894
0.00418502
0.00417356
0.00417178
0.00416416
0.00416329
0.00415773
0.00415729
0.00415296
0.00415291
0.00414906
0.00414981
0.00414511
0.00414417
0.00416224
0.000824473
0.00150666
0.00169171
0.00172053
0.00170676
0.00167623
0.00164557
0.00162013
0.00159997
0.0015832
0.00157088
0.00155953
0.0015519
0.0015436
0.00153868
0.00153238
0.00152851
0.00152506
0.00151777
0.0015289
0.000386218
0.000922319
0.00116868
0.00127036
0.00131105
0.00133125
0.00134119
0.00134986
0.00135596
0.00136231
0.00136687
0.00137147
0.00137458
0.00137777
0.00137986
0.00138191
0.00138372
0.00138444
0.00138596
0.00139013
0.000357085
0.000848358
0.00107032
0.00117306
0.00121145
0.00123293
0.00123911
0.00124579
0.00124754
0.00125142
0.00125303
0.00125649
0.00125836
0.00126162
0.00126378
0.00126668
0.00126888
0.00127161
0.00127299
0.00127823
0.000362177
0.00085933
0.00108056
0.0011797
0.00121739
0.00123677
0.00124265
0.00124715
0.00124781
0.00124915
0.00124929
0.0012498
0.00124997
0.00125038
0.0012508
0.00125111
0.00125181
0.00125211
0.00125287
0.00125639
0.00035642
0.000846936
0.00106571
0.00116711
0.00120437
0.00122518
0.00123044
0.0012356
0.00123594
0.00123716
0.00123693
0.00123732
0.00123708
0.00123728
0.00123713
0.00123725
0.00123713
0.00123723
0.00123684
0.00123958
0.000362177
0.00085933
0.00108056
0.0011797
0.00121739
0.00123677
0.00124265
0.00124715
0.00124781
0.00124915
0.00124929
0.0012498
0.00124997
0.00125038
0.00125079
0.00125111
0.0012518
0.0012521
0.00125286
0.00125637
0.000357085
0.000848359
0.00107032
0.00117306
0.00121145
0.00123293
0.00123911
0.0012458
0.00124754
0.00125142
0.00125303
0.0012565
0.00125833
0.00126164
0.00126374
0.00126671
0.00126882
0.0012716
0.00127296
0.00127815
0.000386218
0.000922319
0.00116868
0.00127036
0.00131105
0.00133125
0.00134119
0.00134986
0.00135595
0.00136232
0.00136685
0.00137149
0.00137455
0.0013778
0.0013798
0.00138196
0.00138362
0.00138444
0.00138589
0.00139006
0.000824473
0.00150666
0.00169171
0.00172053
0.00170676
0.00167623
0.00164557
0.00162013
0.00159997
0.00158321
0.00157088
0.00155955
0.00155189
0.00154364
0.00153867
0.0015325
0.0015285
0.00152528
0.00151781
0.0015295
0.00344749
0.00414557
0.00423524
0.00422024
0.00420877
0.0041894
0.00418502
0.00417355
0.00417178
0.00416416
0.00416329
0.00415772
0.0041573
0.00415293
0.00415293
0.00414898
0.00414989
0.00414481
0.0041446
0.00416118
0.0029726
0.0037656
0.00392084
0.0039529
0.00396064
0.00396416
0.00396623
0.00396819
0.00396929
0.00397045
0.00397101
0.00397169
0.00397193
0.00397238
0.00397243
0.0039728
0.0039726
0.0039727
0.00397426
0.00397902
0.00289878
0.00368525
0.00384465
0.00388244
0.00389018
0.00389429
0.00389535
0.00389778
0.00389886
0.00390113
0.00390222
0.00390419
0.00390525
0.00390682
0.00390787
0.00390898
0.00391005
0.00391066
0.0039109
0.00391942
0.00290189
0.00368699
0.00384471
0.00388215
0.00388977
0.00389307
0.00389321
0.00389407
0.0038941
0.00389476
0.0038949
0.00389557
0.00389576
0.00389638
0.00389662
0.00389715
0.00389748
0.00389783
0.00389837
0.00390479
0.00289518
0.00367936
0.00383811
0.00387638
0.00388402
0.00388751
0.00388746
0.0038882
0.00388799
0.00388852
0.00388836
0.0038888
0.00388871
0.00388907
0.00388902
0.00388932
0.00388924
0.00388945
0.00388928
0.00389491
0.00290189
0.00368699
0.00384471
0.00388215
0.00388977
0.00389307
0.00389321
0.00389407
0.0038941
0.00389476
0.0038949
0.00389557
0.00389576
0.00389639
0.0038966
0.00389718
0.00389742
0.00389787
0.00389834
0.00390477
0.00289878
0.00368525
0.00384465
0.00388244
0.00389018
0.00389429
0.00389535
0.00389778
0.00389885
0.00390114
0.0039022
0.00390422
0.0039052
0.00390689
0.00390776
0.00390914
0.00390982
0.00391089
0.00391072
0.0039195
0.0029726
0.0037656
0.00392084
0.0039529
0.00396064
0.00396416
0.00396623
0.00396819
0.00396929
0.00397046
0.00397099
0.00397171
0.00397191
0.00397242
0.00397237
0.0039729
0.00397238
0.00397301
0.00397378
0.00397974
0.00344749
0.00414557
0.00423524
0.00422024
0.00420877
0.0041894
0.00418502
0.00417356
0.00417178
0.00416416
0.00416329
0.00415773
0.00415729
0.00415296
0.00415291
0.00414906
0.00414981
0.00414511
0.00414417
0.00416224
0.00876984
0.00934311
0.00936323
0.0093714
0.00936638
0.00936916
0.00936389
0.00936512
0.00936053
0.00936148
0.0093578
0.00935872
0.0093558
0.00935663
0.00935443
0.00935491
0.00935416
0.00935275
0.00935837
0.00938174
0.00461215
0.00491411
0.00488122
0.00479062
0.00472237
0.00468834
0.00466412
0.00465337
0.0046419
0.00463707
0.00462978
0.00462692
0.00462166
0.00461976
0.00461605
0.00461448
0.00461492
0.00460914
0.00465467
0.00466705
0.0036662
0.00406236
0.00414967
0.00417151
0.00417468
0.00418051
0.00418156
0.00418521
0.00418581
0.0041884
0.00418856
0.00419027
0.00419016
0.00419135
0.00419103
0.00419197
0.00419157
0.004192
0.00419353
0.00420164
0.0035849
0.00397938
0.00408205
0.0041228
0.00414119
0.00415785
0.00416692
0.00417802
0.00418386
0.00419218
0.00419624
0.00420277
0.00420569
0.00421092
0.00421306
0.00421716
0.004219
0.00422158
0.00422358
0.00423125
0.00357295
0.00397109
0.00407441
0.0041169
0.00413618
0.00415417
0.00416413
0.00417664
0.00418352
0.00419335
0.00419858
0.00420662
0.00421073
0.00421736
0.00422064
0.00422601
0.00422884
0.0042328
0.00423519
0.00424377
0.0035849
0.00397939
0.00408205
0.0041228
0.00414119
0.00415785
0.00416692
0.00417803
0.00418386
0.00419219
0.00419623
0.00420278
0.00420567
0.00421094
0.00421303
0.00421721
0.00421896
0.00422163
0.00422359
0.00423131
0.0036662
0.00406237
0.00414967
0.00417151
0.00417468
0.00418052
0.00418156
0.00418522
0.00418581
0.00418841
0.00418856
0.00419028
0.00419013
0.00419138
0.00419097
0.00419206
0.00419146
0.00419214
0.00419342
0.00420188
0.00461215
0.00491411
0.00488122
0.00479062
0.00472237
0.00468834
0.00466411
0.00465337
0.00464189
0.00463708
0.00462976
0.00462694
0.00462161
0.00461979
0.00461594
0.00461458
0.00461463
0.00460959
0.00465343
0.00466777
0.00876984
0.00934311
0.00936323
0.0093714
0.00936638
0.00936916
0.00936389
0.00936512
0.00936052
0.00936149
0.00935778
0.00935874
0.00935576
0.00935671
0.00935431
0.00935514
0.00935376
0.0093535
0.00935702
0.0093846
0.0274923
0.0277248
0.0278094
0.0278801
0.0279312
0.0279838
0.0280248
0.0280684
0.0281038
0.0281416
0.0281731
0.0282068
0.0282354
0.028266
0.0282924
0.0283204
0.0283448
0.0283705
0.0283931
0.0284169
0.0284379
0.0284598
0.0284792
0.0284994
0.0285172
0.0285357
0.0285519
0.0285687
0.0285832
0.0285981
0.0286108
0.0286237
0.0286346
0.0286454
0.0286542
0.028663
0.0286698
0.0286766
0.0286816
0.0286866
0.0286899
0.0286934
0.0286954
0.0286976
0.0286987
0.0287001
0.0287006
0.0287014
0.0287015
0.028702
0.0287019
0.0287023
0.0287021
0.0287024
0.0287022
0.0287025
0.0287023
0.0287026
0.0287024
0.0287026
0.0287025
0.0287027
0.0287025
0.0287027
0.0287026
0.0287028
0.0287027
0.0287029
0.0287028
0.0287029
0.0287028
0.028703
0.0287029
0.028703
0.0287029
0.028703
0.028703
0.0287031
0.028703
0.0287031
0.028703
0.028703
0.0287029
0.0287029
0.0287028
0.0287028
0.0287025
0.0287026
0.0286979
0.0286947
0.0160349
0.0165358
0.0165914
0.016637
0.0166611
0.0166954
0.0167148
0.0167437
0.0167606
0.0167857
0.0168008
0.0168233
0.0168372
0.0168577
0.0168706
0.0168893
0.0169013
0.0169185
0.0169297
0.0169457
0.0169561
0.0169708
0.0169804
0.016994
0.0170029
0.0170153
0.0170234
0.0170346
0.0170418
0.0170518
0.0170581
0.0170668
0.017072
0.0170794
0.0170835
0.0170896
0.0170926
0.0170975
0.0170994
0.0171032
0.0171043
0.0171071
0.0171076
0.0171096
0.0171096
0.0171111
0.0171109
0.017112
0.0171116
0.0171126
0.0171121
0.017113
0.0171125
0.0171133
0.0171129
0.0171136
0.0171132
0.0171139
0.0171135
0.0171141
0.0171138
0.0171144
0.0171141
0.0171147
0.0171145
0.017115
0.0171148
0.0171153
0.0171151
0.0171155
0.0171154
0.0171158
0.0171156
0.017116
0.0171159
0.0171163
0.0171161
0.0171165
0.0171164
0.0171167
0.0171166
0.0171168
0.0171167
0.0171169
0.0171168
0.017117
0.0171168
0.0171172
0.0171141
0.0171132
0.0134622
0.0141782
0.0142386
0.0142782
0.014291
0.0143207
0.0143315
0.0143573
0.014367
0.0143899
0.0143989
0.0144196
0.0144279
0.0144469
0.0144548
0.0144723
0.0144798
0.0144959
0.0145029
0.0145179
0.0145245
0.0145385
0.0145446
0.0145575
0.0145631
0.014575
0.0145802
0.0145911
0.0145957
0.0146055
0.0146095
0.0146182
0.0146215
0.0146291
0.0146317
0.0146381
0.01464
0.0146452
0.0146464
0.0146507
0.0146513
0.0146546
0.0146547
0.0146573
0.0146571
0.0146592
0.0146587
0.0146604
0.0146598
0.0146613
0.0146607
0.0146621
0.0146615
0.0146627
0.0146622
0.0146634
0.0146629
0.014664
0.0146635
0.0146646
0.0146642
0.0146652
0.0146649
0.0146658
0.0146655
0.0146665
0.0146662
0.0146671
0.0146668
0.0146677
0.0146675
0.0146682
0.0146681
0.0146688
0.0146687
0.0146694
0.0146693
0.0146699
0.0146698
0.0146704
0.0146703
0.0146708
0.0146708
0.0146712
0.0146712
0.0146716
0.0146715
0.0146718
0.014672
0.0146664
0.013151
0.0140158
0.0140955
0.0141336
0.0141407
0.0141662
0.0141729
0.0141958
0.0142025
0.0142235
0.01423
0.0142493
0.0142555
0.0142734
0.0142794
0.0142961
0.0143019
0.0143174
0.0143229
0.0143372
0.0143425
0.0143559
0.0143608
0.0143733
0.0143779
0.0143894
0.0143936
0.0144042
0.0144081
0.0144177
0.0144211
0.0144298
0.0144326
0.0144403
0.0144426
0.0144492
0.0144509
0.0144564
0.0144575
0.0144621
0.0144627
0.0144664
0.0144665
0.0144695
0.0144693
0.0144717
0.0144712
0.0144733
0.0144727
0.0144745
0.0144738
0.0144755
0.0144748
0.0144763
0.0144758
0.0144772
0.0144767
0.014478
0.0144776
0.0144789
0.0144785
0.0144797
0.0144794
0.0144805
0.0144803
0.0144814
0.0144811
0.0144822
0.014482
0.014483
0.0144829
0.0144838
0.0144837
0.0144846
0.0144845
0.0144853
0.0144853
0.0144861
0.0144861
0.0144868
0.0144868
0.0144874
0.0144875
0.0144881
0.0144881
0.0144886
0.0144887
0.014489
0.0144895
0.014484
0.0131469
0.0140247
0.0141036
0.0141379
0.0141398
0.0141603
0.0141634
0.0141827
0.0141866
0.014205
0.0142093
0.0142264
0.0142307
0.0142468
0.0142513
0.0142664
0.0142707
0.0142848
0.014289
0.0143021
0.0143062
0.0143185
0.0143223
0.0143337
0.0143373
0.0143479
0.0143513
0.0143611
0.0143642
0.0143731
0.0143758
0.014384
0.0143863
0.0143935
0.0143954
0.0144018
0.0144032
0.0144086
0.0144095
0.014414
0.0144145
0.0144182
0.0144183
0.0144213
0.0144211
0.0144236
0.0144232
0.0144253
0.0144247
0.0144266
0.014426
0.0144277
0.014427
0.0144286
0.0144281
0.0144296
0.0144291
0.0144305
0.0144301
0.0144314
0.014431
0.0144323
0.014432
0.0144332
0.014433
0.0144341
0.0144339
0.014435
0.0144349
0.0144359
0.0144358
0.0144368
0.0144367
0.0144377
0.0144376
0.0144385
0.0144385
0.0144393
0.0144393
0.0144401
0.0144401
0.0144408
0.0144408
0.0144415
0.0144415
0.0144421
0.0144422
0.0144425
0.014444
0.0144375
0.0131509
0.0140069
0.0140751
0.0141015
0.0140991
0.0141147
0.0141146
0.0141298
0.0141313
0.0141463
0.0141485
0.0141627
0.0141652
0.0141787
0.0141815
0.0141942
0.0141971
0.014209
0.0142118
0.014223
0.0142257
0.0142362
0.0142388
0.0142486
0.0142511
0.0142601
0.0142625
0.0142709
0.0142731
0.0142808
0.0142827
0.0142897
0.0142913
0.0142976
0.014299
0.0143045
0.0143055
0.0143102
0.0143108
0.0143149
0.0143151
0.0143185
0.0143184
0.0143212
0.0143209
0.0143232
0.0143227
0.0143247
0.0143241
0.0143259
0.0143252
0.0143269
0.0143262
0.0143278
0.0143272
0.0143286
0.0143281
0.0143295
0.014329
0.0143303
0.0143299
0.0143312
0.0143308
0.014332
0.0143317
0.0143328
0.0143326
0.0143337
0.0143335
0.0143345
0.0143344
0.0143353
0.0143352
0.0143361
0.014336
0.0143369
0.0143368
0.0143376
0.0143376
0.0143383
0.0143383
0.014339
0.014339
0.0143396
0.0143397
0.0143402
0.0143403
0.0143406
0.0143413
0.0143359
0.013454
0.0141426
0.0141766
0.0141928
0.0141871
0.0141986
0.0141959
0.0142075
0.0142066
0.014218
0.0142181
0.0142288
0.0142295
0.0142397
0.0142408
0.0142504
0.0142516
0.0142606
0.0142619
0.0142704
0.0142717
0.0142796
0.0142809
0.0142883
0.0142895
0.0142964
0.0142976
0.014304
0.0143051
0.0143109
0.0143119
0.0143172
0.014318
0.0143228
0.0143234
0.0143277
0.014328
0.0143317
0.0143319
0.014335
0.0143349
0.0143376
0.0143373
0.0143396
0.0143391
0.014341
0.0143404
0.0143421
0.0143415
0.014343
0.0143423
0.0143437
0.0143431
0.0143444
0.0143438
0.014345
0.0143445
0.0143457
0.0143452
0.0143463
0.0143459
0.0143469
0.0143466
0.0143476
0.0143473
0.0143482
0.014348
0.0143488
0.0143486
0.0143494
0.0143493
0.01435
0.0143499
0.0143506
0.0143505
0.0143512
0.0143511
0.0143517
0.0143517
0.0143523
0.0143522
0.0143527
0.0143527
0.0143532
0.0143531
0.0143535
0.0143535
0.0143537
0.0143543
0.0143488
0.0159917
0.0164309
0.0164409
0.0164498
0.0164445
0.016452
0.0164491
0.0164567
0.0164553
0.0164626
0.0164621
0.0164689
0.0164688
0.0164753
0.0164756
0.0164816
0.016482
0.0164876
0.0164881
0.0164934
0.0164939
0.0164988
0.0164994
0.0165039
0.0165045
0.0165087
0.0165093
0.0165132
0.0165137
0.0165173
0.0165178
0.016521
0.0165214
0.0165243
0.0165246
0.0165272
0.0165273
0.0165296
0.0165295
0.0165315
0.0165313
0.0165329
0.0165326
0.016534
0.0165336
0.0165348
0.0165343
0.0165354
0.0165349
0.0165358
0.0165353
0.0165362
0.0165357
0.0165365
0.0165361
0.0165368
0.0165364
0.0165371
0.0165367
0.0165374
0.0165371
0.0165377
0.0165374
0.016538
0.0165377
0.0165383
0.0165381
0.0165386
0.0165384
0.0165389
0.0165387
0.0165391
0.016539
0.0165394
0.0165393
0.0165397
0.0165395
0.0165399
0.0165398
0.0165401
0.01654
0.0165403
0.0165402
0.0165404
0.0165403
0.0165405
0.0165403
0.0165407
0.0165379
0.0165372
0.0273721
0.0274875
0.0274911
0.027497
0.0274951
0.0275006
0.0275005
0.0275062
0.0275073
0.0275128
0.0275144
0.0275196
0.0275215
0.0275264
0.0275284
0.0275329
0.0275349
0.0275392
0.0275411
0.027545
0.0275469
0.0275505
0.0275523
0.0275556
0.0275573
0.0275604
0.027562
0.0275648
0.0275663
0.0275689
0.0275702
0.0275725
0.0275737
0.0275758
0.0275767
0.0275786
0.0275793
0.0275809
0.0275814
0.0275827
0.0275831
0.0275841
0.0275843
0.0275851
0.0275851
0.0275857
0.0275856
0.0275861
0.0275859
0.0275863
0.0275861
0.0275865
0.0275863
0.0275865
0.0275864
0.0275866
0.0275864
0.0275867
0.0275865
0.0275868
0.0275866
0.0275868
0.0275867
0.0275869
0.0275868
0.027587
0.0275869
0.027587
0.0275869
0.0275871
0.027587
0.0275871
0.0275871
0.0275872
0.0275871
0.0275872
0.0275871
0.0275873
0.0275872
0.0275873
0.0275872
0.0275872
0.0275872
0.0275872
0.0275871
0.0275871
0.0275869
0.027587
0.0275827
0.0275797
0.0134477
0.0136918
0.0137387
0.0137716
0.0137982
0.0138235
0.0138441
0.0138658
0.013883
0.0139022
0.013917
0.0139346
0.0139478
0.0139639
0.0139758
0.0139908
0.0140016
0.0140155
0.0140255
0.0140383
0.0140475
0.0140595
0.0140679
0.0140789
0.0140866
0.0140967
0.0141037
0.0141128
0.0141189
0.0141271
0.0141323
0.0141394
0.0141437
0.0141497
0.0141531
0.0141579
0.0141604
0.0141642
0.0141658
0.0141687
0.0141696
0.0141718
0.0141721
0.0141737
0.0141736
0.0141748
0.0141745
0.0141754
0.014175
0.0141757
0.0141753
0.014176
0.0141756
0.0141762
0.0141758
0.0141764
0.014176
0.0141765
0.0141762
0.0141767
0.0141764
0.0141769
0.0141766
0.0141771
0.0141768
0.0141772
0.014177
0.0141774
0.0141772
0.0141776
0.0141775
0.0141778
0.0141777
0.014178
0.0141779
0.0141782
0.0141781
0.0141784
0.0141783
0.0141787
0.0141786
0.0141789
0.0141789
0.0141793
0.0141792
0.0141797
0.0141796
0.0141805
0.0141791
0.0141799
0.0128317
0.0133233
0.0133824
0.013416
0.0134415
0.0134665
0.0134868
0.013508
0.0135252
0.0135438
0.0135588
0.0135755
0.0135891
0.0136044
0.0136168
0.0136309
0.0136422
0.0136552
0.0136656
0.0136776
0.0136873
0.0136984
0.0137073
0.0137175
0.0137256
0.013735
0.0137423
0.0137508
0.0137573
0.0137648
0.0137705
0.013777
0.0137818
0.0137873
0.013791
0.0137955
0.0137983
0.0138018
0.0138038
0.0138064
0.0138077
0.0138095
0.0138102
0.0138115
0.0138118
0.0138127
0.0138128
0.0138134
0.0138133
0.0138138
0.0138137
0.013814
0.0138139
0.0138143
0.0138141
0.0138145
0.0138143
0.0138146
0.0138145
0.0138148
0.0138147
0.013815
0.0138149
0.0138152
0.0138151
0.0138154
0.0138153
0.0138156
0.0138155
0.0138158
0.0138157
0.013816
0.0138159
0.0138162
0.0138161
0.0138164
0.0138163
0.0138166
0.0138166
0.0138168
0.0138168
0.013817
0.013817
0.0138172
0.0138172
0.0138175
0.0138174
0.0138176
0.013818
0.0138179
0.012223
0.0129198
0.0130006
0.0130328
0.0130554
0.0130773
0.0130958
0.0131145
0.0131307
0.0131474
0.0131618
0.0131768
0.01319
0.0132037
0.0132158
0.0132285
0.0132396
0.0132513
0.0132616
0.0132725
0.013282
0.013292
0.0133008
0.0133101
0.0133182
0.0133267
0.013334
0.0133417
0.0133484
0.0133552
0.0133611
0.0133671
0.013372
0.0133771
0.0133812
0.0133854
0.0133886
0.0133918
0.0133942
0.0133966
0.0133983
0.0134
0.0134011
0.0134022
0.0134028
0.0134035
0.0134038
0.0134043
0.0134044
0.0134047
0.0134047
0.013405
0.0134049
0.0134051
0.0134051
0.0134053
0.0134053
0.0134054
0.0134054
0.0134056
0.0134055
0.0134057
0.0134057
0.0134058
0.0134058
0.013406
0.013406
0.0134061
0.0134061
0.0134063
0.0134063
0.0134064
0.0134064
0.0134066
0.0134066
0.0134067
0.0134067
0.0134069
0.0134069
0.013407
0.013407
0.0134071
0.0134071
0.0134073
0.0134073
0.0134074
0.0134074
0.0134075
0.0134078
0.0134033
0.012052
0.0128077
0.0128923
0.0129182
0.0129353
0.0129528
0.0129679
0.0129837
0.0129978
0.0130124
0.0130253
0.0130386
0.0130505
0.0130629
0.013074
0.0130855
0.0130958
0.0131064
0.0131159
0.0131258
0.0131346
0.0131438
0.013152
0.0131605
0.013168
0.0131758
0.0131827
0.0131898
0.0131961
0.0132025
0.0132081
0.0132137
0.0132185
0.0132234
0.0132274
0.0132314
0.0132347
0.0132379
0.0132404
0.0132428
0.0132445
0.0132463
0.0132475
0.0132486
0.0132494
0.0132501
0.0132505
0.0132509
0.0132511
0.0132514
0.0132514
0.0132516
0.0132516
0.0132517
0.0132517
0.0132519
0.0132519
0.013252
0.013252
0.0132521
0.0132521
0.0132522
0.0132522
0.0132523
0.0132523
0.0132524
0.0132524
0.0132525
0.0132525
0.0132526
0.0132526
0.0132527
0.0132527
0.0132528
0.0132528
0.0132529
0.0132529
0.013253
0.013253
0.0132531
0.0132531
0.0132532
0.0132532
0.0132533
0.0132532
0.0132533
0.0132533
0.0132534
0.0132532
0.0132498
0.0119423
0.0127405
0.012825
0.0128446
0.0128558
0.0128682
0.0128792
0.0128915
0.0129026
0.0129145
0.0129251
0.0129363
0.0129462
0.0129567
0.0129661
0.012976
0.0129847
0.0129939
0.013002
0.0130106
0.0130182
0.0130261
0.0130331
0.0130405
0.013047
0.0130538
0.0130598
0.013066
0.0130714
0.0130771
0.0130819
0.013087
0.0130912
0.0130956
0.0130992
0.0131028
0.0131058
0.0131087
0.013111
0.0131133
0.0131149
0.0131166
0.0131177
0.0131189
0.0131196
0.0131203
0.0131207
0.0131211
0.0131213
0.0131216
0.0131216
0.0131218
0.0131218
0.0131219
0.0131219
0.013122
0.013122
0.0131221
0.0131221
0.0131222
0.0131222
0.0131223
0.0131223
0.0131224
0.0131224
0.0131225
0.0131225
0.0131226
0.0131226
0.0131227
0.0131227
0.0131227
0.0131228
0.0131228
0.0131228
0.0131229
0.0131229
0.013123
0.013123
0.0131231
0.0131231
0.0131232
0.0131232
0.0131233
0.0131232
0.0131233
0.0131233
0.0131233
0.0131236
0.0131187
0.0120515
0.0127978
0.0128704
0.0128849
0.0128918
0.0129002
0.0129077
0.0129167
0.0129248
0.012934
0.012942
0.0129508
0.0129585
0.0129668
0.0129742
0.0129821
0.012989
0.0129964
0.0130029
0.0130098
0.0130158
0.0130223
0.0130279
0.0130338
0.013039
0.0130445
0.0130493
0.0130544
0.0130587
0.0130633
0.0130673
0.0130714
0.0130748
0.0130784
0.0130814
0.0130844
0.0130868
0.0130893
0.0130912
0.0130931
0.0130945
0.0130959
0.0130969
0.0130979
0.0130984
0.0130991
0.0130994
0.0130998
0.0131
0.0131002
0.0131003
0.0131005
0.0131005
0.0131006
0.0131006
0.0131007
0.0131007
0.0131008
0.0131008
0.0131009
0.0131009
0.013101
0.0131011
0.0131012
0.0131012
0.0131013
0.0131013
0.0131014
0.0131014
0.0131015
0.0131015
0.0131016
0.0131016
0.0131017
0.0131017
0.0131018
0.0131018
0.0131019
0.0131019
0.013102
0.013102
0.0131021
0.0131021
0.0131022
0.0131022
0.0131023
0.0131022
0.0131023
0.0131022
0.013099
0.0122163
0.0128874
0.0129431
0.0129529
0.0129568
0.0129624
0.0129669
0.0129731
0.0129783
0.0129848
0.01299
0.0129963
0.0130014
0.0130074
0.0130124
0.0130181
0.0130228
0.0130282
0.0130325
0.0130376
0.0130416
0.0130463
0.0130501
0.0130545
0.0130579
0.013062
0.0130652
0.013069
0.0130719
0.0130753
0.0130779
0.013081
0.0130833
0.0130859
0.0130879
0.0130902
0.0130918
0.0130937
0.0130949
0.0130964
0.0130973
0.0130985
0.0130991
0.0130999
0.0131003
0.0131008
0.013101
0.0131014
0.0131015
0.0131018
0.0131018
0.013102
0.013102
0.0131022
0.0131022
0.0131023
0.0131023
0.0131025
0.0131025
0.0131026
0.0131026
0.0131028
0.0131028
0.0131029
0.0131029
0.0131031
0.0131031
0.0131032
0.0131032
0.0131034
0.0131034
0.0131035
0.0131036
0.0131037
0.0131037
0.0131038
0.0131039
0.013104
0.013104
0.0131042
0.0131042
0.0131043
0.0131043
0.0131045
0.0131045
0.0131046
0.0131046
0.0131047
0.0131052
0.013101
0.012802
0.0132455
0.013268
0.0132721
0.0132734
0.0132772
0.0132792
0.0132837
0.013286
0.0132907
0.0132929
0.0132975
0.0132997
0.0133041
0.0133063
0.0133105
0.0133125
0.0133164
0.0133182
0.0133219
0.0133236
0.0133271
0.0133287
0.0133319
0.0133333
0.0133363
0.0133376
0.0133404
0.0133416
0.0133441
0.0133451
0.0133474
0.0133483
0.0133503
0.0133511
0.0133528
0.0133534
0.0133549
0.0133553
0.0133565
0.0133568
0.0133578
0.0133579
0.0133587
0.0133587
0.0133593
0.0133592
0.0133597
0.0133596
0.01336
0.0133599
0.0133603
0.0133601
0.0133605
0.0133603
0.0133607
0.0133605
0.0133609
0.0133608
0.0133611
0.013361
0.0133613
0.0133612
0.0133615
0.0133614
0.0133617
0.0133616
0.0133619
0.0133618
0.0133621
0.013362
0.0133623
0.0133623
0.0133625
0.0133625
0.0133627
0.0133627
0.0133629
0.0133629
0.0133631
0.0133631
0.0133634
0.0133634
0.0133636
0.0133636
0.0133639
0.0133639
0.0133641
0.0133646
0.0133645
0.0133803
0.0135638
0.0135703
0.0135714
0.0135717
0.0135737
0.013574
0.0135768
0.0135769
0.0135801
0.01358
0.0135833
0.0135831
0.0135863
0.0135861
0.0135893
0.013589
0.013592
0.0135917
0.0135945
0.0135942
0.013597
0.0135966
0.0135992
0.0135989
0.0136013
0.013601
0.0136032
0.0136029
0.0136049
0.0136046
0.0136065
0.0136062
0.0136079
0.0136076
0.0136092
0.0136088
0.0136102
0.0136098
0.013611
0.0136105
0.0136116
0.0136112
0.0136121
0.0136116
0.0136125
0.013612
0.0136127
0.0136123
0.013613
0.0136125
0.0136131
0.0136127
0.0136133
0.013613
0.0136135
0.0136132
0.0136137
0.0136134
0.0136139
0.0136136
0.0136141
0.0136138
0.0136143
0.013614
0.0136145
0.0136143
0.0136146
0.0136145
0.0136148
0.0136147
0.013615
0.0136149
0.0136152
0.0136151
0.0136155
0.0136154
0.0136157
0.0136156
0.0136159
0.0136159
0.0136162
0.0136162
0.0136166
0.0136166
0.013617
0.013617
0.0136179
0.0136165
0.0136173
0.00603225
0.00627485
0.00630382
0.00631739
0.0063327
0.00634629
0.00635821
0.00637165
0.00638064
0.00639362
0.0064004
0.00641286
0.00641805
0.00642984
0.00643389
0.00644495
0.00644817
0.00645852
0.00646112
0.00647076
0.00647286
0.00648181
0.00648351
0.00649177
0.00649313
0.0065007
0.00650174
0.00650862
0.00650934
0.00651552
0.0065159
0.00652138
0.00652143
0.0065262
0.00652592
0.00653004
0.00652946
0.00653299
0.00653215
0.00653516
0.00653414
0.00653672
0.00653559
0.00653783
0.00653666
0.00653865
0.00653749
0.0065393
0.00653819
0.00653986
0.00653883
0.00654039
0.00653943
0.00654089
0.00654002
0.00654139
0.00654059
0.00654188
0.00654116
0.00654238
0.00654172
0.00654287
0.00654228
0.00654337
0.00654283
0.00654388
0.0065434
0.0065444
0.00654397
0.00654493
0.00654455
0.00654548
0.00654514
0.00654606
0.00654576
0.00654667
0.00654641
0.00654731
0.00654709
0.00654801
0.00654782
0.00654875
0.00654859
0.00654952
0.00654938
0.00655031
0.0065501
0.00655131
0.00654999
0.00655092
0.00579023
0.00639722
0.00647129
0.0064923
0.00650649
0.00651979
0.00653055
0.00654204
0.00655079
0.00656108
0.00656845
0.00657786
0.00658425
0.00659292
0.00659855
0.00660657
0.00661159
0.00661902
0.00662352
0.00663041
0.00663448
0.00664084
0.0066445
0.00665035
0.00665363
0.00665897
0.00666186
0.00666667
0.00666916
0.00667341
0.00667548
0.00667916
0.00668079
0.00668391
0.00668512
0.00668765
0.00668848
0.00669049
0.006691
0.00669255
0.00669279
0.00669399
0.00669404
0.00669496
0.00669489
0.00669563
0.0066955
0.00669613
0.00669597
0.00669654
0.00669638
0.00669691
0.00669676
0.00669726
0.00669713
0.0066976
0.00669749
0.00669794
0.00669786
0.00669829
0.00669822
0.00669864
0.00669859
0.00669899
0.00669895
0.00669934
0.00669932
0.0066997
0.0066997
0.00670007
0.00670008
0.00670045
0.00670047
0.00670083
0.00670088
0.00670124
0.00670129
0.00670166
0.00670172
0.0067021
0.00670217
0.00670256
0.00670264
0.00670305
0.00670312
0.00670353
0.00670363
0.0067038
0.0067043
0.00670515
0.00521837
0.00605866
0.00618828
0.0062196
0.00623389
0.00624586
0.00625532
0.00626494
0.00627296
0.00628137
0.00628846
0.00629601
0.00630244
0.00630934
0.00631523
0.00632156
0.00632696
0.00633279
0.00633775
0.00634314
0.00634772
0.00635269
0.00635689
0.00636144
0.00636528
0.00636943
0.0063729
0.00637662
0.00637969
0.00638298
0.00638563
0.00638846
0.00639068
0.00639303
0.00639482
0.0063967
0.00639806
0.00639951
0.0064005
0.00640156
0.00640223
0.00640298
0.0064034
0.00640392
0.00640416
0.00640452
0.00640465
0.00640491
0.00640499
0.00640518
0.00640524
0.00640541
0.00640546
0.00640561
0.00640567
0.00640581
0.00640587
0.00640601
0.00640607
0.00640621
0.00640627
0.00640641
0.00640647
0.00640661
0.00640667
0.00640681
0.00640688
0.00640701
0.00640708
0.00640722
0.00640729
0.00640743
0.0064075
0.00640764
0.00640772
0.00640786
0.00640794
0.00640808
0.00640816
0.0064083
0.00640838
0.00640854
0.00640861
0.00640877
0.00640884
0.00640901
0.00640906
0.00640924
0.00640954
0.00640797
0.00500342
0.00590407
0.00605615
0.00608701
0.0060996
0.00610749
0.00611547
0.0061221
0.0061292
0.00613533
0.00614173
0.00614744
0.0061533
0.0061587
0.00616411
0.0061692
0.00617417
0.00617894
0.00618353
0.006188
0.00619225
0.00619643
0.00620035
0.00620422
0.00620782
0.00621138
0.00621466
0.0062179
0.00622083
0.00622372
0.00622629
0.0062288
0.00623099
0.0062331
0.00623489
0.0062366
0.006238
0.00623931
0.00624035
0.00624131
0.00624204
0.0062427
0.00624316
0.0062436
0.00624387
0.00624413
0.00624428
0.00624444
0.00624452
0.00624462