/*--------------------------------*- C++ -*----------------------------------*\
  =========                 |
  \\      /  F ield         | OpenFOAM: The Open Source CFD Toolbox
   \\    /   O peration     | Website:  https://openfoam.org
    \\  /    A nd           | Version:  7
     \\/     M anipulation  |
\*---------------------------------------------------------------------------*/
FoamFile
{
    version     2.0;
    format      ascii;
    class       volScalarField;
    location    "0.895";
    object      nut;
}
// * * * * * * * * * * * * * * * * * * * * * * * * * * * * * * * * * * * * * //

dimensions      [0 2 -1 0 0 0 0];

internalField   nonuniform List<scalar> 
13200
(
0.00817036
0.00839256
0.00838957
0.0083914
0.00838915
0.00839115
0.0083902
0.00839209
0.00839128
0.00839245
0.00839146
0.008392
0.00839091
0.00839106
0.00839007
0.00838998
0.0083897
0.00838877
0.00839241
0.00839372
0.00395644
0.00377177
0.00364498
0.00359668
0.00357857
0.00357519
0.00356917
0.00356979
0.00356618
0.00356702
0.00356422
0.00356492
0.00356277
0.00356314
0.00356161
0.00356171
0.00356095
0.00356054
0.00356836
0.00357006
0.00247253
0.00246505
0.0024179
0.00238356
0.00236717
0.00236211
0.00235607
0.00235497
0.00235144
0.00235085
0.00234801
0.00234743
0.00234492
0.0023443
0.00234215
0.0023415
0.0023399
0.00233921
0.00233894
0.00234218
0.00208607
0.00220734
0.00221876
0.00221842
0.00221614
0.00221603
0.00221455
0.00221477
0.00221381
0.00221388
0.00221272
0.00221229
0.00221075
0.00220996
0.00220827
0.00220703
0.00220569
0.00220403
0.00220365
0.00220505
0.00199695
0.00215764
0.00218543
0.00219484
0.00219645
0.00219978
0.0022001
0.00220229
0.00220283
0.00220476
0.00220486
0.00220574
0.00220528
0.00220541
0.00220459
0.00220402
0.00220277
0.00220161
0.00220061
0.00220141
0.001985
0.00215139
0.00218288
0.0021948
0.00219782
0.00220257
0.00220373
0.00220716
0.00220847
0.00221176
0.00221271
0.0022149
0.00221517
0.00221628
0.00221616
0.00221645
0.00221582
0.00221526
0.00221417
0.00221491
0.00198105
0.0021477
0.0021796
0.00219214
0.00219576
0.0022012
0.0022029
0.00220712
0.00220899
0.00221318
0.0022148
0.00221795
0.00221883
0.00222084
0.00222133
0.00222253
0.00222243
0.00222259
0.00222184
0.00222287
0.001983
0.00214821
0.00217999
0.00219265
0.0021966
0.00220242
0.00220448
0.0022092
0.00221148
0.00221626
0.00221838
0.00222215
0.0022235
0.00222617
0.00222713
0.0022291
0.00222951
0.00223029
0.00223013
0.0022311
0.00198253
0.00214707
0.00217859
0.0021911
0.00219505
0.00220095
0.00220314
0.00220805
0.00221053
0.00221558
0.00221798
0.00222207
0.00222373
0.00222678
0.00222809
0.00223049
0.00223131
0.00223258
0.00223272
0.00223399
0.00198343
0.00214737
0.00217877
0.00219124
0.00219521
0.00220114
0.00220337
0.00220835
0.00221091
0.00221606
0.00221858
0.00222281
0.00222461
0.00222782
0.00222931
0.00223189
0.00223295
0.00223439
0.00223481
0.00223613
0.00198343
0.00214737
0.00217877
0.00219124
0.00219521
0.00220114
0.00220337
0.00220835
0.00221091
0.00221606
0.00221858
0.00222281
0.00222461
0.00222782
0.00222931
0.00223189
0.00223295
0.00223439
0.00223482
0.00223614
0.00198253
0.00214707
0.00217859
0.0021911
0.00219505
0.00220095
0.00220314
0.00220805
0.00221052
0.00221558
0.00221798
0.00222208
0.00222373
0.00222678
0.00222809
0.00223049
0.00223132
0.00223258
0.00223275
0.002234
0.001983
0.00214821
0.00217999
0.00219265
0.0021966
0.00220242
0.00220448
0.0022092
0.00221148
0.00221627
0.00221838
0.00222215
0.0022235
0.00222618
0.00222713
0.00222911
0.00222951
0.00223031
0.00223015
0.00223113
0.00198105
0.0021477
0.0021796
0.00219214
0.00219575
0.0022012
0.0022029
0.00220712
0.00220898
0.00221319
0.00221479
0.00221796
0.00221882
0.00222086
0.00222131
0.00222256
0.00222241
0.00222263
0.00222185
0.00222292
0.001985
0.00215139
0.00218288
0.0021948
0.00219782
0.00220257
0.00220373
0.00220716
0.00220847
0.00221176
0.00221271
0.00221491
0.00221516
0.0022163
0.00221612
0.00221651
0.00221572
0.00221539
0.00221411
0.00221504
0.00199695
0.00215764
0.00218543
0.00219484
0.00219645
0.00219978
0.0022001
0.00220229
0.00220282
0.00220477
0.00220485
0.00220575
0.00220525
0.00220544
0.0022045
0.00220413
0.00220258
0.00220198
0.0022003
0.00220175
0.00208607
0.00220735
0.00221876
0.00221842
0.00221614
0.00221603
0.00221455
0.00221477
0.0022138
0.00221389
0.00221271
0.0022123
0.00221073
0.00221
0.00220818
0.00220725
0.00220533
0.00220464
0.00220292
0.00220577
0.00247253
0.00246505
0.0024179
0.00238357
0.00236716
0.00236211
0.00235607
0.00235497
0.00235144
0.00235086
0.002348
0.00234744
0.0023449
0.00234433
0.00234209
0.0023416
0.00233967
0.00233965
0.00233808
0.00234369
0.00395644
0.00377177
0.00364498
0.00359668
0.00357857
0.00357519
0.00356917
0.00356979
0.00356618
0.00356702
0.00356422
0.00356493
0.00356275
0.00356316
0.00356156
0.00356179
0.00356078
0.00356087
0.00356741
0.00357189
0.00817036
0.00839255
0.00838956
0.0083914
0.00838914
0.00839115
0.00839019
0.00839209
0.00839128
0.00839246
0.00839146
0.00839201
0.00839088
0.0083911
0.00839
0.00839011
0.00838943
0.00838936
0.00839099
0.00839744
0.00229641
0.0024493
0.00242603
0.00239815
0.0023942
0.00238341
0.00238414
0.00237787
0.00237916
0.00237478
0.00237596
0.00237269
0.00237363
0.00237116
0.00237192
0.00236999
0.0023708
0.00236886
0.00236964
0.0023726
0.00189473
0.00218347
0.00221496
0.00221051
0.00220571
0.00220067
0.00219847
0.00219556
0.00219428
0.00219218
0.00219122
0.00218955
0.00218874
0.00218736
0.00218677
0.00218566
0.0021853
0.00218459
0.00218417
0.00218366
0.00175912
0.00206589
0.00211442
0.00212615
0.00213036
0.00213315
0.00213442
0.00213568
0.00213607
0.00213638
0.00213623
0.00213592
0.0021354
0.00213474
0.00213414
0.00213322
0.00213296
0.00213179
0.00213221
0.00213416
0.00174248
0.00205068
0.0020968
0.00210706
0.00211043
0.00211386
0.0021161
0.00211895
0.0021208
0.00212271
0.00212368
0.00212449
0.00212474
0.00212474
0.00212457
0.00212387
0.00212367
0.00212253
0.00212306
0.00212275
0.00173455
0.00204302
0.00208873
0.00209783
0.00209923
0.00210118
0.00210219
0.00210451
0.00210621
0.00210848
0.00210979
0.00211112
0.00211178
0.00211227
0.00211243
0.00211213
0.00211191
0.00211088
0.00211097
0.00211174
0.00173808
0.00204679
0.00209218
0.00210105
0.00210193
0.0021032
0.00210346
0.00210487
0.00210605
0.00210804
0.00210914
0.00211041
0.00211097
0.00211153
0.00211173
0.0021116
0.00211129
0.00211023
0.00210951
0.00210992
0.00173551
0.00204399
0.00208937
0.00209824
0.00209902
0.00210017
0.0021002
0.00210126
0.00210216
0.00210398
0.00210491
0.00210608
0.0021065
0.00210703
0.00210721
0.0021072
0.00210688
0.00210598
0.00210485
0.00210523
0.00173786
0.00204643
0.00209161
0.00210043
0.00210121
0.00210236
0.00210235
0.00210335
0.00210417
0.00210593
0.00210681
0.00210793
0.00210827
0.00210875
0.00210889
0.00210896
0.00210866
0.00210791
0.00210647
0.00210678
0.00173667
0.00204507
0.00209024
0.00209902
0.00209978
0.00210093
0.00210092
0.00210191
0.00210272
0.00210448
0.00210535
0.00210647
0.00210678
0.00210725
0.00210738
0.00210752
0.00210725
0.00210664
0.0021051
0.00210539
0.00173757
0.00204595
0.00209105
0.00209978
0.00210053
0.00210167
0.00210166
0.00210266
0.00210347
0.00210523
0.0021061
0.00210721
0.00210751
0.00210798
0.00210811
0.00210827
0.00210801
0.00210747
0.00210592
0.0021062
0.00173757
0.00204595
0.00209105
0.00209978
0.00210053
0.00210167
0.00210166
0.00210266
0.00210347
0.00210523
0.0021061
0.00210721
0.00210751
0.00210798
0.00210811
0.00210827
0.00210801
0.00210747
0.00210591
0.0021062
0.00173667
0.00204507
0.00209024
0.00209902
0.00209978
0.00210093
0.00210092
0.00210191
0.00210272
0.00210448
0.00210535
0.00210647
0.00210678
0.00210725
0.00210738
0.00210752
0.00210725
0.00210664
0.00210511
0.00210539
0.00173786
0.00204643
0.00209161
0.00210043
0.00210121
0.00210236
0.00210235
0.00210335
0.00210417
0.00210593
0.0021068
0.00210793
0.00210826
0.00210876
0.00210889
0.00210897
0.00210866
0.00210792
0.00210645
0.00210677
0.00173551
0.00204399
0.00208937
0.00209824
0.00209902
0.00210017
0.0021002
0.00210126
0.00210216
0.00210398
0.0021049
0.00210609
0.00210649
0.00210705
0.00210719
0.00210722
0.00210685
0.00210603
0.00210483
0.00210524
0.00173808
0.00204679
0.00209218
0.00210105
0.00210193
0.0021032
0.00210346
0.00210487
0.00210604
0.00210805
0.00210913
0.00211042
0.00211094
0.00211156
0.00211169
0.00211165
0.00211121
0.00211036
0.00210935
0.00210996
0.00173455
0.00204302
0.00208873
0.00209783
0.00209923
0.00210118
0.00210219
0.00210451
0.00210621
0.00210849
0.00210977
0.00211114
0.00211174
0.00211232
0.00211237
0.00211225
0.00211173
0.00211116
0.00211063
0.00211195
0.00174248
0.00205068
0.00209679
0.00210706
0.00211043
0.00211386
0.0021161
0.00211895
0.0021208
0.00212272
0.00212367
0.00212451
0.00212471
0.00212478
0.00212449
0.00212405
0.0021234
0.00212296
0.00212236
0.00212342
0.00175912
0.00206589
0.00211442
0.00212615
0.00213036
0.00213315
0.00213442
0.00213568
0.00213607
0.00213639
0.00213622
0.00213594
0.00213538
0.00213478
0.00213406
0.00213338
0.00213272
0.00213227
0.0021314
0.00213529
0.00189473
0.00218347
0.00221496
0.00221051
0.00220571
0.00220068
0.00219847
0.00219556
0.00219428
0.00219219
0.00219122
0.00218956
0.00218873
0.00218739
0.00218673
0.00218574
0.00218516
0.00218487
0.0021836
0.00218505
0.00229641
0.0024493
0.00242603
0.00239815
0.0023942
0.00238341
0.00238414
0.00237787
0.00237916
0.00237478
0.00237596
0.0023727
0.00237363
0.00237118
0.00237191
0.00237004
0.00237077
0.00236903
0.00236942
0.00237351
0.000880801
0.000998737
0.000928354
0.000833644
0.000774379
0.000742079
0.000719287
0.000703685
0.000690453
0.00067994
0.000671175
0.000663664
0.000657798
0.000652505
0.000648362
0.000644941
0.000641537
0.000639651
0.000635938
0.000638091
0.000359866
0.000575326
0.000631701
0.000641679
0.00064107
0.000638431
0.00063294
0.000627264
0.0006214
0.000615901
0.000610567
0.00060564
0.000600986
0.000596814
0.000592803
0.000589561
0.000585859
0.000583903
0.00057981
0.00057967
0.00015644
0.000355177
0.000430041
0.000462347
0.000476087
0.00048748
0.000494548
0.000502115
0.000507052
0.000512162
0.000515289
0.000518379
0.000520046
0.000521668
0.000522369
0.000523138
0.000523271
0.000523778
0.000523297
0.000524493
0.00014383
0.000324222
0.000392927
0.00042522
0.000437477
0.000445587
0.000449153
0.000453422
0.000456135
0.000459671
0.000462401
0.00046552
0.000468154
0.00047078
0.000473204
0.000475255
0.000477527
0.000479241
0.000481118
0.000483284
0.00014074
0.000316538
0.000381369
0.000413679
0.000425308
0.000432892
0.000434818
0.000437319
0.000437881
0.000439156
0.000439659
0.000440724
0.000441414
0.000442388
0.000443381
0.000444158
0.000445491
0.000446185
0.000447547
0.000448947
0.000143681
0.000321712
0.000386248
0.000417642
0.000429411
0.000436532
0.000438555
0.000440544
0.000440867
0.000441544
0.000441626
0.000441855
0.000441948
0.00044208
0.00044224
0.00044229
0.000442512
0.000442552
0.000442851
0.000443602
0.000141662
0.000318218
0.000382712
0.000414397
0.000425963
0.00043319
0.000435049
0.000437059
0.000437292
0.000437856
0.00043782
0.000437923
0.000437868
0.00043783
0.000437711
0.000437461
0.000437365
0.000437106
0.00043702
0.000437409
0.000143326
0.000321239
0.000385827
0.000417112
0.000428725
0.000435753
0.000437713
0.000439635
0.000439912
0.000440486
0.000440482
0.000440562
0.00044053
0.000440445
0.000440342
0.000440066
0.000439942
0.000439593
0.000439482
0.000439764
0.000142313
0.000319411
0.000383971
0.000415431
0.000426962
0.000434067
0.000435955
0.000437917
0.000438172
0.000438749
0.000438735
0.000438831
0.000438791
0.000438731
0.000438618
0.000438361
0.000438225
0.000437915
0.00043765
0.00043796
0.000142878
0.000320456
0.000385062
0.000416385
0.00042792
0.000434952
0.000436863
0.000438792
0.000439057
0.000439635
0.000439631
0.000439723
0.000439695
0.000439629
0.000439531
0.00043928
0.000439152
0.00043883
0.000438614
0.000438895
0.000142878
0.000320456
0.000385062
0.000416385
0.00042792
0.000434952
0.000436863
0.000438792
0.000439057
0.000439635
0.000439631
0.000439723
0.000439695
0.000439629
0.000439531
0.000439281
0.000439152
0.000438833
0.000438615
0.000438898
0.000142313
0.000319411
0.000383971
0.000415431
0.000426962
0.000434067
0.000435955
0.000437917
0.000438172
0.000438749
0.000438735
0.000438831
0.000438791
0.000438731
0.000438618
0.00043836
0.000438224
0.000437911
0.000437649
0.000437956
0.000143326
0.000321239
0.000385827
0.000417113
0.000428724
0.000435753
0.000437713
0.000439635
0.000439912
0.000440487
0.000440482
0.000440562
0.00044053
0.000440446
0.000440342
0.000440067
0.000439942
0.000439597
0.000439482
0.000439766
0.000141662
0.000318218
0.000382712
0.000414397
0.000425962
0.00043319
0.000435049
0.000437059
0.000437292
0.000437856
0.000437819
0.000437924
0.000437867
0.000437831
0.00043771
0.000437462
0.000437363
0.000437103
0.000437015
0.0004374
0.000143681
0.000321713
0.000386248
0.000417643
0.000429411
0.000436533
0.000438555
0.000440544
0.000440867
0.000441545
0.000441626
0.000441856
0.000441946
0.000442082
0.000442237
0.000442291
0.000442503
0.00044255
0.000442839
0.000443579
0.00014074
0.000316538
0.000381369
0.00041368
0.000425308
0.000432893
0.000434818
0.000437319
0.000437881
0.000439156
0.000439658
0.000440726
0.000441409
0.000442391
0.000443371
0.000444163
0.000445466
0.000446174
0.000447503
0.000448882
0.00014383
0.000324222
0.000392926
0.00042522
0.000437476
0.000445588
0.000449152
0.000453423
0.000456133
0.000459674
0.000462397
0.000465522
0.000468148
0.000470779
0.00047319
0.000475249
0.000477492
0.000479214
0.000481026
0.000483155
0.00015644
0.000355177
0.00043004
0.000462347
0.000476086
0.000487481
0.000494546
0.000502117
0.000507048
0.000512165
0.000515282
0.000518384
0.000520031
0.000521675
0.00052234
0.000523142
0.000523239
0.000523734
0.000523214
0.000524366
0.000359866
0.000575326
0.0006317
0.000641679
0.00064107
0.000638431
0.000632939
0.000627267
0.000621396
0.000615907
0.000610558
0.000605654
0.000600967
0.000596844
0.000592762
0.000589632
0.000585782
0.000583972
0.000579746
0.00057983
0.000880801
0.000998737
0.000928354
0.000833644
0.000774379
0.00074208
0.000719287
0.000703687
0.000690453
0.000679948
0.000671175
0.000663685
0.000657799
0.000652559
0.000648381
0.000645063
0.000641631
0.000639939
0.000636183
0.000639078
0.000880801
0.000998737
0.000928354
0.000833644
0.000774378
0.000742079
0.000719287
0.000703685
0.000690453
0.000679941
0.000671175
0.000663664
0.000657798
0.000652505
0.000648362
0.000644941
0.000641537
0.000639651
0.000635938
0.000638091
0.000359866
0.000575326
0.000631701
0.000641679
0.00064107
0.000638431
0.00063294
0.000627264
0.0006214
0.000615901
0.000610567
0.00060564
0.000600986
0.000596814
0.000592803
0.000589561
0.000585859
0.000583903
0.00057981
0.00057967
0.00015644
0.000355177
0.000430041
0.000462347
0.000476087
0.00048748
0.000494548
0.000502115
0.000507052
0.000512162
0.000515289
0.000518379
0.000520046
0.000521668
0.000522369
0.000523138
0.000523272
0.000523778
0.000523297
0.000524493
0.00014383
0.000324222
0.000392927
0.00042522
0.000437477
0.000445588
0.000449153
0.000453422
0.000456135
0.000459671
0.000462401
0.00046552
0.000468154
0.000470781
0.000473204
0.000475255
0.000477527
0.000479241
0.000481118
0.000483284
0.00014074
0.000316538
0.00038137
0.000413679
0.000425308
0.000432892
0.000434818
0.000437319
0.000437881
0.000439156
0.000439659
0.000440724
0.000441414
0.000442388
0.000443381
0.000444158
0.000445491
0.000446185
0.000447548
0.000448947
0.000143681
0.000321712
0.000386248
0.000417642
0.000429411
0.000436532
0.000438555
0.000440544
0.000440867
0.000441544
0.000441626
0.000441855
0.000441948
0.00044208
0.00044224
0.00044229
0.000442512
0.000442552
0.000442851
0.000443602
0.000141662
0.000318218
0.000382712
0.000414397
0.000425963
0.00043319
0.000435049
0.000437059
0.000437292
0.000437856
0.00043782
0.000437923
0.000437868
0.000437831
0.000437711
0.000437461
0.000437365
0.000437106
0.000437021
0.000437409
0.000143326
0.000321239
0.000385827
0.000417113
0.000428725
0.000435753
0.000437713
0.000439635
0.000439912
0.000440487
0.000440482
0.000440562
0.00044053
0.000440445
0.000440342
0.000440066
0.000439942
0.000439593
0.000439482
0.000439764
0.000142313
0.000319411
0.000383971
0.000415431
0.000426962
0.000434067
0.000435955
0.000437917
0.000438172
0.000438749
0.000438735
0.000438831
0.000438791
0.000438731
0.000438618
0.000438362
0.000438225
0.000437915
0.00043765
0.00043796
0.000142878
0.000320456
0.000385062
0.000416386
0.00042792
0.000434952
0.000436863
0.000438792
0.000439057
0.000439635
0.000439631
0.000439723
0.000439695
0.000439629
0.000439531
0.00043928
0.000439152
0.00043883
0.000438614
0.000438895
0.000142878
0.000320456
0.000385062
0.000416386
0.00042792
0.000434952
0.000436863
0.000438792
0.000439057
0.000439635
0.000439631
0.000439723
0.000439695
0.000439629
0.000439532
0.000439281
0.000439152
0.000438833
0.000438615
0.000438898
0.000142313
0.000319411
0.000383971
0.000415431
0.000426962
0.000434067
0.000435955
0.000437917
0.000438172
0.000438749
0.000438735
0.000438831
0.000438791
0.000438731
0.000438618
0.00043836
0.000438224
0.000437911
0.000437649
0.000437956
0.000143326
0.000321239
0.000385827
0.000417113
0.000428725
0.000435753
0.000437713
0.000439635
0.000439912
0.000440487
0.000440482
0.000440562
0.00044053
0.000440446
0.000440342
0.000440067
0.000439942
0.000439597
0.000439482
0.000439766
0.000141662
0.000318218
0.000382712
0.000414397
0.000425962
0.00043319
0.000435049
0.000437059
0.000437292
0.000437856
0.000437819
0.000437924
0.000437867
0.000437831
0.00043771
0.000437462
0.000437363
0.000437103
0.000437015
0.0004374
0.000143681
0.000321713
0.000386248
0.000417643
0.000429411
0.000436533
0.000438555
0.000440544
0.000440867
0.000441545
0.000441626
0.000441856
0.000441946
0.000442082
0.000442237
0.000442291
0.000442503
0.00044255
0.000442839
0.000443579
0.00014074
0.000316538
0.000381369
0.00041368
0.000425308
0.000432893
0.000434818
0.000437319
0.000437881
0.000439156
0.000439658
0.000440726
0.000441409
0.000442391
0.000443371
0.000444163
0.000445466
0.000446174
0.000447503
0.000448882
0.00014383
0.000324222
0.000392926
0.00042522
0.000437476
0.000445589
0.000449152
0.000453423
0.000456133
0.000459674
0.000462397
0.000465522
0.000468148
0.000470779
0.00047319
0.000475249
0.000477492
0.000479214
0.000481025
0.000483155
0.00015644
0.000355177
0.00043004
0.000462347
0.000476086
0.000487481
0.000494546
0.000502117
0.000507048
0.000512165
0.000515282
0.000518385
0.000520031
0.000521675
0.00052234
0.000523142
0.000523239
0.000523734
0.000523214
0.000524366
0.000359866
0.000575326
0.0006317
0.000641679
0.00064107
0.000638431
0.000632939
0.000627267
0.000621396
0.000615907
0.000610558
0.000605653
0.000600967
0.000596844
0.000592762
0.000589632
0.000585782
0.000583972
0.000579746
0.00057983
0.000880801
0.000998737
0.000928354
0.000833644
0.000774379
0.00074208
0.000719287
0.000703687
0.000690453
0.000679947
0.000671174
0.000663685
0.000657798
0.000652559
0.000648381
0.000645063
0.000641631
0.000639939
0.000636183
0.000639078
0.00229641
0.0024493
0.00242603
0.00239815
0.0023942
0.00238341
0.00238414
0.00237787
0.00237916
0.00237478
0.00237596
0.00237269
0.00237363
0.00237116
0.00237192
0.00236999
0.0023708
0.00236886
0.00236964
0.0023726
0.00189473
0.00218347
0.00221496
0.00221051
0.00220571
0.00220067
0.00219847
0.00219556
0.00219428
0.00219218
0.00219122
0.00218955
0.00218874
0.00218736
0.00218677
0.00218566
0.0021853
0.00218459
0.00218417
0.00218366
0.00175912
0.00206589
0.00211442
0.00212615
0.00213036
0.00213315
0.00213442
0.00213568
0.00213607
0.00213638
0.00213623
0.00213592
0.0021354
0.00213474
0.00213414
0.00213322
0.00213296
0.00213179
0.00213221
0.00213416
0.00174248
0.00205068
0.0020968
0.00210706
0.00211043
0.00211386
0.0021161
0.00211895
0.0021208
0.00212271
0.00212368
0.00212449
0.00212474
0.00212474
0.00212457
0.00212387
0.00212367
0.00212253
0.00212306
0.00212275
0.00173455
0.00204302
0.00208873
0.00209783
0.00209923
0.00210118
0.00210219
0.00210451
0.00210621
0.00210848
0.00210979
0.00211112
0.00211177
0.00211227
0.00211243
0.00211213
0.00211191
0.00211088
0.00211097
0.00211174
0.00173808
0.00204679
0.00209218
0.00210105
0.00210193
0.0021032
0.00210346
0.00210487
0.00210605
0.00210804
0.00210914
0.00211041
0.00211097
0.00211153
0.00211173
0.0021116
0.00211129
0.00211023
0.00210951
0.00210992
0.00173551
0.00204399
0.00208937
0.00209824
0.00209902
0.00210017
0.0021002
0.00210126
0.00210216
0.00210398
0.00210491
0.00210608
0.0021065
0.00210703
0.00210721
0.0021072
0.00210688
0.00210599
0.00210485
0.00210523
0.00173786
0.00204643
0.00209161
0.00210043
0.00210121
0.00210236
0.00210235
0.00210335
0.00210417
0.00210593
0.00210681
0.00210793
0.00210827
0.00210875
0.00210889
0.00210896
0.00210866
0.00210791
0.00210647
0.00210678
0.00173667
0.00204507
0.00209024
0.00209902
0.00209978
0.00210093
0.00210092
0.00210191
0.00210272
0.00210448
0.00210535
0.00210647
0.00210678
0.00210725
0.00210738
0.00210752
0.00210725
0.00210664
0.0021051
0.00210539
0.00173757
0.00204595
0.00209105
0.00209978
0.00210053
0.00210167
0.00210166
0.00210266
0.00210347
0.00210523
0.0021061
0.00210721
0.00210751
0.00210798
0.00210811
0.00210827
0.00210801
0.00210747
0.00210592
0.0021062
0.00173757
0.00204595
0.00209105
0.00209978
0.00210053
0.00210167
0.00210166
0.00210266
0.00210347
0.00210523
0.0021061
0.00210721
0.00210751
0.00210798
0.00210811
0.00210827
0.00210801
0.00210747
0.00210591
0.0021062
0.00173667
0.00204507
0.00209024
0.00209902
0.00209978
0.00210093
0.00210092
0.00210191
0.00210272
0.00210448
0.00210535
0.00210647
0.00210678
0.00210725
0.00210738
0.00210752
0.00210725
0.00210664
0.00210511
0.00210539
0.00173786
0.00204643
0.00209161
0.00210043
0.00210121
0.00210236
0.00210235
0.00210335
0.00210417
0.00210593
0.0021068
0.00210793
0.00210826
0.00210876
0.00210889
0.00210897
0.00210865
0.00210792
0.00210645
0.00210677
0.00173551
0.00204399
0.00208937
0.00209824
0.00209902
0.00210017
0.0021002
0.00210126
0.00210216
0.00210398
0.0021049
0.00210609
0.00210649
0.00210705
0.00210719
0.00210722
0.00210685
0.00210603
0.00210483
0.00210524
0.00173808
0.00204679
0.00209218
0.00210105
0.00210193
0.0021032
0.00210346
0.00210487
0.00210605
0.00210805
0.00210913
0.00211042
0.00211094
0.00211156
0.00211169
0.00211165
0.00211121
0.00211036
0.00210935
0.00210996
0.00173455
0.00204302
0.00208873
0.00209783
0.00209923
0.00210118
0.00210219
0.00210451
0.00210621
0.00210849
0.00210977
0.00211114
0.00211174
0.00211232
0.00211237
0.00211225
0.00211173
0.00211116
0.00211063
0.00211195
0.00174248
0.00205068
0.00209679
0.00210706
0.00211043
0.00211386
0.0021161
0.00211895
0.0021208
0.00212272
0.00212367
0.00212451
0.00212471
0.00212478
0.00212449
0.00212405
0.0021234
0.00212296
0.00212236
0.00212342
0.00175912
0.00206589
0.00211442
0.00212615
0.00213036
0.00213315
0.00213442
0.00213568
0.00213607
0.00213639
0.00213622
0.00213594
0.00213538
0.00213478
0.00213406
0.00213338
0.00213271
0.00213227
0.0021314
0.00213529
0.00189473
0.00218347
0.00221496
0.00221051
0.00220571
0.00220068
0.00219847
0.00219556
0.00219428
0.00219219
0.00219122
0.00218956
0.00218873
0.00218739
0.00218673
0.00218574
0.00218516
0.00218487
0.0021836
0.00218505
0.00229641
0.0024493
0.00242603
0.00239815
0.0023942
0.00238341
0.00238414
0.00237787
0.00237916
0.00237478
0.00237596
0.0023727
0.00237363
0.00237118
0.00237191
0.00237004
0.00237077
0.00236903
0.00236942
0.00237351
0.00817036
0.00839255
0.00838956
0.0083914
0.00838914
0.00839115
0.00839019
0.00839208
0.00839128
0.00839245
0.00839146
0.008392
0.00839091
0.00839106
0.00839007
0.00838998
0.0083897
0.00838877
0.00839241
0.00839372
0.00395644
0.00377177
0.00364498
0.00359668
0.00357857
0.00357519
0.00356917
0.00356979
0.00356619
0.00356702
0.00356423
0.00356492
0.00356277
0.00356314
0.00356161
0.00356172
0.00356095
0.00356054
0.00356836
0.00357007
0.00247253
0.00246505
0.0024179
0.00238357
0.00236717
0.00236211
0.00235607
0.00235497
0.00235144
0.00235085
0.00234801
0.00234743
0.00234492
0.0023443
0.00234215
0.0023415
0.0023399
0.00233921
0.00233894
0.00234218
0.00208607
0.00220734
0.00221876
0.00221842
0.00221614
0.00221603
0.00221455
0.00221477
0.00221381
0.00221388
0.00221272
0.00221229
0.00221075
0.00220996
0.00220827
0.00220703
0.00220569
0.00220404
0.00220366
0.00220505
0.00199695
0.00215764
0.00218543
0.00219484
0.00219645
0.00219978
0.0022001
0.00220229
0.00220283
0.00220476
0.00220486
0.00220574
0.00220528
0.00220541
0.00220459
0.00220402
0.00220277
0.00220161
0.00220061
0.00220141
0.001985
0.00215139
0.00218288
0.0021948
0.00219782
0.00220257
0.00220373
0.00220716
0.00220847
0.00221176
0.00221271
0.0022149
0.00221517
0.00221628
0.00221616
0.00221645
0.00221582
0.00221526
0.00221417
0.00221491
0.00198105
0.0021477
0.0021796
0.00219214
0.00219576
0.0022012
0.0022029
0.00220712
0.00220899
0.00221318
0.0022148
0.00221795
0.00221883
0.00222084
0.00222133
0.00222253
0.00222244
0.00222259
0.00222184
0.00222287
0.001983
0.00214821
0.00217999
0.00219265
0.0021966
0.00220242
0.00220448
0.0022092
0.00221148
0.00221626
0.00221838
0.00222215
0.0022235
0.00222617
0.00222713
0.0022291
0.00222951
0.00223029
0.00223013
0.0022311
0.00198253
0.00214707
0.00217859
0.0021911
0.00219505
0.00220095
0.00220314
0.00220805
0.00221053
0.00221558
0.00221798
0.00222207
0.00222373
0.00222678
0.00222809
0.00223049
0.00223131
0.00223258
0.00223272
0.00223399
0.00198343
0.00214737
0.00217877
0.00219124
0.00219521
0.00220114
0.00220337
0.00220835
0.00221091
0.00221606
0.00221858
0.00222281
0.00222461
0.00222782
0.00222931
0.00223189
0.00223295
0.00223439
0.00223481
0.00223613
0.00198343
0.00214737
0.00217877
0.00219124
0.00219521
0.00220114
0.00220337
0.00220835
0.00221091
0.00221606
0.00221858
0.00222281
0.00222461
0.00222782
0.00222931
0.00223189
0.00223295
0.00223439
0.00223482
0.00223614
0.00198253
0.00214707
0.00217859
0.0021911
0.00219505
0.00220095
0.00220314
0.00220805
0.00221052
0.00221558
0.00221798
0.00222208
0.00222373
0.00222678
0.00222809
0.00223049
0.00223132
0.00223258
0.00223274
0.002234
0.001983
0.00214821
0.00217999
0.00219265
0.0021966
0.00220242
0.00220448
0.0022092
0.00221148
0.00221627
0.00221838
0.00222215
0.0022235
0.00222618
0.00222713
0.00222911
0.00222951
0.00223031
0.00223015
0.00223112
0.00198105
0.0021477
0.0021796
0.00219214
0.00219575
0.0022012
0.0022029
0.00220712
0.00220898
0.00221319
0.00221479
0.00221796
0.00221882
0.00222086
0.00222131
0.00222256
0.00222241
0.00222263
0.00222185
0.00222292
0.001985
0.00215139
0.00218288
0.0021948
0.00219782
0.00220257
0.00220373
0.00220716
0.00220847
0.00221176
0.00221271
0.00221491
0.00221516
0.0022163
0.00221612
0.00221651
0.00221572
0.00221539
0.00221411
0.00221504
0.00199695
0.00215764
0.00218543
0.00219484
0.00219645
0.00219978
0.0022001
0.00220229
0.00220282
0.00220477
0.00220485
0.00220575
0.00220525
0.00220545
0.0022045
0.00220413
0.00220257
0.00220198
0.00220029
0.00220174
0.00208607
0.00220734
0.00221876
0.00221842
0.00221614
0.00221603
0.00221455
0.00221477
0.0022138
0.00221389
0.00221271
0.0022123
0.00221072
0.00221
0.00220818
0.00220725
0.00220532
0.00220464
0.00220292
0.00220577
0.00247253
0.00246505
0.0024179
0.00238357
0.00236716
0.00236211
0.00235607
0.00235497
0.00235144
0.00235086
0.002348
0.00234744
0.0023449
0.00234433
0.00234209
0.0023416
0.00233967
0.00233965
0.00233808
0.00234369
0.00395644
0.00377177
0.00364498
0.00359668
0.00357857
0.00357519
0.00356917
0.00356979
0.00356618
0.00356702
0.00356422
0.00356493
0.00356275
0.00356316
0.00356156
0.00356179
0.00356078
0.00356087
0.00356741
0.00357188
0.00817036
0.00839256
0.00838957
0.00839141
0.00838914
0.00839115
0.0083902
0.00839209
0.00839128
0.00839246
0.00839146
0.00839201
0.00839088
0.0083911
0.00838999
0.00839011
0.00838942
0.00838936
0.00839099
0.00839744
0.0232598
0.0234505
0.0235574
0.0236396
0.0237014
0.0237556
0.0237962
0.023829
0.02385
0.0238651
0.0238731
0.0238789
0.0238813
0.0238837
0.0238844
0.0238857
0.023886
0.0238869
0.0238871
0.0238879
0.0238881
0.0238889
0.0238892
0.0238898
0.0238901
0.0238908
0.0238911
0.0238918
0.0238921
0.0238927
0.0238931
0.0238937
0.023894
0.0238946
0.0238949
0.0238954
0.0238957
0.0238962
0.0238965
0.0238969
0.0238971
0.0238975
0.0238976
0.023898
0.0238981
0.0238983
0.0238984
0.0238985
0.0238985
0.0238987
0.0238986
0.0238987
0.0238986
0.0238986
0.0238985
0.0238985
0.0238983
0.0238982
0.0238981
0.023898
0.0238977
0.0238976
0.0238974
0.0238973
0.023897
0.0238969
0.0238966
0.0238965
0.0238962
0.023896
0.0238957
0.0238956
0.0238953
0.0238951
0.0238948
0.0238946
0.0238943
0.0238942
0.0238939
0.0238936
0.0238934
0.023893
0.0238931
0.023892
0.0238934
0.02389
0.0238951
0.0238859
0.0238992
0.0238767
0.0131492
0.0133077
0.0133662
0.0134139
0.0134476
0.0134797
0.013502
0.0135221
0.0135337
0.0135437
0.0135481
0.0135528
0.0135542
0.0135569
0.0135575
0.0135595
0.0135599
0.0135618
0.0135622
0.0135639
0.0135644
0.013566
0.0135666
0.0135682
0.0135687
0.0135703
0.0135708
0.0135723
0.0135729
0.0135743
0.0135749
0.0135762
0.0135768
0.0135781
0.0135786
0.0135797
0.0135802
0.0135813
0.0135817
0.0135827
0.013583
0.0135839
0.0135842
0.013585
0.0135852
0.0135859
0.0135861
0.0135867
0.0135868
0.0135873
0.0135874
0.0135879
0.0135879
0.0135883
0.0135883
0.0135886
0.0135886
0.0135889
0.0135888
0.0135891
0.013589
0.0135892
0.0135891
0.0135893
0.0135892
0.0135894
0.0135893
0.0135895
0.0135893
0.0135895
0.0135893
0.0135894
0.0135893
0.0135894
0.0135892
0.0135893
0.0135891
0.0135892
0.013589
0.0135891
0.0135889
0.0135889
0.0135889
0.0135885
0.0135892
0.0135874
0.0135902
0.0135852
0.0135918
0.0135794
0.00879876
0.0089904
0.00902647
0.00906066
0.00908052
0.00910455
0.00911833
0.00913512
0.00914277
0.00915295
0.00915611
0.00916245
0.00916374
0.00916843
0.00916926
0.00917331
0.00917412
0.00917788
0.00917877
0.00918236
0.00918334
0.00918678
0.00918782
0.00919113
0.0091922
0.00919537
0.00919645
0.00919947
0.00920054
0.00920341
0.00920446
0.00920717
0.00920816
0.00921072
0.00921165
0.00921404
0.0092149
0.00921713
0.00921791
0.00921998
0.00922069
0.0092226
0.00922322
0.00922498
0.00922553
0.00922714
0.00922762
0.00922911
0.00922951
0.00923088
0.00923123
0.00923249
0.00923279
0.00923395
0.0092342