/*--------------------------------*- C++ -*----------------------------------*\
  =========                 |
  \\      /  F ield         | OpenFOAM: The Open Source CFD Toolbox
   \\    /   O peration     | Website:  https://openfoam.org
    \\  /    A nd           | Version:  7
     \\/     M anipulation  |
\*---------------------------------------------------------------------------*/
FoamFile
{
    version     2.0;
    format      ascii;
    class       surfaceScalarField;
    location    "0.0575";
    object      phi;
}
// * * * * * * * * * * * * * * * * * * * * * * * * * * * * * * * * * * * * * //

dimensions      [1 0 -1 0 0 0 0];

internalField   nonuniform List<scalar> 
2748
(
0.00397863
1.92565e-05
0.00392524
5.33778e-05
0.00384326
8.19682e-05
0.003738
0.000105249
0.00361476
0.00012324
0.00347899
0.000135753
0.00333588
0.000143109
0.00318983
0.000146044
0.00304428
0.000145541
0.00290192
0.000142354
0.00276467
0.000137248
0.00263378
0.000130887
0.0025102
0.000123565
0.00239453
0.000115661
0.00228703
0.000107488
0.00218775
9.92687e-05
0.00209657
9.11731e-05
0.00201323
8.33296e-05
0.00193738
7.58351e-05
0.00186863
6.87452e-05
0.00180659
6.20345e-05
0.00175076
5.58259e-05
0.0017006
5.01564e-05
0.00165561
4.49863e-05
0.00161531
4.02946e-05
0.00157924
3.60595e-05
0.00154697
3.22554e-05
0.0015181
2.88539e-05
0.00149227
2.58251e-05
0.00146913
2.31384e-05
0.00144838
2.07622e-05
0.00142971
1.86658e-05
0.00141288
1.68199e-05
0.00139765
1.51983e-05
0.00138384
1.37785e-05
0.0013713
1.25399e-05
0.00135987
1.14614e-05
0.00134939
1.05195e-05
0.00133969
9.69259e-06
0.00133065
8.96617e-06
0.00132224
8.33357e-06
0.00131445
7.78895e-06
0.00130721
7.32012e-06
0.0013004
6.9089e-06
0.00129385
6.53942e-06
0.00128753
6.20605e-06
0.00128147
5.91299e-06
0.00127577
5.66539e-06
0.00127042
5.46019e-06
0.00126532
5.28427e-06
0.00126033
5.12112e-06
0.00125533
4.96024e-06
0.00125032
4.80226e-06
0.0012454
4.65685e-06
0.00124069
4.53555e-06
0.00123626
4.4446e-06
0.00123211
4.38188e-06
0.00122819
4.33853e-06
0.00122439
4.30329e-06
0.00122065
4.26662e-06
0.0012169
4.22297e-06
0.00121315
4.17087e-06
0.0012094
4.11174e-06
0.00120567
4.04826e-06
0.00120199
3.98318e-06
0.00119837
3.91864e-06
0.00119482
3.85602e-06
0.00119135
3.79603e-06
0.00118795
3.73896e-06
0.00118462
3.68487e-06
0.00118136
3.63366e-06
0.00117816
3.5852e-06
0.00117502
3.53927e-06
0.00117193
3.49565e-06
0.0011689
3.45409e-06
0.00116593
3.4144e-06
0.001163
3.37641e-06
0.00116012
3.34001e-06
0.00115729
3.30509e-06
0.0011545
3.27154e-06
0.00115175
3.23923e-06
0.00114905
3.20802e-06
0.00114638
3.17776e-06
0.00114375
3.14833e-06
0.00114116
3.11959e-06
0.0011386
3.09137e-06
0.00113607
3.0635e-06
0.00113358
3.03582e-06
0.00113112
3.00823e-06
0.00112869
2.98061e-06
0.0011263
2.95287e-06
0.00112394
2.92483e-06
0.00112162
2.89629e-06
0.00111933
2.86704e-06
0.00111708
2.83695e-06
0.00111487
2.80594e-06
0.00111269
2.77394e-06
0.00111055
2.74085e-06
0.00110845
2.70651e-06
0.00110639
2.67074e-06
0.00110436
2.63344e-06
0.00110237
2.59452e-06
0.00110042
2.55389e-06
0.0010985
2.51143e-06
0.00109664
2.46705e-06
0.00109481
2.42085e-06
0.00109304
2.37275e-06
0.00109132
2.32297e-06
0.00108965
2.27001e-06
0.00108805
2.21428e-06
0.00108651
2.15092e-06
0.00108504
2.08421e-06
0.00108366
2.004e-06
0.00108236
1.9254e-06
0.00108115
1.82772e-06
0.00108003
1.74124e-06
0.00107901
1.62963e-06
0.00107808
1.53843e-06
0.00107724
1.42878e-06
1.30463e-06
0.00400527
1.18215e-05
0.00402303
3.56131e-05
0.00404768
5.73032e-05
0.00407636
7.65646e-05
0.00410599
9.36018e-05
0.00413358
0.000108148
0.00415689
0.00011979
0.00417458
0.000128349
0.00418612
0.000133994
0.00419143
0.000137042
0.00419082
0.000137858
0.00418488
0.000136817
0.00417421
0.000134226
0.00415949
0.000130379
0.0041414
0.000125569
0.0041206
0.000120064
0.00409766
0.000114097
0.00407312
0.000107861
0.00404743
0.000101518
0.00402096
9.51975e-05
0.00399398
8.9004e-05
0.00396675
8.3041e-05
0.00393952
7.73766e-05
0.00391246
7.20453e-05
0.00388567
6.70658e-05
0.00385928
6.24468e-05
0.00383334
5.8189e-05
0.0038079
5.42857e-05
0.003783
5.07238e-05
0.00375865
4.74859e-05
0.00373485
4.4551e-05
0.00371162
4.18962e-05
0.00368893
3.94985e-05
0.00366679
3.73353e-05
0.00364518
3.53855e-05
0.00362408
3.36285e-05
0.00360349
3.20435e-05
0.0035834
3.06097e-05
0.00356378
2.93085e-05
0.00354461
2.81257e-05
0.00352588
2.70506e-05
0.00350759
2.60724e-05
0.00348972
2.51774e-05
0.00347226
2.43511e-05
0.00345521
2.35831e-05
0.00343854
2.28694e-05
0.00342223
2.22095e-05
0.00340628
2.16003e-05
0.00339069
2.1035e-05
0.00337547
2.05037e-05
0.0033606
1.99974e-05
0.00334606
1.95119e-05
0.00333182
1.90477e-05
0.00331786
1.86087e-05
0.00330419
1.81985e-05
0.00329081
1.78178e-05
0.00327772
1.74634e-05
0.00326492
1.71291e-05
0.00325242
1.68083e-05
0.00324021
1.6495e-05
0.00322827
1.61854e-05
0.0032166
1.58776e-05
0.00320519
1.55713e-05
0.00319403
1.5267e-05
0.00318312
1.49659e-05
0.00317245
1.46694e-05
0.00316202
1.43786e-05
0.00315183
1.40943e-05
0.00314188
1.38172e-05
0.00313215
1.35476e-05
0.00312264
1.32855e-05
0.00311335
1.30311e-05
0.00310425
1.27839e-05
0.00309536
1.25437e-05
0.00308666
1.23099e-05
0.00307815
1.20822e-05
0.00306982
1.18602e-05
0.00306168
1.16439e-05
0.00305372
1.1433e-05
0.00304595
1.12275e-05
0.00303837
1.10271e-05
0.00303097
1.08317e-05
0.00302376
1.06412e-05
0.00301673
1.04554e-05
0.00300988
1.02742e-05
0.00300319
1.00974e-05
0.00299667
9.92435e-06
0.00299028
9.75466e-06
0.00298403
9.58778e-06
0.0029779
9.42322e-06
0.00297189
9.26041e-06
0.002966
9.09864e-06
0.00296022
8.9372e-06
0.00295457
8.77545e-06
0.00294906
8.61302e-06
0.00294371
8.44972e-06
0.00293852
8.28552e-06
0.00293351
8.12023e-06
0.0029287
7.9536e-06
0.00292407
7.78515e-06
0.00291962
7.61447e-06
0.00291534
7.44102e-06
0.00291121
7.26434e-06
0.0029072
7.08384e-06
0.00290331
6.89909e-06
0.00289953
6.70961e-06
0.00289584
6.51565e-06
0.00289224
6.31639e-06
0.00288874
6.11204e-06
0.00288535
5.89906e-06
0.00288211
5.67683e-06
0.00287905
5.43941e-06
0.0028762
5.19097e-06
0.00287361
4.92414e-06
0.00287128
4.65808e-06
0.00286925
4.36499e-06
0.00286748
4.10593e-06
0.00286601
3.76662e-06
0.00286471
3.56565e-06
3.15493e-06
0.00400114
8.48837e-06
0.00401137
2.53774e-05
0.00402761
4.10534e-05
0.00404912
5.5048e-05
0.00407544
6.72646e-05
0.00410591
7.7675e-05
0.00413952
8.61695e-05
0.00417519
9.26736e-05
0.00421192
9.72633e-05
0.00424881
0.000100144
0.00428512
0.00010154
0.00432027
0.000101665
0.00435377
0.000100716
0.00438529
9.88539e-05
0.00441461
9.62425e-05
0.00444162
9.30458e-05
0.00446629
8.94172e-05
0.00448865
8.54936e-05
0.00450876
8.13979e-05
0.00452671
7.72351e-05
0.00454262
7.30873e-05
0.00455662
6.9023e-05
0.00456888
6.51018e-05
0.00457955
6.13673e-05
0.00458876
5.78458e-05
0.00459664
5.45523e-05
0.00460332
5.14944e-05
0.00460893
4.86738e-05
0.00461356
4.60865e-05
0.00461731
4.37244e-05
0.00462028
4.15762e-05
0.00462255
3.96282e-05
0.00462418
3.78659e-05
0.00462524
3.62742e-05
0.00462578
3.48385e-05
0.00462586
3.35443e-05
0.00462552
3.23774e-05
0.0046248
3.13237e-05
0.00462374
3.03697e-05
0.00462236
2.9504e-05
0.00462068
2.87175e-05
0.00461875
2.80019e-05
0.00461657
2.73482e-05
0.00461417
2.67469e-05
0.00461155
2.61895e-05
0.00460874
2.5672e-05
0.00460575
2.51939e-05
0.00460258
2.47511e-05
0.00459926
2.43396e-05
0.0045958
2.39539e-05
0.00459219
2.35883e-05
0.00458844
2.3239e-05
0.00458457
2.29049e-05
0.00458058
2.25876e-05
0.00457648
2.22889e-05
0.00457228
2.20099e-05
0.00456798
2.17488e-05
0.00456361
2.15015e-05
0.00455916
2.1263e-05
0.00455463
2.10286e-05
0.00455003
2.07946e-05
0.00454535
2.05589e-05
0.00454062
2.03205e-05
0.00453581
2.00798e-05
0.00453095
1.98378e-05
0.00452604
1.95958e-05
0.00452107
1.93549e-05
0.00451605
1.9116e-05
0.00451099
1.88799e-05
0.00450589
1.86471e-05
0.00450075
1.84179e-05
0.00449558
1.81926e-05
0.00449038
1.79712e-05
0.00448516
1.77534e-05
0.00447991
1.75386e-05
0.00447466
1.73265e-05
0.00446939
1.71169e-05
0.00446413
1.69099e-05
0.00445886
1.67053e-05
0.00445361
1.6503e-05
0.00444836
1.63027e-05
0.00444314
1.61041e-05
0.00443794
1.59074e-05
0.00443276
1.57126e-05
0.0044276
1.55197e-05
0.00442248
1.53285e-05
0.00441738
1.51386e-05
0.00441231
1.49495e-05
0.00440726
1.47611e-05
0.00440223
1.4573e-05
0.00439721
1.43849e-05
0.00439221
1.4196e-05
0.00438722
1.40052e-05
0.00438225
1.38117e-05
0.00437729
1.36146e-05
0.00437235
1.34137e-05
0.00436744
1.32085e-05
0.00436256
1.29987e-05
0.00435774
1.27837e-05
0.00435298
1.25627e-05
0.00434829
1.2335e-05
0.0043437
1.21002e-05
0.0043392
1.18578e-05
0.00433483
1.16083e-05
0.00433057
1.13506e-05
0.00432645
1.10854e-05
0.00432244
1.08122e-05
0.00431856
1.05295e-05
0.0043148
1.02401e-05
0.00431115
9.93394e-06
0.0043076
9.62506e-06
0.00430415
9.28204e-06
0.00430076
8.95442e-06
0.00429746
8.5595e-06
0.00429417
8.23748e-06
0.00429102
7.76842e-06
0.00428781
7.50584e-06
0.00428483
6.89619e-06
0.00428172
6.77519e-06
5.87857e-06
0.0040008
5.48141e-06
0.00400987
1.63002e-05
0.00402437
2.65348e-05
0.00404364
3.57709e-05
0.00406706
4.38365e-05
0.00409403
5.06928e-05
0.00412388
5.6313e-05
0.00415588
6.06679e-05
0.00418936
6.37848e-05
0.00422372
6.5775e-05
0.00425847
6.67797e-05
0.0042932
6.69368e-05
0.00432753
6.63798e-05
0.00436115
6.5223e-05
0.00439381
6.35746e-05
0.00442531
6.1542e-05
0.00445549
5.92244e-05
0.00448427
5.67016e-05
0.00451159
5.40709e-05
0.00453741
5.14015e-05
0.00456174
4.87428e-05
0.00458462
4.61381e-05
0.00460608
4.3623e-05
0.00462621
4.12248e-05
0.00464508
3.89615e-05
0.00466278
3.68432e-05
0.00467939
3.48752e-05
0.004695
3.30585e-05
0.00470968
3.13908e-05
0.00472354
2.98674e-05
0.00473663
2.84816e-05
0.00474903
2.72253e-05
0.0047608
2.60893e-05
0.00477201
2.50644e-05
0.0047827
2.41411e-05
0.00479293
2.33104e-05
0.00480274
2.25635e-05
0.00481217
2.18915e-05
0.00482125
2.12857e-05
0.00483001
2.07386e-05
0.00483848
2.0244e-05
0.00484668
1.97966e-05
0.00485464
1.93912e-05
0.00486236
1.9022e-05
0.00486986
1.86837e-05
0.00487715
1.83729e-05
0.00488424
1.80878e-05
0.00489116
1.7827e-05
0.00489789
1.75882e-05
0.00490446
1.73683e-05
0.00491087
1.71632e-05
0.00491712
1.697e-05
0.00492322
1.67876e-05
0.00492917
1.66168e-05
0.00493498
1.64588e-05
0.00494065
1.63143e-05
0.00494621
1.6183e-05
0.00495163
1.60613e-05
0.00495694
1.59454e-05
0.00496214
1.5832e-05
0.00496722
1.57183e-05
0.00497218
1.56023e-05
0.00497703
1.54833e-05
0.00498177
1.53615e-05
0.00498639
1.52377e-05
0.00499089
1.51128e-05
0.00499528
1.49878e-05
0.00499955
1.48632e-05
0.00500371
1.47395e-05
0.00500775
1.46172e-05
0.00501168
1.44965e-05
0.00501548
1.43777e-05
0.00501918
1.4261e-05
0.00502276
1.41462e-05
0.00502623
1.4033e-05
0.0050296
1.39211e-05
0.00503285
1.38103e-05
0.005036
1.37004e-05
0.00503906
1.35914e-05
0.00504202
1.34833e-05
0.00504489
1.33757e-05
0.00504768
1.32684e-05
0.00505039
1.31613e-05
0.00505303
1.30545e-05
0.0050556
1.29479e-05
0.0050581
1.28414e-05
0.00506054
1.27347e-05
0.00506292
1.26275e-05
0.00506524
1.25196e-05
0.0050675
1.24105e-05
0.00506968
1.23001e-05
0.0050718
1.21877e-05
0.00507385
1.20726e-05
0.00507581
1.19544e-05
0.00507769
1.18323e-05
0.00507948
1.17061e-05
0.00508116
1.15753e-05
0.00508274
1.14396e-05
0.00508421
1.1298e-05
0.00508557
1.11498e-05
0.00508682
1.09944e-05
0.00508797
1.08316e-05
0.00508902
1.06611e-05
0.00508998
1.04826e-05
0.00509084
1.0296e-05
0.00509164
1.00996e-05
0.00509239
9.89615e-06
0.0050931
9.67928e-06
0.00509379
9.45991e-06
0.00509446
9.21819e-06
0.00509512
8.98269e-06
0.00509576
8.7054e-06
0.00509641
8.4585e-06
0.00509706
8.13078e-06
0.00509774
7.89557e-06
0.00509839
7.49306e-06
0.00509903
7.31469e-06
0.00509957
6.77955e-06
0.00510009
6.7274e-06
5.91426e-06
0.00400058
2.68073e-06
0.00400889
7.98225e-06
0.00402238
1.30361e-05
0.00404051
1.7628e-05
0.00406269
2.16466e-05
0.00408831
2.50612e-05
0.00411674
2.7874e-05
0.00414733
3.00725e-05
0.00417945
3.16661e-05
0.00421252
3.26997e-05
0.00424605
3.32384e-05
0.00427963
3.3352e-05
0.0043129
3.31071e-05
0.00434555
3.25632e-05
0.00437735
3.17745e-05
0.00440809
3.07928e-05
0.00443764
2.96644e-05
0.00446589
2.8436e-05
0.0044928
2.71544e-05
0.00451834
2.58518e-05
0.00454251
2.45537e-05
0.00456535
2.32864e-05
0.0045869
2.20601e-05
0.00460723
2.08859e-05
0.0046264
1.97737e-05
0.00464451
1.87302e-05
0.00466161
1.77582e-05
0.0046778
1.68583e-05
0.00469316
1.60301e-05
0.00470775
1.5272e-05
0.00472164
1.45813e-05
0.00473491
1.39544e-05
0.00474761
1.3387e-05
0.0047598
1.28744e-05
0.00477152
1.24121e-05
0.00478283
1.19959e-05
0.00479377
1.16213e-05
0.00480438
1.1284e-05
0.00481468
1.09797e-05
0.00482471
1.07046e-05
0.00483449
1.04557e-05
0.00484406
1.02306e-05
0.00485342
1.00271e-05
0.00486259
9.84247e-06
0.00487159
9.67412e-06
0.00488044
9.52017e-06
0.00488914
9.37985e-06
0.0048977
9.25283e-06
0.00490614
9.13826e-06
0.00491445
9.03442e-06
0.00492266
8.93917e-06
0.00493076
8.85085e-06
0.00493876
8.76893e-06
0.00494666
8.69399e-06
0.00495447
8.62697e-06
0.0049622
8.56834e-06
0.00496985
8.51741e-06
0.00497742
8.47215e-06
0.00498493
8.43004e-06
0.00499237
8.38883e-06
0.00499974
8.34669e-06
0.00500705
8.30232e-06
0.00501429
8.25486e-06
0.00502147
8.20472e-06
0.00502858
8.15244e-06
0.00503561
8.09858e-06
0.00504258
8.04387e-06
0.00504948
7.98883e-06
0.00505631
7.93377e-06
0.00506306
7.87887e-06
0.00506974
7.82441e-06
0.00507635
7.77077e-06
0.00508288
7.71827e-06
0.00508933
7.667e-06
0.00509572
7.61676e-06
0.00510203
7.56718e-06
0.00510827
7.51804e-06
0.00511444
7.46937e-06
0.00512054
7.42135e-06
0.00512658
7.37403e-06
0.00513256
7.32722e-06
0.00513848
7.28048e-06
0.00514436
7.23346e-06
0.00515018
7.18601e-06
0.00515597
7.13823e-06
0.00516171
7.09022e-06
0.00516742
7.04187e-06
0.0051731
6.99287e-06
0.00517874
6.94281e-06
0.00518435
6.89143e-06
0.00518991
6.83863e-06
0.00519543
6.78434e-06
0.0052009
6.72844e-06
0.00520631
6.67073e-06
0.00521166
6.61095e-06
0.00521693
6.54884e-06
0.00522212
6.48408e-06
0.0052272
6.41642e-06
0.00523216
6.34555e-06
0.00523702
6.27131e-06
0.00524175
6.19345e-06
0.00524636
6.11167e-06
0.00525085
6.02557e-06
0.0052552
5.93451e-06
0.00525942
5.83866e-06
0.0052635
5.73682e-06
0.00526748
5.63143e-06
0.00527136
5.51861e-06
0.00527517
5.40518e-06
0.0052789
5.28007e-06
0.00528257
5.15877e-06
0.00528613
5.01592e-06
0.00528966
4.88812e-06
0.00529309
4.72043e-06
0.00529655
4.59758e-06
0.00529991
4.39625e-06
0.00530333
4.29943e-06
0.00530654
4.03554e-06
0.00530978
3.98842e-06
3.60369e-06
0.00400045
7.16752e-09
0.0040084
2.1362e-08
0.00402139
3.43582e-08
0.00403896
4.4679e-08
0.00406055
5.32588e-08
0.00408554
6.15756e-08
0.00411333
7.14354e-08
0.00414331
8.4224e-08
0.00417487
1.00249e-07
0.00420745
1.19107e-07
0.00424054
1.41254e-07
0.00427372
1.66314e-07
0.00430663
1.93631e-07
0.00433896
2.22652e-07
0.00437048
2.53321e-07
0.00440098
2.85259e-07
0.00443032
3.18692e-07
0.00445839
3.5258e-07
0.00448515
3.86361e-07
0.00451057
4.20623e-07
0.00453465
4.54886e-07
0.00455744
4.87918e-07
0.00457897
5.18297e-07
0.00459929
5.46197e-07
0.00461848
5.70603e-07
0.00463661
5.96425e-07
0.00465373
6.20915e-07
0.00466994
6.42727e-07
0.0046853
6.61565e-07
0.00469989
6.77567e-07
0.00471378
6.90787e-07
0.00472703
7.0114e-07
0.0047397
7.08663e-07
0.00475186
7.1365e-07
0.00476355
7.16523e-07
0.00477483
7.17629e-07
0.00478573
7.17179e-07
0.00479629
7.15299e-07
0.00480656
7.121e-07
0.00481655
7.07809e-07
0.0048263
7.02882e-07
0.00483583
6.97975e-07
0.00484516
6.93686e-07
0.0048543
6.90319e-07
0.00486328
6.87937e-07
0.00487211
6.8669e-07
0.00488079
6.87058e-07
0.00488935
6.89673e-07
0.00489777
6.94894e-07
0.00490609
7.0258e-07
0.0049143
7.1226e-07
0.00492241
7.2355e-07
0.00493042
7.36496e-07
0.00493834
7.51601e-07
0.00494617
7.69546e-07
0.00495393
7.90736e-07
0.00496162
8.14953e-07
0.00496924
8.41258e-07
0.00497679
8.68185e-07
0.00498428
8.94236e-07
0.00499172
9.18166e-07
0.00499909
9.39126e-07
0.0050064
9.56725e-07
0.00501365
9.71061e-07
0.00502084
9.82472e-07
0.00502798
9.91391e-07
0.00503505
9.9833e-07
0.00504205
1.0038e-06
0.005049
1.00822e-06
0.00505588
1.01193e-06
0.0050627
1.01521e-06
0.00506945
1.01828e-06
0.00507613
1.02133e-06
0.00508275
1.0245e-06
0.00508931
1.02785e-06
0.0050958
1.03144e-06
0.00510223
1.03525e-06
0.00510859
1.03927e-06
0.0051149
1.04342e-06
0.00512116
1.04762e-06
0.00512737
1.05175e-06
0.00513353
1.05565e-06
0.00513965
1.05912e-06
0.00514573
1.06199e-06
0.00515178
1.06407e-06
0.0051578
1.06524e-06
0.0051638
1.06536e-06
0.00516977
1.06437e-06
0.00517572
1.06224e-06
0.00518164
1.05901e-06
0.00518753
1.05474e-06
0.00519338
1.04956e-06
0.00519919
1.04361e-06
0.00520496
1.03707e-06
0.00521067
1.0301e-06
0.00521631
1.02284e-06
0.00522187
1.01533e-06
0.00522734
1.00759e-06
0.00523269
9.99616e-07
0.00523794
9.91395e-07
0.00524308
9.82923e-07
0.00524811
9.74126e-07
0.00525302
9.64915e-07
0.0052578
9.55205e-07
0.00526244
9.4506e-07
0.00526695
9.34604e-07
0.00527135
9.24109e-07
0.00527566
9.13716e-07
0.00527992
9.0362e-07
0.00528409
8.9386e-07
0.0052882
8.84487e-07
0.0052922
8.75895e-07
0.00529616
8.68184e-07
0.00530003
8.62803e-07
0.00530393
8.59115e-07
0.00530774
8.60153e-07
0.00531159
8.61415e-07
0.00531523
8.69627e-07
0.00531885
8.71509e-07
8.90728e-07
0.00400045
-2.66536e-06
0.00400839
-7.93752e-06
0.00402138
-1.29661e-05
0.00403896
-1.75378e-05
0.00406054
-2.15406e-05
0.00408553
-2.494e-05
0.00411333
-2.77337e-05
0.00414332
-2.99071e-05
0.00417488
-3.14685e-05
0.00420746
-3.24633e-05
0.00424055
-3.29573e-05
0.00427373
-3.30209e-05
0.00430664
-3.27215e-05
0.00433898
-3.21188e-05
0.00437049
-3.12679e-05
0.00440099
-3.02215e-05
0.00443033
-2.9029e-05
0.00445841
-2.77348e-05
0.00448517
-2.63829e-05
0.00451058
-2.50101e-05
0.00453467
-2.36437e-05
0.00455745
-2.23089e-05
0.00457898
-2.10227e-05
0.00459931
-1.97914e-05
0.00461849
-1.86245e-05
0.0046366
-1.75278e-05
0.00465372
-1.6506e-05
0.00466991
-1.55622e-05
0.00468527
-1.46965e-05
0.00469984
-1.39072e-05
0.00471372
-1.31914e-05
0.00472697
-1.25452e-05
0.00473964
-1.19639e-05
0.00475179
-1.14424e-05
0.00476348
-1.09755e-05
0.00477475
-1.05578e-05
0.00478565
-1.01847e-05
0.00479621
-9.85164e-06
0.00480647
-9.55438e-06
0.00481647
-9.28871e-06
0.00482622
-9.05044e-06
0.00483575
-8.83564e-06
0.00484508
-8.64082e-06
0.00485423
-8.46302e-06
0.00486321
-8.29975e-06
0.00487204
-8.14885e-06
0.00488072
-8.00825e-06
0.00488928
-7.87605e-06
0.00489771
-7.75063e-06
0.00490602
-7.6308e-06
0.00491423
-7.51572e-06
0.00492234
-7.40477e-06
0.00493035
-7.29731e-06
0.00493828
-7.1926e-06
0.00494612
-7.08985e-06
0.00495388
-6.98839e-06
0.00496156
-6.88786e-06
0.00496918
-6.78828e-06
0.00497673
-6.69064e-06
0.00498422
-6.59588e-06
0.00499165
-6.50483e-06
0.00499901
-6.41796e-06
0.00500632
-6.33536e-06
0.00501356
-6.25687e-06
0.00502075
-6.1822e-06
0.00502788
-6.111e-06
0.00503494
-6.04284e-06
0.00504195
-5.97722e-06
0.00504889
-5.91358e-06
0.00505577
-5.85145e-06
0.00506258
-5.79052e-06
0.00506933
-5.73074e-06
0.00507601
-5.67209e-06
0.00508262
-5.61447e-06
0.00508918
-5.5575e-06
0.00509566
-5.50075e-06
0.00510209
-5.44393e-06
0.00510845
-5.38711e-06
0.00511476
-5.3306e-06
0.00512101
-5.27468e-06
0.00512721
-5.21943e-06
0.00513337
-5.16477e-06
0.00513948
-5.11068e-06
0.00514556
-5.05738e-06
0.00515161
-5.00529e-06
0.00515762
-4.95488e-06
0.00516361
-4.90632e-06
0.00516958
-4.85946e-06
0.00517553
-4.81394e-06
0.00518145
-4.7694e-06
0.00518733
-4.72553e-06
0.00519318
-4.68201e-06
0.00519899
-4.63838e-06
0.00520475
-4.59408e-06
0.00521046
-4.54849e-06
0.0052161
-4.50111e-06
0.00522166
-4.45145e-06
0.00522712
-4.39921e-06
0.00523247
-4.34412e-06
0.00523772
-4.28605e-06
0.00524286
-4.22481e-06
0.00524789
-4.16031e-06
0.00525279
-4.09237e-06
0.00525756
-4.02061e-06
0.0052622
-3.94513e-06
0.0052667
-3.86451e-06
0.00527111
-3.78061e-06
0.00527542
-3.68924e-06
0.00527967
-3.5966e-06
0.00528384
-3.49153e-06
0.00528795
-3.38938e-06
0.00529195
-3.2643e-06
0.00529591
-3.15286e-06
0.00529978
-2.99702e-06
0.00530369
-2.88312e-06
0.0053075
-2.68016e-06
0.00531136
-2.58221e-06
0.005315
-2.2985e-06
0.00531863
-2.24906e-06
-1.8267e-06
0.00400058
-5.46112e-06
0.00400887
-1.62481e-05
0.00402236
-2.64583e-05
0.00404049
-3.56776e-05
0.00406267
-4.37326e-05
0.0040883
-5.05778e-05
0.00411674
-5.61813e-05
0.00414734
-6.0512e-05
0.00417946
-6.35973e-05
0.00421254
-6.55478e-05
0.00424608
-6.65057e-05
0.00427967
-6.66109e-05
0.00431294
-6.59974e-05
0.00434559
-6.478e-05
0.00437739
-6.30675e-05
0.00440813
-6.09682e-05
0.00443767
-5.85843e-05
0.00446593
-5.60032e-05
0.00449283
-5.32977e-05
0.00451837
-5.05551e-05
0.00454254
-4.78285e-05
0.00456538
-4.51615e-05
0.00458693
-4.25875e-05
0.00460726
-4.01304e-05
0.00462643
-3.78084e-05
0.00464452
-3.5634e-05
0.00466162
-3.36145e-05
0.0046778
-3.17521e-05
0.00469314
-3.00453e-05
0.00470772
-2.84895e-05
0.0047216
-2.70779e-05
0.00473486
-2.58021e-05
0.00474754
-2.46525e-05
0.00475972
-2.36191e-05
0.00477143
-2.26916e-05
0.00478273
-2.186e-05
0.00479365
-2.11148e-05
0.00480425
-2.04473e-05
0.00481454
-1.98498e-05
0.00482456
-1.93141e-05
0.00483434
-1.88321e-05
0.00484389
-1.83963e-05
0.00485325
-1.80006e-05
0.00486242
-1.76393e-05
0.00487142
-1.73077e-05
0.00488027
-1.70019e-05
0.00488897
-1.67179e-05
0.00489753
-1.64525e-05
0.00490597
-1.62029e-05
0.00491429
-1.59667e-05
0.0049225
-1.57419e-05
0.0049306
-1.5527e-05
0.0049386
-1.53207e-05
0.00494651
-1.51219e-05
0.00495433
-1.49292e-05
0.00496207
-1.47416e-05
0.00496972
-1.45586e-05
0.0049773
-1.43796e-05
0.00498481
-1.42049e-05
0.00499224
-1.40352e-05
0.00499961
-1.38707e-05
0.00500691
-1.37117e-05
0.00501415
-1.3558e-05
0.00502132
-1.34093e-05
0.00502842
-1.32652e-05
0.00503546
-1.31254e-05
0.00504243
-1.29894e-05
0.00504933
-1.28566e-05
0.00505617
-1.27265e-05
0.00506293
-1.25989e-05
0.00506962
-1.24734e-05
0.00507624
-1.23501e-05
0.00508279
-1.22287e-05
0.00508926
-1.21089e-05
0.00509566
-1.19904e-05
0.00510199
-1.18726e-05
0.00510825
-1.17554e-05
0.00511443
-1.16386e-05
0.00512056
-1.15224e-05
0.00512662
-1.14069e-05
0.00513262
-1.12921e-05
0.00513858
-1.1178e-05
0.00514448
-1.10651e-05
0.00515033
-1.09536e-05
0.00515614
-1.0844e-05
0.00516192
-1.07364e-05
0.00516766
-1.06309e-05
0.00517337
-1.05274e-05
0.00517905
-1.04255e-05
0.00518469
-1.03249e-05
0.00519029
-1.02251e-05
0.00519585
-1.01251e-05
0.00520136
-1.00238e-05
0.00520681
-9.92039e-06
0.00521221
-9.81381e-06
0.00521752
-9.70351e-06
0.00522275
-9.58884e-06
0.00522788
-9.46933e-06
0.0052329
-9.3442e-06
0.00523779
-9.21284e-06
0.00524258
-9.0747e-06
0.00524724
-8.92994e-06
0.00525178
-8.7784e-06
0.00525618
-8.62015e-06
0.00526045
-8.45487e-06
0.00526458
-8.28078e-06
0.00526861
-8.10024e-06
0.00527254
-7.90639e-06
0.0052764
-7.70952e-06
0.00528019
-7.48951e-06
0.00528391
-7.27494e-06
0.00528754
-7.01727e-06
0.00529112
-6.78872e-06
0.00529461
-6.47465e-06
0.00529814
-6.24998e-06
0.00530156
-5.84663e-06
0.00530504
-5.66702e-06
0.00530831
-5.11037e-06
0.0053116
-5.04444e-06
-4.19674e-06
0.00400079
-8.45832e-06
0.00400984
-2.53081e-05
0.00402433
-4.09607e-05
0.00404359
-5.4948e-05
0.00406701
-6.7165e-05
0.004094
-7.75706e-05
0.00412386
-8.60503e-05
0.00415587
-9.25317e-05
0.00418936
-9.70929e-05
0.00422375
-9.99363e-05
0.00425852
-0.000101285
0.00429326
-0.000101354
0.0043276
-0.000100342
0.00436123
-9.8413e-05
0.00439388
-9.5732e-05
0.00442537
-9.24648e-05
0.00445554
-8.87655e-05
0.0044843
-8.47708e-05
0.00451159
-8.06019e-05
0.0045374
-7.63671e-05
0.00456171
-7.21537e-05
0.00458457
-6.80313e-05
0.00460602
-6.40537e-05
0.00462614
-6.02611e-05
0.004645
-5.66817e-05
0.00466269
-5.33339e-05
0.00467929
-5.02273e-05
0.00469489
-4.73642e-05
0.00470958
-4.47411e-05
0.00472343
-4.235e-05
0.00473653
-4.01796e-05
0.00474894
-3.82162e-05
0.00476073
-3.64445e-05
0.00477196
-3.48486e-05
0.00478268
-3.34123e-05
0.00479293
-3.21204e-05
0.00480277
-3.09583e-05
0.00481223
-2.99132e-05
0.00482135
-2.8973e-05
0.00483016
-2.81244e-05
0.00483868
-2.73552e-05
0.00484693
-2.66547e-05
0.00485494
-2.60141e-05
0.00486272
-2.54253e-05
0.00487029
-2.48805e-05
0.00487766
-2.43743e-05
0.00488483
-2.39008e-05
0.00489182
-2.34557e-05
0.00489864
-2.30353e-05
0.00490529
-2.26361e-05
0.00491179
-2.22552e-05
0.00491813
-2.18903e-05
0.00492433
-2.15392e-05
0.00493039
-2.12003e-05
0.00493631
-2.08718e-05
0.0049421
-2.05525e-05
0.00494777
-2.02414e-05
0.00495332
-1.99378e-05
0.00495875
-1.96413e-05
0.00496406
-1.93523e-05
0.00496926
-1.90706e-05
0.00497436
-1.87964e-05
0.00497934
-1.85292e-05
0.00498422
-1.82687e-05
0.00498899
-1.80144e-05
0.00499365
-1.77655e-05
0.0049982
-1.75214e-05
0.00500265
-1.72819e-05
0.00500699
-1.70467e-05
0.00501121
-1.68153e-05
0.00501533
-1.65878e-05
0.00501934
-1.63639e-05
0.00502324
-1.61435e-05
0.00502703
-1.59262e-05
0.00503072
-1.57114e-05
0.0050343
-1.54985e-05
0.00503778
-1.52874e-05
0.00504116
-1.50781e-05
0.00504445
-1.48707e-05
0.00504764
-1.46654e-05
0.00505076
-1.44621e-05
0.00505379
-1.42609e-05
0.00505675
-1.40622e-05
0.00505963
-1.38665e-05
0.00506246
-1.36743e-05
0.00506522
-1.34858e-05
0.00506792
-1.33007e-05
0.00507056
-1.31187e-05
0.00507315
-1.29397e-05
0.00507567
-1.27631e-05
0.00507813
-1.25884e-05
0.00508052
-1.24143e-05
0.00508284
-1.22395e-05
0.00508509
-1.20624e-05
0.00508724
-1.18821e-05
0.00508931
-1.16977e-05
0.00509127
-1.15089e-05
0.00509312
-1.13151e-05
0.00509486
-1.1116e-05
0.00509649
-1.0911e-05
0.00509801
-1.06995e-05
0.00509942
-1.04815e-05
0.00510073
-1.02567e-05
0.00510194
-1.00258e-05
0.00510305
-9.78766e-06
0.00510409
-9.54271e-06
0.00510507
-9.28981e-06
0.00510601
-9.02702e-06
0.00510693
-8.75679e-06
0.00510782
-8.46866e-06
0.00510868
-8.17783e-06
0.00510953
-7.85207e-06
0.00511039
-7.54239e-06
0.00511124
-7.15989e-06
0.00511212
-6.84888e-06
0.00511296
-6.37546e-06
0.0051138
-6.11187e-06
0.00511454
-5.47536e-06
0.00511525
-5.35347e-06
-4.39276e-06
0.00400114
-1.17878e-05
0.00401133
-3.55122e-05
0.00402754
-5.71799e-05
0.00404904
-7.64522e-05
0.00407536
-9.35004e-05
0.00410583
-0.000108041
0.00413943
-0.000119663
0.00417509
-0.000128198
0.00421181
-0.000133817
0.0042487
-0.000136834
0.00428502
-0.000137612
0.00432019
-0.000136525
0.00435372
-0.000133878
0.00438527
-0.000129968
0.00441462
-0.000125091
0.00444166
-0.000119515
0.00446636
-0.000113476
0.00448875
-0.000107171
0.0045089
-0.000100763
0.00452692
-9.43904e-05
0.00454291
-8.816e-05
0.00455702
-8.21576e-05
0.0045694
-7.64433e-05
0.00458018
-7.10574e-05
0.00458952
-6.60259e-05
0.00459753
-6.13612e-05
0.00460436
-5.7065e-05
0.00461012
-5.31305e-05
0.00461491
-4.95449e-05
0.00461885
-4.62904e-05
0.00462201
-4.33461e-05
0.00462448
-4.06892e-05
0.00462633
-3.82956e-05
0.00462762
-3.61412e-05
0.0046284
-3.42014e-05
0.00462873
-3.24528e-05
0.00462865
-3.08776e-05
0.00462819
-2.94628e-05
0.0046274
-2.81879e-05
0.00462631
-2.70335e-05
0.00462493
-2.59839e-05
0.0046233
-2.50262e-05
0.00462143
-2.41487e-05
0.00461934
-2.33418e-05
0.00461705
-2.25976e-05
0.00461457
-2.19044e-05
0.00461191
-2.12569e-05
0.00460909
-2.06501e-05
0.00460612
-2.00789e-05
0.00460301
-1.95391e-05
0.00459976
-1.90272e-05
0.00459639
-1.854e-05
0.00459291
-1.8075e-05
0.00458933
-1.76299e-05
0.00458565
-1.72025e-05
0.00458188
-1.67914e-05
0.00457803
-1.6395e-05
0.0045741
-1.60125e-05
0.0045701
-1.56429e-05
0.00456604
-1.52858e-05
0.00456192
-1.49408e-05
0.00455774
-1.46074e-05
0.00455351
-1.42854e-05
0.00454922
-1.39743e-05
0.00454489
-1.3673e-05
0.00454051
-1.338e-05
0.00453609
-1.30948e-05
0.00453162
-1.28175e-05
0.00452712
-1.25478e-05
0.00452257
-1.22853e-05
0.004518
-1.20297e-05
0.00451339
-1.17807e-05
0.00450876
-1.15383e-05
0.0045041
-1.13018e-05
0.00449942
-1.10708e-05
0.00449473
-1.08448e-05
0.00449004
-1.06235e-05
0.00448533
-1.04068e-05
0.00448063
-1.01946e-05
0.00447594
-9.98704e-06
0.00447125
-9.7841e-06
0.00446658
-9.586e-06
0.00446193
-9.393e-06
0.0044573
-9.20546e-06
0.00445269
-9.02365e-06
0.0044481
-8.84762e-06
0.00444353
-8.67718e-06
0.00443899
-8.51193e-06
0.00443446
-8.35134e-06
0.00442994
-8.19475e-06
0.00442543
-8.04127e-06
0.00442092
-7.88978e-06
0.00441642
-7.73907e-06
0.00441192
-7.58808e-06
0.00440743
-7.43602e-06
0.00440294
-7.28244e-06
0.00439846
-7.1271e-06
0.004394
-6.96986e-06
0.00438958
-6.81066e-06
0.0043852
-6.64929e-06
0.00438088
-6.48565e-06
0.00437664
-6.31946e-06
0.00437248
-6.1507e-06
0.00436842
-5.97909e-06
0.00436446
-5.80454e-06
0.00436062
-5.62602e-06
0.00435689
-5.44322e-06
0.00435327
-5.25341e-06
0.00434975
-5.05688e-06
0.00434633
-4.84933e-06
0.00434299
-4.6331e-06
0.00433974
-4.40223e-06
0.00433652
-4.16249e-06
0.0043334
-3.90301e-06
0.00433026
-3.64091e-06
0.00432725
-3.34459e-06
0.00432415
-3.07396e-06
0.00432129
-2.71772e-06
0.00431828
-2.4987e-06
-2.04691e-06
0.00400514
-1.90886e-05
0.0040227
-5.30853e-05
0.0040472
-8.16929e-05
0.00407577
-0.000105028
0.00410532
-0.000123057
0.00413285
-0.000135586
0.00415613
-0.000142945
0.00417381
-0.000145887
0.00418538
-0.000145391
0.00419075
-0.000142209
0.00419025
-0.000137117
0.00418448
-0.000130757
0.00417402
-0.000123426
0.00415955
-0.000115506
0.00414176
-0.000107308
0.00412129
-9.9055e-05
0.00409873
-9.09195e-05
0.00407458
-8.30316e-05
0.00404929
-7.54873e-05
0.00402324
-6.83557e-05
0.00399675
-6.16812e-05
0.00397008
-5.5491e-05
0.00394342
-4.97945e-05
0.00391694
-4.45884e-05
0.00389076
-3.98613e-05
0.00386499
-3.55941e-05
0.00383968
-3.17623e-05
0.00381488
-2.83383e-05
0.00379062
-2.52924e-05
0.00376692
-2.2594e-05
0.00374378
-2.02122e-05
0.0037212
-1.81167e-05
0.00369918
-1.62783e-05
0.0036777
-1.46698e-05
0.00365676
-1.32645e-05
0.00363633
-1.20298e-05
0.00361639
-1.09429e-05
0.00359694
-1.00181e-05
0.00357796
-9.21587e-06
0.00355944
-8.51788e-06
0.00354136
-7.91068e-06
0.0035237
-7.38236e-06
0.00350646
-6.92182e-06
0.00348963
-6.51958e-06
0.00347319
-6.16707e-06
0.00345712
-5.85666e-06
0.00344144
-5.58265e-06
0.00342612
-5.34025e-06
0.00341116
-5.12508e-06
0.00339654
-4.93324e-06
0.00338228
-4.76133e-06
0.00336834
-4.60648e-06
0.00335473
-4.46627e-06
0.00334145
-4.3386e-06
0.00332847
-4.22174e-06
0.00331579
-4.11422e-06
0.00330341
-4.01485e-06
0.00329132
-3.92269e-06
0.0032795
-3.83695e-06
0.00326796
-3.75699e-06
0.00325668
-3.68225e-06
0.00324567
-3.61221e-06
0.00323491
-3.54641e-06
0.0032244
-3.48539e-06
0.00321414
-3.42917e-06
0.00320413
-3.37274e-06
0.00319435
-3.31775e-06