/*--------------------------------*- C++ -*----------------------------------*\
  =========                 |
  \\      /  F ield         | OpenFOAM: The Open Source CFD Toolbox
   \\    /   O peration     | Website:  https://openfoam.org
    \\  /    A nd           | Version:  7
     \\/     M anipulation  |
\*---------------------------------------------------------------------------*/
FoamFile
{
    version     2.0;
    format      ascii;
    class       volScalarField;
    location    "0.0475";
    object      nut;
}
// * * * * * * * * * * * * * * * * * * * * * * * * * * * * * * * * * * * * * //

dimensions      [0 2 -1 0 0 0 0];

internalField   nonuniform List<scalar> 
1440
(
0.000133593
0.000310575
0.000496693
0.000653466
0.000777272
0.00086986
0.000934632
0.00097707
0.00100113
0.00101262
0.00101185
0.00100741
0.000997463
0.000983671
0.000968157
0.000951786
0.000935171
0.000918749
0.000902808
0.000887546
0.00087307
0.000859442
0.00084668
0.000834775
0.0008237
0.000813414
0.000803871
0.000795018
0.000786802
0.000779169
0.000772068
0.000765449
0.000759266
0.000753476
0.00074804
0.000742927
0.000738103
0.000733541
0.000729213
0.000725095
0.000721164
0.0007174
0.000713788
0.000710322
0.000706993
0.000703791
0.000700701
0.000697704
0.00069479
0.000691951
0.000689191
0.00068651
0.00068391
0.000681385
0.000678925
0.000676519
0.000674158
0.000671838
0.000669555
0.000667308
0.0006651
0.000662929
0.000660797
0.000658703
0.000656647
0.000654629
0.000652649
0.000650706
0.000648801
0.000646934
0.000645103
0.00064331
0.000641554
0.000639833
0.000638146
0.000636494
0.000634874
0.000633286
0.000631728
0.0006302
0.0006287
0.000627227
0.00062578
0.000624359
0.000622964
0.000621594
0.000620249
0.00061893
0.000617636
0.000616368
0.000615127
0.000613913
0.000612726
0.000611566
0.000610433
0.000609328
0.000608249
0.000607198
0.000606172
0.000605174
0.000604201
0.000603255
0.000602336
0.000601445
0.000600582
0.000599748
0.000598947
0.000598177
0.000597443
0.000596743
0.000596086
0.000595461
0.000594889
0.000594341
0.000593863
0.000593386
0.000593014
0.000592585
0.000592359
0.000591896
6.51283e-06
3.02169e-05
6.77136e-05
0.000116154
0.000177614
0.000241516
0.000300239
0.000352827
0.000396707
0.000433277
0.00046186
0.000484262
0.000501376
0.000514012
0.000523051
0.00052938
0.000533534
0.000536196
0.000537604
0.000538332
0.0005383
0.0005381
0.000537657
0.000537062
0.00053643
0.000535809
0.000535232
0.000534716
0.000534269
0.000533893
0.000533586
0.000533342
0.000533155
0.000533015
0.000532913
0.00053284
0.000532787
0.000532747
0.000532714
0.000532685
0.000532655
0.000532623
0.000532584
0.000532534
0.000532469
0.000532386
0.000532286
0.000532171
0.000532046
0.00053191
0.000531762
0.000531598
0.000531414
0.00053121
0.000530988
0.000530752
0.000530508
0.000530259
0.000530008
0.000529756
0.000529502
0.000529243
0.000528977
0.000528703
0.00052842
0.000528127
0.000527824
0.000527509
0.000527184
0.000526849
0.000526503
0.000526147
0.000525782
0.000525409
0.000525027
0.000524638
0.000524243
0.000523842
0.000523437
0.000523027
0.000522615
0.000522201
0.000521786
0.000521369
0.000520952
0.000520534
0.000520116
0.000519698
0.00051928
0.000518862
0.000518443
0.000518024
0.000517605
0.000517186
0.000516768
0.000516351
0.000515935
0.000515521
0.000515111
0.000514704
0.000514301
0.000513902
0.000513509
0.000513119
0.000512737
0.000512355
0.000511982
0.000511604
0.000511239
0.00051086
0.000510506
0.000510118
0.000509782
0.000509374
0.000509068
0.000508628
0.000508365
0.000507891
0.000507662
0.000507104
1.58624e-06
2.2126e-06
5.00095e-06
1.05082e-05
1.93014e-05
3.12866e-05
4.69027e-05
6.51387e-05
8.38671e-05
0.000102775
0.000120904
0.000137942
0.000153557
0.000167689
0.000180223
0.000191284
0.000200893
0.000209235
0.000216384
0.000222524
0.00022775
0.000232205
0.000236003
0.000239242
0.000242012
0.000244394
0.000246458
0.000248264
0.000249863
0.000251298
0.000252608
0.000253823
0.000254971
0.000256073
0.000257146
0.000258205
0.000259261
0.000260323
0.000261399
0.000262495
0.000263614
0.000264759
0.000265934
0.000267136
0.000268368
0.000269627
0.000270914
0.000272228
0.000273569
0.000274935
0.000276324
0.000277733
0.00027916
0.000280603
0.00028206
0.000283529
0.000285011
0.000286504
0.000288008
0.000289521
0.000291041
0.000292567
0.000294096
0.000295627
0.000297157
0.000298685
0.000300208
0.000301725
0.000303234
0.000304733
0.000306221
0.000307697
0.00030916
0.000310608
0.00031204
0.000313456
0.000314856
0.000316238
0.000317603
0.000318949
0.000320278
0.000321587
0.00032288
0.000324151
0.000325406
0.000326638
0.000327852
0.000329043
0.000330214
0.000331362
0.000332488
0.000333591
0.000334667
0.000335723
0.000336748
0.000337755
0.000338729
0.000339684
0.000340607
0.000341512
0.000342384
0.000343241
0.000344062
0.000344867
0.000345638
0.000346389
0.00034711
0.000347805
0.000348471
0.000349105
0.000349708
0.000350272
0.000350799
0.000351294
0.000351732
0.000352171
0.000352488
0.000352887
0.000353063
0.000353432
1.57727e-06
1.58213e-06
1.6093e-06
1.74821e-06
2.23154e-06
3.31971e-06
5.16455e-06
7.80479e-06
1.13435e-05
1.56079e-05
2.03034e-05
2.53453e-05
3.05219e-05
3.57661e-05
4.09477e-05
4.60015e-05
5.08441e-05
5.5445e-05
5.9779e-05
6.3842e-05
6.76277e-05
7.11333e-05
7.43668e-05
7.73475e-05
8.0098e-05
8.26341e-05
8.49656e-05
8.7106e-05
8.90758e-05
9.08979e-05
9.25888e-05
9.41575e-05
9.56123e-05
9.69663e-05
9.82344e-05
9.94287e-05
0.000100557
0.000101625
0.00010264
0.000103608
0.000104536
0.00010543
0.000106296
0.00010714
0.000107961
0.000108764
0.000109551
0.000110327
0.000111095
0.000111859
0.000112619
0.000113377
0.000114133
0.000114889
0.000115645
0.000116406
0.000117174
0.00011795
0.000118732
0.000119521
0.000120318
0.000121127
0.000121947
0.000122779
0.000123618
0.000124466
0.000125322
0.000126187
0.000127064
0.000127948
0.000128842
0.000129739
0.000130646
0.000131556
0.00013248
0.000133407
0.000134344
0.000135283
0.000136227
0.000137179
0.000138139
0.000139111
0.000140081
0.000141066
0.00014204
0.000143037
0.000144021
0.000145036
0.000146026
0.000147045
0.000148034
0.000149054
0.000150045
0.000151066
0.000152055
0.00015307
0.000154049
0.000155053
0.000156021
0.000157016
0.000157971
0.000158957
0.000159889
0.000160873
0.000161775
0.000162752
0.000163617
0.000164584
0.000165407
0.000166369
0.000167135
0.000168092
0.000168777
0.000169709
0.000170314
0.000171222
0.000171742
0.000172626
0.000173044
0.000174018
1.57674e-06
1.57888e-06
1.58448e-06
1.59642e-06
1.61717e-06
1.65235e-06
1.71352e-06
1.82926e-06
2.04537e-06
2.41813e-06
2.89853e-06
3.65625e-06
4.54537e-06
5.43306e-06
6.42296e-06
7.59113e-06
8.79228e-06
9.89586e-06
1.09765e-05
1.21427e-05
1.33458e-05
1.44658e-05
1.54742e-05
1.64545e-05
1.74813e-05
1.85177e-05
1.94592e-05
2.02854e-05
2.10918e-05
2.19472e-05
2.27986e-05
2.35672e-05
2.42579e-05
2.4936e-05
2.56348e-05
2.63324e-05
2.69876e-05
2.75894e-05
2.81691e-05
2.8761e-05
2.9359e-05
2.99302e-05
3.04622e-05
3.09778e-05
3.14995e-05
3.20278e-05
3.25458e-05
3.30394e-05
3.35035e-05
3.39589e-05
3.44326e-05
3.49302e-05
3.54144e-05
3.58512e-05
3.62537e-05
3.66728e-05
3.71356e-05
3.7616e-05
3.80653e-05
3.8467e-05
3.88485e-05
3.92546e-05
3.97028e-05
4.01702e-05
4.06141e-05
4.10101e-05
4.13792e-05
4.17651e-05
4.2199e-05
4.26603e-05
4.31046e-05
4.34979e-05
4.38596e-05
4.42292e-05
4.46449e-05
4.50927e-05
4.5536e-05
4.59391e-05
4.63025e-05
4.66616e-05
4.70513e-05
4.74852e-05
4.7929e-05
4.83563e-05
4.87362e-05
4.91006e-05
4.9468e-05
4.98833e-05
5.03207e-05
5.07651e-05
5.11678e-05
5.15464e-05
5.19145e-05
5.23067e-05
5.27148e-05
5.31333e-05
5.35488e-05
5.39534e-05
5.43457e-05
5.47113e-05
5.50738e-05
5.54418e-05
5.5842e-05
5.62491e-05
5.6645e-05
5.70046e-05
5.73485e-05
5.76859e-05
5.80402e-05
5.84085e-05
5.87494e-05
5.9123e-05
5.94026e-05
5.9759e-05
5.99869e-05
6.03194e-05
6.05142e-05
6.08665e-05
6.10329e-05
6.14088e-05
1.57648e-06
1.57796e-06
1.58268e-06
1.59257e-06
1.61353e-06
1.64065e-06
1.66433e-06
1.71023e-06
1.77107e-06
1.81241e-06
1.84681e-06
1.9145e-06
2.00491e-06
2.07373e-06
2.11928e-06
2.19089e-06
2.31741e-06
2.44831e-06
2.52793e-06
2.60263e-06
2.75068e-06
2.92179e-06
3.04513e-06
3.1335e-06
3.26002e-06
3.4488e-06
3.63017e-06
3.73499e-06
3.81451e-06
3.96559e-06
4.17131e-06
4.34038e-06
4.44057e-06
4.52989e-06
4.67202e-06
4.85778e-06
5.02596e-06
5.14259e-06
5.23761e-06
5.36646e-06
5.53627e-06
5.69959e-06
5.8234e-06
5.92765e-06
6.0501e-06
6.20373e-06
6.37035e-06
6.51526e-06
6.62042e-06
6.71665e-06
6.85305e-06
7.03389e-06
7.20652e-06
7.32848e-06
7.41488e-06
7.51955e-06
7.67492e-06
7.86292e-06
8.03493e-06
8.15721e-06
8.24352e-06
8.34527e-06
8.50254e-06
8.70165e-06
8.88764e-06
9.01755e-06
9.10373e-06
9.19993e-06
9.3519e-06
9.55097e-06
9.74646e-06
9.89161e-06
9.98716e-06
1.00767e-05
1.02102e-05
1.03966e-05
1.0598e-05
1.07644e-05
1.08762e-05
1.09622e-05
1.10722e-05
1.12363e-05
1.14353e-05
1.16239e-05
1.17628e-05
1.18595e-05
1.19533e-05
1.20883e-05
1.22676e-05
1.24611e-05
1.26289e-05
1.27553e-05
1.28565e-05
1.2963e-05
1.31006e-05
1.32662e-05
1.34444e-05
1.36069e-05
1.37473e-05
1.3856e-05
1.39571e-05
1.40637e-05
1.42073e-05
1.43704e-05
1.45388e-05
1.46688e-05
1.47744e-05
1.48575e-05
1.49659e-05
1.50922e-05
1.52324e-05
1.53731e-05
1.54758e-05
1.55827e-05
1.56452e-05
1.57418e-05
1.57974e-05
1.5922e-05
1.59863e-05
1.61325e-05
1.57648e-06
1.57795e-06
1.58268e-06
1.5938e-06
1.61265e-06
1.63284e-06
1.67317e-06
1.72135e-06
1.75619e-06
1.79595e-06
1.86288e-06
1.93894e-06
1.99357e-06
2.03509e-06
2.11005e-06
2.22823e-06
2.32733e-06
2.39009e-06
2.47111e-06
2.59898e-06
2.73801e-06
2.85064e-06
2.94348e-06
3.04976e-06
3.18451e-06
3.32622e-06
3.44495e-06
3.53951e-06
3.64107e-06
3.77094e-06
3.91063e-06
4.02663e-06
4.1153e-06
4.20789e-06
4.32847e-06
4.46303e-06
4.57907e-06
4.66846e-06
4.75665e-06
4.8701e-06
5.00207e-06
5.12147e-06
5.21287e-06
5.29495e-06
5.40112e-06
5.53569e-06
5.6683e-06
5.7682e-06
5.84192e-06
5.92878e-06
6.05351e-06
6.19924e-06
6.32735e-06
6.41454e-06
6.47976e-06
6.56621e-06
6.69551e-06
6.84481e-06
6.97333e-06
7.06211e-06
7.124e-06
7.19627e-06
7.30961e-06
7.45822e-06
7.60329e-06
7.70397e-06
7.75968e-06
7.81445e-06
7.91288e-06
8.05692e-06
8.20798e-06
8.32213e-06
8.38938e-06
8.44291e-06
8.52771e-06
8.65594e-06
8.80164e-06
8.92606e-06
9.00919e-06
9.06879e-06
9.1435e-06
9.25833e-06
9.39852e-06
9.53171e-06
9.63152e-06
9.70018e-06
9.76163e-06
9.85095e-06
9.97839e-06
1.01203e-05
1.02403e-05
1.03282e-05
1.04016e-05
1.04808e-05
1.05746e-05
1.06825e-05
1.08072e-05
1.09357e-05
1.10488e-05
1.11277e-05
1.11906e-05
1.12645e-05
1.13732e-05
1.14997e-05
1.1622e-05
1.17179e-05
1.18008e-05
1.18749e-05
1.19618e-05
1.20511e-05
1.21571e-05
1.22581e-05
1.23584e-05
1.24296e-05
1.24868e-05
1.25379e-05
1.25928e-05
1.26845e-05
1.27364e-05
1.28212e-05
1.57673e-06
1.57886e-06
1.58443e-06
1.59603e-06
1.61726e-06
1.65256e-06
1.71253e-06
1.82543e-06
2.0386e-06
2.38082e-06
2.92486e-06
3.63166e-06
4.43535e-06
5.35661e-06
6.39756e-06
7.49476e-06
8.58986e-06
9.68744e-06
1.0804e-05
1.19245e-05
1.30129e-05
1.4053e-05
1.50507e-05
1.60184e-05
1.69605e-05
1.78689e-05
1.87289e-05
1.95344e-05
2.03026e-05
2.10555e-05
2.17933e-05
2.24947e-05
2.31485e-05
2.37711e-05
2.43865e-05
2.49991e-05
2.55911e-05
2.61496e-05
2.66826e-05
2.72095e-05
2.77401e-05
2.82612e-05
2.87561e-05
2.92276e-05
2.9698e-05
3.01817e-05
3.06626e-05
3.11136e-05
3.15324e-05
3.19508e-05
3.23971e-05
3.28595e-05
3.32971e-05
3.36872e-05
3.4053e-05
3.44417e-05
3.48702e-05
3.53096e-05
3.57123e-05
3.60642e-05
3.63957e-05
3.67561e-05
3.71608e-05
3.75802e-05
3.79668e-05
3.83005e-05
3.86099e-05
3.8944e-05
3.93277e-05
3.97363e-05
4.01218e-05
4.04545e-05
4.07557e-05
4.10716e-05
4.14372e-05
4.18378e-05
4.22297e-05
4.25761e-05
4.28802e-05
4.31842e-05
4.35242e-05
4.39104e-05
4.43052e-05
4.4679e-05
4.50055e-05
4.5316e-05
4.56321e-05
4.59953e-05
4.6384e-05
4.67781e-05
4.71327e-05
4.74648e-05
4.77892e-05
4.81346e-05
4.8494e-05
4.88648e-05
4.92403e-05
4.96127e-05
4.99686e-05
5.02949e-05
5.06158e-05
5.09513e-05
5.13172e-05
5.16941e-05
5.2056e-05
5.23911e-05
5.27144e-05
5.3034e-05
5.3368e-05
5.36995e-05
5.40322e-05
5.43672e-05
5.46661e-05
5.49813e-05
5.52015e-05
5.54985e-05
5.56833e-05
5.60083e-05
5.61578e-05
5.64838e-05
1.57726e-06
1.58206e-06
1.60888e-06
1.7459e-06
2.22375e-06
3.30169e-06
5.13324e-06
7.74144e-06
1.12771e-05
1.54981e-05
2.01625e-05
2.51505e-05
3.02902e-05
3.54802e-05
4.06053e-05
4.55899e-05
5.03662e-05
5.48973e-05
5.91589e-05
6.31392e-05
6.68338e-05
7.02468e-05
7.33903e-05
7.62808e-05
7.8935e-05
8.1371e-05
8.36063e-05
8.56588e-05
8.75465e-05
8.92875e-05
9.08979e-05
9.23921e-05
9.37816e-05
9.50789e-05
9.62949e-05
9.74413e-05
9.85271e-05
9.95604e-05
0.000100547
0.000101492
0.000102403
0.000103286
0.000104145
0.000104984
0.000105806
0.000106613
0.000107409
0.000108196
0.000108976
0.000109752
0.000110526
0.0001113
0.000112071
0.000112841
0.000113612
0.000114387
0.000115167
0.000115952
0.000116739
0.000117529
0.000118322
0.000119123
0.000119932
0.000120749
0.000121572
0.0001224
0.000123234
0.000124078
0.000124932
0.000125795
0.000126666
0.000127541
0.000128424
0.000129314
0.000130217
0.000131126
0.000132043
0.000132962
0.000133885
0.000134817
0.000135755
0.000136705
0.000137655
0.000138617
0.000139568
0.000140541
0.000141502
0.000142491
0.000143461
0.000144457
0.000145427
0.000146425
0.000147396
0.000148396
0.00014937
0.000150368
0.000151334
0.00015232
0.000153276
0.000154253
0.000155199
0.000156171
0.000157094
0.000158065
0.000158963
0.000159934
0.000160796
0.000161757
0.000162583
0.000163544
0.000164317
0.000165274
0.000165967
0.000166897
0.000167505
0.000168406
0.000168929
0.000169802
0.000170212
0.000171162
1.58613e-06
2.206e-06
4.97652e-06
1.04564e-05
1.92178e-05
3.11472e-05
4.67267e-05
6.4854e-05
8.35267e-05
0.000102356
0.000120413
0.000137375
0.000152935
0.000167
0.000179495
0.000190503
0.000200081
0.00020838
0.000215507
0.000221615
0.000226827
0.000231266
0.000235055
0.00023829
0.000241065
0.00024346
0.000245543
0.000247377
0.000249013
0.000250494
0.000251857
0.000253136
0.000254353
0.000255532
0.000256689
0.00025784
0.000258992
0.000260158
0.000261342
0.000262551
0.000263787
0.000265053
0.000266349
0.000267676
0.000269033
0.00027042
0.000271834
0.000273275
0.00027474
0.000276228
0.000277735
0.000279259
0.000280799
0.000282351
0.000283914
0.000285484
0.000287061
0.000288641
0.000290222
0.000291804
0.000293383
0.000294959
0.000296531
0.000298097
0.000299655
0.000301206
0.000302748
0.00030428
0.000305801
0.00030731
0.000308805
0.000310288
0.000311755
0.000313206
0.000314641
0.000316058
0.000317457
0.000318837
0.000320198
0.000321539
0.000322862
0.000324163
0.000325446
0.000326707
0.00032795
0.000329171
0.000330373
0.000331553
0.000332714
0.000333853
0.000334969
0.000336066
0.000337135
0.000338186
0.000339207
0.000340211
0.000341182
0.000342136
0.000343057
0.000343963
0.000344834
0.000345693
0.000346516
0.000347327
0.000348104
0.000348866
0.000349596
0.000350309
0.000350991
0.000351648
0.000352271
0.000352865
0.000353412
0.000353939
0.000354393
0.000354863
0.00035519
0.000355614
0.0003558
0.000356191
6.49175e-06
3.01053e-05
6.75105e-05
0.000115838
0.000177273
0.00024087
0.000299658
0.000352036
0.000395946
0.000432399
0.000460921
0.000483355
0.000500451
0.000513126
0.000522244
0.000528658
0.000532939
0.000535723
0.000537302
0.000538173
0.00053838
0.000538291
0.000538055
0.000537652
0.000537213
0.000536784
0.000536397
0.000536066
0.000535802
0.0005356
0.000535465
0.00053538
0.000535349
0.000535358
0.000535385
0.000535442
0.000535511
0.000535589
0.000535666
0.000535743
0.000535807
0.000535868
0.000535905
0.000535938
0.000535938
0.000535928
0.000535903
0.000535852
0.000535781
0.000535688
0.000535576
0.000535443
0.000535291
0.000535119
0.00053493
0.000534723
0.0005345
0.000534262
0.000534009
0.000533743
0.000533465
0.000533177
0.000532878
0.000532571
0.000532256
0.000531935
0.000531607
0.000531274
0.000530936
0.000530593
0.000530245
0.000529892
0.000529535
0.000529172
0.000528805
0.000528434
0.000528059
0.00052768
0.000527298
0.000526913
0.000526526
0.000526139
0.00052575
0.000525361
0.000524973
0.000524585
0.000524198
0.000523813
0.000523428
0.000523044
0.000522662
0.00052228
0.000521898
0.000521518
0.000521138
0.000520759
0.000520382
0.000520007
0.000519635
0.000519266
0.0005189
0.000518538
0.000518182
0.00051783
0.000517484
0.000517141
0.000516805
0.000516468
0.00051614
0.000515802
0.000515484
0.000515137
0.000514832
0.000514464
0.000514184
0.000513783
0.000513542
0.00051311
0.000512901
0.000512396
0.000133573
0.000310359
0.000496606
0.000653166
0.000776841
0.000868974
0.000933378
0.000975009
0.000998641
0.00100885
0.00100765
0.00100251
0.000991467
0.000976899
0.000960664
0.000943645
0.000926464
0.000909556
0.000893208
0.00087761
0.000862865
0.000849028
0.000836113
0.000824103
0.000812963
0.000802647
0.000793101
0.000784266
0.000776084
0.000768498
0.000761451
0.000754891
0.00074877
0.000743042
0.000737667
0.000732606
0.000727828
0.0007233
0.000718996
0.000714893
0.000710973
0.000707219
0.000703614
0.000700146
0.000696802
0.000693571
0.000690445
0.000687417
0.00068448
0.000681628
0.000678856
0.000676161
0.000673538
0.000670984
0.000668497
0.000666073
0.00066371
0.000661406
0.00065916
0.000656968
0.00065483
0.000652742
0.000650703
0.000648711
0.000646764
0.00064486
0.000642998
0.000641177
0.000639395
0.000637651
0.000635944
0.000634273
0.000632637
0.000631036
0.000629469
0.000627935
0.000626433
0.000624963
0.000623523
0.000622112
0.00062073
0.000619375
0.000618047
0.000616745
0.000615468
0.000614215
0.000612986
0.000611781
0.0006106
0.000609442
0.000608309
0.000607201
0.000606116
0.000605057
0.000604022
0.000603011
0.000602026
0.000601064
0.000600126
0.000599211
0.000598319
0.00059745
0.000596603
0.000595779
0.000594979
0.000594203
0.000593454
0.000592732
0.000592042
0.000591383
0.000590763
0.000590175
0.000589637
0.000589127
0.000588682
0.000588249
0.000587907
0.000587534
0.000587328
0.000586939
)
;

boundaryField
{
    upperWall
    {
        type            zeroGradient;
    }
    lowerWall
    {
        type            zeroGradient;
    }
    inlet
    {
        type            zeroGradient;
    }
    outlet
    {
        type            zeroGradient;
    }
    frontAndBack
    {
        type            empty;
    }
}


// ************************************************************************* //
