/*--------------------------------*- C++ -*----------------------------------*\
  =========                 |
  \\      /  F ield         | OpenFOAM: The Open Source CFD Toolbox
   \\    /   O peration     | Website:  https://openfoam.org
    \\  /    A nd           | Version:  7
     \\/     M anipulation  |
\*---------------------------------------------------------------------------*/
FoamFile
{
    version     2.0;
    format      ascii;
    class       surfaceScalarField;
    location    "1.68";
    object      phi_0;
}
// * * * * * * * * * * * * * * * * * * * * * * * * * * * * * * * * * * * * * //

dimensions      [1 0 -1 0 0 0 0];

internalField   nonuniform List<scalar> 
13265
(
0.00259787
0.0010877
1.35878e-05
0.00199366
0.000598172
7.01422e-06
0.00159984
0.000382991
1.17965e-05
0.00139704
0.000196463
7.28282e-06
0.00127689
0.000109934
1.11544e-05
0.00120347
6.68166e-05
7.53052e-06
0.00115031
4.34601e-05
1.06068e-05
0.00111186
3.17193e-05
7.61896e-06
0.0010794
2.32785e-05
1.00801e-05
0.00105431
1.83527e-05
7.62902e-06
0.00103158
1.40247e-05
9.60666e-06
0.00101368
1.12011e-05
7.5985e-06
0.000996889
8.51372e-06
9.18435e-06
0.000983347
6.91985e-06
7.53831e-06
0.000970408
5.05985e-06
8.80301e-06
0.000958863
5.01959e-06
7.45489e-06
0.00094328
8.04954e-06
8.46567e-06
0.000939258
-2.38862e-06
7.34371e-06
0.000837068
9.47608e-05
8.36124e-06
6.43924e-05
6.91229e-06
0.000766698
0.00386487
0.0009181
3.37259e-06
0.00382173
0.000644906
-2.6189e-06
0.00367994
0.000523793
1.95509e-06
0.00353307
0.000346846
-2.55934e-06
0.0033998
0.000242844
1.29608e-06
0.0032907
0.000179145
-2.34707e-06
0.00319747
0.000136796
7.2523e-07
0.00312233
0.00010993
-2.27084e-06
0.00305681
8.9379e-05
1.89738e-07
0.00300375
7.44284e-05
-2.265e-06
0.00295641
6.24031e-05
-2.89146e-07
0.0029176
5.3067e-05
-2.29679e-06
0.00288287
4.47423e-05
-7.19529e-07
0.00285305
3.98953e-05
-2.3547e-06
0.00282912
3.09408e-05
-1.12277e-06
0.00280409
3.33339e-05
-2.43092e-06
0.00279787
1.6709e-05
-1.55204e-06
0.00277351
2.54298e-05
-2.56487e-06
0.00285783
1.35503e-05
-2.20033e-06
-3.25946e-05
-3.55107e-06
0.00295928
0.00408442
0.000520965
1.17083e-05
0.00433045
0.000393464
6.38379e-06
0.00448179
0.000362642
1.07831e-05
0.00456035
0.000262958
6.29025e-06
0.00459285
0.000201171
1.01273e-05
0.00460731
0.000159082
6.50692e-06
0.00460666
0.000128694
9.59639e-06
0.00460287
0.000107892
6.61784e-06
0.00459277
9.11227e-05
9.08779e-06
0.00458344
7.78097e-05
6.64186e-06
0.00457058
6.73169e-05
8.62439e-06
0.00456018
5.74993e-05
6.618e-06
0.00454642
5.09444e-05
8.21036e-06
0.00453737
4.3047e-05
6.56063e-06
0.00452139
3.97725e-05
7.84556e-06
0.00451562
3.33693e-05
6.47798e-06
0.00448978
3.57596e-05
7.57243e-06
0.00448119
2.84859e-05
6.38041e-06
0.00442741
6.04898e-05
7.71908e-06
6.16135e-05
6.25419e-06
0.00432788
0.00404023
0.000176375
2.94565e-06
0.0043021
0.000134929
-2.36511e-06
0.00453641
0.00012735
1.95768e-06
0.00470809
9.48085e-05
-2.55991e-06
0.00483456
7.43993e-05
1.25451e-06
0.00493595
6.10031e-05
-2.39585e-06
0.00501355
5.12683e-05
6.83668e-07
0.00507973
4.48163e-05
-2.30992e-06
0.0051322
3.92332e-05
1.55856e-07
0.00517799
3.50155e-05
-2.29663e-06
0.00521533
3.09547e-05
-3.19863e-07
0.00524769
2.81064e-05
-2.32487e-06
0.00527566
2.43412e-05
-7.50472e-07
0.00529833
2.33632e-05
-2.3815e-06
0.00532206
1.78242e-05
-1.16188e-06
0.00533796
2.05908e-05
-2.46665e-06
0.00536722
8.84954e-06
-1.63558e-06
0.00538403
1.51131e-05
-2.6664e-06
0.00545235
-4.46155e-06
-2.53834e-06
-2.10843e-05
-3.62247e-06
0.00553956
0.00404027
-0.000176375
1.14478e-05
0.00430461
-0.000134929
6.4863e-06
0.00454952
-0.00012735
1.07591e-05
0.00473382
-9.48076e-05
6.28276e-06
0.00487348
-7.43991e-05
1.00943e-05
0.00498994
-6.10006e-05
6.47034e-06
0.00508377
-5.12662e-05
9.56154e-06
0.00516761
-4.48099e-05
6.58493e-06
0.00523775
-3.92236e-05
9.05793e-06
0.00530185
-3.49991e-05
6.61383e-06
0.00535579
-3.0923e-05
8.59792e-06
0.005406
-2.80557e-05
6.59289e-06
0.00544703
-2.42626e-05
8.18689e-06
0.00548763
-2.31788e-05
6.53769e-06
0.0055159
-1.76745e-05
7.82841e-06
0.00555063
-1.99638e-05
6.45716e-06
0.00556113
-8.5547e-06
7.58165e-06
0.00558408
-1.34441e-05
6.36222e-06
0.00556688
5.72962e-06
7.8139e-06
2.47822e-05
6.326e-06
0.00551556
0.00404023
-0.000520965
2.94565e-06
0.0043021
-0.000393464
-2.36511e-06
0.00453641
-0.000362642
1.95768e-06
0.00470809
-0.000262957
-2.55991e-06
0.00483456
-0.000201171
1.25451e-06
0.00493595
-0.00015908
-2.39585e-06
0.00501355
-0.000128692
6.83668e-07
0.00507973
-0.000107887
-2.30993e-06
0.0051322
-9.11139e-05
1.55857e-07
0.00517799
-7.77958e-05
-2.29664e-06
0.00521534
-6.72883e-05
-3.19863e-07
0.0052477
-5.74564e-05
-2.32488e-06
0.00527568
-5.08747e-05
-7.50484e-07
0.00529838
-4.28883e-05
-2.38154e-06
0.00532213
-3.9646e-05
-1.16193e-06
0.00533812
-3.28221e-05
-2.46679e-06
0.00536742
-3.55179e-05
-1.63564e-06
0.0053844
-2.69783e-05
-2.66682e-06
0.00545293
-5.94335e-05
-2.53738e-06
-5.83489e-05
-3.6231e-06
0.00554057
0.00408442
-0.0009181
1.17083e-05
0.00433045
-0.000644906
6.38379e-06
0.00448179
-0.000523793
1.07831e-05
0.00456036
-0.000346845
6.29025e-06
0.00459285
-0.000242844
1.01273e-05
0.00460731
-0.000179143
6.50692e-06
0.00460666
-0.000136794
9.59639e-06
0.00460287
-0.000109926
6.61784e-06
0.00459278
-8.93722e-05
9.08779e-06
0.00458345
-7.44196e-05
6.64186e-06
0.00457059
-6.23823e-05
8.62439e-06
0.00456021
-5.30385e-05
6.618e-06
0.00454647
-4.46942e-05
8.21035e-06
0.00453747
-3.97857e-05
6.56067e-06
0.00452154
-3.08619e-05
7.84552e-06
0.00451592
-3.29449e-05
6.4781e-06
0.00449021
-1.65855e-05
7.57234e-06
0.00448208
-2.43866e-05
6.38057e-06
0.0044288
-1.29901e-05
7.71844e-06
3.45522e-05
6.25369e-06
0.00433057
0.00386487
-0.0010877
3.37259e-06
0.00382173
-0.000598172
-2.6189e-06
0.00367994
-0.000382991
1.95509e-06
0.00353307
-0.000196463
-2.55934e-06
0.0033998
-0.000109934
1.29608e-06
0.0032907
-6.68162e-05
-2.34707e-06
0.00319747
-4.34593e-05
7.25232e-07
0.00312233
-3.17182e-05
-2.27084e-06
0.00305681
-2.32755e-05
1.89742e-07
0.00300376
-1.83501e-05
-2.26501e-06
0.00295644
-1.40157e-05
-2.8914e-07
0.00291764
-1.1193e-05
-2.29681e-06
0.00288294
-8.49121e-06
-7.19527e-07
0.0028532
-6.88569e-06
-2.35476e-06
0.0028293
-5.01821e-06
-1.12275e-06
0.00280455
-4.89691e-06
-2.43115e-06
0.00279835
-7.9532e-06
-1.5518e-06
0.00277469
2.73505e-06
-2.56575e-06
0.0028591
-9.42945e-05
-2.19817e-06
-6.34445e-05
-3.55359e-06
0.00296155
0.00259787
1.35878e-05
0.00199366
7.01421e-06
0.00159984
1.17965e-05
0.00139704
7.28281e-06
0.00127689
1.11544e-05
0.00120347
7.53051e-06
0.00115031
1.06068e-05
0.00111187
7.61895e-06
0.00107941
1.00801e-05
0.00105432
7.62901e-06
0.00103159
9.60664e-06
0.0010137
7.59851e-06
0.000996938
9.1843e-06
0.00098343
7.53838e-06
0.000970533
8.80286e-06
0.00095911
7.45509e-06
0.000943624
8.46532e-06
0.000939948
7.3442e-06
0.000838227
8.36035e-06
6.91292e-06
0.000768796
0.00338005
0.000328249
3.32417e-06
0.00281854
0.000564366
5.13012e-06
0.00232894
0.000499963
2.39829e-06
0.00197699
0.000356295
3.88808e-06
0.00174777
0.00023917
2.12245e-06
0.00159926
0.000153611
3.32536e-06
0.00150471
0.000103867
2.15687e-06
0.00143641
7.36904e-05
3.08703e-06
0.00138892
5.61759e-05
2.25126e-06
0.00134905
4.54444e-05
2.91592e-06
0.00131928
3.79322e-05
2.31447e-06
0.00129205
3.29406e-05
2.75932e-06
0.00127098
2.87967e-05
2.35009e-06
0.00125105
2.57353e-05
2.62764e-06
0.00123612
2.22561e-05
2.37984e-06
0.00121986
2.20953e-05
2.52861e-06
0.00122238
4.44694e-06
2.41404e-06
0.00119767
3.05017e-05
2.46859e-06
0.00134626
-0.000141653
2.32848e-06
-0.000125642
2.61219e-06
0.00147712
0.00382152
0.000200358
8.10265e-06
0.00389509
0.000479509
9.63935e-06
0.00389771
0.000492665
7.60717e-06
0.00383402
0.000409793
8.59271e-06
0.00375312
0.000314982
7.31047e-06
0.00366515
0.000232008
8.10638e-06
0.00358743
0.000175798
7.33536e-06
0.00351481
0.000136915
7.89704e-06
0.00345391
0.000110592
7.40718e-06
0.00339784
9.22112e-05
7.74401e-06
0.00335078
7.79727e-05
7.43695e-06
0.0033076
6.6937e-05
7.60415e-06
0.00327025
5.87321e-05
7.4373e-06
0.00323748
4.94398e-05
7.48414e-06
0.00320487
4.71172e-05
7.43626e-06
0.00318284
3.51524e-05
7.38854e-06
0.00314254
3.66108e-05
7.46951e-06
0.00313618
2.78697e-05
7.33381e-06
0.00300551
-1.99039e-05
7.63601e-06
3.40858e-05
7.68909e-06
0.00283547
0.00381576
9.09142e-05
3.40612e-06
0.00402036
0.000277069
5.20169e-06
0.00420506
0.000317099
2.61683e-06
0.004334
0.000283986
4.12232e-06
0.00442139
0.000236391
2.27894e-06
0.00446935
0.000187923
3.52111e-06
0.00449962
0.000153682
2.27722e-06
0.00451291
0.000127762
3.25167e-06
0.00452151
0.000109418
2.37807e-06
0.00452235
9.56172e-05
3.08023e-06
0.004523
8.41384e-05
2.46173e-06
0.00451877
7.5494e-05
2.93325e-06
0.00451693
6.69061e-05
2.5154e-06
0.00450956
6.12157e-05
2.81045e-06
0.00450977
5.28969e-05
2.55358e-06
0.00449863
5.08066e-05
2.71797e-06
0.00450915
3.19066e-05
2.55734e-06
0.00449958
4.20298e-05
2.65877e-06
0.00453021
-4.42096e-05
2.29757e-06
-2.74267e-05
2.67795e-06
0.00459626
0.00374259
4.16446e-05
7.96252e-06
0.00391771
9.1028e-05
9.52684e-06
0.00413418
9.59638e-05
7.59878e-06
0.00432019
8.77609e-05
8.62109e-06
0.00447795
7.35038e-05
7.32522e-06
0.00459664
5.96306e-05
8.10632e-06
0.00469531
4.92177e-05
7.31512e-06
0.00477213
4.15445e-05
7.8692e-06
0.00483911
3.59332e-05
7.37438e-06
0.00489374
3.16618e-05
7.71148e-06
0.00494258
2.82292e-05
7.40571e-06
0.00498384
2.49627e-05
7.57428e-06
0.00502009
2.30976e-05
7.41043e-06
0.00505271
1.93694e-05
7.45709e-06
0.00507734
2.03199e-05
7.41591e-06
0.00510468
1.43279e-05
7.36782e-06
0.00510775
2.04687e-05
7.47166e-06
0.00512578
1.47976e-05
7.35078e-06
0.00505385
1.82792e-05
7.76413e-06
4.69506e-05
7.73869e-06
0.00496904
0.00378936
-4.16448e-05
3.38746e-06
0.00397368
-9.10276e-05
5.1957e-06
0.00417467
-9.59639e-05
2.67087e-06
0.00435326
-8.77598e-05
4.17882e-06
0.00450898
-7.35036e-05
2.32858e-06
0.00463204
-5.96277e-05
3.56443e-06
0.00473857
-4.92159e-05
2.3073e-06
0.00482573
-4.1537e-05
3.27708e-06
0.00490497
-3.59252e-05
2.39971e-06
0.00497247
-3.16415e-05
3.10035e-06
0.00503567
-2.82036e-05
2.48331e-06
0.0050898
-2.49031e-05
2.95367e-06
0.00514218
-2.30284e-05
2.53843e-06
0.00518505
-1.91867e-05
2.83168e-06
0.00523138
-2.01455e-05
2.57499e-06
0.00526388
-1.3781e-05
2.73996e-06
0.00531007
-1.99862e-05
2.56225e-06
0.00534267
-1.33291e-05
2.68414e-06
0.00538401
-1.66492e-05
2.25089e-06
-4.3365e-05
2.68364e-06
0.00547888
0.00374259
-9.09143e-05
7.96252e-06
0.00391771
-0.000277069
9.52684e-06
0.00413418
-0.000317099
7.59878e-06
0.00432019
-0.000283985
8.62109e-06
0.00447795
-0.000236391
7.32522e-06
0.00459664
-0.000187921
8.10632e-06
0.00469531
-0.00015368
7.31512e-06
0.00477213
-0.000127755
7.86921e-06
0.00483911
-0.00010941
7.37438e-06
0.00489375
-9.55987e-05
7.71148e-06
0.00494258
-8.4115e-05
7.40571e-06
0.00498385
-7.54395e-05
7.57429e-06
0.00502011
-6.68448e-05
7.41044e-06
0.00505274
-6.10471e-05
7.45711e-06
0.0050774
-5.27474e-05
7.41591e-06
0.00510478
-5.0305e-05
7.36789e-06
0.00510793
-3.15036e-05
7.47161e-06
0.00512612
-4.07259e-05
7.35096e-06
0.00505445
4.55836e-05
7.76357e-06
3.05389e-05
7.73872e-06
0.00497012
0.00381576
-0.000200358
3.40612e-06
0.00402036
-0.000479509
5.20169e-06
0.00420506
-0.000492665
2.61683e-06
0.004334
-0.000409792
4.12232e-06
0.00442139
-0.000314981
2.27894e-06
0.00446935
-0.000232006
3.52111e-06
0.00449962
-0.000175796
2.27722e-06
0.00451291
-0.00013691
3.25167e-06
0.00452152
-0.000110585
2.37807e-06
0.00452236
-9.21991e-05
3.08023e-06
0.00452302
-7.79525e-05
2.46174e-06
0.0045188
-6.69009e-05
2.93324e-06
0.00451697
-5.86809e-05
2.51541e-06
0.00450966
-4.9326e-05
2.81043e-06
0.0045099
-4.69977e-05
2.5536e-06
0.00449891
-3.48041e-05
2.7179e-06
0.00450953
-3.62975e-05
2.55732e-06
0.00450032
-2.69362e-05
2.65863e-06
0.0045313
2.09342e-05
2.29784e-06
-3.16477e-05
2.67752e-06
0.00459801
0.00382152
-0.000328249
8.10265e-06
0.00389509
-0.000564366
9.63935e-06
0.00389771
-0.000499963
7.60717e-06
0.00383402
-0.000356295
8.59271e-06
0.00375312
-0.00023917
7.31047e-06
0.00366515
-0.00015361
8.10639e-06
0.00358743
-0.000103866
7.33536e-06
0.00351481
-7.36884e-05
7.89704e-06
0.00345392
-5.61722e-05
7.40718e-06
0.00339786
-4.54392e-05
7.74402e-06
0.00335081
-3.7922e-05
7.43695e-06
0.00330765
-3.29244e-05
7.60417e-06
0.00327032
-2.87725e-05
7.4373e-06
0.00323761
-2.5681e-05
7.48418e-06
0.00320507
-2.22082e-05
7.43622e-06
0.00318322
-2.19195e-05
7.38871e-06
0.00314314
-4.35714e-06
7.46925e-06
0.00313724
-3.00319e-05
7.3343e-06
0.00300737
0.000141891
7.63461e-06
0.000126093
7.69006e-06
0.0028393
0.00338005
3.32417e-06
0.00281854
5.13012e-06
0.00232894
2.39829e-06
0.00197699
3.88808e-06
0.00174777
2.12245e-06
0.00159926
3.32536e-06
0.00150471
2.15687e-06
0.00143642
3.08704e-06
0.00138893
2.25126e-06
0.00134907
2.91592e-06
0.0013193
2.31449e-06
0.00129209
2.75931e-06
0.00127104
2.35013e-06
0.00125117
2.62761e-06
0.00123629
2.37992e-06
0.00122021
2.52855e-06
0.00122281
2.41415e-06
0.00119857
2.46839e-06
0.00134741
2.32863e-06
2.61174e-06
0.0014787
0.00356584
0.000138543
-3.32418e-06
0.00331592
0.000261158
-5.13012e-06
0.00301084
0.00031085
-2.39829e-06
0.00271218
0.000307381
-3.88808e-06
0.00244124
0.000276092
-2.12246e-06
0.00221596
0.000232795
-3.32536e-06
0.00203402
0.000187063
-2.15687e-06
0.0018954
0.000145595
-3.08704e-06
0.00178962
0.000111093
-2.25126e-06
0.00171233
8.39397e-05
-2.91593e-06
0.00165413
6.36674e-05
-2.31448e-06
0.00161161
4.88955e-05
-2.75932e-06
0.00157923
3.79415e-05
-2.3501e-06
0.00155414
3.121e-05
-2.62765e-06
0.00153639
2.33791e-05
-2.37985e-06
0.00151795
2.43751e-05
-2.52862e-06
0.00151345
1.01961e-05
-2.41404e-06
0.00149449
2.47637e-05
-2.4686e-06
0.00151365
-1.36441e-05
-2.32848e-06
-1.78611e-05
-2.6122e-06
0.0015376
0.00376328
8.9201e-05
-8.10265e-06
0.00385617
0.000188513
-9.63936e-06
0.0039277
0.000255507
-7.60718e-06
0.00396907
0.000284165
-8.59272e-06
0.00397689
0.000283822
-7.31047e-06
0.00396394
0.000262833
-8.10639e-06
0.00393422
0.000232249
-7.33537e-06
0.00389781
0.000198551
-7.89705e-06
0.00385631
0.000168101
-7.40718e-06
0.00381524
0.000141173
-7.74402e-06
0.00377415
0.000120285
-7.43696e-06
0.00373615
0.000102772
-7.60416e-06
0.00369975
8.99189e-05
-7.43731e-06
0.00366739
7.92822e-05
-7.48414e-06
0.00363663
6.98086e-05
-7.43627e-06
0.00361029
6.63415e-05
-7.38854e-06
0.00358519
5.11328e-05
-7.46952e-06
0.00356246
6.30896e-05
-7.33382e-06
0.00354108
2.39424e-05
-7.63602e-06
5.34279e-05
-7.68909e-06
0.00348612
0.00374957
4.41725e-05
-3.40612e-06
0.00384789
0.000101569
-5.2017e-06
0.00396466
0.000144942
-2.61684e-06
0.00409051
0.000167526
-4.12233e-06
0.0042066
0.000173229
-2.27895e-06
0.00431073
0.000166628
-3.52111e-06
0.00439598
0.000152361
-2.27723e-06
0.00446614
0.00013565
-3.25167e-06
0.00452073
0.000118976
-2.37808e-06
0.00456435
0.000104372
-3.08024e-06
0.00459831
9.18787e-05
-2.46174e-06
0.00462546
8.2102e-05
-2.93326e-06
0.00464764
7.33765e-05
-2.51541e-06
0.00466533
6.78506e-05
-2.81046e-06
0.00468122
5.9718e-05
-2.55359e-06
0.00469387
5.9879e-05
-2.71797e-06
0.00470581
4.51151e-05
-2.55735e-06
0.00471762
5.74783e-05
-2.65878e-06
0.00472449
2.25895e-05
-2.29758e-06
4.42903e-05
-2.67796e-06
0.00473998
0.00373826
1.95597e-05
-7.96252e-06
0.00382137
3.84853e-05
-9.52685e-06
0.00393089
5.15936e-05
-7.59879e-06
0.00405851
5.81188e-05
-8.62109e-06
0.00418703
6.02942e-05
-7.32522e-06
0.00431241
5.83451e-05
-8.10633e-06
0.00442566
5.45516e-05
-7.31513e-06
0.0045285
4.93014e-05
-7.86921e-06
0.0046184
4.45289e-05
-7.37438e-06
0.0046991
3.97621e-05
-7.71149e-06
0.0047702
3.62165e-05
-7.40572e-06
0.00483518
3.28829e-05
-7.57429e-06
0.0048934
3.05676e-05
-7.41044e-06
0.00494828
2.84935e-05
-7.4571e-06
0.00499702
2.64511e-05
-7.41591e-06
0.00504606
2.62782e-05
-7.36782e-06
0.00508478
2.2096e-05
-7.47167e-06
0.00513045
2.73519e-05
-7.35078e-06
0.00515304
1.64091e-05
-7.76414e-06
3.35408e-05
-7.7387e-06
0.00518022
0.00374362
-1.95599e-05
-3.38746e-06
0.00383195
-3.84847e-05
-5.1957e-06
0.00394145
-5.1594e-05
-2.67087e-06
0.00406701
-5.81174e-05
-4.17883e-06
0.0041932
-6.02943e-05
-2.32858e-06
0.0043179
-5.83414e-05
-3.56444e-06
0.00443243
-5.45497e-05
-2.30731e-06
0.00453832
-4.92922e-05
-3.27708e-06
0.00463288
-4.45203e-05
-2.39972e-06
0.00471925
-3.97369e-05
-3.10035e-06
0.00479725
-3.61913e-05
-2.48331e-06
0.00486946
-3.28071e-05
-2.95368e-06
0.0049362
-3.05094e-05
-2.53844e-06
0.00499922
-2.82635e-05
-2.83168e-06
0.00505778
-2.63245e-05
-2.57499e-06
0.00511588
-2.5642e-05
-2.73996e-06
0.00516558
-2.17293e-05
-2.56226e-06
0.00522498
-2.58595e-05
-2.68414e-06
0.00526178
-1.5014e-05
-2.2509e-06
-3.05669e-05
-2.68365e-06
0.00533219
0.00373826
-4.41726e-05
-7.96253e-06
0.00382137
-0.000101569
-9.52685e-06
0.00393089
-0.000144943
-7.59879e-06
0.00405851
-0.000167525
-8.62109e-06
0.00418703
-0.000173229
-7.32522e-06
0.00431241
-0.000166624
-8.10633e-06
0.00442566
-0.00015236
-7.31513e-06
0.0045285
-0.000135641
-7.86921e-06
0.0046184
-0.000118968
-7.37438e-06
0.0046991
-0.000104348
-7.71149e-06
0.00477021
-9.18552e-05
-7.40572e-06
0.00483519
-8.20303e-05
-7.57429e-06
0.00489341
-7.33233e-05
-7.41044e-06
0.0049483
-6.76334e-05
-7.45712e-06
0.00499706
-5.96062e-05
-7.41592e-06
0.00504613
-5.9279e-05
-7.3679e-06
0.00508491
-4.47953e-05
-7.47162e-06
0.00513067
-5.60805e-05
-7.35097e-06
0.00515341
-2.13481e-05
-7.76358e-06
-4.15734e-05
-7.73872e-06
0.00518085
0.00374957
-8.92011e-05
-3.40612e-06
0.00384789
-0.000188513
-5.2017e-06
0.00396466
-0.000255507
-2.61684e-06
0.00409051
-0.000284164
-4.12233e-06
0.0042066
-0.000283822
-2.27895e-06
0.00431073
-0.00026283
-3.52111e-06
0.00439599
-0.000232247
-2.27723e-06
0.00446614
-0.000198544
-3.25167e-06
0.00452073
-0.000168094
-2.37808e-06
0.00456436
-0.000141155
-3.08023e-06
0.00459832
-0.000120265
-2.46174e-06
0.00462549
-0.000102715
-2.93325e-06
0.00464768
-8.98761e-05
-2.51542e-06
0.00466541
-7.91067e-05
-2.81043e-06
0.00468133
-6.97284e-05
-2.5536e-06
0.00469409
-6.58533e-05
-2.7179e-06
0.00470613
-5.0913e-05
-2.55733e-06
0.00471821
-6.19654e-05
-2.65864e-06
0.00472541
-2.30264e-05
-2.29784e-06
-5.13309e-05
-2.67752e-06
0.00474151
0.00376328
-0.000138543
-8.10265e-06
0.00385617
-0.000261158
-9.63936e-06
0.0039277
-0.00031085
-7.60718e-06
0.00396907
-0.000307381
-8.59272e-06
0.00397689
-0.000276092
-7.31047e-06
0.00396394
-0.000232794
-8.10639e-06
0.00393423
-0.000187061
-7.33537e-06
0.00389781
-0.000145592
-7.89705e-06
0.00385632
-0.000111087
-7.40718e-06
0.00381526
-8.39319e-05
-7.74403e-06
0.00377418
-6.36526e-05
-7.43696e-06
0.00373621
-4.88696e-05
-7.60417e-06
0.00369982
-3.79126e-05
-7.43731e-06
0.00366755
-3.11231e-05
-7.48419e-06
0.00363682
-2.33328e-05
-7.43623e-06
0.00361071
-2.41209e-05
-7.38871e-06
0.00358572
-1.0086e-05
-7.46926e-06
0.00356353
-2.41844e-05
-7.33431e-06
0.0035426
1.41243e-05
-7.63462e-06
1.86716e-05
-7.69006e-06
0.00348892
0.00356584
-3.32418e-06
0.00331592
-5.13012e-06
0.00301084
-2.39829e-06
0.00271219
-3.88808e-06
0.00244125
-2.12246e-06
0.00221596
-3.32536e-06
0.00203403
-2.15687e-06
0.00189541
-3.08704e-06
0.00178963
-2.25127e-06
0.00171235
-2.91593e-06
0.00165417
-2.31449e-06
0.00161167
-2.75931e-06
0.00157932
-2.35013e-06
0.00155432
-2.62762e-06
0.00153662
-2.37993e-06
0.00151843
-2.52855e-06
0.00151404
-2.41416e-06
0.00149566
-2.46839e-06
0.00151531
-2.32863e-06
-2.61174e-06
0.00154004
0.00338005
0.000328249
-1.35878e-05
0.00281854
0.000564366
-7.01421e-06
0.00232894
0.000499963
-1.17965e-05
0.00197699
0.000356295
-7.28281e-06
0.00174777
0.00023917
-1.11544e-05
0.00159926
0.000153611
-7.53051e-06
0.00150471
0.000103867
-1.06068e-05
0.00143641
7.36904e-05
-7.61895e-06
0.00138892
5.61759e-05
-1.00801e-05
0.00134905
4.54445e-05
-7.62901e-06
0.00131928
3.79322e-05
-9.60665e-06
0.00129205
3.29406e-05
-7.59849e-06
0.00127098
2.87968e-05
-9.18434e-06
0.00125105
2.57353e-05
-7.5383e-06
0.00123612
2.22561e-05
-8.803e-06
0.00121986
2.20953e-05
-7.45488e-06
0.00122238
4.44693e-06
-8.46566e-06
0.00119767
3.05017e-05
-7.34371e-06
0.00134626
-0.000141653
-8.36123e-06
-0.000125642
-6.91228e-06
0.00147712
0.00382152
0.000200358
-3.37259e-06
0.00389509
0.000479509
2.61889e-06
0.00389771
0.000492665
-1.9551e-06
0.00383402
0.000409793
2.55933e-06
0.00375312
0.000314982
-1.29608e-06
0.00366515
0.000232008
2.34707e-06
0.00358743
0.000175798
-7.25234e-07
0.00351481
0.000136915
2.27083e-06
0.00345391
0.000110592
-1.89742e-07
0.00339784
9.22112e-05
2.26499e-06
0.00335078
7.79727e-05
2.89141e-07
0.0033076
6.6937e-05
2.29678e-06
0.00327025
5.87321e-05
7.19524e-07
0.00323748
4.94398e-05
2.35469e-06
0.00320487
4.71171e-05
1.12277e-06
0.00318284
3.51524e-05
2.43092e-06
0.00314254
3.66107e-05
1.55204e-06
0.00313618
2.78696e-05
2.56487e-06
0.00300551
-1.9904e-05
2.20033e-06
3.40858e-05
3.55107e-06
0.00283547
0.00381576
9.09142e-05
-1.17083e-05
0.00402036
0.000277069
-6.3838e-06
0.00420506
0.000317099
-1.07831e-05
0.004334
0.000283986
-6.29025e-06
0.00442139
0.000236391
-1.01273e-05
0.00446935
0.000187923
-6.50693e-06
0.00449962
0.000153682
-9.59639e-06
0.00451291
0.000127762
-6.61784e-06
0.00452151
0.000109418
-9.08779e-06
0.00452235
9.56172e-05
-6.64186e-06
0.004523
8.41383e-05
-8.6244e-06
0.00451877
7.5494e-05
-6.618e-06
0.00451693
6.69061e-05
-8.21036e-06
0.00450956
6.12156e-05
-6.56064e-06
0.00450977
5.28968e-05
-7.84556e-06
0.00449863
5.08065e-05
-6.47799e-06
0.00450915
3.19066e-05
-7.57243e-06
0.00449958
4.20297e-05
-6.38042e-06
0.00453021
-4.42096e-05
-7.71909e-06
-2.74267e-05
-6.25419e-06
0.00459626
0.00374259
4.16446e-05
-2.94565e-06
0.00391771
9.1028e-05
2.36511e-06
0.00413418
9.59637e-05
-1.95768e-06
0.00432019
8.77609e-05
2.55991e-06
0.00447795
7.35038e-05
-1.25451e-06
0.00459664
5.96306e-05
2.39585e-06
0.00469531
4.92177e-05
-6.83671e-07
0.00477213
4.15445e-05
2.30992e-06
0.00483911
3.59332e-05
-1.55859e-07
0.00489374
3.16618e-05
2.29663e-06
0.00494258
2.82292e-05
3.1986e-07
0.00498384
2.49626e-05
2.32487e-06
0.00502009
2.30975e-05
7.50468e-07
0.00505271
1.93693e-05
2.3815e-06
0.00507734
2.03198e-05
1.16188e-06
0.00510468
1.43278e-05
2.46665e-06
0.00510775
2.04686e-05
1.63558e-06
0.00512578
1.47976e-05
2.6664e-06
0.00505385
1.82792e-05
2.53834e-06
4.69505e-05
3.62247e-06
0.00496904
0.00378936
-4.16448e-05
-1.14478e-05
0.00397368
-9.10277e-05
-6.4863e-06
0.00417467
-9.59639e-05
-1.07591e-05
0.00435326
-8.77598e-05
-6.28276e-06
0.00450898
-7.35036e-05
-1.00943e-05
0.00463204
-5.96277e-05
-6.47034e-06
0.00473857
-4.92159e-05
-9.56155e-06
0.00482573
-4.1537e-05
-6.58494e-06
0.00490497
-3.59253e-05
-9.05793e-06
0.00497247
-3.16415e-05
-6.61384e-06
0.00503567
-2.82037e-05
-8.59793e-06
0.0050898
-2.49031e-05
-6.59289e-06
0.00514218
-2.30285e-05
-8.18689e-06
0.00518505
-1.91868e-05
-6.53769e-06
0.00523138
-2.01456e-05
-7.82841e-06
0.00526388
-1.37811e-05
-6.45717e-06
0.00531007
-1.99862e-05
-7.58165e-06
0.00534267
-1.33291e-05
-6.36222e-06
0.00538401
-1.66492e-05
-7.81391e-06
-4.3365e-05
-6.326e-06
0.00547888
0.00374259
-9.09143e-05
-2.94565e-06
0.00391771
-0.000277069
2.36511e-06
0.00413418
-0.000317099
-1.95768e-06
0.00432019
-0.000283985
2.55991e-06
0.00447795
-0.000236391
-1.25451e-06
0.00459664
-0.000187921
2.39585e-06
0.00469531
-0.00015368
-6.83671e-07
0.00477213
-0.000127755
2.30992e-06
0.00483911
-0.00010941
-1.5586e-07
0.00489375
-9.55988e-05
2.29664e-06
0.00494258
-8.4115e-05
3.19861e-07
0.00498385
-7.54395e-05
2.32488e-06
0.00502011
-6.68449e-05
7.50482e-07
0.00505274
-6.10472e-05
2.38154e-06
0.0050774
-5.27474e-05
1.16193e-06
0.00510478
-5.03051e-05
2.46678e-06
0.00510793
-3.15037e-05
1.63564e-06
0.00512612
-4.07259e-05
2.66682e-06
0.00505445
4.55835e-05
2.53738e-06
3.05389e-05
3.6231e-06
0.00497012
0.00381576
-0.000200358
-1.17083e-05
0.00402036
-0.000479509
-6.3838e-06
0.00420506
-0.000492665
-1.07831e-05
0.004334
-0.000409792
-6.29025e-06
0.00442139
-0.000314981
-1.01273e-05
0.00446935
-0.000232006
-6.50693e-06
0.00449962
-0.000175796
-9.59639e-06
0.00451291
-0.00013691
-6.61784e-06
0.00452152
-0.000110585
-9.08779e-06
0.00452236
-9.21991e-05
-6.64186e-06
0.00452302
-7.79526e-05
-8.6244e-06
0.0045188
-6.69009e-05
-6.618e-06
0.00451697
-5.86809e-05
-8.21035e-06
0.00450966
-4.9326e-05
-6.56067e-06
0.0045099
-4.69977e-05
-7.84552e-06
0.00449891
-3.48042e-05
-6.4781e-06
0.00450953
-3.62975e-05
-7.57234e-06
0.00450032
-2.69362e-05
-6.38057e-06
0.0045313
2.09341e-05
-7.71844e-06
-3.16478e-05
-6.25369e-06
0.00459801
0.00382152
-0.000328249
-3.37259e-06
0.00389509
-0.000564366
2.61889e-06
0.00389771
-0.000499963
-1.9551e-06
0.00383402
-0.000356295
2.55933e-06
0.00375312
-0.00023917
-1.29608e-06
0.00366515
-0.00015361
2.34707e-06
0.00358743
-0.000103866
-7.25235e-07
0.00351481
-7.36884e-05
2.27084e-06
0.00345392
-5.61722e-05
-1.89744e-07
0.00339786
-4.54392e-05
2.265e-06
0.00335081
-3.7922e-05
2.89139e-07
0.00330765
-3.29243e-05
2.2968e-06
0.00327032
-2.87725e-05
7.19526e-07
0.00323761
-2.5681e-05
2.35476e-06
0.00320507
-2.22082e-05
1.12275e-06
0.00318322
-2.19195e-05
2.43115e-06
0.00314314
-4.35716e-06
1.55179e-06
0.00313723
-3.00319e-05
2.56575e-06
0.00300737
0.000141891
2.19817e-06
0.000126093
3.55359e-06
0.0028393
0.00338005
-1.35878e-05
0.00281854
-7.01422e-06
0.00232894
-1.17965e-05
0.00197699
-7.28283e-06
0.00174777
-1.11544e-05
0.00159926
-7.53052e-06
0.00150471
-1.06068e-05
0.00143642
-7.61897e-06
0.00138893
-1.00801e-05
0.00134907
-7.62903e-06
0.0013193
-9.60665e-06
0.00129209
-7.59852e-06
0.00127104
-9.18431e-06
0.00125117
-7.53839e-06
0.00123629
-8.80288e-06
0.00122021
-7.4551e-06
0.00122281
-8.46533e-06
0.00119857
-7.34422e-06
0.00134741
-8.36037e-06
-6.91293e-06
0.0014787
0.00259787
0.0010877
0.00199366
0.000598173
0.00159984
0.000382991
0.00139704
0.000196463
0.00127689
0.000109934
0.00120347
6.68167e-05
0.00115031
4.34602e-05
0.00111186
3.17194e-05
0.0010794
2.32786e-05
0.00105431
1.83528e-05
0.00103158
1.40248e-05
0.00101368
1.12013e-05
0.000996889
8.51382e-06
0.000983347
6.91993e-06
0.000970408
5.05991e-06
0.000958863
5.01964e-06
0.00094328
8.04959e-06
0.000939258
-2.38859e-06
0.000837067
9.47609e-05
6.43925e-05
0.000766698
0.00386487
0.0009181
0.00382173
0.000644906
0.00367994
0.000523793
0.00353307
0.000346846
0.0033998
0.000242844
0.0032907
0.000179145
0.00319747
0.000136796
0.00312233
0.00010993
0.00305681
8.93792e-05
0.00300375
7.44285e-05
0.00295641
6.24033e-05
0.0029176
5.30672e-05
0.00288287
4.47424e-05
0.00285305
3.98955e-05
0.00282912
3.09409e-05
0.00280409
3.3334e-05
0.00279787
1.67091e-05
0.00277351
2.54299e-05
0.00285783
1.35504e-05
-3.25946e-05
0.00295928
0.00408442
0.000520965
0.00433045
0.000393465
0.00448179
0.000362642
0.00456035
0.000262958
0.00459285
0.000201171
0.00460731
0.000159082
0.00460666
0.000128694
0.00460287
0.000107892
0.00459277
9.11229e-05
0.00458344
7.78099e-05
0.00457058
6.73171e-05
0.00456018
5.74995e-05
0.00454642
5.09445e-05
0.00453737
4.30472e-05
0.00452139
3.97726e-05
0.00451562
3.33694e-05
0.00448978
3.57597e-05
0.00448119
2.8486e-05
0.00442741
6.04898e-05
6.16135e-05
0.00432788
0.00404023
0.000176375
0.0043021
0.000134929
0.00453641
0.00012735
0.00470809
9.48086e-05
0.00483456
7.43994e-05
0.00493595
6.10032e-05
0.00501355
5.12684e-05
0.00507973
4.48165e-05
0.0051322
3.92334e-05
0.00517799
3.50157e-05
0.00521533
3.09548e-05
0.00524769
2.81065e-05
0.00527566
2.43413e-05
0.00529833
2.33634e-05
0.00532206
1.78243e-05
0.00533796
2.0591e-05
0.00536722
8.84966e-06
0.00538403
1.51132e-05
0.00545235
-4.46146e-06
-2.10842e-05
0.00553956
0.00404027
-0.000176375
0.00430461
-0.000134929
0.00454952
-0.00012735
0.00473382
-9.48075e-05
0.00487348
-7.4399e-05
0.00498994
-6.10005e-05
0.00508377
-5.1266e-05
0.00516761
-4.48097e-05
0.00523775
-3.92234e-05
0.00530185
-3.4999e-05
0.00535579
-3.09228e-05
0.005406
-2.80555e-05
0.00544703
-2.42624e-05
0.00548763
-2.31787e-05
0.0055159
-1.76743e-05
0.00555063
-1.99636e-05
0.00556113
-8.55457e-06
0.00558408
-1.3444e-05
0.00556688
5.72971e-06
2.47823e-05
0.00551556
0.00404023
-0.000520965
0.0043021
-0.000393464
0.00453641
-0.000362642
0.00470809
-0.000262957
0.00483456
-0.000201171
0.00493595
-0.00015908
0.00501355
-0.000128692
0.00507973
-0.000107887
0.0051322
-9.11137e-05
0.00517799
-7.77957e-05
0.00521534
-6.72881e-05
0.0052477
-5.74562e-05
0.00527568
-5.08746e-05
0.00529838
-4.28881e-05
0.00532213
-3.96458e-05
0.00533812
-3.2822e-05
0.00536742
-3.55178e-05
0.0053844
-2.69783e-05
0.00545293
-5.94334e-05
-5.83488e-05
0.00554057
0.00408442
-0.0009181
0.00433045
-0.000644906
0.00448179
-0.000523793
0.00456036
-0.000346845
0.00459285
-0.000242844
0.00460731
-0.000179143
0.00460666
-0.000136794
0.00460287
-0.000109926
0.00459278
-8.9372e-05
0.00458345
-7.44194e-05
0.00457059
-6.23821e-05
0.00456021
-5.30383e-05
0.00454647
-4.4694e-05
0.00453747
-3.97856e-05
0.00452154
-3.08618e-05
0.00451592
-3.29448e-05
0.00449021
-1.65855e-05
0.00448208
-2.43865e-05
0.0044288
-1.299e-05
3.45523e-05
0.00433057
0.00386487
-0.0010877
0.00382173
-0.000598172
0.00367994
-0.000382991
0.00353307
-0.000196463
0.0033998
-0.000109934
0.0032907
-6.68161e-05
0.00319747
-4.34593e-05
0.00312233
-3.17181e-05
0.00305681
-2.32754e-05
0.00300376
-1.835e-05
0.00295644
-1.40155e-05
0.00291764
-1.11929e-05
0.00288294
-8.49111e-06
0.0028532
-6.88561e-06
0.0028293
-5.01814e-06
0.00280455
-4.89686e-06
0.00279835
-7.95315e-06
0.00277469
2.73508e-06
0.0028591
-9.42944e-05
-6.34444e-05
0.00296155
0.00259787
0.00199366
0.00159984
0.00139704
0.00127689
0.00120347
0.00115031
0.00111187
0.00107941
0.00105432
0.00103159
0.0010137
0.000996938
0.00098343
0.000970533
0.00095911
0.000943624
0.000939948
0.000838227
0.000768796
0.00089122
-0.000190675
6.89254e-05
0.000915334
-8.25552e-05
6.09151e-05
0.000906734
-5.3453e-05
6.44847e-05
0.000901511
-5.02572e-05
5.80403e-05
0.000896076
-5.1747e-05
5.98695e-05
0.000892492
-4.91484e-05
5.54164e-05
0.000888849
-5.02475e-05
5.64575e-05
0.000886226
-4.82931e-05
5.33613e-05
0.000883646
-4.89549e-05
5.39424e-05
0.000881671
-4.73434e-05
5.17639e-05
0.000879832
-4.77308e-05
5.2066e-05
0.000878321
-4.65031e-05
5.05164e-05
0.000876988
-4.6855e-05
5.06515e-05
0.000875809
-4.59447e-05
4.95416e-05
0.000874857
-4.62142e-05
4.95788e-05
0.000873974
-4.5442e-05
4.87784e-05
0.000873349
-4.56052e-05
4.87583e-05
0.000872729