/*--------------------------------*- C++ -*----------------------------------*\
  =========                 |
  \\      /  F ield         | OpenFOAM: The Open Source CFD Toolbox
   \\    /   O peration     | Website:  https://openfoam.org
    \\  /    A nd           | Version:  7
     \\/     M anipulation  |
\*---------------------------------------------------------------------------*/
FoamFile
{
    version     2.0;
    format      ascii;
    class       volScalarField;
    location    "0.1825";
    object      pMean;
}
// * * * * * * * * * * * * * * * * * * * * * * * * * * * * * * * * * * * * * //

dimensions      [1 -1 -2 0 0 0 0];

internalField   nonuniform List<scalar> 
7920
(
102545
102523
102530
102514
102520
102506
102510
102498
102501
102490
102491
102482
102482
102473
102473
102464
102463
102455
102454
102446
102529
102510
102517
102502
102507
102494
102498
102486
102488
102477
102479
102469
102470
102460
102460
102452
102451
102443
102441
102434
102537
102519
102525
102509
102514
102501
102505
102493
102495
102484
102486
102476
102477
102467
102467
102459
102458
102450
102448
102441
102530
102513
102519
102504
102509
102495
102499
102487
102490
102479
102480
102471
102471
102462
102462
102453
102452
102444
102443
102435
102534
102517
102523
102507
102512
102499
102503
102491
102493
102483
102484
102474
102475
102466
102465
102457
102456
102448
102447
102439
102532
102515
102521
102506
102511
102497
102501
102489
102492
102481
102482
102472
102473
102464
102464
102455
102454
102446
102445
102437
102532
102515
102521
102506
102511
102497
102501
102489
102492
102481
102482
102472
102473
102464
102464
102455
102454
102446
102445
102437
102534
102517
102523
102507
102512
102499
102503
102491
102493
102483
102484
102474
102475
102466
102465
102457
102456
102448
102447
102439
102530
102513
102519
102504
102509
102495
102499
102487
102490
102479
102480
102471
102471
102462
102462
102453
102452
102444
102443
102435
102537
102519
102525
102509
102514
102501
102505
102493
102495
102484
102486
102476
102477
102467
102467
102459
102458
102450
102448
102441
102529
102510
102517
102502
102507
102494
102498
102486
102488
102477
102479
102469
102470
102460
102460
102452
102451
102443
102441
102434
102545
102523
102530
102514
102520
102506
102510
102498
102501
102490
102491
102482
102482
102473
102473
102464
102463
102455
102454
102446
102508
102504
102498
102494
102490
102486
102482
102477
102475
102469
102467
102461
102459
102453
102451
102445
102443
102437
102434
102429
102519
102516
102510
102506
102502
102497
102494
102489
102486
102481
102478
102473
102470
102465
102462
102456
102454
102448
102446
102441
102510
102506
102501
102497
102493
102488
102485
102480
102477
102472
102469
102464
102462
102456
102453
102448
102445
102439
102437
102431
102516
102513
102507
102503
102499
102495
102492
102487
102484
102478
102476
102470
102468
102462
102460
102454
102452
102446
102444
102438
102512
102509
102503
102499
102495
102490
102487
102482
102479
102474
102472
102466
102464
102458
102456
102450
102448
102442
102439
102434
102514
102511
102505
102501
102497
102493
102489
102484
102482
102476
102474
102468
102466
102460
102458
102452
102450
102444
102442
102436
102514
102511
102505
102501
102497
102493
102489
102484
102482
102476
102474
102468
102466
102460
102458
102452
102450
102444
102441
102436
102512
102509
102503
102499
102495
102490
102487
102482
102479
102474
102472
102466
102464
102458
102456
102450
102448
102442
102439
102434
102516
102513
102507
102503
102499
102495
102492
102487
102484
102478
102476
102470
102468
102462
102460
102454
102452
102446
102444
102438
102510
102506
102501
102497
102493
102488
102485
102480
102477
102472
102469
102464
102462
102456
102453
102448
102445
102439
102437
102431
102519
102516
102510
102506
102502
102497
102494
102489
102486
102481
102478
102473
102470
102465
102462
102456
102454
102448
102446
102441
102508
102504
102498
102494
102490
102486
102482
102477
102475
102469
102467
102461
102459
102453
102451
102445
102443
102437
102434
102429
102498
102490
102490
102483
102482
102476
102474
102468
102467
102461
102459
102453
102451
102446
102443
102438
102435
102430
102427
102421
102498
102490
102490
102483
102482
102476
102474
102468
102467
102461
102459
102453
102451
102446
102443
102438
102435
102430
102427
102421
102498
102490
102490
102483
102482
102476
102474
102468
102467
102461
102459
102453
102451
102446
102443
102438
102435
102430
102427
102421
102497
102490
102490
102483
102482
102476
102474
102468
102467
102461
102459
102453
102451
102446
102443
102438
102435
102430
102427
102421
102497
102490
102490
102483
102482
102476
102474
102468
102467
102461
102459
102453
102451
102446
102443
102438
102435
102430
102427
102421
102497
102490
102490
102483
102482
102476
102474
102468
102467
102461
102459
102453
102451
102446
102443
102438
102435
102430
102427
102421
102497
102490
102490
102483
102482
102476
102474
102468
102467
102461
102459
102453
102451
102446
102443
102438
102435
102430
102427
102421
102497
102490
102490
102483
102482
102476
102474
102468
102467
102461
102459
102453
102451
102446
102443
102438
102435
102430
102427
102421
102497
102490
102490
102483
102482
102476
102474
102468
102467
102461
102459
102453
102451
102446
102443
102438
102435
102430
102427
102421
102498
102490
102490
102483
102482
102476
102474
102468
102467
102461
102459
102453
102451
102446
102443
102438
102435
102430
102427
102421
102498
102490
102490
102483
102482
102476
102474
102468
102467
102461
102459
102453
102451
102446
102443
102438
102435
102430
102427
102421
102498
102490
102490
102483
102482
102476
102474
102468
102467
102461
102459
102453
102451
102446
102443
102438
102435
102430
102427
102421
102498
102490
102490
102483
102482
102476
102474
102468
102467
102461
102459
102453
102451
102446
102443
102438
102435
102430
102427
102421
102498
102490
102490
102483
102482
102476
102474
102468
102467
102461
102459
102453
102451
102446
102443
102438
102435
102430
102427
102421
102498
102490
102490
102483
102482
102476
102474
102468
102467
102461
102459
102453
102451
102446
102443
102438
102435
102430
102427
102421
102497
102490
102490
102483
102482
102476
102474
102468
102467
102461
102459
102453
102451
102446
102443
102438
102435
102430
102427
102421
102497
102490
102490
102483
102482
102476
102474
102468
102467
102461
102459
102453
102451
102446
102443
102438
102435
102430
102427
102421
102497
102490
102490
102483
102482
102476
102474
102468
102467
102461
102459
102453
102451
102446
102443
102438
102435
102430
102427
102421
102497
102490
102490
102483
102482
102476
102474
102468
102467
102461
102459
102453
102451
102446
102443
102438
102435
102430
102427
102421
102497
102490
102490
102483
102482
102476
102474
102468
102467
102461
102459
102453
102451
102446
102443
102438
102435
102430
102427
102421
102497
102490
102490
102483
102482
102476
102474
102468
102467
102461
102459
102453
102451
102446
102443
102438
102435
102430
102427
102421
102498
102490
102490
102483
102482
102476
102474
102468
102467
102461
102459
102453
102451
102446
102443
102438
102435
102430
102427
102421
102498
102490
102490
102483
102482
102476
102474
102468
102467
102461
102459
102453
102451
102446
102443
102438
102435
102430
102427
102421
102498
102490
102490
102483
102482
102476
102474
102468
102467
102461
102459
102453
102451
102446
102443
102438
102435
102430
102427
102421
102508
102504
102498
102494
102490
102486
102482
102477
102475
102469
102467
102461
102459
102453
102451
102445
102443
102437
102434
102429
102519
102516
102510
102506
102502
102497
102494
102489
102486
102481
102478
102473
102470
102465
102462
102456
102454
102448
102446
102441
102510
102506
102501
102497
102493
102488
102485
102480
102477
102472
102469
102464
102462
102456
102453
102448
102445
102439
102437
102431
102516
102513
102507
102503
102499
102495
102492
102487
102484
102478
102476
102470
102468
102462
102460
102454
102452
102446
102444
102438
102512
102509
102503
102499
102495
102490
102487
102482
102479
102474
102472
102466
102464
102458
102456
102450
102448
102442
102439
102434
102514
102511
102505
102501
102497
102493
102489
102484
102482
102476
102474
102468
102466
102460
102458
102452
102450
102444
102442
102436
102514
102511
102505
102501
102497
102493
102489
102484
102482
102476
102474
102468
102466
102460
102458
102452
102450
102444
102442
102436
102512
102509
102503
102499
102495
102490
102487
102482
102479
102474
102472
102466
102464
102458
102456
102450
102448
102442
102439
102434
102516
102513
102507
102503
102499
102495
102492
102487
102484
102478
102476
102470
102468
102462
102460
102454
102452
102446
102444
102438
102510
102506
102501
102497
102493
102488
102485
102480
102477
102472
102469
102464
102462
102456
102453
102448
102445
102439
102437
102431
102519
102516
102510
102506
102502
102497
102494
102489
102486
102481
102478
102473
102470
102465
102462
102456
102454
102448
102446
102441
102508
102504
102498
102494
102490
102486
102482
102477
102475
102469
102467
102461
102459
102453
102451
102445
102443
102437
102434
102429
102545
102523
102530
102514
102520
102506
102510
102498
102501
102490
102491
102482
102482
102473
102473
102464
102463
102456
102454
102446
102529
102510
102517
102502
102507
102494
102498
102486
102488
102477
102479
102469
102470
102460
102460
102452
102451
102443
102441
102434
102537
102519
102525
102509
102514
102501
102505
102493
102495
102484
102486
102476
102477
102467
102467
102459
102458
102450
102448
102441
102530
102513
102519
102504
102509
102495
102499
102487
102490
102479
102480
102471
102471
102462
102462
102453
102452
102444
102443
102435
102534
102517
102523
102507
102512
102499
102503
102491
102493
102483
102484
102474
102475
102466
102465
102457
102456
102448
102447
102439
102532
102515
102521
102506
102511
102497
102501
102489
102492
102481
102482
102472
102473
102464
102464
102455
102454
102446
102445
102437
102532
102515
102521
102506
102511
102497
102501
102489
102492
102481
102482
102472
102473
102464
102464
102455
102454
102446
102445
102437
102534
102517
102523
102507
102512
102499
102503
102491
102493
102483
102484
102474
102475
102466
102465
102457
102456
102448
102447
102439
102530
102513
102519
102504
102509
102495
102499
102487
102490
102479
102480
102471
102471
102462
102462
102453
102452
102444
102443
102435
102537
102519
102525
102509
102514
102501
102505
102493
102495
102484
102486
102476
102477
102467
102467
102459
102458
102450
102448
102441
102529
102510
102517
102502
102507
102494
102498
102486
102488
102477
102479
102469
102470
102460
102460
102452
102451
102443
102441
102434
102545
102523
102530
102514
102520
102506
102510
102498
102501
102490
102491
102482
102482
102473
102473
102464
102463
102456
102454
102446
102460
102426
102418
102385
102374
102341
102329
102296
102282
102249
102233
102201
102184
102152
102133
102101
102081
102049
102029
101998
101977
101946
101925
101894
101872
101841
101819
101788
101765
101735
101712
101682
101659
101629
101605
101575
101551
101522
101497
101468
101443
101414
101389
101360
101334
101305
101280
101251
101225
101196
101170
101141
101115
101086
101060
101031
101005
100976
100949
100921
100894
100865
100838
100810
100783
100754
100727
100698
100671
100642
100615
100586
100559
100530
100502
100474
100446
100418
100390
100361
100333
100305
100277
100248
100220
100192
100163
100135
100107
100079
102426
102392
102383
102350
102340
102307
102294
102261
102247
102215
102199
102167
102149
102117
102098
102066
102047
102015
101995
101963
101942
101911
101890
101859
101837
101806
101784
101754
101731
101701
101678
101648
101624
101594
101571
101541
101517
101487
101463
101433
101409
101379
101354
101325
101300
101271
101245
101216
101191
101162
101136
101107
101081
101052
101026
100997
100970
100942
100915
100887
100860
100831
100804
100776
100748
100720
100693
100664
100637
100608
100581
100552
100525
100496
100468
100440
100412
100384
100356
100328
100299
100271
100243
100214
100186
100158
100129
100101
100073
100045
102444
102410
102402
102369
102358
102326
102313
102280
102266
102234
102218
102185
102168
102136
102117
102085
102065
102034
102013
101982
101961
101930
101909
101878
101856
101825
101803
101773
101750
101720
101697
101667
101643
101613
101589
101560
101536
101506
101482
101452
101427
101398
101373
101344
101319
101290
101264
101235
101209
101180
101154
101126
101100
101071
101044
101016
100989
100960
100934
100905
100878
100850
100823
100794
100767
100739
100711
100683
100655
100627
100599
100571
100543
100515
100487
100459
100431
100402
100374
100346
100318
100290
100261
100233
100205
100176
100148
100120
100091
100063
102430
102395
102387
102354
102343
102310
102298
102265
102251
102218
102202
102170
102153
102121
102102
102070
102050
102019
101998
101967
101946
101915
101894
101863
101841
101810
101788
101757
101735
101705
101682
101652
101628
101598
101574
101545
101520
101491
101467
101437
101412
101383
101358
101329
101304
101275
101249
101220
101194
101165
101139
101111
101085
101056
101029
101001
100974
100946
100919
100890
100863
100835
100808
100779
100752
100724
100696
100668
100640
100612
100584
100556
100528
100500
100472
100444
100416
100388
100359
100331
100303
100275
100246
100218
100190
100162
100133
100105
100076
100049
102439
102405
102397
102364
102353
102320
102308
102275
102261
102228
102212
102180
102163
102131
102112
102080
102060
102028
102008
101977
101956
101925
101904
101873
101851
101820
101798
101767
101745
101714
101691
101661
101638
101608
101584
101554
101530
101501
101476
101447
101422
101393
101368
101339
101313
101284
101259
101230
101204
101175
101149
101120
101094
101066
101039
101010
100984
100955
100929
100900
100873
100844
100817
100789
100762
100733
100706
100678
100650
100622
100594
100566
100538
100510
100482
100454
100426
100397
100369
100341
100313
100284
100256
100228
100199
100171
100143
100115
100086
100058
102435
102400
102392
102359
102348
102315
102303
102270
102256
102223
102207
102175
102158
102126
102107
102075
102055
102023
102003
101972
101951
101920
101899
101868
101846
101815
101793
101762
101740
101710
101686
101656
101633
101603
101579
101549
101525
101496
101471
101442
101417
101388
101363
101334
101309
101280
101254
101225
101199
101170
101144
101116
101089
101061
101034
101006
100979
100950
100924
100895
100868
100840
100813
100784
100757
100728
100701
100673
100645
100617
100589
100561
100533
100505
100477
100449
100421
100392
100364
100336
100308
100280
100251
100223
100195
100166
100138
100110
100081
100053
102435
102400
102392
102359
102348
102315
102303
102270
102256
102223
102207
102175
102158
102126
102107
102075
102055
102023
102003
101972
101951
101920
101899
101868
101846
101815
101793
101762
101740
101710
101686
101656
101633
101603
101579
101550
101525
101496
101472
101442
101417
101388
101363
101334
101309
101280
101254
101225
101199
101170
101144
101116
101089
101061
101034
101006
100979
100950
100924
100895
100868
100840
100813
100784
100757
100729
100701
100673
100645
100617
100589
100561
100533
100505
100477
100449
100421
100392
100364
100336
100308
100280
100251
100223
100195
100166
100138
100110
100081
100053
102439
102405
102397
102364
102353
102320
102307
102275
102260
102228
102212
102180
102163
102130
102112
102080
102060
102028
102008
101977
101956
101925
101903
101873
101851
101820
101797
101767
101744
101714
101691
101661
101638
101608
101584
101554
101530
101501
101476
101447
101422
101393
101368
101339
101313
101284
101259
101230
101204
101175
101149
101120
101094
101065
101039
101010
100984
100955
100928
100900
100873
100844
100817
100789
100762
100733
100706
100677
100650
100622
100594
100566
100538
100510
100482
100453
100425
100397
100369
100341
100313
100284
100256
100228
100199
100171
100143
100114
100086
100058
102430
102395
102387
102354
102343
102310
102298
102265
102251
102219
102203
102170
102153
102121
102102
102070
102050
102019
101998
101967
101946
101915
101894
101863
101841
101810
101788
101758
101735
101705
101682
101652
101628
101598
101574
101545
101521
101491
101467
101437
101412
101383
101358
101329
101304
101275
101249
101220
101194
101165
101140
101111
101085
101056
101029
101001
100974
100946
100919
100890
100863
100835
100808
100779
100752
100724
100696
100668
100640
100612
100585
100556
100528
100500
100472
100444
100416
100388
100360
100331
100303
100275
100246
100218
100190
100162
100133
100105
100077
100049
102444
102410
102402
102369
102358
102325
102313
102280
102266
102234
102218
102185
102168
102136
102117
102085
102065
102034
102013
101982
101961
101930
101909
101878
101856
101825
101803
101772
101750
101720
101696
101667
101643
101613
101589
101560
101535
101506
101482
101452
101427
101398
101373
101344
101319
101290
101264
101235
101209
101180
101154
101126
101099
101071
101044
101016
100989
100960
100934
100905
100878
100850
100823
100794
100767
100738
100711
100683
100655
100627
100599
100571
100543
100515
100487
100459
100431
100402
100374
100346
100318
100289
100261
100233
100205
100176
100148
100120
100091
100063
102426
102392
102383
102350
102340
102307
102294
102261
102247
102215
102199
102167
102149
102117
102098
102066
102047
102015
101995
101963
101943
101911
101890
101859
101837
101806
101784
101754
101731
101701
101678
101648
101624
101594
101571
101541
101517
101487
101463
101434
101409
101379
101354
101325
101300
101271
101245
101216
101191
101162
101136
101107
101081
101052
101026
100997
100970
100942
100915
100887
100860
100831
100804
100776
100748
100720
100693
100664
100637
100608
100581
100552
100525
100496
100469
100440
100412
100384
100356
100328
100299
100271
100243
100215
100186
100158
100129
100101
100073
100045
102460
102426
102418
102385
102374
102341
102328
102296
102281
102249
102233
102201
102184
102151
102133
102101
102081
102049
102029
101998
101977
101946
101924
101893
101871
101841
101818
101788
101765
101735
101712
101682
101659
101629
101605
101575
101551
101522
101497
101468
101443
101414
101389
101359
101334
101305
101280
101251
101225
101196
101170
101141
101115
101086
101060
101031
101004
100976
100949
100921
100894
100865
100838
100810
100782
100754
100727
100698
100671
100642
100615
100586
100559
100530
100502
100474
100446
100418
100390
100361
100333
100305
100276
100248
100220
100192
100163
100135
100106
100078
102408
102378
102370
102340
102329
102298
102286
102255
102240
102209
102193
102162
102144
102113
102094
102062
102043
102011
101991
101960
101939
101908
101887
101856
101834
101804
101781
101751
101728
101698
101675
101645
101621
101592
101568
101538
101514
101484
101460
101431
101406
101377
101352
101322
101297
101268
101243
101214
101188
101159
101133
101104
101078
101049
101023
100994
100967
100939
100912
100884
100857
100828
100801
100773
100745
100717
100690
100661
100634
100605
100578
100549
100522
100493
100465
100437
100409
100381
100353
100324
100296
100268
100239
100211
100183
100155
100126
100098
100069
100041
102440
102410
102402
102372
102362
102331
102318
102287
102273
102242
102226
102194
102177
102145
102127
102095
102075
102044
102024
101992
101972
101941
101919
101888
101867
101836
101814
101783
101761
101730
101707
101677
101654
101624
101600
101570
101546
101517
101492
101463
101438
101409
101384
101355
101329
101300
101275
101246
101220
101191
101165
101136
101110
101081
101055
101026
101000
100971
100944
100916
100889
100860
100833
100805
100777
100749
100722
100693
100666
100637
100610
100581
100553
100525
100497
100469
100441
100413
100384
100356
100328
100300
100271
100243
100215
100186
100158
100130
100101
100073
102416
102386
102377
102348
102337
102306
102293
102262
102248
102217
102201
102170
102152
102120
102102
102070
102051
102019
101999
101968
101947
101916
101895
101864
101842
101811
101789
101759
101736
101706
101683
101653
101629
101599
101575
101546
101522
101492
101468
101438
101414
101384
101359
101330
101305
101276
101250
101221
101195
101166
101141
101112
101086
101057
101030
101002
100975
100947
100920
100891
100864
100836
100809
100780
100753
100725
100697
100669
100641
100613
100585
100557
100529
100501
100473
100445
100417
100388
100360
100332
100304
100275
100247
100219
100190
100162
100134
100105
100077
100049
102434
102404
102396
102366
102355
102325
102312
102281
102267
102235
102219
102188
102171
102139
102120
102088
102069
102037
102017
101986
101965
101934
101913
101882
101860
101830
101807
101777
101754
101724
101701
101671
101647
101618
101594
101564
101540
101510
101486
101457
101432
101402
101377
101348
101323
101294
101268
101239
101214
101185
101159
101130
101104
101075
101049
101020
100993
100965
100938
100909
100882
100854
100827
100798
100771
100743
100715
100687
100659
100631
100603
100575
100547
100519
100491
100463
100435
100406
100378
100350
100322
100293
100265
100237
100208
100180
100152
100123
100095
100067
102422
102392
102384
102354
102343
102312
102300
102269
102254
102223
102207
102176
102158
102127
102108
102076
102057
102025
102005
101974
101953
101922
101901
101870
101848
101817
101795
101765
101742
101712
101689
101659
101635
101605
101582
101552
101528
101498
101474
101445
101420
101390
101365
101336
101311
101282
101256
101227
101202
101173
101147
101118
101092
101063
101037
101008
100981
100953
100926
100897
100870
100842
100815
100786
100759
100731
100703
100675
100647
100619
100591
100563
100535
100507
100479
100451
100423
100394
100366
100338
100310
100282
100253
100225
100196
100168
100140
100112
100083
100055
102428
102398
102390
102360
102349
102319
102306
102275
102260
102229
102213
102182
102165
102133
102114
102082
102063
102031
102011
101980
101959
101928
101907
101876
101854
101823
101801
101771
101748
101718
101695
101665
101641
101612
101588
101558
101534
101504
101480
101451
101426
101396
101371
101342
101317
101288
101262
101233
101208
101179
101153
101124
101098
101069
101043
101014
100987
100959
100932
100903
100876
100848
100821
100792
100765
100737
100709
100681
100653
100625
100597
100569
100541
100513
100485
100457
100429
100400
100372
100344
100316
100287
100259
100231
100202
100174
100146
100117
100089
100061
102428
102398
102390
102360
102349
102318
102306
102275
102260
102229
102213
102182
102164
102133
102114
102082
102063
102031
102011
101980
101959
101928
101907
101876
101854
101823
101801
101771
101748
101718
101695
101665
101641
101611
101588
101558
101534
101504
101480
101450
101426
101396
101371
101342
101317
101288
101262
101233
101208
101179
101153
101124
101098
101069
101043
101014
100987
100959
100932
100903
100876
100848
100821
100792
100765
100737
100709
100681
100653
100625
100597
100569
100541
100513
100485
100457
100429
100400
100372
100344
100316
100287
100259
100231
100202
100174
100146
100117
100089
100061
102422
102392
102384
102354
102343
102312
102300
102269
102254
102223
102207
102176
102159
102127
102108
102076
102057
102025
102005
101974
101953
101922
101901
101870
101848
101817
101795
101765
101742
101712
101689
101659
101635
101606
101582
101552
101528
101498
101474
101445
101420
101390
101365
101336
101311
101282
101256
101227
101202
101173
101147
101118
101092
101063
101037
101008
100981
100953
100926
100897
100871
100842
100815
100786
100759
100731
100703
100675
100648
100619
100592
100563
100535
100507
100479
100451
100423
100395
100366
100338
100310
100282
100253
100225
100197
100168
100140
100112
100083
100055
102433
102404
102396
102366
102355
102325
102312
102281
102266
102235
102219
102188
102171
102139
102120
102088
102069
102037
102017
101986
101965
101934
101913
101882
101860
101829
101807
101777
101754
101724
101701
101671
101647
101617
101594
101564
101540
101510
101486
101457
101432
101402
101377
101348
101323
101294
101268
101239
101214
101185
101159
101130
101104
101075
101049
101020
100993
100965
100938
100909
100882
100854
100827
100798
100771
100743
100715
100687
100659
100631
100603
100575
100547
100519
100491
100463
100435
100406
100378
100350
100322
100293
100265
100237
100208
100180
100152
100123
100095
100066
102416
102386
102377
102348
102337
102306
102294
102262
102248
102217
102201
102170
102152
102121
102102
102070
102051
102019
101999
101968
101947
101916
101895
101864
101842
101811
101789
101759
101736
101706
101683
101653
101629
101599
101575
101546
101522
101492
101468
101438
101414
101384
101359
101330
101305
101276
101250
101221
101195
101167
101141
101112
101086
101057
101030
101002
100975
100947
100920
100891
100864
100836
100809
100780
100753
100725
100697
100669
100641
100613
100585
100557
100529
100501
100473
100445
100417
100388
100360
100332
100304
100275
100247
100219
100190
100162
100134
100105
100077
100049
102440
102410
102402
102372
102362
102331
102318
102287
102273
102241
102226
102194
102177
102145
102126
102095
102075
102044
102023
101992
101972
101941
101919
101888
101866
101836
101813
101783
101760
101730
101707
101677
101654
101624
101600
101570
101546
101517
101492
101463
101438
101409
101384
101354
101329
101300
101275
101246
101220
101191
101165
101136
101110
101081
101055
101026
100999
100971
100944
100915
100889
100860
100833
100804
100777
100749
100721
100693
100666
100637
100610
100581
100553
100525
100497
100469
100441
100412
100384
100356
100328
100299
100271
100243
100214
100186
100158
100129
100101
100073
102408
102378
102370
102340
102329
102298
102286
102255
102240
102209
102193
102162
102144
102113
102094
102062
102043
102011
101991
101960
101939
101908
101887
101856
101834
101803
101781
101751
101728
101698
101675
101645
101621
101592
101568
101538
101514
101484
101460
101431
101406
101377
101351
101322
101297
101268
101243
101213
101188
101159
101133
101104
101078
101049
101023
100994
100967
100939
100912
100884
100857
100828
100801
100773
100745
100717
100690
100661
100634
100605
100578
100549
100522
100493
100465
100437
100409
100381
100353
100324
100296
100268
100239
100211
100183
100155
100126
100098
100069
100041
102415
102388
102379
102351
102340
102311
102298
102268
102254
102224
102208
102177
102160
102129
102110
102079
102059
102028
102008
101977
101956
101925
101904
101873
101851
101821
101799
101768
101746
101715
101692
101662
101639
101609
101585
101555
101531
101502
101477
101448
101423
101394
101369
101340
101314
101285
101260
101231
101205
101176
101150
101121
101095
101066
101040
101011
100985
100956
100929
100901
100874
100845
100818
100790
100762
100734
100707
100678
100651
100622
100595
100566
100538
100510
100482
100454
100426
100397
100369
100341
100313
100284
100256
100228
100199
100171
100142
100114
100085
100057
102415
102388
102379
102351
102340
102311
102298
102268
102254
102224
102208
102177
102160
102129
102110
102079
102059
102028
102008
101977
101956
101925
101904
101873
101851
101821
101799
101768
101746
101715
101692
101662
101639
101609
101585
101555
101531
101502
101477
101448
101423
101394
101369
101340
101314
101285
101260
101231
101205
101176
101150
101121
101095
101066
101040
101011
100985
100956
100929
100901
100874
100845
100818
100790
100762
100734
100707
100678
100651
100622
100595
100566
100538
100510
100482
100454
100426
100397
100369
100341
100313
100284
100256
100228
100199
100171
100142
100114
100085
100057
102415
102388
102379
102351
102340
102311
102298
102268
102254
102224
102208
102177
102160
102129
102110
102079
102059
102028
102008
101977
101956
101925
101904
101873
101851
101821
101798
101768
101746
101715
101692
101662
101639
101609
101585
101555
101531
101502
101477
101448
101423
101394
101369
101340
101314
101285
101260
101231
101205
101176
101150
101121
101095
101066
101040
101011
100985
100956
100929
100901
100874
100845
100818
100790
100762
100734
100707
100678
100651
100622
100595
100566
100538
100510
100482
100454
100426
100397
100369
100341
100313
100284
100256
100228
100199
100171
100142
100114
100085
100057
102415
102388
102379
102351
102340
102311
102298
102268
102254
102224
102208
102177
102160
102129
102110
102079
102059
102028
102008
101977
101956
101925
101904
101873
101851
101821
101799
101768
101746
101715
101692
101662
101639
101609
101585
101555
101531
101502
101477
101448
101423
101394
101369
101340
101314
101285
101260
101231
101205
101176
101150
101121
101095
101066
101040
101011
100985
100956
100929
100901
100874
100845
100818
100790
100762
100734
100707
100678
100651
100622
100595
100566
100538
100510
100482
100454
100426
100397
100369
100341
100313
100284
100256
100228
100199
100171
100142
100114
100085
100057
102415
102388
102379
102351
102340
102311
102298
102268
102254
102224
102208
102177
102160
102129
102110
102079
102059
102028
102008
101977
101956
101925
101904
101873
101851
101821
101798
101768
101746
101715
101692
101662
101639
101609
101585
101555
101531
101502
101477
101448
101423
101394
101369
101340
101314
101285
101260
101231
101205
101176
101150
101121
101095
101066
101040
101011
100985
100956
100929
100901
100874
100845
100818
100790
100762
100734
100706
100678
100651
100622
100595
100566
100538
100510
100482
100454
100426
100397
100369
100341
100313
100284
100256
100228
100199
100171
100142
100114
100085
100057
102415
102388
102379
102351
102340
102311
102298
102268
102254
102224
102208
102177
102160
102129
102110
102079
102059
102028
102008
101977
101956
101925
101904
101873
101851
101821
101798
101768
101746
101715
101692
101662
101639
101609
101585
101555
101531
101502
101477
101448
101423
101394
101369
101340
101314
101285
101260
101231
101205
101176
101150
101121
101095
101066
101040
101011
100985
100956
100929
100901
100874
100845
100818
100790
100762
100734
100707
100678
100651
100622
100595
100566
100538
100510
100482
100454
100426
100397
100369
100341
100313
100284
100256
100228
100199
100171
100142
100114
100085
100057
102415
102388
102379
102351
102340
102311
102298
102268
102254
102224
102208
102177
102160
102129
102110
102079
102059
102028
102008
101977
101956
101925
101904
101873
101851
101821
101798
101768
101746
101715
101692
101662
101639
101609
101585
101555
101531
101502
101477
101448
101423
101394
101369
101340
101314
101285