/*--------------------------------*- C++ -*----------------------------------*\
  =========                 |
  \\      /  F ield         | OpenFOAM: The Open Source CFD Toolbox
   \\    /   O peration     | Website:  https://openfoam.org
    \\  /    A nd           | Version:  7
     \\/     M anipulation  |
\*---------------------------------------------------------------------------*/
FoamFile
{
    version     2.0;
    format      ascii;
    class       volVectorField;
    location    "1.1425";
    object      U;
}
// * * * * * * * * * * * * * * * * * * * * * * * * * * * * * * * * * * * * * //

dimensions      [0 1 -1 0 0 0 0];

internalField   nonuniform List<vector> 
7920
(
(2.92862 0.101741 -32.3871)
(2.10159 -0.462837 -32.4452)
(1.38792 -0.61774 -32.4497)
(1.27869 -0.674198 -32.4616)
(1.04393 -0.691111 -32.4592)
(1.06942 -0.696069 -32.4651)
(0.928461 -0.700088 -32.4613)
(0.973403 -0.7002 -32.4646)
(0.868052 -0.702632 -32.4609)
(0.912511 -0.702297 -32.463)
(0.828617 -0.703792 -32.4599)
(0.868852 -0.703183 -32.4617)
(0.800397 -0.704073 -32.4597)
(0.835724 -0.703461 -32.4615)
(0.779119 -0.703808 -32.4608)
(0.809462 -0.703914 -32.4623)
(0.761599 -0.699994 -32.463)
(0.782044 -0.706483 -32.4631)
(0.747689 -0.648007 -32.467)
(0.574645 -0.660948 -32.4579)
(4.40991 0.967723 -32.4343)
(4.3298 0.872951 -32.4854)
(3.6742 0.818585 -32.4966)
(3.52392 0.75149 -32.5162)
(3.12173 0.72388 -32.5208)
(3.11433 0.710556 -32.5294)
(2.84968 0.70411 -32.5278)
(2.88983 0.700716 -32.5298)
(2.69199 0.698562 -32.5257)
(2.74253 0.696804 -32.5249)
(2.58533 0.695653 -32.5204)
(2.63524 0.694386 -32.5192)
(2.50684 0.69361 -32.5164)
(2.55298 0.692613 -32.5164)
(2.4462 0.691964 -32.5167)
(2.48913 0.691968 -32.5173)
(2.39428 0.688927 -32.5218)
(2.45254 0.693583 -32.519)
(2.33229 0.684199 -32.534)
(2.60482 0.676279 -32.4978)
(4.75056 0.193221 -32.4386)
(5.25464 -0.229387 -32.4796)
(5.1071 -0.375883 -32.4787)
(5.21619 -0.494875 -32.4991)
(4.96851 -0.560218 -32.5023)
(5.01564 -0.597167 -32.5166)
(4.79792 -0.621762 -32.5145)
(4.83753 -0.635657 -32.5206)
(4.65756 -0.646148 -32.5146)
(4.69479 -0.652742 -32.5155)
(4.5461 -0.658138 -32.5075)
(4.58061 -0.662095 -32.5048)
(4.4569 -0.665216 -32.4971)
(4.48793 -0.667936 -32.4944)
(4.3853 -0.670046 -32.4912)
(4.40957 -0.671224 -32.4901)
(4.33131 -0.674206 -32.494)
(4.32859 -0.670761 -32.4912)
(4.29996 -0.671186 -32.5061)
(4.19916 -0.693461 -32.4783)
(4.75166 0.649516 -32.4487)
(5.28116 0.749917 -32.4862)
(5.3793 0.7973 -32.483)
(5.68217 0.767657 -32.4992)
(5.6206 0.749826 -32.5026)
(5.78961 0.735512 -32.5158)
(5.69259 0.725213 -32.5157)
(5.80183 0.717227 -32.521)
(5.7036 0.711102 -32.517)
(5.78143 0.705474 -32.5177)
(5.69097 0.701496 -32.5115)
(5.74975 0.697314 -32.5073)
(5.66854 0.694781 -32.4988)
(5.71568 0.691347 -32.4917)
(5.64182 0.690494 -32.4855)
(5.68544 0.686502 -32.4803)
(5.61103 0.689699 -32.4802)
(5.67001 0.682024 -32.4769)
(5.57616 0.697461 -32.4844)
(5.71676 0.706839 -32.4598)
(4.74371 -0.0881911 -32.4477)
(5.24462 -0.387457 -32.4852)
(5.40004 -0.480422 -32.4785)
(5.7587 -0.546583 -32.4947)
(5.76692 -0.582716 -32.4952)
(5.99664 -0.602928 -32.509)
(5.96675 -0.617337 -32.507)
(6.12912 -0.625379 -32.5132)
(6.09042 -0.63223 -32.5077)
(6.21217 -0.636559 -32.5097)
(6.17251 -0.640726 -32.5029)
(6.26645 -0.643724 -32.5006)
(6.22806 -0.646833 -32.4907)
(6.30169 -0.648741 -32.4839)
(6.26614 -0.652351 -32.4739)
(6.32343 -0.651084 -32.468)
(6.29537 -0.66016 -32.4633)
(6.33101 -0.649505 -32.4604)
(6.32261 -0.672829 -32.4624)
(6.32022 -0.695874 -32.4381)
(4.73119 0.352175 -32.4513)
(5.18792 0.55746 -32.4895)
(5.35338 0.636107 -32.4826)
(5.72754 0.656451 -32.499)
(5.7597 0.666842 -32.4989)
(6.0133 0.670254 -32.5126)
(6.01035 0.672476 -32.51)
(6.1974 0.672608 -32.5161)
(6.18619 0.672868 -32.5102)
(6.33163 0.672072 -32.5123)
(6.31827 0.671904 -32.5055)
(6.4338 0.67099 -32.5038)
(6.41922 0.671007 -32.4939)
(6.51211 0.669778 -32.4871)
(6.49657 0.671172 -32.4761)
(6.57278 0.667636 -32.4694)
(6.55709 0.675096 -32.4632)
(6.62165 0.664087 -32.4594)
(6.60901 0.688018 -32.46)
(6.67301 0.710228 -32.4334)
(4.73119 -0.352175 -32.4513)
(5.18792 -0.55746 -32.4895)
(5.35338 -0.636108 -32.4826)
(5.72754 -0.65645 -32.499)
(5.7597 -0.666842 -32.4988)
(6.0133 -0.670252 -32.5126)
(6.01035 -0.672474 -32.51)
(6.1974 -0.672604 -32.5161)
(6.1862 -0.672863 -32.5102)
(6.33163 -0.672063 -32.5123)
(6.31828 -0.671888 -32.5055)
(6.43379 -0.670968 -32.5038)
(6.41925 -0.67096 -32.4938)
(6.5121 -0.669696 -32.4872)
(6.49666 -0.671074 -32.476)
(6.57273 -0.667322 -32.4694)
(6.55732 -0.674931 -32.4631)
(6.62152 -0.663103 -32.4595)
(6.60938 -0.687444 -32.4599)
(6.67287 -0.708335 -32.4334)
(4.74371 0.0881911 -32.4477)
(5.24462 0.387457 -32.4852)
(5.40003 0.480422 -32.4785)
(5.7587 0.546584 -32.4947)
(5.76692 0.582716 -32.4952)
(5.99664 0.602929 -32.509)
(5.96675 0.617339 -32.5069)
(6.12912 0.625383 -32.5132)
(6.09042 0.632235 -32.5077)
(6.21219 0.636565 -32.5097)
(6.1725 0.640744 -32.5029)
(6.26649 0.64374 -32.5007)
(6.22804 0.646883 -32.4906)
(6.3018 0.648805 -32.4841)
(6.26612 0.652458 -32.4737)
(6.32369 0.651359 -32.4682)
(6.29545 0.660337 -32.463)
(6.33167 0.650446 -32.4608)
(6.32324 0.673352 -32.4619)
(6.32192 0.697913 -32.4386)
(4.75166 -0.649516 -32.4487)
(5.28116 -0.749916 -32.4862)
(5.3793 -0.7973 -32.483)
(5.68217 -0.767656 -32.4992)
(5.6206 -0.749826 -32.5026)
(5.78961 -0.73551 -32.5158)
(5.69259 -0.725212 -32.5156)
(5.80184 -0.717223 -32.5211)
(5.7036 -0.711099 -32.517)
(5.78145 -0.705465 -32.5177)
(5.69098 -0.701484 -32.5114)
(5.7498 -0.697291 -32.5075)
(5.66857 -0.694748 -32.4985)
(5.7158 -0.691269 -32.4921)
(5.64195 -0.690433 -32.4849)
(5.68569 -0.686217 -32.4812)
(5.61155 -0.689627 -32.4789)
(5.67053 -0.681168 -32.4788)
(5.57768 -0.697123 -32.4816)
(5.71808 -0.70526 -32.4635)
(4.75056 -0.193221 -32.4386)
(5.25464 0.229387 -32.4796)
(5.1071 0.375883 -32.4787)
(5.21619 0.494875 -32.4991)
(4.96851 0.560219 -32.5022)
(5.01565 0.597168 -32.5166)
(4.79792 0.621764 -32.5145)
(4.83754 0.635658 -32.5206)
(4.65756 0.646153 -32.5145)
(4.69482 0.652743 -32.5156)
(4.5461 0.658153 -32.5073)
(4.58069 0.662098 -32.505)
(4.45691 0.665255 -32.4968)
(4.48816 0.667953 -32.4949)
(4.38536 0.670132 -32.4904)
(4.41017 0.671341 -32.4916)
(4.33171 0.674348 -32.4915)
(4.3301 0.671279 -32.4955)
(4.30156 0.671527 -32.4986)
(4.20382 0.694572 -32.4906)
(4.40991 -0.967723 -32.4343)
(4.3298 -0.872951 -32.4854)
(3.6742 -0.818585 -32.4966)
(3.52392 -0.75149 -32.5162)
(3.12173 -0.72388 -32.5208)
(3.11434 -0.710556 -32.5294)
(2.84968 -0.704109 -32.5277)
(2.88983 -0.700714 -32.5298)
(2.692 -0.698562 -32.5256)
(2.74254 -0.696799 -32.525)
(2.58535 -0.69565 -32.5203)
(2.6353 -0.694372 -32.5193)
(2.50689 -0.693602 -32.5162)
(2.55316 -0.692565 -32.5168)
(2.44638 -0.691958 -32.5161)
(2.48953 -0.69179 -32.5184)
(2.39503 -0.688999 -32.5199)
(2.45317 -0.693078 -32.5229)
(2.33486 -0.684438 -32.525)
(2.60533 -0.676264 -32.5194)
(2.92862 -0.101741 -32.3871)
(2.10159 0.462837 -32.4452)
(1.38792 0.61774 -32.4497)
(1.27869 0.674198 -32.4616)
(1.04393 0.691112 -32.4592)
(1.06942 0.696069 -32.4651)
(0.928462 0.700088 -32.4613)
(0.973406 0.700199 -32.4646)
(0.868056 0.702634 -32.4609)
(0.912521 0.702294 -32.463)
(0.828626 0.703795 -32.4599)
(0.868884 0.703173 -32.4617)
(0.800417 0.704082 -32.4596)
(0.835818 0.703429 -32.4616)
(0.779189 0.703837 -32.4606)
(0.809689 0.703814 -32.4626)
(0.761932 0.700123 -32.4624)
(0.782505 0.706273 -32.4643)
(0.749025 0.648657 -32.4643)
(0.576849 0.66158 -32.4654)
(4.32345 0.56604 0.00678612)
(3.07471 0.847845 0.00431849)
(2.30819 0.869818 0.00559294)
(1.73928 0.853241 0.00411745)
(1.60014 0.856164 0.00526392)
(1.39501 0.86812 0.00409612)
(1.38761 0.878087 0.00505196)
(1.26463 0.8861 0.00407197)
(1.27103 0.890226 0.00485418)
(1.18379 0.893759 0.0040279)
(1.1911 0.895338 0.00466969)
(1.12705 0.897252 0.00397639)
(1.13272 0.897922 0.00450404)
(1.08369 0.899326 0.00392423)
(1.08806 0.899164 0.00435745)
(1.0471 0.901532 0.00387251)
(1.05333 0.894166 0.00422917)
(1.02827 0.915684 0.00381873)
(0.985702 0.791698 0.00414342)
(1.42447 0.820023 0.0037137)
(4.75765 -0.100036 0.00420918)
(4.60753 -0.277392 0.00217555)
(4.51856 -0.478049 0.00348079)
(4.13274 -0.644663 0.00203876)
(3.98744 -0.741514 0.00319401)
(3.70576 -0.797005 0.00203142)
(3.62899 -0.824561 0.00299168)
(3.43841 -0.84157 0.00201376)
(3.39563 -0.851716 0.002799)
(3.25947 -0.859359 0.00197384)
(3.23105 -0.864567 0.00261752)
(3.12946 -0.868915 0.00192513)
(3.10761 -0.871769 0.00245419)
(3.02834 -0.874974 0.0018751)
(3.0114 -0.875667 0.00230889)
(2.94282 -0.880197 0.0018252)
(2.93983 -0.876887 0.00217726)
(2.85151 -0.884518 0.00177516)
(2.92512 -0.887201 0.00203223)
(2.51303 -0.896399 0.00165626)
(4.6364 0.435407 0.00550784)
(4.82267 0.87186 0.00355154)
(5.13596 0.970214 0.00473921)
(5.07299 0.961044 0.00325736)
(5.13173 0.942917 0.00438739)
(4.99223 0.92973 0.00321255)
(4.99468 0.920331 0.00416753)
(4.87145 0.914435 0.00318614)
(4.86217 0.907933 0.00396953)
(4.76171 0.904278 0.00314201)
(4.74752 0.899667 0.00378387)
(4.66612 0.897485 0.00308919)
(4.64935 0.894449 0.00361642)
(4.58363 0.892954 0.00303574)
(4.56396 0.891399 0.00346864)
(4.51486 0.8893 0.00298316)
(4.48236 0.888357 0.00334058)
(4.47381 0.887774 0.0029291)
(4.39004 0.850149 0.00325541)
(4.50599 0.88914 0.00284729)
(4.57447 -0.20181 0.00432875)
(4.69594 -0.398466 0.00259146)
(5.12466 -0.519415 0.00378329)
(5.22193 -0.624516 0.00232997)
(5.43653 -0.692637 0.00346105)
(5.4342 -0.739981 0.00229029)
(5.54255 -0.766711 0.00324828)
(5.51311 -0.786053 0.00227046)
(5.5738 -0.798594 0.00305716)
(5.53883 -0.809018 0.00223284)
(5.5731 -0.816728 0.00287701)
(5.53873 -0.82343 0.00218473)
(5.55723 -0.828717 0.00271335)
(5.52528 -0.833391 0.00213441)
(5.5349 -0.837412 0.00256713)
(5.50373 -0.840248 0.00208353)
(5.51247 -0.847275 0.00243373)
(5.46544 -0.842353 0.00203108)
(5.50081 -0.877136 0.00228601)
(5.30357 -0.89951 0.00193815)
(4.58758 0.34158 0.00498228)
(4.69197 0.688796 0.00328493)
(5.10074 0.803943 0.00442971)
(5.21894 0.845658 0.00296264)
(5.47402 0.862862 0.00408118)
(5.52097 0.872655 0.00290385)
(5.68047 0.876402 0.0038587)
(5.70375 0.878861 0.00287866)
(5.81335 0.878065 0.00366427)
(5.8267 0.878107 0.00283869)
(5.90373 0.87637 0.00348216)
(5.91097 0.875922 0.00278887)
(5.9652 0.874485 0.003317)
(5.96903 0.873691 0.0027373)
(6.00613 0.873568 0.00316994)
(6.01088 0.870633 0.00268507)
(6.02927 0.875128 0.00303936)
(6.04407 0.866466 0.00263)
(6.03888 0.871483 0.00293644)
(6.03708 0.916902 0.00256265)
(4.58153 -0.269212 0.00461128)
(4.66371 -0.539695 0.00297819)
(5.06729 -0.654368 0.00412205)
(5.18684 -0.725453 0.00266188)
(5.4535 -0.766155 0.00377849)
(5.51574 -0.793916 0.00260103)
(5.69342 -0.808583 0.0035558)
(5.73626 -0.819287 0.00257608)
(5.86608 -0.824988 0.00336221)
(5.90033 -0.830244 0.00253723)
(5.99786 -0.833323 0.00318118)
(6.0254 -0.836602 0.00248854)
(6.09932 -0.838858 0.00301713)
(6.12108 -0.840841 0.00243807)
(6.17771 -0.843644 0.00287076)
(6.19435 -0.842711 0.00238665)
(6.23848 -0.851565 0.00273796)
(6.24271 -0.841124 0.00233212)
(6.28849 -0.871986 0.00260944)
(6.20196 -0.907027 0.00225956)
(4.58153 0.269212 0.00461128)
(4.66371 0.539695 0.00297819)
(5.06729 0.654368 0.00412205)
(5.18684 0.725454 0.00266188)
(5.4535 0.766155 0.00377849)
(5.51574 0.793918 0.00260103)
(5.69342 0.808584 0.0035558)
(5.73626 0.819291 0.00257608)
(5.86607 0.824992 0.00336221)
(5.90034 0.830253 0.00253723)
(5.99785 0.833339 0.00318119)
(6.02542 0.83663 0.00248852)
(6.0993 0.838905 0.00301714)
(6.12114 0.840936 0.00243801)
(6.17765 0.843765 0.0028708)
(6.19453 0.843005 0.00238647)
(6.23837 0.851914 0.00273818)
(6.24335 0.841955 0.00233169)
(6.28873 0.873016 0.00261046)
(6.20308 0.909194 0.00225893)
(4.58758 -0.34158 0.00498228)
(4.69197 -0.688796 0.00328493)
(5.10074 -0.803943 0.00442971)
(5.21894 -0.845657 0.00296264)
(5.47402 -0.862862 0.00408118)
(5.52097 -0.872653 0.00290385)
(5.68047 -0.876402 0.0038587)
(5.70376 -0.878857 0.00287867)
(5.81336 -0.878061 0.00366426)
(5.82671 -0.878096 0.0028387)
(5.90373 -0.876357 0.00348215)
(5.91098 -0.875889 0.0027889)
(5.96524 -0.874448 0.00331697)
(5.96904 -0.873586 0.00273736)
(6.00626 -0.873479 0.00316985)
(6.01089 -0.870323 0.00268525)
(6.02968 -0.874891 0.00303904)
(6.04393 -0.865731 0.00263036)
(6.03972 -0.870735 0.00293537)
(6.03723 -0.914923 0.00256284)
(4.57447 0.20181 0.00432875)
(4.69594 0.398466 0.00259146)
(5.12466 0.519415 0.00378329)
(5.22194 0.624516 0.00232998)
(5.43653 0.692637 0.00346105)
(5.4342 0.739982 0.00229029)
(5.54255 0.766712 0.00324828)
(5.51312 0.786055 0.00227046)
(5.57379 0.798599 0.00305716)
(5.53885 0.809024 0.00223284)
(5.57309 0.816744 0.00287701)
(5.53879 0.823448 0.00218472)
(5.55722 0.828765 0.00271334)
(5.52544 0.833453 0.00213438)
(5.53493 0.837539 0.00256713)
(5.50418 0.840452 0.00208346)
(5.51269 0.847653 0.00243379)
(5.46677 0.843036 0.00203086)
(5.50193 0.878244 0.00228686)
(5.3072 0.90135 0.00193761)
(4.6364 -0.435407 0.00550784)
(4.82267 -0.87186 0.00355154)
(5.13596 -0.970214 0.00473921)
(5.073 -0.961043 0.00325737)
(5.13172 -0.942917 0.00438739)
(4.99224 -0.929728 0.00321256)
(4.99468 -0.920331 0.00416753)
(4.87146 -0.914432 0.00318614)
(4.86217 -0.907931 0.00396951)
(4.76174 -0.904269 0.00314202)
(4.74753 -0.89966 0.00378384)
(4.66619 -0.897458 0.00308923)
(4.64939 -0.894432 0.00361635)
(4.58379 -0.892868 0.00303584)
(4.56414 -0.89137 0.00346845)
(4.51526 -0.889054 0.00298344)
(4.48301 -0.888313 0.00334003)
(4.47471 -0.887283 0.00292971)
(4.39174 -0.849986 0.00325381)
(4.50852 -0.888323 0.00284773)
(4.75765 0.100036 0.00420918)
(4.60753 0.277392 0.00217555)
(4.51856 0.478049 0.00348079)
(4.13275 0.644663 0.00203876)
(3.98744 0.741514 0.00319402)
(3.70576 0.797005 0.00203142)
(3.62899 0.824563 0.00299168)
(3.43842 0.84157 0.00201376)
(3.39564 0.85172 0.002799)
(3.2595 0.859359 0.00197385)
(3.23106 0.864578 0.00261751)
(3.12955 0.868912 0.00192513)
(3.10765 0.871801 0.00245417)
(3.02858 0.874967 0.00187512)
(3.01154 0.875761 0.00230883)
(2.94348 0.880183 0.00182525)
(2.94027 0.877189 0.00217714)
(2.85361 0.884629 0.00177525)
(2.92602 0.888155 0.00203237)
(2.52146 0.89782 0.00165662)
(4.32345 -0.566041 0.00678615)
(3.07471 -0.847845 0.00431853)
(2.30819 -0.869818 0.00559297)
(1.73928 -0.853241 0.00411748)
(1.60014 -0.856164 0.00526395)
(1.39501 -0.868119 0.00409615)
(1.38761 -0.878087 0.00505199)
(1.26464 -0.886099 0.004072)
(1.27104 -0.890227 0.00485421)
(1.1838 -0.893754 0.00402794)
(1.19112 -0.895341 0.00466971)
(1.12709 -0.897239 0.00397644)
(1.13277 -0.897933 0.00450404)
(1.08381 -0.89928 0.00392433)
(1.08823 -0.89921 0.00435736)
(1.04739 -0.901393 0.00387277)
(1.05387 -0.894379 0.00422878)
(1.02892 -0.915419 0.00381936)
(0.987369 -0.792863 0.00414189)
(1.42498 -0.821352 0.00371649)
(4.37674 0.0973296 0.00130094)
(3.96138 0.14916 0.00184451)
(3.42221 0.163117 0.000889822)
(2.94017 0.156767 0.00143313)
(2.52394 0.145048 0.000909794)
(2.2167 0.136331 0.00132686)
(1.99013 0.131362 0.000982531)
(1.83527 0.131061 0.00124557)
(1.73054 0.133533 0.00101345)
(1.65417 0.138014 0.00116857)
(1.60575 0.142995 0.00102495)
(1.56171 0.148287 0.00110837)
(1.5364 0.152833 0.00103365)
(1.50584 0.157623 0.00106779)
(1.4891 0.16034 0.00104663)
(1.46821 0.165618 0.00104383)
(1.44843 0.164053 0.00106892)
(1.44899 0.174127 0.00103082)
(1.40154 0.159992 0.00108436)
(1.46937 0.165855 0.00110059)
(4.53994 0.0880593 0.00309368)
(4.67336 0.119754 0.00381721)
(4.71273 0.121296 0.00285754)
(4.6973 0.0949568 0.00337754)
(4.61594 0.0565105 0.00283086)
(4.51544 0.0136452 0.00323458)
(4.40327 -0.0246525 0.00288159)
(4.29324 -0.0574689 0.00314066)
(4.19296 -0.0823364 0.00290504)
(4.09643 -0.1021 0.00305839)
(4.01512 -0.116429 0.00291281)
(3.93445 -0.128013 0.0029953)
(3.87009 -0.136476 0.00291981)
(3.8035 -0.143636 0.00295361)
(3.75286 -0.149067 0.00293314)
(3.69838 -0.153518 0.00292977)
(3.65756 -0.157903 0.00295947)
(3.61562 -0.160122 0.00291601)
(3.57752 -0.165209 0.0030137)
(3.5525 -0.173034 0.00301891)
(4.51523 0.0458746 0.00165817)
(4.65146 0.11066 0.00226521)
(4.78131 0.163316 0.00133636)
(4.92695 0.19193 0.00185932)
(5.03193 0.202263 0.00131837)
(5.11246 0.203015 0.00172888)
(5.15929 0.199669 0.00138453)
(5.18384 0.196582 0.00164931)
(5.19354 0.194701 0.00141967)
(5.18914 0.194218 0.00157561)
(5.18168 0.194544 0.00143306)
(5.16514 0.195345 0.00151617)
(5.15023 0.195946 0.00144187)
(5.13044 0.19707 0.0014756)
(5.1114 0.19644 0.00145448)
(5.09433 0.199103 0.00145227)
(5.06973 0.193984 0.00147443)
(5.06218 0.203456 0.00144582)
(5.02614 0.18443 0.00147339)
(5.03421 0.206069 0.00150784)
(4.51127 0.044299 0.00267705)
(4.6169 0.0510352 0.00339455)
(4.73878 0.0468786 0.00249125)
(4.8957 0.0293826 0.00302028)
(5.03326 0.00708566 0.00246564)
(5.1626 -0.0182652 0.00286464)
(5.26635 -0.0422728 0.00250953)
(5.35199 -0.0639382 0.00276923)
(5.42248 -0.0815877 0.00253509)
(5.478 -0.0961572 0.00268926)
(5.52773 -0.107628 0.00254434)
(5.56591 -0.116906 0.00262651)
(5.60312 -0.124655 0.00255061)
(5.63136 -0.130502 0.00258365)
(5.66061 -0.136672 0.00256181)
(5.68234 -0.139498 0.00255867)
(5.70698 -0.146397 0.00258421)
(5.72136 -0.145412 0.00255149)
(5.7468 -0.154754 0.00263965)
(5.74333 -0.15472 0.00264469)
(4.51238 0.0166317 0.00197622)
(4.61808 0.0557614 0.00264779)
(4.73293 0.0916386 0.00175366)
(4.88379 0.117409 0.00227327)
(5.01913 0.133799 0.00171608)
(5.15235 0.144901 0.00211513)
(5.26485 0.152671 0.00176278)
(5.36373 0.159385 0.00202485)
(5.45039 0.165252 0.00179355)
(5.52462 0.17076 0.00194914)
(5.59486 0.175523 0.00180617)
(5.65478 0.179837 0.00188922)
(5.71522 0.183129 0.00181477)
(5.76638 0.186486 0.0018484)
(5.82102 0.187828 0.00182712)
(5.86455 0.191719 0.00182488)
(5.91833 0.188952 0.00184616)
(5.94783 0.198074 0.00182149)
(6.0144 0.184541 0.00185771)
(6.00859 0.208536 0.00189026)
(4.51112 0.0119622 0.00230937)
(4.61021 -0.00397697 0.00301032)
(4.72364 -0.0234007 0.0021242)
(4.87275 -0.044902 0.00265)
(5.00721 -0.0640688 0.00209154)
(5.1403 -0.0819621 0.00248898)
(5.25393 -0.0975448 0.00213415)
(5.35511 -0.111346 0.00239514)
(5.44541 -0.122831 0.00216267)
(5.52408 -0.132533 0.00231786)
(5.60019 -0.140462 0.00217425)
(5.66602 -0.146936 0.00225705)
(5.73448 -0.152391 0.00218224)
(5.7921 -0.15658 0.00221568)
(5.85741 -0.160526 0.0021944)
(5.90619 -0.163147 0.0021918)
(5.97504 -0.165925 0.00221506)
(6.00516 -0.168595 0.0021888)
(6.09463 -0.167846 0.00225327)
(6.08026 -0.177806 0.00226859)
(4.51112 -0.0119624 0.00230937)
(4.61021 0.00397735 0.00301032)
(4.72364 0.0234004 0.0021242)
(4.87275 0.044903 0.00265)
(5.00721 0.0640686 0.00209154)
(5.1403 0.0819643 0.00248898)
(5.25393 0.0975456 0.00213415)
(5.35511 0.11135 0.00239514)
(5.4454 0.122835 0.00216267)
(5.52408 0.132544 0.00231786)
(5.60019 0.140477 0.00217424)
(5.66603 0.146969 0.00225707)
(5.73448 0.152428 0.00218223)
(5.79211 0.156687 0.00221573)
(5.85742 0.160601 0.00219433)
(5.90622 0.163468 0.00219194)
(5.97507 0.166117 0.00221475)
(6.00523 0.169397 0.00218905)
(6.09476 0.168575 0.00225148)
(6.08052 0.17942 0.00226908)
(4.51238 -0.0166318 0.00197622)
(4.61808 -0.055761 0.00264779)
(4.73293 -0.0916389 0.00175366)
(4.88379 -0.117408 0.00227327)
(5.01913 -0.133799 0.00171608)
(5.15235 -0.144898 0.00211513)
(5.26485 -0.152671 0.00176278)
(5.36373 -0.15938 0.00202485)
(5.45039 -0.165248 0.00179355)
(5.52462 -0.170748 0.00194914)
(5.59487 -0.175509 0.00180618)
(5.65478 -0.179803 0.0018892)
(5.71525 -0.183095 0.00181478)
(5.76638 -0.186379 0.00184835)
(5.8211 -0.187757 0.00182718)
(5.86455 -0.191403 0.00182474)
(5.91854 -0.188776 0.00184641)
(5.94789 -0.197297 0.00182124)
(6.01487 -0.183871 0.00185913)
(6.00891 -0.207043 0.00188977)
(4.51127 -0.0442991 0.00267705)
(4.6169 -0.051035 0.00339455)
(4.73878 -0.0468788 0.00249125)
(4.89571 -0.0293818 0.00302028)
(5.03326 -0.00708578 0.00246563)
(5.16261 0.0182672 0.00286465)
(5.26635 0.0422734 0.00250952)
(5.352 0.0639425 0.00276924)
(5.42248 0.0815919 0.00253508)
(5.47802 0.0961674 0.00268927)
(5.52772 0.107642 0.00254433)
(5.56595 0.116935 0.00262653)
(5.60313 0.12469 0.00255058)
(5.63143 0.130596 0.0025837)
(5.66068 0.136744 0.00256172)
(5.68251 0.139787 0.00255878)
(5.70727 0.146568 0.00258383)
(5.72178 0.146151 0.0025517)
(5.74773 0.155398 0.00263789)
(5.74456 0.156238 0.00264476)
(4.51523 -0.0458747 0.00165817)
(4.65146 -0.11066 0.00226521)
(4.78131 -0.163316 0.00133636)
(4.92695 -0.19193 0.00185932)
(5.03193 -0.202263 0.00131837)
(5.11247 -0.203013 0.00172888)
(5.15928 -0.199669 0.00138453)
(5.18385 -0.196577 0.00164932)
(5.19353 -0.194698 0.00141967)
(5.18917 -0.194207 0.00157562)
(5.18166 -0.194534 0.00143306)
(5.16523 -0.195316 0.00151618)
(5.15023 -0.195922 0.00144186)
(5.13063 -0.196981 0.0014756)
(5.11149 -0.196395 0.00145447)
(5.09474 -0.198844 0.00145223)
(5.07017 -0.193886 0.00147447)
(5.06306 -0.202842 0.00144576)
(5.02758 -0.184015 0.00147396)
(5.03641 -0.205082 0.00150775)
(4.53994 -0.0880593 0.00309368)
(4.67336 -0.119755 0.00381721)
(4.71273 -0.121296 0.00285753)
(4.6973 -0.0949566 0.00337755)
(4.61594 -0.0565101 0.00283086)
(4.51544 -0.0136446 0.00323459)
(4.40326 0.0246539 0.00288158)
(4.29325 0.0574705 0.00314067)
(4.19295 0.0823406 0.00290502)
(4.09647 0.102104 0.00305843)
(4.01511 0.116441 0.00291275)
(3.93458 0.128025 0.00299539)
(3.87008 0.136502 0.00291968)
(3.80383 0.143678 0.0029538)
(3.75292 0.149116 0.00293282)
(3.69916 0.153659 0.00293023)
(3.65794 0.158006 0.00295857)
(3.61747 0.160497 0.00291719)
(3.57875 0.165589 0.0030108)
(3.55733 0.173803 0.00302159)
(4.37674 -0.0973295 0.00130095)
(3.96138 -0.14916 0.00184451)
(3.42221 -0.163117 0.000889824)
(2.94017 -0.156767 0.00143314)
(2.52394 -0.145048 0.000909795)
(2.2167 -0.136331 0.00132686)
(1.99014 -0.131361 0.00098253)
(1.83528 -0.131061 0.00124557)
(1.73055 -0.133532 0.00101344)
(1.6542 -0.138013 0.00116857)
(1.60578 -0.142993 0.00102494)
(1.56179 -0.148282 0.00110837)
(1.53647 -0.15283 0.00103364)
(1.50605 -0.157606 0.00106779)
(1.48934 -0.160342 0.00104659)
(1.46868 -0.165561 0.00104387)
(1.4492 -0.164081 0.00106872)
(1.45011 -0.173999 0.00103108)
(1.40327 -0.160068 0.00108355)
(1.47358 -0.16602 0.00110183)
(4.37674 0.0973296 -0.00130099)
(3.96138 0.14916 -0.00184456)
(3.42221 0.163117 -0.000889869)
(2.94017 0.156767 -0.00143318)
(2.52394 0.145048 -0.00090984)
(2.2167 0.136331 -0.00132691)
(1.99013 0.131362 -0.000982576)
(1.83527 0.131061 -0.00124562)
(1.73054 0.133533 -0.00101349)
(1.65417 0.138014 -0.00116861)
(1.60575 0.142995 -0.00102499)
(1.56171 0.148287 -0.00110841)
(1.5364 0.152833 -0.00103369)
(1.50584 0.157623 -0.00106783)
(1.4891 0.16034 -0.00104667)
(1.46821 0.165618 -0.00104387)
(1.44843 0.164053 -0.00106897)
(1.44899 0.174127 -0.00103087)
(1.40154 0.159992 -0.0010844)
(1.46937 0.165855 -0.00110064)
(4.53994 0.0880593 -0.00309373)
(4.67336 0.119754 -0.00381725)
(4.71273 0.121296 -0.00285758)
(4.6973 0.0949568 -0.00337759)
(4.61594 0.0565105 -0.00283091)
(4.51544 0.0136451 -0.00323462)
(4.40327 -0.0246526 -0.00288163)
(4.29324 -0.057469 -0.0031407)
(4.19296 -0.0823365 -0.00290508)
(4.09643 -0.1021 -0.00305844)
(4.01512 -0.116429 -0.00291285)
(3.93445 -0.128013 -0.00299535)
(3.87009 -0.136476 -0.00291985)
(3.8035 -0.143636 -0.00295365)
(3.75286 -0.149067 -0.00293319)
(3.69838 -0.153518 -0.00292982)
(3.65756 -0.157903 -0.00295952)
(3.61562 -0.160122 -0.00291606)
(3.57752 -0.165209 -0.00301375)
(3.5525 -0.173034 -0.00301896)
(4.51523 0.0458746 -0.00165822)
(4.65146 0.11066 -0.00226526)
(4.78131 0.163316 -0.00133641)
(4.92695 0.19193 -0.00185936)
(5.03193 0.202263 -0.00131842)
(5.11246 0.203015 -0.00172893)
(5.15929 0.199669 -0.00138458)
(5.18384 0.196582 -0.00164936)
(5.19354 0.194701 -0.00141972)
(5.18914 0.194218 -0.00157566)
(5.18168 0.194544 -0.00143311)
(5.16514 0.195345 -0.00151622)
(5.15023 0.195946 -0.00144192)
(5.13044 0.19707 -0.00147565)
(5.1114 0.19644 -0.00145453)
(5.09433 0.199103 -0.00145231)
(5.06973 0.193984 -0.00147448)
(5.06218 0.203457 -0.00144587)
(5.02614 0.18443 -0.00147344)
(5.03421 0.206069 -0.00150789)
(4.51127 0.044299 -0.0026771)
(4.6169 0.0510352 -0.00339459)
(4.73878 0.0468786 -0.0024913)
(4.8957 0.0293826 -0.00302032)
(5.03326 0.00708559 -0.00246568)
(5.1626 -0.0182653 -0.00286469)
(5.26635 -0.0422728 -0.00250957)
(5.35199 -0.0639382 -0.00276928)
(5.42248 -0.0815877 -0.00253514)
(5.478 -0.0961572 -0.00268931)
(5.52772 -0.107628 -0.00254439)
(5.56591 -0.116906 -0.00262655)
(5.60312 -0.124655 -0.00255066)
(5.63136 -0.130502 -0.0025837)
(5.6606 -0.136672 -0.00256186)
(5.68234 -0.139498 -0.00255871)
(5.70697 -0.146397 -0.00258425)
(5.72136 -0.145413 -0.00255153)
(5.7468 -0.154755 -0.0026397)
(5.74332 -0.154721 -0.00264474)
(4.51238 0.0166317 -0.00197627)
(4.61808 0.0557614 -0.00264783)
(4.73293 0.0916387 -0.0017537)
(4.88379 0.117409 -0.00227331)
(5.01913 0.133799 -0.00171613)
(5.15235 0.1449 -0.00211518)
(5.26485 0.152671 -0.00176283)
(5.36373 0.159385 -0.00202489)
(5.45039 0.165252 -0.00179359)
(5.52462 0.17076 -0.00194919)
(5.59486 0.175523 -0.00180622)
(5.65477 0.179837 -0.00188926)
(5.71522 0.183129 -0.00181481)
(5.76638 0.186486 -0.00184845)
(5.82102 0.187828 -0.00182717)
(5.86455 0.19172 -0.00182493)
(5.91833 0.188952 -0.00184621)
(5.94783 0.198074 -0.00182154)
(6.0144 0.184541 -0.00185776)
(6.00858 0.208536 -0.00189031)
(4.51112 0.0119622 -0.00230942)
(4.61021 -0.00397698 -0.00301036)
(4.72364 -0.0234008 -0.00212425)
(4.87275 -0.0449021 -0.00265004)
(5.00721 -0.0640688 -0.00209159)
(5.1403 -0.0819622 -0.00248902)
(5.25393 -0.0975449 -0.0021342)
(5.35511 -0.111346 -0.00239518)
(5.44541 -0.122831 -0.00216272)
(5.52408 -0.132533 -0.0023179)
(5.60019 -0.140462 -0.00217429)
(5.66602 -0.146936 -0.0022571)
(5.73448 -0.152391 -0.00218229)
(5.7921 -0.15658 -0.00221573)
(5.85741 -0.160525 -0.00219444)
(5.90619 -0.163147 -0.00219185)
(5.97504 -0.165925 -0.00221511)
(6.00516 -0.168595 -0.00218885)
(6.09463 -0.167846 -0.00225332)
(6.08026 -0.177806 -0.00226864)
(4.51112 -0.0119624 -0.00230942)
(4.61021 0.00397736 -0.00301036)
(4.72364 0.0234005 -0.00212425)
(4.87275 0.044903 -0.00265004)
(5.00721 0.0640686 -0.00209159)
(5.1403 0.0819643 -0.00248902)
(5.25393 0.0975456 -0.0021342)
(5.35511 0.11135 -0.00239519)
(5.4454 0.122835 -0.00216272)
(5.52408 0.132544 -0.00231791)
(5.60019 0.140477 -0.00217429)
(5.66603 0.146969 -0.00225711)
(5.73448 0.152428 -0.00218227)
(5.79211 0.156687 -0.00221578)
(5.85742 0.160602 -0.00219438)
(5.90622 0.163469 -0.00219199)
(5.97507 0.166117 -0.00221479)
(6.00523 0.169397 -0.0021891)
(6.09476 0.168575 -0.00225153)
(6.08052 0.179421 -0.00226912)
(4.51238 -0.0166318 -0.00197627)
(4.61808 -0.055761 -0.00264783)
(4.73293 -0.091639 -0.0017537)
(4.88379 -0.117408 -0.00227331)
(5.01913 -0.133799 -0.00171613)
(5.15235 -0.144898 -0.00211518)
(5.26485 -0.152671 -0.00176283)
(5.36373 -0.15938 -0.00202489)
(5.45039 -0.165248 -0.0017936)
(5.52462 -0.170748 -0.00194918)
(5.59487 -0.175509 -0.00180623)
(5.65478 -0.179803 -0.00188924)
(5.71525 -0.183095 -0.00181483)
(5.76638 -0.186379 -0.0018484)
(5.8211 -0.187757 -0.00182723)
(5.86455 -0.191402 -0.00182479)
(5.91854 -0.188776 -0.00184645)
(5.94789 -0.197297 -0.00182129)
(6.01487 -0.183871 -0.00185918)
(6.00891 -0.207043 -0.00188981)
(4.51127 -0.0442991 -0.00267709)
(4.6169 -0.0510349 -0.0033946)
(4.73878 -0.0468788 -0.0024913)
(4.89571 -0.0293818 -0.00302033)
(5.03326 -0.00708579 -0.00246568)
(5.16261 0.0182672 -0.00286469)
(5.26635 0.0422734 -0.00250957)
(5.352 0.0639426 -0.00276929)
(5.42248 0.0815919 -0.00253513)
(5.47802 0.0961674 -0.00268932)
(5.52772 0.107643 -0.00254437)
(5.56595 0.116935 -0.00262657)
(5.60313 0.12469 -0.00255062)
(5.63143 0.130596 -0.00258374)
(5.66068 0.136745 -0.00256176)
(5.68251 0.139787 -0.00255882)
(5.70727 0.146568 -0.00258388)
(5.72178 0.146151 -0.00255175)
(5.74773 0.155398 -0.00263794)
(5.74456 0.156238 -0.00264481)
(4.51523 -0.0458747 -0.00165822)
(4.65146 -0.11066 -0.00226526)
(4.78131 -0.163316 -0.00133641)
(4.92695 -0.19193 -0.00185937)
(5.03193 -0.202263 -0.00131842)
(5.11247 -0.203013 -0.00172893)
(5.15928 -0.199669 -0.00138457)
(5.18385 -0.196577 -0.00164936)
(5.19353 -0.194698 -0.00141971)
(5.18917 -0.194207 -0.00157567)
(5.18166 -0.194534 -0.0014331)
(5.16523 -0.195316 -0.00151623)
(5.15023 -0.195922 -0.0014419)
(5.13063 -0.196981 -0.00147565)
(5.11149 -0.196395 -0.00145452)
(5.09474 -0.198844 -0.00145228)
(5.07017 -0.193886 -0.00147452)
(5.06306 -0.202842 -0.0014458)
(5.02758 -0.184015 -0.00147401)
(5.03641 -0.205082 -0.00150779)
(4.53994 -0.0880593 -0.00309373)
(4.67336 -0.119755 -0.00381725)
(4.71273 -0.121296 -0.00285758)
(4.6973 -0.0949566 -0.00337759)
(4.61594 -0.0565101 -0.00283091)
(4.51544 -0.0136445 -0.00323463)
(4.40326 0.0246539 -0.00288162)
(4.29325 0.0574705 -0.00314072)
(4.19295 0.0823406 -0.00290506)
(4.09647 0.102104 -0.00305848)
(4.01511 0.116441 -0.0029128)
(3.93458 0.128025 -0.00299544)
(3.87008 0.136502 -0.00291972)
(3.80383 0.143678 -0.00295385)
(3.75292 0.149116 -0.00293287)
(3.69916 0.153659 -0.00293028)
(3.65794 0.158006 -0.00295862)
(3.61747 0.160497 -0.00291723)
(3.57875 0.165589 -0.00301085)
(3.55733 0.173803 -0.00302163)
(4.37674 -0.0973295 -0.00130099)
(3.96138 -0.14916 -0.00184456)
(3.42221 -0.163117 -0.000889867)
(2.94017 -0.156767 -0.00143318)
(2.52394 -0.145048 -0.000909838)
(2.2167 -0.136331 -0.00132691)
(1.99014 -0.131361 -0.000982576)
(1.83527 -0.131061 -0.00124562)
(1.73055 -0.133532 -0.00101349)
(1.6542 -0.138013 -0.00116862)
(1.60578 -0.142993 -0.00102499)
(1.56179 -0.148282 -0.00110842)
(1.53647 -0.15283 -0.00103369)
(1.50605 -0.157606 -0.00106784)
(1.48934 -0.160342 -0.00104664)
(1.46868 -0.165561 -0.00104392)
(1.4492 -0.164081 -0.00106876)
(1.45011 -0.173999 -0.00103113)
(1.40327 -0.160068 -0.0010836)
(1.47358 -0.16602 -0.00110187)
(4.32345 0.566041 -0.00678619)
(3.07471 0.847845 -0.00431856)
(2.30819 0.869818 -0.005593)
(1.73928 0.853241 -0.00411752)
(1.60014 0.856164 -0.00526399)
(1.39501 0.86812 -0.00409618)
(1.38761 0.878087 -0.00505202)
(1.26463 0.8861 -0.00407203)
(1.27103 0.890226 -0.00485425)
(1.18379 0.893758 -0.00402797)
(1.1911 0.895338 -0.00466976)
(1.12705 0.897252 -0.00397645)
(1.13271 0.897922 -0.00450411)