/*--------------------------------*- C++ -*----------------------------------*\
  =========                 |
  \\      /  F ield         | OpenFOAM: The Open Source CFD Toolbox
   \\    /   O peration     | Website:  https://openfoam.org
    \\  /    A nd           | Version:  7
     \\/     M anipulation  |
\*---------------------------------------------------------------------------*/
FoamFile
{
    version     2.0;
    format      ascii;
    class       volSymmTensorField;
    location    "0.53";
    object      UPrime2Mean;
}
// * * * * * * * * * * * * * * * * * * * * * * * * * * * * * * * * * * * * * //

dimensions      [0 2 -2 0 0 0 0];

internalField   nonuniform List<symmTensor> 
13200
(
(0.0738254 -0.00121493 -0.0068525 4.67887e-05 0.000161222 0.00103409)
(0.212518 0.0179295 -0.0118604 0.00196442 -0.00111539 0.00114206)
(0.235818 0.0208865 -0.0115354 0.00277628 -0.0012934 0.00124889)
(0.284781 0.0236135 -0.0120975 0.00293937 -0.00126739 0.00122225)
(0.261301 0.0216303 -0.0111029 0.00302895 -0.00130885 0.00128153)
(0.289139 0.0227711 -0.0111673 0.00304708 -0.00126404 0.00121487)
(0.265309 0.0206373 -0.0103042 0.00305841 -0.0012834 0.00121616)
(0.28583 0.0211305 -0.0101637 0.00305376 -0.00124014 0.00112904)
(0.265937 0.0192549 -0.0094606 0.00305316 -0.00125685 0.00111103)
(0.281815 0.0194313 -0.00921623 0.00304939 -0.00122165 0.00103608)
(0.265873 0.0178171 -0.0086397 0.00304383 -0.00123152 0.0010216)
(0.278282 0.0177881 -0.00833515 0.0030428 -0.00120048 0.000968308)
(0.265804 0.0164247 -0.00784357 0.0030367 -0.00120344 0.00096278)
(0.27543 0.0162475 -0.00749959 0.00303862 -0.00117705 0.000930136)
(0.266068 0.0150896 -0.00705702 0.00303112 -0.00117299 0.00093017)
(0.273281 0.0147914 -0.00670779 0.00303906 -0.00115647 0.000914105)
(0.266763 0.0137458 -0.00628779 0.00302261 -0.0011364 0.000907555)
(0.272209 0.0134033 -0.0059993 0.00306179 -0.00114722 0.000912814)
(0.266034 0.0114847 -0.00551958 0.00283988 -0.00104324 0.000870049)
(0.276903 0.0145195 -0.00457062 0.00321681 -0.00112963 0.000925407)
(0.0276682 -0.0119111 -0.00239103 0.0132292 0.00299621 0.00100179)
(0.157688 -0.0264488 -0.00930357 0.00622656 0.00214611 0.00203948)
(0.303482 -0.023943 -0.0133108 0.00391646 0.0016476 0.00300185)
(0.415611 -0.0231957 -0.0154242 0.00319718 0.00129344 0.00351873)
(0.460631 -0.0198735 -0.0164728 0.0031171 0.00123202 0.00408472)
(0.510327 -0.0202435 -0.0167554 0.00308961 0.00108884 0.0041554)
(0.527325 -0.0178258 -0.0170127 0.00307761 0.00105161 0.00424322)
(0.558663 -0.0178688 -0.0169356 0.00306982 0.000957329 0.00393946)
(0.567225 -0.0158239 -0.0170216 0.00306909 0.000966969 0.00374495)
(0.589466 -0.0155747 -0.0168656 0.00306581 0.000916035 0.00335792)
(0.594339 -0.0138435 -0.0168336 0.00306693 0.00093993 0.00313408)
(0.611003 -0.0134251 -0.0165795 0.0030646 0.00090666 0.002843)
(0.614769 -0.0120003 -0.0163246 0.00306622 0.000923746 0.00270004)
(0.627598 -0.0114585 -0.0158876 0.00306661 0.00089683 0.00255562)
(0.632531 -0.0102636 -0.0152896 0.00306561 0.000894411 0.00249818)
(0.641943 -0.00952803 -0.014759 0.00307671 0.000884944 0.00249566)
(0.649402 -0.00851556 -0.0137679 0.00305889 0.00083348 0.00243539)
(0.657196 -0.0069551 -0.013551 0.00312257 0.00087667 0.0025954)
(0.649611 -0.00560065 -0.0118017 0.00295955 0.000695396 0.00234689)
(0.675016 0.00330819 -0.0104563 0.00284682 0.000693989 0.00279303)
(0.0151373 0.000572014 0.000865042 0.00870482 0.00233918 0.00110165)
(0.0316239 -0.00821183 -0.00209369 0.00487599 0.0013766 0.00284454)
(0.0942327 -0.0125213 -0.00640697 0.00374147 0.000839672 0.00487584)
(0.16937 -0.00791493 -0.0109837 0.00332168 0.000261337 0.00655452)
(0.244691 -0.00632693 -0.0142291 0.00306238 -0.000194676 0.00843699)
(0.307496 -0.00289745 -0.0160043 0.00295923 -0.000453801 0.00958541)
(0.365514 -0.00295643 -0.0176 0.00291119 -0.00068514 0.0105115)
(0.410317 -0.00116594 -0.0184464 0.00289566 -0.000741953 0.0104744)
(0.454332 -0.00195526 -0.0197638 0.00290374 -0.000808068 0.0102123)
(0.486406 -0.00110258 -0.0205093 0.00291023 -0.000769234 0.0093426)
(0.520086 -0.00208995 -0.0216106 0.00291777 -0.000769453 0.00854663)
(0.543462 -0.00178443 -0.0221755 0.00292513 -0.000711812 0.00755657)
(0.570472 -0.00276444 -0.0227659 0.00292891 -0.000697597 0.00677873)
(0.588327 -0.00289997 -0.0228094 0.00293397 -0.000642436 0.00609439)
(0.612806 -0.00376722 -0.0223985 0.0029347 -0.000634246 0.00555626)
(0.627114 -0.00424666 -0.0217722 0.00293772 -0.000577351 0.00536951)
(0.651038 -0.00541456 -0.0202698 0.00294673 -0.000545356 0.00496854)
(0.668438 -0.00415415 -0.0195748 0.00292604 -0.000608424 0.0053353)
(0.672465 -0.00884368 -0.0167268 0.00304008 -0.00030977 0.00470529)
(0.741098 0.0105746 -0.0157827 0.00388313 -0.001753 0.00559733)
(0.0188657 0.00944511 0.00220755 0.0148284 0.0030874 0.00104089)
(0.0270348 0.0102488 0.00374262 0.0113533 0.00354288 0.00295218)
(0.0468955 0.0102273 0.00481182 0.00838606 0.00347855 0.00533586)
(0.052732 0.00450807 0.00228705 0.00561743 0.0026437 0.00739375)
(0.0784921 0.00483441 0.0013447 0.00436602 0.00203462 0.0100225)
(0.103436 0.00305674 -0.000769914 0.00374816 0.00134291 0.012163)
(0.138721 0.00484307 -0.00144352 0.00343158 0.000956812 0.0143847)
(0.172231 0.00469221 -0.00357831 0.00324636 0.000609071 0.0154326)
(0.208846 0.00678952 -0.00480791 0.00314924 0.000549682 0.0160047)
(0.242726 0.00724718 -0.00719253 0.00307199 0.000472268 0.0154207)
(0.276369 0.00917233 -0.00848358 0.00303682 0.000555633 0.0145478)
(0.307386 0.00986915 -0.0106578 0.00299579 0.000580045 0.013129)
(0.33701 0.0114921 -0.01177 0.00298018 0.000681114 0.0116772)
(0.365141 0.0122214 -0.0133407 0.0029585 0.000733911 0.0102567)
(0.391869 0.0134971 -0.013745 0.00294669 0.000759638 0.00885769)
(0.419154 0.0145517 -0.0138383 0.00295278 0.000822247 0.00803783)
(0.442274 0.0148769 -0.0132549 0.00292288 0.000733993 0.00699286)
(0.475514 0.0185672 -0.0117377 0.00304359 0.000679937 0.00702129)
(0.483866 0.0147377 -0.0105757 0.00281487 0.000761911 0.00610997)
(0.540787 0.0290738 -0.00640676 0.00384101 -0.000235606 0.00678991)
(0.0207117 0.00537204 0.00252037 0.00529154 0.00163804 0.00101362)
(0.0394756 0.00541366 0.00569472 0.00513596 0.00144761 0.00298605)
(0.0843627 0.00365517 0.0109087 0.00523514 0.00161347 0.00540847)
(0.0926555 -0.000374821 0.0116349 0.00469152 0.00116514 0.00753536)
(0.118508 -0.0059384 0.0142339 0.0039181 0.000534238 0.0101856)
(0.123864 -0.00802948 0.0136746 0.0034743 -9.65022e-05 0.0126733)
(0.146235 -0.0114049 0.0147266 0.00318038 -0.000692102 0.0154009)
(0.159166 -0.0118759 0.0126801 0.00302263 -0.0010603 0.0173055)
(0.183839 -0.0138284 0.0119721 0.00293204 -0.00128101 0.0186536)
(0.204026 -0.013721 0.0092422 0.00288052 -0.00132416 0.0188169)
(0.230358 -0.0149945 0.00835085 0.00285674 -0.00128568 0.0183746)
(0.254724 -0.0149147 0.00614619 0.00284322 -0.0011509 0.0171946)
(0.280914 -0.0160262 0.00536002 0.00283939 -0.00104547 0.0156898)
(0.30756 -0.0161709 0.00368468 0.0028334 -0.00089296 0.0139726)
(0.332834 -0.0173294 0.00310369 0.00284546 -0.000867929 0.0121047)
(0.361945 -0.0173649 0.00276769 0.002821 -0.000724069 0.0105962)
(0.385578 -0.0191777 0.00288151 0.00289885 -0.000746969 0.00905965)
(0.418411 -0.0176582 0.00436906 0.0027429 -0.000856129 0.00836975)
(0.439508 -0.0210947 0.00440883 0.00311855 -0.000476349 0.00735101)
(0.477272 -0.0180398 0.00940569 0.00358346 -0.00256992 0.00746213)
(0.0205335 0.00784791 0.00242904 0.00735893 0.00205515 0.000974939)
(0.038911 0.0121276 0.00551031 0.00691031 0.00267204 0.00293871)
(0.0977541 0.0208744 0.0120867 0.00661662 0.00308973 0.00539586)
(0.12223 0.0186026 0.0146691 0.00512152 0.00257632 0.00748137)
(0.169226 0.0201482 0.0195238 0.00435435 0.002152 0.010106)
(0.183272 0.0175819 0.0205849 0.00388519 0.00148296 0.0125653)
(0.217754 0.0187445 0.0231572 0.00357772 0.00105487 0.0154427)
(0.229539 0.017275 0.0216599 0.00336935 0.000613812 0.0176162)
(0.258969 0.018686 0.0214371 0.00323624 0.000469404 0.0193968)
(0.273776 0.0179436 0.0186443 0.00312595 0.00032911 0.0200118)
(0.3018 0.0192973 0.0181376 0.00305996 0.000393383 0.0200142)
(0.320662 0.0190135 0.0161828 0.00299324 0.000418524 0.0191901)
(0.347776 0.0201866 0.0161352 0.0029562 0.000523115 0.0179673)
(0.370081 0.020258 0.0148847 0.00291846 0.000620113 0.0163342)
(0.396039 0.0210876 0.0150564 0.00289418 0.000662701 0.0144474)
(0.42178 0.0216521 0.0150677 0.00288703 0.000786954 0.0125658)
(0.4463 0.0219322 0.0159016 0.00285555 0.000758909 0.0107887)
(0.476634 0.0231715 0.0176861 0.002925 0.000660274 0.00947519)
(0.499192 0.0227192 0.0179669 0.00277131 0.000914348 0.00838853)
(0.538461 0.0257667 0.0234566 0.00368588 -3.84616e-05 0.00800754)
(0.020306 0.002676 0.00238933 0.00165725 0.000790243 0.000963568)
(0.0357481 0.00199953 0.00507981 0.00247217 0.00054537 0.00296136)
(0.0956708 0.00150508 0.0118601 0.00321528 0.000821594 0.00541571)
(0.126511 0.000325907 0.015046 0.00355794 0.000737051 0.0075425)
(0.184467 -0.00357642 0.0209631 0.0033709 0.000374594 0.0101164)
(0.208388 -0.00499069 0.0229324 0.00320314 -5.95598e-05 0.0126093)
(0.25581 -0.00823245 0.0264694 0.00306594 -0.000576142 0.0154549)
(0.27517 -0.00907446 0.0254388 0.00298104 -0.000945921 0.0177514)
(0.315712 -0.0115457 0.0256389 0.00291609 -0.00122857 0.0196252)
(0.334863 -0.0122166 0.0228583 0.00286683 -0.00134977 0.0204623)
(0.371286 -0.0142208 0.0226126 0.00283668 -0.00140222 0.0206589)
(0.391896 -0.0148632 0.0207933 0.00281114 -0.00132442 0.0200649)
(0.425264 -0.0166645 0.0213003 0.00280053 -0.00125425 0.0190792)
(0.447342 -0.0173217 0.0203343 0.00278073 -0.00107706 0.0176002)
(0.478458 -0.0191942 0.0213015 0.00279303 -0.00104264 0.0158709)
(0.501194 -0.0194654 0.02156 0.00274951 -0.000836745 0.0138546)
(0.532079 -0.021806 0.0236579 0.00283911 -0.000904482 0.0120308)
(0.553885 -0.0213863 0.0255771 0.00264489 -0.000915438 0.0103195)
(0.586024 -0.023746 0.0273238 0.00299847 -0.000701007 0.00917942)
(0.61072 -0.0292327 0.0329149 0.00322954 -0.00238386 0.00854576)
(0.0200163 0.0048138 0.00230402 0.00283869 0.00122809 0.000938594)
(0.0328512 0.00694315 0.00461859 0.00345362 0.00172108 0.002935)
(0.0900317 0.0142727 0.0111712 0.00387352 0.00205134 0.00540872)
(0.121245 0.0136618 0.0144488 0.00344828 0.00172561 0.0075476)
(0.181715 0.016632 0.0206358 0.00326238 0.00154562 0.0101392)
(0.209905 0.0157167 0.023 0.00312568 0.00116729 0.0126402)
(0.263439 0.0179635 0.026943 0.00304643 0.000984611 0.0154826)
(0.288712 0.017394 0.0262206 0.00298373 0.000735233 0.0177928)
(0.337126 0.0193263 0.0266514 0.0029486 0.00067701 0.0196852)
(0.361989 0.0189838 0.023946 0.00291004 0.000569627 0.0205813)
(0.406201 0.0205768 0.0238113 0.0028915 0.000611715 0.0208459)
(0.431334 0.0204362 0.0220243 0.00286385 0.000602549 0.0203514)
(0.471651 0.0216951 0.0227496 0.0028526 0.000663198 0.0194893)
(0.496776 0.0217496 0.0218292 0.00283351 0.000694597 0.018131)
(0.533665 0.0227022 0.0231583 0.00282633 0.000713424 0.0165321)
(0.557717 0.0229253 0.0235366 0.002814 0.000775414 0.0145227)
(0.592827 0.0238485 0.0263701 0.00281301 0.000779508 0.012698)
(0.615303 0.0238642 0.0286353 0.00279339 0.000741399 0.0108209)
(0.649072 0.0250289 0.0314671 0.00278158 0.0008537 0.00960188)
(0.675138 0.0268704 0.0373591 0.00336867 0.000626498 0.00886919)
(0.0198895 0.000165541 0.0022692 0.000288086 9.25307e-05 0.000925781)
(0.0312872 -0.00107798 0.00438422 0.00147436 -0.000240367 0.00293925)
(0.0863175 -0.00381826 0.0107762 0.00217132 -0.000138661 0.00540899)
(0.1166 -0.00418407 0.0139865 0.00264402 -4.94269e-05 0.00758142)
(0.176274 -0.00745328 0.0201825 0.00274334 -0.000197306 0.0101784)
(0.205377 -0.00789093 0.0226361 0.00275347 -0.000348688 0.0127103)
(0.26043 -0.010588 0.0267133 0.00275014 -0.000632604 0.0155489)
(0.288264 -0.0108384 0.0261447 0.00274511 -0.000815864 0.0178685)
(0.340061 -0.013012 0.0267546 0.00274396 -0.00100664 0.0197515)
(0.3683 -0.0133405 0.0241674 0.00273757 -0.00108037 0.020654)
(0.416808 -0.0152268 0.0241769 0.00274071 -0.00115825 0.0209335)
(0.445331 -0.0156844 0.0224488 0.00273699 -0.00112485 0.0204612)
(0.490342 -0.017424 0.023326 0.00274552 -0.00112795 0.0196569)
(0.518286 -0.0179651 0.0224052 0.00273736 -0.00100936 0.0183476)
(0.560092 -0.0197915 0.0239122 0.00275553 -0.00100641 0.0168339)
(0.585229 -0.0200632 0.0242326 0.00272163 -0.000843536 0.0148417)
(0.625843 -0.0223789 0.0274816 0.0027908 -0.000916732 0.0130404)
(0.645851 -0.0221949 0.0297733 0.00262836 -0.000872253 0.0111016)
(0.686122 -0.0244808 0.0333765 0.00287971 -0.000778197 0.00982763)
(0.705945 -0.02989 0.0393869 0.00309775 -0.00184152 0.00908693)
(0.0197986 0.00224164 0.00221996 0.000679363 0.000538022 0.000906636)
(0.0304508 0.00367333 0.00422106 0.00181973 0.000948058 0.00292023)
(0.084343 0.0086858 0.0104942 0.00242197 0.00106938 0.00539026)
(0.114069 0.0085826 0.0136711 0.00260964 0.000862401 0.00757629)
(0.173171 0.0117151 0.019842 0.00268926 0.000848803 0.0101866)
(0.202329 0.0115256 0.0223187 0.00269855 0.000738857 0.012737)
(0.257514 0.0140495 0.0264179 0.00271357 0.000796061 0.0155817)
(0.286128 0.0139535 0.0258989 0.00271562 0.000770568 0.0179045)
(0.33896 0.0160538 0.0265631 0.00272675 0.000841697 0.0197816)
(0.368519 0.0160975 0.0240336 0.00272696 0.000826882 0.0206798)
(0.418674 0.0178849 0.0240979 0.00273824 0.000887145 0.0209574)
(0.44874 0.0180834 0.0224019 0.0027384 0.000865113 0.0204864)
(0.495799 0.0196295 0.0233215 0.00275074 0.000903705 0.019698)
(0.525321 0.0199386 0.0223969 0.00274768 0.000854499 0.0184057)
(0.56931 0.0213763 0.023937 0.00276188 0.000867663 0.0169241)
(0.595788 0.0215962 0.024245 0.00274455 0.00080494 0.0149469)
(0.638315 0.0233217 0.0276106 0.00278137 0.000853928 0.013153)
(0.659499 0.0232076 0.0299639 0.00268962 0.000813364 0.0112074)
(0.701026 0.025035 0.0338574 0.00281169 0.000811928 0.00989675)
(0.721331 0.02877 0.0399511 0.00318078 0.00125953 0.00917803)
(0.0197986 -0.00224166 0.00221996 0.000679361 -0.000538032 0.000906637)
(0.0304508 -0.00367336 0.00422105 0.00181975 -0.000948106 0.00292024)
(0.0843429 -0.00868593 0.0104943 0.00242198 -0.00106945 0.00539024)
(0.114069 -0.00858278 0.013671 0.00260965 -0.000862507 0.00757634)
(0.173171 -0.0117153 0.0198421 0.00268927 -0.000848929 0.0101866)
(0.202329 -0.0115257 0.0223186 0.00269856 -0.000739033 0.012737)
(0.257514 -0.0140499 0.0264181 0.00271358 -0.000796255 0.0155817)
(0.286128 -0.0139536 0.0258986 0.00271561 -0.000770704 0.0179044)
(0.338962 -0.0160538 0.0265636 0.00272676 -0.000842038 0.019782)
(0.368518 -0.0160963 0.0240331 0.00272692 -0.00082681 0.0206791)
(0.418676 -0.0178841 0.0240986 0.00273818 -0.000887822 0.0209585)
(0.448742 -0.0180807 0.0224016 0.00273824 -0.000864642 0.0204851)
(0.495814 -0.019625 0.0233227 0.00275071 -0.000904749 0.0196993)
(0.525319 -0.0199259 0.0223961 0.00274714 -0.00085391 0.0184047)
(0.569351 -0.0213666 0.0239377 0.00276165 -0.00086808 0.0169242)
(0.59579 -0.0215517 0.0242442 0.00274208 -0.000803645 0.014948)
(0.638382 -0.0233149 0.0276033 0.00278157 -0.000852269 0.01315)
(0.659462 -0.0230656 0.0299648 0.00268074 -0.000807353 0.0112131)
(0.701118 -0.025021 0.0338401 0.00281134 -0.00080405 0.00988831)
(0.721338 -0.0285229 0.0399736 0.00315286 -0.00124938 0.00919176)
(0.0198895 -0.000165558 0.00226921 0.000288077 -9.25418e-05 0.000925784)
(0.0312872 0.00107795 0.0043842 0.00147434 0.000240322 0.00293928)
(0.0863174 0.00381814 0.0107763 0.00217131 0.00013858 0.00540893)
(0.1166 0.00418389 0.0139863 0.00264401 4.93279e-05 0.00758157)
(0.176274 0.00745304 0.0201828 0.00274332 0.000197165 0.0101782)
(0.205377 0.00789084 0.0226358 0.00275343 0.000348524 0.0127105)
(0.26043 0.0105876 0.0267139 0.00275011 0.000632394 0.0155489)
(0.288265 0.0108384 0.026144 0.00274508 0.000815738 0.0178682)
(0.34006 0.0130119 0.0267556 0.00274392 0.00100633 0.0197527)
(0.368301 0.0133415 0.0241662 0.00273754 0.00108031 0.0206518)
(0.416806 0.0152274 0.0241778 0.00274065 0.00115771 0.020937)
(0.445331 0.0156864 0.0224472 0.002737 0.0011249 0.0204567)
(0.490331 0.0174285 0.0233262 0.00274547 0.00112703 0.0196616)
(0.518292 0.0179753 0.0224044 0.00273759 0.00100904 0.0183439)
(0.560067 0.0198002 0.0239104 0.00275552 0.00100588 0.0168351)
(0.585235 0.0201027 0.0242328 0.00272325 0.000843888 0.0148448)
(0.625828 0.0223843 0.027479 0.00279066 0.00091832 0.013032)
(0.645905 0.0223265 0.0297851 0.0026363 0.000877483 0.0111183)
(0.686149 0.024482 0.0333529 0.00287907 0.000785502 0.00980182)
(0.706027 0.0301154 0.039436 0.0031268 0.00184989 0.00912899)
(0.0200163 -0.00481381 0.00230404 0.00283867 -0.00122811 0.000938599)
(0.0328512 -0.00694318 0.00461854 0.00345364 -0.00172111 0.00293505)
(0.0900316 -0.0142728 0.0111713 0.00387354 -0.00205145 0.00540862)
(0.121245 -0.013662 0.0144485 0.00344827 -0.00172566 0.00754787)
(0.181715 -0.0166322 0.0206364 0.00326238 -0.00154581 0.0101388)
(0.209905 -0.0157168 0.0229992 0.00312565 -0.00116737 0.0126406)
(0.263439 -0.0179639 0.0269445 0.00304642 -0.000984922 0.0154825)
(0.288712 -0.0173942 0.0262186 0.00298368 -0.000735245 0.0177923)
(0.337127 -0.0193264 0.0266545 0.00294856 -0.000677503 0.0196874)
(0.361989 -0.0189825 0.0239417 0.00290989 -0.000569307 0.020577)
(0.406203 -0.0205763 0.0238169 0.00289143 -0.000612583 0.020853)
(0.431339 -0.020433 0.0220172 0.0028636 -0.000601417 0.0203418)
(0.471666 -0.0216911 0.02276 0.0028523 -0.000664236 0.0195002)
(0.496781 -0.0217344 0.0218153 0.00283255 -0.000691917 0.0181212)
(0.533713 -0.0226939 0.0231766 0.002826 -0.000713966 0.0165384)
(0.557733 -0.0228749 0.0235111 0.00281054 -0.000770367 0.0145237)
(0.592935 -0.0238414 0.0263898 0.00281292 -0.00077915 0.0126884)
(0.615295 -0.0237141 0.02861 0.00278223 -0.000730599 0.0108445)
(0.64929 -0.0250264 0.0314652 0.00278154 -0.000848861 0.00956236)
(0.675203 -0.0265931 0.0374074 0.00334369 -0.0006069 0.00893609)
(0.020306 -0.00267602 0.00238936 0.00165723 -0.000790267 0.000963575)
(0.0357481 -0.00199957 0.00507974 0.00247214 -0.000545384 0.00296143)
(0.0956708 -0.0015052 0.0118604 0.00321526 -0.000821728 0.00541559)
(0.126511 -0.00032608 0.0150455 0.00355791 -0.000737068 0.00754289)
(0.184467 0.00357617 0.020964 0.00337088 -0.000374842 0.0101158)
(0.208388 0.00499055 0.022931 0.00320307 5.95445e-05 0.01261)
(0.25581 0.00823205 0.0264719 0.00306589 0.000575755 0.0154544)
(0.275171 0.00907435 0.0254354 0.00298098 0.00094601 0.0177508)
(0.315711 0.0115456 0.0256442 0.00291605 0.00122816 0.0196284)
(0.334866 0.0122171 0.0228506 0.00286671 0.00134962 0.0204554)
(0.371284 0.0142215 0.0226231 0.0028367 0.00140199 0.0206713)
(0.391901 0.0148638 0.0207769 0.00281113 0.00132371 0.0200471)
(0.425256 0.0166673 0.0213241 0.00280034 0.00125379 0.0191014)
(0.44736 0.0173263 0.0202967 0.00278069 0.00107531 0.0175779)
(0.478443 0.0191982 0.0213567 0.00279315 0.00104294 0.0158906)
(0.501227 0.019484 0.0214771 0.00275034 0.000834211 0.0138446)
(0.532101 0.021797 0.0237684 0.00283881 0.000908463 0.0120307)
(0.553985 0.0214732 0.0254502 0.00265007 0.000917446 0.0103376)
(0.586156 0.0237173 0.0274635 0.00299733 0.0007123 0.00914018)
(0.610973 0.0293556 0.0328231 0.00325235 0.00238141 0.00862294)
(0.0205335 -0.00784792 0.00242906 0.00735889 -0.00205519 0.000974946)
(0.038911 -0.0121277 0.00551021 0.00691033 -0.00267202 0.00293878)
(0.097754 -0.0208746 0.012087 0.00661663 -0.00308991 0.00539576)
(0.12223 -0.0186027 0.0146684 0.0051215 -0.00257625 0.00748184)
(0.169226 -0.0201484 0.0195247 0.00435432 -0.00215236 0.0101053)
(0.183273 -0.017582 0.0205831 0.00388513 -0.00148276 0.0125663)
(0.217754 -0.018745 0.02316 0.00357767 -0.00105556 0.0154418)
(0.229539 -0.0172754 0.0216561 0.00336926 -0.000613326 0.0176157)
(0.258969 -0.0186862 0.021443 0.00323617 -0.000470414 0.0194008)
(0.273777 -0.017943 0.0186353 0.00312574 -0.000328156 0.0200021)
(0.301801 -0.0192977 0.018151 0.00305993 -0.000394796 0.0200333)
(0.32067 -0.0190119 0.0161603 0.00299306 -0.000416444 0.0191614)
(0.347785 -0.0201852 0.0161745 0.00295571 -0.000525054 0.018007)
(0.370097 -0.0202477 0.0148172 0.00291738 -0.000615464 0.0162898)
(0.39607 -0.0210866 0.0151689 0.00289392 -0.000666063 0.0144951)
(0.421819 -0.0216141 0.0148897 0.00288312 -0.000775 0.0125256)
(0.44639 -0.0219349 0.0161576 0.00285525 -0.000766009 0.010822)
(0.476667 -0.0230744 0.0173384 0.00291317 -0.000639577 0.00945781)
(0.499399 -0.0227566 0.0183961 0.00277321 -0.000923979 0.00838409)
(0.538476 -0.0255902 0.022997 0.00366743 7.65936e-05 0.00805472)
(0.0207117 -0.00537205 0.00252038 0.0052915 -0.00163806 0.00101362)
(0.0394756 -0.00541369 0.00569463 0.00513592 -0.00144758 0.00298613)
(0.0843626 -0.00365529 0.0109089 0.00523512 -0.00161363 0.00540842)
(0.0926555 0.000374627 0.0116343 0.0046915 -0.00116506 0.00753586)
(0.118507 0.00593816 0.0142343 0.00391807 -0.000534554 0.0101848)
(0.123863 0.00802922 0.0136738 0.00347422 9.66543e-05 0.0126745)
(0.146234 0.0114045 0.0147271 0.00318031 0.000691595 0.0153997)
(0.159166 0.0118754 0.0126804 0.00302258 0.0010606 0.0173057)
(0.183838 0.0138282 0.0119708 0.00293201 0.00128057 0.0186579)
(0.204026 0.0137206 0.00924432 0.00288039 0.0013239 0.0188065)
(0.230357 0.0149945 0.00834807 0.00285693 0.00128597 0.0183983)
(0.254723 0.0149133 0.006144 0.0028433 0.00114938 0.0171576)
(0.280908 0.0160257 0.00537506 0.0028392 0.00104649 0.0157475)
(0.30756 0.0161686 0.0036387 0.00283327 0.000889613 0.0139016)
(0.332809 0.0173264 0.00320783 0.00284594 0.000871612 0.012194)
(0.361942 0.0173575 0.00256502 0.00282133 0.000716742 0.0105009)
(0.385506 0.0191525 0.00322689 0.00289882 0.000758687 0.00916311)
(0.418411 0.0176816 0.00384537 0.00274572 0.000841642 0.00826669)
(0.439373 0.0210218 0.00512668 0.00311727 0.000506928 0.00743735)
(0.477352 0.0181584 0.00848657 0.00359901 0.0024786 0.00741767)
(0.0188657 -0.00944512 0.00220756 0.0148284 -0.00308741 0.0010409)
(0.0270348 -0.0102489 0.00374257 0.0113533 -0.00354286 0.00295226)
(0.0468954 -0.0102274 0.00481177 0.00838608 -0.00347868 0.00533592)
(0.0527318 -0.00450825 0.00228691 0.00561741 -0.0026436 0.0073942)
(0.0784916 -0.00483462 0.0013437 0.00436599 -0.00203489 0.0100218)
(0.103435 -0.00305704 -0.000768679 0.00374812 -0.00134268 0.0121643)
(0.138719 -0.00484355 -0.00144728 0.00343153 -0.000957363 0.0143836)
(0.172228 -0.00469303 -0.00357079 0.00324632 -0.000608506 0.0154341)
(0.208844 -0.00679022 -0.00482191 0.00314919 -0.000550603 0.0160079)
(0.24272 -0.00724833 -0.0071693 0.0030718 -0.00047113 0.0154144)
(0.276367 -0.00917413 -0.00851988 0.00303694 -0.000557044 0.0145681)
(0.307369 -0.00987169 -0.0106069 0.00299576 -0.00057772 0.0130971)
(0.337006 -0.0114965 -0.011834 0.00297968 -0.000683746 0.0117351)
(0.365096 -0.0122247 -0.0132717 0.00295755 -0.000727807 0.0101775)
(0.391849 -0.013505 -0.0137998 0.00294663 -0.000767316 0.00897292)
(0.419056 -0.0145581 -0.0138397 0.0029495 -0.000803632 0.00789089)
(0.442173 -0.0148796 -0.0131564 0.0029226 -0.000756781 0.00717793)
(0.475329 -0.0185588 -0.0120239 0.00303212 -0.00063297 0.00680291)
(0.483471 -0.0147611 -0.0101589 0.00281957 -0.00083029 0.00631486)
(0.540296 -0.0290095 -0.00705051 0.00382468 0.000318486 0.00664761)
(0.0151373 -0.000572042 0.000865042 0.00870476 -0.00233918 0.00110167)
(0.0316239 0.00821178 -0.00209371 0.00487596 -0.0013766 0.00284467)
(0.0942326 0.0125212 -0.00640733 0.00374146 -0.000839739 0.00487604)
(0.16937 0.00791484 -0.0109838 0.00332167 -0.000261354 0.00655494)
(0.24469 0.00632687 -0.014231 0.00306236 0.000194586 0.00843686)
(0.307495 0.00289746 -0.0160026 0.00295918 0.000453749 0.00958667)
(0.365513 0.00295632 -0.0176053 0.00291114 0.000685059 0.0105114)
(0.410313 0.0011658 -0.0184373 0.00289564 0.000741798 0.0104769)
(0.45433 0.00195515 -0.0197811 0.00290375 0.000808139 0.010214)
(0.486397 0.00110325 -0.0204803 0.00291011 0.000768649 0.00934275)
(0.520083 0.00208897 -0.0216593 0.00291807 0.000770081 0.00855559)
(0.543437 0.00178532 -0.0220999 0.00292526 0.000710211 0.00754423)
(0.570468 0.00276456 -0.0228831 0.00292867 0.000699151 0.00680867)
(0.588244 0.0029029 -0.0226433 0.00293363 0.000638404 0.00604852)
(0.612768 0.00376293 -0.022637 0.00293528 0.000638512 0.00563621)
(0.62691 0.0042439 -0.0214736 0.00293724 0.000566262 0.00524738)
(0.650795 0.00539604 -0.0206549 0.00294721 0.000558624 0.00515215)
(0.668061 0.00412479 -0.0191684 0.00292546 0.000569928 0.00507647)
(0.671595 0.00878075 -0.0172563 0.00304131 0.00037537 0.00499272)
(0.740327 -0.0104444 -0.0147259 0.00389288 0.0014373 0.0053817)
(0.0276683 0.0119111 -0.00239104 0.0132292 -0.00299621 0.00100182)
(0.157688 0.0264489 -0.00930382 0.00622661 -0.00214617 0.00203966)
(0.303482 0.023943 -0.0133116 0.00391649 -0.00164766 0.00300211)
(0.41561 0.0231957 -0.015425 0.00319718 -0.00129347 0.00351907)
(0.460631 0.0198733 -0.0164744 0.0031171 -0.00123207 0.00408504)
(0.510327 0.0202433 -0.0167555 0.00308961 -0.00108887 0.00415623)
(0.527324 0.0178254 -0.0170155 0.00307761 -0.00105171 0.0042438)
(0.558661 0.0178683 -0.0169327 0.00306983 -0.000957274 0.00394092)
(0.567223 0.0158233 -0.0170288 0.00306909 -0.000967154 0.00374569)
(0.589463 0.0155729 -0.0168547 0.00306566 -0.000915766 0.00335924)
(0.594335 0.0138434 -0.0168541 0.00306716 -0.000940336 0.00313567)
(0.610988 0.0134222 -0.0165474 0.00306466 -0.000905914 0.00284208)
(0.614757 0.011996 -0.0163798 0.00306588 -0.000924477 0.00270569)
(0.627553 0.0114495 -0.0158032 0.00306588 -0.000894433 0.00254623)
(0.632495 0.0102618 -0.0154275 0.00306588 -0.000896702 0.00251873)
(0.641831 0.00950731 -0.0145546 0.00307455 -0.000876762 0.0024589)
(0.649256 0.00852286 -0.0140886 0.00305876 -0.000842074 0.00250162)
(0.657042 0.00693751 -0.013098 0.00311551 -0.000847281 0.00248371)
(0.649128 0.00565118 -0.0124616 0.00296487 -0.000748372 0.00251942)
(0.675343 -0.00321389 -0.00963658 0.00284563 -0.000528803 0.00257994)
(0.0738255 0.00121482 -0.00685234 4.67848e-05 -0.000161213 0.0010341)
(0.212518 -0.0179295 -0.0118605 0.00196442 0.0011154 0.00114215)
(0.235818 -0.0208865 -0.0115356 0.00277628 0.00129341 0.00124899)
(0.284781 -0.0236136 -0.0120974 0.00293938 0.00126737 0.00122234)
(0.261301 -0.0216305 -0.0111029 0.00302896 0.00130883 0.00128164)
(0.289139 -0.0227709 -0.0111673 0.00304703 0.00126404 0.00121507)
(0.265309 -0.0206371 -0.0103046 0.00305835 0.00128341 0.00121635)
(0.28583 -0.0211305 -0.0101632 0.00305374 0.00124011 0.00112929)
(0.265937 -0.019255 -0.00946111 0.00305318 0.00125687 0.00111117)
(0.281814 -0.0194305 -0.00921432 0.00304929 0.00122151 0.00103628)
(0.265873 -0.0178185 -0.00864165 0.00304412 0.00123164 0.00102175)
(0.27828 -0.0177875 -0.00833084 0.0030429 0.00120021 0.000968367)
(0.265804 -0.0164227 -0.00785079 0.00303636 0.00120361 0.000963285)
(0.275422 -0.0162415 -0.00748859 0.00303797 0.00117617 0.000929444)
(0.266063 -0.0150904 -0.00707714 0.00303145 0.00117355 0.000932317)
(0.273261 -0.0147785 -0.00667751 0.00303752 0.00115375 0.000910143)
(0.26674 -0.0137473 -0.00634053 0.00302272 0.00113776 0.000916028)
(0.272181 -0.0133839 -0.00591523 0.0030571 0.00113877 0.000896878)
(0.265948 -0.0115166 -0.00566729 0.00284536 0.00105435 0.000902226)
(0.276854 -0.0145294 -0.00455704 0.00322147 0.00108566 0.000856747)
(0.0300832 -0.00812791 3.74746e-05 0.00569298 4.47124e-05 1.44095e-06)
(0.260397 -0.0334463 -2.10543e-06 0.00710771 4.31051e-05 1.18112e-06)
(0.386463 -0.0341414 -8.55844e-06 0.00724143 5.82617e-05 1.34972e-06)
(0.545377 -0.0417131 3.00442e-05 0.00722409 4.8689e-05 1.18133e-06)
(0.519809 -0.0384749 -1.8993e-05 0.00739184 6.26579e-05 1.33487e-06)
(0.615352 -0.0433298 3.19578e-05 0.00750221 5.37577e-05 1.17677e-06)
(0.571678 -0.038881 -2.6092e-05 0.00756206 6.6502e-05 1.33071e-06)
(0.645756 -0.0417101 2.53736e-05 0.00757832 5.74988e-05 1.18234e-06)
(0.602626 -0.0373905 -3.60453e-05 0.00759377 6.88617e-05 1.32591e-06)
(0.662101 -0.0391652 1.40714e-05 0.00759429 6.03854e-05 1.18481e-06)
(0.62345 -0.0353522 -4.66411e-05 0.00759946 7.03521e-05 1.31415e-06)
(0.67156 -0.0363983 3.20251e-06 0.00759709 6.23066e-05 1.18123e-06)
(0.638671 -0.0331278 -5.42147e-05 0.00759899 7.08844e-05 1.29456e-06)
(0.677538 -0.0336519 -3.31407e-06 0.00759941 6.31518e-05 1.17058e-06)
(0.651105 -0.0308705 -5.59198e-05 0.00759302 7.03395e-05 1.26816e-06)
(0.681963 -0.0310568 -2.73975e-06 0.00762432 6.30351e-05 1.15412e-06)
(0.662033 -0.0285701 -5.03788e-05 0.00753441 6.84438e-05 1.23677e-06)
(0.687193 -0.0284699 8.73237e-06 0.00786297 6.34084e-05 1.13318e-06)
(0.659986 -0.0223989 -4.47613e-05 0.00663706 6.22796e-05 1.20148e-06)
(0.66543 -0.019567 6.33672e-05 0.00678296 5.61349e-05 1.09071e-06)
(0.0201128 0.00229995 8.71677e-05 0.00253078 -1.37557e-05 1.16829e-06)
(0.0327799 -0.00448297 7.93069e-05 0.00365875 -3.32922e-05 9.97959e-07)
(0.0974619 -0.00671882 0.000156991 0.00527672 -4.71103e-05 1.1376e-06)
(0.242437 0.00356945 0.00018486 0.00646696 -4.20576e-05 9.97853e-07)
(0.307055 0.00396321 0.000199052 0.00693164 -5.46092e-05 1.12527e-06)
(0.443385 0.0112585 0.000237565 0.00712454 -4.63211e-05 9.92301e-07)
(0.468344 0.00851388 0.000232733 0.0072005 -5.82323e-05 1.1247e-06)
(0.575942 0.0129222 0.000271157 0.00726509 -4.92895e-05 9.9798e-07)
(0.579623 0.00949151 0.000253743 0.00729481 -5.98896e-05 1.12421e-06)
(0.664079 0.0122056 0.00028633 0.00732787 -5.12811e-05 1.00094e-06)
(0.657549 0.00885328 0.000260309 0.00734171 -6.06342e-05 1.11593e-06)
(0.724226 0.0104741 0.000289023 0.00736152 -5.25288e-05 9.97611e-07)
(0.714382 0.00741972 0.000259166 0.00736748 -6.07288e-05 1.09918e-06)
(0.767838 0.00824042 0.000287529 0.00738265 -5.30609e-05 9.87413e-07)
(0.759984 0.00559303 0.000257286 0.00737721 -6.00535e-05 1.07545e-06)
(0.802941 0.00584687 0.000288173 0.00741908 -5.27966e-05 9.72211e-07)
(0.800428 0.00338661 0.000258385 0.00734925 -5.84542e-05 1.0467e-06)
(0.836459 0.00454798 0.000295983 0.00754255 -5.18297e-05 9.54014e-07)
(0.827352 -0.00271586 0.000262281 0.00757154 -5.75824e-05 1.01145e-06)
(0.928582 0.0190419 0.000319056 0.00812771 -4.72252e-05 9.18352e-07)
(0.0209377 0.00740693 8.71772e-05 0.0059786 3.41849e-05 1.29471e-06)
(0.0203447 0.00701245 6.43319e-05 0.0141085 3.24669e-05 1.08741e-06)
(0.0402944 0.0119632 0.000170342 0.0130067 5.07759e-05 1.233e-06)