/*--------------------------------*- C++ -*----------------------------------*\
  =========                 |
  \\      /  F ield         | OpenFOAM: The Open Source CFD Toolbox
   \\    /   O peration     | Website:  https://openfoam.org
    \\  /    A nd           | Version:  7
     \\/     M anipulation  |
\*---------------------------------------------------------------------------*/
FoamFile
{
    version     2.0;
    format      ascii;
    class       volSymmTensorField;
    location    "0.1325";
    object      UPrime2Mean;
}
// * * * * * * * * * * * * * * * * * * * * * * * * * * * * * * * * * * * * * //

dimensions      [0 2 -2 0 0 0 0];

internalField   nonuniform List<symmTensor> 
1440
(
(0.0349246 0.000342838 0 4.76079e-06 0 0)
(0.00758229 0.000257491 0 9.98812e-05 0 0)
(0.0182114 -0.000498971 0 0.000379845 0 0)
(0.0281088 -0.000923002 0 0.000864581 0 0)
(0.0385622 -0.00162333 0 0.00150724 0 0)
(0.0533003 -0.00343258 0 0.00219102 0 0)
(0.074309 -0.00652455 0 0.00277494 0 0)
(0.102998 -0.0104262 0 0.00314631 0 0)
(0.140577 -0.0144559 0 0.00328139 0 0)
(0.187691 -0.0181151 0 0.00320743 0 0)
(0.244085 -0.0211269 0 0.00298674 0 0)
(0.309854 -0.0234011 0 0.00269201 0 0)
(0.384186 -0.0247508 0 0.00235179 0 0)
(0.465306 -0.0251398 0 0.002003 0 0)
(0.551242 -0.0246397 0 0.00166981 0 0)
(0.640136 -0.023386 0 0.00136469 0 0)
(0.730378 -0.0215752 0 0.0010949 0 0)
(0.820591 -0.0194191 0 0.000863604 0 0)
(0.909654 -0.017093 0 0.000670562 0 0)
(0.996678 -0.0147207 0 0.00051326 0 0)
(1.08107 -0.0123827 0 0.00038769 0 0)
(1.16245 -0.0101253 0 0.000289432 0 0)
(1.24058 -0.00796617 0 0.000214269 0 0)
(1.31534 -0.00590363 0 0.000158426 0 0)
(1.38663 -0.00393063 0 0.000118587 0 0)
(1.4544 -0.00204539 0 9.17517e-05 0 0)
(1.51864 -0.000256374 0 7.54135e-05 0 0)
(1.57937 0.00141817 0 6.7247e-05 0 0)
(1.63664 0.00295535 0 6.5127e-05 0 0)
(1.69057 0.00433379 0 6.72588e-05 0 0)
(1.74129 0.00553882 0 7.20583e-05 0 0)
(1.78901 0.00656423 0 7.8297e-05 0 0)
(1.83393 0.00741274 0 8.51173e-05 0 0)
(1.87633 0.00809406 0 9.19176e-05 0 0)
(1.91644 0.00862059 0 9.82e-05 0 0)
(1.95454 0.00900864 0 0.00010356 0 0)
(1.99085 0.00927942 0 0.000107763 0 0)
(2.02561 0.00945406 0 0.000110721 0 0)
(2.05903 0.00955102 0 0.000112446 0 0)
(2.09127 0.00958592 0 0.000113012 0 0)
(2.12251 0.00957186 0 0.000112547 0 0)
(2.15287 0.00951883 0 0.000111217 0 0)
(2.18249 0.00943462 0 0.000109198 0 0)
(2.21147 0.0093246 0 0.000106657 0 0)
(2.23991 0.00919287 0 0.000103738 0 0)
(2.26788 0.00904273 0 0.000100559 0 0)
(2.29545 0.00887609 0 9.72038e-05 0 0)
(2.3227 0.00869628 0 9.37446e-05 0 0)
(2.34968 0.00850697 0 9.02448e-05 0 0)
(2.37643 0.00831167 0 8.67545e-05 0 0)
(2.40299 0.00811365 0 8.33092e-05 0 0)
(2.42941 0.00791565 0 7.99308e-05 0 0)
(2.4557 0.00772 0 7.66356e-05 0 0)
(2.48189 0.00752826 0 7.34328e-05 0 0)
(2.50801 0.00734189 0 7.03315e-05 0 0)
(2.53405 0.00716135 0 6.73387e-05 0 0)
(2.56004 0.00698739 0 6.44626e-05 0 0)
(2.58599 0.0068198 0 6.17087e-05 0 0)
(2.6119 0.00665883 0 5.90782e-05 0 0)
(2.63779 0.00650464 0 5.65748e-05 0 0)
(2.66366 0.00635631 0 5.4196e-05 0 0)
(2.6895 0.0062144 0 5.19424e-05 0 0)
(2.71534 0.0060786 0 4.98133e-05 0 0)
(2.74117 0.00594875 0 4.78065e-05 0 0)
(2.767 0.00582473 0 4.59186e-05 0 0)
(2.79282 0.00570641 0 4.41464e-05 0 0)
(2.81864 0.00559366 0 4.24853e-05 0 0)
(2.84446 0.00548646 0 4.09308e-05 0 0)
(2.87027 0.00538461 0 3.94777e-05 0 0)
(2.89609 0.00528814 0 3.81209e-05 0 0)
(2.9219 0.0051969 0 3.6855e-05 0 0)
(2.94771 0.00511093 0 3.56741e-05 0 0)
(2.97351 0.00503009 0 3.45736e-05 0 0)
(2.9993 0.00495417 0 3.35475e-05 0 0)
(3.02508 0.00488359 0 3.25914e-05 0 0)
(3.05085 0.00481766 0 3.17007e-05 0 0)
(3.0766 0.00475619 0 3.08703e-05 0 0)
(3.10233 0.00469947 0 3.00965e-05 0 0)
(3.12804 0.00464723 0 2.93751e-05 0 0)
(3.15373 0.00459924 0 2.87022e-05 0 0)
(3.17939 0.00455521 0 2.80747e-05 0 0)
(3.20503 0.00451489 0 2.74892e-05 0 0)
(3.23063 0.00447818 0 2.69431e-05 0 0)
(3.25621 0.00444481 0 2.64334e-05 0 0)
(3.28176 0.00441465 0 2.59577e-05 0 0)
(3.30727 0.00438726 0 2.55136e-05 0 0)
(3.33275 0.00436264 0 2.50978e-05 0 0)
(3.35819 0.00434053 0 2.47084e-05 0 0)
(3.3836 0.00432063 0 2.43424e-05 0 0)
(3.40897 0.00430332 0 2.39995e-05 0 0)
(3.43429 0.00428777 0 2.36772e-05 0 0)
(3.45958 0.00427415 0 2.3374e-05 0 0)
(3.48482 0.00426254 0 2.30881e-05 0 0)
(3.51002 0.0042527 0 2.2818e-05 0 0)
(3.53517 0.00424447 0 2.25617e-05 0 0)
(3.56029 0.00423782 0 2.23182e-05 0 0)
(3.58535 0.00423272 0 2.20868e-05 0 0)
(3.61038 0.00422906 0 2.1867e-05 0 0)
(3.63536 0.00422678 0 2.16585e-05 0 0)
(3.66031 0.00422582 0 2.14597e-05 0 0)
(3.68522 0.00422606 0 2.1271e-05 0 0)
(3.7101 0.00422736 0 2.10872e-05 0 0)
(3.73495 0.00422946 0 2.09143e-05 0 0)
(3.75978 0.00423235 0 2.07374e-05 0 0)
(3.78457 0.00423607 0 2.0582e-05 0 0)
(3.80933 0.00424007 0 2.04029e-05 0 0)
(3.83404 0.00424619 0 2.0278e-05 0 0)
(3.85872 0.00424956 0 2.00836e-05 0 0)
(3.88331 0.00426039 0 2.00127e-05 0 0)
(3.90787 0.00425927 0 1.97786e-05 0 0)
(3.93228 0.00427969 0 1.98008e-05 0 0)
(3.95664 0.00426737 0 1.94774e-05 0 0)
(3.98073 0.00430753 0 1.96699e-05 0 0)
(4.00486 0.00427178 0 1.91823e-05 0 0)
(4.02827 0.0043538 0 1.96468e-05 0 0)
(4.0524 0.00427492 0 1.89958e-05 0 0)
(4.07404 0.00444085 0 1.9716e-05 0 0)
(4.09935 0.00433384 0 1.92589e-05 0 0)
(4.11565 0.00461157 0 1.98418e-05 0 0)
(4.14757 0.00483204 0 2.16708e-05 0 0)
(0.0353173 0.000481227 0 9.81693e-06 0 0)
(0.00821418 0.000382854 0 0.000111848 0 0)
(0.0177863 8.52442e-05 0 0.000353452 0 0)
(0.0291102 0.000781614 0 0.000757575 0 0)
(0.0426861 0.00215213 0 0.00134344 0 0)
(0.0575848 0.00356755 0 0.00210678 0 0)
(0.0722642 0.00463536 0 0.00299327 0 0)
(0.0867721 0.005248 0 0.00390447 0 0)
(0.101876 0.00550429 0 0.00475203 0 0)
(0.117257 0.00549179 0 0.00549086 0 0)
(0.132074 0.00518962 0 0.00610558 0 0)
(0.146296 0.00456755 0 0.00659095 0 0)
(0.160469 0.00369106 0 0.00693799 0 0)
(0.174933 0.00268215 0 0.00714026 0 0)
(0.18977 0.00165409 0 0.00719827 0 0)
(0.205077 0.000689762 0 0.00712447 0 0)
(0.221003 -0.000178629 0 0.006941 0 0)
(0.237676 -0.000967017 0 0.00667185 0 0)
(0.255168 -0.00171071 0 0.00633908 0 0)
(0.273491 -0.00244611 0 0.00596045 0 0)
(0.292635 -0.00320313 0 0.00555017 0 0)
(0.312604 -0.00400146 0 0.00512103 0 0)
(0.333435 -0.0048405 0 0.00468358 0 0)
(0.355184 -0.00569663 0 0.00424817 0 0)
(0.377908 -0.00653171 0 0.00382382 0 0)
(0.401657 -0.00730286 0 0.00341793 0 0)
(0.426469 -0.00797076 0 0.00303663 0 0)
(0.452354 -0.00850681 0 0.00268427 0 0)
(0.479301 -0.00889612 0 0.00236343 0 0)
(0.507271 -0.00913788 0 0.00207492 0 0)
(0.536208 -0.00924322 0 0.00181806 0 0)
(0.566039 -0.0092314 0 0.00159113 0 0)
(0.596686 -0.00912567 0 0.00139184 0 0)
(0.628072 -0.00894945 0 0.0012175 0 0)
(0.660119 -0.00872444 0 0.00106545 0 0)
(0.692766 -0.00846935 0 0.000933171 0 0)
(0.725959 -0.00819868 0 0.000818271 0 0)
(0.759656 -0.00792255 0 0.000718588 0 0)
(0.793822 -0.00764732 0 0.00063219 0 0)
(0.828432 -0.00737666 0 0.000557389 0 0)
(0.863466 -0.00711229 0 0.000492692 0 0)
(0.898909 -0.00685479 0 0.000436767 0 0)
(0.934751 -0.00660403 0 0.000388429 0 0)
(0.970977 -0.00635951 0 0.000346624 0 0)
(1.00758 -0.00612054 0 0.000310423 0 0)
(1.04453 -0.00588633 0 0.000279011 0 0)
(1.08182 -0.00565643 0 0.000251705 0 0)
(1.11944 -0.00543044 0 0.000227912 0 0)
(1.15735 -0.00520786 0 0.000207116 0 0)
(1.19554 -0.00498818 0 0.00018887 0 0)
(1.23398 -0.00477093 0 0.000172793 0 0)
(1.27264 -0.00455573 0 0.000158562 0 0)
(1.3115 -0.0043422 0 0.000145908 0 0)
(1.35053 -0.00413007 0 0.000134603 0 0)
(1.38972 -0.00391911 0 0.00012446 0 0)
(1.42904 -0.00370916 0 0.000115325 0 0)
(1.46846 -0.0035001 0 0.000107069 0 0)
(1.50798 -0.00329186 0 9.9587e-05 0 0)
(1.54757 -0.00308458 0 9.27899e-05 0 0)
(1.58722 -0.00287841 0 8.66048e-05 0 0)
(1.62692 -0.00267371 0 8.09721e-05 0 0)
(1.66665 -0.00247076 0 7.58399e-05 0 0)
(1.70642 -0.00226975 0 7.11635e-05 0 0)
(1.7462 -0.00207076 0 6.69027e-05 0 0)
(1.786 -0.00187379 0 6.30227e-05 0 0)
(1.8258 -0.00167876 0 5.94915e-05 0 0)
(1.86561 -0.0014855 0 5.62805e-05 0 0)
(1.90541 -0.00129375 0 5.3363e-05 0 0)
(1.94519 -0.00110323 0 5.0715e-05 0 0)
(1.98496 -0.000913668 0 4.83139e-05 0 0)
(2.02471 -0.000724845 0 4.61395e-05 0 0)
(2.06442 -0.000536608 0 4.41725e-05 0 0)
(2.10409 -0.00034888 0 4.23956e-05 0 0)
(2.14372 -0.000161685 0 4.07921e-05 0 0)
(2.1833 2.48755e-05 0 3.93469e-05 0 0)
(2.22282 0.000210652 0 3.80455e-05 0 0)
(2.26228 0.000395363 0 3.68747e-05 0 0)
(2.30166 0.000578805 0 3.58215e-05 0 0)
(2.34097 0.000760738 0 3.48741e-05 0 0)
(2.3802 0.000940954 0 3.40213e-05 0 0)
(2.41934 0.0011192 0 3.32538e-05 0 0)
(2.4584 0.00129533 0 3.25623e-05 0 0)
(2.49737 0.0014692 0 3.19386e-05 0 0)
(2.53624 0.00164075 0 3.13756e-05 0 0)
(2.57502 0.00180994 0 3.08676e-05 0 0)
(2.6137 0.00197677 0 3.04094e-05 0 0)
(2.65228 0.00214117 0 2.99972e-05 0 0)
(2.69076 0.00230317 0 2.96274e-05 0 0)
(2.72914 0.00246272 0 2.92975e-05 0 0)
(2.76742 0.00261988 0 2.90049e-05 0 0)
(2.80559 0.00277465 0 2.87476e-05 0 0)
(2.84365 0.00292696 0 2.85239e-05 0 0)
(2.8816 0.00307682 0 2.83324e-05 0 0)
(2.91945 0.0032241 0 2.81713e-05 0 0)
(2.95719 0.00336883 0 2.80392e-05 0 0)
(2.99481 0.00351082 0 2.7934e-05 0 0)
(3.03233 0.00365021 0 2.78546e-05 0 0)
(3.06975 0.00378678 0 2.77983e-05 0 0)
(3.10706 0.0039208 0 2.77645e-05 0 0)
(3.14427 0.00405191 0 2.77485e-05 0 0)
(3.18138 0.00418056 0 2.77527e-05 0 0)
(3.2184 0.00430597 0 2.7768e-05 0 0)
(3.25533 0.00442921 0 2.78028e-05 0 0)
(3.29216 0.0045485 0 2.78392e-05 0 0)
(3.32891 0.00466678 0 2.7898e-05 0 0)
(3.36556 0.00477972 0 2.79448e-05 0 0)
(3.4021 0.00489446 0 2.80248e-05 0 0)
(3.43857 0.00500048 0 2.8072e-05 0 0)
(3.47485 0.00511466 0 2.81744e-05 0 0)
(3.51112 0.00521167 0 2.82149e-05 0 0)
(3.54698 0.00533082 0 2.83399e-05 0 0)
(3.58311 0.00541543 0 2.83794e-05 0 0)
(3.61822 0.0055488 0 2.85192e-05 0 0)
(3.65447 0.00562111 0 2.86079e-05 0 0)
(3.68802 0.00578201 0 2.87283e-05 0 0)
(3.72528 0.00586508 0 2.90605e-05 0 0)
(3.75534 0.00606594 0 2.90825e-05 0 0)
(3.79612 0.00628179 0 3.03465e-05 0 0)
(3.81779 0.00648022 0 3.01118e-05 0 0)
(3.87195 0.00724761 0 3.51586e-05 0 0)
(0.0353026 0.000291449 0 3.87484e-06 0 0)
(0.0081359 0.000235994 0 4.5623e-05 0 0)
(0.0177531 1.48626e-05 0 0.000150226 0 0)
(0.0286666 0.000410787 0 0.000333259 0 0)
(0.0414835 0.00123865 0 0.000605263 0 0)
(0.0557486 0.00212213 0 0.000968562 0 0)
(0.0702068 0.00287854 0 0.00140688 0 0)
(0.0851433 0.00353027 0 0.00188371 0 0)
(0.101574 0.00419011 0 0.00235697 0 0)
(0.119263 0.00491835 0 0.00279407 0 0)
(0.137265 0.00568531 0 0.00317338 0 0)
(0.155403 0.00645424 0 0.00348061 0 0)
(0.17407 0.00722916 0 0.00370453 0 0)
(0.193422 0.0080322 0 0.00383825 0 0)
(0.213372 0.00887894 0 0.00388594 0 0)
(0.233861 0.00976023 0 0.0038599 0 0)
(0.254895 0.0106304 0 0.00377496 0 0)
(0.276474 0.0114173 0 0.0036445 0 0)
(0.298553 0.0120507 0 0.00347994 0 0)
(0.321022 0.012482 0 0.00329097 0 0)
(0.343726 0.0126871 0 0.00308565 0 0)
(0.366509 0.0126649 0 0.00287084 0 0)
(0.389245 0.0124378 0 0.00265248 0 0)
(0.411839 0.0120487 0 0.00243598 0 0)
(0.434216 0.0115513 0 0.00222614 0 0)
(0.456331 0.0109991 0 0.002027 0 0)
(0.478172 0.0104368 0 0.0018414 0 0)
(0.499749 0.00989734 0 0.00167108 0 0)
(0.52109 0.00940147 0 0.00151685 0 0)
(0.542225 0.0089586 0 0.00137869 0 0)
(0.563189 0.0085693 0 0.00125588 0 0)
(0.584017 0.00822837 0 0.00114742 0 0)
(0.60474 0.00792773 0 0.00105216 0 0)
(0.625386 0.00765888 0 0.000968816 0 0)
(0.64598 0.00741466 0 0.000895955 0 0)
(0.666542 0.00718928 0 0.000832255 0 0)
(0.687091 0.00697812 0 0.000776622 0 0)
(0.707645 0.00677785 0 0.000728144 0 0)
(0.72822 0.00658609 0 0.000686004 0 0)
(0.748832 0.00640098 0 0.000649451 0 0)
(0.769495 0.0062209 0 0.000617792 0 0)
(0.790223 0.00604441 0 0.000590392 0 0)
(0.81103 0.00587031 0 0.000566669 0 0)
(0.831928 0.00569778 0 0.000546097 0 0)
(0.852929 0.00552637 0 0.000528191 0 0)
(0.874043 0.00535605 0 0.000512498 0 0)
(0.895281 0.00518704 0 0.000498581 0 0)
(0.91665 0.00502 0 0.000486058 0 0)
(0.938156 0.00485597 0 0.000474623 0 0)
(0.959804 0.00469613 0 0.000464036 0 0)
(0.981597 0.0045416 0 0.000454105 0 0)
(1.00354 0.00439326 0 0.000444672 0 0)
(1.02563 0.00425164 0 0.000435611 0 0)
(1.04787 0.00411688 0 0.000426817 0 0)
(1.07026 0.00398871 0 0.00041821 0 0)
(1.0928 0.00386655 0 0.000409728 0 0)
(1.11549 0.00374954 0 0.000401325 0 0)
(1.13834 0.00363666 0 0.000392958 0 0)
(1.16133 0.00352681 0 0.000384598 0 0)
(1.18447 0.00341898 0 0.000376229 0 0)
(1.20777 0.00331224 0 0.000367851 0 0)
(1.23122 0.00320586 0 0.000359465 0 0)
(1.25482 0.00309929 0 0.000351084 0 0)
(1.27857 0.00299225 0 0.00034272 0 0)
(1.30248 0.00288465 0 0.000334392 0 0)
(1.32655 0.00277669 0 0.000326119 0 0)
(1.35078 0.00266872 0 0.000317919 0 0)
(1.37517 0.00256128 0 0.000309811 0 0)
(1.39972 0.00245502 0 0.000301809 0 0)
(1.42443 0.00235065 0 0.000293925 0 0)
(1.4493 0.00224883 0 0.000286168 0 0)
(1.47435 0.00215024 0 0.000278544 0 0)
(1.49955 0.00205541 0 0.000271058 0 0)
(1.52493 0.0019648 0 0.000263712 0 0)
(1.55046 0.00187869 0 0.000256508 0 0)
(1.57617 0.00179726 0 0.000249444 0 0)
(1.60203 0.00172049 0 0.000242519 0 0)
(1.62806 0.00164834 0 0.00023573 0 0)
(1.65425 0.00158061 0 0.000229074 0 0)
(1.6806 0.00151716 0 0.000222547 0 0)
(1.7071 0.00145767 0 0.000216147 0 0)
(1.73375 0.00140196 0 0.000209869 0 0)
(1.76055 0.00134975 0 0.000203712 0 0)
(1.7875 0.00130091 0 0.000197673 0 0)
(1.81459 0.00125526 0 0.000191752 0 0)
(1.84181 0.00121273 0 0.000185951 0 0)
(1.86918 0.0011732 0 0.000180271 0 0)
(1.89667 0.00113666 0 0.000174714 0 0)
(1.92429 0.00110305 0 0.000169284 0 0)
(1.95204 0.00107243 0 0.000163983 0 0)
(1.9799 0.00104476 0 0.000158815 0 0)
(2.00789 0.00102007 0 0.00015378 0 0)
(2.03599 0.000998297 0 0.000148887 0 0)
(2.0642 0.000979472 0 0.000144132 0 0)
(2.09252 0.000963474 0 0.000139523 0 0)
(2.12094 0.000950313 0 0.000135055 0 0)
(2.14948 0.000939758 0 0.000130734 0 0)
(2.17812 0.000931889 0 0.000126549 0 0)
(2.20686 0.000926373 0 0.00012251 0 0)
(2.23571 0.000923434 0 0.000118599 0 0)
(2.26466 0.000922579 0 0.000114834 0 0)
(2.29372 0.000924191 0 0.000111187 0 0)
(2.32289 0.000927585 0 0.000107687 0 0)
(2.35215 0.000933382 0 0.000104286 0 0)
(2.38153 0.000940712 0 0.000101037 0 0)
(2.41098 0.000950432 0 9.78503e-05 0 0)
(2.44054 0.000961678 0 9.48391e-05 0 0)
(2.47015 0.000974985 0 9.18187e-05 0 0)
(2.49983 0.000990748 0 8.90428e-05 0 0)
(2.52956 0.00100719 0 8.61247e-05 0 0)
(2.55924 0.00102914 0 8.36103e-05 0 0)
(2.58906 0.00104908 0 8.06977e-05 0 0)
(2.61848 0.00108062 0 7.85163e-05 0 0)
(2.64852 0.00110925 0 7.54381e-05 0 0)
(2.6771 0.00115674 0 7.37484e-05 0 0)
(2.70794 0.0012177 0 7.01895e-05 0 0)
(2.7343 0.00129005 0 6.93176e-05 0 0)
(2.76779 0.0014653 0 6.48223e-05 0 0)
(2.78844 0.00154927 0 6.52427e-05 0 0)
(2.83367 0.00203931 0 5.96398e-05 0 0)
(0.0353037 0.000203835 0 1.97827e-06 0 0)
(0.00813814 0.000167143 0 2.30775e-05 0 0)
(0.0177435 8.6853e-06 0 7.60204e-05 0 0)
(0.0285676 0.000283485 0 0.000168653 0 0)
(0.0412069 0.000848179 0 0.000303643 0 0)
(0.0551861 0.00142573 0 0.000478503 0 0)
(0.0692246 0.00190537 0 0.00068454 0 0)
(0.0836487 0.00231815 0 0.000906147 0 0)
(0.0995539 0.00273219 0 0.00112452 0 0)
(0.116752 0.00318351 0 0.00132399 0 0)
(0.134324 0.00366755 0 0.00149495 0 0)
(0.152126 0.00417432 0 0.00163277 0 0)
(0.170589 0.00470957 0 0.00173592 0 0)
(0.189914 0.00528789 0 0.00180517 0 0)
(0.210049 0.00592035 0 0.00184392 0 0)
(0.230967 0.00660503 0 0.00185716 0 0)
(0.252711 0.00732183 0 0.00185004 0 0)
(0.275339 0.0080369 0 0.00182677 0 0)
(0.298878 0.00871462 0 0.0017903 0 0)
(0.323272 0.00932537 0 0.00174271 0 0)
(0.348388 0.00984668 0 0.00168587 0 0)
(0.374063 0.0102629 0 0.00162161 0 0)
(0.400153 0.0105676 0 0.00155169 0 0)
(0.426528 0.0107655 0 0.00147766 0 0)
(0.453073 0.010872 0 0.00140129 0 0)
(0.479696 0.0109073 0 0.00132429 0 0)
(0.506337 0.0108919 0 0.00124821 0 0)
(0.532967 0.0108436 0 0.00117436 0 0)
(0.559581 0.0107769 0 0.00110368 0 0)
(0.586188 0.0107025 0 0.00103683 0 0)
(0.612802 0.0106279 0 0.000974244 0 0)
(0.639443 0.0105571 0 0.0009161 0 0)
(0.666129 0.0104915 0 0.000862419 0 0)
(0.692873 0.0104309 0 0.000813128 0 0)
(0.719687 0.0103739 0 0.000768097 0 0)
(0.746577 0.010319 0 0.000727118 0 0)
(0.773549 0.0102646 0 0.000689965 0 0)
(0.800605 0.0102093 0 0.00065637 0 0)
(0.827746 0.010152 0 0.000626065 0 0)
(0.854972 0.0100918 0 0.000598753 0 0)
(0.882284 0.0100285 0 0.000574155 0 0)
(0.90968 0.00996223 0 0.000551991 0 0)
(0.93716 0.00989392 0 0.000532009 0 0)
(0.964724 0.00982462 0 0.000513962 0 0)
(0.99237 0.00975578 0 0.000497631 0 0)
(1.0201 0.00968879 0 0.000482793 0 0)
(1.0479 0.0096249 0 0.000469231 0 0)
(1.07578 0.00956513 0 0.000456736 0 0)
(1.10373 0.00951061 0 0.000445156 0 0)
(1.13176 0.00946215 0 0.000434363 0 0)
(1.15987 0.0094204 0 0.000424264 0 0)
(1.18804 0.00938549 0 0.000414769 0 0)
(1.21629 0.00935727 0 0.000405811 0 0)
(1.2446 0.00933513 0 0.000397322 0 0)
(1.27298 0.00931831 0 0.000389255 0 0)
(1.30142 0.00930574 0 0.00038156 0 0)
(1.32993 0.00929638 0 0.00037421 0 0)
(1.35849 0.00928913 0 0.000367179 0 0)
(1.38711 0.00928301 0 0.00036046 0 0)
(1.41578 0.00927686 0 0.000354023 0 0)
(1.4445 0.00926974 0 0.000347852 0 0)
(1.47326 0.00926069 0 0.000341917 0 0)
(1.50206 0.00924909 0 0.000336202 0 0)
(1.5309 0.00923437 0 0.000330682 0 0)
(1.55976 0.00921636 0 0.000325349 0 0)
(1.58865 0.00919493 0 0.000320185 0 0)
(1.61756 0.00917033 0 0.000315189 0 0)
(1.64649 0.00914276 0 0.000310348 0 0)
(1.67543 0.00911274 0 0.000305663 0 0)
(1.70437 0.00908061 0 0.00030112 0 0)
(1.73332 0.00904694 0 0.000296719 0 0)
(1.76228 0.00901206 0 0.000292442 0 0)
(1.79123 0.00897648 0 0.000288291 0 0)
(1.82018 0.00894042 0 0.000284246 0 0)
(1.84913 0.00890424 0 0.000280308 0 0)
(1.87807 0.00886797 0 0.000276458 0 0)
(1.907 0.00883185 0 0.000272696 0 0)
(1.93592 0.00879574 0 0.000269003 0 0)
(1.96483 0.0087598 0 0.000265381 0 0)
(1.99372 0.00872378 0 0.00026181 0 0)
(2.02259 0.00868778 0 0.000258293 0 0)
(2.05144 0.00865153 0 0.000254813 0 0)
(2.08026 0.00861515 0 0.000251375 0 0)
(2.10906 0.00857834 0 0.000247963 0 0)
(2.13783 0.00854123 0 0.000244585 0 0)
(2.16657 0.00850354 0 0.000241226 0 0)
(2.19528 0.00846547 0 0.000237898 0 0)
(2.22394 0.00842672 0 0.000234586 0 0)
(2.25257 0.00838752 0 0.000231306 0 0)
(2.28116 0.00834758 0 0.000228044 0 0)
(2.3097 0.00830716 0 0.000224815 0 0)
(2.3382 0.00826592 0 0.000221606 0 0)
(2.36665 0.00822421 0 0.000218437 0 0)
(2.39505 0.00818165 0 0.000215289 0 0)
(2.4234 0.00813864 0 0.000212187 0 0)
(2.4517 0.00809474 0 0.000209107 0 0)
(2.47996 0.00805039 0 0.000206079 0 0)
(2.50817 0.00800508 0 0.000203069 0 0)
(2.53634 0.00795941 0 0.000200116 0 0)
(2.56446 0.00791267 0 0.000197174 0 0)
(2.59255 0.00786584 0 0.000194301 0 0)
(2.6206 0.00781773 0 0.000191421 0 0)
(2.64862 0.00777016 0 0.000188637 0 0)
(2.67659 0.00772078 0 0.000185804 0 0)
(2.70456 0.00767313 0 0.00018312 0 0)
(2.73245 0.00762217 0 0.000180296 0 0)
(2.76035 0.00757541 0 0.000177738 0 0)
(2.78813 0.0075217 0 0.000174843 0 0)
(2.81594 0.00747786 0 0.000172472 0 0)
(2.84356 0.00741902 0 0.00016937 0 0)
(2.87119 0.00738241 0 0.000167327 0 0)
(2.8986 0.00731455 0 0.000163775 0 0)
(2.92586 0.00729395 0 0.00016234 0 0)
(2.95311 0.00721202 0 0.000157877 0 0)
(2.9796 0.0072244 0 0.000157582 0 0)
(3.0071 0.00712503 0 0.000151336 0 0)
(3.03178 0.00719709 0 0.000153075 0 0)
(3.06092 0.00708295 0 0.000143441 0 0)
(3.08114 0.00722147 0 0.000147929 0 0)
(3.12053 0.00708235 0 0.000131821 0 0)
(0.035304 0.000119548 0 6.94692e-07 0 0)
(0.00813821 9.81168e-05 0 8.05833e-06 0 0)
(0.0177378 4.57307e-06 0 2.63514e-05 0 0)
(0.0285076 0.000162383 0 5.80253e-05 0 0)
(0.0410524 0.00048303 0 0.000103602 0 0)
(0.0549074 0.000806776 0 0.000161889 0 0)
(0.0687739 0.00107664 0 0.000230135 0 0)
(0.0829829 0.00131368 0 0.000303804 0 0)
(0.0986673 0.00155342 0 0.000377253 0 0)
(0.115661 0.00181232 0 0.000445445 0 0)
(0.13304 0.00208714 0 0.000505171 0 0)
(0.150654 0.00237351 0 0.00055497 0 0)
(0.16893 0.00267652 0 0.000594428 0 0)
(0.188059 0.00300621 0 0.000623562 0 0)
(0.207971 0.00337054 0 0.000642597 0 0)
(0.228611 0.00377058 0 0.000652096 0 0)
(0.249995 0.00419577 0 0.000652902 0 0)
(0.272165 0.00462339 0 0.000645973 0 0)
(0.295142 0.00502449 0 0.00063206 0 0)
(0.318885 0.0053722 0 0.00061185 0 0)
(0.343286 0.00564659 0 0.000586203 0 0)
(0.368218 0.00583595 0 0.00055616 0 0)
(0.393576 0.00593815 0 0.000522963 0 0)
(0.419278 0.00596123 0 0.000487955 0 0)
(0.445242 0.00592097 0 0.000452393 0 0)
(0.471398 0.00583656 0 0.000417374 0 0)
(0.497695 0.00572603 0 0.000383708 0 0)
(0.524106 0.00560416 0 0.000351889 0 0)
(0.550618 0.00548242 0 0.000322205 0 0)
(0.577233 0.00536898 0 0.000294815 0 0)
(0.603956 0.00526839 0 0.0002698 0 0)
(0.630794 0.00518185 0 0.000247147 0 0)
(0.657758 0.00510825 0 0.000226769 0 0)
(0.684858 0.00504531 0 0.000208536 0 0)
(0.7121 0.00499037 0 0.000192291 0 0)
(0.739491 0.00494088 0 0.000177858 0 0)
(0.767033 0.00489465 0 0.000165055 0 0)
(0.794728 0.00484999 0 0.00015371 0 0)
(0.822578 0.00480582 0 0.000143665 0 0)
(0.850581 0.00476178 0 0.000134779 0 0)
(0.878738 0.00471804 0 0.000126929 0 0)
(0.907048 0.00467514 0 0.000120003 0 0)
(0.935509 0.00463374 0 0.000113899 0 0)
(0.96412 0.00459458 0 0.000108522 0 0)
(0.992878 0.0045584 0 0.000103788 0 0)
(1.02178 0.00452596 0 9.96225e-05 0 0)
(1.05083 0.00449826 0 9.59693e-05 0 0)
(1.08003 0.00447623 0 9.27796e-05 0 0)
(1.10938 0.00446055 0 9.00026e-05 0 0)
(1.13887 0.00445164 0 8.7588e-05 0 0)
(1.16851 0.00444968 0 8.54872e-05 0 0)
(1.1983 0.00445461 0 8.3657e-05 0 0)
(1.22825 0.00446617 0 8.20575e-05 0 0)
(1.25835 0.00448393 0 8.06548e-05 0 0)
(1.28861 0.00450726 0 7.94182e-05 0 0)
(1.31903 0.00453547 0 7.83233e-05 0 0)
(1.34961 0.0045678 0 7.73504e-05 0 0)
(1.38034 0.00460357 0 7.64888e-05 0 0)
(1.41122 0.00464201 0 7.57289e-05 0 0)
(1.44226 0.00468232 0 7.506e-05 0 0)
(1.47345 0.00472364 0 7.44691e-05 0 0)
(1.50478 0.00476518 0 7.39439e-05 0 0)
(1.53624 0.00480626 0 7.34729e-05 0 0)
(1.56784 0.00484636 0 7.30466e-05 0 0)
(1.59957 0.00488508 0 7.26564e-05 0 0)
(1.63142 0.00492215 0 7.22953e-05 0 0)
(1.66338 0.0049574 0 7.19554e-05 0 0)
(1.69545 0.00499078 0 7.16307e-05 0 0)
(1.72762 0.00502235 0 7.13162e-05 0 0)
(1.7599 0.00505226 0 7.10088e-05 0 0)
(1.79226 0.00508071 0 7.07059e-05 0 0)
(1.82471 0.00510793 0 7.04055e-05 0 0)
(1.85725 0.00513414 0 7.01058e-05 0 0)
(1.88987 0.00515954 0 6.98053e-05 0 0)
(1.92256 0.00518431 0 6.95022e-05 0 0)
(1.95533 0.00520859 0 6.91954e-05 0 0)
(1.98818 0.00523248 0 6.88832e-05 0 0)
(2.02109 0.00525603 0 6.85646e-05 0 0)
(2.05406 0.00527927 0 6.82381e-05 0 0)
(2.0871 0.0053022 0 6.79028e-05 0 0)
(2.1202 0.00532481 0 6.75572e-05 0 0)
(2.15336 0.00534705 0 6.72008e-05 0 0)
(2.18657 0.00536889 0 6.68327e-05 0 0)
(2.21983 0.00539029 0 6.64527e-05 0 0)
(2.25313 0.00541121 0 6.60603e-05 0 0)
(2.28648 0.00543162 0 6.56562e-05 0 0)
(2.31987 0.00545151 0 6.52406e-05 0 0)
(2.35329 0.00547085 0 6.48143e-05 0 0)
(2.38674 0.00548963 0 6.43783e-05 0 0)
(2.42022 0.00550781 0 6.39337e-05 0 0)
(2.45372 0.0055254 0 6.3482e-05 0 0)
(2.48725 0.00554234 0 6.30241e-05 0 0)
(2.52078 0.00555867 0 6.25619e-05 0 0)
(2.55434 0.00557434 0 6.2096e-05 0 0)
(2.5879 0.00558943 0 6.16289e-05 0 0)
(2.62147 0.00560387 0 6.11597e-05 0 0)
(2.65505 0.00561779 0 6.06924e-05 0 0)
(2.68863 0.00563102 0 6.02233e-05 0 0)
(2.72222 0.00564386 0 5.97599e-05 0 0)
(2.75582 0.00565592 0 5.92924e-05 0 0)
(2.78943 0.00566781 0 5.88364e-05 0 0)
(2.82304 0.00567868 0 5.83702e-05 0 0)
(2.85667 0.00568986 0 5.79263e-05 0 0)
(2.89029 0.00569942 0 5.74565e-05 0 0)
(2.92393 0.00571026 0 5.70304e-05 0 0)
(2.95756 0.00571803 0 5.6543e-05 0 0)
(2.9912 0.00572917 0 5.61443e-05 0 0)
(3.02479 0.00573403 0 5.56112e-05 0 0)
(3.05838 0.00574678 0 5.52623e-05 0 0)
(3.09191 0.00574652 0 5.46334e-05 0 0)
(3.12533 0.00576373 0 5.43848e-05 0 0)
(3.15878 0.00575481 0 5.35702e-05 0 0)
(3.19177 0.00578253 0 5.35249e-05 0 0)
(3.22529 0.00575997 0 5.23574e-05 0 0)
(3.25725 0.00580968 0 5.27004e-05 0 0)
(3.29153 0.00576697 0 5.08713e-05 0 0)
(3.32101 0.00585406 0 5.1857e-05 0 0)
(3.35804 0.00577875 0 4.87828e-05 0 0)
(3.38135 0.00589819 0 5.0448e-05 0 0)
(3.43128 0.00575145 0 4.50265e-05 0 0)
(0.035304 3.77224e-05 0 6.41472e-08 0 0)
(0.00813701 2.9185e-05 0 7.68631e-07 0 0)
(0.0177343 5.10823e-07 0 2.54363e-06 0 0)
(0.028479 5.22139e-05 0 5.62252e-06 0 0)
(0.0409797 0.000151893 0 1.00399e-05 0 0)
(0.0547784 0.000250925 0 1.56644e-05 0 0)
(0.0685697 0.000336005 0 2.2239e-05 0 0)
(0.082684 0.000415233 0 2.93686e-05 0 0)
(0.0982676 0.000497217 0 3.65633e-05 0 0)
(0.115167 0.000584593 0 4.3369e-05 0 0)
(0.132467 0.00067672 0 4.9465e-05 0 0)
(0.150014 0.00077434 0 5.4668e-05 0 0)
(0.168233 0.000880261 0 5.88664e-05 0 0)
(0.187306 0.000997231 0 6.19817e-05 0 0)
(0.207151 0.00112647 0 6.39546e-05 0 0)
(0.227701 0.00126675 0 6.47882e-05 0 0)
(0.24895 0.00141226 0 6.45417e-05 0 0)
(0.270926 0.00155242 0 6.33127e-05 0 0)
(0.293656 0.00167568 0 6.12577e-05 0 0)
(0.317119 0.00177425 0 5.85664e-05 0 0)
(0.341226 0.00184556 0 5.54116e-05 0 0)
(0.365869 0.00189152 0 5.1953e-05 0 0)
(0.390955 0.00191727 0 4.83623e-05 0 0)
(0.416407 0.00193018 0 4.48224e-05 0 0)
(0.442147 0.00193819 0 4.14953e-05 0 0)
(0.468097 0.00194761 0 3.84772e-05 0 0)
(0.494201 0.0019622 0 3.58078e-05 0 0)
(0.520424 0.00198279 0 3.34889e-05 0 0)
(0.546755 0.00200867 0 3.1493e-05 0 0)
(0.573193 0.00203863 0 2.97887e-05 0 0)
(0.599742 0.00207126 0 2.83388e-05 0 0)
(0.62641 0.00210503 0 2.71099e-05 0 0)
(0.653208 0.00213842 0 2.60717e-05 0 0)
(0.680144 0.0021703 0 2.51957e-05 0 0)
(0.707228 0.00219998 0 2.44532e-05 0 0)
(0.734464 0.00222723 0 2.38188e-05 0 0)
(0.761854 0.00225205 0 2.32691e-05 0 0)
(0.789401 0.00227463 0 2.27855e-05 0 0)
(0.817104 0.00229512 0 2.23527e-05 0 0)
(0.844961 0.00231378 0 2.19605e-05 0 0)
(0.872972 0.00233081 0 2.16023e-05 0 0)
(0.901135 0.0023465 0 2.1275e-05 0 0)
(0.929447 0.00236114 0 2.09766e-05 0 0)
(0.957908 0.00237509 0 2.07066e-05 0 0)
(0.986514 0.00238879 0 2.04646e-05 0 0)
(1.01527 0.00240282 0 2.02518e-05 0 0)
(1.04416 0.00241786 0 2.00696e-05 0 0)
(1.0732 0.00243455 0 1.99181e-05 0 0)
(1.10239 0.00245337 0 1.9795e-05 0 0)
(1.13173 0.00247464 0 1.96964e-05 0 0)
(1.16121 0.00249848 0 1.96177e-05 0 0)
(1.19085 0.00252491 0 1.9555e-05 0 0)
(1.22065 0.00255374 0 1.95049e-05 0 0)
(1.25061 0.0025847 0 1.9465e-05 0 0)
(1.28073 0.00261734 0 1.94324e-05 0 0)
(1.31101 0.00265115 0 1.94048e-05 0 0)
(1.34146 0.00268557 0 1.93798e-05 0 0)
(1.37207 0.00272 0 1.93541e-05 0 0)
(1.40284 0.00275386 0 1.93248e-05 0 0)
(1.43378 0.0027867 0 1.92897e-05 0 0)
(1.46488 0.00281814 0 1.9247e-05 0 0)
(1.49614 0.00284793 0 1.91958e-05 0 0)
(1.52754 0.0028759 0 1.91353e-05 0 0)
(1.55909 0.002902 0 1.90653e-05 0 0)
(1.59078 0.00292627 0 1.89857e-05 0 0)
(1.6226 0.00294877 0 1.88969e-05 0 0)
(1.65455 0.00296961 0 1.87984e-05 0 0)
(1.68662 0.00298891 0 1.86904e-05 0 0)
(1.71881 0.00300684 0 1.85732e-05 0 0)
(1.7511 0.00302358 0 1.84475e-05 0 0)
(1.78351 0.00303929 0 1.83142e-05 0 0)
(1.81601 0.00305413 0 1.8174e-05 0 0)
(1.84861 0.00306825 0 1.8028e-05 0 0)
(1.88131 0.00308178 0 1.78768e-05 0 0)
(1.91409 0.00309481 0 1.77212e-05 0 0)
(1.94696 0.00310744 0 1.7562e-05 0 0)
(1.97992 0.00311972 0 1.73997e-05 0 0)
(2.01296 0.0031317 0 1.72351e-05 0 0)
(2.04608 0.00314344 0 1.70687e-05 0 0)
(2.07928 0.00315499 0 1.69009e-05 0 0)
(2.11256 0.00316637 0 1.67321e-05 0 0)
(2.14591 0.00317761 0 1.65626e-05 0 0)
(2.17933 0.00318873 0 1.63929e-05 0 0)
(2.21281 0.00319974 0 1.62232e-05 0 0)
(2.24637 0.00321065 0 1.60539e-05 0 0)
(2.27998 0.00322148 0 1.58852e-05 0 0)
(2.31366 0.00323223 0 1.57175e-05 0 0)
(2.34739 0.0032429 0 1.55512e-05 0 0)
(2.38117 0.00325349 0 1.53864e-05 0 0)
(2.415 0.003264 0 1.52236e-05 0 0)
(2.44888 0.00327446 0 1.5063e-05 0 0)
(2.48281 0.00328486 0 1.49049e-05 0 0)
(2.51677 0.00329518 0 1.47496e-05 0 0)
(2.55077 0.00330537 0 1.45971e-05 0 0)
(2.5848 0.00331543 0 1.44476e-05 0 0)
(2.61887 0.00332531 0 1.43007e-05 0 0)
(2.65297 0.003335 0 1.4157e-05 0 0)
(2.6871 0.00334442 0 1.40156e-05 0 0)
(2.72127 0.00335365 0 1.38775e-05 0 0)
(2.75546 0.00336258 0 1.37411e-05 0 0)
(2.78969 0.00337144 0 1.36084e-05 0 0)
(2.82395 0.00337994 0 1.34761e-05 0 0)
(2.85825 0.00338848 0 1.33484e-05 0 0)
(2.89258 0.0033964 0 1.32182e-05 0 0)
(2.92695 0.00340458 0 1.3095e-05 0 0)
(2.96133 0.00341157 0 1.29638e-05 0 0)
(2.99575 0.00341932 0 1.28453e-05 0 0)
(3.03016 0.00342483 0 1.2708e-05 0 0)
(3.06458 0.00343226 0 1.25959e-05 0 0)
(3.09899 0.00343537 0 1.24445e-05 0 0)
(3.13328 0.00344282 0 1.2345e-05 0 0)
(3.16769 0.00344206 0 1.21662e-05 0 0)
(3.20157 0.00345052 0 1.2095e-05 0 0)
(3.23617 0.00344387 0 1.18649e-05 0 0)
(3.26901 0.00345587 0 1.18545e-05 0 0)
(3.30452 0.00344033 0 1.15252e-05 0 0)
(3.3348 0.00346021 0 1.16292e-05 0 0)
(3.37333 0.00342878 0 1.10962e-05 0 0)
(3.39711 0.00345812 0 1.13366e-05 0 0)
(3.44905 0.00338194 0 1.03213e-05 0 0)
(0.035304 -4.31375e-05 0 1.14438e-07 0 0)
(0.00813681 -3.89903e-05 0 1.21081e-06 0 0)
(0.0177341 -2.46635e-06 0 3.77467e-06 0 0)
(0.0284789 -5.23961e-05 0 8.08156e-06 0 0)
(0.040979 -0.000166105 0 1.41998e-05 0 0)
(0.0547766 -0.00028372 0 2.19797e-05 0 0)
(0.0685675 -0.00037769 0 3.10805e-05 0 0)
(0.0826828 -0.000454625 0 4.09566e-05 0 0)
(0.0982686 -0.00053032 0 5.09051e-05 0 0)
(0.115171 -0.000611369 0 6.02771e-05 0 0)
(0.132473 -0.000694962 0 6.8618e-05 0 0)
(0.150024 -0.000778765 0 7.56992e-05 0 0)
(0.168245 -0.000864965 0 8.1423e-05 0 0)
(0.18732 -0.000957742 0 8.57516e-05 0 0)
(0.207166 -0.00106088 0 8.86609e-05 0 0)
(0.227715 -0.00117597 0 9.01931e-05 0 0)
(0.248964 -0.0012995 0 9.04076e-05 0 0)
(0.270939 -0.00142235 0 8.93607e-05 0 0)
(0.293672 -0.00153271 0 8.70515e-05 0 0)
(0.317137 -0.00162093 0 8.35254e-05 0 0)
(0.341247 -0.0016824 0 7.89563e-05 0 0)
(0.365892 -0.00171734 0 7.3631e-05 0 0)
(0.390979 -0.00172922 0 6.78852e-05 0 0)
(0.416432 -0.00172384 0 6.20778e-05 0 0)
(0.44217 -0.00170763 0 5.65124e-05 0 0)
(0.468118 -0.00168686 0 5.14425e-05 0 0)
(0.494217 -0.00166642 0 4.70246e-05 0 0)