/*--------------------------------*- C++ -*----------------------------------*\
  =========                 |
  \\      /  F ield         | OpenFOAM: The Open Source CFD Toolbox
   \\    /   O peration     | Website:  https://openfoam.org
    \\  /    A nd           | Version:  7
     \\/     M anipulation  |
\*---------------------------------------------------------------------------*/
FoamFile
{
    version     2.0;
    format      ascii;
    class       volScalarField;
    location    "1.55";
    object      T;
}
// * * * * * * * * * * * * * * * * * * * * * * * * * * * * * * * * * * * * * //

dimensions      [0 0 0 1 0 0 0];

internalField   nonuniform List<scalar> 
7920
(
277.267
280.26
280.691
280.88
280.954
280.966
280.98
280.976
280.972
280.963
280.95
280.939
280.915
280.903
280.861
280.847
280.768
280.744
280.535
280.548
272.436
274.612
277.747
277.6
278.318
278.142
278.343
278.256
278.298
278.241
278.21
278.161
278.071
278.025
277.843
277.796
277.419
277.358
276.386
276.416
267.963
270.691
274.156
275.065
275.61
275.644
275.752
275.717
275.709
275.658
275.588
275.531
275.398
275.342
275.109
275.055
274.638
274.532
273.635
273.28
267.394
267.252
271.542
271.575
272.687
272.507
272.797
272.678
272.717
272.623
272.539
272.452
272.261
272.186
271.831
271.765
271.118
270.936
269.879
268.819
266.597
266.141
270.527
270.49
271.734
271.541
271.862
271.729
271.767
271.66
271.561
271.463
271.244
271.161
270.765
270.69
270.013
269.737
268.887
267.458
266.604
265.48
269.839
269.568
270.766
270.558
270.873
270.734
270.764
270.65
270.541
270.438
270.207
270.12
269.711
269.626
268.956
268.617
267.9
266.278
266.604
265.48
269.839
269.568
270.766
270.558
270.873
270.734
270.764
270.65
270.541
270.438
270.207
270.12
269.711
269.625
268.958
268.613
267.91
266.261
266.597
266.141
270.527
270.49
271.734
271.541
271.862
271.729
271.767
271.66
271.561
271.463
271.244
271.161
270.766
270.688
270.018
269.726
268.915
267.402
267.394
267.252
271.542
271.575
272.687
272.507
272.797
272.678
272.717
272.623
272.539
272.452
272.261
272.185
271.832
271.763
271.125
270.92
269.921
268.722
267.963
270.691
274.156
275.065
275.61
275.644
275.752
275.717
275.709
275.658
275.588
275.531
275.398
275.342
275.11
275.053
274.644
274.517
273.682
273.144
272.436
274.612
277.747
277.6
278.318
278.142
278.343
278.256
278.298
278.241
278.21
278.161
278.071
278.024
277.843
277.795
277.422
277.35
276.412
276.315
277.267
280.26
280.691
280.88
280.954
280.966
280.98
280.976
280.972
280.963
280.95
280.939
280.915
280.903
280.861
280.847
280.769
280.742
280.542
280.55
289.11
287.264
289.693
288.581
289.331
288.972
289.215
289.079
289.15
289.087
289.087
289.046
288.997
288.963
288.84
288.806
288.512
288.465
287.598
287.501
285.29
281.473
284.143
282.37
283.358
282.825
283.163
282.961
283.047
282.942
282.916
282.842
282.726
282.66
282.397
282.328
281.712
281.588
279.712
279.333
286.354
279.818
282.613
279.961
281.202
280.399
280.825
280.513
280.608
280.441
280.378
280.258
280.065
279.963
279.552
279.451
278.533
278.345
276.02
275.018
284.904
277.462
278.575
276.19
276.678
275.973
276.152
275.871
275.866
275.699
275.585
275.458
275.234
275.125
274.707
274.599
273.746
273.499
271.513
269.958
285.366
276.988
277.085
274.658
274.774
274.049
274.082
273.776
273.704
273.515
273.363
273.217
272.971
272.848
272.432
272.304
271.54
271.226
269.694
267.73
285.111
276.504
275.951
273.497
273.458
272.694
272.658
272.328
272.222
272.017
271.845
271.687
271.429
271.296
270.882
270.739
270.023
269.661
268.368
266.204
285.111
276.504
275.951
273.497
273.458
272.694
272.658
272.328
272.222
272.017
271.845
271.687
271.429
271.295
270.882
270.738
270.025
269.658
268.374
266.196
285.366
276.988
277.085
274.658
274.774
274.049
274.082
273.776
273.704
273.515
273.363
273.217
272.971
272.847
272.433
272.303
271.545
271.219
269.71
267.707
284.904
277.462
278.575
276.19
276.678
275.973
276.152
275.871
275.866
275.699
275.586
275.457
275.235
275.125
274.708
274.597
273.751
273.491
271.535
269.927
286.354
279.818
282.613
279.961
281.202
280.399
280.825
280.513
280.608
280.441
280.378
280.258
280.065
279.963
279.553
279.45
278.538
278.337
276.04
274.983
285.29
281.473
284.143
282.37
283.358
282.825
283.163
282.961
283.047
282.942
282.916
282.842
282.726
282.66
282.397
282.327
281.715
281.584
279.722
279.315
289.11
287.264
289.693
288.581
289.331
288.972
289.215
289.079
289.15
289.087
289.087
289.046
288.997
288.963
288.84
288.805
288.513
288.464
287.602
287.493
283.592
283.513
284.036
283.649
283.74
283.505
283.494
283.365
283.326
283.249
283.197
283.145
283.073
283.033
282.92
282.886
282.675
282.632
282.217
281.485
284.136
282.615
283.535
282.695
282.775
282.347
282.265
282.035
281.927
281.787
281.668
281.57
281.416
281.342
281.096
281.034
280.565
280.457
279.488
278.012
284.297
282.224
282.627
281.51
281.195
280.556
280.229
279.865
279.617
279.395
279.187
279.038
278.818
278.712
278.409
278.314
277.829
277.567
276.977
274.85
284.31
281.48
281.139
279.708
279.007
278.207
277.701
277.244
276.9
276.618
276.351
276.163
275.904
275.766
275.451
275.307
274.884
274.474
274.132
271.78
284.384
281.491
280.542
278.942
277.955
277.029
276.37
275.816
275.378
275.029
274.704
274.469
274.182
274.004
273.707
273.496
273.21
272.636
272.694
270.339
284.371
281.352
280.077
278.322
277.202
276.206
275.487
274.889
274.414
274.034
273.685
273.426
273.126
272.925
272.635
272.386
272.157
271.509
271.706
269.349
284.371
281.352
280.077
278.322
277.202
276.206
275.487
274.889
274.414
274.034
273.685
273.426
273.126
272.924
272.636
272.385
272.16
271.505
271.713
269.339
284.384
281.491
280.542
278.942
277.955
277.029
276.37
275.816
275.378
275.029
274.704
274.469
274.183
274.003
273.709
273.492
273.217
272.626
272.715
270.309
284.31
281.48
281.139
279.708
279.007
278.207
277.701
277.244
276.9
276.618
276.351
276.162
275.905
275.765
275.454
275.303
274.894
274.459
274.162
271.736
284.297
282.224
282.627
281.51
281.195
280.556
280.229
279.865
279.617
279.395
279.187
279.038
278.818
278.711
278.411
278.31
277.839
277.552
277.011
274.798
284.136
282.615
283.535
282.695
282.775
282.347
282.265
282.035
281.927
281.787
281.668
281.57
281.417
281.342
281.098
281.032
280.572
280.447
279.51
277.974
283.592
283.513
284.036
283.649
283.74
283.505
283.494
283.365
283.327
283.249
283.197
283.145
283.073
283.033
282.92
282.885
282.678
282.627
282.229
281.46
283.592
283.513
284.036
283.649
283.74
283.505
283.494
283.365
283.327
283.249
283.197
283.145
283.073
283.033
282.92
282.886
282.675
282.632
282.217
281.485
284.136
282.615
283.535
282.695
282.775
282.347
282.265
282.035
281.927
281.787
281.668
281.57
281.416
281.342
281.096
281.034
280.565
280.457
279.488
278.012
284.297
282.224
282.627
281.51
281.195
280.556
280.229
279.865
279.617
279.395
279.187
279.038
278.818
278.712
278.409
278.314
277.829
277.567
276.978
274.85
284.31
281.48
281.139
279.708
279.007
278.207
277.701
277.244
276.9
276.618
276.351
276.163
275.904
275.766
275.451
275.307
274.884
274.474
274.132
271.78
284.384
281.491
280.542
278.942
277.955
277.029
276.37
275.816
275.378
275.029
274.704
274.469
274.182
274.004
273.707
273.496
273.21
272.636
272.694
270.339
284.371
281.352
280.077
278.322
277.202
276.206
275.487
274.889
274.414
274.034
273.685
273.426
273.126
272.925
272.635
272.386
272.157
271.509
271.706
269.349
284.371
281.352
280.077
278.322
277.202
276.206
275.487
274.889
274.414
274.034
273.685
273.426
273.126
272.924
272.636
272.385
272.16
271.505
271.713
269.339
284.384
281.491
280.542
278.942
277.955
277.029
276.37
275.816
275.378
275.029
274.705
274.469
274.183
274.003
273.709
273.492
273.217
272.626
272.715
270.309
284.31
281.48
281.139
279.708
279.007
278.207
277.701
277.244
276.9
276.618
276.351
276.162
275.905
275.765
275.454
275.303
274.894
274.459
274.162
271.736
284.297
282.224
282.627
281.51
281.195
280.556
280.229
279.865
279.617
279.395
279.187
279.038
278.818
278.711
278.411
278.31
277.839
277.552
277.011
274.798
284.136
282.615
283.535
282.695
282.775
282.347
282.265
282.035
281.927
281.787
281.668
281.57
281.417
281.342
281.098
281.032
280.572
280.447
279.51
277.974
283.592
283.513
284.036
283.649
283.74
283.505
283.494
283.365
283.327
283.249
283.197
283.145
283.073
283.033
282.92
282.885
282.678
282.627
282.229
281.46
289.11
287.264
289.693
288.581
289.331
288.972
289.215
289.079
289.15
289.087
289.087
289.046
288.997
288.963
288.84
288.806
288.512
288.465
287.598
287.501
285.29
281.473
284.143
282.37
283.358
282.825
283.163
282.961
283.047
282.942
282.916
282.842
282.726
282.66
282.397
282.328
281.712
281.588
279.712
279.333
286.354
279.818
282.613
279.961
281.202
280.399
280.825
280.513
280.608
280.441
280.378
280.258
280.065
279.963
279.552
279.451
278.533
278.345
276.02
275.018
284.904
277.462
278.575
276.19
276.678
275.973
276.152
275.871
275.866
275.699
275.585
275.457
275.234
275.125
274.707
274.599
273.746
273.499
271.513
269.958
285.366
276.988
277.085
274.658
274.774
274.049
274.082
273.776
273.704
273.515
273.363
273.217
272.971
272.848
272.432
272.304
271.54
271.226
269.694
267.729
285.111
276.504
275.951
273.497
273.458
272.694
272.658
272.328
272.222
272.017
271.845
271.687
271.429
271.296
270.882
270.739
270.023
269.661
268.368
266.204
285.111
276.504
275.951
273.497
273.458
272.694
272.658
272.328
272.222
272.017
271.845
271.687
271.429
271.295
270.882
270.738
270.025
269.658
268.374
266.196
285.366
276.988
277.085
274.658
274.774
274.049
274.082
273.776
273.704
273.515
273.363
273.217
272.971
272.847
272.433
272.303
271.545
271.219
269.71
267.707
284.904
277.462
278.575
276.19
276.678
275.973
276.152
275.871
275.866
275.699
275.586
275.457
275.235
275.125
274.708
274.597
273.751
273.491
271.535
269.927
286.354
279.818
282.613
279.961
281.202
280.399
280.825
280.513
280.608
280.441
280.378
280.258
280.065
279.962
279.553
279.45
278.538
278.337
276.04
274.983
285.29
281.473
284.143
282.37
283.358
282.825
283.163
282.961
283.047
282.942
282.916
282.842
282.726
282.66
282.397
282.327
281.715
281.583
279.722
279.315
289.11
287.264
289.693
288.581
289.331
288.972
289.215
289.079
289.15
289.087
289.087
289.046
288.997
288.963
288.84
288.805
288.513
288.464
287.602
287.493
277.267
280.26
280.691
280.88
280.954
280.966
280.98
280.976
280.972
280.963
280.95
280.939
280.915
280.903
280.861
280.847
280.768
280.744
280.535
280.548
272.436
274.612
277.747
277.6
278.318
278.142
278.343
278.256
278.298
278.241
278.21
278.161
278.071
278.025
277.843
277.796
277.419
277.358
276.386
276.416
267.963
270.691
274.156
275.065
275.61
275.644
275.752
275.717
275.709
275.658
275.588
275.531
275.398
275.342
275.109
275.055
274.638
274.532
273.635
273.28
267.394
267.252
271.542
271.575
272.687
272.507
272.797
272.678
272.717
272.623
272.539
272.452
272.261
272.186
271.831
271.765
271.118
270.936
269.88
268.819
266.597
266.141
270.527
270.49
271.734
271.541
271.862
271.729
271.767
271.66
271.561
271.463
271.244
271.161
270.765
270.69
270.013
269.737
268.887
267.458
266.604
265.48
269.839
269.568
270.766
270.558
270.873
270.734
270.764
270.65
270.541
270.438
270.207
270.12
269.711
269.626
268.956
268.617
267.9
266.278
266.604
265.48
269.839
269.568
270.766
270.558
270.873
270.734
270.764
270.65
270.541
270.438
270.207
270.12
269.711
269.625
268.958
268.613
267.91
266.261
266.597
266.141
270.527
270.49
271.734
271.541
271.862
271.729
271.767
271.66
271.561
271.463
271.244
271.161
270.766
270.688
270.018
269.726
268.915
267.402
267.394
267.252
271.542
271.575
272.687
272.507
272.797
272.678
272.717
272.623
272.539
272.452
272.261
272.185
271.832
271.763
271.125
270.92
269.921
268.722
267.963
270.691
274.156
275.065
275.61
275.644
275.752
275.717
275.709
275.658
275.588
275.531
275.398
275.342
275.11
275.053
274.644
274.517
273.682
273.144
272.436
274.612
277.747
277.601
278.318
278.142
278.343
278.256
278.298
278.241
278.21
278.161
278.071
278.024
277.843
277.795
277.422
277.35
276.412
276.315
277.267
280.26
280.691
280.88
280.954
280.966
280.98
280.976
280.972
280.963
280.95
280.939
280.915
280.903
280.861
280.847
280.769
280.742
280.542
280.551
277.87
279.76
280.591
281.132
281.4
281.586
281.708
281.8
281.869
281.921
281.961
281.993
282.019
282.041
282.059
282.071
282.076
282.072
282.062
282.047
282.031
282.016
282.003
281.994
281.988
281.984
281.982
281.981
281.98
281.98
281.981
281.981
281.981
281.982
281.982
281.983
281.983
281.984
281.985
281.985
281.986
281.986
281.987
281.987
281.988
281.989
281.989
281.99
281.99
281.991
281.991
281.992
281.993
281.993
281.994
281.994
281.995
281.995
281.996
281.997
281.997
281.998
281.998
281.999
282
282
282.001
282.001
282.002
282.003
282.003
282.004
282.004
282.005
282.006
282.006
282.007
282.007
282.008
282.009
282.01
282.009
282.012
282.01
282.019
282.008
282.041
282.017
282.147
282.368
278.318
280.326
281.086
281.62
281.877
282.061
282.18
282.271
282.339
282.391
282.431
282.462
282.488
282.51
282.528
282.54
282.545
282.542
282.532
282.517
282.501
282.486
282.474
282.465
282.458
282.454
282.452
282.451
282.45
282.45
282.451
282.451
282.451
282.452
282.452
282.453
282.453
282.454
282.454
282.455
282.455
282.456
282.457
282.457
282.458
282.458
282.459
282.459
282.46
282.46
282.461
282.461
282.462
282.462
282.463
282.463
282.464
282.465
282.465
282.466
282.466
282.467
282.467
282.468
282.468
282.469
282.469
282.47
282.471
282.471
282.472
282.472
282.473
282.473
282.474
282.475
282.475
282.476
282.476
282.477
282.478
282.478
282.48
282.477
282.487
282.476
282.51
282.485
282.616
282.836
277.125
279.538
280.382
280.91
281.159
281.338
281.454
281.543
281.609
281.66
281.699
281.729
281.755
281.776
281.794
281.806
281.811
281.809
281.799
281.786
281.771
281.756
281.744
281.735
281.728
281.724
281.722
281.721
281.72
281.72
281.72
281.721
281.721
281.721
281.722
281.722
281.723
281.723
281.724
281.724
281.725
281.725
281.725
281.726
281.726
281.727
281.727
281.728
281.728
281.729
281.729
281.73
281.73
281.731
281.731
281.732
281.732
281.733
281.733
281.734
281.734
281.735
281.735
281.736
281.736
281.737
281.737
281.738
281.738
281.739
281.739
281.74
281.74
281.741
281.741
281.742
281.742
281.743
281.743
281.744
281.745
281.744
281.747
281.744
281.754
281.742
281.776
281.75
281.869
282.081
275.283
278.199
278.988
279.502
279.742
279.914
280.024
280.109
280.172
280.221
280.258
280.288
280.312
280.332
280.349
280.361
280.367
280.365
280.357
280.345
280.33
280.317
280.305
280.296
280.29
280.286
280.283
280.282
280.281
280.281
280.281
280.282
280.282
280.282
280.283
280.283
280.283
280.284
280.284
280.285
280.285
280.285
280.286
280.286
280.287
280.287
280.288
280.288
280.288
280.289
280.289
280.29
280.29
280.29
280.291
280.291
280.292
280.292
280.293
280.293
280.293
280.294
280.294
280.295
280.295
280.296
280.296
280.296
280.297
280.297
280.298
280.298
280.299
280.299
280.3
280.3
280.301
280.301
280.302
280.302
280.303
280.302
280.305
280.302
280.311
280.3
280.333
280.306
280.413
280.616
274.067
277.342
278.142
278.634
278.858
279.018
279.122
279.201
279.26
279.306
279.341
279.368
279.391
279.41
279.426
279.437
279.443
279.442
279.435
279.424
279.411
279.398
279.387
279.379
279.373
279.369
279.367
279.365
279.365
279.365
279.365
279.365
279.365
279.365
279.366
279.366
279.366
279.367
279.367
279.367
279.368
279.368
279.369
279.369
279.369
279.37
279.37
279.37
279.371
279.371
279.371
279.372
279.372
279.373
279.373
279.373
279.374
279.374
279.374
279.375
279.375
279.375
279.376
279.376
279.377
279.377
279.377
279.378
279.378
279.379
279.379
279.379
279.38
279.38
279.38
279.381
279.381
279.382
279.382
279.382
279.383
279.383
279.385
279.382
279.391
279.38
279.412
279.386
279.484
279.675
273.383
276.843
277.626
278.08
278.281
278.425
278.519
278.59
278.644
278.686
278.718
278.744
278.764
278.781
278.796
278.807
278.812
278.812
278.806
278.796
278.785
278.773
278.763
278.755
278.75
278.746
278.744
278.742
278.742
278.742
278.742
278.742
278.742
278.742
278.743
278.743
278.743
278.743
278.744
278.744
278.744
278.745
278.745
278.745
278.746
278.746
278.746
278.746
278.747
278.747
278.747
278.748
278.748
278.748
278.749
278.749
278.749
278.75
278.75
278.75
278.751
278.751
278.751
278.752
278.752
278.752
278.753
278.753
278.753
278.754
278.754
278.754
278.755
278.755
278.755
278.756
278.756
278.756
278.757
278.757
278.758
278.757
278.76
278.756
278.765
278.754
278.784
278.759
278.852
279.028
273.478
276.867
277.569
277.966
278.136
278.261
278.341
278.404
278.451
278.488
278.516
278.539
278.557
278.572
278.585
278.595
278.6
278.6
278.595
278.587
278.576
278.566
278.557
278.55
278.545
278.542
278.54
278.539
278.538
278.538
278.538
278.538
278.538
278.539
278.539
278.539
278.539
278.539
278.54
278.54
278.54
278.54
278.541
278.541
278.541
278.541
278.542
278.542
278.542
278.542
278.543
278.543
278.543
278.544
278.544
278.544
278.544
278.545
278.545
278.545
278.545
278.546
278.546
278.546
278.547
278.547
278.547
278.547
278.548
278.548
278.548
278.548
278.549
278.549
278.549
278.55
278.55
278.55
278.551
278.551
278.551
278.551
278.553
278.55
278.558
278.548
278.576
278.553
278.641
278.797
274.376
277.418
277.976
278.302
278.434
278.536
278.602
278.654
278.693
278.725
278.748
278.767
278.782
278.795
278.806
278.815
278.819
278.819
278.815
278.808
278.8
278.791
278.784
278.778
278.773
278.77
278.769
278.768
278.767
278.767
278.767
278.767
278.767
278.767
278.768
278.768
278.768
278.768
278.768
278.769
278.769
278.769
278.769
278.769
278.77
278.77
278.77
278.77
278.77
278.771
278.771
278.771
278.771
278.772
278.772
278.772
278.772
278.772
278.773
278.773
278.773
278.773
278.774
278.774
278.774
278.774
278.774
278.775
278.775
278.775
278.775
278.776
278.776
278.776
278.776
278.776
278.777
278.777
278.777
278.777
278.778
278.777
278.779
278.777
278.784
278.775
278.8
278.78
278.861
278.995
275.893
278.363
278.754
278.998
279.09
279.168
279.218
279.258
279.289
279.313
279.332
279.347
279.359
279.369
279.378
279.385
279.388
279.388
279.385
279.38
279.373
279.366
279.36
279.355
279.352
279.35
279.348
279.348
279.347
279.347
279.347
279.347
279.347
279.347
279.347
279.348
279.348
279.348
279.348
279.348
279.348
279.349
279.349
279.349
279.349
279.349
279.349
279.35
279.35
279.35
279.35
279.35
279.35
279.351
279.351
279.351
279.351
279.351
279.351
279.352
279.352
279.352
279.352
279.352
279.352
279.353
279.353
279.353
279.353
279.353
279.353
279.354
279.354
279.354
279.354
279.354
279.355
279.355
279.355
279.355
279.355
279.355
279.357
279.355
279.36
279.353
279.374
279.358
279.431
279.538
278.267
279.927
280.22
280.381
280.435
280.487
280.521
280.549
280.57
280.587
280.6
280.611
280.619
280.626
280.633
280.637
280.64
280.64
280.638
280.634
280.629
280.624
280.62
280.616
280.614
280.612
280.611
280.611
280.611
280.61
280.61
280.611
280.611
280.611
280.611
280.611
280.611
280.611
280.611
280.611
280.611
280.612
280.612
280.612
280.612
280.612
280.612
280.612
280.612
280.612
280.613
280.613
280.613
280.613
280.613
280.613
280.613
280.613
280.613
280.614
280.614
280.614
280.614
280.614
280.614
280.614
280.614
280.615
280.615
280.615
280.615
280.615
280.615
280.615
280.615
280.615
280.616
280.616
280.616
280.616
280.616
280.616
280.617
280.616
280.62
280.615
280.631
280.619
280.681
280.757
280.452
281.264
281.341
281.423
281.447
281.475
281.492
281.507
281.519
281.528
281.535
281.541
281.546
281.55
281.553
281.556
281.557
281.557
281.556
281.554
281.551
281.548
281.546
281.544
281.543
281.542
281.541
281.541
281.541
281.541
281.541
281.541
281.541
281.541
281.541
281.541
281.541
281.541
281.541
281.541
281.541
281.541
281.542
281.542
281.542
281.542
281.542
281.542
281.542
281.542
281.542
281.542
281.542
281.542
281.542
281.542
281.542
281.542
281.543
281.543
281.543
281.543
281.543
281.543
281.543
281.543
281.543
281.543
281.543
281.543
281.543
281.543
281.543
281.544
281.544
281.544
281.544
281.544
281.544
281.544
281.544
281.544
281.545
281.544
281.546
281.544
281.553
281.546
281.59
281.634
281.717
281.949
281.999
282.026
282.036
282.045
282.051
282.055
282.059
282.062
282.064
282.066
282.068
282.069
282.07
282.071
282.071
282.071
282.071
282.07
282.069
282.068
282.068
282.067
282.067
282.066
282.066
282.066
282.066
282.066
282.066
282.066
282.066
282.066
282.066
282.066
282.066
282.066
282.066
282.066
282.066
282.066
282.066
282.066
282.066
282.066
282.066
282.066
282.066
282.066
282.066
282.066
282.066
282.066
282.066
282.066
282.066
282.066
282.066
282.067
282.067
282.067
282.067
282.067
282.067
282.067
282.067
282.067
282.067
282.067
282.067
282.067
282.067
282.067
282.067
282.067
282.067
282.067
282.067
282.067
282.067
282.067
282.067
282.067
282.068
282.067
282.069
282.067
282.081
282.095
286.328
288.427
288.999
289.543
289.801
289.993
290.117
290.212
290.283
290.338
290.38
290.413
290.44
290.463
290.482
290.495
290.499
290.495
290.484
290.468
290.451
290.436
290.423
290.413
290.407
290.403
290.4
290.399
290.399
290.399
290.399
290.4
290.4
290.401
290.401
290.402
290.403
290.403
290.404
290.404
290.405
290.406
290.406
290.407
290.408
290.408
290.409
290.409
290.41
290.411
290.411
290.412
290.413
290.413
290.414
290.414
290.415
290.416
290.416
290.417
290.418
290.418
290.419
290.42
290.42
290.421
290.422
290.422
290.423
290.424
290.424
290.425
290.426
290.426
290.427
290.428
290.428
290.429
290.43
290.43
290.432
290.431
290.434
290.431
290.442
290.43
290.467
290.441
290.582
290.819
281.643
283.851
284.41
284.944
285.201
285.39
285.511
285.605
285.674
285.727
285.768
285.8
285.827
285.849
285.868
285.88
285.885
285.881
285.871
285.856
285.839
285.824
285.811
285.802
285.796
285.791
285.789
285.788
285.788
285.788
285.788
285.788
285.789
285.789
285.79
285.79
285.791
285.791
285.792
285.792
285.793
285.793
285.794
285.795
285.795
285.796
285.796
285.797
285.797
285.798
285.799
285.799
285.8
285.8
285.801
285.801
285.802
285.802
285.803
285.804
285.804
285.805
285.805
285.806
285.807
285.807
285.808
285.808
285.809
285.81
285.81
285.811
285.811
285.812
285.813
285.813
285.814
285.814
285.815
285.815
285.817
285.816
285.819
285.816
285.826
285.815
285.85
285.824
285.955
286.186
278.901
281.416
281.94
282.469
282.726
282.91
283.03
283.12
283.188
283.24
283.28
283.311
283.337
283.359
283.377
283.389
283.395
283.392
283.382
283.368
283.353
283.338
283.325
283.316
283.309
283.305
283.303
283.302
283.301
283.301
283.301
283.302
283.302
283.303
283.303
283.303
283.304
283.304
283.305
283.305
283.306
283.306
283.307
283.307
283.308
283.308
283.309
283.309
283.31
283.31
283.311
283.311
283.312
283.312
283.313
283.313
283.314
283.314
283.315
283.315
283.316
283.316
283.317
283.317
283.318
283.318
283.319
283.319
283.32
283.32
283.321
283.321
283.322
283.323
283.323
283.324
283.324
283.325
283.325
283.326
283.327
283.326
283.329
283.326
283.336
283.324
283.358
283.332
283.447
283.668
276.155
279.16
279.843
280.366
280.617
280.795
280.91
280.997
281.061
281.111
281.15
281.18
281.204
281.225
281.242
281.255
281.26
281.258
281.25
281.237
281.223
281.209
281.197
281.188
281.181
281.177
281.175
281.173
281.173
281.173
281.173
281.173
281.173
281.174
281.174
281.175
281.175
281.175
281.176
281.176
281.177
281.177
281.177
281.178
281.178
281.179
281.179
281.18
281.18
281.18
281.181
281.181
281.182
281.182
281.183
281.183
281.183
281.184
281.184
281.185
281.185
281.186
281.186
281.187
281.187
281.188
281.188
281.188
281.189
281.189
281.19
281.19
281.191
281.191
281.192
281.192
281.193
281.193
281.194
281.194
281.195
281.194
281.197
281.194
281.204
281.192
281.225
281.199
281.299
281.508
274.43
277.834
278.617
279.126
279.364
279.53
279.637
279.719
279.779
279.826
279.862
279.89
279.913
279.933
279.949
279.961
279.967
279.966
279.958
279.947
279.934
279.921
279.91
279.901
279.895
279.891
279.888
279.887
279.886
279.886
279.886
279.887
279.887
279.887
279.887
279.888
279.888
279.889
279.889
279.889
279.89
279.89
279.89
279.891
279.891
279.891
279.892
279.892
279.892
279.893
279.893
279.894
279.894
279.894
279.895
279.895
279.895
279.896
279.896
279.897
279.897
279.897
279.898
279.898
279.899
279.899
279.899
279.9
279.9
279.9
279.901
279.901
279.902
279.902
279.902
279.903
279.903
279.904
279.904
279.904
279.905
279.905
279.907
279.904
279.913
279.902
279.933
279.908
279.997
280.191
273.517
277.123
277.924
278.397
278.611
278.76
278.857
278.93
278.985
279.028
279.061
279.086
279.107
279.125
279.139
279.15
279.156
279.156
279.15
279.14
279.128
279.116
279.106
279.098
279.092
279.089
279.086
279.085
279.085
279.084
279.084
279.085
279.085
279.085
279.085
279.086
279.086
279.086
279.086
279.087
279.087
279.087
279.088
279.088
279.088
279.089
279.089
279.089
279.09
279.09
279.09
279.09
279.091
279.091
279.091
279.092
279.092
279.092
279.093
279.093
279.093
279.094
279.094
279.094
279.095
279.095
279.095
279.096
279.096
279.096
279.097
279.097
279.097
279.098
279.098
279.098
279.099
279.099
279.099
279.1
279.1
279.1
279.102
279.099
279.108
279.097
279.126
279.103
279.183
279.359
273.601
277.11
277.825
278.236
278.416
278.544
278.627
278.69
278.738
278.775
278.803
278.826
278.844
278.859
278.872
278.882
278.887
278.887
278.882
278.874
278.864
278.854
278.845
278.838
278.833
278.829
278.827
278.826
278.825
278.825
278.825
278.825
278.826
278.826
278.826
278.826
278.826
278.827
278.827
278.827
278.827
278.828
278.828
278.828
278.828
278.829
278.829
278.829
278.829
278.83
278.83
278.83
278.83
278.831
278.831
278.831
278.832
278.832
278.832
278.832
278.833
278.833
278.833
278.833
278.834
278.834
278.834
278.834
278.835
278.835
278.835
278.836
278.836
278.836
278.836
278.837
278.837
278.837
278.838
278.838
278.839
278.838
278.84
278.837
278.845
278.835
278.862
278.84
278.915
279.071
274.677
277.771
278.299
278.627
278.765
278.868
278.934
278.986
279.025
279.056
279.079
279.098
279.113
279.126
279.136
279.144
279.149
279.149
279.145
279.138
279.13
279.121
279.114
279.108
279.104
279.101
279.099
279.098
279.098
279.098
279.098
279.098
279.098
279.098
279.098
279.099
279.099
279.099
279.099
279.099
279.099
279.1
279.1
279.1
279.1
279.1
279.101
279.101
279.101
279.101
279.101
279.102
279.102
279.102
279.102
279.103
279.103
279.103
279.103
279.103
279.104
279.104
279.104
279.104
279.104
279.105
279.105
279.105
279.105
279.106
279.106
279.106
279.106
279.106
279.107
279.107
279.107
279.107
279.108
279.108
279.108
279.108
279.11
279.107
279.114
279.106
279.129
279.11
279.181
279.312
276.547
278.967
279.237
279.472
279.565
279.64
279.689
279.728
279.758
279.782
279.8
279.814
279.826
279.836
279.844
279.85
279.854
279.854
279.851
279.846
279.839
279.833
279.827
279.822
279.819
279.817
279.815
279.815
279.814
279.814
279.814
279.814
279.814
279.814
279.815
279.815
279.815
279.815
279.815
279.815
279.815
279.816
279.816
279.816
279.816
279.816
279.816
279.817
279.817
279.817
279.817
279.817
279.817
279.817
279.818
279.818
279.818
279.818
279.818
279.818
279.819
279.819
279.819
279.819
279.819
279.819
279.82
279.82
279.82
279.82
279.82
279.82
279.821
279.821
279.821
279.821
279.821
279.821
279.822
279.822
279.822
279.822
279.823
279.821
279.827
279.82
279.84
279.824
279.889
279.994
279.359
280.93
280.909
281.054
281.107
281.156
281.188
281.214
281.234
281.251
281.263
281.273
281.281
281.288
281.294
281.298
281.301
281.301
281.299
281.295
281.29
281.286
281.282
281.278
281.276
281.275
281.274
281.273
281.273
281.273
281.273
281.273
281.273
281.273
281.273
281.273
281.273
281.273
281.274
281.274
281.274
281.274
281.274
281.274
281.274
281.274
281.274
281.274
281.275
281.275
281.275
281.275
281.275
281.275
281.275
281.275
281.275
281.276
281.276
281.276
281.276
281.276
281.276
281.276
281.276
281.276
281.277
281.277
281.277
281.277
281.277
281.277
281.277
281.277
281.277
281.278
281.278
281.278
281.278
281.278
281.278
281.278
281.279
281.278
281.282
281.277
281.292
281.281
281.336
281.412
281.895
282.711
282.637
282.709
282.727
282.753
282.769
282.784
282.795
282.804
282.811
282.816
282.821
282.825
282.828
282.83
282.832
282.832
282.83
282.828
282.826
282.823
282.821
282.819
282.818
282.817
282.816
282.816
282.816
282.816
282.816
282.816
282.816
282.816
282.816
282.816
282.816
282.816
282.816
282.816
282.816
282.817
282.817
282.817
282.817
282.817
282.817
282.817
282.817
282.817
282.817
282.817
282.817
282.817
282.817
282.817
282.817
282.817
282.818
282.818
282.818
282.818
282.818
282.818
282.818
282.818
282.818
282.818
282.818
282.818
282.818
282.818
282.818
282.818
282.819
282.819
282.819
282.819
282.819
282.819
282.819
282.819
282.82
282.819
282.821
282.818
282.828
282.821
282.862
282.908
285.657
285.887
285.795
285.812
285.81
285.817
285.821
285.825
285.828
285.831
285.833
285.835
285.837
285.838
285.839
285.84
285.84
285.84
285.84
285.839
285.838
285.837
285.837
285.836
285.836
285.835
285.835
285.835
285.835
285.835
285.835
285.835
285.835
285.835
285.835
285.835
285.835
285.835
285.835
285.835
285.835
285.835
285.835
285.835
285.835
285.835
285.835
285.835
285.835
285.835
285.835
285.835
285.835
285.835
285.835
285.835
285.835
285.835
285.835
285.835
285.835
285.835
285.835
285.836
285.836
285.836
285.836
285.836
285.836
285.836
285.836
285.836
285.836
285.836
285.836
285.836
285.836
285.836
285.836
285.836
285.836
285.836
285.836
285.836
285.837
285.836
285.84
285.837
285.856
285.872
282.377
284.888
285.664
286.228
286.511
286.709
286.838
286.935
287.007
287.062
287.104
287.137
287.165
287.188
287.207
287.22
287.224
287.22
287.209
287.193
287.176
287.16
287.147
287.137
287.131
287.127
287.125
287.124
287.123
287.124
287.124
287.124
287.125
287.126
287.126
287.127
287.128
287.128
287.129
287.129
287.13
287.131
287.131
287.132
287.133
287.133
287.134
287.135
287.135
287.136
287.137
287.137
287.138
287.139
287.139
287.14
287.141
287.142
287.142
287.143
287.144
287.144
287.145
287.146
287.146
287.147
287.148
287.148
287.149
287.15
287.151
287.151
287.152
287.153
287.153
287.154
287.155
287.156
287.156
287.157
287.158
287.158
287.161
287.158
287.168
287.156
287.191
287.164
287.275
287.508
280.181
282.863
283.669
284.236
284.523
284.721
284.85
284.946
285.018
285.072
285.114
285.147
285.174
285.197
285.216
285.229
285.234
285.23
285.219
285.204
285.188
285.172
285.159
285.15