/*--------------------------------*- C++ -*----------------------------------*\
  =========                 |
  \\      /  F ield         | OpenFOAM: The Open Source CFD Toolbox
   \\    /   O peration     | Website:  https://openfoam.org
    \\  /    A nd           | Version:  7
     \\/     M anipulation  |
\*---------------------------------------------------------------------------*/
FoamFile
{
    version     2.0;
    format      ascii;
    class       volScalarField;
    location    "0.29";
    object      T;
}
// * * * * * * * * * * * * * * * * * * * * * * * * * * * * * * * * * * * * * //

dimensions      [0 0 0 1 0 0 0];

internalField   nonuniform List<scalar> 
400
(
300.858
302.982
304.966
306.652
308.046
309.179
310.085
310.793
311.334
311.738
312.03
312.236
312.374
312.462
312.514
312.541
312.551
312.551
312.548
312.545
300.266
301.478
302.98
304.474
305.803
306.916
307.815
308.52
309.059
309.462
309.754
309.959
310.098
310.187
310.24
310.268
310.279
310.281
310.278
310.276
300.086
300.718
301.7
302.84
303.967
304.976
305.824
306.504
307.031
307.427
307.716
307.921
308.061
308.153
308.209
308.24
308.254
308.259
308.259
308.259
300.027
300.341
300.933
301.719
302.581
303.416
304.158
304.778
305.273
305.653
305.935
306.138
306.279
306.374
306.434
306.469
306.488
306.497
306.501
306.503
300.008
300.158
300.495
300.998
301.604
302.239
302.839
303.367
303.806
304.153
304.419
304.615
304.756
304.853
304.917
304.958
304.983
304.997
305.005
305.011
300.002
300.072
300.253
300.556
300.954
301.402
301.852
302.27
302.633
302.932
303.17
303.352
303.486
303.583
303.651
303.697
303.727
303.747
303.76
303.77
300.001
300.032
300.126
300.299
300.544
300.839
301.153
301.46
301.74
301.981
302.18
302.338
302.46
302.552
302.619
302.668
302.703
302.728
302.746
302.759
300
300.014
300.061
300.155
300.298
300.48
300.685
300.895
301.095
301.275
301.429
301.558
301.661
301.742
301.805
301.853
301.889
301.917
301.938
301.955
300
300.006
300.028
300.077
300.156
300.262
300.388
300.521
300.654
300.779
300.89
300.986
301.067
301.133
301.186
301.229
301.263
301.291
301.313
301.333
300
300.003
300.013
300.037
300.079
300.137
300.208
300.288
300.37
300.45
300.524
300.59
300.648
300.697
300.739
300.773
300.803
300.827
300.848
300.868
300
300.001
300.006
300.017
300.038
300.068
300.106
300.15
300.197
300.244
300.289
300.331
300.369
300.403
300.432
300.458
300.481
300.5
300.517
300.536
300
300
300.002
300.008
300.017
300.032
300.051
300.073
300.098
300.124
300.149
300.173
300.196
300.217
300.236
300.253
300.269
300.283
300.296
300.311
300
300
300.001
300.003
300.007
300.014
300.022
300.033
300.045
300.058
300.071
300.084
300.096
300.108
300.119
300.13
300.14
300.149
300.157
300.168
300
300
300
300.001
300.003
300.005
300.009
300.014
300.019
300.025
300.031
300.037
300.043
300.049
300.055
300.061
300.067
300.072
300.077
300.085
300
300
300
300
300.001
300.002
300.003
300.005
300.007
300.009
300.012
300.015
300.017
300.02
300.023
300.026
300.029
300.032
300.035
300.04
300
300
300
300
300
300.001
300.001
300.002
300.002
300.003
300.004
300.005
300.006
300.008
300.009
300.01
300.012
300.013
300.015
300.018
300
300
300
300
300
300
300
300
300.001
300.001
300.001
300.002
300.002
300.003
300.003
300.004
300.005
300.005
300.006
300.008
300
300
300
300
300
300
300
300
300
300
300
300
300.001
300.001
300.001
300.001
300.002
300.002
300.003
300.003
300
300
300
300
300
300
300
300
300
300
300
300
300
300
300
300.001
300.001
300.001
300.001
300.001
300
300
300
300
300
300
300
300
300
300
300
300
300
300
300
300
300
300
300
300
)
;

boundaryField
{
    upperWall
    {
        type            fixedValue;
        value           uniform 300;
    }
    lowerWall
    {
        type            fixedGradient;
        gradient        uniform 5000;
    }
    inlet
    {
        type            fixedValue;
        value           uniform 300;
    }
    outlet
    {
        type            inletOutlet;
        inletValue      uniform 300;
        value           nonuniform List<scalar> 
20
(
312.545
310.276
308.259
306.503
305.011
303.77
302.759
301.955
301.333
300.868
300.536
300.311
300.169
300.085
300.04
300.018
300.008
300.003
300.001
300
)
;
    }
    frontAndBack
    {
        type            empty;
    }
}


// ************************************************************************* //
