/*--------------------------------*- C++ -*----------------------------------*\
  =========                 |
  \\      /  F ield         | OpenFOAM: The Open Source CFD Toolbox
   \\    /   O peration     | Website:  https://openfoam.org
    \\  /    A nd           | Version:  7
     \\/     M anipulation  |
\*---------------------------------------------------------------------------*/
FoamFile
{
    version     2.0;
    format      ascii;
    class       volVectorField;
    location    "0.29";
    object      U;
}
// * * * * * * * * * * * * * * * * * * * * * * * * * * * * * * * * * * * * * //

dimensions      [0 1 -1 0 0 0 0];

internalField   nonuniform List<vector> 
400
(
(0.0642277 0.0511157 0)
(0.0199136 0.0117576 0)
(0.00823683 0.00184337 0)
(0.00180949 -0.000185654 0)
(-0.0005846 -0.000459522 0)
(-0.0016468 -0.00040795 0)
(-0.00201364 -0.000306748 0)
(-0.00208028 -0.000222003 0)
(-0.00198368 -0.000156546 0)
(-0.00179498 -0.0001186 0)
(-0.00155078 -9.52308e-05 0)
(-0.00126301 -7.90531e-05 0)
(-0.000941854 -6.83013e-05 0)
(-0.000595166 -6.13156e-05 0)
(-0.000229304 -5.70416e-05 0)
(0.000149891 -5.48194e-05 0)
(0.000539659 -5.36834e-05 0)
(0.000956312 -6.21856e-05 0)
(0.0012784 -7.11751e-05 0)
(0.00205016 -0.000110771 0)
(0.0931015 0.0729437 0)
(0.0625427 0.0403388 0)
(0.0389065 0.0196072 0)
(0.0227552 0.0091654 0)
(0.0132312 0.00419416 0)
(0.00759483 0.00189447 0)
(0.00437087 0.000782863 0)
(0.00257989 0.000213078 0)
(0.00166887 -0.000101458 0)
(0.0013191 -0.000296334 0)
(0.00135282 -0.000426069 0)
(0.00165203 -0.000521367 0)
(0.00213785 -0.000590317 0)
(0.00275866 -0.000640741 0)
(0.00347635 -0.000677176 0)
(0.00426167 -0.000702586 0)
(0.00509151 -0.000720103 0)
(0.00594685 -0.000738705 0)
(0.00670485 -0.000787466 0)
(0.00804699 -0.000799398 0)
(0.0990127 0.0883579 0)
(0.0837095 0.0634201 0)
(0.0643241 0.0411166 0)
(0.046638 0.025082 0)
(0.0333017 0.0147354 0)
(0.0239791 0.00848942 0)
(0.0177908 0.00477406 0)
(0.0138267 0.00253353 0)
(0.0114006 0.00113416 0)
(0.0100355 0.00022551 0)
(0.00940946 -0.000389423 0)
(0.00931539 -0.000821555 0)
(0.00960548 -0.00113613 0)
(0.0101693 -0.00136228 0)
(0.0109307 -0.00152224 0)
(0.0118323 -0.00163043 0)
(0.0128264 -0.00169734 0)
(0.0138698 -0.001735 0)
(0.0148366 -0.00175245 0)
(0.0164148 -0.00170068 0)
(0.100843 0.0942671 0)
(0.0938579 0.0763552 0)
(0.0815271 0.0570618 0)
(0.0673332 0.0400915 0)
(0.054308 0.0269112 0)
(0.0436623 0.0174785 0)
(0.0356217 0.0110233 0)
(0.0298734 0.00668389 0)
(0.0259513 0.00375684 0)
(0.0234188 0.00174954 0)
(0.0219246 0.000343876 0)
(0.0211972 -0.000656034 0)
(0.0210398 -0.00138278 0)
(0.0213061 -0.00191274 0)
(0.0218783 -0.00229068 0)
(0.0226716 -0.00255019 0)
(0.0236165 -0.00271433 0)
(0.024657 -0.00280079 0)
(0.0256625 -0.00280758 0)
(0.0273261 -0.00270066 0)
(0.101067 0.0957756 0)
(0.098279 0.0830606 0)
(0.0917982 0.0674571 0)
(0.0825378 0.0518945 0)
(0.0724055 0.0381631 0)
(0.0628436 0.0270256 0)
(0.0547057 0.0184957 0)
(0.0482692 0.0121913 0)
(0.0434604 0.00761076 0)
(0.040053 0.00429519 0)
(0.0377863 0.00188551 0)
(0.0364152 0.000122717 0)
(0.0357357 -0.00116719 0)
(0.035588 -0.00212103 0)
(0.0358402 -0.00281274 0)
(0.0363856 -0.00329758 0)
(0.0371402 -0.00361629 0)
(0.0380483 -0.00379893 0)
(0.0389642 -0.00384237 0)
(0.0406025 -0.0037257 0)
(0.0990935 0.0956752 0)
(0.0992151 0.0854905 0)
(0.0970952 0.0727619 0)
(0.092448 0.0593509 0)
(0.086082 0.046485 0)
(0.0791031 0.035057 0)
(0.072421 0.0255123 0)
(0.0665859 0.0178874 0)
(0.0618325 0.0119689 0)
(0.0581812 0.0074496 0)
(0.0555351 0.00402712 0)
(0.0537491 0.00144502 0)
(0.0526581 -0.000493737 0)
(0.0521296 -0.00193639 0)
(0.0520483 -0.00300304 0)
(0.0523052 -0.003771 0)
(0.0528092 -0.00429652 0)
(0.0535174 -0.00462612 0)
(0.0542624 -0.00476846 0)
(0.0557856 -0.00471156 0)
(0.0999858 0.0957098 0)
(0.10023 0.0854266 0)
(0.100121 0.0745426 0)
(0.0985496 0.0630369 0)
(0.0955231 0.0514788 0)
(0.0915158 0.040587 0)
(0.0871247 0.0309091 0)
(0.0828599 0.022702 0)
(0.0790646 0.0159746 0)
(0.0759144 0.0105883 0)
(0.0734573 0.00634483 0)
(0.0716619 0.00304007 0)
(0.0704562 0.000490444 0)
(0.0697494 -0.00144579 0)
(0.0694494 -0.00290182 0)
(0.0694838 -0.00397542 0)
(0.0697703 -0.00473646 0)
(0.0702872 -0.0052467 0)
(0.0708436 -0.00553398 0)
(0.0721978 -0.00560874 0)
(0.0995421 0.0941925 0)
(0.100411 0.0844474 0)
(0.101567 0.0743534 0)
(0.102042 0.0639668 0)
(0.101589 0.0535098 0)
(0.100263 0.0434099 0)
(0.0983128 0.0341042 0)
(0.0960628 0.0258861 0)
(0.093806 0.0188722 0)
(0.0917547 0.0130411 0)
(0.090033 0.00829028 0)
(0.0886934 0.0044819 0)
(0.0877387 0.00147241 0)
(0.0871384 -0.000873994 0)
(0.0868481 -0.00267035 0)
(0.086829 -0.00402063 0)
(0.0870207 -0.00500596 0)
(0.0874326 -0.00569859 0)
(0.0878555 -0.00614202 0)
(0.0890459 -0.00639546 0)
(0.100662 0.0934366 0)
(0.101341 0.0833001 0)
(0.102552 0.0731362 0)
(0.104112 0.0630756 0)
(0.105429 0.0532599 0)
(0.106204 0.0438472 0)
(0.106407 0.0350794 0)
(0.106156 0.0271728 0)
(0.105622 0.0202522 0)
(0.104973 0.0143456 0)
(0.10434 0.0094092 0)
(0.103814 0.00535699 0)
(0.103444 0.00208458 0)
(0.103251 -0.000516664 0)
(0.103229 -0.00254473 0)
(0.103373 -0.0040956 0)
(0.103647 -0.00525209 0)
(0.104096 -0.00609112 0)
(0.104496 -0.00666121 0)
(0.105594 -0.00708953 0)
(0.0996131 0.0944107 0)
(0.101071 0.0822807 0)
(0.102986 0.0711752 0)
(0.105493 0.0609412 0)
(0.108078 0.0513706 0)
(0.110415 0.0424127 0)
(0.11234 0.0341408 0)
(0.113816 0.0266601 0)
(0.114897 0.020045 0)
(0.115675 0.0143174 0)
(0.116254 0.00945213 0)
(0.116722 0.00539152 0)
(0.117149 0.00205942 0)
(0.11758 -0.000629064 0)
(0.118041 -0.00275707 0)
(0.118551 -0.00440641 0)
(0.11909 -0.00565303 0)
(0.119731 -0.00657159 0)
(0.120243 -0.0072076 0)
(0.12136 -0.00774404 0)
(0.0995842 0.0931844 0)
(0.101052 0.0802073 0)
(0.103698 0.0685274 0)
(0.106938 0.0579278 0)
(0.110451 0.0483177 0)
(0.113946 0.039583 0)
(0.117196 0.0316846 0)
(0.120069 0.0246244 0)
(0.122524 0.018401 0)
(0.12459 0.0129957 0)
(0.12633 0.008371 0)
(0.127814 0.00447493 0)
(0.129111 0.00124533 0)
(0.130277 -0.00138439 0)
(0.131348 -0.00348545 0)
(0.13236 -0.00512473 0)
(0.133302 -0.00636946 0)
(0.134262 -0.00728124 0)
(0.134996 -0.0079075 0)
(0.136236 -0.00842682 0)
(0.100067 0.0906611 0)
(0.101536 0.0775461 0)
(0.104786 0.065265 0)
(0.108774 0.0541884 0)
(0.113152 0.0443614 0)
(0.11764 0.035676 0)
(0.121981 0.0280353 0)
(0.125997 0.0213529 0)
(0.129598 0.0155436 0)
(0.13277 0.0105299 0)
(0.135545 0.00624368 0)
(0.137974 0.00262395 0)
(0.140118 -0.000387381 0)
(0.142028 -0.00284757 0)
(0.143746 -0.00481739 0)
(0.145308 -0.00634853 0)
(0.146709 -0.00750192 0)
(0.148032 -0.00831052 0)
(0.149039 -0.00884886 0)
(0.150421 -0.00918034 0)
(0.101219 0.090688 0)
(0.102909 0.0750806 0)
(0.106475 0.0614464 0)
(0.111295 0.0496461 0)
(0.116687 0.0394904 0)
(0.122212 0.0307846 0)
(0.127584 0.0233595 0)
(0.132621 0.0170402 0)
(0.137224 0.0116575 0)
(0.141359 0.00707434 0)
(0.145041 0.00318505 0)
(0.148309 -8.35249e-05 0)
(0.151211 -0.00279269 0)
(0.15379 -0.00499643 0)
(0.156084 -0.00674691 0)
(0.158124 -0.00807927 0)
(0.159914 -0.00905339 0)
(0.161504 -0.0096543 0)
(0.162719 -0.0100267 0)
(0.164086 -0.00997448 0)
(0.100793 0.0904079 0)
(0.103831 0.0719132 0)
(0.108652 0.0566437 0)
(0.114849 0.0439924 0)
(0.121581 0.0335091 0)
(0.128338 0.024835 0)
(0.13484 0.0176774 0)
(0.140912 0.011764 0)
(0.146465 0.00684843 0)
(0.151462 0.00274082 0)
(0.155916 -0.000687098 0)
(0.159858 -0.00352849 0)
(0.163325 -0.00585168 0)
(0.166349 -0.00770609 0)
(0.168972 -0.00913871 0)
(0.171212 -0.0101694 0)
(0.173107 -0.0108638 0)
(0.174639 -0.0111453 0)
(0.175815 -0.0112721 0)
(0.176742 -0.0106578 0)
(0.100335 0.088345 0)
(0.104827 0.0671218 0)
(0.111813 0.0501762 0)
(0.120024 0.0367267 0)
(0.12855 0.0260314 0)
(0.136875 0.0175307 0)
(0.144707 0.0107884 0)
(0.151869 0.00542077 0)
(0.158281 0.00111371 0)
(0.163937 -0.00237264 0)
(0.168852 -0.00519931 0)
(0.173054 -0.00747514 0)
(0.176593 -0.009271 0)
(0.179512 -0.0106335 0)
(0.181873 -0.011608 0)
(0.183695 -0.0122059 0)
(0.185086 -0.0125008 0)
(0.185936 -0.0123628 0)
(0.18659 -0.0121683 0)
(0.186386 -0.010913 0)
(0.100289 0.085255 0)
(0.107449 0.0603642 0)
(0.117333 0.0418178 0)
(0.12822 0.0277335 0)
(0.139014 0.0170245 0)
(0.149138 0.0089205 0)
(0.158257 0.00283923 0)
(0.166199 -0.00172274 0)
(0.172924 -0.00516445 0)
(0.178466 -0.00777738 0)
(0.182906 -0.00976335 0)
(0.186343 -0.0112449 0)
(0.188881 -0.0123004 0)
(0.190615 -0.0129821 0)
(0.191662 -0.0133367 0)
(0.192071 -0.0133784 0)
(0.192047 -0.0131777 0)
(0.191395 -0.0125943 0)
(0.190884 -0.0120441 0)
(0.188836 -0.010291 0)
(0.101384 0.0779057 0)
(0.112969 0.0487601 0)
(0.127373 0.0285571 0)
(0.141595 0.0144168 0)
(0.154545 0.00461085 0)
(0.165728 -0.00199963 0)
(0.174875 -0.00638433 0)
(0.181948 -0.00927259 0)
(0.187114 -0.01116 0)
(0.190617 -0.0123678 0)
(0.192707 -0.0130995 0)
(0.193614 -0.0134779 0)
(0.193548 -0.0135763 0)
(0.192689 -0.0134414 0)
(0.191221 -0.0131087 0)
(0.189241 -0.0125942 0)
(0.187017 -0.0119393 0)
(0.184319 -0.0110526 0)
(0.182207 -0.0102378 0)
(0.178142 -0.00843525 0)
(0.102964 0.0715207 0)
(0.124136 0.0375416 0)
(0.144361 0.0160298 0)
(0.160814 0.0020185 0)
(0.173276 -0.00641688 0)
(0.181818 -0.0109128 0)
(0.186863 -0.0129893 0)
(0.189132 -0.013715 0)
(0.189333 -0.0137123 0)
(0.188012 -0.0133307 0)
(0.185584 -0.0127627 0)
(0.18237 -0.0121057 0)
(0.178623 -0.0114031 0)
(0.174537 -0.0106729 0)
(0.170284 -0.00992003 0)
(0.165955 -0.00914719 0)
(0.161764 -0.0083504 0)
(0.157506 -0.00751129 0)
(0.154158 -0.00671598 0)
(0.149003 -0.00546786 0)
(0.108751 0.0421817 0)
(0.142198 0.00528141 0)
(0.160479 -0.00950799 0)
(0.169237 -0.0157597 0)
(0.172439 -0.0172255 0)
(0.171478 -0.0162761 0)
(0.167617 -0.0143928 0)
(0.162143 -0.0123205 0)
(0.15599 -0.0104197 0)
(0.149658 -0.00883275 0)
(0.143396 -0.00756587 0)
(0.137342 -0.00656505 0)
(0.131576 -0.00576287 0)
(0.12614 -0.00510068 0)
(0.121063 -0.00453112 0)
(0.116345 -0.00402704 0)
(0.112051 -0.00355728 0)
(0.108035 -0.00314427 0)
(0.104847 -0.00272913 0)
(0.100415 -0.00234818 0)
(0.107849 0.0333557 0)
(0.142783 -0.00266434 0)
(0.131982 -0.00965564 0)
(0.116685 -0.00938788 0)
(0.10342 -0.00719624 0)
(0.0918265 -0.00495141 0)
(0.0820299 -0.00327993 0)
(0.0740857 -0.0021481 0)
(0.067683 -0.00141527 0)
(0.0624501 -0.000964521 0)
(0.0580881 -0.000695547 0)
(0.0543774 -0.000533165 0)
(0.0511638 -0.000429332 0)
(0.048343 -0.000357258 0)
(0.0458487 -0.000301575 0)
(0.0436326 -0.000257894 0)
(0.0416785 -0.000218655 0)
(0.0399265 -0.000208684 0)
(0.038508 -0.000138343 0)
(0.0364412 -0.000260507 0)
)
;

boundaryField
{
    upperWall
    {
        type            noSlip;
    }
    lowerWall
    {
        type            noSlip;
    }
    inlet
    {
        type            turbulentInlet;
        fluctuationScale (0.01 0.01 0.01);
        referenceField  uniform (0.1 0.1 0);
        alpha           0.1;
        value           nonuniform List<vector> 
20
(
(0.0983833 0.0984064 0.00289886)
(0.0995378 0.099369 -0.00144034)
(0.0996959 0.0986152 0.00336386)
(0.101178 0.10106 0.00261989)
(0.101115 0.0985607 0.00162664)
(0.0979561 0.0995821 0.000971184)
(0.100331 0.100321 -0.000601047)
(0.0966464 0.099698 -0.000729092)
(0.102875 0.0987534 0.000132277)
(0.100282 0.0992351 0.000691222)
(0.0982463 0.101232 0.00140135)
(0.0980864 0.0984257 0.00127749)
(0.102905 0.101269 0.000337928)
(0.101561 0.10203 0.000715801)
(0.0996214 0.101083 0.00142152)
(0.0997728 0.10123 7.37011e-05)
(0.0993817 0.0986275 0.00102958)
(0.10078 0.100656 -0.000228047)
(0.102802 0.101018 -0.00243125)
(0.098965 0.0996709 -0.00175772)
)
;
    }
    outlet
    {
        type            pressureInletOutletVelocity;
        value           nonuniform List<vector> 
20
(
(0.00205016 -0.000110771 0)
(0.00804699 -0.000799398 0)
(0.0164148 -0.00170068 0)
(0.0273261 -0.00270066 0)
(0.0406025 -0.0037257 0)
(0.0557856 -0.00471156 0)
(0.0721978 -0.00560874 0)
(0.0890459 -0.00639546 0)
(0.105594 -0.00708953 0)
(0.12136 -0.00774404 0)
(0.136236 -0.00842682 0)
(0.150421 -0.00918034 0)
(0.164086 -0.00997448 0)
(0.176742 -0.0106578 0)
(0.186386 -0.010913 0)
(0.188836 -0.010291 0)
(0.178142 -0.00843525 0)
(0.149003 -0.00546786 0)
(0.100415 -0.00234818 0)
(0.0364412 -0.000260507 0)
)
;
    }
    frontAndBack
    {
        type            empty;
    }
}


// ************************************************************************* //
