/*--------------------------------*- C++ -*----------------------------------*\
  =========                 |
  \\      /  F ield         | OpenFOAM: The Open Source CFD Toolbox
   \\    /   O peration     | Website:  https://openfoam.org
    \\  /    A nd           | Version:  7
     \\/     M anipulation  |
\*---------------------------------------------------------------------------*/
FoamFile
{
    version     2.0;
    format      ascii;
    class       volVectorField;
    location    "0.29";
    object      UMean;
}
// * * * * * * * * * * * * * * * * * * * * * * * * * * * * * * * * * * * * * //

dimensions      [0 1 -1 0 0 0 0];

internalField   nonuniform List<vector> 
400
(
(0.0648719 0.0512536 0)
(0.0214969 0.0117408 0)
(0.00995623 0.00185316 0)
(0.0039178 -0.000149827 0)
(0.00190448 -0.000424965 0)
(0.00118656 -0.000376959 0)
(0.00114509 -0.000285001 0)
(0.00140376 -0.000211429 0)
(0.0018234 -0.00015754 0)
(0.00233541 -0.000124803 0)
(0.00290109 -0.000104311 0)
(0.00350087 -8.99929e-05 0)
(0.00411942 -7.9437e-05 0)
(0.00474409 -7.1103e-05 0)
(0.00536445 -6.41283e-05 0)
(0.00597241 -5.87541e-05 0)
(0.00655441 -5.41328e-05 0)
(0.00715091 -5.53722e-05 0)
(0.00758906 -6.54673e-05 0)
(0.00852458 -0.000106753 0)
(0.0932503 0.0727881 0)
(0.0637637 0.039557 0)
(0.0410202 0.0187461 0)
(0.0259024 0.00840208 0)
(0.0173819 0.003523 0)
(0.0127034 0.00128364 0)
(0.0103766 0.000202889 0)
(0.00944945 -0.000356354 0)
(0.00937702 -0.000667499 0)
(0.00984314 -0.000855203 0)
(0.0106612 -0.000971295 0)
(0.0117085 -0.00104287 0)
(0.0129014 -0.00108039 0)
(0.0141809 -0.00109142 0)
(0.0155028 -0.00108105 0)
(0.0168321 -0.00105385 0)
(0.0181375 -0.00101512 0)
(0.0194143 -0.00096932 0)
(0.0204731 -0.000968417 0)
(0.0221951 -0.000934052 0)
(0.0994007 0.0879569 0)
(0.0845984 0.0618523 0)
(0.0659599 0.039076 0)
(0.0494174 0.0230569 0)
(0.0373311 0.0128474 0)
(0.0292702 0.00672474 0)
(0.0243068 0.00309935 0)
(0.0215283 0.000919274 0)
(0.0202456 -0.000431664 0)
(0.019981 -0.0012931 0)
(0.02041 -0.00185272 0)
(0.0213155 -0.00221523 0)
(0.0225448 -0.00244238 0)
(0.0239851 -0.00256713 0)
(0.0255545 -0.00261232 0)
(0.0271902 -0.00259381 0)
(0.0288359 -0.00252286 0)
(0.0304637 -0.00241413 0)
(0.0318553 -0.00228495 0)
(0.0339654 -0.00209 0)
(0.100251 0.0929419 0)
(0.0940209 0.0740864 0)
(0.0823113 0.0540867 0)
(0.0691402 0.0368837 0)
(0.0573059 0.0237229 0)
(0.0479446 0.0143996 0)
(0.0412063 0.00806679 0)
(0.0367416 0.00383582 0)
(0.034064 0.00100777 0)
(0.0327256 -0.000897979 0)
(0.0323685 -0.00219114 0)
(0.0327181 -0.00306364 0)
(0.033572 -0.0036406 0)
(0.03478 -0.00399958 0)
(0.0362246 -0.00418938 0)
(0.0378182 -0.00424425 0)
(0.0394821 -0.00418678 0)
(0.0411791 -0.00403612 0)
(0.0426689 -0.00379809 0)
(0.0449544 -0.00340902 0)
(0.100165 0.0942436 0)
(0.0982144 0.0800186 0)
(0.0920751 0.063685 0)
(0.0834591 0.0477195 0)
(0.0741943 0.0338238 0)
(0.0656854 0.022694 0)
(0.0586977 0.0142629 0)
(0.0534434 0.0080912 0)
(0.0498051 0.00365666 0)
(0.0475293 0.000499031 0)
(0.0463401 -0.00173674 0)
(0.0459876 -0.00330653 0)
(0.0462643 -0.00438554 0)
(0.047006 -0.00510125 0)
(0.0480815 -0.00553457 0)
(0.0493875 -0.00574261 0)
(0.0508317 -0.00576415 0)
(0.0523796 -0.00562609 0)
(0.0537735 -0.00533618 0)
(0.0560486 -0.00478849 0)
(0.099931 0.0944902 0)
(0.0999176 0.0824022 0)
(0.0973992 0.0687951 0)
(0.0927993 0.0547003 0)
(0.0868556 0.0413979 0)
(0.0805498 0.0297886 0)
(0.074701 0.0202401 0)
(0.0697911 0.0127128 0)
(0.0659973 0.00694959 0)
(0.063298 0.00262416 0)
(0.0615702 -0.000573958 0)
(0.0606541 -0.00290462 0)
(0.0603853 -0.00456958 0)
(0.0606234 -0.00571976 0)
(0.061248 -0.00647057 0)
(0.0621577 -0.00690102 0)
(0.0632571 -0.0070669 0)
(0.0645239 -0.0070065 0)
(0.0656908 -0.00674524 0)
(0.0677964 -0.00612286 0)
(0.0998565 0.0942259 0)
(0.100612 0.0828224 0)
(0.100156 0.0707641 0)
(0.0984674 0.0582667 0)
(0.095556 0.0460252 0)
(0.0918527 0.0347568 0)
(0.0879255 0.0249356 0)
(0.084246 0.0167427 0)
(0.0811092 0.010135 0)
(0.0786477 0.00494271 0)
(0.0768784 0.000947212 0)
(0.0757496 -0.00206897 0)
(0.0751767 -0.00429815 0)
(0.0750642 -0.00589538 0)
(0.0753208 -0.00699017 0)
(0.0758707 -0.00767893 0)
(0.0766281 -0.00803189 0)
(0.0775888 -0.00809815 0)
(0.0784853 -0.00793074 0)
(0.0803196 -0.00733188 0)
(0.0998629 0.0938421 0)
(0.100921 0.0822931 0)
(0.101573 0.070814 0)
(0.101783 0.0592992 0)
(0.101211 0.048012 0)
(0.0998783 0.0373822 0)
(0.0980463 0.0277968 0)
(0.0960318 0.0194892 0)
(0.0941004 0.0125275 0)
(0.0924319 0.00685491 0)
(0.0911232 0.00234169 0)
(0.0902058 -0.00117121 0)
(0.0896674 -0.00384362 0)
(0.08947 -0.00582118 0)
(0.089565 -0.0072259 0)
(0.0899081 -0.00816045 0)
(0.0904342 -0.00870511 0)
(0.0911615 -0.00891522 0)
(0.0918323 -0.00887079 0)
(0.0933719 -0.00837056 0)
(0.0998262 0.0933784 0)
(0.101075 0.0812639 0)
(0.102371 0.0697297 0)
(0.103788 0.0586119 0)
(0.104881 0.0479434 0)
(0.105442 0.0379152 0)
(0.105495 0.028763 0)
(0.105181 0.0206695 0)
(0.104666 0.0137225 0)
(0.104104 0.00791706 0)
(0.103607 0.00318112 0)
(0.10325 -0.000595693 0)
(0.10307 -0.00353792 0)
(0.103074 -0.00576858 0)
(0.103255 -0.00739679 0)
(0.103599 -0.00851957 0)
(0.104064 -0.00921983 0)
(0.104691 -0.00955335 0)
(0.10524 -0.00961855 0)
(0.106533 -0.00923925 0)
(0.0998029 0.0927989 0)
(0.101222 0.0798783 0)
(0.102981 0.0679125 0)
(0.105233 0.0567656 0)
(0.107514 0.0463748 0)
(0.109511 0.0367747 0)
(0.111107 0.0280585 0)
(0.112302 0.0203186 0)
(0.113163 0.0136058 0)
(0.113782 0.00791681 0)
(0.114254 0.00320126 0)
(0.114661 -0.000622838 0)
(0.11506 -0.00365314 0)
(0.115491 -0.00599058 0)
(0.115971 -0.00772927 0)
(0.11651 -0.00895395 0)
(0.117087 -0.00974344 0)
(0.117755 -0.0101473 0)
(0.118304 -0.0102747 0)
(0.119434 -0.00997438 0)
(0.0998336 0.0921859 0)
(0.101468 0.0781877 0)
(0.103681 0.0655189 0)
(0.106638 0.0540556 0)
(0.109859 0.0436844 0)
(0.112985 0.034335 0)
(0.115821 0.0259841 0)
(0.118281 0.0186283 0)
(0.120356 0.0122567 0)
(0.122084 0.00683626 0)
(0.123529 0.00231102 0)
(0.124762 -0.00139236 0)
(0.125843 -0.00435667 0)
(0.126823 -0.00666462 0)
(0.127734 -0.0083979 0)
(0.128599 -0.00962633 0)
(0.129412 -0.0104222 0)
(0.130226 -0.0108203 0)
(0.130865 -0.0109433 0)
(0.1319 -0.0106213 0)
(0.100021 0.091433 0)
(0.101943 0.0761398 0)
(0.1047 0.0625523 0)
(0.108402 0.05058 0)
(0.112513 0.0400621 0)
(0.11663 0.0308391 0)
(0.120522 0.0227868 0)
(0.124057 0.01581 0)
(0.12718 0.00982774 0)
(0.129893 0.00476292 0)
(0.132235 0.000537945 0)
(0.13426 -0.00292518 0)
(0.136024 -0.00570309 0)
(0.137577 -0.00786762 0)
(0.138954 -0.00948971 0)
(0.140181 -0.0106236 0)
(0.141266 -0.0113371 0)
(0.142245 -0.011639 0)
(0.142999 -0.0116842 0)
(0.143924 -0.011198 0)
(0.0999692 0.0904385 0)
(0.10249 0.0735323 0)
(0.106106 0.0588374 0)
(0.110801 0.0462449 0)
(0.115941 0.0355087 0)
(0.121088 0.026367 0)
(0.125996 0.0185953 0)
(0.130518 0.0120086 0)
(0.134581 0.00645398 0)
(0.13817 0.00180701 0)
(0.141306 -0.00203766 0)
(0.144032 -0.00516702 0)
(0.146396 -0.00765821 0)
(0.148439 -0.00957808 0)
(0.150198 -0.0109882 0)
(0.151694 -0.0119282 0)
(0.152958 -0.0124662 0)
(0.153984 -0.0125731 0)
(0.15477 -0.0124668 0)
(0.155421 -0.0116598 0)
(0.100005 0.088879 0)
(0.103334 0.0699933 0)
(0.108184 0.0540401 0)
(0.114232 0.0407983 0)
(0.120671 0.0298662 0)
(0.127021 0.0208497 0)
(0.133028 0.0134136 0)
(0.138543 0.00727975 0)
(0.143489 0.00222264 0)
(0.147846 -0.00192857 0)
(0.15163 -0.00530026 0)
(0.154875 -0.00799324 0)
(0.157622 -0.0100892 0)
(0.159907 -0.0116506 0)
(0.161777 -0.0127344 0)
(0.16325 -0.0133694 0)
(0.164399 -0.0136297 0)
(0.165158 -0.0134431 0)
(0.165736 -0.013116 0)
(0.165744 -0.0118655 0)
(0.100101 0.0868419 0)
(0.104747 0.0651529 0)
(0.111433 0.0477105 0)
(0.119352 0.0338292 0)
(0.127487 0.0228016 0)
(0.13531 0.0140463 0)
(0.142551 0.00709694 0)
(0.149051 0.0015707 0)
(0.154739 -0.00282605 0)
(0.159609 -0.00631146 0)
(0.163683 -0.00904202 0)
(0.166998 -0.0111332 0)
(0.169611 -0.0126708 0)
(0.171578 -0.0137173 0)
(0.172979 -0.01433 0)
(0.173844 -0.0145352 0)
(0.17432 -0.0144131 0)
(0.174268 -0.013861 0)
(0.174219 -0.0132616 0)
(0.173046 -0.0115545 0)
(0.100406 0.0837856 0)
(0.10742 0.0586645 0)
(0.11693 0.039653 0)
(0.127413 0.0252273 0)
(0.137684 0.0142969 0)
(0.147157 0.00603666 0)
(0.155521 -0.000163676 0)
(0.162626 -0.00480546 0)
(0.168441 -0.0082645 0)
(0.173007 -0.0108109 0)
(0.176416 -0.0126404 0)
(0.178782 -0.0138891 0)
(0.18023 -0.014655 0)
(0.180878 -0.0150097 0)
(0.180866 -0.0150136 0)
(0.180267 -0.0146981 0)
(0.179317 -0.0141374 0)
(0.177815 -0.0132342 0)
(0.176644 -0.0123688 0)
(0.173818 -0.0103953 0)
(0.101174 0.0776061 0)
(0.112888 0.0473897 0)
(0.12671 0.0268009 0)
(0.140362 0.0124949 0)
(0.152628 0.0026236 0)
(0.162985 -0.00402477 0)
(0.1712 -0.00844447 0)
(0.177264 -0.0113461 0)
(0.181364 -0.0131919 0)
(0.183762 -0.0142838 0)
(0.184732 -0.0148274 0)
(0.184532 -0.0149646 0)
(0.183401 -0.0147915 0)
(0.181544 -0.014374 0)
(0.179165 -0.01376 0)
(0.176383 -0.0129794 0)
(0.173471 -0.0120755 0)
(0.170216 -0.010997 0)
(0.167683 -0.00999693 0)
(0.163254 -0.00818617 0)
(0.102279 0.0712403 0)
(0.12352 0.0367755 0)
(0.14305 0.0148858 0)
(0.15876 0.000782438 0)
(0.170392 -0.00759811 0)
(0.17802 -0.0120184 0)
(0.1821 -0.0140429 0)
(0.183388 -0.0147184 0)
(0.182609 -0.0146365 0)
(0.180331 -0.0141337 0)
(0.177 -0.0134088 0)
(0.172963 -0.0125755 0)
(0.168496 -0.0116935 0)
(0.163807 -0.0107923 0)
(0.15907 -0.00988314 0)
(0.154382 -0.0089746 0)
(0.149942 -0.00806499 0)
(0.145558 -0.00715688 0)
(0.142144 -0.00630863 0)
(0.137064 -0.00516132 0)
(0.106728 0.0402584 0)
(0.140129 0.0043093 0)
(0.158057 -0.0101136 0)
(0.166382 -0.016155 0)
(0.169017 -0.0174556 0)
(0.167435 -0.0164159 0)
(0.162965 -0.0144988 0)
(0.15692 -0.0124124 0)
(0.150239 -0.0104919 0)
(0.143439 -0.00887058 0)
(0.136788 -0.00755797 0)
(0.130438 -0.00650697 0)
(0.124472 -0.00565562 0)
(0.118927 -0.00494846 0)
(0.113826 -0.00434016 0)
(0.109158 -0.00380561 0)
(0.104973 -0.00331664 0)
(0.101123 -0.00290118 0)
(0.098108 -0.00250159 0)
(0.0939346 -0.00219814 0)
(0.107628 0.0324843 0)
(0.142046 -0.00321296 0)
(0.13055 -0.00984273 0)
(0.114987 -0.00938283 0)
(0.101628 -0.00710869 0)
(0.0900066 -0.00485585 0)
(0.080213 -0.00320126 0)
(0.0722724 -0.00208688 0)
(0.0658679 -0.0013676 0)
(0.0606382 -0.000925719 0)
(0.0562948 -0.000661377 0)
(0.0526239 -0.000500817 0)
(0.0494729 -0.000397577 0)
(0.0467367 -0.000325824 0)
(0.0443465 -0.000270818 0)
(0.0422507 -0.000228368 0)
(0.0404273 -0.000191541 0)
(0.0388117 -0.00018521 0)
(0.0375252 -0.000124454 0)
(0.0355972 -0.000253312 0)
)
;

boundaryField
{
    upperWall
    {
        type            calculated;
        value           uniform (0 0 0);
    }
    lowerWall
    {
        type            calculated;
        value           uniform (0 0 0);
    }
    inlet
    {
        type            calculated;
        value           nonuniform List<vector> 
20
(
(0.0999308 0.0998647 -3.06205e-05)
(0.0999733 0.0998381 0.000100278)
(0.100037 0.0998687 1.08911e-05)
(0.100107 0.0998632 4.90519e-05)
(0.100077 0.0998031 0.000173707)
(0.0999315 0.0999251 -4.99912e-05)
(0.0999767 0.0998642 -2.57339e-06)
(0.100025 0.0998487 -5.05564e-05)
(0.0999783 0.09983 -5.51105e-06)
(0.0999537 0.099783 -6.88547e-05)
(0.0999864 0.0998742 -3.72003e-05)
(0.100185 0.0999067 9.14704e-05)
(0.0999772 0.0999487 4.7371e-05)
(0.0999794 0.0997115 -0.000111494)
(0.0999401 0.0998576 -0.000170514)
(0.100027 0.0998278 -8.35613e-06)
(0.0998386 0.0996797 8.72421e-06)
(0.0999941 0.0997863 6.92075e-05)
(0.0998961 0.0997918 -2.98528e-05)
(0.0999641 0.0997108 -2.90935e-05)
)
;
    }
    outlet
    {
        type            calculated;
        value           nonuniform List<vector> 
20
(
(0.00852458 -0.000106753 0)
(0.0221951 -0.000934052 0)
(0.0339654 -0.00209 0)
(0.0449544 -0.00340902 0)
(0.0560486 -0.00478849 0)
(0.0677964 -0.00612286 0)
(0.0803196 -0.00733188 0)
(0.0933719 -0.00837056 0)
(0.106533 -0.00923925 0)
(0.119434 -0.00997438 0)
(0.1319 -0.0106213 0)
(0.143924 -0.011198 0)
(0.155421 -0.0116598 0)
(0.165744 -0.0118655 0)
(0.173046 -0.0115545 0)
(0.173818 -0.0103953 0)
(0.163254 -0.00818617 0)
(0.137064 -0.00516132 0)
(0.0939346 -0.00219814 0)
(0.0355972 -0.000253312 0)
)
;
    }
    frontAndBack
    {
        type            empty;
    }
}


// ************************************************************************* //
