/*--------------------------------*- C++ -*----------------------------------*\
  =========                 |
  \\      /  F ield         | OpenFOAM: The Open Source CFD Toolbox
   \\    /   O peration     | Website:  https://openfoam.org
    \\  /    A nd           | Version:  7
     \\/     M anipulation  |
\*---------------------------------------------------------------------------*/
FoamFile
{
    version     2.0;
    format      ascii;
    class       volScalarField;
    location    "1.2";
    object      rho;
}
// * * * * * * * * * * * * * * * * * * * * * * * * * * * * * * * * * * * * * //

dimensions      [1 -3 0 0 0 0 0];

internalField   nonuniform List<scalar> 
2640
(
1.32852
1.3191
1.3158
1.31427
1.31344
1.3129
1.31252
1.31223
1.31198
1.31177
1.31158
1.31141
1.31125
1.3111
1.31096
1.31082
1.3107
1.31053
1.31041
1.30895
1.36126
1.34
1.32902
1.3239
1.32115
1.31945
1.31829
1.31744
1.31676
1.3162
1.31571
1.3153
1.31491
1.31457
1.31424
1.31393
1.31368
1.31326
1.31316
1.30897
1.39328
1.37568
1.35491
1.34351
1.3371
1.33311
1.33037
1.32837
1.32678
1.32551
1.32439
1.32347
1.32259
1.32186
1.32113
1.32047
1.31995
1.319
1.31939
1.3111
1.41405
1.41842
1.3989
1.3811
1.3691
1.36111
1.35542
1.3512
1.34778
1.34506
1.34262
1.34066
1.33871
1.33718
1.33556
1.33421
1.33307
1.3311
1.33241
1.32094
1.42434
1.44708
1.44341
1.43233
1.42072
1.41047
1.40169
1.39456
1.38836
1.38334
1.3786
1.37485
1.37088
1.36796
1.36446
1.36204
1.35911
1.35651
1.35521
1.34771
1.42837
1.45931
1.46514
1.46309
1.45834
1.45278
1.44661
1.44075
1.4346
1.42926
1.42336
1.41882
1.41305
1.40954
1.40351
1.40145
1.39441
1.39477
1.38525
1.3856
1.42837
1.45931
1.46514
1.46308
1.45834
1.45277
1.44662
1.44074
1.43461
1.42925
1.42339
1.41879
1.4131
1.40947
1.40362
1.40131
1.39463
1.39449
1.38567
1.3851
1.42434
1.44708
1.44341
1.43233
1.42072
1.41047
1.4017
1.39455
1.38837
1.38332
1.37862
1.37482
1.37093
1.36788
1.36459
1.36184
1.35945
1.35601
1.35609
1.34643
1.41406
1.41842
1.3989
1.3811
1.3691
1.36111
1.35542
1.35119
1.34779
1.34506
1.34263
1.34065
1.33874
1.33715
1.33562
1.33412
1.33323
1.33084
1.33295
1.31985
1.39328
1.37568
1.35491
1.34351
1.3371
1.33311
1.33037
1.32837
1.32678
1.32551
1.3244
1.32347
1.3226
1.32185
1.32115
1.32044
1.32001
1.3189
1.31959
1.31092
1.36126
1.34
1.32902
1.3239
1.32115
1.31945
1.31829
1.31744
1.31676
1.3162
1.31571
1.3153
1.31491
1.31456
1.31424
1.31392
1.3137
1.31322
1.31324
1.30936
1.32852
1.3191
1.3158
1.31427
1.31344
1.3129
1.31252
1.31223
1.31198
1.31177
1.31158
1.31141
1.31125
1.3111
1.31096
1.31082
1.3107
1.31052
1.31043
1.30931
1.32852
1.3191
1.3158
1.31427
1.31344
1.3129
1.31252
1.31223
1.31198
1.31177
1.31158
1.31141
1.31125
1.3111
1.31096
1.31082
1.3107
1.31053
1.31041
1.30895
1.36126
1.34
1.32902
1.3239
1.32115
1.31945
1.31829
1.31744
1.31676
1.3162
1.31571
1.3153
1.31491
1.31457
1.31424
1.31393
1.31368
1.31326
1.31316
1.30897
1.39328
1.37568
1.35491
1.34351
1.3371
1.33311
1.33037
1.32837
1.32678
1.32551
1.32439
1.32347
1.32259
1.32186
1.32113
1.32047
1.31996
1.319
1.31939
1.3111
1.41406
1.41842
1.3989
1.3811
1.3691
1.36111
1.35542
1.3512
1.34778
1.34506
1.34262
1.34066
1.33872
1.33718
1.33556
1.33421
1.33307
1.3311
1.33242
1.32094
1.42434
1.44708
1.44341
1.43233
1.42072
1.41047
1.40169
1.39455
1.38836
1.38334
1.3786
1.37485
1.37088
1.36796
1.36446
1.36204
1.35911
1.35651
1.35521
1.34771
1.42837
1.45931
1.46514
1.46308
1.45834
1.45278
1.44661
1.44075
1.4346
1.42926
1.42336
1.41882
1.41305
1.40954
1.40351
1.40145
1.39441
1.39477
1.38525
1.3856
1.42837
1.45931
1.46514
1.46308
1.45834
1.45277
1.44662
1.44074
1.43461
1.42924
1.42339
1.41879
1.4131
1.40946
1.40362
1.40131
1.39463
1.39449
1.38567
1.3851
1.42434
1.44708
1.44341
1.43233
1.42072
1.41047
1.4017
1.39455
1.38837
1.38332
1.37862
1.37481
1.37093
1.36788
1.36459
1.36184
1.35945
1.35601
1.35609
1.34643
1.41406
1.41842
1.3989
1.3811
1.3691
1.36111
1.35542
1.35119
1.34779
1.34506
1.34263
1.34065
1.33874
1.33715
1.33562
1.33412
1.33323
1.33083
1.33295
1.31985
1.39328
1.37568
1.35491
1.34351
1.3371
1.33311
1.33037
1.32837
1.32678
1.32551
1.3244
1.32347
1.3226
1.32184
1.32115
1.32044
1.32001
1.3189
1.31959
1.31092
1.36126
1.34
1.32902
1.3239
1.32115
1.31945
1.31829
1.31744
1.31676
1.3162
1.31571
1.3153
1.31491
1.31456
1.31425
1.31392
1.3137
1.31322
1.31324
1.30936
1.32852
1.3191
1.3158
1.31427
1.31344
1.3129
1.31252
1.31223
1.31198
1.31177
1.31158
1.31141
1.31125
1.3111
1.31096
1.31082
1.3107
1.31052
1.31043
1.30931
1.29054
1.28936
1.28654
1.28334
1.28054
1.27807
1.27592
1.27401
1.27231
1.27076
1.26935
1.26803
1.2668
1.26564
1.26453
1.26346
1.26242
1.26141
1.26042
1.25944
1.25847
1.25751
1.25656
1.25562
1.25469
1.25377
1.25285
1.25194
1.25104
1.25014
1.24924
1.24834
1.24745
1.24655
1.24566
1.24476
1.24387
1.24298
1.24208
1.24119
1.24029
1.2394
1.23851
1.23761
1.23672
1.23583
1.23493
1.23404
1.23315
1.23225
1.23136
1.23047
1.22957
1.22868
1.22779
1.22689
1.226
1.22511
1.22421
1.22332
1.22243
1.22153
1.22064
1.21975
1.21885
1.21796
1.21707
1.21618
1.21528
1.21439
1.2135
1.2126
1.21171
1.21082
1.20993
1.20903
1.20814
1.20725
1.20636
1.20546
1.20457
1.20368
1.20278
1.2019
1.20099
1.20012
1.19919
1.19838
1.19731
1.19598
1.29146
1.29036
1.28752
1.28431
1.28151
1.27904
1.27688
1.27498
1.27327
1.27173
1.27031
1.269
1.26777
1.2666
1.26549
1.26442
1.26339
1.26237
1.26138
1.2604
1.25943
1.25847
1.25752
1.25658
1.25565
1.25473
1.25381
1.2529
1.252
1.2511
1.2502
1.2493
1.24841
1.24751
1.24662
1.24573
1.24483
1.24394
1.24304
1.24215
1.24126
1.24036
1.23947
1.23858
1.23768
1.23679
1.23589
1.235
1.23411
1.23321
1.23232
1.23143
1.23053
1.22964
1.22875
1.22785
1.22696
1.22607
1.22517
1.22428
1.22339
1.22249
1.2216
1.22071
1.21982
1.21892
1.21803
1.21714
1.21624
1.21535
1.21446
1.21357
1.21267
1.21178
1.21089
1.20999
1.2091
1.20821
1.20732
1.20642
1.20553
1.20464
1.20375
1.20286
1.20196
1.20108
1.20015
1.19935
1.19827
1.19693
1.29327
1.29193
1.28898
1.28575
1.28296
1.28049
1.27834
1.27644
1.27474
1.27319
1.27178
1.27047
1.26924
1.26808
1.26697
1.2659
1.26486
1.26385
1.26286
1.26188
1.26091
1.25995
1.259
1.25806
1.25713
1.25621
1.25529
1.25438
1.25348
1.25258
1.25168
1.25078
1.24989
1.24899
1.2481
1.2472
1.24631
1.24541
1.24452
1.24363
1.24273
1.24184
1.24095
1.24005
1.23916
1.23826
1.23737
1.23648
1.23558
1.23469
1.2338
1.2329
1.23201
1.23112
1.23022
1.22933
1.22844
1.22754
1.22665
1.22576
1.22486
1.22397
1.22308
1.22218
1.22129
1.2204
1.2195
1.21861
1.21772
1.21683
1.21593
1.21504
1.21415
1.21325
1.21236
1.21147
1.21058
1.20968
1.20879
1.2079
1.207
1.20611
1.20522
1.20433
1.20343
1.20256
1.20162
1.20082
1.19974
1.19839
1.29763
1.29438
1.29111
1.28785
1.28508
1.28263
1.2805
1.27862
1.27693
1.2754
1.27399
1.27269
1.27146
1.2703
1.2692
1.26813
1.2671
1.26609
1.2651
1.26412
1.26315
1.2622
1.26125
1.26031
1.25938
1.25846
1.25754
1.25663
1.25573
1.25483
1.25393
1.25303
1.25213
1.25124
1.25034
1.24945
1.24856
1.24766
1.24677
1.24587
1.24498
1.24409
1.24319
1.2423
1.2414
1.24051
1.23962
1.23872
1.23783
1.23694
1.23604
1.23515
1.23426
1.23336
1.23247
1.23157
1.23068
1.22979
1.22889
1.228
1.22711
1.22621
1.22532
1.22443
1.22353
1.22264
1.22175
1.22086
1.21996
1.21907
1.21818
1.21728
1.21639
1.2155
1.2146
1.21371
1.21282
1.21193
1.21103
1.21014
1.20925
1.20835
1.20746
1.20657
1.20567
1.2048
1.20385
1.20307
1.20196
1.2006
1.30726
1.29805
1.29402
1.29075
1.28805
1.28568
1.28361
1.28177
1.28012
1.27862
1.27724
1.27596
1.27475
1.2736
1.27251
1.27145
1.27042
1.26942
1.26843
1.26746
1.2665
1.26554
1.2646
1.26366
1.26273
1.26181
1.2609
1.25999
1.25908
1.25818
1.25728
1.25639
1.25549
1.25459
1.2537
1.25281
1.25191
1.25102
1.25012
1.24923
1.24833
1.24744
1.24655
1.24565
1.24476
1.24386
1.24297
1.24208
1.24118
1.24029
1.23939
1.2385
1.23761
1.23671
1.23582
1.23493
1.23403
1.23314
1.23224
1.23135
1.23046
1.22956
1.22867
1.22778
1.22688
1.22599
1.2251
1.2242
1.22331
1.22242
1.22152
1.22063
1.21974
1.21884
1.21795
1.21706
1.21616
1.21527
1.21438
1.21348
1.21259
1.2117
1.2108
1.20992
1.20901
1.20814
1.20719
1.20643
1.20526
1.20388
1.32152
1.30289
1.2978
1.29462
1.29211
1.28993
1.28801
1.28629
1.28474
1.28332
1.282
1.28077
1.2796
1.27849
1.27742
1.27638
1.27537
1.27439
1.27341
1.27245
1.2715
1.27055
1.26961
1.26868
1.26776
1.26684
1.26592
1.26502
1.26411
1.26321
1.26231
1.26142
1.26052
1.25962
1.25873
1.25784
1.25694
1.25605
1.25515
1.25426
1.25336
1.25247
1.25157
1.25068
1.24978
1.24889
1.248
1.2471
1.24621
1.24531
1.24442
1.24353
1.24263
1.24174
1.24084
1.23995
1.23905
1.23816
1.23727
1.23637
1.23548
1.23459
1.23369
1.2328
1.2319
1.23101
1.23012
1.22922
1.22833
1.22743
1.22654
1.22565
1.22475
1.22386
1.22297
1.22207
1.22118
1.22029
1.21939
1.2185
1.21761
1.21671
1.21582
1.21493
1.21402
1.21316
1.2122
1.21145
1.21021
1.20886
1.32346
1.30615
1.30155
1.29879
1.29667
1.29481
1.29315
1.29165
1.29027
1.28898
1.28777
1.28663
1.28553
1.28447
1.28345
1.28245
1.28147
1.2805
1.27955
1.27861
1.27767
1.27673
1.27581
1.27488
1.27397
1.27305
1.27214
1.27124
1.27034
1.26944
1.26854
1.26764
1.26675
1.26585
1.26495
1.26406
1.26316
1.26227
1.26137
1.26048
1.25958
1.25869
1.25779
1.2569
1.256
1.25511
1.25421
1.25332
1.25243
1.25153
1.25064
1.24974
1.24885
1.24795
1.24706
1.24616
1.24527
1.24437
1.24348
1.24258
1.24169
1.2408
1.2399
1.23901
1.23811
1.23722
1.23632
1.23543
1.23453
1.23364
1.23275
1.23185
1.23096
1.23006
1.22917
1.22827
1.22738
1.22649
1.22559
1.2247
1.2238
1.22291
1.22201
1.22112
1.22022
1.21935
1.2184
1.21764
1.2164
1.21514
1.31337
1.30683
1.30392
1.30174
1.30003
1.29848
1.29708
1.29578
1.29457
1.29341
1.29231
1.29124
1.29021
1.28921
1.28823
1.28726
1.28631
1.28537
1.28444
1.28351
1.28258
1.28166
1.28075
1.27983
1.27892
1.27801
1.27711
1.27621
1.27531
1.27441
1.27351
1.27261
1.27172
1.27082
1.26992
1.26903
1.26813
1.26724
1.26634
1.26545
1.26455
1.26366
1.26276
1.26187
1.26097
1.26008
1.25918
1.25828
1.25739
1.25649
1.2556
1.2547
1.25381
1.25291
1.25202
1.25112
1.25023
1.24933
1.24844
1.24754
1.24665
1.24575
1.24486
1.24396
1.24307
1.24217
1.24128
1.24038
1.23949
1.23859
1.2377
1.23681
1.23591
1.23502
1.23412
1.23323
1.23233
1.23144
1.23054
1.22965
1.22875
1.22786
1.22696
1.22607
1.22517
1.22429
1.22336
1.22256
1.22141
1.22028
1.30776
1.30714
1.30533
1.30362
1.30222
1.30092
1.29971
1.29856
1.29747
1.29641
1.29539
1.29439
1.29341
1.29245
1.2915
1.29056
1.28963
1.2887
1.28778
1.28687
1.28595
1.28504
1.28413
1.28323
1.28232
1.28142
1.28052
1.27962
1.27872
1.27782
1.27692
1.27603
1.27513
1.27423
1.27334
1.27244
1.27155
1.27065
1.26975
1.26886
1.26796
1.26707
1.26617
1.26528
1.26438
1.26349
1.26259
1.26169
1.2608
1.2599
1.25901
1.25811
1.25722
1.25632
1.25543
1.25453
1.25364
1.25274
1.25184
1.25095
1.25005
1.24916
1.24826
1.24737
1.24647
1.24558
1.24468
1.24379
1.24289
1.242
1.2411
1.24021
1.23931
1.23842
1.23752
1.23663
1.23573
1.23484
1.23394
1.23305
1.23215
1.23126
1.23036
1.22947
1.22857
1.22768
1.22676
1.22593
1.22488
1.22384
1.30685
1.30749
1.30621
1.30485
1.30367
1.30255
1.30148
1.30044
1.29943
1.29845
1.29748
1.29653
1.29558
1.29465
1.29372
1.2928
1.29189
1.29097
1.29006
1.28916
1.28825
1.28735
1.28644
1.28554
1.28464
1.28374
1.28284
1.28194
1.28104
1.28015
1.27925
1.27835
1.27746
1.27656
1.27566
1.27477
1.27387
1.27298
1.27208
1.27119
1.27029
1.26939
1.2685
1.2676
1.26671
1.26581
1.26492
1.26402
1.26312
1.26223
1.26133
1.26044
1.25954
1.25865
1.25775
1.25685
1.25596
1.25506
1.25417
1.25327
1.25238
1.25148
1.25059
1.24969
1.2488
1.2479
1.247
1.24611
1.24521
1.24432
1.24342
1.24253
1.24163
1.24074
1.23984
1.23895
1.23805
1.23716
1.23626
1.23536
1.23447
1.23357
1.23268
1.23178
1.23089
1.23
1.22909
1.22823
1.22725
1.22627
1.3077
1.30781
1.30679
1.30565
1.30463
1.30362
1.30264
1.30168
1.30073
1.29979
1.29886
1.29794
1.29702
1.2961
1.29519
1.29429
1.29338
1.29248
1.29157
1.29067
1.28977
1.28887
1.28797
1.28707
1.28617
1.28528
1.28438
1.28348
1.28258
1.28169
1.28079
1.27989
1.279
1.2781
1.27721
1.27631
1.27541
1.27452
1.27362
1.27273
1.27183
1.27093
1.27004
1.26914
1.26825
1.26735
1.26645
1.26556
1.26466
1.26377
1.26287
1.26198
1.26108
1.26018
1.25929
1.25839
1.2575
1.2566
1.25571
1.25481
1.25392
1.25302
1.25212
1.25123
1.25033
1.24944
1.24854
1.24765
1.24675
1.24585
1.24496
1.24406
1.24317
1.24227
1.24138
1.24048
1.23959
1.23869
1.2378
1.2369
1.236
1.23511
1.23421
1.23332
1.23242
1.23153
1.23063
1.22975
1.22881
1.22788
1.30869
1.30804
1.30716
1.30618
1.30525
1.30432
1.30341
1.30249
1.30158
1.30067
1.29976
1.29886
1.29796
1.29706
1.29616
1.29526
1.29436
1.29346
1.29256
1.29166
1.29077
1.28987
1.28897
1.28807
1.28718
1.28628
1.28538
1.28449
1.28359
1.28269
1.2818
1.2809
1.28001
1.27911
1.27821
1.27732
1.27642
1.27553
1.27463
1.27373
1.27284
1.27194
1.27105
1.27015
1.26925
1.26836
1.26746
1.26657
1.26567
1.26477
1.26388
1.26298
1.26209
1.26119
1.2603
1.2594
1.2585
1.25761
1.25671
1.25582
1.25492
1.25403
1.25313
1.25223
1.25134
1.25044
1.24955
1.24865
1.24776
1.24686
1.24596
1.24507
1.24417
1.24328
1.24238
1.24149
1.24059
1.23969
1.2388
1.2379
1.23701
1.23611
1.23522
1.23432
1.23343
1.23253
1.23163
1.23074
1.22983
1.22893
1.29054
1.28936
1.28654
1.28334
1.28054
1.27807
1.27592
1.27401
1.27231
1.27076
1.26935
1.26803
1.2668
1.26564
1.26453
1.26346
1.26242
1.26141
1.26042
1.25944
1.25847
1.25751
1.25656
1.25562
1.25469
1.25377
1.25285
1.25194
1.25104
1.25014
1.24924
1.24834
1.24745
1.24655
1.24566
1.24476
1.24387
1.24298
1.24208
1.24119
1.24029
1.2394
1.23851
1.23761
1.23672
1.23583
1.23493
1.23404
1.23315
1.23225
1.23136
1.23047
1.22957
1.22868
1.22779
1.22689
1.226
1.22511
1.22421
1.22332
1.22243
1.22153
1.22064
1.21975
1.21885
1.21796
1.21707
1.21618
1.21528
1.21439
1.2135
1.2126
1.21171
1.21082
1.20993
1.20903
1.20814
1.20725
1.20636
1.20546
1.20457
1.20368
1.20278
1.2019
1.20099
1.20012
1.19919
1.19838
1.19731
1.19598
1.29146
1.29036
1.28752
1.28431
1.28151
1.27904
1.27688
1.27498
1.27327
1.27173
1.27031
1.269
1.26777
1.2666
1.26549
1.26442
1.26339
1.26237
1.26138
1.2604
1.25943
1.25847
1.25752
1.25658
1.25565
1.25473
1.25381
1.2529
1.252
1.2511
1.2502
1.2493
1.24841
1.24751
1.24662
1.24573
1.24483
1.24394
1.24304
1.24215
1.24126
1.24036
1.23947
1.23858
1.23768
1.23679
1.23589
1.235
1.23411
1.23321
1.23232
1.23143
1.23053
1.22964
1.22875
1.22785
1.22696
1.22607
1.22517
1.22428
1.22339
1.22249
1.2216
1.22071
1.21982
1.21892
1.21803
1.21714
1.21624
1.21535
1.21446
1.21357
1.21267
1.21178
1.21089
1.20999
1.2091
1.20821
1.20732
1.20642
1.20553
1.20464
1.20375
1.20286
1.20196
1.20108
1.20015
1.19935
1.19827
1.19693
1.29327
1.29193
1.28898
1.28575
1.28296
1.28049
1.27834
1.27644
1.27474
1.27319
1.27178
1.27047
1.26924
1.26808
1.26697
1.2659
1.26486
1.26385
1.26286
1.26188
1.26091
1.25995
1.259
1.25806
1.25713
1.25621
1.25529
1.25438
1.25348
1.25258
1.25168
1.25078
1.24989
1.24899
1.2481
1.2472
1.24631
1.24541
1.24452
1.24363
1.24273
1.24184
1.24095
1.24005
1.23916
1.23826
1.23737
1.23648
1.23558
1.23469
1.2338
1.2329
1.23201
1.23112
1.23022
1.22933
1.22844
1.22754
1.22665
1.22576
1.22486
1.22397
1.22308
1.22218
1.22129
1.2204
1.2195
1.21861
1.21772
1.21683
1.21593
1.21504
1.21415
1.21325
1.21236
1.21147
1.21058
1.20968
1.20879
1.2079
1.207
1.20611
1.20522
1.20433
1.20343
1.20256
1.20162
1.20082
1.19974
1.19839
1.29763
1.29438
1.29111
1.28785
1.28508
1.28263
1.2805
1.27862
1.27693
1.2754
1.27399
1.27269
1.27146
1.2703
1.2692
1.26813
1.2671
1.26609
1.2651
1.26412
1.26315
1.2622
1.26125
1.26031
1.25938
1.25846
1.25754
1.25663
1.25573
1.25483
1.25393
1.25303
1.25213
1.25124
1.25034
1.24945
1.24856
1.24766
1.24677
1.24587
1.24498
1.24409
1.24319
1.2423
1.2414
1.24051
1.23962
1.23872
1.23783
1.23694
1.23604
1.23515
1.23426
1.23336
1.23247
1.23157
1.23068
1.22979
1.22889
1.228
1.22711
1.22621
1.22532
1.22443
1.22353
1.22264
1.22175
1.22086
1.21996
1.21907
1.21818
1.21728
1.21639
1.2155
1.2146
1.21371
1.21282
1.21193
1.21103
1.21014
1.20925
1.20835
1.20746
1.20657
1.20567
1.2048
1.20385
1.20307
1.20196
1.2006
1.30726
1.29805
1.29402
1.29075
1.28805
1.28568
1.28361
1.28177
1.28012
1.27862
1.27724
1.27596
1.27475
1.2736
1.27251
1.27145
1.27042
1.26942
1.26843
1.26746
1.2665
1.26554
1.2646
1.26366
1.26273
1.26181
1.2609
1.25999
1.25908
1.25818
1.25728
1.25639
1.25549
1.25459
1.2537
1.25281
1.25191
1.25102
1.25012
1.24923
1.24833
1.24744
1.24655
1.24565
1.24476
1.24386
1.24297
1.24208
1.24118
1.24029
1.23939
1.2385
1.23761
1.23671
1.23582
1.23493
1.23403
1.23314
1.23224
1.23135
1.23046
1.22956
1.22867
1.22778
1.22688
1.22599
1.2251
1.2242
1.22331
1.22242
1.22152
1.22063
1.21974
1.21884
1.21795
1.21706
1.21616
1.21527
1.21438
1.21348
1.21259
1.2117
1.2108
1.20992
1.20901
1.20814
1.20719
1.20643
1.20526
1.20388
1.32152
1.30289
1.2978
1.29462
1.29211
1.28993
1.28801
1.28629
1.28474
1.28332
1.282
1.28077
1.2796
1.27849
1.27742
1.27638
1.27537
1.27439
1.27341
1.27245
1.2715
1.27055
1.26961
1.26868
1.26776
1.26684
1.26592
1.26502
1.26411
1.26321
1.26231
1.26142
1.26052
1.25962
1.25873
1.25784
1.25694
1.25605
1.25515
1.25426
1.25336
1.25247
1.25157
1.25068
1.24978
1.24889
1.248
1.2471
1.24621
1.24531
1.24442
1.24352
1.24263
1.24174
1.24084
1.23995
1.23905
1.23816
1.23727
1.23637
1.23548
1.23459
1.23369
1.2328
1.2319
1.23101
1.23012
1.22922
1.22833
1.22743
1.22654
1.22565
1.22475
1.22386
1.22297
1.22207
1.22118
1.22029
1.21939
1.2185
1.21761
1.21671
1.21582
1.21493
1.21402
1.21316
1.2122
1.21145
1.21021
1.20886
1.32346
1.30615
1.30155
1.29879
1.29667
1.29481
1.29315
1.29165
1.29027
1.28898
1.28777
1.28663
1.28553
1.28447
1.28345
1.28245
1.28147
1.2805
1.27955
1.27861
1.27767
1.27673
1.27581
1.27488
1.27397
1.27305
1.27214
1.27124
1.27034
1.26944
1.26854
1.26764
1.26675
1.26585
1.26495
1.26406
1.26316
1.26227
1.26137
1.26048
1.25958
1.25869
1.25779
1.2569
1.256
1.25511
1.25421
1.25332
1.25242
1.25153
1.25064
1.24974
1.24885
1.24795
1.24706
1.24616
1.24527
1.24437
1.24348
1.24258
1.24169
1.2408
1.2399
1.23901
1.23811
1.23722
1.23632
1.23543
1.23453
1.23364
1.23275
1.23185
1.23096
1.23006
1.22917
1.22827
1.22738
1.22649
1.22559
1.2247
1.2238
1.22291
1.22201
1.22112
1.22022
1.21935
1.2184
1.21764
1.2164
1.21514
1.31337
1.30683
1.30392
1.30174
1.30003
1.29848
1.29708
1.29578
1.29457
1.29341
1.29231
1.29124
1.29021
1.28921
1.28823
1.28726
1.28631
1.28537
1.28444
1.28351
1.28258
1.28166
1.28075
1.27983
1.27892
1.27801
1.27711
1.27621
1.27531
1.27441
1.27351
1.27261
1.27172
1.27082
1.26992
1.26903
1.26813
1.26724
1.26634
1.26545
1.26455
1.26366
1.26276
1.26187
1.26097
1.26008
1.25918
1.25828
1.25739
1.25649
1.2556
1.2547
1.25381
1.25291
1.25202
1.25112
1.25023
1.24933
1.24844
1.24754
1.24665
1.24575
1.24486
1.24396
1.24307
1.24217
1.24128
1.24038
1.23949
1.23859
1.2377
1.23681
1.23591
1.23502
1.23412
1.23323
1.23233
1.23144
1.23054
1.22965
1.22875
1.22786
1.22696
1.22607
1.22517
1.22429
1.22336
1.22256
1.22141
1.22028
1.30776
1.30714
1.30533
1.30362
1.30222
1.30092
1.29971
1.29856
1.29747
1.29641
1.29539
1.29439
1.29341
1.29245
1.2915
1.29056
1.28963
1.2887
1.28778
1.28687
1.28595
1.28504
1.28413
1.28323
1.28232
1.28142
1.28052
1.27962
1.27872
1.27782
1.27692
1.27603
1.27513
1.27423
1.27334
1.27244
1.27155
1.27065
1.26975
1.26886
1.26796
1.26707
1.26617
1.26528
1.26438
1.26348
1.26259
1.26169
1.2608
1.2599
1.25901
1.25811
1.25722
1.25632
1.25543
1.25453
1.25364
1.25274
1.25184
1.25095
1.25005
1.24916
1.24826
1.24737
1.24647
1.24558
1.24468
1.24379
1.24289
1.242
1.2411
1.24021
1.23931
1.23842
1.23752
1.23663
1.23573
1.23484
1.23394
1.23305
1.23215
1.23126
1.23036
1.22947
1.22857
1.22768
1.22676
1.22593
1.22488
1.22384
1.30685
1.30749
1.30621
1.30485
1.30367
1.30255
1.30148
1.30044
1.29943
1.29845
1.29748
1.29653
1.29558
1.29465
1.29372
1.2928
1.29189
1.29097
1.29006
1.28916
1.28825
1.28735
1.28644
1.28554
1.28464
1.28374
1.28284
1.28194
1.28104
1.28015
1.27925
1.27835
1.27746
1.27656
1.27566
1.27477
1.27387
1.27298
1.27208
1.27119
1.27029
1.26939
1.2685
1.2676
1.26671
1.26581
1.26492
1.26402
1.26312
1.26223
1.26133
1.26044
1.25954
1.25865
1.25775
1.25685
1.25596
1.25506
1.25417
1.25327
1.25238
1.25148
1.25059
1.24969
1.2488
1.2479
1.247
1.24611
1.24521
1.24432
1.24342
1.24253
1.24163
1.24074
1.23984
1.23895
1.23805
1.23716
1.23626
1.23536
1.23447
1.23357
1.23268
1.23178
1.23089
1.23
1.22909
1.22823
1.22725
1.22627
1.3077
1.30781
1.30679
1.30565
1.30463
1.30362
1.30264
1.30168
1.30073
1.29979
1.29886
1.29794
1.29702
1.2961
1.29519
1.29429
1.29338
1.29248
1.29157
1.29067
1.28977
1.28887
1.28797
1.28707
1.28617
1.28528
1.28438
1.28348
1.28258
1.28169
1.28079
1.27989
1.279
1.2781
1.27721
1.27631
1.27541
1.27452
1.27362
1.27273
1.27183
1.27093
1.27004
1.26914
1.26825
1.26735
1.26645
1.26556
1.26466
1.26377
1.26287
1.26198
1.26108
1.26018
1.25929
1.25839
1.2575
1.2566
1.25571
1.25481
1.25391
1.25302
1.25212
1.25123
1.25033
1.24944
1.24854
1.24765
1.24675
1.24585
1.24496
1.24406
1.24317
1.24227
1.24138
1.24048
1.23959
1.23869
1.2378
1.2369
1.236
1.23511
1.23421
1.23332
1.23242
1.23153
1.23063
1.22975
1.22881
1.22788
1.30869
1.30804
1.30716
1.30618
1.30525
1.30432
1.30341
1.30249
1.30158
1.30067
1.29976
1.29886
1.29796
1.29706
1.29616
1.29526
1.29436
1.29346
1.29256
1.29166
1.29077
1.28987
1.28897
1.28807
1.28718
1.28628
1.28538
1.28449
1.28359
1.28269
1.2818
1.2809
1.28001
1.27911
1.27821
1.27732
1.27642
1.27553
1.27463
1.27373
1.27284
1.27194
1.27105
1.27015
1.26925
1.26836
1.26746
1.26657
1.26567
1.26477
1.26388
1.26298
1.26209
1.26119
1.2603
1.2594
1.2585
1.25761
1.25671
1.25582
1.25492
1.25403
1.25313
1.25223
1.25134
1.25044
1.24955
1.24865
1.24776
1.24686
1.24596
1.24507
1.24417
1.24328
1.24238
1.24149
1.24059
1.23969
1.2388
1.2379
1.23701
1.23611
1.23522
1.23432
1.23343
1.23253
1.23163
1.23074
1.22983
1.22893
)
;

boundaryField
{
    upperWall
    {
        type            calculated;
        value           nonuniform List<scalar> 
220
(
1.3117
1.3117
1.31097
1.31097
1.31083
1.31083
1.3107
1.3107
1.31058
1.31058
1.31049
1.31049
1.31039
1.31039
1.31031
1.31031
1.31022
1.31022
1.31014
1.31014
1.31006
1.31006
1.30998
1.30998
1.30991
1.30991
1.30983
1.30983
1.30975
1.30975
1.30968
1.30968
1.3096
1.3096
1.30953
1.30953
1.30945
1.30945
1.30935
1.30935
1.30915
1.30915
1.30813
1.30813
1.30732
1.30732
1.3064
1.3064
1.30551
1.30551
1.30461
1.30461
1.30372
1.30372
1.30283
1.30283
1.30193
1.30193
1.30103
1.30103
1.30014
1.30014
1.29924
1.29924
1.29835
1.29835
1.29745
1.29745
1.29656
1.29656
1.29566
1.29566
1.29476
1.29476
1.29387
1.29387
1.29297
1.29297
1.29207
1.29207
1.29118
1.29118
1.29028
1.29028
1.28939
1.28939
1.28849
1.28849
1.28759
1.28759
1.2867
1.2867
1.2858
1.2858
1.2849
1.2849
1.28401
1.28401
1.28311
1.28311
1.28222
1.28222
1.28132
1.28132
1.28042
1.28042
1.27953
1.27953
1.27863
1.27863
1.27773
1.27773
1.27684
1.27684
1.27594
1.27594
1.27505
1.27505
1.27415
1.27415
1.27325
1.27325
1.27236
1.27236
1.27146
1.27146
1.27057
1.27057
1.26967
1.26967
1.26877
1.26877
1.26788
1.26788
1.26698
1.26698
1.26609
1.26609
1.26519
1.26519
1.2643
1.2643
1.2634
1.2634
1.2625
1.2625
1.26161
1.26161
1.26071
1.26071
1.25982
1.25982
1.25892
1.25892
1.25802
1.25802
1.25713
1.25713
1.25623
1.25623
1.25534
1.25534
1.25444
1.25444
1.25355
1.25355
1.25265
1.25265
1.25175
1.25175
1.25086
1.25086
1.24996
1.24996
1.24907
1.24907
1.24817
1.24817
1.24728
1.24728
1.24638
1.24638
1.24548
1.24548
1.24459
1.24459
1.24369
1.24369
1.2428
1.2428
1.2419
1.2419
1.24101
1.24101
1.24011
1.24011
1.23921
1.23921
1.23832
1.23832
1.23742
1.23742
1.23653
1.23653
1.23563
1.23563
1.23474
1.23474
1.23384
1.23384
1.23295
1.23295
1.23205
1.23205
1.23115
1.23115
1.23026
1.23026
1.22936
1.22936
)
;
    }
    lowerWall
    {
        type            calculated;
        value           nonuniform List<scalar> 
40
(
1.3117
1.3117
1.31097
1.31097
1.31083
1.31083
1.3107
1.3107
1.31058
1.31058
1.31049
1.31049
1.31039
1.31039
1.31031
1.31031
1.31022
1.31022
1.31014
1.31014
1.31006
1.31006
1.30998
1.30998
1.30991
1.30991
1.30983
1.30983
1.30975
1.30975
1.30968
1.30968
1.3096
1.3096
1.30953
1.30953
1.30945
1.30945
1.30935
1.30935
)
;
    }
    heatedWall
    {
        type            calculated;
        value           nonuniform List<scalar> 
180
(
1.29013
1.29013
1.28896
1.28896
1.28614
1.28614
1.28294
1.28294
1.28014
1.28014
1.27767
1.27767
1.27552
1.27552
1.27361
1.27361
1.27191
1.27191
1.27036
1.27036
1.26895
1.26895
1.26764
1.26764
1.26641
1.26641
1.26524
1.26524
1.26413
1.26413
1.26306
1.26306
1.26202
1.26202
1.26101
1.26101
1.26002
1.26002
1.25904
1.25904
1.25807
1.25807
1.25711
1.25711
1.25616
1.25616
1.25522
1.25522
1.25429
1.25429
1.25337
1.25337
1.25245
1.25245
1.25154
1.25154
1.25064
1.25064
1.24974
1.24974
1.24884
1.24884
1.24794
1.24794
1.24705
1.24705
1.24615
1.24615
1.24526
1.24526
1.24437
1.24437
1.24347
1.24347
1.24258
1.24258
1.24168
1.24168
1.24079
1.24079
1.2399
1.2399
1.239
1.239
1.23811
1.23811
1.23722
1.23722
1.23632
1.23632
1.23543
1.23543
1.23453
1.23453
1.23364
1.23364
1.23275
1.23275
1.23185
1.23185
1.23096
1.23096
1.23007
1.23007
1.22917
1.22917
1.22828
1.22828
1.22739
1.22739
1.22649
1.22649
1.2256
1.2256
1.22471
1.22471
1.22382
1.22382
1.22292
1.22292
1.22203
1.22203
1.22114
1.22114
1.22024
1.22024
1.21935
1.21935
1.21846
1.21846
1.21756
1.21756
1.21667
1.21667
1.21578
1.21578
1.21489
1.21489
1.21399
1.21399
1.2131
1.2131
1.21221
1.21221
1.21131
1.21131
1.21042
1.21042
1.20953
1.20953
1.20864
1.20864
1.20774
1.20774
1.20685
1.20685
1.20596
1.20596
1.20507
1.20507
1.20417
1.20417
1.20328
1.20328
1.20239
1.20239
1.2015
1.2015
1.2006
1.2006
1.19972
1.19972
1.19879
1.19879
1.19799
1.19799
1.19691
1.19691
1.19558
1.19558
)
;
    }
    inlet
    {
        type            calculated;
        value           nonuniform List<scalar> 
24
(
1.3117
1.31148
1.31132
1.31125
1.31122
1.31121
1.31121
1.31122
1.31125
1.31132
1.31148
1.3117
1.3117
1.31148
1.31132
1.31125
1.31122
1.31121
1.31121
1.31122
1.31125
1.31132
1.31148
1.3117
)
;
    }
    outlet
    {
        type            calculated;
        value           nonuniform List<scalar> 
24
(
1.19554
1.1965
1.19795
1.20016
1.20345
1.20842
1.2147
1.21984
1.2234
1.22583
1.22743
1.22848
1.19554
1.1965
1.19795
1.20016
1.20345
1.20842
1.2147
1.21984
1.2234
1.22583
1.22743
1.22848
)
;
    }
    frontAndBack
    {
        type            empty;
    }
}


// ************************************************************************* //
