/*--------------------------------*- C++ -*----------------------------------*\
  =========                 |
  \\      /  F ield         | OpenFOAM: The Open Source CFD Toolbox
   \\    /   O peration     | Website:  https://openfoam.org
    \\  /    A nd           | Version:  7
     \\/     M anipulation  |
\*---------------------------------------------------------------------------*/
FoamFile
{
    version     2.0;
    format      ascii;
    class       volScalarField;
    location    "1.2";
    object      rho_0;
}
// * * * * * * * * * * * * * * * * * * * * * * * * * * * * * * * * * * * * * //

dimensions      [1 -3 0 0 0 0 0];

internalField   nonuniform List<scalar> 
1320
(
1.23062
1.23054
1.23051
1.23049
1.2305
1.23051
1.23052
1.23053
1.23053
1.23054
1.23052
1.23054
1.23047
1.23054
1.23038
1.23062
1.23015
1.23105
1.2289
1.23517
1.23062
1.23054
1.23049
1.23046
1.23045
1.23048
1.23051
1.23057
1.23058
1.23065
1.23061
1.23071
1.23054
1.23077
1.23031
1.23098
1.22975
1.23176
1.22822
1.23414
1.23061
1.23056
1.2305
1.23047
1.23045
1.23047
1.23048
1.23055
1.23056
1.23067
1.23064
1.23079
1.23064
1.23089
1.23049
1.23099
1.23016
1.23118
1.22968
1.23145
1.23061
1.23056
1.2305
1.23047
1.23045
1.23047
1.23048
1.23054
1.23056
1.23064
1.23065
1.23076
1.23073
1.23085
1.23075
1.23085
1.23067
1.23075
1.23059
1.23054
1.2306
1.23055
1.2305
1.23047
1.23045
1.23047
1.23049
1.23053
1.23057
1.23062
1.23067
1.23073
1.23078
1.23081
1.23085
1.23082
1.23084
1.23074
1.23077
1.23059
1.2306
1.23055
1.2305
1.23047
1.23045
1.23047
1.2305
1.23053
1.23058
1.23062
1.23068
1.23073
1.23078
1.23082
1.23085
1.23085
1.23083
1.2308
1.23074
1.23071
1.2306
1.23055
1.2305
1.23047
1.23045
1.23047
1.2305
1.23053
1.23058
1.23062
1.23068
1.23073
1.23078
1.23082
1.23085
1.23085
1.23083
1.2308
1.23074
1.23071
1.2306
1.23055
1.2305
1.23047
1.23046
1.23047
1.23049
1.23053
1.23058
1.23062
1.23067
1.23073
1.23078
1.23082
1.23084
1.23084
1.23081
1.23078
1.23072
1.23067
1.23061
1.23055
1.2305
1.23047
1.23046
1.23046
1.23049
1.23053
1.23057
1.23062
1.23068
1.23073
1.23077
1.2308
1.2308
1.23078
1.23075
1.23069
1.23063
1.23055
1.23061
1.23055
1.2305
1.23046
1.23045
1.23046
1.23049
1.23054
1.23059
1.23064
1.23069
1.23072
1.23074
1.23073
1.23071
1.23067
1.23061
1.23055
1.2305
1.23044
1.23062
1.23054
1.23049
1.23046
1.23045
1.23048
1.23051
1.23056
1.2306
1.23063
1.23065
1.23065
1.23064
1.23061
1.23057
1.23054
1.2305
1.23047
1.23044
1.23044
1.23062
1.23054
1.23051
1.23049
1.2305
1.23051
1.23052
1.23053
1.23053
1.23054
1.23053
1.23052
1.23051
1.23049
1.23047
1.23046
1.23045
1.23044
1.23043
1.23044
1.18481
1.15489
1.13615
1.12165
1.10968
1.09941
1.09035
1.08221
1.07474
1.0678
1.06128
1.05513
1.04934
1.04392
1.03888
1.03418
1.02984
1.02585
1.02223
1.01901
1.0162
1.01379
1.01175
1.01003
1.00859
1.00739
1.00642
1.00565
1.00506
1.00465
1.00438
1.00423
1.00419
1.00423
1.00433
1.00447
1.00463
1.00482
1.00501
1.00521
1.00541
1.00561
1.00581
1.006
1.0062
1.00639
1.00658
1.00678
1.00697
1.00717
1.00736
1.00755
1.00773
1.00792
1.00811
1.00829
1.00848
1.00866
1.00885
1.00903
1.00921
1.00939
1.00957
1.00975
1.00993
1.0101
1.01028
1.01045
1.01063
1.0108
1.01097
1.01115
1.01131
1.01148
1.01165
1.01182
1.01199
1.01215
1.01232
1.01249
1.01264
1.01282
1.01296
1.01314
1.01326
1.01345
1.01355
1.01377
1.01383
1.01411
1.21417
1.1891
1.17083
1.15646
1.14439
1.13388
1.12451
1.11604
1.10828
1.10106
1.09427
1.08784
1.08176
1.07603
1.07068
1.06569
1.06106
1.05678
1.05285
1.0493
1.04614
1.0434
1.04104
1.03904
1.03735
1.03592
1.03473
1.03375
1.03297
1.03237
1.03193
1.03164
1.03147
1.03139
1.03139
1.03145
1.03155
1.03167
1.0318
1.03195
1.03209
1.03224
1.03239
1.03253
1.03268
1.03282
1.03297
1.03311
1.03326
1.0334
1.03355
1.03369
1.03383
1.03397
1.03411
1.03425
1.03439
1.03452
1.03466
1.0348
1.03494
1.03507
1.0352
1.03534
1.03547
1.0356
1.03573
1.03586
1.03599
1.03612
1.03625
1.03638
1.0365
1.03663
1.03675
1.03688
1.037
1.03713
1.03725
1.03737
1.03749
1.03762
1.03772
1.03785
1.03794
1.03808
1.03815
1.03831
1.03835
1.03856
1.22699
1.21219
1.1976
1.1849
1.17375
1.16371
1.15456
1.14615
1.13841
1.1312
1.12439
1.1179
1.11169
1.10577
1.1002
1.095
1.09016
1.08565
1.08145
1.07757
1.07405
1.07092
1.06819
1.06584
1.06384
1.06213
1.06067
1.05943
1.0584
1.05755
1.05689
1.05639
1.05604
1.05582
1.05569
1.05564
1.05565
1.0557
1.05577
1.05586
1.05596
1.05605
1.05615
1.05625
1.05635
1.05645
1.05654
1.05664
1.05674
1.05684
1.05694
1.05704
1.05714
1.05723
1.05733
1.05742
1.05752
1.05761
1.05771
1.0578
1.0579
1.05799
1.05808
1.05817
1.05826
1.05835
1.05844
1.05853
1.05862
1.05871
1.0588
1.05889
1.05898
1.05906
1.05915
1.05924
1.05932
1.05941
1.05949
1.05958
1.05966
1.05975
1.05982
1.05991
1.05997
1.06006
1.0601
1.06022
1.06024
1.06039
1.23063
1.22487
1.21612
1.20693
1.19802
1.18948
1.18132
1.1736
1.16637
1.1596
1.15317
1.14698
1.14093
1.13507
1.12949
1.12424
1.11935
1.11477
1.11045
1.10636
1.10254
1.09905
1.09595
1.09325
1.09092
1.08891
1.08717
1.08565
1.08433
1.0832
1.08227
1.08152
1.08095
1.08054
1.08026
1.08008
1.07999
1.07995
1.07996
1.07998
1.08002
1.08007
1.08012
1.08017
1.08022
1.08027
1.08032
1.08038
1.08043
1.08049
1.08054
1.0806
1.08065
1.0807
1.08076
1.08081
1.08086
1.08091
1.08097
1.08102
1.08107
1.08112
1.08118
1.08123
1.08128
1.08133
1.08138
1.08143
1.08148
1.08153
1.08158
1.08163
1.08168
1.08172
1.08177
1.08182
1.08187
1.08192
1.08197
1.08202
1.08206
1.08211
1.08215
1.0822
1.08223
1.08228
1.0823
1.08237
1.08237
1.08246
1.23078
1.22962
1.22613
1.2212
1.21556
1.2095
1.20321
1.19694
1.19087
1.18512
1.17963
1.17423
1.16884
1.16345
1.1582
1.15322
1.14857
1.14421
1.14004
1.13599
1.13209
1.12841
1.12506
1.1221
1.11952
1.11728
1.11531
1.11354
1.11197
1.11057
1.10936
1.10836
1.10755
1.10693
1.10648
1.10617
1.10596
1.10583
1.10575
1.10572
1.1057
1.1057
1.1057
1.1057
1.10571
1.10571
1.10572
1.10573
1.10574
1.10575
1.10577
1.10578
1.10579
1.1058
1.10581
1.10582
1.10583
1.10584
1.10586
1.10587
1.10588
1.10589
1.1059
1.10592
1.10593
1.10594
1.10595
1.10596
1.10597
1.10599
1.106
1.10601
1.10602
1.10603
1.10604
1.10605
1.10606
1.10608
1.10609
1.1061
1.10611
1.10613
1.10613
1.10614
1.10614
1.10616
1.10615
1.10617
1.10615
1.10618
1.23049
1.23032
1.22972
1.22827
1.22591
1.2227
1.21881
1.21456
1.21026
1.20611
1.2021
1.19807
1.19387
1.18949
1.18509
1.18084
1.17687
1.17314
1.16952
1.1659
1.16228
1.15876
1.15547
1.15251
1.14991
1.14762
1.14557
1.14371
1.14199
1.14043
1.13903
1.13784
1.13685
1.13606
1.13547
1.13503
1.13472
1.13451
1.13437
1.13428
1.13421
1.13416
1.13412
1.13408
1.13404
1.13401
1.13398
1.13395
1.13392
1.13389
1.13386
1.13383
1.13381
1.13378
1.13375
1.13372
1.13369
1.13367
1.13364
1.13362
1.13359
1.13357
1.13354
1.13352
1.13349
1.13347
1.13344
1.13342
1.13339
1.13337
1.13334
1.13332
1.13329
1.13327
1.13325
1.13322
1.1332
1.13318
1.13315
1.13313
1.13311
1.13309
1.13306
1.13304
1.13301
1.13298
1.13295
1.13292
1.1329
1.13287
1.23049
1.2302
1.2302
1.2302
1.22974
1.22856
1.2267
1.22437
1.22191
1.21948
1.21708
1.21453
1.2117
1.20859
1.20536
1.20221
1.19926
1.19645
1.19366
1.19077
1.18779
1.18482
1.182
1.17943
1.17715
1.17511
1.17325
1.17152
1.16989
1.16838
1.16701
1.16582
1.16482
1.16402
1.1634
1.16294
1.16261
1.16237
1.1622
1.16208
1.16198
1.16191
1.16184
1.16177
1.16171
1.16165
1.16159
1.16153
1.16147
1.16142
1.16137
1.16131
1.16126
1.1612
1.16115
1.16109
1.16104
1.16099
1.16093
1.16088
1.16083
1.16078
1.16073
1.16068
1.16063
1.16058
1.16053
1.16048
1.16043
1.16038
1.16033
1.16028
1.16023
1.16018
1.16013
1.16008
1.16003
1.15998
1.15994
1.15989
1.15985
1.1598
1.15975
1.15969
1.15964
1.15959
1.15954
1.15948
1.15944
1.15937
1.23044
1.23022
1.2303
1.2305
1.23051
1.23009
1.22922
1.22805
1.22679
1.22552
1.22419
1.22263
1.22077
1.21865
1.21643
1.21427
1.21222
1.21022
1.20815
1.20596
1.20365
1.20134
1.19915
1.19715
1.19535
1.19372
1.1922
1.19075
1.18937
1.18808
1.18692
1.1859
1.18506
1.18438
1.18386
1.18347
1.18319
1.18298
1.18283
1.18271
1.18262
1.18253
1.18246
1.18238
1.18231
1.18224
1.18217
1.1821
1.18204
1.18197
1.18191
1.18184
1.18178
1.18171
1.18165
1.18158
1.18152
1.18145
1.18139
1.18133
1.18127
1.1812
1.18114
1.18108
1.18102
1.18096
1.1809
1.18084
1.18078
1.18072
1.18066
1.1806
1.18054
1.18048
1.18042
1.18036
1.1803
1.18025
1.18019
1.18013
1.18008
1.18002
1.17996
1.17989
1.17984
1.17977
1.17971
1.17964
1.1796
1.17951
1.23037
1.23029
1.23039
1.23055
1.23058
1.23036
1.2299
1.22931
1.22868
1.22803
1.22725
1.22624
1.22498
1.22353
1.22204
1.22059
1.2192
1.21778
1.21626
1.21461
1.21289
1.21118
1.20958
1.20812
1.20678
1.20555
1.20437
1.20323
1.20215
1.20114
1.20024
1.19947
1.19883
1.19833
1.19794
1.19765
1.19743
1.19727
1.19715
1.19705
1.19697
1.19689
1.19682
1.19675
1.19667
1.1966
1.19653
1.19647
1.1964
1.19634
1.19627
1.19621
1.19614
1.19607
1.19601
1.19594
1.19588
1.19582
1.19575
1.19569
1.19563
1.19557
1.1955
1.19544
1.19538
1.19532
1.19526
1.1952
1.19514
1.19508
1.19502
1.19495
1.19489
1.19483
1.19477
1.19471
1.19466
1.1946
1.19454
1.19448
1.19443
1.19436
1.19431
1.19424
1.19418
1.19411
1.19405
1.19397
1.19393
1.19384
1.23037
1.23036
1.23045
1.23053
1.23051
1.23035
1.23009
1.22979
1.22949
1.22913
1.22864
1.22796
1.2271
1.22615
1.22519
1.22426
1.22333
1.22234
1.22126
1.22008
1.21887
1.2177
1.2166
1.2156
1.21467
1.21378
1.21293
1.21211
1.21133
1.21061
1.20998
1.20944
1.209
1.20866
1.20839
1.20819
1.20804
1.20793
1.20784
1.20776
1.20769
1.20763
1.20756
1.2075
1.20743
1.20737
1.20731
1.20724
1.20718
1.20712
1.20706
1.207
1.20694
1.20688
1.20682
1.20676
1.20671
1.20665
1.20659
1.20653
1.20648
1.20642
1.20636
1.2063
1.20625
1.20619
1.20613
1.20608
1.20602
1.20597
1.20591
1.20585
1.2058
1.20574
1.20569
1.20563
1.20558
1.20552
1.20547
1.20541
1.20536
1.2053
1.20525
1.20519
1.20513
1.20506
1.20501
1.20494
1.2049
1.20482
1.2304
1.23039
1.23043
1.23045
1.2304
1.23029
1.23015
1.23001
1.22986
1.22965
1.22935
1.22892
1.22839
1.22783
1.22727
1.22672
1.22616
1.22553
1.22485
1.22411
1.22336
1.22265
1.22199
1.22138
1.2208
1.22025
1.21971
1.21919
1.2187
1.21825
1.21786
1.21754
1.21728
1.21707
1.21691
1.21678
1.21669
1.21661
1.21655
1.21649
1.21643
1.21638
1.21633
1.21627
1.21622
1.21617
1.21611
1.21606
1.21601
1.21596
1.21591
1.21586
1.21581
1.21576
1.2157
1.21565
1.2156
1.21555
1.2155
1.21546
1.21541
1.21535
1.2153
1.21526
1.21521
1.21516
1.21511
1.21506
1.21502
1.21497
1.21492
1.21487
1.21482
1.21477
1.21472
1.21468
1.21463
1.21458
1.21453
1.21449
1.21444
1.21439
1.21434
1.21429
1.21424
1.21418
1.21413
1.21407
1.21403
1.21396
1.23041
1.23039
1.23038
1.23036
1.23032
1.23026
1.2302
1.23015
1.23008
1.22999
1.22986
1.22969
1.22949
1.22929
1.22908
1.22888
1.22867
1.22843
1.22817
1.22789
1.22761
1.22734
1.22709
1.22686
1.22664
1.22643
1.22622
1.22602
1.22583
1.22566
1.22551
1.22538
1.22528
1.22519
1.22512
1.22506
1.22501
1.22497
1.22493
1.2249
1.22486
1.22482
1.22478
1.22474
1.2247
1.22466
1.22462
1.22458
1.22454
1.2245
1.22446
1.22442
1.22438
1.22434
1.22431
1.22427
1.22423
1.22419
1.22415
1.22411
1.22407
1.22403
1.22399
1.22396
1.22392
1.22388
1.22384
1.22381
1.22377
1.22373
1.22369
1.22365
1.22362
1.22358
1.22354
1.2235
1.22346
1.22342
1.22339
1.22335
1.22331
1.22327
1.22323
1.22318
1.22314
1.22309
1.22305
1.223
1.22296
1.22291
)
;

boundaryField
{
    upperWall
    {
        type            calculated;
        value           nonuniform List<scalar> 
110
(
1.23065
1.23061
1.23058
1.23057
1.23056
1.23055
1.23054
1.23053
1.23053
1.23052
1.23052
1.23051
1.2305
1.2305
1.23049
1.23049
1.23048
1.23048
1.23047
1.23047
1.23045
1.23042
1.23038
1.23035
1.23032
1.23029
1.23027
1.23024
1.23021
1.23019
1.23016
1.23013
1.23011
1.23008
1.23006
1.23004
1.23002
1.22999
1.22996
1.22992
1.22989
1.22985
1.22982
1.22978
1.22975
1.22972
1.22969
1.22966
1.22963
1.2296
1.22957
1.22954
1.22952
1.22949
1.22946
1.22944
1.22941
1.22939
1.22937
1.22934
1.22931
1.22928
1.22925
1.22922
1.22918
1.22915
1.22912
1.22908
1.22905
1.22902
1.22899
1.22895
1.22892
1.22889
1.22885
1.22882
1.22879
1.22875
1.22872
1.22869
1.22865
1.22862
1.22859
1.22856
1.22853
1.22849
1.22846
1.22843
1.2284
1.22837
1.22834
1.2283
1.22827
1.22823
1.2282
1.22817
1.22814
1.22811
1.22807
1.22804
1.22801
1.22797
1.22793
1.22789
1.22785
1.2278
1.22776
1.22772
1.22768
1.22764
)
;
    }
    lowerWall
    {
        type            calculated;
        value           nonuniform List<scalar> 
20
(
1.23065
1.23061
1.23058
1.23057
1.23056
1.23055
1.23054
1.23053
1.23053
1.23052
1.23052
1.23051
1.2305
1.2305
1.23049
1.23049
1.23048
1.23048
1.23047
1.23047
)
;
    }
    heatedWall
    {
        type            calculated;
        value           nonuniform List<scalar> 
90
(
1.16316
1.1349
1.11663
1.1024
1.09069
1.08069
1.07189
1.06397
1.05673
1.04999
1.04365
1.03767
1.03205
1.02678
1.02188
1.01732
1.01309
1.00922
1.0057
1.00258
0.999857
0.997524
0.99555
0.993894
0.992513
0.991372
0.990447
0.98972
0.989176
0.988798
0.988565
0.988456
0.988446
0.988514
0.988641
0.988808
0.989003
0.989214
0.989435
0.989659
0.989883
0.990107
0.990328
0.990549
0.99077
0.99099
0.99121
0.99143
0.991649
0.991867
0.992084
0.992299
0.992513
0.992725
0.992937
0.993149
0.993361
0.993572
0.993782
0.993992
0.994199
0.994405
0.994609
0.994812
0.995014
0.995216
0.995418
0.995619
0.995819
0.996018
0.996215
0.996411
0.996606
0.9968
0.996993
0.997187
0.997377
0.997571
0.997757
0.997952
0.998132
0.998328
0.998496
0.998698
0.998845
0.999063
0.999178
0.999434
0.999505
0.999834
)
;
    }
    inlet
    {
        type            calculated;
        value           nonuniform List<scalar> 
12
(
1.23065
1.23064
1.23064
1.23063
1.23063
1.23063
1.23063
1.23063
1.23063
1.23064
1.23064
1.23065
)
;
    }
    outlet
    {
        type            calculated;
        value           nonuniform List<scalar> 
12
(
1.0141
1.03855
1.06037
1.08244
1.10617
1.13285
1.15935
1.17949
1.19383
1.2048
1.21394
1.2229
)
;
    }
    frontAndBack
    {
        type            empty;
    }
}


// ************************************************************************* //
