/*--------------------------------*- C++ -*----------------------------------*\
  =========                 |
  \\      /  F ield         | OpenFOAM: The Open Source CFD Toolbox
   \\    /   O peration     | Website:  https://openfoam.org
    \\  /    A nd           | Version:  7
     \\/     M anipulation  |
\*---------------------------------------------------------------------------*/
FoamFile
{
    version     2.0;
    format      ascii;
    class       surfaceScalarField;
    location    "4.5";
    object      phi_0;
}
// * * * * * * * * * * * * * * * * * * * * * * * * * * * * * * * * * * * * * //

dimensions      [1 0 -1 0 0 0 0];

internalField   nonuniform List<scalar> 
8090
(
0.00058856
0.00172008
0.00052672
0.00050058
-0.000203718
0.000291697
0.000457102
-0.000366282
0.000409771
0.000454297
-0.000358797
0.000361604
0.000451719
-0.000368125
0.000370702
0.000463356
-0.000372765
0.000361129
0.000466388
-0.000352815
0.000349783
0.000486967
-0.000361031
0.000340453
0.0004858
-0.000311082
0.000312249
-0.000244706
0.000312291
0.000418215
0.00177984
0.00286654
-9.49683e-05
0.00154709
0.000387347
-0.000358315
0.00141283
1.24458e-05
-0.000244888
0.00142357
-7.55396e-05
-0.000293992
0.0014075
-6.71515e-05
-0.000284901
0.00143439
-0.000105082
-0.000294581
0.00144984
-6.20761e-05
-0.000306181
0.00148879
-8.43476e-05
-0.000315635
0.00157329
-4.99353e-05
-0.000345649
-5.30825e-05
-0.000346837
0.0017285
0.00275999
0.0027089
0.000230464
0.00270055
0.000428697
1.80901e-05
0.00259067
-1.48335e-05
0.000135337
0.00260837
-0.000182944
8.9706e-05
0.00259911
-0.000156448
9.85543e-05
0.00263008
-0.000225054
8.89995e-05
0.00266518
-0.000174604
7.74338e-05
0.00271438
-0.000201569
6.80139e-05
0.00281574
-0.000190627
3.93376e-05
-0.000126779
4.03974e-05
0.00284903
0.00348383
0.00205052
6.25015e-06
0.00360602
0.000561092
-0.000254585
0.00354801
0.000187487
-0.000142486
0.00356778
-8.97288e-06
-0.000193862
0.00358429
1.20579e-05
-0.000185023
0.00361302
-5.93807e-05
-0.000194396
0.00366195
-1.7363e-05
-0.000206174
0.00371627
-4.02829e-05
-0.000215612
0.00381138
-4.02474e-05
-0.000245486
-6.85425e-06
-0.000245879
0.00393734
0.00368449
0.00106475
0.000133556
0.0040474
0.000284255
-8.60719e-05
0.00412724
7.5208e-05
3.29313e-05
0.00417402
-4.0418e-05
-1.59094e-05
0.00422082
-2.82518e-05
-6.48931e-06
0.00424929
-7.19877e-05
-1.58668e-05
0.00430923
-4.96898e-05
-2.76052e-05
0.00436784
-6.18917e-05
-3.70036e-05
0.00445779
-6.40553e-05
-6.61388e-05
-3.65859e-05
-6.53981e-05
0.00455292
0.00382188
1.78786e-08
7.48535e-05
0.00427225
1.1913e-08
-0.00016613
0.00440105
2.40543e-08
-5.36725e-05
0.00446256
2.87874e-08
-0.000101283
0.00452777
1.00805e-07
-9.35657e-05
0.00455843
1.54173e-07
-0.000102796
0.00462279
5.88479e-07
-0.000114638
0.00468417
7.75852e-07
-0.000124044
0.00477051
3.20014e-06
-0.000153601
8.48296e-06
-0.000153294
0.00487873
0.00382189
-0.00106471
7.48539e-05
0.00427226
-0.000284228
-0.000166131
0.00440106
-7.51675e-05
-5.36746e-05
0.00446257
4.04929e-05
-0.000101282
0.00452781
2.84284e-05
-9.35641e-05
0.00455845
7.2305e-05
-0.000102799
0.00462297
5.07073e-05
-0.000114633
0.0046844
6.34018e-05
-0.000124058
0.00477167
6.95174e-05
-0.000153592
5.29202e-05
-0.000153372
0.0048806
0.0036845
-0.0020505
0.000133555
0.00404742
-0.00056107
-8.60705e-05
0.00412726
-0.000187495
3.29264e-05
0.00417406
9.04188e-06
-1.59044e-05
0.0042209
-1.19224e-05
-6.49002e-06
0.00424946
5.96077e-05
-1.58667e-05
0.00430963
1.8145e-05
-2.76105e-05
0.00436865
4.13869e-05
-3.69995e-05
0.00446029
4.40328e-05
-6.61555e-05
2.04522e-05
-6.53474e-05
0.00455811
0.00348384
-0.00270889
6.25041e-06
0.00360604
-0.000428678
-0.000254587
0.00354804
1.48462e-05
-0.000142477
0.00356782
0.000182982
-0.000193864
0.0035844
0.000156521
-0.000185021
0.00361319
0.000225221
-0.0001944
0.0036625
0.000175005
-0.000206171
0.00371727
0.000202244
-0.000215631
0.00381461
0.000192173
-0.000245484
0.000134798
-0.000246012
0.00394628
0.00276
-0.00286654
0.000230463
0.00270057
-0.000387339
1.80905e-05
0.0025907
-1.24092e-05
0.000135344
0.00260842
7.55552e-05
8.97064e-05
0.0025992
6.71825e-05
9.85531e-05
0.00263028
0.000105146
8.89996e-05
0.00266561
6.22381e-05
7.74273e-05
0.00271522
8.46238e-05
6.80178e-05
0.00281799
5.00895e-05
3.93127e-05
5.86554e-05
4.0449e-05
0.00285368
0.00177984
-0.00172008
-9.49683e-05
0.0015471
0.00020372
-0.000358316
0.00141284
0.000366274
-0.000244892
0.00142359
0.000358805
-0.000293994
0.00140755
0.000368121
-0.0002849
0.00143447
0.00037282
-0.000294585
0.0014501
0.000352783
-0.000306178
0.00148921
0.000361166
-0.000315657
0.00157419
0.000310748
-0.000345632
0.000245316
-0.000346999
0.00173452
0.00058856
0.00052672
0.000500583
0.000291698
0.000457105
0.000409767
0.000454306
0.000361606
0.000451728
0.000370698
0.000463413
0.000361135
0.00046643
0.000349766
0.000487119
0.000340477
0.000485685
0.000312182
0.000312396
0.000418605
0.00142291
0.00211688
-0.000184356
0.000752093
0.00108357
-0.000121054
0.000659481
0.000660248
-0.000157598
0.000596878
0.000582486
-0.000158274
0.000584001
0.000544305
-0.000160726
0.000561716
0.00054655
-0.000163137
0.000539107
0.00053477
-0.000162378
0.000513266
0.000526497
-0.000160203
0.000593473
0.000380724
-0.000148681
0.000309013
-0.000148801
0.000745552
0.00253674
0.00219273
0.000124971
0.00194099
0.00112504
0.000195956
0.00181444
0.000371034
0.000164401
0.00170499
0.000234016
0.000163956
0.00166793
0.000135126
0.000161332
0.001628
0.000132934
0.000158968
0.00157902
0.000117762
0.000159804
0.00152992
9.79201e-05
0.000162046
0.00137763
1.31082e-05
0.000174253
1.10102e-05
0.000175049
0.00115375
0.00321711
0.0021196
-8.35806e-05
0.00294552
0.00144241
-2.77244e-05
0.00283313
0.000635722
-6.22357e-05
0.00272676
0.000495684
-6.56106e-05
0.00267814
0.000350195
-6.78893e-05
0.00263473
0.000335695
-7.03512e-05
0.00257874
0.000320797
-6.961e-05
0.00251724
0.000294924
-6.74941e-05
0.00240319
0.000226291
-5.97974e-05
0.00014073
-6.00011e-05
0.00237387
0.00345566
0.00144342
5.83916e-05
0.00352045
0.000997732
0.000125332
0.00356771
0.000397897
9.36717e-05
0.00353417
0.000237615
9.57644e-05
0.00349571
0.000110452
9.31747e-05
0.00345619
9.00623e-05
9.07616e-05
0.00340142
7.7779e-05
9.16102e-05
0.00333206
5.47667e-05
9.39065e-05
0.00319843
8.35829e-06
0.000106079
-1.79183e-06
0.000106815
0.00298826
0.00365878
0.00077898
-3.01859e-05
0.00392504
0.000612774
3.26352e-05
0.00405391
0.000314378
-5.19298e-06
0.00407252
0.000196784
-7.59413e-06
0.00405346
0.000134056
-1.10509e-05
0.0040236
0.000118722
-1.46675e-05
0.00397594
0.000110465
-1.26303e-05
0.00390576
9.4657e-05
-6.70676e-06
0.00377036
7.39444e-05
3.67021e-06
5.24397e-05
3.72267e-06
0.00364701
0.00367924
-3.09281e-08
5.69671e-06
0.00404943
1.75655e-08
7.64331e-05
0.00426494
-7.89352e-09
4.38605e-05
0.00433359
6.68705e-08
4.23692e-05
0.00433336
-2.79569e-08
4.07786e-05
0.00431072
2.18541e-07
3.83385e-05
0.00426768
-2.93012e-07
3.91604e-05
0.00419651
3.90922e-07
4.13909e-05
0.00406352
-8.95467e-08
5.34222e-05
6.52269e-06
5.38189e-05
0.00390233
0.00367923
-0.000779037
5.69629e-06
0.00404943
-0.000612741
7.64334e-05
0.00426494
-0.00031439
4.38595e-05
0.0043336
-0.000196686
4.23719e-05
0.00433335
-0.000134097
4.07784e-05
0.00431078
-0.00011835
3.83411e-05
0.00426762
-0.000110933
3.91658e-05
0.00419654
-9.39984e-05
4.14142e-05
0.00406276
-7.33878e-05
5.34846e-05
-4.18058e-05
5.4017e-05
0.0039037
0.00365878
-0.00144347
-3.01855e-05
0.00392503
-0.000997692
3.26345e-05
0.00405391
-0.000397929
-5.19337e-06
0.00407253
-0.000237492
-7.59486e-06
0.0040535
-0.00011052
-1.10507e-05
0.00402365
-8.97023e-05
-1.46687e-05
0.00397594
-7.8198e-05
-1.26327e-05
0.00390578
-5.41283e-05
-6.7156e-06
0.00376997
-7.37637e-06
3.64129e-06
9.68416e-06
3.57332e-06
0.00364956
0.00345565
-0.00211964
5.83911e-05
0.00352044
-0.00144237
0.000125333
0.0035677
-0.000635742
9.36722e-05
0.0035342
-0.000495603
9.57645e-05
0.00349571
-0.000350233
9.31747e-05
0.00345632
-0.000335474
9.07646e-05
0.00340132
-0.000320989
9.16179e-05
0.00333218
-0.000294554
9.39343e-05
0.00319759
-0.000224429
0.000106157
-0.000137136
0.000107051
0.00299135
0.00321709
-0.00219276
-8.35803e-05
0.00294551
-0.00112501
-2.77243e-05
0.00283311
-0.000371047
-6.22336e-05
0.00272679
-0.000233975
-6.56114e-05
0.00267815
-0.000135157
-6.78886e-05
0.00263483
-0.000132795
-7.03513e-05
0.00257873
-0.000117858
-6.96069e-05
0.00251735
-9.76611e-05
-6.74996e-05
0.00240401
-1.19903e-05
-5.97786e-05
-9.53963e-06
-6.00659e-05
0.00237693
0.00253672
-0.00211689
0.00012497
0.00194099
-0.00108357
0.000195957
0.00181442
-0.000660252
0.0001644
0.00170501
-0.000582482
0.000163957
0.00166791
-0.000544286
0.000161332
0.00162813
-0.000546568
0.000158971
0.00157898
-0.0005347
0.000159809
0.0015301
-0.00052651
0.000162071
0.0013784
-0.000380218
0.0001743
-0.000308868
0.000175251
0.00115548
0.0014229
-0.000184356
0.000752092
-0.000121055
0.000659476
-0.000157599
0.000596879
-0.000158275
0.000584015
-0.000160724
0.000561721
-0.000163139
0.000539153
-0.000162366
0.000513328
-0.000160208
0.000593908
-0.000148616
-0.000148792
0.000746228
0.00135886
0.00110344
0.000184356
0.000955847
0.000160907
0.000121054
0.000810835
-0.000170179
0.000157599
0.000763873
-0.000269585
0.000158274
0.000767004
-0.000324583
0.000160726
0.000762722
-0.000321993
0.000163137
0.000773664
-0.000335697
0.000162378
0.000798145
-0.000344886
0.000160203
0.000896821
-0.000396038
0.000148681
-0.00039225
0.000148801
0.00099147
0.00251833
0.00166609
-0.000124971
0.0022307
0.000840455
-0.000195956
0.00204348
0.000345081
-0.0001644
0.00194881
0.000152997
-0.000163956
0.00193345
1.3444e-05
-0.000161332
0.00192483
4.56855e-06
-0.000158968
0.00192851
-1.97767e-05
-0.000159804
0.00195475
-4.70305e-05
-0.000162046
0.00197814
-7.0923e-05
-0.000174253
-5.97082e-05
-0.000175049
0.0019957
0.00304247
0.00128744
8.35806e-05
0.0030616
0.000765867
2.77244e-05
0.00297266
0.000305981
6.2234e-05
0.00291446
7.99549e-05
6.56108e-05
0.00289559
-0.000103458
6.78893e-05
0.00289176
-0.000132303
7.03512e-05
0.00289696
-0.000164202
6.961e-05
0.00291524
-0.000200294
6.74941e-05
0.00297566
-0.000250942
5.97974e-05
-0.000256607
6.00011e-05
0.00305256
0.00323066
0.00100458
-5.83916e-05
0.00351242
0.000734776
-0.000125332
0.00359366
0.000415719
-9.36731e-05
0.00362894
0.000236
-9.57643e-05
0.00363924
7.26004e-05
-9.31747e-05
0.0036507
3.7756e-05
-9.07616e-05
0.00366272
6.99483e-06
-9.16102e-05
0.00367909
-2.88437e-05
-9.39065e-05
0.0036957
-5.54023e-05
-0.000106079
-3.61913e-05
-0.000106814
0.00368892
0.00330598
0.000469212
3.01859e-05
0.00374647
0.000359557
-3.26352e-05
0.0039553
0.00019731
5.19392e-06
0.00407987
9.56828e-05
7.59337e-06
0.00413012
2.46729e-07
1.10509e-05
0.00416442
-2.58827e-05
1.46675e-05
0.00418904
-4.28861e-05
1.26303e-05
0.00420774
-6.09481e-05
6.70676e-06
0.00423896
-7.92881e-05
-3.67021e-06
-6.71717e-05
-3.72266e-06
0.00427739
0.00331166
-5.42052e-08
-5.69671e-06
0.00382406
1.91077e-08
-7.64331e-05
0.00410899
8.44546e-09
-4.38597e-05
0.00429073
1.69724e-08
-4.23699e-05
0.00437236
1.74503e-07
-4.07786e-05
0.00442306
9.5214e-08
-3.83385e-05
0.00445743
1.07135e-06
-3.91604e-05
0.00447816
1.10121e-06
-4.13909e-05
0.00449973
5.98968e-06
-5.34222e-05
2.41929e-05
-5.38189e-05
0.004516
0.00331166
-0.000469325
-5.69629e-06
0.00382405
-0.000359502
-7.64334e-05
0.00410899
-0.000197312
-4.38602e-05
0.00429072
-9.56292e-05
-4.23712e-05
0.00437241
4.22263e-08
-4.07784e-05
0.00442313
2.60621e-05
-3.83411e-05
0.00445762
4.49134e-05
-3.91658e-05
0.00447883
6.2718e-05
-4.14142e-05
0.00450153
9.02551e-05
-5.34846e-05
0.000114483
-5.4017e-05
0.00451928
0.00330599
-0.00100471
3.01855e-05
0.00374644
-0.00073468
-3.26345e-05
0.00395532
-0.000415761
5.19248e-06
0.00407984
-0.000235906
7.59565e-06
0.00413022
-7.2437e-05
1.10507e-05
0.00416439
-3.74423e-05
1.46687e-05
0.00418946
-5.4281e-06
1.26327e-05
0.00420796
3.07926e-05
6.7156e-06
0.00424079
6.46989e-05
-3.64129e-06
7.58613e-05
-3.57328e-06
0.00428656
0.00323067
-0.00128757
-5.83911e-05
0.0035124
-0.00076574
-0.000125333
0.00359365
-0.000306041
-9.36708e-05
0.00362894
-7.98638e-05
-9.57646e-05
0.00363932
0.00010353
-9.31747e-05
0.00365085
0.00013256
-9.07646e-05
0.00366331
0.000165345
-9.16179e-05
0.00368048
0.000201496
-9.39343e-05
0.00370021
0.000257286
-0.000106157
0.00028205
-0.000107051
0.00370812
0.00304246
-0.00166621
8.35803e-05
0.0030616
-0.000840334
2.77242e-05
0.00297263
-0.00034512
6.22353e-05
0.00291448
-0.000152944
6.56112e-05
0.00289563
-1.34042e-05
6.78885e-05
0.00289187
-4.37908e-06
7.03513e-05
0.00289756
2.04408e-05
6.96069e-05
0.00291616
4.78931e-05
6.74996e-05
0.00297954
7.43477e-05
5.97786e-05
7.57725e-05
6.00659e-05
0.00306569
0.00251824
-0.00110347
-0.00012497
0.0022307
-0.000160878
-0.000195957
0.00204345
0.000170167
-0.0001644
0.00194882
0.000269598
-0.000163957
0.00193349
0.000324594
-0.000161332
0.001925
0.000322052
-0.000158971
0.00192909
0.000335969
-0.000159809
0.00195594
0.000345183
-0.000162071
0.00198184
0.000397046
-0.0001743
0.0003971
-0.000175251
0.00201102
0.00135883
0.000184356
0.000955848
0.000121055
0.000810826
0.000157598
0.000763876
0.000158275
0.000767023
0.000160724
0.000762797
0.000163139
0.000774033
0.000162366
0.0007988
0.000160208
0.000898615
0.000148616
0.000148792
0.000998132
0.00142291
0.00211688
-0.00052672
0.000752093
0.00108357
-0.000291697
0.000659481
0.000660249
-0.000409768
0.000596878
0.000582486
-0.000361604
0.000584001
0.000544305
-0.000370702
0.000561716
0.00054655
-0.000361129
0.000539107
0.00053477
-0.000349783
0.000513266
0.000526497
-0.000340453
0.000593473
0.000380724
-0.000312249
0.000309013
-0.000312291
0.000745552
0.00253674
0.00219273
9.49683e-05
0.00194099
0.00112504
0.000358315
0.00181444
0.000371029
0.000244892
0.00170499
0.000234016
0.000293992
0.00166793
0.000135126
0.000284901
0.001628
0.000132934
0.000294581
0.00157902
0.000117762
0.000306181
0.00152992
9.79201e-05
0.000315635
0.00137763
1.31082e-05
0.000345649
1.10102e-05
0.000346837
0.00115375
0.00321711
0.0021196
-0.000230464
0.00294552
0.00144241
-1.809e-05
0.00283313
0.000635722
-0.000135345
0.00272676
0.000495684
-8.97053e-05
0.00267814
0.000350195
-9.85543e-05
0.00263473
0.000335695
-8.89995e-05
0.00257874
0.000320797
-7.74338e-05
0.00251724
0.000294924
-6.80139e-05
0.00240319
0.000226291
-3.93376e-05
0.00014073
-4.03974e-05
0.00237387
0.00345566
0.00144342
-6.25015e-06
0.00352045
0.000997733
0.000254585
0.00356771
0.000397901
0.000142478
0.00353417
0.000237613
0.000193863
0.00349571
0.000110452
0.000185023
0.00345619
9.00623e-05
0.000194396
0.00340142
7.7779e-05
0.000206174
0.00333206
5.47667e-05
0.000215612
0.00319843
8.35829e-06
0.000245486
-1.79187e-06
0.000245879
0.00298826
0.00365878
0.00077898
-0.000133556
0.00392504
0.000612774
8.60718e-05
0.00405391
0.000314374
-3.29272e-05
0.00407252
0.000196783
1.59064e-05
0.00405346
0.000134056
6.48925e-06
0.0040236
0.000118722
1.58668e-05
0.00397594
0.000110465
2.76052e-05
0.00390576
9.4657e-05
3.70036e-05
0.00377036
7.39444e-05
6.61388e-05
5.24396e-05
6.5398e-05
0.00364701
0.00367924
-3.09297e-08
-7.48535e-05
0.00404943
1.75546e-08
0.00016613
0.00426494
-1.00821e-08
5.36751e-05
0.00433359
6.88077e-08
0.000101279
0.00433336
-2.79294e-08
9.35658e-05
0.00431072
2.18544e-07
0.000102796
0.00426768
-2.93013e-07
0.000114638
0.00419651
3.9092e-07
0.000124044
0.00406352
-8.95466e-08
0.000153601
6.52273e-06
0.000153294
0.00390233
0.00367923
-0.000779037
-7.48539e-05
0.00404943
-0.000612741
0.000166131
0.00426494
-0.000314393
5.36721e-05
0.0043336
-0.000196687
0.000101286
0.00433335
-0.000134097
9.35642e-05
0.00431078
-0.00011835
0.000102799
0.00426762
-0.000110933
0.000114633
0.00419654
-9.39984e-05
0.000124058
0.00406276
-7.33878e-05
0.000153592
-4.18057e-05
0.000153372
0.0039037
0.00365878
-0.00144347
-0.000133555
0.00392503
-0.000997692
8.60704e-05
0.00405391
-0.000397925
-3.29301e-05
0.00407253
-0.000237494
1.59076e-05
0.0040535
-0.00011052
6.49002e-06
0.00402365
-8.97023e-05
1.58667e-05
0.00397594
-7.8198e-05
2.76105e-05
0.00390578
-5.41283e-05
3.69995e-05
0.00376997
-7.37637e-06
6.61555e-05
9.68411e-06
6.53474e-05
0.00364956
0.00345565
-0.00211964
-6.25041e-06
0.00352044
-0.00144237
0.000254587
0.0035677
-0.000635742
0.000142484
0.0035342
-0.000495603
0.000193863
0.00349571
-0.000350233
0.000185021
0.00345632
-0.000335474
0.0001944
0.00340132
-0.000320989
0.000206171
0.00333218
-0.000294554
0.000215631
0.00319759
-0.000224429
0.000245484
-0.000137136
0.000246012
0.00299135
0.00321709
-0.00219276
-0.000230463
0.00294551
-0.00112501
-1.80904e-05
0.00283311
-0.000371052
-0.000135337
0.00272679
-0.000233974
-8.97074e-05
0.00267815
-0.000135157
-9.85531e-05
0.00263483
-0.000132795
-8.89996e-05
0.00257873
-0.000117858
-7.74273e-05
0.00251735
-9.76611e-05
-6.80178e-05
0.00240401
-1.19903e-05
-3.93127e-05
-9.53958e-06
-4.0449e-05
0.00237693
0.00253672
-0.00211689
9.49683e-05
0.00194099
-0.00108357
0.000358316
0.00181442
-0.000660252
0.000244888
0.00170501
-0.000582482
0.000293994
0.00166791
-0.000544286
0.0002849
0.00162813
-0.000546568
0.000294585
0.00157898
-0.0005347
0.000306178
0.0015301
-0.00052651
0.000315657
0.0013784
-0.000380218
0.000345632
-0.000308868
0.000346999
0.00115548
0.0014229
-0.00052672
0.000752092
-0.000291698
0.000659476
-0.00040977
0.000596879
-0.000361606
0.000584015
-0.000370698
0.000561721
-0.000361135
0.000539153
-0.000349766
0.000513328
-0.000340477
0.000593908
-0.000312182
-0.000312396
0.000746228
0.00058856
0.00172008
0.000500581
-0.000203717
0.000457102
-0.000366275
0.000454297
-0.000358797
0.000451719
-0.000368125
0.000463356
-0.000372765
0.000466388
-0.000352815
0.000486967
-0.000361031
0.0004858
-0.000311082
-0.000244706
0.000418215
0.00177984
0.00286654
0.00154709
0.000387347
0.00141283
1.24165e-05
0.00142357
-7.55383e-05
0.0014075
-6.71515e-05
0.00143439
-0.000105082
0.00144984
-6.20761e-05
0.00148879
-8.43476e-05
0.00157329
-4.99353e-05
-5.30825e-05
0.0017285
0.00275999
0.0027089
0.00270055
0.000428696
0.00259068
-1.48338e-05
0.00260837
-0.000182941
0.00259911
-0.000156448
0.00263008
-0.000225054
0.00266518
-0.000174604
0.00271438
-0.000201569
0.00281574
-0.000190627
-0.000126779
0.00284903
0.00348383
0.00205052
0.00360602
0.000561092
0.00354801
0.000187519
0.00356778
-8.98358e-06
0.00358429
1.20577e-05
0.00361302
-5.93807e-05
0.00366195
-1.7363e-05
0.00371627
-4.02829e-05
0.00381138
-4.02474e-05
-6.85423e-06
0.00393734
0.00368449
0.00106475
0.0040474
0.000284255
0.00412723
7.52006e-05
0.00417402
-4.04213e-05
0.00422082
-2.82516e-05
0.00424929
-7.19877e-05
0.00430923
-4.96898e-05
0.00436784
-6.18917e-05
0.00445779
-6.40553e-05
-3.65859e-05
0.00455292
0.00382188
1.7878e-08
0.00427225
1.1833e-08
0.00440105
1.52361e-08
0.00446256
4.14927e-08
0.00452777
1.00927e-07
0.00455843
1.54179e-07
0.00462279
5.8848e-07
0.00468417
7.75848e-07
0.00477051
3.20013e-06
8.48297e-06
0.00487873
0.00382189
-0.00106471
0.00427226
-0.000284228
0.00440106
-7.5174e-05
0.00446257
4.04901e-05
0.00452781
2.84282e-05
0.00455845
7.2305e-05
0.00462297
5.07073e-05
0.0046844
6.34018e-05
0.00477167
6.95174e-05
5.29202e-05
0.0048806
0.0036845
-0.0020505
0.00404742
-0.00056107
0.00412726
-0.000187464
0.00417406
9.03112e-06
0.0042209
-1.19224e-05
0.00424946
5.96077e-05
0.00430963
1.8145e-05
0.00436865
4.13868e-05
0.00446029
4.40327e-05
2.04522e-05
0.00455811
0.00348384
-0.00270889
0.00360604
-0.000428678
0.00354804
1.48466e-05
0.00356782
0.000182984
0.0035844
0.000156521
0.00361319
0.000225221
0.0036625
0.000175005
0.00371727
0.000202244
0.00381461
0.000192173
0.000134798
0.00394628
0.00276
-0.00286654
0.00270057
-0.000387339
0.0025907
-1.24398e-05
0.00260842
7.55569e-05
0.0025992
6.71825e-05
0.00263028
0.000105146
0.00266561
6.22381e-05
0.00271522
8.46238e-05
0.00281799
5.00895e-05
5.86554e-05
0.00285368
0.00177984
-0.00172008
0.0015471
0.00020372
0.00141284
0.000366282
0.00142359
0.000358805
0.00140755
0.000368121
0.00143447
0.00037282
0.0014501
0.000352783
0.00148921
0.000361166
0.00157419
0.000310748
0.000245316
0.00173452
0.00058856
0.000500583
0.000457106
0.000454306
0.000451728
0.000463413
0.00046643
0.000487119
0.000485685
0.000418605
0.000535868
-0.00377843
0.00366103
0.000496741
-0.00351659
0.00355572
0.000495099
-0.003466
0.00346764
0.000488618
-0.00344643
0.0034529
0.000489678
-0.00345053
0.00344946
0.000488171
-0.00344784
0.00344934
0.000488685
-0.00345283
0.00345231
0.00048832
-0.00345448
0.00345484
0.000488506
-0.00345839
0.0034582
0.000488429
-0.0034612
0.00346128
0.000488502
-0.00346464
0.00346456
0.0004885
-0.00346774
0.00346774
0.00048854
-0.003471
0.00347096
0.000488557
-0.00347416
0.00347414
0.000488587
-0.00347736
0.00347732
0.000488611
-0.0034805
0.00348048
0.000488638
-0.00348365
0.00348362
0.000488662
-0.00348678
0.00348675
0.000488687
-0.00348991
0.00348987
0.000488712
-0.00349302
0.00349298
0.000488739
-0.00349609
0.00349607
0.000488768
-0.00349915
0.00349913
0.000488793
-0.00350221
0.00350218
0.000488815
-0.00350527
0.00350523
0.000488834
-0.00350834
0.00350828
0.00048886
-0.00351137
0.00351132
0.000488891
-0.00351432
0.00351431
0.000488932
-0.00351723
0.00351725
0.00048896
-0.00352014
0.00352015
0.000488983
-0.00352315
0.0035231
0.000488971
-0.00352621
0.00352609
0.000488982
-0.0035294
0.00352923
0.000488961
-0.00353229
0.0035322
0.00048905
-0.00353531
0.00353534
0.000489013
-0.00353746
0.00353777
0.00048914
-0.00354073
0.00354111
0.000488611
-0.00354289
0.00354375
0.000487739
-0.00354841
0.0035494
0.000497177
-0.00357597
0.00356613
-0.00363237
0.00357902
0.00157152
-0.00178313
-0.00184489
0.00147887
-0.00144088
-0.00198297
0.00146546
-0.00137225
-0.00208041
0.00145483
-0.00133572
-0.00210013
0.00145397
-0.00134106
-0.00210866
0.00145214
-0.00133272
-0.00211333
0.00145233
-0.00133808
-0.00211499
0.001452
-0.00133725
-0.00211695
0.00145214
-0.0013405
-0.00211809
0.00145211
-0.00134175
-0.00211947
0.0014522
-0.00134416
-0.00212063
0.00145224
-0.00134597
-0.00212186
0.00145231
-0.0013481
-0.00212303
0.00145236
-0.00135006
-0.00212422
0.00145242
-0.0013521
-0.00212538
0.00145248
-0.00135408
-0.00212654
0.00145254
-0.00135609
-0.00212768
0.0014526
-0.00135809
-0.00212882
0.00145266
-0.00136008
-0.00212995
0.00145271
-0.00136207
-0.00213107
0.00145278
-0.00136403
-0.00213218
0.00145284
-0.001366
-0.00213327
0.0014529
-0.00136797
-0.00213436
0.00145295
-0.00136996
-0.00213545
0.001453
-0.00137194
-0.00213654
0.00145305
-0.00137389
-0.00213761
0.00145312
-0.00137578
-0.00213866
0.00145322
-0.00137766
-0.00213968
0.0014533
-0.00137956
-0.00214068
0.00145336
-0.00138159
-0.00214171
0.00145334
-0.00138363
-0.00214277
0.00145331
-0.00138574
-0.00214386
0.00145329
-0.00138757
-0.00214488
0.00145339
-0.00138947
-0.0021459
0.00145347
-0.00139086
-0.00214648
0.00145353
-0.00139304
-0.00214732
0.00145265
-0.00139563
-0.00214611
0.00145021
-0.00139906
-0.00214671
0.00145913
-0.00145651
-0.00212867
-0.00148215
-0.00212336
0.00264394
-0.00254047
0.000916293
0.00251481
-0.00211729
0.00080561
0.00248737
-0.00205413
0.000709261
0.00247454
-0.00201357
0.000690643
0.00247078
-0.00202031
0.000682957
0.00246924
-0.00201044
0.000679226
0.00246875
-0.00201604
0.000678406
0.00246861
-0.00201447
0.000677316
0.00246859
-0.00201753
0.000676998
0.00246864
-0.00201829
0.000676446
0.00246869
-0.00202035
0.000676097
0.00246876
-0.00202174
0.000675662
0.00246882
-0.00202349
0.000675279
0.00246889
-0.00202504
0.000674868
0.00246896
-0.00202668
0.000674468
0.00246903
-0.00202826
0.000674058
0.0024691
-0.00202985
0.000673649
0.00246917
-0.00203143
0.000673235
0.00246923
-0.00203302
0.000672819
0.00246929
-0.00203458
0.000672399
0.00246937
-0.00203612
0.000671976
0.00246945
-0.00203766
0.00067155
0.00246952
-0.0020392
0.000671122
0.00246957
-0.00204076
0.00067069
0.00246961
-0.00204231
0.000670254
0.00246967
-0.00204382
0.000669815
0.00246976
-0.00204526
0.000669373
0.00246989
-0.0020467
0.000668931
0.00247
-0.00204816
0.000668486
0.00247005
-0.00204974
0.00066804
0.00247
-0.00205133
0.000667584
0.00246992
-0.00205299
0.000667132
0.00246986
-0.00205435
0.000666675
0.00246999
-0.00205578
0.000666249
0.00247012
-0.00205669
0.000665919
0.00247027
-0.00205838
0.000665663
0.00246881
-0.00206055
0.000666687
0.00246558
-0.00206296
0.000667315
0.00244547
-0.00212173
0.000685005
-0.00216679
0.000688287
0.00353907
-0.001162
-0.0009256
0.00338498
-0.000913844
-0.00105361
0.00334589
-0.000860286
-0.00115145
0.00333222
-0.000827386
-0.00117019
0.00332588
-0.00083329
-0.00117815
0.00332477
-0.000825131
-0.00118191
0.00332362
-0.000829622
-0.00118283
0.00332367
-0.000828166
-0.00118395
0.00332347
-0.000830514
-0.00118431
0.00332356
-0.000830964
-0.00118489
0.00332355
-0.000832497
-0.00118526
0.00332362
-0.000833472
-0.00118571
0.00332365
-0.000834748
-0.0011861
0.0033237
-0.000835864
-0.0011865
0.00332375
-0.00083706
-0.00118689
0.0033238
-0.000838206
-0.00118728
0.00332385
-0.000839374
-0.00118766
0.0033239
-0.000840531
-0.00118804
0.00332394
-0.000841692
-0.00118841
0.00332398
-0.000842841
-0.00118878
0.00332404
-0.000843979
-0.00118914
0.0033241
-0.000845115
-0.0011895
0.00332415
-0.000846258
-0.00118985
0.00332418
-0.000847419
-0.0011902
0.0033242
-0.000848568
-0.00119055
0.00332423
-0.000849696
-0.00119089
0.00332431
-0.000850775
-0.00119122
0.00332443
-0.00085186
-0.00119154
0.00332455
-0.00085296
-0.00119185
0.00332457
-0.00085416
-0.00119216
0.00332447
-0.000855361
-0.00119248
0.00332431
-0.000856607
-0.00119283
0.0033242
-0.000857633
-0.00119314
0.0033243
-0.000858699
-0.00119345
0.00332448
-0.000859435
-0.0011935
0.00332465
-0.000860705
-0.00119362
0.00332287
-0.000862536
-0.00119209
0.00331942
-0.000871982
-0.00119122
0.00329044
-0.000925447
-0.00117268
-0.000944964
-0.00116559
0.00414974
-0.000747488
5.57177e-05
0.00398067
-0.000721667
-5.29124e-05
0.00393325
-0.000636654
-0.00015317
0.00391938
-0.000625656
-0.000171681
0.00391113
-0.000627382
-0.000180028
0.00391043
-0.000624583
-0.000183963
0.00390875
-0.00062574
-0.000185258
0.00390896
-0.000625027
-0.000186669
0.00390859
-0.000625511
-0.000187388
0.00390872
-0.000625395
-0.000188291
0.00390864
-0.000625624
-0.000189012
0.0039087
-0.000625676
-0.000189801
0.0039087
-0.000625826
-0.000190541
0.00390872
-0.000625926
-0.000191302
0.00390874
-0.000626054
-0.00019205
0.00390876
-0.000626166
-0.000192802
0.00390879
-0.000626287
-0.000193549
0.0039088
-0.000626406
-0.000194298
0.00390882
-0.000626527
-0.000195045
0.00390883
-0.000626646
-0.000195793
0.00390886
-0.000626762
-0.000196538
0.0039089
-0.000626879
-0.00019728
0.00390893
-0.000626999
-0.000198021
0.00390893
-0.000627126
-0.000198763
0.00390891
-0.000627251
-0.000199509
0.0039089
-0.00062737
-0.000200254
0.00390897
-0.000627474
-0.000200993
0.00390907
-0.000627581
-0.000201721
0.00390917
-0.000627694
-0.000202445
0.00390916
-0.000627841
-0.000203176
0.00390901
-0.000627988
-0.000203922
0.00390879
-0.000628152
-0.000204684
0.00390863
-0.000628244
-0.000205421
0.0039087
-0.000628351
-0.000206151
0.0039089
-0.000628353
-0.000206656
0.00390909
-0.000628526
-0.000207216
0.00390708
-0.000628919
-0.000206198
0.00390359
-0.000690134
-0.000203533
0.00385687
-0.000727294
-0.000185023
-0.000746893
-0.00018126
0.00445253
1.2913e-06
-0.00039176
0.00427769
4.63875e-06
-0.000517462
0.00422629
1.14621e-06
-0.000612545
0.00421245
1.52802e-06
-0.000631725
0.00420325
1.51493e-06
-0.000639723
0.00420276
1.49172e-06
-0.000643639
0.00420082
1.52193e-06
-0.000644581
0.0042011
1.50856e-06
-0.000645786
0.00420065
1.51925e-06
-0.000646199
0.00420079
1.51534e-06
-0.000646843
0.00420068
1.51904e-06
-0.000647275
0.00420072
1.51856e-06
-0.000647787
0.00420069
1.52027e-06
-0.000648242
0.00420071
1.52083e-06
-0.000648719
0.0042007
1.52199e-06
-0.000649179
0.00420071
1.52283e-06
-0.000649644
0.00420072
1.52387e-06
-0.000650101
0.00420072
1.52486e-06
-0.000650558
0.00420071
1.5259e-06
-0.000651012
0.00420071
1.52687e-06
-0.000651464
0.00420072
1.52782e-06
-0.000651913
0.00420074
1.52882e-06
-0.000652358
0.00420075
1.52996e-06
-0.000652799
0.00420073
1.53117e-06
-0.000653239
0.00420069
1.53228e-06
-0.000653682
0.00420067
1.53317e-06
-0.000654123
0.00420072
1.53392e-06
-0.000654558
0.00420081
1.53478e-06
-0.00065498
0.0042009
1.53613e-06
-0.000655395
0.00420087
1.53785e-06
-0.000655812
0.00420069
1.53974e-06
-0.000656242
0.00420043
1.54087e-06
-0.000656687
0.00420024
1.54132e-06
-0.000657113
0.0042003
1.5404e-06
-0.00065753
0.0042005
1.53945e-06
-0.00065773
0.0042007
1.53845e-06
-0.000657966
0.00419858
1.5307e-06
-0.000656605
0.00419514
1.50736e-06
-0.000659008
0.00414516
1.33418e-06
-0.000640854
1.43613e-06
-0.000635453
0.00445412
0.000749106
-0.00039081
0.00427986
0.000730642
-0.000516106
0.00422837
0.000638132
-0.00061129
0.00421455
0.000627573
-0.000630429
0.00420534
0.000629288
-0.000638431
0.00420485
0.000626478
-0.000642353
0.0042029
0.000627659
-0.000643297
0.00420318
0.000626935
-0.000644507
0.00420273
0.000627426
-0.000644923
0.00420286
0.000627306
-0.000645571
0.00420275
0.000627538
-0.000646007
0.00420279
0.000627589
-0.000646523
0.00420276
0.00062774
-0.000646982
0.00420277
0.00062784
-0.000647463
0.00420276
0.000627968
-0.000647927
0.00420277
0.000628081
-0.000648395
0.00420277
0.000628202
-0.000648856
0.00420277
0.000628321
-0.000649317
0.00420276
0.000628443
-0.000649775
0.00420275
0.000628562
-0.000650232
0.00420276
0.00062868
-0.000650684
0.00420278
0.000628797
-0.000651132
0.00420279
0.000628919
-0.000651577
0.00420276
0.000629047
-0.000652022
0.00420272
0.000629173
-0.000652468
0.0042027
0.000629292
-0.000652913
0.00420274
0.000629397
-0.000653352
0.00420284
0.000629506
-0.000653777
0.00420292
0.00062962
-0.000654196
0.00420289
0.000629769
-0.000654617
0.00420271
0.000629919
-0.00065505
0.00420244
0.000630084
-0.0006555
0.00420225
0.000630177
-0.000655929
0.00420231
0.000630283
-0.00065635
0.0042025
0.000630285
-0.000656553
0.00420271
0.000630457
-0.000656794
0.00420058
0.000630841
-0.000655435
0.00419713
0.00069194
-0.000657818
0.00414711
0.000728747
-0.000639663
0.000748595
-0.00063427
0.00415429
0.00116489
5.54135e-05
0.00398664
0.000919791
-5.2931e-05
0.00393908
0.00086143
-0.000153124
0.00392522
0.000829048
-0.000171647
0.00391696
0.000834965
-0.000179992
0.00391624