/*--------------------------------*- C++ -*----------------------------------*\
  =========                 |
  \\      /  F ield         | OpenFOAM: The Open Source CFD Toolbox
   \\    /   O peration     | Website:  https://openfoam.org
    \\  /    A nd           | Version:  7
     \\/     M anipulation  |
\*---------------------------------------------------------------------------*/
FoamFile
{
    version     2.0;
    format      ascii;
    class       volScalarField;
    location    "0.07";
    object      alphat;
}
// * * * * * * * * * * * * * * * * * * * * * * * * * * * * * * * * * * * * * //

dimensions      [1 -1 -1 0 0 0 0];

internalField   nonuniform List<scalar> 
27000
(
0.00219323
0.00200755
0.00198673
0.0019833
0.00198186
0.00198079
0.00197979
0.00197908
0.0019785
0.00197806
0.00197773
0.00197748
0.00197731
0.0019772
0.00197716
0.00197717
0.00197722
0.00197731
0.00197743
0.00197756
0.0019777
0.00197786
0.00197804
0.00197823
0.00197842
0.00197861
0.00197884
0.00197906
0.00197924
0.00197943
0.00197973
0.00198001
0.00198012
0.00198027
0.00198071
0.00198105
0.00198096
0.00198082
0.00198141
0.00198214
0.00168106
0.00138123
0.00132909
0.00132606
0.00132505
0.0013254
0.0013252
0.00132529
0.00132521
0.00132522
0.00132518
0.00132517
0.00132516
0.00132518
0.0013252
0.00132524
0.00132528
0.00132534
0.00132539
0.00132546
0.00132552
0.00132559
0.00132567
0.00132574
0.00132582
0.00132591
0.001326
0.00132609
0.00132617
0.00132626
0.00132637
0.00132646
0.00132646
0.00132651
0.00132672
0.00132681
0.00132668
0.00132658
0.00132693
0.00132716
0.00167678
0.00137434
0.00132305
0.00132011
0.0013189
0.00131901
0.00131851
0.00131839
0.00131808
0.0013179
0.00131767
0.0013175
0.00131732
0.00131717
0.00131701
0.00131688
0.00131676
0.00131666
0.00131656
0.00131648
0.0013164
0.00131633
0.00131627
0.00131622
0.00131617
0.00131614
0.0013161
0.00131607
0.00131606
0.00131605
0.00131603
0.00131602
0.00131599
0.00131598
0.00131602
0.00131599
0.0013159
0.00131581
0.00131601
0.00131592
0.00167743
0.00137696
0.00132518
0.00132209
0.00132099
0.00132117
0.00132083
0.0013208
0.0013206
0.00132049
0.00132034
0.00132021
0.00132007
0.00131996
0.00131984
0.00131972
0.00131961
0.0013195
0.0013194
0.0013193
0.0013192
0.00131911
0.00131902
0.00131893
0.00131885
0.00131878
0.00131871
0.00131865
0.00131858
0.00131853
0.0013185
0.00131845
0.0013184
0.00131837
0.00131835
0.00131831
0.00131823
0.00131818
0.00131823
0.0013182
0.00167758
0.00137564
0.00132441
0.00132139
0.00132031
0.00132043
0.00132
0.00131991
0.00131965
0.0013195
0.0013193
0.00131914
0.00131897
0.00131883
0.00131868
0.00131854
0.00131841
0.00131829
0.00131817
0.00131805
0.00131795
0.00131784
0.00131774
0.00131765
0.00131756
0.00131748
0.00131739
0.00131731
0.00131725
0.0013172
0.00131713
0.00131706
0.00131702
0.00131699
0.00131692
0.00131685
0.00131682
0.00131679
0.00131673
0.00131661
0.00167758
0.00137564
0.00132441
0.00132139
0.00132031
0.00132043
0.00132
0.00131991
0.00131965
0.0013195
0.0013193
0.00131914
0.00131897
0.00131883
0.00131868
0.00131854
0.00131841
0.00131829
0.00131817
0.00131805
0.00131795
0.00131784
0.00131774
0.00131765
0.00131756
0.00131748
0.00131739
0.00131731
0.00131725
0.0013172
0.00131713
0.00131706
0.00131702
0.00131699
0.00131692
0.00131685
0.00131682
0.00131679
0.00131673
0.00131661
0.00167743
0.00137696
0.00132518
0.00132209
0.00132099
0.00132117
0.00132083
0.0013208
0.0013206
0.00132049
0.00132034
0.00132021
0.00132007
0.00131996
0.00131984
0.00131972
0.00131961
0.0013195
0.0013194
0.0013193
0.0013192
0.00131911
0.00131902
0.00131893
0.00131885
0.00131878
0.00131871
0.00131865
0.00131858
0.00131853
0.0013185
0.00131845
0.0013184
0.00131837
0.00131835
0.00131831
0.00131823
0.00131818
0.00131823
0.0013182
0.00167678
0.00137434
0.00132305
0.00132011
0.0013189
0.00131901
0.00131851
0.00131839
0.00131808
0.0013179
0.00131767
0.0013175
0.00131732
0.00131717
0.00131701
0.00131688
0.00131676
0.00131666
0.00131656
0.00131648
0.0013164
0.00131633
0.00131627
0.00131622
0.00131617
0.00131614
0.0013161
0.00131607
0.00131606
0.00131605
0.00131603
0.00131602
0.00131599
0.00131597
0.00131602
0.00131599
0.0013159
0.00131581
0.00131601
0.00131592
0.00168106
0.00138123
0.00132909
0.00132606
0.00132505
0.0013254
0.0013252
0.00132529
0.00132521
0.00132522
0.00132518
0.00132517
0.00132516
0.00132518
0.0013252
0.00132524
0.00132528
0.00132534
0.00132539
0.00132546
0.00132552
0.00132559
0.00132567
0.00132574
0.00132582
0.00132591
0.001326
0.00132609
0.00132617
0.00132626
0.00132637
0.00132646
0.00132646
0.00132651
0.00132672
0.00132681
0.00132668
0.00132658
0.00132693
0.00132716
0.00219323
0.00200755
0.00198673
0.0019833
0.00198186
0.00198079
0.00197979
0.00197908
0.0019785
0.00197806
0.00197773
0.00197748
0.00197731
0.0019772
0.00197716
0.00197717
0.00197722
0.00197731
0.00197743
0.00197756
0.0019777
0.00197786
0.00197804
0.00197823
0.00197842
0.00197861
0.00197884
0.00197906
0.00197924
0.00197943
0.00197973
0.00198001
0.00198012
0.00198027
0.0019807
0.00198105
0.00198096
0.00198082
0.0019814
0.00198214
0.00107855
0.00119697
0.0012087
0.00122001
0.00122549
0.00123129
0.00123489
0.00123786
0.00123972
0.00124105
0.00124186
0.00124242
0.0012428
0.00124312
0.00124341
0.00124371
0.001244
0.00124427
0.00124451
0.0012447
0.00124485
0.00124497
0.00124509
0.0012452
0.00124527
0.00124534
0.00124545
0.00124552
0.00124551
0.00124556
0.00124576
0.00124591
0.00124585
0.00124591
0.0012463
0.00124655
0.00124626
0.00124601
0.00124661
0.00124739
0.00107315
0.00119786
0.00121024
0.00122091
0.00122677
0.00123305
0.00123764
0.00124172
0.0012449
0.00124755
0.00124968
0.00125146
0.00125295
0.00125424
0.00125538
0.00125643
0.0012574
0.00125831
0.00125917
0.00125998
0.00126072
0.00126138
0.00126199
0.00126259
0.00126314
0.00126361
0.00126409
0.00126462
0.00126509
0.0012654
0.00126579
0.00126643
0.00126694
0.00126708
0.00126743
0.00126833
0.00126903
0.00126871
0.00126853
0.00126957
0.00106331
0.00118811
0.00119473
0.00120588
0.00120963
0.00121578
0.00121981
0.0012241
0.00122751
0.00123069
0.00123338
0.00123578
0.00123786
0.00123971
0.00124136
0.00124284
0.00124419
0.00124542
0.00124655
0.00124759
0.00124856
0.00124947
0.0012503
0.00125106
0.00125178
0.00125246
0.00125306
0.00125361
0.00125415
0.00125465
0.00125506
0.00125546
0.00125588
0.00125626
0.00125658
0.00125689
0.0012573
0.00125765
0.00125799
0.00125807
0.00106987
0.00119314
0.00120587
0.00121697
0.00122354
0.00123079
0.00123654
0.00124199
0.00124667
0.00125091
0.00125464
0.001258
0.00126099
0.00126369
0.00126611
0.00126829
0.00127026
0.00127205
0.00127367
0.00127515
0.00127649
0.00127771
0.00127882
0.00127983
0.00128075
0.00128158
0.00128234
0.00128303
0.00128363
0.00128417
0.00128468
0.00128513
0.00128552
0.00128587
0.00128622
0.00128656
0.00128685
0.00128707
0.00128736
0.00128772
0.00106718
0.00119049
0.0012014
0.00121276
0.00121974
0.00122741
0.00123368
0.00123963
0.00124483
0.00124957
0.00125381
0.00125764
0.00126109
0.00126421
0.00126703
0.00126959
0.00127192
0.00127404
0.00127598
0.00127776
0.00127938
0.00128088
0.00128225
0.00128351
0.00128467
0.00128574
0.00128671
0.0012876
0.00128842
0.00128918
0.00128985
0.00129045
0.00129102
0.00129158
0.00129206
0.00129247
0.00129291
0.00129337
0.00129377
0.00129407
0.00106718
0.00119049
0.0012014
0.00121276
0.00121974
0.00122741
0.00123368
0.00123963
0.00124483
0.00124957
0.00125381
0.00125764
0.00126109
0.00126421
0.00126703
0.00126959
0.00127192
0.00127404
0.00127598
0.00127776
0.00127938
0.00128088
0.00128225
0.00128351
0.00128467
0.00128574
0.00128671
0.0012876
0.00128842
0.00128918
0.00128985
0.00129045
0.00129102
0.00129158
0.00129206
0.00129247
0.00129291
0.00129337
0.00129377
0.00129407
0.00106987
0.00119314
0.00120587
0.00121697
0.00122354
0.00123079
0.00123654
0.00124199
0.00124667
0.00125091
0.00125464
0.001258
0.00126099
0.00126369
0.00126611
0.00126829
0.00127026
0.00127205
0.00127367
0.00127515
0.00127649
0.00127771
0.00127882
0.00127983
0.00128075
0.00128158
0.00128234
0.00128303
0.00128363
0.00128417
0.00128468
0.00128513
0.00128552
0.00128587
0.00128622
0.00128656
0.00128685
0.00128707
0.00128736
0.00128772
0.00106331
0.00118811
0.00119473
0.00120588
0.00120963
0.00121578
0.00121981
0.0012241
0.00122751
0.00123069
0.00123338
0.00123578
0.00123786
0.00123971
0.00124136
0.00124284
0.00124419
0.00124542
0.00124655
0.00124759
0.00124856
0.00124947
0.0012503
0.00125106
0.00125178
0.00125246
0.00125306
0.00125361
0.00125415
0.00125465
0.00125506
0.00125546
0.00125588
0.00125626
0.00125658
0.00125689
0.0012573
0.00125765
0.00125799
0.00125807
0.00107315
0.00119786
0.00121024
0.00122091
0.00122677
0.00123305
0.00123764
0.00124172
0.0012449
0.00124755
0.00124968
0.00125146
0.00125295
0.00125424
0.00125538
0.00125643
0.0012574
0.00125831
0.00125917
0.00125998
0.00126072
0.00126138
0.00126199
0.00126259
0.00126314
0.00126361
0.00126409
0.00126462
0.00126509
0.0012654
0.00126579
0.00126643
0.00126694
0.00126708
0.00126743
0.00126833
0.00126903
0.00126871
0.00126853
0.00126957
0.00107855
0.00119697
0.0012087
0.00122001
0.00122549
0.00123129
0.00123489
0.00123786
0.00123972
0.00124105
0.00124186
0.00124242
0.0012428
0.00124312
0.00124341
0.00124371
0.001244
0.00124427
0.00124451
0.0012447
0.00124485
0.00124497
0.00124509
0.0012452
0.00124527
0.00124534
0.00124545
0.00124552
0.00124551
0.00124556
0.00124576
0.00124591
0.00124585
0.00124591
0.0012463
0.00124655
0.00124626
0.00124601
0.00124661
0.00124739
0.000113071
0.000178999
0.000196675
0.000203431
0.000206343
0.000208009
0.000209315
0.000210276
0.000211145
0.000211826
0.000212428
0.000212903
0.000213305
0.000213617
0.000213867
0.000214052
0.000214188
0.000214279
0.000214338
0.000214368
0.000214376
0.000214368
0.000214346
0.00021431
0.000214266
0.000214214
0.000214156
0.00021409
0.00021402
0.000213951
0.000213885
0.000213818
0.000213752
0.000213705
0.00021367
0.000213629
0.000213578
0.000213543
0.000213528
0.000213511
9.01862e-05
0.000222844
0.000234592
0.000248543
0.00025002
0.000251736
0.000252676
0.000252897
0.000253191
0.000253154
0.000253137
0.00025291
0.000252792
0.000252608
0.000252506
0.000252407
0.00025237
0.000252355
0.00025238
0.000252422
0.000252485
0.000252556
0.000252639
0.000252733
0.000252831
0.000252935
0.000253052
0.000253166
0.00025327
0.000253375
0.000253482
0.000253576
0.000253651
0.000253743
0.000253845
0.000253923
0.000253953
0.000254014
0.000254126
0.000254221
8.7829e-05
0.000193458
0.000193914
0.000197664
0.00019709
0.000197328
0.000197763
0.000198328
0.000198835
0.0001993
0.00019972
0.000200096
0.000200441
0.000200756
0.000201052
0.000201328
0.00020159
0.000201839
0.000202078
0.000202307
0.000202527
0.000202738
0.000202941
0.000203136
0.000203325
0.000203506
0.000203679
0.000203845
0.000204007
0.000204159
0.0002043
0.000204437
0.00020457
0.000204698
0.00020481
0.000204922
0.000205032
0.000205148
0.000205243
0.000205323
8.75902e-05
0.000209391
0.00021535
0.000228644
0.000230048
0.000232077
0.000233122
0.000233447
0.00023391
0.00023395
0.000234027
0.000233911
0.000233843
0.000233679
0.000233576
0.000233452
0.000233373
0.000233302
0.000233263
0.000233238
0.000233233
0.000233238
0.000233256
0.000233283
0.000233319
0.00023336
0.000233408
0.000233457
0.000233503
0.000233542
0.000233583
0.000233629
0.00023367
0.000233689
0.000233712
0.000233757
0.000233792
0.000233791
0.000233774
0.000233842
8.73106e-05
0.000202195
0.000203135
0.000212962
0.00021454
0.000216606
0.000217579
0.00021779
0.000218108
0.00021804
0.000217987
0.000217685
0.000217465
0.000217139
0.000216892
0.000216634
0.000216442
0.000216278
0.000216166
0.000216085
0.000216039
0.000216015
0.000216011
0.000216022
0.000216046
0.000216079
0.000216117
0.00021616
0.000216203
0.000216239
0.000216265
0.000216295
0.000216332
0.000216353
0.000216354
0.000216365
0.00021641
0.000216424
0.000216388
0.000216365
8.73106e-05
0.000202195
0.000203135
0.000212962
0.00021454
0.000216606
0.000217579
0.00021779
0.000218108
0.00021804
0.000217987
0.000217685
0.000217465
0.000217139
0.000216892
0.000216634
0.000216442
0.000216278
0.000216166
0.000216085
0.000216039
0.000216015
0.000216011
0.000216022
0.000216046
0.000216079
0.000216117
0.00021616
0.000216203
0.000216239
0.000216265
0.000216295
0.000216332
0.000216353
0.000216354
0.000216364
0.00021641
0.000216424
0.000216388
0.000216365
8.75902e-05
0.000209391
0.00021535
0.000228644
0.000230048
0.000232077
0.000233122
0.000233447
0.00023391
0.00023395
0.000234027
0.000233911
0.000233843
0.000233679
0.000233576
0.000233452
0.000233373
0.000233302
0.000233263
0.000233238
0.000233233
0.000233238
0.000233256
0.000233283
0.000233319
0.00023336
0.000233408
0.000233457
0.000233503
0.000233542
0.000233583
0.000233629
0.00023367
0.000233689
0.000233712
0.000233757
0.000233792
0.000233791
0.000233774
0.000233842
8.7829e-05
0.000193458
0.000193914
0.000197664
0.00019709
0.000197328
0.000197763
0.000198328
0.000198835
0.0001993
0.00019972
0.000200096
0.000200441
0.000200756
0.000201052
0.000201328
0.00020159
0.000201839
0.000202078
0.000202307
0.000202527
0.000202738
0.000202941
0.000203136
0.000203325
0.000203506
0.000203679
0.000203845
0.000204007
0.000204159
0.0002043
0.000204437
0.00020457
0.000204698
0.00020481
0.000204922
0.000205032
0.000205148
0.000205243
0.000205323
9.01862e-05
0.000222844
0.000234592
0.000248543
0.00025002
0.000251736
0.000252676
0.000252897
0.000253191
0.000253154
0.000253137
0.00025291
0.000252792
0.000252608
0.000252506
0.000252407
0.00025237
0.000252355
0.00025238
0.000252422
0.000252485
0.000252556
0.000252639
0.000252733
0.000252831
0.000252935
0.000253052
0.000253166
0.00025327
0.000253375
0.000253482
0.000253576
0.000253651
0.000253743
0.000253845
0.000253924
0.000253953
0.000254014
0.000254126
0.000254221
0.000113071
0.000178999
0.000196675
0.000203431
0.000206343
0.000208009
0.000209315
0.000210276
0.000211145
0.000211826
0.000212428
0.000212903
0.000213305
0.000213617
0.000213867
0.000214052
0.000214188
0.000214279
0.000214338
0.000214368
0.000214376
0.000214368
0.000214346
0.00021431
0.000214266
0.000214214
0.000214156
0.00021409
0.00021402
0.000213951
0.000213885
0.000213818
0.000213752
0.000213705
0.00021367
0.000213629
0.000213578
0.000213543
0.000213528
0.000213511
9.80144e-06
2.64329e-05
3.82961e-05
4.95933e-05
5.69181e-05
6.23928e-05
6.61162e-05
6.8715e-05
7.05126e-05
7.17347e-05
7.2594e-05
7.31771e-05
7.35965e-05
7.38864e-05
7.41011e-05
7.42546e-05
7.4372e-05
7.44597e-05
7.45291e-05
7.45832e-05
7.46275e-05
7.46628e-05
7.46921e-05
7.47136e-05
7.4732e-05
7.47409e-05
7.47409e-05
7.47377e-05
7.473e-05
7.47157e-05
7.46911e-05
7.46589e-05
7.46211e-05
7.45779e-05
7.45293e-05
7.44778e-05
7.44263e-05
7.43744e-05
7.43187e-05
7.42602e-05
3.88588e-06
1.87607e-05
2.43284e-05
3.3006e-05
3.6973e-05
4.06876e-05
4.28606e-05
4.45714e-05
4.56642e-05
4.64543e-05
4.69732e-05
4.73159e-05
4.75348e-05
4.76652e-05
4.77415e-05
4.77785e-05
4.77951e-05
4.77955e-05
4.7792e-05
4.77821e-05
4.77728e-05
4.77649e-05
4.77598e-05
4.77572e-05
4.77577e-05
4.7761e-05
4.77675e-05
4.77751e-05
4.77829e-05
4.77911e-05
4.77994e-05
4.78072e-05
4.78161e-05
4.78252e-05
4.78338e-05
4.78424e-05
4.7851e-05
4.78609e-05
4.78736e-05
4.78915e-05
3.37037e-06
1.55536e-05
1.95102e-05
2.59753e-05
2.85651e-05
3.14895e-05
3.30919e-05
3.4567e-05
3.55303e-05
3.63221e-05
3.68814e-05
3.73153e-05
3.76329e-05
3.78722e-05
3.80504e-05
3.81833e-05
3.82835e-05
3.83586e-05
3.84161e-05
3.84597e-05
3.84941e-05
3.85207e-05
3.85419e-05
3.85596e-05
3.85725e-05
3.85836e-05
3.85921e-05
3.85965e-05
3.85989e-05
3.85973e-05
3.85923e-05
3.85861e-05
3.85775e-05
3.85643e-05
3.85471e-05
3.85293e-05
3.85125e-05
3.84914e-05
3.84645e-05
3.84417e-05
3.6986e-06
1.75007e-05
2.22205e-05
2.99739e-05
3.33529e-05
3.68451e-05
3.88155e-05
4.04435e-05
4.14791e-05
4.22495e-05
4.27564e-05
4.31003e-05
4.33215e-05
4.34535e-05
4.35264e-05
4.35583e-05
4.35574e-05
4.35472e-05
4.35229e-05
4.34909e-05
4.34573e-05
4.34228e-05
4.33894e-05
4.33573e-05
4.33269e-05
4.32979e-05
4.327e-05
4.32423e-05
4.32143e-05
4.31858e-05
4.31574e-05
4.31286e-05
4.30982e-05
4.30661e-05
4.30342e-05
4.30027e-05
4.29693e-05
4.29347e-05
4.29041e-05
4.28804e-05
3.49517e-06
1.65704e-05
2.08078e-05
2.78844e-05
3.08001e-05
3.41453e-05
3.59896e-05
3.75944e-05
3.86101e-05
3.93914e-05
3.99109e-05
4.02718e-05
4.05052e-05
4.06511e-05
4.07299e-05
4.0772e-05
4.07727e-05
4.07647e-05
4.07438e-05
4.07129e-05
4.06805e-05
4.0647e-05
4.06141e-05
4.05823e-05
4.05519e-05
4.05226e-05
4.04942e-05
4.04659e-05
4.04369e-05
4.04066e-05
4.03756e-05
4.03438e-05
4.03106e-05
4.02749e-05
4.02383e-05
4.02023e-05
4.01655e-05
4.01261e-05
4.00877e-05
4.00554e-05
3.49517e-06
1.65704e-05
2.08078e-05
2.78844e-05
3.08001e-05
3.41453e-05
3.59896e-05
3.75944e-05
3.86101e-05
3.93914e-05
3.99109e-05
4.02718e-05
4.05052e-05
4.06511e-05
4.07299e-05
4.0772e-05
4.07727e-05
4.07647e-05
4.07438e-05
4.07129e-05
4.06805e-05
4.0647e-05
4.06141e-05
4.05823e-05
4.05519e-05
4.05226e-05
4.04942e-05
4.04659e-05
4.04369e-05
4.04066e-05
4.03756e-05
4.03438e-05
4.03106e-05
4.02749e-05
4.02383e-05
4.02023e-05
4.01655e-05
4.01261e-05
4.00877e-05
4.00554e-05
3.6986e-06
1.75007e-05
2.22205e-05
2.99739e-05
3.33529e-05
3.68451e-05
3.88155e-05
4.04435e-05
4.14791e-05
4.22495e-05
4.27564e-05
4.31003e-05
4.33215e-05
4.34535e-05
4.35264e-05
4.35583e-05
4.35574e-05
4.35472e-05
4.35229e-05
4.34909e-05
4.34573e-05
4.34228e-05
4.33894e-05
4.33573e-05
4.33269e-05
4.32979e-05
4.327e-05
4.32423e-05
4.32143e-05
4.31858e-05
4.31574e-05
4.31286e-05
4.30982e-05
4.30661e-05
4.30342e-05
4.30027e-05
4.29693e-05
4.29347e-05
4.29041e-05
4.28804e-05
3.37037e-06
1.55536e-05
1.95102e-05
2.59753e-05
2.85651e-05
3.14895e-05
3.30919e-05
3.4567e-05
3.55303e-05
3.63221e-05
3.68814e-05
3.73153e-05
3.76329e-05
3.78722e-05
3.80504e-05
3.81833e-05
3.82835e-05
3.83586e-05
3.84161e-05
3.84597e-05
3.84941e-05
3.85207e-05
3.85419e-05
3.85596e-05
3.85725e-05
3.85836e-05
3.85921e-05
3.85965e-05
3.85989e-05
3.85973e-05
3.85923e-05
3.85861e-05
3.85775e-05
3.85643e-05
3.85471e-05
3.85293e-05
3.85125e-05
3.84914e-05
3.84645e-05
3.84417e-05
3.88588e-06
1.87607e-05
2.43284e-05
3.3006e-05
3.6973e-05
4.06876e-05
4.28606e-05
4.45714e-05
4.56642e-05
4.64543e-05
4.69732e-05
4.73159e-05
4.75348e-05
4.76652e-05
4.77415e-05
4.77785e-05
4.77951e-05
4.77955e-05
4.7792e-05
4.77821e-05
4.77728e-05
4.77649e-05
4.77598e-05
4.77572e-05
4.77577e-05
4.7761e-05
4.77675e-05
4.77751e-05
4.77829e-05
4.77911e-05
4.77994e-05
4.78072e-05
4.78161e-05
4.78252e-05
4.78338e-05
4.78424e-05
4.7851e-05
4.78609e-05
4.78736e-05
4.78915e-05
9.80143e-06
2.64329e-05
3.82961e-05
4.95932e-05
5.69182e-05
6.23928e-05
6.61162e-05
6.8715e-05
7.05126e-05
7.17347e-05
7.2594e-05
7.31771e-05
7.35965e-05
7.38864e-05
7.41011e-05
7.42545e-05
7.4372e-05
7.44597e-05
7.45291e-05
7.45832e-05
7.46275e-05
7.46628e-05
7.46921e-05
7.47136e-05
7.4732e-05
7.47409e-05
7.47409e-05
7.47377e-05
7.473e-05
7.47157e-05
7.46911e-05
7.46589e-05
7.46211e-05
7.45779e-05
7.45293e-05
7.44777e-05
7.44263e-05
7.43744e-05
7.43187e-05
7.42603e-05
7.77405e-06
1.78634e-05
2.86906e-05
3.81272e-05
4.56239e-05
5.13288e-05
5.57038e-05
5.89859e-05
6.14553e-05
6.32377e-05
6.45295e-05
6.54371e-05
6.60904e-05
6.65516e-05
6.6886e-05
6.71225e-05
6.7293e-05
6.74132e-05
6.75e-05
6.75624e-05
6.76088e-05
6.76432e-05
6.76703e-05
6.76903e-05
6.77075e-05
6.77196e-05
6.77262e-05
6.77306e-05
6.77309e-05
6.77289e-05
6.77248e-05
6.77177e-05
6.77073e-05
6.76938e-05
6.76794e-05
6.7665e-05
6.76514e-05
6.76393e-05
6.76292e-05
6.76214e-05
4.70673e-07
9.93914e-07
1.73969e-06
2.90992e-06
3.94357e-06
5.24628e-06
6.32741e-06
7.43197e-06
8.4263e-06
9.36645e-06
1.01976e-05
1.09375e-05
1.15804e-05
1.21492e-05
1.26569e-05
1.31157e-05
1.35252e-05
1.38823e-05
1.41882e-05
1.44514e-05
1.46838e-05
1.48937e-05
1.50858e-05
1.52585e-05
1.54088e-05
1.5537e-05
1.56437e-05
1.57369e-05
1.58225e-05
1.59044e-05
1.59834e-05
1.60564e-05
1.6121e-05
1.61737e-05
1.62122e-05
1.62377e-05
1.62544e-05
1.62664e-05
1.62764e-05
1.62853e-05
4.47265e-07
7.48186e-07
1.13461e-06
1.82853e-06
2.22562e-06
2.88253e-06
3.31507e-06
3.83834e-06
4.25618e-06
4.673e-06
5.03731e-06
5.3927e-06
5.71579e-06
6.01047e-06
6.274e-06
6.5206e-06
6.7547e-06
6.97366e-06
7.17056e-06
7.34468e-06
7.50189e-06
7.65059e-06
7.7957e-06
7.93477e-06
8.0602e-06
8.16738e-06
8.25745e-06
8.33667e-06
8.41298e-06
8.49289e-06
8.57853e-06
8.66303e-06
8.73711e-06
8.79155e-06
8.82038e-06
8.82792e-06
8.82739e-06
8.8265e-06
8.82593e-06
8.82524e-06
4.49539e-07
8.0774e-07
1.25829e-06
2.06048e-06
2.53871e-06
3.31677e-06
3.84253e-06
4.45292e-06
4.94373e-06
5.42516e-06
5.83687e-06
6.22808e-06
6.58084e-06
6.90124e-06
7.18219e-06
7.43764e-06
7.67409e-06
7.8934e-06
8.09008e-06
8.26243e-06
8.41447e-06
8.55398e-06
8.68668e-06
8.81257e-06
8.92692e-06
9.02485e-06
9.10527e-06
9.17207e-06
9.23361e-06
9.29879e-06
9.36994e-06
9.44128e-06
9.50189e-06
9.54014e-06
9.55406e-06
9.55471e-06
9.55336e-06
9.55172e-06
9.54917e-06
9.54468e-06
4.48082e-07
7.78192e-07
1.19542e-06
1.94035e-06
2.37284e-06
3.08819e-06
3.56426e-06
4.13331e-06
4.58921e-06
5.04069e-06
5.42687e-06
5.79822e-06
6.13432e-06
6.44001e-06
6.70793e-06
6.95348e-06
7.18269e-06
7.39593e-06
7.58689e-06
7.75399e-06
7.90206e-06
8.03935e-06
8.17123e-06
8.29677e-06
8.41036e-06
8.50688e-06
8.58567e-06
8.65175e-06
8.71463e-06
8.78294e-06
8.8575e-06
8.9309e-06
8.99095e-06
9.02666e-06
9.03827e-06
9.03831e-06
9.03699e-06
9.03541e-06
9.0329e-06
9.0286e-06
4.48082e-07
7.78192e-07
1.19542e-06
1.94035e-06
2.37284e-06
3.08819e-06
3.56426e-06
4.13331e-06
4.58921e-06
5.04069e-06
5.42688e-06
5.79822e-06
6.13432e-06
6.44e-06
6.70794e-06
6.95348e-06
7.18269e-06
7.39592e-06
7.58688e-06
7.75399e-06
7.90206e-06
8.03935e-06
8.17123e-06
8.29676e-06
8.41036e-06
8.50688e-06
8.58567e-06
8.65176e-06
8.71463e-06
8.78294e-06
8.85749e-06
8.9309e-06
8.99095e-06
9.02666e-06
9.03827e-06
9.03831e-06
9.03699e-06
9.03542e-06
9.03291e-06
9.02863e-06
4.49539e-07
8.0774e-07
1.25829e-06
2.06048e-06
2.53871e-06
3.31677e-06
3.8425e-06
4.45293e-06
4.94374e-06
5.42517e-06
5.83685e-06
6.22808e-06
6.58084e-06
6.90123e-06
7.1822e-06
7.43764e-06
7.67408e-06
7.89339e-06
8.09009e-06
8.26243e-06
8.41447e-06
8.55398e-06
8.68667e-06
8.81257e-06
8.92693e-06
9.02486e-06
9.10527e-06
9.17205e-06
9.23359e-06
9.29878e-06
9.36996e-06
9.44131e-06
9.50191e-06
9.54014e-06
9.55402e-06
9.55465e-06
9.55331e-06
9.55167e-06
9.54912e-06
9.54461e-06
4.47265e-07
7.48186e-07
1.13461e-06
1.82853e-06
2.22562e-06
2.88249e-06
3.3151e-06
3.83833e-06
4.25619e-06
4.67296e-06
5.03732e-06
5.39275e-06
5.71579e-06
6.01044e-06
6.27403e-06
6.52058e-06
6.75471e-06
6.97365e-06
7.17052e-06
7.3447e-06
7.50195e-06
7.65056e-06
7.79566e-06
7.93476e-06
8.06025e-06
8.16741e-06
8.25744e-06
8.33665e-06
8.41291e-06
8.49288e-06
8.57857e-06
8.6631e-06
8.73717e-06
8.79155e-06
8.82031e-06
8.82782e-06
8.82729e-06
8.8264e-06
8.82582e-06
8.82513e-06
4.70673e-07
9.93915e-07
1.7397e-06
2.9103e-06
3.94334e-06
5.24591e-06
6.32768e-06
7.43218e-06
8.42624e-06
9.36626e-06
1.01978e-05
1.09375e-05
1.15804e-05
1.21492e-05
1.26569e-05
1.3116e-05
1.3525e-05
1.38823e-05
1.41884e-05
1.44512e-05
1.4684e-05
1.48938e-05
1.50856e-05
1.52585e-05
1.54091e-05
1.55369e-05
1.56437e-05
1.5737e-05
1.58225e-05
1.59044e-05
1.59833e-05
1.60565e-05
1.6121e-05
1.61738e-05
1.62121e-05
1.62376e-05
1.62545e-05
1.62665e-05
1.62763e-05
1.62851e-05
7.77406e-06
1.78632e-05
2.8691e-05
3.8128e-05
4.56243e-05
5.13288e-05
5.57036e-05
5.89858e-05
6.14553e-05
6.32378e-05
6.45296e-05
6.54372e-05
6.60904e-05
6.65516e-05
6.6886e-05
6.71225e-05
6.7293e-05
6.74132e-05
6.75e-05
6.75624e-05
6.76088e-05
6.76432e-05
6.76703e-05
6.76903e-05
6.77075e-05
6.77196e-05
6.77262e-05
6.77306e-05
6.77309e-05
6.77289e-05
6.77248e-05
6.77177e-05
6.77072e-05
6.76938e-05
6.76794e-05
6.7665e-05
6.76514e-05
6.76393e-05
6.76292e-05
6.76214e-05
7.77151e-06
1.78277e-05
2.86049e-05
3.80308e-05
4.54509e-05
5.11119e-05
5.54213e-05
5.86857e-05
6.11243e-05
6.28961e-05
6.41644e-05
6.50569e-05
6.56894e-05
6.61342e-05
6.64497e-05
6.6669e-05
6.68205e-05
6.69225e-05
6.69903e-05
6.70334e-05
6.70622e-05
6.70769e-05
6.70806e-05
6.70836e-05
6.70848e-05
6.70814e-05
6.70731e-05
6.7061e-05
6.70456e-05
6.70271e-05
6.70057e-05
6.69815e-05
6.69551e-05
6.69273e-05
6.68993e-05
6.6872e-05
6.68464e-05
6.6823e-05
6.68025e-05
6.67849e-05
4.55933e-07
6.62772e-07
1.15519e-06
1.8537e-06
2.78464e-06
3.73882e-06
4.66333e-06
5.56333e-06
6.43955e-06
7.27114e-06
8.03161e-06
8.70465e-06
9.29561e-06
9.8232e-06
1.03095e-05
1.07621e-05
1.11736e-05
1.15346e-05
1.18439e-05
1.21124e-05
1.23552e-05
1.25821e-05
1.27943e-05
1.29876e-05
1.31563e-05
1.32979e-05
1.34167e-05
1.3522e-05
1.36226e-05
1.37218e-05
1.38198e-05
1.39123e-05
1.39919e-05
1.40551e-05
1.40991e-05
1.41243e-05
1.4138e-05
1.41445e-05
1.41493e-05
1.41528e-05
4.3579e-07
4.36087e-07
4.37754e-07
4.43471e-07
4.5522e-07
4.81908e-07
5.10873e-07
5.62482e-07
6.23824e-07
6.93807e-07
7.67568e-07
8.53922e-07
9.44095e-07
1.02893e-06
1.10938e-06
1.19698e-06
1.29524e-06
1.39487e-06
1.48366e-06
1.55955e-06
1.6314e-06
1.71115e-06
1.80228e-06
1.89684e-06
1.98255e-06
2.05185e-06
2.10875e-06
2.16204e-06
2.2243e-06
2.29867e-06
2.38438e-06
2.47098e-06
2.54865e-06
2.60843e-06
2.64689e-06
2.66501e-06
2.66973e-06
2.67025e-06
2.66968e-06
2.67003e-06
4.35782e-07
4.36094e-07
4.37604e-07
4.43295e-07
4.52157e-07
4.73346e-07
4.92647e-07
5.27715e-07
5.6632e-07
6.11538e-07
6.52818e-07
7.03747e-07
7.60847e-07
8.17048e-07
8.66294e-07
9.1581e-07
9.71899e-07
1.03289e-06
1.09032e-06
1.13954e-06
1.18379e-06
1.23082e-06
1.28498e-06
1.34303e-06
1.39709e-06
1.44122e-06
1.47613e-06
1.50837e-06
1.54619e-06
1.59419e-06
1.65006e-06
1.7055e-06
1.75186e-06
1.78344e-06
1.79913e-06
1.80322e-06
1.80321e-06
1.80304e-06
1.80298e-06
1.80278e-06
4.35778e-07
4.36039e-07
4.37352e-07
4.4238e-07
4.50071e-07
4.68534e-07
4.85179e-07
5.15834e-07
5.49901e-07
5.89572e-07
6.25921e-07
6.72214e-07
7.24338e-07
7.74979e-07
8.19079e-07
8.64439e-07
9.16796e-07
9.73497e-07
1.02606e-06
1.07071e-06
1.11139e-06
1.15574e-06
1.2072e-06
1.26174e-06
1.31149e-06
1.35133e-06
1.38279e-06
1.41298e-06
1.4499e-06
1.49697e-06
1.55041e-06
1.60171e-06
1.64287e-06
1.66898e-06
1.68037e-06
1.68235e-06
1.6822e-06
1.68205e-06
1.68191e-06
1.6816e-06
4.35778e-07
4.36039e-07
4.37352e-07
4.4238e-07
4.50071e-07
4.68534e-07
4.85179e-07
5.15835e-07
5.49899e-07
5.89572e-07
6.25923e-07
6.72214e-07
7.24336e-07
7.74977e-07
8.1908e-07
8.64443e-07
9.16796e-07
9.73495e-07
1.02606e-06
1.07071e-06
1.1114e-06
1.15574e-06
1.2072e-06
1.26174e-06
1.31149e-06
1.35133e-06
1.38279e-06
1.41298e-06
1.4499e-06
1.49697e-06
1.55041e-06
1.60171e-06
1.64287e-06
1.66898e-06
1.68037e-06
1.68235e-06
1.68219e-06
1.68204e-06
1.68191e-06
1.6816e-06
4.35782e-07
4.36094e-07
4.37604e-07
4.43295e-07
4.52157e-07
4.73345e-07
4.92643e-07
5.27718e-07
5.66323e-07
6.11541e-07
6.52809e-07
7.03748e-07
7.6085e-07
8.17047e-07
8.66298e-07
9.1581e-07
9.71892e-07
1.03289e-06
1.09032e-06
1.13955e-06
1.18379e-06
1.23082e-06
1.28497e-06
1.34303e-06
1.3971e-06
1.44123e-06
1.47612e-06
1.50836e-06
1.54618e-06
1.59421e-06
1.65003e-06
1.70552e-06
1.7519e-06
1.78344e-06
1.79909e-06
1.80315e-06
1.80314e-06
1.80298e-06
1.80291e-06
1.80271e-06
4.3579e-07
4.36087e-07
4.37754e-07
4.43471e-07
4.55219e-07
4.81901e-07
5.10876e-07
5.62492e-07
6.23806e-07
6.93795e-07
7.67569e-07
8.53978e-07
9.44041e-07
1.02895e-06
1.10937e-06
1.197e-06
1.29525e-06
1.39483e-06
1.48368e-06
1.55954e-06
1.63142e-06
1.71112e-06
1.80229e-06
1.89686e-06
1.98256e-06
2.05186e-06
2.10872e-06
2.16207e-06
2.22421e-06
2.29874e-06
2.38441e-06
2.47099e-06
2.54862e-06
2.60861e-06
2.64682e-06
2.66478e-06
2.66929e-06
2.66969e-06
2.66909e-06
2.66947e-06
4.55933e-07
6.62773e-07
1.1552e-06
1.85369e-06
2.78456e-06
3.73884e-06
4.66333e-06
5.56335e-06
6.43952e-06
7.27116e-06
8.03163e-06
8.70472e-06
9.29554e-06
9.82324e-06
1.03095e-05
1.07621e-05
1.11737e-05
1.15346e-05
1.18439e-05
1.21124e-05
1.23552e-05
1.25821e-05
1.27943e-05
1.29876e-05
1.31563e-05
1.32979e-05
1.34166e-05
1.35223e-05
1.36224e-05
1.37217e-05
1.38203e-05
1.39116e-05
1.39922e-05
1.40556e-05
1.40984e-05
1.41245e-05
1.41385e-05
1.41436e-05
1.41476e-05
1.41521e-05
7.77151e-06
1.78276e-05
2.8605e-05
3.80309e-05
4.54509e-05
5.11119e-05
5.54212e-05
5.86857e-05
6.11243e-05
6.28962e-05
6.41644e-05
6.5057e-05
6.56894e-05
6.61342e-05
6.64497e-05
6.66689e-05
6.68205e-05
6.69225e-05
6.69903e-05
6.70334e-05
6.70622e-05
6.70769e-05
6.70806e-05
6.70836e-05
6.70848e-05
6.70814e-05
6.70731e-05
6.7061e-05
6.70456e-05
6.70271e-05
6.70057e-05
6.69815e-05
6.69551e-05
6.69273e-05
6.68993e-05
6.6872e-05
6.68464e-05
6.6823e-05
6.68025e-05
6.67849e-05
7.7715e-06
1.78205e-05
2.86006e-05
3.80128e-05
4.54162e-05
5.10644e-05
5.53564e-05
5.86085e-05
6.10282e-05
6.27854e-05
6.40348e-05
6.49126e-05
6.55277e-05
6.59582e-05
6.62576e-05
6.64626e-05
6.65986e-05
6.6687e-05
6.67385e-05
6.67714e-05
6.67806e-05
6.67808e-05
6.6778e-05
6.67693e-05
6.67551e-05
6.67366e-05
6.67147e-05
6.66898e-05
6.66619e-05
6.66309e-05
6.6597e-05
6.65605e-05
6.6522e-05
6.64825e-05
6.64431e-05
6.64048e-05
6.63685e-05
6.6335e-05
6.63046e-05
6.62773e-05
4.55827e-07
6.62444e-07
1.15469e-06
1.85245e-06
2.78315e-06
3.73494e-06
4.65789e-06
5.55669e-06
6.43142e-06
7.26023e-06
8.01649e-06
8.68622e-06
9.27276e-06
9.79727e-06
1.02807e-05
1.07301e-05
1.11382e-05
1.1495e-05
1.17998e-05
1.20648e-05
1.23047e-05
1.25289e-05
1.27389e-05
1.29296e-05
1.30944e-05
1.32318e-05
1.33472e-05
1.34502e-05
1.35487e-05
1.36465e-05
1.37424e-05
1.38329e-05
1.391e-05
1.39684e-05
1.40075e-05
1.40279e-05
1.40371e-05
1.40396e-05
1.40394e-05
1.40407e-05
4.36007e-07
4.35441e-07
4.35737e-07
4.37282e-07
4.4194e-07
4.52442e-07
4.70546e-07
4.9752e-07
5.38043e-07
5.88171e-07
6.45061e-07
7.09485e-07
7.77057e-07
8.42285e-07
9.07303e-07
9.79726e-07
1.06128e-06
1.14275e-06
1.21416e-06
1.27494e-06
1.33405e-06
1.4016e-06
1.47959e-06
1.5598e-06
1.63075e-06
1.68732e-06
1.73343e-06
1.77916e-06
1.83342e-06
1.89932e-06
1.97447e-06
2.04911e-06
2.11521e-06
2.16505e-06
2.19723e-06
2.21222e-06
2.21595e-06
2.21585e-06
2.21602e-06
2.21612e-06
4.35935e-07
4.3552e-07
4.34988e-07
4.34596e-07
4.34319e-07
4.33926e-07
4.3342e-07
4.33244e-07
4.33224e-07
4.33282e-07
4.33447e-07
4.33764e-07
4.34371e-07