/*--------------------------------*- C++ -*----------------------------------*\
  =========                 |
  \\      /  F ield         | OpenFOAM: The Open Source CFD Toolbox
   \\    /   O peration     | Website:  https://openfoam.org
    \\  /    A nd           | Version:  7
     \\/     M anipulation  |
\*---------------------------------------------------------------------------*/
FoamFile
{
    version     2.0;
    format      ascii;
    class       volScalarField;
    location    "0.06";
    object      pPrime2Mean;
}
// * * * * * * * * * * * * * * * * * * * * * * * * * * * * * * * * * * * * * //

dimensions      [2 -2 -4 0 0 0 0];

internalField   nonuniform List<scalar> 
400
(
13.8113
13.8012
13.7904
13.7789
13.767
13.755
13.7429
13.7311
13.7194
13.708
13.6967
13.6855
13.6746
13.6637
13.653
13.6425
13.6321
13.6218
13.6116
13.6018
13.8118
13.8008
13.7896
13.778
13.7662
13.7542
13.7423
13.7306
13.719
13.7076
13.6964
13.6853
13.6744
13.6637
13.653
13.6424
13.632
13.6218
13.6116
13.6017
13.8109
13.7999
13.7886
13.7772
13.7654
13.7535
13.7417
13.7301
13.7186
13.7073
13.6962
13.6851
13.6743
13.6635
13.6529
13.6423
13.632
13.6217
13.6116
13.6017
13.8107
13.7994
13.788
13.7766
13.7648
13.753
13.7412
13.7296
13.7182
13.707
13.6959
13.6848
13.674
13.6633
13.6528
13.6422
13.6319
13.6216
13.6115
13.6016
13.8108
13.7991
13.7875
13.7761
13.7643
13.7524
13.7408
13.7293
13.7179
13.7067
13.6956
13.6848
13.6739
13.6632
13.6526
13.6422
13.6318
13.6216
13.6114
13.6015
13.8098
13.7985
13.787
13.7755
13.7638
13.752
13.7403
13.7289
13.7176
13.7064
13.6954
13.6844
13.6737
13.6631
13.6525
13.6421
13.6317
13.6215
13.6113
13.6015
13.8096
13.7982
13.7866
13.7751
13.7634
13.7516
13.7399
13.7285
13.7172
13.706
13.6951
13.6843
13.6735
13.663
13.6524
13.642
13.6316
13.6213
13.6113
13.6014
13.8094
13.7979
13.7863
13.7747
13.763
13.7512
13.7396
13.7281
13.717
13.7058
13.6949
13.684
13.6733
13.6627
13.6522
13.6418
13.6315
13.6213
13.6112
13.6013
13.8092
13.7976
13.7861
13.7745
13.7627
13.7509
13.7394
13.7279
13.7166
13.7056
13.6947
13.6838
13.6732
13.6626
13.6521
13.6418
13.6314
13.6212
13.6111
13.6013
13.8088
13.7974
13.7859
13.7743
13.7625
13.7508
13.7391
13.7278
13.7165
13.7055
13.6945
13.6838
13.6731
13.6625
13.652
13.6417
13.6314
13.6212
13.611
13.6011
13.8095
13.7976
13.7859
13.7742
13.7624
13.7506
13.7391
13.7276
13.7165
13.7054
13.6945
13.6837
13.673
13.6624
13.652
13.6416
13.6313
13.6211
13.611
13.6011
13.809
13.7973
13.7857
13.7741
13.7624
13.7506
13.739
13.7276
13.7164
13.7054
13.6944
13.6837
13.673
13.6625
13.652
13.6417
13.6313
13.621
13.6109
13.6011
13.8084
13.797
13.7856
13.7741
13.7624
13.7507
13.7391
13.7277
13.7166
13.7054
13.6945
13.6837
13.673
13.6624
13.652
13.6416
13.6313
13.6211
13.611
13.6012
13.8081
13.7969
13.7856
13.7741
13.7625
13.7508
13.7392
13.7278
13.7166
13.7056
13.6947
13.6839
13.6731
13.6625
13.652
13.6417
13.6312
13.6211
13.611
13.6011
13.8082
13.797
13.7856
13.7743
13.7626
13.751
13.7394
13.728
13.7168
13.7057
13.6947
13.684
13.6732
13.6626
13.652
13.6417
13.6313
13.621
13.6109
13.6011
13.809
13.7974
13.7859
13.7745
13.7629
13.7513
13.7396
13.7283
13.717
13.7059
13.6948
13.684
13.6733
13.6626
13.6521
13.6417
13.6314
13.6211
13.611
13.6012
13.8089
13.7974
13.7861
13.7748
13.7632
13.7515
13.74
13.7285
13.7173
13.7061
13.6951
13.6842
13.6733
13.6627
13.6521
13.6417
13.6313
13.621
13.611
13.6011
13.8083
13.7974
13.7862
13.775
13.7635
13.7519
13.7403
13.7288
13.7175
13.7063
13.6952
13.6842
13.6734
13.6627
13.6522
13.6417
13.6314
13.6211
13.6109
13.6011
13.8078
13.7975
13.7867
13.7756
13.7641
13.7524
13.7408
13.7292
13.7178
13.7065
13.6954
13.6844
13.6735
13.6628
13.6522
13.6417
13.6313
13.621
13.611
13.6011
13.8071
13.7977
13.7873
13.7763
13.7648
13.753
13.7413
13.7296
13.7181
13.7068
13.6956
13.6845
13.6737
13.6629
13.6522
13.6418
13.6314
13.6211
13.611
13.6011
)
;

boundaryField
{
    upperWall
    {
        type            calculated;
        value           nonuniform List<scalar> 
20
(
13.8071
13.7977
13.7873
13.7763
13.7648
13.753
13.7413
13.7296
13.7181
13.7068
13.6956
13.6845
13.6737
13.6629
13.6522
13.6418
13.6314
13.6211
13.611
13.6011
)
;
    }
    lowerWall
    {
        type            calculated;
        value           nonuniform List<scalar> 
20
(
13.8113
13.8012
13.7904
13.7789
13.767
13.755
13.7429
13.7311
13.7194
13.708
13.6967
13.6855
13.6746
13.6637
13.653
13.6425
13.6321
13.6218
13.6116
13.6018
)
;
    }
    inlet
    {
        type            calculated;
        value           nonuniform List<scalar> 
20
(
13.8113
13.8118
13.8109
13.8107
13.8108
13.8098
13.8096
13.8094
13.8092
13.8088
13.8095
13.809
13.8084
13.8081
13.8082
13.809
13.8089
13.8083
13.8078
13.8071
)
;
    }
    outlet
    {
        type            calculated;
        value           nonuniform List<scalar> 
20
(
13.597
13.597
13.597
13.5969
13.5968
13.5967
13.5967
13.5966
13.5964
13.5964
13.5964
13.5963
13.5963
13.5963
13.5963
13.5964
13.5964
13.5964
13.5963
13.5964
)
;
    }
    frontAndBack
    {
        type            empty;
    }
}


// ************************************************************************* //
