/*--------------------------------*- C++ -*----------------------------------*\
  =========                 |
  \\      /  F ield         | OpenFOAM: The Open Source CFD Toolbox
   \\    /   O peration     | Website:  https://openfoam.org
    \\  /    A nd           | Version:  7
     \\/     M anipulation  |
\*---------------------------------------------------------------------------*/
FoamFile
{
    version     2.0;
    format      ascii;
    class       volScalarField;
    location    "0.075";
    object      k_0;
}
// * * * * * * * * * * * * * * * * * * * * * * * * * * * * * * * * * * * * * //

dimensions      [0 2 -2 0 0 0 0];

internalField   nonuniform List<scalar> 
400
(
5.78946e-05
4.04544e-05
2.10917e-05
1.29994e-05
8.66966e-06
5.97217e-06
4.23432e-06
3.17535e-06
2.5765e-06
2.26274e-06
2.11586e-06
2.06845e-06
2.09144e-06
2.17538e-06
2.31799e-06
2.51368e-06
2.75815e-06
3.04396e-06
3.35079e-06
3.64478e-06
3.98454e-05
4.95538e-05
4.60164e-05
3.59278e-05
2.57781e-05
1.8216e-05
1.29623e-05
9.62073e-06
7.6683e-06
6.60453e-06
6.0643e-06
5.82735e-06
5.77691e-06
5.85816e-06
6.05076e-06
6.32869e-06
6.67935e-06
7.09905e-06
7.58464e-06
7.99415e-06
2.61045e-05
4.24873e-05
4.72323e-05
4.48095e-05
3.76164e-05
2.92288e-05
2.19251e-05
1.65437e-05
1.30308e-05
1.08815e-05
9.58271e-06
8.78067e-06
8.26999e-06
7.94193e-06
7.74554e-06
7.66672e-06
7.68949e-06
7.79696e-06
8.03148e-06
8.19592e-06
2.23935e-05
3.21902e-05
4.02712e-05
4.20096e-05
4.00615e-05
3.5387e-05
2.88495e-05
2.27875e-05
1.81635e-05
1.4933e-05
1.27032e-05
1.11129e-05
9.92421e-06
9.00125e-06
8.27041e-06
7.68739e-06
7.21265e-06
6.84243e-06
6.64792e-06
6.41996e-06
2.14068e-05
2.58283e-05
3.1193e-05
3.53146e-05
3.68576e-05
3.53573e-05
3.15523e-05
2.65786e-05
2.20588e-05
1.84312e-05
1.56105e-05
1.33883e-05
1.15921e-05
1.01114e-05
8.88024e-06
7.85507e-06
7.00629e-06
6.27387e-06
5.71277e-06
5.03659e-06
2.29794e-05
2.32976e-05
2.55441e-05
2.89459e-05
3.13527e-05
3.1752e-05
3.04018e-05
2.72388e-05
2.38479e-05
2.07419e-05
1.80181e-05
1.5644e-05
1.3563e-05
1.17386e-05
1.01534e-05
8.79361e-06
7.63565e-06
6.60853e-06
5.78583e-06
4.77563e-06
2.21486e-05
2.22281e-05
2.2799e-05
2.45001e-05
2.63589e-05
2.7049e-05
2.68166e-05
2.56996e-05
2.3582e-05
2.14622e-05
1.9398e-05
1.74068e-05
1.54834e-05
1.36563e-05
1.19674e-05
1.04631e-05
9.16688e-06
8.00138e-06
7.05354e-06
5.70655e-06
2.14937e-05
2.14949e-05
2.14887e-05
2.19441e-05
2.29151e-05
2.34087e-05
2.33641e-05
2.29881e-05
2.21082e-05
2.09068e-05
1.96133e-05
1.82667e-05
1.68573e-05
1.53764e-05
1.38935e-05
1.25053e-05
1.13029e-05
1.02164e-05
9.35938e-06
7.84167e-06
2.10551e-05
2.10315e-05
2.0819e-05
2.08396e-05
2.10481e-05
2.11724e-05
2.10967e-05
2.0843e-05
2.03467e-05
1.97444e-05
1.90691e-05
1.83226e-05
1.74933e-05
1.65533e-05
1.55298e-05
1.45302e-05
1.37003e-05
1.29878e-05
1.24357e-05
1.11474e-05
2.10879e-05
2.10271e-05
2.06505e-05
2.04012e-05
2.03183e-05
2.02004e-05
1.99437e-05
1.95766e-05
1.91626e-05
1.87587e-05
1.83783e-05
1.80158e-05
1.76397e-05
1.72014e-05
1.67246e-05
1.62884e-05
1.60607e-05
1.60431e-05
1.60361e-05
1.54824e-05
2.15379e-05
2.12346e-05
2.09864e-05
2.05554e-05
2.02629e-05
1.99514e-05
1.95533e-05
1.91102e-05
1.86937e-05
1.8346e-05
1.8079e-05
1.7895e-05
1.77753e-05
1.76882e-05
1.77111e-05
1.7857e-05
1.82932e-05
1.91993e-05
2.02487e-05
2.0453e-05
2.19936e-05
2.17392e-05
2.13645e-05
2.08472e-05
2.04321e-05
2.0045e-05
1.96194e-05
1.91943e-05
1.88337e-05
1.85685e-05
1.84021e-05
1.83841e-05
1.84456e-05
1.86219e-05
1.89851e-05
1.96418e-05
2.09151e-05
2.27711e-05
2.50326e-05
2.61522e-05
2.16904e-05
2.19383e-05
2.15344e-05
2.11324e-05
2.07745e-05
2.0389e-05
2.00328e-05
1.97475e-05
1.95858e-05
1.95835e-05
1.96636e-05
1.98953e-05
2.0313e-05
2.08732e-05
2.16483e-05
2.28342e-05
2.48476e-05
2.76275e-05
3.09772e-05
3.28971e-05
2.22266e-05
2.24711e-05
2.23465e-05
2.20489e-05
2.16761e-05
2.13825e-05
2.1315e-05
2.13986e-05
2.16477e-05
2.21479e-05
2.28117e-05
2.36291e-05
2.46214e-05
2.5781e-05
2.71658e-05
2.90323e-05
3.18565e-05
3.55253e-05
3.96006e-05
4.16946e-05
2.28862e-05
2.32184e-05
2.31274e-05
2.31536e-05
2.33481e-05
2.37691e-05
2.4514e-05
2.55789e-05
2.68862e-05
2.83668e-05
2.99739e-05
3.16793e-05
3.35564e-05
3.56119e-05
3.78542e-05
4.06693e-05
4.4503e-05
4.8979e-05
5.30339e-05
5.42134e-05
2.40322e-05
2.41814e-05
2.46377e-05
2.59174e-05
2.77637e-05
3.00813e-05
3.29118e-05
3.59996e-05
3.90836e-05
4.20803e-05
4.50154e-05
4.78837e-05
5.08995e-05
5.41345e-05
5.74183e-05
6.14474e-05
6.635e-05
7.08433e-05
7.30063e-05
7.19763e-05
2.42763e-05
2.6891e-05
3.03438e-05
3.53701e-05
4.14318e-05
4.8049e-05
5.44769e-05
6.01984e-05
6.53803e-05
7.02016e-05
7.4709e-05
7.89091e-05
8.3141e-05
8.75221e-05
9.13357e-05
9.59093e-05
0.000100527
0.000101186
9.95192e-05
9.1172e-05
2.76847e-05
3.86542e-05
5.22566e-05
6.77955e-05
8.25434e-05
9.46947e-05
0.00010442
0.00011192
0.000119272
0.000125844
0.000130861
0.000134738
0.000137867
0.000140251
0.000140461
0.000139267
0.000135468
0.000126993
0.000116677
9.80387e-05
5.16701e-05
9.03156e-05
0.000132024
0.000164929
0.000187454
0.000201019
0.000208019
0.000210068
0.000208541
0.000204745
0.000199965
0.00019424
0.000187423
0.000179207
0.00016901
0.000156538
0.000141471
0.000123357
0.000105017
8.45282e-05
0.000185886
0.000290841
0.000336059
0.000348254
0.000341904
0.000320964
0.000289214
0.00025692
0.000226838
0.000199989
0.000176284
0.000155446
0.000136901
0.000120013
0.00010426
8.93264e-05
7.5159e-05
6.18337e-05
5.04182e-05
4.02846e-05
)
;

boundaryField
{
    upperWall
    {
        type            fixedValue;
        value           uniform 0;
    }
    lowerWall
    {
        type            fixedValue;
        value           uniform 0;
    }
    inlet
    {
        type            fixedValue;
        value           uniform 2e-05;
    }
    outlet
    {
        type            inletOutlet;
        inletValue      uniform 0;
        value           nonuniform List<scalar> 
20
(
3.64478e-06
7.99415e-06
8.19592e-06
6.41996e-06
5.03659e-06
4.77563e-06
5.70655e-06
7.84167e-06
1.11474e-05
1.54824e-05
2.0453e-05
2.61522e-05
3.28971e-05
4.16946e-05
5.42134e-05
7.19763e-05
9.1172e-05
9.80387e-05
8.45282e-05
4.02846e-05
)
;
    }
    frontAndBack
    {
        type            empty;
    }
}


// ************************************************************************* //
