/*--------------------------------*- C++ -*----------------------------------*\
  =========                 |
  \\      /  F ield         | OpenFOAM: The Open Source CFD Toolbox
   \\    /   O peration     | Website:  https://openfoam.org
    \\  /    A nd           | Version:  7
     \\/     M anipulation  |
\*---------------------------------------------------------------------------*/
FoamFile
{
    version     2.0;
    format      ascii;
    class       volScalarField;
    location    "0.075";
    object      pPrime2Mean;
}
// * * * * * * * * * * * * * * * * * * * * * * * * * * * * * * * * * * * * * //

dimensions      [2 -2 -4 0 0 0 0];

internalField   nonuniform List<scalar> 
400
(
11.1293
11.1212
11.1124
11.1032
11.0936
11.084
11.0744
11.0649
11.0555
11.0463
11.0372
11.0283
11.0195
11.0107
11.0022
10.9938
10.9854
10.9771
10.9689
10.961
11.1297
11.1208
11.1118
11.1025
11.093
11.0834
11.0738
11.0644
11.0552
11.046
11.037
11.0281
11.0193
11.0107
11.0021
10.9937
10.9853
10.9771
10.9689
10.961
11.1289
11.1201
11.111
11.1018
11.0923
11.0828
11.0733
11.0641
11.0548
11.0457
11.0368
11.0279
11.0192
11.0106
11.002
10.9935
10.9853
10.977
10.9688
10.9609
11.1288
11.1197
11.1105
11.1013
11.0919
11.0823
11.073
11.0637
11.0545
11.0455
11.0366
11.0277
11.019
11.0104
11.0019
10.9935
10.9852
10.9769
10.9688
10.9609
11.1288
11.1195
11.1101
11.1009
11.0916
11.082
11.0726
11.0634
11.0542
11.0452
11.0363
11.0276
11.0189
11.0103
11.0018
10.9935
10.9851
10.9769
10.9687
10.9608
11.128
11.1189
11.1097
11.1005
11.091
11.0816
11.0723
11.063
11.0539
11.045
11.0362
11.0273
11.0188
11.0102
11.0017
10.9934
10.9851
10.9768
10.9686
10.9608
11.1278
11.1186
11.1094
11.1001
11.0907
11.0813
11.0719
11.0627
11.0537
11.0448
11.036
11.0272
11.0186
11.0101
11.0016
10.9933
10.9849
10.9767
10.9686
10.9607
11.1277
11.1184
11.1091
11.0999
11.0904
11.081
11.0716
11.0625
11.0536
11.0446
11.0358
11.027
11.0185
11.0099
11.0015
10.9931
10.9849
10.9766
10.9685
10.9606
11.1275
11.1183
11.109
11.0997
11.0902
11.0808
11.0715
11.0623
11.0532
11.0444
11.0356
11.0269
11.0184
11.0099
11.0015
10.9931
10.9848
10.9766
10.9685
10.9606
11.1272
11.1181
11.1088
11.0995
11.09
11.0806
11.0713
11.0622
11.0531
11.0443
11.0355
11.0269
11.0183
11.0098
11.0013
10.993
10.9848
10.9766
10.9684
10.9604
11.1277
11.1181
11.1087
11.0994
11.0899
11.0805
11.0712
11.062
11.0532
11.0442
11.0354
11.0268
11.0182
11.0097
11.0013
10.993
10.9847
10.9765
10.9684
10.9604
11.1274
11.118
11.1086
11.0993
11.09
11.0805
11.0712
11.062
11.053
11.0442
11.0354
11.0268
11.0182
11.0097
11.0013
10.993
10.9847
10.9765
10.9684
10.9604
11.1268
11.1178
11.1086
11.0993
11.0899
11.0805
11.0712
11.0621
11.0532
11.0442
11.0355
11.0268
11.0182
11.0097
11.0013
10.993
10.9847
10.9765
10.9684
10.9605
11.1266
11.1176
11.1085
11.0993
11.0901
11.0806
11.0714
11.0622
11.0532
11.0443
11.0356
11.0269
11.0183
11.0098
11.0014
10.993
10.9847
10.9765
10.9684
10.9604
11.1268
11.1177
11.1086
11.0995
11.0901
11.0808
11.0715
11.0624
11.0533
11.0445
11.0356
11.027
11.0183
11.0099
11.0013
10.993
10.9847
10.9764
10.9683
10.9605
11.1274
11.118
11.1088
11.0997
11.0903
11.0811
11.0717
11.0626
11.0535
11.0446
11.0357
11.027
11.0184
11.0098
11.0014
10.9931
10.9848
10.9765
10.9683
10.9605
11.1273
11.1181
11.109
11.0999
11.0906
11.0812
11.072
11.0628
11.0537
11.0447
11.0359
11.0271
11.0185
11.0099
11.0014
10.9931
10.9847
10.9765
10.9684
10.9604
11.1268
11.118
11.1091
11.1001
11.0909
11.0815
11.0722
11.0631
11.0539
11.0449
11.036
11.0272
11.0185
11.01
11.0014
10.9931
10.9847
10.9765
10.9683
10.9605
11.1264
11.1181
11.1094
11.1005
11.0913
11.082
11.0726
11.0633
11.0541
11.0451
11.0362
11.0274
11.0186
11.01
11.0015
10.9931
10.9847
10.9765
10.9684
10.9605
11.1258
11.1183
11.11
11.1011
11.0919
11.0825
11.073
11.0636
11.0544
11.0453
11.0363
11.0274
11.0188
11.0101
11.0015
10.9931
10.9848
10.9766
10.9683
10.9605
)
;

boundaryField
{
    upperWall
    {
        type            calculated;
        value           nonuniform List<scalar> 
20
(
11.1258
11.1183
11.11
11.1011
11.0919
11.0825
11.073
11.0636
11.0544
11.0453
11.0363
11.0274
11.0188
11.0101
11.0015
10.9931
10.9848
10.9766
10.9683
10.9605
)
;
    }
    lowerWall
    {
        type            calculated;
        value           nonuniform List<scalar> 
20
(
11.1293
11.1212
11.1124
11.1032
11.0936
11.084
11.0744
11.0649
11.0555
11.0463
11.0372
11.0283
11.0195
11.0107
11.0022
10.9938
10.9854
10.9771
10.9689
10.961
)
;
    }
    inlet
    {
        type            calculated;
        value           nonuniform List<scalar> 
20
(
11.1293
11.1297
11.1289
11.1288
11.1288
11.128
11.1278
11.1277
11.1275
11.1272
11.1277
11.1274
11.1268
11.1266
11.1268
11.1274
11.1273
11.1268
11.1264
11.1258
)
;
    }
    outlet
    {
        type            calculated;
        value           nonuniform List<scalar> 
20
(
10.9572
10.9572
10.9571
10.9571
10.957
10.9569
10.9569
10.9569
10.9567
10.9567
10.9567
10.9566
10.9566
10.9566
10.9566
10.9567
10.9567
10.9566
10.9566
10.9567
)
;
    }
    frontAndBack
    {
        type            empty;
    }
}


// ************************************************************************* //
