/*--------------------------------*- C++ -*----------------------------------*\
  =========                 |
  \\      /  F ield         | OpenFOAM: The Open Source CFD Toolbox
   \\    /   O peration     | Website:  https://openfoam.org
    \\  /    A nd           | Version:  7
     \\/     M anipulation  |
\*---------------------------------------------------------------------------*/
FoamFile
{
    version     2.0;
    format      ascii;
    class       surfaceScalarField;
    location    "2.245";
    object      phi_0;
}
// * * * * * * * * * * * * * * * * * * * * * * * * * * * * * * * * * * * * * //

dimensions      [1 0 -1 0 0 0 0];

internalField   nonuniform List<scalar> 
21708
(
0.00129644
0.00100291
1.36655e-05
0.000898915
0.000391198
6.25239e-06
0.000689597
0.000197502
1.17287e-05
0.000599979
8.28013e-05
6.76081e-06
0.000547979
4.11291e-05
1.08656e-05
0.000517408
2.36394e-05
6.96732e-06
0.000494231
1.30604e-05
1.01641e-05
0.000478025
9.13706e-06
7.10651e-06
0.000463686
4.75736e-06
9.60155e-06
0.000453099
3.40464e-06
7.18799e-06
0.000443041
9.39011e-07
9.11971e-06
0.00043551
3.18857e-07
7.20945e-06
0.000428031
-1.21624e-06
8.69008e-06
0.000422417
-1.57743e-06
7.17984e-06
0.00041661
-2.50461e-06
8.29566e-06
0.000412029
-2.54534e-06
7.10946e-06
0.000405922
-1.83262e-06
7.92241e-06
0.000402301
-3.40258e-06
7.00605e-06
0.000350246
4.437e-05
7.67164e-06
2.48005e-05
6.57087e-06
0.00031886
0.00225057
0.00106207
2.91233e-06
0.00206091
0.000584677
-3.87503e-06
0.00185671
0.000399913
1.70228e-06
0.0017143
0.000228259
-3.12966e-06
0.0016116
0.000142712
1.06187e-06
0.00154158
9.64546e-05
-2.79433e-06
0.00148626
6.79675e-05
4.3908e-07
0.00144595
5.20892e-05
-2.60753e-06
0.00141028
4.05571e-05
-9.51454e-08
0.00138326
3.29564e-05
-2.50659e-06
0.0013577
2.70819e-05
-5.64723e-07
0.00133806
2.24448e-05
-2.47549e-06
0.00131877
1.90732e-05
-9.88296e-07
0.00130382
1.58761e-05
-2.49915e-06
0.00128917
1.35245e-05
-1.38136e-06
0.00127643
1.27503e-05
-2.56438e-06
0.00126884
7.51874e-06
-1.77109e-06
0.00125317
1.48972e-05
-2.6537e-06
0.00129394
5.84044e-06
-2.25969e-06
-2.22145e-05
-3.20553e-06
0.00134414
0.00257666
0.000788588
9.64413e-06
0.00266821
0.000489741
3.33196e-06
0.00266139
0.000398114
8.53824e-06
0.00262549
0.000260467
3.60061e-06
0.00257678
0.000183624
7.71141e-06
0.00253319
0.000136176
3.80862e-06
0.00249023
0.000103879
7.00502e-06
0.00245484
8.35341e-05
3.93794e-06
0.00242092
6.80623e-05
6.43102e-06
0.00239328
5.6621e-05
4.01112e-06
0.0023666
4.78586e-05
5.94219e-06
0.00234487
4.0198e-05
4.02797e-06
0.00232357
3.49174e-05
5.50848e-06
0.00230639
2.91013e-05
3.99534e-06
0.00228854
2.62984e-05
5.11191e-06
0.00227581
2.15925e-05
3.92166e-06
0.00225722
2.13779e-05
4.74434e-06
0.00224999
1.83153e-05
3.80188e-06
0.00221946
3.18244e-05
4.53399e-06
2.14599e-05
3.44213e-06
0.00217231
0.0025831
0.000513907
4.23237e-06
0.00274423
0.000330367
-1.81071e-06
0.00285029
0.000288636
3.34828e-06
0.00291202
0.000200179
-1.53338e-06
0.00294245
0.000150485
2.61755e-06
0.00296116
0.000118627
-1.2477e-06
0.00296712
9.58644e-05
1.98427e-06
0.00297063
8.10289e-05
-1.0635e-06
0.00296817
6.90512e-05
1.44866e-06
0.00296595
5.98182e-05
-9.6116e-07
0.00296056
5.23063e-05
9.80684e-07
0.00295608
4.56583e-05
-9.27601e-07
0.00295001
4.04994e-05
5.59323e-07
0.00294456
3.55791e-05
-9.4937e-07
0.00293927
3.14972e-05
1.68346e-07
0.00293277
2.91827e-05
-1.01539e-06
0.00293099
2.34389e-05
-2.184e-07
0.00292341
2.70653e-05
-1.12876e-06
0.00293731
1.86587e-05
-7.21174e-07
8.53395e-06
-1.59424e-06
0.00295183
0.00257198
0.000247112
7.56717e-06
0.00274061
0.000159948
1.73445e-06
0.00287567
0.000146738
6.75141e-06
0.0029696
0.000104304
1.85916e-06
0.00303348
8.05296e-05
5.98313e-06
0.00308494
6.49802e-05
2.10227e-06
0.00312169
5.37095e-05
5.31841e-06
0.00315403
4.63657e-05
2.26039e-06
0.00317803
4.02464e-05
4.76254e-06
0.00320001
3.54753e-05
2.34751e-06
0.0032166
3.14559e-05
4.28312e-06
0.00323212
2.78195e-05
2.37208e-06
0.00324388
2.49618e-05
3.85493e-06
0.00325515
2.20477e-05
2.34409e-06
0.00326331
1.99744e-05
3.46105e-06
0.00327235
1.797e-05
2.27208e-06
0.00327655
1.62445e-05
3.09123e-06
0.00328514
1.64054e-05
2.14303e-06
0.00328448
1.65706e-05
2.80754e-06
1.66663e-05
1.80154e-06
0.00327457
0.00255397
-5.00735e-11
5.8333e-06
0.00271378
2.31726e-10
8.70964e-08
0.00285535
-1.91729e-10
5.08373e-06
0.00295938
6.44949e-10
1.93654e-07
0.0030355
-2.18699e-10
4.31722e-06
0.00309995
1.57016e-09
4.39952e-07
0.00314991
2.97303e-10
3.66254e-06
0.00319559
3.7259e-09
6.07449e-07
0.00323267
3.13995e-09
3.11374e-06
0.00326742
8.70912e-09
7.0056e-07
0.00329624
1.30506e-08
2.63864e-06
0.00332336
2.3793e-08
7.29056e-07
0.00334614
3.62335e-08
2.21333e-06
0.00336749
8.51321e-08
7.04127e-07
0.00338567
6.69652e-08
1.82051e-06
0.0034028
3.13658e-07
6.34603e-07
0.00341762
9.30276e-08
1.4407e-06
0.00343269
9.2411e-07
5.06368e-07
0.00344789
4.21855e-07
1.02817e-06
1.69372e-06
1.24686e-07
0.00346279
0.00255397
-0.000247112
5.8333e-06
0.00271378
-0.000159947
8.7095e-08
0.00285535
-0.000146738
5.08373e-06
0.00295938
-0.000104303
1.9365e-07
0.0030355
-8.05298e-05
4.31723e-06
0.00309995
-6.49774e-05
4.39941e-07
0.00314991
-5.37085e-05
3.66256e-06
0.00319559
-4.63592e-05
6.0742e-07
0.00323267
-4.02393e-05
3.11378e-06
0.00326743
-3.54603e-05
7.00487e-07
0.00329624
-3.14279e-05
2.63873e-06
0.00332336
-2.77785e-05
7.28872e-07
0.00334614
-2.48845e-05
2.21355e-06
0.00336751
-2.18944e-05
7.03654e-07
0.00338568
-1.98296e-05
1.8211e-06
0.00340284
-1.73744e-05
6.3344e-07
0.00341764
-1.60405e-05
1.44267e-06
0.00343273
-1.45695e-05
5.04108e-07
0.00344792
-1.57295e-05
1.03631e-06
-1.31276e-05
1.21702e-07
0.00346267
0.00257198
-0.000513907
7.56717e-06
0.00274061
-0.000330367
1.73445e-06
0.00287567
-0.000288636
6.75141e-06
0.0029696
-0.000200178
1.85916e-06
0.00303348
-0.000150485
5.98312e-06
0.00308494
-0.000118624
2.10228e-06
0.00312169
-9.58639e-05
5.31839e-06
0.00315403
-8.10221e-05
2.26041e-06
0.00317803
-6.90457e-05
4.76251e-06
0.00320001
-5.98024e-05
2.34757e-06
0.00321661
-5.22836e-05
4.28305e-06
0.00323213
-4.56162e-05
2.37224e-06
0.0032439
-4.04368e-05
3.85471e-06
0.00325517
-3.54287e-05
2.34453e-06
0.00326337
-3.13879e-05
3.46043e-06
0.00327244
-2.86227e-05
2.27321e-06
0.00327673
-2.3323e-05
3.08926e-06
0.00328548
-2.53904e-05
2.14507e-06
0.00328509
-1.808e-05
2.80031e-06
-5.69048e-06
1.80308e-06
0.00327587
0.0025831
-0.000788588
4.23237e-06
0.00274423
-0.000489741
-1.81072e-06
0.00285029
-0.000398114
3.34828e-06
0.00291202
-0.000260466
-1.53339e-06
0.00294245
-0.000183624
2.61756e-06
0.00296116
-0.000136174
-1.24771e-06
0.00296712
-0.000103878
1.98429e-06
0.00297064
-8.35295e-05
-1.06353e-06
0.00296818
-6.80566e-05
1.4487e-06
0.00296596
-5.66106e-05
-9.61226e-07
0.00296057
-4.78374e-05
9.80783e-07
0.00295611
-4.01702e-05
-9.27763e-07
0.00295004
-3.48604e-05
5.59558e-07
0.00294464
-2.89949e-05
-9.49747e-07
0.00293936
-2.61989e-05
1.68914e-07
0.00293298
-2.11614e-05
-1.01625e-06
0.00293122
-2.12799e-05
-2.16556e-07
0.00292392
-1.69228e-05
-1.13064e-06
0.00293796
-3.13884e-05
-7.13174e-07
-1.89809e-05
-1.597e-06
0.00295284
0.00257666
-0.00106207
9.64413e-06
0.00266821
-0.000584676
3.33196e-06
0.00266139
-0.000399914
8.53824e-06
0.00262549
-0.000228259
3.60061e-06
0.00257678
-0.000142712
7.71141e-06
0.00253319
-9.64534e-05
3.80863e-06
0.00249023
-6.79669e-05
7.00501e-06
0.00245484
-5.20862e-05
3.93796e-06
0.00242092
-4.05537e-05
6.43099e-06
0.00239328
-3.29498e-05
4.01117e-06
0.00236662
-2.70694e-05
5.94213e-06
0.0023449
-2.24273e-05
4.02809e-06
0.00232362
-1.90403e-05
5.50831e-06
0.00230648
-1.58085e-05
3.99568e-06
0.00228869
-1.34755e-05
5.11138e-06
0.0022761
-1.24749e-05
3.9226e-06
0.00225762
-7.5277e-06
4.74275e-06
0.00225089
-1.3998e-05
3.80354e-06
0.00222084
-5.88875e-06
4.52898e-06
2.3196e-05
3.44177e-06
0.0021752
0.00225057
-0.00100291
2.91233e-06
0.00206091
-0.000391198
-3.87504e-06
0.00185671
-0.000197502
1.70228e-06
0.0017143
-8.28012e-05
-3.12966e-06
0.0016116
-4.1129e-05
1.06188e-06
0.00154158
-2.36391e-05
-2.79434e-06
0.00148626
-1.30599e-05
4.39094e-07
0.00144595
-9.13635e-06
-2.60755e-06
0.00141028
-4.75569e-06
-9.51114e-08
0.00138327
-3.40334e-06
-2.50664e-06
0.00135772
-9.33392e-07
-5.64637e-07
0.00133809
-3.15671e-07
-2.47562e-06
0.00131882
1.23107e-06
-9.88093e-07
0.00130392
1.59276e-06
-2.49944e-06
0.0012893
2.5324e-06
-1.38087e-06
0.00127676
2.62125e-06
-2.56507e-06
0.00126911
1.87006e-06
-1.76956e-06
0.00125407
3.68625e-06
-2.6556e-06
0.00129449
-4.40771e-05
-2.25277e-06
-2.4196e-05
-3.21025e-06
0.00134507
0.00129644
1.36655e-05
0.000898915
6.25239e-06
0.000689597
1.17287e-05
0.000599979
6.76082e-06
0.00054798
1.08656e-05
0.000517408
6.96732e-06
0.000494232
1.01641e-05
0.000478027
7.10653e-06
0.000463689
9.60153e-06
0.000453104
7.18803e-06
0.000443051
9.11966e-06
0.000435523
7.20955e-06
0.000428059
8.68994e-06
0.00042246
7.18013e-06
0.000416682
8.29524e-06
0.000412175
7.11028e-06
0.000406107
7.9213e-06
0.000402768
7.00772e-06
0.000351008
7.66926e-06
6.57215e-06
0.000320228
0.00190174
0.000421002
3.1515e-06
0.00138617
0.000516803
4.95911e-06
0.00104346
0.000352086
2.26193e-06
0.000863038
0.00018335
3.76204e-06
0.000774661
9.6953e-05
2.27521e-06
0.000721241
5.69941e-05
3.42755e-06
0.000688031
4.10138e-05
2.41547e-06
0.000659142
3.28645e-05
3.17649e-06
0.000638765
2.75168e-05
2.48141e-06
0.000619131
2.38745e-05
2.95058e-06
0.000605014
2.07262e-05
2.50865e-06
0.000590828
1.86145e-05
2.78017e-06
0.000580233
1.67483e-05
2.53273e-06
0.000569531
1.52016e-05
2.67007e-06
0.000560754
1.44849e-05
2.57162e-06
0.000552494
1.27438e-05
2.60875e-06
0.000548584
9.17777e-06
2.63809e-06
0.000531325
2.16713e-05
2.57977e-06
0.000633458
-9.71553e-05
2.68427e-06
-7.93488e-05
2.8059e-06
0.00071656
0.00240734
0.000320636
8.41323e-06
0.00234841
0.000561515
1.02902e-05
0.00222719
0.000467139
7.78639e-06
0.00209305
0.00030515
9.12551e-06
0.00198433
0.000198953
7.71045e-06
0.00189439
0.000135358
8.74616e-06
0.00182695
0.000101059
7.8432e-06
0.00176904
7.9701e-05
8.49995e-06
0.00172445
6.41379e-05
7.90552e-06
0.00168409
5.34869e-05
8.28595e-06
0.00165215
4.41996e-05
7.92633e-06
0.00162224
3.7956e-05
8.12137e-06
0.00159775
3.23297e-05
7.94259e-06
0.00157469
2.77604e-05
8.01028e-06
0.0015542
2.56271e-05
7.9719e-06
0.00153731
1.91188e-05
7.9433e-06
0.00151549
2.11786e-05
8.03155e-06
0.00151279
1.37875e-05
7.90222e-06
0.00142917
-2.39814e-05
8.16018e-06
3.77166e-06
8.16718e-06
0.00133465
0.00243066
0.000207748
4.14844e-06
0.00256082
0.000428435
6.1961e-06
0.00262554
0.000407555
3.32599e-06
0.00262672
0.00030238
5.09889e-06
0.00260703
0.000222938
3.33177e-06
0.00257415
0.000167225
4.73887e-06
0.0025446
0.00013398
3.59168e-06
0.00251293
0.000110773
4.51937e-06
0.00248649
9.32699e-05
3.748e-06
0.00245939
8.03233e-05
4.31794e-06
0.00243674
6.90186e-05
3.82569e-06
0.00241376
6.0865e-05
4.15744e-06
0.0023945
5.32841e-05
3.88112e-06
0.00237461
4.76528e-05
4.04917e-06
0.00235882
4.26377e-05
3.94e-06
0.00233965
3.825e-05
3.98849e-06
0.00233091
3.06633e-05
4.01293e-06
0.00230881
3.57111e-05
3.97436e-06
0.00231845
-3.31265e-05
4.01543e-06
-1.48797e-05
4.15307e-06
0.00233636
0.00238272
0.000134392
7.28249e-06
0.00252599
0.000274099
9.19917e-06
0.00266128
0.000268742
6.79627e-06
0.00274339
0.000210445
8.20041e-06
0.00279869
0.000163433
6.73179e-06
0.00282805
0.000128753
7.78528e-06
0.00284959
0.000107493
6.85177e-06
0.00285984
9.18847e-05
7.53232e-06
0.00286807
7.95442e-05
6.92241e-06
0.0028702
6.99365e-05
7.32192e-06
0.0028721
6.11929e-05
6.95022e-06
0.00287039
5.45582e-05
7.15848e-06
0.00286902
4.83257e-05
6.96956e-06
0.00286553
4.32313e-05
7.0467e-06
0.00286203
3.93904e-05
6.9999e-06
0.00285828
3.40817e-05
6.98102e-06
0.00285029
3.1433e-05
7.05797e-06
0.00284917
2.8772e-05
6.96104e-06
0.00280928
-1.1472e-06
7.19912e-06
2.3018e-05
7.2025e-06
0.00276257
0.0023848
6.42235e-05
5.24827e-06
0.00251845
0.000134893
7.23253e-06
0.00265392
0.000135278
4.67525e-06
0.00275169
0.000108215
6.23012e-06
0.00282989
8.65192e-05
4.61335e-06
0.00288488
6.99746e-05
5.8033e-06
0.00293293
5.9908e-05
4.77358e-06
0.00296912
5.23336e-05
5.55933e-06
0.00300217
4.63534e-05
4.88034e-06
0.00302753
4.15705e-05
5.3569e-06
0.00305097
3.7141e-05
4.93317e-06
0.00306904
3.37262e-05
5.19836e-06
0.003086
3.0327e-05
4.97062e-06
0.00309878
2.77988e-05
5.09048e-06
0.00311162
2.51012e-05
5.01452e-06
0.0031197
2.33497e-05
5.02976e-06
0.00313008
1.916e-05
5.07453e-06
0.00313477
2.1271e-05
5.02397e-06
0.00313425
-2.88688e-06
5.10982e-06
7.35765e-06
5.21084e-06
0.00314651
0.00237617
-1.63079e-10
6.24943e-06
0.00250289
2.85279e-10
8.19549e-06
0.00263741
-2.12387e-10
5.77072e-06
0.0027385
7.0004e-10
7.23236e-06
0.00282355
-1.39018e-10
5.70121e-06
0.00288707
1.62932e-09
6.8011e-06
0.00294473
6.61357e-10
5.82917e-06
0.00299106
3.89591e-09
6.55031e-06
0.00303457
3.74282e-09
5.91561e-06
0.00307049
1.05239e-08
6.34594e-06
0.00310433
1.22262e-08
5.95573e-06
0.00313263
3.27954e-08
6.1866e-06
0.00315924
3.11552e-08
5.98356e-06
0.00318165
1.05959e-07
6.07751e-06
0.00320258
8.13347e-08
6.01981e-06
0.00322036
3.03832e-07
6.01521e-06
0.00323471
2.78507e-07
6.07816e-06
0.00324981
7.56564e-07
6.00882e-06
0.00324087
9.58935e-07
6.18081e-06
1.83811e-06
6.2202e-06
0.00324032
0.00237617
-6.42239e-05
6.24943e-06
0.00250289
-0.000134892
8.19549e-06
0.00263741
-0.000135278
5.77072e-06
0.0027385
-0.000108213
7.23237e-06
0.00282355
-8.65196e-05
5.7012e-06
0.00288707
-6.99711e-05
6.8011e-06
0.00294473
-5.99072e-05
5.82916e-06
0.00299106
-5.2325e-05
6.55032e-06
0.00303458
-4.63473e-05
5.91559e-06
0.00307049
-4.15475e-05
6.34598e-06
0.00310434
-3.71205e-05
5.95568e-06
0.00313263
-3.36557e-05
6.1867e-06
0.00315925
-3.02756e-05
5.98344e-06
0.00318165
-2.7576e-05
6.07776e-06
0.00320261
-2.49722e-05
6.01947e-06
0.00322037
-2.27296e-05
6.01579e-06
0.00323484
-1.87144e-05
6.07697e-06
0.00325004
-1.98653e-05
6.00979e-06
0.00324121
4.71099e-06
6.17544e-06
-4.09327e-06
6.22167e-06
0.00324107
0.0023848
-0.000134392
5.24828e-06
0.00251845
-0.000274098
7.23253e-06
0.00265392
-0.000268743
4.67525e-06
0.00275169
-0.000210444
6.23011e-06
0.00282989
-0.000163434
4.61335e-06
0.00288488
-0.00012875
5.8033e-06
0.00293293
-0.000107492
4.77359e-06
0.00296912
-9.18774e-05
5.55932e-06
0.00300217
-7.95375e-05
4.88036e-06
0.00302753
-6.9917e-05
5.35686e-06
0.00305097
-6.11712e-05
4.93322e-06
0.00306905
-5.44983e-05
5.19827e-06
0.00308601
-4.82712e-05
4.97073e-06
0.00309882
-4.30391e-05
5.09024e-06
0.00311165
-3.92516e-05
5.01484e-06
0.0031198
-3.35348e-05
5.02918e-06
0.00313015
-3.09522e-05
5.07559e-06
0.00313493
-2.74499e-05
5.02293e-06
0.00313449
2.87859e-06
5.11443e-06
-1.969e-05
5.20947e-06
0.00314669
0.00238272
-0.000207748
7.28249e-06
0.00252599
-0.000428434
9.19917e-06
0.00266128
-0.000407556
6.79627e-06
0.00274339
-0.000302379
8.20041e-06
0.00279869
-0.000222938
6.73179e-06
0.00282805
-0.000167223
7.78529e-06
0.00284959
-0.00013398
6.85176e-06
0.00285984
-0.000110766
7.53233e-06
0.00286808
-9.32652e-05
6.92238e-06
0.0028702
-8.03056e-05
7.32195e-06
0.00287211
-6.9003e-05
6.95017e-06
0.0028704
-6.08113e-05
7.15856e-06
0.00286905
-5.32473e-05
6.96943e-06
0.00286558
-4.74823e-05
7.0469e-06
0.00286214
-4.25539e-05
6.99954e-06
0.00285846
-3.77767e-05
6.98147e-06
0.00285066
-3.03682e-05
7.05676e-06
0.00284982
-3.46683e-05
6.96183e-06
0.00281042
3.43798e-05
7.19407e-06
1.71683e-05
7.20312e-06
0.00276475
0.00243066
-0.000320636
4.14844e-06
0.00256082
-0.000561515
6.1961e-06
0.00262554
-0.000467139
3.32599e-06
0.00262672
-0.000305149
5.09888e-06
0.00260703
-0.000198953
3.33177e-06
0.00257416
-0.000135356
4.73886e-06
0.0025446
-0.000101058
3.59168e-06
0.00251293
-7.96972e-05
4.51936e-06
0.0024865
-6.41334e-05
3.74801e-06
0.0024594
-5.34769e-05
4.31792e-06
0.00243676
-4.41858e-05
3.82573e-06
0.0024138
-3.79252e-05
4.15738e-06
0.00239454
-3.22972e-05
3.88121e-06
0.00237472
-2.76591e-05
4.04899e-06
0.00235894
-2.55508e-05
3.94027e-06
0.00233996
-1.88332e-05
3.98799e-06
0.00233124
-2.09081e-05
4.01374e-06
0.00230953
-1.31357e-05
3.97337e-06
0.00231939
2.50126e-05
4.01852e-06
-1.93965e-06
4.15205e-06
0.00233775
0.00240734
-0.000421003
8.41323e-06
0.00234841
-0.000516803
1.02902e-05
0.00222719
-0.000352087
7.78639e-06
0.00209305
-0.00018335
9.12551e-06
0.00198433
-9.69531e-05
7.71045e-06
0.00189439
-5.69934e-05
8.74616e-06
0.00182695
-4.10134e-05
7.84319e-06
0.00176904
-3.28627e-05
8.49996e-06
0.00172446
-2.75153e-05
7.9055e-06
0.0016841
-2.38698e-05
8.28598e-06
0.00165218
-2.07216e-05
7.92628e-06
0.00162228
-1.86003e-05
8.12144e-06
0.00159781
-1.67389e-05
7.94248e-06
0.00157481
-1.51542e-05
8.01045e-06
0.00155438
-1.44696e-05
7.97157e-06
0.00153764
-1.26097e-05
7.94374e-06
0.00151606
-9.14713e-06
8.03049e-06
0.00151368
-2.13382e-05
7.90324e-06
0.00143119
9.70623e-05
8.15597e-06
7.9211e-05
8.16909e-06
0.00133863
0.00190174
3.1515e-06
0.00138617
4.95911e-06
0.00104346
2.26193e-06
0.000863039
3.76204e-06
0.000774662
2.27521e-06
0.000721242
3.42754e-06
0.000688032
2.41547e-06
0.000659145
3.17648e-06
0.00063877
2.48142e-06
0.00061914
2.95057e-06
0.000605028
2.50867e-06
0.000590856
2.78013e-06
0.00058027
2.53278e-06
0.000569616
2.66996e-06
0.000560854
2.57175e-06
0.000552729
2.60844e-06
0.000548849
2.63837e-06
0.000531926
2.57904e-06
0.00063396
2.68483e-06
2.80459e-06
0.00071693
0.00214404
0.000171147
-3.99634e-12
0.00190077
0.000248165
-3.97769e-12
0.00164057
0.000262383
-3.96253e-12
0.00141183
0.000232411
-4.19471e-12
0.00122764
0.0001864
-4.53536e-12
0.00109188
0.000139191
-4.77219e-12
0.000995002
9.93741e-05
-4.72085e-12
0.000929478
6.87796e-05
-4.43767e-12
0.000884093
4.78875e-05
-3.93269e-12
0.000853356
3.36596e-05
-3.55129e-12
0.000830894
2.49411e-05
-3.33952e-12
0.000814494
1.91721e-05
-3.41575e-12
0.000801469
1.55608e-05
-3.52154e-12
0.000790743
1.33914e-05
-3.70243e-12
0.000782386
1.0912e-05
-3.84515e-12
0.000773328
1.16498e-05
-4.07113e-12
0.000769905
6.04875e-06
-4.23468e-12
0.000758624
1.38542e-05
-4.35457e-12
0.000766245
-4.93401e-06
-4.39698e-12
-4.11944e-06
-4.3105e-12
0.000773167
0.00236827
0.000123319
-3.99413e-12
0.00241412
0.000212549
-4.19871e-12
0.0024219
0.000262309
-4.10217e-12
0.00239889
0.000264451
-3.42491e-12
0.00235418
0.000238738
-2.96324e-12
0.00230172
0.000200323
-3.71634e-12
0.00224679
0.00016212
-4.85724e-12
0.00219501
0.000129066
-5.1036e-12
0.00214662
0.000104229
-4.16576e-12
0.00210317
8.5462e-05
-3.23669e-12
0.00206364
7.24556e-05
-3.04781e-12
0.00202844
6.25422e-05
-3.44253e-12
0.00199669
5.52929e-05
-3.64388e-12
0.00196841
4.97147e-05
-3.58642e-12
0.00194313
4.41673e-05
-3.45824e-12
0.00192025
4.24505e-05
-3.63114e-12
0.00190078
3.35171e-05
-3.88397e-12
0.00188144
4.10551e-05
-4.24487e-12
0.00186739
1.72324e-05
-4.48161e-12
3.3797e-05
-4.66748e-12
0.0018376
0.00235627
8.32219e-05
-3.97958e-12
0.00242584
0.000149116
-4.08398e-12
0.00249775
0.000193657
-4.12545e-12
0.00256335
0.000203862
-3.87955e-12
0.00261242
0.00019291
-3.39744e-12
0.0026469
0.000170496
-3.21599e-12
0.00266712
0.000145422
-3.36931e-12
0.00267801
0.000122653
-3.74924e-12
0.00268145
0.000104542
-4.00158e-12
0.00268064
9.06229e-05
-4.18923e-12
0.00267667
8.03191e-05
-4.27598e-12
0.00267088
7.25705e-05
-4.30072e-12
0.00266412
6.603e-05
-4.12341e-12
0.00265628
6.16923e-05
-3.87891e-12
0.00264894
5.55243e-05
-3.58404e-12
0.00264015
5.52751e-05
-3.48394e-12
0.00263354
4.41706e-05
-3.39105e-12
0.00262412
5.44384e-05
-3.59688e-12
0.00261833
2.70086e-05
-3.68072e-12
5.02822e-05
-4.07421e-12
0.00260594
0.00234641
5.61133e-05
-3.98387e-12
0.00240614
9.85297e-05
-4.01604e-12
0.00247886
0.000127655
-4.04552e-12
0.00255559
0.000135252
-4.03177e-12
0.00262531
0.000129832
-3.82582e-12
0.00268665
0.000116852
-3.61879e-12
0.00273688
0.000101969
-3.39e-12
0.0027788
8.82198e-05
-3.35203e-12
0.00281296
7.7287e-05
-3.41346e-12
0.00284202
6.89121e-05
-3.70766e-12
0.00286663
6.27125e-05
-3.99773e-12
0.00288823
5.81972e-05
-4.30395e-12
0.00290721
5.41207e-05
-4.39724e-12
0.0029242
5.18531e-05
-4.44308e-12
0.00293937
4.74636e-05
-4.34789e-12
0.00295335
4.83791e-05
-4.29777e-12
0.0029652
3.94574e-05
-4.16081e-12
0.00297745
4.91884e-05
-4.06203e-12
0.00298444
2.72343e-05
-3.95571e-12
5.16394e-05
-3.77684e-12
0.00299026
0.002347
2.63877e-05
-3.98597e-12
0.00240494
4.77614e-05
-4.01728e-12
0.00247431
6.28792e-05
-4.00637e-12
0.00254891
6.67963e-05
-4.05711e-12
0.00261902
6.42469e-05
-3.97368e-12
0.00268353
5.8055e-05
-3.90784e-12
0.00273932
5.08865e-05
-3.72312e-12
0.00278868
4.43651e-05
-3.66277e-12
0.00283169
3.91468e-05
-3.59163e-12
0.0028707
3.52738e-05
-3.72472e-12
0.00290605
3.23464e-05
-3.83216e-12
0.00293912
3.03985e-05
-4.05443e-12
0.00296989
2.84145e-05
-4.16451e-12
0.00299926
2.76811e-05
-4.32958e-12
0.00302656
2.53014e-05
-4.41211e-12
0.00305362
2.64545e-05
-4.50201e-12
0.00307692
2.13372e-05
-4.54007e-12
0.00310371
2.74882e-05
-4.46705e-12
0.0031208
1.52874e-05
-4.4005e-12
2.93103e-05
-4.17535e-12
0.00314834
0.00234466
-1.99189e-10
-3.98787e-12
0.00240056
4.65172e-10
-4.00845e-12
0.00246913
-4.45192e-10
-3.99457e-12
0.00254307
1.09325e-09
-4.02686e-12
0.00261293
-5.4555e-10
-3.98812e-12
0.0026777
2.36351e-09
-3.98463e-12
0.00273434
7.13724e-11
-3.90691e-12
0.0027852
5.31308e-09
-3.90687e-12
0.00283024
2.68732e-09
-3.86192e-12
0.00287187
1.34196e-08
-3.91515e-12
0.00291021
9.18098e-09
-3.91875e-12
0.00294683
3.87728e-08
-4.00195e-12
0.0029813
2.14668e-08
-4.02774e-12
0.00301505
1.15344e-07
-4.12278e-12
0.00304645
4.90103e-08
-4.17417e-12
0.00307872
3.1372e-07
-4.24873e-12
0.00310607
1.62349e-07
-4.27275e-12
0.00313892
7.26657e-07
-4.2658e-12
0.00315976
6.69171e-07
-4.21932e-12
1.43962e-06
-4.15079e-12
0.00319386
0.00234466
-2.63881e-05
-3.98779e-12
0.00240056
-4.77604e-05
-4.00781e-12
0.00246913
-6.28801e-05
-3.99332e-12
0.00254307
-6.67941e-05
-4.00983e-12
0.00261293
-6.42481e-05
-3.98195e-12
0.0026777
-5.80501e-05
-4.01731e-12
0.00273434
-5.08866e-05
-4.0269e-12
0.0027852
-4.43542e-05
-4.1127e-12
0.00283025
-3.9142e-05
-4.12725e-12
0.00287187
-3.52465e-05
-4.15591e-12
0.00291021
-3.23292e-05
-4.08863e-12
0.00294683
-3.03204e-05
-4.06221e-12
0.0029813
-2.83738e-05
-3.98239e-12
0.00301506
-2.74504e-05
-3.97842e-12
0.00304645
-2.52085e-05
-3.90319e-12
0.00307873
-2.58305e-05
-3.89629e-12
0.0031061
-2.10266e-05
-3.80438e-12
0.00313897
-2.60571e-05
-3.82915e-12
0.00315985
-1.40015e-05
-3.78921e-12
-2.65372e-05
-3.88139e-12
0.00319407
0.002347
-5.61136e-05
-3.98955e-12
0.00240494
-9.85288e-05
-3.99874e-12
0.00247431
-0.000127656
-3.97956e-12
0.00254891
-0.00013525
-3.97824e-12
0.00261902
-0.000129833
-3.99898e-12
0.00268353
-0.000116848
-4.10254e-12
0.00273932
-0.000101969
-4.22195e-12
0.00278868
-8.82094e-05
-4.36582e-12
0.00283169
-7.72823e-05
-4.3985e-12
0.0028707
-6.88862e-05
-4.33996e-12
0.00290605
-6.26953e-05
-4.16365e-12
0.00293913
-5.81235e-05
-3.99372e-12
0.0029699
-5.40804e-05
-3.82922e-12
0.00299928
-5.16344e-05
-3.74868e-12
0.00302658
-4.73748e-05
-3.64019e-12
0.00305368
-4.77827e-05
-3.61754e-12
0.00307699
-3.91692e-05
-3.51846e-12
0.00310383
-4.78088e-05
-3.6272e-12
0.00312101
-2.60299e-05
-3.62398e-12
-4.89467e-05
-3.89919e-12
0.00314863
0.00234641
-8.32222e-05
-3.99166e-12
0.00240614
-0.000149115
-3.99852e-12
0.00247886
-0.000193657
-3.93771e-12
0.00255559
-0.00020386
-4.0061e-12
0.00262531
-0.000192911
-4.16163e-12
0.00268665
-0.000170491
-4.41742e-12
0.00273688
-0.000145423
-4.58044e-12
0.0027788
-0.000122643
-4.68584e-12
0.00281296
-0.000104538
-4.5601e-12
0.00284202
-9.05983e-05
-4.32088e-12
0.00286663
-8.03052e-05
-3.95475e-12
0.00288825
-7.25019e-05
-3.7057e-12
0.00290723
-6.59981e-05
-3.57045e-12
0.00292424
-6.14915e-05
-3.61498e-12
0.00293943
-5.54586e-05
-3.69594e-12
0.00295346
-5.47325e-05
-3.8166e-12
0.00296538
-4.39514e-05
-3.91478e-12
0.00297778
-5.32089e-05
-4.05989e-12
0.00298499
-2.6029e-05
-4.11424e-12
-4.80418e-05
-4.3368e-12
0.00299126
0.00235627
-0.000123319
-3.99633e-12
0.00242584
-0.000212548
-3.924e-12
0.00249775
-0.00026231
-3.85819e-12
0.00256335
-0.000264449
-4.18368e-12
0.00261242
-0.000238739
-4.62734e-12
0.0026469
-0.00020032
-4.84878e-12
0.00266712
-0.00016212
-4.61396e-12
0.00267802
-0.000129058
-4.27413e-12
0.00268145
-0.000104226
-3.92191e-12
0.00268065
-8.54433e-05
-3.76866e-12
0.00267668
-7.24443e-05
-3.61455e-12
0.00267091
-6.24901e-05
-3.69039e-12
0.00266415
-5.52691e-05
-3.86361e-12
0.00265636
-4.95616e-05
-4.21845e-12
0.00264904
-4.41253e-05
-4.49193e-12
0.00264039
-4.20355e-05
-4.65095e-12
0.00263385
-3.33766e-05
-4.70176e-12
0.00262473
-4.01222e-05
-4.52978e-12
0.00261922
-1.65331e-05
-4.40751e-12
-3.21635e-05
-4.01267e-12
0.00260744
0.00236827
-0.000171147
-3.96998e-12
0.00241412
-0.000248165
-3.80502e-12
0.0024219
-0.000262383
-3.92751e-12
0.0023989
-0.00023241
-4.68373e-12
0.00235418
-0.0001864
-5.01023e-12
0.00230172
-0.00013919
-4.26524e-12
0.00224679
-9.93736e-05
-3.04839e-12
0.00219502
-6.87764e-05
-2.86584e-12
0.00214663
-4.78846e-05
-3.74233e-12
0.00210318
-3.36518e-05
-4.68065e-12
0.00206366
-2.49333e-05
-4.82108e-12
0.00202849
-1.91486e-05
-4.59852e-12
0.00199675
-1.55466e-05
-4.43014e-12
0.00196854
-1.33177e-05
-4.58426e-12
0.00194329
-1.0895e-05
-4.63511e-12
0.00192062
-1.14407e-05
-4.50932e-12
0.00190124
-6.0012e-06
-4.17443e-12
0.00188237
-1.33885e-05
-3.83014e-12
0.00186871
5.23967e-06
-3.58952e-12
4.59821e-06
-3.34785e-12
0.00184008
0.00214404
-3.94803e-12
0.00190078
-4.01193e-12
0.00164057
-4.15806e-12
0.00141183
-4.07119e-12
0.00122764
-3.46526e-12
0.00109188
-3.01021e-12
0.000995004
-3.08508e-12
0.000929484
-3.74678e-12
0.000884102
-4.27924e-12
0.000853373
-4.51748e-12
0.000830918
-4.47624e-12
0.000814542
-4.48798e-12
0.000801531
-4.45583e-12
0.000790878
-4.41178e-12
0.000782539
-4.19056e-12
0.000773689
-4.00093e-12
0.000770314
-3.77842e-12
0.000759499
-3.73212e-12
0.000767423
-3.68556e-12
-3.78284e-12
0.000774825
0.00214404
0.000171147
-3.15151e-06
0.00190077
0.000248165
-4.95911e-06
0.00164057
0.000262383
-2.26193e-06
0.00141183
0.000232411
-3.76204e-06
0.00122764
0.0001864
-2.27522e-06
0.00109188
0.000139191
-3.42755e-06
0.000995002
9.93741e-05
-2.41548e-06
0.000929478
6.87796e-05
-3.17649e-06
0.000884093
4.78875e-05
-2.48142e-06
0.000853356
3.36596e-05
-2.95059e-06
0.000830894
2.49411e-05
-2.50865e-06
0.000814494
1.91721e-05
-2.78017e-06
0.000801469
1.55608e-05
-2.53273e-06
0.000790743
1.33914e-05
-2.67008e-06
0.000782386
1.0912e-05
-2.57163e-06
0.000773328
1.16498e-05
-2.60875e-06
0.000769905
6.04875e-06
-2.6381e-06
0.000758624
1.38542e-05
-2.57977e-06
0.000766245
-4.93401e-06
-2.68428e-06
-4.11944e-06
-2.8059e-06
0.000773167
0.00236827
0.000123319
-8.41323e-06
0.00241412
0.000212549
-1.02902e-05
0.0024219
0.000262309
-7.7864e-06
0.00239889
0.000264451
-9.12552e-06
0.00235418
0.000238738
-7.71046e-06
0.00230172
0.000200323
-8.74616e-06
0.00224679
0.00016212
-7.84321e-06
0.00219501
0.000129066
-8.49995e-06
0.00214662
0.000104229
-7.90553e-06
0.00210317
8.54619e-05
-8.28596e-06
0.00206364
7.24555e-05
-7.92633e-06
0.00202844
6.25421e-05
-8.12138e-06
0.00199669
5.52929e-05
-7.9426e-06
0.00196841
4.97147e-05
-8.01028e-06
0.00194313
4.41673e-05
-7.97191e-06
0.00192025
4.24505e-05
-7.94331e-06
0.00190078
3.35171e-05
-8.03155e-06
0.00188144
4.10551e-05
-7.90222e-06
0.00186739
1.72324e-05
-8.16018e-06
3.3797e-05
-8.16719e-06
0.0018376
0.00235627
8.32219e-05
-4.14844e-06
0.00242584
0.000149116
-6.1961e-06
0.00249775
0.000193657
-3.32599e-06
0.00256335
0.000203862
-5.09889e-06
0.00261242
0.00019291
-3.33177e-06
0.00264689
0.000170496
-4.73887e-06
0.00266712
0.000145422
-3.59168e-06
0.00267801
0.000122653
-4.51937e-06
0.00268145
0.000104542
-3.748e-06
0.00268064
9.06228e-05
-4.31795e-06
0.00267667
8.0319e-05
-3.8257e-06
0.00267088
7.25704e-05
-4.15745e-06
0.00266412
6.603e-05
-3.88112e-06
0.00265628
6.16923e-05
-4.04918e-06
0.00264894
5.55244e-05
-3.94e-06
0.00264015
5.52751e-05
-3.98849e-06
0.00263354
4.41706e-05
-4.01294e-06
0.00262412
5.44383e-05
-3.97437e-06
0.00261833
2.70086e-05
-4.01544e-06
5.02822e-05
-4.15308e-06
0.00260594
0.00234641
5.61133e-05
-7.2825e-06
0.00240614
9.85297e-05
-9.19917e-06
0.00247886
0.000127655
-6.79628e-06
0.00255559
0.000135252
-8.20042e-06
0.00262531
0.000129832
-6.7318e-06
0.00268665
0.000116852
-7.78529e-06
0.00273688
0.000101969
-6.85177e-06
0.0027788
8.82198e-05
-7.53233e-06
0.00281296
7.7287e-05
-6.92241e-06
0.00284202
6.89121e-05
-7.32192e-06
0.00286663
6.27124e-05
-6.95023e-06
0.00288823
5.81972e-05
-7.15849e-06
0.00290721
5.41207e-05
-6.96957e-06
0.0029242
5.18532e-05
-7.04671e-06
0.00293937
4.74636e-05
-6.99991e-06
0.00295335
4.83791e-05
-6.98103e-06
0.0029652
3.94574e-05
-7.05798e-06
0.00297745
4.91884e-05
-6.96105e-06
0.00298444
2.72343e-05
-7.19912e-06
5.16394e-05
-7.20251e-06
0.00299026
0.002347
2.63877e-05
-5.24828e-06
0.00240494
4.77614e-05
-7.23254e-06
0.00247431
6.28792e-05
-4.67526e-06
0.00254891
6.67963e-05
-6.23012e-06
0.00261902
6.42469e-05
-4.61336e-06
0.00268353
5.8055e-05
-5.80331e-06
0.00273932
5.08865e-05
-4.77359e-06
0.00278868
4.43651e-05
-5.55934e-06
0.00283169
3.91468e-05
-4.88034e-06
0.0028707
3.52737e-05
-5.35691e-06
0.00290605
3.23464e-05
-4.93318e-06
0.00293912
3.03985e-05
-5.19837e-06
0.00296989
2.84145e-05
-4.97063e-06
0.00299926
2.76812e-05
-5.09048e-06
0.00302656
2.53015e-05
-5.01453e-06
0.00305362
2.64545e-05
-5.02977e-06
0.00307692
2.13372e-05
-5.07453e-06
0.00310371
2.74882e-05
-5.02398e-06
0.0031208
1.52874e-05
-5.10983e-06
2.93103e-05
-5.21085e-06
0.00314834
0.00234466
-1.97221e-10
-6.24943e-06
0.00240056
4.7084e-10
-8.1955e-06
0.00246913
-4.39718e-10
-5.77073e-06
0.00254307
1.09306e-09
-7.23237e-06
0.00261293
-5.53286e-10
-5.70121e-06
0.0026777
2.34858e-09
-6.8011e-06
0.00273434
5.01755e-11
-5.82917e-06
0.0027852
5.28129e-09
-6.55031e-06
0.00283024
2.63302e-09
-5.91562e-06
0.00287187
1.33439e-08
-6.34595e-06
0.00291021
9.10765e-09
-5.95573e-06
0.00294683
3.87329e-08
-6.18661e-06
0.0029813
2.14747e-08
-5.98357e-06
0.00301505
1.15387e-07
-6.07752e-06
0.00304645
4.90659e-08
-6.01982e-06
0.00307872
3.13772e-07
-6.01522e-06
0.00310607
1.62386e-07
-6.07817e-06
0.00313892
7.26683e-07
-6.00883e-06
0.00315976
6.69184e-07
-6.18081e-06
1.43962e-06
-6.22021e-06
0.00319386
0.00234466
-2.63881e-05
-6.24943e-06