/*--------------------------------*- C++ -*----------------------------------*\
  =========                 |
  \\      /  F ield         | OpenFOAM: The Open Source CFD Toolbox
   \\    /   O peration     | Website:  https://openfoam.org
    \\  /    A nd           | Version:  7
     \\/     M anipulation  |
\*---------------------------------------------------------------------------*/
FoamFile
{
    version     2.0;
    format      ascii;
    class       volVectorField;
    location    "0.56";
    object      U;
}
// * * * * * * * * * * * * * * * * * * * * * * * * * * * * * * * * * * * * * //

dimensions      [0 1 -1 0 0 0 0];

internalField   nonuniform List<vector> 
7920
(
(2.93351 0.101583 -32.3529)
(2.11209 -0.459962 -32.3433)
(1.40252 -0.61313 -32.3118)
(1.29493 -0.669233 -32.3393)
(1.06177 -0.686741 -32.3657)
(1.08877 -0.692469 -32.4088)
(0.948861 -0.697087 -32.4187)
(0.994762 -0.697417 -32.4253)
(0.889948 -0.699166 -32.4079)
(0.935337 -0.698483 -32.3985)
(0.85214 -0.699798 -32.3814)
(0.893411 -0.699061 -32.3757)
(0.825899 -0.699915 -32.3668)
(0.862269 -0.699218 -32.365)
(0.806652 -0.699538 -32.3628)
(0.838342 -0.699543 -32.3613)
(0.790733 -0.695633 -32.367)
(0.815269 -0.702487 -32.3596)
(0.779544 -0.644784 -32.3824)
(0.616886 -0.657684 -32.3504)
(4.41473 0.966937 -32.4176)
(4.34339 0.872689 -32.4156)
(3.70068 0.818402 -32.3804)
(3.56214 0.751737 -32.3881)
(3.17173 0.724442 -32.4024)
(3.17364 0.711739 -32.4389)
(2.91852 0.705626 -32.46)
(2.9666 0.702418 -32.4793)
(2.77803 0.700383 -32.479)
(2.83637 0.698607 -32.4777)
(2.68909 0.697315 -32.4678)
(2.7473 0.695891 -32.4612)
(2.62939 0.695064 -32.4531)
(2.6838 0.693965 -32.4474)
(2.58775 0.693152 -32.4439)
(2.63977 0.693244 -32.4367)
(2.55466 0.689355 -32.4403)
(2.6276 0.694845 -32.4256)
(2.50947 0.684262 -32.4465)
(2.80446 0.676528 -32.3988)
(4.75487 0.192414 -32.4266)
(5.26693 -0.228017 -32.4267)
(5.1306 -0.372776 -32.3858)
(5.25138 -0.490541 -32.3829)
(5.0177 -0.555466 -32.377)
(5.07825 -0.592521 -32.3948)
(4.87588 -0.61734 -32.4039)
(4.92947 -0.631293 -32.4283)
(4.76519 -0.641806 -32.444)
(4.81618 -0.648323 -32.4668)
(4.68294 -0.653515 -32.4766)
(4.73034 -0.657308 -32.4857)
(4.62171 -0.660264 -32.4848)
(4.66496 -0.662814 -32.4833)
(4.57751 -0.665097 -32.4797)
(4.6135 -0.665726 -32.471)
(4.5509 -0.670474 -32.4682)
(4.56147 -0.665053 -32.449)
(4.54672 -0.669015 -32.4513)
(4.47151 -0.685313 -32.4056)
(4.75548 0.648835 -32.4369)
(5.29223 0.748629 -32.4372)
(5.39978 0.795354 -32.3972)
(5.71345 0.76595 -32.392)
(5.66476 0.748666 -32.3831)
(5.84671 0.735193 -32.3921)
(5.76385 0.725377 -32.3908)
(5.8868 0.717524 -32.4041)
(5.80379 0.711261 -32.4165)
(5.89617 0.705283 -32.4442)
(5.82153 0.700912 -32.4676)
(5.89467 0.696334 -32.4917)
(5.82867 0.693626 -32.5047)
(5.8891 0.689911 -32.5129)
(5.82967 0.688857 -32.5169)
(5.8853 0.684739 -32.5154)
(5.82541 0.686779 -32.515)
(5.89234 0.680307 -32.5019)
(5.81682 0.691839 -32.4924)
(5.95657 0.706557 -32.4466)
(4.74775 -0.0883797 -32.4362)
(5.25616 -0.386272 -32.4352)
(5.42015 -0.478238 -32.3931)
(5.788 -0.543776 -32.3884)
(5.80777 -0.579751 -32.3787)
(6.04906 -0.600227 -32.3868)
(6.03235 -0.614884 -32.3809)
(6.20732 -0.623027 -32.3882)
(6.18309 -0.629868 -32.3936)
(6.31882 -0.634057 -32.4184)
(6.29483 -0.637958 -32.4434)
(6.40294 -0.640688 -32.4741)
(6.37975 -0.643542 -32.4941)
(6.46644 -0.64517 -32.5096)
(6.4452 -0.648823 -32.5183)
(6.51407 -0.647106 -32.5249)
(6.50004 -0.657206 -32.5287)
(6.54276 -0.645689 -32.5271)
(6.54997 -0.67057 -32.516)
(6.54547 -0.689126 -32.4774)
(4.73517 0.351933 -32.44)
(5.19948 0.556268 -32.439)
(5.37355 0.634061 -32.3967)
(5.75677 0.654164 -32.3924)
(5.80024 0.664686 -32.3829)
(6.06492 0.668602 -32.3913)
(6.07445 0.67119 -32.3846)
(6.27336 0.671494 -32.3899)
(6.27586 0.671733 -32.3925)
(6.43465 0.670733 -32.4151)
(6.43651 0.670239 -32.4394)
(6.56605 0.668964 -32.4715)
(6.56653 0.668718 -32.4937)
(6.67259 0.667152 -32.5118)
(6.67114 0.668388 -32.5221)
(6.75916 0.664504 -32.5321)
(6.7571 0.671727 -32.5383)
(6.82845 0.660833 -32.5433)
(6.83077 0.683361 -32.534)
(6.89034 0.705882 -32.5006)
(4.73517 -0.351933 -32.44)
(5.19948 -0.556267 -32.439)
(5.37355 -0.634062 -32.3967)
(5.75677 -0.654164 -32.3924)
(5.80024 -0.664686 -32.3829)
(6.06492 -0.668602 -32.3913)
(6.07446 -0.671191 -32.3846)
(6.27336 -0.671491 -32.3899)
(6.27586 -0.671732 -32.3925)
(6.43465 -0.670726 -32.4151)
(6.43652 -0.67023 -32.4394)
(6.56604 -0.668943 -32.4715)
(6.56656 -0.668688 -32.4937)
(6.67257 -0.66707 -32.5118)
(6.67123 -0.668335 -32.522)
(6.75909 -0.664196 -32.5321)
(6.75731 -0.671646 -32.5383)
(6.82832 -0.659916 -32.5433)
(6.83101 -0.682934 -32.5341)
(6.89008 -0.7041 -32.5005)
(4.74775 0.0883799 -32.4362)
(5.25616 0.386273 -32.4352)
(5.42015 0.478237 -32.3931)
(5.78801 0.543775 -32.3884)
(5.80777 0.57975 -32.3786)
(6.04907 0.600228 -32.3868)
(6.03235 0.614884 -32.3809)
(6.20733 0.623028 -32.3882)
(6.18308 0.62987 -32.3936)
(6.31884 0.634061 -32.4185)
(6.2948 0.63797 -32.4433)
(6.40299 0.640703 -32.4742)
(6.3797 0.643577 -32.494)
(6.46656 0.645237 -32.5098)
(6.44514 0.648885 -32.518)
(6.51434 0.647385 -32.5252)
(6.50006 0.657292 -32.5283)
(6.54337 0.6466 -32.5276)
(6.55056 0.670958 -32.5157)
(6.54713 0.69103 -32.4776)
(4.75548 -0.648835 -32.4369)
(5.29223 -0.748629 -32.4372)
(5.39978 -0.795355 -32.3972)
(5.71345 -0.76595 -32.392)
(5.66476 -0.748667 -32.3831)
(5.84671 -0.735192 -32.3922)
(5.76384 -0.725378 -32.3907)
(5.8868 -0.717521 -32.4042)
(5.80379 -0.711262 -32.4164)
(5.89619 -0.705275 -32.4443)
(5.82153 -0.700908 -32.4674)
(5.89471 -0.69631 -32.492)
(5.82868 -0.69361 -32.5043)
(5.88921 -0.689828 -32.5135)
(5.82976 -0.688836 -32.516)
(5.88553 -0.684455 -32.5166)
(5.8258 -0.686777 -32.5134)
(5.89281 -0.679513 -32.504)
(5.81794 -0.691637 -32.4899)
(5.95769 -0.705223 -32.4495)
(4.75487 -0.192413 -32.4266)
(5.26693 0.228017 -32.4267)
(5.1306 0.372775 -32.3858)
(5.25138 0.49054 -32.3829)
(5.0177 0.555466 -32.377)
(5.07825 0.59252 -32.3948)
(4.87588 0.61734 -32.4038)
(4.92947 0.631292 -32.4284)
(4.76518 0.641809 -32.4439)
(4.81621 0.648321 -32.467)
(4.68292 0.653528 -32.4763)
(4.73043 0.657307 -32.4861)
(4.62167 0.660297 -32.4841)
(4.66522 0.662833 -32.4843)
(4.57746 0.665154 -32.4781)
(4.61412 0.665862 -32.4736)
(4.55109 0.670538 -32.4643)
(4.5629 0.665623 -32.4549)
(4.54804 0.669218 -32.443)
(4.47553 0.686526 -32.4171)
(4.41474 -0.966937 -32.4176)
(4.34339 -0.872689 -32.4156)
(3.70068 -0.818403 -32.3804)
(3.56214 -0.751737 -32.3881)
(3.17172 -0.724443 -32.4024)
(3.17364 -0.711739 -32.4389)
(2.91851 -0.705627 -32.4599)
(2.9666 -0.702416 -32.4793)
(2.77803 -0.700385 -32.4789)
(2.83639 -0.698601 -32.4778)
(2.6891 -0.697317 -32.4676)
(2.74736 -0.695875 -32.4616)
(2.62941 -0.695066 -32.4525)
(2.68396 -0.693914 -32.4484)
(2.58788 -0.693165 -32.4422)
(2.64012 -0.693078 -32.4396)
(2.55527 -0.689436 -32.4353)
(2.62817 -0.694432 -32.4344)
(2.51153 -0.684511 -32.4312)
(2.80514 -0.676682 -32.4246)
(2.93351 -0.101583 -32.3529)
(2.11209 0.459962 -32.3433)
(1.40252 0.61313 -32.3118)
(1.29493 0.669232 -32.3393)
(1.06177 0.68674 -32.3656)
(1.08877 0.692468 -32.4088)
(0.94886 0.697088 -32.4187)
(0.994765 0.697414 -32.4253)
(0.889947 0.699168 -32.4078)
(0.935349 0.698478 -32.3986)
(0.85214 0.699805 -32.3812)
(0.893447 0.699048 -32.376)
(0.825899 0.69993 -32.3663)
(0.862371 0.699182 -32.366)
(0.80668 0.699577 -32.3614)
(0.838583 0.699455 -32.3638)
(0.790962 0.695749 -32.3626)
(0.815785 0.702375 -32.3675)
(0.780587 0.645305 -32.3682)
(0.618878 0.65848 -32.3758)
(4.3282 0.565719 0.00736199)
(3.09145 0.846661 0.00489014)
(2.33432 0.868029 0.00615075)
(1.77377 0.851222 0.00467654)
(1.63758 0.854273 0.00582589)
(1.43673 0.866956 0.00466611)
(1.42976 0.877962 0.00562496)
(1.31027 0.886791 0.00463799)
(1.31747 0.891339 0.00541456)
(1.23496 0.894943 0.00457886)
(1.24434 0.896496 0.00521441)
(1.1863 0.898355 0.00451164)
(1.19469 0.89901 0.00503197)
(1.152 0.900462 0.00444164)
(1.15929 0.900244 0.00486732)
(1.12496 0.902913 0.00437097)
(1.13351 0.894729 0.00471918)
(1.12116 0.918409 0.0042961)
(1.06815 0.796412 0.00461261)
(1.52566 0.820309 0.00415913)
(4.76152 -0.100252 0.00478765)
(4.62455 -0.276364 0.00275756)
(4.54746 -0.47464 0.0040535)
(4.17745 -0.639311 0.00261098)
(4.0439 -0.735359 0.00375885)
(3.77768 -0.79136 0.00259809)
(3.71238 -0.819579 0.00355861)
(3.53729 -0.837377 0.0025812)
(3.50507 -0.847885 0.00336565)
(3.38345 -0.855792 0.00253489)
(3.36484 -0.861147 0.00317379)
(3.27795 -0.865603 0.00247158)
(3.26653 -0.8685 0.00299273)
(3.2027 -0.871818 0.00240189)
(3.19748 -0.8726 0.00282687)
(3.1453 -0.877215 0.00233134)
(3.15629 -0.874971 0.00267367)
(3.08829 -0.881234 0.0022605)
(3.1729 -0.888329 0.00250702)
(2.81688 -0.891542 0.00211319)
(4.64004 0.434635 0.00608484)
(4.83629 0.868913 0.00412901)
(5.15826 0.966315 0.0053067)
(5.11066 0.957894 0.00382453)
(5.18275 0.940907 0.00494619)
(5.06044 0.928981 0.0037717)
(5.07638 0.92043 0.0047237)
(4.97023 0.914945 0.00374433)
(4.97437 0.908415 0.00452829)
(4.89081 0.904542 0.00369896)
(4.88956 0.899591 0.00433879)
(4.82436 0.89716 0.00363662)
(4.81995 0.89388 0.00415889)
(4.77002 0.892194 0.00356699)
(4.76251 0.890329 0.00399187)
(4.72946 0.888091 0.00349207)
(4.70915 0.885429 0.00383792)
(4.71709 0.887687 0.00341197)
(4.64999 0.842508 0.00372536)
(4.77535 0.890295 0.0033028)
(4.57876 -0.201452 0.00490709)
(4.71071 -0.397461 0.00317307)
(5.14576 -0.517435 0.00435716)
(5.2547 -0.621437 0.00290403)
(5.47988 -0.689007 0.00402644)
(5.49233 -0.736584 0.00285451)
(5.61354 -0.763834 0.00380751)
(5.60039 -0.783769 0.00283004)
(5.67521 -0.796614 0.00361461)
(5.65713 -0.807152 0.00278794)
(5.70548 -0.814925 0.00342941)
(5.68682 -0.82162 0.00273066)
(5.71819 -0.826966 0.00325601)
(5.7004 -0.831727 0.00266792)
(5.72206 -0.836087 0.00309511)
(5.70351 -0.83908 0.00259835)
(5.72351 -0.847813 0.00293866)
(5.68593 -0.842111 0.00252133)
(5.73511 -0.879059 0.00276548)
(5.53832 -0.895947 0.00240199)
(4.59163 0.340966 0.00555981)
(4.70672 0.686598 0.0038639)
(5.12157 0.800654 0.0049997)
(5.25119 0.842283 0.00353284)
(5.51597 0.859923 0.00464311)
(5.57681 0.870607 0.00346537)
(5.74767 0.875158 0.00441551)
(5.78575 0.878234 0.0034361)
(5.90802 0.877637 0.004219)
(5.93729 0.877599 0.00339085)
(6.02781 0.875578 0.00403083)
(6.05048 0.874826 0.00333152)
(6.11732 0.873086 0.003857)
(6.13498 0.871992 0.00326942)
(6.18343 0.871544 0.00369783)
(6.20007 0.868375 0.00320053)
(6.2285 0.871746 0.00354574)
(6.24848 0.864799 0.00312131)
(6.25717 0.863884 0.00341694)
(6.245 0.914853 0.00302963)
(4.58563 -0.268672 0.00518929)
(4.67891 -0.538059 0.00355846)
(5.08864 -0.651828 0.00469388)
(5.21936 -0.722406 0.00323403)
(5.49508 -0.763104 0.0043423)
(5.57057 -0.791388 0.00316429)
(5.75901 -0.806693 0.00411439)
(5.81615 -0.817978 0.00313521)
(5.95827 -0.823954 0.00391817)
(6.00807 -0.829231 0.00309004)
(6.11889 -0.832216 0.00372973)
(6.16157 -0.835306 0.00303067)
(6.24803 -0.837432 0.00355636)
(6.28341 -0.839264 0.00296968)
(6.35137 -0.842111 0.00339828)
(6.37959 -0.841134 0.00290222)
(6.43336 -0.850276 0.00324455)
(6.44294 -0.840486 0.00282441)
(6.49984 -0.868745 0.00309135)
(6.40465 -0.904435 0.00272877)
(4.58563 0.268672 0.00518929)
(4.67891 0.538059 0.00355846)
(5.08864 0.651827 0.00469388)
(5.21936 0.722406 0.00323403)
(5.49508 0.763104 0.0043423)
(5.57057 0.791389 0.00316429)
(5.75901 0.806693 0.0041144)
(5.81616 0.81798 0.0031352)
(5.95826 0.823956 0.00391817)
(6.00808 0.82924 0.00309003)
(6.11887 0.832225 0.00372974)
(6.1616 0.835339 0.00303063)
(6.24799 0.837456 0.0035564)
(6.28348 0.839366 0.00296959)
(6.35129 0.84218 0.00339839)
(6.37979 0.841422 0.00290197)
(6.4332 0.850536 0.00324493)
(6.44356 0.841234 0.00282385)
(6.50002 0.869621 0.00309279)
(6.40567 0.906338 0.00272818)
(4.59163 -0.340966 0.00555981)
(4.70672 -0.686598 0.0038639)
(5.12157 -0.800654 0.0049997)
(5.25119 -0.842283 0.00353284)
(5.51597 -0.859924 0.00464311)
(5.57681 -0.870605 0.00346537)
(5.74767 -0.875158 0.0044155)
(5.78575 -0.87823 0.00343611)
(5.90802 -0.877637 0.00421899)
(5.93729 -0.877587 0.00339087)
(6.02782 -0.875573 0.0040308)
(6.05049 -0.874788 0.00333157)
(6.11736 -0.873073 0.00385693)
(6.13498 -0.871879 0.00326953)
(6.18356 -0.871507 0.00369767)
(6.20003 -0.868072 0.0032008)
(6.22889 -0.871583 0.00354529)
(6.2483 -0.864146 0.00312177)
(6.25787 -0.863131 0.00341554)
(6.24505 -0.913117 0.00302967)
(4.57876 0.201451 0.00490709)
(4.71071 0.397461 0.00317308)
(5.14576 0.517435 0.00435716)
(5.2547 0.621437 0.00290403)
(5.47988 0.689007 0.00402644)
(5.49233 0.736585 0.00285451)
(5.61354 0.763835 0.00380751)
(5.6004 0.78377 0.00283004)
(5.6752 0.796617 0.00361461)
(5.65716 0.807157 0.00278794)
(5.70545 0.814936 0.00342941)
(5.68689 0.821639 0.00273065)
(5.71816 0.826996 0.00325601)
(5.70057 0.831794 0.00266789)
(5.72202 0.836168 0.00309513)
(5.70396 0.839286 0.00259824)
(5.72359 0.848092 0.00293886)
(5.68719 0.842746 0.00252096)
(5.73601 0.880035 0.00276678)
(5.54141 0.897556 0.00240131)
(4.64004 -0.434635 0.00608484)
(4.83629 -0.868913 0.00412901)
(5.15826 -0.966316 0.0053067)
(5.11066 -0.957893 0.00382454)
(5.18275 -0.940908 0.00494619)
(5.06045 -0.928979 0.00377171)
(5.07638 -0.92043 0.00472369)
(4.97024 -0.914941 0.00374434)
(4.97437 -0.908416 0.00452827)
(4.89083 -0.904531 0.00369899)
(4.88956 -0.899593 0.00433873)
(4.82442 -0.897126 0.00363669)
(4.81997 -0.893886 0.00415876)
(4.77016 -0.892094 0.00356719)
(4.76265 -0.890347 0.00399153)
(4.7298 -0.887829 0.00349254)
(4.70966 -0.885435 0.0038371)
(4.71786 -0.887234 0.00341285)
(4.6513 -0.842396 0.0037235)
(4.77738 -0.889729 0.00330322)
(4.76151 0.100252 0.00478765)
(4.62455 0.276364 0.00275756)
(4.54746 0.474641 0.0040535)
(4.17745 0.639311 0.00261098)
(4.0439 0.73536 0.00375884)
(3.77769 0.791359 0.00259809)
(3.71238 0.819581 0.0035586)
(3.5373 0.837376 0.00258121)
(3.50507 0.847889 0.00336564)
(3.38348 0.855788 0.00253489)
(3.36482 0.861159 0.00317377)
(3.27805 0.865597 0.0024716)
(3.26652 0.868531 0.00299268)
(3.20295 0.871807 0.00240194)
(3.1975 0.872682 0.00282673)
(3.14599 0.877205 0.0023315)
(3.15642 0.875201 0.00267336)
(3.09046 0.881401 0.00226082)
(3.17323 0.889176 0.00250699)
(2.82428 0.892971 0.00211366)
(4.3282 -0.565719 0.00736198)
(3.09145 -0.84666 0.00489014)
(2.33432 -0.868029 0.00615075)
(1.77377 -0.851221 0.00467655)
(1.63758 -0.854273 0.00582589)
(1.43673 -0.866955 0.00466612)
(1.42976 -0.877963 0.00562495)
(1.31027 -0.886788 0.004638)
(1.31747 -0.891341 0.00541454)
(1.23498 -0.894936 0.0045789)
(1.24435 -0.896504 0.00521435)
(1.18634 -0.898335 0.00451174)
(1.19474 -0.899033 0.0050318)
(1.15209 -0.900403 0.0044419)
(1.15945 -0.90031 0.00486686)
(1.12517 -0.902759 0.00437169)
(1.13402 -0.89493 0.00471788)
(1.12171 -0.918204 0.00429815)
(1.06939 -0.797457 0.00460828)
(1.52692 -0.821604 0.00416493)
(4.38269 0.0968462 0.00160652)
(3.98158 0.148784 0.00214957)
(3.45656 0.162601 0.00119521)
(2.99238 0.156771 0.00173443)
(2.58972 0.145455 0.00121241)
(2.29699 0.137026 0.00163109)
(2.07956 0.132014 0.00128932)
(1.93457 0.131793 0.00154843)
(1.83617 0.134156 0.00131412)
(1.77111 0.138521 0.00146321)
(1.73386 0.143334 0.00131937)
(1.70748 0.14882 0.00139584)
(1.69706 0.153714 0.00132073)
(1.68631 0.159275 0.00134648)
(1.68333 0.162674 0.00132492)
(1.68224 0.168836 0.00131254)
(1.67477 0.167722 0.00133682)
(1.69915 0.178879 0.0012879)
(1.65384 0.163678 0.00133693)
(1.76559 0.175918 0.00134554)
(4.54456 0.0874735 0.00339628)
(4.6906 0.118722 0.00411437)
(4.74086 0.11957 0.0031516)
(4.74209 0.0937003 0.00366716)
(4.67592 0.0562181 0.00311948)
(4.59415 0.0145297 0.00352186)
(4.49832 -0.023249 0.00317371)
(4.40706 -0.0557657 0.0034346)
(4.32202 -0.0811486 0.00320377)
(4.24255 -0.101747 0.00335523)
(4.17538 -0.117485 0.00321034)
(4.11263 -0.130017 0.00328568)
(4.0638 -0.13948 0.00320778)
(4.01825 -0.147036 0.00323071)
(3.98557 -0.153377 0.00320678)
(3.95823 -0.158273 0.00319093)
(3.93898 -0.164606 0.00321714)
(3.93571 -0.164905 0.00316145)
(3.91503 -0.174871 0.00325192)
(3.94553 -0.170576 0.00325231)
(4.52001 0.0456768 0.00196345)
(4.66857 0.110007 0.00256963)
(4.80673 0.161579 0.00164143)
(4.96481 0.189864 0.00216117)
(5.08077 0.200433 0.00161834)
(5.17659 0.201846 0.00202401)
(5.23728 0.198994 0.00168035)
(5.27927 0.196425 0.00194326)
(5.30464 0.194513 0.00171746)
(5.31781 0.193679 0.0018716)
(5.32478 0.193064 0.00173144)
(5.32379 0.193298 0.00180961)
(5.32187 0.193075 0.00173561)
(5.31688 0.194145 0.00176155)
(5.31125 0.192438 0.00173889)
(5.30902 0.195068 0.00172571)
(5.29983 0.187348 0.00174434)
(5.30658 0.19918 0.00170404)
(5.29312 0.174803 0.00172558)
(5.30844 0.209666 0.00175306)
(4.51606 0.0440182 0.00298032)
(4.63442 0.0505445 0.00369385)
(4.76465 0.04592 0.00278854)
(4.93328 0.0284606 0.00331408)
(5.08022 0.0065142 0.00275851)
(5.22277 -0.0182589 0.003154)
(5.33826 -0.0419601 0.00280007)
(5.43933 -0.0634138 0.0030579)
(5.52427 -0.0813175 0.00282732)
(5.59629 -0.0963568 0.00297964)
(5.66005 -0.108848 0.00283746)
(5.712 -0.118938 0.00291555)
(5.76103 -0.127771 0.00284141)
(5.80009 -0.134415 0.00286837)
(5.84033 -0.141905 0.00284701)
(5.86938 -0.146017 0.00283388)
(5.90397 -0.155132 0.0028566)
(5.91858 -0.154253 0.00281071)
(5.95762 -0.166801 0.0028915)
(5.94095 -0.159862 0.00289167)
(4.51717 0.0165912 0.00228084)
(4.63558 0.0555252 0.0029504)
(4.75892 0.0908592 0.00205591)
(4.92164 0.116359 0.00257242)
(5.06631 0.132679 0.00201414)
(5.2124 0.14394 0.0024092)
(5.33612 0.15187 0.00205782)
(5.44968 0.158834 0.00231753)
(5.55002 0.164768 0.00208896)
(5.63998 0.170238 0.00224135)
(5.7237 0.174727 0.00210001)
(5.79671 0.178922 0.00217813)
(5.86838 0.181955 0.00210516)
(5.92941 0.185304 0.00213284)
(5.99363 0.186108 0.00211219)
(6.04278 0.18983 0.0021008)
(6.103 0.185728 0.00211968)
(6.1297 0.195699 0.00208434)
(6.20311 0.180194 0.0021156)
(6.18284 0.209337 0.00214219)
(4.51592 0.0118594 0.0026133)
(4.62778 -0.0040897 0.00331134)
(4.74975 -0.0234656 0.00242395)
(4.91081 -0.0448251 0.00294638)
(5.05461 -0.063798 0.00238696)
(5.20051 -0.0815109 0.00278084)
(5.3252 -0.0970298 0.00242737)
(5.44089 -0.110861 0.00268634)
(5.54466 -0.122514 0.00245675)
(5.63882 -0.132439 0.00260878)
(5.72814 -0.140735 0.00246673)
(5.80689 -0.147541 0.00254463)
(5.88637 -0.153382 0.00247146)
(5.95404 -0.157996 0.0024991)
(6.02847 -0.162339 0.00247872)
(6.08333 -0.165686 0.002467)
(6.15691 -0.168879 0.00248803)
(6.1851 -0.172344 0.00245068)
(6.27739 -0.171902 0.0025095)
(6.25154 -0.181364 0.00252079)
(4.51592 -0.0118596 0.0026133)
(4.62778 0.00408987 0.00331134)
(4.74975 0.0234649 0.00242394)
(4.91081 0.0448258 0.00294638)
(5.05461 0.0637975 0.00238696)
(5.20051 0.0815129 0.00278084)
(5.3252 0.0970291 0.00242736)
(5.44089 0.110865 0.00268635)
(5.54465 0.122514 0.00245674)
(5.63882 0.13245 0.00260879)
(5.72813 0.140739 0.00246671)
(5.8069 0.147577 0.00254466)
(5.88636 0.153391 0.00247142)
(5.95405 0.158099 0.00249919)
(6.02846 0.162366 0.0024786)
(6.08336 0.165968 0.00246722)
(6.15692 0.169014 0.00248762)
(6.18517 0.173026 0.00245108)
(6.2775 0.172544 0.00250772)
(6.25175 0.182862 0.00252149)
(4.51717 -0.0165914 0.00228084)
(4.63558 -0.055525 0.0029504)
(4.75892 -0.0908599 0.00205591)
(4.92164 -0.116359 0.00257242)
(5.06631 -0.13268 0.00201414)
(5.21241 -0.143938 0.0024092)
(5.33612 -0.151871 0.00205782)
(5.44968 -0.15883 0.00231752)
(5.55002 -0.164769 0.00208896)
(5.63998 -0.170226 0.00224134)
(5.72371 -0.174725 0.00210002)
(5.79671 -0.178885 0.0021781)
(5.8684 -0.181949 0.0021052)
(5.92941 -0.1852 0.00213275)
(5.99369 -0.186086 0.00211231)
(6.04278 -0.189551 0.00210057)
(6.10316 -0.185607 0.00212005)
(6.12976 -0.195041 0.00208391)
(6.20347 -0.179597 0.00211718)
(6.18319 -0.20794 0.00214146)
(4.51606 -0.0440184 0.00298032)
(4.63442 -0.0505444 0.00369385)
(4.76465 -0.0459206 0.00278854)
(4.93328 -0.0284601 0.00331409)
(5.08022 -0.00651472 0.0027585)
(5.22277 0.0182607 0.003154)
(5.33826 0.0419596 0.00280006)
(5.43933 0.0634174 0.00305791)
(5.52426 0.0813177 0.00282731)
(5.5963 0.0963667 0.00297966)
(5.66004 0.108851 0.00283743)
(5.71203 0.11897 0.00291559)
(5.76103 0.12778 0.00284135)
(5.80015 0.134508 0.00286846)
(5.84038 0.141928 0.00284686)
(5.86951 0.146276 0.00283407)
(5.90419 0.155241 0.00285616)
(5.91892 0.154892 0.00281102)
(5.95838 0.167343 0.00288977)
(5.942 0.161299 0.00289199)
(4.52001 -0.0456769 0.00196345)
(4.66857 -0.110006 0.00256963)
(4.80673 -0.16158 0.00164143)
(4.96481 -0.189863 0.00216118)
(5.08077 -0.200433 0.00161834)
(5.1766 -0.201844 0.00202401)
(5.23728 -0.198995 0.00168035)
(5.27929 -0.19642 0.00194326)
(5.30463 -0.194515 0.00171746)
(5.31784 -0.193668 0.00187161)
(5.32476 -0.193066 0.00173143)
(5.32386 -0.193266 0.00180962)
(5.32185 -0.193077 0.0017356)
(5.31703 -0.194053 0.00176155)
(5.31129 -0.192439 0.00173889)
(5.30933 -0.194831 0.00172563)
(5.30015 -0.187297 0.00174447)
(5.30726 -0.198648 0.00170379)
(5.29422 -0.174436 0.00172653)
(5.31025 -0.208655 0.00175273)
(4.54456 -0.0874735 0.00339628)
(4.6906 -0.118722 0.00411438)
(4.74086 -0.11957 0.0031516)
(4.74209 -0.0937001 0.00366716)
(4.67592 -0.0562179 0.00311947)
(4.59416 -0.014529 0.00352187)
(4.49832 0.0232497 0.00317369)
(4.40708 0.0557666 0.00343462)
(4.322 0.0811505 0.00320374)
(4.2426 0.10175 0.00335529)
(4.17534 0.117491 0.00321025)
(4.11276 0.130029 0.00328582)
(4.06373 0.139492 0.00320756)
(4.01856 0.147079 0.00323103)
(3.98551 0.153397 0.00320627)
(3.95894 0.158407 0.00319167)
(3.93904 0.164668 0.00321591)
(3.93738 0.165259 0.00316303)
(3.91575 0.175181 0.00324884)
(3.94955 0.171412 0.00325511)
(4.38269 -0.0968462 0.00160652)
(3.98158 -0.148784 0.00214957)
(3.45656 -0.162601 0.00119521)
(2.99238 -0.156771 0.00173443)
(2.58972 -0.145455 0.00121241)
(2.29699 -0.137026 0.00163109)
(2.07956 -0.132014 0.00128932)
(1.93458 -0.131791 0.00154844)
(1.83616 -0.134156 0.00131411)
(1.77115 -0.138518 0.00146322)
(1.73385 -0.143335 0.00131934)
(1.70757 -0.148812 0.00139588)
(1.69707 -0.153718 0.00132067)
(1.68652 -0.159251 0.00134657)
(1.68341 -0.16269 0.00132476)
(1.68274 -0.168768 0.00131277)
(1.67507 -0.167768 0.00133631)
(1.7006 -0.17873 0.00128867)
(1.65441 -0.16378 0.00133534)
(1.77019 -0.175908 0.00134796)
(4.38269 0.0968462 -0.00160654)
(3.98158 0.148784 -0.00214958)
(3.45656 0.162601 -0.00119522)
(2.99238 0.156771 -0.00173445)
(2.58972 0.145455 -0.00121243)
(2.29699 0.137026 -0.00163111)
(2.07956 0.132014 -0.00128934)
(1.93457 0.131793 -0.00154845)
(1.83617 0.134156 -0.00131414)
(1.77111 0.138521 -0.00146322)
(1.73386 0.143334 -0.00131939)
(1.70748 0.14882 -0.00139586)
(1.69706 0.153714 -0.00132075)
(1.68631 0.159275 -0.0013465)
(1.68333 0.162674 -0.00132494)
(1.68224 0.168836 -0.00131256)
(1.67477 0.167722 -0.00133684)
(1.69915 0.178879 -0.00128792)
(1.65384 0.163678 -0.00133695)
(1.76559 0.175918 -0.00134556)
(4.54456 0.0874735 -0.0033963)
(4.6906 0.118722 -0.00411439)
(4.74086 0.11957 -0.00315162)
(4.74209 0.0937003 -0.00366718)
(4.67592 0.0562181 -0.0031195)
(4.59415 0.0145296 -0.00352188)
(4.49832 -0.023249 -0.00317372)
(4.40706 -0.0557655 -0.00343461)
(4.32202 -0.0811483 -0.00320379)
(4.24255 -0.101747 -0.00335525)
(4.17538 -0.117485 -0.00321036)
(4.11263 -0.130017 -0.0032857)
(4.0638 -0.139481 -0.0032078)
(4.01826 -0.147036 -0.00323073)
(3.98557 -0.153378 -0.0032068)
(3.95823 -0.158273 -0.00319095)
(3.93898 -0.164606 -0.00321716)
(3.93571 -0.164905 -0.00316147)
(3.91503 -0.174871 -0.00325195)
(3.94553 -0.170576 -0.00325233)
(4.52001 0.0456767 -0.00196347)
(4.66857 0.110007 -0.00256965)
(4.80673 0.16158 -0.00164145)
(4.96481 0.189864 -0.00216119)
(5.08077 0.200433 -0.00161836)
(5.17659 0.201846 -0.00202403)
(5.23728 0.198994 -0.00168037)
(5.27927 0.196425 -0.00194328)
(5.30464 0.194513 -0.00171748)
(5.31781 0.193679 -0.00187162)
(5.32478 0.193065 -0.00173146)
(5.32379 0.193298 -0.00180963)
(5.32187 0.193075 -0.00173563)
(5.31688 0.194144 -0.00176157)
(5.31125 0.192438 -0.00173891)
(5.30902 0.195068 -0.00172573)
(5.29984 0.187348 -0.00174436)
(5.30658 0.19918 -0.00170406)
(5.29312 0.174803 -0.0017256)
(5.30844 0.209666 -0.00175309)
(4.51606 0.0440182 -0.00298033)
(4.63442 0.0505446 -0.00369386)
(4.76465 0.0459202 -0.00278856)
(4.93328 0.0284608 -0.0033141)
(5.08022 0.00651433 -0.00275852)
(5.22277 -0.0182588 -0.00315401)
(5.33826 -0.04196 -0.00280009)
(5.43933 -0.0634135 -0.00305791)
(5.52427 -0.0813171 -0.00282734)
(5.59629 -0.0963565 -0.00297966)
(5.66005 -0.108848 -0.00283748)
(5.712 -0.118939 -0.00291557)
(5.76103 -0.127772 -0.00284144)
(5.80008 -0.134415 -0.00286839)
(5.84033 -0.141906 -0.00284703)
(5.86938 -0.146017 -0.0028339)
(5.90397 -0.155132 -0.00285662)
(5.91858 -0.154253 -0.00281074)
(5.95762 -0.166801 -0.00289152)
(5.94095 -0.159862 -0.00289169)
(4.51717 0.0165912 -0.00228085)
(4.63558 0.0555253 -0.00295042)
(4.75892 0.0908593 -0.00205592)
(4.92164 0.11636 -0.00257244)
(5.06631 0.132679 -0.00201416)
(5.2124 0.14394 -0.00240922)
(5.33612 0.15187 -0.00205784)
(5.44968 0.158834 -0.00231754)
(5.55002 0.164768 -0.00208898)
(5.63998 0.170238 -0.00224137)
(5.7237 0.174727 -0.00210003)
(5.79671 0.178921 -0.00217815)
(5.86838 0.181955 -0.00210518)
(5.92941 0.185304 -0.00213286)
(5.99363 0.186108 -0.00211221)
(6.04278 0.18983 -0.00210082)
(6.103 0.185727 -0.0021197)
(6.1297 0.195699 -0.00208436)
(6.20311 0.180194 -0.00211563)
(6.18284 0.209337 -0.00214221)
(4.51592 0.0118594 -0.00261332)
(4.62778 -0.00408964 -0.00331135)
(4.74975 -0.0234654 -0.00242396)
(4.91081 -0.0448249 -0.00294639)
(5.05461 -0.063798 -0.00238698)
(5.20051 -0.0815108 -0.00278086)
(5.3252 -0.0970296 -0.00242738)
(5.44089 -0.110861 -0.00268636)
(5.54466 -0.122514 -0.00245677)
(5.63882 -0.132438 -0.00260879)
(5.72814 -0.140736 -0.00246675)
(5.80689 -0.147542 -0.00254465)
(5.88637 -0.153383 -0.00247148)
(5.95404 -0.157996 -0.00249912)
(6.02847 -0.162339 -0.00247874)
(6.08333 -0.165686 -0.00246702)
(6.15691 -0.168879 -0.00248805)
(6.1851 -0.172344 -0.0024507)
(6.27739 -0.171902 -0.00250952)
(6.25154 -0.181364 -0.00252082)
(4.51592 -0.0118597 -0.00261332)
(4.62778 0.00408993 -0.00331135)
(4.74975 0.0234651 -0.00242396)
(4.91081 0.0448259 -0.00294639)
(5.05461 0.0637975 -0.00238698)
(5.20051 0.0815129 -0.00278086)
(5.3252 0.0970293 -0.00242738)
(5.44089 0.110866 -0.00268637)
(5.54465 0.122515 -0.00245676)
(5.63882 0.13245 -0.00260881)
(5.72813 0.140738 -0.00246673)
(5.8069 0.147576 -0.00254468)
(5.88636 0.15339 -0.00247144)
(5.95405 0.158099 -0.00249921)
(6.02846 0.162366 -0.00247862)
(6.08336 0.165968 -0.00246724)
(6.15692 0.169014 -0.00248764)
(6.18517 0.173026 -0.0024511)
(6.2775 0.172543 -0.00250774)
(6.25175 0.182862 -0.00252151)
(4.51717 -0.0165914 -0.00228085)
(4.63558 -0.0555249 -0.00295042)
(4.75892 -0.0908597 -0.00205592)
(4.92164 -0.116358 -0.00257244)
(5.06631 -0.132679 -0.00201416)
(5.2124 -0.143938 -0.00240922)
(5.33612 -0.15187 -0.00205784)
(5.44968 -0.158829 -0.00231754)
(5.55002 -0.164768 -0.00208898)
(5.63998 -0.170226 -0.00224136)
(5.72371 -0.174725 -0.00210004)
(5.79671 -0.178886 -0.00217812)
(5.8684 -0.18195 -0.00210522)
(5.92941 -0.185201 -0.00213277)
(5.99369 -0.186086 -0.00211233)
(6.04278 -0.189551 -0.00210059)
(6.10316 -0.185607 -0.00212007)
(6.12976 -0.195041 -0.00208393)
(6.20347 -0.179597 -0.0021172)
(6.18319 -0.20794 -0.00214148)
(4.51606 -0.0440184 -0.00298033)
(4.63442 -0.0505443 -0.00369387)
(4.76465 -0.0459205 -0.00278856)
(4.93328 -0.0284599 -0.0033141)
(5.08022 -0.00651463 -0.00275852)
(5.22277 0.0182608 -0.00315402)
(5.33826 0.0419598 -0.00280008)
(5.43933 0.0634177 -0.00305792)
(5.52426 0.0813181 -0.00282733)
(5.5963 0.096367 -0.00297968)
(5.66004 0.108851 -0.00283745)
(5.71203 0.118969 -0.00291561)
(5.76103 0.12778 -0.00284137)
(5.80015 0.134508 -0.00286848)
(5.84038 0.141928 -0.00284688)
(5.86951 0.146276 -0.00283409)
(5.90419 0.155241 -0.00285618)
(5.91892 0.154892 -0.00281104)
(5.95838 0.167343 -0.00288979)
(5.942 0.161299 -0.00289201)
(4.52001 -0.0456769 -0.00196347)
(4.66857 -0.110006 -0.00256965)
(4.80673 -0.16158 -0.00164145)
(4.96481 -0.189863 -0.00216119)
(5.08077 -0.200433 -0.00161836)
(5.1766 -0.201844 -0.00202403)
(5.23728 -0.198995 -0.00168036)
(5.27929 -0.19642 -0.00194328)
(5.30463 -0.194514 -0.00171748)
(5.31784 -0.193667 -0.00187163)
(5.32476 -0.193065 -0.00173145)
(5.32386 -0.193266 -0.00180964)
(5.32185 -0.193078 -0.00173561)
(5.31703 -0.194053 -0.00176157)
(5.31129 -0.192439 -0.00173892)
(5.30933 -0.194831 -0.00172565)
(5.30015 -0.187298 -0.00174449)
(5.30726 -0.198648 -0.00170381)
(5.29422 -0.174436 -0.00172655)
(5.31025 -0.208655 -0.00175275)
(4.54456 -0.0874735 -0.0033963)
(4.6906 -0.118722 -0.00411439)
(4.74086 -0.11957 -0.00315162)
(4.74209 -0.0937002 -0.00366718)
(4.67592 -0.056218 -0.00311949)
(4.59416 -0.0145292 -0.00352189)
(4.49832 0.0232497 -0.00317371)
(4.40708 0.0557669 -0.00343464)
(4.322 0.081151 -0.00320375)
(4.2426 0.101751 -0.00335531)
(4.17534 0.117491 -0.00321027)
(4.11276 0.130029 -0.00328584)
(4.06373 0.139492 -0.00320758)
(4.01856 0.147079 -0.00323105)
(3.9855 0.153397 -0.00320629)
(3.95894 0.158406 -0.00319169)
(3.93904 0.164668 -0.00321593)
(3.93738 0.165259 -0.00316305)
(3.91575 0.175181 -0.00324886)
(3.94955 0.171412 -0.00325513)
(4.38269 -0.0968462 -0.00160654)
(3.98158 -0.148784 -0.00214958)
(3.45656 -0.162601 -0.00119523)
(2.99238 -0.156771 -0.00173445)
(2.58972 -0.145455 -0.00121243)
(2.29699 -0.137026 -0.00163111)
(2.07956 -0.132014 -0.00128933)
(1.93458 -0.131791 -0.00154846)
(1.83616 -0.134156 -0.00131413)
(1.77115 -0.138518 -0.00146324)
(1.73385 -0.143335 -0.00131936)
(1.70757 -0.148812 -0.0013959)
(1.69707 -0.153718 -0.00132069)
(1.68652 -0.159251 -0.00134659)
(1.68341 -0.16269 -0.00132478)
(1.68274 -0.168768 -0.00131279)
(1.67507 -0.167768 -0.00133633)
(1.7006 -0.17873 -0.00128869)
(1.65441 -0.16378 -0.00133536)
(1.77019 -0.175908 -0.00134798)
(4.3282 0.565719 -0.007362)
(3.09145 0.84666 -0.00489015)
(2.33432 0.868029 -0.00615076)
(1.77377 0.851222 -0.00467656)
(1.63758 0.854272 -0.0058259)
(1.43673 0.866956 -0.00466613)
(1.42976 0.877962 -0.00562498)
(1.31027 0.886791 -0.004638)
(1.31747 0.891338 -0.00541458)
(1.23496 0.894943 -0.00457887)
(1.24434 0.896496 -0.00521443)
(1.1863 0.898355 -0.00451165)
(1.19469 0.89901 -0.00503198)
(1.152 0.900462 -0.00444166)