/*--------------------------------*- C++ -*----------------------------------*\
  =========                 |
  \\      /  F ield         | OpenFOAM: The Open Source CFD Toolbox
   \\    /   O peration     | Website:  https://openfoam.org
    \\  /    A nd           | Version:  7
     \\/     M anipulation  |
\*---------------------------------------------------------------------------*/
FoamFile
{
    version     2.0;
    format      ascii;
    class       volScalarField;
    location    "0.06";
    object      rho_0;
}
// * * * * * * * * * * * * * * * * * * * * * * * * * * * * * * * * * * * * * //

dimensions      [1 -3 0 0 0 0 0];

internalField   nonuniform List<scalar> 
27000
(
1.31299
1.32404
1.32479
1.32025
1.31798
1.31455
1.31185
1.30882
1.30603
1.30312
1.30026
1.29733
1.29439
1.29144
1.28859
1.28591
1.28346
1.28127
1.27929
1.27743
1.27557
1.27369
1.27181
1.27007
1.26854
1.26724
1.26611
1.26506
1.26394
1.26258
1.26114
1.26002
1.25928
1.25848
1.25738
1.25637
1.25584
1.25534
1.25415
1.25257
1.30616
1.3204
1.31739
1.31366
1.31048
1.30776
1.30542
1.30342
1.30169
1.30018
1.29884
1.29765
1.29655
1.29554
1.29457
1.29364
1.29274
1.29187
1.29105
1.29027
1.28955
1.28888
1.28825
1.28766
1.28711
1.28654
1.28599
1.28551
1.28503
1.28451
1.28393
1.2833
1.28266
1.28198
1.28121
1.28042
1.27973
1.27908
1.27839
1.27749
1.31144
1.32324
1.32248
1.31751
1.3145
1.31093
1.30811
1.30531
1.30288
1.30059
1.29853
1.2966
1.29481
1.29312
1.29152
1.29
1.28853
1.28711
1.28574
1.28443
1.28317
1.28197
1.28083
1.27979
1.27882
1.2779
1.27708
1.27638
1.2757
1.27503
1.27447
1.27396
1.27339
1.27277
1.27218
1.27165
1.27098
1.27028
1.26945
1.26874
1.30811
1.32226
1.31876
1.31449
1.31072
1.30742
1.30451
1.30195
1.2997
1.2977
1.29592
1.29433
1.2929
1.29159
1.29038
1.28926
1.28821
1.28722
1.28629
1.28542
1.2846
1.28385
1.28317
1.28255
1.282
1.28155
1.28116
1.28084
1.28059
1.28041
1.28027
1.28015
1.28
1.27988
1.27978
1.27961
1.27932
1.27904
1.27883
1.27846
1.30969
1.32302
1.32033
1.31557
1.31128
1.30739
1.30388
1.30075
1.29794
1.29541
1.29312
1.29104
1.28914
1.28738
1.28575
1.28422
1.28278
1.28143
1.28015
1.27894
1.27781
1.27676
1.27578
1.27489
1.27409
1.27338
1.27276
1.27223
1.27178
1.27139
1.27105
1.27077
1.27051
1.27025
1.26997
1.26968
1.26934
1.26901
1.26863
1.26813
1.30961
1.323
1.32023
1.31552
1.3112
1.30732
1.30383
1.30072
1.29791
1.29539
1.29309
1.29101
1.28909
1.28732
1.28568
1.28413
1.28268
1.28131
1.28001
1.27878
1.27764
1.27656
1.27557
1.27467
1.27386
1.27313
1.27249
1.27194
1.27148
1.27108
1.27071
1.27041
1.27017
1.26989
1.26957
1.26927
1.26894
1.26863
1.26823
1.26764
1.30818
1.32232
1.31881
1.31453
1.31075
1.30744
1.30452
1.30197
1.29971
1.29772
1.29594
1.29436
1.29292
1.29161
1.29041
1.28929
1.28823
1.28724
1.28631
1.28543
1.2846
1.28383
1.28313
1.28249
1.28192
1.28143
1.28102
1.28066
1.28036
1.28015
1.27997
1.2798
1.27961
1.27946
1.27934
1.27912
1.27873
1.27839
1.27822
1.2778
1.31136
1.3232
1.32241
1.31743
1.31439
1.3108
1.30795
1.30512
1.30265
1.30031
1.29819
1.29619
1.29432
1.29254
1.29085
1.28922
1.28764
1.2861
1.28461
1.28317
1.28177
1.28044
1.27916
1.27796
1.27685
1.2758
1.27484
1.27396
1.27314
1.27239
1.27171
1.27101
1.27025
1.2696
1.26904
1.26834
1.26731
1.26651
1.26594
1.26527
1.30637
1.32053
1.31709
1.31302
1.30937
1.30623
1.3034
1.30093
1.29869
1.29669
1.29485
1.29316
1.29158
1.2901
1.28868
1.28733
1.28602
1.28477
1.28356
1.2824
1.28132
1.28033
1.27936
1.27844
1.27764
1.27695
1.2762
1.27539
1.27475
1.27432
1.27369
1.27266
1.27182
1.27158
1.27123
1.26991
1.26844
1.26804
1.26861
1.26819
1.3087
1.31238
1.30574
1.29544
1.28779
1.28007
1.27359
1.26756
1.26229
1.25751
1.2533
1.24954
1.24623
1.24332
1.2408
1.23865
1.23683
1.2353
1.23401
1.23294
1.23203
1.23122
1.2305
1.22991
1.22943
1.22893
1.22839
1.22802
1.22781
1.22738
1.22668
1.2263
1.22646
1.22635
1.22538
1.22448
1.22485
1.22581
1.22541
1.22342
1.19368
1.20078
1.19985
1.2024
1.20227
1.20288
1.2024
1.20197
1.20098
1.19984
1.19833
1.19663
1.19468
1.19262
1.19056
1.18864
1.18694
1.18545
1.18407
1.18265
1.18106
1.17932
1.17753
1.17588
1.1745
1.17344
1.17258
1.17158
1.17017
1.16852
1.16713
1.16625
1.16551
1.16465
1.16392
1.1635
1.16291
1.1616
1.16014
1.15957
1.20017
1.20783
1.2116
1.21665
1.22016
1.22372
1.22657
1.22919
1.23139
1.23334
1.23497
1.23635
1.23746
1.23832
1.23895
1.2394
1.23972
1.23995
1.24015
1.2403
1.24037
1.2403
1.24008
1.23976
1.23937
1.23893
1.23857
1.23833
1.238
1.2373
1.23639
1.23573
1.23529
1.23456
1.23353
1.23298
1.23313
1.23291
1.23146
1.22976
1.19566
1.20386
1.20477
1.20933
1.2114
1.21429
1.21627
1.21832
1.21994
1.22142
1.22263
1.22366
1.22448
1.22514
1.22562
1.22596
1.22617
1.22628
1.2263
1.22627
1.22621
1.22613
1.22604
1.22594
1.22585
1.22575
1.22566
1.22557
1.2255
1.22542
1.22527
1.22508
1.22488
1.22463
1.22424
1.22378
1.22341
1.22312
1.22265
1.22198
1.19842
1.20563
1.20968
1.21499
1.21893
1.22296
1.22633
1.2295
1.23228
1.23481
1.23706
1.23908
1.24088
1.24249
1.24391
1.24516
1.24627
1.24724
1.2481
1.24887
1.24956
1.2502
1.2508
1.25137
1.25193
1.2525
1.25306
1.25362
1.25416
1.25467
1.25514
1.25557
1.25592
1.25619
1.25638
1.25651
1.25658
1.25656
1.25645
1.25629
1.19718
1.20461
1.20748
1.21262
1.2165
1.2205
1.22391
1.22712
1.22994
1.23251
1.2348
1.23684
1.23864
1.24023
1.24162
1.24283
1.24387
1.24478
1.24557
1.24626
1.24688
1.24745
1.24799
1.24851
1.24903
1.24955
1.25007
1.25059
1.25111
1.25161
1.25208
1.25251
1.25289
1.25321
1.25344
1.25356
1.25363
1.25366
1.25364
1.25353
1.19722
1.2046
1.20755
1.21266
1.21659
1.22059
1.22399
1.22718
1.23
1.23256
1.23483
1.23685
1.23864
1.2402
1.24157
1.24275
1.24377
1.24465
1.24542
1.24608
1.24668
1.24722
1.24773
1.24822
1.24871
1.2492
1.2497
1.25019
1.25069
1.25118
1.25162
1.25202
1.25238
1.25268
1.2529
1.25301
1.25305
1.25309
1.25305
1.25292
1.19839
1.2056
1.20964
1.21496
1.21891
1.22295
1.22633
1.22951
1.23228
1.23481
1.23705
1.23905
1.24083
1.2424
1.24378
1.24498
1.24603
1.24695
1.24774
1.24844
1.24907
1.24963
1.25016
1.25066
1.25115
1.25163
1.25212
1.25259
1.25305
1.25348
1.25389
1.25425
1.25455
1.25474
1.25485
1.25489
1.25493
1.25488
1.25467
1.2544
1.19568
1.20387
1.20482
1.20942
1.21151
1.21439
1.21633
1.21829
1.21976
1.22106
1.22203
1.2228
1.22332
1.22367
1.22383
1.22386
1.22376
1.22356
1.22329
1.22298
1.22264
1.2223
1.22196
1.22163
1.22133
1.22106
1.22079
1.22054
1.22033
1.22012
1.21985
1.21954
1.21926
1.21897
1.21851
1.21796
1.21751
1.21726
1.21681
1.21603
1.20008
1.20778
1.21145
1.21635
1.2195
1.22254
1.22464
1.22636
1.22749
1.22825
1.22866
1.2288
1.22873
1.2285
1.22815
1.22773
1.22728
1.22683
1.22641
1.22604
1.22568
1.22533
1.22496
1.22463
1.22432
1.22395
1.22357
1.22332
1.2231
1.22261
1.22192
1.22157
1.22158
1.22116
1.22007
1.2194
1.21995
1.22051
1.21945
1.21744
1.19357
1.20046
1.1982
1.19926
1.19698
1.19528
1.19223
1.1892
1.18567
1.18222
1.17873
1.17548
1.17246
1.16978
1.16745
1.16551
1.16392
1.16263
1.16159
1.1607
1.15992
1.15921
1.15859
1.15806
1.15758
1.15713
1.15677
1.15646
1.15604
1.15548
1.15511
1.15504
1.15486
1.15428
1.1538
1.15399
1.15443
1.15404
1.15292
1.15246
1.1985
1.19865
1.19851
1.19869
1.19872
1.19891
1.19905
1.19926
1.19944
1.19963
1.19977
1.19988
1.1999
1.19986
1.19973
1.19954
1.1993
1.19905
1.19882
1.19862
1.19848
1.19837
1.1983
1.19826
1.19823
1.19817
1.19809
1.19797
1.19775
1.19735
1.19682
1.19634
1.1959
1.19536
1.19485
1.19471
1.19495
1.19505
1.19472
1.19446
1.19861
1.1988
1.19891
1.19953
1.20012
1.201
1.20192
1.20298
1.20407
1.20522
1.20638
1.20754
1.20866
1.20975
1.21078
1.21175
1.21266
1.21353
1.21437
1.21519
1.216
1.21683
1.21766
1.21849
1.21932
1.22013
1.22091
1.22167
1.22241
1.22305
1.22355
1.22395
1.22432
1.22458
1.22465
1.22464
1.22476
1.22499
1.22507
1.22493
1.1985
1.19867
1.19861
1.19896
1.1992
1.19967
1.20012
1.20069
1.20127
1.2019
1.20253
1.20318
1.2038
1.2044
1.20497
1.2055
1.20599
1.20645
1.20689
1.20732
1.20774
1.20818
1.20865
1.20915
1.20969
1.21026
1.21086
1.21148
1.2121
1.2127
1.21327
1.21378
1.21421
1.21457
1.21483
1.21501
1.21511
1.21516
1.21517
1.21518
1.1986
1.19873
1.19877
1.1993
1.19978
1.20056
1.20138
1.20235
1.20337
1.20446
1.20558
1.20671
1.20783
1.20894
1.21001
1.21104
1.21203
1.21298
1.21391
1.21482
1.21572
1.21663
1.21756
1.21851
1.21949
1.2205
1.22153
1.22258
1.22362
1.22464
1.22563
1.22655
1.22741
1.22818
1.22884
1.22941
1.22991
1.23033
1.23068
1.23099
1.19856
1.19868
1.19869
1.19912
1.1995
1.20016
1.20085
1.20168
1.20257
1.20353
1.20452
1.20552
1.20652
1.2075
1.20845
1.20937
1.21025
1.21111
1.21193
1.21275
1.21356
1.21439
1.21523
1.21611
1.21702
1.21797
1.21894
1.21994
1.22093
1.22191
1.22285
1.22374
1.22456
1.22529
1.22593
1.22647
1.22692
1.22731
1.22764
1.22794
1.19856
1.19868
1.19869
1.19912
1.19951
1.20016
1.20085
1.20169
1.20258
1.20353
1.20451
1.20551
1.20651
1.20748
1.20843
1.20934
1.21022
1.21106
1.21188
1.21268
1.21349
1.2143
1.21514
1.216
1.2169
1.21784
1.2188
1.21978
1.22076
1.22173
1.22267
1.22354
1.22434
1.22506
1.22569
1.22622
1.22666
1.22703
1.22735
1.22764
1.1986
1.19873
1.19877
1.19929
1.19978
1.20056
1.20138
1.20235
1.20338
1.20448
1.2056
1.20674
1.20786
1.20897
1.21004
1.21107
1.21206
1.21301
1.21393
1.21483
1.21573
1.21662
1.21754
1.21847
1.21944
1.22042
1.22143
1.22246
1.22348
1.22447
1.22543
1.22633
1.22716
1.2279
1.22853
1.22906
1.22953
1.22993
1.23025
1.23051
1.1985
1.19867
1.19861
1.19897
1.19921
1.19967
1.20013
1.20069
1.20127
1.20189
1.2025
1.20312
1.20371
1.20427
1.20478
1.20525
1.20568
1.20606
1.20642
1.20675
1.20708
1.20742
1.20778
1.20817
1.20859
1.20905
1.20954
1.21004
1.21054
1.21103
1.21149
1.21189
1.21222
1.21247
1.21263
1.2127
1.21271
1.21268
1.21259
1.21248
1.19861
1.1988
1.1989
1.19952
1.20009
1.20094
1.2018
1.20277
1.20374
1.20473
1.20568
1.20659
1.20743
1.2082
1.20889
1.2095
1.21004
1.21051
1.21094
1.21134
1.21174
1.21214
1.21256
1.213
1.21347
1.21394
1.2144
1.21484
1.21528
1.21567
1.21591
1.21607
1.21624
1.21636
1.21628
1.21605
1.21597
1.21612
1.21619
1.21592
1.1985
1.19865
1.19849
1.19863
1.19856
1.19862
1.19857
1.19855
1.19844
1.1983
1.19807
1.19778
1.1974
1.19695
1.19643
1.19586
1.19526
1.19465
1.19407
1.19354
1.19307
1.19268
1.19235
1.19211
1.1919
1.19169
1.19147
1.19124
1.19095
1.19052
1.19002
1.1896
1.18927
1.18881
1.18831
1.18814
1.18841
1.18861
1.18831
1.18797
1.19847
1.19843
1.19839
1.19839
1.19837
1.19841
1.19845
1.19852
1.1986
1.1987
1.19878
1.19885
1.19889
1.1989
1.19887
1.19881
1.1987
1.19857
1.19843
1.19829
1.19819
1.19812
1.19811
1.19817
1.19829
1.19847
1.19868
1.1989
1.1991
1.19924
1.19929
1.19924
1.19909
1.19882
1.19846
1.19807
1.19769
1.19737
1.19713
1.19704
1.19847
1.19843
1.19839
1.19839
1.19838
1.19844
1.19849
1.1986
1.19871
1.19884
1.19897
1.19911
1.19922
1.19932
1.19939
1.19943
1.19945
1.19944
1.19943
1.19942
1.19943
1.19948
1.19957
1.19971
1.19991
1.20017
1.20048
1.20082
1.20118
1.20154
1.20186
1.20214
1.20236
1.20249
1.20254
1.20252
1.20243
1.20231
1.20217
1.20205
1.19847
1.19843
1.19839
1.19839
1.19838
1.19842
1.19846
1.19855
1.19863
1.19874
1.19884
1.19893
1.19901
1.19906
1.19907
1.19906
1.19901
1.19895
1.19887
1.19879
1.19873
1.1987
1.19872
1.19879
1.19892
1.1991
1.19934
1.19962
1.19992
1.20021
1.20048
1.2007
1.20086
1.20094
1.20093
1.20085
1.20069
1.20049
1.20026
1.20005
1.19847
1.19843
1.19839
1.19839
1.19838
1.19843
1.19848
1.19857
1.19867
1.1988
1.19892
1.19905
1.19915
1.19923
1.19929
1.19932
1.19932
1.1993
1.19927
1.19925
1.19924
1.19927
1.19935
1.19948
1.19968
1.19994
1.20025
1.2006
1.20097
1.20135
1.2017
1.202
1.20224
1.20241
1.20249
1.20248
1.20241
1.20228
1.20213
1.20199
1.19847
1.19843
1.19839
1.19839
1.19838
1.19842
1.19847
1.19856
1.19865
1.19877
1.19888
1.199
1.19909
1.19916
1.1992
1.19921
1.1992
1.19916
1.19911
1.19907
1.19905
1.19906
1.19912
1.19923
1.19941
1.19965
1.19994
1.20027
1.20063
1.20098
1.20131
1.2016
1.20182
1.20196
1.20201
1.20197
1.20187
1.20172
1.20154
1.20137
1.19847
1.19843
1.19839
1.19839
1.19838
1.19842
1.19847
1.19856
1.19865
1.19877
1.19888
1.199
1.19909
1.19916
1.1992
1.19921
1.19919
1.19916
1.19911
1.19907
1.19904
1.19905
1.19911
1.19922
1.1994
1.19964
1.19993
1.20026
1.20061
1.20097
1.2013
1.20158
1.2018
1.20193
1.20198
1.20195
1.20184
1.20169
1.20151
1.20133
1.19847
1.19843
1.19839
1.19839
1.19838
1.19843
1.19848
1.19857
1.19867
1.1988
1.19892
1.19905
1.19915
1.19924
1.19929
1.19932
1.19932
1.1993
1.19928
1.19925
1.19925
1.19928
1.19936
1.19949
1.19969
1.19995
1.20026
1.20061
1.20098
1.20136
1.20171
1.20201
1.20225
1.20242
1.20249
1.20249
1.20241
1.20228
1.20213
1.20199
1.19847
1.19843
1.19839
1.19839
1.19838
1.19842
1.19846
1.19855
1.19863
1.19874
1.19884
1.19893
1.19901
1.19906
1.19907
1.19905
1.19901
1.19894
1.19885
1.19877
1.19871
1.19867
1.19868
1.19874
1.19887
1.19905
1.19928
1.19954
1.19983
1.20011
1.20037
1.20058
1.20073
1.20079
1.20077
1.20067
1.2005
1.20027
1.20003
1.19979
1.19847
1.19843
1.19839
1.19839
1.19838
1.19844
1.19849
1.19859
1.1987
1.19883
1.19896
1.19909
1.1992
1.19929
1.19935
1.19937
1.19937
1.19934
1.1993
1.19926
1.19924
1.19925
1.1993
1.1994
1.19956
1.19977
1.20003
1.20032
1.20064
1.20094
1.20122
1.20144
1.2016
1.20168
1.20168
1.20159
1.20144
1.20126
1.20106
1.20087
1.19847
1.19843
1.19839
1.19839
1.19837
1.19841
1.19845
1.19852
1.19859
1.19867
1.19874
1.1988
1.19883
1.19882
1.19876
1.19867
1.19854
1.19838
1.19821
1.19805
1.1979
1.1978
1.19774
1.19775
1.19781
1.19792
1.19807
1.19821
1.19834
1.19842
1.19841
1.19831
1.19812
1.19783
1.19745
1.19704
1.19666
1.19634
1.19609
1.19596
1.19835
1.19831
1.19828
1.19826
1.19827
1.19829
1.19834
1.1984
1.19848
1.19857
1.19865
1.19871
1.19875
1.19875
1.19872
1.19865
1.19854
1.1984
1.19825
1.19811
1.19799
1.19792
1.1979
1.19795
1.19806
1.19823
1.19845
1.19869
1.19892
1.1991
1.19921
1.19923
1.19914
1.19893
1.19863
1.19825
1.19784
1.19747
1.19716
1.19699
1.19835
1.19831
1.19828
1.19827
1.19827
1.1983
1.19834
1.19841
1.19849
1.19857
1.19865
1.19872
1.19876
1.19878
1.19875
1.19869
1.1986
1.19848
1.19835
1.19821
1.19809
1.198
1.19796
1.19797
1.19804
1.19816
1.19833
1.19853
1.19875
1.19896
1.19913
1.19926
1.19931
1.19927
1.19915
1.19894
1.19868
1.19837
1.19805
1.19776
1.19835
1.19831
1.19828
1.19827
1.19827
1.1983
1.19834
1.19841
1.19849
1.19857
1.19865
1.19872
1.19876
1.19878
1.19875
1.19869
1.19859
1.19847
1.19833
1.1982
1.19807
1.19798
1.19794
1.19795
1.19801
1.19814
1.19831
1.19852
1.19874
1.19895
1.19913
1.19925
1.19929
1.19924
1.19911
1.19889
1.1986
1.19827
1.19792
1.1976
1.19835
1.19831
1.19828
1.19827
1.19827
1.1983
1.19834
1.19841
1.19849
1.19857
1.19865
1.19872
1.19876
1.19877
1.19875
1.19869
1.19859
1.19847
1.19833
1.19819
1.19807
1.19798
1.19794
1.19795
1.19802
1.19815
1.19833
1.19854
1.19876
1.19898
1.19916
1.19929
1.19933
1.19929
1.19915
1.19892
1.19863
1.19829
1.19794
1.19762
1.19835
1.19831
1.19828
1.19827
1.19827
1.1983
1.19834
1.19841
1.19849
1.19857
1.19865
1.19872
1.19876
1.19878
1.19875
1.19869
1.19859
1.19847
1.19833
1.19819
1.19807
1.19798
1.19793
1.19794
1.19801
1.19814
1.19832
1.19853
1.19876
1.19898
1.19916
1.19928
1.19933
1.19928
1.19913
1.19891
1.19861
1.19827
1.19791
1.19758
1.19835
1.19831
1.19828
1.19827
1.19827
1.1983
1.19834
1.19841
1.19849
1.19857
1.19865
1.19872
1.19876
1.19878
1.19875
1.19869
1.19859
1.19847
1.19833
1.19819
1.19807
1.19798
1.19793
1.19794
1.19801
1.19814
1.19832
1.19853
1.19876
1.19898
1.19916
1.19928
1.19933
1.19928
1.19913
1.19891
1.19861
1.19826
1.19791
1.19758
1.19835
1.19831
1.19828
1.19827
1.19827
1.1983
1.19834
1.19841
1.19849
1.19857
1.19865
1.19872
1.19876
1.19878
1.19875
1.19869
1.19859
1.19847
1.19833
1.19819
1.19807
1.19798
1.19794
1.19795
1.19802
1.19815
1.19833
1.19854
1.19877
1.19898
1.19916
1.19929
1.19934
1.19929
1.19915
1.19893
1.19863
1.1983
1.19794
1.19762
1.19835
1.19831
1.19828
1.19827
1.19827
1.1983
1.19834
1.19841
1.19849
1.19857
1.19865
1.19872
1.19876
1.19878
1.19875
1.19869
1.19859
1.19847
1.19833
1.1982
1.19807
1.19798
1.19794
1.19794
1.19801
1.19814
1.19831
1.19852
1.19874
1.19895
1.19913
1.19925
1.1993
1.19925
1.19911
1.19889
1.1986
1.19827
1.19792
1.19759
1.19835
1.19831
1.19828
1.19827
1.19827
1.1983
1.19834
1.19841
1.19849
1.19857
1.19865
1.19872
1.19876
1.19878
1.19876
1.1987
1.1986
1.19848
1.19835
1.19821
1.19809
1.198
1.19795
1.19796
1.19803
1.19815
1.19832
1.19853
1.19874
1.19895
1.19913
1.19925
1.19931
1.19927
1.19914
1.19894
1.19867
1.19836
1.19803
1.19773
1.19835
1.19831
1.19828
1.19827
1.19827
1.19829
1.19834
1.1984
1.19848
1.19856
1.19864
1.1987
1.19874
1.19874
1.19871
1.19864
1.19853
1.1984
1.19826
1.19812
1.19801
1.19794
1.19793
1.19797
1.19808
1.19824
1.19844
1.19865
1.19886
1.19902
1.19912
1.19912
1.19903
1.19884
1.19855
1.1982
1.19784
1.1975
1.19723
1.19707
1.19827
1.19823
1.1982
1.19819
1.19819
1.19822
1.19826
1.19833
1.19841
1.1985
1.19858
1.19864
1.19868
1.19868
1.19865
1.19857
1.19846
1.19832
1.19817
1.19803
1.19791
1.19784
1.19782
1.19788
1.19801
1.19819
1.19842
1.19866
1.19889
1.19907
1.19917
1.19917
1.19905
1.19882
1.19848
1.19808
1.19766
1.19728
1.19699
1.19684
1.19827
1.19823
1.1982
1.19819
1.19819
1.19822
1.19827
1.19834
1.19842
1.1985
1.19858
1.19865
1.19869
1.1987
1.19868
1.19862
1.19852
1.1984
1.19826
1.19812
1.198
1.19791
1.19787
1.19788
1.19796
1.19809
1.19826
1.19847
1.19869
1.19889
1.19905
1.19916
1.19918
1.19911
1.19895
1.19871
1.19841
1.19807
1.19773
1.19743
1.19827
1.19823
1.1982
1.19819
1.19819
1.19822
1.19827
1.19833
1.19841
1.1985
1.19858
1.19865
1.19869
1.1987
1.19868
1.19861
1.19852
1.19839
1.19825
1.19811
1.19799
1.1979
1.19786
1.19788
1.19795
1.19809
1.19827
1.19848
1.1987
1.19891
1.19908
1.19918
1.1992
1.19913
1.19896
1.19871
1.1984
1.19804
1.19768
1.19737
1.19827
1.19823
1.1982
1.19819
1.19819
1.19822
1.19827
1.19833
1.19841
1.1985
1.19858
1.19865
1.19869
1.1987
1.19868
1.19861
1.19852
1.19839
1.19825
1.19811
1.19799
1.1979
1.19786
1.19787
1.19795
1.19809
1.19827
1.19848
1.19871
1.19892
1.19909
1.19919
1.19921
1.19913
1.19896
1.19871
1.19839
1.19802
1.19766
1.19734
1.19827
1.19823
1.1982
1.19819
1.19819
1.19822
1.19827
1.19833
1.19841
1.1985
1.19858
1.19865
1.19869
1.1987
1.19868
1.19861
1.19852
1.19839
1.19825
1.19811
1.19799
1.1979
1.19786
1.19787
1.19795
1.19809
1.19827
1.19849
1.19871
1.19892
1.19909
1.1992
1.19921
1.19914
1.19896
1.19871
1.19838
1.19802
1.19765
1.19733
1.19827
1.19823
1.1982
1.19819
1.19819
1.19822
1.19827
1.19833
1.19841
1.1985
1.19858
1.19865
1.19869
1.1987
1.19868
1.19861
1.19852
1.19839
1.19825
1.19811
1.19799
1.1979
1.19786
1.19787
1.19795
1.19809
1.19827
1.19849
1.19871
1.19892
1.19909
1.1992
1.19922
1.19914
1.19896
1.19871
1.19838
1.19802
1.19765
1.19733
1.19827
1.19823
1.1982
1.19819
1.19819
1.19822
1.19827
1.19833
1.19841
1.1985
1.19858
1.19865
1.19869
1.1987
1.19868
1.19861
1.19852
1.19839
1.19825
1.19811
1.19799
1.1979
1.19786
1.19787
1.19795
1.19809
1.19827
1.19848
1.19871
1.19892
1.19909
1.19919
1.19921
1.19913
1.19896
1.19871
1.19839
1.19802
1.19766
1.19734
1.19827
1.19823
1.1982
1.19819
1.19819
1.19822
1.19827
1.19833
1.19841
1.1985
1.19858
1.19865
1.19869
1.1987
1.19868
1.19862
1.19852
1.19839
1.19825
1.19811
1.19799
1.1979
1.19786
1.19788
1.19795
1.19809
1.19827
1.19848
1.1987
1.19891
1.19908
1.19918
1.19921
1.19913
1.19896
1.19871
1.1984
1.19804
1.19768
1.19737
1.19827
1.19823
1.1982
1.19819
1.19819
1.19822
1.19827
1.19834
1.19842
1.1985
1.19858
1.19865
1.19869
1.19871
1.19868
1.19862
1.19852
1.1984
1.19826
1.19812
1.198
1.19791
1.19787
1.19788
1.19795
1.19808
1.19826
1.19847
1.19869
1.19889
1.19906
1.19916
1.19919
1.19912
1.19896
1.19872
1.19842
1.19808
1.19774
1.19743
1.19827
1.19823
1.1982
1.19819
1.19819
1.19822
1.19826
1.19833
1.19841
1.19849
1.19857
1.19863
1.19867
1.19867
1.19863
1.19856
1.19845
1.19832
1.19818
1.19804
1.19793
1.19787
1.19786
1.19791
1.19803
1.1982
1.19841
1.19864
1.19885
1.19901
1.19909
1.19909
1.19898
1.19876
1.19845
1.19808
1.19771
1.19738
1.19713
1.19701
1.19822
1.19818
1.19815
1.19813
1.19814
1.19816
1.19821
1.19828
1.19836
1.19845
1.19853
1.19859
1.19863
1.19863
1.1986
1.19852
1.1984
1.19826
1.19811
1.19797
1.19785
1.19778
1.19778
1.19784
1.19797
1.19816
1.19839
1.19864
1.19887
1.19905
1.19914
1.19912
1.19899
1.19873
1.19837
1.19795
1.19753
1.19715
1.19688
1.19676
1.19821
1.19818
1.19815
1.19814
1.19814
1.19817
1.19822
1.19828
1.19836
1.19845
1.19853
1.1986
1.19864
1.19865
1.19863
1.19856
1.19847
1.19834
1.1982
1.19807
1.19795
1.19786
1.19782
1.19784
1.19792
1.19805
1.19824
1.19845
1.19867
1.19887
1.19903
1.19912
1.19913
1.19905
1.19887
1.19862
1.1983
1.19796
1.19762
1.19733
1.19821
1.19818
1.19815
1.19814
1.19814
1.19817
1.19822
1.19828
1.19836
1.19845
1.19853
1.1986
1.19864
1.19865
1.19863
1.19856
1.19846
1.19834
1.1982
1.19806
1.19794
1.19785
1.19781
1.19783
1.19791
1.19805
1.19824
1.19846
1.19868
1.19889
1.19905
1.19914
1.19915
1.19906
1.19888
1.19862
1.19829
1.19793
1.19757
1.19727
1.19821
1.19818
1.19815
1.19813
1.19814
1.19817
1.19822
1.19828
1.19836
1.19845
1.19853
1.1986
1.19864
1.19865
1.19863
1.19856
1.19846
1.19834
1.1982
1.19806
1.19794
1.19785
1.19781
1.19783
1.19791
1.19805
1.19824
1.19846
1.19868
1.19889
1.19906
1.19915
1.19916
1.19907
1.19888
1.19862
1.19828
1.19791
1.19755
1.19725
1.19821
1.19818
1.19815
1.19813
1.19814
1.19817
1.19822
1.19828
1.19836
1.19845
1.19853
1.1986
1.19864
1.19865
1.19863
1.19856
1.19846
1.19834
1.1982
1.19806
1.19793
1.19785
1.19781
1.19783
1.19791
1.19805
1.19824
1.19846
1.19869
1.19889
1.19906
1.19916
1.19916
1.19907
1.19889
1.19862
1.19828
1.19791
1.19754
1.19724
1.19821
1.19818
1.19815
1.19813
1.19814
1.19817
1.19822
1.19828
1.19836
1.19845
1.19853
1.1986
1.19864
1.19865
1.19863
1.19856
1.19846
1.19834
1.1982
1.19806
1.19793
1.19785
1.19781
1.19783
1.19791
1.19805
1.19824
1.19846
1.19869
1.19889
1.19906
1.19916
1.19916
1.19907
1.19889
1.19862
1.19828
1.19791
1.19754
1.19724
1.19821
1.19818
1.19815
1.19813
1.19814
1.19817
1.19822
1.19828
1.19836
1.19845
1.19853
1.1986
1.19864
1.19865
1.19863
1.19856
1.19846
1.19834
1.1982
1.19806
1.19793
1.19785
1.19781
1.19783
1.19791
1.19805
1.19824
1.19846
1.19868
1.19889
1.19906
1.19915
1.19916
1.19907
1.19888
1.19862
1.19828
1.19791
1.19755
1.19725
1.19821
1.19818
1.19815
1.19814
1.19814
1.19817
1.19822
1.19828
1.19836
1.19845
1.19853
1.1986
1.19864
1.19865
1.19863
1.19856
1.19846
1.19834
1.1982
1.19806
1.19794
1.19785
1.19781
1.19783
1.19791
1.19805
1.19824
1.19846
1.19868
1.19889
1.19905
1.19915
1.19915
1.19907
1.19888
1.19862
1.1983
1.19793
1.19757
1.19727
1.19821
1.19818
1.19815
1.19814
1.19814
1.19817
1.19822
1.19828
1.19836
1.19845
1.19853
1.1986
1.19864
1.19866
1.19863
1.19857
1.19847
1.19834
1.1982
1.19807
1.19794
1.19786
1.19782
1.19784
1.19791
1.19805
1.19823
1.19845
1.19867
1.19887
1.19903
1.19913
1.19914
1.19906
1.19888
1.19863
1.19832
1.19797
1.19762
1.19733
1.19822
1.19818
1.19815
1.19813
1.19814
1.19816
1.19821
1.19828
1.19836
1.19844
1.19852
1.19858
1.19862
1.19862
1.19858
1.19851
1.1984
1.19826
1.19812
1.19798
1.19788
1.19781
1.19781
1.19787
1.198
1.19817
1.19839
1.19862
1.19883
1.19898
1.19906
1.19904
1.19891
1.19867
1.19835
1.19797
1.19759
1.19726
1.19703
1.19694
1.19818
1.19814
1.19811
1.1981
1.1981
1.19813
1.19818
1.19824
1.19832
1.19841
1.19849
1.19856
1.1986
1.1986
1.19856
1.19848
1.19837
1.19822
1.19807
1.19793
1.19781
1.19775
1.19774
1.19781
1.19795
1.19814
1.19838
1.19863
1.19886
1.19903
1.19911
1.19909
1.19894
1.19867
1.1983
1.19787
1.19745
1.19708
1.19681
1.19672
1.19818
1.19814
1.19811
1.1981
1.1981
1.19813
1.19818
1.19825
1.19833
1.19842
1.1985
1.19857
1.19861
1.19862
1.19859
1.19853
1.19843
1.1983
1.19816
1.19803
1.19791
1.19782
1.19779
1.19781
1.19789
1.19803
1.19822
1.19843
1.19865
1.19885
1.19901
1.1991
1.1991
1.199
1.19882
1.19855
1.19823
1.19788
1.19754
1.19726
1.19818
1.19814
1.19811
1.1981
1.1981
1.19813
1.19818
1.19825
1.19833
1.19842
1.1985
1.19857
1.19861
1.19862
1.19859
1.19853
1.19843
1.1983
1.19816
1.19802
1.1979
1.19782
1.19778
1.1978
1.19789
1.19803
1.19822
1.19844
1.19866
1.19887
1.19903
1.19911
1.19911
1.19902
1.19882
1.19855
1.19822
1.19785
1.1975
1.19721
1.19818
1.19814
1.19811
1.1981
1.1981
1.19813
1.19818
1.19825
1.19833
1.19842
1.1985
1.19857
1.19861
1.19862
1.19859
1.19853
1.19842
1.1983
1.19816
1.19802
1.1979
1.19781
1.19778
1.1978
1.19789
1.19803
1.19822
1.19844
1.19867
1.19887
1.19903
1.19912
1.19912
1.19902
1.19883
1.19855
1.19821
1.19784
1.19748
1.19719
1.19818
1.19814
1.19811
1.1981
1.1981
1.19813
1.19818
1.19825
1.19833
1.19842
1.1985
1.19857
1.19861
1.19862
1.19859
1.19853
1.19843
1.1983
1.19816
1.19802
1.1979
1.19781
1.19778
1.1978
1.19789
1.19803
1.19822
1.19844
1.19867
1.19887
1.19904
1.19912
1.19912
1.19902
1.19883
1.19855
1.19821
1.19784
1.19748
1.19718
1.19818
1.19814
1.19811
1.1981
1.1981
1.19813
1.19818
1.19825
1.19833
1.19842
1.1985
1.19857
1.19861
1.19862
1.19859
1.19853
1.19843
1.1983
1.19816
1.19802
1.1979
1.19781
1.19778
1.1978
1.19789
1.19803
1.19822
1.19844
1.19867
1.19887
1.19904
1.19912
1.19912
1.19902
1.19883
1.19855
1.19821
1.19784
1.19748
1.19718
1.19818
1.19814
1.19811
1.1981
1.1981
1.19813
1.19818
1.19825
1.19833
1.19842
1.1985
1.19857
1.19861
1.19862
1.19859
1.19853
1.19843
1.1983
1.19816
1.19802
1.1979
1.19781
1.19778
1.1978
1.19789
1.19803
1.19822
1.19844
1.19866
1.19887
1.19903
1.19912
1.19912
1.19902
1.19883
1.19855
1.19821
1.19784
1.19748
1.19719
1.19818
1.19814
1.19811
1.1981
1.1981
1.19813
1.19818
1.19825
1.19833
1.19842
1.1985
1.19857
1.19861
1.19862
1.19859
1.19853
1.19843
1.1983
1.19816
1.19802
1.1979
1.19782
1.19778
1.1978
1.19789
1.19803
1.19822
1.19844
1.19866
1.19886
1.19903
1.19912
1.19912
1.19902
1.19883
1.19856
1.19823
1.19786
1.19751
1.19721
1.19818
1.19814
1.19811
1.1981
1.1981
1.19813
1.19818
1.19825
1.19833
1.19842
1.1985
1.19857
1.19861
1.19862
1.19859
1.19853
1.19843
1.19831
1.19817
1.19803
1.19791
1.19782
1.19778
1.19781
1.19789
1.19803
1.19821
1.19843
1.19865
1.19885
1.19901
1.1991
1.1991
1.19901
1.19883
1.19857
1.19824
1.19789
1.19755
1.19727
1.19818
1.19814
1.19811
1.1981
1.1981
1.19813
1.19817
1.19824
1.19832
1.1984
1.19848
1.19855
1.19858
1.19858
1.19855
1.19847
1.19836
1.19822
1.19808
1.19795
1.19784
1.19778
1.19778
1.19784
1.19797
1.19815
1.19837
1.1986
1.19881
1.19896
1.19903
1.199
1.19886
1.19861
1.19828
1.19789
1.19752
1.19719
1.19697
1.1969
1.19815
1.19811
1.19809
1.19807
1.19808
1.1981
1.19815
1.19822
1.1983
1.19839
1.19847
1.19853
1.19857
1.19857
1.19853
1.19846
1.19834
1.1982
1.19804
1.1979
1.19779
1.19772
1.19772
1.19779
1.19793
1.19813
1.19836
1.19862
1.19885
1.19901
1.19909
1.19906
1.19891
1.19863
1.19825
1.19782
1.19739
1.19702
1.19677
1.1967
1.19815
1.19811
1.19809
1.19807
1.19808
1.19811
1.19816
1.19822
1.1983
1.19839
1.19847
1.19854
1.19858
1.1986
1.19857
1.1985
1.1984
1.19828
1.19814
1.198
1.19788
1.1978
1.19776
1.19779
1.19787
1.19801
1.1982
1.19842
1.19864
1.19884
1.19899
1.19908
1.19907
1.19897
1.19878
1.19851
1.19818
1.19783
1.1975
1.19722
1.19815
1.19811
1.19809
1.19807
1.19808
1.19811
1.19816
1.19822
1.1983
1.19839
1.19847
1.19854
1.19858
1.19859
1.19857
1.1985
1.1984
1.19827
1.19813
1.19799
1.19787
1.19779
1.19776
1.19778
1.19787
1.19801
1.19821
1.19842
1.19865
1.19885
1.19901
1.19909
1.19909
1.19898
1.19879
1.19851
1.19817
1.1978
1.19746
1.19717
1.19815
1.19811
1.19809
1.19807
1.19808
1.19811
1.19815
1.19822
1.1983
1.19839
1.19847
1.19854
1.19858
1.19859
1.19857
1.1985
1.1984
1.19827
1.19813
1.19799
1.19787
1.19779
1.19776
1.19778
1.19787
1.19801
1.19821
1.19843
1.19865
1.19886
1.19901
1.1991
1.19909
1.19899
1.19879
1.19851
1.19816
1.19779
1.19744
1.19715
1.19815
1.19811
1.19809
1.19807
1.19808
1.19811
1.19815
1.19822
1.1983
1.19839
1.19847
1.19854
1.19858
1.19859
1.19857
1.1985
1.1984
1.19827
1.19813
1.19799
1.19787
1.19779
1.19775
1.19778
1.19787
1.19801
1.19821
1.19843
1.19865
1.19886
1.19902
1.1991
1.19909
1.19899
1.19879
1.19851
1.19816
1.19779
1.19743
1.19714
1.19815
1.19811
1.19809
1.19807
1.19808
1.19811
1.19815
1.19822
1.1983
1.19839
1.19847
1.19854
1.19858
1.19859
1.19857
1.1985
1.1984
1.19827
1.19813
1.19799
1.19787
1.19779
1.19775
1.19778
1.19787
1.19801
1.19821
1.19843
1.19865
1.19886
1.19902
1.1991
1.19909
1.19899
1.19879
1.19851
1.19816
1.19779
1.19743
1.19714
1.19815
1.19811
1.19809
1.19807
1.19808
1.19811
1.19815
1.19822
1.1983
1.19839
1.19847
1.19854
1.19858
1.19859
1.19857
1.1985
1.1984
1.19827
1.19813
1.19799
1.19787
1.19779
1.19775
1.19778
1.19787
1.19801
1.19821
1.19843
1.19865
1.19886
1.19901
1.1991
1.19909
1.19899
1.19879
1.19851
1.19817
1.19779
1.19744
1.19715
1.19815
1.19811
1.19809
1.19807
1.19808
1.19811
1.19816
1.19822
1.1983
1.19839
1.19847
1.19854
1.19858
1.19859
1.19857
1.1985
1.1984
1.19827
1.19813
1.19799
1.19787
1.19779
1.19776
1.19778
1.19787
1.19801
1.1982
1.19842
1.19865
1.19885
1.19901
1.19909
1.19909
1.19899
1.19879
1.19851
1.19818
1.19781
1.19746
1.19717
1.19815
1.19811
1.19809
1.19807
1.19808
1.19811
1.19816
1.19822
1.1983
1.19839
1.19847
1.19854
1.19859
1.1986
1.19857
1.1985
1.19841
1.19828
1.19814
1.198
1.19788
1.1978
1.19776
1.19778
1.19787
1.19801
1.1982
1.19841
1.19863
1.19883
1.19899
1.19908
1.19908
1.19898
1.19879
1.19852
1.1982
1.19784
1.19751
1.19723
1.19815
1.19811
1.19809
1.19807
1.19808
1.1981
1.19815
1.19822
1.1983
1.19838
1.19846
1.19852
1.19856
1.19856
1.19852
1.19844
1.19833
1.1982
1.19805
1.19792
1.19781
1.19775
1.19775
1.19782
1.19795
1.19814
1.19836
1.19859
1.19879
1.19894
1.19901
1.19897
1.19883
1.19857
1.19823
1.19784
1.19747
1.19714
1.19693
1.19688
1.19814
1.1981
1.19807
1.19805
1.19806
1.19809
1.19813
1.1982
1.19828
1.19837
1.19845
1.19852
1.19856
1.19856
1.19852
1.19844
1.19832
1.19818
1.19803
1.19788
1.19777
1.19771
1.1977
1.19778
1.19792
1.19812
1.19835
1.19861
1.19883
1.199
1.19907
1.19904
1.19888
1.1986
1.19821
1.19778
1.19735
1.19699
1.19674
1.19669
1.19813
1.1981
1.19807
1.19806
1.19806
1.19809
1.19814
1.19821
1.19829
1.19838
1.19846
1.19853
1.19857
1.19858
1.19855
1.19849
1.19839
1.19826
1.19812
1.19798
1.19786
1.19778
1.19775
1.19777
1.19786
1.198
1.19819
1.19841
1.19863
1.19883
1.19898
1.19906
1.19905
1.19895
1.19875
1.19848
1.19815
1.1978
1.19746
1.19719
1.19813
1.1981
1.19807
1.19806
1.19806
1.19809
1.19814
1.19821
1.19829
1.19837
1.19846
1.19852
1.19857
1.19858
1.19855
1.19848
1.19838
1.19826
1.19811
1.19798
1.19786
1.19777
1.19774
1.19777
1.19786
1.198
1.1982
1.19841
1.19864
1.19884
1.199
1.19908
1.19907