/*--------------------------------*- C++ -*----------------------------------*\
  =========                 |
  \\      /  F ield         | OpenFOAM: The Open Source CFD Toolbox
   \\    /   O peration     | Website:  https://openfoam.org
    \\  /    A nd           | Version:  7
     \\/     M anipulation  |
\*---------------------------------------------------------------------------*/
FoamFile
{
    version     2.0;
    format      ascii;
    class       volScalarField;
    location    "0.605";
    object      k;
}
// * * * * * * * * * * * * * * * * * * * * * * * * * * * * * * * * * * * * * //

dimensions      [0 2 -2 0 0 0 0];

internalField   nonuniform List<scalar> 
7920
(
52.0072
56.3564
56.2209
56.1967
56.1274
56.2267
56.2447
56.3188
56.2871
56.2945
56.24
56.2319
56.1887
56.1816
56.1573
56.1443
56.1487
56.0998
56.2155
56.2883
13.8352
13.9917
13.3941
12.8257
12.5598
12.4731
12.4029
12.3922
12.3557
12.3478
12.3177
12.3102
12.2864
12.2807
12.2641
12.2595
12.2546
12.2422
12.419
12.4229
8.08325
9.22001
9.32523
9.30042
9.24795
9.23828
9.21917
9.22248
9.21508
9.22017
9.21602
9.22092
9.21674
9.21811
9.21239
9.21047
9.20428
9.19896
9.20155
9.22327
7.48132
8.75307
8.99654
9.07653
9.09012
9.1195
9.12556
9.14677
9.15209
9.17035
9.17809
9.19948
9.20931
9.22785
9.23315
9.2435
9.24458
9.24868
9.24868
9.26944
7.41652
8.69933
8.9564
9.05261
9.07986
9.12287
9.13853
9.17287
9.18509
9.21273
9.22626
9.2573
9.27592
9.30689
9.32205
9.34461
9.35307
9.36801
9.37301
9.40013
7.42349
8.69578
8.95114
9.04879
9.07992
9.12785
9.14858
9.18892
9.20525
9.23833
9.25519
9.29097
9.31423
9.35136
9.37226
9.40158
9.41491
9.43619
9.44603
9.4768
7.42349
8.69578
8.95114
9.04879
9.07991
9.12785
9.14858
9.18892
9.20525
9.23834
9.25518
9.29099
9.3142
9.35139
9.37223
9.40163
9.41489
9.43625
9.4461
9.47685
7.41652
8.69933
8.9564
9.05261
9.07985
9.12288
9.13852
9.17288
9.18508
9.21276
9.22623
9.25735
9.27581
9.30703
9.3219
9.34482
9.35292
9.36823
9.3731
9.40043
7.48132
8.75308
8.99653
9.07654
9.09011
9.11951
9.12555
9.1468
9.15207
9.17041
9.17803
9.1996
9.20906
9.22817
9.23295
9.2439
9.24413
9.24938
9.24809
9.27024
8.08324
9.22001
9.32522
9.30042
9.24794
9.23829
9.21916
9.22251
9.21504
9.22024
9.21591
9.22108
9.21646
9.2185
9.21164
9.21127
9.20269
9.20194
9.19889
9.2263
13.8352
13.9917
13.3941
12.8257
12.5598
12.4732
12.4028
12.3922
12.3556
12.3479
12.3175
12.3104
12.2859
12.2813
12.2629
12.2612
12.2512
12.2477
12.4077
12.434
52.0072
56.3564
56.2209
56.1967
56.1274
56.2268
56.2446
56.3189
56.2867
56.295
56.2392
56.2332
56.1866
56.1849
56.1519
56.1538
56.133
56.1268
56.1675
56.3664
7.67239
9.64929
9.70628
9.57204
9.54355
9.49121
9.50059
9.46808
9.46792
9.43628
9.4329
9.40808
9.40707
9.38911
9.39068
9.37565
9.38218
9.36267
9.37372
9.41438
6.01962
8.23692
8.55694
8.58811
8.59029
8.59931
8.60909
8.61845
8.62123
8.62097
8.61789
8.61321
8.6092
8.60397
8.60162
8.59609
8.59545
8.58953
8.59646
8.59935
5.70209
7.89846
8.23661
8.29336
8.29591
8.30911
8.31734
8.33529
8.34527
8.36126
8.37094
8.38319
8.3899
8.39571
8.39886
8.39941
8.40088
8.39719
8.39619
8.42102
5.69317
7.89035
8.22783
8.2822
8.27753
8.28026
8.27921
8.2858
8.28917
8.29942
8.30834
8.32386
8.33615
8.34867
8.35724
8.36266
8.36751
8.36762
8.36875
8.38483
5.68144
7.87473
8.21268
8.269
8.26383
8.26542
8.2617
8.26542
8.26443
8.26899
8.27373
8.28699
8.299
8.31423
8.32419
8.33363
8.33841
8.34429
8.34468
8.36648
5.68783
7.8827
8.21965
8.27544
8.27024
8.27199
8.26824
8.2717
8.26977
8.27292
8.27581
8.28724
8.29865
8.31458
8.3249
8.33582
8.34062
8.3486
8.34909
8.37194
5.68783
7.88271
8.21965
8.27544
8.27024
8.272
8.26824
8.2717
8.26977
8.27293
8.27581
8.28725
8.29863
8.31461
8.32488
8.33585
8.34059
8.3486
8.3491
8.37186
5.68144
7.87474
8.21268
8.269
8.26382
8.26542
8.26169
8.26543
8.26441
8.26902
8.2737
8.28704
8.29889
8.31436
8.32404
8.3338
8.33823
8.34443
8.34454
8.36654
5.69317
7.89036
8.22783
8.28221
8.27753
8.28027
8.2792
8.28583
8.28915
8.29948
8.30822
8.32403
8.3359
8.349
8.35678
8.36323
8.36686
8.36826
8.36807
8.38525
5.70209
7.89847
8.2366
8.29337
8.2959
8.30913
8.31733
8.33533
8.3452
8.36136
8.37077
8.38344
8.38951
8.39626
8.39806
8.40041
8.39967
8.39917
8.39332
8.42323
6.01962
8.23692
8.55693
8.58811
8.59029
8.59933
8.60906
8.61848
8.62118
8.62101
8.61776
8.61346
8.6088
8.6046
8.60063
8.59773
8.59306
8.59302
8.59078
8.60673
7.67239
9.64929
9.70628
9.57204
9.54354
9.49122
9.50056
9.4681
9.46786
9.43635
9.43278
9.40829
9.40677
9.38963
9.38986
9.37717
9.37979
9.36721
9.36681
9.42581
0.476802
1.03704
1.13743
1.11006
1.03996
0.976738
0.927244
0.892669
0.866455
0.846789
0.832714
0.821185
0.813699
0.806665
0.80252
0.798665
0.796187
0.796355
0.791311
0.804842
0.0860146
0.381616
0.525055
0.587009
0.609461
0.62409
0.631682
0.639944
0.644308
0.648606
0.649987
0.651009
0.650831
0.650569
0.649704
0.649107
0.648325
0.647537
0.64744
0.649876
0.0644496
0.299563
0.4153
0.473187
0.491609
0.505354
0.508779
0.515709
0.518273
0.523689
0.526442
0.530818
0.533441
0.536565
0.538961
0.540803
0.542876
0.543508
0.544467
0.547244
0.0683467
0.303336
0.416694
0.472118
0.490024
0.501381
0.503203
0.506532
0.506935
0.508528
0.509224
0.510848
0.511753
0.51294
0.514011
0.514656
0.515771
0.516003
0.516645
0.519051
0.0665222
0.299329
0.411606
0.46703
0.484513
0.495808
0.4973
0.500316
0.500317
0.501201
0.501398
0.502287
0.502603
0.503223
0.50352
0.503719
0.503947
0.503947
0.503788
0.505521
0.0675506
0.30156
0.414222
0.469432
0.487065
0.498252
0.49989
0.502806
0.502824
0.503636
0.50381
0.504615
0.504915
0.505464
0.505692
0.505823
0.505932
0.505881
0.505621
0.507224
0.0675505
0.30156
0.414222
0.469432
0.487065
0.498252
0.49989
0.502806
0.502824
0.503636
0.50381
0.504616
0.504914
0.505465
0.505691
0.505825
0.505931
0.505882
0.505618
0.507222
0.066522
0.299329
0.411606
0.467031
0.484512
0.495808
0.4973
0.500316
0.500317
0.501202
0.501397
0.502288
0.502601
0.503225
0.503516
0.50372
0.503946
0.503944
0.503786
0.505512
0.0683463
0.303336
0.416694
0.472119
0.490023
0.501382
0.503203
0.506533
0.506935
0.50853
0.509222
0.510854
0.51174
0.512951
0.513995
0.514667
0.515754
0.515998
0.516627
0.519012
0.0644493
0.299564
0.415299
0.473188
0.491608
0.505356
0.508778
0.515711
0.518272
0.523694
0.526428
0.530833
0.533414
0.53659
0.538916
0.54084
0.542823
0.543512
0.544409
0.547155
0.0860145
0.381616
0.525055
0.58701
0.609459
0.624093
0.631678
0.639949
0.6443
0.648615
0.649972
0.65102
0.650797
0.650586
0.64964
0.649204
0.648165
0.647702
0.647225
0.649809
0.476802
1.03704
1.13743
1.11006
1.03996
0.97674
0.927241
0.892676
0.866446
0.846807
0.832694
0.82123
0.813656
0.806775
0.802428
0.798926
0.79606
0.796895
0.791077
0.805879
0.476802
1.03704
1.13743
1.11006
1.03996
0.976738
0.927244
0.892669
0.866455
0.846788
0.832713
0.821185
0.813699
0.806666
0.802521
0.798665
0.796187
0.796355
0.791311
0.804842
0.0860147
0.381616
0.525055
0.587009
0.609461
0.62409
0.631682
0.639944
0.644308
0.648606
0.649987
0.651009
0.650831
0.65057
0.649704
0.649107
0.648326
0.647537
0.64744
0.649877
0.0644496
0.299563
0.4153
0.473187
0.491609
0.505354
0.50878
0.515709
0.518273
0.523688
0.526442
0.530818
0.533441
0.536565
0.538961
0.540803
0.542876
0.543508
0.544467
0.547245
0.0683467
0.303336
0.416694
0.472118
0.490024
0.501381
0.503204
0.506532
0.506935
0.508528
0.509224
0.510848
0.511753
0.51294
0.514011
0.514656
0.515771
0.516003
0.516646
0.519051
0.0665223
0.299329
0.411606
0.467031
0.484513
0.495808
0.4973
0.500316
0.500317
0.501201
0.501398
0.502287
0.502603
0.503224
0.50352
0.503719
0.503947
0.503947
0.503788
0.505521
0.0675506
0.30156
0.414222
0.469432
0.487065
0.498252
0.49989
0.502806
0.502824
0.503636
0.50381
0.504615
0.504915
0.505464
0.505692
0.505823
0.505932
0.505881
0.505621
0.507224
0.0675505
0.30156
0.414222
0.469432
0.487065
0.498252
0.49989
0.502806
0.502824
0.503636
0.50381
0.504616
0.504915
0.505465
0.505691
0.505825
0.505931
0.505882
0.505618
0.507222
0.0665221
0.299329
0.411606
0.467031
0.484513
0.495808
0.4973
0.500316
0.500317
0.501202
0.501397
0.502288
0.502601
0.503225
0.503516
0.50372
0.503946
0.503944
0.503786
0.505512
0.0683464
0.303336
0.416694
0.472119
0.490023
0.501382
0.503203
0.506533
0.506935
0.50853
0.509222
0.510854
0.51174
0.512951
0.513995
0.514667
0.515754
0.515998
0.516627
0.519012
0.0644493
0.299564
0.4153
0.473188
0.491608
0.505356
0.508778
0.515711
0.518272
0.523694
0.526429
0.530833
0.533415
0.53659
0.538916
0.54084
0.542823
0.543512
0.544409
0.547154
0.0860145
0.381616
0.525055
0.58701
0.609459
0.624093
0.631678
0.639949
0.6443
0.648615
0.649972
0.65102
0.650797
0.650586
0.64964
0.649204
0.648164
0.647701
0.647224
0.649808
0.476802
1.03704
1.13743
1.11006
1.03996
0.97674
0.927241
0.892677
0.866447
0.846808
0.832694
0.82123
0.813656
0.806774
0.802427
0.798925
0.79606
0.796895
0.791076
0.805879
7.67239
9.64929
9.70628
9.57204
9.54355
9.4912
9.50058
9.46807
9.46791
9.43627
9.4329
9.40808
9.40707
9.38911
9.39068
9.37566
9.38218
9.36267
9.37372
9.41438
6.01962
8.23692
8.55694
8.5881
8.59029
8.59931
8.60909
8.61845
8.62123
8.62096
8.61789
8.61321
8.60919
8.60397
8.60162
8.59609
8.59546
8.58954
8.59646
8.59936
5.70209
7.89846
8.23661
8.29336
8.29591
8.30911
8.31734
8.33529
8.34527
8.36126
8.37094
8.38319
8.3899
8.3957
8.39886
8.39941
8.40088
8.39719
8.3962
8.42103
5.69317
7.89035
8.22783
8.2822
8.27753
8.28026
8.27921
8.2858
8.28917
8.29942
8.30834
8.32386
8.33615
8.34867
8.35724
8.36266
8.36751
8.36761
8.36875
8.38483
5.68144
7.87473
8.21268
8.269
8.26383
8.26542
8.2617
8.26542
8.26443
8.26898
8.27373
8.28699
8.299
8.31423
8.32419
8.33362
8.3384
8.34429
8.34467
8.36648
5.68783
7.8827
8.21965
8.27544
8.27024
8.27199
8.26824
8.2717
8.26977
8.27292
8.27581
8.28724
8.29866
8.31459
8.32491
8.33582
8.34062
8.3486
8.34909
8.37194
5.68783
7.88271
8.21965
8.27544
8.27024
8.272
8.26824
8.2717
8.26977
8.27292
8.27581
8.28725
8.29863
8.31461
8.32488
8.33585
8.34059
8.34861
8.34911
8.37186
5.68144
7.87474
8.21268
8.269
8.26382
8.26542
8.26169
8.26543
8.26441
8.26901
8.2737
8.28705
8.2989
8.31436
8.32404
8.3338
8.33824
8.34444
8.34454
8.36654
5.69317
7.89036
8.22783
8.28221
8.27753
8.28027
8.2792
8.28583
8.28915
8.29948
8.30822
8.32403
8.3359
8.34901
8.35678
8.36324
8.36686
8.36826
8.36807
8.38525
5.70209
7.89847
8.2366
8.29337
8.2959
8.30913
8.31733
8.33532
8.3452
8.36137
8.37078
8.38344
8.38951
8.39626
8.39806
8.40041
8.39967
8.39917
8.39331
8.42322
6.01962
8.23692
8.55693
8.58811
8.59029
8.59933
8.60906
8.61849
8.62119
8.62102
8.61776
8.61346
8.6088
8.6046
8.60063
8.59772
8.59305
8.59301
8.59078
8.60672
7.67239
9.64929
9.70628
9.57204
9.54354
9.49122
9.50057
9.46811
9.46787
9.43636
9.43279
9.40829
9.40677
9.38962
9.38986
9.37717
9.37979
9.36721
9.3668
9.42581
52.0072
56.3564
56.2209
56.1967
56.1274
56.2267
56.2447
56.3187
56.287
56.2945
56.24
56.2319
56.1887
56.1816
56.1573
56.1444
56.1487
56.0998
56.2155
56.2883
13.8352
13.9917
13.3941
12.8257
12.5598
12.4731
12.4029
12.3922
12.3556
12.3478
12.3177
12.3102
12.2864
12.2807
12.2641
12.2595
12.2546
12.2422
12.419
12.4229
8.08325
9.22001
9.32523
9.30042
9.24795
9.23828
9.21917
9.22248
9.21508
9.22017
9.21602
9.22091
9.21673
9.21811
9.21238
9.21047
9.20428
9.19897
9.20156
9.22328
7.48132
8.75307
8.99654
9.07653
9.09012
9.1195
9.12556
9.14677
9.15209
9.17035
9.17809
9.19948
9.20931
9.22784
9.23315
9.2435
9.24457
9.24867
9.24868
9.26945
7.41652
8.69933
8.9564
9.05261
9.07986
9.12287
9.13853
9.17287
9.18509
9.21273
9.22626
9.2573
9.27592
9.30688
9.32205
9.34461
9.35307
9.36801
9.373
9.40013
7.42349
8.69578
8.95114
9.04879
9.07992
9.12785
9.14858
9.18892
9.20525
9.23833
9.25519
9.29097
9.31423
9.35136
9.37226
9.40158
9.41491
9.43619
9.44603
9.4768
7.42349
8.69578
8.95114
9.04879
9.07991
9.12785
9.14858
9.18892
9.20525
9.23833
9.25518
9.29099
9.3142
9.35139
9.37223
9.40163
9.41489
9.43625
9.4461
9.47686
7.41652
8.69933
8.9564
9.05261
9.07985
9.12288
9.13852
9.17288
9.18507
9.21276
9.22623
9.25736
9.27581
9.30703
9.3219
9.34482
9.35293
9.36824
9.3731
9.40043
7.48132
8.75308
8.99653
9.07654
9.09011
9.11951
9.12555
9.1468
9.15206
9.17041
9.17803
9.19961
9.20907
9.22818
9.23296
9.2439
9.24414
9.24938
9.24809
9.27024
8.08324
9.22001
9.32522
9.30042
9.24794
9.23829
9.21916
9.22251
9.21504
9.22024
9.21591
9.22109
9.21646
9.2185
9.21164
9.21128
9.20269
9.20194
9.19888
9.2263
13.8352
13.9917
13.3941
12.8257
12.5598
12.4732
12.4028
12.3922
12.3556
12.3479
12.3175
12.3104
12.2859
12.2813
12.2629
12.2612
12.2512
12.2477
12.4077
12.434
52.0072
56.3564
56.2209
56.1967
56.1274
56.2268
56.2446
56.319
56.2868
56.2951
56.2392
56.2332
56.1866
56.1849
56.1518
56.1538
56.133
56.1267
56.1675
56.3664
143.424
145.592
146.811
147.769
148.353
148.737
148.914
149.033
149.07
149.109
149.11
149.127
149.121
149.133
149.128
149.137
149.133
149.141
149.138
149.145
149.142
149.148
149.146
149.151
149.149
149.155
149.153
149.159
149.157
149.162
149.162
149.167
149.166
149.171
149.17
149.175
149.175
149.179
149.18
149.184
149.185
149.19
149.191
149.196
149.198
149.202
149.204
149.209
149.211
149.216
149.218
149.224
149.226
149.232
149.235
149.242
149.245
149.252
149.256
149.263
149.267
149.273
149.278
149.285
149.289
149.297
149.302
149.31
149.316
149.325
149.33
149.34
149.346
149.356
149.362
149.372
149.377
149.387
149.392
149.402
149.408
149.417
149.423
149.433
149.441
149.444
149.475
149.425
149.523
149.397
47.0977
48.9033
49.2956
49.6319
49.809
49.9575
50.005
50.0641
50.0687
50.0986
50.0939
50.1153
50.1102
50.1288
50.1252
50.1427
50.1406
50.1573
50.1564
50.1725
50.1726
50.1883
50.1894
50.2049
50.2068
50.2221
50.2248
50.24
50.2435
50.2586
50.2627
50.2778
50.2826
50.2977
50.3031
50.3183
50.3244
50.3397
50.3465
50.362
50.3695
50.3852
50.3933
50.4092
50.418
50.4341
50.4435
50.4599
50.47
50.4868
50.4976
50.5148
50.5264
50.5441
50.5563
50.5745
50.5874
50.606
50.6196
50.6386
50.6527
50.6722
50.6869
50.7069
50.722
50.7425
50.7581
50.779
50.7948
50.816
50.8319
50.8531
50.8686
50.8895
50.9043
50.9247
50.9384
50.958
50.9703
50.9889
50.9996
51.0169
51.026
51.0415
51.0496
51.0609
51.0742
51.0665
51.0926
51.0511
30.4371
32.5001
32.7422
32.9849
33.1001
33.2354
33.2703
33.3402
33.3452
33.3889
33.3878
33.4233
33.4228
33.4558
33.4574
33.4894
33.4932
33.5247
33.5302
33.5613
33.5684
33.5993
33.6078
33.6385
33.6484
33.6791
33.6901
33.7208
33.733
33.7638
33.777
33.8078
33.8221
33.8529
33.8682
33.8992
33.9155
33.9466
33.964
33.9953
34.0137
34.0453
34.0646
34.0964
34.1166
34.1486
34.1697
34.202
34.2241
34.2567
34.2797
34.3128
34.3367
34.3703
34.395
34.429
34.4544
34.4888
34.5149
34.5496
34.5762
34.6111
34.6382
34.6734
34.7007
34.7361
34.7637
34.7992
34.8266
34.8619
34.8888
34.9236
34.9495
34.9834
35.0077
35.0402
35.0624
35.0931
35.1127
35.1412
35.158
35.184
35.1979
35.221
35.2324
35.2503
35.2641
35.268
35.2913
35.2627
28.2808
30.7076
30.9323
31.1647
31.2789
31.4349
31.4797
31.5687
31.5804
31.6374
31.641
31.6872
31.6908
31.7339
31.74
31.7823
31.7908
31.8327
31.8434
31.8852
31.8977
31.9394
31.9536
31.9953
32.011
32.0528
32.07
32.1118
32.1303
32.1722
32.192
32.2339
32.255
32.2968
32.3191
32.361
32.3846
32.4266
32.4514
32.4935
32.5195
32.5618
32.5888
32.6313
32.6593
32.7019
32.7309
32.7738
32.8038
32.8469
32.8779
32.9215
32.9535
32.9975
33.0303
33.0747
33.1083
33.1529
33.1871
33.2319
33.2666
33.3115
33.3465
33.3916
33.4268
33.4719
33.5072
33.5522
33.5871
33.6317
33.6658
33.7096
33.7422
33.7846
33.815
33.8556
33.8832
33.9213
33.9456
33.9808
34.0015
34.0336
34.0506
34.079
34.0931
34.1154
34.1312
34.1412
34.1624
34.1397
28.1699
30.8049
31.0192
31.2448
31.3563
31.5275
31.5792
31.682
31.6984
31.7649
31.7714
31.8247
31.8308
31.8804
31.8889
31.9377
31.949
31.9976
32.0113
32.0597
32.0755
32.1239
32.1416
32.19
32.2094
32.258
32.279
32.3277
32.3502
32.3989
32.4228
32.4715
32.4968
32.5455
32.5721
32.6208
32.6488
32.6976
32.727
32.7758
32.8066
32.8555
32.8874
32.9365
32.9695
33.0187
33.0527
33.1022
33.1372
33.187
33.2232
33.2734
33.3106
33.3612
33.3993
33.4503
33.4893
33.5405
33.5801
33.6315
33.6715
33.723
33.7634
33.8149
33.8555
33.9071
33.9476
33.9991
34.0392
34.0902
34.1293
34.1792
34.2166
34.265
34.2998
34.346
34.3776
34.4209
34.4488
34.4888
34.5125
34.549
34.5685
34.6008
34.617
34.6428
34.6594
34.6745
34.6948
34.6755
28.2866
31.0518
31.2536
31.4653
31.5667
31.7386
31.7903
31.8967
31.9148
31.985
31.9927
32.049
32.0561
32.1084
32.1181
32.1696
32.1822
32.2336
32.2487
32.3001
32.3175
32.3689
32.3882
32.4398
32.4609
32.5127
32.5355
32.5874
32.6117
32.6637
32.6896
32.7415
32.7689
32.8207
32.8495
32.9014
32.9316
32.9836
33.0153
33.0673
33.1003
33.1525
33.1868
33.2391
33.2745
33.3269
33.3633
33.416
33.4535
33.5065
33.5452
33.5986
33.6384
33.6922
33.733
33.7872
33.8288
33.8832
33.9255
33.9801
34.0228
34.0775
34.1205
34.1753
34.2185
34.2733
34.3165
34.3711
34.4138
34.4679
34.5095
34.5625
34.6023
34.6536
34.6907
34.7396
34.7733
34.8192
34.8489
34.8913
34.9166
34.9552
34.9761
35.0103
35.0275
35.0555
35.0717
35.0906
35.1093
35.0912
28.2887
31.0433
31.2263
31.4168
31.4996
31.6576
31.7013
31.8017
31.8181
31.8869
31.8944
31.9504
31.9575
32.0096
32.0193
32.0708
32.0834
32.1347
32.1498
32.2011
32.2184
32.2698
32.2891
32.3406
32.3617
32.4134
32.4362
32.488
32.5123
32.5643
32.5901
32.642
32.6693
32.7211
32.7499
32.8016
32.8319
32.8837
32.9154
32.9674
33.0004
33.0525
33.0867
33.139
33.1743
33.2266
33.263
33.3156
33.3531
33.4061
33.4447
33.498
33.5377
33.5915
33.6322
33.6863
33.7279
33.7822
33.8244
33.8789
33.9216
33.9762
34.0192
34.0739
34.117
34.1717
34.2149
34.2694
34.312
34.366
34.4076
34.4605
34.5002
34.5514
34.5885
34.6373
34.6709
34.7168
34.7464
34.7887
34.814
34.8525
34.8734
34.9076
34.9246
34.9531
34.9681
34.9889
35.0058
34.9889
28.1736
30.7694
30.9202
31.0807
31.1386
31.2696
31.2998
31.3867
31.3987
31.4619
31.4676
31.5203
31.5262
31.5755
31.5841
31.6326
31.6439
31.6922
31.7059
31.7542
31.7699
31.8181
31.8358
31.8841
31.9034
31.9518
31.9728
32.0213
32.0437
32.0923
32.1161
32.1647
32.1899
32.2384
32.265
32.3135
32.3415
32.39
32.4194
32.4681
32.4987
32.5475
32.5793
32.6282
32.6611
32.7102
32.744
32.7933
32.8282
32.8778
32.9138
32.9639
33.0009
33.0513
33.0893
33.1401
33.1789
33.2299
33.2693
33.3205
33.3603
33.4116
33.4518
33.5031
33.5435
33.5949
33.6352
33.6865
33.7264
33.7771
33.816
33.8657
33.9029
33.9511
33.9858
34.0317
34.0631
34.1063
34.134
34.1739
34.1975
34.2338
34.2531
34.2855
34.3009
34.3284
34.3412
34.3622
34.3765
34.3606
28.2664
30.5898
30.6966
30.8214
30.8545
30.9522
30.9682
31.0371
31.0432
31.0963
31.0991
31.1445
31.148
31.1908
31.1968
31.2389
31.2474
31.2892
31.2998
31.3414
31.3539
31.3954
31.4096
31.4511
31.4668
31.5084
31.5256
31.5672
31.5857
31.6274
31.6472
31.6889
31.7099
31.7516
31.7739
31.8156
31.8391
31.8809
31.9056
31.9476
31.9735
32.0156
32.0425
32.0848
32.1127
32.1551
32.184
32.2266
32.2565
32.2994
32.3302
32.3736
32.4054
32.4491
32.4818
32.5259
32.5593
32.6036
32.6376
32.6821
32.7166
32.7612
32.796
32.8407
32.8757
32.9205
32.9555
33.0002
33.0348
33.0791
33.1129
33.1564
33.1887
33.2308
33.261
33.3012
33.3286
33.3664
33.3905
33.4255
33.446
33.4779
33.4947
33.5231
33.5364
33.5608
33.5711
33.5905
33.6005
33.5856
30.3377
32.1786
32.2323
32.3255
32.3383
32.4064
32.4102
32.4608
32.4605
32.5007
32.499
32.5337
32.5332
32.5657
32.5674
32.5991
32.603
32.6342
32.6398
32.6708
32.6779
32.7087
32.7173
32.7479
32.7578
32.7884
32.7995
32.8302
32.8424
32.8731
32.8864
32.9171
32.9314
32.9622
32.9775
33.0084
33.0247
33.0558
33.0732
33.1044
33.1228
33.1542
33.1736
33.2052
33.2254
33.2573
33.2784
33.3106
33.3325
33.365
33.3879
33.4209
33.4446
33.478
33.5026
33.5364
33.5617
33.5959
33.6218
33.6562
33.6826
33.7173
33.7441
33.7791
33.8062
33.8413
33.8686
33.9038
33.9309
33.9659
33.9925
34.027
34.0526
34.0862
34.1102
34.1424
34.1643
34.1947
34.2141
34.2424
34.259
34.2848
34.2984
34.3215
34.3321
34.3521
34.3599
34.3763
34.3813
34.3685
46.688
48.0117
48.0593
48.1458
48.1614
48.2158
48.2185
48.2555
48.2526
48.2789
48.2733
48.294
48.2889
48.3074
48.3038
48.3212
48.3191
48.3357
48.3349
48.351
48.3512
48.3669
48.3681
48.3835
48.3855
48.4008
48.4036
48.4188
48.4224
48.4375
48.4417
48.4568
48.4617
48.4768
48.4824
48.4976
48.5038
48.5191
48.526
48.5416
48.5491
48.5648
48.573
48.589
48.5978
48.6139
48.6234
48.6398
48.6499
48.6667
48.6776
48.6948
48.7064
48.7241
48.7363
48.7545
48.7674
48.786
48.7995
48.8185
48.8325
48.852
48.8666
48.8864
48.9015
48.9219
48.9374
48.9581
48.9739
48.9949
49.0106
49.0316
49.047
49.0678
49.0824
49.1026
49.1161
49.1355
49.1476
49.166
49.1765
49.1935
49.2024
49.2179
49.225
49.2385
49.2437
49.2556
49.2461
49.2407
141.742
142.404
142.574
142.776
142.874
142.981
143.022
143.081
143.093
143.122
143.12
143.135
143.129
143.14
143.135
143.144
143.14
143.147
143.144
143.151
143.148
143.154
143.151
143.157
143.155
143.161
143.159
143.164
143.163
143.168
143.167
143.172
143.172
143.177
143.176
143.181
143.181
143.186
143.186
143.191
143.192
143.197
143.198
143.203
143.204
143.209
143.211
143.216
143.218
143.223
143.225
143.231
143.233
143.239
143.243
143.249
143.253
143.259
143.263
143.27
143.274
143.281
143.285
143.292
143.296
143.304
143.309
143.317
143.322
143.331
143.337
143.346
143.352
143.361
143.367
143.377
143.382
143.392
143.397
143.406
143.411
143.421
143.426
143.435
143.442
143.451
143.459
143.468
143.453
143.443
30.0592
30.8493
31.1137
31.3004
31.418
31.4896
31.5228
31.546
31.5516
31.5617
31.5603
31.5675
31.5649
31.5719
31.5693
31.5764
31.5742
31.5813
31.5794
31.5866
31.5851
31.5922
31.591
31.5981
31.5974
31.6045
31.6042
31.6113
31.6114
31.6185
31.6189
31.626
31.6268
31.6339
31.6351
31.6422
31.6437
31.6509
31.6528
31.6602
31.6625
31.67
31.6728
31.6803
31.6834
31.6911
31.6946
31.7024
31.7063
31.7143
31.7187
31.727
31.7318
31.7405
31.7458
31.7548
31.7606
31.7699
31.776
31.7856
31.7921
31.8019
31.8086
31.8188
31.8258
31.8363
31.8436
31.8544
31.8619
31.873
31.8805
31.8916
31.8988
31.9099
31.9165
31.9272
31.933
31.9431
31.948
31.9574
31.9614
31.9701
31.9733
31.9813
31.9842
31.9904
31.997
31.9923
32.0156
31.9909
27.9128
29.294
29.5598
29.7538
29.8777
29.9611
30.0026
30.0342
30.0466
30.0626
30.0672
30.0791
30.0823
30.0933
30.0965
30.1074
30.1109
30.1218
30.1256
30.1365
30.1405
30.1514
30.1558
30.1667
30.1713
30.1822
30.1873
30.1982
30.2035
30.2145
30.2202
30.2312
30.2372
30.2482
30.2546
30.2657
30.2724
30.2835
30.2905
30.3017
30.3091
30.3204
30.3281
30.3395
30.3475
30.3591
30.3673
30.379
30.3876
30.3994
30.4082
30.4201
30.4292
30.4413
30.4506
30.4629
30.4725
30.4849
30.4948
30.5073
30.5174
30.5301
30.5403
30.5531
30.5634
30.5763
30.5868
30.5998
30.6104
30.6234
30.634
30.6471
30.6576
30.6707
30.681
30.6939
30.7038
30.7165
30.7259
30.7381
30.7468
30.7584
30.7662
30.7769
30.7839
30.7923
30.8023
30.7995
30.825
30.814
25.7212
27.5811
27.8554
28.0435
28.1768
28.2694
28.3222
28.3579
28.3763
28.3919
28.3995
28.4094
28.4144
28.4231
28.4278
28.4363
28.4411
28.4497
28.4546
28.4632
28.4682
28.4768
28.482
28.4905
28.4959
28.5044
28.5099
28.5185
28.5242
28.5327
28.5385
28.5471
28.5531
28.5616
28.5677
28.5762
28.5824
28.5909
28.5972
28.6057
28.6121
28.6206
28.6271
28.6356
28.6421
28.6506
28.6572
28.6656
28.6723
28.6806
28.6873
28.6956
28.7023
28.7106
28.7173
28.7255
28.7323
28.7404
28.7471
28.7552
28.7619
28.7699
28.7765
28.7844
28.7909
28.7987
28.8052
28.8129
28.8193
28.827
28.8333
28.841
28.8472
28.8548
28.8609
28.8684
28.8744
28.8817
28.8874
28.8945
28.8999
28.9067
28.9117
28.9179
28.923
28.927
28.9358
28.9311
28.949
28.9186
25.0251
27.0815
27.3287
27.4985
27.6318
27.7314
27.7919
27.8326
27.8545
27.8705
27.8786
27.8867
27.8909
27.8971
27.9007
27.9066
27.9101
27.916
27.9196
27.9254
27.929
27.9348
27.9385
27.9443
27.9481
27.9538
27.9577
27.9634
27.9674
27.9731
27.9771
27.9828
27.9869
27.9926
27.9967
28.0024
28.0066
28.0122
28.0164
28.022
28.0263
28.0319
28.0362
28.0418
28.0462
28.0517
28.0561
28.0616
28.066
28.0714
28.0758
28.0812
28.0856
28.091
28.0954
28.1007
28.1052
28.1105
28.1149
28.1202
28.1246
28.1298
28.1342
28.1393
28.1437
28.1488
28.1531
28.1583
28.1626
28.1678
28.1721
28.1773
28.1817
28.1869
28.1913
28.1966
28.2009
28.2061
28.2103
28.2155
28.2195
28.2245
28.2284
28.233
28.2373
28.2397
28.2475
28.2439
28.2556
28.2371
24.6261
26.7988
27.0058
27.1458
27.2673
27.366
27.428
27.4714
27.4953
27.5126
27.5209
27.5287
27.5322
27.5374
27.5399
27.5447
27.5472
27.5518
27.5543
27.5588
27.5613
27.5658
27.5684
27.573
27.5756
27.5802
27.5829
27.5875
27.5903
27.5949
27.5978
27.6024
27.6054
27.61
27.6131
27.6177
27.6208
27.6254
27.6286
27.6331
27.6365
27.641
27.6444
27.649
27.6524
27.657
27.6605
27.6651
27.6686
27.6732
27.6767
27.6813
27.6849
27.6894
27.6931
27.6977
27.7014
27.706
27.7097
27.7143
27.7181
27.7227
27.7264
27.7311
27.7348
27.7394
27.7432
27.7479
27.7518
27.7565
27.7604
27.7652
27.7692
27.7741
27.7781
27.783
27.787
27.7919
27.7958
27.8007
27.8045
27.8092
27.8129
27.8171
27.8212
27.8235
27.8302
27.8286
27.836
27.8111
24.5653
26.7588
26.9279
27.0371
27.1397
27.2291
27.2869
27.3287
27.3525
27.3699
27.3784
27.386
27.3892
27.3941
27.3963
27.4007
27.4028
27.4072
27.4094
27.4138
27.416
27.4204
27.4226
27.427
27.4294
27.4338
27.4362
27.4406
27.4431
27.4476
27.4502
27.4546
27.4573
27.4618
27.4646
27.469
27.4719
27.4763
27.4793
27.4837
27.4868
27.4912
27.4944
27.4988
27.5021
27.5065
27.5098
27.5143
27.5177
27.5221
27.5255
27.53
27.5334
27.5379
27.5415
27.546
27.5496
27.5541
27.5578
27.5623
27.566
27.5706
27.5743
27.5788
27.5825
27.5872
27.5909
27.5956
27.5994
27.6041
27.608
27.6128
27.6167
27.6216
27.6256
27.6306
27.6345
27.6394
27.6433
27.6482
27.652
27.6567
27.6603
27.6646
27.6685
27.6711
27.6769
27.6772
27.6822
27.6601
24.5659
26.7489
26.8993
26.9881
27.0729
27.1493
27.1988
27.2361
27.2578
27.2742
27.2823
27.2898
27.2929
27.2978
27.3
27.3044
27.3065
27.3109
27.313
27.3174
27.3196
27.324
27.3262
27.3306
27.333
27.3374
27.3398
27.3442
27.3467
27.3511
27.3538
27.3582
27.3609
27.3653
27.3681
27.3725
27.3754
27.3798
27.3828
27.3872
27.3903
27.3947
27.3979
27.4024
27.4056
27.4101
27.4134
27.4178
27.4212
27.4256
27.429
27.4335
27.437
27.4414
27.445
27.4495
27.4531
27.4576
27.4613
27.4658
27.4695
27.4741
27.4777
27.4823
27.486
27.4906
27.4944
27.499
27.5028
27.5076
27.5114
27.5163
27.5202
27.5251
27.529
27.534
27.5379
27.5429
27.5467
27.5516
27.5554
27.5601
27.5636
27.568
27.5717
27.5748
27.5797
27.5812
27.5852
27.5634
24.6271
26.7597
26.9078
26.987
27.0576
27.1201
27.1603
27.1916
27.21
27.2248
27.2321
27.2395
27.2428
27.2479
27.2504
27.2552
27.2576
27.2623
27.2648
27.2693
27.2718
27.2763
27.2789
27.2834
27.286
27.2905
27.2933
27.2978
27.3006
27.3052
27.3081
27.3127
27.3157
27.3202
27.3233
27.3278
27.331
27.3355
27.3387
27.3433
27.3466
27.3511
27.3545
27.3591
27.3625
27.3671
27.3705
27.3751
27.3786
27.3832
27.3867
27.3912
27.3948
27.3994
27.403
27.4076
27.4113
27.4159
27.4196
27.4242
27.4279
27.4325
27.4363
27.4409
27.4446
27.4492
27.453
27.4577
27.4615
27.4662
27.4701
27.4749
27.4788
27.4837
27.4877
27.4926
27.4965
27.5014
27.5053
27.5102
27.5139
27.5186
27.5222
27.5266
27.5301
27.5336
27.5377
27.5399
27.544
27.5204
25.0087
26.9675
27.1034
27.1725
27.229
27.2771
27.3078
27.3328
27.3478
27.3609
27.3678
27.3754
27.3794
27.3855
27.3889
27.3947
27.3982
27.404
27.4075
27.4133
27.4168
27.4226
27.4262
27.4319
27.4357
27.4414
27.4452
27.4509
27.4548
27.4605
27.4644
27.4701
27.4741
27.4798
27.4839
27.4895
27.4936
27.4992
27.5034
27.509
27.5132
27.5188
27.5231
27.5286
27.5329
27.5384
27.5428
27.5482
27.5526
27.558
27.5623
27.5677
27.5721
27.5774
27.5818
27.5871
27.5915
27.5968
27.6012
27.6064
27.6108
27.616
27.6203
27.6254
27.6297
27.6349
27.6391
27.6443
27.6485
27.6537
27.658
27.6632
27.6675
27.6727
27.677
27.6822
27.6865
27.6917
27.6959
27.701
27.705
27.7099
27.7137
27.7184
27.722
27.7262
27.73
27.7331
27.7368
27.7225
25.6472
27.3217
27.4324
27.4905
27.5325
27.5684
27.591
27.6119
27.6241
27.637
27.6437
27.6531
27.658
27.6664
27.6711
27.6795
27.6842
27.6927
27.6975
27.706
27.711
27.7195
27.7246
27.7331
27.7384
27.7469
27.7523
27.7608
27.7664
27.7749
27.7806
27.7891
27.795
27.8035
27.8095
27.818
27.8241
27.8325
27.8387
27.8472
27.8535
27.8619
27.8683
27.8767
27.8832
27.8916
27.8981
27.9064
27.913
27.9213
27.9279
27.9361
27.9427
27.9508
27.9575
27.9656
27.9722
27.9802
27.9869
27.9948
28.0014
28.0093
28.0158
28.0235
28.03
28.0376
28.044
28.0516
28.0578
28.0654
28.0716
28.0791
28.0852
28.0926
28.0986
28.1059
28.1117
28.1189
28.1245
28.1314
28.1366
28.1432
28.148
28.1543
28.1586
28.1643
28.1682
28.1729
28.1775
28.158
27.6981
28.7956
28.8558
28.8998
28.926
28.9534
28.9672
28.9862
28.9937
29.0076
29.0116
29.0231
29.0263
29.0372
29.0404
29.0512
29.0547
29.0655
29.0693
29.0801
29.0842
29.095
29.0994
29.1102
29.1149
29.1258
29.1308
29.1417
29.1471
29.158
29.1637
29.1746
29.1807
29.1917
29.198
29.2091
29.2157
29.2268
29.2338
29.245
29.2523
29.2636
29.2712
29.2826
29.2905
29.302
29.3102
29.3218
29.3303
29.342
29.3507
29.3626
29.3716
29.3836
29.3928
29.4049
29.4144
29.4267
29.4364
29.4488
29.4587
29.4712
29.4813
29.4938
29.504
29.5167
29.527
29.5398
29.5501
29.5629
29.5732
29.5861
29.5963
29.6091
29.6191
29.6318
29.6415
29.6538
29.6629
29.6749
29.6833
29.6946
29.702
29.7126
29.7189
29.7286
29.7335
29.7422
29.7466
29.7564
29.6733
30.1313
30.1718
30.2008
30.2188
30.2353
30.2422
30.2539
30.2552
30.2636
30.2617
30.2687
30.2661
30.273
30.2705
30.2776
30.2754
30.2825
30.2807
30.2879
30.2864
30.2936
30.2925
30.2996
30.299
30.3061
30.3058
30.3129
30.3131
30.3202
30.3208
30.3279
30.3288
30.3358
30.3371
30.3442
30.3458
30.353
30.3551
30.3624
30.3648
30.3723
30.3751
30.3827
30.3859
30.3936
30.3971
30.4049
30.4089
30.4169
30.4213
30.4296
30.4345
30.4432
30.4485
30.4575
30.4633
30.4726
30.4787
30.4883
30.4947
30.5045
30.5112
30.5213
30.5284
30.5388
30.5461
30.5568
30.5643
30.5753
30.5828
30.5939
30.6011
30.612
30.6186
30.6292
30.6351
30.6451
30.65
30.6593
30.6633
30.672
30.6752
30.6831
30.6857
30.6931
30.6952
30.7028
30.7008
30.7037
3.67445
3.88703
3.915
3.9294
3.94472
3.95761
3.96799
3.9827
3.99133
4.00761
4.0147
4.03156
4.03747
4.05451
4.0597
4.07675
4.08151
4.09845
4.103
4.11976
4.12428
4.14083
4.14546
4.16182
4.16666
4.18285
4.18797
4.204
4.20946
4.22535
4.23116
4.24694
4.25314
4.26884
4.27546
4.29113
4.29819
4.31387
4.32141
4.33714
4.34516
4.36094
4.36944
4.38529
4.39424
4.4102
4.41961
4.4357
4.4456
4.46188
4.47226
4.48876
4.49964
4.51638