/*--------------------------------*- C++ -*----------------------------------*\
  =========                 |
  \\      /  F ield         | OpenFOAM: The Open Source CFD Toolbox
   \\    /   O peration     | Website:  https://openfoam.org
    \\  /    A nd           | Version:  7
     \\/     M anipulation  |
\*---------------------------------------------------------------------------*/
FoamFile
{
    version     2.0;
    format      ascii;
    class       volVectorField;
    location    "0.84";
    object      U;
}
// * * * * * * * * * * * * * * * * * * * * * * * * * * * * * * * * * * * * * //

dimensions      [0 1 -1 0 0 0 0];

internalField   nonuniform List<vector> 
5760
(
(2.2737 0.125572 0)
(1.33642 0.0194557 0)
(1.09282 -0.00206455 0)
(0.961607 -0.000112288 0)
(0.887925 2.53669e-05 0)
(0.846369 -0.000138999 0)
(0.823999 0.00016543 0)
(0.806688 0.000504396 0)
(0.788275 0.00061309 0)
(0.770033 0.00057144 0)
(0.75396 0.000521593 0)
(0.740145 0.000502921 0)
(0.727774 0.000495299 0)
(0.716239 0.00048491 0)
(0.7053 0.000474267 0)
(0.694866 0.000469015 0)
(0.684865 0.000471778 0)
(0.675227 0.000483794 0)
(0.665881 0.000506467 0)
(0.656764 0.000541015 0)
(0.647818 0.000588023 0)
(0.63899 0.000646911 0)
(0.630248 0.000715224 0)
(0.621589 0.000789371 0)
(0.613029 0.00086598 0)
(0.604594 0.000941602 0)
(0.596316 0.00101393 0)
(0.588209 0.00108244 0)
(0.580264 0.00114676 0)
(0.572476 0.00120618 0)
(0.564834 0.00126057 0)
(0.557329 0.00130992 0)
(0.549948 0.00135411 0)
(0.542685 0.00139351 0)
(0.535518 0.00142911 0)
(0.52844 0.00146073 0)
(0.521455 0.00148817 0)
(0.514576 0.00151126 0)
(0.50783 0.0015293 0)
(0.501246 0.00154227 0)
(0.494835 0.00155109 0)
(0.488591 0.00155663 0)
(0.482492 0.00155999 0)
(0.476508 0.00156193 0)
(0.470611 0.00156314 0)
(0.464779 0.00156363 0)
(0.459007 0.00156343 0)
(0.453301 0.00156268 0)
(0.447669 0.00156154 0)
(0.442119 0.00156045 0)
(0.436658 0.00155987 0)
(0.431282 0.00156007 0)
(0.425987 0.00156116 0)
(0.420769 0.00156294 0)
(0.415631 0.00156486 0)
(0.410582 0.00156634 0)
(0.405638 0.00156699 0)
(0.400814 0.00156674 0)
(0.396122 0.00156579 0)
(0.391565 0.00156456 0)
(0.387136 0.00156355 0)
(0.382819 0.00156324 0)
(0.378592 0.00156389 0)
(0.374431 0.00156557 0)
(0.370313 0.00156815 0)
(0.366224 0.00157134 0)
(0.362152 0.00157489 0)
(0.358094 0.00157855 0)
(0.35405 0.00158211 0)
(0.350022 0.00158546 0)
(0.346016 0.00158858 0)
(0.342035 0.00159151 0)
(0.338083 0.00159427 0)
(0.334161 0.00159691 0)
(0.330271 0.00159949 0)
(0.326414 0.00160205 0)
(0.322587 0.00160462 0)
(0.318792 0.00160718 0)
(0.315027 0.00160976 0)
(0.311292 0.00161235 0)
(0.307585 0.00161492 0)
(0.303907 0.00161744 0)
(0.300259 0.00161995 0)
(0.296638 0.00162245 0)
(0.293047 0.00162489 0)
(0.289485 0.00162728 0)
(0.285952 0.00162965 0)
(0.282448 0.00163197 0)
(0.278974 0.00163423 0)
(0.27553 0.00163645 0)
(0.272116 0.00163863 0)
(0.268732 0.00164076 0)
(0.265379 0.00164285 0)
(0.262057 0.0016449 0)
(0.258766 0.0016469 0)
(0.255506 0.00164885 0)
(0.252277 0.00165076 0)
(0.249079 0.00165263 0)
(0.245913 0.00165446 0)
(0.242779 0.00165623 0)
(0.239677 0.00165796 0)
(0.236607 0.00165965 0)
(0.233569 0.00166131 0)
(0.230563 0.00166292 0)
(0.227589 0.00166447 0)
(0.224648 0.00166598 0)
(0.22174 0.00166745 0)
(0.218864 0.00166888 0)
(0.216021 0.00167027 0)
(0.21321 0.00167162 0)
(0.210433 0.00167291 0)
(0.207688 0.00167414 0)
(0.204977 0.00167536 0)
(0.202298 0.00167654 0)
(0.199653 0.00167765 0)
(0.197041 0.00167873 0)
(0.194462 0.00167978 0)
(0.191916 0.00168078 0)
(0.189403 0.00168173 0)
(0.186924 0.00168263 0)
(0.184478 0.00168349 0)
(0.182065 0.00168431 0)
(0.179685 0.00168509 0)
(0.177339 0.00168582 0)
(0.175026 0.00168652 0)
(0.172745 0.00168718 0)
(0.170498 0.00168778 0)
(0.168284 0.00168834 0)
(0.166103 0.00168887 0)
(0.163955 0.00168936 0)
(0.16184 0.0016898 0)
(0.159758 0.00169019 0)
(0.157709 0.00169053 0)
(0.155692 0.00169086 0)
(0.153708 0.00169114 0)
(0.151757 0.00169137 0)
(0.149838 0.00169156 0)
(0.147952 0.0016917 0)
(0.146098 0.00169181 0)
(0.144277 0.00169188 0)
(0.142487 0.00169191 0)
(0.140729 0.00169189 0)
(0.139004 0.00169184 0)
(0.13731 0.00169175 0)
(0.135648 0.00169161 0)
(0.134017 0.00169144 0)
(0.132418 0.00169123 0)
(0.13085 0.00169098 0)
(0.129313 0.00169068 0)
(0.127808 0.00169034 0)
(0.126334 0.00168997 0)
(0.12489 0.00168956 0)
(0.123477 0.00168912 0)
(0.122095 0.00168864 0)
(0.120742 0.00168811 0)
(0.11942 0.00168755 0)
(0.118129 0.00168697 0)
(0.116867 0.00168633 0)
(0.115635 0.00168566 0)
(0.114433 0.00168496 0)
(0.11326 0.00168422 0)
(0.112116 0.00168344 0)
(0.111002 0.00168261 0)
(0.109917 0.00168176 0)
(0.108861 0.00168089 0)
(0.107833 0.00167997 0)
(0.106834 0.00167902 0)
(0.105864 0.00167803 0)
(0.104921 0.00167701 0)
(0.104007 0.00167595 0)
(0.10312 0.00167486 0)
(0.102262 0.00167374 0)
(0.101431 0.00167259 0)
(0.100628 0.00167142 0)
(0.0998511 0.00167022 0)
(0.0991015 0.00166897 0)
(0.0983789 0.00166766 0)
(0.0976833 0.00166634 0)
(0.0970147 0.00166501 0)
(0.0963725 0.00166366 0)
(0.0957563 0.00166227 0)
(0.095166 0.00166083 0)
(0.0946018 0.00165938 0)
(0.0940636 0.0016579 0)
(0.0935513 0.00165639 0)
(0.0930643 0.00165488 0)
(0.0926024 0.00165332 0)
(0.0921661 0.00165168 0)
(0.0917548 0.00165012 0)
(0.0913682 0.0016485 0)
(0.0910067 0.00164679 0)
(0.0906696 0.0016451 0)
(0.0903572 0.0016434 0)
(0.0900691 0.00164169 0)
(0.0898052 0.0016399 0)
(0.0895654 0.00163811 0)
(0.0893495 0.00163632 0)
(0.0891574 0.00163451 0)
(0.0889891 0.00163263 0)
(0.0888443 0.00163075 0)
(0.088723 0.00162887 0)
(0.0886251 0.00162696 0)
(0.0885503 0.00162502 0)
(0.0884985 0.00162306 0)
(0.0884696 0.00162109 0)
(0.0884637 0.00161908 0)
(0.0884805 0.00161708 0)
(0.0885199 0.00161506 0)
(0.0885817 0.00161299 0)
(0.0886661 0.0016109 0)
(0.0887727 0.00160885 0)
(0.0889017 0.00160674 0)
(0.0890527 0.00160462 0)
(0.0892262 0.00160246 0)
(0.0894207 0.00160036 0)
(0.0896386 0.0015981 0)
(0.089876 0.001596 0)
(0.090138 0.00159374 0)
(0.0904182 0.0015916 0)
(0.0907247 0.00158922 0)
(0.0910461 0.0015872 0)
(0.0913982 0.00158461 0)
(0.0917579 0.00158281 0)
(0.0921596 0.00157984 0)
(0.0925501 0.00157847 0)
(0.093013 0.00157476 0)
(0.0934145 0.00157479 0)
(0.0939652 0.00156876 0)
(0.0943484 0.00157135 0)
(0.0949926 0.00156457 0)
(0.0953976 0.00156313 0)
(0.0960215 0.00156709 0)
(0.0965743 0.00155071 0)
(0.097174 0.00156379 0)
(0.0975891 0.00155494 0)
(0.0984794 0.00157145 0)
(0.098605 0.00147059 0)
(0.0994088 0.00173849 0)
(0.0998451 0.00134844 0)
(0.100375 0.00152654 0)
(3.81001 0.351711 0)
(3.13683 0.14325 0)
(2.773 0.0395742 0)
(2.50234 0.0237933 0)
(2.32377 0.0154361 0)
(2.21465 0.00902975 0)
(2.15208 0.00643982 0)
(2.10858 0.00618764 0)
(2.0687 0.00616235 0)
(2.03105 0.00567118 0)
(1.99813 0.0050121 0)
(1.97035 0.00448479 0)
(1.94638 0.00411939 0)
(1.92488 0.00384336 0)
(1.90513 0.00361077 0)
(1.88678 0.00341196 0)
(1.86964 0.00324813 0)
(1.8535 0.0031222 0)
(1.83817 0.0030374 0)
(1.82346 0.0029963 0)
(1.80917 0.00299955 0)
(1.79514 0.00304334 0)
(1.78126 0.00311871 0)
(1.76751 0.00321318 0)
(1.75394 0.00331638 0)
(1.74059 0.00341998 0)
(1.72754 0.00351967 0)
(1.71484 0.00361543 0)
(1.70248 0.0037071 0)
(1.69047 0.00379318 0)
(1.67878 0.00387336 0)
(1.66741 0.00394689 0)
(1.65631 0.00401303 0)
(1.6455 0.00407255 0)
(1.63492 0.00412623 0)
(1.62457 0.00417192 0)
(1.61445 0.00420811 0)
(1.60457 0.00423342 0)
(1.59497 0.00424641 0)
(1.58568 0.00424816 0)
(1.57671 0.00424188 0)
(1.56804 0.0042308 0)
(1.55964 0.00421712 0)
(1.55148 0.00420193 0)
(1.54353 0.0041853 0)
(1.53576 0.0041661 0)
(1.52818 0.00414328 0)
(1.52079 0.00411651 0)
(1.51361 0.00408671 0)
(1.50666 0.00405543 0)
(1.49996 0.0040246 0)
(1.49349 0.00399601 0)
(1.48725 0.00397067 0)
(1.48121 0.00394838 0)
(1.47535 0.00392787 0)
(1.46966 0.00390764 0)
(1.46414 0.00388664 0)
(1.4588 0.00386472 0)
(1.45362 0.00384231 0)
(1.44862 0.00382049 0)
(1.44378 0.00380076 0)
(1.43909 0.00378443 0)
(1.43452 0.0037722 0)
(1.43006 0.00376415 0)
(1.42566 0.00375966 0)
(1.42132 0.00375773 0)
(1.41702 0.00375749 0)
(1.41274 0.00375796 0)
(1.40849 0.00375837 0)
(1.40425 0.00375834 0)
(1.40005 0.00375778 0)
(1.39586 0.00375673 0)
(1.39171 0.00375522 0)
(1.3876 0.00375341 0)
(1.38352 0.0037515 0)
(1.37947 0.00374963 0)
(1.37546 0.00374785 0)
(1.37149 0.00374614 0)
(1.36755 0.00374458 0)
(1.36365 0.00374312 0)
(1.35979 0.00374169 0)
(1.35596 0.00374021 0)
(1.35217 0.0037388 0)
(1.34841 0.00373742 0)
(1.34469 0.00373596 0)
(1.34101 0.00373447 0)
(1.33736 0.00373296 0)
(1.33375 0.00373135 0)
(1.33017 0.00372964 0)
(1.32664 0.0037279 0)
(1.32314 0.00372613 0)
(1.31968 0.0037243 0)
(1.31627 0.00372242 0)
(1.31289 0.00372048 0)
(1.30955 0.00371847 0)
(1.30625 0.00371644 0)
(1.30299 0.00371436 0)
(1.29978 0.00371222 0)
(1.2966 0.00371003 0)
(1.29347 0.00370777 0)
(1.29037 0.00370545 0)
(1.28732 0.00370313 0)
(1.28432 0.0037008 0)
(1.28135 0.00369837 0)
(1.27843 0.00369585 0)
(1.27555 0.00369332 0)
(1.27271 0.00369076 0)
(1.26992 0.00368818 0)
(1.26717 0.00368558 0)
(1.26446 0.00368291 0)
(1.2618 0.00368013 0)
(1.25918 0.00367732 0)
(1.25661 0.00367454 0)
(1.25408 0.00367169 0)
(1.25159 0.00366877 0)
(1.24915 0.00366586 0)
(1.24675 0.00366293 0)
(1.2444 0.00365992 0)
(1.24209 0.00365684 0)
(1.23982 0.00365372 0)
(1.2376 0.00365059 0)
(1.23542 0.00364742 0)
(1.23329 0.00364421 0)
(1.2312 0.00364097 0)
(1.22916 0.00363772 0)
(1.22716 0.00363443 0)
(1.22521 0.00363108 0)
(1.22329 0.00362768 0)
(1.22143 0.00362426 0)
(1.2196 0.00362082 0)
(1.21782 0.0036173 0)
(1.21609 0.00361372 0)
(1.21439 0.00361014 0)
(1.21275 0.0036066 0)
(1.21114 0.00360299 0)
(1.20958 0.0035993 0)
(1.20806 0.00359557 0)
(1.20658 0.00359183 0)
(1.20514 0.00358806 0)
(1.20375 0.00358426 0)
(1.2024 0.00358042 0)
(1.20109 0.00357653 0)
(1.19983 0.00357262 0)
(1.1986 0.00356865 0)
(1.19742 0.00356464 0)
(1.19628 0.00356063 0)
(1.19518 0.00355661 0)
(1.19412 0.00355254 0)
(1.1931 0.00354839 0)
(1.19212 0.0035442 0)
(1.19118 0.00353998 0)
(1.19028 0.00353576 0)
(1.18942 0.00353153 0)
(1.1886 0.00352725 0)
(1.18782 0.00352292 0)
(1.18708 0.00351856 0)
(1.18637 0.00351417 0)
(1.18571 0.00350972 0)
(1.18508 0.00350527 0)
(1.18449 0.0035008 0)
(1.18394 0.00349628 0)
(1.18342 0.00349169 0)
(1.18295 0.00348704 0)
(1.1825 0.00348243 0)
(1.1821 0.00347783 0)
(1.18173 0.00347314 0)
(1.1814 0.00346843 0)
(1.1811 0.00346371 0)
(1.18083 0.00345891 0)
(1.18061 0.00345408 0)
(1.18041 0.00344922 0)
(1.18025 0.00344433 0)
(1.18013 0.00343941 0)
(1.18004 0.00343452 0)
(1.17998 0.00342958 0)
(1.17995 0.00342455 0)
(1.17996 0.00341945 0)
(1.18 0.00341436 0)
(1.18007 0.0034093 0)
(1.18018 0.00340422 0)
(1.18031 0.00339907 0)
(1.18048 0.00339387 0)
(1.18068 0.00338866 0)
(1.18091 0.00338342 0)
(1.18117 0.00337813 0)
(1.18146 0.00337291 0)
(1.18178 0.0033676 0)
(1.18212 0.00336213 0)
(1.1825 0.00335685 0)
(1.18291 0.00335152 0)
(1.18335 0.003346 0)
(1.18381 0.00334053 0)
(1.18431 0.00333506 0)
(1.18483 0.00332963 0)
(1.18538 0.00332405 0)
(1.18596 0.00331848 0)
(1.18656 0.00331292 0)
(1.1872 0.00330735 0)
(1.18785 0.00330167 0)
(1.18854 0.00329601 0)
(1.18925 0.00329037 0)
(1.18999 0.00328468 0)
(1.19075 0.00327892 0)
(1.19154 0.00327318 0)
(1.19236 0.00326743 0)
(1.1932 0.00326163 0)
(1.19407 0.00325583 0)
(1.19496 0.00325003 0)
(1.19587 0.00324415 0)
(1.19681 0.00323823 0)
(1.19778 0.0032324 0)
(1.19877 0.00322649 0)
(1.19978 0.00322055 0)
(1.20081 0.00321455 0)
(1.20187 0.00320871 0)
(1.20296 0.00320253 0)
(1.20406 0.00319671 0)
(1.20519 0.00319057 0)
(1.20634 0.00318471 0)
(1.20752 0.00317838 0)
(1.20871 0.00317275 0)
(1.20994 0.00316615 0)
(1.21117 0.00316082 0)
(1.21245 0.00315375 0)
(1.2137 0.00314881 0)
(1.21506 0.00314116 0)
(1.21631 0.00313808 0)
(1.21777 0.00312674 0)
(1.21897 0.00312875 0)
(1.22054 0.00311559 0)
(1.22183 0.00310939 0)
(1.22314 0.00312487 0)
(1.22501 0.00306826 0)
(1.22559 0.00314843 0)
(1.22823 0.00303806 0)
(1.22783 0.00321786 0)
(1.23183 0.00285403 0)
(1.22934 0.00352863 0)
(1.23353 0.00274304 0)
(1.23469 0.00301832 0)
(4.41208 0.428041 0)
(4.2397 0.218129 0)
(3.99229 0.080671 0)
(3.70166 0.054864 0)
(3.47023 0.0384511 0)
(3.31683 0.0238114 0)
(3.22429 0.0164473 0)
(3.16125 0.0144399 0)
(3.10766 0.0137248 0)
(3.05898 0.0125436 0)
(3.01666 0.0111028 0)
(2.98109 0.00988264 0)
(2.95089 0.00898684 0)
(2.92445 0.00830762 0)
(2.9007 0.00774364 0)
(2.87911 0.00725362 0)
(2.85934 0.00682807 0)
(2.84112 0.00646892 0)
(2.82419 0.00618123 0)
(2.80825 0.00596936 0)
(2.793 0.0058342 0)
(2.77818 0.00576875 0)
(2.7636 0.00575736 0)
(2.74917 0.00577936 0)
(2.73491 0.00581751 0)
(2.72088 0.00585975 0)
(2.70719 0.00590127 0)
(2.69387 0.00594356 0)
(2.68097 0.00598761 0)
(2.66847 0.00603182 0)
(2.65637 0.00607514 0)
(2.64466 0.00611676 0)
(2.6333 0.00615522 0)
(2.6223 0.0061902 0)
(2.61162 0.00622185 0)
(2.60126 0.0062461 0)
(2.59122 0.00625991 0)
(2.5815 0.00626109 0)
(2.57214 0.00624769 0)
(2.56314 0.00622195 0)
(2.55451 0.00618865 0)
(2.54625 0.00615201 0)
(2.53831 0.00611393 0)
(2.53068 0.00607449 0)
(2.52334 0.00603211 0)
(2.51627 0.00598356 0)
(2.50948 0.00592607 0)
(2.503 0.00585879 0)
(2.49685 0.00578331 0)
(2.49105 0.00570239 0)
(2.48562 0.00562008 0)
(2.48055 0.00554076 0)
(2.47582 0.00546761 0)
(2.47139 0.00540176 0)
(2.46723 0.0053423 0)
(2.46329 0.00528723 0)
(2.45956 0.00523473 0)
(2.456 0.0051839 0)
(2.45262 0.00513437 0)
(2.4494 0.00508687 0)
(2.44633 0.00504308 0)
(2.4434 0.00500471 0)
(2.44059 0.00497277 0)
(2.43787 0.00494755 0)
(2.43523 0.00492818 0)
(2.43264 0.00491337 0)
(2.43008 0.00490188 0)
(2.42755 0.00489217 0)
(2.42504 0.00488294 0)
(2.42254 0.00487355 0)
(2.42006 0.00486373 0)
(2.4176 0.0048534 0)
(2.41515 0.00484249 0)
(2.41273 0.0048312 0)
(2.41033 0.00481981 0)
(2.40795 0.00480853 0)
(2.4056 0.0047974 0)
(2.40327 0.00478641 0)
(2.40097 0.00477573 0)
(2.39869 0.00476525 0)
(2.39644 0.00475487 0)
(2.39421 0.00474447 0)
(2.39201 0.0047343 0)
(2.38984 0.00472424 0)
(2.38769 0.00471411 0)
(2.38557 0.00470405 0)
(2.38348 0.00469401 0)
(2.38141 0.00468385 0)
(2.37938 0.00467363 0)
(2.37738 0.00466344 0)
(2.3754 0.00465328 0)
(2.37346 0.00464309 0)
(2.37155 0.0046329 0)
(2.36967 0.00462268 0)
(2.36782 0.00461242 0)
(2.36601 0.00460221 0)
(2.36422 0.00459202 0)
(2.36248 0.0045818 0)
(2.36076 0.00457156 0)
(2.35909 0.00456127 0)
(2.35744 0.00455098 0)
(2.35584 0.00454078 0)
(2.35426 0.00453063 0)
(2.35273 0.00452037 0)
(2.35123 0.00451007 0)
(2.34977 0.00449983 0)
(2.34834 0.00448964 0)
(2.34695 0.00447951 0)
(2.3456 0.00446939 0)
(2.34429 0.00445926 0)
(2.34302 0.004449 0)
(2.34178 0.0044388 0)
(2.34058 0.00442873 0)
(2.33942 0.00441861 0)
(2.3383 0.00440848 0)
(2.33722 0.00439845 0)
(2.33618 0.00438845 0)
(2.33518 0.00437839 0)
(2.33421 0.0043683 0)
(2.33329 0.00435825 0)
(2.3324 0.00434828 0)
(2.33156 0.0043383 0)
(2.33075 0.00432835 0)
(2.32999 0.00431844 0)
(2.32926 0.00430858 0)
(2.32857 0.00429874 0)
(2.32792 0.00428887 0)
(2.32731 0.00427903 0)
(2.32674 0.00426922 0)
(2.32621 0.00425945 0)
(2.32572 0.0042496 0)
(2.32527 0.00423977 0)
(2.32486 0.00423006 0)
(2.32449 0.00422045 0)
(2.32415 0.00421082 0)
(2.32386 0.00420113 0)
(2.3236 0.00419147 0)
(2.32338 0.00418186 0)
(2.32321 0.00417229 0)
(2.32306 0.00416274 0)
(2.32296 0.00415321 0)
(2.3229 0.00414368 0)
(2.32287 0.00413416 0)
(2.32288 0.00412464 0)
(2.32293 0.00411513 0)
(2.32301 0.0041057 0)
(2.32313 0.00409634 0)
(2.32329 0.00408696 0)
(2.32348 0.00407754 0)
(2.32372 0.0040681 0)
(2.32398 0.0040587 0)
(2.32429 0.00404936 0)
(2.32462 0.0040401 0)
(2.325 0.00403083 0)
(2.32541 0.00402155 0)
(2.32585 0.00401228 0)
(2.32633 0.00400301 0)
(2.32684 0.00399374 0)
(2.32738 0.00398454 0)
(2.32796 0.00397537 0)
(2.32858 0.00396614 0)
(2.32922 0.00395689 0)
(2.3299 0.00394764 0)
(2.33061 0.00393852 0)
(2.33136 0.00392946 0)
(2.33213 0.00392034 0)
(2.33294 0.00391124 0)
(2.33378 0.00390217 0)
(2.33465 0.00389306 0)
(2.33555 0.00388392 0)
(2.33648 0.00387481 0)
(2.33744 0.00386571 0)
(2.33843 0.00385664 0)
(2.33945 0.00384763 0)
(2.3405 0.00383861 0)
(2.34158 0.00382953 0)
(2.34269 0.00382042 0)
(2.34382 0.00381136 0)
(2.34499 0.00380237 0)
(2.34618 0.00379341 0)
(2.3474 0.00378441 0)
(2.34864 0.00377536 0)
(2.34991 0.00376632 0)
(2.35121 0.00375731 0)
(2.35254 0.00374829 0)
(2.35389 0.00373934 0)
(2.35526 0.00373037 0)
(2.35666 0.00372127 0)
(2.35809 0.00371235 0)
(2.35954 0.00370344 0)
(2.36102 0.00369435 0)
(2.36252 0.00368534 0)
(2.36404 0.00367638 0)
(2.36559 0.00366747 0)
(2.36716 0.00365846 0)
(2.36875 0.00364945 0)
(2.37037 0.00364048 0)
(2.37201 0.00363154 0)
(2.37367 0.00362252 0)
(2.37535 0.00361351 0)
(2.37706 0.00360457 0)
(2.37879 0.00359561 0)
(2.38054 0.00358658 0)
(2.3823 0.00357758 0)
(2.38409 0.00356865 0)
(2.3859 0.00355967 0)
(2.38774 0.00355069 0)
(2.38959 0.00354173 0)
(2.39146 0.00353274 0)
(2.39335 0.0035237 0)
(2.39526 0.00351476 0)
(2.39719 0.0035058 0)
(2.39914 0.00349682 0)
(2.4011 0.00348776 0)
(2.40309 0.00347892 0)
(2.40509 0.00346976 0)
(2.40711 0.00346099 0)
(2.40916 0.00345193 0)
(2.41121 0.00344311 0)
(2.41329 0.00343395 0)
(2.41538 0.00342534 0)
(2.4175 0.00341619 0)
(2.41961 0.00340754 0)
(2.42177 0.00339848 0)
(2.4239 0.00338943 0)
(2.42612 0.00338131 0)
(2.42824 0.00337261 0)
(2.43056 0.00336197 0)
(2.43262 0.00335876 0)
(2.43499 0.00334629 0)
(2.43726 0.00333119 0)
(2.43907 0.00336739 0)
(2.44246 0.00325439 0)
(2.44262 0.00344538 0)
(2.44789 0.00316479 0)
(2.44595 0.00356524 0)
(2.45324 0.00300391 0)
(2.4496 0.00383733 0)
(2.45457 0.00304503 0)
(2.45755 0.00318941 0)
(4.5886 0.400106 0)
(4.8168 0.243696 0)
(4.80882 0.107768 0)
(4.61875 0.0847822 0)
(4.4046 0.0648414 0)
(4.24202 0.0424193 0)
(4.13538 0.029357 0)
(4.06114 0.0246795 0)
(4.0001 0.0227604 0)
(3.94615 0.0206723 0)
(3.89949 0.0183515 0)
(3.86013 0.0163596 0)
(3.82684 0.0148579 0)
(3.79804 0.0137162 0)
(3.77255 0.0127799 0)
(3.74975 0.011967 0)
(3.72923 0.0112495 0)
(3.71069 0.0106255 0)
(3.69384 0.0101017 0)
(3.67834 0.00968518 0)
(3.66383 0.00937834 0)
(3.64996 0.00917062 0)
(3.63648 0.00903934 0)
(3.6232 0.00895456 0)
(3.61011 0.00889171 0)
(3.59723 0.0088358 0)
(3.58464 0.0087817 0)
(3.57241 0.00873316 0)
(3.56058 0.00869306 0)
(3.54916 0.00866125 0)
(3.53813 0.00863594 0)
(3.52751 0.00861575 0)
(3.51729 0.008599 0)
(3.50744 0.00858507 0)
(3.49796 0.00857301 0)
(3.48885 0.00855683 0)
(3.48012 0.00853203 0)
(3.47175 0.00849571 0)
(3.46377 0.00844639 0)
(3.45617 0.00838788 0)
(3.44894 0.0083264 0)
(3.44206 0.00826665 0)
(3.43552 0.00820989 0)
(3.42931 0.00815386 0)
(3.42342 0.00809401 0)
(3.41787 0.00802415 0)
(3.41269 0.00793855 0)
(3.40791 0.00783511 0)
(3.40356 0.00771564 0)
(3.39969 0.00758397 0)
(3.3963 0.00744657 0)
(3.3934 0.00731107 0)
(3.39095 0.00718377 0)
(3.3889 0.00706813 0)
(3.3872 0.00696463 0)
(3.3858 0.00687166 0)
(3.38462 0.00678695 0)
(3.38364 0.00670867 0)
(3.38282 0.00663536 0)
(3.38214 0.00656684 0)
(3.38159 0.00650432 0)
(3.38115 0.00644936 0)
(3.38081 0.00640293 0)
(3.38055 0.00636528 0)
(3.38035 0.00633536 0)
(3.38021 0.00631161 0)
(3.3801 0.00629256 0)
(3.38001 0.00627624 0)
(3.37994 0.00626096 0)
(3.37988 0.00624584 0)
(3.37982 0.00623048 0)
(3.37978 0.00621461 0)
(3.37974 0.00619808 0)
(3.37971 0.00618106 0)
(3.37968 0.00616389 0)
(3.37967 0.00614682 0)
(3.37967 0.00612987 0)
(3.37968 0.00611303 0)
(3.3797 0.00609652 0)
(3.37973 0.0060802 0)
(3.37977 0.00606389 0)
(3.37983 0.00604752 0)
(3.3799 0.0060314 0)
(3.37998 0.00601536 0)
(3.38008 0.00599919 0)
(3.38019 0.00598305 0)
(3.38032 0.00596684 0)
(3.38046 0.00595043 0)
(3.38062 0.00593389 0)
(3.3808 0.00591735 0)
(3.381 0.00590081 0)
(3.38121 0.00588417 0)
(3.38145 0.00586747 0)
(3.3817 0.00585069 0)
(3.38198 0.00583379 0)
(3.38228 0.00581695 0)
(3.3826 0.00580011 0)
(3.38294 0.00578318 0)
(3.3833 0.00576618 0)
(3.38369 0.00574905 0)
(3.3841 0.00573191 0)
(3.38453 0.0057149 0)
(3.38499 0.00569789 0)
(3.38547 0.00568069 0)
(3.38598 0.00566341 0)
(3.38652 0.00564623 0)
(3.38708 0.00562911 0)
(3.38767 0.00561202 0)
(3.38828 0.00559495 0)
(3.38892 0.00557781 0)
(3.38959 0.00556049 0)
(3.39028 0.00554325 0)
(3.391 0.00552617 0)
(3.39175 0.00550902 0)
(3.39253 0.00549186 0)
(3.39333 0.00547482 0)
(3.39417 0.00545779 0)
(3.39503 0.00544067 0)
(3.39592 0.00542352 0)
(3.39684 0.00540645 0)
(3.39779 0.00538947 0)
(3.39877 0.0053725 0)
(3.39978 0.00535556 0)
(3.40082 0.00533868 0)
(3.40188 0.00532188 0)
(3.40298 0.00530511 0)
(3.4041 0.0052883 0)
(3.40526 0.00527155 0)
(3.40644 0.00525485 0)
(3.40765 0.00523819 0)
(3.40889 0.00522144 0)
(3.41016 0.00520476 0)
(3.41146 0.00518829 0)
(3.41279 0.00517194 0)
(3.41415 0.00515556 0)
(3.41554 0.00513913 0)
(3.41696 0.00512274 0)
(3.4184 0.00510647 0)
(3.41988 0.00509028 0)
(3.42138 0.00507414 0)
(3.42291 0.00505804 0)
(3.42447 0.00504195 0)
(3.42606 0.0050259 0)
(3.42767 0.00500987 0)
(3.42932 0.00499389 0)
(3.43099 0.00497806 0)
(3.43269 0.00496234 0)
(3.43442 0.00494662 0)
(3.43617 0.00493087 0)
(3.43795 0.00491515 0)
(3.43976 0.00489949 0)
(3.4416 0.00488396 0)
(3.44346 0.00486857 0)
(3.44534 0.00485319 0)
(3.44726 0.00483783 0)
(3.4492 0.00482253 0)
(3.45116 0.00480722 0)
(3.45315 0.00479197 0)
(3.45517 0.00477687 0)
(3.45721 0.00476181 0)
(3.45927 0.0047467 0)
(3.46136 0.0047316 0)
(3.46348 0.00471656 0)
(3.46562 0.00470174 0)
(3.46778 0.00468703 0)
(3.46996 0.00467227 0)
(3.47217 0.00465757 0)
(3.4744 0.00464296 0)
(3.47665 0.00462832 0)
(3.47893 0.00461366 0)
(3.48123 0.00459909 0)
(3.48355 0.00458458 0)
(3.48589 0.00457015 0)
(3.48825 0.00455581 0)
(3.49063 0.0045415 0)
(3.49304 0.00452717 0)
(3.49546 0.00451285 0)
(3.49791 0.0044986 0)
(3.50037 0.0044845 0)
(3.50286 0.00447047 0)
(3.50536 0.00445644 0)
(3.50788 0.00444237 0)
(3.51042 0.00442834 0)
(3.51298 0.0044144 0)
(3.51556 0.00440048 0)
(3.51816 0.00438665 0)
(3.52077 0.00437287 0)
(3.5234 0.004359 0)
(3.52605 0.00434532 0)
(3.52872 0.00433171 0)
(3.5314 0.00431795 0)
(3.5341 0.0043043 0)
(3.53681 0.00429075 0)
(3.53954 0.00427729 0)
(3.54229 0.00426378 0)
(3.54505 0.00425028 0)
(3.54783 0.00423685 0)
(3.55062 0.00422348 0)
(3.55343 0.0042101 0)
(3.55625 0.00419675 0)
(3.55909 0.0041835 0)
(3.56194 0.00417027 0)
(3.5648 0.00415699 0)
(3.56768 0.00414379 0)
(3.57057 0.00413071 0)
(3.57347 0.00411761 0)
(3.57639 0.0041045 0)
(3.57932 0.00409148 0)
(3.58226 0.00407848 0)
(3.58521 0.00406547 0)
(3.58818 0.00405254 0)
(3.59116 0.00403967 0)
(3.59415 0.00402679 0)
(3.59715 0.00401387 0)
(3.60016 0.00400118 0)
(3.60319 0.00398831 0)
(3.60622 0.00397572 0)
(3.60927 0.00396306 0)
(3.61232 0.00395036 0)
(3.61539 0.00393789 0)
(3.61847 0.00392519 0)
(3.62156 0.00391331 0)
(3.62465 0.00389994 0)
(3.62777 0.00388922 0)
(3.63086 0.00387404 0)
(3.63402 0.00386677 0)
(3.63709 0.00384904 0)
(3.64033 0.00384224 0)
(3.64336 0.00382895 0)
(3.64656 0.00382068 0)
(3.64995 0.00379289 0)
(3.65223 0.00385105 0)
(3.65727 0.00368434 0)
(3.65721 0.00397131 0)
(3.66468 0.00356557 0)
(3.66254 0.0040783 0)
(3.6709 0.00351653 0)
(3.66919 0.00429581 0)
(3.67303 0.00359458 0)
(3.67786 0.00369221 0)
(4.58288 0.33444 0)
(5.00576 0.230714 0)
(5.21861 0.109808 0)
(5.2005 0.100318 0)
(5.08037 0.0859196 0)
(4.95944 0.0601874 0)
(4.86816 0.042696 0)
(4.79953 0.0354025 0)
(4.74156 0.0320541 0)
(4.69 0.0289209 0)
(4.64502 0.0256908 0)
(4.60668 0.0229416 0)
(4.57394 0.0208546 0)
(4.54551 0.0192688 0)
(4.52041 0.0179807 0)
(4.49807 0.0168688 0)
(4.47813 0.0158822 0)
(4.46034 0.0150113 0)
(4.44442 0.0142635 0)
(4.43008 0.0136504 0)
(4.41697 0.0131772 0)
(4.40472 0.0128314 0)
(4.39301 0.0125831 0)
(4.38162 0.0123936 0)
(4.37044 0.0122295 0)
(4.35946 0.0120712 0)
(4.34872 0.0119144 0)
(4.33828 0.011765 0)
(4.32819 0.011628 0)
(4.31847 0.0115054 0)
(4.30913 0.0113952 0)
(4.30017 0.0112957 0)
(4.29159 0.0112055 0)
(4.2834 0.0111238 0)
(4.2756 0.0110492 0)
(4.26819 0.0109755 0)
(4.26116 0.0108969 0)
(4.25452 0.0108104 0)
(4.24826 0.010715 0)
(4.24235 0.0106166 0)
(4.23677 0.0105229 0)
(4.2315 0.0104388 0)
(4.22654 0.0103651 0)
(4.22187 0.0102973 0)
(4.21751 0.0102276 0)
(4.21351 0.0101461 0)
(4.2099 0.0100437 0)
(4.20673 0.00991583 0)
(4.20408 0.00976325 0)
(4.20197 0.00959002 0)
(4.20045 0.00940433 0)
(4.19953 0.00921699 0)
(4.19918 0.00903787 0)
(4.19934 0.00887358 0)
(4.19995 0.00872709 0)
(4.20092 0.00859839 0)
(4.20217 0.00848556 0)
(4.20364 0.00838601 0)
(4.20526 0.00829701 0)
(4.20701 0.00821709 0)
(4.20886 0.00814636 0)
(4.21081 0.00808557 0)
(4.21283 0.00803519 0)
(4.21492 0.0079951 0)
(4.21708 0.00796399 0)
(4.21929 0.00794019 0)
(4.22155 0.00792205 0)
(4.22383 0.00790735 0)
(4.22614 0.0078942 0)
(4.22847 0.0078816 0)
(4.23081 0.00786902 0)
(4.23315 0.00785602 0)
(4.2355 0.00784232 0)
(4.23786 0.00782809 0)
(4.24022 0.00781363 0)
(4.24258 0.00779919 0)
(4.24495 0.00778479 0)
(4.24732 0.00777037 0)
(4.2497 0.00775621 0)
(4.25208 0.00774212 0)
(4.25447 0.0077278 0)
(4.25686 0.0077133 0)
(4.25927 0.00769896 0)
(4.26168 0.00768453 0)
(4.2641 0.00766984 0)
(4.26652 0.00765501 0)
(4.26896 0.00763989 0)
(4.27141 0.00762439 0)
(4.27386 0.00760862 0)
(4.27633 0.00759273 0)
(4.27882 0.00757667 0)
(4.28131 0.00756036 0)
(4.28382 0.00754384 0)
(4.28633 0.00752705 0)
(4.28887 0.00750998 0)
(4.29142 0.00749286 0)
(4.29398 0.00747564 0)
(4.29656 0.00745818 0)
(4.29915 0.00744047 0)
(4.30176 0.00742246 0)
(4.30438 0.00740434 0)
(4.30702 0.00738626 0)
(4.30968 0.00736804 0)
(4.31236 0.00734945 0)
(4.31505 0.00733066 0)
(4.31776 0.0073119 0)
(4.32049 0.00729311 0)
(4.32323 0.00727424 0)
(4.326 0.00725528 0)
(4.32878 0.0072361 0)
(4.33158 0.0072166 0)
(4.3344 0.0071971 0)
(4.33724 0.00717769 0)
(4.3401 0.0071581 0)
(4.34298 0.00713845 0)
(4.34588 0.00711882 0)
(4.34879 0.00709905 0)
(4.35173 0.00707908 0)
(4.35469 0.00705901 0)
(4.35766 0.00703897 0)
(4.36066 0.00701896 0)
(4.36368 0.00699889 0)
(4.36671 0.00697876 0)
(4.36977 0.0069586 0)
(4.37285 0.00693849 0)
(4.37594 0.00691832 0)
(4.37906 0.00689806 0)
(4.38219 0.00687777 0)
(4.38535 0.00685748 0)
(4.38852 0.00683714 0)
(4.39172 0.00681661 0)
(4.39493 0.00679615 0)
(4.39817 0.00677593 0)
(4.40142 0.00675576 0)
(4.40469 0.00673544 0)
(4.40799 0.00671501 0)
(4.4113 0.00669459 0)
(4.41463 0.00667426 0)
(4.41798 0.006654 0)
(4.42135 0.00663376 0)
(4.42474 0.0066135 0)
(4.42814 0.00659319 0)
(4.43157 0.0065729 0)
(4.43501 0.00655257 0)
(4.43847 0.00653227 0)
(4.44195 0.00651212 0)
(4.44544 0.00649206 0)
(4.44896 0.00647194 0)
(4.45249 0.00645177 0)
(4.45604 0.00643159 0)
(4.4596 0.00641148 0)
(4.46318 0.00639148 0)
(4.46678 0.00637161 0)
(4.47039 0.00635175 0)
(4.47402 0.00633186 0)
(4.47767 0.00631202 0)
(4.48133 0.00629215 0)
(4.48501 0.0062723 0)
(4.4887 0.00625264 0)
(4.49241 0.00623298 0)
(4.49613 0.00621323 0)
(4.49987 0.00619349 0)
(4.50362 0.00617385 0)
(4.50738 0.00615444 0)
(4.51116 0.00613513 0)
(4.51495 0.00611574 0)
(4.51875 0.00609641 0)
(4.52257 0.00607719 0)
(4.5264 0.00605791 0)
(4.53024 0.00603859 0)
(4.5341 0.00601938 0)
(4.53797 0.00600025 0)
(4.54185 0.00598119 0)
(4.54574 0.00596222 0)
(4.54964 0.00594328 0)
(4.55355 0.00592434 0)
(4.55747 0.0059054 0)
(4.5614 0.00588654 0)
(4.56535 0.00586785 0)
(4.5693 0.00584927 0)
(4.57327 0.00583068 0)
(4.57724 0.00581203 0)
(4.58122 0.00579343 0)
(4.58521 0.00577494 0)
(4.58921 0.00575649 0)
(4.59322 0.00573812 0)
(4.59723 0.00571981 0)
(4.60126 0.00570145 0)
(4.60529 0.00568329 0)
(4.60933 0.00566521 0)
(4.61337 0.00564699 0)
(4.61743 0.00562889 0)
(4.62149 0.00561093 0)
(4.62555 0.00559308 0)
(4.62963 0.00557519 0)
(4.63371 0.00555732 0)
(4.63779 0.00553952 0)
(4.64188 0.0055218 0)
(4.64598 0.00550411 0)
(4.65008 0.00548646 0)
(4.65418 0.00546892 0)
(4.6583 0.00545143 0)
(4.66241 0.00543391 0)
(4.66653 0.00541647 0)
(4.67066 0.00539921 0)
(4.67479 0.00538194 0)
(4.67892 0.00536466 0)
(4.68305 0.00534749 0)
(4.68719 0.0053304 0)
(4.69134 0.00531331 0)
(4.69548 0.00529628 0)
(4.69963 0.00527939 0)
(4.70378 0.00526245 0)
(4.70794 0.00524558 0)
(4.7121 0.00522885 0)
(4.71626 0.00521216 0)
(4.72042 0.00519552 0)
(4.72458 0.00517918 0)
(4.72875 0.00516229 0)
(4.73292 0.00514651 0)
(4.73708 0.00512928 0)
(4.74126 0.00511476 0)
(4.74542 0.00509613 0)
(4.74961 0.00508388 0)
(4.75376 0.00506192 0)
(4.75796 0.0050558 0)
(4.76209 0.00502808 0)
(4.76633 0.0050256 0)
(4.77044 0.005002 0)
(4.77453 0.00499504 0)
(4.77917 0.00496326 0)
(4.78208 0.00502157 0)
(4.78859 0.00484408 0)
(4.7891 0.00515342 0)
(4.79758 0.00473063 0)
(4.79724 0.00522395 0)
(4.80462 0.00477536 0)
(4.80633 0.00546745 0)
(4.80939 0.00479496 0)
(4.81541 0.00494434 0)
(4.55036 0.275193 0)
(4.99888 0.204141 0)
(5.31153 0.0928937 0)
(5.43491 0.0950962 0)
(5.44326 0.0921941 0)
(5.41241 0.0699624 0)
(5.37753 0.0521221 0)
(5.34351 0.044038 0)
(5.30813 0.0399976 0)
(5.27243 0.0361389 0)
(5.23904 0.0321709 0)
(5.20933 0.0287727 0)
(5.18312 0.0261768 0)
(5.15976 0.0242101 0)
(5.13875 0.0226289 0)
(5.11982 0.0212751 0)
(5.10281 0.020074 0)
(5.08759 0.0190053 0)
(5.07406 0.018075 0)
(5.06203 0.0172989 0)
(5.05123 0.016687 0)
(5.04135 0.0162271 0)
(5.03209 0.0158841 0)
(5.02321 0.0156111 0)
(5.01455 0.0153656 0)
(5.00606 0.0151228 0)
(4.99775 0.0148769 0)
(4.98966 0.0146358 0)
(4.98183 0.0144071 0)
(4.97429 0.0141948 0)
(4.96706 0.0139976 0)
(4.96017 0.013813 0)
(4.95363 0.0136395 0)
(4.94746 0.0134771 0)
(4.94166 0.0133252 0)
(4.93624 0.0131778 0)
(4.9312 0.0130294 0)
(4.92653 0.0128769 0)
(4.9222 0.0127212 0)
(4.91819 0.012569 0)
(4.91443 0.0124292 0)
(4.91092 0.0123072 0)
(4.90764 0.0122038 0)
(4.90459 0.0121138 0)
(4.90178 0.0120266 0)
(4.89927 0.0119298 0)
(4.89711 0.0118112 0)
(4.89536 0.0116634 0)
(4.89408 0.0114846 0)
(4.89335 0.0112775 0)
(4.89322 0.0110505 0)
(4.89375 0.0108164 0)
(4.89491 0.010588 0)
(4.89668 0.0103753 0)
(4.89898 0.0101846 0)
(4.90172 0.0100183 0)
(4.9048 0.00987597 0)
(4.90813 0.00975496 0)
(4.91162 0.00965156 0)
(4.91523 0.00956293 0)
(4.91893 0.00948777 0)
(4.92269 0.00942552 0)
(4.92651 0.00937572 0)
(4.93039 0.00933754 0)
(4.93434 0.0093093 0)
(4.93835 0.00928923 0)
(4.94241 0.00927555 0)
(4.94653 0.00926589 0)
(4.95068 0.00925835 0)
(4.95487 0.00925189 0)
(4.95908 0.00924586 0)
(4.96331 0.00923969 0)
(4.96756 0.00923298 0)
(4.97181 0.00922584 0)
(4.97608 0.00921851 0)
(4.98035 0.00921124 0)
(4.98463 0.00920398 0)
(4.98892 0.00919667 0)
(4.99321 0.00918959 0)