/*--------------------------------*- C++ -*----------------------------------*\
  =========                 |
  \\      /  F ield         | OpenFOAM: The Open Source CFD Toolbox
   \\    /   O peration     | Website:  https://openfoam.org
    \\  /    A nd           | Version:  7
     \\/     M anipulation  |
\*---------------------------------------------------------------------------*/
FoamFile
{
    version     2.0;
    format      ascii;
    class       volScalarField;
    location    "0.1475";
    object      nut;
}
// * * * * * * * * * * * * * * * * * * * * * * * * * * * * * * * * * * * * * //

dimensions      [0 2 -1 0 0 0 0];

internalField   nonuniform List<scalar> 
7920
(
0.00875296
0.00911848
0.00912136
0.00913405
0.00913706
0.00914712
0.00914749
0.00915367
0.00915211
0.00915542
0.00915343
0.00915574
0.00915409
0.00915595
0.00915467
0.00915616
0.00915573
0.00915514
0.00916228
0.00917055
0.0045151
0.00454145
0.004442
0.00434176
0.00429517
0.00428881
0.00428744
0.00429088
0.0042899
0.00429176
0.00429031
0.00429156
0.00429024
0.00429127
0.00429012
0.00429115
0.00428993
0.00429111
0.00431228
0.0043301
0.00345177
0.00368625
0.00370509
0.00369887
0.00368864
0.00368967
0.00368993
0.00369346
0.00369342
0.00369519
0.00369409
0.00369498
0.00369372
0.00369439
0.00369324
0.00369383
0.0036927
0.00369361
0.00369385
0.00370138
0.00332056
0.00359123
0.00364078
0.00365638
0.00365798
0.0036627
0.00366395
0.0036685
0.00366885
0.00367092
0.00366998
0.0036709
0.00366965
0.00367026
0.00366913
0.00366955
0.00366875
0.00366877
0.00366929
0.00367279
0.0033062
0.00358006
0.00363336
0.00365246
0.00365561
0.00366182
0.00366324
0.00366796
0.00366842
0.00367063
0.0036697
0.00367065
0.00366937
0.00367001
0.0036688
0.00366927
0.00366848
0.00366795
0.00366902
0.00367211
0.00330781
0.0035793
0.00363242
0.00365199
0.0036558
0.00366264
0.00366431
0.00366934
0.00366989
0.00367217
0.00367126
0.00367222
0.00367094
0.00367157
0.00367039
0.0036708
0.0036702
0.00366945
0.00367103
0.00367337
0.00330781
0.0035793
0.00363242
0.00365199
0.0036558
0.00366264
0.00366431
0.00366934
0.00366989
0.00367217
0.00367126
0.00367222
0.00367094
0.00367157
0.00367039
0.0036708
0.00367019
0.00366947
0.00367102
0.00367339
0.0033062
0.00358006
0.00363336
0.00365246
0.00365561
0.00366182
0.00366324
0.00366796
0.00366842
0.00367063
0.0036697
0.00367065
0.00366937
0.00367001
0.0036688
0.00366929
0.00366845
0.00366801
0.00366899
0.00367217
0.00332056
0.00359123
0.00364078
0.00365638
0.00365798
0.0036627
0.00366395
0.0036685
0.00366885
0.00367092
0.00366998
0.0036709
0.00366965
0.00367026
0.00366911
0.00366959
0.00366867
0.00366889
0.00366918
0.00367296
0.00345177
0.00368625
0.00370509
0.00369887
0.00368864
0.00368967
0.00368993
0.00369346
0.00369342
0.00369519
0.00369409
0.00369498
0.00369372
0.0036944
0.00369321
0.00369391
0.00369254
0.00369393
0.00369334
0.00370189
0.0045151
0.00454145
0.004442
0.00434176
0.00429517
0.00428881
0.00428744
0.00429088
0.0042899
0.00429176
0.00429031
0.00429156
0.00429024
0.00429128
0.00429009
0.00429124
0.00428969
0.00429156
0.00431087
0.00433161
0.00875296
0.00911848
0.00912136
0.00913405
0.00913706
0.00914712
0.00914749
0.00915367
0.00915211
0.00915543
0.00915343
0.00915575
0.00915408
0.00915597
0.00915461
0.00915636
0.0091552
0.00915637
0.00915949
0.00917603
0.00336214
0.0037728
0.00379157
0.00377455
0.00377689
0.00377231
0.00377731
0.00377409
0.00377736
0.0037745
0.00377675
0.00377448
0.00377612
0.00377432
0.00377557
0.00377396
0.00377515
0.00377336
0.00377174
0.00378549
0.00297761
0.00348471
0.003554
0.00356248
0.00356392
0.00356629
0.00356789
0.00356944
0.00356996
0.00357032
0.00357038
0.00357042
0.00357045
0.00357043
0.00357047
0.00357044
0.00357039
0.00357054
0.00357162
0.00357386
0.00289771
0.00341144
0.00348543
0.00349967
0.003502
0.00350696
0.00350959
0.00351336
0.00351425
0.00351563
0.00351552
0.00351601
0.00351583
0.00351615
0.00351606
0.00351622
0.00351636
0.00351592
0.00351656
0.00352106
0.00289537
0.00340967
0.00348336
0.00349711
0.00349853
0.00350276
0.00350528
0.00350949
0.00351079
0.00351256
0.00351254
0.0035131
0.00351292
0.00351325
0.00351316
0.00351334
0.00351356
0.00351355
0.00351407
0.00351852
0.0028924
0.00340631
0.00348019
0.0034942
0.00349544
0.00349959
0.00350222
0.00350672
0.00350809
0.00350999
0.00350997
0.00351059
0.00351037
0.00351075
0.00351061
0.00351087
0.0035108
0.00351087
0.00351099
0.00351556
0.00289407
0.00340809
0.00348174
0.00349558
0.00349675
0.00350082
0.00350336
0.00350778
0.00350915
0.00351106
0.00351105
0.00351167
0.00351146
0.00351184
0.00351168
0.00351198
0.00351195
0.00351215
0.00351228
0.00351696
0.00289407
0.00340809
0.00348174
0.00349558
0.00349675
0.00350082
0.00350336
0.00350778
0.00350915
0.00351106
0.00351105
0.00351167
0.00351146
0.00351184
0.00351168
0.00351199
0.00351194
0.00351216
0.00351227
0.00351697
0.0028924
0.00340631
0.00348019
0.0034942
0.00349544
0.00349959
0.00350222
0.00350672
0.00350809
0.00350999
0.00350997
0.00351059
0.00351037
0.00351075
0.0035106
0.00351089
0.00351077
0.00351092
0.00351094
0.0035156
0.00289537
0.00340967
0.00348336
0.00349711
0.00349853
0.00350276
0.00350527
0.00350949
0.00351079
0.00351256
0.00351254
0.0035131
0.00351292
0.00351326
0.00351314
0.00351339
0.00351346
0.00351366
0.00351395
0.00351867
0.00289771
0.00341144
0.00348543
0.00349967
0.003502
0.00350696
0.00350959
0.00351336
0.00351425
0.00351563
0.00351552
0.00351601
0.00351583
0.00351616
0.00351603
0.0035163
0.00351619
0.00351621
0.00351619
0.00352148
0.00297761
0.00348471
0.003554
0.00356248
0.00356392
0.00356628
0.00356789
0.00356944
0.00356996
0.00357032
0.00357038
0.00357042
0.00357045
0.00357044
0.00357044
0.0035705
0.0035702
0.003571
0.00357085
0.00357493
0.00336214
0.0037728
0.00379157
0.00377455
0.00377689
0.00377231
0.00377731
0.00377409
0.00377736
0.0037745
0.00377675
0.00377449
0.00377612
0.00377433
0.00377556
0.00377402
0.00377499
0.00377383
0.00377073
0.00378742
0.000844136
0.00120534
0.00125427
0.0012511
0.00124221
0.00124118
0.00124064
0.0012428
0.00124399
0.00124657
0.00124781
0.00125017
0.00125149
0.00125377
0.00125495
0.00125775
0.00125704
0.00126339
0.00125128
0.00127186
0.000401813
0.000728704
0.000810703
0.000824947
0.000821904
0.000819465
0.000816809
0.000817208
0.000816877
0.000817265
0.000817084
0.000817331
0.000817276
0.000817482
0.000817524
0.000817861
0.00081779
0.00082016
0.000819659
0.000825893
0.000351355
0.000655729
0.00073502
0.000761987
0.000764416
0.000767709
0.000766891
0.000767896
0.000767181
0.000767587
0.00076699
0.000767124
0.000766753
0.000766779
0.000766643
0.000766643
0.000766644
0.000766579
0.000766527
0.000768593
0.000356817
0.000660256
0.000740065
0.00076761
0.000771179
0.000774622
0.000774103
0.000774944
0.000774376
0.000774632
0.000774143
0.000774169
0.000773889
0.000773854
0.000773721
0.000773526
0.000773484
0.000773119
0.000773245
0.000775186
0.000353557
0.000655935
0.000734975
0.000762491
0.000765585
0.000768972
0.000768338
0.000769264
0.000768641
0.000768959
0.000768399
0.000768444
0.000768132
0.000768117
0.000767946
0.000767873
0.000767817
0.000767635
0.000767461
0.000769357
0.000355453
0.000658255
0.000737617
0.000765086
0.000768406
0.000771796
0.000771235
0.00077211
0.000771526
0.000771806
0.00077129
0.000771319
0.000771023
0.000770993
0.000770837
0.000770694
0.000770637
0.000770315
0.000770347
0.000772236
0.000355453
0.000658255
0.000737617
0.000765086
0.000768406
0.000771796
0.000771235
0.00077211
0.000771526
0.000771806
0.00077129
0.000771319
0.000771023
0.000770993
0.000770836
0.000770695
0.000770637
0.000770317
0.000770343
0.000772233
0.000353557
0.000655935
0.000734975
0.000762491
0.000765585
0.000768972
0.000768338
0.000769264
0.000768641
0.000768959
0.000768399
0.000768444
0.000768132
0.000768117
0.000767947
0.000767871
0.000767814
0.000767634
0.00076746
0.000769356
0.000356817
0.000660256
0.000740065
0.00076761
0.000771179
0.000774622
0.000774103
0.000774944
0.000774376
0.000774632
0.000774143
0.000774169
0.000773889
0.000773854
0.000773719
0.000773529
0.00077348
0.000773127
0.000773238
0.000775185
0.000351355
0.000655729
0.00073502
0.000761987
0.000764416
0.000767709
0.000766891
0.000767896
0.000767181
0.000767587
0.00076699
0.000767124
0.000766753
0.00076678
0.00076664
0.00076664
0.000766637
0.00076659
0.000766488
0.000768586
0.000401813
0.000728704
0.000810703
0.000824947
0.000821904
0.000819465
0.000816809
0.000817208
0.000816877
0.000817265
0.000817084
0.000817331
0.000817276
0.000817481
0.000817517
0.000817854
0.000817767
0.000820161
0.000819569
0.000825806
0.000844136
0.00120534
0.00125427
0.0012511
0.00124221
0.00124118
0.00124064
0.0012428
0.00124399
0.00124657
0.00124781
0.00125017
0.00125149
0.00125377
0.00125495
0.00125779
0.00125699
0.00126357
0.0012511
0.00127226
0.000844136
0.00120534
0.00125427
0.0012511
0.00124221
0.00124118
0.00124064
0.0012428
0.00124399
0.00124657
0.00124781
0.00125017
0.00125149
0.00125377
0.00125495
0.00125775
0.00125704
0.00126339
0.00125128
0.00127186
0.000401813
0.000728704
0.000810703
0.000824948
0.000821904
0.000819465
0.00081681
0.000817208
0.000816877
0.000817265
0.000817084
0.000817332
0.000817276
0.000817482
0.000817524
0.000817861
0.00081779
0.00082016
0.00081966
0.000825893
0.000351355
0.00065573
0.00073502
0.000761987
0.000764417
0.00076771
0.000766891
0.000767897
0.000767181
0.000767588
0.000766991
0.000767125
0.000766754
0.000766779
0.000766643
0.000766643
0.000766645
0.000766579
0.000766527
0.000768593
0.000356817
0.000660256
0.000740065
0.00076761
0.000771179
0.000774623
0.000774104
0.000774945
0.000774377
0.000774632
0.000774143
0.000774169
0.00077389
0.000773854
0.000773721
0.000773526
0.000773484
0.000773118
0.000773244
0.000775185
0.000353557
0.000655936
0.000734975
0.000762491
0.000765586
0.000768972
0.000768339
0.000769264
0.000768642
0.000768959
0.0007684
0.000768444
0.000768133
0.000768118
0.000767947
0.000767874
0.000767817
0.000767635
0.000767461
0.000769358
0.000355454
0.000658255
0.000737618
0.000765086
0.000768407
0.000771797
0.000771236
0.000772111
0.000771527
0.000771806
0.00077129
0.00077132
0.000771023
0.000770993
0.000770837
0.000770695
0.000770637
0.000770314
0.000770346
0.000772236
0.000355454
0.000658255
0.000737618
0.000765086
0.000768407
0.000771797
0.000771236
0.000772111
0.000771527
0.000771806
0.00077129
0.00077132
0.000771023
0.000770993
0.000770837
0.000770696
0.000770637
0.000770317
0.000770343
0.000772234
0.000353557
0.000655936
0.000734975
0.000762491
0.000765586
0.000768972
0.000768339
0.000769264
0.000768642
0.000768959
0.0007684
0.000768444
0.000768132
0.000768117
0.000767948
0.000767872
0.000767815
0.000767634
0.000767461
0.000769357
0.000356817
0.000660256
0.000740065
0.00076761
0.000771179
0.000774623
0.000774104
0.000774945
0.000774377
0.000774632
0.000774143
0.000774169
0.00077389
0.000773854
0.00077372
0.000773529
0.00077348
0.000773128
0.000773239
0.000775185
0.000351355
0.00065573
0.00073502
0.000761987
0.000764417
0.00076771
0.000766891
0.000767897
0.000767181
0.000767588
0.000766991
0.000767125
0.000766754
0.00076678
0.00076664
0.00076664
0.000766638
0.00076659
0.000766489
0.000768586
0.000401813
0.000728704
0.000810703
0.000824948
0.000821904
0.000819465
0.00081681
0.000817208
0.000816877
0.000817265
0.000817084
0.000817331
0.000817276
0.000817481
0.000817517
0.000817854
0.000817767
0.000820161
0.000819569
0.000825806
0.000844136
0.00120534
0.00125427
0.0012511
0.00124221
0.00124118
0.00124064
0.0012428
0.00124399
0.00124657
0.00124781
0.00125017
0.00125149
0.00125377
0.00125495
0.00125779
0.00125699
0.00126357
0.0012511
0.00127226
0.00336214
0.0037728
0.00379157
0.00377455
0.00377689
0.00377231
0.00377731
0.00377409
0.00377736
0.0037745
0.00377675
0.00377449
0.00377612
0.00377432
0.00377557
0.00377396
0.00377515
0.00377336
0.00377174
0.00378549
0.00297761
0.00348471
0.003554
0.00356248
0.00356392
0.00356628
0.00356789
0.00356944
0.00356996
0.00357032
0.00357038
0.00357042
0.00357046
0.00357043
0.00357047
0.00357044
0.00357039
0.00357054
0.00357162
0.00357386
0.00289771
0.00341144
0.00348543
0.00349967
0.003502
0.00350696
0.00350959
0.00351336
0.00351425
0.00351563
0.00351552
0.00351601
0.00351583
0.00351615
0.00351606
0.00351622
0.00351636
0.00351592
0.00351656
0.00352106
0.00289537
0.00340967
0.00348336
0.00349711
0.00349853
0.00350276
0.00350528
0.00350949
0.00351079
0.00351256
0.00351254
0.0035131
0.00351292
0.00351325
0.00351316
0.00351334
0.00351356
0.00351355
0.00351407
0.00351851
0.00289241
0.00340631
0.00348019
0.0034942
0.00349544
0.00349959
0.00350222
0.00350672
0.00350809
0.00350999
0.00350997
0.00351059
0.00351037
0.00351075
0.00351061
0.00351087
0.0035108
0.00351087
0.00351099
0.00351556
0.00289407
0.00340809
0.00348174
0.00349558
0.00349675
0.00350082
0.00350336
0.00350778
0.00350915
0.00351106
0.00351105
0.00351167
0.00351146
0.00351184
0.00351168
0.00351198
0.00351195
0.00351215
0.00351228
0.00351696
0.00289407
0.00340809
0.00348174
0.00349558
0.00349675
0.00350082
0.00350336
0.00350778
0.00350915
0.00351106
0.00351105
0.00351167
0.00351146
0.00351184
0.00351168
0.00351199
0.00351194
0.00351216
0.00351227
0.00351697
0.0028924
0.00340631
0.00348019
0.0034942
0.00349544
0.00349959
0.00350222
0.00350672
0.00350809
0.00350999
0.00350997
0.00351059
0.00351037
0.00351075
0.0035106
0.00351089
0.00351077
0.00351092
0.00351094
0.0035156
0.00289537
0.00340967
0.00348336
0.00349711
0.00349853
0.00350276
0.00350528
0.00350949
0.00351079
0.00351256
0.00351254
0.0035131
0.00351292
0.00351326
0.00351314
0.00351339
0.00351346
0.00351366
0.00351395
0.00351867
0.00289771
0.00341144
0.00348543
0.00349967
0.003502
0.00350696
0.00350959
0.00351336
0.00351425
0.00351563
0.00351552
0.00351601
0.00351583
0.00351616
0.00351603
0.0035163
0.00351619
0.00351621
0.00351619
0.00352148
0.00297761
0.00348471
0.003554
0.00356248
0.00356392
0.00356629
0.00356789
0.00356944
0.00356996
0.00357032
0.00357038
0.00357042
0.00357045
0.00357044
0.00357044
0.0035705
0.0035702
0.003571
0.00357085
0.00357493
0.00336214
0.0037728
0.00379157
0.00377455
0.00377689
0.00377231
0.00377731
0.00377409
0.00377736
0.0037745
0.00377675
0.00377449
0.00377612
0.00377433
0.00377556
0.00377402
0.00377499
0.00377383
0.00377073
0.00378742
0.00875296
0.00911848
0.00912136
0.00913405
0.00913706
0.00914711
0.00914749
0.00915367
0.00915211
0.00915543
0.00915343
0.00915574
0.00915409
0.00915595
0.00915467
0.00915617
0.00915573
0.00915514
0.00916228
0.00917055
0.0045151
0.00454145
0.004442
0.00434176
0.00429517
0.00428881
0.00428744
0.00429088
0.0042899
0.00429176
0.00429031
0.00429156
0.00429024
0.00429127
0.00429012
0.00429115
0.00428993
0.00429111
0.00431228
0.0043301
0.00345177
0.00368625
0.00370509
0.00369887
0.00368864
0.00368967
0.00368993
0.00369346
0.00369342
0.00369519
0.00369409
0.00369498
0.00369372
0.00369439
0.00369324
0.00369383
0.0036927
0.00369361
0.00369385
0.00370138
0.00332056
0.00359123
0.00364078
0.00365638
0.00365798
0.0036627
0.00366395
0.0036685
0.00366885
0.00367092
0.00366998
0.0036709
0.00366965
0.00367026
0.00366913
0.00366955
0.00366875
0.00366877
0.00366929
0.00367279
0.0033062
0.00358006
0.00363336
0.00365246
0.00365561
0.00366182
0.00366324
0.00366796
0.00366842
0.00367063
0.0036697
0.00367065
0.00366937
0.00367001
0.0036688
0.00366927
0.00366848
0.00366795
0.00366902
0.00367211
0.00330781
0.0035793
0.00363242
0.00365199
0.0036558
0.00366264
0.00366431
0.00366934
0.00366989
0.00367217
0.00367126
0.00367222
0.00367094
0.00367157
0.00367039
0.0036708
0.0036702
0.00366945
0.00367103
0.00367337
0.00330781
0.0035793
0.00363242
0.00365199
0.0036558
0.00366264
0.00366431
0.00366934
0.00366989
0.00367217
0.00367126
0.00367222
0.00367094
0.00367157
0.00367039
0.0036708
0.00367019
0.00366947
0.00367102
0.00367339
0.0033062
0.00358006
0.00363336
0.00365246
0.00365561
0.00366182
0.00366324
0.00366796
0.00366842
0.00367063
0.0036697
0.00367065
0.00366937
0.00367001
0.0036688
0.00366929
0.00366845
0.00366801
0.00366899
0.00367217
0.00332056
0.00359123
0.00364078
0.00365638
0.00365798
0.0036627
0.00366395
0.0036685
0.00366885
0.00367092
0.00366998
0.0036709
0.00366965
0.00367026
0.00366911
0.00366959
0.00366867
0.00366889
0.00366918
0.00367296
0.00345177
0.00368625
0.00370509
0.00369887
0.00368864
0.00368967
0.00368993
0.00369346
0.00369342
0.00369519
0.00369409
0.00369498
0.00369372
0.0036944
0.00369321
0.0036939
0.00369254
0.00369393
0.00369334
0.00370189
0.0045151
0.00454145
0.004442
0.00434176
0.00429517
0.00428881
0.00428744
0.00429088
0.0042899
0.00429176
0.00429031
0.00429156
0.00429024
0.00429128
0.00429009
0.00429124
0.00428969
0.00429156
0.00431087
0.00433161
0.00875296
0.00911848
0.00912136
0.00913405
0.00913706
0.00914712
0.00914749
0.00915367
0.00915211
0.00915543
0.00915343
0.00915574
0.00915408
0.00915597
0.0091546
0.00915635
0.0091552
0.00915637
0.00915949
0.00917603
0.0266795
0.0268083
0.0268167
0.0268208
0.0268187
0.0268214
0.0268198
0.0268218
0.0268206
0.0268222
0.0268212
0.0268226
0.0268218
0.0268231
0.0268227
0.0268242
0.0268243
0.0268263
0.0268274
0.0268306
0.0268334
0.0268385
0.0268436
0.0268515
0.0268594
0.0268701
0.0268798
0.026892
0.0269021
0.0269133
0.0269208
0.0269283
0.0269318
0.026935
0.0269347
0.0269346
0.0269328
0.0269326
0.0269316
0.0269328
0.026933
0.0269355
0.0269361
0.0269375
0.026936
0.0269349
0.0269323
0.0269307
0.0269285
0.0269279
0.0269264
0.0269271
0.0269263
0.0269261
0.026924
0.026922
0.0269195
0.0269183
0.0269166
0.0269161
0.0269141
0.0269136
0.026912
0.0269107
0.0269087
0.026907
0.0269053
0.0269055
0.0269045
0.0269043
0.0269025
0.0269007
0.0268996
0.0268995
0.0268989
0.0268991
0.0268972
0.026896
0.0268954
0.026895
0.0268948
0.0268948
0.0268928
0.026892
0.0268915
0.0268911
0.0268913
0.0268911
0.0268866
0.0268807
0.0152813
0.0155496
0.0155487
0.0155536
0.0155487
0.015553
0.015549
0.0155526
0.0155492
0.0155524
0.0155496
0.0155527
0.0155505
0.0155536
0.0155521
0.0155556
0.0155551
0.0155594
0.0155604
0.0155662
0.0155693
0.0155775
0.0155834
0.0155948
0.0156043
0.0156192
0.0156322
0.0156505
0.0156658
0.0156856
0.0157011
0.01572
0.0157338
0.0157504
0.0157615
0.0157753
0.0157845
0.0157971
0.0158058
0.0158185
0.0158275
0.0158405
0.0158493
0.0158611
0.0158681
0.0158776
0.0158827
0.0158907
0.0158951
0.0159027
0.015907
0.0159149
0.015919
0.0159259
0.0159286
0.0159336
0.0159355
0.0159402
0.0159421
0.0159468
0.0159484
0.015953
0.0159544
0.0159579
0.0159586
0.0159615
0.0159623
0.015966
0.0159671
0.0159702
0.0159705
0.0159726
0.0159731
0.0159757
0.0159763
0.0159789
0.0159787
0.0159804
0.0159807
0.0159825
0.0159829
0.0159846
0.015984
0.0159854
0.0159854
0.0159866
0.0159868
0.0159879
0.0159846
0.015982
0.0122713
0.0126717
0.0126738
0.0126819
0.0126732
0.0126794
0.012672
0.0126775
0.0126711
0.0126761
0.0126707
0.0126755
0.0126711
0.012676
0.0126727
0.0126783
0.0126764
0.0126831
0.0126834
0.0126921
0.0126953
0.0127069
0.0127138
0.0127293
0.0127404
0.01276
0.012775
0.0127983
0.012816
0.0128411
0.0128591
0.0128834
0.0128999
0.0129218
0.0129359
0.0129554
0.0129682
0.0129872
0.0130003
0.0130201
0.0130341
0.0130547
0.0130687
0.013088
0.0131001
0.0131168
0.0131271
0.0131425
0.0131523
0.0131675
0.0131775
0.0131931
0.0132029
0.013217
0.0132249
0.0132368
0.0132439
0.0132555
0.0132625
0.013274
0.0132804
0.0132914
0.0132974
0.0133069
0.0133119
0.0133205
0.0133254
0.0133349
0.0133398
0.0133483
0.0133518
0.0133587
0.0133625
0.0133699
0.0133735
0.0133805
0.0133826
0.0133883
0.013391
0.0133965
0.013399
0.0134041
0.013405
0.0134094
0.0134109
0.0134149
0.0134165
0.0134197
0.0134192
0.0134158
0.011798
0.0122814
0.0122941
0.0123047
0.0122936
0.0123002
0.0122907
0.0122967
0.0122884
0.0122939
0.0122869
0.0122923
0.0122863
0.012292
0.0122874
0.0122938
0.012291
0.0122988
0.0122985
0.0123087
0.0123118
0.0123253
0.0123327
0.0123505
0.0123626
0.012385
0.0124014
0.0124277
0.012447
0.012475
0.0124944
0.0125213
0.0125389
0.012563
0.0125778
0.0125991
0.0126124
0.0126331
0.0126469
0.0126684
0.0126832
0.0127056
0.0127204
0.0127415
0.0127541
0.0127723
0.0127831
0.0127999
0.0128103
0.012827
0.0128376
0.0128549
0.0128653
0.012881
0.0128894
0.0129027
0.0129104
0.0129234
0.0129311
0.0129441
0.0129512
0.0129637
0.0129704
0.0129813
0.012987
0.0129969
0.0130026
0.0130136
0.0130193
0.0130291
0.0130333
0.0130414
0.013046
0.0130548
0.0130591
0.0130674
0.0130701
0.0130769
0.0130803
0.013087
0.0130902
0.0130964
0.0130977
0.0131032
0.0131052
0.0131102
0.0131124
0.0131163
0.0131169
0.0131138
0.0117443
0.0122563
0.0122767
0.0122888
0.0122762
0.0122831
0.0122724
0.0122785
0.0122691
0.0122748
0.0122667
0.0122722
0.0122654
0.0122712
0.0122658
0.0122724
0.0122691
0.0122771
0.0122765
0.0122871
0.0122901
0.0123043
0.0123118
0.0123306
0.0123432
0.0123667
0.0123837
0.0124113
0.0124312
0.0124605
0.0124805
0.0125085
0.0125264
0.0125514
0.0125663
0.0125882
0.0126015
0.0126228
0.0126365
0.0126586
0.0126733
0.0126962
0.0127109
0.0127323
0.0127447
0.0127631
0.0127736
0.0127905
0.0128005
0.0128173
0.0128276
0.0128449
0.012855
0.0128707
0.0128787
0.0128919
0.0128992
0.0129121
0.0129194
0.0129323
0.012939
0.0129514
0.0129578
0.0129685
0.0129739
0.0129836
0.0129891
0.013
0.0130054
0.0130151
0.0130191
0.0130271
0.0130315
0.0130402
0.0130444
0.0130527
0.0130553
0.0130621
0.0130654
0.0130721
0.0130753
0.0130815
0.0130828
0.0130883
0.0130904
0.0130954
0.0130977
0.0131016
0.0131029
0.0130985
0.0117475
0.0122767
0.0122996
0.0123123
0.012299
0.0123057
0.0122944
0.0123004
0.0122905
0.012296
0.0122874
0.0122929
0.0122856
0.0122913
0.0122855
0.0122921
0.0122884
0.0122965
0.0122956
0.0123063
0.0123092
0.0123235
0.012331
0.01235
0.0123626
0.0123865
0.0124036
0.0124316
0.0124517
0.0124813
0.0125014
0.0125297
0.0125476
0.0125728
0.0125876
0.0126097
0.0126228
0.0126441
0.0126577
0.0126798
0.0126943
0.0127172
0.0127318
0.0127531
0.0127653
0.0127835
0.0127938
0.0128105
0.0128202
0.0128368
0.0128469
0.012864
0.0128738
0.0128892
0.0128969
0.0129098
0.0129168
0.0129294
0.0129364
0.012949
0.0129555
0.0129676
0.0129736
0.0129841
0.0129891
0.0129986
0.0130038
0.0130144
0.0130196
0.0130291
0.0130328
0.0130406
0.0130447
0.0130533
0.0130573
0.0130654
0.0130678
0.0130744
0.0130776
0.0130842
0.0130872
0.0130934
0.0130945
0.0131
0.013102
0.013107
0.0131093
0.0131131
0.0131146
0.0131101
0.0117472
0.0122753
0.0122977
0.0123103
0.012297
0.0123038
0.0122925
0.0122985
0.0122885
0.0122941
0.0122855
0.0122909
0.0122836
0.0122893
0.0122836
0.0122901
0.0122864
0.0122945
0.0122936
0.0123043
0.0123072
0.0123215
0.012329
0.012348
0.0123606
0.0123845
0.0124016
0.0124296
0.0124496
0.0124793
0.0124993
0.0125276
0.0125456
0.0125708
0.0125856
0.0126076
0.0126207
0.012642
0.0126556
0.0126777
0.0126922
0.0127151
0.0127296
0.012751
0.0127631
0.0127814
0.0127916
0.0128083
0.0128181
0.0128347
0.0128447
0.0128618
0.0128716
0.012887
0.0128947
0.0129076
0.0129146
0.0129272
0.0129342
0.0129468
0.0129532
0.0129654
0.0129714
0.0129818
0.0129869
0.0129964
0.0130015
0.0130122
0.0130173
0.0130268
0.0130306
0.0130383
0.0130425
0.013051
0.013055
0.0130631
0.0130655
0.0130721
0.0130753
0.0130819
0.0130849
0.0130911
0.0130922
0.0130977
0.0130997
0.0131047
0.013107
0.0131108
0.0131123
0.0131079
0.0117429
0.012251
0.0122698
0.0122815
0.0122688
0.0122757
0.012265
0.0122711
0.0122617
0.0122674
0.0122593
0.0122648
0.012258
0.0122637
0.0122584
0.012265
0.0122616
0.0122697
0.012269
0.0122797
0.0122827
0.0122968
0.0123043
0.0123231
0.0123356
0.0123592
0.0123761
0.0124037
0.0124236
0.0124528
0.0124728
0.0125008
0.0125187
0.0125437
0.0125586
0.0125805
0.0125938
0.012615
0.0126287
0.0126508
0.0126654
0.0126883
0.012703
0.0127244
0.0127368
0.0127551
0.0127657
0.0127825
0.0127925
0.0128093
0.0128196
0.0128369
0.012847
0.0128626
0.0128707
0.0128838
0.0128911
0.012904
0.0129113
0.0129241
0.0129309
0.0129433
0.0129496
0.0129603
0.0129656
0.0129754
0.0129808
0.0129917
0.0129971
0.0130069
0.0130108
0.0130188
0.0130232
0.0130319
0.0130361
0.0130443
0.0130469
0.0130537
0.013057
0.0130637
0.0130669
0.0130731
0.0130743
0.0130799
0.0130819
0.013087
0.0130893
0.0130932
0.0130944
0.0130902
0.0117925
0.0122663
0.0122761
0.0122862
0.0122751
0.0122817
0.0122722
0.0122781
0.0122698
0.0122753
0.0122682
0.0122736
0.0122677
0.0122733
0.0122687
0.0122751
0.0122723
0.01228
0.0122798
0.0122899
0.012293
0.0123064
0.0123138
0.0123316
0.0123437
0.0123661
0.0123824
0.0124087
0.0124279
0.0124559
0.0124752
0.0125021
0.0125197
0.0125438
0.0125585
0.0125798
0.012593
0.0126137
0.0126274
0.012649
0.0126637
0.0126861
0.0127009
0.0127219
0.0127345
0.0127526
0.0127634
0.0127802
0.0127906
0.0128072
0.0128179
0.0128351
0.0128455
0.0128611
0.0128696
0.0128828
0.0128905
0.0129035
0.0129112
0.0129241
0.0129312
0.0129437
0.0129504
0.0129612
0.0129669
0.0129768
0.0129825
0.0129935
0.0129991
0.013009
0.0130132
0.0130212
0.0130258
0.0130346
0.0130389
0.0130472
0.0130499
0.0130567
0.0130601
0.0130668
0.01307
0.0130761
0.0130774
0.0130829
0.0130849
0.0130899
0.0130921
0.013096
0.0130965
0.0130939
0.0122519
0.0126333
0.0126312
0.0126386
0.01263
0.0126362
0.0126287
0.0126341
0.0126277
0.0126327
0.0126273
0.0126321
0.0126276
0.0126326
0.0126292
0.0126348
0.0126329
0.0126396
0.0126398
0.0126485
0.0126516
0.0126632
0.01267
0.0126855
0.0126965
0.0127161
0.012731
0.0127542
0.0127719
0.0127968
0.0128148
0.012839
0.0128555
0.0128773
0.0128914
0.0129108
0.0129235
0.0129425
0.0129556
0.0129753
0.0129893
0.0130098
0.0130238
0.0130431
0.0130551
0.0130718
0.0130822
0.0130975
0.0131073
0.0131225
0.0131325
0.0131481
0.0131578
0.013172
0.0131798
0.0131918
0.0131988
0.0132105
0.0132174
0.0132289
0.0132353
0.0132464
0.0132523
0.0132619
0.0132669
0.0132755
0.0132804
0.01329
0.0132948
0.0133033
0.0133069
0.0133138
0.0133176
0.013325
0.0133286
0.0133356
0.0133377
0.0133434
0.0133461
0.0133517
0.0133542
0.0133593
0.0133602
0.0133647
0.0133661
0.0133701
0.0133718
0.013375
0.0133744
0.0133715
0.0152258
0.015459
0.0154525
0.0154569
0.015452
0.0154563
0.0154521
0.0154558
0.0154523
0.0154555
0.0154527
0.0154557
0.0154535
0.0154566
0.015455
0.0154585
0.015458
0.0154623
0.0154632
0.015469
0.0154721
0.0154802
0.0154861
0.0154974
0.0155069
0.0155217
0.0155345
0.0155526
0.0155678
0.0155875
0.0156029
0.0156218
0.0156355
0.0156521
0.0156632
0.015677
0.0156862
0.0156988
0.0157076
0.0157202
0.0157293
0.0157423
0.0157511
0.015763
0.01577
0.0157795
0.0157847
0.0157927
0.0157971
0.0158048
0.0158091
0.0158171
0.0158212
0.0158281
0.0158308
0.0158359
0.0158379
0.0158426
0.0158445
0.0158493
0.0158509
0.0158554
0.0158569
0.0158604
0.0158612
0.0158641
0.0158649
0.0158686
0.0158697
0.0158729
0.0158731
0.0158752
0.0158757
0.0158784
0.015879
0.0158815
0.0158813
0.015883
0.0158833
0.0158851
0.0158854
0.0158871
0.0158865
0.0158879
0.0158879
0.0158891
0.0158893
0.0158904
0.015887
0.015885
0.0265472
0.0266105
0.0266094
0.0266128
0.0266108
0.0266134
0.0266118
0.0266137
0.0266124
0.0266139
0.0266129
0.0266142
0.0266135
0.0266147
0.0266142
0.0266156
0.0266158
0.0266177
0.0266187
0.0266219
0.0266246
0.0266297
0.0266347
0.0266425
0.0266504
0.0266609
0.0266707
0.0266828
0.0266928
0.026704
0.0267114
0.026719
0.0267224
0.0267256
0.0267253
0.0267253
0.0267234
0.0267232
0.0267222
0.0267235
0.0267236
0.0267261
0.0267266
0.026728
0.0267265
0.0267253
0.0267228
0.0267212
0.0267189
0.0267183
0.0267168
0.0267174
0.0267166
0.0267164
0.0267142
0.0267121
0.0267097
0.0267084
0.0267066
0.0267061
0.0267041
0.0267035
0.0267019
0.0267006
0.0266985
0.0266968
0.026695
0.0266951
0.0266941
0.0266938
0.026692
0.0266902
0.026689
0.0266889
0.0266882
0.0266883
0.0266864
0.0266851
0.0266844
0.026684
0.0266837
0.0266836
0.0266816
0.0266808
0.0266802
0.0266797
0.0266799
0.0266796
0.0266752
0.02667
0.0122145
0.0123508
0.0123541
0.0123552
0.0123543
0.0123555
0.0123541
0.0123555
0.0123541
0.0123558
0.0123544
0.0123564
0.0123554
0.0123578
0.0123575
0.0123608
0.0123616
0.0123662
0.0123689
0.0123759
0.0123815
0.012392
0.0124017
0.0124168
0.0124313
0.0124514
0.0124701
0.0124939
0.0125149
0.0125396
0.0125592
0.0125809
0.0125964
0.0126132
0.0126237
0.0126358
0.0126432
0.0126539
0.0126611
0.0126724
0.0126804
0.0126925
0.0127003
0.0127106
0.0127153
0.0127219
0.0127241
0.012729
0.0127306
0.0127356
0.0127376
0.0127436
0.0127458
0.0127502
0.0127503
0.0127522
0.0127515
0.0127534
0.0127531
0.0127556
0.012755
0.0127573
0.0127567
0.0127577
0.0127564
0.0127567
0.0127556
0.0127578
0.0127574
0.0127589
0.0127574
0.0127572
0.0127564
0.0127577
0.0127573
0.0127587
0.0127571
0.0127572
0.0127566
0.0127574
0.0127572
0.0127582
0.0127565
0.012757
0.0127566
0.0127574
0.0127577
0.012759
0.0127561
0.0127548
0.0117142
0.0120226
0.0120322
0.0120343
0.0120333
0.0120349
0.0120337
0.0120352
0.0120338
0.0120351
0.0120336
0.0120348
0.0120333
0.0120342
0.0120326
0.0120333
0.0120315
0.0120321
0.0120302
0.0120305
0.0120286
0.012029
0.0120274
0.0120281
0.0120271
0.0120286
0.0120286
0.0120313
0.0120329
0.0120371
0.0120401
0.0120456
0.0120498
0.0120561
0.0120607
0.012067
0.0120713
0.0120773
0.0120814
0.0120874
0.0120916
0.0120979
0.0121028
0.0121097
0.0121149
0.0121216
0.0121265
0.0121327
0.012137
0.0121429
0.0121469
0.0121528
0.0121572
0.0121632
0.0121676
0.0121731
0.0121768
0.0121819
0.0121853
0.0121902
0.0121935
0.0121983
0.0122016
0.0122062
0.0122092
0.0122132
0.0122156
0.0122195
0.0122221
0.012226
0.0122284
0.0122317
0.0122334
0.0122366
0.0122384
0.0122416
0.0122432
0.0122458
0.012247
0.0122494
0.0122505
0.0122531
0.0122539
0.0122558
0.0122564
0.0122582
0.0122587
0.0122607
0.0122612
0.0122615
0.0112516
0.0116592
0.0116815
0.011684
0.0116834
0.0116842
0.0116834
0.011684
0.0116831
0.0116836
0.0116826
0.0116829
0.0116817
0.0116818
0.0116804
0.0116802
0.0116786
0.0116781
0.0116761
0.0116753
0.011673
0.0116719
0.0116695
0.0116682
0.0116659
0.0116648
0.0116628
0.0116623
0.0116611
0.0116613
0.011661
0.0116619
0.0116622
0.0116636
0.0116642
0.0116654
0.0116657
0.0116667
0.0116668
0.0116678
0.011668
0.0116694
0.0116703
0.0116723
0.0116737
0.0116756
0.0116769
0.0116787
0.0116797
0.0116814
0.0116823
0.0116842
0.0116857
0.011688
0.0116897
0.0116917
0.011693
0.0116949
0.0116962
0.0116982
0.0116995
0.0117015
0.0117031
0.0117052
0.0117066
0.0117084
0.0117093
0.0117112
0.0117125
0.0117145
0.0117159
0.0117175
0.0117183
0.01172
0.011721
0.0117228
0.0117238
0.0117251