/*--------------------------------*- C++ -*----------------------------------*\
  =========                 |
  \\      /  F ield         | OpenFOAM: The Open Source CFD Toolbox
   \\    /   O peration     | Website:  https://openfoam.org
    \\  /    A nd           | Version:  7
     \\/     M anipulation  |
\*---------------------------------------------------------------------------*/
FoamFile
{
    version     2.0;
    format      ascii;
    class       surfaceScalarField;
    location    "4.46";
    object      phi_0;
}
// * * * * * * * * * * * * * * * * * * * * * * * * * * * * * * * * * * * * * //

dimensions      [1 0 -1 0 0 0 0];

internalField   nonuniform List<scalar> 
11256
(
0.00287856
0.00403095
0.00172041
0.0011582
0.00146308
0.00025736
0.00132452
0.000138593
0.00123627
8.82923e-05
0.00118828
4.8042e-05
0.00115793
3.03962e-05
0.00112981
2.81674e-05
0.0011021
2.77499e-05
0.00107754
2.46072e-05
0.00105687
2.0707e-05
0.00103911
1.77995e-05
0.00102328
1.5869e-05
0.00100894
1.43723e-05
0.000995934
1.3043e-05
0.00098411
1.18592e-05
0.000973305
1.08407e-05
0.00096337
9.97016e-06
0.000954193
9.21281e-06
0.000945685
8.5437e-06
0.000937771
7.9486e-06
0.000930388
7.41735e-06
0.000923481
6.9409e-06
0.000917001
6.5114e-06
0.00091091
6.12251e-06
0.000905171
5.76904e-06
0.000899753
5.44671e-06
0.000894629
5.15185e-06
0.000889775
4.8813e-06
0.00088517
4.6323e-06
0.000880794
4.40249e-06
0.000876631
4.18982e-06
0.000872665
3.99248e-06
0.000868882
3.80896e-06
0.000865269
3.63778e-06
0.000861817
3.47787e-06
0.000858513
3.32813e-06
0.00085535
3.18729e-06
0.000852318
3.05497e-06
0.00084941
2.93057e-06
0.000846618
2.81312e-06
0.000843937
2.70206e-06
0.00084136
2.59703e-06
0.000838882
2.49756e-06
0.000836497
2.40321e-06
0.000834201
2.31357e-06
0.000831991
2.2281e-06
0.000829861
2.14672e-06
0.000827809
2.06859e-06
0.00082583
1.99589e-06
0.00082392
1.92552e-06
0.000822079
1.85703e-06
0.000820303
1.79158e-06
0.000818589
1.72865e-06
0.000816935
1.66778e-06
0.00081534
1.60914e-06
0.000813801
1.55233e-06
0.000812315
1.49748e-06
0.000810882
1.44474e-06
0.0008095
1.39342e-06
0.000808167
1.34331e-06
0.000806881
1.29527e-06
0.000805641
1.24909e-06
0.000804446
1.2036e-06
0.000803294
1.15942e-06
0.000802184
1.11709e-06
0.000801115
1.07646e-06
0.000800084
1.03697e-06
0.000799092
9.9872e-07
0.000798136
9.61816e-07
0.000797215
9.262e-07
0.000796329
8.91797e-07
0.000795475
8.58584e-07
0.000794653
8.26542e-07
0.000793861
7.95639e-07
0.000793098
7.65823e-07
0.000792364
7.3709e-07
0.000791656
7.09417e-07
0.000790975
6.82806e-07
0.000790318
6.57276e-07
0.000789685
6.32798e-07
0.000789075
6.09328e-07
0.000788487
5.86855e-07
0.00078792
5.65386e-07
0.000787372
5.44949e-07
0.000786844
5.25522e-07
0.000786334
5.07031e-07
0.000785841
4.89419e-07
0.000785365
4.72667e-07
0.000784904
4.56734e-07
0.000784458
4.4155e-07
0.000784026
4.27053e-07
0.000783608
4.13202e-07
0.000783203
3.99957e-07
0.000782809
3.87273e-07
0.000782428
3.75118e-07
0.000782057
3.63467e-07
0.000781698
3.52308e-07
0.000781348
3.41632e-07
0.000781008
3.31438e-07
0.000780677
3.21733e-07
0.000780355
3.12522e-07
0.000780041
3.03803e-07
0.000779735
2.95573e-07
0.000779436
2.87827e-07
0.000779145
2.80557e-07
0.000778861
2.73749e-07
0.000778583
2.67382e-07
0.000778311
2.61432e-07
0.000778045
2.55872e-07
0.000777785
2.50675e-07
0.00077753
2.45816e-07
0.000777281
2.41274e-07
0.000777036
2.3703e-07
0.000776796
2.33075e-07
0.000776561
2.29411e-07
0.00077633
2.26037e-07
0.000776103
2.22971e-07
0.000775881
2.20232e-07
0.000775662
2.17841e-07
0.000775448
2.15826e-07
0.000775237
2.14215e-07
0.000775029
2.13035e-07
0.000774825
2.12311e-07
0.000774625
2.12058e-07
0.000774428
2.1229e-07
0.000774234
2.13013e-07
0.000774043
2.14225e-07
0.000773855
2.15921e-07
0.00077367
2.1809e-07
0.000773488
2.20719e-07
0.000773309
2.23795e-07
0.000773133
2.27305e-07
0.000772959
2.31241e-07
0.000772788
2.35596e-07
0.00077262
2.40373e-07
0.000772455
2.45576e-07
0.000772292
2.51217e-07
0.000772133
2.57317e-07
0.000771975
2.63897e-07
0.000771821
2.70976e-07
0.000771669
2.78576e-07
0.00077152
2.86731e-07
0.000771374
2.95452e-07
0.00077123
3.04734e-07
0.000771089
3.14591e-07
0.000770951
3.25039e-07
0.000770815
3.36073e-07
0.000770683
3.4768e-07
0.000770553
3.59842e-07
0.000770425
3.72527e-07
0.000770301
3.85694e-07
0.000770179
3.9931e-07
0.00077006
4.13363e-07
0.000769944
4.27859e-07
0.000769831
4.42791e-07
0.00076972
4.58124e-07
0.000769613
4.73833e-07
0.000769509
4.89921e-07
0.000769407
5.06419e-07
0.000769309
5.23339e-07
0.000769213
5.40674e-07
0.000769121
5.58426e-07
0.000769032
5.76583e-07
0.000768946
5.95181e-07
0.000768863
6.1428e-07
0.000768783
6.33803e-07
0.000768707
6.53684e-07
0.000768633
6.74021e-07
0.000768563
6.94714e-07
0.000768496
7.15709e-07
0.000768432
7.37048e-07
0.000768371
7.58659e-07
0.000768313
7.80547e-07
0.000768259
8.02626e-07
0.000768208
8.24922e-07
0.000768161
8.47353e-07
0.000768117
8.69949e-07
0.000768076
8.9274e-07
0.000768038
9.15659e-07
0.000768004
9.38718e-07
0.000767973
9.61898e-07
0.000767946
9.85268e-07
0.000767922
1.00885e-06
0.000767901
1.03256e-06
0.000767884
1.0564e-06
0.00076787
1.08045e-06
0.000767859
1.10469e-06
0.000767852
1.12906e-06
0.000767848
1.15351e-06
0.000767847
1.17811e-06
0.00076785
1.20284e-06
0.000767856
1.22758e-06
0.000767866
1.2523e-06
0.000767878
1.27706e-06
0.000767894
1.30184e-06
0.000767913
1.32655e-06
0.000767936
1.35114e-06
0.000767962
1.37567e-06
0.000767991
1.40016e-06
0.000768023
1.42457e-06
0.000768059
1.44889e-06
0.000768098
1.47313e-06
0.00076814
1.49729e-06
0.000768185
1.5214e-06
0.000768234
1.54549e-06
0.000768286
1.56957e-06
0.00076834
1.5937e-06
0.000768398
1.61777e-06
0.000768459
1.64171e-06
0.000768523
1.66549e-06
0.00076859
1.68945e-06
0.00076866
1.71327e-06
0.000768733
1.73686e-06
0.000768809
1.76035e-06
0.000768888
1.78385e-06
0.00076897
1.80684e-06
0.000769054
1.83012e-06
0.000769142
1.8527e-06
0.000769232
1.87578e-06
0.000769326
1.89759e-06
0.000769422
1.92044e-06
0.000769521
1.9416e-06
0.000769622
1.9647e-06
0.000769727
1.98492e-06
0.000769833
2.00815e-06
0.000769944
2.02713e-06
0.000770055
2.05141e-06
0.000770172
2.06894e-06
0.000770288
2.09386e-06
0.00077041
2.11038e-06
0.000770531
2.13569e-06
0.000770656
2.15213e-06
0.000770785
2.17489e-06
0.00077091
2.1978e-06
0.000771051
2.20854e-06
0.000771161
2.25663e-06
0.000771334
2.22121e-06
0.000771404
2.33796e-06
2.19846e-06
0.00551747
0.00542298
0.00437064
0.00230508
0.00388691
0.000741126
0.00355242
0.000473111
0.0033201
0.000320651
0.00317883
0.000189359
0.00308738
0.000121887
0.0030125
0.000103102
0.00294378
9.6523e-05
0.00288236
8.60692e-05
0.00282931
7.38045e-05
0.0027833
6.3858e-05
0.0027425
5.67152e-05
0.00270573
5.1178e-05
0.0026724
4.64218e-05
0.00264206
4.22418e-05
0.00261431
3.86292e-05
0.0025888
3.55218e-05
0.00256524
3.28167e-05
0.0025434
3.04312e-05
0.00252308
2.83118e-05
0.00250412
2.64198e-05
0.00248638
2.47229e-05
0.00246975
2.31935e-05
0.00245411
2.18089e-05
0.00243937
2.05505e-05
0.00242546
1.94028e-05
0.0024123
1.83526e-05
0.00239983
1.73888e-05
0.002388
1.65016e-05
0.00237677
1.56825e-05
0.00236607
1.49245e-05
0.00235589
1.42211e-05
0.00234617
1.35669e-05
0.0023369
1.2957e-05
0.00232803
1.23873e-05
0.00231955
1.18537e-05
0.00231143
1.13525e-05
0.00230364
1.08819e-05
0.00229618
1.04391e-05
0.00228901
1.00212e-05
0.00228213
9.62631e-06
0.00227552
9.25286e-06
0.00226916
8.89911e-06
0.00226304
8.56365e-06
0.00225715
8.24487e-06
0.00225148
7.9412e-06
0.00224602
7.65173e-06
0.00224075
7.37462e-06
0.00223568
7.11469e-06
0.00223078
6.86449e-06
0.00222606
6.62281e-06
0.0022215
6.39072e-06
0.0022171
6.16729e-06
0.00221286
5.95193e-06
0.00220877
5.74469e-06
0.00220482
5.54394e-06
0.00220101
5.35073e-06
0.00219733
5.16491e-06
0.00219379
4.9837e-06
0.00219036
4.80794e-06
0.00218706
4.63846e-06
0.00218388
4.47516e-06
0.00218081
4.31648e-06
0.00217784
4.16229e-06
0.00217499
4.01373e-06
0.00217223
3.87093e-06
0.00216958
3.73264e-06
0.00216702
3.59884e-06
0.00216455
3.46986e-06
0.00216217
3.34553e-06
0.00215988
3.22557e-06
0.00215767
3.1099e-06
0.00215554
2.99843e-06
0.00215349
2.89103e-06
0.00215151
2.78756e-06
0.0021496
2.68798e-06
0.00214776
2.59219e-06
0.00214598
2.50018e-06
0.00214427
2.41197e-06
0.00214261
2.32742e-06
0.00214102
2.24641e-06
0.00213947
2.16887e-06
0.00213798
2.09483e-06
0.00213654
2.02431e-06
0.00213515
1.95722e-06
0.0021338
1.89332e-06
0.0021325
1.83247e-06
0.00213124
1.77457e-06
0.00213001
1.71949e-06
0.00212883
1.66701e-06
0.00212768
1.61696e-06
0.00212656
1.5692e-06
0.00212547
1.52359e-06
0.00212442
1.48e-06
0.0021234
1.4383e-06
0.0021224
1.39839e-06
0.00212143
1.36022e-06
0.00212049
1.32374e-06
0.00211957
1.28891e-06
0.00211868
1.25572e-06
0.0021178
1.22416e-06
0.00211695
1.1942e-06
0.00211612
1.1658e-06
0.0021153
1.13893e-06
0.00211451
1.11354e-06
0.00211373
1.08959e-06
0.00211297
1.06701e-06
0.00211222
1.04571e-06
0.00211149
1.02562e-06
0.00211078
1.00665e-06
0.00211007
9.88713e-07
0.00210939
9.71744e-07
0.00210871
9.55677e-07
0.00210805
9.40462e-07
0.00210739
9.26082e-07
0.00210675
9.12513e-07
0.00210613
8.99769e-07
0.00210551
8.87878e-07
0.0021049
8.76866e-07
0.0021043
8.66779e-07
0.00210371
8.57669e-07
0.00210313
8.49583e-07
0.00210256
8.42562e-07
0.002102
8.36638e-07
0.00210145
8.31826e-07
0.0021009
8.28132e-07
0.00210036
8.25544e-07
0.00209983
8.24039e-07
0.00209931
8.23583e-07
0.00209879
8.24136e-07
0.00209829
8.25655e-07
0.00209779
8.28099e-07
0.00209729
8.31433e-07
0.00209681
8.35633e-07
0.00209633
8.40684e-07
0.00209586
8.46587e-07
0.00209539
8.53357e-07
0.00209494
8.61032e-07
0.00209449
8.69648e-07
0.00209404
8.79239e-07
0.00209361
8.89857e-07
0.00209318
9.01573e-07
0.00209276
9.14407e-07
0.00209234
9.28352e-07
0.00209193
9.4345e-07
0.00209153
9.59735e-07
0.00209114
9.77181e-07
0.00209075
9.95756e-07
0.00209037
1.01542e-06
0.00208999
1.03612e-06
0.00208963
1.05777e-06
0.00208927
1.0803e-06
0.00208892
1.10368e-06
0.00208857
1.1279e-06
0.00208823
1.15292e-06
0.00208791
1.17868e-06
0.00208758
1.20515e-06
0.00208727
1.23233e-06
0.00208697
1.26027e-06
0.00208667
1.28898e-06
0.00208638
1.31847e-06
0.0020861
1.34875e-06
0.00208583
1.37981e-06
0.00208556
1.41171e-06
0.0020853
1.44453e-06
0.00208506
1.47822e-06
0.00208482
1.51269e-06
0.00208458
1.54801e-06
0.00208436
1.58404e-06
0.00208414
1.62069e-06
0.00208394
1.65797e-06
0.00208374
1.69583e-06
0.00208355
1.73423e-06
0.00208337
1.77301e-06
0.0020832
1.81215e-06
0.00208304
1.85157e-06
0.00208288
1.8913e-06
0.00208274
1.9314e-06
0.00208261
1.97169e-06
0.00208248
2.01225e-06
0.00208236
2.05308e-06
0.00208226
2.09424e-06
0.00208216
2.13578e-06
0.00208207
2.17762e-06
0.00208199
2.21974e-06
0.00208192
2.26227e-06
0.00208186
2.3052e-06
0.0020818
2.34843e-06
0.00208176
2.39188e-06
0.00208173
2.43562e-06
0.0020817
2.47963e-06
0.00208169
2.52375e-06
0.00208168
2.56787e-06
0.00208168
2.61206e-06
0.00208169
2.65632e-06
0.00208171
2.70047e-06
0.00208174
2.7444e-06
0.00208178
2.78821e-06
0.00208183
2.83198e-06
0.00208188
2.87562e-06
0.00208195
2.91902e-06
0.00208203
2.96227e-06
0.00208211
3.00549e-06
0.0020822
3.04862e-06
0.00208231
3.09171e-06
0.00208242
3.1348e-06
0.00208254
3.17794e-06
0.00208266
3.22099e-06
0.0020828
3.26402e-06
0.00208294
3.30688e-06
0.0020831
3.34991e-06
0.00208326
3.39269e-06
0.00208343
3.43529e-06
0.00208361
3.47752e-06
0.00208379
3.51995e-06
0.00208399
3.56147e-06
0.00208419
3.60345e-06
0.0020844
3.64412e-06
0.00208462
3.68577e-06
0.00208485
3.72509e-06
0.00208508
3.76645e-06
0.00208533
3.80438e-06
0.00208558
3.84623e-06
0.00208584
3.88224e-06
0.0020861
3.92479e-06
0.00208638
3.95817e-06
0.00208666
4.00291e-06
0.00208695
4.03327e-06
0.00208724
4.0801e-06
0.00208755
4.10739e-06
0.00208786
4.15638e-06
0.00208818
4.18253e-06
0.0020885
4.22835e-06
0.00208883
4.26525e-06
0.00208917
4.2904e-06
0.00208949
4.37646e-06
0.00208987
4.31821e-06
0.00209016
4.52788e-06
4.26142e-06
0.00687288
0.00545957
0.00621165
0.00296637
0.00577122
0.0011816
0.00537036
0.000874
0.00505453
0.000636516
0.00484694
0.000396985
0.00470845
0.000260423
0.00459884
0.000212759
0.00450166
0.000193757
0.00441498
0.000172804
0.00433914
0.000149691
0.00427279
0.000130261
0.00421385
0.000115704
0.00416076
0.00010432
0.00411257
9.46569e-05
0.00406863
8.6224e-05
0.00402838
7.89221e-05
0.00399133
7.26148e-05
0.00395708
6.71144e-05
0.00392529
6.22634e-05
0.0038957
5.79525e-05
0.00386806
5.41018e-05
0.00384219
5.06458e-05
0.00381791
4.75291e-05
0.00379506
4.47061e-05
0.00377352
4.2139e-05
0.00375318
3.97965e-05
0.00373393
3.76519e-05
0.00371568
3.56824e-05
0.00369836
3.38684e-05
0.0036819
3.21931e-05
0.00366623
3.06417e-05
0.00365129
2.92019e-05
0.00363705
2.78623e-05
0.00362344
2.66131e-05
0.00361043
2.54461e-05
0.00359798
2.43525e-05
0.00358606
2.33258e-05
0.00357463
2.23618e-05
0.00356366
2.1454e-05
0.00355314
2.05971e-05
0.00354303
1.97873e-05
0.00353331
1.90215e-05
0.00352397
1.82958e-05
0.00351498
1.76075e-05
0.00350632
1.69531e-05
0.00349798
1.633e-05
0.00348994
1.57357e-05
0.0034822
1.51672e-05
0.00347473
1.46319e-05
0.00346753
1.41182e-05
0.00346058
1.36235e-05
0.00345387
1.31472e-05
0.0034474
1.26886e-05
0.00344116
1.22473e-05
0.00343513
1.18227e-05
0.00342932
1.14123e-05
0.00342371
1.10166e-05
0.00341829
1.06354e-05
0.00341306
1.02652e-05
0.00340802
9.90681e-06
0.00340315
9.5602e-06
0.00339845
9.22585e-06
0.00339392
8.90246e-06
0.00338954
8.58877e-06
0.00338532
8.28588e-06
0.00338125
7.9943e-06
0.00337732
7.71259e-06
0.00337354
7.44034e-06
0.00336988
7.17804e-06
0.00336635
6.92539e-06
0.00336295
6.68183e-06
0.00335966
6.4472e-06
0.00335649
6.22126e-06
0.00335344
6.00371e-06
0.00335048
5.79434e-06
0.00334763
5.59297e-06
0.00334488
5.39938e-06
0.00334222
5.21357e-06
0.00333966
5.03545e-06
0.00333717
4.86475e-06
0.00333478
4.70121e-06
0.00333245
4.54471e-06
0.00333021
4.39522e-06
0.00332803
4.25281e-06
0.00332593
4.11724e-06
0.00332389
3.98809e-06
0.00332191
3.86508e-06
0.00331999
3.74803e-06
0.00331812
3.63667e-06
0.00331631
3.53058e-06
0.00331455
3.42946e-06
0.00331284
3.33302e-06
0.00331118
3.241e-06
0.00330956
3.1531e-06
0.00330799
3.06906e-06
0.00330645
2.98868e-06
0.00330496
2.91181e-06
0.0033035
2.8383e-06
0.00330208
2.7681e-06
0.00330069
2.70113e-06
0.00329933
2.63733e-06
0.00329801
2.57663e-06
0.00329671
2.51894e-06
0.00329544
2.4642e-06
0.0032942
2.41232e-06
0.00329298
2.3632e-06
0.00329178
2.31672e-06
0.00329061
2.27275e-06
0.00328946
2.23111e-06
0.00328833
2.19167e-06
0.00328722
2.15426e-06
0.00328613
2.11873e-06
0.00328506
2.08495e-06
0.00328401
2.05282e-06
0.00328298
2.02225e-06
0.00328196
1.99319e-06
0.00328096
1.96561e-06
0.00327998
1.93952e-06
0.00327901
1.91495e-06
0.00327805
1.89194e-06
0.00327711
1.87056e-06
0.00327618
1.85086e-06
0.00327527
1.83291e-06
0.00327437
1.81675e-06
0.00327348
1.80241e-06
0.0032726
1.7899e-06
0.00327173
1.77919e-06
0.00327088
1.77026e-06
0.00327003
1.76303e-06
0.0032692
1.75745e-06
0.00326837
1.75343e-06
0.00326756
1.75088e-06
0.00326676
1.74975e-06
0.00326597
1.74995e-06
0.00326519
1.75146e-06
0.00326442
1.75423e-06
0.00326366
1.75829e-06
0.00326291
1.76364e-06
0.00326217
1.77036e-06
0.00326144
1.77846e-06
0.00326072
1.78803e-06
0.00326002
1.79917e-06
0.00325932
1.81192e-06
0.00325863
1.82628e-06
0.00325795
1.84232e-06
0.00325728
1.86012e-06
0.00325662
1.87963e-06
0.00325598
1.9008e-06
0.00325534
1.92359e-06
0.00325471
1.9479e-06
0.00325409
1.97364e-06
0.00325348
2.00071e-06
0.00325289
2.02903e-06
0.0032523
2.05856e-06
0.00325173
2.08922e-06
0.00325117
2.12093e-06
0.00325061
2.15362e-06
0.00325008
2.18728e-06
0.00324955
2.22197e-06
0.00324903
2.25772e-06
0.00324853
2.29452e-06
0.00324804
2.33239e-06
0.00324756
2.37137e-06
0.00324709
2.4115e-06
0.00324664
2.4529e-06
0.0032462
2.49556e-06
0.00324577
2.5394e-06
0.00324535
2.58448e-06
0.00324494
2.63064e-06
0.00324455
2.67771e-06
0.00324417
2.72573e-06
0.0032438
2.77465e-06
0.00324345
2.82438e-06
0.00324311
2.8747e-06
0.00324278
2.92554e-06
0.00324247
2.97679e-06
0.00324217
3.0285e-06
0.00324189
3.08073e-06
0.00324162
3.13319e-06
0.00324136
3.18599e-06
0.00324112
3.23921e-06
0.0032409
3.29283e-06
0.00324068
3.34697e-06
0.00324048
3.40155e-06
0.0032403
3.45655e-06
0.00324013
3.51212e-06
0.00323997
3.5683e-06
0.00323982
3.62498e-06
0.0032397
3.68205e-06
0.00323958
3.73958e-06
0.00323948
3.79757e-06
0.00323939
3.85583e-06
0.00323932
3.91417e-06
0.00323926
3.97267e-06
0.00323921
4.03132e-06
0.00323918
4.08988e-06
0.00323917
4.14818e-06
0.00323917
4.20633e-06
0.00323918
4.26447e-06
0.00323921
4.32242e-06
0.00323925
4.38e-06
0.00323931
4.43736e-06
0.00323938
4.49474e-06
0.00323947
4.55201e-06
0.00323957
4.60918e-06
0.00323968
4.6664e-06
0.00323981
4.72367e-06
0.00323995
4.78086e-06
0.0032401
4.83817e-06
0.00324027
4.89538e-06
0.00324045
4.95277e-06
0.00324064
5.0099e-06
0.00324085
5.06695e-06
0.00324107
5.12349e-06
0.0032413
5.1804e-06
0.00324154
5.23619e-06
0.0032418
5.29258e-06
0.00324208
5.34722e-06
0.00324236
5.40318e-06
0.00324266
5.45607e-06
0.00324297
5.51173e-06
0.0032433
5.56263e-06
0.00324364
5.61889e-06
0.00324399
5.66705e-06
0.00324435
5.72452e-06
0.00324473
5.76888e-06
0.00324511
5.82947e-06
0.00324551
5.86943e-06
0.00324592
5.93358e-06
0.00324635
5.96839e-06
0.00324678
6.03689e-06
0.00324722
6.06878e-06
0.00324768
6.13554e-06
0.00324814
6.17894e-06
0.00324862
6.22344e-06
0.00324909
6.32879e-06
0.00324959
6.27558e-06
0.00325006
6.53238e-06
6.2086e-06
0.00749076
0.00487826
0.0073394
0.00311778
0.00714309
0.00137796
0.00683613
0.001181
0.00652697
0.000945699
0.00629825
0.00062574
0.00613603
0.000422677
0.00600709
0.000341746
0.00589444
0.000306458
0.00579419
0.000273113
0.00570564
0.000238294
0.00562734
0.000208618
0.00555732
0.000185774
0.00549401
0.000167681
0.00543637
0.00015235
0.00538363
0.000139009
0.00533515
0.000127436
0.00529041
0.000117397
0.00524895
0.000108618
0.00521039
0.000100864
0.00517442
9.39634e-05
0.00514077
8.77912e-05
0.00510922
8.2244e-05
0.00507957
7.72351e-05
0.00505163
7.2693e-05
0.00502527
6.85582e-05
0.00500033
6.47811e-05
0.00497672
6.13195e-05
0.00495431
5.81375e-05
0.00493302
5.52039e-05
0.00491277
5.24921e-05
0.00489347
4.99791e-05
0.00487507
4.7645e-05
0.0048575
4.5472e-05
0.00484071
4.34444e-05
0.00482465
4.15492e-05
0.00480928
3.9772e-05
0.00479454
3.8104e-05
0.00478041
3.65369e-05
0.00476686
3.50595e-05
0.00475384
3.36646e-05
0.00474133
3.23462e-05
0.0047293
3.10986e-05
0.00471773
2.9916e-05
0.00470659
2.87937e-05
0.00469587
2.77263e-05
0.00468554
2.67096e-05
0.00467558
2.57395e-05
0.00466598
2.48114e-05
0.00465672
2.39362e-05
0.00464778
2.30969e-05
0.00463916
2.22884e-05
0.00463084
2.15107e-05
0.00462281
2.07622e-05
0.00461506
2.00422e-05
0.00460757
1.9349e-05
0.00460035
1.86801e-05
0.00459338
1.80347e-05
0.00458665
1.7412e-05
0.00458016
1.68092e-05
0.00457389
1.62258e-05
0.00456784
1.56615e-05
0.004562
1.51173e-05
0.00455636
1.45909e-05
0.00455091
1.40812e-05
0.00454565
1.35892e-05
0.00454058
1.31152e-05
0.00453568
1.26579e-05
0.00453094
1.22163e-05
0.00452637
1.17912e-05
0.00452196
1.1382e-05
0.0045177
1.09879e-05
0.00451358
1.06087e-05
0.0045096
1.02437e-05
0.00450576
9.8927e-06
0.00450204
9.55512e-06
0.00449845
9.23071e-06
0.00449498
8.91904e-06
0.00449162
8.62004e-06
0.00448837
8.33351e-06
0.00448523
8.05895e-06
0.00448218
7.79592e-06
0.00447923
7.54421e-06
0.00447637
7.30374e-06
0.0044736
7.07456e-06
0.0044709
6.85629e-06
0.00446829
6.64831e-06
0.00446575
6.45018e-06
0.00446328
6.26163e-06
0.00446087
6.08222e-06
0.00445854
5.91135e-06
0.00445626
5.74852e-06
0.00445404
5.59331e-06
0.00445188
5.44528e-06
0.00444978
5.30393e-06
0.00444772
5.16883e-06
0.00444572
5.03965e-06
0.00444376
4.91607e-06
0.00444185
4.79787e-06
0.00443998
4.68487e-06
0.00443816
4.57696e-06
0.00443637
4.47399e-06
0.00443462
4.37583e-06
0.0044329
4.28234e-06
0.00443122
4.1934e-06
0.00442957
4.1089e-06
0.00442795
4.02869e-06
0.00442636
3.9526e-06
0.00442479
3.88044e-06
0.00442326
3.81198e-06
0.00442174
3.74701e-06
0.00442026
3.68528e-06
0.00441879
3.62657e-06
0.00441735
3.57065e-06
0.00441594
3.51734e-06
0.00441454
3.46649e-06
0.00441317
3.41796e-06
0.00441181
3.37168e-06
0.00441048
3.32762e-06
0.00440917
3.28575e-06
0.00440787
3.24611e-06
0.00440659
3.20876e-06
0.00440533
3.17377e-06
0.00440408
3.14121e-06
0.00440285
3.11113e-06
0.00440164
3.08359e-06
0.00440043
3.05861e-06
0.00439925
3.03616e-06
0.00439807
3.01622e-06
0.00439691
2.9987e-06
0.00439576
2.98352e-06
0.00439462
2.97056e-06
0.0043935
2.9597e-06
0.00439238
2.95082e-06
0.00439129
2.94381e-06
0.0043902
2.93856e-06
0.00438913
2.93502e-06
0.00438807
2.93315e-06
0.00438703
2.93295e-06
0.00438599
2.93446e-06
0.00438497
2.9377e-06
0.00438397
2.94275e-06
0.00438297
2.94976e-06
0.00438199
2.95876e-06
0.00438102
2.96977e-06
0.00438006
2.98292e-06
0.00437911
2.9983e-06
0.00437817
3.01587e-06
0.00437725
3.0356e-06
0.00437634
3.05743e-06
0.00437544
3.08128e-06
0.00437455
3.10701e-06
0.00437367
3.1345e-06
0.00437281
3.16367e-06
0.00437196
3.1944e-06
0.00437113
3.22658e-06
0.00437031
3.26008e-06
0.00436951
3.2948e-06
0.00436872
3.33072e-06
0.00436794
3.36785e-06
0.00436718
3.40621e-06
0.00436644
3.44582e-06
0.00436571
3.48669e-06
0.00436499
3.52887e-06
0.00436429
3.57242e-06
0.00436361
3.61747e-06
0.00436294
3.66408e-06
0.00436229
3.71221e-06
0.00436165
3.7619e-06
0.00436103
3.81301e-06
0.00436042
3.86534e-06
0.00435983
3.91891e-06
0.00435925
3.97371e-06
0.00435869
4.02961e-06
0.00435815
4.08632e-06
0.00435763
4.14375e-06
0.00435712
4.20175e-06
0.00435664
4.26034e-06
0.00435617
4.31959e-06
0.00435572
4.37912e-06
0.00435529
4.43902e-06
0.00435488
4.49942e-06
0.00435448
4.56028e-06
0.00435411
4.62171e-06
0.00435375
4.68367e-06
0.00435341
4.74614e-06
0.00435309
4.8093e-06
0.00435279
4.87323e-06
0.00435251
4.93784e-06
0.00435224
5.00302e-06
0.004352
5.06884e-06
0.00435177
5.13532e-06
0.00435156
5.20228e-06
0.00435136
5.26949e-06
0.00435119
5.33698e-06
0.00435104
5.40477e-06
0.0043509
5.47257e-06
0.00435079
5.54014e-06
0.00435069
5.60758e-06
0.00435062
5.67506e-06
0.00435056
5.74234e-06
0.00435052
5.80913e-06
0.00435051
5.87565e-06
0.00435051
5.94222e-06
0.00435053
6.00865e-06
0.00435058
6.07492e-06
0.00435064
6.14125e-06
0.00435071
6.20766e-06
0.00435081
6.27399e-06
0.00435093
6.34058e-06
0.00435106
6.40715e-06
0.00435121
6.47398e-06
0.00435138
6.5406e-06
0.00435156
6.60727e-06
0.00435177
6.67344e-06
0.00435199
6.74018e-06
0.00435223
6.80572e-06
0.00435249
6.87203e-06
0.00435276
6.93634e-06
0.00435306
7.00226e-06
0.00435337
7.06458e-06
0.0043537
7.13022e-06
0.00435405
7.19018e-06
0.00435442
7.25648e-06
0.0043548
7.31307e-06
0.0043552
7.3809e-06
0.00435562
7.43285e-06
0.00435606
7.50437e-06
0.00435651
7.55097e-06
0.00435698
7.62702e-06
0.00435747
7.66704e-06
0.00435796
7.74903e-06
0.00435848
7.78497e-06
0.00435901
7.86673e-06
0.00435956
7.91392e-06
0.00436012
7.97497e-06
0.00436068
8.09089e-06
0.00436126
8.05396e-06
0.00436184
8.3355e-06
8.01053e-06
0.00765073
0.00413697
0.00784178
0.00292679
0.00792655
0.00129324
0.00783877
0.00126882
0.00764719
0.00113731
0.00746701
0.000805948
0.00732222
0.000567491
0.00720019
0.000463819
0.00709137
0.000415318
0.00699333
0.000371205
0.00690543
0.000326252
0.0068265
0.000287617
0.00675503
0.000257298
0.00668981
0.000232963
0.00662995
0.000212258
0.00657481
0.000194199
0.00652382
0.000178465
0.0064765
0.000164751
0.00643244
0.000152709
0.0063913
0.000142038
0.00635278
0.000132517
0.00631664
0.000123978
0.00628264
0.000116286
0.00625059
0.000109325
0.00622033
0.000103
0.00619171
9.72312e-05
0.00616459
9.19526e-05
0.00613886
8.7107e-05
0.0061144
8.26457e-05
0.00609112
7.85266e-05
0.00606894
7.47137e-05
0.00604779
7.11755e-05
0.00602759
6.78853e-05
0.00600827
6.48188e-05
0.0059898
6.19546e-05
0.0059721
5.92747e-05
0.00595515
5.67601e-05
0.00593889
5.43979e-05
0.00592329
5.21764e-05
0.00590831
5.00808e-05
0.00589392
4.81011e-05
0.00588008
4.62286e-05
0.00586677
4.44554e-05
0.00585396
4.27731e-05
0.00584162
4.11757e-05
0.00582974
3.96553e-05
0.00581828
3.82063e-05
0.00580724
3.68229e-05
0.00579659
3.54982e-05
0.00578631
3.42486e-05
0.00577639
3.30499e-05
0.00576682
3.18938e-05
0.00575758
3.07828e-05
0.00574866
2.97144e-05
0.00574004
2.86864e-05
0.00573173
2.76962e-05
0.0057237
2.67415e-05
0.00571595
2.58206e-05
0.00570847
2.49317e-05
0.00570125
2.40722e-05
0.00569428
2.32406e-05
0.00568754
2.24368e-05
0.00568104
2.16621e-05
0.00567476
2.09129e-05
0.00566869
2.0188e-05
0.00566283
1.94888e-05
0.00565717
1.88153e-05
0.00565169
1.8166e-05
0.0056464
1.75398e-05
0.00564129
1.69373e-05
0.00563634
1.63579e-05
0.00563156
1.58006e-05
0.00562693
1.52647e-05
0.00562245
1.47496e-05
0.00561812
1.42547e-05
0.00561392
1.37792e-05
0.00560986
1.33228e-05
0.00560593
1.28846e-05
0.00560212
1.24646e-05
0.00559843
1.20622e-05
0.00559485
1.16768e-05
0.00559138
1.13077e-05
0.00558801
1.09544e-05
0.00558473
1.06169e-05
0.00558155
1.02951e-05
0.00557845
9.98846e-06
0.00557544
9.69619e-06
0.0055725
9.41769e-06
0.00556964
9.1526e-06
0.00556685
8.90032e-06
0.00556412
8.66006e-06
0.00556147
8.43116e-06
0.00555887
8.21305e-06
0.00555633
8.00511e-06
0.00555386
7.80664e-06
0.00555144
7.61702e-06
0.00554907
7.43573e-06
0.00554675
7.26231e-06
0.00554449
7.09637e-06
0.00554227
6.93763e-06
0.0055401
6.78586e-06
0.00553796
6.64084e-06
0.00553587
6.50233e-06
0.00553382
6.37013e-06
0.0055318
6.24408e-06
0.00552982
6.12402e-06
0.00552787
6.00978e-06
0.00552595
5.90115e-06
0.00552406
5.79791e-06
0.00552219
5.69979e-06
0.00552036
5.60653e-06
0.00551855
5.51781e-06
0.00551676
5.43335e-06
0.005515
5.35286e-06
0.00551327
5.27605e-06
0.00551156
5.20271e-06
0.00550987
5.13259e-06
0.00550821
5.06557e-06
0.00550657
5.00154e-06
0.00550495
4.94039e-06
0.00550335
4.88214e-06
0.00550177
4.82681e-06
0.00550021
4.77446e-06
0.00549867
4.72514e-06
0.00549714
4.67894e-06
0.00549563
4.63591e-06
0.00549414
4.59609e-06
0.00549266
4.55949e-06
0.00549119
4.52608e-06
0.00548974
4.49581e-06
0.00548829
4.46856e-06
0.00548687
4.44423e-06
0.00548545
4.42266e-06
0.00548405
4.40368e-06
0.00548266
4.38715e-06
0.00548129
4.37291e-06
0.00547993
4.36084e-06
0.00547859
4.35084e-06
0.00547726
4.34289e-06
0.00547595
4.33696e-06
0.00547465
4.33304e-06
0.00547337
4.3312e-06
0.00547209
4.33159e-06
0.00547084
4.33423e-06
0.00546959
4.33915e-06
0.00546836
4.34651e-06
0.00546714
4.35645e-06
0.00546593
4.36895e-06
0.00546473
4.38398e-06
0.00546355
4.40152e-06
0.00546238
4.42149e-06
0.00546122
4.44377e-06
0.00546007
4.46823e-06
0.00545894
4.49476e-06
0.00545782
4.52322e-06
0.00545672
4.55345e-06
0.00545563
4.58527e-06
0.00545456
4.61854e-06
0.00545351
4.65319e-06
0.00545247
4.68921e-06
0.00545146
4.72657e-06
0.00545046
4.76528e-06
0.00544947
4.80533e-06
0.00544851
4.84676e-06
0.00544756
4.88967e-06
0.00544663
4.93416e-06
0.00544571
4.98037e-06
0.00544482
5.02829e-06
0.00544394
5.07797e-06
0.00544307
5.12933e-06
0.00544223
5.18215e-06
0.0054414
5.23647e-06
0.00544059
5.2923e-06
0.00543979
5.34951e-06
0.00543902
5.40778e-06
0.00543827
5.46697e-06
0.00543754
5.52695e-06
0.00543683
5.58765e-06
0.00543614
5.64915e-06
0.00543547
5.71102e-06
0.00543483
5.77327e-06
0.00543421
5.83606e-06
0.00543361
5.89933e-06
0.00543304
5.96316e-06
0.00543249
6.02753e-06
0.00543196
6.09242e-06
0.00543145
6.15804e-06
0.00543096
6.22449e-06
0.00543049
6.29173e-06
0.00543005
6.35967e-06
0.00542963
6.42839e-06
0.00542922
6.49795e-06
0.00542884
6.56818e-06
0.00542849
6.63886e-06
0.00542815
6.71002e-06
0.00542784
6.78165e-06
0.00542755
6.85346e-06
0.00542728
6.92515e-06
0.00542704
6.99681e-06
0.00542682
7.06861e-06
0.00542663
7.14026e-06
0.00542646
7.21137e-06
0.00542632
7.28217e-06
0.0054262
7.35306e-06
0.00542611
7.42375e-06
0.00542604
7.49421e-06
0.00542599
7.56472e-06
0.00542597
7.6353e-06
0.00542596
7.70578e-06
0.00542599
7.77662e-06
0.00542603
7.84749e-06
0.00542609
7.91869e-06
0.00542618
7.98976e-06
0.00542629
8.06104e-06
0.00542642
8.13192e-06
0.00542657
8.2036e-06
0.00542675
8.27411e-06
0.00542694
8.34561e-06
0.00542716
8.41505e-06
0.00542741
8.48634e-06
0.00542768
8.55381e-06
0.00542797
8.62493e-06
0.00542828
8.68994e-06
0.00542862
8.76176e-06
0.00542898
8.82306e-06
0.00542936
8.89652e-06
0.00542977
8.95282e-06
0.00543019
9.02996e-06
0.00543064
9.08064e-06
0.00543111
9.16239e-06
0.0054316
9.20618e-06
0.00543211
9.2941e-06
0.00543264
9.33405e-06
0.00543318
9.42203e-06
0.00543375
9.47368e-06
0.00543433
9.54274e-06
0.00543493
9.66711e-06
0.00543554
9.64755e-06
0.00543615
9.94162e-06
9.6591e-06
0.00762079
0.0034256
0.00794734
0.00260031
0.00817322
0.00106741
0.00830505
0.00113703
0.00830572
0.00113667
0.00825139
0.00086031
0.00818329
0.000635611
0.00810994
0.000537196
0.0080349
0.000490395
0.00796175
0.000444406
0.00789263
0.000395428
0.0078281
0.00035221
0.00776793
0.000317531
0.00771176
0.000289204
0.00765924
0.000264835
0.0076101
0.000243392
0.00756406
0.000224547
0.00752085
0.000207997
0.00748023
0.000193367
0.00744197
0.000180329
0.00740587
0.000168637
0.00737178
0.000158105
0.00733952
0.000148578
0.00730896
0.000139925
0.00727997
0.000132036
0.00725243
0.00012482
0.00722623
0.000118198
0.00720129
0.000112103
0.00717752
0.000106477
0.00715483
0.000101271
0.00713315
9.64416e-05
0.00711242
9.19511e-05
0.00709257
8.77672e-05
0.00707356
8.38611e-05
0.00705534
8.02068e-05
0.00703786
7.67822e-05
0.00702108
7.35654e-05
0.00700497
7.05387e-05
0.00698949
6.76877e-05
0.0069746
6.49964e-05
0.00696029
6.24513e-05
0.00694652
6.00413e-05
0.00693326
5.77566e-05
0.00692049
5.55868e-05
0.00690819
5.35245e-05
0.00689633
5.15596e-05
0.0068849
4.96853e-05
0.00687387
4.78941e-05
0.00686323
4.61773e-05
0.00685296
4.45565e-05
0.00684304
4.3001e-05
0.00683346
4.14998e-05
0.00682421
4.00569e-05
0.00681528
3.86695e-05
0.00680666
3.73344e-05
0.00679833
3.60486e-05
0.00679029
3.48091e-05
0.00678252
3.36142e-05
0.00677502
3.24611e-05
0.00676778
3.1347e-05
0.00676079
3.02695e-05
0.00675403
2.92288e-05
0.00674751
2.8227e-05
0.0067412
2.72583e-05
0.00673511
2.6322e-05
0.00672922
2.54197e-05
0.00672352
2.45511e-05
0.00671801
2.37146e-05
0.00671267
2.29085e-05
0.0067075
2.21339e-05
0.00670249
2.13897e-05
0.00669764
2.06745e-05
0.00669293
1.99878e-05
0.00668837
1.93286e-05
0.00668395
1.86959e-05
0.00667965
1.80889e-05
0.00667549
1.75068e-05
0.00667145
1.69488e-05
0.00666752
1.64144e-05