/*--------------------------------*- C++ -*----------------------------------*\
  =========                 |
  \\      /  F ield         | OpenFOAM: The Open Source CFD Toolbox
   \\    /   O peration     | Website:  https://openfoam.org
    \\  /    A nd           | Version:  7
     \\/     M anipulation  |
\*---------------------------------------------------------------------------*/
FoamFile
{
    version     2.0;
    format      ascii;
    class       surfaceScalarField;
    location    "0.365";
    object      phi;
}
// * * * * * * * * * * * * * * * * * * * * * * * * * * * * * * * * * * * * * //

dimensions      [1 0 -1 0 0 0 0];

internalField   nonuniform List<scalar> 
21708
(
0.00128917
0.00100205
1.26137e-05
0.000888048
0.000385426
5.18835e-06
0.000677133
0.000190074
1.06776e-05
0.000586622
7.47526e-05
5.71192e-06
0.000533861
3.30018e-05
9.82704e-06
0.000502736
1.5385e-05
5.9376e-06
0.000478958
4.92846e-06
9.14673e-06
0.000461999
1.19896e-06
6.09822e-06
0.000446917
-3.1762e-06
8.607e-06
0.000436039
-4.96921e-06
6.20326e-06
0.00042661
-8.35155e-06
8.15616e-06
0.000420698
-9.9464e-06
6.26025e-06
0.000415799
-1.24377e-05
7.77109e-06
0.000413073
-1.30832e-05
6.27916e-06
0.000410604
-1.44464e-05
7.43093e-06
0.000408683
-1.37681e-05
6.26339e-06
0.000405673
-1.34624e-05
7.11515e-06
0.00040368
-1.3504e-05
6.2162e-06
0.00035294
3.46087e-05
6.91483e-06
1.04256e-05
5.85769e-06
0.000327451
0.00224062
0.00106275
1.83545e-06
0.00203967
0.000581043
-4.9747e-06
0.00182558
0.000394225
6.15866e-07
0.00167452
0.00022099
-4.21222e-06
0.00156407
0.00013463
-9.02609e-09
0.00148675
8.80428e-05
-3.85384e-06
0.00142413
5.99722e-05
-6.05743e-07
0.00137625
4.46848e-05
-3.63775e-06
0.00133349
3.26175e-05
-1.10589e-06
0.00130104
2.28178e-05
-3.50267e-06
0.0012728
1.31416e-05
-1.5353e-06
0.00125317
4.76783e-06
-3.42918e-06
0.00123602
-1.78413e-06
-1.90811e-06
0.00122384
-5.94951e-06
-3.40029e-06
0.00121239
-9.25863e-06
-2.24423e-06
0.00120157
-8.0358e-06
-3.41084e-06
0.00119635
-1.41352e-05
-2.5763e-06
0.00118147
-3.54078e-06
-3.44863e-06
0.00122408
-1.32599e-05
-3.01901e-06
-5.31367e-05
-3.933e-06
0.00128335
0.00256799
0.000789442
8.58241e-06
0.00264863
0.000487882
2.256e-06
0.00263145
0.000394931
7.47798e-06
0.00258538
0.000255918
2.54458e-06
0.00252666
0.000178096
6.66701e-06
0.00247352
0.000130035
2.7724e-06
0.00242175
9.79697e-05
5.98035e-06
0.0023779
7.84302e-05
2.92347e-06
0.00233571
6.24677e-05
5.43198e-06
0.00230042
4.80652e-05
3.02351e-06
0.00226769
3.35838e-05
4.97484e-06
0.00224223
1.96113e-05
3.07413e-06
0.00221973
8.43912e-06
4.58213e-06
0.00220275
1.16513e-07
3.08727e-06
0.00218628
-5.0431e-06
4.23864e-06
0.00217384
-6.87159e-06
3.067e-06
0.00215612
-8.69607e-06
3.92553e-06
0.0021475
-6.30352e-06
3.00237e-06
0.00211639
5.78937e-06
3.75959e-06
-1.17439e-05
2.70467e-06
0.00206413
0.00257498
0.000514395
3.15781e-06
0.0027262
0.000329291
-2.90575e-06
0.00282304
0.000286887
2.26811e-06
0.00287546
0.000197619
-2.60846e-06
0.00289603
0.000147383
1.55511e-06
0.00290478
0.000114967
-2.30038e-06
0.00290167
9.20404e-05
9.4498e-07
0.00289737
7.75842e-05
-2.08944e-06
0.00288745
6.53992e-05
4.4288e-07
0.00287694
5.41129e-05
-1.95096e-06
0.00286196
4.18397e-05
1.73006e-08
0.00284719
2.9117e-05
-1.87442e-06
0.00283102
1.75487e-05
-3.54143e-07
0.00281646
8.97212e-06
-1.84363e-06
0.0028028
1.59183e-06
-6.86046e-07
0.0027888
9.75648e-07
-1.85088e-06
0.00277959
-6.82896e-06
-1.01215e-06
0.00276391
2.65678e-06
-1.91278e-06
0.0027721
-9.67258e-06
-1.46127e-06
-2.03272e-05
-2.31105e-06
0.00277433
0.00256375
0.000247313
6.50047e-06
0.00272272
0.000159403
6.5126e-07
0.00284913
0.000145897
5.68435e-06
0.00293439
0.000103119
7.97851e-07
0.00298913
7.91346e-05
4.93447e-06
0.00303103
6.32984e-05
1.0611e-06
0.00305867
5.18327e-05
4.28759e-06
0.00308305
4.45905e-05
1.24001e-06
0.00309985
3.83771e-05
3.7612e-06
0.00311386
3.26227e-05
1.36168e-06
0.00311994
2.60728e-05
3.32153e-06
0.00312176
1.89819e-05
1.42413e-06
0.00311694
1.2156e-05
2.93414e-06
0.00311033
6.7137e-06
1.44015e-06
0.00309964
2.17889e-06
2.59239e-06
0.00309063
7.97455e-07
1.42225e-06
0.0030755
-2.1744e-06
2.2767e-06
0.00306728
8.70066e-07
1.34625e-06
0.00304712
-4.90313e-07
2.032e-06
3.03565e-07
1.06595e-06
0.00301639
0.00254568
-1.76989e-09
4.76262e-06
0.00269582
-1.25472e-10
-1.00221e-06
0.00282881
5.54744e-10
4.00999e-06
0.00292437
1.62523e-09
-8.74755e-07
0.00299165
1.23828e-09
3.26146e-06
0.0030468
3.28732e-09
-6.07753e-07
0.00308766
2.0487e-09
2.62588e-06
0.00312525
5.49551e-09
-4.17397e-07
0.00315506
3.76111e-09
2.10906e-06
0.00318195
8.12936e-09
-2.8733e-07
0.0032001
9.31631e-09
1.67659e-06
0.0032125
1.55957e-08
-2.18359e-07
0.00321611
2.49401e-08
1.29518e-06
0.00321557
5.14155e-08
-1.97005e-07
0.00320929
5.39534e-08
9.57266e-07
0.00320247
1.97314e-07
-2.09711e-07
0.00319143
1.34001e-07
6.36865e-07
0.00318335
6.26988e-07
-2.84986e-07
0.00317306
5.14368e-07
2.76771e-07
1.38985e-06
-6.07037e-07
0.00316339
0.00254568
-0.000247317
4.76262e-06
0.00269582
-0.000159403
-1.00221e-06
0.00282881
-0.000145896
4.00999e-06
0.00292437
-0.000103116
-8.74758e-07
0.00299165
-7.91319e-05
3.26147e-06
0.00304681
-6.32921e-05
-6.07761e-07
0.00308766
-5.18283e-05
2.62588e-06
0.00312525
-4.45799e-05
-4.17414e-07
0.00315506
-3.83692e-05
2.10907e-06
0.00318195
-3.26073e-05
-2.8736e-07
0.0032001
-2.60538e-05
1.67662e-06
0.0032125
-1.89516e-05
-2.18421e-07
0.0032161
-1.21031e-05
1.29526e-06
0.00321557
-6.60955e-06
-1.97104e-07
0.00320927
-2.04996e-06
9.57668e-07
0.00320244
-4.05691e-07
-2.09608e-07
0.00319139
2.465e-06
6.38713e-07
0.00318327
4.13376e-07
-2.84254e-07
0.00317284
1.65242e-06
2.83515e-07
2.57647e-06
-6.0084e-07
0.00316307
0.00256375
-0.000514398
6.50048e-06
0.00272272
-0.000329291
6.51265e-07
0.00284913
-0.000286885
5.68435e-06
0.00293439
-0.000197616
7.97856e-07
0.00298913
-0.00014738
4.93447e-06
0.00303103
-0.000114961
1.06111e-06
0.00305867
-9.2036e-05
4.28759e-06
0.00308305
-7.75743e-05
1.24002e-06
0.00309985
-6.53921e-05
3.76118e-06
0.00311386
-5.40983e-05
1.3617e-06
0.00311994
-4.18231e-05
3.32151e-06
0.00312176
-2.90891e-05
1.42418e-06
0.00311696
-1.7505e-05
2.93405e-06
0.00311036
-8.88164e-06
1.44023e-06
0.0030997
-1.49992e-06
2.59196e-06
0.00309073
-6.20021e-07
1.42211e-06
0.00307568
7.03997e-06
2.27495e-06
0.0030676
-1.50182e-06
1.34542e-06
0.0030478
1.04686e-05
2.02597e-06
2.26758e-05
1.05978e-06
0.00301762
0.00257498
-0.000789445
3.15782e-06
0.0027262
-0.000487882
-2.90575e-06
0.00282304
-0.000394929
2.26811e-06
0.00287546
-0.000255916
-2.60846e-06
0.00289603
-0.000178093
1.55512e-06
0.00290478
-0.00013003
-2.30038e-06
0.00290168
-9.79648e-05
9.44984e-07
0.00289737
-7.84223e-05
-2.08946e-06
0.00288745
-6.24603e-05
4.42888e-07
0.00287695
-4.80542e-05
-1.95099e-06
0.00286196
-3.35682e-05
1.73323e-08
0.0028472
-1.95891e-05
-1.87448e-06
0.00283104
-8.39784e-06
-3.5406e-07
0.00281648
-3.95926e-08
-1.84369e-06
0.00280283
5.13246e-06
-6.85659e-07
0.0027889
7.1626e-06
-1.85069e-06
0.0027797
8.88806e-06
-1.01068e-06
0.00276422
7.26514e-06
-1.91199e-06
0.00277237
-4.96832e-06
-1.4551e-06
1.38303e-05
-2.30682e-06
0.00277488
0.00256799
-0.00106275
8.58242e-06
0.00264863
-0.000581043
2.25601e-06
0.00263145
-0.000394223
7.47799e-06
0.00258539
-0.000220988
2.54459e-06
0.00252667
-0.000134627
6.66701e-06
0.00247353
-8.8039e-05
2.77241e-06
0.00242176
-5.99677e-05
5.98035e-06
0.00237791
-4.4679e-05
2.92348e-06
0.00233572
-3.26113e-05
5.43197e-06
0.00230042
-2.28107e-05
3.02353e-06
0.00226771
-1.31302e-05
4.97482e-06
0.00224225
-4.75516e-06
3.07417e-06
0.00221977
1.80932e-06
4.58206e-06
0.00220281
5.99205e-06
3.08729e-06
0.00218639
9.30571e-06
4.23826e-06
0.00217406
8.21738e-06
3.0669e-06
0.00215646
1.42105e-05
3.92432e-06
0.00214818
4.16461e-06
3.00169e-06
0.00211769
1.34448e-05
3.7556e-06
5.39585e-05
2.69997e-06
0.00206677
0.00224062
-0.00100205
1.83546e-06
0.00203967
-0.000385427
-4.97469e-06
0.00182558
-0.000190073
6.15872e-07
0.00167452
-7.47514e-05
-4.21221e-06
0.00156407
-3.30001e-05
-9.01985e-09
0.00148675
-1.53827e-05
-3.85384e-06
0.00142413
-4.92561e-06
-6.05738e-07
0.00137625
-1.19599e-06
-3.63776e-06
0.0013335
3.17972e-06
-1.10588e-06
0.00130104
4.97223e-06
-3.50269e-06
0.00127281
8.35704e-06
-1.53528e-06
0.00125319
9.95117e-06
-3.42923e-06
0.00123605
1.24497e-05
-1.90805e-06
0.00122389
1.30984e-05
-3.40031e-06
0.00121247
1.447e-05
-2.24399e-06
0.00120176
1.38288e-05
-3.41079e-06
0.00119657
1.35139e-05
-2.57542e-06
0.00118209
1.37244e-05
-3.44855e-06
0.00122449
-3.42337e-05
-3.01453e-06
-9.98036e-06
-3.93271e-06
0.00128427
0.00128917
1.26137e-05
0.000888049
5.18836e-06
0.000677134
1.06777e-05
0.000586623
5.71192e-06
0.000533862
9.82705e-06
0.000502737
5.93761e-06
0.000478959
9.14673e-06
0.000462
6.09822e-06
0.000446919
8.607e-06
0.000436041
6.20328e-06
0.000426616
8.15613e-06
0.000420706
6.26029e-06
0.000415818
7.77101e-06
0.000413105
6.27925e-06
0.000410661
7.43069e-06
0.000408797
6.2636e-06
0.000405841
7.11457e-06
0.000404064
6.21648e-06
0.0003537
6.91352e-06
5.856e-06
0.000328734
0.00189157
0.000421707
2.30715e-06
0.00136695
0.000515494
3.8861e-06
0.00101841
0.000348015
1.35195e-06
0.000834156
0.000177662
2.6605e-06
0.000742148
9.09685e-05
1.40414e-06
0.000685343
5.1122e-05
2.34904e-06
0.000649218
3.4533e-05
1.57172e-06
0.000618204
2.58481e-05
2.11998e-06
0.000596498
1.95581e-05
1.59117e-06
0.000576455
1.51745e-05
1.8911e-06
0.000563041
1.08123e-05
1.57526e-06
0.000550463
7.93548e-06
1.72881e-06
0.000542355
5.14265e-06
1.57672e-06
0.000534129
3.73254e-06
1.64128e-06
0.000528372
2.49715e-06
1.60593e-06
0.000521986
2.0327e-06
1.603e-06
0.000520596
-2.0921e-06
1.66292e-06
0.000506773
9.60403e-06
1.59328e-06
0.00061313
-0.000109909
1.71958e-06
-9.94545e-05
1.79095e-06
0.000707855
0.00239721
0.000321986
7.354e-06
0.00232594
0.000562371
9.1937e-06
0.00219315
0.00046554
6.71725e-06
0.00204846
0.000301271
8.03446e-06
0.00193007
0.000194014
6.64503e-06
0.00183146
0.000129973
7.66495e-06
0.00175597
9.48792e-05
6.77215e-06
0.00169078
7.24598e-05
7.40801e-06
0.00164034
5.44911e-05
6.80212e-06
0.00159655
4.05329e-05
7.16188e-06
0.00156441
2.66951e-05
6.78988e-06
0.00153712
1.67637e-05
6.98156e-06
0.0015177
7.69269e-06
6.80273e-06
0.00150007
2.79496e-06
6.88413e-06
0.00148575
-6.63117e-07
6.85098e-06
0.00147306
-3.91306e-06
6.8416e-06
0.00145705
-3.93866e-06
6.9324e-06
0.0014554
-7.22881e-06
6.82231e-06
0.00137524
-4.79277e-05
7.08946e-06
-2.78874e-05
7.10366e-06
0.00128466
0.00242172
0.000208529
3.10138e-06
0.00254136
0.000429686
5.12447e-06
0.00259552
0.000407582
2.30197e-06
0.00258588
0.000300766
4.03545e-06
0.00255534
0.000220229
2.28949e-06
0.00251246
0.000163519
3.68711e-06
0.00247394
0.000129154
2.50785e-06
0.00243396
0.000104859
3.45824e-06
0.00239936
8.50652e-05
2.63183e-06
0.00236455
6.81196e-05
3.22867e-06
0.00233575
5.04337e-05
2.69041e-06
0.00230896
3.59873e-05
3.05144e-06
0.00228848
2.22568e-05
2.74813e-06
0.00226898
1.44842e-05
2.95272e-06
0.00225475
6.78313e-06
2.83175e-06
0.00223675
5.79529e-06
2.91549e-06
0.00222945
-4.22748e-06
2.9325e-06
0.00220635
7.38027e-06
2.92545e-06
0.00222062
-6.98297e-05
2.96979e-06
-4.93077e-05
3.12499e-06
0.00223337
0.00237352
0.000134853
6.22677e-06
0.00250714
0.000274917
8.10974e-06
0.00263343
0.000268923
5.73473e-06
0.00270611
0.000209776
7.11781e-06
0.00275135
0.000162103
5.67508e-06
0.00277063
0.000126609
6.70996e-06
0.00278274
0.000104268
5.78563e-06
0.00278433
8.77228e-05
6.44685e-06
0.00278379
7.37047e-05
5.83043e-06
0.0027761
6.11048e-05
6.21261e-06
0.00276669
4.70685e-05
5.82865e-06
0.0027528
3.46429e-05
6.03053e-06
0.0027392
2.21248e-05
5.83792e-06
0.00272424
1.39883e-05
5.92736e-06
0.00270998
6.51944e-06
5.88655e-06
0.00269634
3.36248e-06
5.88773e-06
0.00267851
-2.07555e-06
5.96825e-06
0.00266847
7.26624e-07
5.88897e-06
0.00261563
-3.34811e-05
6.12766e-06
-4.31082e-06
6.1487e-06
0.00255347
0.00237557
6.44202e-05
4.18542e-06
0.00249959
0.000135252
6.15598e-06
0.00262633
0.000135373
3.60536e-06
0.00271518
0.000107974
5.16072e-06
0.0027838
8.60576e-05
3.55473e-06
0.00282894
6.907e-05
4.74113e-06
0.00286742
5.83079e-05
3.71126e-06
0.0028947
5.01253e-05
4.48968e-06
0.00291868
4.32971e-05
3.80008e-06
0.00293345
3.70764e-05
4.26937e-06
0.00294337
2.9882e-05
3.82844e-06
0.00294496
2.31709e-05
4.093e-06
0.00294274
1.5947e-05
3.85606e-06
0.00293542
1.11762e-05
3.99223e-06
0.00292681
6.02459e-06
3.91854e-06
0.0029145
4.96215e-06
3.95637e-06
0.00290291
-8.76955e-07
4.00324e-06
0.00288755
4.4234e-06
3.97318e-06
0.00286692
-2.40649e-05
4.07036e-06
-9.81553e-06
4.17403e-06
0.00286026
0.00236685
-1.384e-09
5.19618e-06
0.00248387
-1.08319e-09
7.11296e-06
0.00260967
-1.51721e-09
4.71258e-06
0.00270203
-9.82141e-10
6.15634e-06
0.0027779
-1.40578e-09
4.64851e-06
0.0028319
9.31772e-10
5.73062e-06
0.00288
-3.09759e-10
4.76632e-06
0.00291716
3.00869e-09
5.47133e-06
0.00295138
-2.54125e-12
4.83307e-06
0.00297664
5.00598e-09
5.25048e-06
0.00299666
4.39538e-09
4.84829e-06
0.00300734
1.51987e-08
5.07288e-06
0.00301224
2.07903e-08
4.86389e-06
0.00301064
5.6938e-08
4.9702e-06
0.00300493
6.2995e-08
4.91783e-06
0.00299647
1.87818e-07
4.93381e-06
0.0029824
2.12575e-07
4.99923e-06
0.002972
5.35075e-07
4.94722e-06
0.00293302
7.70045e-07
5.11809e-06
1.3826e-06
5.17285e-06
0.00290683
0.00236685
-6.44229e-05
5.19618e-06
0.00248387
-0.000135255
7.11296e-06
0.00260967
-0.000135376
4.71258e-06
0.00270203
-0.000107976
6.15634e-06
0.0027779
-8.60604e-05
4.64851e-06
0.0028319
-6.90682e-05
5.73062e-06
0.00288
-5.83088e-05
4.76632e-06
0.00291716
-5.01191e-05
5.47133e-06
0.00295138
-4.32977e-05
4.83307e-06
0.00297664
-3.70653e-05
5.25049e-06
0.00299666
-2.98744e-05
4.84827e-06
0.00300733
-2.31377e-05
5.07292e-06
0.00301224
-1.59104e-05
4.86386e-06
0.00301063
-1.1056e-05
4.97031e-06
0.00300495
-5.92394e-06
4.91771e-06
0.00299651
-4.6009e-06
4.93394e-06
0.0029825
1.24754e-06
4.99835e-06
0.00297222
-3.48517e-06
4.94701e-06
0.00293343
2.54372e-05
5.11424e-06
1.23837e-05
5.16942e-06
0.00290744
0.00237557
-0.000134855
4.18542e-06
0.00249959
-0.000274918
6.15598e-06
0.00262633
-0.000268926
3.60536e-06
0.00271518
-0.000209778
5.16072e-06
0.0027838
-0.000162106
3.55473e-06
0.00282894
-0.000126608
4.74113e-06
0.00286742
-0.000104269
3.71126e-06
0.0028947
-8.77179e-05
4.48967e-06
0.00291868
-7.37048e-05
3.80009e-06
0.00293346
-6.10955e-05
4.26936e-06
0.00294337
-4.70607e-05
3.82846e-06
0.00294496
-3.46146e-05
4.09295e-06
0.00294275
-2.20884e-05
3.85608e-06
0.00293545
-1.38845e-05
3.99211e-06
0.00292682
-6.41017e-06
3.91862e-06
0.00291454
-3.02496e-06
3.9562e-06
0.00290294
2.45316e-06
4.00395e-06
0.00288757
2.23879e-07
3.97325e-06
0.00286691
3.48675e-05
4.07365e-06
6.84259e-06
4.17675e-06
0.00286028
0.00237352
-0.000208531
6.22677e-06
0.00250714
-0.000429687
8.10973e-06
0.00263343
-0.000407584
5.73473e-06
0.00270611
-0.000300768
7.11781e-06
0.00275135
-0.000220231
5.67508e-06
0.00277063
-0.000163519
6.70996e-06
0.00278274
-0.000129155
5.78563e-06
0.00278433
-0.000104855
6.44686e-06
0.0027838
-8.50652e-05
5.83042e-06
0.0027761
-6.81114e-05
6.21263e-06
0.00276669
-5.04271e-05
5.82863e-06
0.00275281
-3.59618e-05
6.03057e-06
0.00273922
-2.22284e-05
5.83788e-06
0.00272426
-1.4393e-05
5.92742e-06
0.00271005
-6.71152e-06
5.88641e-06
0.00269647
-5.51332e-06
5.88776e-06
0.00267875
4.48674e-06
5.96744e-06
0.00266893
-6.642e-06
5.88861e-06
0.00261648
7.08248e-05
6.12396e-06
5.11507e-05
6.14613e-06
0.00255504
0.00242172
-0.000321987
3.10138e-06
0.00254136
-0.000562372
5.12447e-06
0.00259552
-0.000465541
2.30197e-06
0.00258588
-0.000301272
4.03545e-06
0.00255534
-0.000194015
2.2895e-06
0.00251246
-0.000129973
3.6871e-06
0.00247394
-9.48791e-05
2.50785e-06
0.00243396
-7.2458e-05
3.45824e-06
0.00239936
-5.44894e-05
2.63183e-06
0.00236455
-4.05286e-05
3.22867e-06
0.00233575
-2.66879e-05
2.6904e-06
0.00230898
-1.67496e-05
3.05141e-06
0.0022885
-7.66813e-06
2.74812e-06
0.00226904
-2.74053e-06
2.95261e-06
0.00225482
7.27515e-07
2.83183e-06
0.00223691
4.09799e-06
2.91529e-06
0.00222964
4.16489e-06
2.93298e-06
0.0022068
7.72163e-06
2.92539e-06
0.00222117
4.87944e-05
2.97168e-06
2.92812e-05
3.12622e-06
0.00223441
0.00239721
-0.000421708
7.354e-06
0.00232594
-0.000515494
9.1937e-06
0.00219315
-0.000348015
6.71725e-06
0.00204846
-0.000177662
8.03446e-06
0.00193007
-9.09683e-05
6.64503e-06
0.00183146
-5.11213e-05
7.66495e-06
0.00175597
-3.45321e-05
6.77215e-06
0.00169078
-2.58465e-05
7.40802e-06
0.00164035
-1.95563e-05
6.80212e-06
0.00159655
-1.51718e-05
7.1619e-06
0.00156442
-1.0808e-05
6.78985e-06
0.00153714
-7.92897e-06
6.98162e-06
0.00151773
-5.13138e-06
6.80266e-06
0.00150013
-3.70832e-06
6.88422e-06
0.00148586
-2.47402e-06
6.8508e-06
0.00147326
-1.95401e-06
6.84165e-06
0.00145744
2.1529e-06
6.93182e-06
0.00145604
-9.37265e-06
6.82217e-06
0.00137674
0.000109914
7.08682e-06
9.94505e-05
7.10325e-06
0.00128766
0.00189157
2.30716e-06
0.00136695
3.8861e-06
0.00101841
1.35196e-06
0.000834156
2.6605e-06
0.000742149
1.40414e-06
0.000685344
2.34904e-06
0.000649219
1.57172e-06
0.000618205
2.11998e-06
0.0005965
1.59118e-06
0.000576458
1.89109e-06
0.000563049
1.57526e-06
0.000550476
1.72878e-06
0.00054238
1.57672e-06
0.000534177
1.64125e-06
0.000528445
1.60589e-06
0.000522134
1.60293e-06
0.00052081
1.66277e-06
0.000507212
1.59317e-06
0.000613569
1.71939e-06
1.78992e-06
0.000708453
0.00213256
0.000172479
-9.65254e-11
0.00187668
0.000249633
-9.62214e-11
0.00160513
0.000263546
-9.61055e-11
0.00136677
0.000231976
-9.62511e-11
0.00117441
0.000185118
-9.47641e-11
0.00103318
0.000135205
-9.51971e-11
0.000936717
8.97237e-05
-9.40403e-11
0.000878113
5.23672e-05
-9.47416e-11
0.000843588
2.76892e-05
-9.36975e-11
0.000823914
1.30827e-05
-9.44218e-11
0.00081078
6.19713e-06
-9.32651e-11
0.000800898
3.08891e-06
-9.43475e-11
0.000792577
1.38877e-06
-9.27984e-11
0.000784084
1.67094e-06
-9.35961e-11
0.000778139
-8.52114e-07
-9.21571e-11
0.000768427
3.01391e-06
-9.32505e-11
0.000766817
-4.95691e-06
-9.25242e-11
0.00075256
7.73748e-06
-9.34848e-11
0.000760085
-1.38619e-05
-9.28794e-11
-1.96413e-05
-9.36958e-11
0.000773405
0.00235814
0.000124302
-9.67111e-11
0.00239238
0.000214558
-9.66717e-11
0.00238872
0.000265033
-9.63195e-11
0.00235419
0.000265849
-9.66353e-11
0.0022988
0.000238569
-9.52327e-11
0.00223736
0.000196272
-9.54961e-11
0.00217607
0.000150455
-9.48342e-11
0.00212124
0.000107632
-9.59452e-11
0.00207432
7.43611e-05
-9.43337e-11
0.00203733
4.99051e-05
-9.39512e-11
0.00200935
3.33965e-05
-9.22917e-11
0.0019888
2.28397e-05
-9.38155e-11
0.00197387
1.51084e-05
-9.2961e-11
0.0019616
1.2563e-05
-9.39243e-11
0.00195319
5.95541e-06
-9.21085e-11
0.00194326
1.12937e-05
-9.26175e-11
0.00193961
-2.78265e-06
-9.14816e-11
0.00192802
1.791e-05
-9.2437e-11
0.0019291
-1.58604e-05
-9.20476e-11
1.41979e-05
-9.29662e-11
0.00189444
0.00234615
8.38427e-05
-9.67632e-11
0.00240533
0.000150487
-9.708e-11
0.00246794
0.000195931
-9.67472e-11
0.00252367
0.000205502
-9.66072e-11
0.0025624
0.000193344
-9.49443e-11
0.00258646
0.000167521
-9.59502e-11
0.00259625
0.000135711
-9.66467e-11
0.00259642
0.000104265
-9.83832e-11
0.00258904
7.79043e-05
-9.59414e-11
0.00257773
5.7667e-05
-9.42156e-11
0.00256442
4.22158e-05
-9.15473e-11
0.00255128
3.16216e-05
-9.32484e-11
0.00253969
2.18409e-05
-9.31712e-11
0.00252945
1.78441e-05
-9.46379e-11
0.0025219
7.9965e-06
-9.24301e-11
0.00251436
1.30062e-05
-9.21684e-11
0.00251001
-4.44873e-06
-9.05885e-11
0.00250352
1.84291e-05
-9.16878e-11
0.0025017
-1.97438e-05
-9.18929e-11
2.22161e-05
-9.37231e-11
0.00248842
0.00233612
5.65335e-05
-9.66472e-11
0.00238535
9.93645e-05
-9.69904e-11
0.00244917
0.000129081
-9.66908e-11
0.00251676
0.000136371
-9.64712e-11
0.0025767
0.000130229
-9.49215e-11
0.00262754
0.000114915
-9.60621e-11
0.00266616
9.53765e-05
-9.6706e-11
0.00269466
7.5632e-05
-9.84261e-11
0.0027132
5.89214e-05
-9.60536e-11
0.00272447
4.6032e-05
-9.41651e-11
0.00272954
3.59168e-05
-9.14095e-11
0.00273114
2.87275e-05
-9.33703e-11
0.00272998
2.13728e-05
-9.38954e-11
0.00272806
1.80093e-05
-9.55099e-11
0.00272403
9.78418e-06
-9.30858e-11
0.00272128
1.29647e-05
-9.21197e-11
0.00271465
-9.51346e-07
-8.98959e-11
0.0027137
1.60666e-05
-9.10434e-11
0.00270329
-1.2285e-05
-9.14125e-11
2.4795e-05
-9.39486e-11
0.00269813
0.00233672
2.65836e-05
-9.6974e-11
0.00238407
4.81652e-05
-9.72725e-11
0.00244445
6.35492e-05
-9.67577e-11
0.00250997
6.73436e-05
-9.6624e-11
0.00257041
6.44835e-05
-9.53073e-11
0.00262444
5.71408e-05
-9.63241e-11
0.00266845
4.75771e-05
-9.62734e-11
0.00270404
3.7992e-05
-9.7428e-11
0.00273065
2.98784e-05
-9.49818e-11
0.00275057
2.38269e-05
-9.42227e-11
0.00276424
1.90397e-05
-9.20778e-11
0.00277401
1.57134e-05
-9.38798e-11
0.00277988
1.19228e-05
-9.37742e-11
0.00278405
1.02159e-05
-9.51575e-11
0.0027842
5.50902e-06
-9.2826e-11
0.00278532
7.19019e-06
-9.23075e-11
0.00277992
-6.68278e-07
-9.03524e-11
0.00278213
8.52342e-06
-9.14604e-11
0.00277139
-6.72024e-06
-9.18655e-11
1.28239e-05
-9.42593e-11
0.00277866
0.00233437
-1.46964e-09
-9.69766e-11
0.00237965
-1.04782e-09
-9.70951e-11
0.00243915
-1.54178e-09
-9.65936e-11
0.00250398
-3.94164e-10
-9.65057e-11
0.00256425
-1.55099e-09
-9.53836e-11
0.00261864
1.78578e-09
-9.61474e-11
0.00266351
-1.21268e-09
-9.55349e-11
0.00270043
4.2749e-09
-9.62186e-11
0.00272892
-1.41489e-09
-9.39414e-11
0.00275144
6.84418e-09
-9.40716e-11
0.00276828
1.12446e-09
-9.25571e-11
0.00278171
1.68196e-08
-9.41486e-11
0.00279105
9.03781e-09
-9.35412e-11
0.00279857
5.75285e-08
-9.44216e-11
0.00280096
2.42654e-08
-9.2376e-11
0.00280431
1.88119e-07
-9.24734e-11
0.00279943
1.04686e-07
-9.11954e-11
0.00280307
4.97578e-07
-9.24402e-11
0.00279164
5.29389e-07
-9.24733e-11
1.10668e-06
-9.40214e-11
0.00279959
0.00233437
-2.65864e-05
-9.72293e-11
0.00237965
-4.81672e-05
-9.73975e-11
0.00243915
-6.35522e-05
-9.68254e-11
0.00250398
-6.73443e-05
-9.68134e-11
0.00256425
-6.44866e-05
-9.56185e-11
0.00261864
-5.71373e-05
-9.65204e-11
0.00266351
-4.75797e-05
-9.55592e-11
0.00270043
-3.79834e-05
-9.59864e-11
0.00272892
-2.98817e-05
-9.39591e-11
0.00275144
-2.38128e-05
-9.43039e-11
0.00276828
-1.90384e-05
-9.29874e-11
0.00278171
-1.5679e-05
-9.45e-11
0.00279105
-1.19069e-05
-9.30278e-11
0.00279858
-1.01e-05
-9.36764e-11
0.00280097
-5.4665e-06
-9.18737e-11
0.00280432
-6.81569e-06
-9.30181e-11
0.00279945
8.61143e-07
-9.24979e-11
0.00280311
-7.54832e-06
-9.41242e-11
0.00279173
7.73005e-06
-9.40175e-11
-1.06808e-05
-9.48498e-11
0.00279975
0.00233672
-5.65361e-05
-9.72317e-11
0.00238407
-9.93662e-05
-9.72388e-11
0.00244445
-0.000129083
-9.66915e-11
0.00250997
-0.000136371
-9.67346e-11
0.00257041
-0.000130231
-9.57016e-11
0.00262444
-0.000114912
-9.63119e-11
0.00266845
-9.53791e-05
-9.47612e-11
0.00270404
-7.5624e-05
-9.4755e-11
0.00273065
-5.89247e-05
-9.30033e-11
0.00275057
-4.60183e-05
-9.42427e-11
0.00276424
-3.59158e-05
-9.35542e-11
0.00277402
-2.86943e-05
-9.47613e-11
0.00277989
-2.13584e-05
-9.27257e-11
0.00278406
-1.78986e-05
-9.2892e-11
0.00278422
-9.74606e-06
-9.15053e-11
0.00278534
-1.26017e-05
-9.33269e-11
0.00277997
1.12402e-06
-9.34739e-11
0.00278219
-1.51054e-05
-9.51437e-11
0.00277153
1.32228e-05
-9.45736e-11
-2.26913e-05
-9.44846e-11
0.00277884
0.00233612
-8.38446e-05
-9.75616e-11
0.00238535
-0.000150488
-9.74682e-11
0.00244917
-0.000195933
-9.6749e-11
0.00251676
-0.000205503
-9.69156e-11
0.0025767
-0.000193347
-9.61078e-11
0.00262754
-0.000167518
-9.64594e-11
0.00266616
-0.000135713
-9.41324e-11
0.00269466
-0.000104258
-9.36027e-11
0.00271321
-7.79076e-05
-9.19742e-11
0.00272447
-5.76539e-05
-9.45514e-11
0.00272955
-4.22161e-05
-9.44231e-11
0.00273114
-3.159e-05
-9.53042e-11
0.00272999
-2.18315e-05
-9.24403e-11
0.00272808
-1.77411e-05
-9.24345e-11
0.00272406
-7.97322e-06
-9.13979e-11
0.00272133
-1.26675e-05
-9.38776e-11
0.00271476
4.56951e-06
-9.42713e-11
0.00271388
-1.75401e-05
-9.57854e-11
0.00270364
2.05025e-05
-9.49668e-11
-2.04041e-05
-9.4588e-11
0.00269878
0.00234615
-0.000124304
-9.74771e-11
0.00240533
-0.000214559
-9.73883e-11
0.00246794
-0.000265034
-9.67214e-11
0.00252367
-0.00026585
-9.68893e-11
0.0025624
-0.000238571
-9.6199e-11
0.00258646
-0.000196271
-9.64847e-11
0.00259625
-0.000150456
-9.38818e-11
0.00259642
-0.000107627
-9.33546e-11
0.00258904
-7.43626e-05
-9.21682e-11
0.00257773
-4.98958e-05
-9.49309e-11
0.00256443
-3.33956e-05
-9.47824e-11
0.00255129
-2.28157e-05
-9.54619e-11
0.00253971
-1.51009e-05
-9.28517e-11
0.00252949
-1.24827e-05
-9.30385e-11
0.00252195
-5.94058e-06
-9.21643e-11
0.00251447
-1.10208e-05
-9.42451e-11
0.00251017
2.86048e-06
-9.4037e-11
0.00250384
-1.71798e-05
-9.53847e-11
0.00250218
1.64417e-05
-9.441e-11
-1.28357e-05
-9.45634e-11
0.00248938
0.00235814
-0.00017248
-9.75518e-11
0.00239238
-0.000249633
-9.77437e-11
0.00238872
-0.000263546
-9.70594e-11
0.00235419
-0.000231976
-9.69034e-11
0.0022988
-0.000185118
-9.61735e-11
0.00223736
-0.000135205
-9.70909e-11
0.00217607
-8.97231e-05
-9.55201e-11
0.00212125
-5.23658e-05
-9.55356e-11
0.00207432
-2.76877e-05
-9.38281e-11
0.00203733
-1.30798e-05
-9.57003e-11
0.00200935
-6.1934e-06
-9.45326e-11
0.00198882
-3.07911e-06
-9.49334e-11
0.0019739
-1.38135e-06
-9.27024e-11
0.00196166
-1.63162e-06
-9.35063e-11
0.00195326
8.60989e-07
-9.26464e-11
0.00194345
-2.86686e-06
-9.43135e-11
0.00193985
4.98316e-06
-9.36887e-11
0.0019286
-7.33695e-06
-9.49802e-11
0.00192995
1.41471e-05
-9.43084e-11
1.99853e-05
-9.54123e-11
0.00189639
0.00213256
-9.77656e-11
0.00187668
-9.81394e-11
0.00160513
-9.71013e-11
0.00136677
-9.73606e-11
0.00117441
-9.69687e-11
0.00103318
-9.7469e-11
0.000936718
-9.6037e-11
0.000878114
-9.64425e-11
0.00084359
-9.45306e-11
0.000823918
-9.54434e-11
0.000810788
-9.36626e-11
0.000800915
-9.43016e-11
0.000792604
-9.28402e-11
0.000784145
-9.40657e-11
0.000778217
-9.3122e-11
0.000768638
-9.4127e-11
0.000767075
-9.30139e-11
0.000753195
-9.40747e-11
0.000761011
-9.34646e-11
-9.48382e-11
0.000774851
0.00213256
0.000172479
-2.3073e-06
0.00187668
0.000249633
-3.88628e-06
0.00160513
0.000263546
-1.35213e-06
0.00136677
0.000231975
-2.66068e-06
0.00117441
0.000185118
-1.40432e-06
0.00103318
0.000135205
-2.34922e-06
0.000936717
8.97233e-05
-1.57187e-06
0.000878113
5.23667e-05
-2.12016e-06
0.000843588
2.76887e-05
-1.59132e-06
0.000823913
1.30823e-05
-1.89127e-06
0.00081078
6.1968e-06
-1.57541e-06
0.000800898
3.08868e-06
-1.72897e-06
0.000792577
1.38862e-06
-1.57688e-06
0.000784083
1.67087e-06
-1.64144e-06
0.000778139
-8.52145e-07
-1.60609e-06
0.000768427
3.01388e-06
-1.60316e-06
0.000766816
-4.95697e-06
-1.66308e-06
0.00075256
7.73739e-06
-1.59344e-06
0.000760085
-1.3862e-05
-1.71975e-06
-1.96414e-05
-1.79113e-06
0.000773405
0.00235814
0.000124302
-7.35419e-06
0.00239238
0.000214558
-9.1939e-06
0.00238872
0.000265033
-6.71744e-06
0.00235419
0.00026585
-8.03466e-06
0.0022988
0.00023857
-6.64522e-06
0.00223736
0.000196272
-7.66516e-06
0.00217607
0.000150455
-6.77235e-06
0.00212124
0.000107632
-7.40821e-06
0.00207432
7.43612e-05
-6.80232e-06
0.00203733
4.99054e-05
-7.16208e-06
0.00200935
3.33969e-05
-6.79008e-06
0.0019888
2.28402e-05
-6.98176e-06
0.00197387
1.51089e-05
-6.80293e-06
0.0019616
1.25636e-05
-6.88433e-06
0.00195319
5.9561e-06
-6.85118e-06
0.00194325
1.12944e-05
-6.84179e-06
0.00193961
-2.78193e-06
-6.9326e-06
0.00192802
1.79107e-05
-6.82251e-06
0.0019291
-1.58598e-05
-7.08966e-06
1.41985e-05
-7.10386e-06
0.00189444
0.00234615
8.38426e-05
-3.10155e-06
0.00240533
0.000150487
-5.12465e-06
0.00246794
0.000195931
-2.30214e-06
0.00252367
0.000205503
-4.03564e-06
0.0025624
0.000193345
-2.28967e-06
0.00258646
0.000167521
-3.68729e-06
0.00259625
0.000135711
-2.50803e-06
0.00259642
0.000104265
-3.45843e-06
0.00258904
7.79048e-05
-2.63201e-06
0.00257773
5.76678e-05
-3.22886e-06
0.00256442
4.22167e-05
-2.69059e-06
0.00255128
3.16225e-05
-3.05162e-06
0.00253969
2.18417e-05
-2.74831e-06
0.00252945
1.78449e-05
-2.9529e-06
0.0025219
7.99738e-06
-2.83193e-06
0.00251436
1.30072e-05
-2.91568e-06
0.00251001
-4.44776e-06
-2.93269e-06
0.00250352
1.843e-05
-2.92563e-06
0.0025017
-1.97431e-05
-2.96997e-06
2.22166e-05
-3.12517e-06
0.00248842
0.00233612
5.65335e-05
-6.22695e-06
0.00238535
9.93645e-05
-8.10993e-06
0.00244917
0.000129081
-5.73492e-06
0.00251676
0.000136371
-7.11801e-06
0.0025767
0.000130229
-5.67527e-06
0.00262754
0.000114915
-6.71015e-06
0.00266616
9.53765e-05
-5.78582e-06
0.00269466
7.56322e-05
-6.44705e-06
0.0027132
5.89221e-05
-5.83063e-06
0.00272447
4.60331e-05
-6.21281e-06
0.00272954
3.59181e-05
-5.82885e-06
0.00273114
2.87288e-05
-6.03072e-06
0.00272998
2.13738e-05
-5.83812e-06
0.00272806
1.80102e-05
-5.92755e-06
0.00272403
9.7852e-06
-5.88674e-06
0.00272128
1.29659e-05
-5.88793e-06
0.00271465
-9.50227e-07
-5.96845e-06
0.00271369
1.60675e-05
-5.88916e-06
0.00270329
-1.22844e-05
-6.12786e-06
2.47953e-05
-6.1489e-06
0.00269813
0.00233672
2.65835e-05
-4.18561e-06
0.00238407
4.81653e-05
-6.15617e-06
0.00244445
6.35495e-05
-3.60555e-06
0.00250997
6.73441e-05
-5.16091e-06
0.00257041
6.4484e-05
-3.55491e-06
0.00262444
5.7141e-05
-4.74132e-06
0.00266845
4.75769e-05
-3.71144e-06
0.00270404
3.79921e-05
-4.48987e-06
0.00273065
2.98792e-05
-3.80027e-06
0.00275057
2.38283e-05
-4.26956e-06
0.00276424
1.90413e-05
-3.82863e-06
0.00277401
1.57148e-05
-4.09319e-06
0.00277988
1.19239e-05
-3.85624e-06
0.00278405
1.02169e-05
-3.99242e-06
0.0027842
5.51014e-06
-3.91872e-06
0.00278532
7.19148e-06
-3.95656e-06
0.00277992
-6.6703e-07
-4.00342e-06
0.00278213
8.52429e-06
-3.97337e-06
0.00277139
-6.71974e-06
-4.07055e-06
1.28238e-05
-4.17422e-06
0.00277866
0.00233437
-1.54294e-09
-5.19637e-06
0.00237965
-9.52034e-10
-7.11316e-06
0.00243915
-1.2475e-09
-4.71277e-06
0.00250398
1.44968e-10
-6.15653e-06
0.00256425
-1.06222e-09
-4.6487e-06
0.00261864
1.90688e-09
-5.73081e-06
0.00266351
-1.40521e-09
-4.76651e-06
0.00270043
4.34507e-09
-5.47152e-06
0.00272892
-6.38181e-10
-4.83327e-06
0.00275144
8.30442e-09
-5.25067e-06
0.00276828
2.80205e-09
-4.84848e-06
0.00278171
1.82657e-08
-5.07307e-06
0.00279105
1.01447e-08
-4.86408e-06
0.00279857
5.85375e-08
-4.97039e-06
0.00280096
2.54484e-08
-4.91803e-06
0.00280431
1.89482e-07
-4.934e-06
0.00279943
1.05986e-07
-4.99943e-06
0.00280306
4.98462e-07
-4.94741e-06
0.00279164
5.29851e-07
-5.11829e-06
1.10655e-06
-5.17304e-06
0.00279959