/*--------------------------------*- C++ -*----------------------------------*\
  =========                 |
  \\      /  F ield         | OpenFOAM: The Open Source CFD Toolbox
   \\    /   O peration     | Website:  https://openfoam.org
    \\  /    A nd           | Version:  7
     \\/     M anipulation  |
\*---------------------------------------------------------------------------*/
FoamFile
{
    version     2.0;
    format      ascii;
    class       volVectorField;
    location    "0.215";
    object      UMean;
}
// * * * * * * * * * * * * * * * * * * * * * * * * * * * * * * * * * * * * * //

dimensions      [0 1 -1 0 0 0 0];

internalField   nonuniform List<vector> 
400
(
(0.0747143 0.0113758 0)
(0.0633249 0.0100589 0)
(0.0470909 0.00523075 0)
(0.0351892 0.00271172 0)
(0.028029 0.00152875 0)
(0.0236042 0.000885708 0)
(0.0207399 0.00052053 0)
(0.0188477 0.000313773 0)
(0.0175816 0.000194179 0)
(0.0167251 0.00012238 0)
(0.0161421 7.77678e-05 0)
(0.0157454 4.9291e-05 0)
(0.0154773 3.0746e-05 0)
(0.015299 1.84909e-05 0)
(0.0151835 1.03025e-05 0)
(0.0151121 4.78536e-06 0)
(0.0150718 1.08052e-06 0)
(0.0150531 -1.25286e-06 0)
(0.0150483 -2.33606e-06 0)
(0.0150509 -2.52575e-06 0)
(0.1003 0.0245746 0)
(0.0992864 0.0295583 0)
(0.0888615 0.0221317 0)
(0.0771362 0.0150867 0)
(0.0676288 0.0100673 0)
(0.0604577 0.00670178 0)
(0.0551529 0.00449138 0)
(0.0512848 0.00304063 0)
(0.0484934 0.00207681 0)
(0.0464925 0.00142594 0)
(0.0450674 0.000979694 0)
(0.0440602 0.000670092 0)
(0.043356 0.000453498 0)
(0.042871 0.000301153 0)
(0.0425444 0.000193634 0)
(0.0423319 0.000117651 0)
(0.0422014 6.42439e-05 0)
(0.0421294 2.78779e-05 0)
(0.0420967 5.84252e-06 0)
(0.0420873 -3.3837e-06 0)
(0.101819 0.0202667 0)
(0.106702 0.0314521 0)
(0.104852 0.0291101 0)
(0.0992626 0.0233629 0)
(0.0927676 0.0176758 0)
(0.0867168 0.0129878 0)
(0.0815938 0.009406 0)
(0.0774881 0.00676311 0)
(0.0743107 0.00484061 0)
(0.0719093 0.00344879 0)
(0.0701269 0.00244239 0)
(0.0688243 0.00171498 0)
(0.067887 0.00118954 0)
(0.0672242 0.000810386 0)
(0.0667654 0.000537131 0)
(0.0664574 0.000340541 0)
(0.0662601 0.000199921 0)
(0.0661436 0.000101634 0)
(0.0660834 3.82556e-05 0)
(0.0660587 7.02104e-06 0)
(0.101297 0.0144593 0)
(0.107152 0.0275426 0)
(0.109905 0.0298025 0)
(0.109479 0.0269543 0)
(0.107021 0.0223721 0)
(0.103715 0.0176891 0)
(0.100334 0.0135773 0)
(0.0972757 0.0102202 0)
(0.094699 0.00758456 0)
(0.0926249 0.00556239 0)
(0.0910092 0.00403367 0)
(0.0897823 0.00289003 0)
(0.0888709 0.00204134 0)
(0.0882081 0.00141562 0)
(0.0877372 0.000956645 0)
(0.0874122 0.000621433 0)
(0.0871973 0.000378109 0)
(0.0870647 0.000204661 0)
(0.0869916 8.85271e-05 0)
(0.0869576 2.66752e-05 0)
(0.100879 0.0103753 0)
(0.106049 0.0224626 0)
(0.110623 0.0269563 0)
(0.113376 0.0265345 0)
(0.114252 0.0236032 0)
(0.113834 0.0197555 0)
(0.112724 0.0158859 0)
(0.111355 0.0124187 0)
(0.109989 0.00950305 0)
(0.108764 0.00714587 0)
(0.107734 0.00529037 0)
(0.106906 0.00385771 0)
(0.106262 0.00276764 0)
(0.105776 0.00194768 0)
(0.10542 0.00133627 0)
(0.105165 0.000883396 0)
(0.104991 0.000550205 0)
(0.10488 0.000308742 0)
(0.104815 0.000142643 0)
(0.104782 4.98524e-05 0)
(0.100577 0.00742595 0)
(0.104823 0.0174643 0)
(0.109843 0.0224762 0)
(0.114254 0.0235158 0)
(0.117408 0.0220413 0)
(0.119358 0.0192856 0)
(0.120398 0.0160969 0)
(0.120833 0.0129799 0)
(0.120905 0.0101909 0)
(0.120786 0.00782818 0)
(0.120586 0.0058999 0)
(0.120367 0.00436815 0)
(0.120163 0.00317608 0)
(0.119989 0.00226291 0)
(0.119847 0.00157173 0)
(0.119738 0.00105316 0)
(0.119658 0.000667005 0)
(0.119601 0.000383246 0)
(0.119565 0.000184033 0)
(0.119545 6.90313e-05 0)
(0.100382 0.00518324 0)
(0.103856 0.0129024 0)
(0.108755 0.0174298 0)
(0.113895 0.0190544 0)
(0.118426 0.0185674 0)
(0.12207 0.016804 0)
(0.124842 0.0144373 0)
(0.12687 0.0119305 0)
(0.128314 0.00956232 0)
(0.12932 0.0074741 0)
(0.13001 0.00571644 0)
(0.130477 0.00428597 0)
(0.130788 0.00315099 0)
(0.130992 0.00226783 0)
(0.131121 0.00159068 0)
(0.131201 0.001077 0)
(0.131245 0.000690527 0)
(0.131267 0.000403305 0)
(0.131275 0.000198534 0)
(0.131275 7.75398e-05 0)
(0.10027 0.00341369 0)
(0.103191 0.00882556 0)
(0.107811 0.0123186 0)
(0.113192 0.0138826 0)
(0.118477 0.0139054 0)
(0.123216 0.0128953 0)
(0.127227 0.0113165 0)
(0.130485 0.00952356 0)
(0.133052 0.00775276 0)
(0.135025 0.0061404 0)
(0.136511 0.0047497 0)
(0.137612 0.00359598 0)
(0.138412 0.00266645 0)
(0.138984 0.00193411 0)
(0.139384 0.00136679 0)
(0.139655 0.000932607 0)
(0.13983 0.000603277 0)
(0.139935 0.00035638 0)
(0.13999 0.000178368 0)
(0.140014 7.14651e-05 0)
(0.10021 0.00194188 0)
(0.102784 0.00513681 0)
(0.107155 0.00731577 0)
(0.112572 0.00840396 0)
(0.118228 0.0085676 0)
(0.123597 0.00807208 0)
(0.128385 0.00718331 0)
(0.132461 0.00611898 0)
(0.135807 0.00503359 0)
(0.138475 0.00402275 0)
(0.140551 0.00313589 0)
(0.142131 0.00239026 0)
(0.14331 0.00178305 0)
(0.144171 0.00130046 0)
(0.144786 0.000923868 0)
(0.145211 0.000633835 0)
(0.145493 0.00041255 0)
(0.145667 0.000245629 0)
(0.145762 0.000124362 0)
(0.145807 5.07713e-05 0)
(0.100183 0.00063133 0)
(0.102592 0.001688 0)
(0.106824 0.00242736 0)
(0.112226 0.00281469 0)
(0.118028 0.00289487 0)
(0.123681 0.00274947 0)
(0.128839 0.00246451 0)
(0.133319 0.00211293 0)
(0.137061 0.00174815 0)
(0.14009 0.00140431 0)
(0.142477 0.00109985 0)
(0.144315 0.000842005 0)
(0.145698 0.000630747 0)
(0.146718 0.000461961 0)
(0.147451 0.000329623 0)
(0.147963 0.00022724 0)
(0.148305 0.000148771 0)
(0.148518 8.92944e-05 0)
(0.148636 4.5856e-05 0)
(0.148692 1.93415e-05 0)
(0.100183 -0.0006284 0)
(0.102592 -0.00168037 0)
(0.106823 -0.00241574 0)
(0.112225 -0.00279991 0)
(0.118027 -0.00287778 0)
(0.12368 -0.0027309 0)
(0.128838 -0.00244518 0)
(0.133318 -0.00209347 0)
(0.13706 -0.00172906 0)
(0.140089 -0.00138599 0)
(0.142476 -0.00108264 0)
(0.144314 -0.000826137 0)
(0.145697 -0.000616405 0)
(0.146717 -0.000449277 0)
(0.14745 -0.000318687 0)
(0.147962 -0.000218096 0)
(0.148304 -0.000141406 0)
(0.148517 -8.36133e-05 0)
(0.148635 -4.16241e-05 0)
(0.148691 -1.60575e-05 0)
(0.10021 -0.00193885 0)
(0.102783 -0.00512903 0)
(0.107153 -0.00730405 0)
(0.11257 -0.00838919 0)
(0.118225 -0.00855065 0)
(0.123594 -0.00805378 0)
(0.128381 -0.00716438 0)
(0.132457 -0.00610001 0)
(0.135803 -0.00501506 0)
(0.138472 -0.00400504 0)
(0.140548 -0.00311928 0)
(0.142128 -0.00237498 0)
(0.143307 -0.00176926 0)
(0.144168 -0.00128828 0)
(0.144783 -0.000913377 0)
(0.145209 -0.000625069 0)
(0.145491 -0.000405491 0)
(0.145665 -0.000240181 0)
(0.14576 -0.000120294 0)
(0.145805 -4.76006e-05 0)
(0.10027 -0.00341047 0)
(0.103189 -0.00881752 0)
(0.107808 -0.0123067 0)
(0.113188 -0.0138679 0)
(0.118472 -0.0138888 0)
(0.12321 -0.0128776 0)
(0.127221 -0.0112984 0)
(0.130479 -0.00950561 0)
(0.133046 -0.00773536 0)
(0.135019 -0.00612387 0)
(0.136506 -0.00473429 0)
(0.137607 -0.00358185 0)
(0.138408 -0.00265374 0)
(0.13898 -0.00192291 0)
(0.13938 -0.00135715 0)
(0.139651 -0.000924568 0)
(0.139826 -0.000596806 0)
(0.139932 -0.000351379 0)
(0.139986 -0.000174617 0)
(0.14001 -6.85159e-05 0)
(0.100382 -0.0051799 0)
(0.103854 -0.0128941 0)
(0.108751 -0.0174178 0)
(0.113888 -0.0190399 0)
(0.118419 -0.0185514 0)
(0.122062 -0.0167874 0)
(0.124834 -0.0144205 0)
(0.126862 -0.0119141 0)
(0.128306 -0.00954662 0)
(0.129313 -0.00745932 0)
(0.130004 -0.00570275 0)
(0.130471 -0.00427349 0)
(0.130783 -0.00313981 0)
(0.130987 -0.00225801 0)
(0.131117 -0.00158226 0)
(0.131196 -0.00106998 0)
(0.131241 -0.00068488 0)
(0.131263 -0.000398931 0)
(0.13127 -0.000195227 0)
(0.13127 -7.49049e-05 0)
(0.100576 -0.00742221 0)
(0.10482 -0.0174556 0)
(0.109837 -0.0224642 0)
(0.114246 -0.0235018 0)
(0.117399 -0.0220263 0)
(0.119348 -0.0192704 0)
(0.120388 -0.016082 0)
(0.120823 -0.0129656 0)
(0.120896 -0.0101774 0)
(0.120778 -0.00781564 0)
(0.120578 -0.00588839 0)
(0.12036 -0.00435773 0)
(0.120157 -0.0031668 0)
(0.119983 -0.00225478 0)
(0.119842 -0.00156478 0)
(0.119733 -0.00104738 0)
(0.119652 -0.000662352 0)
(0.119596 -0.000379625 0)
(0.11956 -0.000181265 0)
(0.11954 -6.67824e-05 0)
(0.100878 -0.0103711 0)
(0.106044 -0.0224535 0)
(0.110615 -0.0269446 0)
(0.113366 -0.0265215 0)
(0.114241 -0.0235899 0)
(0.113823 -0.0197425 0)
(0.112713 -0.0158735 0)
(0.111344 -0.0124071 0)
(0.10998 -0.00949225 0)
(0.108755 -0.00713596 0)
(0.107726 -0.00528137 0)
(0.106899 -0.00384962 0)
(0.106256 -0.00276047 0)
(0.10577 -0.00194143 0)
(0.105414 -0.00133094 0)
(0.10516 -0.00087897 0)
(0.104986 -0.000546637 0)
(0.104874 -0.000305947 0)
(0.104809 -0.000140469 0)
(0.104777 -4.80387e-05 0)
(0.101295 -0.0144547 0)
(0.107145 -0.0275335 0)
(0.109896 -0.0297916 0)
(0.109468 -0.026943 0)
(0.107009 -0.0223612 0)
(0.103704 -0.0176789 0)
(0.100322 -0.0135679 0)
(0.0972653 -0.0102116 0)
(0.0946894 -0.00757676 0)
(0.0926163 -0.00555533 0)
(0.0910014 -0.00402733 0)
(0.0897752 -0.00288437 0)
(0.0888645 -0.00203636 0)
(0.0882022 -0.00141129 0)
(0.0877316 -0.000952964 0)
(0.0874069 -0.000618374 0)
(0.0871922 -0.000375634 0)
(0.0870596 -0.000202701 0)
(0.0869866 -8.69645e-05 0)
(0.0869527 -2.53223e-05 0)
(0.101816 -0.0202615 0)
(0.106695 -0.0314435 0)
(0.104841 -0.029101 0)
(0.099251 -0.0233545 0)
(0.092756 -0.0176681 0)
(0.0867057 -0.0129811 0)
(0.0815835 -0.00939999 0)
(0.0774787 -0.00675777 0)
(0.0743022 -0.00483587 0)
(0.0719018 -0.00344457 0)
(0.0701201 -0.00243864 0)
(0.0688182 -0.00171165 0)
(0.0678815 -0.00118662 0)
(0.0672191 -0.000807857 0)
(0.0667607 -0.000534977 0)
(0.0664529 -0.000338745 0)
(0.0662558 -0.000198456 0)
(0.0661393 -0.000100453 0)
(0.0660792 -3.72795e-05 0)
(0.0660547 -6.13798e-06 0)
(0.100296 -0.0245696 0)
(0.0992777 -0.0295517 0)
(0.0888511 -0.0221258 0)
(0.0771259 -0.0150818 0)
(0.0676191 -0.0100634 0)
(0.0604489 -0.00669848 0)
(0.055145 -0.00448861 0)
(0.0512778 -0.00303825 0)
(0.0484872 -0.00207475 0)
(0.0464871 -0.00142414 0)
(0.0450625 -0.000978109 0)
(0.0440559 -0.000668695 0)
(0.0433521 -0.000452271 0)
(0.0428675 -0.000300085 0)
(0.0425411 -0.000192718 0)
(0.0423288 -0.000116876 0)
(0.0421984 -6.35972e-05 0)
(0.0421264 -2.73356e-05 0)
(0.0420938 -5.36603e-06 0)
(0.0420845 3.84744e-06 0)
(0.0747113 -0.0113734 0)
(0.0633184 -0.0100561 0)
(0.0470845 -0.00522887 0)
(0.0351835 -0.00271044 0)
(0.0280242 -0.00152782 0)
(0.0236001 -0.000885011 0)
(0.0207364 -0.000519981 0)
(0.0188447 -0.000313323 0)
(0.017579 -0.000193799 0)
(0.0167228 -0.000122052 0)
(0.0161401 -7.7477e-05 0)
(0.0157436 -4.90303e-05 0)
(0.0154758 -3.05114e-05 0)
(0.0152976 -1.82798e-05 0)
(0.0151822 -1.01124e-05 0)
(0.0151109 -4.61496e-06 0)
(0.0150707 -9.29557e-07 0)
(0.0150519 1.38614e-06 0)
(0.0150471 2.45757e-06 0)
(0.0150499 2.65702e-06 0)
)
;

boundaryField
{
    upperWall
    {
        type            calculated;
        value           uniform (0 0 0);
    }
    lowerWall
    {
        type            calculated;
        value           uniform (0 0 0);
    }
    inlet
    {
        type            calculated;
        value           nonuniform List<vector> 
20
(
(0.1 -8.98365e-09 -5.20167e-09)
(0.1 -1.22302e-08 1.3096e-07)
(0.1 2.84369e-08 3.02543e-08)
(0.1 -1.58465e-08 4.77783e-08)
(0.1 -7.91019e-09 1.45956e-07)
(0.0999999 5.22502e-08 -7.01725e-08)
(0.1 -6.86961e-08 3.29375e-08)
(0.1 4.25647e-08 -2.2142e-08)
(0.1 -3.34493e-08 -5.78575e-08)
(0.1 1.65344e-08 -2.02949e-08)
(0.1 1.56826e-08 -3.6528e-08)
(0.1 8.98801e-08 9.17567e-08)
(0.0999999 7.80319e-08 1.31076e-07)
(0.1 -8.82605e-08 -8.52148e-08)
(0.1 -2.34676e-08 -1.1707e-07)
(0.1 -4.83148e-09 4.89427e-08)
(0.0999999 -1.247e-07 7.63141e-09)
(0.1 -4.00379e-08 9.67775e-08)
(0.0999999 -5.48928e-08 3.44755e-08)
(0.1 -1.0423e-07 -3.19249e-08)
)
;
    }
    outlet
    {
        type            calculated;
        value           nonuniform List<vector> 
20
(
(0.0150509 -2.52575e-06 0)
(0.0420873 -3.3837e-06 0)
(0.0660587 7.02104e-06 0)
(0.0869576 2.66752e-05 0)
(0.104782 4.98524e-05 0)
(0.119545 6.90313e-05 0)
(0.131275 7.75398e-05 0)
(0.140014 7.14651e-05 0)
(0.145807 5.07713e-05 0)
(0.148692 1.93415e-05 0)
(0.148691 -1.60575e-05 0)
(0.145805 -4.76006e-05 0)
(0.14001 -6.85159e-05 0)
(0.13127 -7.49049e-05 0)
(0.11954 -6.67824e-05 0)
(0.104777 -4.80387e-05 0)
(0.0869527 -2.53223e-05 0)
(0.0660547 -6.13798e-06 0)
(0.0420845 3.84744e-06 0)
(0.0150499 2.65702e-06 0)
)
;
    }
    frontAndBack
    {
        type            empty;
    }
}


// ************************************************************************* //
