/*--------------------------------*- C++ -*----------------------------------*\
  =========                 |
  \\      /  F ield         | OpenFOAM: The Open Source CFD Toolbox
   \\    /   O peration     | Website:  https://openfoam.org
    \\  /    A nd           | Version:  7
     \\/     M anipulation  |
\*---------------------------------------------------------------------------*/
FoamFile
{
    version     2.0;
    format      ascii;
    class       volSymmTensorField;
    location    "0.6725";
    object      UPrime2Mean;
}
// * * * * * * * * * * * * * * * * * * * * * * * * * * * * * * * * * * * * * //

dimensions      [0 2 -2 0 0 0 0];

internalField   nonuniform List<symmTensor> 
7920
(
(0.0344837 -0.00273915 -0.00366365 0.000371126 0.000432536 0.000949887)
(0.14511 0.0198771 -0.011707 0.0035067 -0.00148134 0.00364894)
(0.217878 0.0353938 -0.0181573 0.00752882 -0.00254975 0.00813562)
(0.288217 0.0457845 -0.0220914 0.00942673 -0.00263916 0.0114515)
(0.298032 0.0460607 -0.0257284 0.0100866 -0.00285024 0.0129259)
(0.333887 0.0486815 -0.0272848 0.0102971 -0.00264917 0.0119423)
(0.32892 0.046626 -0.0291673 0.0104429 -0.00281314 0.0104874)
(0.353315 0.0478021 -0.0293806 0.0104641 -0.0026888 0.00867358)
(0.345822 0.0456294 -0.0302746 0.0105279 -0.00284481 0.00753701)
(0.36455 0.0462057 -0.0299331 0.0105266 -0.00273359 0.00656471)
(0.357232 0.0441534 -0.0302063 0.0105606 -0.002814 0.00614367)
(0.372113 0.0442923 -0.0295311 0.0105526 -0.00268059 0.00576455)
(0.365755 0.0424286 -0.029316 0.0105708 -0.00269626 0.00565971)
(0.377645 0.0422548 -0.0286273 0.0105661 -0.00256953 0.0055759)
(0.372706 0.0405835 -0.0280159 0.0105692 -0.0025272 0.00552359)
(0.382008 0.0401678 -0.0277763 0.010588 -0.00245256 0.00568528)
(0.378922 0.0384865 -0.0264874 0.010492 -0.00228308 0.00546755)
(0.38652 0.0381458 -0.0275137 0.0107089 -0.0024007 0.0059708)
(0.38141 0.0328396 -0.0242152 0.0091616 -0.00166629 0.00535786)
(0.414847 0.0444406 -0.02754 0.0113899 -0.00276615 0.00599411)
(0.0106301 0.00134108 0.000431219 0.0172683 0.00274365 0.000737839)
(0.0209249 -0.0101568 -0.00204161 0.0190747 0.0041416 0.00260649)
(0.0600642 -0.0180465 -0.00644617 0.0163683 0.00471656 0.00585471)
(0.114153 -0.0247837 -0.0124589 0.0132236 0.00421711 0.00905725)
(0.166693 -0.0242154 -0.0185466 0.0118313 0.00392555 0.0116448)
(0.215995 -0.0258715 -0.0236598 0.0112059 0.00338533 0.0122219)
(0.257165 -0.0240453 -0.0280499 0.0109688 0.00317321 0.0117659)
(0.293998 -0.0245923 -0.0307399 0.0108211 0.00284188 0.0104259)
(0.325101 -0.0226873 -0.0329719 0.0107791 0.00279455 0.00916476)
(0.35325 -0.0226323 -0.0339213 0.0107069 0.00261926 0.00797314)
(0.377397 -0.0207858 -0.0347804 0.0106984 0.00262216 0.00711462)
(0.399653 -0.020321 -0.0347432 0.010646 0.00250096 0.0064194)
(0.419021 -0.0186376 -0.0346967 0.0106511 0.0024911 0.00592762)
(0.437185 -0.0179046 -0.0342454 0.0106169 0.00240451 0.00561196)
(0.453541 -0.0164211 -0.0334093 0.010614 0.00234273 0.00528858)
(0.469132 -0.0152994 -0.0331933 0.0106451 0.00231612 0.00535375)
(0.482435 -0.0141727 -0.0314129 0.0105242 0.00212922 0.00500592)
(0.499983 -0.0113054 -0.0323865 0.0107365 0.00219624 0.0055157)
(0.493689 -0.0114381 -0.0283837 0.0104016 0.00174734 0.00493312)
(0.522355 0.00312965 -0.0301183 0.00963327 0.00152981 0.00570631)
(0.0142922 0.00220401 0.00157521 0.00245898 0.00082436 0.000715053)
(0.024899 -0.000726156 0.00354117 0.00348054 0.000177699 0.00230187)
(0.0470027 -0.00623899 0.00636228 0.00563791 1.87334e-05 0.00463336)
(0.049743 -0.00894563 0.00598563 0.00770858 -0.000131791 0.00698391)
(0.0628886 -0.0138549 0.00612996 0.0086685 -0.000621539 0.00969711)
(0.070516 -0.0141032 0.0039291 0.00918299 -0.000965537 0.0117232)
(0.0866291 -0.0170314 0.00230426 0.00946432 -0.00159286 0.0132705)
(0.102404 -0.016229 -0.000916266 0.0096381 -0.00189474 0.0136141)
(0.121991 -0.0181289 -0.00316101 0.00978426 -0.00227426 0.0133513)
(0.14257 -0.0172747 -0.00590269 0.00989487 -0.00236494 0.0123589)
(0.16334 -0.0188145 -0.00735565 0.00998898 -0.00251553 0.0112558)
(0.185576 -0.0182812 -0.00895798 0.0100716 -0.00247773 0.00997672)
(0.20571 -0.0196941 -0.00953657 0.0101353 -0.00250692 0.0087823)
(0.228003 -0.0195899 -0.010256 0.0101862 -0.00241808 0.00770924)
(0.246894 -0.0210548 -0.0101125 0.0102557 -0.00239412 0.00668297)
(0.269349 -0.0209956 -0.010033 0.0102015 -0.00233169 0.00607408)
(0.286701 -0.0232385 -0.00926936 0.0104431 -0.00219012 0.0053254)
(0.310667 -0.0213147 -0.00871822 0.0100491 -0.00249876 0.00532429)
(0.324477 -0.0251438 -0.00763806 0.0103204 -0.0017432 0.00479936)
(0.355689 -0.0171964 -0.00594329 0.0135108 -0.00432502 0.0052549)
(0.0146314 0.00623282 0.00156245 0.0077144 0.00170292 0.000671948)
(0.0286997 0.0142696 0.00393327 0.0132877 0.00325968 0.00219912)
(0.0723026 0.0277724 0.0091582 0.0156539 0.004447 0.00430473)
(0.0964249 0.0296763 0.0120913 0.0145705 0.00444643 0.00625543)
(0.135528 0.03474 0.0166887 0.0136032 0.00451003 0.00873227)
(0.151876 0.0334764 0.0183719 0.0128231 0.00414022 0.0109582)
(0.181309 0.0364037 0.0209339 0.0122825 0.00396172 0.0132915)
(0.194061 0.0349446 0.0201178 0.0118428 0.00354101 0.014738)
(0.219035 0.0373888 0.0200768 0.0115592 0.00336577 0.0156051)
(0.232725 0.0363807 0.0177199 0.0112777 0.00303118 0.015446)
(0.256054 0.0386059 0.016879 0.0111192 0.00292078 0.0148197)
(0.271944 0.0381015 0.0147788 0.0109308 0.00270669 0.0136981)
(0.294258 0.0401254 0.0140551 0.0108481 0.00264551 0.0123658)
(0.312458 0.0400737 0.0125866 0.0107159 0.00252885 0.0109353)
(0.333444 0.0418156 0.012108 0.010683 0.0024645 0.00942695)
(0.354366 0.0422394 0.0118214 0.0105849 0.00241337 0.008116)
(0.373065 0.0434994 0.0119562 0.0105903 0.00237299 0.00689292)
(0.398588 0.0445169 0.013342 0.0105066 0.00224297 0.00606922)
(0.412909 0.0449505 0.0134297 0.0105071 0.00224703 0.00536714)
(0.45198 0.0490528 0.0179008 0.0115894 0.00183033 0.0052091)
(0.0144952 -0.000434189 0.00154857 0.000296252 -7.54525e-05 0.000670993)
(0.0269807 -0.00411468 0.0036881 0.00314582 -0.00094894 0.00223451)
(0.074652 -0.0111284 0.00932745 0.00551221 -0.00126599 0.00430135)
(0.108109 -0.0141583 0.0129622 0.00743495 -0.00121774 0.00617147)
(0.164001 -0.0209104 0.019124 0.00847496 -0.00146858 0.00848248)
(0.196144 -0.0230986 0.0223886 0.00899132 -0.00156149 0.0107001)
(0.247118 -0.0287048 0.027166 0.00929239 -0.00196666 0.0131352)
(0.274434 -0.0300105 0.0279743 0.00945451 -0.00211523 0.0149809)
(0.319918 -0.034311 0.0297309 0.0095991 -0.00241606 0.0163136)
(0.344736 -0.0351729 0.0282233 0.00969072 -0.00246973 0.0167017)
(0.385912 -0.0386323 0.0283675 0.00978668 -0.00263014 0.0165265)
(0.409799 -0.0393798 0.0264348 0.0098507 -0.00259722 0.0157404)
(0.447493 -0.0423012 0.0261695 0.00993616 -0.00267036 0.0146604)
(0.471183 -0.0430083 0.0243067 0.0099606 -0.00256138 0.0132304)
(0.506214 -0.0458012 0.0239347 0.0100899 -0.00260881 0.0117177)
(0.529066 -0.0461261 0.0227009 0.00995162 -0.00244196 0.0100334)
(0.562886 -0.0494675 0.0232732 0.0103527 -0.00247466 0.00862357)
(0.583274 -0.0497046 0.0235919 0.00972987 -0.00251263 0.00725122)
(0.613867 -0.051462 0.0251124 0.0105598 -0.00215936 0.00633508)
(0.641064 -0.0634127 0.0294396 0.0123954 -0.00379046 0.00583392)
(0.0142736 0.0030837 0.00148895 0.00194046 0.000827006 0.000654473)
(0.0247147 0.00784792 0.00333632 0.0062059 0.00199374 0.00220938)
(0.0699926 0.0188814 0.00875543 0.00881865 0.00280607 0.00428477)
(0.103964 0.0225842 0.0124245 0.00971407 0.00280711 0.00613319)
(0.162979 0.0299866 0.0188368 0.010164 0.00302111 0.00841389)
(0.200473 0.0316898 0.0225303 0.0102858 0.00289453 0.0106005)
(0.259448 0.0372069 0.0279192 0.0103672 0.00304104 0.0130328)
(0.294833 0.0379987 0.0293386 0.0103529 0.00290044 0.0149444)
(0.351308 0.0422721 0.0317896 0.0103735 0.0029748 0.0163979)
(0.385106 0.0426961 0.0307723 0.0103376 0.00281299 0.0169635)
(0.438323 0.0461473 0.0314377 0.0103468 0.00283459 0.016979)
(0.470828 0.0465203 0.0297491 0.0103115 0.00268168 0.0163797)
(0.520366 0.0494202 0.0298074 0.0103294 0.00268596 0.0154803)
(0.551865 0.0498006 0.0278815 0.0102865 0.00254359 0.0141509)
(0.597649 0.0524484 0.0275864 0.0103427 0.00254718 0.012726)
(0.627789 0.0525279 0.0259055 0.0102209 0.00239589 0.0109645)
(0.669662 0.0555348 0.0265353 0.0104412 0.00241893 0.0095067)
(0.698665 0.0553681 0.0262894 0.0100671 0.00233437 0.00794806)
(0.73068 0.0571505 0.0283215 0.0105376 0.00221247 0.00688478)
(0.769139 0.064206 0.0324921 0.0120651 0.00281136 0.00629921)
(0.0142736 -0.00308373 0.00148896 0.00194045 -0.000827009 0.000654476)
(0.0247147 -0.00784788 0.0033363 0.0062059 -0.00199373 0.00220938)
(0.0699926 -0.0188814 0.0087555 0.00881865 -0.0028061 0.00428477)
(0.103964 -0.0225842 0.0124243 0.00971406 -0.00280709 0.00613321)
(0.162979 -0.0299866 0.0188371 0.010164 -0.00302116 0.00841386)
(0.200473 -0.0316896 0.0225299 0.0102858 -0.00289449 0.0106005)
(0.259449 -0.0372071 0.02792 0.0103673 -0.00304115 0.0130328)
(0.294833 -0.0379987 0.0293373 0.0103529 -0.00290031 0.0149441)
(0.35131 -0.0422722 0.0317918 0.0103735 -0.00297502 0.0163983)
(0.385105 -0.0426949 0.0307691 0.0103375 -0.00281264 0.0169625)
(0.438327 -0.0461463 0.0314425 0.0103466 -0.00283497 0.0169804)
(0.470825 -0.0465167 0.0297425 0.0103109 -0.00268074 0.0163777)
(0.520382 -0.0494156 0.029817 0.0103289 -0.00268642 0.0154827)
(0.551856 -0.0497838 0.0278698 0.0102842 -0.00254129 0.0141482)
(0.597692 -0.0524405 0.0276015 0.010342 -0.00254774 0.0127288)
(0.62777 -0.0524668 0.025889 0.0102113 -0.00238938 0.010962)
(0.669741 -0.055534 0.0265515 0.0104424 -0.00242017 0.00950876)
(0.698624 -0.0551895 0.0262766 0.0100385 -0.00231902 0.00794782)
(0.730775 -0.057115 0.0283163 0.0105373 -0.00220936 0.0068819)
(0.769072 -0.0639277 0.0325129 0.0120107 -0.0027907 0.00630846)
(0.0144952 0.000434159 0.00154859 0.000296249 7.54505e-05 0.000671001)
(0.0269807 0.0041147 0.00368805 0.00314581 0.00094893 0.00223451)
(0.0746519 0.0111284 0.00932762 0.00551221 0.00126599 0.00430137)
(0.108109 0.0141583 0.0129618 0.00743493 0.00121772 0.00617151)
(0.164001 0.0209104 0.0191247 0.00847493 0.00146859 0.0084824)
(0.196144 0.0230987 0.0223872 0.00899123 0.00156145 0.0107001)
(0.247117 0.0287046 0.0271684 0.00929232 0.0019667 0.0131352)
(0.274436 0.0300104 0.0279705 0.00945446 0.00211512 0.0149801)
(0.319915 0.034311 0.0297371 0.00959903 0.00241625 0.016315)
(0.344741 0.0351735 0.0282139 0.00969062 0.00246932 0.0166984)
(0.385906 0.0386335 0.0283819 0.00978679 0.00263092 0.0165315)
(0.409814 0.0393816 0.0264142 0.00985086 0.00259618 0.0157328)
(0.447476 0.0423057 0.0261995 0.00993667 0.00267253 0.0146702)
(0.471222 0.0430198 0.0242662 0.00996188 0.00255948 0.013219)
(0.506186 0.0458083 0.0239914 0.0100908 0.00261331 0.0117313)
(0.529154 0.0461738 0.0226304 0.00995843 0.00244085 0.0100192)
(0.562888 0.0494686 0.0233615 0.0103524 0.00248249 0.00863919)
(0.583471 0.0498594 0.0235037 0.00975638 0.00251594 0.00723837)
(0.614042 0.0514888 0.0252035 0.0105618 0.00217361 0.0063419)
(0.641529 0.0636878 0.02942 0.0124645 0.00379837 0.00584403)
(0.0146314 -0.00623285 0.00156247 0.00771437 -0.00170295 0.000671958)
(0.0286997 -0.0142695 0.00393319 0.0132877 -0.00325961 0.0021991)
(0.0723026 -0.0277724 0.00915844 0.0156539 -0.00444714 0.00430477)
(0.0964249 -0.0296763 0.0120908 0.0145705 -0.0044462 0.00625543)
(0.135528 -0.0347401 0.0166896 0.0136032 -0.00451036 0.00873209)
(0.151876 -0.0334763 0.0183701 0.0128231 -0.00413968 0.010958)
(0.181308 -0.0364039 0.0209366 0.0122825 -0.00396252 0.0132913)
(0.194062 -0.0349448 0.0201135 0.0118427 -0.0035398 0.0147366)
(0.219035 -0.037389 0.020084 0.0115592 -0.0033675 0.0156074)
(0.232727 -0.0363803 0.0177093 0.0112774 -0.0030286 0.0154403)
(0.256054 -0.038606 0.0168966 0.0111191 -0.0029242 0.0148294)
(0.271951 -0.0381004 0.0147532 0.01093 -0.00270124 0.0136826)
(0.294262 -0.0401248 0.0140984 0.0108477 -0.00265226 0.0123887)
(0.312475 -0.0400658 0.0125229 0.0107129 -0.00251672 0.0109053)
(0.333467 -0.0418173 0.0122118 0.010683 -0.00247864 0.00946733)
(0.354402 -0.0422106 0.0116728 0.0105745 -0.00238581 0.00806627)
(0.373141 -0.0435154 0.0121766 0.0105934 -0.0024028 0.00695553)
(0.398641 -0.0444405 0.013056 0.010479 -0.00218753 0.00599691)
(0.413093 -0.0449798 0.0137973 0.0105144 -0.00229818 0.00544373)
(0.452093 -0.0489503 0.0175025 0.0115604 -0.00174804 0.00514338)
(0.0142923 -0.00220404 0.00157523 0.00245895 -0.000824371 0.000715061)
(0.024899 0.000726177 0.0035411 0.00348052 -0.000177666 0.00230184)
(0.0470028 0.00623896 0.00636237 0.00563789 -1.876e-05 0.0046334)
(0.049743 0.00894557 0.00598539 0.00770856 0.000131882 0.00698378)
(0.0628885 0.0138548 0.00612996 0.00866847 0.000621538 0.00969679)
(0.0705159 0.0141032 0.00392916 0.0091829 0.000965621 0.0117227)
(0.0866288 0.0170312 0.00230375 0.00946424 0.00159293 0.0132701)
(0.102403 0.0162287 -0.000913864 0.00963804 0.00189461 0.0136128)
(0.121992 0.0181285 -0.00316518 0.00978421 0.00227477 0.0133538)
(0.142568 0.0172748 -0.00589314 0.00989456 0.00236376 0.0123529)
(0.163341 0.0188137 -0.00737118 0.00998916 0.00251787 0.0112683)
(0.185567 0.0182814 -0.00893136 0.0100714 0.00247337 0.00995608)
(0.205713 0.0196929 -0.0095738 0.0101359 0.00251458 0.0088179)
(0.227979 0.0195912 -0.0102033 0.0101862 0.00240518 0.00765689)
(0.246883 0.0210533 -0.0101704 0.0102574 0.00241606 0.00676208)
(0.269298 0.0209933 -0.00996731 0.010204 0.00229732 0.00596304)
(0.286638 0.0232361 -0.00930551 0.0104446 0.00224903 0.00547724)
(0.310583 0.0213258 -0.00868809 0.0100659 0.00240553 0.00512013)
(0.324277 0.0251498 -0.00756367 0.0103249 0.00188713 0.00504442)
(0.355477 0.0173188 -0.00597251 0.0135663 0.00400347 0.00495795)
(0.0106302 -0.00134113 0.000431226 0.0172683 -0.00274365 0.000737848)
(0.020925 0.0101568 -0.00204158 0.0190747 -0.00414154 0.00260647)
(0.0600642 0.0180464 -0.00644626 0.0163683 -0.00471662 0.00585476)
(0.114153 0.0247836 -0.0124585 0.0132236 -0.00421698 0.00905703)
(0.166693 0.0242153 -0.0185475 0.0118313 -0.00392573 0.0116446)
(0.215994 0.0258713 -0.0236575 0.0112058 -0.00338503 0.0122216)
(0.257164 0.0240451 -0.028054 0.0109689 -0.00317374 0.0117659)
(0.293996 0.0245916 -0.0307316 0.0108211 -0.00284109 0.0104257)
(0.325099 0.0226871 -0.0329876 0.0107792 -0.0027959 0.00916707)
(0.353244 0.0226306 -0.0338941 0.0107067 -0.00261704 0.00796975)
(0.377394 0.0207849 -0.0348302 0.0106985 -0.00262555 0.00712479)
(0.399632 0.0203166 -0.0346597 0.0106456 -0.00249495 0.0064029)
(0.419012 0.0186354 -0.0348378 0.0106512 -0.00250021 0.00595979)
(0.437121 0.0178929 -0.034016 0.010615 -0.00238754 0.00555952)
(0.453501 0.0164182 -0.0337721 0.0106151 -0.00236956 0.00537589)
(0.468996 0.0152713 -0.0326293 0.0106389 -0.00226545 0.0052156)
(0.482226 0.0141745 -0.0322554 0.0105292 -0.00221332 0.00521275)
(0.499813 0.0112516 -0.0311361 0.0107208 -0.00204066 0.00520908)
(0.492998 0.0114485 -0.030205 0.0104208 -0.00201913 0.00533231)
(0.5225 -0.00303065 -0.0275222 0.00964305 -0.00113826 0.0051494)
(0.0344838 0.00273907 -0.00366355 0.000371116 -0.000432515 0.000949897)
(0.14511 -0.0198771 -0.0117069 0.0035067 0.00148135 0.003649)
(0.217878 -0.0353939 -0.0181574 0.00752883 0.00254979 0.00813587)
(0.288217 -0.0457845 -0.0220909 0.00942673 0.00263909 0.0114517)
(0.298033 -0.0460608 -0.0257289 0.0100866 0.0028503 0.0129264)
(0.333887 -0.0486811 -0.0272839 0.010297 0.0026491 0.0119429)
(0.328921 -0.0466261 -0.0291712 0.0104429 0.00281356 0.0104883)
(0.353315 -0.0478017 -0.0293774 0.0104639 0.00268852 0.00867437)
(0.345822 -0.0456295 -0.0302859 0.0105278 0.00284586 0.00753972)
(0.364547 -0.046204 -0.0299192 0.0105261 0.00273229 0.00656267)
(0.357233 -0.0441539 -0.0302374 0.0105606 0.00281663 0.00615236)
(0.372103 -0.0442892 -0.0294828 0.010552 0.00267635 0.0057519)
(0.365757 -0.04243 -0.0294051 0.0105711 0.00270355 0.00568564)
(0.377615 -0.0422462 -0.0284793 0.0105644 0.00255656 0.00553339)
(0.372701 -0.0405876 -0.0282692 0.0105709 0.00254877 0.00559809)
(0.381942 -0.0401516 -0.0273537 0.0105844 0.00241291 0.00556133)
(0.378857 -0.0384973 -0.027185 0.0104974 0.00235132 0.00566782)
(0.386416 -0.0381258 -0.0263672 0.0107027 0.0022704 0.00565728)
(0.381113 -0.0329033 -0.0259899 0.00918365 0.00188072 0.00577423)
(0.414542 -0.0445202 -0.0250194 0.0114249 0.00230886 0.00551522)
(0.0115723 -0.000959999 5.7877e-05 0.00640276 5.58564e-05 1.51731e-06)
(0.0953125 -0.0325333 -1.42338e-05 0.0151046 6.00117e-05 1.16427e-06)
(0.201759 -0.0466247 8.17461e-06 0.0173894 8.41126e-05 1.36146e-06)
(0.381763 -0.0638804 5.88721e-05 0.0170245 6.3965e-05 1.14353e-06)
(0.402577 -0.0609145 3.02683e-05 0.0174233 8.74498e-05 1.31079e-06)
(0.51154 -0.0714601 8.34405e-05 0.0180906 7.01025e-05 1.10618e-06)
(0.487236 -0.0668527 3.41269e-05 0.0186748 9.24164e-05 1.25548e-06)
(0.567703 -0.0743654 8.63041e-05 0.0191107 7.53718e-05 1.06798e-06)
(0.53774 -0.0691094 3.44373e-05 0.0193617 9.51437e-05 1.20163e-06)
(0.602503 -0.0742721 8.62624e-05 0.0195435 7.84635e-05 1.03345e-06)
(0.573512 -0.0691447 3.46557e-05 0.0196458 9.57955e-05 1.14746e-06)
(0.62613 -0.0727093 8.56474e-05 0.0197358 7.99536e-05 9.95925e-07)
(0.600227 -0.0680262 3.56339e-05 0.0197839 9.51796e-05 1.08922e-06)
(0.64335 -0.070471 8.67466e-05 0.0198475 8.01925e-05 9.53375e-07)
(0.621299 -0.0662734 3.95074e-05 0.0198479 9.33511e-05 1.02811e-06)
(0.65723 -0.0679684 9.24326e-05 0.0199843 7.92853e-05 9.0803e-07)
(0.637548 -0.0637607 4.73002e-05 0.0196138 8.96153e-05 9.67013e-07)
(0.670008 -0.0653878 0.000109076 0.0208059 7.86551e-05 8.61972e-07)
(0.642085 -0.0523579 4.92346e-05 0.0157062 7.91315e-05 9.11552e-07)
(0.622608 -0.0469467 0.000165522 0.0169155 6.52268e-05 7.94491e-07)
(0.0163736 0.000648818 7.6939e-05 0.00114699 -1.74859e-05 1.16252e-06)
(0.013134 -5.86702e-05 4.34954e-05 0.0035649 -4.17624e-05 9.46581e-07)
(0.0273462 -0.00585072 0.000131024 0.00740862 -6.73002e-05 1.10407e-06)
(0.0488306 -0.000176876 0.000133957 0.0112575 -6.06217e-05 9.33569e-07)
(0.0734455 -0.00285364 0.000184231 0.014256 -7.81299e-05 1.06048e-06)
(0.126672 0.00768828 0.000197292 0.0162372 -6.13523e-05 8.91152e-07)
(0.152736 0.00424999 0.000222946 0.0172735 -8.06641e-05 1.00798e-06)
(0.213007 0.0126187 0.00023799 0.0179481 -6.3429e-05 8.53091e-07)
(0.23371 0.00850417 0.000250283 0.0183406 -8.13774e-05 9.61908e-07)
(0.28999 0.0147422 0.000264727 0.0186589 -6.45274e-05 8.21358e-07)
(0.304661 0.0105964 0.000267417 0.0188637 -8.0666e-05 9.1527e-07)
(0.353754 0.0150875 0.000280317 0.0190509 -6.47567e-05 7.86658e-07)
(0.363897 0.0110951 0.000276112 0.0191623 -7.91939e-05 8.63701e-07)
(0.405952 0.014218 0.000288683 0.019302 -6.42669e-05 7.47244e-07)
(0.413565 0.0104156 0.000280473 0.0193284 -7.69938e-05 8.09171e-07)
(0.450528 0.0128146 0.000294787 0.0195181 -6.27679e-05 7.06204e-07)
(0.455155 0.00826162 0.000284619 0.0194538 -7.43405e-05 7.54941e-07)
(0.492509 0.0131602 0.000302398 0.0197294 -5.896e-05 6.66885e-07)
(0.482618 0.00355037 0.000291873 0.0200697 -7.15564e-05 7.02199e-07)
(0.562686 0.0291746 0.000314828 0.0237063 -4.93867e-05 6.18348e-07)
(0.0132035 0.00363882 7.58647e-05 0.00349911 3.95829e-05 1.32787e-06)
(0.0164459 0.00706368 4.48281e-05 0.017927 5.01506e-05 1.06693e-06)
(0.0550481 0.0282413 0.000143302 0.0248423 7.30813e-05 1.23514e-06)
(0.0506315 0.0210677 0.000100803 0.0244291 4.74173e-05 1.031e-06)
(0.0786592 0.0302094 0.000182488 0.0232503 7.36318e-05 1.17972e-06)
(0.071006 0.0207605 0.00015237 0.0222606 5.41705e-05 9.88646e-07)
(0.0944527 0.0274407 0.00022376 0.0215941 7.86381e-05 1.12414e-06)
(0.0959344 0.0202804 0.000201763 0.0211564 6.14713e-05 9.5249e-07)
(0.120352 0.0263824 0.000263687 0.0207389 8.31083e-05 1.07731e-06)
(0.130081 0.0212677 0.000246458 0.0204962 6.71246e-05 9.23003e-07)
(0.154795 0.026815 0.000299017 0.0202326 8.58324e-05 1.03103e-06)
(0.169303 0.0232214 0.000284499 0.0201076 7.06468e-05 8.9067e-07)
(0.192893 0.0281117 0.000327936 0.0199521 8.66452e-05 9.7957e-07)
(0.209825 0.0256667 0.000315772 0.0198833 7.20407e-05 8.52397e-07)
(0.231578 0.0297968 0.00035112 0.0197964 8.56236e-05 9.23576e-07)
(0.250718 0.0286341 0.000342805 0.0197454 7.17173e-05 8.10327e-07)
(0.269094 0.0311243 0.000370075 0.0195614 8.24753e-05 8.66573e-07)
(0.293911 0.0332207 0.000369781 0.0199458 7.0893e-05 7.68174e-07)
(0.305154 0.0301335 0.000387124 0.0171097 7.42912e-05 8.1548e-07)
(0.340295 0.0408302 0.000396126 0.0208252 7.05609e-05 7.24764e-07)
(0.0119212 -0.000942995 6.61197e-05 0.000700956 -2.15273e-05 1.17248e-06)
(0.0139239 -0.000574038 4.14528e-05 0.00369824 -4.11361e-05 9.77082e-07)
(0.0552201 -0.0085506 0.00012782 0.00741616 -6.65747e-05 1.1271e-06)
(0.0655902 -0.0090637 7.96927e-05 0.0108788 -6.05849e-05 9.49061e-07)
(0.12053 -0.0208918 0.000155343 0.0133481 -7.94023e-05 1.08043e-06)
(0.123775 -0.0206077 0.000108793 0.0151052 -6.52702e-05 9.07895e-07)
(0.170718 -0.0311627 0.000184392 0.0160999 -8.42382e-05 1.02705e-06)
(0.170097 -0.0295349 0.000142674 0.0168052 -6.84615e-05 8.69148e-07)
(0.210439 -0.0379723 0.000215511 0.0172389 -8.55524e-05 9.79473e-07)
(0.210526 -0.035911 0.000179327 0.0176135 -6.91905e-05 8.36915e-07)
(0.24675 -0.0426811 0.000248248 0.0178807 -8.41226e-05 9.33641e-07)
(0.24952 -0.0407334 0.000217542 0.0181242 -6.81051e-05 8.038e-07)
(0.282951 -0.0462922 0.000281199 0.0183295 -8.13652e-05 8.84109e-07)
(0.288756 -0.0447419 0.00025533 0.0184765 -6.61668e-05 7.6607e-07)
(0.320035 -0.0495531 0.000312936 0.0186964 -7.83297e-05 8.30516e-07)
(0.328181 -0.0483425 0.000291473 0.0186586 -6.35012e-05 7.25468e-07)
(0.358566 -0.0530551 0.000343648 0.0192051 -7.571e-05 7.76131e-07)
(0.366581 -0.0517943 0.000324007 0.0185692 -5.86232e-05 6.85903e-07)
(0.400369 -0.0567433 0.000376283 0.02007 -7.29503e-05 7.22663e-07)
(0.398291 -0.0598067 0.000343258 0.0228538 -5.44751e-05 6.45354e-07)
(0.0121215 0.00226671 6.99597e-05 0.00194429 3.1701e-05 1.25702e-06)
(0.013681 0.0024086 4.51413e-05 0.010322 4.63145e-05 1.04281e-06)
(0.0527285 0.0207766 0.000137586 0.0156168 6.92486e-05 1.1988e-06)
(0.0650183 0.0211536 8.78932e-05 0.0179003 5.0085e-05 1.00294e-06)
(0.126895 0.0365402 0.000165995 0.0189252 7.34442e-05 1.14568e-06)
(0.139445 0.0344884 0.000113137 0.0194769 5.5081e-05 9.60894e-07)
(0.201507 0.0460082 0.000191015 0.0196961 7.77992e-05 1.09024e-06)
(0.212383 0.0433837 0.000140267 0.0198114 6.06785e-05 9.22615e-07)
(0.270266 0.0522565 0.000216998 0.0197579 8.1168e-05 1.04103e-06)
(0.280521 0.0497116 0.000171049 0.0197401 6.50049e-05 8.90268e-07)
(0.333517 0.0567337 0.00024617 0.0196401 8.29565e-05 9.93956e-07)
(0.344109 0.0546313 0.000206728 0.0196055 6.76809e-05 8.57597e-07)
(0.392522 0.0603533 0.000279216 0.0195287 8.32684e-05 9.44027e-07)
(0.404246 0.0587654 0.000246397 0.0194841 6.87159e-05 8.20529e-07)
(0.448231 0.0635106 0.00031498 0.0194726 8.21465e-05 8.90003e-07)
(0.461646 0.0623226 0.000287841 0.0193421 6.80602e-05 7.79914e-07)
(0.500185 0.0662823 0.000352511 0.0194422 7.9516e-05 8.34706e-07)
(0.516559 0.0657637 0.000328096 0.019272 6.59799e-05 7.39266e-07)
(0.546067 0.0657849 0.000395249 0.0182204 7.46109e-05 7.83663e-07)
(0.560338 0.071441 0.000362751 0.0224233 6.8272e-05 6.99629e-07)
(0.012027 -0.00159207 6.75394e-05 0.0011126 -2.61079e-05 1.20889e-06)
(0.0134071 -0.00121259 4.36654e-05 0.00597963 -4.30197e-05 1.01224e-06)
(0.0501723 -0.0140979 0.000133246 0.00986471 -6.68437e-05 1.16222e-06)
(0.061904 -0.0143938 8.59788e-05 0.0129052 -5.46898e-05 9.7442e-07)
(0.123522 -0.0279514 0.000160979 0.0148389 -7.58209e-05 1.11187e-06)
(0.138573 -0.0271808 0.000108084 0.0162167 -6.01027e-05 9.33472e-07)
(0.204756 -0.0386284 0.000183203 0.0169765 -8.09016e-05 1.05794e-06)
(0.22077 -0.0372472 0.000130575 0.0175158 -6.48488e-05 8.95114e-07)
(0.285902 -0.0465618 0.000205354 0.0178089 -8.35382e-05 1.00905e-06)
(0.302664 -0.0451115 0.000156334 0.01807 -6.75548e-05 8.62186e-07)
(0.364499 -0.0527486 0.00023058 0.0182293 -8.38164e-05 9.62113e-07)
(0.381852 -0.0515282 0.000187715 0.0183891 -6.82837e-05 8.29111e-07)
(0.439748 -0.0579109 0.000260782 0.0185145 -8.24568e-05 9.12505e-07)
(0.457709 -0.0569916 0.000224932 0.0185928 -6.75628e-05 7.91943e-07)
(0.511523 -0.0625221 0.000295781 0.0187709 -8.01524e-05 8.58977e-07)
(0.529454 -0.0617499 0.000266064 0.0186472 -6.55115e-05 7.51622e-07)
(0.578589 -0.0669261 0.000334807 0.0191261 -7.73869e-05 8.04428e-07)
(0.595717 -0.0667217 0.000306602 0.0185287 -6.16165e-05 7.1194e-07)
(0.636564 -0.0694675 0.000380062 0.0191104 -7.38895e-05 7.52119e-07)
(0.647406 -0.0776599 0.000341339 0.0225046 -6.19825e-05 6.72892e-07)
(0.012027 0.00159206 6.75396e-05 0.0011126 2.61079e-05 1.20889e-06)
(0.0134071 0.00121261 4.3666e-05 0.00597962 4.30196e-05 1.01224e-06)
(0.0501723 0.0140979 0.000133246 0.0098647 6.68438e-05 1.16222e-06)
(0.0619041 0.0143938 8.59795e-05 0.0129052 5.46898e-05 9.7442e-07)
(0.123522 0.0279514 0.000160979 0.0148389 7.5821e-05 1.11187e-06)
(0.138573 0.027181 0.000108086 0.0162168 6.01024e-05 9.33471e-07)
(0.204755 0.0386283 0.000183205 0.0169766 8.09016e-05 1.05794e-06)
(0.220771 0.0372475 0.000130574 0.0175159 6.48484e-05 8.95115e-07)
(0.2859 0.0465622 0.000205355 0.017809 8.35382e-05 1.00905e-06)
(0.302667 0.0451133 0.000156334 0.0180703 6.75537e-05 8.62184e-07)
(0.364494 0.0527495 0.000230582 0.0182296 8.38165e-05 9.6211e-07)
(0.381861 0.0515335 0.000187702 0.0183903 6.82815e-05 8.29115e-07)
(0.439733 0.0579141 0.000260784 0.0185152 8.24564e-05 9.12507e-07)
(0.457733 0.0570118 0.000224917 0.0185968 6.75564e-05 7.91934e-07)
(0.511491 0.0625309 0.000295792 0.0187728 8.01521e-05 8.58972e-07)
(0.529517 0.061807 0.000266005 0.0186603 6.55014e-05 7.51569e-07)
(0.578544 0.0669631 0.000334823 0.0191332 7.73887e-05 8.0447e-07)
(0.595916 0.0668624 0.000306503 0.018565 6.16166e-05 7.11815e-07)
(0.636662 0.0696007 0.000380199 0.0191373 7.39213e-05 7.5231e-07)
(0.647761 0.0779757 0.000341225 0.0226047 6.20407e-05 6.72667e-07)
(0.0121215 -0.00226672 6.99601e-05 0.00194429 -3.1701e-05 1.25702e-06)
(0.013681 -0.00240859 4.51405e-05 0.010322 -4.63145e-05 1.04281e-06)
(0.0527285 -0.0207766 0.000137587 0.0156168 -6.92485e-05 1.1988e-06)
(0.0650183 -0.0211536 8.78938e-05 0.0179003 -5.00851e-05 1.00294e-06)
(0.126896 -0.0365402 0.000165996 0.0189253 -7.34441e-05 1.14568e-06)
(0.139445 -0.0344882 0.000113138 0.0194768 -5.50813e-05 9.60896e-07)
(0.201507 -0.0460083 0.00019102 0.0196961 -7.7799e-05 1.09024e-06)
(0.212383 -0.0433835 0.000140276 0.0198112 -6.06791e-05 9.22614e-07)
(0.270266 -0.0522563 0.000217003 0.0197579 -8.11678e-05 1.04103e-06)
(0.280522 -0.0497097 0.000171054 0.0197395 -6.50063e-05 8.90271e-07)
(0.333519 -0.0567334 0.000246176 0.0196399 -8.29561e-05 9.93959e-07)
(0.34411 -0.054626 0.000206748 0.0196037 -6.76832e-05 8.57593e-07)
(0.392535 -0.0603525 0.000279213 0.0195284 -8.32687e-05 9.44021e-07)
(0.404246 -0.0587466 0.000246412 0.0194784 -6.87214e-05 8.20545e-07)
(0.448274 -0.063509 0.000314967 0.0194721 -8.21474e-05 8.89996e-07)
(0.461641 -0.0622742 0.000287902 0.0193265 -6.8068e-05 7.79974e-07)
(0.500302 -0.0662714 0.000352484 0.0194394 -7.95182e-05 8.34639e-07)
(0.516506 -0.0656628 0.000328164 0.0192402 -6.59768e-05 7.39395e-07)
(0.54627 -0.0657135 0.000395128 0.0182019 -7.45831e-05 7.83457e-07)
(0.560303 -0.0712179 0.000362737 0.0223567 -6.82024e-05 6.99809e-07)
(0.0119212 0.000942991 6.61203e-05 0.000700954 2.15273e-05 1.17248e-06)
(0.0139239 0.000574061 4.14534e-05 0.00369824 4.11361e-05 9.77082e-07)
(0.05522 0.00855061 0.000127822 0.00741617 6.65747e-05 1.1271e-06)
(0.0655903 0.00906369 7.96945e-05 0.0108788 6.0585e-05 9.4906e-07)
(0.12053 0.0208918 0.000155346 0.0133481 7.94023e-05 1.08043e-06)
(0.123776 0.0206078 0.000108796 0.0151052 6.52701e-05 9.07895e-07)
(0.170717 0.0311628 0.000184399 0.0160999 8.42382e-05 1.02705e-06)
(0.170099 0.029535 0.000142681 0.0168053 6.84614e-05 8.69148e-07)
(0.210437 0.0379728 0.000215518 0.0172391 8.55522e-05 9.79473e-07)
(0.210531 0.0359119 0.000179331 0.0176135 6.91897e-05 8.36915e-07)
(0.246745 0.0426819 0.000248253 0.0178811 8.41224e-05 9.33639e-07)
(0.249534 0.0407356 0.000217538 0.0181246 6.81034e-05 8.03803e-07)
(0.282941 0.0462945 0.000281201 0.0183305 8.13652e-05 8.84104e-07)
(0.288792 0.044751 0.000255328 0.0184782 6.61612e-05 7.66069e-07)
(0.32002 0.0495591 0.000312931 0.0186993 7.83318e-05 8.30496e-07)
(0.328272 0.0483697 0.000291445 0.0186661 6.34921e-05 7.25435e-07)
(0.358564 0.0530774 0.000343628 0.0192153 7.57181e-05 7.76127e-07)
(0.366821 0.0518823 0.000323955 0.0186 5.86298e-05 6.85813e-07)
(0.400494 0.0568298 0.000376362 0.0201043 7.29883e-05 7.22786e-07)
(0.398846 0.0600412 0.000343189 0.0229704 5.45174e-05 6.45218e-07)
(0.0132036 -0.00363883 7.58656e-05 0.00349912 -3.95829e-05 1.32787e-06)
(0.016446 -0.00706367 4.48278e-05 0.017927 -5.01506e-05 1.06693e-06)
(0.0550481 -0.0282413 0.000143305 0.0248423 -7.30812e-05 1.23514e-06)
(0.0506315 -0.0210677 0.000100806 0.0244291 -4.74173e-05 1.031e-06)
(0.0786592 -0.0302094 0.000182492 0.0232503 -7.36316e-05 1.17972e-06)
(0.0710062 -0.0207604 0.000152374 0.0222605 -5.41708e-05 9.88648e-07)
(0.0944525 -0.0274407 0.000223772 0.0215942 -7.86377e-05 1.12415e-06)
(0.0959344 -0.0202806 0.000201779 0.0211562 -6.1472e-05 9.52489e-07)
(0.120352 -0.0263822 0.0002637 0.020739 -8.31077e-05 1.07731e-06)
(0.130081 -0.021268 0.000246465 0.0204956 -6.71261e-05 9.23004e-07)
(0.154795 -0.0268151 0.000299034 0.0202327 -8.58313e-05 1.03104e-06)
(0.169299 -0.0232232 0.000284513 0.0201058 -7.06495e-05 8.9066e-07)
(0.192894 -0.0281129 0.000327947 0.0199526 -8.66438e-05 9.79565e-07)
(0.209814 -0.0256703 0.000315768 0.0198777 -7.20471e-05 8.52412e-07)
(0.23157 -0.0298037 0.000351124 0.0197982 -8.56224e-05 9.23548e-07)
(0.250693 -0.0286426 0.000342835 0.0197302 -7.17297e-05 8.10406e-07)
(0.269055 -0.0311486 0.000370057 0.0195664 -8.24744e-05 8.66427e-07)
(0.293864 -0.0332291 0.000369833 0.0199215 -7.09041e-05 7.68383e-07)
(0.305051 -0.0301815 0.00038703 0.0171178 -7.4275e-05 8.15095e-07)
(0.340167 -0.0408253 0.000396185 0.0208129 -7.05307e-05 7.25038e-07)
(0.0163736 -0.000648811 7.69397e-05 0.00114699 1.74859e-05 1.16252e-06)
(0.013134 5.86901e-05 4.3496e-05 0.0035649 4.17624e-05 9.46579e-07)
(0.0273462 0.00585075 0.000131027 0.00740862 6.73002e-05 1.10407e-06)