/*--------------------------------*- C++ -*----------------------------------*\
  =========                 |
  \\      /  F ield         | OpenFOAM: The Open Source CFD Toolbox
   \\    /   O peration     | Website:  https://openfoam.org
    \\  /    A nd           | Version:  7
     \\/     M anipulation  |
\*---------------------------------------------------------------------------*/
FoamFile
{
    version     2.0;
    format      ascii;
    class       volVectorField;
    location    "0.7225";
    object      U_0;
}
// * * * * * * * * * * * * * * * * * * * * * * * * * * * * * * * * * * * * * //

dimensions      [0 1 -1 0 0 0 0];

internalField   nonuniform List<vector> 
1600
(
(0.0847026 0.0550164 0)
(0.0454655 0.0150233 0)
(0.0253338 0.00491628 0)
(0.0151217 0.00184707 0)
(0.00952497 0.0007658 0)
(0.00629954 0.000368453 0)
(0.00430935 0.000206552 0)
(0.00301097 0.00012612 0)
(0.00212705 8.07493e-05 0)
(0.00150949 5.34753e-05 0)
(0.00106835 3.57697e-05 0)
(0.000748224 2.38999e-05 0)
(0.000513803 1.53435e-05 0)
(0.000341316 9.00777e-06 0)
(0.000215603 4.36984e-06 0)
(0.000125965 8.34158e-07 0)
(6.50039e-05 -1.89282e-06 0)
(2.72735e-05 -4.1774e-06 0)
(8.39506e-06 -6.11442e-06 0)
(5.60645e-06 -7.29116e-06 0)
(1.66436e-05 -8.34428e-06 0)
(3.91638e-05 -9.14547e-06 0)
(7.16452e-05 -9.61525e-06 0)
(0.000112662 -9.94447e-06 0)
(0.000160376 -1.00078e-05 0)
(0.000213817 -9.65577e-06 0)
(0.000272252 -9.41267e-06 0)
(0.000333705 -9.51605e-06 0)
(0.000396903 -9.1125e-06 0)
(0.000461157 -8.28623e-06 0)
(0.000524923 -6.89407e-06 0)
(0.000587254 -4.61287e-06 0)
(0.000646596 -1.4607e-06 0)
(0.000700562 3.21706e-06 0)
(0.000746315 1.0708e-05 0)
(0.000779919 2.20456e-05 0)
(0.000796546 3.98599e-05 0)
(0.000794532 6.96031e-05 0)
(0.000603979 0.000138911 0)
(0.000998814 0.000395023 0)
(0.112812 0.082677 0)
(0.0827368 0.04766 0)
(0.0570486 0.0264613 0)
(0.0388814 0.0144825 0)
(0.0269512 0.00824693 0)
(0.0190524 0.00501633 0)
(0.0136982 0.00323461 0)
(0.0100011 0.00217199 0)
(0.00740124 0.00150329 0)
(0.00553972 0.00106687 0)
(0.00418264 0.000772743 0)
(0.00317872 0.000568752 0)
(0.0024283 0.000422145 0)
(0.00186412 0.000313639 0)
(0.00144119 0.000231023 0)
(0.00112775 0.00016634 0)
(0.000901377 0.000114497 0)
(0.000745582 7.17972e-05 0)
(0.00064824 3.59929e-05 0)
(0.000599652 5.98247e-06 0)
(0.000592222 -1.95868e-05 0)
(0.000620005 -4.14603e-05 0)
(0.000677674 -6.01348e-05 0)
(0.000761019 -7.5488e-05 0)
(0.000865909 -8.87341e-05 0)
(0.000988447 -9.93253e-05 0)
(0.00112555 -0.0001078 0)
(0.00127482 -0.000114439 0)
(0.00143352 -0.000118695 0)
(0.0015988 -0.000120522 0)
(0.00176812 -0.000119839 0)
(0.00193932 -0.000116392 0)
(0.00211028 -0.000109582 0)
(0.00227836 -9.87561e-05 0)
(0.0024392 -8.2475e-05 0)
(0.00259518 -5.75299e-05 0)
(0.00274816 -1.96094e-05 0)
(0.00286184 4.07983e-05 0)
(0.00297333 0.000146591 0)
(0.00353435 0.000510824 0)
(0.122495 0.100258 0)
(0.100393 0.0751526 0)
(0.0783898 0.0492781 0)
(0.0588026 0.0314271 0)
(0.0437355 0.020348 0)
(0.0325968 0.0135122 0)
(0.0244617 0.00919391 0)
(0.0185462 0.00638561 0)
(0.0142254 0.00451991 0)
(0.0110367 0.0032587 0)
(0.00865443 0.00238884 0)
(0.00685526 0.00177454 0)
(0.00548638 0.00132838 0)
(0.00444178 0.000995771 0)
(0.00364697 0.000741282 0)
(0.00304814 0.000541852 0)
(0.00260573 0.000382071 0)
(0.00229006 0.000251502 0)
(0.00207882 0.000143143 0)
(0.00195445 5.20503e-05 0)
(0.00190272 -2.48872e-05 0)
(0.00191209 -9.0248e-05 0)
(0.0019738 -0.000145678 0)
(0.00207907 -0.000192944 0)
(0.00222079 -0.000232812 0)
(0.00239374 -0.000265863 0)
(0.00259216 -0.000292514 0)
(0.00281146 -0.000313102 0)
(0.00304742 -0.000328225 0)
(0.003296 -0.000337922 0)
(0.00355322 -0.000342314 0)
(0.00381647 -0.000341244 0)
(0.00408273 -0.000334599 0)
(0.00434845 -0.000322172 0)
(0.00461117 -0.000303232 0)
(0.00487146 -0.00027416 0)
(0.00513034 -0.000236312 0)
(0.00537708 -0.000186743 0)
(0.00565733 -8.69517e-05 0)
(0.0062268 6.58946e-05 0)
(0.110575 0.103411 0)
(0.102113 0.0915691 0)
(0.0882894 0.0675292 0)
(0.0727113 0.0481933 0)
(0.0582286 0.0341627 0)
(0.0460641 0.0242406 0)
(0.0363714 0.0172892 0)
(0.0288487 0.0124323 0)
(0.0230641 0.00904201 0)
(0.0186116 0.00666546 0)
(0.0151665 0.00497844 0)
(0.012487 0.00375733 0)
(0.0103964 0.0028529 0)
(0.00876524 0.00216779 0)
(0.00749722 0.00163751 0)
(0.0065197 0.00121884 0)
(0.00577714 0.000882143 0)
(0.00522653 0.000607075 0)
(0.00483431 0.000379441 0)
(0.00457371 0.000189089 0)
(0.00442303 2.88405e-05 0)
(0.00436465 -0.000106515 0)
(0.00438351 -0.000221003 0)
(0.00446774 -0.000318311 0)
(0.00460738 -0.000399728 0)
(0.00479301 -0.000467467 0)
(0.00501688 -0.000522884 0)
(0.00527225 -0.000567006 0)
(0.00555312 -0.000600732 0)
(0.00585406 -0.000624673 0)
(0.00617007 -0.000639225 0)
(0.00649699 -0.000644322 0)
(0.00683086 -0.000640762 0)
(0.00716795 -0.000628327 0)
(0.00750545 -0.000606897 0)
(0.00784224 -0.000575586 0)
(0.00817719 -0.000535458 0)
(0.00850599 -0.000487282 0)
(0.00886674 -0.000421918 0)
(0.00943518 -0.000352481 0)
(0.0958363 0.0998702 0)
(0.0946194 0.0959938 0)
(0.090547 0.0785709 0)
(0.0811299 0.0614094 0)
(0.0695316 0.04696 0)
(0.0582558 0.0353775 0)
(0.0483598 0.0264279 0)
(0.0400887 0.0197173 0)
(0.0333349 0.0147857 0)
(0.0278735 0.0111861 0)
(0.0234727 0.00854245 0)
(0.0199329 0.0065716 0)
(0.017092 0.00507496 0)
(0.0148202 0.00391765 0)
(0.0130136 0.00300762 0)
(0.0115885 0.00228101 0)
(0.0104777 0.00169266 0)
(0.00962686 0.00121036 0)
(0.00899221 0.000810904 0)
(0.00853796 0.000477314 0)
(0.00823477 0.000197111 0)
(0.00805816 -3.90769e-05 0)
(0.00798795 -0.000238485 0)
(0.00800765 -0.000406524 0)
(0.00810301 -0.000547775 0)
(0.00826172 -0.000665568 0)
(0.00847335 -0.000762614 0)
(0.00872887 -0.000841041 0)
(0.00902037 -0.00090254 0)
(0.00934083 -0.000948425 0)
(0.00968398 -0.000979707 0)
(0.0100443 -0.000997064 0)
(0.0104167 -0.00100135 0)
(0.0107966 -0.000993036 0)
(0.0111803 -0.00097273 0)
(0.0115649 -0.000941063 0)
(0.0119466 -0.000899879 0)
(0.0123217 -0.000852045 0)
(0.0127216 -0.000799075 0)
(0.0132862 -0.000756034 0)
(0.0908991 0.0979789 0)
(0.0928487 0.0932138 0)
(0.0925335 0.0829326 0)
(0.0869552 0.0702759 0)
(0.078271 0.0573783 0)
(0.0687722 0.0455592 0)
(0.0596495 0.0355368 0)
(0.0514217 0.0275068 0)
(0.0442615 0.0212955 0)
(0.0381597 0.0165624 0)
(0.0330281 0.012952 0)
(0.0287535 0.0101693 0)
(0.0252215 0.00799523 0)
(0.0223257 0.00627421 0)
(0.0199705 0.00489568 0)
(0.0180722 0.00377965 0)
(0.0165587 0.00286727 0)
(0.0153689 0.00211477 0)
(0.0144512 0.00148943 0)
(0.0137625 0.000966583 0)
(0.0132664 0.000527419 0)
(0.0129326 0.000157467 0)
(0.0127352 -0.000154298 0)
(0.0126532 -0.000416853 0)
(0.0126687 -0.000637957 0)
(0.0127662 -0.000822822 0)
(0.0129324 -0.000975961 0)
(0.013156 -0.00110101 0)
(0.0134271 -0.00120086 0)
(0.0137372 -0.00127778 0)
(0.0140785 -0.00133358 0)
(0.0144442 -0.0013697 0)
(0.0148282 -0.00138741 0)
(0.0152249 -0.00138774 0)
(0.0156292 -0.0013718 0)
(0.0160369 -0.00134092 0)
(0.0164421 -0.00129739 0)
(0.0168394 -0.00124492 0)
(0.017255 -0.00118974 0)
(0.0178155 -0.00114998 0)
(0.097511 0.0965994 0)
(0.0971955 0.089063 0)
(0.0964413 0.085053 0)
(0.0919735 0.0764893 0)
(0.0853726 0.0654752 0)
(0.0777724 0.054179 0)
(0.0698882 0.0438872 0)
(0.0622417 0.03517 0)
(0.0551615 0.0280929 0)
(0.0488112 0.0224572 0)
(0.043242 0.0179833 0)
(0.0384394 0.0144113 0)
(0.0343543 0.0115349 0)
(0.0309204 0.00920002 0)
(0.0280652 0.0072917 0)
(0.0257162 0.00572249 0)
(0.0238049 0.00442473 0)
(0.0222691 0.0033457 0)
(0.0210538 0.00244423 0)
(0.0201109 0.00168812 0)
(0.0193991 0.00105198 0)
(0.0188833 0.000515696 0)
(0.0185334 6.32259e-05 0)
(0.0183233 -0.00031815 0)
(0.0182319 -0.000639199 0)
(0.0182414 -0.000908683 0)
(0.0183356 -0.00113307 0)
(0.0185009 -0.00131781 0)
(0.0187258 -0.00146731 0)
(0.0190001 -0.00158508 0)
(0.0193148 -0.00167394 0)
(0.0196619 -0.00173614 0)
(0.020034 -0.00177357 0)
(0.0204247 -0.00178779 0)
(0.0208281 -0.00178027 0)
(0.0212384 -0.00175268 0)
(0.0216486 -0.00170747 0)
(0.0220516 -0.00164862 0)
(0.0224696 -0.0015842 0)
(0.023025 -0.00153631 0)
(0.116211 0.0886181 0)
(0.107303 0.0922794 0)
(0.10222 0.0894835 0)
(0.0969285 0.0818411 0)
(0.0915409 0.0718351 0)
(0.0855146 0.0612267 0)
(0.0789149 0.0511814 0)
(0.0721169 0.0423045 0)
(0.0654755 0.0347759 0)
(0.0592392 0.0285215 0)
(0.0535525 0.0233587 0)
(0.0484821 0.01909 0)
(0.0440433 0.0155468 0)
(0.0402176 0.0125958 0)
(0.0369656 0.0101325 0)
(0.0342357 0.00807259 0)
(0.0319716 0.0063468 0)
(0.0301165 0.00489798 0)
(0.0286169 0.00367923 0)
(0.0274236 0.00265215 0)
(0.0264931 0.00178536 0)
(0.0257869 0.00105308 0)
(0.0252718 0.000434096 0)
(0.0249193 -8.88868e-05 0)
(0.0247048 -0.000529548 0)
(0.0246079 -0.000900494 0)
(0.0246109 -0.00121095 0)
(0.0246984 -0.00146835 0)
(0.0248571 -0.00167888 0)
(0.0250755 -0.00184751 0)
(0.0253434 -0.00197824 0)
(0.0256519 -0.0020743 0)
(0.0259928 -0.00213829 0)
(0.0263587 -0.00217235 0)
(0.026743 -0.00217832 0)
(0.0271392 -0.00215807 0)
(0.0275396 -0.00211406 0)
(0.027936 -0.00205024 0)
(0.0283472 -0.00197536 0)
(0.0288948 -0.0019157 0)
(0.111014 0.0952891 0)
(0.107654 0.100522 0)
(0.103382 0.0949069 0)
(0.0997528 0.0863465 0)
(0.096096 0.0767364 0)
(0.0916368 0.066845 0)
(0.0863755 0.0573381 0)
(0.0806244 0.0486592 0)
(0.0747202 0.0410138 0)
(0.0689334 0.0344171 0)
(0.0634537 0.0287735 0)
(0.0584027 0.0239521 0)
(0.0538496 0.019831 0)
(0.0498236 0.01631 0)
(0.046323 0.0133067 0)
(0.0433243 0.0107505 0)
(0.04079 0.00857855 0)
(0.0386752 0.00673532 0)
(0.0369329 0.00517206 0)
(0.0355172 0.0038467 0)
(0.0343851 0.00272323 0)
(0.0334977 0.00177102 0)
(0.0328206 0.000964118 0)
(0.0323237 0.000280753 0)
(0.0319806 -0.000297145 0)
(0.0317689 -0.000784417 0)
(0.0316701 -0.00119421 0)
(0.0316674 -0.00153621 0)
(0.0317464 -0.00181844 0)
(0.0318945 -0.00204751 0)
(0.0321009 -0.00222875 0)
(0.0323556 -0.00236645 0)
(0.03265 -0.00246407 0)
(0.0329761 -0.00252441 0)
(0.0333268 -0.00254977 0)
(0.0336954 -0.00254225 0)
(0.0340738 -0.00250429 0)
(0.0344538 -0.00243966 0)
(0.0348505 -0.00235706 0)
(0.0353866 -0.00228625 0)
(0.0987481 0.103883 0)
(0.101067 0.101852 0)
(0.10119 0.0961585 0)
(0.100488 0.088372 0)
(0.0987406 0.0797718 0)
(0.0958575 0.0709134 0)
(0.0920113 0.0622039 0)
(0.087482 0.0539903 0)
(0.0825647 0.0465027 0)
(0.0775159 0.0398228 0)
(0.0725386 0.033922 0)
(0.0677863 0.0287254 0)
(0.063369 0.024157 0)
(0.059357 0.0201543 0)
(0.0557858 0.0166648 0)
(0.0526623 0.01364 0)
(0.0499719 0.0110316 0)
(0.0476862 0.00879161 0)
(0.0457693 0.00687436 0)
(0.0441824 0.00523735 0)
(0.0428866 0.00384218 0)
(0.0418452 0.00265474 0)
(0.0410246 0.0016451 0)
(0.040395 0.000787419 0)
(0.0399299 5.96336e-05 0)
(0.039606 -0.000556151 0)
(0.0394038 -0.00107598 0)
(0.0393069 -0.00151247 0)
(0.0392999 -0.00187556 0)
(0.03937 -0.00217351 0)
(0.0395056 -0.00241307 0)
(0.0396966 -0.00259968 0)
(0.039934 -0.00273777 0)
(0.0402095 -0.0028309 0)
(0.0405158 -0.00288194 0)
(0.0408462 -0.00289337 0)
(0.0411931 -0.0028677 0)
(0.0415484 -0.00280846 0)
(0.0419238 -0.00272373 0)
(0.0424438 -0.00264506 0)
(0.0988261 0.10839 0)
(0.101081 0.10177 0)
(0.101502 0.0962181 0)
(0.101356 0.0890978 0)
(0.100423 0.0814648 0)
(0.0986268 0.0736228 0)
(0.0960206 0.0657643 0)
(0.0927223 0.0581563 0)
(0.0889128 0.0510263 0)
(0.0847888 0.0444847 0)
(0.0805356 0.03854 0)
(0.0763156 0.0331555 0)
(0.0722621 0.0282928 0)
(0.0684753 0.0239256 0)
(0.0650211 0.0200347 0)
(0.061934 0.0165991 0)
(0.0592225 0.0135907 0)
(0.056877 0.0109752 0)
(0.0548753 0.0087142 0)
(0.0531888 0.00676844 0)
(0.0517858 0.00509976 0)
(0.0506345 0.0036724 0)
(0.0497045 0.00245378 0)
(0.0489677 0.0014148 0)
(0.0483993 0.000530069 0)
(0.0479764 -0.000222015 0)
(0.0476798 -0.000858905 0)
(0.0474935 -0.00139664 0)
(0.0474026 -0.00184728 0)
(0.047394 -0.00222064 0)
(0.0474564 -0.00252486 0)
(0.0475796 -0.00276656 0)
(0.0477547 -0.00295116 0)
(0.0479734 -0.00308308 0)
(0.0482286 -0.00316592 0)
(0.0485139 -0.00320267 0)
(0.0488221 -0.00319612 0)
(0.0491462 -0.00314962 0)
(0.0494946 -0.00307021 0)
(0.0499938 -0.00298904 0)
(0.111503 0.100351 0)
(0.105289 0.102519 0)
(0.103144 0.096205 0)
(0.102046 0.0895023 0)
(0.101244 0.0825007 0)
(0.100187 0.0753339 0)
(0.0986375 0.0681532 0)
(0.0965019 0.0611487 0)
(0.0938185 0.0544855 0)
(0.0907038 0.0482454 0)
(0.087308 0.042436 0)
(0.0837859 0.0370359 0)
(0.0802785 0.032032 0)
(0.0769016 0.0274291 0)
(0.0737408 0.0232403 0)
(0.0708511 0.0194737 0)
(0.068261 0.0161249 0)
(0.0659781 0.0131766 0)
(0.0639951 0.0106014 0)
(0.0622954 0.00836663 0)
(0.0608565 0.00643688 0)
(0.0596535 0.00477687 0)
(0.0586613 0.00335288 0)
(0.0578556 0.00213376 0)
(0.0572141 0.00109158 0)
(0.0567167 0.000201997 0)
(0.0563451 -0.000554944 0)
(0.0560836 -0.00119707 0)
(0.0559191 -0.0017388 0)
(0.0558393 -0.00219148 0)
(0.0558331 -0.00256454 0)
(0.055891 -0.00286573 0)
(0.0560043 -0.00310149 0)
(0.0561654 -0.00327711 0)
(0.0563673 -0.00339702 0)
(0.0566043 -0.0034649 0)
(0.05687 -0.00348404 0)
(0.0571587 -0.00345782 0)
(0.0574756 -0.00339204 0)
(0.0579495 -0.00331529 0)
(0.0985186 0.0958162 0)
(0.0963773 0.103284 0)
(0.0996093 0.0967143 0)
(0.100875 0.0898527 0)
(0.100993 0.08303 0)
(0.100784 0.0761864 0)
(0.100206 0.0694798 0)
(0.0991172 0.0630239 0)
(0.0974812 0.0568764 0)
(0.0953549 0.0510445 0)
(0.0928537 0.0455025 0)
(0.0901152 0.0402253 0)
(0.087274 0.0352144 0)
(0.084447 0.030499 0)
(0.0817263 0.0261206 0)
(0.0791778 0.0221146 0)
(0.0768433 0.0185004 0)
(0.0747443 0.0152789 0)
(0.0728872 0.0124359 0)
(0.0712669 0.00994716 0)
(0.0698716 0.00778245 0)
(0.0686846 0.0059089 0)
(0.0676874 0.00429331 0)
(0.066861 0.00290382 0)
(0.0661871 0.00171101 0)
(0.0656487 0.000688656 0)
(0.06523 -0.000186014 0)
(0.0649169 -0.000931279 0)
(0.064698 -0.00156385 0)
(0.0645623 -0.00209648 0)
(0.0644998 -0.00253977 0)
(0.0645018 -0.0029025 0)
(0.0645604 -0.00319202 0)
(0.0646686 -0.00341452 0)
(0.0648203 -0.00357528 0)
(0.0650102 -0.00367883 0)
(0.0652333 -0.00372914 0)
(0.0654851 -0.00372995 0)
(0.0657682 -0.00368594 0)
(0.0662135 -0.00362145 0)
(0.100028 0.107511 0)
(0.0979612 0.099911 0)
(0.0987062 0.0949877 0)
(0.0999415 0.0892492 0)
(0.100635 0.0828078 0)
(0.101095 0.0762255 0)
(0.101257 0.0698998 0)
(0.10098 0.0639394 0)
(0.1002 0.0583078 0)
(0.0989385 0.0529269 0)
(0.0972792 0.0477233 0)
(0.0953324 0.0426582 0)
(0.0932122 0.0377395 0)
(0.0910214 0.0330141 0)
(0.0888454 0.0285459 0)
(0.0867504 0.0243931 0)
(0.0847836 0.0205953 0)
(0.0829757 0.0171705 0)
(0.0813433 0.0141177 0)
(0.0798923 0.0114221 0)
(0.0786204 0.0090599 0)
(0.0775199 0.00700228 0)
(0.0765796 0.00521807 0)
(0.0757867 0.00367596 0)
(0.0751275 0.00234615 0)
(0.0745891 0.00120135 0)
(0.0741591 0.000217434 0)
(0.0738258 -0.000625333 0)
(0.073579 -0.00134425 0)
(0.0734102 -0.00195381 0)
(0.0733108 -0.00246552 0)
(0.0732731 -0.00288898 0)
(0.0732903 -0.00323234 0)
(0.0733565 -0.00350261 0)
(0.0734663 -0.00370593 0)
(0.0736155 -0.00384774 0)
(0.0737999 -0.00393288 0)
(0.074017 -0.00396578 0)
(0.0742666 -0.00395049 0)
(0.0746815 -0.00390612 0)
(0.100427 0.0986857 0)
(0.0967173 0.097131 0)
(0.0983062 0.0941805 0)
(0.0997868 0.0886801 0)
(0.100797 0.0822345 0)
(0.101612 0.0757761 0)
(0.102183 0.0697333 0)
(0.102411 0.0641751 0)
(0.102241 0.0589891 0)
(0.10167 0.0540233 0)
(0.100748 0.0491581 0)
(0.0995469 0.044336 0)
(0.0981484 0.0395657 0)
(0.0966287 0.0349039 0)
(0.0950556 0.0304285 0)
(0.0934867 0.0262131 0)
(0.0919677 0.0223121 0)
(0.0905331 0.0187568 0)
(0.0892063 0.0155578 0)
(0.0880016 0.0127094 0)
(0.0869253 0.0101949 0)
(0.0859778 0.00799021 0)
(0.0851552 0.00606749 0)
(0.0844507 0.00439716 0)
(0.0838561 0.00295003 0)
(0.0833625 0.00169877 0)
(0.0829614 0.000618786 0)
(0.0826441 -0.00031119 0)
(0.0824024 -0.00110848 0)
(0.0822294 -0.00178848 0)
(0.0821185 -0.00236349 0)
(0.0820635 -0.00284378 0)
(0.0820588 -0.00323818 0)
(0.0820995 -0.00355443 0)
(0.0821813 -0.00379947 0)
(0.0823008 -0.00397967 0)
(0.082455 -0.00410087 0)
(0.0826431 -0.0041685 0)
(0.0828626 -0.00418659 0)
(0.083248 -0.00416924 0)
(0.0887009 0.0880688 0)
(0.0896396 0.0929068 0)
(0.0953812 0.0916623 0)
(0.0988356 0.0869746 0)
(0.100778 0.0810277 0)
(0.102015 0.0749242 0)
(0.102883 0.0691912 0)
(0.103453 0.0639576 0)
(0.103728 0.0591123 0)
(0.103713 0.0544732 0)
(0.103429 0.0498928 0)
(0.102912 0.0452991 0)
(0.102203 0.0406967 0)
(0.101349 0.0361444 0)
(0.100395 0.0317245 0)
(0.0993835 0.0275173 0)
(0.0983557 0.0235855 0)
(0.0973455 0.019969 0)
(0.09638 0.0166869 0)
(0.0954793 0.0137414 0)
(0.0946561 0.0111226 0)
(0.0939177 0.00881184 0)
(0.0932663 0.00678499 0)
(0.0927012 0.0050151 0)
(0.0922189 0.00347451 0)
(0.091815 0.00213659 0)
(0.0914843 0.000976973 0)
(0.0912213 -2.59554e-05 0)
(0.0910204 -0.000890145 0)
(0.0908761 -0.00163082 0)
(0.0907838 -0.00226087 0)
(0.0907387 -0.00279109 0)
(0.0907364 -0.00323079 0)
(0.090773 -0.00358834 0)
(0.0908453 -0.00387143 0)
(0.0909509 -0.00408733 0)
(0.0910876 -0.00424296 0)
(0.0912565 -0.00434493 0)
(0.0914526 -0.00439798 0)
(0.091812 -0.00441236 0)
(0.0901639 0.0839514 0)
(0.0921489 0.0848323 0)
(0.096351 0.0868764 0)
(0.099251 0.0843651 0)
(0.101027 0.0794689 0)
(0.102281 0.0738621 0)
(0.103282 0.0684151 0)
(0.104098 0.063411 0)
(0.104741 0.0587888 0)
(0.105208 0.0543708 0)
(0.105496 0.0500012 0)
(0.105603 0.0455999 0)
(0.105538 0.0411645 0)
(0.105316 0.0367482 0)
(0.104961 0.0324295 0)
(0.104503 0.0282872 0)
(0.103974 0.0243855 0)
(0.103408 0.0207683 0)
(0.102832 0.0174604 0)
(0.102269 0.0144703 0)
(0.101738 0.0117939 0)
(0.10125 0.00941784 0)
(0.100812 0.00732218 0)
(0.100428 0.005483 0)
(0.1001 0.00387473 0)
(0.0998263 0.00247209 0)
(0.0996053 0.00125148 0)
(0.0994343 0.000191789 0)
(0.09931 -0.000725006 0)
(0.0992287 -0.00151407 0)
(0.099187 -0.00218839 0)
(0.0991816 -0.00275898 0)
(0.099209 -0.00323555 0)
(0.0992665 -0.00362697 0)
(0.0993515 -0.0039416 0)
(0.0994626 -0.00418757 0)
(0.0995983 -0.00437287 0)
(0.099761 -0.00450546 0)
(0.0999436 -0.00459132 0)
(0.100284 -0.00463888 0)
(0.0958646 0.082854 0)
(0.0961329 0.0827066 0)
(0.0973815 0.0842122 0)
(0.0989955 0.08229 0)
(0.100542 0.0779476 0)
(0.101917 0.0726586 0)
(0.103159 0.0673988 0)
(0.104296 0.0625317 0)
(0.10534 0.0580357 0)
(0.106288 0.0537516 0)
(0.107118 0.0495302 0)
(0.107805 0.0452887 0)
(0.108331 0.0410162 0)
(0.108689 0.0367545 0)
(0.108889 0.0325712 0)
(0.108951 0.0285375 0)
(0.108901 0.0247141 0)
(0.10877 0.0211456 0)
(0.108586 0.0178598 0)
(0.108374 0.0148702 0)
(0.108153 0.0121777 0)
(0.10794 0.00977376 0)
(0.107744 0.00764254 0)
(0.107573 0.0057633 0)
(0.107431 0.00411289 0)
(0.107321 0.00266777 0)
(0.107243 0.00140561 0)
(0.107198 0.000306236 0)
(0.107184 -0.000647912 0)
(0.107198 -0.00147167 0)
(0.107238 -0.00217777 0)
(0.107302 -0.0027773 0)
(0.107388 -0.00328017 0)
(0.107493 -0.00369566 0)
(0.107615 -0.00403273 0)
(0.107753 -0.00430034 0)
(0.107907 -0.00450748 0)
(0.108079 -0.0046635 0)
(0.108261 -0.00477601 0)
(0.108591 -0.00485394 0)
(0.101014 0.0845932 0)
(0.100481 0.0841175 0)
(0.0991557 0.0839986 0)
(0.099002 0.0812152 0)
(0.0999254 0.0765828 0)
(0.101261 0.0712624 0)
(0.102725 0.0660563 0)
(0.104215 0.0612513 0)
(0.105692 0.0568185 0)
(0.107127 0.0526167 0)
(0.108477 0.0485094 0)
(0.109698 0.0444138 0)
(0.110756 0.0403084 0)
(0.111633 0.0362191 0)
(0.112328 0.0321986 0)
(0.112858 0.0283067 0)
(0.113247 0.024598 0)
(0.113523 0.0211154 0)
(0.113714 0.0178889 0)
(0.113846 0.0149356 0)
(0.113938 0.012261 0)
(0.114008 0.00986085 0)
(0.114068 0.007723 0)
(0.114128 0.00582979 0)
(0.114195 0.00416055 0)
(0.114273 0.0026937 0)
(0.114365 0.0014085 0)
(0.114473 0.00028604 0)
(0.114597 -0.000690259 0)
(0.114735 -0.00153461 0)
(0.114886 -0.00225931 0)
(0.115048 -0.00287525 0)
(0.115219 -0.00339245 0)
(0.115397 -0.00382048 0)
(0.11558 -0.00416884 0)
(0.115769 -0.00444723 0)
(0.11596 -0.0046656 0)
(0.116159 -0.00483463 0)
(0.116354 -0.00496363 0)
(0.116686 -0.00506412 0)
(0.103147 0.0917457 0)
(0.102271 0.0889603 0)
(0.0987687 0.0855965 0)
(0.0980631 0.0810374 0)
(0.0989361 0.0754708 0)
(0.100426 0.0697537 0)
(0.102194 0.0644064 0)
(0.104081 0.0595571 0)
(0.106008 0.0551291 0)
(0.107918 0.0509799 0)
(0.10975 0.0469768 0)
(0.111448 0.0430312 0)
(0.112971 0.039106 0)
(0.114296 0.0352084 0)
(0.115422 0.0313731 0)
(0.116362 0.0276473 0)
(0.11714 0.0240785 0)
(0.117785 0.020708 0)
(0.118323 0.0175672 0)
(0.118779 0.0146767 0)
(0.119173 0.0120459 0)
(0.119522 0.00967443 0)
(0.119841 0.00755333 0)
(0.12014 0.0056678 0)
(0.120427 0.0039995 0)
(0.120708 0.00252892 0)
(0.120988 0.0012371 0)
(0.121269 0.000106669 0)
(0.121552 -0.000877641 0)
(0.121837 -0.00172913 0)
(0.122122 -0.00245944 0)
(0.122405 -0.0030791 0)
(0.122686 -0.00359807 0)
(0.12296 -0.00402612 0)
(0.123228 -0.00437322 0)
(0.123487 -0.00464972 0)
(0.123736 -0.00486645 0)
(0.123979 -0.00503524 0)
(0.124201 -0.00516695 0)
(0.124548 -0.00527689 0)
(0.0863556 0.095071 0)
(0.0918613 0.090783 0)
(0.0938224 0.086475 0)
(0.0956514 0.0805108 0)
(0.0975102 0.0740503 0)
(0.0995784 0.0678961 0)
(0.101822 0.0623507 0)
(0.104154 0.057418 0)
(0.106515 0.052978 0)
(0.108848 0.048881 0)
(0.111094 0.0449915 0)
(0.113194 0.0412102 0)
(0.115106 0.0374817 0)
(0.116808 0.0337922 0)
(0.118299 0.0301581 0)
(0.119593 0.0266142 0)
(0.120714 0.0232016 0)
(0.121687 0.01996 0)
(0.12254 0.0169227 0)
(0.123295 0.0141134 0)
(0.123973 0.0115451 0)
(0.12459 0.00922061 0)
(0.125161 0.00713396 0)
(0.125696 0.0052728 0)
(0.126206 0.00362105 0)
(0.126697 0.00216129 0)
(0.127175 0.000876454 0)
(0.127642 -0.000249028 0)
(0.128099 -0.00122896 0)
(0.128546 -0.00207543 0)
(0.128983 -0.00279921 0)
(0.129406 -0.00341035 0)
(0.129814 -0.0039186 0)
(0.130204 -0.00433387 0)
(0.130574 -0.00466645 0)
(0.130922 -0.00492728 0)
(0.131245 -0.00512786 0)
(0.131548 -0.00528097 0)
(0.13181 -0.00539868 0)
(0.132183 -0.00549972 0)
(0.0810396 0.0868988 0)
(0.0869436 0.0850909 0)
(0.0899332 0.0832618 0)
(0.0935229 0.0778575 0)
(0.0965922 0.0715013 0)
(0.0993581 0.0653569 0)
(0.10206 0.0597958 0)
(0.104751 0.0548534 0)
(0.107431 0.0504342 0)
(0.110074 0.0464068 0)
(0.112628 0.0426426 0)
(0.115038 0.0390348 0)
(0.117261 0.035511 0)
(0.119275 0.0320366 0)
(0.121077 0.0286108 0)
(0.122679 0.0252564 0)
(0.124102 0.0220088 0)
(0.12537 0.0189066 0)
(0.126508 0.0159846 0)
(0.127537 0.0132692 0)
(0.128477 0.0107766 0)
(0.129345 0.00851223 0)
(0.130156 0.00647269 0)
(0.130921 0.00464797 0)
(0.131651 0.00302423 0)
(0.132352 0.00158623 0)
(0.13303 0.00031899 0)
(0.133689 -0.000791099 0)
(0.134328 -0.00175618 0)
(0.134948 -0.00258696 0)
(0.135547 -0.00329323 0)
(0.136121 -0.00388441 0)
(0.136669 -0.00436997 0)
(0.137187 -0.00475984 0)
(0.137672 -0.00506454 0)
(0.138121 -0.0052954 0)
(0.138531 -0.0054644 0)
(0.138905 -0.00558491 0)
(0.139217 -0.00566985 0)
(0.139626 -0.00573888 0)
(0.102101 0.105151 0)
(0.0951761 0.0882826 0)
(0.0939348 0.0805355 0)
(0.0954098 0.0745774 0)
(0.0979132 0.0684112 0)
(0.10059 0.0624392 0)
(0.103314 0.0569633 0)
(0.106079 0.0520524 0)
(0.108876 0.04766 0)
(0.111676 0.0436927 0)
(0.114421 0.0400399 0)
(0.117051 0.0365925 0)
(0.119518 0.0332626 0)
(0.121792 0.0299963 0)
(0.123865 0.0267754 0)
(0.125742 0.0236111 0)
(0.12744 0.0205327 0)
(0.128977 0.0175768 0)
(0.130376 0.0147788 0)
(0.131657 0.0121671 0)
(0.13284 0.00975981 0)
(0.133943 0.00756491 0)
(0.13498 0.00558124 0)
(0.135964 0.00380119 0)
(0.136906 0.00221333 0)
(0.137813 0.00080484 0)
(0.138691 -0.00043683 0)
(0.139541 -0.00152324 0)
(0.140364 -0.00246469 0)
(0.141159 -0.00327043 0)
(0.141924 -0.00394919 0)
(0.142654 -0.00450972 0)
(0.143347 -0.00496119 0)
(0.143998 -0.00531344 0)
(0.144604 -0.0055771 0)
(0.14516 -0.00576367 0)
(0.145661 -0.00588539 0)
(0.146112 -0.00595567 0)
(0.146479 -0.00598805 0)
(0.146928 -0.00599811 0)
(0.0959028 0.113004 0)
(0.0954822 0.0930425 0)
(0.0967475 0.080509 0)
(0.0986214 0.0726668 0)
(0.100733 0.0659715 0)
(0.103006 0.0598446 0)
(0.105448 0.0542839 0)
(0.10806 0.0492943 0)
(0.110814 0.0448456 0)
(0.113655 0.0408735 0)
(0.116506 0.037281 0)
(0.119293 0.0339543 0)
(0.121956 0.0307884 0)
(0.124457 0.0277091 0)
(0.126776 0.0246809 0)
(0.128909 0.0217023 0)
(0.130864 0.0187948 0)
(0.132654 0.0159913 0)
(0.134298 0.0133255 0)
(0.135814 0.0108259 0)
(0.137224 0.00851215 0)
(0.138546 0.00639381 0)
(0.139797 0.00447218 0)
(0.140989 0.0027423 0)
(0.142135 0.00119563 0)
(0.143241 -0.000177773 0)
(0.144312 -0.0013878 0)
(0.14535 -0.00244366 0)
(0.146353 -0.0033537 0)
(0.147319 -0.00412569 0)
(0.148246 -0.00476738 0)
(0.149128 -0.0052869 0)
(0.149962 -0.00569312 0)
(0.150742 -0.00599577 0)
(0.151464 -0.0062055 0)
(0.152123 -0.00633376 0)
(0.152714 -0.0063927 0)
(0.153237 -0.00639515 0)
(0.153659 -0.0063553 0)
(0.154142 -0.006277 0)
(0.087214 0.093449 0)
(0.0924721 0.0866567 0)
(0.0976694 0.0782618 0)
(0.101202 0.0708184 0)
(0.10355 0.0640343 0)
(0.10566 0.0577187 0)
(0.107914 0.0519208 0)
(0.110405 0.0467023 0)
(0.113114 0.0420804 0)
(0.115976 0.0380168 0)
(0.118905 0.0344186 0)
(0.121822 0.03116 0)
(0.124661 0.028117 0)
(0.127374 0.0251955 0)
(0.129929 0.0223425 0)
(0.13231 0.0195429 0)
(0.134514 0.0168078 0)
(0.136548 0.0141629 0)
(0.138427 0.011638 0)
(0.140169 0.00925955 0)
(0.141795 0.00704698 0)
(0.143325 0.00501149 0)
(0.144779 0.00315684 0)
(0.14617 0.00148134 0)
(0.147509 -2.00268e-05 0)
(0.148805 -0.00135374 0)
(0.15006 -0.00252662 0)
(0.151274 -0.00354523 0)
(0.152446 -0.0044159 0)
(0.153572 -0.00514506 0)
(0.154647 -0.0057396 0)
(0.155667 -0.00620723 0)
(0.156626 -0.00655667 0)
(0.15752 -0.00679761 0)
(0.158343 -0.00694064 0)
(0.15909 -0.00699696 0)
(0.159754 -0.00697833 0)
(0.160337 -0.00689617 0)
(0.160801 -0.0067658 0)
(0.161304 -0.00656927 0)
(0.0975868 0.0940399 0)
(0.0979161 0.0824388 0)
(0.100495 0.0749295 0)
(0.103455 0.0683345 0)
(0.10582 0.0619395 0)
(0.108028 0.0556105 0)
(0.110374 0.0496017 0)
(0.112934 0.044131 0)
(0.115703 0.0392998 0)
(0.118632 0.0351036 0)
(0.121657 0.031454 0)
(0.124711 0.028217 0)
(0.127729 0.0252554 0)
(0.130657 0.0224605 0)
(0.13345 0.0197643 0)
(0.13608 0.0171367 0)
(0.138533 0.0145761 0)
(0.140809 0.0120977 0)
(0.142919 0.00972357 0)
(0.144881 0.00747604 0)
(0.146716 0.00537319 0)
(0.148448 0.00342728 0)
(0.150095 0.00164494 0)
(0.151673 2.84249e-05 0)
(0.153195 -0.00142298 0)
(0.154666 -0.0027116 0)
(0.156088 -0.00384063 0)
(0.157461 -0.0048138 0)
(0.158782 -0.00563549 0)
(0.160044 -0.00631096 0)
(0.161242 -0.00684659 0)
(0.162372 -0.00725001 0)
(0.163427 -0.00753004 0)
(0.164403 -0.00769653 0)
(0.165296 -0.00776004 0)
(0.1661 -0.00773135 0)
(0.166809 -0.00762157 0)
(0.167423 -0.0074398 0)
(0.167906 -0.00720342 0)
(0.168398 -0.00686107 0)
(0.0911479 0.0901324 0)
(0.0973779 0.0781018 0)
(0.101673 0.0707891 0)
(0.10514 0.0653624 0)
(0.107812 0.0594623 0)
(0.110329 0.0531985 0)
(0.112934 0.0470679 0)
(0.115684 0.041418 0)
(0.118591 0.0364164 0)
(0.121643 0.0320892 0)
(0.124806 0.0283628 0)
(0.128031 0.0251092 0)
(0.131257 0.0221915 0)
(0.13442 0.0194948 0)
(0.137467 0.0169393 0)
(0.140356 0.0144795 0)
(0.143064 0.0120979 0)
(0.145585 0.00979557 0)
(0.147927 0.00758409 0)
(0.150106 0.00547926 0)
(0.152147 0.0034966 0)
(0.154071 0.00164913 0)
(0.1559 -5.32253e-05 0)
(0.157651 -0.00160359 0)
(0.159336 -0.00299755 0)
(0.160959 -0.00423257 0)
(0.162521 -0.00530777 0)
(0.164021 -0.00622396 0)
(0.165452 -0.00698371 0)
(0.16681 -0.00759149 0)
(0.168087 -0.00805366 0)
(0.16928 -0.00837825 0)
(0.170382 -0.00857464 0)
(0.171391 -0.0086531 0)
(0.172304 -0.00862433 0)
(0.173116 -0.00849857 0)
(0.173823 -0.00828611 0)
(0.174423 -0.00799282 0)
(0.17489 -0.0076394 0)
(0.175325 -0.00712964 0)
(0.109204 0.0919922 0)
(0.106741 0.0766445 0)
(0.106086 0.0684512 0)
(0.1076 0.0628555 0)
(0.109977 0.0568661 0)
(0.112708 0.0505211 0)
(0.115588 0.04429 0)
(0.118588 0.0385151 0)
(0.12172 0.0333751 0)
(0.12499 0.0289171 0)
(0.128382 0.0250911 0)
(0.131855 0.0217899 0)
(0.135346 0.0188883 0)
(0.138787 0.0162714 0)
(0.142115 0.0138491 0)
(0.14528 0.0115594 0)
(0.148253 0.00936604 0)
(0.151022 0.00725335 0)
(0.153595 0.00521975 0)
(0.155987 0.00327285 0)
(0.158221 0.00142455 0)
(0.160323 -0.000311205 0)
(0.162313 -0.00192107 0)
(0.164209 -0.00339293 0)
(0.166021 -0.00471648 0)
(0.167754 -0.00588378 0)
(0.169408 -0.00688963 0)
(0.170979 -0.00773198 0)
(0.172462 -0.00841195 0)
(0.17385 -0.00893381 0)
(0.175138 -0.0093045 0)
(0.176321 -0.00953312 0)
(0.177398 -0.00963016 0)
(0.178367 -0.0096067 0)
(0.179226 -0.00947373 0)
(0.179977 -0.00924099 0)
(0.180616 -0.0089178 0)
(0.181142 -0.00850605 0)
(0.181542 -0.008031 0)
(0.181859 -0.0073428 0)
(0.106175 0.0993027 0)
(0.105674 0.078612 0)
(0.106982 0.0679264 0)
(0.108962 0.0608166 0)
(0.111654 0.0541722 0)
(0.114778 0.0475764 0)
(0.118072 0.0412186 0)
(0.121485 0.0353261 0)
(0.125021 0.0300526 0)
(0.128684 0.0254598 0)
(0.132456 0.0215258 0)
(0.136294 0.0181697 0)
(0.140134 0.0152814 0)
(0.143906 0.0127475 0)
(0.147545 0.0104675 0)
(0.151 0.00836192 0)
(0.154239 0.00637463 0)
(0.157251 0.00447171 0)
(0.16004 0.00263701 0)
(0.162623 0.000869025 0)
(0.165023 -0.000823911 0)
(0.167265 -0.00242766 0)
(0.16937 -0.00392501 0)
(0.171356 -0.00529802 0)
(0.173232 -0.00653007 0)
(0.175003 -0.00760759 0)
(0.176669 -0.00852117 0)
(0.178224 -0.0092662 0)
(0.179664 -0.00984301 0)
(0.180985 -0.0102564 0)
(0.182183 -0.0105146 0)
(0.183257 -0.0106287 0)
(0.184208 -0.0106106 0)
(0.185038 -0.0104726 0)
(0.185751 -0.0102263 0)
(0.18635 -0.00988082 0)
(0.18684 -0.00944448 0)
(0.187215 -0.00891484 0)
(0.187487 -0.00832213 0)
(0.187612 -0.00746017 0)
(0.11078 0.103061 0)
(0.108934 0.079735 0)
(0.108257 0.0671372 0)
(0.109707 0.0586319 0)
(0.112676 0.0511491 0)
(0.116375 0.0441629 0)
(0.120343 0.0376226 0)
(0.124446 0.0316035 0)
(0.128647 0.0262121 0)
(0.132923 0.0215144 0)
(0.137243 0.0175094 0)
(0.141563 0.0141368 0)
(0.145823 0.0112991 0)
(0.149962 0.00888206 0)
(0.153921 0.00677616 0)
(0.157654 0.00488536 0)
(0.161133 0.00313387 0)
(0.164348 0.00147016 0)
(0.167304 -0.000135326 0)
(0.17002 -0.00169404 0)
(0.172518 -0.00320172 0)
(0.174822 -0.00464373 0)
(0.176955 -0.00599858 0)
(0.178933 -0.00724229 0)
(0.180767 -0.00835198 0)
(0.18246 -0.00930867 0)
(0.184013 -0.0100992 0)
(0.185423 -0.0107172 0)
(0.186688 -0.0111631 0)
(0.187808 -0.011443 0)
(0.188783 -0.0115674 0)
(0.189618 -0.0115495 0)
(0.190318 -0.0114036 0)