/*--------------------------------*- C++ -*----------------------------------*\
  =========                 |
  \\      /  F ield         | OpenFOAM: The Open Source CFD Toolbox
   \\    /   O peration     | Website:  https://openfoam.org
    \\  /    A nd           | Version:  7
     \\/     M anipulation  |
\*---------------------------------------------------------------------------*/
FoamFile
{
    version     2.0;
    format      ascii;
    class       surfaceScalarField;
    location    "1.08";
    object      phi_0;
}
// * * * * * * * * * * * * * * * * * * * * * * * * * * * * * * * * * * * * * //

dimensions      [1 0 -1 0 0 0 0];

internalField   nonuniform List<scalar> 
11256
(
0.00286324
0.0040114
0.0017076
0.00115521
0.00144819
0.000258665
0.00130528
0.000139513
0.0012119
8.82688e-05
0.00115875
4.78928e-05
0.00112319
3.09657e-05
0.00108971
2.96219e-05
0.00105661
2.98027e-05
0.00102673
2.69451e-05
0.00100087
2.31281e-05
0.000978005
2.0207e-05
0.000957102
1.82535e-05
0.000937644
1.67657e-05
0.000919421
1.54692e-05
0.000902282
1.43249e-05
0.000886083
1.33426e-05
0.000870705
1.25105e-05
0.000856058
1.18129e-05
0.000842068
1.1245e-05
0.00082867
1.08052e-05
0.000815805
1.04848e-05
0.000803434
1.02635e-05
0.000791529
1.01151e-05
0.000780076
1.00167e-05
0.000769061
9.95651e-06
0.000758462
9.93309e-06
0.00074825
9.9514e-06
0.000738385
1.0016e-05
0.000728826
1.01285e-05
0.000719534
1.02861e-05
0.000710477
1.04802e-05
0.000701631
1.07004e-05
0.000692977
1.09381e-05
0.000684505
1.11829e-05
0.000676206
1.14285e-05
0.000668078
1.16661e-05
0.000660118
1.18906e-05
0.000652327
1.2097e-05
0.000644708
1.22752e-05
0.000637265
1.24222e-05
0.00063
1.25377e-05
0.000622914
1.26222e-05
0.000615998
1.26829e-05
0.00060924
1.27272e-05
0.000602623
1.27633e-05
0.000596126
1.27952e-05
0.00058973
1.28264e-05
0.000583419
1.28583e-05
0.000577181
1.28912e-05
0.000571007
1.29237e-05
0.000564889
1.29575e-05
0.000558825
1.29914e-05
0.00055281
1.30265e-05
0.000546839
1.30633e-05
0.000540912
1.30973e-05
0.000535032
1.31232e-05
0.000529206
1.31388e-05
0.000523438
1.31428e-05
0.000517736
1.31328e-05
0.000512103
1.31119e-05
0.00050654
1.30836e-05
0.000501048
1.30483e-05
0.000495631
1.30058e-05
0.000490291
1.29557e-05
0.000485035
1.28968e-05
0.000479869
1.28277e-05
0.000474801
1.27516e-05
0.00046983
1.26764e-05
0.000464947
1.26107e-05
0.000460138
1.25609e-05
0.000455388
1.25317e-05
0.000450679
1.25241e-05
0.000445998
1.25341e-05
0.000441339
1.25538e-05
0.000436707
1.25743e-05
0.000432111
1.25883e-05
0.00042756
1.25931e-05
0.000423067
1.25884e-05
0.000418639
1.2576e-05
0.000414277
1.2561e-05
0.000409978
1.2549e-05
0.000405734
1.25441e-05
0.000401535
1.25484e-05
0.000397372
1.2562e-05
0.000393236
1.25837e-05
0.000389121
1.26116e-05
0.000385024
1.26428e-05
0.000380942
1.26753e-05
0.000376878
1.27072e-05
0.000372832
1.27369e-05
0.000368808
1.27642e-05
0.000364807
1.27894e-05
0.00036083
1.28128e-05
0.00035688
1.28346e-05
0.000352956
1.2855e-05
0.00034906
1.2875e-05
0.000345191
1.28948e-05
0.000341348
1.29143e-05
0.000337533
1.29333e-05
0.000333744
1.29523e-05
0.000329982
1.29712e-05
0.000326245
1.299e-05
0.000322535
1.30084e-05
0.000318851
1.30263e-05
0.000315193
1.30437e-05
0.000311562
1.30606e-05
0.000307957
1.30772e-05
0.000304378
1.30934e-05
0.000300826
1.31089e-05
0.000297302
1.31239e-05
0.000293803
1.31386e-05
0.000290333
1.31527e-05
0.000286889
1.31662e-05
0.000283473
1.31793e-05
0.000280084
1.31921e-05
0.000276723
1.32043e-05
0.00027339
1.32161e-05
0.000270085
1.32273e-05
0.000266807
1.32381e-05
0.000263558
1.32487e-05
0.000260337
1.32588e-05
0.000257144
1.32683e-05
0.00025398
1.32775e-05
0.000250844
1.32864e-05
0.000247737
1.32948e-05
0.000244658
1.33028e-05
0.000241608
1.33104e-05
0.000238587
1.33176e-05
0.000235595
1.33244e-05
0.000232632
1.33307e-05
0.000229698
1.33367e-05
0.000226793
1.33425e-05
0.000223918
1.33478e-05
0.000221071
1.33527e-05
0.000218254
1.33572e-05
0.000215466
1.33613e-05
0.000212708
1.33653e-05
0.000209979
1.33688e-05
0.00020728
1.33717e-05
0.00020461
1.33744e-05
0.00020197
1.33771e-05
0.000199359
1.33793e-05
0.000196779
1.33807e-05
0.000194228
1.3382e-05
0.000191706
1.33833e-05
0.000189214
1.3384e-05
0.000186752
1.33842e-05
0.00018432
1.33843e-05
0.000181918
1.3384e-05
0.000179545
1.33835e-05
0.000177202
1.33826e-05
0.000174889
1.33813e-05
0.000172605
1.33797e-05
0.000170352
1.33778e-05
0.000168128
1.33756e-05
0.000165934
1.33731e-05
0.00016377
1.33704e-05
0.000161636
1.33672e-05
0.000159532
1.33636e-05
0.000157458
1.336e-05
0.000155413
1.3356e-05
0.000153398
1.33516e-05
0.000151413
1.3347e-05
0.000149457
1.33421e-05
0.000147531
1.33369e-05
0.000145635
1.33314e-05
0.000143769
1.33256e-05
0.000141933
1.33192e-05
0.000140126
1.3313e-05
0.000138348
1.33067e-05
0.000136601
1.32997e-05
0.000134883
1.32921e-05
0.000133194
1.32848e-05
0.000131535
1.32773e-05
0.000129906
1.32693e-05
0.000128305
1.32609e-05
0.000126735
1.32522e-05
0.000125194
1.32433e-05
0.000123682
1.32344e-05
0.0001222
1.32253e-05
0.000120747
1.32157e-05
0.000119323
1.32056e-05
0.000117929
1.31955e-05
0.000116564
1.31853e-05
0.000115228
1.31747e-05
0.000113921
1.31642e-05
0.000112643
1.31531e-05
0.000111394
1.3141e-05
0.000110175
1.313e-05
0.000108984
1.31187e-05
0.000107823
1.31059e-05
0.000106691
1.30938e-05
0.000105587
1.30814e-05
0.000104513
1.30689e-05
0.000103468
1.30556e-05
0.000102451
1.30425e-05
0.000101463
1.30294e-05
0.000100504
1.30157e-05
9.95741e-05
1.30018e-05
9.86726e-05
1.2988e-05
9.78001e-05
1.29738e-05
9.69564e-05
1.2959e-05
9.61412e-05
1.29444e-05
9.53546e-05
1.29298e-05
9.45966e-05
1.29147e-05
9.38673e-05
1.28994e-05
9.31665e-05
1.28841e-05
9.24945e-05
1.28685e-05
9.18509e-05
1.28526e-05
9.12359e-05
1.28364e-05
9.06492e-05
1.28203e-05
9.00911e-05
1.28041e-05
8.95616e-05
1.27874e-05
8.90603e-05
1.2771e-05
8.85877e-05
1.27538e-05
8.81432e-05
1.27367e-05
8.77273e-05
1.27192e-05
8.73395e-05
1.27029e-05
8.69808e-05
1.26838e-05
8.66493e-05
1.26674e-05
8.63473e-05
1.26484e-05
8.60722e-05
1.26321e-05
8.58279e-05
1.26109e-05
8.56077e-05
1.25968e-05
8.54214e-05
1.25731e-05
8.52551e-05
1.25622e-05
8.5128e-05
1.25339e-05
8.50125e-05
1.2527e-05
8.49478e-05
1.24956e-05
8.48807e-05
1.2488e-05
8.48625e-05
1.24804e-05
8.48767e-05
1.24048e-05
8.48566e-05
1.25246e-05
8.4948e-05
1.23053e-05
8.49961e-05
1.25776e-05
8.49278e-05
1.21514e-05
8.5331e-05
1.30266e-05
8.48941e-05
1.15484e-05
1.26026e-05
0.00548871
0.00539705
0.00434503
0.00229786
0.00386099
0.000742396
0.00352251
0.000475688
0.00328395
0.000322373
0.00313556
0.000190795
0.00303641
0.000124557
0.00295354
0.000107323
0.00287695
0.000101671
0.00280811
9.14612e-05
0.00274813
7.9064e-05
0.00269555
6.88969e-05
0.00264834
6.16392e-05
0.0026051
5.61331e-05
0.00256511
5.14873e-05
0.0025279
4.74107e-05
0.00249309
4.38375e-05
0.00246039
4.07147e-05
0.00242954
3.7999e-05
0.00240033
3.56748e-05
0.00237258
3.37301e-05
0.00234613
3.21279e-05
0.00232089
3.08019e-05
0.00229682
2.96757e-05
0.00227387
2.86881e-05
0.00225203
2.78099e-05
0.00223124
2.70419e-05
0.00221142
2.64019e-05
0.0021925
2.59045e-05
0.00217437
2.55525e-05
0.00215694
2.53338e-05
0.00214014
2.52236e-05
0.0021239
2.51951e-05
0.00210818
2.5225e-05
0.00209296
2.52903e-05
0.00207821
2.53773e-05
0.0020639
2.5471e-05
0.00205003
2.55606e-05
0.0020366
2.56298e-05
0.0020236
2.56578e-05
0.00201105
2.56361e-05
0.00199893
2.5563e-05
0.00198724
2.54441e-05
0.00197597
2.52924e-05
0.00196508
2.51254e-05
0.00195454
2.4961e-05
0.0019443
2.48026e-05
0.00193433
2.46546e-05
0.0019246
2.45183e-05
0.00191507
2.43916e-05
0.00190572
2.42733e-05
0.00189654
2.41645e-05
0.00188749
2.40655e-05
0.00187858
2.3981e-05
0.00186977
2.39119e-05
0.00186107
2.38484e-05
0.00185248
2.37762e-05
0.00184399
2.36891e-05
0.00183562
2.35805e-05
0.00182737
2.34425e-05
0.00181926
2.32796e-05
0.0018113
2.30955e-05
0.00180349
2.28903e-05
0.00179584
2.26622e-05
0.00178836
2.24103e-05
0.00178106
2.21327e-05
0.00177396
2.18275e-05
0.00176706
2.15033e-05
0.00176035
2.11806e-05
0.00175383
2.08819e-05
0.00174747
2.06242e-05
0.00174123
2.04215e-05
0.00173508
2.02789e-05
0.00172899
2.0188e-05
0.00172295
2.01315e-05
0.00171694
2.00872e-05
0.00171099
2.00369e-05
0.0017051
1.99717e-05
0.00169928
1.98874e-05
0.00169354
1.97862e-05
0.0016879
1.96784e-05
0.00168235
1.95762e-05
0.00167689
1.94891e-05
0.00167149
1.94226e-05
0.00166615
1.93778e-05
0.00166086
1.93537e-05
0.00165561
1.93456e-05
0.00165039
1.93477e-05
0.00164519
1.93556e-05
0.00164002
1.93641e-05
0.00163488
1.93694e-05
0.00162976
1.93709e-05
0.00162468
1.93685e-05
0.00161963
1.93627e-05
0.00161462
1.93538e-05
0.00160964
1.93422e-05
0.00160471
1.93299e-05
0.00159981
1.93176e-05
0.00159495
1.9305e-05
0.00159013
1.92919e-05
0.00158534
1.92791e-05
0.0015806
1.92672e-05
0.00157589
1.92554e-05
0.00157122
1.92432e-05
0.00156658
1.92305e-05
0.00156199
1.92176e-05
0.00155743
1.92041e-05
0.00155291
1.91906e-05
0.00154843
1.91768e-05
0.00154399
1.91617e-05
0.00153959
1.91464e-05
0.00153522
1.91308e-05
0.00153089
1.91145e-05
0.00152661
1.90975e-05
0.00152236
1.90803e-05
0.00151815
1.90627e-05
0.00151398
1.90445e-05
0.00150985
1.90258e-05
0.00150576
1.90064e-05
0.00150171
1.89866e-05
0.0014977
1.89669e-05
0.00149373
1.89466e-05
0.0014898
1.89254e-05
0.00148591
1.89042e-05
0.00148206
1.88828e-05
0.00147825
1.88607e-05
0.00147448
1.88383e-05
0.00147075
1.88156e-05
0.00146707
1.87925e-05
0.00146342
1.87689e-05
0.00145982
1.87448e-05
0.00145626
1.87207e-05
0.00145273
1.86965e-05
0.00144925
1.86718e-05
0.00144582
1.86464e-05
0.00144242
1.86209e-05
0.00143906
1.85949e-05
0.00143575
1.85691e-05
0.00143247
1.85428e-05
0.00142924
1.85156e-05
0.00142605
1.84888e-05
0.0014229
1.8462e-05
0.0014198
1.84342e-05
0.00141673
1.84058e-05
0.00141371
1.83777e-05
0.00141072
1.83496e-05
0.00140778
1.83208e-05
0.00140488
1.82916e-05
0.00140202
1.82624e-05
0.00139921
1.82331e-05
0.00139643
1.82036e-05
0.0013937
1.81737e-05
0.00139101
1.81432e-05
0.00138835
1.81125e-05
0.00138574
1.80816e-05
0.00138318
1.80506e-05
0.00138065
1.80196e-05
0.00137816
1.79882e-05
0.00137571
1.79564e-05
0.00137331
1.79241e-05
0.00137095
1.7892e-05
0.00136862
1.78596e-05
0.00136634
1.78267e-05
0.0013641
1.77937e-05
0.0013619
1.77607e-05
0.00135974
1.77273e-05
0.00135762
1.76937e-05
0.00135554
1.76595e-05
0.0013535
1.76251e-05
0.0013515
1.75911e-05
0.00134954
1.75573e-05
0.00134762
1.75222e-05
0.00134575
1.74864e-05
0.00134391
1.74512e-05
0.00134211
1.74163e-05
0.00134035
1.73807e-05
0.00133863
1.73447e-05
0.00133695
1.73086e-05
0.00133531
1.72723e-05
0.00133371
1.72359e-05
0.00133214
1.71992e-05
0.00133062
1.71622e-05
0.00132914
1.71248e-05
0.00132769
1.70874e-05
0.00132628
1.705e-05
0.00132492
1.70123e-05
0.00132359
1.69748e-05
0.0013223
1.69366e-05
0.00132104
1.68974e-05
0.00131983
1.68594e-05
0.00131865
1.68211e-05
0.00131752
1.67814e-05
0.00131642
1.67423e-05
0.00131535
1.67033e-05
0.00131433
1.66638e-05
0.00131334
1.66236e-05
0.0013124
1.65837e-05
0.00131149
1.65441e-05
0.00131061
1.6504e-05
0.00130978
1.64634e-05
0.00130898
1.64229e-05
0.00130822
1.6382e-05
0.00130749
1.63404e-05
0.0013068
1.62993e-05
0.00130615
1.62585e-05
0.00130554
1.62172e-05
0.00130496
1.61756e-05
0.00130442
1.61337e-05
0.00130392
1.60914e-05
0.00130346
1.60492e-05
0.00130303
1.6007e-05
0.00130263
1.59646e-05
0.00130228
1.59224e-05
0.00130195
1.58795e-05
0.00130167
1.58368e-05
0.00130142
1.57935e-05
0.00130121
1.57503e-05
0.00130103
1.57065e-05
0.00130089
1.56651e-05
0.00130079
1.56194e-05
0.00130072
1.55775e-05
0.00130069
1.55327e-05
0.00130069
1.54903e-05
0.00130073
1.54442e-05
0.0013008
1.54029e-05
0.00130091
1.53564e-05
0.00130106
1.53161e-05
0.00130123
1.52704e-05
0.00130145
1.52267e-05
0.00130169
1.51882e-05
0.00130197
1.51357e-05
0.00130228
1.51459e-05
0.00130264
1.49673e-05
0.00130293
1.52552e-05
0.00130343
1.46856e-05
0.00130371
1.55105e-05
0.001304
1.43667e-05
0.00130482
1.60686e-05
0.00130445
1.40427e-05
1.49338e-05
0.00683719
0.005434
0.00617753
0.00295582
0.0057389
0.00118097
0.00533699
0.000876689
0.00501722
0.000639245
0.0048037
0.000399707
0.00465783
0.000264863
0.00454013
0.000219193
0.00443496
0.000201213
0.00434096
0.000180238
0.00425867
0.000156609
0.00418657
0.000136698
0.00412226
0.000122
0.00406388
0.000110813
0.00401024
0.00010152
0.0039606
9.34219e-05
0.00391439
8.62751e-05
0.00387117
7.99473e-05
0.00383056
7.4367e-05
0.00379222
6.95139e-05
0.00375587
6.53693e-05
0.00372129
6.18652e-05
0.00368837
5.88784e-05
0.00365703
5.62678e-05
0.00362725
5.39217e-05
0.00359901
5.1787e-05
0.00357227
4.98652e-05
0.00354692
4.81868e-05
0.00352287
4.67761e-05
0.00349997
4.56336e-05
0.0034781
4.4732e-05
0.00345715
4.40234e-05
0.00343704
4.34594e-05
0.00341769
4.2999e-05
0.00339907
4.26089e-05
0.00338113
4.2271e-05
0.00336384
4.1967e-05
0.00334719
4.16857e-05
0.00333117
4.13997e-05
0.00331579
4.10786e-05
0.00330105
4.07072e-05
0.00328696
4.02837e-05
0.0032735
3.98191e-05
0.00326067
3.93293e-05
0.00324841
3.88444e-05
0.00323668
3.8387e-05
0.00322543
3.79539e-05
0.00321461
3.75509e-05
0.00320416
3.71728e-05
0.00319405
3.68141e-05
0.00318423
3.64751e-05
0.00317465
3.61544e-05
0.0031653
3.58572e-05
0.00315615
3.55936e-05
0.00314715
3.53662e-05
0.0031383
3.51622e-05
0.0031296
3.49582e-05
0.00312104
3.47431e-05
0.00311264
3.4501e-05
0.00310441
3.42179e-05
0.00309635
3.3898e-05
0.0030885
3.3539e-05
0.00308085
3.31406e-05
0.00307343
3.26998e-05
0.00306625
3.22121e-05
0.00305932
3.16749e-05
0.00305266
3.10865e-05
0.00304626
3.04619e-05
0.00304013
2.98348e-05
0.00303424
2.92432e-05
0.00302855
2.87176e-05
0.00302302
2.82844e-05
0.00301761
2.7956e-05
0.00301227
2.7722e-05
0.00300698
2.75565e-05
0.00300173
2.74247e-05
0.00299651
2.72969e-05
0.00299134
2.71553e-05
0.00298624
2.69894e-05
0.00298122
2.67998e-05
0.00297628
2.66e-05
0.00297143
2.64079e-05
0.00296667
2.62373e-05
0.00296198
2.60973e-05
0.00295736
2.59907e-05
0.00295278
2.59172e-05
0.00294825
2.58699e-05
0.00294374
2.58402e-05
0.00293926
2.58217e-05
0.00293481
2.58058e-05
0.00293037
2.57863e-05
0.00292597
2.57621e-05
0.00292159
2.57328e-05
0.00291724
2.56983e-05
0.00291292
2.56589e-05
0.00290864
2.56157e-05
0.00290439
2.55712e-05
0.00290018
2.55267e-05
0.002896
2.54815e-05
0.00289186
2.54357e-05
0.00288776
2.53906e-05
0.00288369
2.53468e-05
0.00287966
2.53034e-05
0.00287566
2.52593e-05
0.00287169
2.52148e-05
0.00286777
2.517e-05
0.00286388
2.51244e-05
0.00286002
2.50792e-05
0.0028562
2.50335e-05
0.00285242
2.49859e-05
0.00284867
2.49382e-05
0.00284496
2.48903e-05
0.00284129
2.48413e-05
0.00283765
2.47914e-05
0.00283406
2.47414e-05
0.00283049
2.46908e-05
0.00282697
2.46395e-05
0.00282348
2.45874e-05
0.00282003
2.45345e-05
0.00281662
2.44812e-05
0.00281325
2.44281e-05
0.00280992
2.43742e-05
0.00280662
2.43191e-05
0.00280336
2.42641e-05
0.00280014
2.42089e-05
0.00279696
2.41529e-05
0.00279382
2.40964e-05
0.00279072
2.40397e-05
0.00278766
2.39826e-05
0.00278463
2.39249e-05
0.00278165
2.38666e-05
0.0027787
2.38085e-05
0.0027758
2.37505e-05
0.00277293
2.36917e-05
0.0027701
2.36321e-05
0.00276732
2.35724e-05
0.00276457
2.35124e-05
0.00276186
2.34527e-05
0.00275919
2.33924e-05
0.00275657
2.3331e-05
0.00275398
2.32705e-05
0.00275143
2.32098e-05
0.00274892
2.31477e-05
0.00274645
2.30854e-05
0.00274402
2.30237e-05
0.00274164
2.29619e-05
0.00273929
2.28991e-05
0.00273698
2.2836e-05
0.00273471
2.27733e-05
0.00273248
2.27109e-05
0.00273029
2.26481e-05
0.00272814
2.25848e-05
0.00272603
2.25208e-05
0.00272396
2.24565e-05
0.00272193
2.23924e-05
0.00271994
2.23284e-05
0.00271799
2.22644e-05
0.00271608
2.22002e-05
0.00271421
2.21354e-05
0.00271238
2.20703e-05
0.00271058
2.20054e-05
0.00270883
2.19403e-05
0.00270711
2.18748e-05
0.00270544
2.18093e-05
0.0027038
2.1744e-05
0.00270221
2.16785e-05
0.00270065
2.16124e-05
0.00269913
2.15458e-05
0.00269765
2.14795e-05
0.0026962
2.1414e-05
0.0026948
2.13484e-05
0.00269344
2.12814e-05
0.00269211
2.12136e-05
0.00269082
2.11467e-05
0.00268957
2.10806e-05
0.00268836
2.10138e-05
0.00268718
2.09463e-05
0.00268605
2.08792e-05
0.00268495
2.08121e-05
0.00268389
2.07446e-05
0.00268286
2.06768e-05
0.00268188
2.0609e-05
0.00268093
2.05409e-05
0.00268002
2.04728e-05
0.00267914
2.04049e-05
0.00267831
2.03371e-05
0.00267751
2.02693e-05
0.00267674
2.02008e-05
0.00267602
2.01316e-05
0.00267533
2.00635e-05
0.00267467
1.99955e-05
0.00267406
1.99259e-05
0.00267348
1.98571e-05
0.00267293
1.97885e-05
0.00267242
1.97194e-05
0.00267195
1.96496e-05
0.00267151
1.95804e-05
0.00267111
1.95119e-05
0.00267075
1.94429e-05
0.00267042
1.93733e-05
0.00267012
1.93037e-05
0.00266987
1.92338e-05
0.00266964
1.91633e-05
0.00266946
1.90936e-05
0.0026693
1.90246e-05
0.00266919
1.89552e-05
0.0026691
1.88853e-05
0.00266906
1.88149e-05
0.00266904
1.87441e-05
0.00266907
1.86741e-05
0.00266912
1.86042e-05
0.00266921
1.85339e-05
0.00266934
1.84642e-05
0.0026695
1.83938e-05
0.00266969
1.83233e-05
0.00266992
1.82527e-05
0.00267019
1.81819e-05
0.00267048
1.81113e-05
0.00267081
1.80429e-05
0.00267118
1.79708e-05
0.00267158
1.79012e-05
0.00267201
1.78315e-05
0.00267247
1.77593e-05
0.00267297
1.76925e-05
0.00267351
1.76163e-05
0.00267407
1.75567e-05
0.00267467
1.7473e-05
0.00267529
1.74278e-05
0.00267597
1.73242e-05
0.00267665
1.73064e-05
0.00267739
1.71818e-05
0.00267812
1.72308e-05
0.00267892
1.69449e-05
0.00267965
1.74071e-05
0.00268055
1.648e-05
0.0026813
1.78611e-05
0.00268192
1.61522e-05
0.00268314
1.82277e-05
0.00268334
1.63623e-05
1.68171e-05
0.00745207
0.00485596
0.00729982
0.00310582
0.00710564
0.00137494
0.00680032
0.00118207
0.00649059
0.000947782
0.00625875
0.000628528
0.00609109
0.000427818
0.00595514
0.000349344
0.00583506
0.000315045
0.00572793
0.000281235
0.00563354
0.000245355
0.00555042
0.000214845
0.00547634
0.000191844
0.00540935
0.000174225
0.0053481
0.0001597
0.00529164
0.000147125
0.00523924
0.000136001
0.00519036
0.000126066
0.00514448
0.000117215
0.00510117
0.000109433
0.00506007
0.000102708
0.00502089
9.69494e-05
0.00498348
9.19828e-05
0.00494777
8.75998e-05
0.00491378
8.36336e-05
0.00488153
8.00041e-05
0.00485102
7.67118e-05
0.00482218
7.37997e-05
0.00479491
7.1299e-05
0.00476907
6.92048e-05
0.00474452
6.74677e-05
0.00472112
6.60076e-05
0.00469876
6.4749e-05
0.00467735
6.36283e-05
0.00465682
6.26018e-05
0.00463711
6.16502e-05
0.00461818
6.07585e-05
0.00459999
5.99192e-05
0.00458254
5.90987e-05
0.00456584
5.8262e-05
0.00454991
5.73901e-05
0.00453477
5.64824e-05
0.00452043
5.55562e-05
0.00450687
5.46344e-05
0.00449408
5.37563e-05
0.00448201
5.29444e-05
0.00447061
5.21891e-05
0.00445983
5.14923e-05
0.00444959
5.08402e-05
0.00443984
5.02189e-05
0.00443052
4.96289e-05
0.00442157
4.90653e-05
0.00441293
4.85377e-05
0.00440454
4.80637e-05
0.00439638
4.76471e-05
0.00438839
4.72752e-05
0.00438058
4.69209e-05
0.00437294
4.65668e-05
0.00436547
4.61865e-05
0.00435821
4.57606e-05
0.00435116
4.52909e-05
0.00434435
4.47686e-05
0.0043378
4.41906e-05
0.00433154
4.35518e-05
0.00432557
4.28444e-05
0.00431992
4.20622e-05
0.00431461
4.12031e-05
0.00430963
4.02883e-05
0.00430498
3.93624e-05
0.00430063
3.84766e-05
0.00429652
3.76761e-05
0.00429261
3.70017e-05
0.00428883
3.64753e-05
0.00428513
3.60875e-05
0.00428146
3.58065e-05
0.0042778
3.55872e-05
0.00427415
3.53901e-05
0.00427052
3.5188e-05
0.00426691
3.49625e-05
0.00426336
3.47109e-05
0.00425988
3.44486e-05
0.00425647
3.41963e-05
0.00425314
3.39713e-05
0.00424989
3.37853e-05
0.00424669
3.36427e-05
0.00424354
3.35438e-05
0.00424043
3.34804e-05
0.00423735
3.34416e-05
0.0042343
3.3419e-05
0.00423126
3.34006e-05
0.00422825
3.33788e-05
0.00422525
3.33517e-05
0.00422227
3.33185e-05
0.00421932
3.32784e-05
0.00421638
3.32315e-05
0.00421348
3.31794e-05
0.0042106
3.31256e-05
0.00420775
3.30711e-05
0.00420493
3.30153e-05
0.00420214
3.29585e-05
0.00419938
3.29024e-05
0.00419664
3.2848e-05
0.00419394
3.27936e-05
0.00419127
3.2738e-05
0.00418863
3.26817e-05
0.00418601
3.26248e-05
0.00418343
3.25667e-05
0.00418088
3.2509e-05
0.00417835
3.24502e-05
0.00417586
3.23888e-05
0.0041734
3.23271e-05
0.00417096
3.22648e-05
0.00416856
3.22007e-05
0.00416619
3.21355e-05
0.00416385
3.207e-05
0.00416154
3.20034e-05
0.00415926
3.19355e-05
0.00415702
3.18665e-05
0.0041548
3.17961e-05
0.00415262
3.1725e-05
0.00415047
3.1654e-05
0.00414834
3.15817e-05
0.00414626
3.15077e-05
0.0041442
3.14338e-05
0.00414217
3.13593e-05
0.00414018
3.12835e-05
0.00413822
3.12071e-05
0.0041363
3.11302e-05
0.0041344
3.10525e-05
0.00413254
3.09739e-05
0.00413071
3.08945e-05
0.00412891
3.08152e-05
0.00412715
3.07359e-05
0.00412542
3.06552e-05
0.00412372
3.05736e-05
0.00412206
3.04915e-05
0.00412042
3.04091e-05
0.00411883
3.03269e-05
0.00411726
3.02437e-05
0.00411573
3.01593e-05
0.00411423
3.0076e-05
0.00411277
2.9992e-05
0.00411133
2.99061e-05
0.00410994
2.982e-05
0.00410857
2.97347e-05
0.00410724
2.9649e-05
0.00410594
2.95618e-05
0.00410468
2.94743e-05
0.00410345
2.93874e-05
0.00410225
2.93009e-05
0.00410108
2.92138e-05
0.00409995
2.91258e-05
0.00409885
2.90368e-05
0.00409779
2.89474e-05
0.00409676
2.88582e-05
0.00409576
2.87692e-05
0.0040948
2.86803e-05
0.00409386
2.8591e-05
0.00409297
2.85009e-05
0.0040921
2.84105e-05
0.00409127
2.83202e-05
0.00409047
2.82295e-05
0.0040897
2.81384e-05
0.00408897
2.80474e-05
0.00408827
2.79566e-05
0.0040876
2.78656e-05
0.00408697
2.77737e-05
0.00408636
2.7681e-05
0.00408579
2.75892e-05
0.00408526
2.74984e-05
0.00408475
2.7407e-05
0.00408428
2.73139e-05
0.00408384
2.72201e-05
0.00408343
2.71273e-05
0.00408305
2.70357e-05
0.0040827
2.69432e-05
0.00408239
2.68498e-05
0.00408211
2.6757e-05
0.00408186
2.66643e-05
0.00408164
2.65708e-05
0.00408146
2.64771e-05
0.0040813
2.63836e-05
0.00408118
2.62897e-05
0.00408108
2.61957e-05
0.00408102
2.61019e-05
0.00408099
2.60087e-05
0.00408099
2.59155e-05
0.00408102
2.58212e-05
0.00408108
2.57262e-05
0.00408118
2.56326e-05
0.0040813
2.55391e-05
0.00408145
2.5444e-05
0.00408164
2.53497e-05
0.00408185
2.52558e-05
0.00408209
2.51611e-05
0.00408237
2.50658e-05
0.00408267
2.49712e-05
0.00408301
2.48779e-05
0.00408337
2.47839e-05
0.00408377
2.46893e-05
0.00408419
2.45945e-05
0.00408464
2.44993e-05
0.00408513
2.44035e-05
0.00408564
2.43088e-05
0.00408618
2.42154e-05
0.00408675
2.41216e-05
0.00408735
2.40271e-05
0.00408798
2.39318e-05
0.00408864
2.38361e-05
0.00408932
2.37417e-05
0.00409004
2.36476e-05
0.00409078
2.35531e-05
0.00409156
2.34591e-05
0.00409236
2.33648e-05
0.00409319
2.32697e-05
0.00409405
2.31755e-05
0.00409494
2.30802e-05
0.00409585
2.29865e-05
0.0040968
2.2894e-05
0.00409777
2.27997e-05
0.00409877
2.27044e-05
0.0040998
2.26148e-05
0.00410086
2.25137e-05
0.00410194
2.24331e-05
0.00410305
2.23209e-05
0.00410418
2.22567e-05
0.00410536
2.21278e-05
0.00410654
2.20909e-05
0.00410777
2.19279e-05
0.004109
2.19322e-05
0.00411028
2.17517e-05
0.00411157
2.18122e-05
0.00411287
2.14795e-05
0.00411419
2.20268e-05
0.0041155
2.09125e-05
0.00411688
2.25586e-05
0.00411794
2.07485e-05
0.00411946
2.27638e-05
0.00412046
2.12292e-05
2.14637e-05
0.00761143
0.00411857
0.00779945
0.0029152
0.00788488
0.00128891
0.0077996
0.00126771
0.00760998
0.00113742
0.00742971
0.00080743
0.00728219
0.000572071
0.00715498
0.000471481
0.00703964
0.000424033
0.00693495
0.000379018
0.0068411
0.000332382
0.00675731
0.000292432
0.00668204
0.000261821
0.00661384
0.000238188
0.00655153
0.000218761
0.00649421
0.000201996
0.00644115
0.000187132
0.00639172
0.000173774
0.00634535
0.000161771
0.0063015
0.000151115
0.00625969
0.000141813
0.00621959
0.000133774
0.00618099
0.000126784
0.00614382
0.000120576
0.00610815
0.000114933
0.00607408
0.000109751
0.00604169
0.000105033
0.00601102
0.000100836
0.00598203
9.72024e-05
0.00595465
9.41223e-05
0.00592873
9.15208e-05
0.00590417
8.92811e-05
0.00588082
8.7292e-05
0.00585857
8.54616e-05
0.0058373
8.373e-05
0.00581691
8.20781e-05
0.00579731
8.04961e-05
0.00577846
7.89811e-05
0.00576032
7.74998e-05
0.00574289
7.60181e-05
0.00572622
7.45176e-05
0.00571034
7.30021e-05
0.0056953
7.1498e-05
0.00568113
7.0043e-05
0.00566784
6.86821e-05
0.00565543
6.7439e-05
0.00564388
6.63008e-05
0.00563315
6.52597e-05
0.00562318
6.42934e-05
0.00561392
6.33806e-05
0.00560527
6.25125e-05
0.00559717
6.16818e-05
0.00558951
6.08982e-05
0.00558221
6.01845e-05
0.00557519
5.95453e-05
0.0055684
5.8968e-05
0.00556179
5.84278e-05
0.00555535
5.79016e-05
0.00554908
5.7355e-05
0.00554302
5.67643e-05
0.00553718
5.61278e-05
0.0055316
5.54347e-05
0.00552631
5.46772e-05
0.00552134
5.38473e-05
0.00551672
5.2937e-05
0.00551248
5.19347e-05
0.00550864
5.08353e-05
0.00550521
4.96651e-05
0.0055022
4.84766e-05
0.00549956
4.73287e-05
0.00549726
4.62788e-05
0.00549521
4.5382e-05
0.00549333
4.46689e-05
0.00549154
4.41332e-05
0.00548977
4.37395e-05
0.00548798
4.34363e-05
0.00548614
4.31771e-05
0.00548426
4.29265e-05
0.00548235
4.26584e-05
0.00548043
4.23672e-05
0.00547854
4.20682e-05
0.00547669
4.1784e-05
0.0054749
4.15334e-05
0.00547318
4.13298e-05
0.00547152
4.11788e-05
0.00546992
4.10806e-05
0.00546836
4.10261e-05
0.00546684
4.10033e-05
0.00546535
4.10005e-05
0.00546388
4.10033e-05
0.00546243
4.10031e-05
0.005461
4.09975e-05
0.00545958
4.0985e-05
0.00545817
4.09642e-05
0.00545679
4.09346e-05
0.00545543
4.08987e-05
0.00545408
4.08606e-05
0.00545276
4.08213e-05
0.00545147
4.07799e-05
0.0054502
4.07372e-05
0.00544895
4.06952e-05
0.00544773
4.06549e-05
0.00544654
4.06144e-05
0.00544537
4.0572e-05
0.00544423
4.05285e-05
0.00544312
4.04838e-05
0.00544203
4.04378e-05
0.00544097
4.03919e-05
0.00543993
4.03442e-05
0.00543892
4.02933e-05
0.00543794
4.02418e-05
0.00543699
4.0189e-05
0.00543606
4.01337e-05
0.00543515
4.0077e-05
0.00543428
4.00198e-05
0.00543343
3.99606e-05
0.0054326
3.98997e-05
0.0054318
3.98371e-05
0.00543103
3.97725e-05
0.00543029
3.97068e-05
0.00542957
3.9641e-05
0.00542888
3.95731e-05
0.00542821
3.95032e-05
0.00542757
3.9433e-05
0.00542696
3.93616e-05
0.00542637
3.92885e-05
0.00542581
3.92144e-05
0.00542528
3.91395e-05
0.00542477
3.90633e-05
0.00542429
3.89855e-05
0.00542384
3.89067e-05
0.00542341
3.8828e-05
0.00542301
3.87488e-05
0.00542264
3.86677e-05
0.00542229
3.85851e-05
0.00542197
3.85018e-05
0.00542168
3.84179e-05
0.00542141
3.8334e-05
0.00542117
3.82484e-05
0.00542096
3.81617e-05
0.00542077
3.8076e-05
0.00542061
3.79886e-05
0.00542048
3.78988e-05
0.00542037
3.7809e-05
0.00542029
3.77201e-05
0.00542024
3.76301e-05
0.00542021
3.7538e-05
0.00542021
3.74453e-05
0.00542024
3.73535e-05
0.00542029
3.72619e-05
0.00542037
3.71695e-05
0.00542047
3.70756e-05
0.0054206
3.69802e-05
0.00542076
3.68841e-05
0.00542094
3.67881e-05
0.00542115
3.66923e-05
0.00542139
3.65965e-05
0.00542165
3.65e-05
0.00542193
3.64023e-05
0.00542225
3.63041e-05
0.00542258
3.62059e-05
0.00542295
3.6107e-05
0.00542334
3.60075e-05
0.00542375
3.59079e-05
0.00542419
3.58085e-05
0.00542466
3.57089e-05
0.00542515
3.56076e-05
0.00542566
3.55053e-05
0.0054262
3.54043e-05
0.00542677
3.53044e-05
0.00542736
3.52032e-05
0.00542797
3.50999e-05
0.00542861
3.49957e-05
0.00542928
3.48927e-05
0.00542997
3.47911e-05
0.00543068
3.46882e-05
0.00543142
3.4584e-05
0.00543218
3.44806e-05
0.00543296
3.43772e-05
0.00543377
3.42726e-05
0.00543461
3.41675e-05
0.00543546
3.40627e-05
0.00543634
3.39574e-05
0.00543725
3.38517e-05
0.00543817
3.37462e-05
0.00543912
3.36415e-05
0.0054401
3.35367e-05
0.00544109
3.34304e-05
0.00544212
3.33232e-05
0.00544316
3.32174e-05
0.00544422
3.31119e-05
0.00544531
3.30044e-05
0.00544642
3.28977e-05
0.00544756
3.27914e-05
0.00544871
3.26839e-05
0.00544989
3.25757e-05
0.00545109
3.24683e-05
0.00545232
3.23625e-05
0.00545356
3.2256e-05
0.00545483
3.21485e-05
0.00545612
3.20405e-05
0.00545743
3.19319e-05
0.00545876
3.18228e-05
0.00546012
3.17148e-05
0.00546149
3.16084e-05
0.00546289
3.15018e-05
0.00546431
3.1394e-05
0.00546575
3.12849e-05
0.00546721
3.11753e-05
0.00546869
3.10676e-05
0.0054702
3.09603e-05
0.00547172
3.08523e-05
0.00547327
3.07445e-05
0.00547483
3.06369e-05
0.00547642
3.05275e-05
0.00547803
3.04203e-05
0.00547966
3.03104e-05
0.00548131
3.0204e-05
0.00548298
3.00968e-05
0.00548467
2.99908e-05
0.00548638
2.98791e-05
0.00548811
2.97797e-05
0.00548986
2.96585e-05
0.00549163
2.95738e-05
0.00549343
2.94356e-05
0.00549523
2.93733e-05
0.00549707
2.92139e-05
0.00549891
2.91841e-05
0.00550079
2.89879e-05
0.00550267
2.89941e-05
0.00550456
2.88142e-05
0.00550651
2.88172e-05
0.00550837
2.85664e-05
0.00551038
2.90289e-05
0.00551223
2.79716e-05
0.0055142
2.96292e-05
0.00551598
2.79343e-05
0.0055178
2.99131e-05
0.00551952
2.85155e-05
2.87702e-05
0.00758189
0.00341077
0.00790445
0.00258997
0.00812912
0.00106333
0.00826228
0.00113474
0.00826544
0.00113474
0.00821285
0.000859771
0.00814445
0.000638619
0.00806815
0.000543862
0.00798796
0.000498379
0.00790846
0.000451303
0.00783286
0.000400176
0.00776245
0.000355161
0.00769744
0.000319919
0.00763754
0.000292355
0.00758233
0.0002696
0.00753137
0.000249896
0.0074842
0.000232327
0.0074403
0.000216422
0.00739909
0.000202001
0.00736002
0.000189076
0.00732251
0.000177689
0.00728612
0.000167768
0.00725057
0.000159079
0.00721575
0.000151314
0.00718173
0.000144215
0.00714871
0.000137659
0.0071169
0.000131656
0.00708649
0.000126284
0.0070576
0.000121609
0.00703029
0.000117622
0.00700453
0.000114232
0.00698027
0.000111289
0.00695738
0.000108643
0.00693575
0.000106172
0.0069152
0.000103793
0.00689559
0.000101484
0.00687675
9.92355e-05
0.00685855
9.70476e-05
0.00684089
9.48905e-05
0.00682375
9.27291e-05
0.00680714
9.05483e-05
0.0067911
8.83603e-05
0.00677573
8.62043e-05
0.0067611
8.41343e-05
0.0067473
8.22077e-05
0.00673441
8.04522e-05
0.00672248
7.88559e-05
0.00671152
7.74033e-05
0.00670155
7.60646e-05
0.00669252
7.48159e-05
0.00668436
7.36359e-05
0.00667699
7.25118e-05
0.00667028
7.14502e-05
0.00666411
7.04714e-05
0.00665834
6.95795e-05
0.00665288
6.87603e-05
0.00664761
6.79905e-05
0.0066425
6.72437e-05
0.00663752
6.64814e-05
0.00663267
6.56779e-05
0.006628
6.48298e-05
0.00662353
6.39276e-05
0.00661932
6.296e-05
0.00661541
6.19181e-05
0.00661184
6.07954e-05
0.00660866
5.95771e-05
0.00660592
5.82545e-05
0.00660366
5.68573e-05
0.00660189
5.54433e-05
0.00660063
5.40742e-05
0.00659982
5.28154e-05
0.00659941
5.17314e-05
0.00659927
5.0859e-05
0.00659931
5.0193e-05
0.0065994
4.96957e-05
0.00659945
4.93105e-05
0.00659939
4.89865e-05
0.00659919
4.86828e-05
0.00659885
4.83681e-05