/*--------------------------------*- C++ -*----------------------------------*\
  =========                 |
  \\      /  F ield         | OpenFOAM: The Open Source CFD Toolbox
   \\    /   O peration     | Website:  https://openfoam.org
    \\  /    A nd           | Version:  7
     \\/     M anipulation  |
\*---------------------------------------------------------------------------*/
FoamFile
{
    version     2.0;
    format      ascii;
    class       volScalarField;
    location    "2.0525";
    object      T;
}
// * * * * * * * * * * * * * * * * * * * * * * * * * * * * * * * * * * * * * //

dimensions      [0 0 0 1 0 0 0];

internalField   nonuniform List<scalar> 
7920
(
282.868
282.981
282.976
283.021
282.994
283.026
283.005
283.031
283.017
283.038
283.028
283.044
283.036
283.047
283.042
283.046
283.049
283.037
283.069
282.984
282.788
282.832
282.838
282.893
282.876
282.908
282.898
282.924
282.927
282.948
282.952
282.969
282.974
282.981
282.99
282.98
283.008
282.951
283.07
282.805
282.729
282.73
282.657
282.714
282.661
282.708
282.671
282.716
282.7
282.745
282.743
282.783
282.791
282.817
282.835
282.836
282.875
282.823
282.924
282.76
282.751
282.747
282.673
282.713
282.664
282.696
282.663
282.694
282.682
282.716
282.721
282.754
282.773
282.799
282.829
282.839
282.876
282.86
282.907
282.857
282.731
282.734
282.637
282.682
282.615
282.651
282.604
282.637
282.611
282.647
282.64
282.678
282.685
282.722
282.738
282.77
282.788
282.811
282.822
282.835
282.736
282.751
282.653
282.703
282.634
282.671
282.621
282.654
282.625
282.66
282.65
282.688
282.69
282.728
282.739
282.777
282.79
282.823
282.827
282.855
282.736
282.751
282.653
282.703
282.634
282.671
282.621
282.654
282.624
282.66
282.649
282.688
282.69
282.729
282.739
282.778
282.789
282.823
282.827
282.855
282.731
282.734
282.637
282.682
282.615
282.651
282.603
282.637
282.61
282.648
282.64
282.679
282.684
282.724
282.736
282.773
282.785
282.815
282.818
282.838
282.751
282.747
282.673
282.713
282.664
282.696
282.663
282.694
282.681
282.716
282.72
282.756
282.771
282.803
282.822
282.848
282.863
282.878
282.884
282.886
282.729
282.73
282.657
282.714
282.661
282.708
282.671
282.716
282.699
282.746
282.742
282.785
282.787
282.823
282.825
282.851
282.849
282.864
282.858
282.861
282.788
282.832
282.838
282.893
282.876
282.908
282.898
282.924
282.926
282.949
282.952
282.97
282.972
282.985
282.984
282.992
282.988
282.991
282.987
282.985
282.868
282.981
282.976
283.021
282.994
283.026
283.005
283.031
283.017
283.038
283.027
283.044
283.035
283.048
283.04
283.049
283.043
283.049
283.044
283.051
283.224
283.203
283.274
283.224
283.273
283.227
283.27
283.235
283.27
283.243
283.271
283.248
283.27
283.247
283.267
283.239
283.268
283.213
283.318
283.005
283.176
283.129
283.164
283.129
283.152
283.126
283.144
283.135
283.154
283.153
283.175
283.174
283.195
283.183
283.207
283.171
283.222
283.118
283.284
282.949
283.224
283.154
283.216
283.155
283.199
283.149
283.185
283.151
283.189
283.171
283.21
283.199
283.238
283.223
283.262
283.225
283.279
283.194
283.299
283.121
283.195
283.117
283.161
283.098
283.126
283.077
283.098
283.065
283.089
283.075
283.102
283.099
283.127
283.128
283.156
283.149
283.176
283.149
283.179
283.129
283.218
283.132
283.192
283.115
283.154
283.093
283.122
283.079
283.108
283.084
283.115
283.104
283.136
283.132
283.163
283.16
283.184
283.175
283.185
283.171
283.211
283.113
283.174
283.091
283.131
283.066
283.095
283.049
283.078
283.051
283.082
283.069
283.099
283.095
283.124
283.124
283.144
283.143
283.147
283.141
283.211
283.113
283.174
283.091
283.131
283.066
283.095
283.049
283.078
283.051
283.082
283.069
283.099
283.095
283.123
283.125
283.144
283.143
283.147
283.14
283.218
283.132
283.192
283.115
283.154
283.093
283.122
283.079
283.108
283.084
283.115
283.104
283.135
283.134
283.161
283.162
283.181
283.178
283.182
283.173
283.195
283.117
283.161
283.098
283.126
283.077
283.098
283.066
283.089
283.075
283.101
283.1
283.125
283.132
283.15
283.157
283.165
283.164
283.161
283.152
283.224
283.154
283.216
283.155
283.199
283.149
283.185
283.152
283.189
283.172
283.209
283.202
283.234
283.229
283.251
283.243
283.252
283.235
283.236
283.212
283.176
283.129
283.164
283.129
283.151
283.126
283.144
283.135
283.153
283.154
283.174
283.176
283.191
283.19
283.196
283.19
283.188
283.179
283.174
283.16
283.224
283.203
283.274
283.224
283.273
283.227
283.269
283.235
283.27
283.243
283.271
283.249
283.269
283.25
283.263
283.246
283.254
283.241
283.245
283.228
283.148
283.134
283.13
283.117
283.118
283.117
283.131
283.137
283.149
283.149
283.157
283.152
283.161
283.147
283.168
283.124
283.201
283.037
283.382
282.638
283.147
283.128
283.117
283.1
283.091
283.08
283.082
283.086
283.103
283.114
283.142
283.148
283.182
283.163
283.211
283.14
283.239
283.066
283.297
282.935
283.148
283.13
283.12
283.102
283.093
283.078
283.077
283.074
283.087
283.095
283.12
283.132
283.165
283.171
283.208
283.191
283.231
283.181
283.23
283.149
283.148
283.128
283.117
283.098
283.086
283.07
283.065
283.061
283.068
283.075
283.091
283.105
283.128
283.144
283.168
283.179
283.193
283.195
283.191
283.19
283.149
283.129
283.119
283.099
283.088
283.072
283.067
283.062
283.068
283.075
283.089
283.103
283.122
283.14
283.16
283.176
283.186
283.196
283.188
283.197
283.149
283.128
283.118
283.097
283.086
283.069
283.063
283.058
283.064
283.07
283.083
283.096
283.114
283.132
283.15
283.167
283.176
283.186
283.181
283.185
283.149
283.128
283.118
283.097
283.086
283.069
283.063
283.058
283.064
283.07
283.083
283.096
283.114
283.132
283.151
283.166
283.177
283.185
283.182
283.183
283.149
283.129
283.119
283.099
283.088
283.072
283.067
283.062
283.068
283.075
283.089
283.103
283.122
283.14
283.16
283.176
283.187
283.194
283.191
283.192
283.148
283.128
283.117
283.098
283.086
283.071
283.065
283.061
283.067
283.075
283.09
283.106
283.127
283.146
283.166
283.181
283.192
283.195
283.192
283.187
283.148
283.13
283.12
283.102
283.092
283.079
283.076
283.075
283.085
283.097
283.117
283.136
283.159
283.179
283.197
283.206
283.212
283.206
283.2
283.184
283.147
283.129
283.117
283.1
283.09
283.08
283.081
283.087
283.101
283.117
283.137
283.155
283.171
283.181
283.184
283.182
283.174
283.164
283.152
283.14
283.148
283.134
283.13
283.117
283.118
283.117
283.131
283.137
283.149
283.15
283.156
283.154
283.157
283.154
283.154
283.15
283.148
283.146
283.144
283.144
283.148
283.134
283.13
283.117
283.118
283.117
283.131
283.137
283.149
283.149
283.157
283.152
283.161
283.147
283.168
283.124
283.201
283.037
283.382
282.638
283.147
283.128
283.117
283.1
283.091
283.08
283.082
283.086
283.103
283.114
283.142
283.148
283.182
283.163
283.211
283.14
283.239
283.066
283.297
282.935
283.148
283.13
283.12
283.102
283.093
283.078
283.077
283.074
283.087
283.095
283.12
283.132
283.165
283.171
283.208
283.191
283.231
283.181
283.23
283.149
283.148
283.128
283.117
283.098
283.086
283.07
283.065
283.061
283.068
283.075
283.091
283.105
283.128
283.145
283.168
283.179
283.193
283.195
283.191
283.19
283.149
283.129
283.119
283.099
283.088
283.072
283.067
283.062
283.068
283.075
283.089
283.103
283.122
283.14
283.16
283.176
283.186
283.196
283.188
283.197
283.149
283.128
283.118
283.097
283.086
283.069
283.063
283.058
283.064
283.07
283.083
283.096
283.114
283.132
283.15
283.167
283.176
283.186
283.181
283.185
283.149
283.128
283.118
283.097
283.086
283.069
283.063
283.058
283.064
283.07
283.083
283.096
283.114
283.132
283.151
283.166
283.177
283.185
283.182
283.183
283.149
283.129
283.119
283.099
283.088
283.072
283.067
283.062
283.068
283.075
283.089
283.103
283.122
283.14
283.16
283.176
283.187
283.194
283.191
283.192
283.148
283.128
283.117
283.098
283.086
283.071
283.065
283.061
283.067
283.075
283.09
283.106
283.127
283.146
283.166
283.181
283.192
283.195
283.192
283.187
283.148
283.13
283.12
283.102
283.092
283.079
283.076
283.075
283.085
283.097
283.117
283.136
283.159
283.179
283.197
283.206
283.212
283.206
283.2
283.184
283.147
283.129
283.117
283.1
283.09
283.08
283.081
283.087
283.101
283.117
283.137
283.155
283.171
283.181
283.184
283.182
283.174
283.164
283.152
283.14
283.148
283.134
283.13
283.117
283.118
283.117
283.131
283.137
283.149
283.15
283.156
283.154
283.157
283.154
283.154
283.15
283.148
283.146
283.144
283.144
283.224
283.203
283.274
283.224
283.273
283.227
283.27
283.235
283.27
283.243
283.271
283.248
283.27
283.247
283.267
283.239
283.268
283.213
283.318
283.005
283.176
283.129
283.164
283.129
283.152
283.126
283.144
283.135
283.154
283.153
283.175
283.174
283.195
283.183
283.207
283.171
283.222
283.119
283.284
282.949
283.224
283.154
283.216
283.155
283.199
283.149
283.185
283.151
283.189
283.171
283.21
283.199
283.238
283.223
283.262
283.225
283.279
283.194
283.299
283.121
283.195
283.117
283.161
283.098
283.126
283.077
283.098
283.065
283.089
283.075
283.102
283.099
283.127
283.128
283.156
283.149
283.176
283.149
283.179
283.129
283.218
283.132
283.192
283.115
283.154
283.093
283.122
283.079
283.108
283.084
283.115
283.104
283.136
283.132
283.163
283.16
283.184
283.175
283.185
283.171
283.211
283.113
283.174
283.091
283.131
283.066
283.095
283.049
283.078
283.051
283.082
283.069
283.099
283.095
283.124
283.124
283.144
283.143
283.147
283.141
283.211
283.113
283.174
283.091
283.131
283.066
283.095
283.049
283.078
283.051
283.082
283.069
283.099
283.095
283.123
283.125
283.144
283.143
283.147
283.14
283.218
283.132
283.192
283.115
283.154
283.093
283.122
283.079
283.108
283.084
283.115
283.104
283.135
283.134
283.161
283.162
283.181
283.178
283.182
283.173
283.195
283.117
283.161
283.098
283.126
283.077
283.098
283.066
283.089
283.075
283.101
283.1
283.125
283.132
283.15
283.157
283.165
283.164
283.161
283.152
283.224
283.154
283.216
283.155
283.199
283.149
283.185
283.152
283.189
283.172
283.209
283.202
283.234
283.229
283.251
283.243
283.252
283.235
283.236
283.212
283.176
283.129
283.164
283.129
283.151
283.126
283.144
283.135
283.153
283.154
283.174
283.176
283.191
283.19
283.196
283.19
283.188
283.179
283.174
283.16
283.224
283.203
283.274
283.224
283.273
283.227
283.269
283.235
283.27
283.243
283.271
283.249
283.269
283.25
283.263
283.246
283.254
283.241
283.245
283.228
282.868
282.981
282.976
283.021
282.994
283.026
283.005
283.031
283.017
283.038
283.028
283.044
283.036
283.047
283.042
283.046
283.049
283.037
283.069
282.984
282.788
282.832
282.838
282.893
282.876
282.908
282.898
282.924
282.927
282.948
282.952
282.969
282.974
282.981
282.99
282.98
283.008
282.951
283.07
282.805
282.729
282.73
282.657
282.714
282.661
282.708
282.671
282.716
282.7
282.745
282.743
282.783
282.791
282.817
282.835
282.836
282.875
282.823
282.924
282.76
282.751
282.747
282.673
282.713
282.664
282.696
282.663
282.694
282.682
282.716
282.721
282.754
282.773
282.799
282.829
282.839
282.876
282.86
282.907
282.857
282.731
282.734
282.637
282.682
282.615
282.651
282.604
282.637
282.611
282.647
282.64
282.678
282.685
282.722
282.738
282.77
282.788
282.811
282.822
282.835
282.736
282.751
282.653
282.703
282.634
282.671
282.621
282.654
282.625
282.66
282.65
282.688
282.69
282.728
282.739
282.777
282.79
282.823
282.827
282.855
282.736
282.751
282.653
282.703
282.634
282.671
282.621
282.654
282.624
282.66
282.649
282.688
282.69
282.729
282.739
282.778
282.789
282.823
282.827
282.855
282.731
282.734
282.637
282.682
282.615
282.651
282.603
282.637
282.61
282.648
282.64
282.679
282.684
282.724
282.736
282.773
282.785
282.815
282.818
282.838
282.751
282.747
282.673
282.713
282.664
282.696
282.663
282.694
282.681
282.716
282.72
282.756
282.771
282.803
282.822
282.848
282.863
282.878
282.884
282.886
282.729
282.73
282.657
282.714
282.661
282.708
282.671
282.716
282.699
282.746
282.742
282.785
282.787
282.823
282.825
282.851
282.849
282.864
282.858
282.861
282.788
282.832
282.838
282.893
282.876
282.908
282.898
282.924
282.926
282.949
282.952
282.97
282.972
282.985
282.984
282.992
282.988
282.991
282.987
282.985
282.868
282.981
282.976
283.021
282.994
283.026
283.005
283.031
283.017
283.038
283.027
283.044
283.035
283.048
283.04
283.049
283.043
283.049
283.044
283.051
284.967
286.504
287.541
288.381
289.056
289.656
290.183
290.685
291.144
291.58
291.976
292.352
292.705
293.048
293.374
293.686
293.977
294.249
294.503
294.74
294.96
295.162
295.343
295.505
295.647
295.771
295.878
295.97
296.048
296.113
296.164
296.203
296.233
296.254
296.268
296.277
296.283
296.287
296.289
296.29
296.291
296.291
296.292
296.292
296.292
296.292
296.292
296.293
296.293
296.293
296.293
296.294
296.294
296.294
296.295
296.295
296.295
296.295
296.296
296.296
296.296
296.297
296.297
296.297
296.298
296.298
296.298
296.299
296.299
296.3
296.3
296.3
296.301
296.301
296.301
296.302
296.302
296.302
296.302
296.303
296.303
296.303
296.303
296.304
296.303
296.304
296.302
296.303
296.3
296.297
284.139
285.538
286.536
287.355
288.023
288.612
289.13
289.621
290.076
290.508
290.905
291.279
291.629
291.968
292.292
292.603
292.895
293.169
293.423
293.661
293.882
294.087
294.272
294.437
294.582
294.71
294.82
294.916
294.997
295.065
295.12
295.162
295.194
295.218
295.234
295.244
295.251
295.255
295.258
295.259
295.26
295.261
295.261
295.261
295.261
295.261
295.262
295.262
295.262
295.262
295.262
295.263
295.263
295.263
295.263
295.264
295.264
295.264
295.264
295.265
295.265
295.265
295.266
295.266
295.266
295.267
295.267
295.267
295.268
295.268
295.268
295.269
295.269
295.269
295.27
295.27
295.27
295.271
295.271
295.271
295.271
295.272
295.271
295.272
295.271
295.272
295.271
295.272
295.268
295.265
283.311
284.318
285.16
285.913
286.541
287.103
287.59
288.055
288.49
288.913
289.303
289.671
290.012
290.341
290.658
290.966
291.257
291.532
291.786
292.024
292.247
292.455
292.646
292.819
292.971
293.106
293.223
293.325
293.413
293.488
293.55
293.6
293.639
293.667
293.688
293.702
293.711
293.717
293.72
293.722
293.723
293.724
293.725
293.725
293.725
293.725
293.725
293.725
293.726
293.726
293.726
293.726
293.726
293.727
293.727
293.727
293.727
293.727
293.728
293.728
293.728
293.729
293.729
293.729
293.729
293.73
293.73
293.73
293.731
293.731
293.731
293.731
293.732
293.732
293.732
293.733
293.733
293.733
293.733
293.734
293.734
293.734
293.734
293.734
293.733
293.734
293.732
293.734
293.728
293.724
282.99
283.535
284.132
284.742
285.291
285.787
286.22
286.63
287.024
287.418
287.791
288.141
288.463
288.772
289.071
289.366
289.65
289.919
290.169
290.402
290.621
290.828
291.022
291.2
291.359
291.499
291.622
291.73
291.824
291.906
291.976
292.033
292.079
292.114
292.14
292.158
292.17
292.178
292.182
292.185
292.187
292.188
292.188
292.188
292.189
292.189
292.189
292.189
292.189
292.189
292.189
292.19
292.19
292.19
292.19
292.19
292.191
292.191
292.191
292.191
292.192
292.192
292.192
292.192
292.193
292.193
292.193
292.193
292.194
292.194
292.194
292.195
292.195
292.195
292.195
292.196
292.196
292.196
292.197
292.197
292.197
292.197
292.197
292.198
292.197
292.198
292.196
292.198
292.194
292.19
282.838
283.086
283.438
283.893
284.333
284.75
285.108
285.452
285.79
286.143
286.484
286.808
287.102
287.383
287.656
287.931
288.2
288.456
288.694
288.916
289.125
289.325
289.515
289.691
289.851
289.993
290.117
290.227
290.324
290.41
290.485
290.548
290.599
290.639
290.669
290.69
290.705
290.714
290.72
290.724
290.726
290.727
290.728
290.728
290.729
290.729
290.729
290.729
290.729
290.729
290.73
290.73
290.73
290.73
290.73
290.731
290.731
290.731
290.731
290.732
290.732
290.732
290.732
290.733
290.733
290.733
290.734
290.734
290.734
290.734
290.735
290.735
290.735
290.736
290.736
290.736
290.736
290.737
290.737
290.737
290.737
290.738
290.737
290.738
290.737
290.738
290.736
290.738
290.734
290.731
282.835
282.927
283.105
283.418
283.747
284.07
284.349
284.616
284.89
285.186
285.485
285.769
286.027
286.271
286.511
286.756
287
287.234
287.451
287.654
287.845
288.03
288.208
288.376
288.528
288.664
288.784
288.891
288.985
289.07
289.145
289.209
289.262
289.304
289.336
289.358
289.374
289.385
289.391
289.395
289.398
289.399
289.4
289.4
289.4
289.4
289.401
289.401
289.401
289.401
289.401
289.402
289.402
289.402
289.402
289.402
289.403
289.403
289.403
289.404
289.404
289.404
289.404
289.405
289.405
289.405
289.406
289.406
289.406
289.407
289.407
289.407
289.408
289.408
289.408
289.409
289.409
289.409
289.41
289.41
289.41
289.411
289.411
289.411
289.411
289.412
289.411
289.412
289.411
289.409
282.839
282.868
282.946
283.155
283.388
283.626
283.828
284.024
284.236
284.477
284.726
284.964
285.18
285.384
285.587
285.797
286.009
286.214
286.403
286.58
286.748
286.912
287.071
287.222
287.36
287.483
287.592
287.689
287.776
287.854
287.924
287.985
288.035
288.076
288.106
288.128
288.144
288.154
288.161
288.165
288.167
288.168
288.169
288.17
288.17
288.17
288.17
288.17
288.171
288.171
288.171
288.171
288.172
288.172
288.172
288.173
288.173
288.173
288.174
288.174
288.174
288.175
288.175
288.175
288.176
288.176
288.176
288.177
288.177
288.178
288.178
288.178
288.179
288.179
288.179
288.18
288.18
288.181
288.181
288.181
288.182
288.182
288.182
288.183
288.183
288.183
288.183
288.183
288.184
288.184
282.833
282.842
282.876
283.016
283.174
283.34
283.474
283.616
283.774
283.965
284.161
284.351
284.52
284.684
284.848
285.021
285.196
285.365
285.521
285.667
285.806
285.943
286.077
286.205
286.321
286.426
286.518
286.6
286.675
286.743
286.803
286.856
286.9
286.935
286.962
286.981
286.995
287.004
287.009
287.013
287.015
287.016
287.017
287.018
287.018
287.018
287.019
287.019
287.019
287.019
287.02
287.02
287.021
287.021
287.021
287.022
287.022
287.022
287.023
287.023
287.024
287.024
287.024
287.025
287.025
287.026
287.026
287.027
287.027
287.028
287.028
287.028
287.029
287.029
287.03
287.03
287.031
287.031
287.031
287.032
287.032
287.033
287.033
287.033
287.033
287.033
287.033
287.032
287.033
287.034
282.888
282.888
282.909
282.999
283.101
283.202
283.285
283.379
283.492
283.631
283.774
283.911
284.034
284.154
284.278
284.41
284.542
284.67
284.787
284.897
285.004
285.11
285.213
285.311
285.401
285.48
285.551
285.615
285.673
285.726
285.773
285.814
285.848
285.875
285.896
285.911
285.921
285.928
285.932
285.935
285.937
285.938
285.938
285.939
285.939
285.94
285.94
285.94
285.941
285.941
285.942
285.942
285.942
285.943
285.943
285.944
285.944
285.945
285.945
285.946
285.946
285.946
285.947
285.947
285.948
285.948
285.949
285.949
285.95
285.95
285.951
285.951
285.952
285.952
285.953
285.954
285.954
285.955
285.955
285.955
285.956
285.956
285.957
285.957
285.957
285.958
285.958
285.957
285.96
285.962
282.876
282.892
282.905
282.97
283.027
283.088
283.133
283.195
283.268
283.361
283.452
283.541
283.619
283.699
283.781
283.87
283.958
284.042
284.119
284.192
284.263
284.335
284.404
284.47
284.529
284.581
284.628
284.671
284.71
284.746
284.777
284.805
284.827
284.845
284.858
284.868
284.875
284.879
284.882
284.884
284.885
284.886
284.886
284.887
284.887
284.888
284.888
284.889
284.889
284.89
284.89
284.89
284.891
284.891
284.892
284.892
284.893
284.893
284.894
284.894
284.895
284.895
284.896
284.896
284.897
284.897
284.898
284.898
284.899
284.899
284.9
284.9
284.901
284.901
284.902
284.902
284.903
284.903
284.904
284.904
284.904
284.905
284.905
284.906
284.906
284.906
284.906
284.905
284.907
284.909
283
283.009
283.017
283.049
283.075
283.101
283.121
283.151
283.189
283.236
283.281
283.324
283.363
283.403
283.445
283.491
283.535
283.577
283.616
283.653
283.69
283.726
283.762
283.795
283.825
283.851
283.875
283.897
283.917
283.935
283.951
283.965
283.976
283.985
283.992
283.996
284
284.002
284.003
284.004
284.005
284.005
284.006
284.006
284.006
284.007
284.007
284.007
284.008
284.008
284.008
284.009
284.009
284.01
284.01
284.01
284.011
284.011
284.011
284.012
284.012
284.012
284.013
284.013
284.014
284.014
284.014
284.015
284.015
284.016
284.016
284.016
284.017
284.017
284.017
284.018
284.018
284.019
284.019
284.019
284.02
284.02
284.02
284.021
284.021
284.021
284.021
284.021
284.023
284.024
283.054
283.061
283.063
283.075
283.082
283.091
283.096
283.107
283.118
283.133
283.146
283.159
283.17
283.183
283.195
283.209
283.222
283.235
283.246
283.257
283.268
283.279
283.289
283.299
283.308
283.316
283.323
283.329
283.335
283.341
283.345
283.35
283.353
283.355
283.357
283.359
283.36
283.36
283.361
283.361
283.362
283.362
283.362
283.362
283.362
283.362
283.362
283.363
283.363
283.363
283.363
283.363
283.363
283.364
283.364
283.364
283.364
283.364
283.364
283.364
283.365
283.365
283.365
283.365
283.365
283.365
283.366
283.366
283.366
283.366
283.366
283.366
283.366
283.367
283.367
283.367
283.367
283.367
283.367
283.367
283.367
283.368
283.368
283.368
283.368
283.368
283.368
283.368
283.368
283.368
285.627
287.334
288.436
289.27
289.968
290.559
291.1
291.596
292.063
292.492
292.894
293.267
293.624
293.965
294.294
294.604
294.896
295.168
295.423
295.659
295.879
296.08
296.261
296.421
296.562
296.685
296.791
296.882
296.959
297.022
297.072
297.11
297.138
297.158
297.172
297.18
297.186
297.189
297.191
297.192
297.192
297.193
297.193
297.193
297.193
297.193
297.193
297.193
297.193
297.194
297.194
297.194
297.194
297.194
297.195
297.195
297.195
297.196
297.196
297.196
297.196
297.197
297.197
297.197
297.198
297.198
297.199
297.199
297.199
297.2
297.2
297.201
297.201
297.201
297.202
297.202
297.203
297.203
297.204
297.204
297.205
297.205
297.206
297.206
297.207
297.208
297.209
297.209
297.215
297.216
284.27
285.686
286.72
287.538
288.224
288.809
289.338
289.825
290.286
290.717
291.118
291.492
291.845
292.184
292.511
292.823
293.118
293.393
293.649
293.889
294.112
294.317
294.504
294.671
294.818
294.947
295.058
295.155
295.237
295.305
295.36
295.404
295.436
295.46
295.476
295.487
295.494
295.498
295.5
295.502
295.502
295.503
295.503
295.503
295.503
295.503
295.503
295.504
295.504
295.504
295.504
295.504
295.504
295.505
295.505
295.505
295.505
295.506
295.506
295.506
295.507
295.507
295.507
295.508
295.508
295.508
295.509
295.509
295.509
295.51
295.51
295.51
295.511
295.511
295.512
295.512
295.512
295.513
295.513
295.514
295.514
295.515
295.515
295.516
295.516
295.517
295.518
295.518
295.522
295.523
283.56
284.463
285.306
286.029
286.667
287.212
287.706
288.159
288.599
289.016
289.411
289.776
290.121
290.448
290.767
291.075
291.369
291.645
291.902
292.142
292.367
292.577
292.77
292.946
293.101
293.238
293.358
293.462
293.551
293.628
293.692
293.743
293.783
293.812
293.833
293.848
293.857
293.863
293.867
293.869
293.87
293.871
293.871
293.871
293.871
293.871
293.871
293.871
293.871
293.871
293.872
293.872
293.872
293.872
293.872
293.873
293.873
293.873
293.873
293.873
293.874
293.874
293.874
293.875
293.875
293.875
293.876
293.876
293.876
293.877
293.877
293.877
293.878
293.878
293.878
293.879
293.879
293.88
293.88
293.88
293.881
293.881
293.882
293.883
293.884
293.884
293.885
293.886
293.89
293.89
283.195
283.632
284.194
284.764
285.307
285.786
286.217
286.617
287.012
287.402
287.778
288.129
288.454
288.762
289.063
289.36
289.647
289.919
290.172
290.408
290.63
290.84
291.037
291.219
291.381
291.525
291.651
291.762
291.859
291.943
292.015
292.075
292.123
292.16
292.187
292.206
292.218
292.227
292.231
292.234
292.236
292.237
292.237
292.238
292.238
292.238
292.238
292.238
292.238
292.238
292.238
292.238
292.239
292.239
292.239
292.239
292.239
292.24
292.24
292.24
292.24
292.241
292.241
292.241
292.241
292.242
292.242
292.242
292.243
292.243
292.243
292.244
292.244
292.244
292.245
292.245
292.245
292.246
292.246
292.246
292.247
292.247
292.248
292.248
292.249
292.249
292.25
292.251
292.253
292.253
283.138
283.263
283.577
283.961
284.384
284.766
285.116
285.439
285.773
286.114
286.457
286.778
287.075
287.353
287.627
287.9
288.171
288.43
288.671
288.895
289.107
289.309
289.502
289.683
289.847
289.992
290.12
290.233
290.333
290.422
290.499
290.565
290.619
290.661
290.692
290.715
290.731
290.741
290.747
290.751
290.753
290.754
290.755
290.755
290.755
290.755
290.755
290.755
290.756
290.756
290.756
290.756
290.756
290.756
290.756
290.757
290.757
290.757
290.757
290.757
290.758
290.758
290.758
290.758
290.759
290.759
290.759
290.76
290.76
290.76
290.761
290.761
290.761
290.762
290.762
290.762
290.763
290.763
290.764
290.764
290.765
290.765
290.766
290.766
290.767
290.767
290.769
290.769
290.772
290.772
283.104
283.083
283.227
283.461
283.766
284.052
284.314
284.562
284.826
285.113
285.41
285.693
285.953
286.195
286.435
286.679
286.925
287.161
287.383
287.588
287.782
287.97
288.151
288.323
288.48
288.62
288.744
288.854
288.952
289.04
289.118
289.185
289.241
289.286
289.32
289.344
289.362
289.373
289.38
289.384
289.387
289.388
289.389
289.389
289.39
289.39
289.39
289.39
289.39
289.39
289.39
289.39
289.391
289.391
289.391
289.391
289.391
289.392
289.392
289.392
289.392
289.393
289.393
289.393
289.394
289.394
289.394
289.395
289.395
289.395
289.396
289.396
289.396
289.397
289.397
289.397
289.398
289.398
289.399
289.399
289.399
289.4
289.4
289.401
289.401
289.402
289.403
289.403
289.404
289.405
283.109
283.035
283.09
283.226
283.436
283.634
283.816
283.99
284.19
284.419
284.664
284.899
285.114
285.315
285.516
285.725
285.938
286.144
286.337
286.516
286.686
286.851
287.013
287.168
287.31
287.437
287.55
287.65
287.74
287.822
287.894
287.958
288.011
288.054
288.087
288.111
288.128
288.139
288.146
288.15
288.153
288.154
288.155
288.156
288.156
288.156
288.156
288.156
288.156
288.157
288.157
288.157
288.157
288.157
288.158
288.158
288.158
288.158
288.159
288.159
288.159
288.16
288.16
288.16
288.161
288.161
288.161
288.162
288.162
288.162
288.163
288.163
288.164
288.164
288.164
288.165
288.165
288.166
288.166
288.166
288.167
288.167
288.168
288.168
288.169
288.169
288.171
288.17
288.172
288.173
283.138
283.058
283.078
283.159
283.299
283.424
283.542
283.655
283.801
283.974
284.166
284.348
284.515
284.672
284.834
285.004
285.179
285.347
285.505
285.651
285.792
285.93
286.067
286.196
286.316
286.423
286.519
286.604
286.681
286.751
286.814
286.869
286.915
286.952
286.981
287.001
287.016
287.025
287.032
287.035
287.037
287.039
287.039
287.04
287.04
287.04
287.04
287.041
287.041
287.041
287.041
287.041
287.042
287.042
287.042
287.043
287.043
287.043
287.044
287.044
287.044
287.045
287.045
287.045
287.046
287.046
287.047
287.047
287.048
287.048
287.048
287.049
287.049
287.05
287.05
287.051
287.051
287.052
287.052
287.053
287.054
287.054
287.055
287.055
287.056
287.057
287.059
287.058
287.061
287.063
283.118
283.061
283.072
283.129
283.219
283.295
283.364
283.439
283.543
283.672
283.812
283.944
284.066
284.183
284.306
284.437
284.571
284.7
284.819
284.931
285.04
285.148
285.255
285.356
285.448
285.531
285.605
285.671
285.732
285.787
285.837
285.88
285.916
285.945
285.967
285.983
285.994
286.001
286.006
286.009
286.011
286.012
286.012
286.013
286.013
286.013
286.014
286.014
286.014
286.014
286.015
286.015
286.015
286.016
286.016
286.016
286.017
286.017
286.018
286.018
286.019
286.019
286.019
286.02
286.02
286.021
286.021
286.022
286.022
286.023
286.023
286.024
286.024
286.025
286.025
286.026
286.026
286.027
286.028
286.028
286.029
286.029
286.03
286.031
286.032
286.032
286.034
286.033
286.035
286.037
283.193
283.147
283.161
283.191
283.245
283.278
283.317
283.36
283.432
283.516
283.609
283.693
283.773
283.851
283.936
284.026
284.118
284.205
284.286
284.362
284.438
284.513
284.587
284.657
284.72
284.776
284.827
284.873
284.915
284.953
284.988
285.017
285.042
285.061
285.076
285.086
285.094
285.098
285.101
285.103
285.104
285.105
285.106
285.106
285.106
285.107
285.107
285.107
285.108
285.108
285.108
285.109
285.109
285.109
285.11
285.11
285.111
285.111
285.112
285.112
285.113
285.113
285.114
285.114
285.115
285.115
285.116
285.116
285.117
285.117
285.118
285.118
285.119
285.119
285.12
285.121
285.121
285.122
285.122
285.123
285.124
285.124
285.125
285.126
285.127
285.127
285.13
285.129
285.131
285.134
283.163
283.144
283.155
283.173
283.199
283.214
283.234
283.259
283.3
283.348
283.399
283.445
283.489
283.533
283.583
283.635
283.687
283.735
283.781
283.824
283.868
283.911
283.953
283.992
284.028
284.059
284.088
284.114
284.138
284.16
284.179
284.196
284.209
284.22
284.228
284.233
284.237
284.24
284.242
284.243
284.243
284.244
284.244
284.245
284.245
284.245
284.246
284.246
284.246
284.247
284.247
284.247
284.248
284.248
284.249
284.249
284.249
284.25
284.25
284.251
284.251
284.251
284.252
284.252
284.253
284.253
284.254
284.254
284.255
284.255
284.256
284.256
284.257
284.257
284.258
284.258
284.259
284.259
284.26
284.26
284.261
284.261
284.262
284.262
284.263
284.263
284.265
284.265
284.266
284.267
283.243
283.229
283.236
283.235
283.243
283.243
283.25
283.255
283.269
283.282
283.298
283.31
283.324
283.338
283.353
283.369
283.385
283.4
283.414
283.428
283.441
283.455
283.468
283.48
283.491
283.501
283.51
283.518
283.526
283.532
283.538
283.543
283.548
283.551
283.553
283.555
283.556
283.557
283.557
283.558
283.558
283.558
283.558
283.559
283.559
283.559
283.559
283.559
283.559
283.56
283.56
283.56
283.56
283.56
283.561
283.561
283.561
283.561
283.561
283.562
283.562
283.562
283.562
283.562
283.563
283.563
283.563
283.563
283.564
283.564
283.564
283.564
283.565
283.565
283.565
283.565
283.566
283.566
283.566
283.566
283.567
283.567
283.567
283.568
283.568
283.568
283.569
283.569
283.57
283.571
286.188
288.453
289.736
290.656
291.399
292.031
292.601
293.12
293.601
294.041
294.451
294.833
295.2
295.549
295.884
296.197
296.492
296.766
297.023
297.261
297.481
297.68
297.859
298.015
298.154
298.273
298.377
298.464
298.537
298.595
298.642
298.676
298.701
298.718
298.729
298.736
298.741
298.743
298.744
298.745
298.745
298.745
298.745
298.745
298.745
298.745
298.745
298.745
298.745
298.745
298.745
298.745
298.746
298.746
298.746
298.746
298.746
298.746
298.747
298.747
298.747
298.747
298.748
298.748
298.748
298.748
298.749
298.749
298.75
298.75
298.75
298.75
298.751
298.751
298.752
298.752
298.752
298.753
298.753
298.753
298.754
298.754
298.755
298.755
298.756
298.757
298.758
298.757
298.764
298.766
283.972
285.587
286.783
287.692
288.433
289.06
289.62
290.134
290.615
291.061
291.476
291.861
292.226
292.576
292.912
293.232
293.533
293.814
294.076
294.321
294.549
294.758
294.947