/*--------------------------------*- C++ -*----------------------------------*\
  =========                 |
  \\      /  F ield         | OpenFOAM: The Open Source CFD Toolbox
   \\    /   O peration     | Website:  https://openfoam.org
    \\  /    A nd           | Version:  7
     \\/     M anipulation  |
\*---------------------------------------------------------------------------*/
FoamFile
{
    version     2.0;
    format      ascii;
    class       volScalarField;
    location    "1.2";
    object      rho;
}
// * * * * * * * * * * * * * * * * * * * * * * * * * * * * * * * * * * * * * //

dimensions      [1 -3 0 0 0 0 0];

internalField   nonuniform List<scalar> 
7920
(
1.29179
1.27407
1.2745
1.27237
1.27283
1.27227
1.27248
1.27228
1.27238
1.2723
1.27235
1.27232
1.27238
1.27237
1.27246
1.27246
1.27262
1.27267
1.27322
1.27308
1.30728
1.29286
1.28063
1.27998
1.2775
1.2778
1.27716
1.27733
1.27723
1.27736
1.2775
1.27765
1.27801
1.27815
1.27888
1.27904
1.28057
1.2808
1.28486
1.28467
1.33171
1.31406
1.29987
1.2942
1.29249
1.2918
1.29159
1.29152
1.29165
1.29176
1.29209
1.29228
1.29285
1.29304
1.29402
1.29421
1.29597
1.29641
1.3002
1.30185
1.33303
1.32948
1.31087
1.30934
1.30485
1.30518
1.3041
1.30443
1.30434
1.30466
1.30506
1.30539
1.30625
1.30654
1.30814
1.30839
1.3113
1.31212
1.3168
1.32194
1.33782
1.33587
1.31667
1.31544
1.31028
1.31067
1.30943
1.30983
1.30974
1.31013
1.31061
1.311
1.312
1.31233
1.31414
1.31443
1.31751
1.3188
1.32249
1.32952
1.33744
1.33885
1.31966
1.31959
1.31461
1.31508
1.31386
1.3143
1.31424
1.31467
1.3152
1.31562
1.31669
1.31704
1.31892
1.31927
1.32234
1.32395
1.32701
1.33505
1.33744
1.33885
1.31966
1.31959
1.31461
1.31508
1.31386
1.3143
1.31424
1.31467
1.3152
1.31562
1.31669
1.31704
1.31892
1.31927
1.32233
1.32397
1.32697
1.33514
1.33782
1.33587
1.31667
1.31544
1.31028
1.31067
1.30943
1.30983
1.30974
1.31013
1.31061
1.311
1.312
1.31233
1.31413
1.31444
1.31749
1.31885
1.32236
1.3298
1.33303
1.32948
1.31087
1.30934
1.30485
1.30518
1.3041
1.30443
1.30434
1.30466
1.30506
1.30539
1.30625
1.30654
1.30813
1.3084
1.31127
1.31219
1.3166
1.32242
1.33171
1.31406
1.29987
1.2942
1.29249
1.2918
1.29159
1.29152
1.29165
1.29176
1.29209
1.29228
1.29284
1.29304
1.29402
1.29422
1.29594
1.29648
1.29998
1.3025
1.30728
1.29286
1.28063
1.27998
1.2775
1.2778
1.27716
1.27733
1.27723
1.27736
1.2775
1.27765
1.27801
1.27815
1.27888
1.27904
1.28056
1.28084
1.28474
1.28513
1.29179
1.27407
1.2745
1.27237
1.27283
1.27227
1.27248
1.27228
1.27238
1.2723
1.27235
1.27232
1.27238
1.27237
1.27245
1.27246
1.27262
1.27268
1.27319
1.27307
1.22659
1.23704
1.22526
1.23035
1.22689
1.22841
1.22731
1.22783
1.22749
1.22771
1.22769
1.22781
1.22801
1.22811
1.22864
1.22874
1.23007
1.23022
1.23424
1.23451
1.24945
1.26961
1.25609
1.2644
1.25968
1.26206
1.26048
1.26133
1.26091
1.26132
1.26141
1.2617
1.26219
1.26244
1.26362
1.26389
1.26673
1.26723
1.27604
1.27761
1.24154
1.2732
1.25917
1.27144
1.26558
1.26918
1.2672
1.26855
1.26809
1.26879
1.26904
1.26954
1.27039
1.27081
1.27267
1.27309
1.27735
1.27815
1.2892
1.29374
1.24942
1.28615
1.27944
1.29095
1.28837
1.29166
1.29075
1.29201
1.292
1.29272
1.29322
1.29378
1.2948
1.29527
1.29724
1.2977
1.30183
1.30294
1.31283
1.32022
1.2466
1.28726
1.28526
1.29701
1.29616
1.29958
1.29935
1.30075
1.30106
1.3019
1.3026
1.30324
1.30439
1.30493
1.30692
1.30748
1.31123
1.31269
1.32046
1.32998
1.248
1.28997
1.29097
1.30299
1.30287
1.30652
1.30662
1.30815
1.30862
1.30955
1.31035
1.31106
1.31229
1.31288
1.31488
1.31553
1.3191
1.3208
1.32751
1.33812
1.248
1.28997
1.29097
1.30299
1.30287
1.30652
1.30662
1.30815
1.30862
1.30955
1.31035
1.31106
1.31228
1.31288
1.31488
1.31553
1.31909
1.32081
1.32747
1.33816
1.2466
1.28726
1.28526
1.29701
1.29616
1.29958
1.29935
1.30075
1.30106
1.3019
1.3026
1.30324
1.30439
1.30494
1.30692
1.30749
1.31121
1.31272
1.32038
1.33009
1.24942
1.28615
1.27944
1.29095
1.28837
1.29166
1.29075
1.29201
1.292
1.29272
1.29322
1.29378
1.2948
1.29527
1.29723
1.29771
1.30181
1.30298
1.31272
1.32037
1.24154
1.2732
1.25917
1.27144
1.26558
1.26918
1.2672
1.26855
1.26809
1.26879
1.26904
1.26954
1.27039
1.27081
1.27267
1.27309
1.27733
1.27819
1.2891
1.2939
1.24945
1.26961
1.25609
1.2644
1.25968
1.26206
1.26048
1.26133
1.26091
1.26132
1.26141
1.2617
1.26219
1.26244
1.26362
1.26389
1.26672
1.26725
1.27599
1.27769
1.22659
1.23704
1.22526
1.23035
1.22689
1.22841
1.22731
1.22783
1.22749
1.22771
1.22769
1.22781
1.22801
1.22811
1.22863
1.22874
1.23007
1.23023
1.23422
1.23454
1.25552
1.25627
1.25347
1.25562
1.25487
1.25613
1.25599
1.25666
1.25673
1.2571
1.25728
1.25751
1.2578
1.25796
1.25845
1.25858
1.25951
1.25967
1.26146
1.26472
1.25317
1.26035
1.25574
1.25992
1.25921
1.26135
1.26153
1.26265
1.26303
1.26369
1.26417
1.2646
1.26527
1.26558
1.26667
1.26693
1.26903
1.26949
1.27384
1.28057
1.25234
1.26189
1.25962
1.26505
1.26613
1.26925
1.27054
1.27229
1.27332
1.27437
1.27526
1.27594
1.27692
1.27738
1.27875
1.27916
1.28137
1.28255
1.28521
1.29513
1.25239
1.26543
1.26645
1.27338
1.27622
1.28012
1.28226
1.28448
1.28597
1.28731
1.2885
1.28938
1.29056
1.29118
1.29264
1.29329
1.29526
1.29716
1.29871
1.30991
1.25199
1.26524
1.26903
1.27675
1.28093
1.28546
1.28833
1.29102
1.29298
1.29465
1.29613
1.29724
1.29856
1.29939
1.30078
1.30175
1.30309
1.3058
1.30544
1.31678
1.25209
1.26595
1.2712
1.27967
1.28448
1.28935
1.29253
1.29544
1.29758
1.29941
1.30102
1.30225
1.30365
1.30459
1.30595
1.30712
1.30819
1.31128
1.31026
1.32168
1.25209
1.26595
1.2712
1.27967
1.28448
1.28935
1.29253
1.29544
1.29758
1.29941
1.30102
1.30225
1.30364
1.30459
1.30595
1.30712
1.30818
1.3113
1.31022
1.32173
1.25199
1.26524
1.26903
1.27675
1.28093
1.28546
1.28833
1.29102
1.29298
1.29465
1.29613
1.29724
1.29856
1.29939
1.30077
1.30177
1.30305
1.30585
1.30534
1.31693
1.25239
1.26543
1.26645
1.27338
1.27622
1.28012
1.28226
1.28448
1.28597
1.28731
1.2885
1.28938
1.29056
1.29119
1.29263
1.29331
1.29521
1.29723
1.29857
1.31013
1.25234
1.26189
1.25962
1.26505
1.26613
1.26925
1.27054
1.27229
1.27332
1.27437
1.27526
1.27594
1.27691
1.27739
1.27874
1.27918
1.28133
1.28262
1.28505
1.29538
1.25317
1.26035
1.25574
1.25991
1.25921
1.26135
1.26153
1.26265
1.26303
1.26369
1.26417
1.2646
1.26527
1.26558
1.26667
1.26694
1.269
1.26954
1.27373
1.28075
1.25552
1.25627
1.25347
1.25562
1.25487
1.25613
1.25599
1.25666
1.25673
1.2571
1.25728
1.25751
1.2578
1.25796
1.25845
1.25859
1.25949
1.25969
1.26141
1.26484
1.25552
1.25627
1.25347
1.25562
1.25487
1.25613
1.25599
1.25666
1.25673
1.2571
1.25728
1.25751
1.2578
1.25796
1.25845
1.25858
1.25951
1.25967
1.26146
1.26472
1.25317
1.26035
1.25574
1.25992
1.25921
1.26135
1.26153
1.26265
1.26303
1.26369
1.26417
1.2646
1.26527
1.26558
1.26667
1.26693
1.26903
1.2695
1.27384
1.28057
1.25234
1.26189
1.25962
1.26505
1.26613
1.26925
1.27054
1.27229
1.27332
1.27437
1.27526
1.27594
1.27692
1.27738
1.27875
1.27916
1.28137
1.28255
1.28521
1.29513
1.25239
1.26543
1.26645
1.27338
1.27622
1.28012
1.28226
1.28448
1.28597
1.28731
1.2885
1.28938
1.29056
1.29118
1.29264
1.29329
1.29526
1.29716
1.29871
1.30991
1.25199
1.26524
1.26903
1.27675
1.28093
1.28546
1.28833
1.29102
1.29298
1.29465
1.29613
1.29724
1.29856
1.29939
1.30078
1.30175
1.30309
1.3058
1.30544
1.31678
1.25209
1.26595
1.2712
1.27967
1.28448
1.28935
1.29253
1.29544
1.29758
1.29941
1.30102
1.30225
1.30365
1.30459
1.30595
1.30712
1.30819
1.31128
1.31026
1.32168
1.25209
1.26595
1.2712
1.27967
1.28448
1.28935
1.29253
1.29544
1.29758
1.29941
1.30102
1.30225
1.30364
1.30459
1.30595
1.30712
1.30818
1.3113
1.31022
1.32173
1.25199
1.26524
1.26903
1.27675
1.28093
1.28546
1.28833
1.29102
1.29298
1.29465
1.29613
1.29724
1.29856
1.29939
1.30077
1.30177
1.30305
1.30585
1.30534
1.31693
1.25239
1.26543
1.26645
1.27338
1.27622
1.28012
1.28226
1.28448
1.28597
1.28731
1.2885
1.28938
1.29056
1.29119
1.29263
1.29331
1.29521
1.29723
1.29857
1.31013
1.25234
1.26189
1.25962
1.26505
1.26613
1.26925
1.27054
1.27229
1.27332
1.27437
1.27526
1.27594
1.27691
1.27739
1.27874
1.27918
1.28133
1.28262
1.28505
1.29538
1.25317
1.26035
1.25574
1.25991
1.25921
1.26135
1.26153
1.26265
1.26303
1.26369
1.26417
1.2646
1.26527
1.26558
1.26667
1.26694
1.269
1.26954
1.27373
1.28075
1.25552
1.25627
1.25347
1.25562
1.25487
1.25613
1.25599
1.25666
1.25673
1.2571
1.25728
1.25751
1.2578
1.25796
1.25845
1.25859
1.25949
1.25969
1.26141
1.26484
1.22659
1.23704
1.22526
1.23035
1.22689
1.22841
1.22731
1.22783
1.22749
1.22771
1.22769
1.22781
1.22801
1.22811
1.22864
1.22874
1.23007
1.23022
1.23424
1.23451
1.24945
1.26961
1.25609
1.2644
1.25968
1.26206
1.26048
1.26133
1.26091
1.26132
1.26141
1.2617
1.26219
1.26244
1.26362
1.26389
1.26673
1.26723
1.27604
1.27761
1.24154
1.2732
1.25917
1.27144
1.26558
1.26918
1.2672
1.26855
1.26809
1.26879
1.26904
1.26954
1.27039
1.27081
1.27267
1.27309
1.27735
1.27815
1.28919
1.29374
1.24942
1.28615
1.27944
1.29095
1.28837
1.29166
1.29075
1.29201
1.292
1.29272
1.29322
1.29378
1.2948
1.29527
1.29724
1.2977
1.30183
1.30294
1.31283
1.32022
1.2466
1.28726
1.28526
1.29701
1.29616
1.29958
1.29935
1.30075
1.30106
1.3019
1.3026
1.30324
1.30439
1.30493
1.30692
1.30748
1.31123
1.31269
1.32046
1.32998
1.248
1.28997
1.29097
1.30299
1.30287
1.30652
1.30662
1.30815
1.30862
1.30955
1.31035
1.31106
1.31228
1.31288
1.31488
1.31553
1.31909
1.3208
1.32751
1.33812
1.248
1.28997
1.29097
1.30299
1.30287
1.30652
1.30662
1.30815
1.30862
1.30955
1.31035
1.31106
1.31228
1.31288
1.31488
1.31553
1.31909
1.32081
1.32747
1.33816
1.2466
1.28726
1.28526
1.29701
1.29616
1.29958
1.29935
1.30075
1.30106
1.3019
1.3026
1.30324
1.30439
1.30494
1.30692
1.30749
1.31121
1.31272
1.32038
1.33009
1.24942
1.28615
1.27944
1.29095
1.28837
1.29166
1.29075
1.29201
1.292
1.29272
1.29322
1.29378
1.2948
1.29527
1.29723
1.29771
1.30181
1.30298
1.31272
1.32037
1.24154
1.2732
1.25917
1.27144
1.26558
1.26918
1.2672
1.26855
1.26809
1.26879
1.26904
1.26954
1.27039
1.27081
1.27267
1.27309
1.27732
1.27819
1.2891
1.2939
1.24945
1.26961
1.25609
1.2644
1.25968
1.26206
1.26048
1.26133
1.26091
1.26132
1.26141
1.2617
1.26219
1.26244
1.26362
1.26389
1.26672
1.26725
1.27599
1.27769
1.22659
1.23704
1.22526
1.23035
1.22689
1.22841
1.22731
1.22783
1.22749
1.22771
1.22769
1.22781
1.228
1.22811
1.22863
1.22874
1.23007
1.23023
1.23422
1.23454
1.29179
1.27407
1.2745
1.27237
1.27283
1.27227
1.27248
1.27228
1.27238
1.2723
1.27235
1.27232
1.27238
1.27237
1.27246
1.27246
1.27262
1.27267
1.27322
1.27308
1.30728
1.29286
1.28063
1.27998
1.2775
1.2778
1.27716
1.27733
1.27723
1.27736
1.2775
1.27765
1.27801
1.27815
1.27888
1.27904
1.28057
1.2808
1.28486
1.28467
1.33171
1.31406
1.29987
1.2942
1.29249
1.2918
1.29159
1.29152
1.29165
1.29176
1.29209
1.29227
1.29285
1.29304
1.29402
1.29421
1.29597
1.29641
1.3002
1.30185
1.33303
1.32948
1.31087
1.30934
1.30485
1.30518
1.3041
1.30443
1.30434
1.30466
1.30506
1.30539
1.30625
1.30654
1.30814
1.30839
1.3113
1.31212
1.3168
1.32194
1.33782
1.33587
1.31667
1.31544
1.31028
1.31067
1.30943
1.30983
1.30974
1.31013
1.31061
1.311
1.312
1.31233
1.31414
1.31443
1.31751
1.3188
1.32249
1.32952
1.33744
1.33885
1.31966
1.31959
1.31461
1.31508
1.31386
1.3143
1.31424
1.31467
1.3152
1.31562
1.31669
1.31704
1.31892
1.31927
1.32234
1.32394
1.32701
1.33505
1.33744
1.33885
1.31966
1.31959
1.31461
1.31508
1.31386
1.3143
1.31424
1.31467
1.3152
1.31562
1.31669
1.31704
1.31892
1.31927
1.32233
1.32396
1.32697
1.33514
1.33782
1.33587
1.31667
1.31544
1.31028
1.31067
1.30943
1.30983
1.30974
1.31013
1.31061
1.311
1.312
1.31233
1.31413
1.31444
1.31749
1.31885
1.32235
1.3298
1.33303
1.32948
1.31087
1.30934
1.30485
1.30518
1.3041
1.30443
1.30434
1.30466
1.30506
1.30539
1.30625
1.30654
1.30813
1.3084
1.31127
1.31219
1.3166
1.32241
1.33171
1.31406
1.29987
1.2942
1.29249
1.2918
1.29159
1.29152
1.29165
1.29176
1.29209
1.29227
1.29284
1.29304
1.29402
1.29422
1.29594
1.29648
1.29998
1.3025
1.30728
1.29286
1.28063
1.27998
1.2775
1.2778
1.27716
1.27733
1.27722
1.27736
1.2775
1.27765
1.27801
1.27815
1.27888
1.27904
1.28056
1.28084
1.28474
1.28513
1.29179
1.27407
1.2745
1.27237
1.27283
1.27227
1.27248
1.27228
1.27238
1.2723
1.27235
1.27232
1.27238
1.27237
1.27245
1.27246
1.27262
1.27268
1.27319
1.27307
1.28977
1.28085
1.27637
1.27354
1.27194
1.27077
1.26994
1.26925
1.26865
1.26809
1.26757
1.26711
1.26676
1.26652
1.26636
1.26625
1.26614
1.26599
1.2658
1.26557
1.2653
1.26501
1.2647
1.26438
1.26406
1.26374
1.26342
1.26309
1.26277
1.26244
1.26211
1.26179
1.26146
1.26114
1.26081
1.26049
1.26016
1.25983
1.25951
1.25918
1.25885
1.25853
1.2582
1.25788
1.25755
1.25722
1.2569
1.25657
1.25624
1.25592
1.25559
1.25526
1.25494
1.25461
1.25428
1.25396
1.25363
1.2533
1.25298
1.25265
1.25232
1.252
1.25167
1.25134
1.25102
1.25069
1.25036
1.25003
1.24971
1.24938
1.24905
1.24873
1.2484
1.24807
1.24774
1.24742
1.24709
1.24676
1.24643
1.24611
1.24578
1.24545
1.24512
1.2448
1.24444
1.24416
1.2437
1.24348
1.24261
1.24131
1.27665
1.26721
1.26307
1.2603
1.25876
1.25762
1.2568
1.25612
1.25553
1.25498
1.25446
1.25401
1.25366
1.25342
1.25326
1.25314
1.25303
1.25288
1.25269
1.25246
1.2522
1.25191
1.25161
1.2513
1.25098
1.25066
1.25034
1.25002
1.2497
1.24937
1.24905
1.24873
1.24841
1.24808
1.24776
1.24744
1.24712
1.24679
1.24647
1.24615
1.24583
1.2455
1.24518
1.24486
1.24454
1.24421
1.24389
1.24357
1.24324
1.24292
1.2426
1.24227
1.24195
1.24163
1.24131
1.24098
1.24066
1.24034
1.24001
1.23969
1.23937
1.23904
1.23872
1.2384
1.23807
1.23775
1.23743
1.2371
1.23678
1.23645
1.23613
1.23581
1.23548
1.23516
1.23484
1.23451
1.23419
1.23386
1.23354
1.23322
1.23289
1.23257
1.23224
1.23193
1.23157
1.23129
1.23083
1.23062
1.22976
1.22849
1.28422
1.27282
1.26827
1.26551
1.264
1.26287
1.26205
1.26138
1.2608
1.26025
1.25973
1.25928
1.25892
1.25866
1.25849
1.25836
1.25824
1.25809
1.2579
1.25767
1.2574
1.25712
1.25681
1.2565
1.25618
1.25586
1.25554
1.25522
1.25489
1.25457
1.25425
1.25392
1.2536
1.25328
1.25295
1.25263
1.25231
1.25198
1.25166
1.25133
1.25101
1.25069
1.25036
1.25004
1.24971
1.24939
1.24907
1.24874
1.24842
1.24809
1.24777
1.24745
1.24712
1.2468
1.24647
1.24615
1.24583
1.2455
1.24518
1.24485
1.24453
1.2442
1.24388
1.24355
1.24323
1.2429
1.24258
1.24226
1.24193
1.24161
1.24128
1.24096
1.24063
1.24031
1.23998
1.23966
1.23933
1.23901
1.23868
1.23836
1.23803
1.23771
1.23737
1.23706
1.2367
1.23643
1.23596
1.23575
1.23494
1.2337
1.2917
1.27786
1.27353
1.27081
1.26933
1.26822
1.26742
1.26676
1.26618
1.26564
1.26514
1.26468
1.26431
1.26404
1.26385
1.26371
1.26357
1.26342
1.26322
1.26299
1.26272
1.26243
1.26213
1.26181
1.2615
1.26117
1.26085
1.26053
1.2602
1.25988
1.25955
1.25923
1.2589
1.25858
1.25826
1.25793
1.25761
1.25728
1.25696
1.25663
1.25631
1.25598
1.25566
1.25533
1.25501
1.25468
1.25435
1.25403
1.2537
1.25338
1.25305
1.25273
1.2524
1.25208
1.25175
1.25143
1.2511
1.25078
1.25045
1.25012
1.2498
1.24947
1.24915
1.24882
1.2485
1.24817
1.24784
1.24752
1.24719
1.24687
1.24654
1.24622
1.24589
1.24556
1.24524
1.24491
1.24458
1.24426
1.24393
1.24361
1.24328
1.24296
1.24262
1.24231
1.24194
1.24167
1.2412
1.241
1.24024
1.23902
1.29793
1.28228
1.27787
1.27524
1.27381
1.27275
1.27198
1.27133
1.27077
1.27024
1.26974
1.26929
1.26891
1.26863
1.26842
1.26826
1.26811
1.26795
1.26775
1.26751
1.26724
1.26695
1.26664
1.26633
1.26601
1.26569
1.26536
1.26504
1.26471
1.26439
1.26406
1.26373
1.26341
1.26308
1.26276
1.26243
1.26211
1.26178
1.26145
1.26113
1.2608
1.26048
1.26015
1.25982
1.2595
1.25917
1.25885
1.25852
1.25819
1.25787
1.25754
1.25721
1.25689
1.25656
1.25623
1.25591
1.25558
1.25526
1.25493
1.2546
1.25428
1.25395
1.25362
1.2533
1.25297
1.25264
1.25231
1.25199
1.25166
1.25133
1.25101
1.25068
1.25035
1.25003
1.2497
1.24937
1.24904
1.24872
1.24839
1.24806
1.24773
1.24741
1.24707
1.24676
1.2464
1.24612
1.24566
1.24545
1.24473
1.24355
1.30105
1.28447
1.28013
1.27767
1.27635
1.27535
1.27461
1.274
1.27346
1.27295
1.27246
1.27202
1.27164
1.27134
1.27112
1.27094
1.27077
1.27059
1.27038
1.27014
1.26987
1.26957
1.26926
1.26895
1.26863
1.2683
1.26798
1.26765
1.26733
1.267
1.26668
1.26635
1.26602
1.2657
1.26537
1.26504
1.26472
1.26439
1.26407
1.26374
1.26341
1.26309
1.26276
1.26243
1.26211
1.26178
1.26145
1.26113
1.2608
1.26047
1.26015
1.25982
1.25949
1.25916
1.25884
1.25851
1.25818
1.25786
1.25753
1.2572
1.25688
1.25655
1.25622
1.25589
1.25557
1.25524
1.25491
1.25458
1.25426
1.25393
1.2536
1.25327
1.25295
1.25262
1.25229
1.25196
1.25164
1.25131
1.25098
1.25065
1.25032
1.25
1.24966
1.24935
1.24899
1.24871
1.24825
1.24804
1.24734
1.24623
1.3006
1.28436
1.28039
1.27819
1.27702
1.27611
1.27542
1.27484
1.27433
1.27384
1.27337
1.27294
1.27256
1.27226
1.27202
1.27182
1.27164
1.27144
1.27122
1.27096
1.27069
1.27039
1.27008
1.26976
1.26944
1.26912
1.26879
1.26847
1.26814
1.26781
1.26749
1.26716
1.26684
1.26651
1.26618
1.26586
1.26553
1.2652
1.26488
1.26455
1.26422
1.2639
1.26357
1.26324
1.26292
1.26259
1.26226
1.26194
1.26161
1.26128
1.26096
1.26063
1.2603
1.25997
1.25965
1.25932
1.25899
1.25867
1.25834
1.25801
1.25768
1.25736
1.25703
1.2567
1.25638
1.25605
1.25572
1.25539
1.25507
1.25474
1.25441
1.25408
1.25376
1.25343
1.2531
1.25277
1.25245
1.25212
1.25179
1.25146
1.25113
1.25081
1.25047
1.25016
1.2498
1.24951
1.24907
1.24884
1.24817
1.24714
1.29647
1.28192
1.27862
1.27676
1.27576
1.27496
1.27434
1.2738
1.27332
1.27286
1.27241
1.27199
1.27163
1.27132
1.27106
1.27084
1.27064
1.27042
1.27018
1.26992
1.26963
1.26933
1.26902
1.2687
1.26838
1.26806
1.26773
1.26741
1.26708
1.26675
1.26643
1.2661
1.26578
1.26545
1.26512
1.2648
1.26447
1.26415
1.26382
1.26349
1.26317
1.26284
1.26251
1.26219
1.26186
1.26154
1.26121
1.26088
1.26056
1.26023
1.2599
1.25958
1.25925
1.25892
1.2586
1.25827
1.25794
1.25762
1.25729
1.25696
1.25664
1.25631
1.25598
1.25566
1.25533
1.255
1.25468
1.25435
1.25402
1.25369
1.25337
1.25304
1.25271
1.25239
1.25206
1.25173
1.2514
1.25108
1.25075
1.25042
1.25009
1.24977
1.24943
1.24912
1.24876
1.24847
1.24804
1.24781
1.24716
1.24623
1.28884
1.27709
1.27459
1.27311
1.2723
1.27161
1.27106
1.27057
1.27013
1.2697
1.26928
1.26888
1.26852
1.26821
1.26794
1.2677
1.26747
1.26723
1.26697
1.2667
1.2664
1.2661
1.26579
1.26547
1.26515
1.26482
1.2645
1.26417
1.26385
1.26352
1.2632
1.26287
1.26255
1.26222
1.2619
1.26157
1.26125
1.26092
1.2606
1.26027
1.25995
1.25962
1.2593
1.25897
1.25865
1.25832
1.258
1.25767
1.25734
1.25702
1.25669
1.25637
1.25604
1.25572
1.25539
1.25507
1.25474
1.25441
1.25409
1.25376
1.25344
1.25311
1.25279
1.25246
1.25213
1.25181
1.25148
1.25116
1.25083
1.2505
1.25018
1.24985
1.24952
1.2492
1.24887
1.24855
1.24822
1.24789
1.24757
1.24724
1.24691
1.24659
1.24626
1.24594
1.24559
1.2453
1.24488
1.24463
1.24402
1.24322
1.27893
1.27103
1.26898
1.26789
1.26726
1.26669
1.26622
1.26578
1.26538
1.26498
1.26459
1.26422
1.26387
1.26356
1.26327
1.26301
1.26275
1.26249
1.26221
1.26192
1.26162
1.26131
1.261
1.26068
1.26036
1.26003
1.25971
1.25939
1.25906
1.25874
1.25842
1.25809
1.25777
1.25745
1.25712
1.2568
1.25647
1.25615
1.25583
1.2555
1.25518
1.25485
1.25453
1.25421
1.25388
1.25356
1.25323
1.25291
1.25259
1.25226
1.25194
1.25161
1.25129
1.25096
1.25064
1.25032
1.24999
1.24967
1.24934
1.24902
1.24869
1.24837
1.24805
1.24772
1.2474
1.24707
1.24675
1.24642
1.2461
1.24577
1.24545
1.24512
1.2448
1.24448
1.24415
1.24383
1.2435
1.24318
1.24285
1.24253
1.2422
1.24188
1.24155
1.24123
1.24089
1.24058
1.2402
1.23992
1.23936
1.2387
1.26691
1.26294
1.26189
1.26116
1.26068
1.26022
1.25982
1.25944
1.25907
1.25871
1.25835
1.258
1.25767
1.25735
1.25705
1.25676
1.25648
1.25619
1.25589
1.25559
1.25528
1.25496
1.25465
1.25433
1.25401
1.25369
1.25336
1.25304
1.25272
1.2524
1.25208
1.25175
1.25143
1.25111
1.25079
1.25047
1.25014
1.24982
1.2495
1.24918
1.24886
1.24853
1.24821
1.24789
1.24757
1.24724
1.24692
1.2466
1.24628
1.24596
1.24563
1.24531
1.24499
1.24467
1.24434
1.24402
1.2437
1.24338
1.24305
1.24273
1.24241
1.24209
1.24176
1.24144
1.24112
1.24079
1.24047
1.24015
1.23983
1.2395
1.23918
1.23886
1.23854
1.23821
1.23789
1.23757
1.23724
1.23692
1.2366
1.23627
1.23595
1.23563
1.2353
1.23498
1.23465
1.23434
1.23398
1.23369
1.23321
1.2327
1.27215
1.27086
1.26994
1.26947
1.26905
1.26867
1.26832
1.26797
1.26763
1.26729
1.26696
1.26663
1.2663
1.26598
1.26566
1.26535
1.26503
1.26472
1.2644
1.26409
1.26377
1.26344
1.26312
1.2628
1.26248
1.26215
1.26183
1.2615
1.26118
1.26086
1.26053
1.26021
1.25988
1.25956
1.25924
1.25891
1.25859
1.25826
1.25794
1.25761
1.25729
1.25697
1.25664
1.25632
1.25599
1.25567
1.25534
1.25502
1.2547
1.25437
1.25405
1.25372
1.2534
1.25307
1.25275
1.25242
1.2521
1.25178
1.25145
1.25113
1.2508
1.25048
1.25015
1.24983
1.2495
1.24918
1.24885
1.24853
1.2482
1.24788
1.24755
1.24723
1.2469
1.24658
1.24626
1.24593
1.24561
1.24528
1.24496
1.24463
1.24431
1.24398
1.24365
1.24333
1.243
1.24268
1.24235
1.24203
1.24168
1.24129
1.23615
1.22701
1.22441
1.22178
1.22037
1.21926
1.21848
1.21782
1.21724
1.21669
1.21619
1.21575
1.21542
1.21519
1.21505
1.21495
1.21484
1.21471
1.21453
1.2143
1.21405
1.21377
1.21347
1.21317
1.21286
1.21255
1.21224
1.21193
1.21162
1.2113
1.21099
1.21068
1.21037
1.21005
1.20974
1.20943
1.20911
1.2088
1.20849
1.20817
1.20786
1.20755
1.20723
1.20692
1.20661
1.2063
1.20598
1.20567
1.20536
1.20504
1.20473
1.20441
1.2041
1.20379
1.20347
1.20316
1.20285
1.20253
1.20222
1.20191
1.20159
1.20128
1.20096
1.20065
1.20034
1.20002
1.19971
1.19939
1.19908
1.19877
1.19845
1.19814
1.19782
1.19751
1.1972
1.19688
1.19657
1.19625
1.19594
1.19562
1.19531
1.195
1.19467
1.19437
1.19402
1.19375
1.19329
1.19309
1.1922
1.19092
1.26721
1.25728
1.25465
1.25197
1.25052
1.24939
1.24858
1.24791
1.24732
1.24677
1.24625
1.2458
1.24546
1.24522
1.24506
1.24495
1.24484
1.2447
1.24451
1.24428
1.24402
1.24374
1.24344
1.24313
1.24281
1.24249
1.24217
1.24185
1.24153
1.24121
1.24089
1.24057
1.24025
1.23993
1.23961
1.23929
1.23897
1.23865
1.23833
1.23801
1.23769
1.23737
1.23705
1.23673
1.23641
1.23609
1.23576
1.23544
1.23512
1.2348
1.23448
1.23416
1.23384
1.23352
1.2332
1.23288
1.23256
1.23223
1.23191
1.23159
1.23127
1.23095
1.23063
1.23031
1.22998
1.22966
1.22934
1.22902
1.2287
1.22838
1.22806
1.22773
1.22741
1.22709
1.22677
1.22645
1.22612
1.2258
1.22548
1.22516
1.22484
1.22452
1.22418
1.22388
1.22352
1.22325
1.22278
1.22257
1.22168
1.22038
1.27532
1.26382
1.26131
1.25862
1.25714
1.25601
1.2552
1.25453
1.25395
1.2534
1.25288
1.25243
1.25207
1.25182
1.25165
1.25153
1.25141
1.25127
1.25108
1.25085
1.25059
1.2503
1.25
1.24969
1.24937
1.24905
1.24873
1.24841
1.24809
1.24777
1.24745
1.24713
1.2468
1.24648
1.24616
1.24584
1.24552
1.2452
1.24487
1.24455
1.24423
1.24391
1.24358
1.24326
1.24294
1.24262
1.2423
1.24197
1.24165
1.24133
1.24101
1.24068
1.24036
1.24004
1.23972
1.23939
1.23907
1.23875
1.23843
1.2381
1.23778
1.23746
1.23713
1.23681
1.23649
1.23617
1.23584
1.23552
1.2352
1.23487
1.23455
1.23423
1.2339
1.23358
1.23326
1.23294
1.23261
1.23229
1.23196
1.23164
1.23132
1.231
1.23066
1.23036
1.22999
1.22972
1.22925
1.22905
1.22823
1.22695
1.28952
1.27556
1.27231
1.2696
1.26813
1.26701
1.26621
1.26554
1.26496
1.26441
1.2639
1.26345
1.26308
1.26281
1.26262
1.26249
1.26236
1.2622
1.26201
1.26178
1.26151
1.26123
1.26092
1.26061
1.26029
1.25997
1.25965
1.25932
1.259
1.25867
1.25835
1.25803
1.2577
1.25738
1.25705
1.25673
1.2564
1.25608
1.25575
1.25543
1.2551
1.25478
1.25445
1.25413
1.2538
1.25348
1.25315
1.25283
1.2525
1.25218
1.25185
1.25153
1.2512
1.25088
1.25055
1.25023
1.2499
1.24958
1.24925
1.24893
1.2486
1.24828
1.24795
1.24763
1.2473
1.24698
1.24665
1.24632
1.246
1.24567
1.24535
1.24502
1.2447
1.24437
1.24404
1.24372
1.24339
1.24307
1.24274
1.24242
1.24209
1.24177
1.24143
1.24112
1.24075
1.24048
1.24001
1.2398
1.23903
1.23779
1.29691
1.28093
1.27718
1.27452
1.2731
1.27202
1.27124
1.27059
1.27003
1.2695
1.26899
1.26854
1.26816
1.26788
1.26767
1.26752
1.26737
1.26721
1.26701
1.26677
1.26651
1.26622
1.26591
1.2656
1.26528
1.26495
1.26463
1.26431
1.26398
1.26365
1.26333
1.263
1.26268
1.26235
1.26203
1.2617
1.26138
1.26105
1.26072
1.2604
1.26007
1.25975
1.25942
1.2591
1.25877
1.25844
1.25812
1.25779
1.25746
1.25714
1.25681
1.25649
1.25616
1.25583
1.25551
1.25518
1.25486
1.25453
1.2542
1.25388
1.25355
1.25322
1.2529
1.25257
1.25224
1.25192
1.25159
1.25126
1.25094
1.25061
1.25028
1.24996
1.24963
1.2493
1.24898
1.24865
1.24832
1.248
1.24767
1.24734
1.24701
1.24669
1.24635
1.24604
1.24567
1.2454
1.24493
1.24472
1.244
1.24282
1.30141
1.28439
1.28055
1.27805
1.27673
1.27572
1.27498
1.27435
1.27381
1.2733
1.27281
1.27236
1.27199
1.27169
1.27147
1.27129
1.27113
1.27095
1.27074
1.27049
1.27022
1.26993
1.26962
1.26931
1.26899
1.26866
1.26834
1.26801
1.26769
1.26736
1.26703
1.26671
1.26638
1.26605
1.26573
1.2654
1.26508
1.26475
1.26442
1.2641
1.26377
1.26344
1.26312
1.26279
1.26246
1.26214
1.26181
1.26148
1.26115
1.26083
1.2605
1.26017
1.25985
1.25952
1.25919
1.25887
1.25854
1.25821
1.25788
1.25756
1.25723
1.2569
1.25658
1.25625
1.25592
1.25559
1.25527
1.25494
1.25461
1.25428
1.25396
1.25363
1.2533
1.25297
1.25265
1.25232
1.25199
1.25166
1.25133
1.25101
1.25068
1.25035
1.25002
1.2497
1.24934
1.24906
1.2486
1.24838
1.24769
1.24659
1.30102
1.28445
1.281
1.27878
1.27762
1.2767
1.27602
1.27544
1.27493
1.27444
1.27397
1.27354
1.27316
1.27286
1.27262
1.27242
1.27223
1.27203
1.27181
1.27156
1.27128
1.27098
1.27067
1.27036
1.27004
1.26971
1.26939
1.26906
1.26874
1.26841
1.26808
1.26776
1.26743
1.2671
1.26678
1.26645
1.26612
1.2658
1.26547
1.26514
1.26482
1.26449
1.26416
1.26384
1.26351
1.26318
1.26286
1.26253
1.2622
1.26187
1.26155
1.26122
1.26089
1.26057
1.26024
1.25991
1.25958
1.25926
1.25893
1.2586
1.25827
1.25795
1.25762
1.25729
1.25696
1.25664
1.25631
1.25598
1.25565
1.25533
1.255
1.25467
1.25434
1.25402
1.25369
1.25336
1.25303
1.25271
1.25238
1.25205
1.25172
1.2514
1.25106
1.25074
1.25038
1.2501
1.24965
1.24942
1.24876
1.24774
1.29574
1.28121
1.27863
1.2768
1.27583
1.27504
1.27443
1.27389
1.27341
1.27295
1.27251
1.2721
1.27173
1.27142
1.27116
1.27094
1.27073
1.27051
1.27027
1.27001
1.26972
1.26942
1.26911
1.26879
1.26847
1.26814
1.26782
1.26749
1.26717
1.26684
1.26652
1.26619
1.26587
1.26554
1.26521
1.26489
1.26456
1.26424
1.26391
1.26358
1.26326
1.26293
1.2626
1.26228
1.26195
1.26162
1.2613
1.26097
1.26065
1.26032
1.25999
1.25967
1.25934
1.25901
1.25869
1.25836
1.25803
1.25771
1.25738
1.25705
1.25673
1.2564
1.25607
1.25575
1.25542
1.25509
1.25476
1.25444
1.25411
1.25378
1.25346
1.25313
1.2528
1.25247
1.25215
1.25182
1.25149
1.25117
1.25084
1.25051
1.25018
1.24986
1.24952
1.24921
1.24885
1.24856
1.24813
1.24789
1.24725
1.24633
1.28769
1.27643
1.27504
1.27365
1.2729
1.27222
1.27169
1.27121
1.27077
1.27034
1.26993
1.26953
1.26918
1.26886
1.26859
1.26835
1.26811
1.26787
1.26761
1.26733
1.26704
1.26673
1.26642
1.2661
1.26578
1.26545
1.26513
1.2648
1.26448
1.26416
1.26383
1.2635
1.26318
1.26285
1.26253
1.2622
1.26188
1.26155
1.26123
1.2609
1.26058
1.26025
1.25993
1.2596
1.25927
1.25895
1.25862
1.2583
1.25797
1.25765
1.25732
1.257
1.25667
1.25634
1.25602
1.25569
1.25537
1.25504
1.25471
1.25439
1.25406
1.25374
1.25341
1.25308
1.25276
1.25243
1.25211
1.25178
1.25145
1.25113
1.2508
1.25048
1.25015
1.24982
1.2495
1.24917
1.24884
1.24852
1.24819
1.24787
1.24754
1.24721
1.24688
1.24656
1.24621
1.24592
1.2455
1.24525
1.24463
1.24384
1.27321
1.26598
1.2659
1.26493
1.26437
1.26382
1.26337
1.26294
1.26254
1.26215
1.26177
1.26139
1.26105
1.26073
1.26045
1.26018
1.25992
1.25965
1.25938
1.25909
1.25879
1.25848
1.25816
1.25784
1.25752
1.2572
1.25688
1.25655
1.25623
1.25591
1.25559
1.25526
1.25494
1.25462
1.25429
1.25397
1.25365
1.25333
1.253
1.25268
1.25236
1.25203
1.25171
1.25139
1.25106
1.25074
1.25042
1.25009
1.24977
1.24945
1.24912
1.2488
1.24848
1.24815
1.24783
1.24751
1.24718
1.24686
1.24653
1.24621
1.24589
1.24556
1.24524
1.24492
1.24459
1.24427
1.24394
1.24362
1.2433
1.24297
1.24265
1.24232
1.242
1.24168
1.24135
1.24103
1.2407
1.24038
1.24006
1.23973
1.23941
1.23909
1.23876
1.23844
1.2381
1.23779
1.23741
1.23713
1.23656
1.23591
1.26607
1.2623
1.26248
1.26184
1.26143
1.26099
1.26061
1.26023
1.25986
1.2595
1.25915
1.2588
1.25847
1.25815
1.25785
1.25756
1.25727
1.25698
1.25668
1.25638
1.25607
1.25576
1.25544
1.25512
1.2548
1.25448
1.25415
1.25383
1.25351
1.25319
1.25287
1.25254
1.25222
1.2519
1.25158
1.25125
1.25093
1.25061
1.25029
1.24997
1.24964
1.24932
1.249
1.24868
1.24835
1.24803
1.24771
1.24739
1.24706
1.24674
1.24642
1.2461
1.24577
1.24545
1.24513
1.24481
1.24448
1.24416
1.24384
1.24351
1.24319
1.24287
1.24255
1.24222
1.2419
1.24158
1.24125
1.24093
1.24061
1.24029
1.23996
1.23964
1.23932
1.23899
1.23867
1.23835
1.23802
1.2377
1.23738
1.23705
1.23673
1.23641
1.23608
1.23576
1.23543
1.23512
1.23475
1.23446
1.23395
1.23343
1.23901
1.23785
1.23808
1.23769
1.23738
1.23703
1.2367
1.23637
1.23604
1.23571
1.23539
1.23506
1.23475
1.23443
1.23412
1.23382
1.23351
1.23321
1.2329
1.23259
1.23228
1.23196
1.23165
1.23133
1.23102
1.2307
1.23039
1.23007
1.22976
1.22944
1.22912
1.22881
1.22849
1.22818
1.22786
1.22754
1.22723
1.22691
1.2266
1.22628
1.22596
1.22565
1.22533
1.22502
1.2247
1.22438
1.22407
1.22375
1.22343
1.22312
1.2228
1.22249
1.22217
1.22185
1.22154
1.22122
1.2209
1.22059
1.22027
1.21995
1.21964
1.21932
1.219
1.21869
1.21837
1.21805
1.21774
1.21742
1.2171
1.21679
1.21647
1.21615
1.21584
1.21552
1.2152
1.21489
1.21457
1.21425
1.21394
1.21362
1.2133
1.21299
1.21267
1.21235
1.21203
1.21172
1.21138
1.21108
1.21068
1.2103
1.25994
1.24844
1.24491
1.24212
1.24061
1.23946
1.23864
1.23797
1.23737
1.23682
1.2363
1.23586
1.23552
1.23529
1.23515
1.23505
1.23494
1.23481
1.23462
1.2344
1.23414
1.23385
1.23356
1.23325
1.23293
1.23262
1.2323
1.23198
1.23167
1.23135
1.23103
1.23071
1.23039
1.23008
1.22976
1.22944
1.22912
1.2288
1.22848
1.22817
1.22785
1.22753
1.22721
1.22689
1.22657
1.22625
1.22594
1.22562
1.2253
1.22498
1.22466
1.22434
1.22402
1.2237
1.22339
1.22307
1.22275
1.22243
1.22211
1.22179
1.22147
1.22115
1.22083
1.22051
1.22019
1.21987
1.21956
1.21924
1.21892
1.2186
1.21828
1.21796
1.21764
1.21732
1.217
1.21668
1.21636
1.21604
1.21572
1.2154
1.21508
1.21476
1.21443
1.21413
1.21377
1.2135
1.21303
1.21283
1.21203
1.21073
1.27017
1.25775
1.25403
1.2512
1.24964
1.24848
1.24765
1.24696
1.24637
1.24581
1.24529
1.24484
1.24449
1.24425
1.2441
1.24399
1.24388
1.24374
1.24356
1.24333
1.24307
1.24279
1.24249
1.24218
1.24187
1.24155
1.24123
1.24091