/*--------------------------------*- C++ -*----------------------------------*\
  =========                 |
  \\      /  F ield         | OpenFOAM: The Open Source CFD Toolbox
   \\    /   O peration     | Website:  https://openfoam.org
    \\  /    A nd           | Version:  7
     \\/     M anipulation  |
\*---------------------------------------------------------------------------*/
FoamFile
{
    version     2.0;
    format      ascii;
    class       volScalarField;
    location    "1.295";
    object      nut;
}
// * * * * * * * * * * * * * * * * * * * * * * * * * * * * * * * * * * * * * //

dimensions      [0 2 -1 0 0 0 0];

internalField   nonuniform List<scalar> 
13200
(
0.00817197
0.00839535
0.00839192
0.00839294
0.00839005
0.00839143
0.00838997
0.00839149
0.00839056
0.00839188
0.00839099
0.00839185
0.00839098
0.00839144
0.00839067
0.00839071
0.0083905
0.00838951
0.00839317
0.00839473
0.003957
0.00377198
0.00364454
0.00359557
0.00357702
0.00357318
0.00356679
0.00356712
0.00356364
0.00356425
0.00356234
0.00356284
0.00356128
0.00356161
0.00356031
0.00356043
0.00355962
0.0035591
0.00356599
0.00356647
0.00247313
0.00246548
0.00241772
0.00238264
0.00236564
0.00235999
0.00235337
0.00235181
0.00234793
0.00234726
0.00234457
0.00234409
0.00234187
0.0023414
0.0023395
0.00233894
0.00233741
0.00233664
0.00233619
0.00233915
0.00208686
0.00220808
0.00221888
0.00221792
0.00221476
0.00221409
0.00221184
0.00221136
0.00220965
0.00220938
0.00220813
0.00220785
0.00220665
0.00220613
0.00220488
0.00220399
0.00220301
0.0022016
0.00220118
0.00220252
0.00199779
0.00215843
0.00218572
0.00219427
0.00219518
0.00219775
0.00219754
0.00219881
0.00219851
0.00219954
0.00219937
0.00220023
0.00219997
0.00220037
0.00219987
0.00219974
0.00219908
0.00219841
0.00219771
0.0021987
0.00198584
0.00215219
0.00218322
0.00219424
0.00219647
0.00220062
0.0022013
0.00220385
0.00220428
0.00220632
0.00220679
0.00220868
0.00220908
0.00221046
0.00221054
0.00221119
0.00221098
0.0022111
0.00221073
0.00221181
0.0019819
0.00214851
0.00217994
0.00219157
0.00219438
0.00219925
0.00220052
0.00220393
0.00220491
0.00220774
0.00220872
0.00221141
0.00221237
0.0022146
0.00221519
0.00221668
0.0022169
0.00221774
0.00221771
0.00221929
0.00198386
0.00214902
0.00218033
0.00219206
0.00219521
0.00220046
0.00220211
0.00220607
0.00220744
0.00221084
0.00221221
0.00221548
0.00221686
0.00221973
0.00222074
0.00222286
0.0022235
0.0022249
0.00222543
0.00222717
0.00198338
0.00214787
0.00217891
0.00219049
0.00219365
0.00219899
0.00220076
0.00220492
0.00220648
0.00221015
0.00221176
0.00221537
0.00221702
0.00222028
0.00222159
0.00222411
0.00222506
0.00222687
0.00222769
0.00222982
0.00198429
0.00214818
0.00217909
0.00219063
0.0021938
0.00219917
0.00220099
0.00220522
0.00220685
0.00221063
0.00221234
0.00221609
0.00221787
0.00222129
0.00222277
0.00222545
0.00222662
0.00222853
0.00222962
0.00223182
0.00198429
0.00214818
0.00217909
0.00219063
0.0021938
0.00219917
0.00220099
0.00220522
0.00220685
0.00221063
0.00221234
0.00221609
0.00221787
0.00222129
0.00222277
0.00222545
0.00222662
0.00222853
0.00222962
0.00223183
0.00198338
0.00214787
0.00217891
0.00219049
0.00219365
0.00219899
0.00220076
0.00220492
0.00220648
0.00221016
0.00221176
0.00221537
0.00221702
0.00222028
0.00222159
0.00222411
0.00222507
0.00222686
0.00222771
0.00222983
0.00198386
0.00214902
0.00218033
0.00219206
0.00219521
0.00220046
0.00220211
0.00220607
0.00220744
0.00221084
0.00221221
0.00221549
0.00221685
0.00221974
0.00222074
0.00222287
0.0022235
0.00222491
0.00222545
0.00222719
0.00198189
0.00214851
0.00217994
0.00219157
0.00219438
0.00219925
0.00220052
0.00220393
0.00220491
0.00220774
0.00220872
0.00221142
0.00221236
0.00221462
0.00221518
0.0022167
0.00221689
0.00221777
0.00221773
0.00221933
0.00198584
0.00215219
0.00218321
0.00219424
0.00219647
0.00220062
0.0022013
0.00220385
0.00220428
0.00220632
0.00220678
0.00220869
0.00220907
0.00221049
0.0022105
0.00221125
0.00221091
0.0022112
0.00221067
0.0022119
0.00199778
0.00215843
0.00218572
0.00219427
0.00219518
0.00219775
0.00219754
0.00219881
0.00219851
0.00219955
0.00219936
0.00220024
0.00219994
0.00220041
0.00219979
0.00219984
0.00219892
0.00219869
0.00219749
0.00219899
0.00208686
0.00220808
0.00221888
0.00221792
0.00221476
0.0022141
0.00221184
0.00221136
0.00220965
0.00220939
0.00220811
0.00220786
0.00220662
0.00220617
0.00220478
0.00220419
0.00220268
0.00220214
0.00220055
0.00220317
0.00247313
0.00246548
0.00241772
0.00238264
0.00236563
0.00236
0.00235337
0.00235181
0.00234793
0.00234727
0.00234456
0.0023441
0.00234185
0.00234143
0.00233942
0.00233906
0.00233717
0.00233707
0.00233542
0.00234046
0.003957
0.00377198
0.00364454
0.00359557
0.00357702
0.00357318
0.00356679
0.00356712
0.00356364
0.00356425
0.00356233
0.00356285
0.00356126
0.00356164
0.00356026
0.00356052
0.00355944
0.00355944
0.00356512
0.00356803
0.00817197
0.00839535
0.00839192
0.00839294
0.00839005
0.00839143
0.00838996
0.00839149
0.00839056
0.00839188
0.00839098
0.00839187
0.00839096
0.00839149
0.00839059
0.00839086
0.00839021
0.00839009
0.00839189
0.00839792
0.00229657
0.0024492
0.00242554
0.00239732
0.00239306
0.00238196
0.00238244
0.00237595
0.00237708
0.00237258
0.00237363
0.00237026
0.00237109
0.00236849
0.00236912
0.00236703
0.00236765
0.00236557
0.00236608
0.0023688
0.00189536
0.00218434
0.00221536
0.00221052
0.00220532
0.00219997
0.00219746
0.0021944
0.00219307
0.00219102
0.00219016
0.0021886
0.00218792
0.00218662
0.0021861
0.00218499
0.0021846
0.00218381
0.00218322
0.0021828
0.00175992
0.00206706
0.00211516
0.0021263
0.00213001
0.00213233
0.00213311
0.002134
0.00213421
0.00213461
0.00213463
0.00213464
0.00213448
0.00213414
0.00213388
0.00213322
0.00213312
0.00213203
0.00213239
0.00213438
0.00174331
0.00205193
0.00209759
0.00210717
0.00210997
0.00211291
0.00211456
0.00211673
0.00211803
0.00211971
0.00212077
0.00212189
0.00212255
0.00212298
0.00212331
0.00212316
0.00212336
0.00212258
0.0021232
0.00212287
0.00173537
0.0020443
0.00208958
0.00209797
0.00209878
0.00210031
0.00210086
0.00210236
0.00210327
0.00210497
0.00210611
0.00210764
0.00210865
0.00210957
0.00211025
0.00211051
0.00211095
0.00211064
0.00211103
0.00211215
0.00173891
0.00204808
0.00209305
0.00210119
0.00210149
0.00210236
0.00210229
0.00210299
0.00210332
0.00210441
0.00210515
0.00210649
0.00210734
0.00210831
0.00210891
0.00210931
0.00210966
0.00210955
0.00210954
0.00211041
0.00173634
0.00204529
0.00209024
0.00209836
0.00209858
0.00209932
0.00209907
0.00209958
0.00209964
0.00210036
0.00210083
0.00210196
0.00210264
0.00210357
0.00210403
0.00210451
0.0021047
0.00210479
0.00210468
0.0021057
0.0017387
0.00204772
0.00209247
0.00210053
0.00210075
0.00210149
0.00210124
0.00210172
0.00210171
0.00210232
0.00210269
0.00210371
0.00210429
0.0021052
0.00210556
0.00210605
0.00210614
0.00210628
0.00210605
0.00210709
0.00173752
0.00204637
0.00209109
0.00209911
0.00209931
0.00210005
0.0020998
0.00210029
0.00210027
0.00210087
0.00210121
0.00210221
0.00210276
0.00210368
0.00210401
0.00210451
0.00210456
0.00210474
0.0021045
0.00210556
0.00173842
0.00204724
0.0020919
0.00209986
0.00210006
0.00210079
0.00210054
0.00210103
0.00210101
0.00210161
0.00210194
0.00210294
0.00210348
0.00210441
0.00210472
0.00210522
0.00210526
0.00210546
0.00210522
0.00210629
0.00173842
0.00204724
0.0020919
0.00209986
0.00210006
0.00210079
0.00210054
0.00210103
0.00210101
0.00210161
0.00210194
0.00210294
0.00210348
0.00210441
0.00210472
0.00210522
0.00210527
0.00210546
0.00210522
0.00210629
0.00173752
0.00204637
0.00209109
0.00209911
0.00209931
0.00210005
0.0020998
0.00210029
0.00210027
0.00210087
0.00210121
0.00210221
0.00210276
0.00210368
0.00210401
0.00210451
0.00210456
0.00210474
0.00210452
0.00210556
0.0017387
0.00204772
0.00209247
0.00210053
0.00210075
0.00210149
0.00210124
0.00210172
0.00210171
0.00210232
0.00210269
0.00210371
0.00210429
0.00210521
0.00210555
0.00210605
0.00210613
0.00210627
0.00210604
0.00210707
0.00173634
0.00204529
0.00209024
0.00209836
0.00209858
0.00209932
0.00209907
0.00209958
0.00209964
0.00210036
0.00210082
0.00210197
0.00210262
0.00210359
0.00210401
0.00210454
0.00210467
0.00210481
0.00210468
0.0021057
0.00173891
0.00204808
0.00209305
0.00210119
0.00210149
0.00210236
0.00210229
0.00210299
0.00210332
0.00210442
0.00210514
0.00210651
0.00210731
0.00210835
0.00210885
0.00210939
0.00210958
0.00210963
0.00210943
0.00211043
0.00173537
0.0020443
0.00208958
0.00209797
0.00209877
0.00210031
0.00210085
0.00210236
0.00210326
0.00210498
0.00210609
0.00210767
0.0021086
0.00210964
0.00211015
0.00211066
0.00211079
0.00211085
0.00211082
0.0021123
0.00174331
0.00205193
0.00209759
0.00210717
0.00210997
0.00211291
0.00211455
0.00211673
0.00211802
0.00211972
0.00212075
0.00212191
0.0021225
0.00212305
0.00212321
0.0021233
0.00212314
0.00212296
0.00212258
0.00212346
0.00175992
0.00206706
0.00211516
0.0021263
0.00213001
0.00213234
0.00213311
0.002134
0.00213421
0.00213462
0.00213462
0.00213465
0.00213445
0.0021342
0.00213379
0.00213338
0.0021329
0.00213248
0.00213164
0.00213537
0.00189536
0.00218434
0.00221536
0.00221052
0.00220532
0.00219997
0.00219746
0.0021944
0.00219306
0.00219102
0.00219015
0.00218861
0.0021879
0.00218665
0.00218606
0.00218508
0.00218446
0.00218409
0.00218269
0.00218403
0.00229657
0.0024492
0.00242554
0.00239732
0.00239306
0.00238196
0.00238244
0.00237596
0.00237708
0.00237258
0.00237363
0.00237027
0.00237108
0.00236851
0.00236911
0.00236707
0.0023676
0.00236573
0.00236587
0.00236959
0.000880491
0.000997435
0.000926305
0.000831211
0.000771653
0.000738906
0.00071572
0.000699708
0.000686125
0.000675221
0.00066607
0.000658116
0.000651825
0.000645996
0.000641509
0.000637345
0.000633792
0.000631297
0.000626775
0.000629291
0.000359868
0.000575538
0.000631919
0.00064199
0.000641412
0.00063884
0.000633506
0.00062805
0.000622447
0.000617246
0.000612214
0.00060757
0.00060317
0.000599202
0.000595378
0.000592256
0.000588702
0.000586774
0.000582871
0.000582543
0.00015653
0.000355462
0.000430221
0.000462438
0.000476077
0.000487372
0.000494341
0.000501852
0.000506778
0.000511932
0.000515147
0.000518362
0.000520167
0.000521957
0.000522755
0.000523681
0.000523812
0.000524278
0.000523864
0.00052486
0.000143906
0.000324492
0.00039308
0.000425234
0.000437363
0.000445356
0.000448785
0.000452945
0.00045558
0.000459105
0.000461852
0.00046503
0.000467724
0.000470455
0.000472944
0.000475169
0.00047738
0.000479194
0.000481027
0.000483085
0.000140803
0.000316836
0.000381582
0.000413726
0.000425238
0.000432703
0.000434514
0.000436895
0.000437397
0.000438637
0.000439174
0.000440316
0.000441086
0.00044215
0.000443241
0.000444159
0.000445522
0.000446335
0.000447652
0.000449036
0.000143745
0.000322016
0.000386452
0.00041769
0.000429335
0.000436347
0.000438261
0.000440119
0.000440374
0.000440995
0.000441114
0.000441433
0.000441593
0.00044181
0.000442104
0.000442262
0.000442647
0.000442777
0.00044314
0.000443909
0.000141726
0.000318524
0.000382925
0.000414448
0.000425897
0.000433014
0.000434776
0.000436656
0.000436817
0.000437326
0.000437324
0.000437489
0.000437484
0.000437536
0.000437533
0.000437469
0.000437461
0.000437376
0.000437359
0.000437774
0.000143392
0.000321543
0.000386028
0.000417155
0.000428649
0.000435569
0.000437432
0.000439224
0.000439426
0.000439934
0.00043996
0.000440105
0.000440115
0.000440135
0.000440124
0.000440027
0.000440001
0.000439835
0.000439827
0.000440142
0.00014238
0.000319716
0.000384175
0.000415474
0.00042689
0.000433885
0.000435677
0.000437511
0.000437692
0.000438204
0.00043822
0.000438376
0.000438377
0.000438414
0.000438401
0.000438315
0.00043827
0.000438145
0.000437992
0.000438337
0.000142945
0.000320761
0.000385263
0.000416426
0.000427844
0.000434766
0.00043658
0.000438381
0.000438573
0.000439083
0.000439108
0.000439266
0.000439276
0.000439312
0.000439304
0.000439222
0.000439186
0.000439046
0.000438954
0.000439272
0.000142945
0.000320761
0.000385263
0.000416426
0.000427844
0.000434766
0.00043658
0.000438381
0.000438573
0.000439083
0.000439108
0.000439266
0.000439276
0.000439312
0.000439304
0.000439223
0.000439187
0.000439049
0.000438955
0.000439275
0.00014238
0.000319716
0.000384175
0.000415474
0.00042689
0.000433885
0.000435677
0.000437511
0.000437692
0.000438204
0.00043822
0.000438376
0.000438377
0.000438413
0.000438401
0.000438314
0.000438269
0.000438142
0.000437992
0.000438333
0.000143392
0.000321543
0.000386028
0.000417155
0.000428649
0.000435569
0.000437432
0.000439224
0.000439426
0.000439935
0.00043996
0.000440105
0.000440115
0.000440136
0.000440125
0.000440028
0.000440002
0.000439838
0.000439827
0.000440144
0.000141726
0.000318524
0.000382925
0.000414448
0.000425897
0.000433014
0.000434776
0.000436657
0.000436817
0.000437326
0.000437324
0.00043749
0.000437483
0.000437536
0.000437532
0.000437469
0.00043746
0.000437372
0.000437355
0.000437765
0.000143745
0.000322016
0.000386451
0.000417691
0.000429335
0.000436347
0.000438261
0.00044012
0.000440374
0.000440995
0.000441113
0.000441435
0.000441589
0.000441815
0.000442099
0.000442262
0.000442643
0.000442775
0.000443128
0.000443886
0.000140803
0.000316837
0.000381582
0.000413727
0.000425237
0.000432704
0.000434514
0.000436896
0.000437397
0.000438637
0.000439174
0.000440319
0.000441079
0.000442155
0.000443229
0.000444162
0.000445503
0.000446323
0.000447612
0.000448968
0.000143906
0.000324492
0.000393079
0.000425235
0.000437362
0.000445357
0.000448784
0.000452947
0.000455577
0.000459108
0.000461847
0.000465033
0.000467716
0.000470455
0.000472931
0.00047516
0.000477349
0.000479163
0.000480938
0.000482955
0.00015653
0.000355462
0.00043022
0.000462438
0.000476076
0.000487373
0.000494339
0.000501854
0.000506773
0.000511937
0.000515138
0.000518369
0.00052015
0.000521968
0.000522722
0.000523685
0.000523781
0.000524234
0.000523779
0.000524735
0.000359868
0.000575538
0.000631918
0.000641991
0.000641412
0.00063884
0.000633505
0.000628053
0.000622443
0.000617253
0.000612204
0.000607586
0.000603149
0.000599238
0.00059533
0.000592337
0.000588615
0.000586846
0.000582777
0.000582772
0.000880491
0.000997435
0.000926305
0.000831211
0.000771653
0.000738907
0.00071572
0.000699711
0.000686125
0.000675229
0.00066607
0.000658138
0.000651826
0.000646051
0.000641527
0.000637474
0.000633872
0.000631619
0.000626996
0.000630227
0.000880491
0.000997435
0.000926305
0.000831211
0.000771653
0.000738906
0.00071572
0.000699708
0.000686125
0.000675221
0.00066607
0.000658116
0.000651825
0.000645996
0.000641509
0.000637345
0.000633792
0.000631297
0.000626775
0.000629291
0.000359868
0.000575538
0.000631919
0.00064199
0.000641412
0.00063884
0.000633507
0.00062805
0.000622447
0.000617246
0.000612214
0.00060757
0.000603171
0.000599203
0.000595378
0.000592256
0.000588702
0.000586774
0.000582871
0.000582543
0.00015653
0.000355462
0.000430221
0.000462438
0.000476077
0.000487372
0.000494341
0.000501852
0.000506778
0.000511932
0.000515147
0.000518362
0.000520167
0.000521957
0.000522755
0.000523681
0.000523812
0.000524279
0.000523865
0.00052486
0.000143906
0.000324492
0.00039308
0.000425234
0.000437363
0.000445356
0.000448785
0.000452945
0.00045558
0.000459105
0.000461852
0.000465029
0.000467724
0.000470455
0.000472944
0.000475169
0.00047738
0.000479194
0.000481027
0.000483085
0.000140803
0.000316836
0.000381582
0.000413726
0.000425238
0.000432703
0.000434514
0.000436895
0.000437397
0.000438637
0.000439174
0.000440316
0.000441086
0.00044215
0.000443241
0.000444159
0.000445522
0.000446335
0.000447652
0.000449036
0.000143745
0.000322016
0.000386452
0.00041769
0.000429335
0.000436347
0.000438261
0.000440119
0.000440374
0.000440995
0.000441114
0.000441433
0.000441593
0.00044181
0.000442104
0.000442262
0.000442647
0.000442777
0.00044314
0.000443909
0.000141726
0.000318524
0.000382925
0.000414448
0.000425897
0.000433014
0.000434776
0.000436656
0.000436817
0.000437326
0.000437324
0.000437489
0.000437484
0.000437536
0.000437533
0.000437469
0.000437461
0.000437376
0.000437359
0.000437774
0.000143392
0.000321543
0.000386028
0.000417155
0.000428649
0.000435569
0.000437432
0.000439224
0.000439426
0.000439934
0.00043996
0.000440105
0.000440115
0.000440135
0.000440124
0.000440027
0.000440001
0.000439835
0.000439827
0.000440142
0.00014238
0.000319716
0.000384175
0.000415474
0.00042689
0.000433885
0.000435677
0.000437511
0.000437692
0.000438204
0.00043822
0.000438376
0.000438377
0.000438414
0.000438401
0.000438315
0.00043827
0.000438145
0.000437992
0.000438337
0.000142945
0.000320761
0.000385263
0.000416426
0.000427844
0.000434766
0.00043658
0.000438381
0.000438573
0.000439083
0.000439108
0.000439266
0.000439276
0.000439312
0.000439304
0.000439222
0.000439186
0.000439046
0.000438954
0.000439272
0.000142945
0.000320761
0.000385263
0.000416426
0.000427844
0.000434766
0.00043658
0.000438381
0.000438573
0.000439083
0.000439108
0.000439266
0.000439276
0.000439312
0.000439305
0.000439223
0.000439187
0.000439049
0.000438955
0.000439275
0.00014238
0.000319716
0.000384175
0.000415474
0.00042689
0.000433885
0.000435677
0.000437511
0.000437692
0.000438204
0.00043822
0.000438376
0.000438377
0.000438413
0.000438401
0.000438314
0.000438269
0.000438142
0.000437992
0.000438333
0.000143392
0.000321543
0.000386028
0.000417155
0.000428649
0.000435569
0.000437432
0.000439224
0.000439426
0.000439935
0.00043996
0.000440105
0.000440115
0.000440136
0.000440125
0.000440028
0.000440002
0.000439838
0.000439827
0.000440144
0.000141726
0.000318524
0.000382925
0.000414448
0.000425897
0.000433014
0.000434776
0.000436657
0.000436817
0.000437326
0.000437324
0.00043749
0.000437483
0.000437536
0.000437532
0.000437469
0.00043746
0.000437372
0.000437355
0.000437765
0.000143745
0.000322016
0.000386451
0.000417691
0.000429335
0.000436347
0.000438261
0.00044012
0.000440374
0.000440995
0.000441113
0.000441435
0.000441589
0.000441815
0.000442099
0.000442262
0.000442643
0.000442775
0.000443128
0.000443886
0.000140803
0.000316837
0.000381582
0.000413727
0.000425237
0.000432704
0.000434514
0.000436896
0.000437397
0.000438637
0.000439174
0.000440319
0.000441079
0.000442155
0.000443229
0.000444162
0.000445503
0.000446323
0.000447612
0.000448968
0.000143906
0.000324492
0.000393079
0.000425235
0.000437362
0.000445357
0.000448784
0.000452947
0.000455577
0.000459108
0.000461847
0.000465033
0.000467716
0.000470455
0.000472931
0.00047516
0.000477349
0.000479163
0.000480938
0.000482955
0.00015653
0.000355462
0.00043022
0.000462438
0.000476076
0.000487373
0.000494339
0.000501854
0.000506773
0.000511937
0.000515138
0.000518369
0.00052015
0.000521968
0.000522722
0.000523685
0.000523781
0.000524234
0.000523779
0.000524734
0.000359868
0.000575538
0.000631918
0.00064199
0.000641412
0.00063884
0.000633505
0.000628052
0.000622443
0.000617253
0.000612204
0.000607585
0.000603149
0.000599238
0.00059533
0.000592337
0.000588615
0.000586846
0.000582776
0.000582772
0.000880491
0.000997435
0.000926305
0.000831211
0.000771653
0.000738907
0.00071572
0.000699711
0.000686125
0.000675229
0.00066607
0.000658137
0.000651826
0.000646051
0.000641527
0.000637474
0.000633872
0.000631619
0.000626996
0.000630227
0.00229657
0.0024492
0.00242554
0.00239732
0.00239306
0.00238196
0.00238244
0.00237595
0.00237708
0.00237258
0.00237363
0.00237026
0.00237109
0.00236849
0.00236912
0.00236703
0.00236765
0.00236557
0.00236608
0.0023688
0.00189536
0.00218434
0.00221536
0.00221052
0.00220532
0.00219997
0.00219746
0.0021944
0.00219307
0.00219102
0.00219015
0.0021886
0.00218792
0.00218662
0.0021861
0.00218499
0.0021846
0.00218381
0.00218322
0.0021828
0.00175992
0.00206706
0.00211516
0.0021263
0.00213001
0.00213233
0.00213311
0.002134
0.00213421
0.00213461
0.00213463
0.00213464
0.00213448
0.00213414
0.00213388
0.00213322
0.00213312
0.00213203
0.00213239
0.00213438
0.00174331
0.00205193
0.00209759
0.00210717
0.00210997
0.00211291
0.00211456
0.00211673
0.00211803
0.00211971
0.00212077
0.00212189
0.00212255
0.00212298
0.00212331
0.00212316
0.00212336
0.00212259
0.0021232
0.00212287
0.00173537
0.0020443
0.00208958
0.00209797
0.00209878
0.00210031
0.00210086
0.00210236
0.00210327
0.00210497
0.00210611
0.00210764
0.00210865
0.00210957
0.00211025
0.00211051
0.00211095
0.00211064
0.00211103
0.00211215
0.00173891
0.00204808
0.00209305
0.00210119
0.00210149
0.00210236
0.00210229
0.00210299
0.00210332
0.00210441
0.00210515
0.00210649
0.00210734
0.00210831
0.00210891
0.00210931
0.00210966
0.00210955
0.00210954
0.00211041
0.00173634
0.00204529
0.00209024
0.00209836
0.00209858
0.00209932
0.00209907
0.00209958
0.00209964
0.00210036
0.00210083
0.00210196
0.00210264
0.00210357
0.00210403
0.00210451
0.0021047
0.00210479
0.00210468
0.0021057
0.0017387
0.00204772
0.00209247
0.00210053
0.00210075
0.00210149
0.00210124
0.00210172
0.00210171
0.00210232
0.00210269
0.00210371
0.00210429
0.0021052
0.00210556
0.00210605
0.00210614
0.00210628
0.00210605
0.00210709
0.00173752
0.00204637
0.00209109
0.00209911
0.00209931
0.00210005
0.0020998
0.00210029
0.00210027
0.00210087
0.00210121
0.00210221
0.00210276
0.00210368
0.00210401
0.00210451
0.00210456
0.00210474
0.0021045
0.00210556
0.00173842
0.00204724
0.0020919
0.00209986
0.00210006
0.00210079
0.00210054
0.00210103
0.00210101
0.00210161
0.00210194
0.00210294
0.00210348
0.00210441
0.00210472
0.00210522
0.00210526
0.00210546
0.00210522
0.00210629
0.00173842
0.00204724
0.0020919
0.00209986
0.00210006
0.00210079
0.00210054
0.00210103
0.00210101
0.00210161
0.00210194
0.00210294
0.00210348
0.00210441
0.00210472
0.00210522
0.00210527
0.00210546
0.00210522
0.00210629
0.00173752
0.00204637
0.00209109
0.00209911
0.00209931
0.00210005
0.0020998
0.00210029
0.00210027
0.00210087
0.00210121
0.00210221
0.00210276
0.00210369
0.00210401
0.00210451
0.00210456
0.00210474
0.00210452
0.00210556
0.0017387
0.00204772
0.00209247
0.00210053
0.00210075
0.00210149
0.00210124
0.00210172
0.00210171
0.00210232
0.00210269
0.00210371
0.00210429
0.00210521
0.00210555
0.00210605
0.00210613
0.00210627
0.00210604
0.00210707
0.00173634
0.00204529
0.00209024
0.00209836
0.00209858
0.00209932
0.00209907
0.00209958
0.00209964
0.00210036
0.00210082
0.00210197
0.00210262
0.00210359
0.00210401
0.00210454
0.00210467
0.00210481
0.00210468
0.0021057
0.00173891
0.00204808
0.00209305
0.00210119
0.00210149
0.00210236
0.00210229
0.00210299
0.00210332
0.00210442
0.00210514
0.00210651
0.00210731
0.00210835
0.00210885
0.00210939
0.00210958
0.00210963
0.00210943
0.00211043
0.00173537
0.0020443
0.00208958
0.00209797
0.00209877
0.00210031
0.00210085
0.00210236
0.00210326
0.00210498
0.00210609
0.00210767
0.0021086
0.00210964
0.00211015
0.00211066
0.00211079
0.00211085
0.00211082
0.0021123
0.00174331
0.00205193
0.00209759
0.00210717
0.00210997
0.00211291
0.00211455
0.00211673
0.00211802
0.00211972
0.00212075
0.00212191
0.00212251
0.00212305
0.00212321
0.0021233
0.00212314
0.00212296
0.00212258
0.00212346
0.00175992
0.00206706
0.00211516
0.0021263
0.00213001
0.00213234
0.00213311
0.002134
0.00213421
0.00213462
0.00213462
0.00213465
0.00213445
0.0021342
0.00213379
0.00213338
0.0021329
0.00213248
0.00213164
0.00213537
0.00189536
0.00218434
0.00221536
0.00221052
0.00220532
0.00219997
0.00219746
0.0021944
0.00219306
0.00219102
0.00219015
0.00218861
0.0021879
0.00218665
0.00218606
0.00218508
0.00218446
0.00218409
0.00218269
0.00218403
0.00229657
0.0024492
0.00242554
0.00239732
0.00239306
0.00238196
0.00238244
0.00237596
0.00237708
0.00237258
0.00237363
0.00237027
0.00237108
0.00236851
0.00236911
0.00236707
0.0023676
0.00236573
0.00236587
0.00236959
0.00817197
0.00839535
0.00839192
0.00839294
0.00839005
0.00839143
0.00838997
0.00839149
0.00839056
0.00839188
0.00839099
0.00839185
0.00839098
0.00839144
0.00839067
0.00839071
0.0083905
0.00838951
0.00839317
0.00839473
0.003957
0.00377198
0.00364454
0.00359556
0.00357702
0.00357318
0.00356679
0.00356712
0.00356364
0.00356425
0.00356234
0.00356284
0.00356128
0.00356161
0.00356031
0.00356043
0.00355962
0.0035591
0.00356599
0.00356647
0.00247313
0.00246548
0.00241772
0.00238264
0.00236564
0.00235999
0.00235337
0.00235181
0.00234793
0.00234726
0.00234457
0.00234409
0.00234187
0.0023414
0.0023395
0.00233894
0.00233741
0.00233664
0.00233619
0.00233915
0.00208686
0.00220808
0.00221888
0.00221792
0.00221476
0.00221409
0.00221184
0.00221136
0.00220965
0.00220938
0.00220813
0.00220785
0.00220665
0.00220613
0.00220488
0.00220399
0.00220301
0.0022016
0.00220118
0.00220252
0.00199779
0.00215843
0.00218572
0.00219427
0.00219518
0.00219775
0.00219754
0.00219881
0.00219851
0.00219954
0.00219937
0.00220022
0.00219997
0.00220037
0.00219987
0.00219974
0.00219908
0.00219841
0.00219771
0.0021987
0.00198584
0.00215219
0.00218322
0.00219424
0.00219647
0.00220062
0.0022013
0.00220385
0.00220428
0.00220632
0.00220679
0.00220868
0.00220908
0.00221046
0.00221054
0.00221119
0.00221098
0.0022111
0.00221073
0.00221181
0.0019819
0.00214851
0.00217994
0.00219157
0.00219438
0.00219925
0.00220052
0.00220393
0.00220491
0.00220774
0.00220872
0.00221141
0.00221237
0.0022146
0.00221519
0.00221668
0.0022169
0.00221774
0.00221771
0.00221929
0.00198386
0.00214902
0.00218033
0.00219206
0.00219521
0.00220046
0.00220211
0.00220607
0.00220744
0.00221084
0.00221221
0.00221548
0.00221686
0.00221973
0.00222074
0.00222286
0.0022235
0.0022249
0.00222543
0.00222717
0.00198338
0.00214787
0.00217891
0.00219049
0.00219365
0.00219899
0.00220076
0.00220492
0.00220648
0.00221015
0.00221176
0.00221537
0.00221702
0.00222028
0.00222159
0.00222411
0.00222506
0.00222687
0.00222769
0.00222982
0.00198429
0.00214818
0.00217909
0.00219063
0.0021938
0.00219917
0.00220099
0.00220522
0.00220685
0.00221063
0.00221234
0.00221609
0.00221787
0.00222129
0.00222277
0.00222545
0.00222662
0.00222853
0.00222962
0.00223182
0.00198429
0.00214818
0.00217909
0.00219063
0.0021938
0.00219917
0.00220099
0.00220522
0.00220685
0.00221063
0.00221234
0.00221609
0.00221787
0.00222129
0.00222277
0.00222545
0.00222662
0.00222853
0.00222962
0.00223183
0.00198338
0.00214787
0.00217891
0.00219049
0.00219365
0.00219899
0.00220076
0.00220492
0.00220648
0.00221016
0.00221176
0.00221537
0.00221702
0.00222028
0.00222159
0.00222411
0.00222507
0.00222686
0.00222771
0.00222983
0.00198386
0.00214902
0.00218033
0.00219206
0.00219521
0.00220046
0.00220211
0.00220607
0.00220744
0.00221084
0.00221221
0.00221549
0.00221685
0.00221974
0.00222074
0.00222287
0.0022235
0.00222491
0.00222545
0.00222719
0.00198189
0.00214851
0.00217994
0.00219157
0.00219438
0.00219925
0.00220052
0.00220393
0.00220491
0.00220774
0.00220872
0.00221142
0.00221236
0.00221462
0.00221518
0.0022167
0.00221689
0.00221777
0.00221773
0.00221933
0.00198584
0.00215219
0.00218321
0.00219424
0.00219647
0.00220062
0.0022013
0.00220385
0.00220428
0.00220632
0.00220679
0.00220869
0.00220907
0.00221049
0.0022105
0.00221125
0.00221091
0.0022112
0.00221067
0.0022119
0.00199778
0.00215843
0.00218572
0.00219427
0.00219518
0.00219775
0.00219754
0.00219881
0.00219851
0.00219955
0.00219936
0.00220024
0.00219994
0.00220041
0.00219979
0.00219984
0.00219892
0.00219869
0.00219749
0.00219899
0.00208686
0.00220808
0.00221888
0.00221792
0.00221476
0.0022141
0.00221184
0.00221136
0.00220965
0.00220939
0.00220811
0.00220786
0.00220662
0.00220617
0.00220478
0.00220419
0.00220268
0.00220214
0.00220055
0.00220317
0.00247313
0.00246548
0.00241772
0.00238264
0.00236563
0.00236
0.00235337
0.00235181
0.00234793
0.00234727
0.00234456
0.00234411
0.00234185
0.00234143
0.00233942
0.00233906
0.00233717
0.00233707
0.00233542
0.00234046
0.003957
0.00377198
0.00364454
0.00359557
0.00357702
0.00357318
0.00356679
0.00356712
0.00356364
0.00356425
0.00356233
0.00356285
0.00356126
0.00356164
0.00356026
0.00356052
0.00355944
0.00355944
0.00356512
0.00356803
0.00817197
0.00839535
0.00839192
0.00839294
0.00839005
0.00839144
0.00838996
0.00839149
0.00839056
0.00839188
0.00839098
0.00839187
0.00839096
0.00839149
0.00839059
0.00839086
0.0083902
0.00839009
0.00839188
0.00839792
0.0232454
0.0234348
0.0235505
0.0236414
0.0237103
0.0237733
0.0238282
0.0238804
0.0239231
0.0239588
0.0239847
0.024006
0.0240222
0.024037
0.0240487
0.0240591
0.0240666
0.0240726
0.0240762
0.024079
0.0240804
0.0240816
0.024082
0.0240825
0.0240827
0.024083
0.024083
0.0240833
0.0240833
0.0240836
0.0240836
0.0240838
0.0240838
0.0240841
0.0240841
0.0240843
0.0240843
0.0240845
0.0240845
0.0240847
0.0240848
0.0240849
0.024085
0.0240851
0.0240852
0.0240854
0.0240854
0.0240856
0.0240856
0.0240858
0.0240859
0.024086
0.0240861
0.0240863
0.0240864
0.0240865
0.0240866
0.0240868
0.0240869
0.024087
0.0240871
0.0240873
0.0240874
0.0240876
0.0240877
0.0240879
0.024088
0.0240882
0.0240883
0.0240885
0.0240887
0.0240889
0.024089
0.0240892
0.0240894
0.0240895
0.0240897
0.0240899
0.0240901
0.0240902
0.0240906
0.0240903
0.0240912
0.0240903
0.024092
0.0240901
0.0240927
0.0240903
0.0240916
0.0240894
0.0131382
0.0132934
0.0133565
0.0134085
0.0134457
0.0134823
0.0135122
0.0135427
0.0135661
0.0135872
0.0136012
0.0136141
0.0136228
0.013632
0.0136382
0.0136448
0.0136488
0.0136528
0.0136547
0.0136569
0.0136575
0.0136588
0.0136589
0.0136598
0.0136597
0.0136605
0.0136605
0.0136611
0.0136611
0.0136618
0.0136618
0.0136624
0.0136625
0.0136631
0.0136632
0.0136637
0.0136638
0.0136644
0.0136645
0.0136651
0.0136652
0.0136658
0.0136659
0.0136665
0.0136666
0.0136672
0.0136674
0.0136679
0.0136681
0.0136686
0.0136688
0.0136694
0.0136696
0.0136701
0.0136703
0.0136709
0.0136711
0.0136716
0.0136718
0.0136724
0.0136726
0.0136731
0.0136733
0.0136738
0.0136741
0.0136746
0.0136748
0.0136753
0.0136755
0.013676
0.0136762
0.0136766
0.0136769
0.0136773
0.0136775
0.0136779
0.0136781
0.0136784
0.0136786
0.0136789
0.0136792
0.0136792
0.0136797
0.0136794
0.0136803
0.0136794
0.0136808
0.0136796
0.0136795
0.0136783
0.00878828
0.00897199
0.00900957
0.00904538
0.00906699
0.00909273
0.00911037
0.00913252
0.00914699
0.00916329
0.00917203
0.00918257
0.00918776
0.00919558
0.00919937
0.00920552
0.00920797
0.00921238
0.00921352
0.00921655
0.00921692
0.00921919
0.00921928
0.00922122
0.00922127
0.00922307
0.00922317
0.0092249
0.00922507
0.00922675
0.00922699
0.00922864
0.00922893
0.00923056
0.0092309
0.0092325
0.0092329
0.00923447
0.00923491
0.00923646
0.00923695
0.00923847
0.009239
0.00924051
0.00924106
0.00924255
0.00924314
0.00924461
0.00924523