/*--------------------------------*- C++ -*----------------------------------*\
  =========                 |
  \\      /  F ield         | OpenFOAM: The Open Source CFD Toolbox
   \\    /   O peration     | Website:  https://openfoam.org
    \\  /    A nd           | Version:  7
     \\/     M anipulation  |
\*---------------------------------------------------------------------------*/
FoamFile
{
    version     2.0;
    format      ascii;
    class       surfaceScalarField;
    location    "1.295";
    object      phi_0;
}
// * * * * * * * * * * * * * * * * * * * * * * * * * * * * * * * * * * * * * //

dimensions      [1 0 -1 0 0 0 0];

internalField   nonuniform List<scalar> 
21708
(
0.00129443
0.00100156
1.38056e-05
0.000898615
0.000391143
6.40529e-06
0.000690388
0.000198072
1.18735e-05
0.00060134
8.3828e-05
6.91204e-06
0.000549719
4.22728e-05
1.1011e-05
0.000519406
2.4839e-05
7.11769e-06
0.000496465
1.42605e-05
1.03099e-05
0.000480492
1.0339e-05
7.25641e-06
0.000466424
5.94107e-06
9.74711e-06
0.000456114
4.5984e-06
7.33681e-06
0.000446337
2.14787e-06
9.26378e-06
0.000439101
1.52525e-06
7.35634e-06
0.00043191
1.783e-08
8.83203e-06
0.000426594
-3.37721e-07
7.32396e-06
0.000421089
-1.2512e-06
8.43431e-06
0.000416766
-1.24426e-06
7.25027e-06
0.000411041
-6.46165e-07
8.05677e-06
0.000407664
-2.08095e-06
7.14334e-06
0.000356161
4.53808e-05
7.80287e-06
2.61057e-05
6.69794e-06
0.00032504
0.00224738
0.00106054
3.07434e-06
0.00205977
0.000584202
-3.70276e-06
0.00185762
0.000400105
1.86503e-06
0.00171697
0.000229121
-2.96012e-06
0.00161572
0.000143887
1.22464e-06
0.0015469
9.78093e-05
-2.62711e-06
0.00149267
6.93514e-05
6.00251e-07
0.00145343
5.34559e-05
-2.44295e-06
0.00141881
4.18976e-05
6.35591e-08
0.00139288
3.42798e-05
-2.34501e-06
0.00136847
2.83999e-05
-4.08691e-07
0.00135003
2.37464e-05
-2.31709e-06
0.00133191
2.04754e-05
-8.35473e-07
0.00131818
1.72755e-05
-2.34423e-06
0.00130476
1.49829e-05
-1.23119e-06
0.00129323
1.43117e-05
-2.41236e-06
0.00128702
8.81449e-06
-1.62342e-06
0.00127225
1.68343e-05
-2.50482e-06
0.0013141
7.27522e-06
-2.11245e-06
-1.94152e-05
-3.06548e-06
0.00136433
0.00257284
0.000787515
9.79286e-06
0.002666
0.000489312
3.49164e-06
0.00266113
0.000398063
8.68966e-06
0.00262727
0.000260943
3.75862e-06
0.00258051
0.000184391
7.86337e-06
0.00253872
0.000137122
3.9654e-06
0.00249743
0.00010488
7.15669e-06
0.00246359
8.45224e-05
4.09356e-06
0.00243117
6.90001e-05
6.58206e-06
0.002405
5.75019e-05
4.16533e-06
0.00237977
4.87288e-05
6.09118e-06
0.00235953
4.10296e-05
4.17935e-06
0.00233978
3.58428e-05
5.65452e-06
0.00232426
3.0002e-05
4.1433e-06
0.00230812
2.73045e-05
5.25418e-06
0.00229716
2.27142e-05
4.06599e-06
0.00228045
2.22071e-05
4.88209e-06
0.00227493
2.00358e-05
3.94262e-06
0.00224682
3.237e-05
4.66819e-06
2.4267e-05
3.57599e-06
0.00220125
0.00257937
0.000513194
4.39147e-06
0.00274201
0.000330062
-1.64189e-06
0.0028498
0.000288551
3.50856e-06
0.00291345
0.000200417
-1.36601e-06
0.00294579
0.000150905
2.77847e-06
0.00296632
0.000119168
-1.08243e-06
0.002974
9.64506e-05
2.14342e-06
0.00297913
8.16097e-05
-9.01082e-07
0.00297817
6.96138e-05
1.60551e-06
0.00297731
6.0345e-05
-8.01243e-07
0.0029732
5.28222e-05
1.13514e-06
0.00296996
4.61257e-05
-7.70876e-07
0.00296516
4.10362e-05
7.10469e-07
0.00296108
3.60737e-05
-7.96297e-07
0.00295726
3.20882e-05
3.16538e-07
0.00295241
2.98241e-05
-8.65448e-07
0.00295225
2.39075e-05
-7.31005e-08
0.00294665
2.81897e-05
-9.827e-07
0.00296227
1.89651e-05
-5.77842e-07
1.0796e-05
-1.4572e-06
0.00297895
0.00256822
0.000246787
7.71976e-06
0.00273832
0.000159814
1.89707e-06
0.00287507
0.000146686
6.90586e-06
0.00297082
0.000104404
2.02046e-06
0.00303652
8.07151e-05
6.13828e-06
0.0030897
6.52225e-05
2.26203e-06
0.0031281
5.39756e-05
5.47258e-06
0.00316198
4.66302e-05
2.41825e-06
0.00318744
4.05013e-05
4.91551e-06
0.00321077
3.57121e-05
2.50381e-06
0.00322858
3.16931e-05
4.43409e-06
0.0032452
2.80318e-05
2.52543e-06
0.00325806
2.52109e-05
4.00238e-06
0.00327047
2.22635e-05
2.49349e-06
0.00327989
2.02514e-05
3.60464e-06
0.00329035
1.82551e-05
2.41796e-06
0.00329596
1.64565e-05
3.23095e-06
0.00330644
1.6937e-05
2.28503e-06
0.00330739
1.66507e-05
2.94331e-06
1.77413e-05
1.93662e-06
0.00330022
0.00255027
5.10356e-12
5.98924e-06
0.00271159
1.47985e-10
2.52682e-07
0.00285482
-1.02884e-10
5.24108e-06
0.00296062
2.31163e-10
3.58043e-07
0.00303851
-2.49225e-10
4.47537e-06
0.00310463
8.35926e-10
6.02588e-07
0.00315617
2.93681e-10
3.81933e-06
0.00320336
2.7562e-09
7.6769e-07
0.00324186
3.37067e-09
3.26883e-06
0.00327791
7.27202e-09
8.58875e-07
0.00330792
1.40185e-08
2.79166e-06
0.00333609
2.01934e-08
8.8429e-07
0.00335991
4.04187e-08
2.36278e-06
0.0033823
7.41102e-08
8.55229e-07
0.00340165
7.92038e-08
1.96639e-06
0.00342011
2.85261e-07
7.82212e-07
0.00343623
1.15957e-07
1.58345e-06
0.00345313
8.60103e-07
6.49928e-07
0.00346972
4.24696e-07
1.16796e-06
1.58734e-06
2.60087e-07
0.00348729
0.00255027
-0.000246787
5.98924e-06
0.00271159
-0.000159814
2.52682e-07
0.00285482
-0.000146686
5.24109e-06
0.00296062
-0.000104403
3.58042e-07
0.00303851
-8.07155e-05
4.47537e-06
0.00310463
-6.5221e-05
6.02584e-07
0.00315617
-5.39747e-05
3.81933e-06
0.00320336
-4.66253e-05
7.67678e-07
0.00324186
-4.04941e-05
3.26884e-06
0.00327791
-3.56995e-05
8.58841e-07
0.00330792
-3.16637e-05
2.7917e-06
0.0033361
-2.79971e-05
8.84192e-07
0.00335991
-2.51258e-05
2.36287e-06
0.00338232
-2.21308e-05
8.54947e-07
0.00340166
-2.00813e-05
1.96673e-06
0.00342015
-1.77155e-05
7.81455e-07
0.00343623
-1.61967e-05
1.58494e-06
0.00345315
-1.52301e-05
6.4845e-07
0.00346969
-1.57555e-05
1.17527e-06
-1.43889e-05
2.5877e-07
0.00348709
0.00256822
-0.000513194
7.71976e-06
0.00273832
-0.000330062
1.89707e-06
0.00287507
-0.000288551
6.90586e-06
0.00297082
-0.000200416
2.02046e-06
0.00303652
-0.000150905
6.13827e-06
0.0030897
-0.000119167
2.26203e-06
0.0031281
-9.645e-05
5.47257e-06
0.00316198
-8.16049e-05
2.41826e-06
0.00318745
-6.96077e-05
4.9155e-06
0.00321077
-6.03324e-05
2.50383e-06
0.00322859
-5.27971e-05
4.43406e-06
0.00324521
-4.60912e-05
2.52551e-06
0.00325808
-4.09644e-05
4.00228e-06
0.0032705
-3.59455e-05
2.49375e-06
0.00327995
-3.19538e-05
3.60427e-06
0.00329044
-2.93178e-05
2.41868e-06
0.00329616
-2.37465e-05
3.2295e-06
0.00330678
-2.66303e-05
2.28623e-06
0.00330804
-1.83725e-05
2.93693e-06
-8.10658e-06
1.93683e-06
0.00330153
0.00257937
-0.000787515
4.39147e-06
0.00274201
-0.000489312
-1.64189e-06
0.0028498
-0.000398063
3.50856e-06
0.00291345
-0.000260943
-1.36601e-06
0.00294579
-0.000184392
2.77847e-06
0.00296632
-0.000137121
-1.08243e-06
0.002974
-0.000104879
2.14342e-06
0.00297913
-8.45193e-05
-9.01092e-07
0.00297817
-6.89942e-05
1.60553e-06
0.00297732
-5.7494e-05
-8.01271e-07
0.00297321
-4.87058e-05
1.13518e-06
0.00296998
-4.10083e-05
-7.70952e-07
0.00296519
-3.57773e-05
7.10585e-07
0.00296115
-2.9915e-05
-7.96496e-07
0.00295734
-2.71799e-05
3.16879e-07
0.00295261
-2.23318e-05
-8.65958e-07
0.00295247
-2.20571e-05
-7.16661e-08
0.00294714
-1.8745e-05
-9.83889e-07
0.00296284
-3.18688e-05
-5.7071e-07
-2.18681e-05
-1.458e-06
0.0029798
0.00257284
-0.00106054
9.79286e-06
0.002666
-0.000584202
3.49164e-06
0.00266113
-0.000400106
8.68965e-06
0.00262727
-0.000229121
3.75862e-06
0.00258051
-0.000143887
7.86337e-06
0.00253872
-9.78089e-05
3.9654e-06
0.00249743
-6.9351e-05
7.15669e-06
0.00246359
-5.34542e-05
4.09357e-06
0.00243118
-4.18941e-05
6.58205e-06
0.00240501
-3.42753e-05
4.16534e-06
0.00237979
-2.83858e-05
6.09116e-06
0.00235956
-2.37343e-05
4.17941e-06
0.00233983
-2.04355e-05
5.65444e-06
0.00232435
-1.72236e-05
4.1435e-06
0.00230826
-1.49139e-05
5.25387e-06
0.00229744
-1.40743e-05
4.06654e-06
0.00228086
-8.78652e-06
4.88104e-06
0.0022758
-1.60076e-05
3.94341e-06
0.00224821
-7.27664e-06
4.66405e-06
2.03942e-05
3.57483e-06
0.00220404
0.00224738
-0.00100156
3.07434e-06
0.00205977
-0.000391143
-3.70276e-06
0.00185762
-0.000198072
1.86503e-06
0.00171697
-8.3828e-05
-2.96012e-06
0.00161572
-4.22729e-05
1.22464e-06
0.0015469
-2.48391e-05
-2.62711e-06
0.00149267
-1.42604e-05
6.00257e-07
0.00145343
-1.03387e-05
-2.44296e-06
0.00141882
-5.93987e-06
6.35746e-08
0.00139289
-4.59753e-06
-2.34502e-06
0.00136849
-2.1426e-06
-4.0865e-07
0.00135005
-1.52289e-06
-2.31715e-06
0.00133196
-2.15306e-09
-8.35375e-07
0.00131828
3.5008e-07
-2.34436e-06
0.00130489
1.28301e-06
-1.23093e-06
0.00129353
1.31174e-06
-2.4127e-06
0.0012873
6.93467e-07
-1.62234e-06
0.0012731
2.34033e-06
-2.50602e-06
0.00131459
-4.50208e-05
-2.1067e-06
-2.55197e-05
-3.0681e-06
0.00136518
0.00129443
1.38056e-05
0.000898615
6.40529e-06
0.000690388
1.18735e-05
0.00060134
6.91204e-06
0.000549719
1.1011e-05
0.000519406
7.1177e-06
0.000496466
1.03099e-05
0.000480493
7.25641e-06
0.000466427
9.74711e-06
0.000456118
7.33682e-06
0.000446347
9.26377e-06
0.000439114
7.35639e-06
0.000431939
8.83198e-06
0.000426635
7.32413e-06
0.000421162
8.43408e-06
0.000416906
7.25077e-06
0.00041123
8.05613e-06
0.00040811
7.1443e-06
0.000356972
7.80105e-06
6.69964e-06
0.000326423
0.00189905
0.000420456
3.30378e-06
0.00138596
0.000516094
5.14182e-06
0.00104507
0.000352073
2.40484e-06
0.000865799
0.00018391
3.95054e-06
0.000778153
9.78597e-05
2.42316e-06
0.000725279
5.79661e-05
3.61828e-06
0.000692531
4.20604e-05
2.57134e-06
0.000664107
3.38821e-05
3.3625e-06
0.000644226
2.85545e-05
2.64013e-06
0.000625129
2.48819e-05
3.12941e-06
0.000611565
2.17522e-05
2.66843e-06
0.000597953
1.96271e-05
2.95419e-06
0.000587902
1.78189e-05
2.69408e-06
0.000577797
1.62318e-05
2.84059e-06
0.000569559
1.55927e-05
2.7343e-06
0.000561888
1.38034e-05
2.77683e-06
0.000558722
1.00804e-05
2.80233e-06
0.000541565
2.32073e-05
2.74634e-06
0.000643996
-9.58352e-05
2.84708e-06
-7.73692e-05
2.97779e-06
0.000726737
0.00240397
0.000320217
8.58827e-06
0.00234703
0.000560622
1.04683e-05
0.00222804
0.00046672
7.96411e-06
0.00209601
0.000305365
9.30462e-06
0.00198917
0.000199623
7.88779e-06
0.00190086
0.000136201
8.92422e-06
0.0018349
0.000102001
8.02077e-06
0.00177841
8.06007e-05
8.67808e-06
0.00173524
6.50198e-05
8.08371e-06
0.00169631
5.43133e-05
8.46349e-06
0.00166584
4.50485e-05
8.10346e-06
0.00163745
3.8794e-05
8.29677e-06
0.00161449
3.32767e-05
8.11733e-06
0.00159305
2.86457e-05
8.18265e-06
0.00157413
2.67004e-05
8.14316e-06
0.00155892
2.00893e-05
8.11227e-06
0.00153879
2.20147e-05
8.19885e-06
0.0015375
1.55644e-05
8.06858e-06
0.00145704
-2.41961e-05
8.32266e-06
6.45971e-06
8.33324e-06
0.00136342
0.00242721
0.000207506
4.33286e-06
0.00255896
0.000427749
6.37641e-06
0.00262559
0.000407047
3.50893e-06
0.00262889
0.000302269
5.28075e-06
0.00261129
0.000223165
3.51845e-06
0.00258036
0.000167647
4.91881e-06
0.00255258
0.000134533
3.7794e-06
0.00252254
0.000111344
4.69723e-06
0.0024976
9.38403e-05
3.93139e-06
0.00247191
8.08418e-05
4.49459e-06
0.00245066
6.95374e-05
4.00646e-06
0.00242914
6.13485e-05
4.33253e-06
0.00241141
5.38693e-05
4.05899e-06
0.00239316
4.8163e-05
4.22213e-06
0.00237909
4.33481e-05
4.11481e-06
0.00236176
3.88493e-05
4.15875e-06
0.00235489
3.11902e-05
4.18389e-06
0.00233484
3.70752e-05
4.14124e-06
0.00234612
-3.32874e-05
4.18175e-06
-1.17668e-05
4.31824e-06
0.00236534
0.00237938
0.00013424
7.45884e-06
0.0025242
0.000273669
9.37783e-06
0.00266117
0.000268393
6.97475e-06
0.00274512
0.000210313
8.38037e-06
0.00280225
0.000163503
6.91012e-06
0.00283338
0.000128946
7.96392e-06
0.00285664
0.000107772
7.02911e-06
0.0028685
9.21799e-05
7.70952e-06
0.00287824
7.98457e-05
7.09927e-06
0.00288173
7.02083e-05
7.49804e-06
0.0028849
6.14711e-05
7.12604e-06
0.00288442
5.48046e-05
7.33261e-06
0.00288434
4.86476e-05
7.14327e-06
0.00288223
4.34825e-05
7.21851e-06
0.00288025
3.98003e-05
7.17142e-06
0.00287811
3.44025e-05
7.15064e-06
0.00287183
3.16893e-05
7.22634e-06
0.0028727
2.97231e-05
7.12776e-06
0.00283468
-1.51278e-06
7.36253e-06
2.5184e-05
7.36873e-06
0.00279072
0.00238146
6.41555e-05
5.42954e-06
0.00251668
0.000134691
7.41207e-06
0.0026538
0.000135104
4.85873e-06
0.00275333
0.000108131
6.4112e-06
0.00283326
8.65193e-05
4.79575e-06
0.00288993
7.00315e-05
5.98281e-06
0.00293959
6.00098e-05
4.95342e-06
0.00297732
5.24504e-05
5.73685e-06
0.00301179
4.6482e-05
5.05872e-06
0.00303845
4.169e-05
5.53298e-06
0.00306306
3.72705e-05
5.10971e-06
0.00308223
3.38364e-05
5.37176e-06
0.00310032
3.0483e-05
5.14424e-06
0.00311428
2.79011e-05
5.26115e-06
0.00312845
2.53086e-05
5.18603e-06
0.00313797
2.34646e-05
5.19874e-06
0.00314979
1.93038e-05
5.24371e-06
0.00315648
2.16981e-05
5.19077e-06
0.00315737
-3.07666e-06
5.27535e-06
8.60755e-06
5.37597e-06
0.00317231
0.00237284
-6.10443e-11
6.42728e-06
0.00250117
1.57777e-10
8.37455e-06
0.00263736
-6.4538e-11
5.95051e-06
0.00274016
3.90018e-10
7.41286e-06
0.00282688
1.06364e-10
5.88066e-06
0.00289201
1.24015e-09
6.98016e-06
0.00295121
1.12559e-09
6.00718e-06
0.00299901
3.40605e-09
6.72775e-06
0.00304393
4.49288e-09
6.09301e-06
0.00308112
9.36296e-09
6.52225e-06
0.00311613
1.42791e-08
6.13162e-06
0.00314549
2.82825e-08
6.36009e-06
0.00317319
3.98427e-08
6.15637e-06
0.00319674
8.79107e-08
6.24797e-06
0.00321894
1.08137e-07
6.19026e-06
0.00323808
2.58285e-07
6.18396e-06
0.00325384
3.1061e-07
6.24606e-06
0.00327082
7.23893e-07
6.17552e-06
0.00326332
8.69091e-07
6.34465e-06
1.90607e-06
6.38597e-06
0.00326567
0.00237284
-6.41557e-05
6.42728e-06
0.00250117
-0.00013469
8.37455e-06
0.00263736
-0.000135104
5.9505e-06
0.00274016
-0.00010813
7.41286e-06
0.00282688
-8.65191e-05
5.88066e-06
0.00289201
-7.0029e-05
6.98016e-06
0.00295121
-6.00078e-05
6.00718e-06
0.00299901
-5.24432e-05
6.72776e-06
0.00304393
-4.64738e-05
6.09301e-06
0.00308112
-4.167e-05
6.52227e-06
0.00311613
-3.72449e-05
6.13161e-06
0.00314549
-3.37761e-05
6.36014e-06
0.0031732
-3.0413e-05
6.15632e-06
0.00319673
-2.77156e-05
6.24812e-06
0.00321897
-2.51248e-05
6.19007e-06
0.0032381
-2.29353e-05
6.18433e-06
0.00325396
-1.8792e-05
6.24518e-06
0.00327104
-2.03491e-05
6.17615e-06
0.00326368
4.69271e-06
6.33994e-06
-5.20127e-06
6.38673e-06
0.00326644
0.00238146
-0.00013424
5.42954e-06
0.00251668
-0.000273669
7.41207e-06
0.0026538
-0.000268393
4.85873e-06
0.00275333
-0.000210312
6.4112e-06
0.00283326
-0.000163503
4.79576e-06
0.00288993
-0.000128944
5.98281e-06
0.00293959
-0.000107769
4.95343e-06
0.00297732
-9.21737e-05
5.73685e-06
0.00301179
-7.98372e-05
5.05872e-06
0.00303845
-7.01914e-05
5.53297e-06
0.00306306
-6.14447e-05
5.10973e-06
0.00308224
-5.4754e-05
5.37172e-06
0.00310033
-4.85758e-05
5.14429e-06
0.00311432
-4.33253e-05
5.26102e-06
0.00312848
-3.96092e-05
5.1862e-06
0.00313807
-3.39428e-05
5.19838e-06
0.00314986
-3.11451e-05
5.24446e-06
0.00315663
-2.84551e-05
5.19017e-06
0.00315758
3.05262e-06
5.2793e-06
-2.17016e-05
5.37529e-06
0.00317245
0.00237938
-0.000207506
7.45884e-06
0.0025242
-0.000427749
9.37783e-06
0.00266117
-0.000407047
6.97474e-06
0.00274512
-0.000302268
8.38037e-06
0.00280225
-0.000223165
6.91012e-06
0.00283338
-0.000167645
7.96392e-06
0.00285664
-0.000134531
7.02911e-06
0.0028685
-0.000111339
7.70952e-06
0.00287824
-9.38332e-05
7.09926e-06
0.00288174
-8.08275e-05
7.49805e-06
0.00288491
-6.95162e-05
7.12602e-06
0.00288444
-6.13053e-05
7.33264e-06
0.00288437
-5.38142e-05
7.1432e-06
0.00288228
-4.80277e-05
7.21861e-06
0.00288036
-4.32117e-05
7.17119e-06
0.00287829
-3.84592e-05
7.15091e-06
0.00287219
-3.08304e-05
7.22538e-06
0.00287332
-3.60682e-05
7.12829e-06
0.00283583
3.43162e-05
7.35814e-06
1.42364e-05
7.36858e-06
0.00279288
0.00242721
-0.000320217
4.33286e-06
0.00255896
-0.000560622
6.37641e-06
0.00262559
-0.00046672
3.50893e-06
0.00262889
-0.000305365
5.28075e-06
0.00261129
-0.000199623
3.51845e-06
0.00258036
-0.000136199
4.91881e-06
0.00255258
-0.000102
3.7794e-06
0.00252254
-8.05977e-05
4.69722e-06
0.0024976
-6.50141e-05
3.9314e-06
0.00247192
-5.43055e-05
4.49458e-06
0.00245068
-4.50311e-05
4.00648e-06
0.00242918
-3.87708e-05
4.3325e-06
0.00241145
-3.32305e-05
4.05904e-06
0.00239327
-2.85718e-05
4.22202e-06
0.00237922
-2.65811e-05
4.11495e-06
0.00236206
-1.98715e-05
4.15848e-06
0.00235521
-2.16882e-05
4.18434e-06
0.00233554
-1.49374e-05
4.14081e-06
0.00234702
2.50282e-05
4.18422e-06
-4.44951e-06
4.31774e-06
0.00236668
0.00240397
-0.000420456
8.58827e-06
0.00234703
-0.000516094
1.04683e-05
0.00222804
-0.000352073
7.96411e-06
0.00209601
-0.000183909
9.30462e-06
0.00198917
-9.78596e-05
7.88779e-06
0.00190086
-5.79657e-05
8.92423e-06
0.0018349
-4.20599e-05
8.02077e-06
0.00177842
-3.3881e-05
8.67808e-06
0.00173525
-2.85523e-05
8.0837e-06
0.00169632
-2.48788e-05
8.4635e-06
0.00166586
-2.17453e-05
8.10345e-06
0.00163748
-1.96175e-05
8.29679e-06
0.00161455
-1.78014e-05
8.11729e-06
0.00159316
-1.62004e-05
8.18271e-06
0.00157432
-1.55525e-05
8.143e-06
0.00155923
-1.37075e-05
8.11251e-06
0.00153936
-1.00139e-05
8.19806e-06
0.00153836
-2.28762e-05
8.06939e-06
0.001459
9.55908e-05
8.31912e-06
7.7389e-05
8.33437e-06
0.00136734
0.00189905
3.30378e-06
0.00138596
5.14182e-06
0.00104507
2.40484e-06
0.000865799
3.95054e-06
0.000778154
2.42316e-06
0.00072528
3.61828e-06
0.000692532
2.57134e-06
0.00066411
3.3625e-06
0.000644231
2.64013e-06
0.000625137
3.12941e-06
0.000611581
2.66844e-06
0.000597978
2.95417e-06
0.000587944
2.69411e-06
0.000577872
2.84052e-06
0.000569673
2.73438e-06
0.0005621
2.77663e-06
0.000558998
2.80248e-06
0.000542174
2.74595e-06
0.000644365
2.84742e-06
2.9765e-06
0.000727096
0.00214106
0.00017104
-5.3519e-12
0.00190009
0.000247875
-5.40919e-12
0.00164234
0.000261889
-5.4715e-12
0.00141594
0.000232001
-5.62297e-12
0.0012337
0.000186215
-5.65069e-12
0.00109946
0.000139328
-5.7595e-12
0.00100385
9.96214e-05
-5.76153e-12
0.000939593
6.90628e-05
-5.8481e-12
0.000895603
4.81023e-05
-5.80157e-12
0.000866347
3.38854e-05
-5.84156e-12
0.000845362
2.51765e-05
-5.74271e-12
0.000830392
1.94646e-05
-5.75589e-12
0.000818734
1.59085e-05
-5.63597e-12
0.000809419
1.372e-05
-5.69493e-12
0.000802357
1.13633e-05
-5.65129e-12
0.000794727
1.1966e-05
-5.81172e-12
0.000792701
6.37986e-06
-5.78135e-12
0.000782278
1.46964e-05
-5.92463e-12
0.000791942
-5.30598e-06
-5.78633e-12
-1.06586e-06
-5.85887e-12
0.000797513
0.00236516
0.00012326
-5.36998e-12
0.00241295
0.000212309
-5.47164e-12
0.00242286
0.000261731
-5.47973e-12
0.00240209
0.000263766
-5.4906e-12
0.00235957
0.000238178
-5.3321e-12
0.00230917
0.000200089
-5.36211e-12
0.00225609
0.000162065
-5.46886e-12
0.00220598
0.000129097
-5.72044e-12
0.00215915
0.000104206
-5.73755e-12
0.00211723
8.544e-05
-5.77042e-12
0.00207927
7.24477e-05
-5.68963e-12
0.00204573
6.25923e-05
-5.77021e-12
0.0020157
5.54466e-05
-5.69516e-12
0.00198927
4.9811e-05
-5.70353e-12
0.00196588
4.44736e-05
-5.51205e-12
0.00194506
4.2532e-05
-5.56116e-12
0.00192767
3.36516e-05
-5.47023e-12
0.00191019
4.19003e-05
-5.71221e-12
0.0018983
1.65378e-05
-5.64368e-12
3.74604e-05
-5.86997e-12
0.00186967
0.00235319
8.31875e-05
-5.3747e-12
0.00242468
0.000148962
-5.48629e-12
0.00249847
0.000193237
-5.50436e-12
0.00256593
0.0002033
-5.51769e-12
0.00261682
0.000192371
-5.35787e-12
0.00265311
0.000170158
-5.38059e-12
0.00267509
0.000145224
-5.47549e-12
0.00268761
0.000122539
-5.72635e-12
0.00269251
0.000104423
-5.70759e-12
0.00269301
9.05324e-05
-5.64569e-12
0.00269026
8.02636e-05
-5.47823e-12
0.00268573
7.25654e-05
-5.64304e-12
0.0026803
6.61283e-05
-5.86289e-12
0.00267393
6.17135e-05
-6.20136e-12
0.00266818
5.57537e-05
-6.05776e-12
0.00266118
5.5221e-05
-5.89403e-12
0.0026564
4.42519e-05
-5.50878e-12
0.00264923
5.4971e-05
-5.52378e-12
0.00264537
2.63856e-05
-5.62617e-12
5.34442e-05
-5.8158e-12
0.00263556
0.00234334
5.60876e-05
-5.37747e-12
0.00240502
9.84305e-05
-5.48687e-12
0.00247963
0.000127385
-5.50366e-12
0.00255814
0.000134885
-5.53445e-12
0.00262952
0.000129463
-5.41399e-12
0.00269248
0.000116598
-5.47071e-12
0.0027443
0.000101796
-5.55869e-12
0.00278774
8.81011e-05
-5.77911e-12
0.00282329
7.71672e-05
-5.70085e-12
0.0028536
6.88204e-05
-5.53051e-12
0.00287937
6.26546e-05
-5.25695e-12
0.00290212
5.8181e-05
-5.35709e-12
0.00292233
5.41865e-05
-5.60433e-12
0.00294062
5.18634e-05
-6.0891e-12
0.00295724
4.76282e-05
-6.13366e-12
0.00297272
4.83273e-05
-5.99564e-12
0.0029862
3.95233e-05
-5.65889e-12
0.00300046
4.95159e-05
-5.46214e-12
0.00300915
2.68486e-05
-5.60443e-12
5.37699e-05
-6.16574e-12
0.00301812
0.00234392
2.63776e-05
-5.37282e-12
0.00240381
4.77143e-05
-5.47324e-12
0.0024751
6.275e-05
-5.48642e-12
0.00255148
6.66167e-05
-5.54398e-12
0.00262324
6.40648e-05
-5.47544e-12
0.00268933
5.79236e-05
-5.56195e-12
0.00274665
5.07917e-05
-5.61142e-12
0.00279749
4.42938e-05
-5.75905e-12
0.00284184
3.90768e-05
-5.6505e-12
0.00288208
3.52189e-05
-5.51419e-12
0.00291855
3.23147e-05
-5.29885e-12
0.00295275
3.03863e-05
-5.40907e-12
0.00298472
2.84534e-05
-5.59082e-12
0.00301537
2.76827e-05
-5.98641e-12
0.00304408
2.53993e-05
-6.01507e-12
0.00307259
2.64186e-05
-5.90451e-12
0.00309745
2.13884e-05
-5.64163e-12
0.00312613
2.76414e-05
-5.52235e-12
0.00314491
1.50878e-05
-5.59777e-12
3.03981e-05
-6.27453e-12
0.00317557
0.00234158
-9.64583e-11
-5.37798e-12
0.00239944
2.74966e-10
-5.47159e-12
0.00246993
-1.9181e-10
-5.4748e-12
0.00254566
6.65421e-10
-5.53075e-12
0.00261717
-9.30506e-11
-5.48492e-12
0.00268351
1.7479e-09
-5.58798e-12
0.00274167
8.23555e-10
-5.62e-12
0.00279398
4.35647e-09
-5.72934e-12
0.00284035
3.88163e-09
-5.6302e-12
0.00288318
1.13752e-08
-5.58585e-12
0.00292264
1.19337e-08
-5.47884e-12
0.00296037
3.34633e-08
-5.61532e-12
0.00299605
2.90004e-08
-5.70338e-12
0.00303108
1.02782e-07
-5.92111e-12
0.0030639
6.39315e-08
-5.81861e-12
0.0030976
2.92904e-07
-5.7773e-12
0.00312654
1.73643e-07
-5.60065e-12
0.00316122
7.23002e-07
-5.65446e-12
0.00318374
6.35401e-07
-5.76408e-12
1.48833e-06
-6.18855e-12
0.00322093
0.00234158
-2.63778e-05
-5.37689e-12
0.00239944
-4.77138e-05
-5.46217e-12
0.00246993
-6.27504e-05
-5.4584e-12
0.00254566
-6.66153e-05
-5.51221e-12
0.00261717
-6.4065e-05
-5.47878e-12
0.00268351
-5.792e-05
-5.58013e-12
0.00274167
-5.07903e-05
-5.59168e-12
0.00279398
-4.42849e-05
-5.66724e-12
0.00284035
-3.90694e-05
-5.58605e-12
0.00288318
-3.51958e-05
-5.6578e-12
0.00292264
-3.22918e-05
-5.6799e-12
0.00296037
-3.03189e-05
-5.86063e-12
0.00299605
-2.83976e-05
-5.86647e-12
0.00303108
-2.74772e-05
-5.89896e-12
0.00306391
-2.52764e-05
-5.65444e-12
0.00309761
-2.58362e-05
-5.69154e-12
0.00312656
-2.10552e-05
-5.59638e-12
0.00316127
-2.62168e-05
-5.79586e-12
0.00318384
-1.38698e-05
-5.93557e-12
-2.75245e-05
-5.89938e-12
0.00322113
0.00234392
-5.60878e-05
-5.3811e-12
0.00240381
-9.84299e-05
-5.4595e-12
0.0024751
-0.000127386
-5.44672e-12
0.00255148
-0.000134883
-5.5004e-12
0.00262324
-0.000129463
-5.48824e-12
0.00268933
-0.000116595
-5.60113e-12
0.00274665
-0.000101795
-5.59206e-12
0.00279749
-8.80926e-05
-5.63182e-12
0.00284185
-7.71599e-05
-5.57122e-12
0.00288208
-6.87987e-05
-5.74832e-12
0.00291856
-6.26317e-05
-5.88004e-12
0.00295275
-5.81181e-05
-6.08046e-12
0.00298473
-5.41311e-05
-5.97703e-12
0.00301539
-5.16699e-05
-5.80623e-12
0.00304411
-4.75096e-05
-5.44709e-12
0.00307264
-4.77724e-05
-5.58041e-12
0.00309753
-3.92133e-05
-5.58222e-12
0.00312625
-4.81401e-05
-5.99477e-12
0.00314512
-2.57173e-05
-6.09577e-12
-5.09666e-05
-5.72985e-12
0.00317585
0.00234334
-8.31877e-05
-5.37686e-12
0.00240502
-0.000148962
-5.4441e-12
0.00247963
-0.000193238
-5.42966e-12
0.00255814
-0.000203299
-5.51567e-12
0.00262952
-0.000192372
-5.5548e-12
0.00269248
-0.000170155
-5.69069e-12
0.0027443
-0.000145223
-5.63136e-12
0.00278774
-0.000122531
-5.59912e-12
0.00282329
-0.000104416
-5.53384e-12
0.0028536
-9.05124e-05
-5.779e-12
0.00287937
-8.02434e-05
-5.9749e-12
0.00290214
-7.25082e-05
-6.15695e-12
0.00292235
-6.60806e-05
-5.92739e-12
0.00294066
-6.15381e-05
-5.60853e-12
0.0029573
-5.56578e-05
-5.27642e-12
0.00297283
-5.47188e-05
-5.50191e-12
0.00298639
-4.40124e-05
-5.63814e-12
0.00300079
-5.37388e-05
-6.17986e-12
0.0030097
-2.54862e-05
-6.04843e-12
-5.10776e-05
-5.67664e-12
0.00301911
0.00235319
-0.00012326
-5.3777e-12
0.00242468
-0.000212309
-5.43999e-12
0.00249847
-0.000261731
-5.42599e-12
0.00256593
-0.000263766
-5.53868e-12
0.00261682
-0.000238178
-5.62404e-12
0.00265311
-0.000200086
-5.78091e-12
0.00267509
-0.000162063
-5.68726e-12
0.00268762
-0.000129091
-5.61359e-12
0.00269251
-0.0001042
-5.52117e-12
0.00269302
-8.5426e-05
-5.71462e-12
0.00269027
-7.24299e-05
-5.8244e-12
0.00268576
-6.25518e-05
-5.90251e-12
0.00268034
-5.54068e-05
-5.60773e-12
0.00267401
-4.96828e-05
-5.3952e-12
0.00266829
-4.44018e-05
-5.33388e-12
0.00266141
-4.21538e-05
-5.66758e-12
0.00265672
-3.34934e-05
-5.94314e-12
0.00264983
-4.09565e-05
-6.2201e-12
0.00264627
-1.59242e-05
-5.90638e-12
-3.56883e-05
-5.86149e-12
0.00263704
0.00236516
-0.00017104
-5.37486e-12
0.00241295
-0.000247875
-5.4458e-12
0.00242285
-0.000261889
-5.44698e-12
0.00240209
-0.000232001
-5.57744e-12
0.00235957
-0.000186215
-5.67091e-12
0.00230917
-0.000139327
-5.79624e-12
0.00225609
-9.96202e-05
-5.64373e-12
0.00220598
-6.90606e-05
-5.55042e-12
0.00215915
-4.80981e-05
-5.46981e-12
0.00211724
-3.38801e-05
-5.63128e-12
0.00207929
-2.51649e-05
-5.65734e-12
0.00204578
-1.94485e-05
-5.7537e-12
0.00201576
-1.58838e-05
-5.69465e-12
0.00198941
-1.36629e-05
-5.85923e-12
0.00196605
-1.13249e-05
-5.91882e-12
0.00194543
-1.17827e-05
-6.08746e-12
0.00192812
-6.31809e-06
-6.03499e-12
0.00191111
-1.42222e-05
-5.94357e-12
0.00189961
5.5478e-06
-5.78095e-12
1.65699e-06
-5.67417e-12
0.00187213
0.00214106
-5.39009e-12
0.00190009
-5.49852e-12
0.00164234
-5.4548e-12
0.00141594
-5.47422e-12
0.0012337
-5.39201e-12
0.00109946
-5.40325e-12
0.00100385
-5.32984e-12
0.000939598
-5.43252e-12
0.000895613
-5.4658e-12
0.000866362
-5.62819e-12
0.000845388
-5.64761e-12
0.000830435
-5.78359e-12
0.000818801
-5.76514e-12
0.000809544
-5.86996e-12
0.000802519
-5.76291e-12
0.000795075
-5.80241e-12
0.000793105
-5.63912e-12
0.000783163
-5.68828e-12
0.000793075
-5.54973e-12
-5.662e-12
0.000799187
0.00214106
0.00017104
-3.30379e-06
0.00190009
0.000247875
-5.14182e-06
0.00164234
0.000261889
-2.40485e-06
0.00141594
0.000232001
-3.95054e-06
0.0012337
0.000186215
-2.42316e-06
0.00109946
0.000139328
-3.61828e-06
0.00100385
9.96215e-05
-2.57134e-06
0.000939593
6.90629e-05
-3.36251e-06
0.000895603
4.81024e-05
-2.64014e-06
0.000866347
3.38855e-05
-3.12942e-06
0.000845362
2.51766e-05
-2.66843e-06
0.000830392
1.94647e-05
-2.95419e-06
0.000818734
1.59085e-05
-2.69408e-06
0.000809419
1.372e-05
-2.8406e-06
0.000802357
1.13633e-05
-2.7343e-06
0.000794727
1.1966e-05
-2.77684e-06
0.000792701
6.37984e-06
-2.80233e-06
0.000782278
1.46964e-05
-2.74635e-06
0.000791942
-5.30595e-06
-2.84708e-06
-1.06582e-06
-2.97779e-06
0.000797513
0.00236516
0.00012326
-8.58827e-06
0.00241295
0.000212309
-1.04683e-05
0.00242285
0.000261731
-7.96412e-06
0.00240209
0.000263766
-9.30462e-06
0.00235957
0.000238178
-7.8878e-06
0.00230917
0.000200089
-8.92423e-06
0.00225609
0.000162065
-8.02077e-06
0.00220598
0.000129097
-8.67808e-06
0.00215915
0.000104206
-8.08371e-06
0.00211723
8.544e-05
-8.46349e-06
0.00207927
7.24478e-05
-8.10347e-06
0.00204573
6.25922e-05
-8.29677e-06
0.0020157
5.54466e-05
-8.11733e-06
0.00198927
4.9811e-05
-8.18265e-06
0.00196588
4.44735e-05
-8.14316e-06
0.00194506
4.25319e-05
-8.11227e-06
0.00192767
3.36515e-05
-8.19885e-06
0.00191019
4.19002e-05
-8.06859e-06
0.0018983
1.65377e-05
-8.32266e-06
3.74603e-05
-8.33324e-06
0.00186967
0.00235319
8.31875e-05
-4.33286e-06
0.00242468
0.000148962
-6.37641e-06
0.00249847
0.000193237
-3.50893e-06
0.00256593
0.0002033
-5.28076e-06
0.00261682
0.000192371
-3.51845e-06
0.00265311
0.000170158
-4.91882e-06
0.00267509
0.000145224
-3.77941e-06
0.00268761
0.000122539
-4.69723e-06
0.00269251
0.000104423
-3.9314e-06
0.00269301
9.05324e-05
-4.4946e-06
0.00269026
8.02635e-05
-4.00647e-06
0.00268573
7.25653e-05
-4.33253e-06
0.0026803
6.61281e-05
-4.05899e-06
0.00267393
6.17134e-05
-4.22213e-06
0.00266818
5.57535e-05
-4.11481e-06
0.00266118
5.52209e-05
-4.15875e-06
0.0026564
4.42519e-05
-4.18389e-06
0.00264923
5.49709e-05
-4.14125e-06
0.00264537
2.63855e-05
-4.18175e-06
5.3444e-05
-4.31825e-06
0.00263556
0.00234334
5.60876e-05
-7.45885e-06
0.00240502
9.84305e-05
-9.37784e-06
0.00247963
0.000127385
-6.97475e-06
0.00255814
0.000134885
-8.38037e-06
0.00262952
0.000129463
-6.91013e-06
0.00269248
0.000116598
-7.96392e-06
0.0027443
0.000101796
-7.02912e-06
0.00278774
8.8101e-05
-7.70952e-06
0.00282329
7.71671e-05
-7.09927e-06
0.0028536
6.88203e-05
-7.49804e-06
0.00287937
6.26545e-05
-7.12604e-06
0.00290212
5.81809e-05
-7.33261e-06
0.00292233
5.41863e-05
-7.14327e-06
0.00294062
5.18632e-05
-7.21852e-06
0.00295724
4.7628e-05
-7.17142e-06
0.00297272
4.83272e-05
-7.15064e-06
0.0029862
3.95233e-05
-7.22634e-06
0.00300046
4.95159e-05
-7.12777e-06
0.00300915
2.68486e-05
-7.36254e-06
5.37697e-05
-7.36873e-06
0.00301812
0.00234392
2.63776e-05
-5.42955e-06
0.00240381
4.77143e-05
-7.41208e-06
0.0024751
6.275e-05
-4.85873e-06
0.00255148
6.66167e-05
-6.41121e-06
0.00262324
6.40648e-05
-4.79576e-06
0.00268933
5.79236e-05
-5.98281e-06
0.00274665
5.07917e-05
-4.95343e-06
0.00279749
4.42937e-05
-5.73686e-06
0.00284184
3.90767e-05
-5.05872e-06
0.00288208
3.52188e-05
-5.53299e-06
0.00291855
3.23146e-05
-5.10972e-06
0.00295275
3.03861e-05
-5.37177e-06
0.00298472
2.84532e-05
-5.14425e-06
0.00301537
2.76824e-05
-5.26116e-06
0.00304408
2.5399e-05
-5.18603e-06
0.00307259
2.64184e-05
-5.19875e-06
0.00309745
2.13883e-05
-5.24372e-06
0.00312613
2.76414e-05
-5.19077e-06
0.00314491
1.50878e-05
-5.27535e-06
3.0398e-05
-5.37597e-06
0.00317557
0.00234158
-9.68387e-11
-6.42728e-06
0.00239944
2.81523e-10
-8.37456e-06
0.00246993
-1.69628e-10
-5.95051e-06
0.00254566
7.0605e-10
-7.41286e-06
0.00261717
-5.62661e-11
-5.88067e-06
0.00268351
1.74979e-09
-6.98016e-06
0.00274167
7.86201e-10
-6.00719e-06
0.00279398
4.30477e-09
-6.72776e-06
0.00284035
3.84341e-09
-6.09302e-06
0.00288318
1.13418e-08
-6.52226e-06
0.00292264
1.18544e-08
-6.13163e-06
0.00296037
3.32843e-08
-6.36009e-06
0.00299605
2.87163e-08
-6.15638e-06
0.00303108
1.02445e-07
-6.24798e-06
0.0030639
6.36424e-08
-6.19027e-06
0.0030976
2.92731e-07
-6.18396e-06
0.00312654
1.73556e-07
-6.24607e-06
0.00316122
7.23006e-07
-6.17552e-06
0.00318374
6.3536e-07
-6.34465e-06
1.48823e-06
-6.38598e-06
0.00322093
0.00234158
-2.63778e-05
-6.42728e-06
0.00239944