/*--------------------------------*- C++ -*----------------------------------*\
  =========                 |
  \\      /  F ield         | OpenFOAM: The Open Source CFD Toolbox
   \\    /   O peration     | Website:  https://openfoam.org
    \\  /    A nd           | Version:  7
     \\/     M anipulation  |
\*---------------------------------------------------------------------------*/
FoamFile
{
    version     2.0;
    format      ascii;
    class       volScalarField;
    location    "1.03";
    object      nut;
}
// * * * * * * * * * * * * * * * * * * * * * * * * * * * * * * * * * * * * * //

dimensions      [0 2 -1 0 0 0 0];

internalField   nonuniform List<scalar> 
7920
(
0.0087565
0.00912493
0.00912754
0.00913093
0.00912389
0.00912354
0.00911804
0.00911851
0.00911533
0.00911658
0.00911475
0.00911623
0.00911506
0.00911634
0.00911558
0.00911629
0.00911631
0.00911472
0.00912121
0.00913173
0.0045163
0.00454355
0.00444921
0.00435668
0.00431148
0.00429339
0.00427777
0.00427294
0.00426495
0.00426335
0.00425861
0.00425806
0.00425531
0.00425535
0.0042538
0.00425371
0.0042528
0.00425172
0.00428106
0.00428125
0.00345169
0.00368627
0.00370957
0.00370632
0.00369776
0.00369501
0.003689
0.00368746
0.00368345
0.00368271
0.00368014
0.00367995
0.0036784
0.00367859
0.00367773
0.00367806
0.00367741
0.00367742
0.00367825
0.00368344
0.00332052
0.00359131
0.00364237
0.0036605
0.00366475
0.00367065
0.00367084
0.00367312
0.00367269
0.00367432
0.00367408
0.0036756
0.0036756
0.00367716
0.00367753
0.00367938
0.00367988
0.00368155
0.00368216
0.00368744
0.00330607
0.00358026
0.00363408
0.00365548
0.00366244
0.00367113
0.00367338
0.00367849
0.0036797
0.00368362
0.00368483
0.0036884
0.00368953
0.00369277
0.003694
0.00369739
0.00369883
0.00370205
0.00370353
0.00370955
0.00330761
0.00357954
0.00363304
0.00365475
0.00366246
0.00367213
0.00367528
0.00368171
0.00368379
0.00368899
0.00369103
0.00369583
0.00369768
0.00370198
0.00370379
0.00370809
0.00371016
0.0037142
0.00371658
0.00372284
0.00330761
0.00357954
0.00363304
0.00365475
0.00366246
0.00367213
0.00367528
0.00368171
0.00368379
0.00368899
0.00369103
0.00369583
0.00369768
0.00370198
0.00370379
0.00370809
0.00371016
0.00371421
0.00371659
0.00372285
0.00330607
0.00358026
0.00363408
0.00365548
0.00366244
0.00367113
0.00367338
0.0036785
0.0036797
0.00368363
0.00368482
0.00368841
0.00368952
0.00369279
0.00369399
0.00369741
0.00369882
0.00370207
0.00370355
0.00370959
0.00332052
0.00359131
0.00364237
0.0036605
0.00366475
0.00367065
0.00367083
0.00367312
0.00367268
0.00367433
0.00367407
0.00367563
0.00367558
0.00367721
0.00367749
0.00367946
0.00367983
0.00368168
0.00368209
0.00368754
0.00345169
0.00368627
0.00370957
0.00370632
0.00369776
0.00369501
0.003689
0.00368746
0.00368344
0.00368272
0.00368013
0.00367997
0.00367837
0.00367865
0.00367764
0.0036782
0.0036772
0.00367775
0.00367793
0.00368395
0.0045163
0.00454355
0.00444921
0.00435668
0.00431148
0.00429339
0.00427777
0.00427294
0.00426494
0.00426335
0.00425859
0.00425808
0.00425528
0.0042554
0.00425371
0.00425385
0.00425253
0.00425219
0.00427988
0.00428248
0.0087565
0.00912493
0.00912754
0.00913093
0.00912389
0.00912354
0.00911804
0.00911852
0.00911533
0.00911659
0.00911473
0.00911625
0.00911501
0.00911642
0.00911544
0.00911651
0.00911593
0.00911538
0.00911983
0.00913451
0.00336318
0.00377584
0.00379225
0.00376704
0.00375969
0.00374517
0.00374426
0.00373597
0.00373619
0.00373067
0.00373123
0.00372729
0.00372787
0.00372485
0.00372532
0.0037227
0.00372339
0.00372013
0.00372062
0.00372973
0.00297852
0.00348688
0.0035582
0.00356713
0.00356744
0.0035668
0.00356572
0.00356504
0.00356448
0.00356413
0.00356396
0.00356383
0.0035639
0.00356383
0.00356397
0.00356374
0.0035637
0.00356323
0.003564
0.00356542
0.00289875
0.00341293
0.00348786
0.00350254
0.00350434
0.00350695
0.00350709
0.0035085
0.00350892
0.0035105
0.00351123
0.00351289
0.00351393
0.00351554
0.00351688
0.00351815
0.00351949
0.00351995
0.00352064
0.00352733
0.00289658
0.00341088
0.003485
0.00349896
0.00349938
0.00350029
0.00349922
0.0034994
0.00349883
0.00349944
0.00349967
0.00350075
0.00350149
0.00350294
0.00350429
0.0035059
0.00350767
0.0035088
0.00351015
0.00351506
0.00289358
0.0034075
0.00348163
0.00349595
0.00349623
0.00349692
0.00349542
0.00349516
0.00349389
0.00349405
0.00349368
0.00349425
0.00349442
0.00349538
0.00349608
0.00349773
0.0034989
0.00350081
0.00350185
0.00350727
0.0028952
0.00340924
0.00348313
0.00349734
0.00349759
0.00349826
0.00349673
0.00349643
0.00349503
0.00349509
0.00349456
0.00349501
0.00349495
0.00349564
0.00349607
0.00349751
0.00349845
0.00350039
0.00350133
0.00350649
0.0028952
0.00340924
0.00348313
0.00349734
0.00349759
0.00349826
0.00349673
0.00349643
0.00349503
0.00349509
0.00349456
0.00349501
0.00349495
0.00349565
0.00349607
0.00349751
0.00349845
0.00350039
0.00350134
0.00350648
0.00289358
0.0034075
0.00348163
0.00349595
0.00349623
0.00349692
0.00349542
0.00349516
0.00349389
0.00349405
0.00349367
0.00349426
0.00349441
0.00349539
0.00349606
0.00349776
0.00349887
0.00350084
0.00350184
0.00350726
0.00289658
0.00341088
0.003485
0.00349896
0.00349938
0.00350029
0.00349922
0.0034994
0.00349883
0.00349945
0.00349966
0.00350078
0.00350146
0.00350299
0.00350419
0.00350602
0.00350751
0.00350896
0.00351005
0.0035151
0.00289875
0.00341293
0.00348786
0.00350255
0.00350434
0.00350695
0.00350709
0.0035085
0.00350892
0.00351051
0.00351122
0.00351292
0.00351387
0.00351564
0.00351673
0.00351837
0.00351916
0.00352036
0.00352025
0.00352766
0.00297852
0.00348688
0.0035582
0.00356713
0.00356743
0.0035668
0.00356572
0.00356504
0.00356447
0.00356414
0.00356395
0.00356385
0.00356387
0.00356387
0.00356389
0.00356387
0.00356346
0.00356362
0.00356335
0.00356654
0.00336318
0.00377584
0.00379225
0.00376704
0.00375969
0.00374517
0.00374426
0.00373597
0.00373618
0.00373067
0.00373123
0.0037273
0.00372786
0.00372487
0.00372529
0.00372277
0.0037233
0.00372036
0.00372029
0.0037306
0.000838414
0.00123544
0.00129273
0.00127593
0.00123294
0.0011927
0.00116052
0.00113719
0.00111975
0.00110615
0.00109622
0.00108716
0.00108085
0.00107405
0.00106968
0.00106445
0.00106078
0.00105798
0.00105191
0.00105802
0.000356258
0.000750918
0.000881102
0.000931496
0.000948656
0.000959273
0.000964517
0.000970333
0.000973328
0.000976574
0.000977831
0.000979303
0.000979602
0.000980073
0.00097996
0.000979957
0.000979657
0.000979307
0.000978818
0.000980836
0.000308072
0.000665026
0.000783367
0.000836267
0.000852183
0.000863645
0.000866232
0.000871548
0.000873459
0.000877632
0.00087977
0.000883576
0.000885957
0.000889174
0.000891629
0.000894208
0.000896586
0.000898568
0.000900093
0.000903735
0.000317201
0.000669087
0.000784507
0.000835115
0.000850681
0.000860178
0.000861435
0.000863894
0.000863972
0.000864813
0.000865099
0.000866036
0.000866683
0.000867776
0.000868919
0.000869833
0.000871334
0.000872105
0.000873288
0.000876169
0.000312918
0.000664663
0.000779669
0.000830543
0.000845814
0.000855326
0.000856372
0.000858553
0.00085832
0.000858735
0.000858518
0.00085877
0.000858758
0.000859018
0.000859306
0.00085965
0.000860148
0.000860419
0.000860777
0.000862732
0.000315334
0.000667139
0.000782156
0.00083268
0.00084804
0.000857427
0.000858559
0.000860718
0.000860506
0.000860864
0.000860638
0.00086081
0.000860735
0.000860871
0.000861011
0.000861227
0.000861526
0.00086165
0.000861905
0.000863631
0.000315334
0.000667139
0.000782156
0.00083268
0.00084804
0.000857427
0.000858559
0.000860718
0.000860506
0.000860864
0.000860638
0.00086081
0.000860735
0.000860872
0.00086101
0.000861228
0.000861525
0.00086165
0.000861904
0.00086363
0.000312918
0.000664663
0.000779669
0.000830543
0.000845814
0.000855326
0.000856372
0.000858553
0.00085832
0.000858735
0.000858518
0.000858772
0.000858758
0.000859021
0.0008593
0.000859652
0.000860144
0.000860415
0.000860776
0.000862723
0.0003172
0.000669088
0.000784507
0.000835115
0.000850681
0.000860178
0.000861434
0.000863895
0.000863972
0.000864814
0.000865099
0.000866043
0.000866668
0.000867791
0.000868896
0.000869852
0.000871306
0.000872105
0.000873274
0.000876129
0.000308071
0.000665027
0.000783366
0.000836268
0.000852182
0.000863646
0.000866232
0.000871549
0.000873458
0.000877636
0.000879759
0.000883588
0.000885933
0.000889199
0.000891584
0.000894242
0.000896521
0.000898571
0.000900056
0.000903651
0.000356257
0.000750919
0.000881102
0.000931497
0.000948656
0.000959274
0.000964516
0.000970336
0.000973324
0.000976579
0.000977821
0.000979314
0.000979582
0.000980085
0.000979927
0.000979968
0.000979572
0.000979357
0.000978712
0.000980825
0.000838414
0.00123544
0.00129273
0.00127593
0.00123294
0.0011927
0.00116052
0.00113719
0.00111975
0.00110616
0.00109622
0.00108718
0.00108085
0.0010741
0.00106968
0.00106456
0.00106078
0.00105821
0.00105197
0.00105866
0.000838414
0.00123544
0.00129273
0.00127593
0.00123294
0.0011927
0.00116052
0.00113719
0.00111975
0.00110615
0.00109622
0.00108716
0.00108085
0.00107405
0.00106968
0.00106445
0.00106078
0.00105798
0.00105191
0.00105802
0.000356258
0.000750918
0.000881102
0.000931496
0.000948656
0.000959273
0.000964517
0.000970333
0.000973328
0.000976574
0.000977831
0.000979303
0.000979602
0.000980073
0.00097996
0.000979957
0.000979657
0.000979307
0.000978818
0.000980836
0.000308072
0.000665026
0.000783367
0.000836267
0.000852183
0.000863645
0.000866232
0.000871548
0.000873459
0.000877632
0.00087977
0.000883576
0.000885957
0.000889174
0.000891629
0.000894208
0.000896586
0.000898568
0.000900093
0.000903735
0.000317201
0.000669087
0.000784507
0.000835115
0.000850681
0.000860178
0.000861435
0.000863894
0.000863972
0.000864813
0.000865099
0.000866036
0.000866683
0.000867776
0.000868919
0.000869833
0.000871334
0.000872105
0.000873288
0.000876169
0.000312918
0.000664663
0.000779669
0.000830543
0.000845814
0.000855326
0.000856372
0.000858553
0.00085832
0.000858735
0.000858518
0.00085877
0.000858758
0.000859018
0.000859306
0.00085965
0.000860148
0.000860419
0.000860777
0.000862732
0.000315334
0.000667139
0.000782156
0.00083268
0.000848041
0.000857427
0.000858559
0.000860718
0.000860506
0.000860864
0.000860638
0.00086081
0.000860735
0.000860871
0.000861011
0.000861227
0.000861526
0.00086165
0.000861905
0.000863631
0.000315334
0.000667139
0.000782156
0.00083268
0.00084804
0.000857427
0.000858559
0.000860718
0.000860506
0.000860864
0.000860638
0.00086081
0.000860735
0.000860872
0.00086101
0.000861228
0.000861525
0.00086165
0.000861904
0.00086363
0.000312918
0.000664663
0.000779669
0.000830543
0.000845814
0.000855326
0.000856372
0.000858553
0.00085832
0.000858735
0.000858518
0.000858772
0.000858758
0.000859021
0.0008593
0.000859652
0.000860144
0.000860415
0.000860776
0.000862723
0.0003172
0.000669088
0.000784507
0.000835115
0.000850681
0.000860178
0.000861434
0.000863895
0.000863972
0.000864814
0.000865099
0.000866043
0.000866668
0.000867791
0.000868896
0.000869852
0.000871306
0.000872105
0.000873274
0.000876129
0.000308071
0.000665027
0.000783366
0.000836268
0.000852182
0.000863646
0.000866232
0.000871549
0.000873458
0.000877636
0.000879759
0.000883588
0.000885933
0.000889199
0.000891584
0.000894242
0.000896521
0.000898571
0.000900056
0.000903651
0.000356257
0.000750919
0.000881102
0.000931497
0.000948656
0.000959274
0.000964516
0.000970336
0.000973324
0.000976579
0.000977821
0.000979315
0.000979582
0.000980085
0.000979927
0.000979968
0.000979572
0.000979357
0.000978712
0.000980825
0.000838414
0.00123544
0.00129273
0.00127593
0.00123294
0.0011927
0.00116052
0.00113719
0.00111975
0.00110616
0.00109622
0.00108718
0.00108085
0.0010741
0.00106968
0.00106456
0.00106078
0.00105821
0.00105197
0.00105866
0.00336318
0.00377584
0.00379225
0.00376704
0.00375969
0.00374517
0.00374426
0.00373597
0.00373619
0.00373067
0.00373123
0.00372729
0.00372787
0.00372485
0.00372532
0.0037227
0.00372339
0.00372013
0.00372062
0.00372973
0.00297852
0.00348688
0.0035582
0.00356713
0.00356744
0.0035668
0.00356572
0.00356504
0.00356448
0.00356413
0.00356396
0.00356383
0.0035639
0.00356383
0.00356397
0.00356374
0.0035637
0.00356323
0.003564
0.00356542
0.00289875
0.00341293
0.00348786
0.00350254
0.00350434
0.00350695
0.00350709
0.0035085
0.00350892
0.0035105
0.00351123
0.00351289
0.00351393
0.00351554
0.00351687
0.00351815
0.00351949
0.00351995
0.00352064
0.00352733
0.00289658
0.00341088
0.003485
0.00349896
0.00349938
0.00350029
0.00349922
0.0034994
0.00349883
0.00349944
0.00349967
0.00350075
0.00350149
0.00350294
0.00350429
0.0035059
0.00350767
0.0035088
0.00351015
0.00351506
0.00289358
0.0034075
0.00348163
0.00349595
0.00349623
0.00349692
0.00349542
0.00349516
0.00349389
0.00349405
0.00349368
0.00349425
0.00349442
0.00349538
0.00349608
0.00349773
0.0034989
0.00350081
0.00350185
0.00350727
0.0028952
0.00340924
0.00348313
0.00349734
0.00349759
0.00349826
0.00349673
0.00349643
0.00349503
0.00349509
0.00349456
0.00349501
0.00349495
0.00349564
0.00349607
0.00349751
0.00349845
0.00350039
0.00350133
0.00350649
0.0028952
0.00340924
0.00348313
0.00349734
0.00349759
0.00349826
0.00349673
0.00349643
0.00349503
0.00349509
0.00349456
0.00349501
0.00349495
0.00349565
0.00349607
0.00349751
0.00349845
0.00350039
0.00350134
0.00350648
0.00289358
0.0034075
0.00348163
0.00349595
0.00349623
0.00349692
0.00349542
0.00349516
0.00349389
0.00349405
0.00349367
0.00349426
0.00349441
0.00349539
0.00349606
0.00349776
0.00349887
0.00350084
0.00350184
0.00350726
0.00289658
0.00341088
0.003485
0.00349896
0.00349938
0.00350029
0.00349922
0.0034994
0.00349883
0.00349945
0.00349966
0.00350078
0.00350146
0.00350299
0.00350419
0.00350602
0.00350751
0.00350896
0.00351005
0.0035151
0.00289875
0.00341293
0.00348786
0.00350255
0.00350434
0.00350695
0.00350709
0.0035085
0.00350892
0.00351051
0.00351122
0.00351292
0.00351387
0.00351564
0.00351673
0.00351837
0.00351917
0.00352036
0.00352025
0.00352766
0.00297852
0.00348688
0.0035582
0.00356713
0.00356743
0.0035668
0.00356572
0.00356504
0.00356447
0.00356414
0.00356395
0.00356385
0.00356387
0.00356387
0.00356389
0.00356387
0.00356346
0.00356362
0.00356335
0.00356654
0.00336318
0.00377584
0.00379225
0.00376704
0.00375969
0.00374517
0.00374426
0.00373597
0.00373618
0.00373067
0.00373123
0.0037273
0.00372786
0.00372487
0.00372529
0.00372277
0.0037233
0.00372036
0.00372029
0.0037306
0.0087565
0.00912493
0.00912754
0.00913093
0.00912389
0.00912354
0.00911804
0.00911852
0.00911533
0.00911658
0.00911475
0.00911623
0.00911506
0.00911634
0.00911557
0.00911629
0.00911631
0.00911472
0.00912121
0.00913173
0.0045163
0.00454355
0.00444921
0.00435668
0.00431148
0.00429339
0.00427777
0.00427293
0.00426495
0.00426335
0.0042586
0.00425806
0.00425531
0.00425534
0.0042538
0.00425371
0.0042528
0.00425172
0.00428106
0.00428125
0.00345169
0.00368627
0.00370957
0.00370632
0.00369776
0.00369501
0.003689
0.00368746
0.00368345
0.00368271
0.00368014
0.00367995
0.0036784
0.00367859
0.00367773
0.00367806
0.00367741
0.00367742
0.00367825
0.00368343
0.00332052
0.00359131
0.00364237
0.0036605
0.00366475
0.00367065
0.00367084
0.00367312
0.00367269
0.00367432
0.00367408
0.0036756
0.0036756
0.00367716
0.00367753
0.00367938
0.00367988
0.00368155
0.00368216
0.00368744
0.00330607
0.00358026
0.00363408
0.00365548
0.00366244
0.00367113
0.00367338
0.00367849
0.0036797
0.00368362
0.00368483
0.0036884
0.00368953
0.00369277
0.003694
0.00369739
0.00369883
0.00370204
0.00370353
0.00370955
0.00330761
0.00357954
0.00363304
0.00365475
0.00366246
0.00367213
0.00367528
0.00368171
0.00368379
0.00368899
0.00369103
0.00369583
0.00369768
0.00370198
0.00370379
0.00370809
0.00371016
0.0037142
0.00371658
0.00372284
0.00330761
0.00357954
0.00363304
0.00365475
0.00366246
0.00367213
0.00367528
0.00368171
0.00368379
0.00368899
0.00369103
0.00369583
0.00369768
0.00370198
0.00370379
0.00370809
0.00371016
0.00371421
0.00371659
0.00372285
0.00330607
0.00358026
0.00363408
0.00365548
0.00366244
0.00367113
0.00367338
0.0036785
0.0036797
0.00368363
0.00368482
0.00368841
0.00368952
0.00369279
0.00369399
0.00369742
0.00369883
0.00370207
0.00370355
0.00370959
0.00332052
0.00359131
0.00364237
0.0036605
0.00366475
0.00367065
0.00367083
0.00367312
0.00367268
0.00367433
0.00367407
0.00367563
0.00367558
0.00367721
0.00367749
0.00367946
0.00367983
0.00368168
0.0036821
0.00368754
0.00345169
0.00368627
0.00370957
0.00370632
0.00369776
0.00369501
0.003689
0.00368746
0.00368344
0.00368272
0.00368013
0.00367997
0.00367837
0.00367866
0.00367764
0.0036782
0.0036772
0.00367775
0.00367793
0.00368395
0.0045163
0.00454355
0.00444921
0.00435668
0.00431148
0.00429339
0.00427777
0.00427294
0.00426494
0.00426335
0.00425859
0.00425808
0.00425528
0.0042554
0.00425371
0.00425385
0.00425253
0.00425219
0.00427988
0.00428248
0.0087565
0.00912493
0.00912754
0.00913093
0.00912388
0.00912354
0.00911804
0.00911852
0.00911533
0.00911659
0.00911473
0.00911626
0.00911501
0.00911642
0.00911544
0.00911651
0.00911593
0.00911538
0.00911983
0.00913451
0.0265901
0.0267709
0.0268654
0.026947
0.0270091
0.0270626
0.0271027
0.0271404
0.027172
0.0272027
0.0272267
0.0272472
0.0272607
0.027271
0.0272765
0.0272808
0.0272824
0.027284
0.0272842
0.0272849
0.0272847
0.0272852
0.0272849
0.0272853
0.0272851
0.0272854
0.0272853
0.0272856
0.0272855
0.0272858
0.0272857
0.0272859
0.0272859
0.0272861
0.0272861
0.0272864
0.0272863
0.0272866
0.0272866
0.0272868
0.0272868
0.0272871
0.0272871
0.0272873
0.0272874
0.0272876
0.0272877
0.0272879
0.027288
0.0272882
0.0272883
0.0272885
0.0272886
0.0272888
0.0272889
0.0272891
0.0272892
0.0272894
0.0272896
0.0272898
0.0272899
0.0272901
0.0272902
0.0272905
0.0272906
0.0272908
0.027291
0.0272912
0.0272914
0.0272916
0.0272917
0.027292
0.0272921
0.0272924
0.0272925
0.0272927
0.0272929
0.0272931
0.0272933
0.0272935
0.0272937
0.0272938
0.0272942
0.027294
0.0272947
0.0272942
0.0272948
0.0272947
0.027292
0.0272914
0.015232
0.0155026
0.015553
0.0156007
0.0156323
0.0156647
0.0156845
0.0157073
0.0157228
0.0157416
0.0157534
0.0157664
0.0157724
0.0157794
0.015781
0.0157843
0.0157838
0.0157854
0.0157842
0.0157852
0.0157839
0.0157846
0.0157834
0.015784
0.0157829
0.0157835
0.0157825
0.015783
0.0157821
0.0157826
0.0157817
0.0157822
0.0157814
0.0157818
0.0157811
0.0157814
0.0157808
0.0157811
0.0157805
0.0157808
0.0157803
0.0157806
0.0157801
0.0157804
0.0157799
0.0157802
0.0157797
0.01578
0.0157796
0.0157798
0.0157795
0.0157797
0.0157794
0.0157796
0.0157794
0.0157796
0.0157793
0.0157796
0.0157793
0.0157796
0.0157794
0.0157796
0.0157794
0.0157796
0.0157795
0.0157797
0.0157796
0.0157798
0.0157797
0.01578
0.0157799
0.0157801
0.0157801
0.0157803
0.0157802
0.0157805
0.0157805
0.0157807
0.0157807
0.0157809
0.015781
0.0157811
0.0157813
0.0157813
0.0157816
0.0157814
0.0157817
0.0157818
0.0157794
0.0157784
0.0122359
0.0126252
0.01266
0.0126975
0.0127185
0.0127474
0.0127597
0.0127791
0.0127876
0.012804
0.0128115
0.0128246
0.0128287
0.0128369
0.0128374
0.0128418
0.0128405
0.0128431
0.0128411
0.012843
0.0128409
0.0128425
0.0128405
0.0128419
0.0128402
0.0128415
0.0128399
0.0128411
0.0128396
0.0128407
0.0128394
0.0128404
0.0128391
0.0128401
0.012839
0.0128399
0.0128388
0.0128396
0.0128386
0.0128394
0.0128385
0.0128393
0.0128384
0.0128391
0.0128383
0.012839
0.0128383
0.0128389
0.0128382
0.0128388
0.0128382
0.0128388
0.0128382
0.0128388
0.0128382
0.0128388
0.0128383
0.0128388
0.0128384
0.0128389
0.0128385
0.012839
0.0128387
0.0128392
0.0128389
0.0128393
0.0128391
0.0128396
0.0128393
0.0128398
0.0128396
0.0128401
0.0128399
0.0128404
0.0128403
0.0128407
0.0128407
0.0128411
0.0128411
0.0128415
0.0128415
0.0128419
0.0128419
0.0128422
0.0128424
0.0128426
0.0128427
0.0128431
0.0128425
0.0128392
0.0117837
0.0122683
0.0122997
0.0123318
0.0123485
0.012378
0.012388
0.0124061
0.0124109
0.012426
0.0124321
0.0124467
0.012451
0.0124613
0.0124623
0.0124682
0.012467
0.0124705
0.0124684
0.012471
0.0124688
0.012471
0.0124689
0.0124709
0.012469
0.0124709
0.0124692
0.012471
0.0124694
0.0124711
0.0124697
0.0124713
0.01247
0.0124715
0.0124704
0.0124718
0.0124707
0.0124721
0.0124711
0.0124724
0.0124715
0.0124727
0.0124719
0.012473
0.0124723
0.0124734
0.0124727
0.0124737
0.0124731
0.0124741
0.0124736
0.0124745
0.012474
0.012475
0.0124745
0.0124754
0.012475
0.0124759
0.0124756
0.0124764
0.0124761
0.0124769
0.0124767
0.0124775
0.0124773
0.012478
0.0124779
0.0124786
0.0124785
0.0124793
0.0124792
0.0124799
0.0124799
0.0124806
0.0124806
0.0124813
0.0124813
0.012482
0.012482
0.0124827
0.0124828
0.0124834
0.0124836
0.0124841
0.0124843
0.0124849
0.012485
0.0124856
0.0124859
0.0124817
0.0117517
0.0122869
0.0123169
0.0123445
0.0123572
0.0123867
0.012395
0.0124117
0.0124135
0.0124267
0.0124315
0.0124464
0.0124511
0.0124629
0.0124643
0.0124714
0.0124704
0.0124747
0.0124726
0.0124757
0.0124735
0.0124761
0.0124739
0.0124764
0.0124744
0.0124767
0.012475
0.0124772
0.0124757
0.0124777
0.0124764
0.0124783
0.0124771
0.012479
0.0124779
0.0124796
0.0124786
0.0124803
0.0124794
0.0124811
0.0124802
0.0124818
0.0124811
0.0124825
0.0124819
0.0124833
0.0124827
0.0124841
0.0124836
0.0124849
0.0124844
0.0124857
0.0124853
0.0124865
0.0124862
0.0124873
0.012487
0.0124882
0.012488
0.012489
0.0124889
0.0124899
0.0124898
0.0124908
0.0124908
0.0124918
0.0124917
0.0124927
0.0124927
0.0124937
0.0124937
0.0124946
0.0124947
0.0124956
0.0124957
0.0124966
0.0124968
0.0124977
0.0124978
0.0124987
0.0124989
0.0124997
0.0124999
0.0125007
0.0125009
0.0125017
0.0125019
0.0125026
0.0125032
0.0124989
0.0117705
0.0123358
0.0123645
0.0123876
0.0123967
0.0124241
0.0124307
0.0124452
0.0124443
0.012455
0.0124584
0.0124726
0.0124773
0.0124894
0.0124911
0.0124987
0.0124979
0.0125025
0.0125005
0.0125038
0.0125016
0.0125044
0.0125023
0.0125049
0.0125029
0.0125054
0.0125037
0.0125061
0.0125046
0.0125069
0.0125055
0.0125077
0.0125065
0.0125086
0.0125075
0.0125095
0.0125085
0.0125104
0.0125096
0.0125114
0.0125106
0.0125123
0.0125117
0.0125133
0.0125128
0.0125143
0.0125139
0.0125154
0.0125149
0.0125164
0.012516
0.0125174
0.0125171
0.0125185
0.0125182
0.0125195
0.0125194
0.0125206
0.0125205
0.0125217
0.0125216
0.0125228
0.0125228
0.0125239
0.0125239
0.0125251
0.0125251
0.0125262
0.0125263
0.0125274
0.0125275
0.0125286
0.0125287
0.0125298
0.0125299
0.012531
0.0125312
0.0125322
0.0125324
0.0125334
0.0125336
0.0125346
0.0125348
0.0125357
0.012536
0.0125369
0.0125372
0.012538
0.0125388
0.0125342
0.011771
0.0123342
0.0123589
0.0123778
0.0123834
0.0124074
0.0124115
0.0124231
0.0124202
0.0124289
0.0124308
0.0124437
0.0124477
0.0124594
0.0124608
0.0124683
0.0124674
0.012472
0.01247
0.0124733
0.012471
0.0124739
0.0124717
0.0124743
0.0124724
0.0124749
0.0124732
0.0124756
0.0124741
0.0124764
0.0124751
0.0124772
0.0124761
0.0124781
0.0124771
0.0124791
0.0124781
0.01248
0.0124792
0.012481
0.0124803
0.012482
0.0124814
0.012483
0.0124825
0.012484
0.0124836
0.0124851
0.0124847
0.0124861
0.0124858
0.0124872
0.0124869
0.0124883
0.012488
0.0124894
0.0124892
0.0124904
0.0124903
0.0124916
0.0124915
0.0124927
0.0124927
0.0124938
0.0124938
0.012495
0.012495
0.0124962
0.0124962
0.0124973
0.0124975
0.0124985
0.0124987
0.0124998
0.0124999
0.012501
0.0125012
0.0125022
0.0125024
0.0125034
0.0125037
0.0125046
0.0125049
0.0125058
0.0125061
0.012507
0.0125073
0.012508
0.0125089
0.0125044
0.0117527
0.0122799
0.0122968
0.0123113
0.0123137
0.0123331
0.0123342
0.0123426
0.0123383
0.0123455
0.0123462
0.0123575
0.0123605
0.0123708
0.0123716
0.0123782
0.0123771
0.0123813
0.0123792
0.0123823
0.01238
0.0123827
0.0123805
0.012383
0.0123811
0.0123834
0.0123817
0.0123839
0.0123824
0.0123845
0.0123832
0.0123852
0.012384
0.0123859
0.0123848
0.0123866
0.0123856
0.0123874
0.0123865
0.0123881
0.0123874
0.0123889
0.0123882
0.0123897
0.0123891
0.0123906
0.01239
0.0123914
0.0123909
0.0123922
0.0123918
0.0123931
0.0123928
0.012394
0.0123937
0.0123949
0.0123946
0.0123958
0.0123956
0.0123967
0.0123966
0.0123976
0.0123976
0.0123986
0.0123986
0.0123996
0.0123996
0.0124006
0.0124006
0.0124016
0.0124016
0.0124026
0.0124027
0.0124037
0.0124038
0.0124047
0.0124049
0.0124058
0.012406
0.0124068
0.012407
0.0124079
0.0124081
0.012409
0.0124092
0.01241
0.0124102
0.0124109
0.0124116
0.0124075
0.0117816
0.0122457
0.012253
0.0122633
0.0122632
0.0122772
0.0122754
0.0122809
0.012276
0.0122819
0.0122818
0.012291
0.0122927
0.0123009
0.0123009
0.0123061
0.0123046
0.0123081
0.0123059
0.0123085
0.0123063
0.0123085
0.0123064
0.0123085
0.0123066
0.0123086
0.0123069
0.0123087
0.0123072
0.012309
0.0123076
0.0123092
0.012308
0.0123095
0.0123084
0.0123099
0.0123088
0.0123102
0.0123093
0.0123106
0.0123097
0.012311
0.0123102
0.0123114
0.0123107
0.0123118
0.0123112
0.0123123
0.0123117
0.0123127
0.0123122
0.0123132
0.0123128
0.0123137
0.0123133
0.0123142
0.0123139
0.0123148
0.0123145
0.0123153
0.0123151
0.0123159
0.0123157
0.0123165
0.0123164
0.0123172
0.012317
0.0123178
0.0123177
0.0123185
0.0123184
0.0123192
0.0123192
0.0123199
0.0123199
0.0123207
0.0123207
0.0123214
0.0123215
0.0123222
0.0123223
0.012323
0.0123231
0.0123238
0.0123239
0.0123246
0.0123247
0.0123253
0.0123257
0.0123218
0.012219
0.0125672
0.0125652
0.0125719
0.0125699
0.0125789
0.0125751
0.0125786
0.012574
0.0125787
0.0125779
0.0125845
0.0125848
0.0125903
0.0125894
0.012593
0.0125913
0.0125937
0.0125916
0.0125934
0.0125914
0.012593
0.012591
0.0125925
0.0125907
0.0125921
0.0125905
0.0125917
0.0125902
0.0125914
0.0125901
0.0125911
0.0125899
0.0125909
0.0125898
0.0125907
0.0125896
0.0125905
0.0125895
0.0125904
0.0125895
0.0125902
0.0125894
0.0125901
0.0125893
0.01259
0.0125893
0.01259
0.0125893
0.0125899
0.0125893
0.0125899
0.0125893
0.0125899
0.0125894
0.01259
0.0125895
0.01259
0.0125896
0.0125901
0.0125897
0.0125902
0.0125899
0.0125904
0.0125901
0.0125906
0.0125903
0.0125908
0.0125906
0.012591
0.0125909
0.0125913
0.0125912
0.0125916
0.0125915
0.012592
0.0125919
0.0125923
0.0125923
0.0125927
0.0125927
0.0125931
0.0125931
0.0125935
0.0125935
0.0125939
0.0125939
0.0125943
0.0125939
0.0125909
0.0151764
0.015375
0.0153707
0.0153747
0.0153732
0.0153781
0.015375
0.0153767
0.0153737
0.0153765
0.0153761
0.0153799
0.01538
0.0153829
0.0153823
0.0153841
0.0153829
0.015384
0.0153827
0.0153835
0.0153822
0.0153828
0.0153816
0.0153822
0.015381
0.0153815
0.0153805
0.015381
0.01538
0.0153805
0.0153796
0.01538
0.0153791
0.0153795
0.0153787
0.0153791
0.0153784
0.0153787
0.015378
0.0153783
0.0153777
0.0153779
0.0153774
0.0153776
0.0153771
0.0153773
0.0153768
0.015377
0.0153766
0.0153768
0.0153764
0.0153766
0.0153762
0.0153764
0.015376
0.0153762
0.0153759
0.015376
0.0153757
0.0153759
0.0153756
0.0153758
0.0153756
0.0153758
0.0153755
0.0153757
0.0153755
0.0153757
0.0153755
0.0153757
0.0153755
0.0153757
0.0153756
0.0153757
0.0153756
0.0153758
0.0153757
0.0153759
0.0153758
0.015376
0.0153759
0.0153761
0.015376
0.0153762
0.0153761
0.0153763
0.0153762
0.0153764
0.0153741
0.0153731
0.0264598
0.0265102
0.0265089
0.0265124
0.0265142
0.0265185
0.0265179
0.0265185
0.0265174
0.0265195
0.0265208
0.0265242
0.0265259
0.0265284
0.0265292
0.0265305
0.0265306
0.0265312
0.0265309
0.0265313
0.0265309
0.0265312
0.0265308
0.026531
0.0265307
0.0265309
0.0265306
0.0265308
0.0265305
0.0265307
0.0265304
0.0265306
0.0265304
0.0265305
0.0265303
0.0265305
0.0265303
0.0265304
0.0265303
0.0265304
0.0265302
0.0265303
0.0265302
0.0265303
0.0265302
0.0265303
0.0265302
0.0265303
0.0265302
0.0265303
0.0265302
0.0265303
0.0265302
0.0265303
0.0265303
0.0265303
0.0265303
0.0265304
0.0265303
0.0265304
0.0265304
0.0265304
0.0265304
0.0265305
0.0265305
0.0265305
0.0265305
0.0265306
0.0265306
0.0265307
0.0265306
0.0265307
0.0265307
0.0265308
0.0265308
0.0265309
0.0265309
0.0265309
0.0265309
0.026531
0.026531
0.0265311
0.0265311
0.0265311
0.0265311
0.0265312
0.0265311
0.0265312
0.0265287
0.0265279
0.0121668
0.0123114
0.0123557
0.0123899
0.0124174
0.0124395
0.0124569
0.0124731
0.0124867
0.0125
0.0125097
0.0125183
0.0125229
0.0125271
0.0125282
0.0125299
0.0125295
0.0125301
0.0125291
0.0125294
0.0125284
0.0125286
0.0125276
0.0125278
0.0125269
0.0125271
0.0125262
0.0125264
0.0125256
0.0125258
0.012525
0.0125252
0.0125245
0.0125247
0.0125241
0.0125243
0.0125237
0.0125239
0.0125233
0.0125235
0.012523
0.0125231
0.0125227
0.0125228
0.0125224
0.0125225
0.0125221
0.0125223
0.0125219
0.012522
0.0125217
0.0125219
0.0125216
0.0125217
0.0125214
0.0125216
0.0125213
0.0125215
0.0125212
0.0125214
0.0125212
0.0125213
0.0125212
0.0125213
0.0125212
0.0125213
0.0125212
0.0125213
0.0125212
0.0125214
0.0125213
0.0125215
0.0125214
0.0125216
0.0125215
0.0125217
0.0125217
0.0125218
0.0125219
0.012522
0.0125221
0.0125222
0.0125224
0.0125224
0.0125228
0.0125227
0.0125232
0.0125234
0.0125229
0.0125232
0.0117362
0.0120023
0.0120472
0.0120828
0.0121108
0.0121348
0.0121526
0.0121696
0.0121835
0.0121977
0.0122083
0.0122182
0.0122241
0.0122294
0.0122316
0.0122341
0.0122345
0.0122358
0.0122356
0.0122364
0.012236
0.0122367
0.0122362
0.0122368
0.0122365
0.012237
0.0122366
0.0122372
0.0122368
0.0122373
0.012237
0.0122375
0.0122372
0.0122376
0.0122373
0.0122377
0.0122375
0.0122379
0.0122376
0.012238
0.0122378
0.0122381
0.0122379
0.0122382
0.0122381
0.0122384
0.0122382
0.0122385
0.0122383
0.0122386
0.0122385
0.0122388
0.0122386
0.0122389
0.0122388
0.012239
0.012239
0.0122392
0.0122391
0.0122394
0.0122393
0.0122395
0.0122395
0.0122397
0.0122397
0.0122399
0.0122399
0.0122401
0.0122401
0.0122403
0.0122403
0.0122406
0.0122406
0.0122408
0.0122408
0.0122411
0.0122411
0.0122413
0.0122414
0.0122416
0.0122417
0.0122419
0.012242
0.0122421
0.0122424
0.0122424
0.0122427
0.0122429
0.0122429
0.0122437
0.0112709
0.0116548
0.0117019
0.0117349
0.0117632
0.0117876
0.0118057
0.0118212
0.0118344
0.0118477
0.0118593
0.0118699
0.0118777
0.011884
0.0118877
0.0118908
0.0118922
0.0118937
0.0118942
0.0118951
0.0118953
0.011896
0.0118962
0.0118968
0.0118969
0.0118976
0.0118977
0.0118983
0.0118984
0.011899
0.0118992
0.0118997
0.0118999
0.0119004
0.0119006
0.0119011
0.0119013
0.0119018
0.0119019
0.0119024
0.0119026
0.011903
0.0119032
0.0119036
0.0119038
0.0119042
0.0119044
0.0119048
0.011905
0.0119054
0.0119056
0.0119059
0.0119061
0.0119065
0.0119067
0.011907
0.0119072
0.0119075
0.0119077
0.011908
0.0119082
0.0119085
0.0119087
0.011909
0.0119092
0.0119095
0.0119097
0.01191
0.0119101
0.0119104
0.0119106
0.0119109
0.0119111
0.0119114
0.0119115
0.0119118
0.011912