/*--------------------------------*- C++ -*----------------------------------*\
  =========                 |
  \\      /  F ield         | OpenFOAM: The Open Source CFD Toolbox
   \\    /   O peration     | Website:  https://openfoam.org
    \\  /    A nd           | Version:  7
     \\/     M anipulation  |
\*---------------------------------------------------------------------------*/
FoamFile
{
    version     2.0;
    format      ascii;
    class       surfaceScalarField;
    location    "0.09";
    object      phi_0;
}
// * * * * * * * * * * * * * * * * * * * * * * * * * * * * * * * * * * * * * //

dimensions      [1 0 -1 0 0 0 0];

internalField   nonuniform List<scalar> 
2748
(
0.00483392
2.43466e-05
0.00477315
6.06416e-05
0.00467507
9.79587e-05
0.00454822
0.000126744
0.00439903
0.000149092
0.00423469
0.000164247
0.00406121
0.000173399
0.00388392
0.000177223
0.00370692
0.000176923
0.00353354
0.00017332
0.00336621
0.000167255
0.00320642
0.000159699
0.00305538
0.000150939
0.0029138
0.000141451
0.00278203
0.000131626
0.00266012
0.000121747
0.00254794
0.000112018
0.00244519
0.000102598
0.00235146
9.35986e-05
0.00226627
8.5097e-05
0.00218906
7.71419e-05
0.00211927
6.97554e-05
0.00205629
6.29473e-05
0.00199954
5.67106e-05
0.00194842
5.10314e-05
0.0019024
4.58887e-05
0.00186098
4.12569e-05
0.00182371
3.71057e-05
0.00179018
3.33986e-05
0.00176002
3.00932e-05
0.00173284
2.71469e-05
0.00170828
2.45238e-05
0.00168601
2.21983e-05
0.00166574
2.01508e-05
0.00164722
1.83604e-05
0.00163028
1.68001e-05
0.00161473
1.54367e-05
0.00160043
1.4236e-05
0.00158722
1.31695e-05
0.00157495
1.22181e-05
0.00156349
1.1373e-05
0.00155273
1.06316e-05
0.00154258
9.99143e-06
0.00153299
9.44539e-06
0.00152391
8.97874e-06
0.00151529
8.57079e-06
0.00150709
8.19995e-06
0.00149924
7.85039e-06
0.00149168
7.51718e-06
0.00148435
7.20759e-06
0.00147723
6.93628e-06
0.00147034
6.71495e-06
0.00146366
6.54315e-06
0.00145721
6.40436e-06
0.00145096
6.2728e-06
0.00144486
6.12834e-06
0.00143885
5.96675e-06
0.00143291
5.8026e-06
0.00142703
5.66053e-06
0.00142124
5.55757e-06
0.00141558
5.49316e-06
0.00141008
5.4496e-06
0.00140471
5.40056e-06
0.00139944
5.32461e-06
0.00139422
5.21636e-06
0.00138903
5.08738e-06
0.00138385
4.95882e-06
0.00137872
4.85393e-06
0.00137369
4.78878e-06
0.00136882
4.76372e-06
0.00136415
4.76623e-06
0.0013597
4.77818e-06
0.00135546
4.78186e-06
0.00135138
4.76607e-06
0.00134742
4.72485e-06
0.00134354
4.65547e-06
0.0013397
4.56285e-06
0.0013359
4.46229e-06
0.00133211
4.37011e-06
0.00132835
4.29472e-06
0.00132461
4.23969e-06
0.00132091
4.20726e-06
0.00131725
4.19531e-06
0.00131364
4.19772e-06
0.00131008
4.21128e-06
0.00130657
4.23049e-06
0.00130311
4.24818e-06
0.00129968
4.26634e-06
0.00129629
4.28874e-06
0.00129292
4.31645e-06
0.00128956
4.34787e-06
0.00128621
4.38301e-06
0.00128285
4.42329e-06
0.00127949
4.46999e-06
0.00127611
4.52255e-06
0.00127271
4.5821e-06
0.00126928
4.65243e-06
0.0012658
4.73551e-06
0.00126228
4.82609e-06
0.00125871
4.91563e-06
0.00125508
5.00589e-06
0.00125142
5.08541e-06
0.00124771
5.16084e-06
0.00124399
5.20987e-06
0.00124026
5.25514e-06
0.00123655
5.25126e-06
0.00123285
5.26188e-06
0.00122924
5.19682e-06
0.00122563
5.2009e-06
0.00122216
5.07555e-06
0.00121868
5.09385e-06
0.00121544
4.86963e-06
0.00121212
4.93964e-06
0.00120912
4.62302e-06
0.00120592
4.81542e-06
0.00120309
4.44115e-06
0.00119995
4.75584e-06
0.00119708
4.47032e-06
0.00119396
4.72136e-06
5.11166e-06
0.00486607
1.64336e-05
0.00488419
4.23925e-05
0.00491262
6.94072e-05
0.00494663
9.26162e-05
0.00498217
0.000113446
0.00501566
0.000130672
0.00504438
0.000144588
0.00506657
0.000154953
0.00508136
0.000162069
0.00508846
0.000166146
0.00508814
0.000167498
0.0050811
0.000166669
0.00506806
0.000163895
0.00504983
0.000159582
0.00502727
0.000154078
0.00500119
0.000147708
0.00497233
0.000140747
0.00494134
0.000133438
0.00490881
0.000125979
0.00487521
0.000118535
0.00484096
0.000111235
0.00480639
0.000104179
0.00477176
9.74384e-05
0.00473727
9.10634e-05
0.00470309
8.50864e-05
0.00466935
7.95238e-05
0.00463612
7.43792e-05
0.00460349
6.96453e-05
0.0045715
6.53054e-05
0.00454018
6.1336e-05
0.00450956
5.77114e-05
0.00447961
5.4408e-05
0.00445035
5.14061e-05
0.00442176
4.86879e-05
0.00439382
4.62338e-05
0.00436652
4.40199e-05
0.00433984
4.20186e-05
0.00431377
4.02019e-05
0.00428828
3.85455e-05
0.00426333
3.70308e-05
0.00423892
3.56453e-05
0.00421503
3.438e-05
0.00419164
3.32261e-05
0.00416876
3.21723e-05
0.00414639
3.12037e-05
0.00412452
3.03032e-05
0.00410314
2.94545e-05
0.00408225
2.86459e-05
0.00406181
2.78729e-05
0.00404182
2.71384e-05
0.00402225
2.64491e-05
0.00400311
2.58097e-05
0.0039844
2.52185e-05
0.00396609
2.46654e-05
0.00394818
2.41369e-05
0.00393064
2.36227e-05
0.00391342
2.31204e-05
0.00389651
2.26367e-05
0.00387988
2.21817e-05
0.00386355
2.17607e-05
0.00384753
2.13702e-05
0.00383184
2.09979e-05
0.00381646
2.0628e-05
0.00380141
2.02488e-05
0.00378665
1.98581e-05
0.00377218
1.94633e-05
0.00375798
1.90777e-05
0.00374405
1.87153e-05
0.00373038
1.83854e-05
0.00371699
1.80889e-05
0.00370387
1.78188e-05
0.00369103
1.75633e-05
0.00367845
1.73116e-05
0.00366613
1.70569e-05
0.00365405
1.67952e-05
0.00364219
1.65246e-05
0.00363052
1.62473e-05
0.00361905
1.59725e-05
0.00360776
1.57106e-05
0.00359665
1.54694e-05
0.00358571
1.52528e-05
0.00357494
1.50633e-05
0.00356435
1.4899e-05
0.00355392
1.47557e-05
0.00354365
1.46306e-05
0.00353354
1.45198e-05
0.00352357
1.44202e-05
0.00351373
1.43331e-05
0.00350401
1.42607e-05
0.00349439
1.42027e-05
0.00348486
1.41582e-05
0.00347541
1.41287e-05
0.00346602
1.41151e-05
0.00345668
1.4118e-05
0.00344738
1.41384e-05
0.00343811
1.41773e-05
0.00342887
1.42328e-05
0.00341966
1.43011e-05
0.00341048
1.43755e-05
0.00340137
1.44438e-05
0.00339233
1.44993e-05
0.0033834
1.45234e-05
0.00337462
1.4519e-05
0.00336601
1.44547e-05
0.00335761
1.4361e-05
0.00334946
1.41783e-05
0.00334158
1.39916e-05
0.00333402
1.36733e-05
0.00332678
1.34232e-05
0.00331992
1.29654e-05
0.00331338
1.27146e-05
0.00330726
1.21082e-05
0.00330139
1.19565e-05
0.00329598
1.12052e-05
0.00329072
1.12809e-05
0.003286
1.04059e-05
0.00328125
1.07733e-05
0.00327712
9.9299e-06
0.00327276
1.04394e-05
1.02946e-05
0.00486369
1.08758e-05
0.00487629
2.96656e-05
0.00489665
4.89206e-05
0.0049235
6.56537e-05
0.00495596
8.08842e-05
0.00499294
9.36007e-05
0.00503333
0.000104112
0.005076
0.000112202
0.0051199
0.000118096
0.00516406
0.000121921
0.0052076
0.000123881
0.00524988
0.00012431
0.00529033
0.000123363
0.00532853
0.000121297
0.00536418
0.000118328
0.00539711
0.000114668
0.00542723
0.000110496
0.00545456
0.000105978
0.00547914
0.000101253
0.00550108
9.64392e-05
0.00552051
9.1635e-05
0.0055376
8.69197e-05
0.00555252
8.23546e-05
0.00556543
7.79857e-05
0.00557651
7.38457e-05
0.00558593
6.99552e-05
0.00559384
6.6325e-05
0.0056004
6.29571e-05
0.00560575
5.98469e-05
0.00561001
5.69839e-05
0.00561329
5.43555e-05
0.00561568
5.19492e-05
0.00561728
4.9754e-05
0.00561816
4.77593e-05
0.00561841
4.59529e-05
0.00561807
4.43193e-05
0.00561721
4.28406e-05
0.00561587
4.14983e-05
0.00561409
4.02761e-05
0.00561189
3.91614e-05
0.0056093
3.81449e-05
0.00560636
3.72193e-05
0.00560309
3.63768e-05
0.00559952
3.5608e-05
0.00559566
3.49012e-05
0.00559156
3.42438e-05
0.00558721
3.36239e-05
0.00558264
3.30331e-05
0.00557786
3.24674e-05
0.0055729
3.19277e-05
0.00556776
3.14182e-05
0.00556247
3.09418e-05
0.00555706
3.04978e-05
0.00555153
3.00806e-05
0.00554589
2.96819e-05
0.00554014
2.92953e-05
0.00553429
2.89197e-05
0.00552833
2.85585e-05
0.00552227
2.8218e-05
0.00551611
2.7901e-05
0.00550987
2.76036e-05
0.00550353
2.73166e-05
0.00549711
2.7029e-05
0.00549059
2.67323e-05
0.00548398
2.64252e-05
0.00547726
2.6114e-05
0.00547045
2.58093e-05
0.00546354
2.55221e-05
0.00545654
2.52607e-05
0.00544946
2.50263e-05
0.00544231
2.48136e-05
0.00543508
2.46137e-05
0.0054278
2.44169e-05
0.00542045
2.4216e-05
0.00541306
2.40067e-05
0.00540564
2.37878e-05
0.00539819
2.35617e-05
0.00539071
2.33357e-05
0.00538323
2.31186e-05
0.00537573
2.29177e-05
0.00536822
2.2737e-05
0.00536071
2.25794e-05
0.00535317
2.24453e-05
0.00534562
2.23321e-05
0.00533803
2.22384e-05
0.0053304
2.21617e-05
0.00532273
2.20994e-05
0.005315
2.20517e-05
0.00530721
2.20196e-05
0.00529936
2.20043e-05
0.00529145
2.20061e-05
0.00528346
2.20265e-05
0.00527541
2.20655e-05
0.00526728
2.21239e-05
0.00525908
2.2201e-05
0.00525082
2.22941e-05
0.0052425
2.2398e-05
0.00523414
2.25068e-05
0.00522575
2.2611e-05
0.00521736
2.26954e-05
0.00520899
2.27528e-05
0.00520066
2.27612e-05
0.0051924
2.27251e-05
0.00518424
2.26114e-05
0.00517618
2.24569e-05
0.00516827
2.21933e-05
0.00516049
2.19226e-05
0.00515289
2.14929e-05
0.00514544
2.11446e-05
0.0051382
2.05451e-05
0.00513109
2.02038e-05
0.00512421
1.94188e-05
0.00511741
1.92188e-05
0.00511089
1.82228e-05
0.00510433
1.83572e-05
0.00509817
1.70905e-05
0.00509176
1.77241e-05
0.00508608
1.61557e-05
0.00507985
1.72156e-05
1.56867e-05
0.00486197
6.98108e-06
0.00487196
1.95529e-05
0.00488849
3.22686e-05
0.00491079
4.32391e-05
0.0049384
5.31778e-05
0.00497047
6.14352e-05
0.00500624
6.82597e-05
0.00504483
7.35258e-05
0.00508546
7.73958e-05
0.00512735
7.99602e-05
0.0051698
8.1352e-05
0.00521228
8.17608e-05
0.00525426
8.12957e-05
0.00529535
8.01179e-05
0.00533522
7.83567e-05
0.00537363
7.61432e-05
0.00541042
7.35902e-05
0.00544546
7.0801e-05
0.0054787
6.78641e-05
0.00551013
6.48558e-05
0.00553976
6.1839e-05
0.00556764
5.88656e-05
0.00559385
5.59763e-05
0.00561846
5.32017e-05
0.00564158
5.05646e-05
0.0056633
4.80796e-05
0.00568372
4.57548e-05
0.00570295
4.35927e-05
0.00572109
4.15913e-05
0.00573823
3.97455e-05
0.00575445
3.80484e-05
0.00576984
3.64928e-05
0.00578447
3.50721e-05
0.00579841
3.37795e-05
0.00581172
3.26075e-05
0.00582446
3.15467e-05
0.00583669
3.05869e-05
0.00584844
2.97172e-05
0.00585975
2.89277e-05
0.00587065
2.82106e-05
0.00588118
2.75597e-05
0.00589134
2.69699e-05
0.00590118
2.64361e-05
0.00591071
2.59524e-05
0.00591996
2.55115e-05
0.00592894
2.51055e-05
0.00593766
2.47271e-05
0.00594613
2.43709e-05
0.00595436
2.40347e-05
0.00596236
2.37184e-05
0.00597015
2.34237e-05
0.00597775
2.31515e-05
0.00598516
2.29003e-05
0.00599241
2.26664e-05
0.0059995
2.24449e-05
0.00600644
2.22326e-05
0.00601324
2.20288e-05
0.00601989
2.18354e-05
0.00602641
2.16552e-05
0.0060328
2.14892e-05
0.00603906
2.1335e-05
0.00604521
2.11874e-05
0.00605122
2.10404e-05
0.00605709
2.08899e-05
0.0060628
2.07356e-05
0.00606834
2.05814e-05
0.00607371
2.04336e-05
0.0060789
2.02984e-05
0.00608393
2.01802e-05
0.00608879
2.00791e-05
0.0060935
1.99912e-05
0.00609805
1.99103e-05
0.00610247
1.983e-05
0.00610674
1.97449e-05
0.00611087
1.96523e-05
0.00611487
1.95522e-05
0.00611876
1.94457e-05
0.00612253
1.93369e-05
0.00612621
1.92324e-05
0.00612982
1.9138e-05
0.00613336
1.90581e-05
0.00613685
1.89956e-05
0.00614029
1.89521e-05
0.00614368
1.89262e-05
0.00614702
1.89168e-05
0.00615031
1.89229e-05
0.00615352
1.89429e-05
0.00615667
1.8977e-05
0.00615973
1.90265e-05
0.00616271
1.90911e-05
0.00616559
1.91698e-05
0.00616837
1.92635e-05
0.00617106
1.93722e-05
0.00617366
1.94947e-05
0.00617616
1.96302e-05
0.00617858
1.97765e-05
0.00618093
1.99288e-05
0.0061832
2.00795e-05
0.0061854
2.02242e-05
0.00618755
2.03486e-05
0.00618963
2.04505e-05
0.00619166
2.05074e-05
0.00619363
2.05321e-05
0.00619553
2.04851e-05
0.00619737
2.04133e-05
0.00619915
2.02393e-05
0.00620084
2.00761e-05
0.00620246
1.97591e-05
0.006204
1.95374e-05
0.00620546
1.90722e-05
0.00620683
1.887e-05
0.00620809
1.82486e-05
0.00620928
1.81844e-05
0.00621031
1.73846e-05
0.0062113
1.7621e-05
0.0062121
1.65903e-05
0.0062129
1.72617e-05
0.00621346
1.59524e-05
0.0062141
1.69708e-05
1.55554e-05
0.00486162
3.42734e-06
0.00487151
9.53908e-06
0.00488796
1.56967e-05
0.00490998
2.11056e-05
0.00493697
2.60777e-05
0.00496806
3.02597e-05
0.00500246
3.37696e-05
0.00503939
3.65166e-05
0.00507814
3.85725e-05
0.00511806
3.99742e-05
0.00515855
4.07831e-05
0.00519914
4.10951e-05
0.00523939
4.09674e-05
0.00527894
4.04818e-05
0.00531749
3.97049e-05
0.00535481
3.87033e-05
0.00539074
3.75338e-05
0.00542516
3.62468e-05
0.00545799
3.48853e-05
0.00548921
3.34857e-05
0.0055188
3.20776e-05
0.00554681
3.06854e-05
0.00557329
2.93277e-05
0.0055983
2.8019e-05
0.00562193
2.67698e-05
0.00564427
2.5587e-05
0.0056654
2.44745e-05
0.00568543
2.34337e-05
0.00570444
2.24637e-05
0.00572253
2.15622e-05
0.00573977
2.07264e-05
0.00575624
1.99536e-05
0.00577202
1.92417e-05
0.00578717
1.85883e-05
0.00580176
1.79907e-05
0.00581583
1.74453e-05
0.00582945
1.69475e-05
0.00584264
1.64928e-05
0.00585546
1.6077e-05
0.00586792
1.56967e-05
0.00588007
1.53494e-05
0.00589192
1.50333e-05
0.0059035
1.47465e-05
0.00591484
1.44864e-05
0.00592596
1.42495e-05
0.00593687
1.40321e-05
0.00594758
1.38304e-05
0.00595811
1.36416e-05
0.00596848
1.34643e-05
0.00597868
1.32988e-05
0.00598875
1.31459e-05
0.00599869
1.30062e-05
0.00600853
1.28787e-05
0.00601826
1.27615e-05
0.00602791
1.26519e-05
0.00603747
1.2548e-05
0.00604696
1.24496e-05
0.00605636
1.23575e-05
0.00606571
1.22734e-05
0.00607498
1.21981e-05
0.00608419
1.21304e-05
0.00609334
1.20677e-05
0.00610241
1.20067e-05
0.0061114
1.19451e-05
0.00612028
1.18823e-05
0.00612907
1.18202e-05
0.00613774
1.17621e-05
0.0061463
1.1711e-05
0.00615477
1.16693e-05
0.00616313
1.16369e-05
0.0061714
1.16116e-05
0.00617957
1.15899e-05
0.00618765
1.15679e-05
0.00619564
1.15425e-05
0.00620355
1.15121e-05
0.00621137
1.14767e-05
0.00621912
1.14374e-05
0.0062268
1.13965e-05
0.00623444
1.13577e-05
0.00624205
1.13246e-05
0.00624965
1.12999e-05
0.00625724
1.12857e-05
0.00626484
1.12834e-05
0.00627246
1.12926e-05
0.00628008
1.13125e-05
0.00628772
1.13427e-05
0.00629536
1.1382e-05
0.00630301
1.14302e-05
0.00631065
1.1488e-05
0.00631828
1.1555e-05
0.0063259
1.16307e-05
0.00633351
1.17152e-05
0.00634111
1.18086e-05
0.0063487
1.19101e-05
0.00635628
1.20197e-05
0.00636386
1.21354e-05
0.00637143
1.22566e-05
0.006379
1.23766e-05
0.00638656
1.24971e-05
0.0063941
1.26047e-05
0.00640162
1.27066e-05
0.0064091
1.27795e-05
0.00641653
1.28468e-05
0.00642388
1.28642e-05
0.00643114
1.28894e-05
0.00643829
1.28364e-05
0.0064453
1.28255e-05
0.00645215
1.26898e-05
0.00645885
1.26666e-05
0.00646533
1.24434e-05
0.00647165
1.24604e-05
0.0064777
1.21495e-05
0.00648362
1.22812e-05
0.00648918
1.18871e-05
0.0064947
1.22218e-05
0.0064997
1.17548e-05
0.00650486
1.2328e-05
0.00650923
1.18345e-05
0.006514
1.24953e-05
1.21462e-05
0.00486145
3.12297e-08
0.00487081
4.41531e-08
0.00488629
9.43588e-08
0.00490718
1.06343e-07
0.00493301
1.42919e-07
0.00496301
1.72059e-07
0.00499647
2.21783e-07
0.00503262
2.84344e-07
0.00507076
3.6592e-07
0.00511019
4.70143e-07
0.00515031
5.91843e-07
0.00519059
7.36197e-07
0.00523058
8.98368e-07
0.00526989
1.07725e-06
0.00530823
1.26941e-06
0.00534535
1.47132e-06
0.00538108
1.67917e-06
0.0054153
1.88866e-06
0.00544794
2.09567e-06
0.00547897
2.29601e-06
0.0055084
2.48605e-06
0.00553625
2.66278e-06
0.00556258
2.82383e-06
0.00558746
2.96769e-06
0.00561097
3.0935e-06
0.0056332
3.20091e-06
0.00565424
3.28992e-06
0.00567418
3.36061e-06
0.00569312
3.41323e-06
0.00571114
3.4482e-06
0.00572832
3.46647e-06
0.00574474
3.46965e-06
0.00576047
3.45996e-06
0.00577558
3.4399e-06
0.00579013
3.41181e-06
0.00580417
3.37753e-06
0.00581776
3.33838e-06
0.00583093
3.29537e-06
0.00584372
3.24947e-06
0.00585616
3.20185e-06
0.00586829
3.15399e-06
0.00588013
3.10745e-06
0.0058917
3.06363e-06
0.00590304
3.02343e-06
0.00591415
2.9871e-06
0.00592506
2.95436e-06
0.00593578
2.92471e-06
0.00594632
2.89778e-06
0.0059567
2.87365e-06
0.00596693
2.85274e-06
0.00597703
2.83564e-06
0.00598701
2.82257e-06
0.00599689
2.81326e-06
0.00600668
2.80687e-06
0.00601639
2.80231e-06
0.00602602
2.79894e-06
0.00603558
2.79679e-06
0.00604508
2.79657e-06
0.00605452
2.79935e-06
0.0060639
2.80593e-06
0.00607323
2.81636e-06
0.00608251
2.82999e-06
0.00609171
2.8458e-06
0.00610084
2.86298e-06
0.00610987
2.88126e-06
0.00611881
2.90116e-06
0.00612765
2.92358e-06
0.00613639
2.9493e-06
0.00614502
2.97868e-06
0.00615356
3.01113e-06
0.006162
3.04515e-06
0.00617036
3.07866e-06
0.00617862
3.10965e-06
0.0061868
3.13665e-06
0.0061949
3.15877e-06
0.00620294
3.17634e-06
0.00621091
3.19039e-06
0.00621884
3.20218e-06
0.00622675
3.21369e-06
0.00623465
3.22708e-06
0.00624255
3.24409e-06
0.00625046
3.26616e-06
0.0062584
3.29445e-06
0.00626636
3.32922e-06
0.00627434
3.36994e-06
0.00628234
3.41619e-06
0.00629036
3.46679e-06
0.00629838
3.52101e-06
0.0063064
3.57881e-06
0.00631442
3.63941e-06
0.00632243
3.70241e-06
0.00633044
3.76752e-06
0.00633844
3.83495e-06
0.00634644
3.90387e-06
0.00635444
3.97552e-06
0.00636245
4.04842e-06
0.00637046
4.1258e-06
0.00637848
4.20299e-06
0.0063865
4.28716e-06
0.00639452
4.36682e-06
0.00640252
4.45739e-06
0.00641049
4.53668e-06
0.00641842
4.63618e-06
0.00642628
4.71039e-06
0.00643406
4.82264e-06
0.00644173
4.88586e-06
0.00644927
5.01934e-06
0.00645666
5.06485e-06
0.0064639
5.23623e-06
0.00647093
5.26122e-06
0.00647779
5.49853e-06
0.00648438
5.50802e-06
0.00649082
5.84615e-06
0.00649691
5.86507e-06
0.00650293
6.32789e-06
0.00650844
6.41732e-06
0.00651403
6.96875e-06
0.00651886
7.26652e-06
0.00652394
7.72259e-06
8.48865e-06
0.00486144
-3.35427e-06
0.00487081
-9.45948e-06
0.00488632
-1.55316e-05
0.00490724
-2.09282e-05
0.00493311
-2.58322e-05
0.00496315
-2.9959e-05
0.00499665
-3.33689e-05
0.00503285
-3.59881e-05
0.00507102
-3.78772e-05
0.00511048
-3.9064e-05
0.00515062
-3.96243e-05
0.00519093
-3.96411e-05
0.00523092
-3.91816e-05
0.00527024
-3.83312e-05
0.00530857
-3.71629e-05
0.00534568
-3.5751e-05
0.0053814
-3.41595e-05
0.0054156
-3.24481e-05
0.00544821
-3.06679e-05
0.00547921
-2.88638e-05
0.00550861
-2.70729e-05
0.00553642
-2.53256e-05
0.00556272
-2.36452e-05
0.00558757
-2.20491e-05
0.00561104
-2.0549e-05
0.00563324
-1.91524e-05
0.00565425
-1.78632e-05
0.00567416
-1.66822e-05
0.00569307
-1.56084e-05
0.00571106
-1.46389e-05
0.00572821
-1.37691e-05
0.00574461
-1.29932e-05
0.00576033
-1.23041e-05
0.00577542
-1.16939e-05
0.00578996
-1.11549e-05
0.00580399
-1.06796e-05
0.00581757
-1.02611e-05
0.00583073
-9.89335e-06
0.00584351
-9.57039e-06
0.00585595
-9.28671e-06
0.00586808
-9.03681e-06
0.00587991
-8.81533e-06
0.00589148
-8.61719e-06
0.00590282
-8.43783e-06
0.00591393
-8.2734e-06
0.00592483
-8.12092e-06
0.00593555
-7.97813e-06
0.00594609
-7.84324e-06
0.00595647
-7.71484e-06
0.0059667
-7.59186e-06
0.00597679
-7.47353e-06
0.00598677
-7.35946e-06
0.00599665
-7.24931e-06
0.00600643
-7.14316e-06
0.00601613
-7.04116e-06
0.00602576
-6.94326e-06
0.00603531
-6.8492e-06
0.00604481
-6.75821e-06
0.00605424
-6.66912e-06
0.00606362
-6.58055e-06
0.00607295
-6.49112e-06
0.00608221
-6.3998e-06
0.0060914
-6.30599e-06
0.00610052
-6.20953e-06
0.00610955
-6.11079e-06
0.00611848
-6.01031e-06
0.00612731
-5.90888e-06
0.00613604
-5.8075e-06
0.00614467
-5.70701e-06
0.00615321
-5.60841e-06
0.00616164
-5.51264e-06
0.00616998
-5.42094e-06
0.00617823
-5.33421e-06
0.0061864
-5.25273e-06
0.00619448
-5.17692e-06
0.00620249
-5.10637e-06
0.00621045
-5.04002e-06
0.00621837
-4.97736e-06
0.00622626
-4.9177e-06
0.00623415
-4.85986e-06
0.00624204
-4.80289e-06
0.00624994
-4.74582e-06
0.00625787
-4.68738e-06
0.00626583
-4.62667e-06
0.0062738
-4.56404e-06
0.0062818
-4.50028e-06
0.0062898
-4.43694e-06
0.0062978
-4.37553e-06
0.00630581
-4.31662e-06
0.00631381
-4.26147e-06
0.00632181
-4.21058e-06
0.0063298
-4.16454e-06
0.00633779
-4.12315e-06
0.00634578
-4.08671e-06
0.00635376
-4.05318e-06
0.00636175
-4.0229e-06
0.00636975
-3.98946e-06
0.00637775
-3.95421e-06
0.00638575
-3.90548e-06
0.00639374
-3.85204e-06
0.00640172
-3.7725e-06
0.00640967
-3.68474e-06
0.00641757
-3.55313e-06
0.00642541
-3.41948e-06
0.00643316
-3.2206e-06
0.0064408
-3.03877e-06
0.00644832
-2.76337e-06
0.00645569
-2.53613e-06
0.0064629
-2.17478e-06
0.00646991
-1.90509e-06
0.00647676
-1.45327e-06
0.00648335
-1.13612e-06
0.0064898
-5.93864e-07
0.00649591
-1.87579e-07
0.00650194
4.19256e-07
0.00650751
1.01958e-06
0.00651311
1.60083e-06
0.00651801
2.62802e-06
0.00652306
2.97292e-06
4.83745e-06
0.00486158
-6.87205e-06
0.00487144
-1.94457e-05
0.00488785
-3.20588e-05
0.00490984
-4.30347e-05
0.00493683
-5.29207e-05
0.00496792
-6.11421e-05
0.00500235
-6.78828e-05
0.00503931
-7.30341e-05
0.00507811
-7.67479e-05
0.00511808
-7.91019e-05
0.00515863
-8.02502e-05
0.00519928
-8.03627e-05
0.00523957
-7.95618e-05
0.00527917
-7.80128e-05
0.00531775
-7.58511e-05
0.00535511
-7.32159e-05
0.00539105
-7.02282e-05
0.00542547
-6.70008e-05
0.00545828
-6.36313e-05
0.00548946
-6.02053e-05
0.00551902
-5.67939e-05
0.00554698
-5.34556e-05
0.0055734
-5.02359e-05
0.00559835
-4.71685e-05
0.00562191
-4.42769e-05
0.00564418
-4.15757e-05
0.00566524
-3.90723e-05
0.0056852
-3.6769e-05
0.00570413
-3.46637e-05
0.00572215
-3.27512e-05
0.00573932
-3.10233e-05
0.00575573
-2.94694e-05
0.00577146
-2.80774e-05
0.00578656
-2.6834e-05
0.0058011
-2.57256e-05
0.00581513
-2.4739e-05
0.0058287
-2.38617e-05
0.00584187
-2.30823e-05
0.00585465
-2.23899e-05
0.00586709
-2.17745e-05
0.00587922
-2.12265e-05
0.00589105
-2.07366e-05
0.00590262
-2.02956e-05
0.00591396
-1.98952e-05
0.00592506
-1.95281e-05
0.00593597
-1.9188e-05
0.00594668
-1.88702e-05
0.00595721
-1.85707e-05
0.00596757
-1.82869e-05
0.00597778
-1.80168e-05
0.00598785
-1.77595e-05
0.00599781
-1.75143e-05
0.00600765
-1.72804e-05
0.00601739
-1.70573e-05
0.00602705
-1.68442e-05
0.00603663
-1.66402e-05
0.00604613
-1.64447e-05
0.00605556
-1.62565e-05
0.00606492
-1.60743e-05
0.00607422
-1.58961e-05
0.00608346
-1.57193e-05
0.00609263
-1.55418e-05
0.00610172
-1.53619e-05
0.00611073
-1.51787e-05
0.00611965
-1.49929e-05
0.00612847
-1.48063e-05
0.00613718
-1.46213e-05
0.00614579
-1.44404e-05
0.0061543
-1.42655e-05
0.00616271
-1.40979e-05
0.00617103
-1.39377e-05
0.00617924
-1.3785e-05
0.00618737
-1.36393e-05
0.0061954
-1.34997e-05
0.00620335
-1.33657e-05
0.00621122
-1.32361e-05
0.00621903
-1.31097e-05
0.00622678
-1.29873e-05
0.0062345
-1.28703e-05
0.00624219
-1.27589e-05
0.00624987
-1.26532e-05
0.00625756
-1.25529e-05
0.00626526
-1.24566e-05
0.00627298
-1.23631e-05
0.00628071
-1.22729e-05
0.00628845
-1.21868e-05
0.0062962
-1.21069e-05
0.00630396
-1.20352e-05
0.00631171
-1.19724e-05
0.00631947
-1.19201e-05
0.00632722
-1.18786e-05
0.00633496
-1.18488e-05
0.0063427
-1.18304e-05
0.00635044
-1.18235e-05
0.00635818
-1.18255e-05
0.00636592
-1.1835e-05
0.00637367
-1.18427e-05
0.00638142
-1.18463e-05
0.00638918
-1.18311e-05
0.00639692
-1.18017e-05
0.00640465
-1.17314e-05
0.00641234
-1.16322e-05
0.00641998
-1.14666e-05
0.00642756
-1.12713e-05
0.00643504
-1.09851e-05
0.00644242
-1.06834e-05
0.00644967
-1.02672e-05
0.00645676
-9.86099e-06
0.0064637
-9.31521e-06
0.00647044
-8.8116e-06
0.00647703
-8.15501e-06
0.00648337
-7.5497e-06
0.00648958
-6.81525e-06
0.00649548
-6.0512e-06
0.00650131
-5.31428e-06
0.00650671
-4.24415e-06
0.00651216
-3.65914e-06
0.00651696
-1.95138e-06
0.00652197
-1.77798e-06
1.13026e-06
0.00486194
-1.07296e-05
0.00487194
-2.95778e-05
0.0048885
-4.87372e-05
0.00491086
-6.5509e-05
0.00493854
-8.07047e-05
0.00497071
-9.34055e-05
0.00500659
-0.000103843
0.0050453
-0.000111823
0.00508603
-0.000117559
0.00512802
-0.00012116
0.00517057
-0.00012287
0.00521312
-0.000122986
0.00525515
-0.000121679
0.00529627
-0.000119218
0.00533614
-0.000115823
0.00537452
-0.000111715
0.00541125
-0.000107084
0.00544622
-0.000102104
0.00547937
-9.69258e-05
0.00551069
-9.16791e-05
0.0055402
-8.64704e-05
0.00556796
-8.13864e-05
0.00559404
-7.64935e-05
0.00561854
-7.18395e-05
0.00564156
-6.74568e-05
0.00566319
-6.33641e-05
0.00568354
-5.95705e-05
0.00570272
-5.60772e-05
0.00572082
-5.288e-05
0.00573793
-4.99701e-05
0.00575416
-4.73346e-05
0.00576958
-4.49573e-05
0.00578427
-4.28195e-05
0.0057983
-4.09013e-05
0.00581172
-3.9182e-05
0.00582459
-3.7642e-05
0.00583697
-3.62624e-05
0.00584888
-3.50264e-05
0.00586038
-3.39187e-05
0.00587148
-3.29255e-05
0.00588222
-3.20331e-05
0.00589263
-3.12277e-05
0.00590273
-3.04955e-05
0.00591254
-2.98236e-05
0.00592207
-2.92009e-05
0.00593134
-2.86186e-05
0.00594036
-2.80698e-05
0.00594915
-2.75489e-05
0.00595771
-2.70517e-05
0.00596606
-2.65751e-05
0.00597421
-2.61177e-05
0.00598218
-2.56791e-05
0.00598997
-2.52589e-05
0.0059976
-2.48571e-05
0.00600508
-2.4473e-05
0.00601243
-2.41054e-05
0.00601964
-2.37532e-05
0.00602672
-2.34148e-05
0.00603369
-2.30883e-05
0.00604054
-2.27709e-05
0.00604728
-2.24589e-05
0.00605391
-2.21486e-05
0.00606041
-2.18365e-05
0.00606678
-2.15207e-05
0.00607301
-2.12018e-05
0.0060791
-2.08817e-05
0.00608503
-2.05644e-05
0.00609082
-2.02536e-05
0.00609645
-1.99524e-05
0.00610193
-1.96628e-05
0.00610727
-1.93853e-05
0.00611246
-1.91199e-05
0.00611751
-1.88658e-05
0.00612243
-1.86216e-05
0.00612722
-1.83856e-05
0.00613191
-1.81565e-05
0.00613649
-1.79344e-05
0.00614099
-1.77207e-05
0.00614543
-1.7517e-05
0.00614981
-1.73235e-05
0.00615416
-1.71404e-05
0.00615847
-1.69664e-05
0.00616275
-1.67992e-05
0.00616701
-1.66378e-05
0.00617124
-1.64822e-05
0.00617543
-1.63339e-05
0.00617958
-1.6195e-05
0.00618368
-1.60663e-05
0.00618773
-1.59497e-05
0.00619171
-1.58477e-05
0.00619564
-1.57616e-05
0.00619951
-1.56928e-05
0.00620332
-1.56408e-05
0.00620707
-1.56065e-05
0.00621077
-1.55872e-05
0.00621443
-1.55815e-05
0.00621804
-1.55795e-05
0.00622161
-1.55765e-05
0.00622515
-1.55567e-05
0.00622867
-1.552e-05
0.00623215
-1.54385e-05
0.0062356
-1.53201e-05
0.00623902
-1.51259e-05
0.0062424
-1.4887e-05
0.00624573
-1.45474e-05
0.00624901
-1.41738e-05
0.00625223
-1.36794e-05
0.00625538
-1.31738e-05
0.00625847
-1.25351e-05
0.00626149
-1.19119e-05
0.00626445
-1.11629e-05
0.00626732
-1.042e-05
0.00627016
-9.60971e-06
0.00627288
-8.68993e-06
0.00627561
-7.91565e-06
0.00627819
-6.67654e-06
0.00628082
-6.10349e-06
0.00628327
-4.21178e-06
0.00628578
-4.07824e-06
-9.48033e-07
0.00486343
-1.60285e-05
0.00487586
-4.21409e-05
0.0048961
-6.9092e-05
0.00492288
-9.24018e-05
0.00495532
-0.000113247
0.00499231
-0.000130494
0.00503274
-0.000144359
0.00507547
-0.000154627
0.00511943
-0.000161593
0.00516364
-0.000165439
0.00520725
-0.000166554
0.0052496
-0.000165415
0.00529013
-0.000162285
0.00532841
-0.000157592
0.00536417
-0.000151681
0.00539723
-0.00014489
0.00542753
-0.000137502
0.00545506
-0.000129771
0.00547989
-0.000121906
0.00550214
-0.000114082
0.00552194
-0.000106437
0.00553946
-9.90778e-05
0.00555488
-9.20807e-05
0.00556837
-8.54952e-05
0.0055801
-7.93508e-05
0.00559024
-7.36596e-05
0.00559895
-6.84212e-05
0.00560637
-6.3626e-05
0.00561264
-5.92586e-05
0.00561787
-5.52987e-05
0.00562217
-5.17225e-05
0.00562565
-4.85031e-05
0.00562839
-4.56115e-05
0.00563046
-4.30173e-05
0.00563193
-4.06902e-05
0.00563285
-3.86018e-05
0.00563328
-3.67257e-05
0.00563325
-3.50384e-05
0.0056328
-3.35195e-05
0.00563196
-3.21501e-05
0.00563075
-3.09127e-05
0.00562921
-2.97898e-05
0.00562736
-2.87644e-05
0.00562522
-2.78209e-05
0.00562281
-2.69459e-05
0.00562015
-2.61285e-05
0.00561727
-2.53603e-05
0.00561417
-2.46348e-05
0.00561087
-2.39467e-05
0.00560741
-2.32927e-05
0.00560379
-2.26711e-05
0.00560003
-2.20805e-05
0.00559615
-2.15197e-05
0.00559216
-2.09874e-05
0.00558807
-2.04814e-05
0.00558388
-1.99996e-05
0.00557961
-1.95399e-05
0.00557526
-1.91003e-05
0.00557082
-1.86786e-05
0.00556631
-1.8272e-05
0.00556172
-1.78773e-05
0.00555705
-1.7491e-05
0.00555231
-1.71096e-05
0.00554749
-1.67312e-05
0.0055426
-1.63553e-05
0.00553763
-1.59827e-05
0.0055326
-1.5616e-05
0.0055275
-1.5257e-05
0.00552233
-1.49084e-05
0.00551709
-1.45713e-05
0.00551179
-1.42464e-05
0.00550642
-1.39345e-05
0.005501
-1.36367e-05
0.00549554
-1.33538e-05
0.00549006
-1.30837e-05
0.00548456
-1.28231e-05
0.00547905
-1.25714e-05
0.00547355
-1.23315e-05
0.00546806
-1.21058e-05
0.00546258
-1.18952e-05
0.00545712
-1.16998e-05
0.00545167
-1.15166e-05
0.00544622
-1.13418e-05
0.00544078
-1.11741e-05
0.00543533
-1.10144e-05
0.00542987
-1.08626e-05
0.00542439
-1.07205e-05
0.00541889
-1.05896e-05
0.00541337
-1.04703e-05
0.00540782
-1.03644e-05
0.00540224
-1.02706e-05
0.00539663
-1.01899e-05
0.00539098
-1.0123e-05
0.00538529
-1.00726e-05
0.00537958
-1.00387e-05
0.00537384
-1.00209e-05
0.00536809
-1.00114e-05
0.00536233
-1.00089e-05
0.00535659
-1.00032e-05
0.00535088
-9.99344e-06
0.00534524
-9.95227e-06
0.00533966
-9.88699e-06
0.00533419
-9.76237e-06
0.00532882
-9.6066e-06
0.00532359
-9.36571e-06
0.00531851
-9.09887e-06
0.00531357
-8.72439e-06
0.0053088
-8.34602e-06
0.00530419
-7.84549e-06
0.00529976
-7.37111e-06
0.00529548
-6.76883e-06
0.00529139
-6.2003e-06
0.00528743
-5.53124e-06
0.00528369
-4.84612e-06
0.00528003
-4.17483e-06
0.00527673
-3.32015e-06
0.00527337
-2.72994e-06
0.00527069
-1.57284e-06
0.00526772
-1.17641e-06
5.72321e-07
0.00486542
-2.32952e-05
0.00488298
-5.98282e-05
0.00491083
-9.70654e-05
0.00494438
-0.000126066
0.00497959
-0.00014856
0.00501289
-0.000163882
0.00504157
-0.000173125
0.00506387
-0.000177009
0.00507892
-0.000176714
0.00508644
-0.000173035
0.00508674
-0.00016693
0.0050805
-0.00015925
0.00506844
-0.000150314
0.0050514
-0.000140641
0.00503022
-0.000130609
0.00500572
-0.000120508
0.00497864
-0.000110548
0.00494963
-0.000100896
0.00491924
-9.16707e-05
0.00488797
-8.29582e-05
0.00485619
-7.48158e-05
0.00482423
-6.72713e-05
0.00479234
-6.03369e-05
0.00476071
-5.4006e-05
0.00472948
-4.82603e-05
0.00469877
-4.30729e-05
0.00466865
-3.84128e-05
0.00463917
-3.42463e-05
0.00461037
-3.05396e-05
0.00458225
-2.72585e-05
0.00455483
-2.43685e-05
0.0045281
-2.18343e-05
0.00450204
-1.96188e-05
0.00447665
-1.76861e-05
0.00445189
-1.60002e-05
0.00442774
-1.45294e-05
0.00440416
-1.32458e-05
0.00438115
-1.21264e-05
0.00435866
-1.11522e-05
0.00433668
-1.03073e-05
0.00431519
-9.57672e-06
0.00429419
-8.94483e-06
0.00427366
-8.39588e-06
0.0042536
-7.91521e-06
0.00423399
-7.49105e-06
0.00421483
-7.11507e-06
0.00419612
-6.78087e-06
0.00417786
-6.48354e-06
0.00416004
-6.21818e-06
0.00414265
-5.98016e-06
0.00412568
-5.76599e-06
0.00410913
-5.57269e-06
0.00409296
-5.3979e-06
0.00407717
-5.24048e-06
0.00406174
-5.09841e-06
0.00404665
-4.96956e-06
0.00403189
-4.85243e-06
0.00401745
-4.74501e-06
0.0040033
-4.64538e-06
0.00398945
-4.55157e-06
0.0039759
-4.46226e-06
0.00396263
-4.37626e-06
0.00394966
-4.29188e-06
0.003937
-4.20821e-06
0.00392464
-4.12526e-06
0.00391259