/*--------------------------------*- C++ -*----------------------------------*\
  =========                 |
  \\      /  F ield         | OpenFOAM: The Open Source CFD Toolbox
   \\    /   O peration     | Website:  https://openfoam.org
    \\  /    A nd           | Version:  7
     \\/     M anipulation  |
\*---------------------------------------------------------------------------*/
FoamFile
{
    version     2.0;
    format      ascii;
    class       volScalarField;
    location    "4.85";
    object      nut;
}
// * * * * * * * * * * * * * * * * * * * * * * * * * * * * * * * * * * * * * //

dimensions      [0 2 -1 0 0 0 0];

internalField   nonuniform List<scalar> 
6000
(
0.0624919
0.0629853
0.0630249
0.0630984
0.0631297
0.0631552
0.0631708
0.0631752
0.0631698
0.0630381
0.0404855
0.0406257
0.0406135
0.04067
0.0406826
0.0407021
0.0407123
0.0407143
0.0407167
0.0406401
0.0379601
0.0381355
0.0380544
0.0381134
0.0381161
0.0381356
0.0381452
0.0381486
0.0381707
0.0380909
0.0382592
0.038339
0.0382993
0.0383546
0.0383556
0.0383737
0.0383799
0.0383802
0.0383886
0.038304
0.0380566
0.0381404
0.0380832
0.0381295
0.0381255
0.0381413
0.0381467
0.0381457
0.0381563
0.0380718
0.0381702
0.0382121
0.0381551
0.0382004
0.0381943
0.0382095
0.0382136
0.0382122
0.0382233
0.0381393
0.0381702
0.0382121
0.038155
0.0382004
0.0381942
0.0382096
0.0382134
0.0382126
0.0382225
0.0381405
0.0380566
0.0381404
0.0380831
0.0381296
0.0381253
0.0381416
0.0381461
0.0381469
0.038154
0.0380757
0.0382591
0.038339
0.0382992
0.0383547
0.0383553
0.0383742
0.0383789
0.0383819
0.038385
0.038311
0.03796
0.0381356
0.0380543
0.0381136
0.0381157
0.0381363
0.038144
0.0381507
0.0381663
0.0380995
0.0404854
0.0406258
0.0406134
0.0406702
0.0406822
0.0407028
0.0407109
0.0407168
0.0407116
0.04065
0.0624919
0.0629854
0.0630247
0.0630988
0.0631291
0.0631563
0.0631688
0.063179
0.063162
0.0630541
0.0376523
0.0379927
0.0380969
0.0381182
0.0381453
0.0381554
0.0381598
0.0381556
0.0381212
0.0380499
0.0375382
0.0380472
0.0380734
0.038102
0.0381256
0.0381366
0.0381446
0.0381438
0.0381373
0.0380536
0.0366122
0.0371964
0.0371801
0.0372017
0.0372212
0.0372293
0.0372367
0.0372352
0.0372463
0.0371578
0.0371104
0.0375581
0.0375519
0.0375699
0.0375879
0.0375948
0.0376024
0.0375996
0.0376042
0.0375143
0.0368662
0.0373011
0.0373035
0.0373137
0.0373291
0.0373339
0.0373399
0.0373356
0.0373425
0.0372495
0.0369986
0.0373901
0.0373769
0.0373823
0.0373948
0.0373984
0.0374039
0.0373986
0.0374068
0.0373145
0.0369986
0.0373901
0.0373769
0.0373824
0.0373947
0.0373985
0.0374036
0.037399
0.037406
0.037316
0.0368662
0.0373011
0.0373034
0.0373138
0.0373289
0.0373342
0.0373393
0.0373367
0.0373402
0.0372537
0.0371104
0.0375582
0.0375518
0.0375701
0.0375876
0.0375953
0.0376015
0.0376013
0.0376007
0.037521
0.0366122
0.0371964
0.03718
0.0372019
0.0372208
0.0372299
0.0372355
0.0372373
0.037242
0.0371664
0.0375381
0.0380473
0.0380733
0.0381022
0.0381252
0.0381373
0.0381433
0.0381462
0.0381325
0.0380633
0.0376523
0.0379928
0.0380968
0.0381184
0.0381449
0.0381561
0.0381586
0.0381579
0.0381164
0.0380593
0.0126955
0.0130114
0.0130448
0.0130388
0.0130471
0.0130475
0.0130464
0.0130431
0.0130387
0.0130275
0.013845
0.0142765
0.0142976
0.0142535
0.0142661
0.0142605
0.014256
0.0142508
0.0142553
0.0142396
0.0128779
0.0132976
0.0132903
0.0132848
0.0132922
0.0132918
0.0132919
0.0132893
0.0132962
0.0132914
0.0132665
0.0137042
0.0136996
0.0136592
0.013671
0.0136625
0.013656
0.0136494
0.0136626
0.0136487
0.012999
0.0134197
0.0134098
0.0133418
0.0133508
0.0133382
0.0133306
0.0133219
0.0133328
0.0133208
0.0131105
0.0135078
0.0134952
0.0134349
0.0134421
0.0134317
0.0134238
0.0134154
0.0134291
0.0134167
0.0131105
0.0135078
0.0134952
0.0134349
0.0134421
0.0134317
0.0134237
0.0134155
0.0134289
0.0134174
0.012999
0.0134198
0.0134098
0.0133419
0.0133507
0.0133384
0.0133303
0.0133223
0.013332
0.0133221
0.0132665
0.0137042
0.0136995
0.0136592
0.0136709
0.0136627
0.0136557
0.0136501
0.0136613
0.0136512
0.0128778
0.0132976
0.0132903
0.0132849
0.013292
0.013292
0.0132914
0.01329
0.0132946
0.0132944
0.013845
0.0142765
0.0142975
0.0142536
0.014266
0.0142607
0.0142555
0.0142517
0.0142534
0.0142434
0.0126955
0.0130114
0.0130447
0.0130389
0.0130469
0.0130477
0.013046
0.0130439
0.0130369
0.0130309
0.00425779
0.00455405
0.0045508
0.00453354
0.00453471
0.00453296
0.00453033
0.00452829
0.00453252
0.00454886
0.00470265
0.0051466
0.00514352
0.00511974
0.00511859
0.00511114
0.00510803
0.00510647
0.00511764
0.00513741
0.00438902
0.00478327
0.00477359
0.00476724
0.00476816
0.00476651
0.00476652
0.00476673
0.00477253
0.00479866
0.00450914
0.00493711
0.00493055
0.0049087
0.00490969
0.00490353
0.00490035
0.00489861
0.00490919
0.00493288
0.00441392
0.00483245
0.00481416
0.00477902
0.0047773
0.00476863
0.00476437
0.00476165
0.00477708
0.0048027
0.00444794
0.00488699
0.00485962
0.00482322
0.00481867
0.00480923
0.00480546
0.00480256
0.00481802
0.00484609
0.00444794
0.004887
0.00485962
0.00482322
0.00481866
0.00480925
0.00480542
0.00480262
0.00481786
0.00484607
0.00441392
0.00483246
0.00481415
0.00477903
0.00477728
0.00476868
0.00476427
0.0047618
0.00477684
0.00480322
0.00450913
0.00493712
0.00493054
0.00490873
0.00490965
0.00490362
0.00490017
0.00489888
0.0049088
0.00493344
0.00438901
0.00478328
0.00477357
0.00476727
0.00476811
0.00476662
0.00476635
0.00476701
0.0047721
0.00479969
0.00470264
0.00514661
0.0051435
0.00511977
0.00511853
0.00511126
0.00510779
0.00510691
0.00511689
0.00513873
0.00425779
0.00455406
0.00455078
0.00453357
0.00453466
0.00453308
0.00453015
0.00452873
0.00453195
0.00455046
0.00164221
0.0018434
0.00181123
0.00176831
0.00176084
0.0017594
0.00175516
0.00176601
0.00176405
0.00181191
0.00148596
0.00186596
0.00190798
0.00191295
0.00191274
0.00191132
0.00190996
0.00191242
0.00191492
0.00194101
0.00135442
0.00173282
0.00176427
0.00177319
0.00177667
0.00177701
0.00177824
0.00178106
0.00178538
0.00181155
0.00138489
0.00175526
0.00179062
0.00179169
0.00179448
0.00179429
0.0017949
0.00179671
0.00180122
0.00182672
0.0013564
0.00172476
0.00175641
0.00175491
0.00175382
0.00175024
0.00174909
0.00174949
0.00175424
0.00177927
0.00136802
0.0017398
0.00176801
0.00176257
0.0017593
0.00175523
0.00175621
0.00175669
0.00175826
0.00178132
0.00136801
0.0017398
0.00176801
0.00176257
0.00175929
0.00175524
0.0017562
0.0017567
0.00175824
0.00178125
0.00135639
0.00172476
0.0017564
0.00175492
0.00175381
0.00175025
0.00174904
0.00174947
0.00175414
0.00177913
0.00138488
0.00175527
0.00179061
0.0017917
0.00179446
0.00179431
0.00179487
0.00179674
0.00180113
0.0018266
0.00135442
0.00173282
0.00176426
0.00177321
0.00177663
0.00177704
0.00177818
0.00178114
0.00178516
0.0018115
0.00148595
0.00186597
0.00190796
0.00191297
0.00191271
0.00191141
0.00190984
0.00191272
0.00191466
0.00194156
0.0016422
0.00184342
0.00181122
0.00176835
0.00176081
0.00175956
0.00175511
0.00176689
0.00176432
0.00181416
0.00164221
0.0018434
0.00181123
0.00176831
0.00176084
0.0017594
0.00175516
0.00176601
0.00176405
0.00181191
0.00148596
0.00186596
0.00190798
0.00191295
0.00191274
0.00191132
0.00190996
0.00191242
0.00191492
0.00194101
0.00135442
0.00173282
0.00176427
0.00177319
0.00177667
0.00177701
0.00177824
0.00178106
0.00178538
0.00181155
0.00138489
0.00175526
0.00179062
0.00179169
0.00179448
0.00179429
0.0017949
0.00179671
0.00180122
0.00182672
0.0013564
0.00172476
0.00175641
0.00175491
0.00175382
0.00175024
0.00174909
0.00174949
0.00175424
0.00177927
0.00136802
0.0017398
0.00176801
0.00176257
0.0017593
0.00175523
0.00175621
0.00175669
0.00175826
0.00178132
0.00136801
0.0017398
0.00176801
0.00176257
0.00175929
0.00175524
0.0017562
0.0017567
0.00175824
0.00178125
0.00135639
0.00172476
0.0017564
0.00175492
0.00175381
0.00175025
0.00174904
0.00174947
0.00175414
0.00177913
0.00138488
0.00175527
0.00179061
0.0017917
0.00179446
0.00179431
0.00179487
0.00179674
0.00180113
0.0018266
0.00135442
0.00173282
0.00176426
0.00177321
0.00177663
0.00177704
0.00177818
0.00178114
0.00178516
0.0018115
0.00148595
0.00186597
0.00190796
0.00191297
0.00191271
0.00191141
0.00190984
0.00191272
0.00191466
0.00194156
0.0016422
0.00184342
0.00181122
0.00176835
0.00176081
0.00175956
0.00175511
0.00176689
0.00176432
0.00181416
0.00425779
0.00455405
0.0045508
0.00453354
0.00453471
0.00453296
0.00453033
0.00452829
0.00453252
0.00454886
0.00470265
0.0051466
0.00514352
0.00511974
0.00511859
0.00511114
0.00510803
0.00510647
0.00511764
0.00513741
0.00438902
0.00478327
0.00477359
0.00476724
0.00476816
0.00476651
0.00476652
0.00476673
0.00477253
0.00479866
0.00450914
0.00493711
0.00493055
0.0049087
0.00490969
0.00490353
0.00490035
0.00489861
0.00490919
0.00493288
0.00441392
0.00483245
0.00481416
0.00477902
0.0047773
0.00476863
0.00476437
0.00476165
0.00477708
0.0048027
0.00444794
0.00488699
0.00485962
0.00482322
0.00481867
0.00480923
0.00480546
0.00480256
0.00481802
0.00484609
0.00444794
0.004887
0.00485962
0.00482322
0.00481866
0.00480925
0.00480542
0.00480262
0.00481786
0.00484607
0.00441392
0.00483246
0.00481415
0.00477903
0.00477728
0.00476868
0.00476427
0.0047618
0.00477684
0.00480322
0.00450913
0.00493712
0.00493054
0.00490873
0.00490965
0.00490362
0.00490017
0.00489888
0.0049088
0.00493344
0.00438901
0.00478328
0.00477357
0.00476727
0.00476811
0.00476662
0.00476635
0.00476701
0.0047721
0.00479969
0.00470264
0.00514661
0.0051435
0.00511977
0.00511853
0.00511126
0.00510779
0.00510691
0.00511689
0.00513873
0.00425779
0.00455406
0.00455078
0.00453357
0.00453466
0.00453308
0.00453015
0.00452873
0.00453195
0.00455046
0.0126955
0.0130114
0.0130448
0.0130388
0.0130471
0.0130475
0.0130464
0.0130431
0.0130387
0.0130275
0.013845
0.0142765
0.0142976
0.0142535
0.0142661
0.0142605
0.014256
0.0142508
0.0142553
0.0142396
0.0128779
0.0132976
0.0132903
0.0132848
0.0132922
0.0132918
0.0132919
0.0132893
0.0132962
0.0132914
0.0132665
0.0137042
0.0136996
0.0136592
0.013671
0.0136625
0.013656
0.0136494
0.0136626
0.0136487
0.012999
0.0134197
0.0134098
0.0133418
0.0133508
0.0133382
0.0133306
0.0133219
0.0133328
0.0133208
0.0131105
0.0135078
0.0134952
0.0134349
0.0134421
0.0134317
0.0134238
0.0134154
0.0134291
0.0134167
0.0131105
0.0135078
0.0134952
0.0134349
0.0134421
0.0134317
0.0134237
0.0134155
0.0134289
0.0134174
0.012999
0.0134198
0.0134098
0.0133419
0.0133507
0.0133384
0.0133303
0.0133223
0.013332
0.0133221
0.0132665
0.0137042
0.0136995
0.0136592
0.0136709
0.0136627
0.0136557
0.0136501
0.0136613
0.0136512
0.0128778
0.0132976
0.0132903
0.0132849
0.013292
0.013292
0.0132914
0.01329
0.0132946
0.0132944
0.013845
0.0142765
0.0142975
0.0142536
0.014266
0.0142607
0.0142555
0.0142517
0.0142534
0.0142434
0.0126955
0.0130114
0.0130447
0.0130389
0.0130469
0.0130477
0.013046
0.0130439
0.0130369
0.0130309
0.0376523
0.0379927
0.0380969
0.0381182
0.0381453
0.0381554
0.0381598
0.0381556
0.0381212
0.0380499
0.0375382
0.0380472
0.0380734
0.038102
0.0381256
0.0381366
0.0381446
0.0381438
0.0381373
0.0380536
0.0366122
0.0371964
0.0371801
0.0372017
0.0372212
0.0372293
0.0372367
0.0372352
0.0372463
0.0371578
0.0371104
0.0375581
0.0375519
0.0375699
0.0375879
0.0375948
0.0376024
0.0375996
0.0376042
0.0375143
0.0368662
0.0373011
0.0373035
0.0373137
0.0373291
0.0373339
0.0373399
0.0373356
0.0373425
0.0372495
0.0369986
0.0373901
0.0373769
0.0373823
0.0373948
0.0373984
0.0374039
0.0373986
0.0374068
0.0373145
0.0369986
0.0373901
0.0373769
0.0373824
0.0373947
0.0373985
0.0374036
0.037399
0.037406
0.037316
0.0368662
0.0373011
0.0373034
0.0373138
0.0373289
0.0373342
0.0373393
0.0373367
0.0373402
0.0372537
0.0371104
0.0375582
0.0375518
0.0375701
0.0375876
0.0375953
0.0376015
0.0376013
0.0376007
0.037521
0.0366122
0.0371964
0.03718
0.0372019
0.0372208
0.0372299
0.0372355
0.0372373
0.037242
0.0371664
0.0375381
0.0380473
0.0380733
0.0381022
0.0381252
0.0381373
0.0381433
0.0381462
0.0381325
0.0380633
0.0376523
0.0379928
0.0380968
0.0381184
0.0381449
0.0381561
0.0381586
0.0381579
0.0381164
0.0380593
0.0624919
0.0629853
0.0630249
0.0630984
0.0631297
0.0631552
0.0631708
0.0631752
0.0631698
0.0630381
0.0404855
0.0406257
0.0406135
0.04067
0.0406826
0.0407021
0.0407123
0.0407143
0.0407167
0.0406401
0.0379601
0.0381355
0.0380544
0.0381134
0.0381161
0.0381356
0.0381452
0.0381486
0.0381707
0.0380909
0.0382592
0.038339
0.0382993
0.0383546
0.0383556
0.0383737
0.0383799
0.0383802
0.0383886
0.038304
0.0380566
0.0381404
0.0380832
0.0381295
0.0381255
0.0381413
0.0381467
0.0381457
0.0381563
0.0380718
0.0381702
0.0382121
0.0381551
0.0382004
0.0381943
0.0382095
0.0382136
0.0382122
0.0382233
0.0381393
0.0381702
0.0382121
0.038155
0.0382004
0.0381942
0.0382096
0.0382134
0.0382126
0.0382225
0.0381405
0.0380566
0.0381404
0.0380831
0.0381296
0.0381253
0.0381416
0.0381461
0.0381469
0.038154
0.0380757
0.0382591
0.038339
0.0382992
0.0383547
0.0383553
0.0383742
0.0383789
0.0383819
0.038385
0.038311
0.03796
0.0381356
0.0380543
0.0381136
0.0381157
0.0381363
0.038144
0.0381507
0.0381663
0.0380995
0.0404854
0.0406258
0.0406134
0.0406702
0.0406822
0.0407028
0.0407109
0.0407168
0.0407116
0.04065
0.0624919
0.0629854
0.0630247
0.0630988
0.0631291
0.0631563
0.0631688
0.063179
0.063162
0.0630541
0.188831
0.189511
0.189902
0.19026
0.190617
0.19097
0.191324
0.191677
0.192031
0.192383
0.192736
0.193089
0.193442
0.193794
0.194147
0.194499
0.194851
0.195204
0.195556
0.195907
0.196259
0.196611
0.196963
0.197315
0.197666
0.198016
0.198368
0.198721
0.199073
0.199426
0.199771
0.200123
0.200461
0.200833
0.201161
0.201571
0.201851
0.202311
0.202471
0.20307
0.147598
0.148297
0.148608
0.148898
0.14918
0.149464
0.149746
0.150028
0.15031
0.150592
0.150874
0.151156
0.151437
0.151719
0.152
0.152282
0.152563
0.152845
0.153126
0.153407
0.153688
0.15397
0.154251
0.154532
0.154812
0.155093
0.155374
0.155656
0.155937
0.156219
0.156495
0.156776
0.157047
0.157345
0.157609
0.157936
0.158157
0.158524
0.158645
0.159124
0.137918
0.138687
0.138975
0.139253
0.139515
0.139783
0.140047
0.140313
0.140577
0.140843
0.141108
0.141373
0.141637
0.141902
0.142167
0.142431
0.142696
0.142961
0.143225
0.143489
0.143754
0.144018
0.144283
0.144547
0.14481
0.145074
0.145338
0.145604
0.145868
0.146133
0.146392
0.146657
0.146912
0.147192
0.14744
0.147747
0.147954
0.1483
0.148413
0.148858
0.137425
0.13825
0.13853
0.138809
0.139068
0.139337
0.139599
0.139864
0.140127
0.140392
0.140655
0.140919
0.141183
0.141447
0.14171
0.141974
0.142237
0.142501
0.142764
0.143027
0.143291
0.143554
0.143818
0.14408
0.144343
0.144606
0.144869
0.145133
0.145396
0.14566
0.145918
0.146182
0.146436
0.146715
0.146961
0.147268
0.147474
0.147818
0.147931
0.148368
0.1367
0.137564
0.137838
0.138118
0.138374
0.138643
0.138903
0.139168
0.13943
0.139694
0.139957
0.14022
0.140483
0.140746
0.141008
0.141271
0.141534
0.141796
0.142059
0.142321
0.142584
0.142846
0.143109
0.143371
0.143632
0.143894
0.144157
0.14442
0.144682
0.144945
0.145203
0.145466
0.145719
0.145997
0.146242
0.146548
0.146753
0.147097
0.147209
0.147642
0.136697
0.137569
0.137838
0.138118
0.138373
0.138642
0.138902
0.139167
0.139428
0.139692
0.139954
0.140217
0.14048
0.140742
0.141005
0.141267
0.14153
0.141792
0.142054
0.142316
0.142578
0.142841
0.143103
0.143365
0.143626
0.143888
0.14415
0.144413
0.144675
0.144937
0.145194
0.145457
0.14571
0.145988
0.146232
0.146538
0.146743
0.147087
0.147199
0.147628
0.136663
0.137518
0.137783
0.138063
0.138318
0.138587
0.138846
0.139112
0.139373
0.139637
0.139899
0.140162
0.140424
0.140687
0.140949
0.141212
0.141474
0.141736
0.141999
0.142261
0.142523
0.142785
0.143047
0.143309
0.14357
0.143832
0.144094
0.144357
0.144619
0.144882
0.145139
0.145401
0.145654
0.145932
0.146176
0.146482
0.146687
0.147031
0.147143
0.147572
0.136598
0.137411
0.137675
0.137953
0.138209
0.138478
0.138738
0.139003
0.139265
0.139529
0.139791
0.140054
0.140317
0.14058
0.140842
0.141105
0.141368
0.14163
0.141893
0.142155
0.142417
0.14268
0.142942
0.143204
0.143466
0.143728
0.14399
0.144253
0.144516
0.144778
0.145036
0.145299
0.145552
0.14583
0.146075
0.146381
0.146585
0.14693
0.147042
0.147474
0.13725
0.137995
0.13826
0.138536
0.138795
0.139063
0.139325
0.139591
0.139853
0.140118
0.140381
0.140645
0.140909
0.141172
0.141436
0.141699
0.141963
0.142226
0.142489
0.142752
0.143015
0.143279
0.143542
0.143805
0.144067
0.14433
0.144593
0.144857
0.14512
0.145384
0.145642
0.145906
0.146159
0.146438
0.146684
0.146991
0.147196
0.147541
0.147653
0.148091
0.137663
0.13833
0.138599
0.138873
0.139135
0.139403
0.139666
0.139932
0.140196
0.140462
0.140726
0.140991
0.141256
0.14152
0.141785
0.142049
0.142314
0.142578
0.142842
0.143106
0.143371
0.143635
0.143899
0.144163
0.144427
0.14469
0.144954
0.145219
0.145484
0.145748
0.146007
0.146272
0.146527
0.146807
0.147054
0.147362
0.147568
0.147914
0.148027
0.148472
0.147241
0.147815
0.148105
0.148391
0.148673
0.148956
0.149237
0.149519
0.149801
0.150083
0.150364
0.150646
0.150927
0.151209
0.15149
0.151771
0.152053
0.152334
0.152615
0.152896
0.153177
0.153458
0.153739
0.15402
0.1543
0.15458
0.154861
0.155143
0.155424
0.155705
0.155981
0.156262
0.156533
0.156831
0.157094
0.157421
0.157641
0.158008
0.15813
0.158609
0.188319
0.188837
0.189201
0.189553
0.18991
0.190261
0.190616
0.190968
0.191321
0.191674
0.192026
0.192379
0.192731
0.193084
0.193436
0.193788
0.19414
0.194492
0.194844
0.195195
0.195547
0.195899
0.19625
0.196602
0.196952
0.197302
0.197654
0.198006
0.198358
0.198711
0.199055
0.199408
0.199745
0.200116
0.200444
0.200854
0.201133
0.201593
0.201753
0.202352
0.125552
0.12599
0.126236
0.126471
0.126711
0.126945
0.127182
0.127417
0.127653
0.127889
0.128124
0.12836
0.128595
0.128831
0.129066
0.129301
0.129536
0.129772
0.130007
0.130242
0.130477
0.130712
0.130947
0.131181
0.131416
0.13165
0.131885
0.13212
0.132355
0.132591
0.132821
0.133056
0.133282
0.133531
0.133751
0.134024
0.13421
0.134516
0.134623
0.135025
0.133369
0.133917
0.134195
0.134451
0.134711
0.134965
0.135222
0.135478
0.135734
0.135989
0.136245
0.136501
0.136757
0.137012
0.137268
0.137523
0.137779
0.138034
0.138289
0.138544
0.138799
0.139055
0.13931
0.139565
0.139819
0.140074
0.140329
0.140585
0.14084
0.141096
0.141346
0.141602
0.141848
0.142118
0.142357
0.142654
0.142854
0.143188
0.1433
0.143737
0.1305
0.131114
0.131387
0.131638
0.131893
0.132142
0.132395
0.132645
0.132896
0.133147
0.133398
0.133649
0.1339
0.13415
0.134401
0.134652
0.134902
0.135153
0.135403
0.135653
0.135904
0.136154
0.136405
0.136655
0.136904
0.137154
0.137404
0.137656
0.137906
0.138157
0.138402
0.138653
0.138895
0.13916
0.139394
0.139686
0.139882
0.140209
0.140319
0.140743
0.130729
0.131406
0.13168
0.131932
0.132186
0.132435
0.132687
0.132937
0.133188
0.133439
0.133689
0.13394
0.13419
0.134441
0.134691
0.134941
0.135191
0.135442
0.135692
0.135942
0.136192
0.136442
0.136692
0.136942
0.137191
0.13744
0.13769
0.137941
0.138191
0.138441
0.138686
0.138937
0.139178
0.139443
0.139677
0.139968
0.140164
0.140491
0.1406
0.141019
0.130119
0.13083
0.131102
0.131354
0.131607
0.131856
0.132107
0.132357
0.132607
0.132857
0.133107
0.133357
0.133606
0.133856
0.134106
0.134355
0.134605
0.134855
0.135104
0.135353
0.135603
0.135852
0.136102
0.136351
0.136599
0.136848
0.137097
0.137348
0.137597
0.137847
0.138091
0.138341
0.138581
0.138846
0.139079
0.139369
0.139564
0.139892
0.14
0.140416
0.130052
0.130775
0.131044
0.131295
0.131547
0.131796
0.132046
0.132295
0.132545
0.132795
0.133044
0.133294
0.133543
0.133792
0.134041
0.134291
0.13454
0.134789
0.135038
0.135287
0.135535
0.135784
0.136033
0.136282
0.13653
0.136778
0.137027
0.137277
0.137526
0.137775
0.138019
0.138269
0.138508
0.138772
0.139004
0.139295
0.139489
0.139816
0.139925
0.140338
0.13002
0.130725
0.130992
0.131242
0.131494
0.131742
0.131993
0.132242
0.132492
0.132741
0.132991
0.13324
0.13349
0.133739
0.133988
0.134237
0.134486
0.134735
0.134984
0.135233
0.135482
0.135731
0.13598
0.136228
0.136476
0.136725
0.136973
0.137223
0.137472
0.137721
0.137965
0.138215
0.138454
0.138718
0.13895
0.139241
0.139435
0.139762
0.139871
0.140284
0.13002
0.130682
0.130945
0.131195
0.131448
0.131697
0.131948
0.132197
0.132448
0.132697
0.132947
0.133197
0.133447
0.133696
0.133946
0.134196
0.134445
0.134695
0.134944
0.135193
0.135442
0.135692
0.135941
0.13619
0.136439
0.136687
0.136937
0.137187
0.137436
0.137686
0.13793
0.13818
0.13842
0.138685
0.138917
0.139208
0.139403
0.13973
0.139839
0.140254
0.13056
0.131159
0.131419
0.131668
0.131922
0.132171
0.132423
0.132673
0.132924
0.133174
0.133425
0.133675
0.133925
0.134176
0.134426
0.134676
0.134926
0.135176
0.135426
0.135676
0.135926
0.136176
0.136426
0.136675
0.136925
0.137174
0.137424
0.137674
0.137924
0.138174
0.138419
0.13867
0.138911
0.139176
0.139409
0.1397
0.139896
0.140223
0.140333
0.140751
0.130255
0.130771
0.131026
0.131275
0.131529
0.131778
0.13203
0.13228
0.132531
0.132782
0.133033
0.133283
0.133534
0.133784
0.134035
0.134285
0.134536
0.134786
0.135036
0.135286
0.135537
0.135787
0.136037
0.136287
0.136537
0.136786
0.137036
0.137287
0.137538
0.137788
0.138033
0.138284
0.138525
0.138791
0.139025
0.139316
0.139512
0.139839
0.139949
0.140373
0.133042
0.133477
0.133735
0.133988
0.134247
0.134501
0.134758
0.135013
0.135269
0.135524
0.13578
0.136035
0.136291
0.136546
0.136801
0.137057
0.137312
0.137567
0.137822
0.138077
0.138332
0.138587
0.138842
0.139097
0.139351
0.139605
0.13986
0.140116
0.140371
0.140626
0.140876
0.141132
0.141378
0.141648
0.141887
0.142183
0.142383
0.142716
0.142828
0.143265
0.125197
0.125527
0.125755
0.125986
0.126225
0.126459
0.126696
0.12693
0.127167
0.127402
0.127637
0.127873
0.128108
0.128343
0.128578
0.128813
0.129048
0.129283
0.129518
0.129753
0.129988
0.130223
0.130457
0.130692
0.130926
0.13116
0.131394
0.13163
0.131865
0.1321
0.13233
0.132565
0.132791
0.13304
0.133259
0.133532
0.133717
0.134024
0.13413
0.134533
0.0597376
0.0600008
0.0601135
0.0602252
0.0603389
0.0604502
0.0605634
0.0606753
0.060788
0.0609002
0.0610127
0.0611249
0.0612372
0.0613494
0.0614617
0.0615739
0.0616861
0.0617982
0.0619102
0.0620223
0.0621344
0.0622465
0.0623585
0.0624703
0.062582
0.0626939
0.0628061
0.0629185
0.0630303
0.063142
0.0632517
0.0633642
0.0634732
0.0635924
0.0636976
0.0638269
0.0639127
0.0640581
0.0641063
0.0643038
0.0695688
0.0699273
0.0700624
0.0701924
0.0703293
0.0704606
0.0705965
0.0707294
0.0708643
0.0709978
0.0711322
0.071266
0.0714001
0.071534
0.0716679
0.0718018
0.0719357
0.0720695
0.0722033
0.072337
0.0724709
0.0726047
0.0727384
0.0728719
0.0730053
0.0731389
0.0732728
0.0734071
0.0735405
0.0736738
0.0738049
0.0739393
0.0740696
0.0742121
0.0743377
0.0744919
0.074594
0.074768
0.074826
0.0750614
0.0683218
0.0687574
0.0688834
0.0690076
0.0691437
0.0692716
0.0694066
0.0695371
0.0696706
0.0698022
0.0699349
0.0700669
0.0701993
0.0703314
0.0704637
0.0705958
0.070728
0.0708601
0.0709922
0.0711242
0.0712563
0.0713884
0.0715204
0.0716522
0.0717839
0.0719159
0.0720481
0.0721806
0.0723124
0.0724439
0.0725734
0.0727062
0.072835
0.0729758
0.0730997
0.0732519
0.0733526
0.0735249
0.0735838
0.0738151
0.0682535
0.0687504
0.0688831
0.069008
0.0691425
0.0692701
0.0694034
0.0695329
0.069665
0.0697954
0.0699268
0.0700576
0.0701887
0.0703195
0.0704505
0.0705814
0.0707123
0.070843
0.0709738
0.0711045
0.0712353
0.0713662
0.0714968
0.0716273
0.0717577
0.0718883
0.0720192
0.0721504
0.0722808
0.0724111
0.0725392
0.0726707
0.0727981
0.0729374
0.0730599
0.0732108
0.0733102
0.0734809
0.0735378
0.073764
0.0679126
0.0684555
0.0685885
0.0687139
0.0688478
0.0689754
0.0691082
0.0692376
0.0693693
0.0694995
0.0696305
0.069761
0.0698918
0.0700223
0.0701529
0.0702835
0.0704141
0.0705445
0.070675
0.0708054
0.0709359
0.0710664
0.0711967
0.0713269
0.0714569
0.0715872
0.0717178
0.0718486
0.0719787
0.0721086
0.0722364
0.0723675
0.0724945
0.0726334
0.0727556
0.0729061
0.0730052
0.0731757
0.0732317
0.0734558
0.0677748
0.0683328
0.0684643
0.0685883
0.0687219
0.0688487
0.0689812
0.0691099
0.0692411
0.0693708
0.0695013
0.0696313
0.0697616
0.0698916
0.0700217
0.0701517
0.0702818
0.0704118
0.0705417
0.0706716
0.0708016
0.0709315
0.0710614
0.071191
0.0713206
0.0714503
0.0715804
0.0717108
0.0718403
0.0719698
0.0720971
0.0722277
0.0723542
0.0724926
0.0726142
0.0727643
0.0728629
0.073033
0.0730892
0.073312
0.067758
0.068307
0.0684367
0.0685604
0.068694
0.0688208
0.0689532
0.069082
0.0692132
0.0693428
0.0694733
0.0696033
0.0697335
0.0698635
0.0699937
0.0701237
0.0702537
0.0703837
0.0705136
0.0706435
0.0707735
0.0709034
0.0710333
0.0711629
0.0712924
0.0714222
0.0715522
0.0716826
0.0718121
0.0719416
0.0720689
0.0721994
0.0723259
0.0724643
0.072586
0.072736
0.0728347
0.0730047
0.0730609
0.0732837
0.0678614
0.0683782
0.0685063
0.0686306
0.0687644
0.068892
0.0690247
0.0691541
0.0692857
0.0694158
0.0695469
0.0696773
0.069808
0.0699385
0.0700691
0.0701996
0.0703302
0.0704606
0.070591
0.0707214
0.0708518
0.0709823
0.0711126
0.0712427
0.0713727
0.071503
0.0716335
0.0717643
0.0718944
0.0720243
0.072152
0.0722831
0.07241
0.072549
0.072671
0.0728216
0.0729205
0.073091
0.073147
0.0733711
0.0681649
0.0686208
0.0687458
0.0688692
0.0690036
0.069131
0.0692643
0.0693937
0.0695257
0.0696561
0.0697874
0.0699181
0.0700492
0.0701799
0.0703109
0.0704417
0.0705725
0.0707032
0.0708339
0.0709646
0.0710953
0.0712261
0.0713567
0.0714871
0.0716174
0.071748
0.0718788
0.0720099
0.0721403
0.0722705
0.0723985
0.0725299
0.0726573
0.0727965
0.072919
0.0730698
0.0731691
0.0733397
0.0733967
0.0736229
0.0681931
0.0685762
0.0686928
0.0688151
0.068951
0.0690787
0.0692137
0.069344
0.0694775
0.0696089
0.0697416
0.0698735
0.0700058
0.0701379
0.07027
0.0704021
0.0705342
0.0706662
0.0707981
0.0709301
0.0710621
0.0711942
0.0713261
0.0714578
0.0715894
0.0717212
0.0718534
0.0719858
0.0721175
0.0722489
0.0723783
0.072511
0.0726398
0.0727804
0.0729043
0.0730564
0.0731569
0.073329
0.0733879
0.0736192
0.0693974
0.0696959
0.0698205
0.0699483
0.0700849
0.070216
0.0703519
0.0704846
0.0706194
0.0707528
0.070887
0.0710207
0.0711547
0.0712885
0.0714223
0.0715561
0.0716899
0.0718236
0.0719572
0.0720908
0.0722245
0.0723583
0.0724919
0.0726252
0.0727585
0.072892
0.0730258
0.0731599
0.0732932
0.0734264
0.0735574
0.0736917
0.0738219
0.0739643
0.0740898
0.0742438
0.0743458
0.0745196
0.0745775
0.0748129
0.0595651
0.0597759
0.0598796
0.0599895
0.0601029
0.060214
0.0603272
0.0604389
0.0605516
0.0606636
0.060776
0.0608882
0.0610004
0.0611125
0.0612247
0.0613368
0.0614489
0.0615609
0.0616728
0.0617848
0.0618968
0.0620088
0.0621207
0.0622324
0.062344
0.0624558
0.0625679
0.0626802
0.0627919
0.0629034
0.0630131
0.0631255
0.0632344
0.0633536
0.0634586
0.0635877
0.0636734
0.0638188
0.0638669
0.0640643
0.0288274
0.0290417
0.0290893
0.0291475
0.0292002
0.0292553
0.0293097
0.0293643
0.029419
0.0294735
0.0295282
0.0295828
0.0296373
0.0296919
0.0297465
0.029801
0.0298556
0.02991
0.0299645
0.030019
0.0300736
0.030128
0.0301824
0.0302368
0.0302912
0.0303457
0.0304003
0.0304548
0.0305089
0.0305629
0.0306166
0.0306718
0.0307257
0.0307836
0.0308344
0.0308954
0.0309356
0.0310063
0.0310298
0.0311341
0.0356623
0.0359835
0.0360492
0.0361154
0.0361854
0.0362524
0.0363228
0.0363909
0.0364606
0.0365293
0.0365987
0.0366676
0.0367367
0.0368057
0.0368748
0.0369438
0.0370128
0.0370818
0.0371508
0.0372197
0.0372887
0.0373577
0.0374265
0.0374953
0.0375642
0.0376333
0.0377024
0.0377713
0.0378398
0.0379082
0.0379762
0.0380461
0.0381144
0.0381877
0.0382521
0.0383293
0.0383802
0.0384699
0.0385006
0.0386299
0.0354837
0.035893
0.035959
0.0360219
0.0360932
0.0361589
0.0362299
0.0362975
0.0363674
0.0364358
0.0365052
0.036574
0.0366431
0.036712
0.036781
0.03685
0.0369189
0.0369878
0.0370567
0.0371256
0.0371946
0.0372635
0.0373322
0.037401
0.0374698
0.0375388
0.0376078
0.0376767
0.0377451
0.0378135
0.0378815
0.0379514
0.0380197
0.0380929
0.0381571
0.0382342
0.0382849
0.0383748
0.0384062
0.0385347
0.0355251
0.0360008
0.036072
0.0361338
0.0362056
0.0362706
0.0363417
0.0364088
0.0364786
0.0365467
0.0366159
0.0366844
0.0367532
0.0368219
0.0368906
0.0369593
0.037028
0.0370966
0.0371652
0.0372339
0.0373025
0.0373711
0.0374397
0.0375081
0.0375767
0.0376454
0.0377141
0.0377827
0.0378508
0.0379189
0.0379866
0.0380562
0.0381241
0.038197
0.0382609
0.0383379
0.0383883
0.038478
0.038509
0.0386351
0.0352644
0.0357893
0.0358621
0.0359237
0.0359954
0.0360599
0.0361307
0.0361975
0.036267
0.0363347
0.0364036
0.0364717
0.0365403
0.0366085
0.036677
0.0367453
0.0368136
0.0368819
0.0369502
0.0370185
0.0370868
0.0371551
0.0372233
0.0372914
0.0373596
0.0374279
0.0374963
0.0375645
0.0376322
0.0377
0.0377672
0.0378364
0.0379039
0.0379764
0.0380399
0.0381165
0.0381665
0.0382558
0.0382859
0.0384107
0.0352188
0.0357618
0.0358345
0.035895
0.0359667
0.0360309
0.0361015
0.036168
0.0362374
0.0363049
0.0363736
0.0364415
0.0365099
0.036578
0.0366462
0.0367143
0.0367825
0.0368506
0.0369187
0.0369868
0.0370549
0.037123
0.037191
0.0372589
0.0373269
0.0373951
0.0374633
0.0375314
0.0375989
0.0376665
0.0377336
0.0378026
0.03787
0.0379424
0.0380057
0.0380822
0.0381321
0.0382213
0.0382519
0.0383761
0.03521
0.0357485
0.0358201
0.0358804
0.0359521
0.0360162
0.0360869
0.0361534
0.0362227
0.0362902
0.0363589
0.0364268
0.0364952
0.0365633
0.0366315
0.0366996
0.0367678
0.0368359
0.036904
0.0369721
0.0370402
0.0371082
0.0371762
0.0372441
0.0373121
0.0373803
0.0374485
0.0375166
0.0375842
0.0376517
0.0377188
0.0377879
0.0378552
0.0379276
0.0379909
0.0380674
0.0381172
0.0382065
0.0382371
0.0383613
0.0352378
0.0357491
0.0358191
0.03588
0.0359516
0.0360161
0.0360868
0.0361536
0.0362231
0.0362908
0.0363596
0.0364277
0.0364963
0.0365645
0.0366329
0.0367012
0.0367695
0.0368378
0.0369061
0.0369744
0.0370427
0.0371109
0.037179
0.0372471
0.0373153
0.0373837
0.037452
0.0375203
0.037588
0.0376558
0.037723
0.0377922
0.0378597
0.0379322
0.0379956
0.0380722
0.0381221
0.0382114
0.0382415
0.0383663
0.0354787
0.0359327
0.0359996
0.0360606
0.0361323
0.0361972
0.0362682
0.0363353
0.036405
0.0364731
0.0365423
0.0366107
0.0366796
0.0367481
0.0368169
0.0368855
0.0369542
0.0370227
0.0370914
0.03716
0.0372286
0.0372972
0.0373656
0.0374341
0.0375026
0.0375713
0.03764
0.0377085
0.0377766
0.0378447
0.0379123
0.0379819
0.0380498
0.0381227
0.0381865
0.0382634
0.0383137
0.0384034
0.0384344
0.0385605
0.0354168
0.0357983
0.0358591
0.035921
0.0359921
0.0360577
0.0361287
0.0361962
0.0362661
0.0363345
0.0364038
0.0364725