/*--------------------------------*- C++ -*----------------------------------*\
  =========                 |
  \\      /  F ield         | OpenFOAM: The Open Source CFD Toolbox
   \\    /   O peration     | Website:  https://openfoam.org
    \\  /    A nd           | Version:  7
     \\/     M anipulation  |
\*---------------------------------------------------------------------------*/
FoamFile
{
    version     2.0;
    format      ascii;
    class       surfaceScalarField;
    location    "1";
    object      phi_0;
}
// * * * * * * * * * * * * * * * * * * * * * * * * * * * * * * * * * * * * * //

dimensions      [1 0 -1 0 0 0 0];

internalField   nonuniform List<scalar> 
4660
(
-5.48974e-18
2.34418e-17
-1.29389e-17
4.73265e-17
-1.95834e-17
5.29812e-17
1.71094e-17
5.71123e-17
3.49579e-17
8.74475e-17
8.71286e-17
8.86115e-17
1.59374e-16
8.53122e-17
2.82562e-16
4.59397e-17
3.90245e-16
8.09514e-17
5.58862e-16
4.53862e-17
7.02753e-16
7.69387e-17
8.84421e-16
4.10322e-17
1.04931e-15
7.92213e-17
1.25547e-15
3.91593e-17
1.47266e-15
3.58065e-17
1.69009e-15
3.57118e-17
1.90824e-15
3.44828e-17
2.09028e-15
6.9325e-17
2.31691e-15
3.45064e-17
2.5449e-15
2.5969e-17
2.76545e-15
2.27851e-17
2.94132e-15
6.24483e-17
3.15263e-15
2.18491e-17
3.36008e-15
1.62956e-17
3.56421e-15
1.81273e-17
3.71246e-15
4.96693e-17
3.89256e-15
1.04787e-17
4.06865e-15
1.19486e-17
4.23191e-15
1.53301e-17
4.38133e-15
1.92134e-17
4.52318e-15
1.73767e-17
4.65953e-15
1.19331e-17
4.7876e-15
1.0812e-17
4.9011e-15
1.72303e-17
5.00259e-15
1.49795e-17
5.13918e-15
-1.78592e-17
5.23218e-15
1.65381e-17
5.31711e-15
1.95524e-17
5.39429e-15
1.19445e-17
5.4717e-15
1.29124e-17
5.53955e-15
1.35789e-17
5.60428e-15
8.96199e-18
5.69657e-15
-2.61165e-17
5.74765e-15
1.08975e-17
5.79312e-15
6.41733e-18
5.83944e-15
2.98096e-18
5.87909e-15
4.63764e-18
5.91871e-15
8.48428e-18
5.94788e-15
5.74945e-18
5.97958e-15
6.24988e-18
6.04304e-15
-3.15167e-17
6.05894e-15
4.29485e-18
6.08206e-15
5.10731e-18
6.10024e-15
6.81476e-18
6.11584e-15
6.34834e-18
6.12859e-15
2.68974e-18
6.14907e-15
6.29027e-19
6.16733e-15
1.54023e-18
6.17491e-15
-2.16638e-18
6.19284e-15
2.05428e-18
6.20754e-15
-3.17408e-18
6.20521e-15
5.02152e-18
6.20703e-15
2.596e-18
6.21972e-15
1.45262e-18
6.22307e-15
-7.89831e-19
6.22895e-15
6.00154e-19
6.22789e-15
-2.47751e-18
6.22939e-15
-8.91608e-19
6.23471e-15
2.9696e-18
6.23048e-15
1.23702e-18
6.23242e-15
2.16544e-18
6.23106e-15
-1.58972e-18
6.23568e-15
-5.81281e-18
6.23339e-15
-2.63716e-18
6.22811e-15
-1.57029e-18
6.23064e-15
-7.35426e-19
6.22138e-15
2.7008e-18
6.22323e-15
-5.85731e-19
6.2186e-15
2.49525e-18
6.21149e-15
-1.73331e-18
6.20734e-15
-4.34733e-18
6.20512e-15
-4.71161e-18
6.20461e-15
-4.0029e-18
6.19752e-15
4.41995e-19
6.19833e-15
-1.67069e-18
6.18944e-15
-4.02087e-18
6.18577e-15
2.26002e-18
6.17095e-15
3.83219e-19
6.17001e-15
1.42724e-18
6.16394e-15
-1.92762e-18
6.15972e-15
-2.90823e-19
6.15535e-15
1.85416e-18
6.14898e-15
1.42468e-18
6.15095e-15
1.05629e-18
6.14205e-15
-4.1329e-18
6.13204e-15
-2.00025e-18
6.13686e-15
1.01937e-18
6.13222e-15
-4.14286e-18
6.12208e-15
-2.12666e-18
6.12132e-15
-2.09393e-19
6.11492e-15
2.13369e-18
6.10662e-15
2.00308e-18
6.10385e-15
2.76099e-18
6.09919e-15
3.30513e-18
6.09196e-15
1.45666e-18
6.08923e-15
-2.01993e-18
6.0914e-15
-4.48136e-18
6.08421e-15
-5.27028e-18
6.0851e-15
-4.64078e-20
6.076e-15
-3.58673e-18
6.07538e-15
-8.37994e-19
6.0734e-15
7.12283e-19
6.06906e-15
7.48813e-19
6.06793e-15
2.32594e-18
6.06024e-15
-5.22278e-18
6.06035e-15
-2.65089e-19
6.05734e-15
-1.67935e-19
6.05111e-15
4.01764e-18
6.04188e-15
7.71891e-18
1.25982e-17
-8.38482e-18
6.98386e-17
-1.69837e-17
1.62166e-16
1.83937e-17
2.06803e-16
1.19506e-16
2.27953e-16
2.98728e-16
2.34392e-16
5.41141e-16
2.30447e-16
8.55853e-16
2.24298e-16
1.20694e-15
2.17225e-16
1.63594e-15
2.08042e-16
2.09946e-15
1.96823e-16
2.63346e-15
1.93883e-16
3.1765e-15
1.7602e-16
3.78926e-15
1.77962e-16
4.40949e-15
1.56418e-16
5.04433e-15
1.45784e-16
5.69941e-15
1.41778e-16
6.35338e-15
1.33376e-16
7.05569e-15
1.41119e-16
7.71533e-15
1.12493e-16
8.38234e-15
1.0577e-16
9.03069e-15
1.02929e-16
9.69598e-15
1.04424e-16
1.03128e-14
9.18542e-17
1.09206e-14
7.65418e-17
1.15071e-14
7.41948e-17
1.21013e-14
7.38607e-17
1.26372e-14
6.50404e-17
1.31552e-14
5.88565e-17
1.36462e-14
5.30566e-17
1.41107e-14
4.64153e-17
1.45471e-14
4.89999e-17
1.4963e-14
4.85738e-17
1.53544e-14
3.98445e-17
1.57255e-14
3.62251e-17
1.60795e-14
2.86479e-17
1.63749e-14
1.82166e-17
1.66793e-14
2.86557e-17
1.69595e-14
2.87097e-17
1.7216e-14
2.51994e-17
1.74506e-14
2.1589e-17
1.76813e-14
1.61054e-17
1.78987e-14
1.53625e-17
1.80632e-14
8.29053e-18
1.82455e-14
1.78912e-17
1.84039e-14
2.09248e-17
1.85504e-14
1.41719e-17
1.86841e-14
1.19117e-17
1.88095e-14
9.39494e-18
1.89271e-14
8.1591e-18
1.90368e-14
6.86924e-19
1.91092e-14
-8.99312e-18
1.92006e-14
7.88858e-18
1.92792e-14
1.36236e-17
1.93469e-14
1.10995e-17
1.94063e-14
7.07973e-18
1.9466e-14
2.52741e-18
1.95154e-14
-3.51714e-19
1.95594e-14
-4.63997e-18
1.96025e-14
-4.43962e-18
1.9639e-14
-4.29849e-18
1.96714e-14
-2.17595e-19
1.96901e-14
2.18397e-18
1.97086e-14
3.03239e-18
1.97251e-14
8.43348e-18
1.97434e-14
4.32693e-19
1.97568e-14
4.14242e-19
1.97626e-14
-3.27379e-18
1.97732e-14
-2.50837e-18
1.9773e-14
7.33091e-19
1.97719e-14
1.63973e-18
1.97679e-14
2.97506e-18
1.97661e-14
2.62157e-18
1.97708e-14
-7.41384e-18
1.97644e-14
-1.08993e-17
1.97543e-14
-7.45645e-18
1.97504e-14
-9.46816e-19
1.97364e-14
-9.97413e-20
1.97255e-14
-2.54714e-18
1.97111e-14
-2.57076e-19
1.97038e-14
-5.04538e-18
1.96914e-14
-4.76395e-18
1.96825e-14
-4.96465e-18
1.96664e-14
-7.23745e-18
1.96558e-14
-8.61612e-18
1.96449e-14
-4.85751e-18
1.96324e-14
-1.43772e-18
1.96139e-14
1.98462e-18
1.95901e-14
2.74412e-18
1.95731e-14
8.92272e-18
1.95577e-14
2.49283e-18
1.95425e-14
-5.13266e-18
1.95243e-14
-4.93513e-18
1.95153e-14
-2.22591e-18
1.94958e-14
-5.06458e-18
1.94867e-14
3.56988e-19
1.94723e-14
-2.59173e-19
1.94549e-14
2.75582e-18
1.94375e-14
-6.91456e-19
1.9422e-14
-6.55955e-19
1.94081e-14
-2.62842e-18
1.9397e-14
-1.54378e-18
1.93818e-14
3.54019e-18
1.93636e-14
6.74007e-19
1.93491e-14
2.21995e-20
1.93403e-14
-4.14342e-18
1.93286e-14
-8.36112e-18
1.93198e-14
-2.48505e-18
1.9309e-14
-7.38413e-19
1.92954e-14
-4.56017e-18
1.92841e-14
-1.60095e-18
1.92687e-14
8.4503e-19
1.92579e-14
4.78837e-19
1.92555e-14
1.21895e-18
1.92365e-14
-3.93873e-18
1.92352e-14
-1.429e-18
1.92246e-14
-4.82836e-18
1.921e-14
-1.49671e-18
1.91987e-14
4.82399e-18
1.91823e-14
1.84673e-17
1.69398e-17
1.37335e-17
1.28466e-16
6.2297e-17
2.91413e-16
2.01562e-16
3.73816e-16
4.39438e-16
4.08761e-16
7.91044e-16
4.24086e-16
1.24886e-15
4.23939e-16
1.80779e-15
4.14515e-16
2.46891e-15
3.96903e-16
3.21755e-15
3.84314e-16
4.05536e-15
3.63472e-16
4.96206e-15
3.50514e-16
5.9281e-15
3.22264e-16
6.95598e-15
3.1077e-16
8.02624e-15
2.93579e-16
9.12076e-15
2.75099e-16
1.0242e-14
2.64299e-16
1.13828e-14
2.49224e-16
1.25297e-14
2.35344e-16
1.36711e-14
2.18578e-16
1.47972e-14
2.00197e-16
1.59025e-14
1.86571e-16
1.70048e-14
1.83913e-16
1.80589e-14
1.59185e-16
1.90935e-14
1.43376e-16
2.00882e-14
1.31975e-16
2.10491e-14
1.25234e-16
2.19616e-14
1.1804e-16
2.28339e-14
1.03956e-16
2.36612e-14
9.66397e-17
2.44451e-14
8.91164e-17
2.51828e-14
8.04958e-17
2.58784e-14
8.29671e-17
2.6534e-14
7.29008e-17
2.71471e-14
5.8598e-17
2.77319e-14
5.8751e-17
2.82578e-14
5.30543e-17
2.87502e-14
4.68498e-17
2.922e-14
5.45293e-17
2.96483e-14
4.53265e-17
3.00474e-14
3.77021e-17
3.04216e-14
3.45689e-17
3.07657e-14
2.54296e-17
3.10773e-14
2.08354e-17
3.13727e-14
3.33807e-17
3.16321e-14
3.24095e-17
3.18797e-14
2.5143e-17
3.21029e-14
1.83958e-17
3.23059e-14
1.61858e-17
3.24992e-14
1.14372e-17
3.26727e-14
7.31917e-18
3.28247e-14
-7.31698e-20
3.29667e-14
7.28912e-18
3.30884e-14
1.74484e-17
3.32091e-14
1.86742e-17
3.33127e-14
9.36188e-18
3.3405e-14
2.77248e-18
3.34919e-14
-4.38177e-18
3.35686e-14
-5.13951e-18
3.36294e-14
-3.85895e-18
3.36886e-14
1.33718e-18
3.37398e-14
4.33866e-18
3.3775e-14
3.47681e-18
3.38122e-14
7.07126e-18
3.38356e-14
3.20342e-18
3.38625e-14
4.43457e-18
3.38867e-14
-6.58834e-18
3.39032e-14
-5.00049e-18
3.39148e-14
-1.02507e-18
3.39166e-14
-2.00682e-18
3.39258e-14
5.81872e-18
3.39156e-14
6.05199e-18
3.39151e-14
-6.82935e-19
3.39012e-14
-1.13923e-17
3.38934e-14
-1.52746e-18
3.38843e-14
-2.78828e-18
3.38704e-14
-2.4713e-18
3.38501e-14
-9.38132e-19
3.38366e-14
2.0954e-18
3.38139e-14
-3.49775e-18
3.38006e-14
-9.10658e-18
3.3776e-14
-1.1352e-17
3.37548e-14
-1.17971e-17
3.3735e-14
-9.74e-18
3.37193e-14
-7.69624e-18
3.36895e-14
-1.16758e-17
3.36703e-14
-2.54755e-18
3.36368e-14
-1.26435e-19
3.36106e-14
8.41938e-18
3.35804e-14
7.21355e-18
3.35564e-14
6.72927e-18
3.35193e-14
-2.1628e-18
3.34928e-14
-8.80963e-18
3.34751e-14
-5.21347e-18
3.34516e-14
-7.53137e-18
3.34221e-14
-7.89983e-18
3.33952e-14
-5.71781e-18
3.33682e-14
1.70269e-18
3.33418e-14
1.89473e-18
3.33254e-14
-4.70667e-18
3.3295e-14
-5.37289e-18
3.32737e-14
-4.74116e-18
3.3255e-14
-6.21529e-18
3.32312e-14
-4.25835e-18
3.32074e-14
-3.53531e-18
3.31901e-14
-6.75905e-18
3.31668e-14
-8.84877e-18
3.31519e-14
-5.02397e-18
3.31242e-14
-9.67444e-18
3.31033e-14
-6.70782e-18
3.30897e-14
-5.32083e-18
3.30705e-14
-8.19707e-18
3.30517e-14
3.74165e-18
3.30379e-14
1.15775e-19
3.3015e-14
4.5111e-19
3.30025e-14
-1.26669e-18
3.29918e-14
-3.87305e-18
3.29713e-14
-9.28964e-19
3.29518e-14
9.3945e-18
3.29282e-14
2.29947e-17
2.95171e-17
4.46306e-17
1.60615e-16
1.79331e-16
4.1168e-16
4.45353e-16
5.1257e-16
8.63757e-16
5.77115e-16
1.42279e-15
5.98616e-16
2.14191e-15
5.93388e-16
2.99279e-15
5.8119e-16
3.97724e-15
5.63504e-16
5.07393e-15
5.36965e-16
6.29321e-15
5.13583e-16
7.60217e-15
4.88377e-16
9.00317e-15
4.61116e-16
1.04618e-14
4.37302e-16
1.1977e-14
4.15669e-16
1.35356e-14
3.95385e-16
1.51259e-14
3.71223e-16
1.67332e-14
3.47459e-16
1.83422e-14
3.26543e-16
1.99427e-14
3.00443e-16
2.15289e-14
2.78567e-16
2.30886e-14
2.59608e-16
2.46142e-14
2.38517e-16
2.61007e-14
2.18767e-16
2.7543e-14
2.03462e-16
2.89345e-14
1.79002e-16
3.02699e-14
1.68208e-16
3.15404e-14
1.56239e-16
3.27523e-14
1.40695e-16
3.39079e-14
1.2618e-16
3.49967e-14
1.22455e-16
3.60267e-14
1.14932e-16
3.69977e-14
1.03137e-16
3.79063e-14
9.63779e-17
3.87633e-14
8.67309e-17
3.95606e-14
8.14858e-17
4.02991e-14
7.22227e-17
4.09901e-14
7.23236e-17
4.1635e-14
6.24076e-17
4.22316e-14
6.13825e-17
4.2785e-14
4.94458e-17
4.32982e-14
4.29669e-17
4.37724e-14
4.04067e-17
4.42118e-14
3.52947e-17
4.46124e-14
3.48346e-17
4.49774e-14
4.0075e-17
4.53224e-14
3.68939e-17
4.5633e-14
3.43219e-17
4.5915e-14
2.30486e-17
4.61795e-14
1.18536e-17
4.6415e-14
7.84394e-18
4.66292e-14
1.14204e-17
4.6823e-14
1.61059e-17
4.6999e-14
1.76431e-17
4.71602e-14
1.69469e-17
4.73031e-14
1.68017e-17
4.74345e-14
5.48692e-18
4.7556e-14
-2.12592e-18
4.76526e-14
-4.39023e-18
4.77366e-14
-3.09418e-18
4.78205e-14
-2.53513e-18
4.78906e-14
4.08989e-18
4.79474e-14
7.95915e-18
4.79951e-14
3.50911e-18
4.80377e-14
6.28793e-18
4.80674e-14
7.14773e-18
4.80995e-14
8.65393e-19
4.81181e-14
-4.89513e-18
4.8127e-14
-2.75298e-18
4.81457e-14
-3.72305e-18
4.81523e-14
-2.49573e-18
4.8149e-14
2.91291e-18
4.81323e-14
5.29222e-18
4.81244e-14
4.10138e-18
4.81047e-14
-5.84399e-18
4.80895e-14
-3.33637e-19
4.8073e-14
-1.7186e-18
4.80477e-14
-5.49623e-21
4.80252e-14
5.70165e-19
4.79972e-14
-1.00111e-17
4.79722e-14
-3.03093e-18
4.79427e-14
-9.00974e-18
4.79127e-14
-8.5794e-18
4.78806e-14
-1.17855e-17
4.78517e-14
-1.1168e-17
4.78114e-14
-9.4484e-18
4.77849e-14
-1.00304e-18
4.77526e-14
2.8312e-18
4.77144e-14
6.89539e-19
4.76797e-14
3.65536e-18
4.76362e-14
-3.72938e-19
4.75967e-14
2.00192e-18
4.75549e-14
-2.28615e-18
4.75226e-14
-6.0456e-18
4.74835e-14
-6.99869e-18
4.7442e-14
-3.74807e-18
4.74082e-14
-2.93859e-18
4.73698e-14
-1.1707e-18
4.73336e-14
-2.01899e-18
4.73115e-14
2.53951e-18
4.72762e-14
-4.51413e-18
4.72392e-14
-8.0917e-18
4.72128e-14
-5.72046e-18
4.71822e-14
-4.28178e-18
4.71517e-14
-5.24584e-18
4.71225e-14
-1.00376e-17
4.70892e-14
-1.02021e-17
4.70535e-14
-6.63642e-18
4.7026e-14
-6.78911e-18
4.70048e-14
-4.15803e-18
4.69698e-14
-9.30371e-18
4.69565e-14
-4.6411e-18
4.69291e-14
-9.149e-18
4.69102e-14
-1.80348e-18
4.68855e-14
3.74639e-18
4.68627e-14
6.23574e-20
4.68472e-14
-2.72784e-18
4.68274e-14
3.68718e-18
4.68006e-14
1.20078e-17
4.67816e-14
2.18001e-17
2.73201e-17
5.95866e-17
2.04946e-16
3.10755e-16
4.69424e-16
7.43559e-16
6.11927e-16
1.35596e-15
6.78335e-16
2.15767e-15
7.01272e-16
3.15079e-15
7.01749e-16
4.30625e-15
6.95863e-16
5.6207e-15
6.67729e-16
7.0836e-15
6.46732e-16
8.67801e-15
6.14755e-16
1.03945e-14
5.82099e-16
1.22037e-14
5.53385e-16
1.4095e-14
5.21929e-16
1.60529e-14
4.94932e-16
1.80532e-14
4.63619e-16
2.00905e-14
4.37133e-16
2.2145e-14
4.09342e-16
2.41965e-14
3.83456e-16
2.62459e-14
3.50369e-16
2.82661e-14
3.30759e-16
3.02435e-14
3.02848e-16
3.2188e-14
2.79052e-16
3.40765e-14
2.56567e-16
3.58937e-14
2.28474e-16
3.76601e-14
2.138e-16
3.93468e-14
1.98845e-16
4.09512e-14
1.83724e-16
4.24888e-14
1.69687e-16
4.39506e-14
1.56696e-16
4.53252e-14
1.42627e-16
4.66258e-14
1.3437e-16
4.78544e-14
1.20044e-16
4.89999e-14
1.11067e-16
5.00778e-14
9.56305e-17
5.10735e-14
9.31122e-17
5.20188e-14
8.90837e-17
5.28811e-14
8.52026e-17
5.36976e-14
7.60478e-17
5.44451e-14
6.83605e-17
5.51421e-14
6.05473e-17
5.57877e-14
5.96466e-17
5.63736e-14
3.77693e-17
5.69288e-14
3.70604e-17
5.74388e-14
4.23251e-17
5.78997e-14
3.90744e-17
5.83351e-14
3.3762e-17
5.87226e-14
2.98597e-17
5.90841e-14
1.8366e-17
5.94136e-14
1.76891e-17
5.97074e-14
1.48538e-17
5.99719e-14
1.61803e-17
6.02207e-14
1.56025e-17
6.04442e-14
1.56601e-17
6.06496e-14
1.74213e-17
6.08255e-14
9.31196e-18
6.09917e-14
7.79012e-18
6.11348e-14
6.23815e-18
6.12591e-14
-1.33138e-18
6.13669e-14
-2.5813e-18
6.14697e-14
2.87236e-19
6.15534e-14
3.85454e-18
6.16209e-14
2.49895e-18
6.16924e-14
4.9374e-18
6.17487e-14
3.82698e-18
6.17908e-14
4.75085e-19
6.1826e-14
-4.56991e-18
6.18543e-14
-1.11102e-17
6.18613e-14
-1.73267e-18
6.1877e-14
-7.06379e-18
6.18839e-14
-9.52496e-19
6.18744e-14
7.40082e-19
6.18691e-14
5.69085e-18
6.18559e-14
5.97617e-18
6.18304e-14
3.92322e-18
6.18094e-14
5.35401e-20
6.17883e-14
3.29347e-18
6.17573e-14
5.0504e-18
6.17289e-14
-1.52559e-18
6.16956e-14
-5.46427e-19
6.16565e-14
-8.74671e-18
6.16224e-14
-5.80889e-18
6.15839e-14
-1.2394e-17
6.15367e-14
-1.5009e-17
6.14982e-14
-1.5914e-17
6.14549e-14
-8.22607e-18
6.14127e-14
-6.89209e-18
6.1372e-14
-6.46974e-18
6.13344e-14
-1.32798e-18
6.12881e-14
8.33997e-18
6.12519e-14
9.6946e-18
6.11924e-14
4.28478e-18
6.11417e-14
2.09539e-18
6.1088e-14
2.46319e-18
6.10416e-14
-6.93807e-18
6.09887e-14
-3.57898e-18
6.09415e-14
1.50779e-18
6.08979e-14
1.96612e-18
6.08581e-14
2.73096e-18
6.08211e-14
-2.84636e-18
6.0779e-14
-9.36936e-18
6.07358e-14
-1.03337e-17
6.07002e-14
-8.1702e-18
6.06637e-14
-1.33311e-17
6.06223e-14
-1.47576e-17
6.05784e-14
-1.49986e-17
6.05354e-14
-7.37925e-18
6.04973e-14
-4.3111e-18
6.0461e-14
-1.81955e-18
6.04281e-14
1.2254e-18
6.03912e-14
-4.14504e-18
6.03697e-14
-6.51374e-18
6.03437e-14
-9.44603e-18
6.03168e-14
-9.79499e-18
6.02877e-14
-4.19359e-18
6.02682e-14
-6.71329e-18
6.02391e-14
-7.87289e-18
6.02158e-14
-1.60024e-18
6.01893e-14
9.54493e-18
6.0173e-14
1.49808e-17
2.15182e-17
1.03737e-16
2.25582e-16
4.67721e-16
4.74423e-16
1.06382e-15
6.23411e-16
1.87558e-15
6.97794e-16
2.92726e-15
7.26417e-16
4.19079e-15
7.25437e-16
5.64473e-15
7.15825e-16
7.28249e-15
6.93538e-16
9.0931e-15
6.67946e-16
1.10571e-14
6.37749e-16
1.31427e-14
6.03578e-16
1.53465e-14
5.75765e-16
1.76372e-14
5.479e-16
2.00056e-14
5.08597e-16
2.24201e-14
4.87247e-16
2.48718e-14
4.55242e-16
2.73363e-14
4.22516e-16
2.98028e-14
3.92406e-16
3.22424e-14
3.65131e-16
3.46532e-14
3.36078e-16
3.70232e-14
3.09809e-16
3.93326e-14
2.86529e-16
4.15813e-14
2.60892e-16
4.37528e-14
2.35934e-16
4.58383e-14
2.14093e-16
4.7848e-14
2.04228e-16
4.97548e-14
1.78302e-16
5.15786e-14
1.66353e-16
5.33037e-14
1.53043e-16
5.49437e-14
1.42573e-16
5.64772e-14
1.31637e-16
5.7943e-14
1.25955e-16
5.92912e-14
1.08291e-16
6.0564e-14
9.86362e-17
6.17534e-14
9.54395e-17
6.28609e-14
8.2162e-17
6.38972e-14
8.0334e-17
6.48539e-14
7.34722e-17
6.57461e-14
6.728e-17
6.65783e-14
6.09554e-17
6.73254e-14
4.87963e-17
6.80294e-14
4.90956e-17
6.86799e-14
4.50252e-17
6.92786e-14
3.99602e-17
6.98322e-14
3.47982e-17
7.03453e-14
3.30099e-17
7.08082e-14
2.41474e-17
7.12352e-14
2.38235e-17
7.16189e-14
1.80306e-17
7.19669e-14
1.71162e-17
7.22838e-14
1.67807e-17
7.25725e-14
1.72478e-17
7.28403e-14
2.14301e-17
7.3082e-14
8.96594e-18
7.32959e-14
5.84241e-18
7.34843e-14
6.72447e-18
7.36487e-14
5.64729e-18
7.38004e-14
4.38197e-18
7.3927e-14
4.1556e-18
7.40458e-14
6.73042e-18
7.41461e-14
2.66531e-18
7.42307e-14
-1.23854e-18
7.43029e-14
-2.27889e-18
7.4369e-14
4.35257e-18
7.44309e-14
-9.97375e-19
7.44678e-14
-1.6374e-18
7.44926e-14
-3.84239e-19
7.45083e-14
-5.12141e-18
7.4526e-14
-2.13415e-18
7.45289e-14
-1.89309e-18
7.45277e-14
8.70887e-19
7.45158e-14
7.95299e-18
7.44955e-14
1.11126e-17
7.44696e-14
7.24054e-18
7.44502e-14
4.23307e-18
7.4421e-14
4.56475e-18
7.43824e-14
-4.90594e-18
7.43546e-14
-6.3929e-19
7.43098e-14
-2.3716e-18
7.42632e-14
-7.26923e-18
7.42217e-14
-8.13336e-18
7.41739e-14
-9.19395e-18
7.41224e-14
-1.11291e-17
7.4073e-14
-1.05892e-17
7.40262e-14
-1.3047e-17
7.39775e-14
-1.29736e-17
7.39273e-14
-8.75615e-18
7.38825e-14
-5.03754e-18
7.3833e-14
-1.60007e-18
7.37776e-14
3.76668e-18
7.37169e-14
6.79245e-18
7.36621e-14
1.18376e-17
7.35967e-14
6.54856e-18
7.35363e-14
6.46015e-18
7.34789e-14
8.54338e-18
7.34229e-14
1.04362e-18
7.3368e-14
-3.2657e-18
7.33138e-14
-4.80488e-19
7.32682e-14
-6.0461e-18
7.32231e-14
-1.13205e-17
7.31693e-14
-9.84839e-18
7.31261e-14
-1.39285e-17
7.30828e-14
-1.7665e-17
7.30361e-14
-1.39543e-17
7.29852e-14
-5.1761e-18
7.29268e-14
-2.2389e-18
7.28765e-14
1.62705e-18
7.28419e-14
3.22291e-18
7.28057e-14
-4.74723e-20
7.27692e-14
-5.21739e-18
7.27304e-14
-1.13049e-17
7.2696e-14
-1.55585e-17
7.26703e-14
-1.09203e-17
7.26403e-14
-6.11458e-18
7.26193e-14
-4.07932e-18
7.25884e-14
-5.23496e-18
7.25624e-14
-4.08442e-18
7.25335e-14
-1.81311e-18
7.25197e-14
2.48622e-18
1.39323e-18
1.49136e-16
2.10638e-16
6.22811e-16
4.25033e-16
1.365e-15
5.54228e-16
2.37859e-15
6.22301e-16
3.64951e-15
6.49191e-16
5.15897e-15
6.59913e-16
6.89384e-15
6.46078e-16
8.83159e-15
6.19798e-16
1.09441e-14
6.05431e-16
1.32306e-14
5.83331e-16
1.56617e-14
5.49333e-16
1.82103e-14
5.19662e-16
2.08515e-14
4.93493e-16
2.35765e-14
4.63859e-16
2.63536e-14
4.35973e-16
2.91635e-14
4.07651e-16
3.19825e-14
3.74948e-16
3.47959e-14
3.51844e-16
3.7585e-14
3.28256e-16
4.03362e-14
3.03867e-16
4.30323e-14
2.81564e-16
4.56644e-14
2.53655e-16
4.82113e-14
2.29182e-16
5.06748e-14
2.06318e-16
5.30535e-14
1.91609e-16
5.53196e-14
1.80149e-16
5.74895e-14
1.65802e-16
5.95505e-14
1.50774e-16
6.15117e-14
1.35002e-16
6.33654e-14
1.24906e-16
6.51072e-14
1.1948e-16
6.67512e-14
1.08919e-16
6.82915e-14
9.81413e-17
6.97279e-14
8.27847e-17
7.10762e-14
8.43349e-17
7.23336e-14
7.7585e-17
7.35035e-14
6.89479e-17
7.4586e-14
6.302e-17
7.55901e-14
5.86332e-17
7.65182e-14
5.48848e-17
7.73772e-14
5.19263e-17
7.81751e-14
4.75368e-17
7.89096e-14
4.05656e-17
7.95902e-14
3.56754e-17
8.02135e-14
2.43194e-17
8.07859e-14
2.20512e-17
8.1309e-14
1.83249e-17
8.1788e-14
1.56668e-17
8.22215e-14
1.57379e-17
8.26241e-14
1.48798e-17
8.29852e-14
1.1564e-17
8.33126e-14
1.34084e-17
8.36039e-14
1.43374e-17
8.3878e-14
9.28754e-18
8.41164e-14
4.93759e-18
8.4338e-14
1.3051e-17
8.45258e-14
6.43924e-18
8.46937e-14
7.90731e-18
8.48323e-14
8.0099e-18
8.49682e-14
-1.24796e-18
8.50839e-14
-2.8549e-18
8.51781e-14
-5.30555e-18
8.52671e-14
-5.54589e-18
8.53291e-14
-5.57873e-18
8.53906e-14
-1.27745e-18
8.54363e-14
-1.06157e-18
8.54658e-14
-4.98419e-18
8.54947e-14
-1.41586e-18
8.55015e-14
-3.52464e-18
8.55105e-14
1.93851e-19
8.54972e-14
4.40827e-18
8.5486e-14
5.01105e-18
8.54668e-14
8.96385e-18
8.54465e-14
1.44381e-17
8.5422e-14
8.12648e-18
8.53782e-14
1.10265e-18
8.53458e-14
9.50689e-19
8.53129e-14
-1.6849e-20
8.52622e-14
-6.43811e-18
8.52104e-14
-2.26961e-18
8.51599e-14
-2.72181e-18
8.51025e-14
-7.43764e-18
8.5048e-14
-1.43019e-17
8.49987e-14
-1.68972e-17
8.49443e-14
-1.61435e-17
8.4886e-14
-1.27246e-17
8.48308e-14
-1.32216e-17
8.47685e-14
-8.81512e-18
8.47136e-14
-6.32782e-18
8.46521e-14
1.01267e-17
8.45911e-14
9.17281e-18
8.4524e-14
1.10815e-17
8.44582e-14
1.25366e-17
8.4392e-14
1.65131e-17
8.43218e-14
1.62301e-17
8.42613e-14
7.35217e-18
8.4192e-14
-2.28767e-19
8.41373e-14
-4.38578e-18
8.40847e-14
-7.31237e-18
8.40234e-14
-1.67272e-17
8.39691e-14
-1.62637e-17
8.39147e-14
-2.25041e-17
8.38591e-14
-1.90627e-17
8.38104e-14
-1.56938e-17
8.37495e-14
-4.44325e-18
8.36986e-14
5.82344e-18
8.3647e-14
1.24135e-17
8.36018e-14
3.35398e-18
8.35485e-14
-4.19499e-18
8.35111e-14
-9.00023e-18
8.34768e-14
-1.16528e-17
8.34384e-14
-1.85865e-17
8.34072e-14
-1.49717e-17
8.33761e-14
-1.26874e-17
8.33405e-14
-1.25161e-17
8.33113e-14
-7.99514e-18
8.32864e-14
-2.55323e-18
8.32572e-14
-7.07586e-18
8.32298e-14
-4.46209e-18
8.13568e-19
2.13394e-16
1.43434e-16
7.54945e-16
3.22925e-16
1.63447e-15
4.19027e-16
2.80906e-15
4.6686e-16
4.27069e-15
4.94556e-16
5.98517e-15
4.95822e-16
7.94244e-15
4.84551e-16
1.01267e-14
4.76394e-16
1.24993e-14
4.61988e-16
1.505e-14
4.39988e-16
1.77497e-14
4.21558e-16
2.05802e-14
3.99322e-16
2.35099e-14
3.6866e-16
2.65176e-14
3.48369e-16
2.95785e-14
3.2995e-16
3.26777e-14
3.10811e-16
3.57849e-14
2.92171e-16
3.88873e-14
2.68818e-16
4.19465e-14
2.45401e-16
4.49678e-14
2.26464e-16
4.79159e-14
2.09553e-16
5.07939e-14
1.88228e-16
5.35923e-14
1.70026e-16
5.62828e-14
1.51195e-16
5.88747e-14
1.39248e-16
6.13639e-14
1.37113e-16
6.37275e-14
1.20136e-16
6.59769e-14
1.14083e-16
6.81162e-14
1.08899e-16
7.01366e-14
1.01655e-16
7.20426e-14
8.74259e-17
7.38369e-14
8.6987e-17
7.55179e-14
7.49706e-17
7.70937e-14
6.83706e-17
7.85549e-14
5.43979e-17
7.99257e-14
6.16507e-17
8.12006e-14
6.08348e-17
8.23816e-14
4.69426e-17
8.34852e-14
4.43011e-17
8.44929e-14
4.54409e-17
8.54344e-14
4.4036e-17
8.62997e-14
3.40173e-17
8.71034e-14
3.10406e-17
8.78411e-14
2.3235e-17
8.85227e-14
1.87231e-17
8.91398e-14
1.47073e-17
8.97073e-14
1.11976e-17
9.02341e-14
6.63688e-18
9.07052e-14
3.56993e-18
9.11409e-14
1.04407e-17
9.15391e-14
1.18711e-17
9.18979e-14
1.09612e-17
9.22175e-14
5.47147e-18
9.25083e-14
5.62215e-18
9.27731e-14
6.0007e-18
9.30059e-14
1.38945e-18
9.3215e-14
3.99322e-18
9.33957e-14
6.26825e-18
9.35597e-14
-5.47642e-18
9.36957e-14
-3.56757e-19
9.38296e-14
-3.88428e-18
9.39308e-14
-1.3096e-17
9.40177e-14
-8.86915e-18
9.40849e-14
-9.0508e-18
9.41473e-14
-3.51834e-18
9.41949e-14
-7.88176e-19
9.42335e-14
-4.66627e-18
9.42582e-14
-6.16655e-18
9.42742e-14
-1.57014e-18
9.42821e-14
7.05022e-19
9.42704e-14
5.30533e-18
9.42571e-14
1.3919e-17
9.42424e-14
7.88308e-18
9.42127e-14
4.73999e-18
9.41841e-14
9.4916e-18
9.41447e-14
3.38823e-18
9.4109e-14
-2.66527e-18
9.40601e-14
-4.39012e-18
9.40139e-14
-3.2711e-18
9.39623e-14
-4.82577e-18
9.39012e-14
-6.11361e-18
9.38485e-14
-7.84772e-18
9.37875e-14
-1.06578e-17
9.37285e-14
-1.87543e-17
9.36734e-14
-1.89711e-17
9.36043e-14
-1.21773e-17
9.35442e-14
-8.82538e-18
9.34759e-14
-1.12791e-17
9.34087e-14
-8.19805e-18
9.33359e-14
6.9138e-19
9.32723e-14
1.44494e-17
9.32018e-14
1.06714e-17
9.31321e-14
1.20713e-17
9.30675e-14
1.15091e-17
9.29901e-14
1.14105e-17
9.29225e-14
7.73602e-18
9.2854e-14
-1.82614e-18
9.27927e-14
-5.94456e-18
9.27251e-14
-7.66701e-18
9.26666e-14
-1.5307e-17
9.26074e-14
-1.94084e-17
9.25425e-14
-1.98186e-17
9.248e-14
-1.68329e-17
9.24242e-14
-1.02541e-17
9.23606e-14
7.82949e-19
9.23073e-14
9.15315e-18
9.22435e-14
1.25861e-17
9.21966e-14
5.69626e-18
9.21518e-14
9.0733e-19
9.21078e-14
-7.88822e-18
9.2063e-14
-1.40032e-17
9.2027e-14
-2.07852e-17
9.19912e-14
-2.14038e-17
9.19492e-14
-1.70392e-17
9.19198e-14
-1.51892e-17
9.18829e-14
-1.15094e-17
9.18495e-14
-4.22335e-18
9.18284e-14
-1.3175e-17
9.17969e-14
-1.55501e-17
-2.08898e-17
2.16015e-16
8.80209e-17
8.43863e-16
1.71209e-16
1.81856e-15
2.19254e-16
3.11824e-15
2.46121e-16
4.7181e-15
2.59332e-16
6.582e-15
2.64989e-16
8.70772e-15
2.58053e-16
1.10605e-14
2.54212e-16
1.36159e-14
2.50526e-16
1.6355e-14
2.38111e-16
1.92464e-14
2.2737e-16
2.22739e-14
2.17781e-16
2.54087e-14
2.01097e-16
2.86153e-14
1.88405e-16
3.18855e-14
1.75161e-16
3.51818e-14
1.65123e-16
3.84843e-14
1.57981e-16
4.17742e-14
1.42446e-16
4.50303e-14
1.31854e-16
4.82315e-14
1.22e-16
5.13653e-14
1.12703e-16
5.44199e-14
1.00454e-16
5.73759e-14
8.85878e-17
6.02249e-14
8.08793e-17
6.29643e-14
7.73444e-17
6.56027e-14
7.77836e-17
6.81093e-14
6.93118e-17
7.04866e-14
6.64503e-17
7.27575e-14
5.75589e-17
7.48884e-14
5.39464e-17
7.69078e-14
4.70698e-17
7.87965e-14
4.62696e-17
8.05779e-14
4.25588e-17
8.22375e-14
2.81619e-17
8.37897e-14
2.61991e-17
8.52404e-14
3.02266e-17
8.6586e-14
3.15108e-17
8.78308e-14
2.73685e-17
8.89971e-14
2.62947e-17
9.00705e-14
2.8403e-17
9.10643e-14
2.59421e-17
9.19852e-14
2.03922e-17
9.28307e-14
1.72136e-17
9.36091e-14
9.18671e-18
9.43201e-14
1.31792e-17
9.49782e-14
7.00735e-18
9.55736e-14
4.66464e-18
9.61274e-14
5.34941e-18
9.66318e-14
-3.84366e-18
9.70916e-14
-2.86698e-18
9.75066e-14
6.08848e-18
9.78893e-14
5.92344e-18
9.82261e-14
-8.95211e-20
9.85281e-14
4.75727e-18
9.88084e-14
3.64758e-19
9.90619e-14
7.8296e-18
9.92789e-14
1.73028e-18
9.94659e-14
2.34875e-18
9.96414e-14
2.25217e-18
9.97966e-14
1.6481e-18
9.99211e-14
-1.05324e-17
1.00026e-13
-8.72231e-18
1.00118e-13
-8.59709e-18
1.00196e-13
-4.99192e-18
1.00258e-13
-2.27908e-18
1.00311e-13
-1.04588e-17
1.0035e-13
-4.53222e-18
1.00372e-13
-3.61623e-18
1.00388e-13
-7.16894e-18
1.00392e-13
1.07182e-18
1.00391e-13
1.23147e-17
1.00371e-13
1.28156e-17
1.0036e-13
1.66764e-17
1.00334e-13
4.84097e-18
1.00299e-13
3.79139e-18
1.00257e-13
5.89126e-18
1.00217e-13
8.29289e-18
1.00161e-13
1.27658e-18
1.00115e-13
7.02069e-18
1.0007e-13
5.36273e-18
1.00009e-13
-7.77686e-19
9.99478e-14
-2.76471e-18
9.98797e-14
-7.11036e-18
9.98121e-14
-2.09018e-17
9.97568e-14
-1.37303e-17
9.96868e-14
-1.14528e-17
9.96198e-14
-4.85559e-18
9.95487e-14
-2.39621e-18
9.94709e-14
5.79211e-18
9.94079e-14
4.50346e-18
9.93307e-14
7.45789e-18
9.92595e-14
1.41297e-17
9.91841e-14
1.63974e-17
9.91174e-14
1.78545e-17
9.90445e-14
1.2831e-17
9.89721e-14
9.56216e-18
9.89043e-14
4.65399e-18
9.8838e-14
-6.90013e-18
9.87629e-14
-1.21001e-17
9.86955e-14
-5.05963e-18
9.86246e-14
-9.87896e-18
9.85531e-14
-1.98382e-17
9.84959e-14
-1.74143e-17
9.84288e-14
-9.30182e-18
9.83654e-14
-4.57898e-19
9.83108e-14
1.0234e-17
9.82499e-14
2.92109e-18
9.82064e-14
2.65654e-18
9.81471e-14
-4.7119e-18
9.81134e-14
-5.36719e-18
9.80646e-14
-1.72632e-17
9.80195e-14
-2.1318e-17
9.79735e-14
-2.40036e-17
9.79372e-14
-1.90507e-17
9.7898e-14
-2.10238e-17
9.7865e-14
-1.67291e-17
9.78237e-14
-1.13563e-17
9.77933e-14
-1.08091e-17
9.77593e-14
-1.07202e-17
-6.86062e-18
2.58562e-16
-6.74351e-18
9.02174e-16
-5.82211e-19
1.92432e-15
-6.30926e-18
3.28012e-15
-7.16818e-19
4.95096e-15
-3.59855e-18
6.89696e-15
-2.46634e-18
9.10194e-15
3.50564e-18
1.154e-14
-1.57903e-18
1.41989e-14
4.17747e-19
1.70373e-14
-1.11168e-18
2.00339e-14
5.62638e-18
2.31594e-14
4.23128e-18
2.6394e-14
-1.75816e-18
2.9707e-14
-3.63332e-18
3.30831e-14
3.59555e-18
3.64812e-14
4.22434e-19
3.98893e-14
-2.74301e-18
4.32727e-14
3.55182e-18
4.66256e-14
1.30858e-18
4.99299e-14
3.84734e-18
5.31527e-14
-1.43085e-18
5.62908e-14
-5.77487e-19
5.93318e-14
-4.76573e-18
6.22647e-14
-3.55938e-18
6.50848e-14
-1.08565e-18
6.77857e-14
2.63035e-18
7.03656e-14
1.09686e-17
7.28124e-14
2.87559e-18
7.51423e-14
3.83379e-18
7.7339e-14
-3.79849e-18
7.94134e-14
2.80566e-18
8.13643e-14
3.86711e-18
8.31837e-14
-3.078e-18
8.48875e-14
-5.1506e-18
8.64839e-14
-2.89863e-18
8.79665e-14
2.27911e-18
8.93502e-14
2.89375e-18
9.06375e-14
2.30288e-18
9.18345e-14
-4.81123e-18
9.29351e-14
-1.5727e-19
9.39587e-14
5.98676e-18
9.49077e-14
5.60095e-18
9.57764e-14
-2.01117e-18
9.65728e-14
-1.48472e-18
9.73067e-14
-1.825e-18
9.79833e-14
-3.09992e-18
9.8598e-14
-6.02102e-18
9.9161e-14
-1.05479e-17
9.96733e-14
-7.23855e-18
1.00153e-13
-6.00204e-18
1.00575e-13
-7.14546e-18
1.00961e-13
-5.90128e-19
1.01313e-13
-1.11174e-19
1.01623e-13
-2.15565e-18
1.01917e-13
-1.97458e-18
1.02158e-13
-9.62938e-18
1.0239e-13
-2.97474e-18
1.02581e-13
2.06561e-18
1.02768e-13
2.60699e-18
1.02921e-13
-1.78704e-18
1.03054e-13
-1.20872e-18
1.0316e-13
-7.11532e-18
1.03255e-13
-9.8512e-18
1.03334e-13
-1.5545e-17
1.034e-13
-1.33374e-17
1.03453e-13
-8.38107e-18
1.03488e-13
-9.35747e-18
1.03518e-13
-1.81588e-18
1.03534e-13
5.44339e-18
1.03537e-13
5.20947e-18
1.03532e-13
8.90526e-18
1.03521e-13
1.36735e-17
1.03498e-13
6.18458e-18
1.03473e-13
6.19734e-18
1.0344e-13
1.89372e-18
1.03403e-13
1.16375e-18
1.03355e-13
3.55712e-18
1.03313e-13
1.1301e-17
1.03253e-13
9.63291e-18
1.03199e-13
3.74276e-18
1.03144e-13
4.35944e-18
1.03081e-13
-3.58515e-18
1.03016e-13
-1.01791e-17
1.02949e-13
-1.10175e-17
1.02877e-13
-1.63266e-17
1.02813e-13
-1.31839e-17
1.02739e-13
-6.68897e-18
1.02672e-13
-2.27885e-19
1.02593e-13
4.23992e-18
1.02522e-13
7.91702e-18
1.02444e-13
1.43164e-17
1.02372e-13
1.72769e-17
1.02301e-13
1.62502e-17
1.02228e-13
1.27598e-17
1.02156e-13
1.03048e-17
1.02081e-13
6.70402e-18
1.02017e-13
-7.93399e-19
1.01943e-13
-2.37528e-18
1.01872e-13
-3.76865e-18
1.01792e-13
-6.26253e-18
1.01722e-13
-9.59594e-18
1.01649e-13
-1.59861e-17
1.0158e-13
-1.36437e-17
1.01512e-13
-3.59413e-18
1.01453e-13
1.00356e-19
1.01395e-13
2.38687e-18
1.01343e-13
4.2981e-18
1.01289e-13
-1.84199e-18
1.01237e-13
-8.27637e-18
1.0119e-13
-1.32124e-17
1.01142e-13
-1.35851e-17
1.01094e-13
-2.52332e-17
1.01056e-13
-2.65091e-17
1.01004e-13
-2.98462e-17
1.00965e-13
-2.62872e-17
1.00932e-13
-2.35547e-17
1.00892e-13
-2.56466e-17
1.00864e-13
-1.69132e-17
1.00833e-13
-1.06769e-17
-1.46507e-17
2.2945e-16
-7.91763e-17
8.88484e-16
-1.80439e-16
1.91937e-15
-2.29883e-16
3.27838e-15
-2.5917e-16
4.95569e-15
-2.61469e-16
6.9025e-15
-2.67896e-16
9.10202e-15
-2.61331e-16
1.15398e-14
-2.58605e-16
1.41974e-14
-2.46087e-16
1.7038e-14
-2.3236e-16
2.00372e-14
-2.21142e-16
2.31584e-14
-2.1001e-16
2.63986e-14
-2.01316e-16
2.97118e-14
-1.88268e-16
3.30855e-14
-1.78167e-16
3.64816e-14
-1.63894e-16
3.98904e-14
-1.53338e-16