/*--------------------------------*- C++ -*----------------------------------*\
  =========                 |
  \\      /  F ield         | OpenFOAM: The Open Source CFD Toolbox
   \\    /   O peration     | Website:  https://openfoam.org
    \\  /    A nd           | Version:  7
     \\/     M anipulation  |
\*---------------------------------------------------------------------------*/
FoamFile
{
    version     2.0;
    format      ascii;
    class       volScalarField;
    location    "1.6";
    object      k_0;
}
// * * * * * * * * * * * * * * * * * * * * * * * * * * * * * * * * * * * * * //

dimensions      [0 2 -2 0 0 0 0];

internalField   nonuniform List<scalar> 
7920
(
52.0115
56.4389
56.4503
56.53
56.4701
56.5046
56.4413
56.4532
56.3998
56.4131
56.3791
56.3938
56.3689
56.3757
56.3618
56.3592
56.373
56.3292
56.4583
56.5185
13.8384
14.0052
13.4276
12.881
12.6225
12.5262
12.4397
12.4141
12.3663
12.3558
12.3255
12.3204
12.3014
12.2989
12.288
12.2845
12.281
12.271
12.4463
12.4543
8.08663
9.22467
9.3429
9.329
9.29154
9.28449
9.26336
9.26108
9.24607
9.24354
9.23033
9.22754
9.21617
9.21324
9.2038
9.20059
9.19333
9.18877
9.19276
9.21687
7.48496
8.757
9.00976
9.10279
9.12865
9.16487
9.17286
9.19435
9.19797
9.21208
9.21299
9.22136
9.22011
9.22463
9.22198
9.2241
9.22071
9.22123
9.22006
9.24129
7.4201
8.70342
8.96922
9.07864
9.11783
9.16776
9.18584
9.22152
9.23398
9.2614
9.27061
9.29151
9.29747
9.31241
9.3158
9.32621
9.32778
9.33404
9.33582
9.35884
7.427
8.69995
8.96414
9.07519
9.11818
9.17293
9.19606
9.23748
9.25478
9.28901
9.30289
9.3307
9.34108
9.36244
9.36971
9.38583
9.39073
9.40154
9.40698
9.43077
7.427
8.69995
8.96414
9.07519
9.11817
9.17293
9.19606
9.23749
9.25477
9.28902
9.30288
9.33071
9.34107
9.36246
9.3697
9.38587
9.39073
9.40161
9.40704
9.43085
7.4201
8.70342
8.96922
9.07864
9.11782
9.16778
9.18583
9.22154
9.23397
9.26142
9.27059
9.29156
9.29743
9.3125
9.31574
9.32636
9.32772
9.33426
9.33586
9.35913
7.48496
8.757
9.00976
9.1028
9.12864
9.16488
9.17285
9.19437
9.19794
9.21212
9.21293
9.22145
9.21996
9.22486
9.22169
9.22457
9.22018
9.22218
9.21933
9.24224
8.08663
9.22467
9.34289
9.32901
9.29154
9.2845
9.26334
9.2611
9.24602
9.2436
9.23022
9.22768
9.2159
9.21359
9.20316
9.20143
9.19172
9.19163
9.19031
9.22026
13.8384
14.0052
13.4276
12.881
12.6225
12.5262
12.4397
12.4141
12.3662
12.3559
12.3253
12.3206
12.301
12.2996
12.2869
12.2863
12.2778
12.2765
12.4347
12.4663
52.0115
56.439
56.4503
56.53
56.47
56.5047
56.4411
56.4535
56.3995
56.4136
56.3783
56.3951
56.3668
56.379
56.3563
56.3682
56.3576
56.3555
56.4097
56.6003
7.67158
9.66439
9.74748
9.62542
9.593
9.5247
9.51968
9.47738
9.47635
9.4483
9.45044
9.43072
9.43309
9.41735
9.4205
9.4064
9.41367
9.39332
9.40545
9.44078
6.01991
8.24709
8.58624
8.63373
8.64128
8.64405
8.64269
8.64058
8.63628
8.63289
8.62948
8.62634
8.62408
8.62047
8.61938
8.61539
8.61577
8.6111
8.61911
8.62246
5.70335
7.90569
8.25695
8.32921
8.34247
8.36168
8.36834
8.38213
8.3865
8.39548
8.39786
8.40308
8.40448
8.40713
8.40855
8.40903
8.41114
8.40945
8.41152
8.44134
5.69501
7.89714
8.24566
8.31445
8.32018
8.33163
8.33281
8.34067
8.34351
8.35112
8.35356
8.35884
8.36035
8.36308
8.36431
8.36482
8.36624
8.36453
8.36635
8.38419
5.68319
7.88164
8.23017
8.3009
8.30579
8.31616
8.31507
8.32073
8.32141
8.32708
8.32823
8.33258
8.33296
8.33506
8.33476
8.33528
8.33452
8.33376
8.33261
8.35109
5.68952
7.88972
8.23735
8.30771
8.31247
8.32278
8.32147
8.32696
8.32721
8.3325
8.3333
8.33738
8.33741
8.33929
8.33847
8.33876
8.3373
8.33628
8.3334
8.35047
5.68952
7.88972
8.23735
8.30771
8.31247
8.32278
8.32147
8.32696
8.32721
8.3325
8.3333
8.33739
8.3374
8.3393
8.33845
8.33877
8.33728
8.3363
8.33344
8.35044
5.68319
7.88164
8.23016
8.3009
8.30578
8.31616
8.31506
8.32075
8.3214
8.32711
8.32821
8.33261
8.33291
8.33513
8.33466
8.33538
8.33433
8.33397
8.33244
8.35113
5.695
7.89714
8.24565
8.31446
8.32017
8.33164
8.3328
8.34069
8.34349
8.35117
8.35351
8.35894
8.36023
8.36332
8.3639
8.36528
8.36562
8.36522
8.36571
8.38463
5.70335
7.9057
8.25695
8.32922
8.34246
8.3617
8.36832
8.38216
8.38647
8.39554
8.39778
8.40324
8.40428
8.40755
8.40787
8.40999
8.40968
8.41149
8.40891
8.44372
6.01991
8.24709
8.58623
8.63374
8.64127
8.64407
8.64267
8.64061
8.63622
8.63299
8.62932
8.62659
8.62369
8.62108
8.61853
8.61682
8.61355
8.61449
8.61327
8.63047
7.67158
9.66439
9.74748
9.62543
9.59299
9.52472
9.51966
9.47742
9.4763
9.44838
9.45031
9.43093
9.43277
9.4179
9.41968
9.40788
9.41138
9.39773
9.39861
9.45265
0.477083
1.03622
1.13469
1.10588
1.03266
0.966101
0.914384
0.877629
0.850655
0.829933
0.815041
0.801509
0.792184
0.782123
0.775859
0.768198
0.763376
0.758782
0.751219
0.759022
0.0858089
0.382128
0.526248
0.588508
0.610665
0.624591
0.6315
0.639037
0.642698
0.646659
0.647904
0.649439
0.649459
0.649571
0.649192
0.648929
0.64826
0.647821
0.64703
0.649833
0.0641357
0.299731
0.416191
0.47464
0.493188
0.506906
0.510137
0.516693
0.51898
0.523914
0.526296
0.530629
0.533198
0.536741
0.539386
0.542218
0.544852
0.54723
0.548998
0.553501
0.0680027
0.303396
0.417483
0.473445
0.491566
0.503028
0.504815
0.507946
0.508152
0.509241
0.509515
0.510439
0.510931
0.51186
0.512823
0.513517
0.514929
0.51555
0.516823
0.520117
0.0661548
0.299392
0.412344
0.468305
0.485981
0.497409
0.498921
0.501767
0.501612
0.502166
0.501897
0.502103
0.501904
0.501957
0.501905
0.501874
0.501982
0.501956
0.502118
0.504159
0.0671884
0.301629
0.414991
0.470733
0.488561
0.49987
0.501539
0.504317
0.50421
0.504713
0.504452
0.504578
0.504349
0.504289
0.504104
0.503835
0.503763
0.503485
0.503523
0.505275
0.0671883
0.301629
0.414991
0.470733
0.488561
0.49987
0.501539
0.504317
0.50421
0.504713
0.504452
0.504578
0.504349
0.504289
0.504103
0.503836
0.503763
0.503486
0.50352
0.505273
0.0661545
0.299392
0.412343
0.468305
0.485981
0.49741
0.49892
0.501768
0.501612
0.502167
0.501897
0.502104
0.501903
0.501957
0.501903
0.501873
0.501979
0.501955
0.502116
0.504147
0.0680023
0.303397
0.417482
0.473446
0.491565
0.503029
0.504814
0.507947
0.508152
0.509242
0.509514
0.510442
0.510924
0.511871
0.512809
0.513512
0.514909
0.515544
0.516801
0.520069
0.0641353
0.299732
0.41619
0.474641
0.493187
0.506907
0.510137
0.516694
0.51898
0.523919
0.526285
0.530641
0.533176
0.536768
0.539337
0.542252
0.544775
0.547233
0.548941
0.5534
0.0858086
0.382128
0.526247
0.588509
0.610663
0.624594
0.631495
0.639044
0.642688
0.646673
0.647884
0.649453
0.649443
0.649588
0.649131
0.648948
0.648149
0.647873
0.646874
0.649835
0.477083
1.03622
1.13469
1.10588
1.03266
0.966104
0.914381
0.877637
0.850647
0.829954
0.815023
0.801559
0.792145
0.782244
0.775778
0.768484
0.7632
0.759416
0.751026
0.760149
0.477083
1.03622
1.13469
1.10588
1.03266
0.966101
0.914384
0.877629
0.850655
0.829933
0.815041
0.801509
0.792184
0.782123
0.775859
0.768198
0.763376
0.758782
0.751219
0.759022
0.0858089
0.382128
0.526248
0.588508
0.610665
0.624591
0.6315
0.639037
0.642698
0.646659
0.647904
0.649439
0.649459
0.649571
0.649192
0.648929
0.64826
0.647821
0.64703
0.649833
0.0641357
0.299731
0.416191
0.47464
0.493188
0.506906
0.510137
0.516693
0.51898
0.523914
0.526296
0.530629
0.533198
0.536741
0.539386
0.542218
0.544852
0.54723
0.548998
0.553501
0.0680027
0.303396
0.417483
0.473445
0.491566
0.503028
0.504815
0.507946
0.508152
0.509241
0.509515
0.510439
0.510931
0.51186
0.512823
0.513517
0.514929
0.515551
0.516823
0.520117
0.0661548
0.299392
0.412344
0.468305
0.485981
0.497409
0.498921
0.501768
0.501612
0.502166
0.501897
0.502103
0.501904
0.501957
0.501905
0.501874
0.501982
0.501956
0.502118
0.504159
0.0671884
0.301629
0.414991
0.470733
0.488561
0.49987
0.501539
0.504317
0.50421
0.504713
0.504452
0.504578
0.504349
0.504289
0.504104
0.503835
0.503763
0.503485
0.503523
0.505275
0.0671883
0.301629
0.414991
0.470733
0.488561
0.49987
0.501539
0.504317
0.50421
0.504713
0.504452
0.504578
0.504349
0.504289
0.504103
0.503836
0.503763
0.503486
0.50352
0.505273
0.0661545
0.299392
0.412343
0.468305
0.485981
0.49741
0.49892
0.501768
0.501612
0.502167
0.501897
0.502104
0.501903
0.501957
0.501903
0.501873
0.501979
0.501955
0.502116
0.504147
0.0680023
0.303397
0.417482
0.473446
0.491565
0.503029
0.504814
0.507947
0.508152
0.509242
0.509514
0.510442
0.510924
0.511871
0.512809
0.513512
0.514909
0.515544
0.516801
0.520069
0.0641353
0.299732
0.41619
0.474641
0.493187
0.506907
0.510137
0.516694
0.51898
0.523919
0.526285
0.530641
0.533176
0.536768
0.539337
0.542252
0.544775
0.547233
0.548941
0.5534
0.0858086
0.382128
0.526247
0.588509
0.610663
0.624594
0.631495
0.639044
0.642688
0.646673
0.647884
0.649453
0.649442
0.649588
0.649131
0.648948
0.648149
0.647873
0.646874
0.649835
0.477083
1.03622
1.13469
1.10588
1.03266
0.966104
0.914381
0.877637
0.850647
0.829954
0.815023
0.801559
0.792145
0.782244
0.775778
0.768484
0.7632
0.759416
0.751027
0.760149
7.67158
9.66439
9.74748
9.62542
9.59299
9.5247
9.51968
9.47738
9.47635
9.4483
9.45044
9.43072
9.43309
9.41735
9.4205
9.4064
9.41367
9.39332
9.40545
9.44078
6.01991
8.24709
8.58624
8.63373
8.64128
8.64405
8.64269
8.64057
8.63628
8.63289
8.62948
8.62635
8.62408
8.62047
8.61938
8.61539
8.61578
8.6111
8.61911
8.62246
5.70335
7.90569
8.25695
8.32921
8.34247
8.36168
8.36834
8.38213
8.3865
8.39548
8.39786
8.40308
8.40448
8.40714
8.40855
8.40903
8.41114
8.40945
8.41152
8.44134
5.69501
7.89714
8.24566
8.31445
8.32018
8.33163
8.33281
8.34067
8.34351
8.35112
8.35356
8.35884
8.36035
8.36308
8.36431
8.36482
8.36624
8.36453
8.36635
8.38419
5.68319
7.88164
8.23017
8.3009
8.30579
8.31616
8.31507
8.32073
8.32141
8.32708
8.32823
8.33258
8.33296
8.33506
8.33476
8.33528
8.33452
8.33376
8.33261
8.35109
5.68952
7.88972
8.23735
8.30771
8.31247
8.32278
8.32147
8.32696
8.32721
8.3325
8.3333
8.33738
8.33741
8.33929
8.33847
8.33876
8.3373
8.33628
8.3334
8.35047
5.68952
7.88972
8.23735
8.30771
8.31247
8.32278
8.32147
8.32696
8.32721
8.3325
8.3333
8.33739
8.3374
8.3393
8.33845
8.33877
8.33728
8.3363
8.33344
8.35044
5.68319
7.88164
8.23016
8.3009
8.30578
8.31616
8.31506
8.32075
8.3214
8.32711
8.32821
8.33261
8.33291
8.33513
8.33466
8.33538
8.33433
8.33396
8.33244
8.35113
5.695
7.89714
8.24565
8.31446
8.32017
8.33164
8.3328
8.34069
8.34349
8.35117
8.35351
8.35894
8.36023
8.36332
8.3639
8.36528
8.36562
8.36522
8.3657
8.38463
5.70335
7.9057
8.25695
8.32922
8.34246
8.3617
8.36832
8.38216
8.38647
8.39554
8.39778
8.40324
8.40428
8.40755
8.40787
8.40998
8.40968
8.41149
8.40891
8.44372
6.01991
8.24709
8.58623
8.63374
8.64127
8.64407
8.64267
8.64061
8.63622
8.63299
8.62932
8.62659
8.62369
8.62108
8.61853
8.61682
8.61355
8.61449
8.61327
8.63047
7.67158
9.66439
9.74748
9.62543
9.59299
9.52472
9.51967
9.47742
9.4763
9.44838
9.45031
9.43093
9.43277
9.4179
9.41968
9.40788
9.41138
9.39773
9.39861
9.45265
52.0115
56.4389
56.4503
56.53
56.4701
56.5046
56.4413
56.4532
56.3998
56.4131
56.3791
56.3938
56.3689
56.3757
56.3618
56.3592
56.373
56.3292
56.4583
56.5185
13.8384
14.0052
13.4276
12.881
12.6225
12.5262
12.4397
12.4141
12.3663
12.3558
12.3255
12.3204
12.3014
12.2989
12.288
12.2845
12.281
12.271
12.4463
12.4543
8.08663
9.22467
9.3429
9.329
9.29154
9.28449
9.26336
9.26108
9.24607
9.24354
9.23033
9.22754
9.21617
9.21324
9.2038
9.20059
9.19334
9.18877
9.19276
9.21687
7.48496
8.75699
9.00976
9.10279
9.12865
9.16487
9.17286
9.19435
9.19797
9.21207
9.21299
9.22136
9.22011
9.22463
9.22198
9.2241
9.22071
9.22123
9.22006
9.24129
7.4201
8.70342
8.96922
9.07864
9.11783
9.16776
9.18584
9.22152
9.23398
9.2614
9.27061
9.29151
9.29747
9.31241
9.3158
9.32621
9.32778
9.33404
9.33583
9.35884
7.427
8.69995
8.96414
9.07519
9.11818
9.17293
9.19606
9.23748
9.25478
9.28901
9.30289
9.3307
9.34108
9.36244
9.36971
9.38583
9.39073
9.40154
9.40698
9.43077
7.427
8.69995
8.96414
9.07519
9.11817
9.17293
9.19606
9.23749
9.25477
9.28903
9.30288
9.33071
9.34107
9.36246
9.3697
9.38587
9.39073
9.40161
9.40704
9.43085
7.4201
8.70342
8.96922
9.07864
9.11782
9.16778
9.18583
9.22154
9.23397
9.26142
9.27059
9.29156
9.29743
9.3125
9.31574
9.32636
9.32772
9.33426
9.33586
9.35913
7.48496
8.757
9.00976
9.1028
9.12864
9.16488
9.17285
9.19437
9.19794
9.21212
9.21293
9.22145
9.21996
9.22486
9.22169
9.22457
9.22018
9.22218
9.21933
9.24224
8.08663
9.22467
9.34289
9.32901
9.29154
9.2845
9.26334
9.2611
9.24602
9.2436
9.23022
9.22768
9.2159
9.21359
9.20316
9.20143
9.19172
9.19163
9.1903
9.22025
13.8384
14.0052
13.4276
12.881
12.6225
12.5262
12.4397
12.4141
12.3662
12.3559
12.3253
12.3206
12.301
12.2995
12.2869
12.2863
12.2778
12.2765
12.4347
12.4663
52.0115
56.439
56.4503
56.53
56.47
56.5047
56.4411
56.4535
56.3995
56.4136
56.3783
56.3951
56.3668
56.379
56.3563
56.3682
56.3576
56.3555
56.4097
56.6003
144.16
146.39
147.458
148.302
148.945
149.574
150.116
150.652
151.104
151.54
151.92
152.303
152.649
152.991
153.289
153.57
153.809
154.036
154.229
154.41
154.555
154.683
154.776
154.852
154.899
154.938
154.957
154.975
154.98
154.988
154.989
154.994
154.993
154.996
154.995
154.998
154.997
155
154.999
155.002
155.001
155.003
155.002
155.005
155.004
155.006
155.005
155.007
155.007
155.009
155.008
155.01
155.009
155.011
155.01
155.011
155.01
155.012
155.011
155.012
155.011
155.012
155.011
155.012
155.011
155.012
155.011
155.011
155.01
155.011
155.009
155.009
155.008
155.008
155.006
155.006
155.004
155.004
155.002
155.001
154.999
154.998
154.995
154.994
154.991
154.99
154.985
154.985
154.949
154.924
47.3122
49.1275
49.4684
49.7614
49.9517
50.1741
50.338
50.5304
50.6692
50.8276
50.9442
51.0836
51.1912
51.3167
51.4101
51.5149
51.59
51.676
51.7367
51.807
51.8528
51.9053
51.9342
51.9689
51.9831
52.0046
52.0097
52.0236
52.0245
52.0348
52.0343
52.0431
52.0424
52.0505
52.0499
52.0576
52.0572
52.0646
52.0645
52.0716
52.0716
52.0784
52.0785
52.0851
52.0853
52.0916
52.0919
52.098
52.0984
52.1042
52.1046
52.1101
52.1106
52.1159
52.1164
52.1215
52.122
52.1267
52.1272
52.1318
52.1322
52.1366
52.137
52.1411
52.1414
52.1453
52.1455
52.1492
52.1493
52.1528
52.1529
52.1561
52.1561
52.1591
52.1589
52.1617
52.1615
52.164
52.1636
52.166
52.1654
52.1676
52.1667
52.1687
52.1675
52.1694
52.1673
52.1699
52.1518
52.1421
30.5213
32.5847
32.8029
33.0001
33.0937
33.2426
33.3263
33.4623
33.5395
33.6549
33.7185
33.8186
33.8784
33.9716
34.027
34.1082
34.1534
34.2218
34.2586
34.3168
34.3459
34.3932
34.4125
34.4476
34.4573
34.4818
34.4853
34.5032
34.5037
34.5182
34.5177
34.5308
34.5302
34.5425
34.5422
34.554
34.554
34.5653
34.5656
34.5765
34.5771
34.5876
34.5884
34.5985
34.5995
34.6092
34.6103
34.6197
34.6209
34.6299
34.6312
34.6398
34.6412
34.6495
34.6509
34.6589
34.6602
34.6679
34.6693
34.6766
34.678
34.685
34.6863
34.693
34.6943
34.7007
34.7019
34.708
34.7091
34.7149
34.7159
34.7215
34.7224
34.7277
34.7285
34.7335
34.7341
34.7389
34.7394
34.7439
34.7442
34.7485
34.7486
34.7527
34.7524
34.7563
34.7555
34.7596
34.7551
34.7352
28.2918
30.7497
30.9698
31.149
31.2112
31.3384
31.3948
31.5184
31.58
31.6904
31.7396
31.833
31.8795
31.9696
32.0174
32.1001
32.1407
32.2113
32.2446
32.3065
32.3347
32.3878
32.4084
32.4499
32.4613
32.4913
32.4959
32.518
32.5191
32.5369
32.5368
32.5527
32.5524
32.5674
32.5674
32.5817
32.5821
32.596
32.5967
32.6101
32.6112
32.6241
32.6254
32.6379
32.6395
32.6515
32.6532
32.6649
32.6667
32.678
32.6799
32.6907
32.6928
32.7032
32.7053
32.7154
32.7175
32.7271
32.7293
32.7386
32.7407
32.7496
32.7517
32.7603
32.7622
32.7705
32.7724
32.7803
32.7822
32.7898
32.7915
32.7988
32.8004
32.8074
32.8088
32.8155
32.8169
32.8232
32.8244
32.8305
32.8315
32.8373
32.8381
32.8436
32.8441
32.8495
32.8495
32.8547
32.8557
32.8327
28.1292
30.8243
31.0549
31.2273
31.2684
31.3774
31.4139
31.5249
31.5757
31.6824
31.7223
31.81
31.8481
31.9351
31.9788
32.0633
32.1021
32.1753
32.2077
32.2728
32.3018
32.3597
32.3824
32.4292
32.4428
32.4771
32.4832
32.5083
32.5102
32.5303
32.5306
32.5483
32.5484
32.565
32.5653
32.5813
32.5821
32.5975
32.5987
32.6136
32.6151
32.6296
32.6314
32.6454
32.6475
32.661
32.6633
32.6764
32.6788
32.6914
32.694
32.7062
32.7088
32.7206
32.7233
32.7347
32.7374
32.7484
32.7511
32.7617
32.7644
32.7746
32.7772
32.7871
32.7897
32.7992
32.8017
32.8108
32.8132
32.822
32.8243
32.8327
32.8349
32.843
32.845
32.8528
32.8547
32.8622
32.8639
32.871
32.8725
32.8794
32.8807
32.8872
32.8882
32.8946
32.8952
32.9009
32.9041
32.8785
28.216
31.0567
31.2911
31.4524
31.4749
31.564
31.5832
31.6782
31.7185
31.8164
31.8482
31.9279
31.9588
32.0402
32.0801
32.1632
32.2003
32.2736
32.3052
32.3712
32.4005
32.4606
32.4846
32.534
32.5489
32.5856
32.5925
32.6192
32.6215
32.6428
32.6432
32.6619
32.6621
32.6795
32.68
32.6968
32.6977
32.7139
32.7152
32.7309
32.7327
32.7479
32.7499
32.7646
32.7669
32.7812
32.7837
32.7975
32.8002
32.8136
32.8164
32.8293
32.8322
32.8447
32.8477
32.8597
32.8627
32.8744
32.8774
32.8886
32.8916
32.9025
32.9054
32.9159
32.9188
32.9289
32.9317
32.9415
32.9442
32.9535
32.9562
32.9652
32.9677
32.9764
32.9787
32.9871
32.9892
32.9973
32.9993
33.007
33.0088
33.0162
33.0178
33.0249
33.0263
33.0331
33.0343
33.04
33.0448
33.018
28.2177
31.0467
31.2617
31.4016
31.4055
31.4752
31.4803
31.56
31.5897
31.6759
31.6998
31.7708
31.7959
31.8712
31.9072
31.9866
32.0213
32.0925
32.123
32.1878
32.2166
32.2761
32.2998
32.3489
32.3637
32.4002
32.407
32.4337
32.4359
32.4571
32.4575
32.4761
32.4763
32.4937
32.4941
32.5108
32.5117
32.5279
32.5292
32.5448
32.5466
32.5617
32.5638
32.5784
32.5807
32.5949
32.5974
32.6112
32.6139
32.6272
32.63
32.6428
32.6457
32.6582
32.6612
32.6732
32.6762
32.6878
32.6908
32.702
32.705
32.7158
32.7188
32.7292
32.7321
32.7421
32.745
32.7547
32.7574
32.7667
32.7693
32.7783
32.7808
32.7895
32.7918
32.8001
32.8023
32.8103
32.8124
32.8201
32.8219
32.8293
32.8309
32.8379
32.8393
32.8461
32.8473
32.853
32.8578
32.8314
28.1319
30.7828
30.9491
31.0553
31.0407
31.094
31.0887
31.156
31.176
31.2495
31.2664
31.3294
31.3508
31.4204
31.4532
31.5271
31.5594
31.6267
31.6558
31.7177
31.7451
31.8014
31.8234
31.8692
31.8825
31.9163
31.9222
31.9471
31.9488
31.9687
31.9689
31.9865
31.9864
32.0029
32.0032
32.019
32.0197
32.035
32.0361
32.0509
32.0524
32.0667
32.0685
32.0823
32.0843
32.0977
32.0999
32.1129
32.1153
32.1278
32.1303
32.1424
32.145
32.1567
32.1593
32.1706
32.1733
32.1842
32.1868
32.1974
32.2
32.2101
32.2128
32.2225
32.2251
32.2345
32.237
32.246
32.2484
32.2571
32.2594
32.2678
32.2699
32.278
32.28
32.2877
32.2896
32.297
32.2987
32.3058
32.3073
32.3142
32.3155
32.322
32.323
32.3293
32.3301
32.3354
32.3393
32.3149
28.2735
30.6203
30.7218
30.7907
30.7631
30.8033
30.7937
30.8508
30.8635
30.9244
30.9372
30.9934
31.0141
31.0787
31.1096
31.1773
31.2079
31.2704
31.2986
31.3562
31.382
31.4329
31.4522
31.4925
31.5034
31.5327
31.5371
31.5587
31.5596
31.5771
31.5769
31.5925
31.5921
31.6068
31.6068
31.6209
31.6212
31.6348
31.6355
31.6486
31.6497
31.6624
31.6636
31.6759
31.6774
31.6893
31.6909
31.7024
31.7042
31.7152
31.7171
31.7278
31.7298
31.74
31.7421
31.752
31.7541
31.7636
31.7656
31.7748
31.7769
31.7857
31.7877
31.7962
31.7981
31.8063
31.8082
31.816
31.8178
31.8253
31.827
31.8342
31.8358
31.8427
31.8441
31.8507
31.852
31.8584
31.8595
31.8656
31.8665
31.8723
31.8731
31.8786
31.8791
31.8844
31.8847
31.8894
31.891
31.8695
30.4103
32.2437
32.2743
32.3146
32.2823
32.3166
32.3094
32.3597
32.3696
32.4213
32.4348
32.4883
32.5129
32.5752
32.608
32.6714
32.704
32.7627
32.7931
32.8464
32.8723
32.917
32.9347
32.9684
32.9773
33.0011
33.0042
33.0215
33.0218
33.036
33.0354
33.0481
33.0475
33.0595
33.0591
33.0706
33.0705
33.0816
33.0818
33.0925
33.093
33.1033
33.104
33.1139
33.1147
33.1243
33.1253
33.1345
33.1356
33.1445
33.1457
33.1542
33.1554
33.1636
33.1649
33.1727
33.174
33.1816
33.1829
33.1901
33.1914
33.1983
33.1995
33.2061
33.2073
33.2136
33.2147
33.2208
33.2218
33.2276
33.2285
33.234
33.2349
33.2401
33.2408
33.2458
33.2464
33.2512
33.2516
33.2561
33.2564
33.2606
33.2607
33.2647
33.2645
33.2683
33.2677
33.2714
33.2685
33.2506
46.8753
48.1971
48.198
48.2221
48.1952
48.2301
48.2375
48.292
48.3144
48.3703
48.4009
48.4666
48.5147
48.592
48.6486
48.7256
48.7807
48.8521
48.9026
48.9654
49.0061
49.0546
49.0808
49.1134
49.1263
49.1467
49.1512
49.1644
49.1651
49.175
49.1743
49.1828
49.182
49.1898
49.1891
49.1966
49.1961
49.2034
49.2031
49.21
49.2099
49.2165
49.2166
49.2229
49.2231
49.2292
49.2295
49.2354
49.2357
49.2413
49.2417
49.2471
49.2475
49.2526
49.2531
49.258
49.2584
49.2631
49.2635
49.2679
49.2683
49.2725
49.2728
49.2768
49.2771
49.2809
49.2811
49.2846
49.2848
49.2881
49.2881
49.2913
49.2912
49.2942
49.294
49.2967
49.2964
49.2989
49.2985
49.3008
49.3002
49.3024
49.3015
49.3034
49.3023
49.304
49.3023
49.3044
49.2879
49.2796
142.392
143.084
143.117
143.146
143.125
143.189
143.253
143.375
143.471
143.599
143.716
143.878
144.044
144.241
144.427
144.625
144.804
144.987
145.149
145.308
145.437
145.554
145.638
145.708
145.751
145.787
145.804
145.82
145.825
145.832
145.832
145.837
145.835
145.839
145.837
145.84
145.839
145.841
145.84
145.843
145.841
145.844
145.842
145.845
145.844
145.846
145.845
145.847
145.846
145.848
145.847
145.848
145.847
145.849
145.848
145.849
145.848
145.85
145.849
145.85
145.849
145.85
145.848
145.849
145.848
145.849
145.847
145.848
145.847
145.847
145.845
145.846
145.844
145.844
145.842
145.842
145.84
145.84
145.837
145.837
145.834
145.834
145.831
145.83
145.827
145.825
145.821
145.82
145.788
145.767
30.2028
30.9972
31.2277
31.3933
31.5313
31.6606
31.7756
31.8877
31.9815
32.0745
32.153
32.2369
32.308
32.3834
32.4434
32.5062
32.554
32.6058
32.644
32.6861
32.7144
32.7453
32.7625
32.7827
32.7909
32.8034
32.8062
32.8145
32.8149
32.8213
32.821
32.8266
32.8262
32.8315
32.8311
32.8363
32.836
32.841
32.8409
32.8457
32.8457
32.8503
32.8505
32.8549
32.8552
32.8595
32.8598
32.8639
32.8642
32.8682
32.8686
32.8724
32.8729
32.8765
32.877
32.8805
32.8809
32.8843
32.8847
32.8879
32.8883
32.8914
32.8917
32.8947
32.895
32.8977
32.898
32.9006
32.9009
32.9033
32.9035
32.9058
32.906
32.9081
32.9082
32.9102
32.9102
32.9122
32.9121
32.9139
32.9138
32.9156
32.9154
32.9173
32.917
32.9192
32.9188
32.9221
32.9177
32.9179
28.0604
29.4193
29.6506
29.8149
29.9436
30.0683
30.1768
30.2857
30.3763
30.466
30.5413
30.6208
30.6894
30.7615
30.8206
30.8808
30.9282
30.9776
31.0157
31.056
31.0849
31.1147
31.1331
31.1524
31.1616
31.173
31.1765
31.1835
31.1844
31.1892
31.1891
31.1931
31.1928
31.1964
31.1961
31.1995
31.1992
31.2025
31.2023
31.2054
31.2053
31.2083
31.2082
31.211
31.211
31.2137
31.2137
31.2163
31.2163
31.2188
31.2188
31.2211
31.2212
31.2234
31.2235
31.2256
31.2256
31.2276
31.2277
31.2296
31.2296
31.2314
31.2315
31.2332
31.2332
31.2348
31.2348
31.2363
31.2363
31.2378
31.2377
31.2391
31.239
31.2403
31.2402
31.2415
31.2414
31.2426
31.2424
31.2436
31.2434
31.2446
31.2442
31.2455
31.245
31.2465
31.2456
31.2476
31.2465
31.2479
25.8547
27.715
27.9668
28.1177
28.2323
28.3392
28.4364
28.5342
28.6206
28.7022
28.7723
28.8422
28.9062
28.9718
29.0298
29.0862
29.1335
29.1795
29.218
29.256
29.2867
29.3159
29.337
29.3561
29.3677
29.3784
29.3834
29.3888
29.3904
29.3934
29.3936
29.3955
29.3954
29.3969
29.3967
29.3981
29.3978
29.3992
29.399
29.4003
29.4001
29.4013
29.4011
29.4023
29.4021
29.4032
29.4031
29.4042
29.404
29.405
29.4049
29.4059
29.4058
29.4067
29.4066
29.4075
29.4074
29.4082
29.4081
29.4089
29.4088
29.4096
29.4095
29.4102
29.4101
29.4108
29.4107
29.4113
29.4113
29.4119
29.4118
29.4124
29.4123
29.4128
29.4127
29.4133
29.4132
29.4137
29.4136
29.4141
29.4139
29.4145
29.4142
29.4148
29.4144
29.4151
29.4142
29.4151
29.4138
29.3932
25.1169
27.2228
27.4749
27.6076
27.7035
27.7917
27.8742
27.9624
28.0442
28.1214
28.187
28.2505
28.31
28.3721
28.43
28.4862
28.5349
28.5809
28.6208
28.6596
28.6931
28.7247
28.7495
28.7711
28.786
28.7981
28.8051
28.8109
28.8135
28.8162
28.8168
28.8181
28.8181
28.8189
28.8187
28.8194
28.8192
28.8198
28.8196
28.8202
28.82
28.8206
28.8204
28.821
28.8208
28.8213
28.8212
28.8216
28.8215
28.822
28.8218
28.8222
28.8221
28.8225
28.8224
28.8228
28.8226
28.823
28.8229
28.8232
28.8231
28.8234
28.8233
28.8236
28.8234
28.8237
28.8236
28.8239
28.8237
28.824
28.8238
28.8241
28.8239
28.8242
28.824
28.8242
28.8241
28.8243
28.8241
28.8243
28.8241
28.8243
28.824
28.8243
28.8239
28.8242
28.8235
28.824
28.8232
28.8075
24.6686
26.9315
27.1717
27.2822
27.355
27.4217
27.4858
27.5609
27.6344
27.7055
27.7647
27.8211
27.8745
27.932
27.9877
28.0428
28.0914
28.1371
28.1774
28.2168
28.252
28.2856
28.3132
28.3373
28.3546
28.3686
28.3772
28.3839
28.3872
28.3902
28.3911
28.3924
28.3925
28.3932
28.3931
28.3936
28.3934
28.394
28.3938
28.3943
28.3941
28.3945
28.3944
28.3948
28.3946
28.395
28.3949
28.3953
28.3951
28.3955
28.3953
28.3957
28.3955
28.3958
28.3957
28.396
28.3958
28.3961
28.396
28.3962
28.3961
28.3963
28.3962
28.3964
28.3962
28.3964
28.3963
28.3965
28.3963
28.3965
28.3963
28.3964
28.3963
28.3964
28.3962
28.3964
28.3962
28.3963
28.3961
28.3962
28.396
28.3961
28.3958
28.3959
28.3954
28.3956
28.3948
28.395
28.3943
28.371
24.5776
26.8798
27.098
27.1831
27.233
27.2783
27.3244
27.385
27.4482
27.5108
27.5625
27.6114
27.6583
27.7107
27.7631
27.8166
27.864
27.9093
27.9491
27.9888
28.0246
28.0595
28.0884
28.1142
28.1329
28.1482
28.1576
28.1651
28.1689
28.1722
28.1733
28.1748
28.175
28.1758
28.1757
28.1763
28.1762
28.1767
28.1765
28.1771
28.1769
28.1774
28.1773
28.1777
28.1776
28.178
28.1779
28.1783
28.1781
28.1785
28.1784
28.1788
28.1786
28.1789
28.1788
28.1791
28.179
28.1792
28.1791
28.1794
28.1792
28.1794
28.1793
28.1795
28.1793
28.1795
28.1794
28.1795
28.1794
28.1795
28.1793
28.1795
28.1793
28.1794
28.1792
28.1793
28.1791
28.1792
28.179
28.1791
28.1788
28.1789
28.1786
28.1787
28.1782
28.1784
28.1777
28.1779
28.1772
28.1561
24.5778
26.868
27.0671
27.1315
27.1625
27.1911
27.2225
27.2699
27.322
27.3748
27.4182
27.4598
27.5005
27.5479
27.5963
27.6466
27.6916
27.7351
27.7737
27.8125
27.8476
27.882
27.9107
27.9362
27.9548
27.9699
27.9793
27.9868
27.9905
27.9938
27.9949
27.9964
27.9965
27.9973
27.9972
27.9978
27.9977
27.9982
27.9981
27.9986
27.9984
27.9989
27.9988
27.9992
27.9991
27.9995
27.9994
27.9998
27.9997
28
27.9999
28.0003
28.0001
28.0005
28.0003
28.0006
28.0005
28.0008
28.0006
28.0009
28.0007
28.001
28.0008
28.001
28.0009
28.0011
28.0009
28.0011
28.0009
28.0011
28.0009
28.001
28.0008
28.001
28.0008
28.0009
28.0007
28.0008
28.0005
28.0006
28.0004
28.0005
28.0001
28.0003
27.9998
28
27.9993
27.9994
27.9988
27.9781
24.6683
26.8869
27.0669
27.1157
27.1337
27.1515
27.1736
27.2116
27.2535
27.2966
27.332
27.3677
27.4039
27.4472
27.4916
27.538
27.58
27.6208
27.6576
27.6946
27.7281
27.7604
27.7871
27.8106
27.8275
27.8412
27.8496
27.8562
27.8594
27.8623
27.8632
27.8645
27.8645
27.8652
27.8651
27.8656
27.8654
27.8659
27.8657
27.8662
27.866
27.8665
27.8663
27.8668
27.8666
27.867
27.8668
27.8672
27.8671
27.8674
27.8673
27.8676
27.8675
27.8678
27.8677
27.868
27.8678
27.8681
27.868
27.8682
27.8681
27.8683
27.8682
27.8684
27.8682
27.8684
27.8683
27.8685
27.8683
27.8685
27.8683
27.8685
27.8683
27.8685
27.8683
27.8684
27.8682
27.8684
27.8682
27.8683
27.8681
27.8682
27.8679
27.868
27.8676
27.8678
27.8671
27.8671
27.8667
27.8446
25.0964
27.0975
27.2372
27.2687
27.277
27.2886
27.306
27.3369
27.3697
27.4039
27.4329
27.4647
27.4981
27.5386
27.5795
27.6226
27.6615
27.7004
27.7354
27.7706
27.8016
27.8314
27.8549
27.8756
27.8898
27.9015
27.9082
27.9138
27.9162
27.9188
27.9193
27.9206
27.9206
27.9214
27.9212
27.9218
27.9216
27.9222
27.922
27.9226
27.9224
27.9229
27.9228
27.9233
27.9231
27.9236
27.9235
27.9239
27.9238
27.9243
27.9241
27.9245
27.9244
27.9248
27.9247
27.9251
27.9249
27.9253
27.9252
27.9255
27.9254
27.9257
27.9256
27.9259
27.9258
27.9261
27.9259
27.9262
27.9261
27.9263
27.9262
27.9264
27.9263
27.9265
27.9264
27.9266
27.9265
27.9267
27.9265
27.9268
27.9265
27.9268
27.9265
27.9268
27.9264
27.9267
27.9261
27.9263
27.9257
27.9115
25.7717
27.4378
27.5273
27.5437
27.5462
27.5561
27.5716
27.5982
27.6234
27.6518
27.6766
27.7077
27.7399
27.7796
27.8175
27.8586
27.8947
27.9326
27.9653
27.9993
28.0271
28.0542
28.0738
28.0918
28.1027
28.1128
28.1174
28.1226
28.124
28.1269
28.127
28.1288
28.1286
28.1301
28.1298
28.1312
28.1309
28.1322
28.1319
28.1332
28.133
28.1342
28.134
28.1351
28.1349
28.136
28.1358
28.1369
28.1367
28.1377
28.1376
28.1385
28.1384
28.1393
28.1392
28.1401
28.14
28.1408
28.1407
28.1414
28.1414
28.1421
28.142
28.1427
28.1426
28.1433
28.1432
28.1438
28.1437
28.1443
28.1443
28.1448
28.1447
28.1453
28.1452
28.1458
28.1456
28.1462
28.146
28.1466
28.1464
28.147
28.1467
28.1473
28.1469
28.1476
28.1469
28.1475
28.1474
28.1286
27.829
28.8986
28.9256
28.9293
28.927
28.9396
28.9538
28.9807
29.0009
29.0296
29.0529
29.0884
29.1211
29.1644
29.2013
29.2449
29.2802
29.3209
29.3529
29.3888
29.4145
29.442
29.4587
29.4767
29.4851
29.4959
29.4991
29.5057
29.5063
29.5109
29.5108
29.5145
29.5142
29.5176
29.5173
29.5206
29.5203
29.5234
29.5232
29.5262
29.526
29.5289
29.5287
29.5315
29.5314
29.534
29.534
29.5365
29.5365
29.5388
29.5388
29.5411
29.5411
29.5433
29.5433
29.5453
29.5454
29.5473
29.5473
29.5492
29.5492
29.5509
29.5509
29.5526
29.5526
29.5541
29.5541
29.5556
29.5555
29.557
29.5569
29.5582
29.5581
29.5594
29.5593
29.5606
29.5604
29.5616
29.5614
29.5626
29.5623
29.5635
29.5632
29.5644
29.564
29.5654
29.5647
29.5664
29.566
29.5682
29.7968
30.2539
30.2628
30.2566
30.2538
30.2642
30.2782
30.303
30.3215
30.3497
30.3729
30.4102
30.4434
30.4886
30.5255
30.5709
30.6063
30.649
30.681
30.7184
30.7434
30.7718
30.7874
30.8062
30.8136
30.8254
30.8278
30.8357
30.8359
30.8421
30.8416
30.8471
30.8465
30.8517
30.8513
30.8562
30.8559
30.8607
30.8606
30.8652
30.8652
30.8696
30.8697
30.874
30.8742
30.8783
30.8786
30.8826
30.8829
30.8867
30.887
30.8907
30.8911
30.8946
30.895
30.8984
30.8988
30.902
30.9024
30.9055
30.9059
30.9088
30.9091
30.9119
30.9122
30.9149
30.9151
30.9176
30.9178
30.9202
30.9203
30.9226
30.9226
30.9248
30.9248
30.9268
30.9267
30.9286
30.9284
30.9303
30.9301
30.9319
30.9316
30.9334
30.9332
30.9352
30.9349
30.9379
30.9338
30.9342
3.63811
3.84554
3.86969
3.88171
3.90116
3.91989
3.93842
3.95904
3.97408
3.99438
4.00658
4.02667
4.03674
4.05588
4.06363
4.08111
4.08692
4.10287
4.10721
4.12161
4.1245
4.13714
4.13865
4.14964
4.15017
4.15994
4.15993
4.1689
4.1687
4.17713
4.17691
4.18493
4.18477
4.19243
4.19236
4.19969
4.19972
4.20674
4.20686
4.21358
4.2138
4.22023
4.22053
4.2267
4.22706
4.23297
4.2334
4.23906
4.23953
4.24495
4.24546
4.25066
4.25119
4.25617
4.25672