/*--------------------------------*- C++ -*----------------------------------*\
  =========                 |
  \\      /  F ield         | OpenFOAM: The Open Source CFD Toolbox
   \\    /   O peration     | Website:  https://openfoam.org
    \\  /    A nd           | Version:  7
     \\/     M anipulation  |
\*---------------------------------------------------------------------------*/
FoamFile
{
    version     2.0;
    format      ascii;
    class       volVectorField;
    location    "0.1075";
    object      UMean;
}
// * * * * * * * * * * * * * * * * * * * * * * * * * * * * * * * * * * * * * //

dimensions      [0 1 -1 0 0 0 0];

internalField   nonuniform List<vector> 
1440
(
(29.5732 0.0786303 0)
(29.3411 0.307722 0)
(28.8703 0.523757 0)
(28.1869 0.698967 0)
(27.346 0.826698 0)
(26.3985 0.905121 0)
(25.3856 0.937962 0)
(24.3383 0.931988 0)
(23.2849 0.896698 0)
(22.2437 0.839333 0)
(21.2365 0.767975 0)
(20.2701 0.690047 0)
(19.354 0.608243 0)
(18.4945 0.5265 0)
(17.6939 0.447974 0)
(16.9529 0.37456 0)
(16.2709 0.307391 0)
(15.6467 0.247018 0)
(15.0779 0.193577 0)
(14.5619 0.146915 0)
(14.0953 0.106684 0)
(13.6748 0.0724061 0)
(13.2969 0.0435402 0)
(12.958 0.0195249 0)
(12.6547 -0.000193169 0)
(12.3836 -0.0161491 0)
(12.1415 -0.0288448 0)
(11.9255 -0.0387413 0)
(11.7326 -0.046252 0)
(11.5603 -0.0517414 0)
(11.4063 -0.0555257 0)
(11.2684 -0.0578773 0)
(11.1447 -0.0590387 0)
(11.0336 -0.0592315 0)
(10.9334 -0.0587532 0)
(10.8427 -0.0578398 0)
(10.7602 -0.0566244 0)
(10.685 -0.0551726 0)
(10.616 -0.0535258 0)
(10.5525 -0.0517216 0)
(10.4938 -0.0497972 0)
(10.4391 -0.0477869 0)
(10.3881 -0.0457209 0)
(10.3401 -0.0436256 0)
(10.295 -0.0415236 0)
(10.2522 -0.0394347 0)
(10.2115 -0.0373746 0)
(10.1727 -0.0353558 0)
(10.1356 -0.0333878 0)
(10.0999 -0.031478 0)
(10.0655 -0.0296312 0)
(10.0322 -0.0278507 0)
(10 -0.0261391 0)
(9.96876 -0.0244972 0)
(9.93834 -0.0229253 0)
(9.90869 -0.0214236 0)
(9.87975 -0.019991 0)
(9.85145 -0.0186263 0)
(9.82375 -0.0173278 0)
(9.7966 -0.0160936 0)
(9.76995 -0.014921 0)
(9.74379 -0.0138084 0)
(9.71808 -0.012754 0)
(9.69279 -0.011756 0)
(9.6679 -0.0108124 0)
(9.64339 -0.00992119 0)
(9.61924 -0.00908043 0)
(9.59545 -0.00828763 0)
(9.57199 -0.00754063 0)
(9.54885 -0.00683731 0)
(9.52603 -0.006176 0)
(9.50351 -0.00555473 0)
(9.48129 -0.00497185 0)
(9.45936 -0.00442652 0)
(9.43771 -0.00391686 0)
(9.41634 -0.00344152 0)
(9.39524 -0.00299892 0)
(9.37441 -0.00258424 0)
(9.35384 -0.0021921 0)
(9.33353 -0.00181942 0)
(9.31347 -0.00146515 0)
(9.29367 -0.00112897 0)
(9.27412 -0.00081054 0)
(9.25482 -0.000509672 0)
(9.23577 -0.000226073 0)
(9.21696 4.03758e-05 0)
(9.19839 0.000290277 0)
(9.18006 0.000523867 0)
(9.16196 0.000741869 0)
(9.1441 0.000944493 0)
(9.12646 0.00113284 0)
(9.10906 0.00130728 0)
(9.09188 0.0014688 0)
(9.07493 0.00161758 0)
(9.0582 0.00175442 0)
(9.04169 0.00187966 0)
(9.02539 0.00199422 0)
(9.00931 0.00209847 0)
(8.99344 0.00219294 0)
(8.97778 0.00227824 0)
(8.96233 0.00235461 0)
(8.94708 0.00242345 0)
(8.93204 0.0024834 0)
(8.91718 0.00253811 0)
(8.90254 0.00258248 0)
(8.88807 0.00262617 0)
(8.87383 0.0026538 0)
(8.85971 0.00269177 0)
(8.84588 0.0026982 0)
(8.83209 0.00273999 0)
(8.81871 0.00271107 0)
(8.80518 0.00277789 0)
(8.79235 0.00267729 0)
(8.7789 0.00281264 0)
(8.76694 0.00255581 0)
(8.75317 0.00285582 0)
(8.74283 0.00226693 0)
(8.72763 0.00297945 0)
(8.72097 0.00175866 0)
(8.70007 0.00365117 0)
(29.6228 0.113575 0)
(29.723 0.318785 0)
(29.8902 0.500894 0)
(30.0959 0.663717 0)
(30.3163 0.806465 0)
(30.5311 0.925235 0)
(30.7235 1.01782 0)
(30.8801 1.08471 0)
(30.994 1.12833 0)
(31.0621 1.15148 0)
(31.0864 1.15691 0)
(31.0698 1.14747 0)
(31.0171 1.12561 0)
(30.9334 1.09363 0)
(30.8237 1.05376 0)
(30.6924 1.00807 0)
(30.544 0.958375 0)
(30.3824 0.906196 0)
(30.211 0.852798 0)
(30.0327 0.799238 0)
(29.85 0.746364 0)
(29.6649 0.694881 0)
(29.479 0.645325 0)
(29.2937 0.598084 0)
(29.11 0.55345 0)
(28.9287 0.511602 0)
(28.7504 0.472625 0)
(28.5754 0.43653 0)
(28.4042 0.403268 0)
(28.2368 0.372745 0)
(28.0733 0.344837 0)
(27.9138 0.319394 0)
(27.7583 0.296253 0)
(27.6068 0.275234 0)
(27.459 0.256142 0)
(27.3149 0.238792 0)
(27.1745 0.22302 0)
(27.0376 0.208687 0)
(26.9042 0.195663 0)
(26.7741 0.183827 0)
(26.6473 0.173066 0)
(26.5235 0.16327 0)
(26.4028 0.154344 0)
(26.2851 0.146196 0)
(26.1702 0.138747 0)
(26.058 0.131925 0)
(25.9486 0.125662 0)
(25.8418 0.119901 0)
(25.7375 0.114589 0)
(25.6358 0.109679 0)
(25.5364 0.105131 0)
(25.4395 0.100908 0)
(25.3448 0.0969777 0)
(25.2524 0.0933127 0)
(25.1622 0.0898877 0)
(25.0742 0.0866806 0)
(24.9883 0.0836719 0)
(24.9044 0.0808443 0)
(24.8225 0.078182 0)
(24.7425 0.0756711 0)
(24.6645 0.0732989 0)
(24.5883 0.071054 0)
(24.5139 0.0689264 0)
(24.4413 0.0669066 0)
(24.3704 0.0649862 0)
(24.3012 0.0631576 0)
(24.2336 0.0614143 0)
(24.1676 0.0597505 0)
(24.1031 0.0581607 0)
(24.0401 0.0566399 0)
(23.9786 0.0551841 0)
(23.9186 0.0537891 0)
(23.8598 0.0524514 0)
(23.8025 0.0511673 0)
(23.7464 0.0499341 0)
(23.6916 0.0487492 0)
(23.638 0.0476105 0)
(23.5856 0.0465164 0)
(23.5343 0.0454658 0)
(23.4842 0.0444571 0)
(23.4351 0.0434883 0)
(23.3871 0.0425574 0)
(23.3401 0.0416624 0)
(23.2941 0.0408013 0)
(23.2491 0.0399724 0)
(23.205 0.0391741 0)
(23.1618 0.0384052 0)
(23.1194 0.0376638 0)
(23.078 0.0369489 0)
(23.0373 0.0362591 0)
(22.9975 0.0355935 0)
(22.9584 0.0349509 0)
(22.9201 0.0343303 0)
(22.8825 0.0337306 0)
(22.8456 0.0331511 0)
(22.8094 0.0325907 0)
(22.7739 0.0320486 0)
(22.7391 0.0315241 0)
(22.7048 0.0310161 0)
(22.6712 0.0305246 0)
(22.6382 0.0300479 0)
(22.6058 0.0295868 0)
(22.5739 0.029138 0)
(22.5426 0.0287049 0)
(22.5119 0.0282809 0)
(22.4816 0.0278741 0)
(22.4519 0.02747 0)
(22.4226 0.0270887 0)
(22.3939 0.0266974 0)
(22.3655 0.0263431 0)
(22.3379 0.0259508 0)
(22.3102 0.0256278 0)
(22.2839 0.0252065 0)
(22.2564 0.0249215 0)
(22.232 0.0244145 0)
(22.2039 0.0241661 0)
(22.1829 0.0234744 0)
(22.1517 0.0232268 0)
(22.1384 0.0223181 0)
(22.0978 0.0220801 0)
(29.6194 0.0757126 0)
(29.674 0.220789 0)
(29.7748 0.353974 0)
(29.9151 0.473402 0)
(30.091 0.578417 0)
(30.2989 0.667791 0)
(30.5337 0.740376 0)
(30.7884 0.795971 0)
(31.0549 0.835404 0)
(31.3258 0.860028 0)
(31.5946 0.871328 0)
(31.8567 0.870985 0)
(32.1081 0.860565 0)
(32.3463 0.841597 0)
(32.5692 0.815675 0)
(32.7757 0.784409 0)
(32.9651 0.749309 0)
(33.1375 0.711715 0)
(33.2933 0.672783 0)
(33.4332 0.63349 0)
(33.5579 0.594646 0)
(33.6686 0.556896 0)
(33.7661 0.520735 0)
(33.8516 0.486522 0)
(33.9262 0.454499 0)
(33.9907 0.424807 0)
(34.0462 0.397498 0)
(34.0935 0.372558 0)
(34.1336 0.349915 0)
(34.167 0.329458 0)
(34.1946 0.311047 0)
(34.2169 0.294522 0)
(34.2344 0.279718 0)
(34.2477 0.266471 0)
(34.2572 0.254649 0)
(34.2633 0.244121 0)
(34.2663 0.234749 0)
(34.2666 0.226399 0)
(34.2644 0.218942 0)
(34.26 0.21226 0)
(34.2534 0.206249 0)
(34.245 0.200815 0)
(34.2349 0.195875 0)
(34.2232 0.191358 0)
(34.21 0.187199 0)
(34.1955 0.183346 0)
(34.1798 0.179752 0)
(34.1628 0.176378 0)
(34.1448 0.173188 0)
(34.1258 0.170156 0)
(34.1059 0.167256 0)
(34.0851 0.164468 0)
(34.0634 0.161775 0)
(34.041 0.159165 0)
(34.0179 0.156625 0)
(33.9941 0.154147 0)
(33.9697 0.151724 0)
(33.9447 0.14935 0)
(33.9191 0.147019 0)
(33.8931 0.144728 0)
(33.8665 0.142473 0)
(33.8396 0.140251 0)
(33.8122 0.13806 0)
(33.7845 0.135898 0)
(33.7564 0.133766 0)
(33.728 0.131661 0)
(33.6993 0.129584 0)
(33.6703 0.127535 0)
(33.6411 0.125514 0)
(33.6117 0.123521 0)
(33.5821 0.121557 0)
(33.5523 0.119621 0)
(33.5223 0.117715 0)
(33.4923 0.115838 0)
(33.4621 0.113991 0)
(33.4318 0.112174 0)
(33.4014 0.110388 0)
(33.371 0.108632 0)
(33.3406 0.106905 0)
(33.3101 0.105207 0)
(33.2795 0.103537 0)
(33.249 0.101894 0)
(33.2185 0.10028 0)
(33.188 0.0986914 0)
(33.1576 0.0971304 0)
(33.1272 0.0955956 0)
(33.0968 0.0940877 0)
(33.0666 0.0926053 0)
(33.0363 0.0911493 0)
(33.0062 0.0897182 0)
(32.9762 0.0883132 0)
(32.9463 0.0869324 0)
(32.9165 0.0855771 0)
(32.8868 0.0842452 0)
(32.8572 0.0829387 0)
(32.8278 0.0816547 0)
(32.7985 0.0803958 0)
(32.7694 0.0791581 0)
(32.7404 0.0779457 0)
(32.7115 0.0767527 0)
(32.6829 0.0755857 0)
(32.6544 0.0744352 0)
(32.626 0.0733125 0)
(32.5979 0.0722015 0)
(32.5699 0.0711229 0)
(32.5421 0.0700466 0)
(32.5146 0.0690133 0)
(32.4871 0.0679633 0)
(32.46 0.0669801 0)
(32.4329 0.06594 0)
(32.4063 0.0650186 0)
(32.3793 0.0639535 0)
(32.3535 0.0631196 0)
(32.3263 0.0619537 0)
(32.302 0.0612621 0)
(32.2736 0.0598304 0)
(32.2524 0.0593931 0)
(32.2202 0.0573453 0)
(32.2066 0.0573719 0)
(32.1643 0.0539348 0)
(29.619 0.0509712 0)
(29.6678 0.150365 0)
(29.7575 0.243311 0)
(29.8825 0.326942 0)
(30.0389 0.39995 0)
(30.2235 0.461656 0)
(30.4319 0.511541 0)
(30.6591 0.549464 0)
(30.8998 0.57591 0)
(31.1488 0.591906 0)
(31.4021 0.598758 0)
(31.6559 0.597851 0)
(31.9075 0.590502 0)
(32.1546 0.577913 0)
(32.3951 0.561229 0)
(32.6275 0.541513 0)
(32.8507 0.519733 0)
(33.0637 0.496708 0)
(33.2661 0.473116 0)
(33.4576 0.449496 0)
(33.6382 0.426281 0)
(33.8082 0.403794 0)
(33.9677 0.382277 0)
(34.1173 0.361884 0)
(34.2575 0.342707 0)
(34.3888 0.32479 0)
(34.5119 0.308148 0)
(34.6275 0.292764 0)
(34.736 0.278608 0)
(34.8381 0.265627 0)
(34.9344 0.253758 0)
(35.0254 0.242928 0)
(35.1116 0.233063 0)
(35.1935 0.224093 0)
(35.2715 0.215955 0)
(35.3459 0.208583 0)
(35.4171 0.201906 0)
(35.4855 0.195847 0)
(35.5512 0.190337 0)
(35.6145 0.185312 0)
(35.6757 0.180719 0)
(35.7348 0.176507 0)
(35.7921 0.172631 0)
(35.8477 0.169052 0)
(35.9017 0.165733 0)
(35.9542 0.162644 0)
(36.0054 0.159756 0)
(36.0552 0.157043 0)
(36.1037 0.154487 0)
(36.1511 0.152066 0)
(36.1973 0.149766 0)
(36.2424 0.147572 0)
(36.2864 0.145473 0)
(36.3295 0.143459 0)
(36.3715 0.141522 0)
(36.4126 0.139654 0)
(36.4527 0.137851 0)
(36.492 0.136105 0)
(36.5303 0.134415 0)
(36.5678 0.132774 0)
(36.6044 0.13118 0)
(36.6402 0.12963 0)
(36.6752 0.128121 0)
(36.7094 0.126651 0)
(36.7428 0.125218 0)
(36.7754 0.12382 0)
(36.8072 0.122456 0)
(36.8384 0.121124 0)
(36.8687 0.119824 0)
(36.8984 0.118553 0)
(36.9274 0.117312 0)
(36.9556 0.116097 0)
(36.9832 0.11491 0)
(37.0101 0.113748 0)
(37.0364 0.112611 0)
(37.062 0.111496 0)
(37.087 0.110405 0)
(37.1113 0.109334 0)
(37.1351 0.108284 0)
(37.1582 0.107251 0)
(37.1807 0.106237 0)
(37.2027 0.10524 0)
(37.224 0.10426 0)
(37.2448 0.103295 0)
(37.2651 0.102346 0)
(37.2848 0.101411 0)
(37.304 0.100491 0)
(37.3226 0.0995839 0)
(37.3407 0.0986909 0)
(37.3583 0.0978089 0)
(37.3754 0.0969405 0)
(37.3921 0.0960819 0)
(37.4082 0.0952362 0)
(37.4239 0.0943993 0)
(37.4391 0.0935748 0)
(37.4538 0.0927579 0)
(37.4681 0.0919531 0)
(37.482 0.0911547 0)
(37.4954 0.0903687 0)
(37.5084 0.0895868 0)
(37.521 0.0888189 0)
(37.5332 0.0880512 0)
(37.5449 0.0873016 0)
(37.5563 0.0865447 0)
(37.5673 0.0858151 0)
(37.5779 0.0850626 0)
(37.5882 0.0843584 0)
(37.5981 0.0835981 0)
(37.6076 0.0829313 0)
(37.6168 0.0821376 0)
(37.6255 0.0815342 0)
(37.6342 0.0806552 0)
(37.642 0.0801677 0)
(37.6504 0.0790977 0)
(37.6571 0.0788275 0)
(37.6654 0.0773604 0)
(37.6705 0.0774834 0)
(37.6796 0.0752243 0)
(37.6819 0.075926 0)
(37.693 0.0719809 0)
(29.6189 0.0297133 0)
(29.6646 0.0879214 0)
(29.7485 0.142856 0)
(29.8655 0.192593 0)
(30.0131 0.236065 0)
(30.1882 0.272861 0)
(30.3866 0.302782 0)
(30.6037 0.325774 0)
(30.8342 0.342081 0)
(31.0735 0.352289 0)
(31.3175 0.35718 0)
(31.5627 0.357572 0)
(31.8064 0.354229 0)
(32.0462 0.347832 0)
(32.2802 0.338995 0)
(32.5069 0.328276 0)
(32.7253 0.316168 0)
(32.9344 0.303092 0)
(33.1337 0.289406 0)
(33.3231 0.275408 0)
(33.5024 0.261355 0)
(33.6718 0.247464 0)
(33.8317 0.233913 0)
(33.9823 0.220835 0)
(34.1242 0.20833 0)
(34.2578 0.196467 0)
(34.3838 0.185296 0)
(34.5027 0.174849 0)
(34.6152 0.165145 0)
(34.7217 0.156188 0)
(34.8228 0.147972 0)
(34.919 0.140475 0)
(35.0107 0.133669 0)
(35.0985 0.127513 0)
(35.1827 0.121965 0)
(35.2637 0.116977 0)
(35.3418 0.112498 0)
(35.4173 0.108475 0)
(35.4905 0.10486 0)
(35.5616 0.101606 0)
(35.6308 0.0986738 0)
(35.6983 0.096026 0)
(35.7643 0.0936295 0)
(35.8288 0.0914543 0)
(35.892 0.0894734 0)
(35.9541 0.0876629 0)
(36.015 0.0860014 0)
(36.075 0.0844702 0)
(36.1339 0.0830528 0)
(36.192 0.0817351 0)
(36.2492 0.0805051 0)
(36.3057 0.0793526 0)
(36.3613 0.0782686 0)
(36.4163 0.0772454 0)
(36.4705 0.0762763 0)
(36.5241 0.0753553 0)
(36.577 0.0744775 0)
(36.6293 0.0736384 0)
(36.681 0.0728341 0)
(36.7322 0.0720612 0)
(36.7827 0.0713168 0)
(36.8327 0.0705983 0)
(36.8822 0.0699036 0)
(36.9311 0.0692307 0)
(36.9795 0.0685778 0)
(37.0274 0.0679437 0)
(37.0747 0.067327 0)
(37.1216 0.0667265 0)
(37.1681 0.0661412 0)
(37.214 0.0655701 0)
(37.2595 0.0650126 0)
(37.3045 0.0644678 0)
(37.3491 0.0639352 0)
(37.3932 0.0634141 0)
(37.4369 0.062904 0)
(37.4802 0.0624044 0)
(37.523 0.0619145 0)
(37.5655 0.0614337 0)
(37.6075 0.0609616 0)
(37.6491 0.0604977 0)
(37.6903 0.0600419 0)
(37.7312 0.0595938 0)
(37.7716 0.0591534 0)
(37.8117 0.0587204 0)
(37.8514 0.0582945 0)
(37.8907 0.0578755 0)
(37.9296 0.0574631 0)
(37.9682 0.057057 0)
(38.0065 0.0566572 0)
(38.0443 0.0562633 0)
(38.0819 0.0558752 0)
(38.1191 0.0554925 0)
(38.1559 0.0551154 0)
(38.1924 0.0547434 0)
(38.2286 0.0543767 0)
(38.2645 0.0540146 0)
(38.3 0.0536579 0)
(38.3352 0.053305 0)
(38.3701 0.052958 0)
(38.4047 0.0526135 0)
(38.439 0.0522761 0)
(38.4729 0.0519386 0)
(38.5066 0.0516112 0)
(38.54 0.0512786 0)
(38.573 0.0509627 0)
(38.6059 0.050631 0)
(38.6383 0.0503304 0)
(38.6706 0.0499912 0)
(38.7023 0.0497138 0)
(38.7343 0.0493501 0)
(38.7651 0.0491124 0)
(38.797 0.0486902 0)
(38.8265 0.0485253 0)
(38.859 0.0479771 0)
(38.8861 0.0479472 0)
(38.9206 0.0471427 0)
(38.9432 0.0473471 0)
(38.9829 0.0460151 0)
(38.9956 0.0465043 0)
(39.0472 0.0439818 0)
(29.6188 0.00978045 0)
(29.6631 0.0289583 0)
(29.7443 0.0471137 0)
(29.8575 0.0636058 0)
(30.0007 0.0780383 0)
(30.1711 0.0902672 0)
(30.3649 0.100246 0)
(30.5773 0.107972 0)
(30.8034 0.11352 0)
(31.0387 0.117077 0)
(31.2792 0.118888 0)
(31.5214 0.119216 0)
(31.7624 0.118294 0)
(31.9999 0.116337 0)
(32.232 0.113528 0)
(32.4571 0.110042 0)
(32.674 0.106031 0)
(32.8818 0.101639 0)
(33.0802 0.0969799 0)
(33.2687 0.0921686 0)
(33.4474 0.0872984 0)
(33.6163 0.0824592 0)
(33.7758 0.0777215 0)
(33.9262 0.0731491 0)
(34.0679 0.0687892 0)
(34.2014 0.0646819 0)
(34.3274 0.060852 0)
(34.4463 0.0573178 0)
(34.5588 0.054085 0)
(34.6654 0.0511589 0)
(34.7665 0.0485375 0)
(34.8628 0.0462142 0)
(34.9546 0.0441734 0)
(35.0425 0.0423964 0)
(35.1267 0.0408593 0)
(35.2077 0.0395388 0)
(35.2857 0.0384091 0)
(35.3612 0.037446 0)
(35.4343 0.0366248 0)
(35.5053 0.0359243 0)
(35.5744 0.0353244 0)
(35.6417 0.0348087 0)
(35.7075 0.0343621 0)
(35.7719 0.0339728 0)
(35.8351 0.0336295 0)
(35.897 0.0333237 0)
(35.9578 0.033047 0)
(36.0177 0.0327936 0)
(36.0766 0.0325578 0)
(36.1346 0.0323355 0)
(36.1918 0.0321231 0)
(36.2482 0.0319181 0)
(36.3039 0.0317178 0)
(36.3589 0.0315208 0)
(36.4132 0.0313251 0)
(36.4669 0.0311299 0)
(36.52 0.030934 0)
(36.5725 0.0307372 0)
(36.6244 0.0305387 0)
(36.6758 0.0303386 0)
(36.7266 0.0301365 0)
(36.7769 0.0299328 0)
(36.8267 0.0297273 0)
(36.876 0.0295205 0)
(36.9249 0.0293124 0)
(36.9732 0.0291035 0)
(37.0211 0.0288938 0)
(37.0686 0.0286839 0)
(37.1156 0.0284737 0)
(37.1622 0.0282637 0)
(37.2083 0.028054 0)
(37.2541 0.027845 0)
(37.2994 0.0276369 0)
(37.3444 0.02743 0)
(37.3889 0.0272243 0)
(37.4331 0.0270201 0)
(37.4769 0.0268171 0)
(37.5204 0.0266158 0)
(37.5634 0.0264159 0)
(37.6062 0.0262177 0)
(37.6485 0.0260212 0)
(37.6906 0.0258266 0)
(37.7323 0.0256339 0)
(37.7736 0.0254432 0)
(37.8147 0.0252543 0)
(37.8554 0.0250674 0)
(37.8958 0.0248824 0)
(37.9359 0.0246995 0)
(37.9757 0.0245184 0)
(38.0152 0.0243393 0)
(38.0544 0.024162 0)
(38.0933 0.0239866 0)
(38.1319 0.0238131 0)
(38.1703 0.0236415 0)
(38.2084 0.0234717 0)
(38.2462 0.0233035 0)
(38.2837 0.0231373 0)
(38.321 0.0229726 0)
(38.358 0.02281 0)
(38.3947 0.0226484 0)
(38.4312 0.0224892 0)
(38.4675 0.0223303 0)
(38.5035 0.0221746 0)
(38.5393 0.0220178 0)
(38.5748 0.0218659 0)
(38.6102 0.0217097 0)
(38.6452 0.0215625 0)
(38.6802 0.0214043 0)
(38.7146 0.0212636 0)
(38.7494 0.0210982 0)
(38.7829 0.0209685 0)
(38.8179 0.0207851 0)
(38.8501 0.0206755 0)
(38.8859 0.020453 0)
(38.9157 0.0203822 0)
(38.9539 0.0200777 0)
(38.9787 0.0200779 0)
(39.0229 0.019589 0)
(39.0368 0.0196769 0)
(39.0943 0.0187234 0)
(29.6188 -0.00977442 0)
(29.6631 -0.0289389 0)
(29.7443 -0.0470787 0)
(29.8575 -0.0635528 0)
(30.0007 -0.0779636 0)
(30.1711 -0.0901632 0)
(30.3649 -0.1001 0)
(30.5773 -0.107764 0)
(30.8034 -0.113231 0)
(31.0388 -0.116686 0)
(31.2793 -0.118374 0)
(31.5215 -0.11856 0)
(31.7625 -0.117478 0)
(32 -0.115346 0)
(32.2321 -0.11235 0)
(32.4571 -0.108671 0)
(32.674 -0.104465 0)
(32.8819 -0.0998793 0)
(33.0803 -0.0950315 0)
(33.2688 -0.0900376 0)
(33.4475 -0.0849946 0)
(33.6164 -0.0799952 0)
(33.7759 -0.0751122 0)
(33.9262 -0.0704099 0)
(34.0679 -0.0659365 0)
(34.2014 -0.0617331 0)
(34.3274 -0.0578251 0)
(34.4463 -0.0542311 0)
(34.5588 -0.0509564 0)
(34.6653 -0.0480052 0)
(34.7665 -0.0453739 0)
(34.8628 -0.0430531 0)
(34.9546 -0.041024 0)
(35.0424 -0.0392644 0)
(35.1266 -0.0377469 0)
(35.2076 -0.0364444 0)
(35.2857 -0.0353293 0)
(35.3611 -0.0343771 0)
(35.4342 -0.0335646 0)
(35.5052 -0.0328724 0)
(35.5743 -0.0322815 0)
(35.6417 -0.0317759 0)
(35.7075 -0.0313398 0)
(35.7719 -0.0309609 0)
(35.835 -0.0306274 0)
(35.8969 -0.0303307 0)
(35.9578 -0.0300626 0)
(36.0176 -0.0298172 0)
(36.0765 -0.0295887 0)
(36.1345 -0.0293733 0)
(36.1917 -0.0291673 0)
(36.2481 -0.0289685 0)
(36.3038 -0.0287745 0)
(36.3588 -0.028584 0)
(36.4131 -0.0283955 0)
(36.4668 -0.0282082 0)
(36.5199 -0.0280211 0)
(36.5724 -0.0278337 0)
(36.6243 -0.0276453 0)
(36.6756 -0.0274558 0)
(36.7265 -0.0272644 0)
(36.7768 -0.0270713 0)
(36.8266 -0.0268757 0)
(36.8759 -0.0266777 0)
(36.9247 -0.0264772 0)
(36.9731 -0.0262743 0)
(37.021 -0.0260692 0)
(37.0684 -0.0258622 0)
(37.1154 -0.0256536 0)
(37.162 -0.0254438 0)
(37.2082 -0.0252328 0)
(37.2539 -0.0250211 0)
(37.2993 -0.0248087 0)
(37.3442 -0.024596 0)
(37.3888 -0.0243829 0)
(37.433 -0.02417 0)
(37.4768 -0.0239571 0)
(37.5202 -0.0237447 0)
(37.5633 -0.0235328 0)
(37.606 -0.023322 0)
(37.6484 -0.0231121 0)
(37.6904 -0.0229036 0)
(37.7321 -0.0226966 0)
(37.7734 -0.0224915 0)
(37.8145 -0.0222881 0)
(37.8552 -0.022087 0)
(37.8956 -0.021888 0)
(37.9357 -0.0216915 0)
(37.9755 -0.0214976 0)
(38.015 -0.0213065 0)
(38.0542 -0.0211181 0)
(38.0931 -0.0209327 0)
(38.1317 -0.0207503 0)
(38.1701 -0.020571 0)
(38.2081 -0.0203949 0)
(38.2459 -0.0202219 0)
(38.2835 -0.0200522 0)
(38.3207 -0.0198856 0)
(38.3577 -0.0197224 0)
(38.3945 -0.019562 0)
(38.431 -0.0194056 0)
(38.4673 -0.0192512 0)
(38.5033 -0.0191016 0)
(38.5391 -0.0189528 0)
(38.5746 -0.0188105 0)
(38.61 -0.0186661 0)
(38.6449 -0.0185321 0)
(38.6799 -0.0183899 0)
(38.7143 -0.0182664 0)
(38.7491 -0.0181219 0)
(38.7826 -0.0180132 0)
(38.8176 -0.0178569 0)
(38.8498 -0.0177722 0)
(38.8856 -0.0175849 0)
(38.9154 -0.0175418 0)
(38.9536 -0.0172834 0)
(38.9784 -0.0173099 0)
(39.0226 -0.0168816 0)
(39.0365 -0.0169825 0)
(39.094 -0.0161155 0)
(29.6189 -0.0297092 0)
(29.6646 -0.0879057 0)
(29.7485 -0.142824 0)
(29.8655 -0.192543 0)
(30.0131 -0.235993 0)
(30.1882 -0.272761 0)
(30.3867 -0.302641 0)
(30.6037 -0.325574 0)
(30.8343 -0.341803 0)
(31.0736 -0.351912 0)
(31.3177 -0.356685 0)
(31.5629 -0.356938 0)
(31.8066 -0.353435 0)
(32.0464 -0.346858 0)
(32.2805 -0.337825 0)
(32.5072 -0.326899 0)
(32.7255 -0.31458 0)
(32.9346 -0.301296 0)
(33.1339 -0.287408 0)
(33.3233 -0.27322 0)
(33.5026 -0.258993 0)
(33.672 -0.244943 0)
(33.8318 -0.23125 0)
(33.9824 -0.218053 0)
(34.1242 -0.205449 0)
(34.2579 -0.193508 0)
(34.3838 -0.18228 0)
(34.5027 -0.171796 0)
(34.6151 -0.162073 0)
(34.7216 -0.153114 0)
(34.8226 -0.144912 0)
(34.9188 -0.137443 0)
(35.0106 -0.130672 0)
(35.0984 -0.124556 0)
(35.1826 -0.119044 0)
(35.2635 -0.114085 0)
(35.3416 -0.109628 0)
(35.4172 -0.105625 0)
(35.4903 -0.10203 0)
(35.5614 -0.0988024 0)
(35.6306 -0.0958999 0)
(35.6981 -0.0932839 0)
(35.764 -0.0909183 0)
(35.8286 -0.0887709 0)
(35.8918 -0.0868137 0)
(35.9539 -0.0850224 0)
(36.0148 -0.083376 0)
(36.0747 -0.0818561 0)
(36.1337 -0.0804468 0)
(36.1918 -0.0791344 0)
(36.249 -0.0779073 0)
(36.3054 -0.0767556 0)
(36.3611 -0.0756712 0)
(36.416 -0.0746468 0)
(36.4702 -0.0736762 0)
(36.5238 -0.0727537 0)
(36.5767 -0.0718747 0)
(36.629 -0.0710347 0)
(36.6807 -0.07023 0)
(36.7319 -0.069457 0)
(36.7824 -0.0687127 0)
(36.8324 -0.0679941 0)
(36.8818 -0.0672984 0)
(36.9308 -0.0666232 0)
(36.9792 -0.0659662 0)
(37.0271 -0.0653262 0)
(37.0745 -0.0647021 0)
(37.1214 -0.064093 0)
(37.1678 -0.0634981 0)
(37.2137 -0.0629168 0)
(37.2592 -0.0623482 0)
(37.3042 -0.0617918 0)
(37.3488 -0.0612467 0)
(37.393 -0.0607124 0)
(37.4367 -0.0601883 0)
(37.4799 -0.0596738 0)
(37.5228 -0.0591683 0)
(37.5652 -0.0586715 0)
(37.6073 -0.0581831 0)
(37.6489 -0.0577027 0)
(37.6902 -0.0572302 0)
(37.731 -0.0567654 0)
(37.7715 -0.0563079 0)
(37.8115 -0.0558577 0)
(37.8512 -0.0554146 0)
(37.8906 -0.0549785 0)
(37.9295 -0.0545492 0)
(37.9681 -0.0541268 0)
(38.0064 -0.0537112 0)
(38.0443 -0.0533022 0)
(38.0818 -0.0529 0)
(38.119 -0.0525043 0)
(38.1559 -0.0521153 0)
(38.1924 -0.0517327 0)
(38.2286 -0.0513569 0)
(38.2645 -0.0509872 0)
(38.3001 -0.0506244 0)
(38.3353 -0.0502671 0)
(38.3702 -0.0499172 0)
(38.4048 -0.0495717 0)
(38.4391 -0.049235 0)
(38.4731 -0.0489002 0)
(38.5068 -0.0485771 0)
(38.5402 -0.0482511 0)
(38.5733 -0.0479432 0)
(38.6061 -0.047622 0)
(38.6386 -0.0473332 0)
(38.6709 -0.047009 0)
(38.7027 -0.0467475 0)
(38.7347 -0.0464041 0)
(38.7655 -0.0461863 0)
(38.7975 -0.0457907 0)
(38.8269 -0.0456497 0)
(38.8595 -0.0451363 0)
(38.8867 -0.0451335 0)
(38.9212 -0.0443746 0)
(38.9438 -0.0446066 0)
(38.9835 -0.0433346 0)
(38.9962 -0.0438449 0)
(39.0479 -0.0413975 0)
(29.619 -0.0509729 0)
(29.6678 -0.150364 0)
(29.7576 -0.243301 0)
(29.8825 -0.32692 0)
(30.039 -0.399911 0)
(30.2235 -0.461588 0)
(30.432 -0.511426 0)
(30.6592 -0.549285 0)
(30.9 -0.575649 0)
(31.1491 -0.591547 0)
(31.4024 -0.598286 0)
(31.6563 -0.597247 0)
(31.908 -0.589747 0)
(32.155 -0.576985 0)
(32.3956 -0.56011 0)
(32.628 -0.540183 0)
(32.8512 -0.518177 0)
(33.0641 -0.494915 0)
(33.2665 -0.471085 0)
(33.458 -0.447232 0)
(33.6386 -0.423794 0)
(33.8084 -0.4011 0)
(33.9679 -0.379395 0)
(34.1174 -0.358836 0)
(34.2575 -0.339519 0)
(34.3888 -0.321486 0)
(34.5119 -0.304749 0)
(34.6273 -0.289293 0)
(34.7358 -0.275087 0)
(34.8379 -0.262077 0)
(34.9342 -0.250199 0)
(35.0251 -0.23938 0)
(35.1113 -0.229542 0)
(35.1932 -0.220604 0)
(35.2712 -0.212489 0)
(35.3456 -0.20512 0)
(35.4169 -0.198427 0)
(35.4852 -0.192341 0)
(35.5509 -0.186807 0)
(35.6143 -0.181769 0)
(35.6754 -0.177177 0)
(35.7346 -0.172978 0)
(35.7919 -0.169124 0)
(35.8475 -0.165569 0)
(35.9015 -0.162278 0)
(35.9541 -0.159215 0)
(36.0052 -0.156354 0)
(36.055 -0.153669 0)
(36.1036 -0.151138 0)
(36.151 -0.148743 0)
(36.1972 -0.146469 0)
(36.2424 -0.1443 0)
(36.2865 -0.142227 0)
(36.3295 -0.140238 0)
(36.3716 -0.138328 0)
(36.4127 -0.136487 0)
(36.4529 -0.134712 0)
(36.4922 -0.132996 0)
(36.5306 -0.131335 0)
(36.5681 -0.129724 0)
(36.6047 -0.128161 0)
(36.6406 -0.126641 0)
(36.6756 -0.125162 0)
(36.7098 -0.123718 0)
(36.7432 -0.122309 0)
(36.7759 -0.12093 0)
(36.8078 -0.119582 0)
(36.839 -0.118263 0)
(36.8694 -0.116972 0)
(36.8991 -0.115708 0)
(36.9281 -0.114471 0)
(36.9564 -0.113258 0)
(36.984 -0.112071 0)
(37.0109 -0.110906 0)
(37.0372 -0.109765 0)
(37.0629 -0.108646 0)
(37.0879 -0.107548 0)
(37.1122 -0.106469 0)
(37.136 -0.10541 0)
(37.1591 -0.10437 0)
(37.1817 -0.103348 0)
(37.2037 -0.102342 0)
(37.2251 -0.101355 0)
(37.2459 -0.100382 0)
(37.2662 -0.0994255 0)
(37.2859 -0.0984828 0)
(37.3051 -0.0975557 0)
(37.3237 -0.0966412 0)
(37.3419 -0.0957416 0)
(37.3595 -0.0948537 0)
(37.3767 -0.09398 0)
(37.3933 -0.093117 0)
(37.4095 -0.0922679 0)
(37.4251 -0.0914286 0)
(37.4404 -0.0906026 0)
(37.4551 -0.0897856 0)
(37.4695 -0.0889818 0)
(37.4833 -0.0881858 0)
(37.4968 -0.0874035 0)
(37.5098 -0.0866268 0)
(37.5224 -0.0858654 0)
(37.5346 -0.085106 0)
(37.5464 -0.0843659 0)
(37.5578 -0.0836204 0)
(37.5688 -0.0829034 0)
(37.5794 -0.0821659 0)
(37.5896 -0.0814773 0)
(37.5996 -0.0807358 0)
(37.609 -0.0800878 0)
(37.6183 -0.0793177 0)
(37.627 -0.0787362 0)
(37.6357 -0.0778869 0)
(37.6435 -0.0774242 0)
(37.6518 -0.0763928 0)
(37.6585 -0.0761493 0)
(37.6668 -0.0747344 0)
(37.6719 -0.0748831 0)
(37.681 -0.0726956 0)
(37.6832 -0.073415 0)
(37.6943 -0.0695713 0)
(29.6194 -0.0757196 0)
(29.674 -0.220812 0)
(29.7748 -0.354026 0)
(29.9152 -0.473492 0)
(30.091 -0.578528 0)
(30.299 -0.667895 0)
(30.5339 -0.740442 0)
(30.7887 -0.795973 0)
(31.0552 -0.835324 0)
(31.326 -0.859851 0)
(31.5949 -0.871046 0)
(31.8568 -0.870592 0)
(32.1082 -0.860056 0)
(32.3463 -0.840964 0)
(32.5691 -0.814913 0)
(32.7754 -0.78351 0)
(32.9646 -0.748262 0)
(33.1368 -0.710513 0)
(33.2924 -0.671422 0)
(33.4321 -0.631973 0)
(33.5566 -0.592979 0)
(33.667 -0.555092 0)
(33.7643 -0.518808 0)
(33.8497 -0.484487 0)
(33.924 -0.452375 0)
(33.9883 -0.422613 0)
(34.0437 -0.395256 0)
(34.0909 -0.370287 0)
(34.1307 -0.347635 0)
(34.164 -0.32719 0)
(34.1915 -0.308812 0)
(34.2136 -0.292347 0)
(34.2311 -0.277631 0)
(34.2443 -0.264499 0)
(34.2537 -0.252788 0)
(34.2597 -0.242343 0)
(34.2627 -0.233017 0)
(34.2629 -0.224673 0)
(34.2606 -0.217192 0)
(34.256 -0.210472 0)
(34.2493 -0.204419 0)
(34.2408 -0.198943 0)
(34.2306 -0.193963 0)
(34.2188 -0.189405 0)
(34.2055 -0.185207 0)
(34.1909 -0.181315 0)
(34.175 -0.177682 0)
(34.158 -0.174267 0)
(34.1399 -0.171038 0)
(34.1208 -0.167967 0)
(34.1008 -0.16503 0)
(34.0798 -0.162208 0)
(34.0581 -0.159483 0)
(34.0356 -0.156844 0)
(34.0124 -0.154278 0)
(33.9885 -0.151778 0)
(33.9639 -0.149335 0)
(33.9388 -0.146944 0)
(33.9131 -0.1446 0)
(33.8869 -0.142299 0)
(33.8603 -0.140039 0)
(33.8332 -0.137815 0)
(33.8057 -0.135627 0)
(33.7778 -0.133471 0)
(33.7495 -0.131345 0)
(33.7209 -0.129246 0)
(33.6921 -0.127175 0)
(33.6629 -0.12513 0)
(33.6335 -0.123111 0)
(33.6039 -0.121118 0)
(33.5741 -0.119152 0)
(33.5441 -0.117212 0)
(33.5139 -0.115299 0)
(33.4836 -0.113413 0)
(33.4532 -0.111555 0)
(33.4227 -0.109724 0)
(33.3921 -0.107921 0)
(33.3615 -0.106146 0)
(33.3308 -0.104397 0)
(33.3 -0.102677 0)
(33.2693 -0.100984 0)
(33.2385 -0.0993185 0)
(33.2078 -0.0976811 0)
(33.1771 -0.096071 0)
(33.1464 -0.0944888 0)
(33.1157 -0.0929335 0)
(33.0852 -0.091406 0)
(33.0547 -0.0899052 0)
(33.0242 -0.088432 0)
(32.9939 -0.086985 0)
(32.9636 -0.0855654 0)
(32.9335 -0.0841717 0)
(32.9035 -0.0828052 0)
(32.8736 -0.0814639 0)
(32.8438 -0.0801495 0)
(32.8142 -0.0788593 0)
(32.7846 -0.0775959 0)
(32.7553 -0.0763556 0)
(32.7261 -0.0751422 0)
(32.6971 -0.0739501 0)
(32.6682 -0.0727856 0)
(32.6395 -0.0716396 0)
(32.6109 -0.0705231 0)
(32.5826 -0.0694203 0)
(32.5544 -0.0683518 0)
(32.5264 -0.0672876 0)
(32.4986 -0.0662681 0)
(32.4709 -0.0652343 0)
(32.4436 -0.0642685 0)
(32.4162 -0.0632491 0)
(32.3894 -0.0623485 0)
(32.3622 -0.0613098 0)
(32.3362 -0.0604999 0)
(32.3087 -0.059369 0)
(32.2842 -0.0587033 0)
(32.2555 -0.0573224 0)
(32.2341 -0.0569115 0)
(32.2016 -0.0549471 0)
(32.1878 -0.054993 0)
(32.145 -0.0517062 0)
(29.6228 -0.113433 0)
(29.7229 -0.318489 0)
(29.8899 -0.500588 0)
(30.0953 -0.66347 0)
(30.3155 -0.806268 0)
(30.5297 -0.925044 0)
(30.7215 -1.01758 0)
(30.8773 -1.08436 0)
(30.9903 -1.12783 0)
(31.0573 -1.15076 0)
(31.0805 -1.15593 0)
(31.0628 -1.14618 0)
(31.0089 -1.124 0)
(30.9241 -1.09167 0)
(30.8132 -1.05146 0)
(30.6808 -1.00545 0)
(30.5314 -0.955449 0)
(30.3687 -0.90299 0)
(30.1964 -0.849338 0)
(30.0172 -0.79555 0)
(29.8337 -0.742477 0)
(29.6479 -0.690819 0)
(29.4614 -0.641116 0)
(29.2755 -0.59375 0)
(29.0912 -0.549011 0)
(28.9094 -0.507073 0)
(28.7306 -0.468021 0)
(28.5552 -0.431861 0)
(28.3835 -0.398543 0)
(28.2156 -0.367969 0)
(28.0518 -0.340009 0)
(27.8919 -0.314516 0)
(27.7359 -0.291327 0)
(27.5839 -0.270271 0)
(27.4357 -0.25118 0)
(27.2913 -0.233888 0)
(27.1506 -0.218232 0)
(27.0134 -0.204056 0)
(26.8796 -0.191209 0)
(26.7492 -0.179545 0)
(26.6219 -0.168937 0)
(26.4978 -0.159275 0)
(26.3768 -0.150464 0)
(26.2587 -0.142419 0)
(26.1434 -0.13506 0)
(26.0309 -0.128318 0)
(25.9212 -0.122127 0)
(25.814 -0.116429 0)
(25.7095 -0.111173 0)
(25.6074 -0.106314 0)
(25.5077 -0.101812 0)
(25.4104 -0.0976322 0)
(25.3155 -0.0937419 0)
(25.2227 -0.0901131 0)
(25.1322 -0.0867208 0)
(25.0439 -0.0835426 0)
(24.9576 -0.080559 0)
(24.8733 -0.0777521 0)
(24.7911 -0.0751063 0)
(24.7108 -0.0726076 0)
(24.6323 -0.0702439 0)
(24.5558 -0.0680046 0)
(24.481 -0.0658806 0)
(24.408 -0.0638658 0)
(24.3367 -0.0619542 0)
(24.2671 -0.0601395 0)
(24.1991 -0.0584149 0)
(24.1327 -0.0567737 0)
(24.0679 -0.0552103 0)
(24.0045 -0.0537193 0)
(23.9426 -0.052296 0)
(23.8822 -0.0509359 0)
(23.8231 -0.049635 0)
(23.7653 -0.0483895 0)
(23.7089 -0.0471965 0)
(23.6537 -0.0460529 0)
(23.5998 -0.0449561 0)
(23.547 -0.0439036 0)
(23.4954 -0.0428931 0)
(23.4449 -0.0419219 0)
(23.3956 -0.0409882 0)
(23.3472 -0.0400899 0)
(23.3 -0.0392255 0)
(23.2537 -0.0383931 0)
(23.2083 -0.0375916 0)
(23.164 -0.0368194 0)
(23.1205 -0.0360754 0)
(23.0779 -0.0353583 0)
(23.0362 -0.034667 0)
(22.9953 -0.0340002 0)
(22.9552 -0.0333572 0)
(22.9159 -0.0327368 0)
(22.8774 -0.0321381 0)
(22.8396 -0.0315601 0)
(22.8025 -0.031002 0)
(22.7661 -0.0304628 0)
(22.7304 -0.0299419 0)
(22.6953 -0.0294385 0)
(22.6609 -0.0289515 0)
(22.6271 -0.0284809 0)
(22.5939 -0.028025 0)
(22.5612 -0.0275846 0)
(22.5292 -0.0271569 0)
(22.4977 -0.0267448 0)
(22.4667 -0.0263422 0)
(22.4362 -0.0259567 0)
(22.4063 -0.0255751 0)
(22.3768 -0.0252159 0)
(22.3479 -0.0248486 0)
(22.3192 -0.0245174 0)
(22.2914 -0.0241514 0)
(22.2634 -0.0238532 0)
(22.2368 -0.0234615 0)
(22.2091 -0.0232046 0)
(22.1844 -0.0227312 0)
(22.1559 -0.0225194 0)
(22.1347 -0.0218662 0)
(22.103 -0.0216842 0)
(22.0896 -0.0208165 0)
(22.0483 -0.0207191 0)
(29.5715 -0.0784833 0)
(29.336 -0.307378 0)
(28.8615 -0.523314 0)
(28.1747 -0.698448 0)
(27.3306 -0.826057 0)
(26.3799 -0.904313 0)
(25.3639 -0.936918 0)
(24.3136 -0.930685 0)
(23.2574 -0.895082 0)
(22.2135 -0.837354 0)
(21.2039 -0.765663 0)
(20.2351 -0.687354 0)
(19.317 -0.605158 0)
(18.4557 -0.523066 0)
(17.6535 -0.444235 0)
(16.9111 -0.370574 0)
(16.228 -0.303222 0)
(15.6028 -0.242733 0)