/*--------------------------------*- C++ -*----------------------------------*\
  =========                 |
  \\      /  F ield         | OpenFOAM: The Open Source CFD Toolbox
   \\    /   O peration     | Website:  https://openfoam.org
    \\  /    A nd           | Version:  7
     \\/     M anipulation  |
\*---------------------------------------------------------------------------*/
FoamFile
{
    version     2.0;
    format      ascii;
    class       volScalarField;
    location    "0.0425";
    object      k;
}
// * * * * * * * * * * * * * * * * * * * * * * * * * * * * * * * * * * * * * //

dimensions      [0 2 -2 0 0 0 0];

internalField   nonuniform List<scalar> 
1440
(
0.145285
0.772365
2.02302
3.50085
4.91569
6.15047
7.12806
7.84241
8.27871
8.52796
8.56328
8.52195
8.41373
8.23092
8.01733
7.78917
7.55751
7.32927
7.10911
6.89977
6.70309
6.52015
6.35116
6.19589
6.05373
5.92381
5.80498
5.69619
5.59647
5.50502
5.42155
5.34563
5.27709
5.21574
5.16096
5.11178
5.06721
5.02633
4.98851
4.95356
4.92161
4.89298
4.86815
4.84755
4.83088
4.81824
4.80992
4.80378
4.79957
4.79786
4.79732
4.79728
4.79743
4.79828
4.80005
4.80218
4.80558
4.80895
4.81242
4.81621
4.82026
4.8246
4.82767
4.82984
4.83063
4.83192
4.83435
4.83694
4.83785
4.83636
4.83547
4.83639
4.83774
4.83742
4.83662
4.83673
4.83616
4.83451
4.83442
4.83485
4.83531
4.83556
4.83539
4.83588
4.83703
4.8369
4.83723
4.83817
4.83854
4.83837
4.83871
4.84006
4.84177
4.84194
4.84278
4.84435
4.84454
4.84522
4.84602
4.84586
4.84505
4.84519
4.84528
4.84453
4.84431
4.84382
4.84188
4.84009
4.83884
4.83499
4.83331
4.83
4.82703
4.81625
4.81256
4.80255
4.79847
4.77852
4.77142
4.74624
0.000406042
0.00750425
0.0384868
0.112755
0.262395
0.473865
0.726242
1.00566
1.27781
1.52939
1.74017
1.90981
2.04556
2.14987
2.22585
2.28007
2.31855
2.33757
2.34632
2.34598
2.34357
2.33823
2.32969
2.31945
2.30825
2.29653
2.28458
2.27269
2.2609
2.24888
2.23637
2.22289
2.20814
2.19241
2.17625
2.16018
2.14439
2.129
2.11445
2.10119
2.08924
2.07788
2.06657
2.05568
2.0466
2.03965
2.03364
2.02793
2.02292
2.01944
2.01802
2.01849
2.01973
2.02012
2.02174
2.02588
2.0281
2.02947
2.03245
2.03647
2.03955
2.04147
2.04343
2.04773
2.05335
2.0574
2.05918
2.0605
2.06087
2.06071
2.06083
2.06139
2.06392
2.06501
2.06501
2.06499
2.06481
2.06571
2.06971
2.07303
2.07375
2.07342
2.07359
2.07559
2.07979
2.08224
2.08348
2.08403
2.08448
2.08585
2.09052
2.09528
2.0979
2.09922
2.10067
2.10415
2.10997
2.11445
2.11698
2.11807
2.11899
2.12116
2.12396
2.12568
2.12689
2.12844
2.13245
2.13702
2.14192
2.1443
2.14819
2.15114
2.1567
2.16121
2.1655
2.17079
2.17436
2.18182
2.18714
2.20274
2.03523e-05
4.07404e-05
0.000216112
0.00094497
0.00314091
0.00813813
0.0178157
0.033883
0.0573316
0.0871613
0.12086
0.157068
0.194992
0.231907
0.265886
0.299059
0.333022
0.364782
0.391855
0.412772
0.427917
0.44068
0.455522
0.47359
0.490905
0.502292
0.506511
0.506905
0.506588
0.505605
0.503172
0.497416
0.488134
0.476283
0.462285
0.446537
0.429382
0.411145
0.392238
0.373143
0.354411
0.336633
0.320327
0.305878
0.293594
0.283774
0.276131
0.27019
0.265653
0.262578
0.26083
0.259596
0.258044
0.2562
0.254533
0.253205
0.252232
0.251626
0.250923
0.249448
0.247711
0.247424
0.249532
0.252306
0.2524
0.252523
0.253837
0.257348
0.258439
0.25877
0.258864
0.258619
0.258881
0.260727
0.262851
0.263797
0.263888
0.263602
0.263618
0.263593
0.263775
0.265412
0.267677
0.267613
0.267774
0.269452
0.270572
0.270559
0.270505
0.270068
0.270018
0.271168
0.275264
0.277014
0.276929
0.27713
0.278301
0.282852
0.285787
0.285833
0.285879
0.286673
0.289188
0.289583
0.289337
0.289445
0.2906
0.294648
0.297997
0.29869
0.298726
0.299293
0.303054
0.308721
0.313044
0.315437
0.316889
0.319635
0.322637
0.332122
2.00292e-05
2.01633e-05
2.09184e-05
2.49117e-05
4.11436e-05
9.12898e-05
0.000218453
0.000494677
0.00105784
0.00208131
0.00347009
0.00535231
0.00798241
0.0111314
0.0141431
0.017191
0.0212628
0.0267053
0.0325123
0.0370513
0.0397154
0.0418143
0.0454684
0.0515522
0.0588008
0.0648857
0.0682623
0.0691805
0.0691931
0.0690831
0.068735
0.067855
0.0657061
0.0618745
0.0571671
0.0519219
0.0464282
0.0409324
0.0356389
0.0307049
0.0262448
0.0223223
0.0189745
0.0161935
0.0139377
0.0121753
0.010824
0.00978208
0.00899075
0.00840959
0.00798569
0.00765106
0.00736487
0.00713416
0.00694976
0.00678673
0.00664048
0.00651429
0.00640736
0.0063256
0.00631137
0.0063894
0.00660255
0.00680511
0.00695383
0.00701881
0.0071268
0.00724852
0.00739492
0.00752313
0.00756854
0.00757535
0.00759107
0.00770364
0.00780056
0.00779942
0.00782598
0.00786362
0.00786304
0.00785865
0.00781284
0.00772188
0.00768192
0.00766895
0.00763774
0.00764572
0.00769755
0.007698
0.00769587
0.0076922
0.00767331
0.00767487
0.00780157
0.00799277
0.00800908
0.00800537
0.0080241
0.00810668
0.00835692
0.00857657
0.00864297
0.00866321
0.00874743
0.00879377
0.00877818
0.00879037
0.00886599
0.00909639
0.00939354
0.00954633
0.00965799
0.00970519
0.00984106
0.0101154
0.0106053
0.0109296
0.0111632
0.0114849
0.0117792
0.0127309
2.00076e-05
2.00699e-05
2.02412e-05
2.05665e-05
2.121e-05
2.21603e-05
2.38203e-05
2.71615e-05
3.40293e-05
4.94289e-05
7.3853e-05
0.000106934
0.000173263
0.000278685
0.000381214
0.0004652
0.000599485
0.000875075
0.00122537
0.00152189
0.00170073
0.00181508
0.00198769
0.00238818
0.00312904
0.00382014
0.00424535
0.00438799
0.00439787
0.00438961
0.00436701
0.00430355
0.00414324
0.00378659
0.0033372
0.00285487
0.00237696
0.00193062
0.00153319
0.00119356
0.000913773
0.000690666
0.000518286
0.000388775
0.000293843
0.000226174
0.000178624
0.000145092
0.000121526
0.000105058
9.34523e-05
8.49271e-05
7.81528e-05
7.2942e-05
6.91501e-05
6.62805e-05
6.39172e-05
6.18454e-05
6.01673e-05
5.93964e-05
5.96933e-05
6.16882e-05
6.47672e-05
6.80871e-05
7.09876e-05
7.31161e-05
7.56147e-05
7.84899e-05
8.11673e-05
8.43844e-05
8.60966e-05
8.63374e-05
8.65163e-05
8.74131e-05
8.91389e-05
8.94855e-05
8.95286e-05
8.95234e-05
8.93623e-05
8.85175e-05
8.56939e-05
8.26996e-05
8.09634e-05
7.98807e-05
7.84915e-05
7.70017e-05
7.63754e-05
7.69104e-05
7.73026e-05
7.70642e-05
7.72892e-05
7.77543e-05
7.83572e-05
8.05115e-05
8.16277e-05
8.14792e-05
8.15456e-05
8.20495e-05
8.37611e-05
8.78549e-05
9.13356e-05
9.32029e-05
9.42494e-05
9.45835e-05
9.51734e-05
9.62187e-05
9.87319e-05
0.000101738
0.000106651
0.000109049
0.000112543
0.000114164
0.000118496
0.000123121
0.000133967
0.000143802
0.000151084
0.000161928
0.000170866
0.000200154
2.00027e-05
2.00466e-05
2.01786e-05
2.0456e-05
2.09846e-05
2.16347e-05
2.24829e-05
2.35769e-05
2.49501e-05
2.65284e-05
2.79372e-05
2.95429e-05
3.22106e-05
3.55429e-05
3.81041e-05
3.97841e-05
4.22759e-05
4.81408e-05
5.79066e-05
6.63207e-05
7.1249e-05
7.40507e-05
7.80737e-05
8.72823e-05
0.00011122
0.000137605
0.000153833
0.00015925
0.000159619
0.000159284
0.000158268
0.000155205
0.000146828
0.000128527
0.000107403
8.64248e-05
6.72215e-05
5.06854e-05
3.71415e-05
2.65227e-05
1.85194e-05
1.27005e-05
8.61099e-06
5.82373e-06
3.97486e-06
2.77908e-06
2.01739e-06
1.53242e-06
1.22368e-06
1.02733e-06
9.01188e-07
8.15718e-07
7.54486e-07
7.10798e-07
6.79601e-07
6.56892e-07
6.40321e-07
6.27145e-07
6.15499e-07
6.0629e-07
6.03025e-07
6.06469e-07
6.23907e-07
6.46222e-07
6.6502e-07
6.84306e-07
7.04747e-07
7.32933e-07
7.57724e-07
7.73244e-07
7.79662e-07
7.85739e-07
7.88126e-07
7.86386e-07
7.88807e-07
7.91167e-07
7.91068e-07
7.90852e-07
7.86326e-07
7.71015e-07
7.41675e-07
7.14268e-07
6.96789e-07
6.84464e-07
6.6874e-07
6.51531e-07
6.41999e-07
6.39181e-07
6.35389e-07
6.3222e-07
6.34702e-07
6.38344e-07
6.40584e-07
6.5232e-07
6.62249e-07
6.62394e-07
6.61707e-07
6.62655e-07
6.68411e-07
6.89953e-07
7.22333e-07
7.42266e-07
7.59052e-07
7.70094e-07
7.80548e-07
7.86321e-07
7.98115e-07
8.19362e-07
8.68752e-07
8.93083e-07
9.35583e-07
9.56393e-07
1.00514e-06
1.0514e-06
1.15758e-06
1.28678e-06
1.37728e-06
1.53725e-06
1.65867e-06
2.07401e-06
2.00022e-05
2.0046e-05
2.01796e-05
2.04589e-05
2.09977e-05
2.16652e-05
2.24927e-05
2.36003e-05
2.50356e-05
2.65667e-05
2.78691e-05
2.95299e-05
3.21956e-05
3.5106e-05
3.70445e-05
3.82804e-05
4.03455e-05
4.53268e-05
5.18361e-05
5.63465e-05
5.82908e-05
5.93338e-05
6.13533e-05
6.75601e-05
7.86171e-05
8.49936e-05
8.64961e-05
8.63936e-05
8.58183e-05
8.43621e-05
8.11453e-05
7.33998e-05
6.13839e-05
4.83905e-05
3.60844e-05
2.55677e-05
1.73166e-05
1.12964e-05
7.16522e-06
4.46815e-06
2.76318e-06
1.71278e-06
1.08165e-06
7.11032e-07
4.97744e-07
3.77224e-07
3.10438e-07
2.74317e-07
2.55522e-07
2.46462e-07
2.42888e-07
2.4244e-07
2.43496e-07
2.43918e-07
2.43802e-07
2.43528e-07
2.42962e-07
2.41765e-07
2.38725e-07
2.33846e-07
2.2872e-07
2.23882e-07
2.197e-07
2.16483e-07
2.14155e-07
2.12743e-07
2.12093e-07
2.11996e-07
2.12117e-07
2.1236e-07
2.12373e-07
2.12289e-07
2.11877e-07
2.1068e-07
2.09012e-07
2.06574e-07
2.04058e-07
2.00929e-07
1.98112e-07
1.94691e-07
1.9211e-07
1.89226e-07
1.87215e-07
1.84999e-07
1.83355e-07
1.81441e-07
1.8047e-07
1.79432e-07
1.78905e-07
1.78062e-07
1.77556e-07
1.76455e-07
1.75692e-07
1.74136e-07
1.73229e-07
1.71518e-07
1.70149e-07
1.68109e-07
1.66848e-07
1.65105e-07
1.63938e-07
1.62408e-07
1.61759e-07
1.60729e-07
1.60166e-07
1.58952e-07
1.58367e-07
1.57261e-07
1.56731e-07
1.55556e-07
1.54908e-07
1.53931e-07
1.53753e-07
1.53326e-07
1.53306e-07
1.53069e-07
1.53282e-07
1.53833e-07
1.54692e-07
1.57438e-07
2.00061e-05
2.00636e-05
2.02248e-05
2.05372e-05
2.11561e-05
2.20989e-05
2.36565e-05
2.67747e-05
3.33244e-05
4.80932e-05
6.79034e-05
9.72717e-05
0.000158161
0.000246119
0.000324336
0.000389821
0.000504313
0.0007343
0.000999773
0.0011923
0.00128609
0.00135024
0.0014728
0.00179895
0.00227736
0.00259157
0.00269716
0.00270294
0.0026928
0.00266356
0.00259346
0.0024239
0.00212984
0.00178467
0.00142828
0.00109388
0.000803577
0.000567721
0.000386994
0.000255737
0.000164921
0.000104842
6.67157e-05
4.32968e-05
2.91778e-05
2.06795e-05
1.54793e-05
1.21879e-05
1.00311e-05
8.63635e-06
7.79421e-06
7.34868e-06
7.19615e-06
7.14129e-06
7.09715e-06
7.00128e-06
6.94928e-06
6.98603e-06
7.0113e-06
7.00553e-06
6.99552e-06
6.97571e-06
7.05759e-06
7.24227e-06
7.24664e-06
7.23812e-06
7.21512e-06
7.21671e-06
7.34081e-06
7.65257e-06
7.79491e-06
7.88141e-06
7.98316e-06
8.08479e-06
8.15747e-06
8.20584e-06
8.24556e-06
8.2667e-06
8.2579e-06
8.17775e-06
8.00091e-06
7.92556e-06
7.929e-06
7.93073e-06
7.91935e-06
7.88095e-06
7.90434e-06
8.17174e-06
8.41643e-06
8.42193e-06
8.4149e-06
8.40559e-06
8.38972e-06
8.43455e-06
8.74588e-06
9.19199e-06
9.25584e-06
9.25325e-06
9.25319e-06
9.24648e-06
9.23382e-06
9.20852e-06
9.35479e-06
9.67759e-06
9.68913e-06
9.66918e-06
9.74032e-06
9.86688e-06
9.86692e-06
9.86541e-06
9.84301e-06
9.9354e-06
1.04114e-05
1.06343e-05
1.0626e-05
1.0655e-05
1.06611e-05
1.0655e-05
1.06459e-05
1.05308e-05
2.00251e-05
2.01508e-05
2.08345e-05
2.44599e-05
3.93525e-05
8.61619e-05
0.000204502
0.000465938
0.00102333
0.00199091
0.00321058
0.00496872
0.0074541
0.0102587
0.0128868
0.0156236
0.0193172
0.0242
0.0291962
0.0327487
0.0345466
0.03607
0.0392569
0.044838
0.0505189
0.0542152
0.0554779
0.0555534
0.0554415
0.0551277
0.0543833
0.052663
0.0491933
0.0446635
0.0394677
0.0340126
0.0286569
0.0236734
0.0192414
0.0154696
0.0123737
0.00992974
0.00808796
0.00674391
0.00577456
0.00507087
0.00455191
0.0041655
0.00387752
0.00366058
0.00349453
0.00336614
0.00326873
0.00320177
0.00316334
0.00312623
0.00308513
0.003074
0.00307865
0.00307977
0.00307733
0.00307062
0.00309306
0.00317391
0.00318385
0.00318025
0.00317768
0.00319017
0.00328807
0.00339533
0.00342739
0.0034416
0.00348336
0.00356149
0.00358099
0.00357189
0.00358356
0.00360118
0.00359749
0.00360978
0.00361806
0.00361497
0.00360857
0.00359647
0.00357664
0.00356192
0.00358393
0.00368453
0.00370743
0.00370705
0.00370563
0.00369111
0.00369609
0.00374897
0.00388082
0.00398128
0.00399353
0.00398743
0.00398813
0.00398851
0.00398424
0.00398903
0.00406674
0.00414501
0.00413812
0.00413919
0.00417736
0.00420211
0.00420131
0.00419852
0.0041987
0.00426149
0.00440462
0.00442473
0.00442488
0.00442483
0.00442218
0.00442124
0.00441214
0.00437831
2.02629e-05
3.82305e-05
0.000198354
0.000878868
0.00295723
0.00779851
0.0169224
0.0327411
0.0559797
0.0848392
0.116746
0.151479
0.188028
0.223212
0.255427
0.287065
0.319528
0.349913
0.37503
0.393767
0.407111
0.41931
0.434639
0.452453
0.467564
0.475776
0.477854
0.477843
0.477477
0.476402
0.473836
0.467719
0.457245
0.443275
0.426004
0.406297
0.385052
0.363103
0.341325
0.320831
0.302071
0.285786
0.272887
0.263146
0.255873
0.250346
0.246253
0.243651
0.242347
0.240972
0.239404
0.238101
0.237168
0.23656
0.236059
0.235084
0.233665
0.232771
0.232736
0.232767
0.232617
0.232552
0.233515
0.236689
0.237051
0.236655
0.236644
0.237938
0.242303
0.243457
0.24329
0.243556
0.245139
0.248618
0.249328
0.2492
0.249197
0.248975
0.249029
0.249953
0.251823
0.251642
0.251737
0.252635
0.255232
0.256826
0.256816
0.256724
0.25714
0.257971
0.257647
0.257786
0.259107
0.263455
0.265925
0.267073
0.267893
0.267662
0.267991
0.269223
0.269288
0.269941
0.273377
0.274339
0.274003
0.274407
0.275838
0.275879
0.27579
0.275781
0.276993
0.2812
0.28212
0.282126
0.282126
0.282052
0.28191
0.281503
0.281235
0.280353
0.000342887
0.00696509
0.0366542
0.108623
0.254369
0.462628
0.714341
0.99193
1.26256
1.50946
1.71409
1.88162
2.0148
2.1168
2.19168
2.24634
2.2852
2.30707
2.31687
2.3239
2.32587
2.32516
2.32323
2.31946
2.31411
2.30809
2.302
2.29584
2.28954
2.283
2.27581
2.26762
2.25782
2.24568
2.23125
2.21545
2.19893
2.1828
2.16834
2.15602
2.14639
2.13953
2.13425
2.12938
2.12516
2.12374
2.12549
2.12838
2.12838
2.12885
2.13165
2.13829
2.13955
2.13907
2.13924
2.141
2.14439
2.14745
2.15123
2.15471
2.15686
2.15824
2.16099
2.16696
2.16951
2.16954
2.17044
2.17205
2.17191
2.17236
2.17435
2.1807
2.18299
2.18299
2.18293
2.18252
2.18099
2.18101
2.18423
2.1851
2.18467
2.18439
2.18489
2.18873
2.19584
2.20079
2.20277
2.20319
2.20338
2.20458
2.20987
2.21617
2.21934
2.2205
2.22134
2.22414
2.23056
2.2339
2.23484
2.2361
2.23926
2.24008
2.23996
2.24094
2.24551
2.24772
2.24754
2.24795
2.25104
2.25438
2.2545
2.25449
2.25447
2.25424
2.25348
2.25389
2.2562
2.25636
2.25618
2.2546
0.144751
0.768752
2.02137
3.4805
4.87349
6.07591
7.01495
7.66723
8.04967
8.21652
8.19848
8.11845
7.94657
7.7193
7.46899
7.21114
6.95577
6.70898
6.4748
6.25566
6.05272
5.86653
5.69695
5.54329
5.40457
5.27975
5.16765
5.06697
4.97666
4.8954
4.82226
4.7565
4.6973
4.64417
4.59691
4.55507
4.51812
4.48564
4.45724
4.43257
4.41106
4.39226
4.37566
4.3614
4.34877
4.33784
4.32975
4.32289
4.31581
4.31154
4.30841
4.30525
4.30462
4.30427
4.30305
4.30305
4.30336
4.30422
4.30622
4.30756
4.30923
4.31087
4.31163
4.31278
4.31437
4.31392
4.31302
4.31387
4.31503
4.31523
4.3147
4.31532
4.31611
4.31547
4.31425
4.31464
4.31545
4.31697
4.31705
4.31715
4.31797
4.31864
4.31908
4.31981
4.32073
4.32208
4.32342
4.32379
4.32429
4.32551
4.32693
4.32762
4.32886
4.33018
4.33088
4.33227
4.33388
4.33454
4.3355
4.3373
4.33842
4.33926
4.34068
4.34259
4.34369
4.34566
4.34742
4.3497
4.35151
4.35466
4.35664
4.36112
4.36372
4.37027
4.37364
4.38293
4.38683
4.39875
4.40349
4.42073
)
;

boundaryField
{
    upperWall
    {
        type            fixedValue;
        value           uniform 0;
    }
    lowerWall
    {
        type            fixedValue;
        value           uniform 0;
    }
    inlet
    {
        type            fixedValue;
        value           uniform 2e-05;
    }
    outlet
    {
        type            inletOutlet;
        inletValue      uniform 0;
        value           nonuniform List<scalar> 
12
(
4.74624
2.20274
0.332122
0.0127309
0.000200154
2.07401e-06
1.57438e-07
1.05308e-05
0.00437831
0.280353
2.2546
4.42073
)
;
    }
    frontAndBack
    {
        type            empty;
    }
}


// ************************************************************************* //
