/*--------------------------------*- C++ -*----------------------------------*\
  =========                 |
  \\      /  F ield         | OpenFOAM: The Open Source CFD Toolbox
   \\    /   O peration     | Website:  https://openfoam.org
    \\  /    A nd           | Version:  7
     \\/     M anipulation  |
\*---------------------------------------------------------------------------*/
FoamFile
{
    version     2.0;
    format      ascii;
    class       volScalarField;
    location    "0.0425";
    object      nut;
}
// * * * * * * * * * * * * * * * * * * * * * * * * * * * * * * * * * * * * * //

dimensions      [0 2 -1 0 0 0 0];

internalField   nonuniform List<scalar> 
1440
(
0.000134167
0.000309215
0.000501217
0.00065828
0.000779181
0.000870521
0.000935812
0.000979444
0.00100422
0.0010162
0.00101561
0.00101148
0.00100201
0.000988445
0.000973056
0.000956769
0.00094022
0.000923826
0.00090789
0.000892623
0.000878159
0.000864594
0.000851967
0.00084027
0.000829464
0.000819492
0.000810294
0.000801817
0.000794016
0.000786884
0.000780399
0.00077454
0.000769263
0.000764487
0.000760134
0.000756161
0.000752535
0.000749235
0.000746266
0.000743641
0.000741358
0.000739393
0.000737748
0.000736348
0.000735196
0.000734365
0.000733697
0.000733036
0.000732625
0.000732347
0.000731925
0.000731762
0.000731745
0.000731758
0.000731682
0.00073163
0.000731731
0.000731862
0.000731923
0.000732017
0.000732167
0.00073219
0.00073193
0.000731903
0.000732014
0.000732107
0.000732052
0.000731678
0.000731556
0.000731619
0.000731632
0.000731445
0.000731253
0.000731198
0.000731028
0.000730972
0.000730976
0.00073086
0.000730819
0.000730822
0.000730692
0.000730645
0.000730675
0.00073065
0.00073053
0.000730543
0.000730572
0.000730473
0.000730296
0.000730317
0.000730365
0.000730319
0.000730178
0.000730213
0.000730269
0.000730196
0.000730168
0.000730178
0.000730043
0.000729846
0.000729855
0.000729875
0.000729772
0.000729664
0.000729641
0.000729565
0.000729361
0.000729324
0.000729307
0.000729192
0.000728921
0.000728688
0.000728661
0.000728591
0.000728423
0.000727896
0.00072764
0.000727049
0.000727
0.000726642
6.63087e-06
2.96112e-05
6.77715e-05
0.000116565
0.000178175
0.000240416
0.000298304
0.000351608
0.000396616
0.000433911
0.000462558
0.000484685
0.000501654
0.000514283
0.000523353
0.000529835
0.000534377
0.000536882
0.000537912
0.000538582
0.000538546
0.000538354
0.000537946
0.000537293
0.000536538
0.000535752
0.000534938
0.000534091
0.000533204
0.000532187
0.000530974
0.000529598
0.00052811
0.000526478
0.000524713
0.000522849
0.000520912
0.00051892
0.000516931
0.000515114
0.000513571
0.00051226
0.000511115
0.000510075
0.000509192
0.000508549
0.000508005
0.000507486
0.000507207
0.000507256
0.000507338
0.000507325
0.000507287
0.000507287
0.000507623
0.000507908
0.000507892
0.000507945
0.000508145
0.00050866
0.000509079
0.000509161
0.000509179
0.000509319
0.000509664
0.0005098
0.000510009
0.000510443
0.000510588
0.000510589
0.00051059
0.00051059
0.000510552
0.000510422
0.000510166
0.000510068
0.000510328
0.000510558
0.000510545
0.00051052
0.000510432
0.000510269
0.000510166
0.000510314
0.000510947
0.000511357
0.000511482
0.000511602
0.000511953
0.000512123
0.000512103
0.000512147
0.000512266
0.000512443
0.000512971
0.000513464
0.000513535
0.000513537
0.000513537
0.000513526
0.00051367
0.000514314
0.000514636
0.000514633
0.000514672
0.000514712
0.000514725
0.000514913
0.00051551
0.000516083
0.000516591
0.000516885
0.000517012
0.000517079
0.000517232
0.000517402
0.000517467
0.000517519
0.000517667
0.000518383
1.58731e-06
2.19091e-06
5.00139e-06
1.05173e-05
1.92683e-05
3.12946e-05
4.60764e-05
6.39861e-05
8.35992e-05
0.000103113
0.000121175
0.0001381
0.000153915
0.000167815
0.000179672
0.000190573
0.000201098
0.000210489
0.000218032
0.000223626
0.000227604
0.000231119
0.000235337
0.000240215
0.000244518
0.000247107
0.00024797
0.000248032
0.000247958
0.000247723
0.000247109
0.000245588
0.000243038
0.000239745
0.00023569
0.000230952
0.000225583
0.000219712
0.000213516
0.000207139
0.000200909
0.000195238
0.000190387
0.000186378
0.000183046
0.000180342
0.000178267
0.000176858
0.000176082
0.000175472
0.00017472
0.000174003
0.000173473
0.000173147
0.000172959
0.000172747
0.000172297
0.000171793
0.000171632
0.000171616
0.000171608
0.000171591
0.000171545
0.000171908
0.000173357
0.000173689
0.000173591
0.000173641
0.000173967
0.000174975
0.000175234
0.000175196
0.000175446
0.00017569
0.000175628
0.000175627
0.000175613
0.000175743
0.000176492
0.000177219
0.000177226
0.000177217
0.000177215
0.000177154
0.00017702
0.000176888
0.000177184
0.000178591
0.00017928
0.000179209
0.000179327
0.000179439
0.000179289
0.000179268
0.000179471
0.000179933
0.000180873
0.000181428
0.000181369
0.000181393
0.000181723
0.00018292
0.000183578
0.000183563
0.000183649
0.000183673
0.000183659
0.000183625
0.000183648
0.000184422
0.000185175
0.000185139
0.000185208
0.000185574
0.000186961
0.000188171
0.000188426
0.000188399
0.000188575
0.00018967
1.57744e-06
1.58241e-06
1.60941e-06
1.74603e-06
2.22055e-06
3.29387e-06
5.07938e-06
7.66394e-06
1.12857e-05
1.58611e-05
2.02945e-05
2.52124e-05
3.0852e-05
3.63229e-05
4.0882e-05
4.50524e-05
5.00783e-05
5.6139e-05
6.18367e-05
6.56913e-05
6.76577e-05
6.93501e-05
7.25954e-05
7.7553e-05
8.26441e-05
8.62081e-05
8.77371e-05
8.79745e-05
8.79279e-05
8.77759e-05
8.7377e-05
8.64323e-05
8.42197e-05
8.09695e-05
7.69788e-05
7.24089e-05
6.74257e-05
6.22053e-05
5.6923e-05
5.17361e-05
4.68178e-05
4.23458e-05
3.84413e-05
3.51342e-05
3.23801e-05
3.01269e-05
2.83244e-05
2.6943e-05
2.59187e-05
2.50947e-05
2.44276e-05
2.38458e-05
2.34053e-05
2.3115e-05
2.29212e-05
2.27724e-05
2.25992e-05
2.24291e-05
2.23778e-05
2.24799e-05
2.26613e-05
2.2731e-05
2.28596e-05
2.31224e-05
2.3416e-05
2.36931e-05
2.39429e-05
2.40618e-05
2.42299e-05
2.44994e-05
2.46679e-05
2.4777e-05
2.48614e-05
2.48533e-05
2.4897e-05
2.49571e-05
2.49503e-05
2.49553e-05
2.49575e-05
2.4945e-05
2.48861e-05
2.48137e-05
2.47123e-05
2.4569e-05
2.43719e-05
2.42103e-05
2.42292e-05
2.45618e-05
2.48944e-05
2.49576e-05
2.50262e-05
2.50546e-05
2.50529e-05
2.50529e-05
2.50429e-05
2.50379e-05
2.50418e-05
2.51474e-05
2.54704e-05
2.57552e-05
2.59205e-05
2.59359e-05
2.59405e-05
2.60307e-05
2.61585e-05
2.61523e-05
2.61525e-05
2.61304e-05
2.614e-05
2.62303e-05
2.65913e-05
2.68563e-05
2.69583e-05
2.69833e-05
2.71049e-05
2.74865e-05
2.79882e-05
2.844e-05
2.8677e-05
2.91e-05
1.57668e-06
1.57897e-06
1.5853e-06
1.59743e-06
1.62133e-06
1.65649e-06
1.71469e-06
1.82615e-06
2.03838e-06
2.45473e-06
2.95949e-06
3.5478e-06
4.51669e-06
5.68838e-06
6.60453e-06
7.27354e-06
8.26172e-06
9.99612e-06
1.17593e-05
1.29642e-05
1.35744e-05
1.39788e-05
1.46615e-05
1.62293e-05
1.84771e-05
2.00742e-05
2.0793e-05
2.09264e-05
2.09144e-05
2.08666e-05
2.07326e-05
2.04028e-05
1.95777e-05
1.83201e-05
1.68213e-05
1.51679e-05
1.34436e-05
1.17237e-05
1.00714e-05
8.53706e-06
7.15885e-06
5.96277e-06
4.959e-06
4.1409e-06
3.48965e-06
2.98183e-06
2.59326e-06
2.30276e-06
2.08831e-06
1.92584e-06
1.80121e-06
1.70496e-06
1.6321e-06
1.58032e-06
1.54456e-06
1.51754e-06
1.49488e-06
1.4797e-06
1.47954e-06
1.49726e-06
1.5189e-06
1.54234e-06
1.57763e-06
1.6165e-06
1.65947e-06
1.70365e-06
1.74794e-06
1.78696e-06
1.82565e-06
1.86313e-06
1.89231e-06
1.91341e-06
1.9242e-06
1.92601e-06
1.92775e-06
1.92783e-06
1.9247e-06
1.91216e-06
1.8757e-06
1.83413e-06
1.79787e-06
1.76708e-06
1.7351e-06
1.7012e-06
1.66848e-06
1.64643e-06
1.64677e-06
1.67893e-06
1.71394e-06
1.72943e-06
1.73613e-06
1.73434e-06
1.73727e-06
1.74411e-06
1.74126e-06
1.74248e-06
1.74956e-06
1.75542e-06
1.76899e-06
1.80937e-06
1.82678e-06
1.8272e-06
1.82638e-06
1.82793e-06
1.84307e-06
1.87521e-06
1.88532e-06
1.88202e-06
1.88417e-06
1.89184e-06
1.91971e-06
1.95568e-06
2.00067e-06
2.02019e-06
2.05163e-06
2.08634e-06
2.14556e-06
2.23262e-06
2.28044e-06
2.38419e-06
1.57651e-06
1.57819e-06
1.58328e-06
1.59393e-06
1.61423e-06
1.63879e-06
1.66994e-06
1.71014e-06
1.75974e-06
1.81311e-06
1.85842e-06
1.91161e-06
1.99545e-06
2.08906e-06
2.15376e-06
2.19476e-06
2.25807e-06
2.40415e-06
2.60635e-06
2.75238e-06
2.82442e-06
2.86556e-06
2.93461e-06
3.10539e-06
3.46444e-06
3.73132e-06
3.84542e-06
3.86358e-06
3.86021e-06
3.84827e-06
3.81446e-06
3.72652e-06
3.50051e-06
3.18036e-06
2.82005e-06
2.44408e-06
2.07331e-06
1.72376e-06
1.40666e-06
1.12886e-06
8.9352e-07
7.00761e-07
5.48269e-07
4.31947e-07
3.46638e-07
2.86742e-07
2.46628e-07
2.2103e-07
2.05372e-07
1.95917e-07
1.90649e-07
1.87879e-07
1.86239e-07
1.85166e-07
1.84368e-07
1.83675e-07
1.83154e-07
1.82528e-07
1.81712e-07
1.80718e-07
1.79713e-07
1.78972e-07
1.78572e-07
1.78538e-07
1.78748e-07
1.79543e-07
1.81117e-07
1.82632e-07
1.84009e-07
1.85107e-07
1.85798e-07
1.86058e-07
1.86083e-07
1.86042e-07
1.85786e-07
1.84919e-07
1.83216e-07
1.80633e-07
1.77737e-07
1.74913e-07
1.72745e-07
1.70905e-07
1.69181e-07
1.67496e-07
1.66111e-07
1.65091e-07
1.64428e-07
1.64189e-07
1.64264e-07
1.6439e-07
1.64344e-07
1.64367e-07
1.64389e-07
1.64368e-07
1.64229e-07
1.63685e-07
1.63082e-07
1.62446e-07
1.62138e-07
1.62256e-07
1.6248e-07
1.62551e-07
1.62531e-07
1.62415e-07
1.62587e-07
1.63107e-07
1.63156e-07
1.63259e-07
1.63503e-07
1.63414e-07
1.63764e-07
1.64657e-07
1.66969e-07
1.68465e-07
1.70083e-07
1.71839e-07
1.74243e-07
1.79667e-07
1.83088e-07
1.91329e-07
1.57651e-06
1.5782e-06
1.58331e-06
1.59398e-06
1.61435e-06
1.63917e-06
1.6701e-06
1.71024e-06
1.76088e-06
1.81377e-06
1.85771e-06
1.91182e-06
1.99651e-06
2.0867e-06
2.14599e-06
2.1839e-06
2.24572e-06
2.3889e-06
2.57128e-06
2.69505e-06
2.75095e-06
2.78273e-06
2.84075e-06
2.99945e-06
3.29041e-06
3.47232e-06
3.52997e-06
3.53254e-06
3.52596e-06
3.50627e-06
3.4573e-06
3.33162e-06
3.06902e-06
2.742e-06
2.38316e-06
2.01898e-06
1.67056e-06
1.35288e-06
1.075e-06
8.40839e-07
6.50363e-07
5.00814e-07
3.87822e-07
3.06146e-07
2.50101e-07
2.13844e-07
1.91809e-07
1.79203e-07
1.72411e-07
1.69051e-07
1.67739e-07
1.67618e-07
1.68171e-07
1.68642e-07
1.68683e-07
1.68654e-07
1.68559e-07
1.68226e-07
1.67182e-07
1.654e-07
1.63537e-07
1.61747e-07
1.60204e-07
1.59009e-07
1.58153e-07
1.5767e-07
1.57511e-07
1.57496e-07
1.5755e-07
1.5764e-07
1.57645e-07
1.57627e-07
1.57502e-07
1.57092e-07
1.56345e-07
1.55359e-07
1.54242e-07
1.5282e-07
1.51456e-07
1.49784e-07
1.48456e-07
1.47131e-07
1.46264e-07
1.45394e-07
1.44887e-07
1.44241e-07
1.43847e-07
1.43218e-07
1.42885e-07
1.42508e-07
1.42313e-07
1.41912e-07
1.41589e-07
1.40888e-07
1.40394e-07
1.39608e-07
1.39058e-07
1.3825e-07
1.37703e-07
1.36965e-07
1.36525e-07
1.35892e-07
1.35453e-07
1.34745e-07
1.34308e-07
1.33864e-07
1.33687e-07
1.33298e-07
1.33046e-07
1.32501e-07
1.32203e-07
1.31591e-07
1.31269e-07
1.30662e-07
1.3037e-07
1.29776e-07
1.29453e-07
1.28839e-07
1.28558e-07
1.27783e-07
1.57668e-06
1.57894e-06
1.58521e-06
1.59729e-06
1.62116e-06
1.65624e-06
1.71419e-06
1.8253e-06
2.03954e-06
2.45589e-06
2.9302e-06
3.51458e-06
4.48868e-06
5.61823e-06
6.47024e-06
7.1102e-06
8.10496e-06
9.80648e-06
1.14746e-05
1.25666e-05
1.30877e-05
1.34429e-05
1.40817e-05
1.56061e-05
1.76427e-05
1.89516e-05
1.94408e-05
1.94929e-05
1.94674e-05
1.93932e-05
1.92049e-05
1.87462e-05
1.77211e-05
1.63477e-05
1.47497e-05
1.3032e-05
1.12917e-05
9.60942e-06
8.04765e-06
6.64996e-06
5.44044e-06
4.42723e-06
3.60579e-06
2.96023e-06
2.46453e-06
2.0869e-06
1.79907e-06
1.57957e-06
1.41096e-06
1.27908e-06
1.17445e-06
1.09498e-06
1.04088e-06
1.01015e-06
1.00152e-06
1.00758e-06
1.01389e-06
1.0177e-06
1.02413e-06
1.03306e-06
1.03909e-06
1.04781e-06
1.05844e-06
1.07039e-06
1.08703e-06
1.10564e-06
1.12437e-06
1.14202e-06
1.15791e-06
1.17676e-06
1.19906e-06
1.22214e-06
1.24034e-06
1.24975e-06
1.25315e-06
1.25372e-06
1.25171e-06
1.24183e-06
1.21654e-06
1.17672e-06
1.13281e-06
1.09601e-06
1.06853e-06
1.04753e-06
1.03492e-06
1.03108e-06
1.02736e-06
1.02446e-06
1.02788e-06
1.0483e-06
1.06014e-06
1.06023e-06
1.05995e-06
1.05933e-06
1.06368e-06
1.07268e-06
1.07275e-06
1.07239e-06
1.07057e-06
1.07311e-06
1.07746e-06
1.0774e-06
1.07718e-06
1.07408e-06
1.07426e-06
1.08519e-06
1.11768e-06
1.12774e-06
1.12715e-06
1.12885e-06
1.12932e-06
1.12859e-06
1.12643e-06
1.12762e-06
1.12977e-06
1.12958e-06
1.12935e-06
1.12651e-06
1.1264e-06
1.12537e-06
1.57743e-06
1.58238e-06
1.60911e-06
1.74449e-06
2.21616e-06
3.28432e-06
5.06481e-06
7.6499e-06
1.13356e-05
1.5827e-05
2.01198e-05
2.50352e-05
3.06722e-05
3.60164e-05
4.04144e-05
4.45352e-05
4.95582e-05
5.55286e-05
6.10504e-05
6.4697e-05
6.64915e-05
6.80551e-05
7.118e-05
7.60696e-05
8.08475e-05
8.39447e-05
8.50822e-05
8.51868e-05
8.51161e-05
8.49185e-05
8.44346e-05
8.33141e-05
8.07664e-05
7.71291e-05
7.26895e-05
6.76659e-05
6.22953e-05
5.67865e-05
5.13502e-05
4.61914e-05
4.14603e-05
3.72733e-05
3.37153e-05
3.08062e-05
2.84766e-05
2.65883e-05
2.50559e-05
2.38487e-05
2.29096e-05
2.21443e-05
2.14742e-05
2.09287e-05
2.05624e-05
2.03248e-05
2.0173e-05
2.00881e-05
2.00014e-05
1.99377e-05
1.99703e-05
2.01547e-05
2.02779e-05
2.04112e-05
2.05029e-05
2.05747e-05
2.07331e-05
2.08931e-05
2.10094e-05
2.11111e-05
2.11621e-05
2.12347e-05
2.14213e-05
2.16751e-05
2.17391e-05
2.17109e-05
2.17382e-05
2.18502e-05
2.18697e-05
2.18685e-05
2.18676e-05
2.18337e-05
2.17528e-05
2.16662e-05
2.15881e-05
2.15278e-05
2.14497e-05
2.13565e-05
2.12605e-05
2.12647e-05
2.15015e-05
2.17005e-05
2.17013e-05
2.17027e-05
2.16998e-05
2.17234e-05
2.19061e-05
2.2096e-05
2.20978e-05
2.20891e-05
2.2067e-05
2.21059e-05
2.21749e-05
2.21737e-05
2.21725e-05
2.21381e-05
2.21699e-05
2.24597e-05
2.27818e-05
2.27938e-05
2.28256e-05
2.28557e-05
2.28557e-05
2.28548e-05
2.28101e-05
2.28499e-05
2.29008e-05
2.28941e-05
2.28776e-05
2.28674e-05
2.28986e-05
2.28736e-05
1.5868e-06
2.18141e-06
4.97318e-06
1.04698e-05
1.92078e-05
3.11908e-05
4.59526e-05
6.39284e-05
8.36062e-05
0.000102944
0.000120784
0.000137613
0.000153348
0.000167116
0.00017883
0.000189649
0.000200145
0.000209499
0.000216936
0.000222374
0.00022625
0.00022974
0.000233968
0.000238774
0.000242861
0.000245167
0.000245831
0.000245852
0.000245782
0.000245567
0.000245018
0.000243677
0.000241015
0.000237362
0.000232785
0.000227412
0.000221442
0.000214993
0.000208363
0.000201944
0.00019594
0.000190583
0.000186142
0.0001827
0.00018007
0.000177864
0.000176028
0.000174815
0.000174119
0.000173479
0.000172781
0.000172171
0.00017172
0.000171481
0.000171182
0.000170778
0.000170526
0.000170379
0.000170096
0.000169664
0.000169754
0.000170299
0.000170273
0.000170302
0.000170729
0.000171699
0.000171939
0.00017211
0.000172268
0.000172222
0.00017248
0.000173599
0.000173893
0.000173855
0.000174125
0.000174516
0.000174515
0.000174511
0.000174395
0.0001745
0.000175285
0.000175547
0.000175483
0.000175791
0.000176167
0.000176164
0.000176151
0.000176056
0.000176396
0.000177319
0.000177362
0.000177358
0.000177351
0.000177366
0.000178135
0.000179214
0.000179287
0.000179184
0.000179216
0.000179576
0.000179789
0.000179783
0.000179761
0.000179765
0.000180409
0.000182136
0.000182612
0.000182794
0.000182806
0.000182803
0.000182801
0.000182636
0.00018259
0.000182941
0.00018325
0.000183244
0.000183213
0.000183316
0.000183625
0.000183438
6.53048e-06
2.94328e-05
6.75225e-05
0.000116235
0.000177884
0.000239874
0.000298102
0.000351277
0.000396338
0.000433362
0.000461815
0.000483886
0.00050074
0.000513282
0.000522313
0.000528814
0.000533392
0.00053598
0.000537147
0.000537984
0.000538286
0.000538222
0.000538023
0.000537618
0.000537025
0.000536364
0.000535672
0.000534938
0.000534197
0.000533443
0.000532584
0.000531527
0.000530239
0.000528735
0.000526949
0.000524868
0.000522606
0.000520397
0.00051847
0.000516863
0.00051547
0.000514317
0.000513518
0.000512997
0.000512556
0.000512088
0.000511634
0.000511287
0.000511251
0.000511509
0.000512008
0.000512028
0.000512007
0.000511998
0.000511895
0.000511963
0.000512425
0.000512774
0.000513007
0.000513156
0.000513392
0.000513743
0.000513795
0.000513742
0.000513833
0.000513996
0.000513962
0.00051401
0.000514305
0.000514791
0.000514831
0.00051482
0.000514821
0.000514811
0.000514779
0.000514693
0.000514595
0.00051441
0.000514098
0.000513934
0.000514137
0.000514678
0.000514701
0.000514638
0.000514654
0.00051493
0.000515652
0.000515845
0.000515801
0.000515829
0.000515952
0.000516161
0.000516719
0.000517302
0.000517402
0.000517402
0.000517399
0.000517417
0.00051771
0.000518019
0.000518004
0.000518027
0.000518214
0.000518871
0.000519136
0.000519135
0.000519135
0.000519136
0.000519134
0.000519115
0.000519252
0.000519739
0.000519815
0.000519763
0.000519793
0.000520035
0.00052011
0.000520105
0.000520102
0.000519947
0.000134116
0.000309068
0.000501188
0.00065761
0.000778153
0.000868827
0.000933532
0.000975893
0.000999898
0.00101005
0.00100888
0.00100384
0.000992975
0.000978489
0.000962287
0.000945296
0.000928141
0.00091123
0.000894856
0.000879221
0.000864454
0.000850639
0.000837813
0.000825974
0.000815098
0.000805143
0.000796056
0.00078777
0.000780218
0.000773342
0.000767072
0.000761356
0.000756157
0.000751487
0.000747278
0.000743488
0.000740122
0.000737168
0.00073459
0.00073234
0.00073037
0.000728662
0.000727151
0.000725814
0.000724735
0.000723827
0.000722937
0.000722266
0.000721798
0.000721263
0.000720858
0.000720745
0.000720742
0.000720665
0.000720523
0.00072056
0.00072065
0.000720669
0.000720543
0.000720563
0.000720654
0.000720786
0.000720722
0.000720551
0.00072055
0.000720428
0.000720356
0.00072037
0.000720233
0.0007201
0.000720072
0.000719899
0.000719785
0.000719767
0.000719629
0.000719567
0.000719571
0.000719446
0.000719422
0.000719448
0.000719329
0.000719193
0.000719239
0.000719269
0.000719211
0.000719213
0.000719229
0.000719127
0.000719116
0.000719144
0.00071902
0.00071886
0.000718899
0.00071897
0.000718996
0.000718855
0.00071869
0.00071871
0.000718763
0.00071884
0.000718848
0.000718737
0.000718745
0.000718775
0.000718688
0.000718678
0.000718699
0.000718631
0.000718493
0.000718519
0.000718587
0.000718683
0.000718661
0.000718754
0.000718808
0.000718941
0.000718962
0.000719189
0.000719247
0.00071964
)
;

boundaryField
{
    upperWall
    {
        type            zeroGradient;
    }
    lowerWall
    {
        type            zeroGradient;
    }
    inlet
    {
        type            zeroGradient;
    }
    outlet
    {
        type            zeroGradient;
    }
    frontAndBack
    {
        type            empty;
    }
}


// ************************************************************************* //
