/*--------------------------------*- C++ -*----------------------------------*\
  =========                 |
  \\      /  F ield         | OpenFOAM: The Open Source CFD Toolbox
   \\    /   O peration     | Website:  https://openfoam.org
    \\  /    A nd           | Version:  7
     \\/     M anipulation  |
\*---------------------------------------------------------------------------*/
FoamFile
{
    version     2.0;
    format      ascii;
    class       volScalarField;
    location    "3.15";
    object      k_0;
}
// * * * * * * * * * * * * * * * * * * * * * * * * * * * * * * * * * * * * * //

dimensions      [0 2 -2 0 0 0 0];

internalField   nonuniform List<scalar> 
1200
(
1.46597
2.24388
2.04606
1.68573
1.4592
1.32
1.22664
1.1593
1.10755
1.06598
1.03142
1.00224
0.97687
0.955123
0.935152
0.918714
0.901363
0.890082
0.872082
0.879993
0.170817
0.758264
1.02788
1.10173
1.1005
1.08631
1.05729
1.0286
1.00237
0.978883
0.957896
0.939358
0.922491
0.908044
0.893852
0.883306
0.869988
0.863536
0.847553
0.846408
0.00764826
0.0792194
0.213725
0.308964
0.367029
0.414897
0.450746
0.478264
0.499373
0.516286
0.529
0.53983
0.547106
0.55449
0.557966
0.563449
0.564809
0.568829
0.567919
0.57082
0.000225294
0.00465679
0.0173094
0.0413202
0.0625214
0.0825495
0.100582
0.118258
0.134182
0.150424
0.164757
0.179976
0.192906
0.207182
0.218833
0.231907
0.242675
0.25386
0.264662
0.272174
2.63809e-05
0.000195458
0.000763833
0.00224018
0.00426441
0.00716191
0.0100503
0.0136941
0.0172918
0.0215209
0.0256934
0.0303399
0.035033
0.0399554
0.0452133
0.0502466
0.0562165
0.0611013
0.0680457
0.0723674
2.23238e-05
3.58408e-05
6.48759e-05
0.000100509
0.000175626
0.000251013
0.000409219
0.000544183
0.000827078
0.00104242
0.00148271
0.00180997
0.00242088
0.00289842
0.00369566
0.00433646
0.00535667
0.00615543
0.00747173
0.00837366
2.23238e-05
3.58401e-05
6.68224e-05
9.91287e-05
0.000178577
0.000250247
0.000412534
0.000543311
0.000831197
0.00104129
0.00149475
0.00180039
0.00245085
0.002865
0.00373636
0.00426883
0.0053744
0.00602717
0.00734941
0.00811865
2.63796e-05
0.000195434
0.000764865
0.00200731
0.00456328
0.00685235
0.010365
0.0133599
0.0176352
0.0211491
0.0260708
0.0299215
0.035433
0.0394844
0.0455808
0.0497102
0.0563813
0.0604342
0.0675545
0.0713143
0.000225247
0.00465642
0.01735
0.0412715
0.062593
0.082458
0.100699
0.118104
0.134365
0.150175
0.165036
0.179577
0.193304
0.206552
0.219306
0.230944
0.242942
0.252436
0.263748
0.270092
0.00764749
0.0792176
0.213715
0.308962
0.367023
0.414896
0.450729
0.478267
0.499343
0.516288
0.528946
0.539809
0.547015
0.554372
0.5578
0.563085
0.564349
0.567705
0.566647
0.568757
0.17081
0.758255
1.02787
1.10173
1.10049
1.08631
1.05726
1.02866
1.00229
0.979013
0.957719
0.939641
0.922135
0.908612
0.893248
0.884265
0.869516
0.864128
0.847964
0.848814
1.46597
2.24388
2.04606
1.68574
1.45919
1.32002
1.22662
1.15936
1.10752
1.06611
1.03135
1.00256
0.976783
0.955885
0.935136
0.920476
0.901951
0.893544
0.8751
0.88583
1.48534
1.64901
1.63432
1.63556
1.64476
1.65472
1.66379
1.67187
1.67885
1.68493
1.69036
1.69535
1.70004
1.70452
1.70886
1.71307
1.71718
1.72119
1.72512
1.72898
1.73276
1.73647
1.74011
1.74367
1.74716
1.75058
1.75394
1.75722
1.76044
1.76359
1.76668
1.7697
1.77268
1.77561
1.77849
1.78132
1.78409
1.78682
1.78948
1.7921
1.79466
1.79717
1.79963
1.80204
1.8044
1.8067
1.80895
1.81114
1.81329
1.81539
1.81744
1.81945
1.8214
1.82331
1.82517
1.82698
1.82875
1.83047
1.83214
1.83378
1.83537
1.83693
1.83846
1.83996
1.84144
1.8429
1.84433
1.84575
1.84714
1.84854
1.8499
1.8513
1.85261
1.85404
1.85525
1.85681
1.85782
1.85964
1.86031
1.86265
1.69527
2.02033
2.07332
2.09066
2.10733
2.12177
2.13328
2.14276
2.15086
2.15797
2.16445
2.17056
2.17643
2.18212
2.18762
2.19296
2.19819
2.20332
2.20834
2.21326
2.2181
2.22286
2.22753
2.23211
2.23656
2.24092
2.2452
2.24941
2.25357
2.25766
2.26168
2.26562
2.26946
2.27319
2.27686
2.28047
2.28403
2.28754
2.291
2.29439
2.29769
2.3009
2.30404
2.30713
2.31017
2.31317
2.31611
2.31898
2.32178
2.32449
2.32714
2.32975
2.33231
2.33481
2.33722
2.33957
2.34186
2.34411
2.34632
2.34848
2.35059
2.35266
2.35469
2.35668
2.35863
2.36056
2.36246
2.36435
2.3662
2.36806
2.36985
2.37171
2.37342
2.37532
2.37689
2.37894
2.38025
2.38266
2.38358
2.38654
1.19824
1.59978
1.72358
1.76895
1.79391
1.80947
1.81934
1.82625
1.83181
1.83684
1.84164
1.84632
1.85093
1.85548
1.85997
1.86441
1.86875
1.87302
1.8772
1.88131
1.88534
1.8893
1.89318
1.89699
1.90073
1.90442
1.90803
1.91158
1.91505
1.91845
1.92178
1.92505
1.92827
1.93144
1.93456
1.93762
1.94062
1.94355
1.94643
1.94924
1.95201
1.95474
1.95743
1.96006
1.96263
1.96515
1.96761
1.97003
1.9724
1.97473
1.97701
1.97924
1.98142
1.98356
1.98566
1.98772
1.98974
1.99171
1.99364
1.99553
1.99738
1.9992
2.00098
2.00273
2.00446
2.00615
2.00782
2.00947
2.01108
2.0127
2.01426
2.01588
2.01737
2.01904
2.0204
2.02221
2.02333
2.02542
2.02628
2.02877
0.612791
1.02536
1.21511
1.29822
1.33714
1.35538
1.36373
1.36782
1.37047
1.37284
1.37533
1.37803
1.3809
1.38387
1.38689
1.38991
1.39292
1.39589
1.39882
1.40171
1.40455
1.40736
1.41012
1.41282
1.41546
1.41806
1.42063
1.42315
1.42565
1.4281
1.43051
1.43287
1.43518
1.43745
1.43968
1.44187
1.44402
1.44614
1.44821
1.45025
1.45224
1.4542
1.45612
1.45801
1.45987
1.46171
1.46352
1.46529
1.46703
1.46873
1.4704
1.47205
1.47367
1.47526
1.47682
1.47835
1.47986
1.48134
1.4828
1.48423
1.48564
1.48704
1.4884
1.48975
1.49108
1.49239
1.49367
1.49495
1.4962
1.49746
1.49866
1.49992
1.50106
1.50235
1.50338
1.50478
1.50562
1.50722
1.50791
1.50978
0.162855
0.466671
0.687418
0.805436
0.86333
0.889304
0.899875
0.903733
0.905106
0.905769
0.906456
0.907431
0.908711
0.9102
0.911779
0.913402
0.915069
0.916762
0.91845
0.920123
0.921788
0.923459
0.925126
0.926741
0.928276
0.929767
0.931255
0.932759
0.934283
0.935818
0.937345
0.938837
0.940254
0.941596
0.942913
0.944224
0.945534
0.946843
0.948149
0.949433
0.950653
0.951803
0.952933
0.954067
0.955212
0.956367
0.957525
0.958677
0.959777
0.960822
0.961854
0.96289
0.963932
0.964966
0.965949
0.966899
0.967839
0.968778
0.969718
0.97066
0.971597
0.972524
0.973437
0.974339
0.975229
0.976114
0.976989
0.977867
0.978725
0.979597
0.980427
0.981301
0.98207
0.982952
0.983624
0.984582
0.985131
0.986204
0.986697
0.98795
0.0208419
0.0952679
0.255606
0.395563
0.481547
0.527117
0.54901
0.558642
0.562507
0.564068
0.564875
0.565489
0.566108
0.566816
0.567673
0.568638
0.569645
0.570672
0.571724
0.572786
0.573826
0.574807
0.575745
0.576726
0.577785
0.578867
0.579909
0.580882
0.581784
0.582631
0.583452
0.584286
0.585175
0.586104
0.58701
0.587867
0.588672
0.58943
0.590156
0.590879
0.591656
0.592486
0.593302
0.594076
0.594797
0.59547
0.596105
0.596712
0.597364
0.59807
0.598769
0.599434
0.600062
0.60067
0.601316
0.601985
0.602653
0.603306
0.603937
0.604548
0.605143
0.605731
0.606314
0.606895
0.607464
0.608025
0.608564
0.609097
0.609602
0.610118
0.610591
0.61111
0.611557
0.612134
0.612549
0.613193
0.613531
0.614202
0.614514
0.615294
0.0206739
0.0939466
0.254588
0.397433
0.48477
0.531125
0.553679
0.563935
0.568403
0.570536
0.571881
0.573006
0.574108
0.575273
0.576557
0.577925
0.579314
0.580708
0.582113
0.583515
0.584887
0.586196
0.587457
0.588749
0.590103
0.591467
0.592785
0.594031
0.595203
0.596317
0.597401
0.59849
0.599622
0.600782
0.601915
0.602999
0.604032
0.605018
0.605969
0.606914
0.6079
0.608924
0.609928
0.610887
0.611792
0.612647
0.613461
0.614242
0.615055
0.615907
0.616745
0.617545
0.618305
0.619038
0.619795
0.620563
0.621321
0.622057
0.622765
0.623447
0.624107
0.624753
0.625387
0.626012
0.626622
0.627218
0.62779
0.628354
0.628887
0.629428
0.629924
0.630464
0.630927
0.631519
0.631944
0.6326
0.632944
0.63363
0.633945
0.634738
0.162467
0.464315
0.690958
0.812875
0.871694
0.898462
0.909761
0.914285
0.916277
0.91753
0.918776
0.92028
0.922057
0.924017
0.926042
0.928092
0.93017
0.932261
0.934341
0.936406
0.938464
0.940529
0.942588
0.944591
0.946512
0.948378
0.950229
0.952079
0.953932
0.955781
0.957611
0.959396
0.961106
0.96274
0.964347
0.965946
0.967541
0.969133
0.970715
0.972271
0.97376
0.975174
0.97656
0.977937
0.979313
0.980686
0.98205
0.983397
0.984686
0.985916
0.987125
0.988331
0.989533
0.990718
0.991845
0.992931
0.993994
0.995042
0.99608
0.997105
0.998115
0.999105
1.00007
1.00102
1.00195
1.00288
1.00378
1.00469
1.00557
1.00647
1.00732
1.00821
1.009
1.0099
1.01058
1.01156
1.01211
1.0132
1.0137
1.01497
0.614083
1.02789
1.22445
1.30899
1.34716
1.36466
1.37224
1.37556
1.37745
1.37912
1.38097
1.38308
1.38542
1.38791
1.39049
1.39312
1.39577
1.39843
1.40107
1.40371
1.40632
1.40892
1.41149
1.41402
1.41651
1.41896
1.42137
1.42376
1.42611
1.42842
1.4307
1.43293
1.43512
1.43726
1.43938
1.44146
1.44351
1.44553
1.44751
1.44946
1.45136
1.45323
1.45506
1.45687
1.45864
1.46039
1.46211
1.46381
1.46547
1.46709
1.46869
1.47027
1.47183
1.47336
1.47487
1.47635
1.47781
1.47925
1.48066
1.48205
1.48343
1.48478
1.48612
1.48744
1.48874
1.49002
1.49129
1.49255
1.49379
1.49503
1.49623
1.49748
1.49862
1.4999
1.50093
1.50232
1.50316
1.50475
1.50544
1.50731
1.20219
1.60741
1.73337
1.77582
1.79778
1.81071
1.81805
1.82251
1.82573
1.82854
1.83128
1.83406
1.83691
1.83983
1.84282
1.84585
1.84889
1.85192
1.85494
1.85795
1.86094
1.86389
1.86681
1.86969
1.87254
1.87536
1.87813
1.88086
1.88355
1.88618
1.88877
1.8913
1.89381
1.89629
1.89873
1.90112
1.90347
1.90577
1.90803
1.91024
1.91242
1.91457
1.91669
1.91877
1.92082
1.92282
1.9248
1.92674
1.92866
1.93055
1.93242
1.93426
1.93608
1.93787
1.93965
1.94141
1.94315
1.94487
1.94657
1.94825
1.94991
1.95156
1.95319
1.95481
1.95641
1.95801
1.95958
1.96116
1.9627
1.96427
1.96578
1.96735
1.96881
1.97044
1.97178
1.97355
1.97465
1.97672
1.97756
1.98002
1.69829
2.02589
2.07366
2.08466
2.09664
2.10695
2.11462
2.12039
2.12492
2.12866
2.13198
2.13515
2.13828
2.1414
2.14451
2.1476
2.15071
2.15382
2.15692
2.15999
2.16303
2.16606
2.16905
2.17198
2.17485
2.17766
2.18045
2.18321
2.18596
2.18869
2.19138
2.19403
2.1966
2.1991
2.20155
2.20396
2.20635
2.20871
2.21103
2.21332
2.21554
2.2177
2.21982
2.22192
2.22401
2.22609
2.22814
2.23017
2.23216
2.23409
2.23601
2.23792
2.23982
2.24169
2.24353
2.24534
2.24713
2.24893
2.25072
2.25251
2.2543
2.25607
2.25784
2.25959
2.26134
2.2631
2.26484
2.26659
2.26832
2.27008
2.27178
2.27356
2.2752
2.27703
2.27855
2.28054
2.28181
2.28416
2.28507
2.28796
1.47686
1.63913
1.6175
1.6134
1.61844
1.62475
1.6305
1.63532
1.63915
1.64223
1.64484
1.64718
1.64937
1.6515
1.65361
1.65572
1.6578
1.65987
1.66191
1.66394
1.66593
1.6679
1.66983
1.67174
1.67362
1.67548
1.67732
1.67914
1.68092
1.68268
1.68441
1.6861
1.68776
1.68941
1.69102
1.69261
1.69416
1.69568
1.69717
1.69863
1.70007
1.7015
1.7029
1.70429
1.70566
1.707
1.70833
1.70964
1.71094
1.71222
1.7135
1.71476
1.71601
1.71725
1.7185
1.71974
1.72097
1.72221
1.72344
1.72467
1.72591
1.72715
1.72838
1.72963
1.73087
1.73212
1.73336
1.73462
1.73587
1.73715
1.73839
1.73969
1.7409
1.74226
1.7434
1.74489
1.74585
1.7476
1.74825
1.75049
)
;

boundaryField
{
    upperWall
    {
        type            fixedValue;
        value           uniform 0;
    }
    lowerWall
    {
        type            fixedValue;
        value           uniform 0;
    }
    heatedWall
    {
        type            fixedValue;
        value           uniform 0;
    }
    inlet
    {
        type            fixedValue;
        value           uniform 2e-05;
    }
    outlet
    {
        type            inletOutlet;
        inletValue      uniform 0;
        value           nonuniform List<scalar> 
12
(
1.86265
2.38654
2.02877
1.50978
0.98795
0.615294
0.634738
1.01497
1.50731
1.98002
2.28796
1.75049
)
;
    }
    frontAndBack
    {
        type            empty;
    }
}


// ************************************************************************* //
