/*--------------------------------*- C++ -*----------------------------------*\
  =========                 |
  \\      /  F ield         | OpenFOAM: The Open Source CFD Toolbox
   \\    /   O peration     | Website:  https://openfoam.org
    \\  /    A nd           | Version:  7
     \\/     M anipulation  |
\*---------------------------------------------------------------------------*/
FoamFile
{
    version     2.0;
    format      ascii;
    class       surfaceScalarField;
    location    "0.035";
    object      phi;
}
// * * * * * * * * * * * * * * * * * * * * * * * * * * * * * * * * * * * * * //

dimensions      [1 0 -1 0 0 0 0];

internalField   nonuniform List<scalar> 
3120
(
2.71756e-08
3.27374e-08
1.30931e-08
1.40681e-08
6.83072e-09
6.25278e-09
3.87315e-09
2.95396e-09
2.33535e-09
1.54085e-09
1.42082e-09
9.24015e-10
8.19831e-10
6.16085e-10
4.03615e-10
4.35693e-10
1.31051e-10
2.95055e-10
-9.10162e-12
1.64373e-10
-1.40293e-11
2.98386e-11
1.04918e-10
-9.4069e-11
3.35248e-10
-2.05911e-10
6.56657e-10
-2.97629e-10
1.04485e-09
-3.65053e-10
1.47518e-09
-4.07734e-10
1.92489e-09
-4.27476e-10
2.37517e-09
-4.28222e-10
2.81183e-09
-4.14623e-10
3.22526e-09
-3.91254e-10
3.60975e-09
-3.62076e-10
3.96267e-09
-3.30181e-10
4.28355e-09
-2.97772e-10
4.57332e-09
-2.66275e-10
4.83372e-09
-2.36505e-10
5.06684e-09
-2.08848e-10
5.27491e-09
-1.83412e-10
5.46005e-09
-1.60143e-10
5.62431e-09
-1.38911e-10
5.76953e-09
-1.19561e-10
5.89745e-09
-1.01952e-10
6.00967e-09
-8.59787e-11
6.10779e-09
-7.15911e-11
6.19339e-09
-5.88252e-11
6.26826e-09
-4.78598e-11
6.33464e-09
-3.91404e-11
6.39558e-09
-3.34947e-11
6.45527e-09
-3.20528e-11
6.5197e-09
-3.66251e-11
-5.90961e-11
4.54164e-08
4.2595e-08
3.25391e-08
2.69335e-08
2.21134e-08
1.66676e-08
1.49357e-08
1.01259e-08
1.01431e-08
6.33446e-09
6.90323e-09
4.17175e-09
4.67984e-09
2.85338e-09
3.17996e-09
1.95425e-09
2.24368e-09
1.25334e-09
1.7829e-09
6.49064e-10
1.73335e-09
1.04041e-10
2.0418e-09
-3.77934e-10
2.64679e-09
-7.86892e-10
3.48196e-09
-1.10958e-09
4.4802e-09
-1.34089e-09
5.57747e-09
-1.48331e-09
6.71799e-09
-1.54684e-09
7.85681e-09
-1.54621e-09
8.96059e-09
-1.49771e-09
1.00069e-08
-1.41685e-09
1.09827e-08
-1.31686e-09
1.18817e-08
-1.20799e-09
1.27031e-08
-1.09756e-09
1.3449e-08
-9.90289e-10
1.41238e-08
-8.88888e-10
1.47324e-08
-7.94637e-10
1.52801e-08
-7.07886e-10
1.5772e-08
-6.28447e-10
1.62129e-08
-5.55875e-10
1.66072e-08
-4.8964e-10
1.69592e-08
-4.29248e-10
1.72724e-08
-3.74307e-10
1.75506e-08
-3.24582e-10
1.77973e-08
-2.80053e-10
1.80163e-08
-2.4102e-10
1.82114e-08
-2.08291e-10
1.83875e-08
-1.83374e-10
1.85505e-08
-1.68634e-10
1.87077e-08
-1.67144e-10
-1.884e-10
5.79775e-08
5.04416e-08
4.60397e-08
3.88528e-08
3.50906e-08
2.76021e-08
2.62502e-08
1.89589e-08
1.95e-08
1.3084e-08
1.4487e-08
9.19095e-09
1.08494e-08
6.50324e-09
8.3079e-09
4.51306e-09
6.66357e-09
2.91848e-09
5.77568e-09
1.55979e-09
5.53352e-09
3.69782e-10
5.83877e-09
-6.59767e-10
6.59114e-09
-1.51659e-09
7.68952e-09
-2.18631e-09
9.03424e-09
-2.66504e-09
1.05333e-08
-2.96279e-09
1.21071e-08
-3.10178e-09
1.3691e-08
-3.11192e-09
1.52369e-08
-3.02555e-09
1.67112e-08
-2.87333e-09
1.80938e-08
-2.68141e-09
1.93743e-08
-2.47027e-09
2.05499e-08
-2.25461e-09
2.16227e-08
-2.04408e-09
2.25975e-08
-1.84433e-09
2.34809e-08
-1.65813e-09
2.42796e-08
-1.48633e-09
2.50006e-08
-1.3287e-09
2.56503e-08
-1.18442e-09
2.62346e-08
-1.05248e-09
2.67592e-08
-9.31914e-10
2.7229e-08
-8.21904e-10
2.76489e-08
-7.21894e-10
2.80233e-08
-6.31657e-10
2.83569e-08
-5.51401e-10
2.8654e-08
-4.81958e-10
2.89193e-08
-4.2496e-10
2.91575e-08
-3.82975e-10
2.93726e-08
-3.58122e-10
-3.59385e-10
5.71987e-08
5.77739e-08
5.08803e-08
4.51563e-08
4.35226e-08
3.49492e-08
3.58724e-08
2.6603e-08
2.8901e-08
2.00542e-08
2.30983e-08
1.49982e-08
1.85649e-08
1.1047e-08
1.52164e-08
7.8769e-09
1.29175e-08
5.23631e-09
1.15366e-08
2.96158e-09
1.09531e-08
9.74893e-10
1.10521e-08
-7.37449e-10
1.17161e-08
-2.16029e-09
1.28261e-08
-3.27714e-09
1.42643e-08
-4.08555e-09
1.59211e-08
-4.60308e-09
1.76998e-08
-4.86492e-09
1.95202e-08
-4.91758e-09
2.13205e-08
-4.81157e-09
2.30564e-08
-4.5951e-09
2.46989e-08
-4.30988e-09
2.6232e-08
-3.98903e-09
2.76487e-08
-3.65676e-09
2.89489e-08
-3.32932e-09
3.01366e-08
-3.01652e-09
3.12178e-08
-2.72343e-09
3.21998e-08
-2.45197e-09
3.30901e-08
-2.20211e-09
3.38958e-08
-1.97279e-09
3.46236e-08
-1.76257e-09
3.52798e-08
-1.56994e-09
3.587e-08
-1.3936e-09
3.63995e-08
-1.23257e-09
3.68734e-08
-1.08626e-09
3.72961e-08
-9.54573e-10
3.76721e-08
-8.38033e-10
3.80051e-08
-7.37884e-10
3.82988e-08
-6.56224e-10
3.85555e-08
-5.94199e-10
-5.62153e-10
5.70859e-08
5.49057e-08
5.50836e-08
4.71492e-08
5.01254e-08
3.98996e-08
4.3826e-08
3.28968e-08
3.73681e-08
2.65101e-08
3.15287e-08
2.08404e-08
2.6655e-08
1.5929e-08
2.28301e-08
1.17148e-08
2.00206e-08
8.06218e-09
1.81524e-08
4.84801e-09
1.71365e-08
2.0096e-09
1.68746e-08
-4.57115e-10
1.72579e-08
-2.52641e-09
1.8169e-08
-4.17244e-09
1.94872e-08
-5.38947e-09
2.10954e-08
-6.19849e-09
2.28869e-08
-6.64468e-09
2.47697e-08
-6.78956e-09
2.66697e-08
-6.70142e-09
2.85314e-08
-6.44685e-09
3.03159e-08
-6.08461e-09
3.19992e-08
-5.66236e-09
3.35685e-08
-5.21577e-09
3.50192e-08
-4.76942e-09
3.63525e-08
-4.33874e-09
3.75728e-08
-3.93221e-09
3.86864e-08
-3.55356e-09
3.97003e-08
-3.20349e-09
4.06215e-08
-2.88105e-09
4.14569e-08
-2.5845e-09
4.22127e-08
-2.31191e-09
4.28949e-08
-2.06149e-09
4.35088e-08
-1.83179e-09
4.40594e-08
-1.62177e-09
4.45511e-08
-1.43087e-09
4.49879e-08
-1.2591e-09
4.53731e-08
-1.10707e-09
4.57094e-08
-9.76141e-10
4.59986e-08
-8.6685e-10
-7.91085e-10
6.41618e-08
6.01836e-08
5.96226e-08
5.168e-08
5.49025e-08
4.46121e-08
4.96253e-08
3.81678e-08
4.41483e-08
3.19842e-08
3.89102e-08
2.60799e-08
3.42333e-08
2.06121e-08
3.03006e-08
1.56578e-08
2.71914e-08
1.11848e-08
2.49207e-08
7.13376e-09
2.34639e-08
3.48196e-09
2.27658e-08
2.55984e-10
2.27501e-08
-2.49698e-09
2.3318e-08
-4.72816e-09
2.43599e-08
-6.42088e-09
2.57623e-08
-7.59183e-09
2.74156e-08
-8.29013e-09
2.92208e-08
-8.5879e-09
3.10943e-08
-8.56869e-09
3.29699e-08
-8.31649e-09
3.47985e-08
-7.90748e-09
3.6547e-08
-7.40501e-09
3.8195e-08
-6.85776e-09
3.97323e-08
-6.30032e-09
4.11556e-08
-5.75524e-09
4.24663e-08
-5.2357e-09
4.36687e-08
-4.7482e-09
4.47684e-08
-4.29493e-09
4.57715e-08
-3.8755e-09
4.66844e-08
-3.48822e-09
4.7513e-08
-3.13094e-09
4.8263e-08
-2.80148e-09
4.89395e-08
-2.49795e-09
4.95474e-08
-2.21885e-09
5.00908e-08
-1.9631e-09
5.05733e-08
-1.73014e-09
5.09979e-08
-1.51984e-09
5.13666e-08
-1.33275e-09
5.16812e-08
-1.16903e-09
-1.04151e-09
5.98257e-08
5.77698e-08
5.92357e-08
5.2264e-08
5.67394e-08
4.71021e-08
5.32946e-08
4.16072e-08
4.92689e-08
3.60068e-08
4.50145e-08
3.03347e-08
4.08733e-08
2.47576e-08
3.71123e-08
1.94265e-08
3.39092e-08
1.43982e-08
3.13674e-08
9.68737e-09
2.95334e-08
5.3281e-09
2.8409e-08
1.39188e-09
2.79582e-08
-2.03602e-09
2.81155e-08
-4.87686e-09
2.87929e-08
-7.09133e-09
2.98896e-08
-8.68305e-09
3.1301e-08
-9.69717e-09
3.29267e-08
-1.02102e-08
3.46772e-08
-1.03165e-08
3.6478e-08
-1.01149e-08
3.82709e-08
-9.69811e-09
4.00136e-08
-9.14542e-09
4.16778e-08
-8.51953e-09
4.32466e-08
-7.86637e-09
4.47114e-08
-7.21701e-09
4.60698e-08
-6.59059e-09
4.7323e-08
-5.99748e-09
4.84745e-08
-5.44214e-09
4.95292e-08
-4.9254e-09
5.04923e-08
-4.44606e-09
5.13691e-08
-4.00203e-09
5.21646e-08
-3.59097e-09
5.28837e-08
-3.21064e-09
5.35308e-08
-2.85913e-09
5.41098e-08
-2.53489e-09
5.46239e-08
-2.23676e-09
5.50758e-08
-1.96393e-09
5.54674e-08
-1.71615e-09
5.58e-08
-1.49326e-09
-1.30834e-09
5.98649e-08
5.90137e-08
5.8911e-08
5.3214e-08
5.79566e-08
4.80517e-08
5.60289e-08
4.35305e-08
5.32433e-08
3.87893e-08
4.99218e-08
3.36558e-08
4.63988e-08
2.82831e-08
4.29622e-08
2.28684e-08
3.98339e-08
1.75339e-08
3.71722e-08
1.23577e-08
3.50788e-08
7.43031e-09
3.36055e-08
2.87329e-09
3.27594e-08
-1.18304e-09
3.2512e-08
-4.62407e-09
3.28036e-08
-7.37911e-09
3.35535e-08
-9.43049e-09
3.46689e-08
-1.08111e-08
3.60538e-08
-1.15946e-08
3.76177e-08
-1.18804e-08
3.9281e-08
-1.17785e-08
4.09782e-08
-1.13959e-08
4.26594e-08
-1.08272e-08
4.42888e-08
-1.01494e-08
4.58429e-08
-9.42064e-09
4.73076e-08
-8.68165e-09
4.86761e-08
-7.95862e-09
4.99462e-08
-7.2668e-09
5.1119e-08
-6.6138e-09
5.21975e-08
-6.00229e-09
5.31855e-08
-5.43209e-09
5.40873e-08
-4.90153e-09
5.49074e-08
-4.40834e-09
5.56499e-08
-3.95016e-09
5.6319e-08
-3.52475e-09
5.6918e-08
-3.13017e-09
5.745e-08
-2.76474e-09
5.79175e-08
-2.42705e-09
5.83221e-08
-2.11607e-09
5.86651e-08
-1.83136e-09
-1.58579e-09
5.55752e-08
4.88505e-08
5.93776e-08
4.9409e-08
5.96506e-08
4.77749e-08
5.83969e-08
4.47802e-08
5.62846e-08
4.08986e-08
5.36428e-08
3.62962e-08
5.07017e-08
3.1225e-08
4.76745e-08
2.58986e-08
4.47626e-08
2.04506e-08
4.21382e-08
1.49877e-08
3.99329e-08
9.6414e-09
3.82341e-08
4.57717e-09
3.70857e-08
-3.06456e-11
3.64953e-08
-4.03108e-09
3.64342e-08
-7.31679e-09
3.68464e-08
-9.84271e-09
3.76563e-08
-1.1622e-08
3.87779e-08
-1.27178e-08
4.01237e-08
-1.32284e-08
4.16131e-08
-1.32703e-08
4.31762e-08
-1.29616e-08
4.47574e-08
-1.24109e-08
4.63146e-08
-1.17091e-08
4.78184e-08
-1.09268e-08
4.92497e-08
-1.01151e-08
5.05972e-08
-9.30803e-09
5.18555e-08
-8.52671e-09
5.30231e-08
-7.7826e-09
5.41008e-08
-7.0809e-09
5.5091e-08
-6.42292e-09
5.5997e-08
-5.8078e-09
5.68224e-08
-5.23364e-09
5.75707e-08
-4.69812e-09
5.82455e-08
-4.19888e-09
5.88499e-08
-3.73367e-09
5.93869e-08
-3.30041e-09
5.98585e-08
-2.89716e-09
6.02665e-08
-2.52224e-09
6.06121e-08
-2.1749e-09
-1.8676e-09
6.62835e-08
5.27992e-08
6.37848e-08
5.19048e-08
6.18877e-08
4.96682e-08
6.0122e-08
4.65418e-08
5.82604e-08
4.27569e-08
5.61529e-08
3.84016e-08
5.37756e-08
3.36017e-08
5.12208e-08
2.84545e-08
4.86411e-08
2.30327e-08
4.61971e-08
1.74348e-08
4.4028e-08
1.18137e-08
4.22411e-08
6.36651e-09
4.09086e-08
1.30341e-09
4.00679e-08
-3.19013e-09
3.97217e-08
-6.97142e-09
3.98405e-08
-9.96336e-09
4.03691e-08
-1.21533e-08
4.12353e-08
-1.35872e-08
4.23591e-08
-1.43559e-08
4.36619e-08
-1.45769e-08
4.50728e-08
-1.43765e-08
4.65323e-08
-1.38744e-08
4.7994e-08
-1.31747e-08
4.94235e-08
-1.23602e-08
5.07976e-08
-1.14928e-08
5.21011e-08
-1.0615e-08
5.33253e-08
-9.75424e-09
5.44664e-08
-8.92665e-09
5.55232e-08
-8.14044e-09
5.64967e-08
-7.3989e-09
5.73891e-08
-6.70235e-09
5.8203e-08
-6.04952e-09
5.89416e-08
-5.43837e-09
5.96079e-08
-4.86657e-09
6.02048e-08
-4.3317e-09
6.07349e-08
-3.83138e-09
6.12004e-08
-3.36324e-09
6.16028e-08
-2.92506e-09
6.19436e-08
-2.51582e-09
-2.14752e-09
7.09695e-08
6.08609e-08
6.53765e-08
5.74943e-08
6.24082e-08
5.26325e-08
6.0598e-08
4.83479e-08
5.91453e-08
4.42059e-08
5.7597e-08
3.99472e-08
5.57853e-08
3.54118e-08
5.37349e-08
3.05044e-08
5.15609e-08
2.52072e-08
4.9402e-08
1.95946e-08
4.739e-08
1.38266e-08
4.5638e-08
8.11889e-09
4.4236e-08
2.70497e-09
4.32451e-08
-2.20074e-09
4.26953e-08
-6.42417e-09
4.25832e-08
-9.85445e-09
4.28749e-08
-1.24489e-08
4.35143e-08
-1.42309e-08
4.44317e-08
-1.52779e-08
4.55536e-08
-1.57036e-08
4.68102e-08
-1.5638e-08
4.8141e-08
-1.521e-08
4.94964e-08
-1.45349e-08
5.08388e-08
-1.37074e-08
5.21413e-08
-1.27999e-08
5.33856e-08
-1.18638e-08
5.45605e-08
-1.09335e-08
5.56598e-08
-1.00301e-08
5.66807e-08
-9.16528e-09
5.76228e-08
-8.34481e-09
5.84875e-08
-7.5705e-09
5.92767e-08
-6.84197e-09
5.99929e-08
-6.15766e-09
6.06389e-08
-5.5154e-09
6.12173e-08
-4.91274e-09
6.17306e-08
-4.3471e-09
6.2181e-08
-3.81581e-09
6.25701e-08
-3.31618e-09
6.28995e-08
-2.84696e-09
-2.41972e-09
5.46452e-08
4.82998e-08
5.91341e-08
5.30017e-08
5.98827e-08
5.188e-08
5.97576e-08
4.84691e-08
5.92327e-08
4.47271e-08
5.83213e-08
4.08554e-08
5.70428e-08
3.66878e-08
5.54726e-08
3.20729e-08
5.37178e-08
2.69609e-08
5.18937e-08
2.14179e-08
5.0114e-08
1.56055e-08
4.84862e-08
9.74533e-09
4.71075e-08
4.08153e-09
4.60557e-08
-1.15181e-09
4.53822e-08
-5.75431e-09
4.51058e-08
-9.58235e-09
4.52134e-08
-1.25612e-08
4.56652e-08
-1.46876e-08
4.64033e-08
-1.60212e-08
4.73615e-08
-1.66671e-08
4.84734e-08
-1.67553e-08
4.96789e-08
-1.64209e-08
5.09273e-08
-1.57887e-08
5.21785e-08
-1.4964e-08
5.34031e-08
-1.40297e-08
5.45804e-08
-1.30462e-08
5.56968e-08
-1.2055e-08
5.67445e-08
-1.10826e-08
5.77192e-08
-1.01447e-08
5.86197e-08
-9.24983e-09
5.94463e-08
-8.40148e-09
6.02006e-08
-7.60043e-09
6.08847e-08
-6.84577e-09
6.15011e-08
-6.13564e-09
6.20524e-08
-5.46766e-09
6.2541e-08
-4.83913e-09
6.29691e-08
-4.24717e-09
6.33386e-08
-3.68871e-09
6.36511e-08
-3.16231e-09
-2.67908e-09
5.99643e-08
5.97042e-08
5.87941e-08
5.41678e-08
5.93806e-08
5.12894e-08
5.96798e-08
4.81658e-08
5.94856e-08
4.49174e-08
5.88684e-08
4.1469e-08
5.79198e-08
3.76332e-08
5.67174e-08
3.32725e-08
5.53331e-08
2.8343e-08
5.38409e-08
2.29079e-08
5.23234e-08
1.71207e-08
5.08722e-08
1.11938e-08
4.95823e-08
5.36809e-09
4.854e-08
-1.13451e-10
4.78114e-08
-5.03014e-09
4.74328e-08
-9.20873e-09
4.74087e-08
-1.25425e-08
4.7715e-08
-1.49993e-08
4.83059e-08
-1.66177e-08
4.91237e-08
-1.74906e-08
5.01071e-08
-1.77444e-08
5.11977e-08
-1.75172e-08
5.23448e-08
-1.69415e-08
5.35072e-08
-1.61321e-08
5.46536e-08
-1.51816e-08
5.57613e-08
-1.41594e-08
5.68151e-08
-1.31143e-08
5.78058e-08
-1.20786e-08
5.87282e-08
-1.10723e-08
5.95801e-08
-1.01068e-08
6.03615e-08
-9.18776e-09
6.10736e-08
-8.31724e-09
6.17183e-08
-7.49512e-09
6.22982e-08
-6.71993e-09
6.28157e-08
-5.98944e-09
6.32734e-08
-5.30091e-09
6.36736e-08
-4.65127e-09
6.40183e-08
-4.03717e-09
6.43094e-08
-3.457e-09
-2.92122e-09
6.09195e-08
5.99809e-08
6.008e-08
5.5003e-08
6.0188e-08
5.11775e-08
6.01944e-08
4.81555e-08
5.98657e-08
4.52422e-08
5.92895e-08
4.20413e-08
5.85333e-08
3.83858e-08
5.76197e-08
3.41826e-08
5.65613e-08
2.93982e-08
5.53832e-08
2.40828e-08
5.41338e-08
1.83667e-08
5.28855e-08
1.24383e-08
5.17264e-08
6.52303e-09
5.0745e-08
8.63244e-10
5.00157e-08
-4.30602e-09
4.95876e-08
-8.78605e-09
4.94791e-08
-1.24396e-08
4.96798e-08
-1.52057e-08
5.01559e-08
-1.70995e-08
5.08586e-08
-1.81991e-08
5.17324e-08
-1.8624e-08
5.27221e-08
-1.85127e-08
5.37778e-08
-1.80029e-08
5.48578e-08
-1.72178e-08
5.59294e-08
-1.62589e-08
5.69687e-08
-1.52044e-08
5.79593e-08
-1.41104e-08
5.88907e-08
-1.30156e-08
5.97573e-08
-1.19442e-08
6.05563e-08
-1.09111e-08
6.12876e-08
-9.9242e-09
6.19522e-08
-8.98693e-09
6.25523e-08
-8.10008e-09
6.30902e-08
-7.26268e-09
6.35688e-08
-6.47267e-09
6.39907e-08
-5.7273e-09
6.43585e-08
-5.02335e-09
6.46743e-08
-4.35721e-09
6.49403e-08
-3.72706e-09
-3.14245e-09
6.37869e-08
6.03658e-08
6.19918e-08
5.67946e-08
6.10879e-08
5.20778e-08
6.04924e-08
4.87472e-08
5.99632e-08
4.57675e-08
5.94459e-08
4.25545e-08
5.88968e-08
3.8931e-08
5.82659e-08
3.48096e-08
5.75154e-08
3.01448e-08
5.66345e-08
2.49597e-08
5.56474e-08
1.93496e-08
5.46115e-08
1.34696e-08
5.36072e-08
7.52243e-09
5.27215e-08
1.74369e-09
5.20324e-08
-3.62242e-09
5.15965e-08
-8.35584e-09
5.14429e-08
-1.22919e-08
5.15729e-08
-1.53416e-08
5.19638e-08
-1.74963e-08
5.25758e-08
-1.88169e-08
5.33596e-08
-1.94137e-08
5.42638e-08
-1.94227e-08
5.52397e-08
-1.89847e-08
5.62457e-08
-1.82296e-08
5.72483e-08
-1.72673e-08
5.82226e-08
-1.61844e-08
5.91512e-08
-1.50447e-08
6.0023e-08
-1.3893e-08
6.08319e-08
-1.27587e-08
6.15753e-08
-1.16599e-08
6.22528e-08
-1.06071e-08
6.2866e-08
-9.6053e-09
6.3417e-08
-8.65623e-09
6.39088e-08
-7.75941e-09
6.43442e-08
-6.91298e-09
6.47264e-08
-6.11413e-09
6.50579e-08
-5.35951e-09
6.53415e-08
-4.6452e-09
6.55793e-08
-3.96915e-09
-3.33964e-09
6.20212e-08
5.89237e-08
6.19055e-08
5.69078e-08
6.10689e-08
5.29112e-08
6.03231e-08
4.94896e-08
5.98002e-08
4.62866e-08
5.94397e-08
4.2911e-08
5.91309e-08
3.92356e-08
5.87764e-08
3.51598e-08
5.83094e-08
3.06074e-08
5.76999e-08
2.55645e-08
5.69584e-08
2.00863e-08
5.61319e-08
1.4291e-08
5.5293e-08
8.35598e-09
5.45242e-08
2.50691e-09
5.39028e-08
-3.00686e-09
5.34895e-08
-7.94844e-09
5.33211e-08
-1.21294e-08
5.34088e-08
-1.54351e-08
5.37398e-08
-1.78332e-08
5.4283e-08
-1.9366e-08
5.49954e-08
-2.0132e-08
5.58293e-08
-2.02624e-08
5.67377e-08
-1.98989e-08
5.76791e-08
-1.91768e-08
5.86194e-08
-1.82134e-08
5.95329e-08
-1.71036e-08
6.04017e-08
-1.59191e-08
6.12142e-08
-1.47112e-08
6.19644e-08
-1.35144e-08
6.26498e-08
-1.23508e-08
6.32706e-08
-1.12333e-08
6.38287e-08
-1.01687e-08
6.43269e-08
-9.15964e-09
6.47686e-08
-8.20613e-09
6.51571e-08
-7.30644e-09
6.54959e-08
-6.45768e-09
6.57879e-08
-5.65627e-09
6.60361e-08
-4.89796e-09
6.62429e-08
-4.18038e-09
-3.51006e-09
5.71388e-08
4.96044e-08
5.9654e-08
5.43904e-08
5.98886e-08
5.26739e-08
5.9642e-08
4.97331e-08
5.94678e-08
4.64572e-08
5.94021e-08
4.29727e-08
5.93623e-08
3.92711e-08
5.92639e-08
3.52537e-08
5.90444e-08
3.08222e-08
5.86723e-08
2.59317e-08
5.81525e-08
2.06009e-08
5.75242e-08
1.49139e-08
5.68512e-08
9.02328e-09
5.62089e-08
3.14328e-09
5.56714e-08
-2.4753e-09
5.53005e-08
-7.58354e-09
5.51387e-08
-1.19736e-08
5.52053e-08
-1.55078e-08
5.54968e-08
-1.81306e-08
5.599e-08
-1.9865e-08
5.66477e-08
-2.07955e-08
5.74255e-08
-2.1046e-08
5.82782e-08
-2.07573e-08
5.91642e-08
-2.00685e-08
6.00489e-08
-1.91039e-08
6.0906e-08
-1.79664e-08
6.1717e-08
-1.67358e-08
6.24705e-08
-1.54704e-08
6.31607e-08
-1.42102e-08
6.37857e-08
-1.29814e-08
6.43466e-08
-1.17996e-08
6.4846e-08
-1.06734e-08
6.52875e-08
-9.60635e-09
6.56751e-08
-8.59887e-09
6.60129e-08
-7.64923e-09
6.63047e-08
-6.75436e-09
6.65541e-08
-5.91034e-09
6.6764e-08
-5.1125e-09
6.69371e-08
-4.35803e-09
-3.65128e-09
6.14322e-08
5.48583e-08
5.94656e-08
5.63559e-08
5.9002e-08
5.31355e-08
5.90078e-08
4.97246e-08
5.9218e-08
4.62437e-08
5.94732e-08
4.27137e-08
5.96867e-08
3.90534e-08
5.98072e-08
3.51286e-08
5.9795e-08
3.08295e-08
5.96264e-08
2.60952e-08
5.93039e-08
2.09179e-08
5.88591e-08
1.53531e-08
5.83458e-08
9.53064e-09
5.7831e-08
3.65206e-09
5.73837e-08
-2.0341e-09
5.70658e-08
-7.2717e-09
5.6924e-08
-1.18378e-08
5.69848e-08
-1.55745e-08
5.72524e-08
-1.84041e-08
5.77107e-08
-2.03291e-08
5.83278e-08
-2.14184e-08
5.90623e-08
-2.17862e-08
5.98699e-08
-2.15706e-08
6.07089e-08
-2.09132e-08
6.1544e-08
-1.99447e-08
6.23481e-08
-1.87762e-08
6.31027e-08
-1.7496e-08
6.37966e-08
-1.61698e-08
6.44246e-08
-1.48438e-08
6.4986e-08
-1.35483e-08
6.5483e-08
-1.2302e-08
6.59193e-08
-1.1115e-08
6.62997e-08
-9.99191e-09
6.6629e-08
-8.93327e-09
6.6912e-08
-7.93724e-09
6.71532e-08
-7.0004e-09
6.73564e-08
-6.11836e-09
6.75252e-08
-5.28587e-09
6.76622e-08
-4.49954e-09
-3.76109e-09
5.60974e-08
5.34431e-08
5.70238e-08
5.54292e-08
5.76478e-08
5.25099e-08
5.84194e-08
4.89507e-08
5.91387e-08
4.55211e-08
5.97107e-08
4.21379e-08
6.01423e-08
3.86175e-08
6.04452e-08
3.48209e-08
6.06093e-08
3.06603e-08
6.0619e-08
2.60801e-08
6.04741e-08
2.10572e-08
6.01976e-08
1.56237e-08
5.98339e-08
9.88833e-09
5.94413e-08
4.03855e-09
5.9084e-08
-1.6829e-09
5.88231e-08
-7.01701e-09
5.8709e-08
-1.17297e-08
5.8774e-08
-1.56454e-08
5.90292e-08
-1.86652e-08
5.94647e-08
-2.07704e-08
6.0053e-08
-2.20123e-08
6.07547e-08
-2.24936e-08
6.15261e-08
-2.23477e-08
6.23248e-08
-2.17175e-08
6.31145e-08
-2.074e-08
6.38676e-08
-1.95349e-08
6.45653e-08
-1.81993e-08
6.51973e-08
-1.68073e-08
6.57595e-08
-1.54115e-08
6.62527e-08
-1.40469e-08
6.66806e-08
-1.27352e-08
6.70485e-08
-1.14882e-08
6.73624e-08
-1.0311e-08
6.76284e-08
-9.20434e-09
6.78521e-08
-8.16592e-09
6.80386e-08
-7.19176e-09
6.81923e-08
-6.27679e-09
6.83168e-08
-5.41504e-09
6.84152e-08
-4.60238e-09
-3.83745e-09
5.74836e-08
5.19987e-08
5.80141e-08
5.48989e-08
5.8359e-08
5.21639e-08
5.8988e-08
4.83193e-08
5.96731e-08
4.48329e-08
6.02814e-08
4.15258e-08
6.07982e-08
3.80964e-08
6.12214e-08
3.43929e-08
6.15289e-08
3.03476e-08
6.1695e-08
2.59085e-08
6.17098e-08
2.10366e-08
6.1587e-08
1.57405e-08
6.13614e-08
1.01078e-08
6.10838e-08
4.31e-09
6.08137e-08
-1.41894e-09
6.06114e-08
-6.82083e-09
6.05296e-08
-1.1654e-08
6.06059e-08
-1.57276e-08
6.08573e-08
-1.89225e-08
6.12792e-08
-2.11981e-08
6.18475e-08
-2.25862e-08
6.25244e-08
-2.31762e-08
6.3266e-08
-2.30947e-08
6.40285e-08
-2.24856e-08
6.47745e-08
-2.14915e-08
6.54757e-08
-2.02416e-08
6.61136e-08
-1.88428e-08
6.66789e-08
-1.73781e-08
6.71693e-08
-1.59074e-08
6.75875e-08
-1.44706e-08
6.79394e-08
-1.30924e-08
6.8232e-08
-1.17861e-08
6.84731e-08
-1.05573e-08
6.867e-08
-9.40624e-09
6.88292e-08
-8.3301e-09
6.89566e-08
-7.32396e-09
6.90569e-08
-6.38187e-09
6.91342e-08
-5.49692e-09
6.91914e-08
-4.66408e-09
-3.87853e-09
5.98202e-08
6.00826e-08
5.89282e-08
5.57915e-08
5.91483e-08
5.19427e-08
5.96932e-08
4.77721e-08
6.03373e-08
4.41857e-08
6.09674e-08
4.08918e-08
6.15638e-08
3.74955e-08
6.21054e-08
3.38464e-08
6.25523e-08
2.98953e-08
6.28674e-08
2.55878e-08
6.30331e-08
2.08651e-08
6.30554e-08
1.5712e-08
6.29618e-08
1.01952e-08
6.27961e-08
4.46948e-09
6.26132e-08
-1.24228e-09
6.24722e-08
-6.68591e-09
6.24275e-08
-1.16154e-08
6.25211e-08
-1.58271e-08
6.27753e-08
-1.91825e-08
6.31901e-08
-2.16186e-08
6.37444e-08
-2.31462e-08
6.44013e-08
-2.38386e-08
6.51157e-08
-2.38146e-08
6.58424e-08
-2.32177e-08
6.65424e-08
-2.21971e-08
6.7187e-08
-2.08916e-08
6.77584e-08
-1.94196e-08
6.82488e-08
-1.7874e-08
6.86583e-08
-1.63223e-08
6.89923e-08
-1.48099e-08
6.92589e-08
-1.33643e-08
6.94678e-08
-1.20002e-08
6.96283e-08
-1.07229e-08
6.97492e-08
-9.53216e-09
6.98381e-08
-8.42393e-09
6.99015e-08
-7.39212e-09
6.99445e-08
-6.42961e-09
6.99714e-08
-5.52835e-09
6.99851e-08
-4.68225e-09
-3.88271e-09
6.21047e-08
6.06048e-08
6.0878e-08
5.70182e-08
6.04112e-08
5.24081e-08
6.05639e-08
4.76169e-08
6.10385e-08
4.37076e-08
6.16726e-08
4.02536e-08
6.23704e-08
3.6793e-08
6.30533e-08
3.31583e-08
6.3654e-08
2.92892e-08
6.41258e-08
2.51103e-08
6.4447e-08
2.05378e-08
6.46191e-08
1.55338e-08
6.46627e-08
1.01453e-08
6.46151e-08
4.51083e-09
6.45262e-08
-1.1597e-09
6.44533e-08
-6.61922e-09
6.44525e-08
-1.16207e-08
6.45696e-08
-1.59501e-08
6.4832e-08
-1.94507e-08
6.52441e-08
-2.20363e-08
6.5787e-08
-2.36947e-08
6.64243e-08
-2.44814e-08
6.71093e-08
-2.45051e-08
6.77952e-08
-2.39089e-08
6.84415e-08
-2.28488e-08
6.90194e-08
-2.14749e-08
6.95124e-08
-1.9918e-08
6.99151e-08
-1.8282e-08
7.02306e-08
-1.66432e-08
7.04676e-08
-1.50522e-08
7.06374e-08
-1.35393e-08
7.0752e-08
-1.21199e-08
7.08228e-08
-1.07988e-08
7.086e-08
-9.57433e-09
7.08721e-08
-8.44096e-09
7.08662e-08
-7.39101e-09
7.08478e-08
-6.41588e-09
7.08212e-08
-5.5062e-09
7.07892e-08
-4.65466e-09
-3.84868e-09
6.32218e-08
5.88935e-08
6.11682e-08
5.90706e-08
6.06756e-08
5.28985e-08
6.09245e-08
4.73649e-08
6.15103e-08
4.3118e-08
6.22952e-08
3.94643e-08
6.31694e-08
3.59139e-08
6.40339e-08
3.22885e-08
6.48135e-08
2.8504e-08
6.54622e-08
2.44557e-08
6.59583e-08
2.00356e-08
6.6299e-08
1.51869e-08
6.64977e-08
9.94029e-09
6.65844e-08
4.41777e-09
6.66039e-08
-1.18544e-09
6.66112e-08
-6.6328e-09
6.6664e-08
-1.16796e-08
6.6812e-08
-1.61041e-08
6.70874e-08
-1.97319e-08
6.74986e-08
-2.24531e-08
6.80288e-08
-2.42305e-08
6.86413e-08
-2.50993e-08
6.92883e-08
-2.51575e-08
6.9921e-08
-2.4547e-08
7.04984e-08
-2.34315e-08
7.09922e-08
-2.1974e-08
7.13883e-08
-2.03193e-08
7.16846e-08
-1.85837e-08
7.18884e-08
-1.68523e-08
7.20121e-08
-1.51811e-08
7.20705e-08
-1.36029e-08
7.20782e-08
-1.21328e-08
7.20488e-08
-1.07744e-08
7.19936e-08
-9.52411e-09
7.19221e-08
-8.37428e-09
7.18416e-08
-7.31523e-09
7.17577e-08
-6.33661e-09
7.16745e-08
-5.42753e-09
7.15948e-08
-4.57934e-09
-3.77557e-09
6.19829e-08
6.25739e-08
6.06573e-08
6.03942e-08
6.06977e-08
5.2855e-08
6.12078e-08
4.68511e-08
6.19862e-08
4.23352e-08
6.29586e-08
3.8487e-08
6.40212e-08
3.4846e-08
6.50747e-08
3.12295e-08
6.6048e-08
2.75249e-08
6.68968e-08
2.36008e-08
6.75958e-08
1.93304e-08
6.81335e-08
1.46429e-08
6.85139e-08
9.5535e-09
6.87583e-08
4.16692e-09
6.89061e-08
-1.33953e-09
6.90103e-08
-6.74328e-09
6.91298e-08
-1.18053e-08
6.93179e-08
-1.62982e-08
6.9611e-08
-2.00308e-08
7.00206e-08
-2.28684e-08
7.05317e-08
-2.47471e-08
7.11074e-08
-2.56804e-08
7.16987e-08
-2.57541e-08
7.22563e-08
-2.51098e-08
7.27397e-08
-2.39201e-08
7.31228e-08
-2.23624e-08
7.33954e-08
-2.05971e-08
7.35601e-08
-1.87537e-08
7.36291e-08
-1.69265e-08
7.36193e-08
-1.51765e-08
7.3549e-08
-1.35377e-08
7.34356e-08
-1.20245e-08
7.32944e-08
-1.06382e-08
7.31379e-08
-9.37247e-09
7.29757e-08
-8.21694e-09
7.28154e-08
-7.15958e-09
7.26622e-08
-6.18804e-09
7.252e-08
-5.2898e-09
7.23912e-08
-4.45483e-09
-3.663e-09
5.85782e-08
6.43777e-08
5.93066e-08
5.96622e-08
6.02458e-08
5.19116e-08
6.12569e-08
4.58353e-08
6.23954e-08
4.11917e-08
6.36342e-08
3.7243e-08
6.49174e-08
3.35572e-08
6.61841e-08
2.99569e-08
6.73815e-08
2.63214e-08
6.84665e-08
2.25095e-08
6.94051e-08
1.83855e-08
7.01744e-08
1.38672e-08
7.07673e-08
8.95411e-09
7.11969e-08
3.73085e-09
7.14971e-08
-1.64621e-09
7.17191e-08
-6.97167e-09
7.19224e-08
-1.20147e-08
7.21622e-08
-1.6544e-08
7.24774e-08
-2.0352e-08
7.28817e-08
-2.32783e-08
7.33608e-08
-2.52317e-08
7.3878e-08
-2.6203e-08
7.43848e-08
-2.62661e-08
7.4833e-08
-2.55632e-08
7.51852e-08
-2.42775e-08
7.54203e-08
-2.26027e-08
7.55337e-08
-2.07156e-08
7.55345e-08
-1.87596e-08
7.54404e-08
-1.68376e-08
7.52733e-08
-1.50145e-08
7.50551e-08
-1.33246e-08
7.48055e-08
-1.17799e-08
7.45409e-08
-1.03786e-08
7.42742e-08
-9.11069e-09
7.40151e-08
-7.96261e-09
7.37705e-08
-6.91962e-09
7.35451e-08
-5.96722e-09
7.33422e-08
-5.09128e-09
7.31634e-08
-4.28036e-09
-3.51128e-09
5.21401e-08
5.58468e-08
5.68535e-08
5.49432e-08
5.92988e-08
4.94607e-08
6.1109e-08
4.40195e-08
6.27216e-08
3.95733e-08
6.42838e-08
3.5675e-08
6.58399e-08
3.19951e-08
6.73759e-08
2.84147e-08
6.88522e-08
2.48388e-08
7.02222e-08
2.11332e-08
7.14419e-08
1.71593e-08
7.2478e-08
1.28244e-08
7.33148e-08
8.11078e-09
7.39587e-08
3.08037e-09
7.44389e-08
-2.13299e-09
7.4804e-08
-7.34318e-09
7.51118e-08
-1.23288e-08
7.54169e-08
-1.68552e-08
7.57579e-08
-2.06988e-08
7.6148e-08
-2.36741e-08
7.65731e-08
-2.56624e-08
7.69979e-08
-2.66331e-08
7.73767e-08
-2.66502e-08
7.76665e-08
-2.58582e-08
7.7837e-08
-2.4453e-08
7.7875e-08
-2.26457e-08
7.77845e-08
-2.06303e-08
7.75825e-08
-1.85627e-08
7.72933e-08
-1.65534e-08
7.69433e-08
-1.46696e-08
7.65575e-08
-1.29438e-08
7.6157e-08
-1.13845e-08
7.57586e-08
-9.98513e-09
7.53747e-08
-8.73159e-09
7.5014e-08
-7.60661e-09
7.46822e-08
-6.59252e-09
7.43832e-08
-5.6727e-09
7.4119e-08
-4.83149e-09
7.38906e-08
-4.05625e-09
-3.32165e-09
5.03631e-08
5.26278e-08
5.47334e-08
5.05653e-08
5.80867e-08
4.61006e-08
6.06737e-08
4.1426e-08
6.28495e-08
3.73911e-08
6.48544e-08
3.36637e-08
6.67975e-08
3.00456e-08
6.8696e-08
2.65097e-08
7.05207e-08
2.30076e-08
7.22255e-08
1.94217e-08
7.37635e-08
1.56146e-08
7.50973e-08
1.1484e-08
7.62068e-08
6.99455e-09
7.70941e-08
2.1864e-09
7.77842e-08
-2.82971e-09
7.83206e-08
-7.88599e-09
7.87557e-08
-1.27703e-08
7.91391e-08
-1.72448e-08
7.95046e-08
-2.10703e-08
7.98624e-08
-2.40376e-08
8.01984e-08
-2.60039e-08
8.04807e-08
-2.69208e-08
8.06712e-08
-2.68459e-08
8.07376e-08
-2.59296e-08
8.06616e-08
-2.43821e-08
8.04429e-08
-2.2432e-08
8.00969e-08
-2.02893e-08
7.96497e-08
-1.81206e-08
7.91322e-08
-1.60409e-08
7.85748e-08
-1.41172e-08
7.8004e-08
-1.23781e-08
7.74412e-08
-1.08266e-08
7.69018e-08
-9.45068e-09
7.63967e-08
-8.2313e-09
7.59327e-08
-7.1473e-09
7.55137e-08
-6.17816e-09
7.51419e-08
-5.3053e-09
7.48179e-08
-4.5119e-09
7.45418e-08
-3.78439e-09
-3.09652e-09
5.32868e-08
5.22052e-08
5.64275e-08
4.74158e-08
5.89407e-08
4.35796e-08
6.11177e-08
3.92418e-08
6.33095e-08
3.51924e-08
6.55981e-08
3.13684e-08
6.79333e-08
2.77037e-08
7.0242e-08
2.41943e-08
7.24608e-08
2.0782e-08
7.45354e-08
1.73404e-08
7.64187e-08
1.37245e-08
7.80743e-08
9.82151e-09
7.94819e-08
5.5802e-09
8.06404e-08
1.02114e-09
8.15693e-08
-3.76534e-09
8.23033e-08
-8.62663e-09
8.28846e-08
-1.3358e-08
8.33513e-08
-1.77178e-08
8.37277e-08
-2.14527e-08
8.40187e-08
-2.43345e-08
8.42112e-08
-2.6202e-08
8.42812e-08
-2.69962e-08
8.42045e-08
-2.67745e-08
8.39667e-08
-2.56968e-08
8.35686e-08
-2.39889e-08
8.30272e-08
-2.18956e-08
8.23718e-08
-1.96389e-08
8.16385e-08
-1.73922e-08
8.08636e-08
-1.5271e-08
8.00797e-08
-1.33383e-08
7.9313e-08
-1.16163e-08
7.85826e-08
-1.0101e-08
7.79012e-08
-8.77414e-09
7.72765e-08
-7.61135e-09
7.67123e-08
-6.58776e-09
7.621e-08
-5.6804e-09
7.57694e-08
-4.8692e-09
7.53898e-08
-4.13664e-09
7.50699e-08
-3.46866e-09
-2.83972e-09
5.76309e-08
5.4242e-08
5.7998e-08
4.70399e-08
5.94183e-08
4.21511e-08
6.13343e-08
3.73181e-08
6.37428e-08
3.27766e-08
6.64646e-08
2.86393e-08
6.92896e-08
2.48716e-08
7.20722e-08
2.14047e-08
7.47264e-08
1.81207e-08
7.71977e-08
1.4862e-08
7.9446e-08
1.14692e-08
8.14416e-08
7.81897e-09
8.31667e-08
3.84825e-09
8.46179e-08
-4.36932e-10
8.58058e-08
-4.96005e-09
8.67518e-08
-9.57927e-09
8.7481e-08
-1.40937e-08
8.80145e-08
-1.82577e-08
8.83633e-08
-2.18076e-08
8.85264e-08
-2.45035e-08
8.8495e-08
-2.61763e-08
8.826e-08
-2.67666e-08
8.78197e-08
-2.63395e-08
8.71862e-08
-2.50684e-08
8.6386e-08
-2.31937e-08
8.54576e-08
-2.0972e-08
8.44456e-08
-1.86317e-08
8.33947e-08
-1.63462e-08
8.23446e-08
-1.42258e-08
8.13269e-08
-1.23255e-08
8.03643e-08
-1.06586e-08
7.94713e-08
-9.21292e-09
7.86558e-08
-7.96337e-09
7.79206e-08
-6.8809e-09
7.72657e-08
-5.93749e-09
7.66891e-08
-5.1084e-09
7.61883e-08
-4.37278e-09
7.57605e-08
-3.71315e-09
7.54032e-08
-3.11549e-09
-2.55676e-09
5.94037e-08
5.43009e-08
5.80435e-08
4.83917e-08
5.89352e-08
4.12511e-08
6.11927e-08
3.50527e-08
6.42054e-08
2.97562e-08
6.75587e-08
2.52784e-08
7.09676e-08
2.14553e-08
7.42703e-08
1.80947e-08
7.73844e-08
1.49994e-08
8.02661e-08
1.19732e-08
8.2888e-08
8.84021e-09
8.523e-08
5.46985e-09
8.72783e-08
1.79301e-09
8.90247e-08
-2.19034e-09
9.04671e-08
-6.40931e-09
9.16077e-08
-1.07266e-08
9.24493e-08
-1.49419e-08
9.29919e-08
-1.88068e-08
9.32327e-08
-2.20546e-08
9.31682e-08
-2.44451e-08
9.28012e-08
-2.58151e-08
9.21468e-08
-2.61176e-08
9.12358e-08
-2.54337e-08
9.01145e-08
-2.39522e-08
8.88406e-08
-2.19247e-08
8.74755e-08
-1.96118e-08
8.60779e-08
-1.7239e-08
8.4698e-08
-1.49712e-08
8.33745e-08
-1.29072e-08
8.21339e-08
-1.10897e-08
8.09916e-08
-9.52125e-09
7.99548e-08
-8.18093e-09
7.90243e-08
-7.03764e-09
7.81972e-08
-6.05852e-09
7.74687e-08
-5.21357e-09
7.68332e-08
-4.47738e-09
7.62853e-08
-3.82927e-09
7.58205e-08
-3.25262e-09
7.54349e-08
-2.73406e-09
-2.25484e-09
5.87868e-08
6.30109e-08
5.78172e-08
4.93525e-08
5.93513e-08
3.97086e-08
6.21211e-08
3.22747e-08
6.56005e-08
2.62688e-08
6.9416e-08
2.14551e-08
7.32891e-08
1.75746e-08
7.70405e-08
1.43357e-08
8.05722e-08
1.14603e-08
8.38366e-08
8.70146e-09
8.681e-08
5.85954e-09
8.94752e-08
2.79749e-09
9.18181e-08
-5.5705e-10
9.38195e-08
-4.19878e-09