/*--------------------------------*- C++ -*----------------------------------*\
  =========                 |
  \\      /  F ield         | OpenFOAM: The Open Source CFD Toolbox
   \\    /   O peration     | Website:  https://openfoam.org
    \\  /    A nd           | Version:  7
     \\/     M anipulation  |
\*---------------------------------------------------------------------------*/
FoamFile
{
    version     2.0;
    format      ascii;
    class       volScalarField;
    location    "0.035";
    object      rho;
}
// * * * * * * * * * * * * * * * * * * * * * * * * * * * * * * * * * * * * * //

dimensions      [1 -3 0 0 0 0 0];

internalField   nonuniform List<scalar> 
1600
(
1.15639
1.15226
1.14897
1.1465
1.14476
1.1436
1.14289
1.14251
1.14235
1.14232
1.14236
1.14241
1.14247
1.14251
1.14253
1.14253
1.14251
1.14248
1.14245
1.14241
1.14237
1.14233
1.14229
1.14226
1.14223
1.1422
1.14217
1.14215
1.14213
1.14211
1.14209
1.14208
1.14206
1.14205
1.14204
1.14203
1.14202
1.14201
1.14201
1.142
1.15771
1.15508
1.15242
1.1502
1.14854
1.14741
1.14672
1.14636
1.14623
1.14623
1.14629
1.14638
1.14646
1.14652
1.14655
1.14656
1.14655
1.14653
1.14649
1.14645
1.14641
1.14636
1.14632
1.14628
1.14624
1.14621
1.14618
1.14615
1.14613
1.1461
1.14608
1.14606
1.14605
1.14603
1.14602
1.146
1.14599
1.14599
1.14598
1.14598
1.15821
1.15658
1.15466
1.15287
1.15142
1.15038
1.14975
1.14943
1.14934
1.14939
1.1495
1.14963
1.14975
1.14984
1.14989
1.14992
1.14992
1.1499
1.14987
1.14982
1.14978
1.14973
1.14968
1.14963
1.14959
1.14955
1.14951
1.14948
1.14945
1.14942
1.14939
1.14937
1.14935
1.14933
1.14931
1.1493
1.14928
1.14927
1.14927
1.14926
1.15839
1.15739
1.15608
1.15473
1.15354
1.15265
1.15208
1.15181
1.15177
1.15185
1.15201
1.15218
1.15234
1.15246
1.15254
1.15259
1.1526
1.15259
1.15256
1.15252
1.15247
1.15242
1.15237
1.15232
1.15227
1.15223
1.15218
1.15215
1.15211
1.15208
1.15205
1.15202
1.152
1.15198
1.15196
1.15194
1.15192
1.15191
1.1519
1.15189
1.15849
1.15789
1.15701
1.15602
1.15508
1.15433
1.15385
1.15363
1.15361
1.15372
1.1539
1.1541
1.15428
1.15443
1.15453
1.1546
1.15463
1.15463
1.15461
1.15458
1.15453
1.15448
1.15443
1.15438
1.15433
1.15429
1.15424
1.1542
1.15417
1.15413
1.1541
1.15408
1.15405
1.15402
1.154
1.15398
1.15397
1.15395
1.15394
1.15393
1.15855
1.15818
1.1576
1.15688
1.15617
1.15558
1.15518
1.15499
1.15499
1.1551
1.15529
1.15549
1.15568
1.15584
1.15596
1.15604
1.15608
1.15609
1.15608
1.15606
1.15602
1.15598
1.15594
1.15589
1.15585
1.15581
1.15576
1.15573
1.15569
1.15566
1.15563
1.1556
1.15558
1.15555
1.15553
1.15551
1.15549
1.15548
1.15546
1.15545
1.15858
1.15835
1.15796
1.15746
1.15694
1.15649
1.15617
1.15601
1.156
1.15611
1.15628
1.15647
1.15665
1.15681
1.15693
1.15701
1.15706
1.15708
1.15708
1.15707
1.15705
1.15702
1.15698
1.15694
1.15691
1.15687
1.15684
1.1568
1.15677
1.15674
1.15672
1.15669
1.15667
1.15665
1.15663
1.15661
1.15659
1.15658
1.15656
1.15656
1.1586
1.15845
1.1582
1.15786
1.15748
1.15714
1.1569
1.15677
1.15675
1.15684
1.15698
1.15715
1.15731
1.15745
1.15756
1.15764
1.15769
1.15772
1.15773
1.15773
1.15771
1.15769
1.15767
1.15764
1.15761
1.15759
1.15756
1.15753
1.15751
1.15748
1.15746
1.15744
1.15742
1.1574
1.15739
1.15737
1.15736
1.15734
1.15733
1.15732
1.15861
1.15852
1.15835
1.15812
1.15786
1.15761
1.15742
1.15732
1.1573
1.15737
1.15748
1.15761
1.15775
1.15787
1.15796
1.15803
1.15808
1.15811
1.15812
1.15813
1.15812
1.15811
1.1581
1.15808
1.15806
1.15804
1.15802
1.158
1.15798
1.15797
1.15795
1.15793
1.15792
1.1579
1.15789
1.15788
1.15787
1.15785
1.15784
1.15784
1.15862
1.15856
1.15845
1.1583
1.15812
1.15794
1.1578
1.15772
1.1577
1.15774
1.15783
1.15793
1.15804
1.15813
1.15821
1.15827
1.15831
1.15834
1.15836
1.15836
1.15836
1.15836
1.15835
1.15834
1.15833
1.15832
1.15831
1.15829
1.15828
1.15827
1.15826
1.15824
1.15823
1.15822
1.15821
1.1582
1.15819
1.15818
1.15818
1.15817
1.15862
1.15858
1.15851
1.15841
1.15829
1.15817
1.15807
1.158
1.15799
1.15802
1.15808
1.15815
1.15823
1.1583
1.15836
1.15841
1.15844
1.15847
1.15848
1.15849
1.1585
1.1585
1.1585
1.15849
1.15849
1.15848
1.15847
1.15846
1.15846
1.15845
1.15844
1.15843
1.15842
1.15842
1.15841
1.1584
1.15839
1.15839
1.15838
1.15838
1.15862
1.1586
1.15855
1.15849
1.15841
1.15833
1.15825
1.15821
1.15819
1.15821
1.15825
1.1583
1.15836
1.15841
1.15846
1.15849
1.15852
1.15854
1.15855
1.15856
1.15857
1.15857
1.15858
1.15858
1.15857
1.15857
1.15857
1.15856
1.15856
1.15855
1.15855
1.15854
1.15853
1.15853
1.15852
1.15852
1.15851
1.15851
1.15851
1.1585
1.15862
1.15861
1.15858
1.15854
1.15849
1.15843
1.15838
1.15835
1.15833
1.15834
1.15837
1.15841
1.15844
1.15848
1.15851
1.15854
1.15856
1.15857
1.15859
1.1586
1.15861
1.15861
1.15862
1.15862
1.15862
1.15862
1.15862
1.15861
1.15861
1.15861
1.1586
1.1586
1.1586
1.15859
1.15859
1.15859
1.15858
1.15858
1.15858
1.15857
1.15863
1.15861
1.1586
1.15857
1.15854
1.1585
1.15847
1.15844
1.15843
1.15844
1.15845
1.15847
1.1585
1.15852
1.15855
1.15856
1.15858
1.15859
1.1586
1.15861
1.15862
1.15863
1.15864
1.15864
1.15864
1.15864
1.15864
1.15864
1.15864
1.15864
1.15864
1.15863
1.15863
1.15863
1.15863
1.15862
1.15862
1.15862
1.15862
1.15862
1.15863
1.15862
1.15861
1.15859
1.15857
1.15854
1.15852
1.15851
1.1585
1.1585
1.15851
1.15852
1.15854
1.15855
1.15857
1.15858
1.15859
1.1586
1.15861
1.15862
1.15863
1.15864
1.15864
1.15865
1.15865
1.15865
1.15865
1.15865
1.15865
1.15865
1.15865
1.15865
1.15865
1.15865
1.15865
1.15864
1.15864
1.15864
1.15864
1.15864
1.15863
1.15862
1.15861
1.1586
1.15859
1.15857
1.15856
1.15855
1.15854
1.15854
1.15854
1.15855
1.15856
1.15857
1.15858
1.15859
1.1586
1.1586
1.15861
1.15862
1.15863
1.15864
1.15865
1.15865
1.15866
1.15866
1.15866
1.15866
1.15866
1.15866
1.15866
1.15866
1.15866
1.15866
1.15866
1.15865
1.15865
1.15865
1.15865
1.15865
1.15863
1.15862
1.15862
1.15861
1.1586
1.15859
1.15858
1.15857
1.15857
1.15857
1.15857
1.15857
1.15857
1.15858
1.15858
1.15859
1.1586
1.15861
1.15861
1.15862
1.15863
1.15864
1.15865
1.15865
1.15866
1.15866
1.15866
1.15866
1.15866
1.15866
1.15866
1.15866
1.15866
1.15866
1.15866
1.15866
1.15866
1.15866
1.15866
1.15865
1.15863
1.15862
1.15862
1.15862
1.15861
1.1586
1.1586
1.15859
1.15859
1.15858
1.15858
1.15858
1.15858
1.15858
1.15859
1.15859
1.1586
1.15861
1.15861
1.15862
1.15863
1.15864
1.15865
1.15865
1.15866
1.15866
1.15866
1.15867
1.15867
1.15867
1.15867
1.15867
1.15866
1.15866
1.15866
1.15866
1.15866
1.15866
1.15866
1.15866
1.15863
1.15862
1.15862
1.15862
1.15862
1.15861
1.15861
1.1586
1.1586
1.15859
1.15859
1.15859
1.15859
1.15859
1.15859
1.15859
1.1586
1.1586
1.15861
1.15862
1.15863
1.15864
1.15864
1.15865
1.15866
1.15866
1.15866
1.15867
1.15867
1.15867
1.15867
1.15867
1.15867
1.15866
1.15866
1.15866
1.15866
1.15866
1.15866
1.15866
1.15863
1.15862
1.15862
1.15862
1.15862
1.15862
1.15861
1.15861
1.1586
1.1586
1.1586
1.15859
1.15859
1.15859
1.15859
1.15859
1.1586
1.1586
1.15861
1.15862
1.15863
1.15863
1.15864
1.15865
1.15866
1.15866
1.15866
1.15867
1.15867
1.15867
1.15867
1.15867
1.15867
1.15866
1.15866
1.15866
1.15866
1.15866
1.15866
1.15866
1.15863
1.15862
1.15862
1.15862
1.15862
1.15862
1.15861
1.15861
1.15861
1.1586
1.1586
1.1586
1.15859
1.15859
1.15859
1.15859
1.1586
1.1586
1.15861
1.15862
1.15862
1.15863
1.15864
1.15865
1.15865
1.15866
1.15866
1.15866
1.15867
1.15867
1.15867
1.15867
1.15867
1.15867
1.15866
1.15866
1.15866
1.15866
1.15866
1.15866
1.15863
1.15862
1.15862
1.15862
1.15862
1.15862
1.15862
1.15861
1.15861
1.15861
1.1586
1.1586
1.15859
1.15859
1.15859
1.15859
1.15859
1.1586
1.1586
1.15861
1.15862
1.15863
1.15864
1.15865
1.15865
1.15866
1.15866
1.15866
1.15867
1.15867
1.15867
1.15867
1.15867
1.15867
1.15866
1.15866
1.15866
1.15866
1.15866
1.15866
1.15863
1.15862
1.15862
1.15862
1.15862
1.15862
1.15862
1.15861
1.15861
1.15861
1.1586
1.1586
1.15859
1.15859
1.15859
1.15859
1.15859
1.1586
1.1586
1.15861
1.15862
1.15863
1.15863
1.15864
1.15865
1.15866
1.15866
1.15866
1.15867
1.15867
1.15867
1.15867
1.15867
1.15867
1.15866
1.15866
1.15866
1.15866
1.15866
1.15866
1.15863
1.15862
1.15862
1.15862
1.15862
1.15862
1.15862
1.15862
1.15861
1.15861
1.1586
1.1586
1.15859
1.15859
1.15859
1.15859
1.15859
1.15859
1.1586
1.15861
1.15861
1.15862
1.15863
1.15864
1.15865
1.15865
1.15866
1.15866
1.15866
1.15867
1.15867
1.15867
1.15867
1.15867
1.15866
1.15866
1.15866
1.15866
1.15866
1.15866
1.15863
1.15862
1.15862
1.15862
1.15862
1.15862
1.15862
1.15862
1.15861
1.15861
1.1586
1.1586
1.15859
1.15859
1.15859
1.15859
1.15859
1.15859
1.1586
1.1586
1.15861
1.15862
1.15863
1.15864
1.15864
1.15865
1.15866
1.15866
1.15866
1.15867
1.15867
1.15867
1.15867
1.15867
1.15866
1.15866
1.15866
1.15866
1.15866
1.15866
1.15863
1.15862
1.15862
1.15862
1.15862
1.15862
1.15862
1.15862
1.15861
1.15861
1.1586
1.1586
1.1586
1.15859
1.15859
1.15859
1.15859
1.15859
1.15859
1.1586
1.15861
1.15861
1.15862
1.15863
1.15864
1.15865
1.15865
1.15866
1.15866
1.15866
1.15867
1.15867
1.15867
1.15867
1.15866
1.15866
1.15866
1.15866
1.15866
1.15866
1.15862
1.15862
1.15862
1.15862
1.15862
1.15862
1.15862
1.15862
1.15861
1.15861
1.1586
1.1586
1.1586
1.15859
1.15859
1.15859
1.15859
1.15859
1.15859
1.1586
1.1586
1.15861
1.15862
1.15863
1.15864
1.15864
1.15865
1.15866
1.15866
1.15866
1.15867
1.15867
1.15867
1.15867
1.15866
1.15866
1.15866
1.15866
1.15866
1.15866
1.15862
1.15862
1.15862
1.15862
1.15862
1.15862
1.15862
1.15862
1.15861
1.15861
1.15861
1.1586
1.1586
1.15859
1.15859
1.15859
1.15859
1.15859
1.15859
1.15859
1.1586
1.15861
1.15862
1.15862
1.15863
1.15864
1.15865
1.15866
1.15866
1.15866
1.15866
1.15867
1.15867
1.15866
1.15866
1.15866
1.15866
1.15866
1.15866
1.15866
1.15862
1.15862
1.15862
1.15862
1.15862
1.15862
1.15862
1.15862
1.15861
1.15861
1.15861
1.1586
1.1586
1.15859
1.15859
1.15859
1.15859
1.15859
1.15859
1.15859
1.1586
1.1586
1.15861
1.15862
1.15863
1.15864
1.15865
1.15865
1.15866
1.15866
1.15866
1.15866
1.15866
1.15866
1.15866
1.15866
1.15866
1.15866
1.15866
1.15866
1.15862
1.15862
1.15862
1.15862
1.15862
1.15862
1.15862
1.15862
1.15862
1.15861
1.15861
1.1586
1.1586
1.1586
1.15859
1.15859
1.15859
1.15859
1.15859
1.15859
1.1586
1.1586
1.15861
1.15862
1.15863
1.15864
1.15864
1.15865
1.15866
1.15866
1.15866
1.15866
1.15866
1.15866
1.15866
1.15866
1.15866
1.15866
1.15866
1.15866
1.15862
1.15862
1.15862
1.15862
1.15862
1.15862
1.15862
1.15862
1.15862
1.15861
1.15861
1.15861
1.1586
1.1586
1.1586
1.15859
1.15859
1.15859
1.15859
1.15859
1.1586
1.1586
1.15861
1.15862
1.15863
1.15863
1.15864
1.15865
1.15865
1.15866
1.15866
1.15866
1.15866
1.15866
1.15866
1.15866
1.15866
1.15866
1.15866
1.15866
1.15862
1.15862
1.15862
1.15862
1.15862
1.15862
1.15862
1.15862
1.15862
1.15861
1.15861
1.15861
1.15861
1.1586
1.1586
1.1586
1.15859
1.15859
1.15859
1.15859
1.1586
1.1586
1.15861
1.15862
1.15863
1.15863
1.15864
1.15865
1.15865
1.15866
1.15866
1.15866
1.15866
1.15866
1.15866
1.15866
1.15866
1.15866
1.15866
1.15866
1.15862
1.15862
1.15862
1.15862
1.15862
1.15862
1.15862
1.15862
1.15862
1.15862
1.15861
1.15861
1.15861
1.15861
1.1586
1.1586
1.1586
1.1586
1.1586
1.1586
1.1586
1.1586
1.15861
1.15862
1.15863
1.15863
1.15864
1.15865
1.15865
1.15866
1.15866
1.15866
1.15866
1.15866
1.15866
1.15866
1.15866
1.15866
1.15866
1.15866
1.15862
1.15862
1.15862
1.15862
1.15862
1.15862
1.15862
1.15862
1.15862
1.15862
1.15862
1.15861
1.15861
1.15861
1.15861
1.1586
1.1586
1.1586
1.1586
1.1586
1.1586
1.15861
1.15861
1.15862
1.15863
1.15863
1.15864
1.15865
1.15865
1.15865
1.15866
1.15866
1.15866
1.15866
1.15866
1.15866
1.15865
1.15865
1.15865
1.15865
1.15862
1.15862
1.15862
1.15862
1.15862
1.15862
1.15862
1.15862
1.15862
1.15862
1.15862
1.15862
1.15861
1.15861
1.15861
1.15861
1.15861
1.1586
1.1586
1.1586
1.15861
1.15861
1.15862
1.15862
1.15863
1.15864
1.15864
1.15865
1.15865
1.15865
1.15865
1.15865
1.15865
1.15865
1.15865
1.15865
1.15865
1.15865
1.15865
1.15865
1.15862
1.15862
1.15862
1.15862
1.15862
1.15862
1.15862
1.15862
1.15862
1.15862
1.15862
1.15862
1.15862
1.15862
1.15861
1.15861
1.15861
1.15861
1.15861
1.15861
1.15861
1.15861
1.15862
1.15862
1.15863
1.15864
1.15864
1.15864
1.15865
1.15865
1.15865
1.15865
1.15865
1.15865
1.15865
1.15865
1.15865
1.15865
1.15865
1.15865
1.15863
1.15862
1.15862
1.15862
1.15862
1.15862
1.15862
1.15862
1.15862
1.15862
1.15862
1.15862
1.15862
1.15862
1.15862
1.15861
1.15861
1.15861
1.15861
1.15861
1.15861
1.15862
1.15862
1.15863
1.15863
1.15864
1.15864
1.15864
1.15864
1.15864
1.15864
1.15864
1.15864
1.15864
1.15864
1.15864
1.15864
1.15864
1.15864
1.15864
1.15863
1.15862
1.15862
1.15862
1.15862
1.15862
1.15862
1.15862
1.15862
1.15862
1.15862
1.15862
1.15862
1.15862
1.15862
1.15862
1.15862
1.15861
1.15862
1.15862
1.15862
1.15862
1.15862
1.15863
1.15863
1.15863
1.15864
1.15864
1.15864
1.15864
1.15864
1.15864
1.15864
1.15864
1.15864
1.15864
1.15864
1.15864
1.15864
1.15864
1.15863
1.15862
1.15862
1.15862
1.15862
1.15862
1.15862
1.15862
1.15862
1.15862
1.15862
1.15862
1.15862
1.15862
1.15862
1.15862
1.15862
1.15862
1.15862
1.15862
1.15862
1.15862
1.15863
1.15863
1.15863
1.15863
1.15863
1.15863
1.15863
1.15863
1.15863
1.15863
1.15863
1.15863
1.15863
1.15863
1.15863
1.15863
1.15863
1.15863
1.15863
1.15863
1.15862
1.15862
1.15862
1.15862
1.15862
1.15862
1.15862
1.15862
1.15862
1.15862
1.15862
1.15862
1.15862
1.15862
1.15862
1.15862
1.15862
1.15862
1.15862
1.15862
1.15863
1.15863
1.15863
1.15863
1.15863
1.15863
1.15863
1.15863
1.15863
1.15863
1.15863
1.15863
1.15863
1.15863
1.15863
1.15863
1.15863
1.15863
)
;

boundaryField
{
    upperWall
    {
        type            calculated;
        value           nonuniform List<scalar> 
40
(
1.15862
1.15862
1.15862
1.15862
1.15862
1.15862
1.15862
1.15862
1.15862
1.15862
1.15862
1.15862
1.15862
1.15862
1.15862
1.15862
1.15862
1.15862
1.15862
1.15862
1.15862
1.15862
1.15862
1.15862
1.15862
1.15862
1.15862
1.15862
1.15862
1.15862
1.15862
1.15862
1.15862
1.15862
1.15862
1.15862
1.15862
1.15862
1.15862
1.15862
)
;
    }
    lowerWall
    {
        type            calculated;
        value           nonuniform List<scalar> 
40
(
1.15399
1.14988
1.1466
1.14415
1.14241
1.14125
1.14055
1.14017
1.14001
1.13998
1.14001
1.14007
1.14013
1.14017
1.14018
1.14018
1.14017
1.14014
1.14011
1.14007
1.14003
1.13999
1.13995
1.13992
1.13989
1.13986
1.13983
1.13981
1.13979
1.13977
1.13975
1.13973
1.13972
1.13971
1.1397
1.13968
1.13968
1.13967
1.13967
1.13966
)
;
    }
    inlet
    {
        type            calculated;
        value           nonuniform List<scalar> 
40
(
1.15863
1.15863
1.15863
1.15863
1.15863
1.15863
1.15863
1.15863
1.15863
1.15863
1.15863
1.15863
1.15863
1.15863
1.15863
1.15862
1.15862
1.15863
1.15863
1.15863
1.15863
1.15862
1.15862
1.15862
1.15862
1.15862
1.15862
1.15862
1.15862
1.15862
1.15862
1.15862
1.15862
1.15862
1.15862
1.15862
1.15862
1.15862
1.15862
1.15862
)
;
    }
    outlet
    {
        type            calculated;
        value           nonuniform List<scalar> 
40
(
1.142
1.14598
1.14926
1.15189
1.15393
1.15545
1.15655
1.15732
1.15784
1.15817
1.15838
1.1585
1.15857
1.15861
1.15864
1.15865
1.15865
1.15866
1.15866
1.15866
1.15866
1.15866
1.15866
1.15866
1.15866
1.15866
1.15866
1.15866
1.15866
1.15866
1.15866
1.15866
1.15865
1.15865
1.15865
1.15865
1.15864
1.15864
1.15863
1.15863
)
;
    }
    frontAndBack
    {
        type            empty;
    }
}


// ************************************************************************* //
