/*--------------------------------*- C++ -*----------------------------------*\
  =========                 |
  \\      /  F ield         | OpenFOAM: The Open Source CFD Toolbox
   \\    /   O peration     | Website:  https://openfoam.org
    \\  /    A nd           | Version:  7
     \\/     M anipulation  |
\*---------------------------------------------------------------------------*/
FoamFile
{
    version     2.0;
    format      ascii;
    class       volVectorField;
    location    "1.1275";
    object      U;
}
// * * * * * * * * * * * * * * * * * * * * * * * * * * * * * * * * * * * * * //

dimensions      [0 1 -1 0 0 0 0];

internalField   nonuniform List<vector> 
7920
(
(2.92764 0.101113 -32.3695)
(2.10024 -0.463163 -32.4253)
(1.38682 -0.617979 -32.4326)
(1.27769 -0.674266 -32.449)
(1.0429 -0.690852 -32.4306)
(1.06809 -0.695422 -32.4258)
(0.926915 -0.699141 -32.4082)
(0.971612 -0.699173 -32.412)
(0.866186 -0.701659 -32.4089)
(0.910583 -0.701463 -32.4182)
(0.826675 -0.703047 -32.4168)
(0.866822 -0.70251 -32.4218)
(0.798307 -0.703432 -32.4204)
(0.833525 -0.702859 -32.4242)
(0.776896 -0.70324 -32.4263)
(0.807134 -0.703355 -32.427)
(0.75932 -0.699469 -32.4331)
(0.779472 -0.705839 -32.4238)
(0.745479 -0.647469 -32.4423)
(0.571716 -0.66016 -32.4047)
(4.40934 0.967392 -32.4305)
(4.3281 0.872818 -32.4788)
(3.6721 0.818484 -32.4894)
(3.52107 0.751439 -32.5098)
(3.11816 0.723732 -32.5049)
(3.10996 0.710169 -32.502)
(2.8449 0.703449 -32.4875)
(2.88473 0.699871 -32.4839)
(2.68675 0.697656 -32.4784)
(2.73702 0.695954 -32.4815)
(2.57953 0.694867 -32.4805)
(2.62905 0.693672 -32.4828)
(2.50025 0.692927 -32.4826)
(2.54599 0.691968 -32.4841)
(2.43878 0.691342 -32.4875)
(2.4813 0.691375 -32.487)
(2.386 0.688394 -32.4959)
(2.44368 0.692944 -32.4861)
(2.32352 0.683702 -32.5093)
(2.59456 0.675544 -32.4589)
(4.75015 0.19285 -32.4382)
(5.25344 -0.229574 -32.4793)
(5.10544 -0.375978 -32.4791)
(5.21387 -0.494832 -32.5006)
(4.96563 -0.559863 -32.5013)
(5.01184 -0.596506 -32.5101)
(4.79324 -0.620808 -32.5005)
(4.83186 -0.634587 -32.4997)
(4.65111 -0.645099 -32.4885)
(4.68767 -0.65182 -32.4867)
(4.53851 -0.657348 -32.4781)
(4.57253 -0.661402 -32.4763)
(4.44842 -0.6646 -32.4709)
(4.47895 -0.667339 -32.4702)
(4.37589 -0.669518 -32.4706)
(4.39961 -0.67065 -32.4704)
(4.32088 -0.673675 -32.4777)
(4.31756 -0.670177 -32.4734)
(4.28849 -0.670551 -32.4913)
(4.18665 -0.692834 -32.4602)
(4.75119 0.649319 -32.4489)
(5.27984 0.749791 -32.4873)
(5.37752 0.797176 -32.486)
(5.67973 0.767528 -32.504)
(5.61761 0.749504 -32.5074)
(5.78587 0.73489 -32.5183)
(5.6882 0.724303 -32.5146)
(5.79673 0.716176 -32.5162)
(5.69784 0.710056 -32.5086)
(5.77497 0.704556 -32.5058)
(5.68382 0.700698 -32.4966)
(5.74193 0.696634 -32.49)
(5.6601 0.69415 -32.4806)
(5.70672 0.690776 -32.4739)
(5.63239 0.689931 -32.4696)
(5.67556 0.68599 -32.4664)
(5.60068 0.689177 -32.4686)
(5.65932 0.681425 -32.467)
(5.56477 0.697038 -32.476)
(5.70533 0.705939 -32.453)
(4.74328 -0.0883464 -32.448)
(5.24344 -0.387535 -32.4865)
(5.39839 -0.480429 -32.4819)
(5.75652 -0.546467 -32.5004)
(5.76437 -0.582324 -32.5015)
(5.99345 -0.602257 -32.5141)
(5.96289 -0.616393 -32.5098)
(6.12449 -0.624311 -32.5139)
(6.08506 -0.631155 -32.5066)
(6.20606 -0.635582 -32.5066)
(6.16563 -0.639861 -32.4971)
(6.2588 -0.642953 -32.4917)
(6.21969 -0.646147 -32.4791)
(6.29269 -0.648084 -32.4711)
(6.25667 -0.651784 -32.4612)
(6.31349 -0.65047 -32.4567)
(6.28511 -0.659638 -32.4535)
(6.32037 -0.648903 -32.4527)
(6.3114 -0.672226 -32.4557)
(6.30922 -0.695329 -32.4339)
(4.73076 0.352148 -32.4516)
(5.1867 0.557431 -32.4908)
(5.35168 0.636042 -32.4861)
(5.72527 0.656316 -32.5048)
(5.75703 0.666477 -32.5055)
(6.01002 0.669605 -32.5182)
(6.00645 0.671545 -32.5137)
(6.19284 0.671534 -32.5181)
(6.18098 0.671773 -32.5111)
(6.32573 0.67107 -32.512)
(6.31159 0.671011 -32.5031)
(6.42633 0.670211 -32.4986)
(6.41093 0.670308 -32.4855)
(6.50315 0.669146 -32.4769)
(6.48702 0.670584 -32.4651)
(6.56277 0.667085 -32.4594)
(6.5467 0.674541 -32.4542)
(6.61088 0.663504 -32.4522)
(6.59767 0.687466 -32.4537)
(6.66191 0.709478 -32.4289)
(4.73076 -0.352148 -32.4516)
(5.1867 -0.557431 -32.4908)
(5.35168 -0.636042 -32.4861)
(5.72527 -0.656315 -32.5048)
(5.75703 -0.666477 -32.5055)
(6.01002 -0.669603 -32.5182)
(6.00645 -0.671544 -32.5137)
(6.19284 -0.671529 -32.5182)
(6.18098 -0.671769 -32.5111)
(6.32572 -0.67106 -32.512)
(6.3116 -0.670996 -32.5031)
(6.42632 -0.670185 -32.4986)
(6.41097 -0.670266 -32.4855)
(6.50312 -0.669054 -32.4769)
(6.48713 -0.670508 -32.4651)
(6.5627 -0.666742 -32.4595)
(6.54695 -0.674434 -32.4541)
(6.61075 -0.662494 -32.4523)
(6.59803 -0.686981 -32.4536)
(6.66183 -0.707669 -32.4289)
(4.74328 0.0883463 -32.4479)
(5.24344 0.387535 -32.4865)
(5.39839 0.480429 -32.4819)
(5.75652 0.546467 -32.5004)
(5.76436 0.582324 -32.5015)
(5.99345 0.602259 -32.5141)
(5.96289 0.616394 -32.5098)
(6.1245 0.624314 -32.5139)
(6.08505 0.63116 -32.5066)
(6.20608 0.635589 -32.5066)
(6.16561 0.639878 -32.4971)
(6.25885 0.642971 -32.4919)
(6.21965 0.646193 -32.479)
(6.29282 0.648157 -32.4713)
(6.25661 0.651869 -32.4609)
(6.31379 0.650776 -32.4571)
(6.28515 0.659751 -32.4531)
(6.32104 0.649886 -32.4532)
(6.312 0.672636 -32.4552)
(6.31083 0.697296 -32.4344)
(4.75119 -0.649319 -32.4489)
(5.27984 -0.749791 -32.4873)
(5.37752 -0.797176 -32.4859)
(5.67973 -0.767528 -32.504)
(5.61761 -0.749505 -32.5073)
(5.78588 -0.734888 -32.5184)
(5.6882 -0.724303 -32.5146)
(5.79674 -0.716171 -32.5163)
(5.69784 -0.710054 -32.5085)
(5.77499 -0.704545 -32.5059)
(5.68383 -0.700689 -32.4964)
(5.74198 -0.696606 -32.4902)
(5.66013 -0.694125 -32.4802)
(5.70684 -0.690684 -32.4745)
(5.63251 -0.689892 -32.4687)
(5.67583 -0.685676 -32.4676)
(5.60118 -0.689156 -32.467)
(5.65984 -0.680549 -32.4693)
(5.56624 -0.696765 -32.4729)
(5.70667 -0.704441 -32.4568)
(4.75015 -0.19285 -32.4382)
(5.25344 0.229574 -32.4793)
(5.10544 0.375978 -32.479)
(5.21387 0.494832 -32.5006)
(4.96563 0.559863 -32.5012)
(5.01184 0.596506 -32.5102)
(4.79323 0.62081 -32.5004)
(4.83188 0.634588 -32.4998)
(4.65111 0.645105 -32.4884)
(4.68771 0.651821 -32.4869)
(4.53849 0.657364 -32.4778)
(4.57264 0.661404 -32.4767)
(4.44839 0.664639 -32.4703)
(4.47923 0.667359 -32.4712)
(4.37588 0.669591 -32.469)
(4.4003 0.670789 -32.4728)
(4.32116 0.673766 -32.4739)
(4.31914 0.670742 -32.4793)
(4.28999 0.670776 -32.4824)
(4.19117 0.693873 -32.4734)
(4.40934 -0.967392 -32.4305)
(4.3281 -0.872818 -32.4788)
(3.6721 -0.818484 -32.4894)
(3.52107 -0.751439 -32.5098)
(3.11816 -0.723732 -32.5049)
(3.10997 -0.710167 -32.5021)
(2.8449 -0.703449 -32.4875)
(2.88474 -0.699868 -32.484)
(2.68675 -0.697657 -32.4783)
(2.73704 -0.695947 -32.4817)
(2.57954 -0.694867 -32.4803)
(2.62912 -0.693653 -32.4832)
(2.50029 -0.692926 -32.4819)
(2.54619 -0.691909 -32.4851)
(2.43894 -0.691351 -32.4858)
(2.48172 -0.691178 -32.4899)
(2.38672 -0.688485 -32.4911)
(2.44432 -0.692431 -32.4943)
(2.32594 -0.683957 -32.4946)
(2.59511 -0.675584 -32.4856)
(2.92764 -0.101113 -32.3695)
(2.10024 0.463163 -32.4253)
(1.38682 0.617979 -32.4326)
(1.27769 0.674265 -32.4491)
(1.0429 0.690852 -32.4306)
(1.06809 0.695421 -32.4258)
(0.926916 0.699142 -32.4082)
(0.971617 0.699171 -32.412)
(0.866187 0.701662 -32.4088)
(0.910597 0.701458 -32.4184)
(0.826678 0.703054 -32.4165)
(0.866863 0.702495 -32.4222)
(0.798311 0.703447 -32.4198)
(0.833641 0.702818 -32.4251)
(0.776932 0.703278 -32.4248)
(0.807403 0.703244 -32.4295)
(0.759579 0.699596 -32.4288)
(0.78001 0.705642 -32.4313)
(0.746623 0.64805 -32.4291)
(0.573857 0.660805 -32.4287)
(4.32378 0.565763 0.00677785)
(3.07515 0.847738 0.00431158)
(2.30883 0.869797 0.00558855)
(1.73871 0.853362 0.00411393)
(1.5989 0.856078 0.00525874)
(1.39314 0.86772 0.00408742)
(1.38598 0.877225 0.00504001)
(1.26305 0.885018 0.00406084)
(1.26973 0.889087 0.00484422)
(1.18215 0.892782 0.00401979)
(1.18927 0.894508 0.00466147)
(1.12469 0.896546 0.00396806)
(1.1302 0.897259 0.00449571)
(1.08081 0.898719 0.00391642)
(1.08505 0.898602 0.00435041)
(1.04379 0.901011 0.00386524)
(1.04973 0.893713 0.00422295)
(1.02432 0.915036 0.00381057)
(0.982022 0.791002 0.00413832)
(1.4195 0.819242 0.00370435)
(4.75723 -0.100143 0.00420097)
(4.60677 -0.27742 0.00216887)
(4.51786 -0.477975 0.00347418)
(4.13173 -0.644562 0.00203364)
(3.9861 -0.741283 0.00318896)
(3.70353 -0.796566 0.00202659)
(3.62594 -0.823814 0.00298521)
(3.43425 -0.840637 0.00200737)
(3.39085 -0.850698 0.00279126)
(3.25401 -0.858435 0.00196729)
(3.22536 -0.863757 0.00261073)
(3.1232 -0.868228 0.00191956)
(3.10106 -0.871163 0.00244847)
(3.02106 -0.874397 0.00187017)
(3.00378 -0.875158 0.00230377)
(2.93444 -0.879616 0.0018206)
(2.93105 -0.876383 0.00217249)
(2.84193 -0.883883 0.00177058)
(2.91532 -0.886548 0.00202759)
(2.50151 -0.895917 0.00165218)
(4.63599 0.435159 0.00549952)
(4.82163 0.871657 0.00354424)
(5.13461 0.970196 0.0047315)
(5.07118 0.961157 0.00325066)
(5.12932 0.942752 0.00438016)
(4.98897 0.929215 0.00320559)
(4.99072 0.919448 0.00415951)
(4.8667 0.91345 0.0031781)
(4.85687 0.906973 0.0039601)
(4.75574 0.903472 0.00313294)
(4.74109 0.89897 0.0037741)
(4.65905 0.896877 0.00308049)
(4.64187 0.893862 0.00360767)
(4.57554 0.892431 0.003028)
(4.55548 0.890881 0.00346103)
(4.50576 0.888864 0.00297629)
(4.47278 0.887891 0.00333407)
(4.46368 0.887215 0.00292284)
(4.3792 0.849917 0.00324948)
(4.49485 0.888056 0.00284116)
(4.57413 -0.201817 0.00432066)
(4.69494 -0.398484 0.00258474)
(5.12318 -0.519391 0.00377604)
(5.22018 -0.624444 0.00232353)
(5.43443 -0.692418 0.00345434)
(5.43141 -0.739571 0.0022844)
(5.53898 -0.766023 0.00324221)
(5.50856 -0.785169 0.00226476)
(5.56845 -0.797599 0.00305059)
(5.53261 -0.808066 0.00222638)
(5.56627 -0.81587 0.00286981)
(5.5312 -0.822686 0.00217818)
(5.54927 -0.828085 0.00270639)
(5.51675 -0.832787 0.00212814)
(5.52608 -0.836915 0.00256047)
(5.49438 -0.839639 0.00207763)
(5.50292 -0.846817 0.00242777)
(5.45531 -0.841737 0.00202611)
(5.49035 -0.876572 0.00228109)
(5.293 -0.899213 0.00193407)
(4.58726 0.341434 0.00497408)
(4.69101 0.68867 0.00327786)
(5.09925 0.803901 0.00442213)
(5.21707 0.845676 0.00295576)
(5.47165 0.862652 0.00407372)
(5.51787 0.872153 0.00289693)
(5.67663 0.875555 0.00385144)
(5.6991 0.877856 0.00287175)
(5.80806 0.877009 0.00365673)
(5.82066 0.877153 0.00283136)
(5.89703 0.875531 0.0034744)
(5.9035 0.875215 0.00278173)
(5.95712 0.873862 0.00330957)
(5.96032 0.873155 0.0027304)
(5.99701 0.873063 0.00316258)
(6.00127 0.870176 0.00267815)
(6.01939 0.874663 0.00303245)
(6.03368 0.865899 0.00262374)
(6.02815 0.871137 0.00293074)
(6.02627 0.915916 0.00255727)
(4.5812 -0.269144 0.00460315)
(4.66276 -0.539642 0.00297127)
(5.06582 -0.65433 0.00411463)
(5.18503 -0.725412 0.00265518)
(5.45127 -0.765931 0.00377134)
(5.51281 -0.793467 0.00259457)
(5.68973 -0.80784 0.0035491)
(5.73168 -0.81837 0.00256977)
(5.86081 -0.823982 0.00335527)
(5.89426 -0.829289 0.00253049)
(5.99111 -0.832463 0.00317409)
(6.01783 -0.835852 0.00248215)
(6.09112 -0.838222 0.00301049)
(6.11219 -0.840248 0.00243197)
(6.16841 -0.843157 0.00286399)
(6.18449 -0.842153 0.00238036)
(6.22843 -0.851138 0.00273137)
(6.232 -0.840547 0.0023264)
(6.2776 -0.871537 0.00260396)
(6.19088 -0.906561 0.00225482)
(4.5812 0.269144 0.00460315)
(4.66276 0.539642 0.00297127)
(5.06582 0.65433 0.00411463)
(5.18503 0.725412 0.00265518)
(5.45126 0.765931 0.00377134)
(5.51281 0.793469 0.00259457)
(5.68972 0.80784 0.0035491)
(5.73169 0.818375 0.00256976)
(5.8608 0.823987 0.00335527)
(5.89427 0.829301 0.00253048)
(5.99109 0.832478 0.00317411)
(6.01786 0.835887 0.00248211)
(6.09108 0.838256 0.00301053)
(6.11226 0.840364 0.00243187)
(6.16833 0.843246 0.00286409)
(6.18469 0.84249 0.0023801)
(6.22829 0.85144 0.0027317)
(6.23266 0.841378 0.0023258)
(6.27786 0.872575 0.00260516)
(6.19194 0.908547 0.00225396)
(4.58726 -0.341435 0.00497407)
(4.69101 -0.68867 0.00327786)
(5.09925 -0.803901 0.00442213)
(5.21707 -0.845675 0.00295576)
(5.47165 -0.862652 0.00407371)
(5.51787 -0.872151 0.00289694)
(5.67663 -0.875555 0.00385143)
(5.6991 -0.87785 0.00287176)
(5.80806 -0.877007 0.00365672)
(5.82067 -0.877139 0.00283138)
(5.89704 -0.875521 0.00347437)
(5.90351 -0.875175 0.00278177)
(5.95716 -0.873838 0.00330951)
(5.96033 -0.873028 0.00273051)
(5.99716 -0.873007 0.00316242)
(6.00125 -0.869828 0.00267844)
(6.01982 -0.874467 0.00303202)
(6.03352 -0.865182 0.00262426)
(6.02895 -0.870363 0.00292954)
(6.02641 -0.914126 0.00255762)
(4.57413 0.201817 0.00432066)
(4.69494 0.398484 0.00258474)
(5.12318 0.519391 0.00377604)
(5.22018 0.624444 0.00232353)
(5.43443 0.692418 0.00345434)
(5.43142 0.739572 0.0022844)
(5.53898 0.766024 0.0032422)
(5.50857 0.785172 0.00226476)
(5.56844 0.797604 0.00305059)
(5.53265 0.808072 0.00222638)
(5.56625 0.815886 0.00286982)
(5.53128 0.822708 0.00217816)
(5.54924 0.828124 0.00270641)
(5.51695 0.832866 0.0021281)
(5.52608 0.837014 0.0025605)
(5.49488 0.839885 0.00207751)
(5.5031 0.847145 0.00242794)
(5.45667 0.842441 0.00202574)
(5.49148 0.877683 0.00228218)
(5.29646 0.900905 0.0019332)
(4.63599 -0.435159 0.00549952)
(4.82163 -0.871657 0.00354425)
(5.13461 -0.970197 0.00473149)
(5.07119 -0.961157 0.00325067)
(5.12931 -0.942752 0.00438015)
(4.98898 -0.929213 0.0032056)
(4.99071 -0.919448 0.0041595)
(4.86671 -0.913446 0.00317811)
(4.85687 -0.906972 0.00396008)
(4.75577 -0.903459 0.00313297)
(4.74109 -0.898967 0.00377405)
(4.65913 -0.896841 0.00308056)
(4.6419 -0.893859 0.00360756)
(4.57573 -0.892322 0.00302818)
(4.55566 -0.890886 0.00346074)
(4.50616 -0.888581 0.00297673)
(4.47343 -0.887885 0.00333333)
(4.46457 -0.886753 0.00292369)
(4.38086 -0.84968 0.00324774)
(4.4973 -0.887393 0.0028417)
(4.75723 0.100143 0.00420097)
(4.60677 0.27742 0.00216887)
(4.51786 0.477975 0.00347418)
(4.13173 0.644562 0.00203364)
(3.98609 0.741283 0.00318896)
(3.70353 0.796565 0.0020266)
(3.62593 0.823816 0.0029852)
(3.43426 0.840636 0.00200738)
(3.39084 0.850704 0.00279125)
(3.25405 0.858433 0.0019673)
(3.22536 0.863771 0.00261072)
(3.12331 0.868224 0.00191957)
(3.10106 0.871196 0.00244844)
(3.02135 0.874392 0.00187021)
(3.00386 0.875243 0.00230368)
(2.93519 0.879621 0.00182068)
(2.93139 0.876657 0.00217231)
(2.84419 0.884039 0.0017707)
(2.91602 0.887509 0.00202777)
(2.50988 0.897228 0.00165228)
(4.32378 -0.565763 0.00677785)
(3.07515 -0.847738 0.00431158)
(2.30883 -0.869797 0.00558855)
(1.73871 -0.853361 0.00411393)
(1.5989 -0.856079 0.00525873)
(1.39314 -0.867719 0.00408742)
(1.38598 -0.877226 0.00504)
(1.26306 -0.885015 0.00406086)
(1.26974 -0.88909 0.00484419)
(1.18217 -0.892775 0.00401983)
(1.18929 -0.894516 0.0046614)
(1.12474 -0.896526 0.00396816)
(1.13025 -0.897279 0.00449556)
(1.08093 -0.89866 0.00391667)
(1.08524 -0.898667 0.00434997)
(1.04404 -0.900857 0.00386595)
(1.05031 -0.893937 0.00422173)
(1.02495 -0.914821 0.00381235)
(0.983406 -0.792163 0.00413468)
(1.42066 -0.82052 0.00370938)
(4.37689 0.0971354 0.00129748)
(3.96169 0.149028 0.00184078)
(3.42308 0.163065 0.000887225)
(2.94101 0.15681 0.00143138)
(2.52441 0.14515 0.000908304)
(2.21591 0.136479 0.00132456)
(1.988 0.131503 0.000979457)
(1.83201 0.131114 0.00124267)
(1.72699 0.133448 0.00101189)
(1.65027 0.137846 0.00116773)
(1.60147 0.142834 0.00102366)
(1.55651 0.148192 0.00110652)
(1.5306 0.152789 0.00103134)
(1.49924 0.157619 0.00106567)
(1.48227 0.16034 0.00104469)
(1.46063 0.165675 0.00104194)
(1.44059 0.164093 0.00106717)
(1.44013 0.174235 0.00102864)
(1.39283 0.160157 0.00108275)
(1.45857 0.165691 0.00109812)
(4.53958 0.0878715 0.00308936)
(4.67239 0.119567 0.00381256)
(4.71157 0.121163 0.00285368)
(4.69584 0.0949194 0.00337397)
(4.61424 0.0565725 0.0028272)
(4.51318 0.0138039 0.00323042)
(4.40039 -0.0244196 0.00287644)
(4.28944 -0.0572189 0.00313462)
(4.18848 -0.0820995 0.0028983)
(4.09133 -0.101881 0.00305171)
(4.00982 -0.116228 0.00290647)
(3.92877 -0.127838 0.00298972)
(3.86423 -0.136354 0.00291473)
(3.79705 -0.14353 0.00294916)
(3.74601 -0.14903 0.00292907)
(3.69077 -0.153417 0.00292589)
(3.64928 -0.157887 0.00295578)
(3.60665 -0.160081 0.00291192)
(3.56757 -0.165056 0.00300969)
(3.54216 -0.173475 0.00301377)
(4.51492 0.0457606 0.00165454)
(4.6504 0.110495 0.00226132)
(4.77973 0.163163 0.00133288)
(4.92476 0.19186 0.00185569)
(5.02924 0.202246 0.00131507)
(5.10918 0.203027 0.00172599)
(5.15556 0.199642 0.00138195)
(5.17952 0.196461 0.00164684)
(5.18868 0.194493 0.00141671)
(5.18358 0.194002 0.00157228)
(5.1756 0.194379 0.00142926)
(5.15851 0.195258 0.00151248)
(5.14328 0.195906 0.00143811)
(5.12308 0.197099 0.00147225)
(5.10378 0.196474 0.00145109)
(5.08628 0.199242 0.00144944)
(5.06134 0.194049 0.00147154)
(5.05342 0.203576 0.00144358)
(5.01662 0.184587 0.00147082)
(5.02479 0.20561 0.00150563)
(4.51097 0.0442075 0.00267289)
(4.61592 0.0509442 0.00339017)
(4.73723 0.046805 0.0024874)
(4.89353 0.0293545 0.00301623)
(5.03053 0.00710693 0.00246133)
(5.15921 -0.0181924 0.00286022)
(5.26244 -0.0421515 0.00250502)
(5.34746 -0.0638001 0.0027649)
(5.4173 -0.0814555 0.00253045)
(5.47197 -0.0960391 0.00268452)
(5.52094 -0.107528 0.00253916)
(5.55837 -0.11682 0.00262139)
(5.59503 -0.124613 0.00254531)
(5.62275 -0.130456 0.00257862)
(5.65163 -0.136685 0.00255666)
(5.67292 -0.139428 0.00255388)
(5.69733 -0.146434 0.00257952)
(5.71125 -0.145347 0.00254732)
(5.73651 -0.154698 0.00263587)
(5.73292 -0.155111 0.00264084)
(4.51208 0.0165875 0.00197239)
(4.6171 0.055686 0.00264373)
(4.73141 0.0915638 0.00175004)
(4.88163 0.117369 0.00226941)
(5.0164 0.133772 0.00171225)
(5.14892 0.14487 0.00211147)
(5.26087 0.152594 0.00175929)
(5.35911 0.159237 0.00202158)
(5.44512 0.165039 0.00179001)
(5.51849 0.170534 0.00194557)
(5.58792 0.175323 0.00180227)
(5.64701 0.179698 0.00188549)
(5.70679 0.183036 0.00181083)
(5.75734 0.186456 0.00184468)
(5.81149 0.187822 0.00182297)
(5.85449 0.191781 0.00182105)
(5.90795 0.18899 0.00184205)
(5.93685 0.198151 0.00181805)
(6.00335 0.184611 0.00185422)
(5.99711 0.208297 0.00188732)
(4.51082 0.0119415 0.00230537)
(4.60924 -0.00398299 0.0030061)
(4.72213 -0.0233992 0.00212046)
(4.87061 -0.0448942 0.00264603)
(5.00451 -0.0640427 0.00208747)
(5.13691 -0.0819081 0.00248491)
(5.24999 -0.0974459 0.0021301)
(5.35052 -0.111205 0.00239125)
(5.44015 -0.122666 0.0021585)
(5.51795 -0.132368 0.00231369)
(5.59322 -0.140324 0.00216984)
(5.65819 -0.146828 0.00225289)
(5.72596 -0.152337 0.00217796)
(5.78294 -0.15654 0.00221158)
(5.84773 -0.160545 0.00218996)
(5.89594 -0.163135 0.00218749)
(5.96445 -0.165979 0.00221066)
(5.99388 -0.168604 0.00218472)
(6.08333 -0.167853 0.00224959)
(6.06843 -0.177937 0.00226491)
(4.51082 -0.0119417 0.00230537)
(4.60924 0.00398348 0.0030061)
(4.72213 0.0233987 0.00212046)
(4.87061 0.0448954 0.00264603)
(5.00451 0.0640422 0.00208747)
(5.13691 0.0819107 0.00248492)
(5.24999 0.097446 0.0021301)
(5.35052 0.111211 0.00239125)
(5.44015 0.122669 0.0021585)
(5.51795 0.132383 0.00231371)
(5.59321 0.140336 0.00216982)
(5.6582 0.146869 0.00225292)
(5.72595 0.152362 0.00217791)
(5.78295 0.156666 0.00221167)
(5.84773 0.1606 0.00218983)
(5.89597 0.163483 0.00218771)
(5.96447 0.166151 0.00221023)
(5.99395 0.169406 0.00218508)
(6.08346 0.168584 0.00224762)
(6.06867 0.179475 0.00226552)
(4.51208 -0.0165877 0.00197239)
(4.6171 -0.0556855 0.00264373)
(4.73141 -0.0915643 0.00175004)
(4.88163 -0.117368 0.00226941)
(5.0164 -0.133773 0.00171225)
(5.14892 -0.144867 0.00211146)
(5.26087 -0.152594 0.0017593)
(5.35911 -0.159231 0.00202157)
(5.44512 -0.165036 0.00179002)
(5.5185 -0.170519 0.00194556)
(5.58793 -0.175314 0.00180229)
(5.64701 -0.179656 0.00188546)
(5.70682 -0.183013 0.00181087)
(5.75734 -0.18633 0.00184459)
(5.81157 -0.187772 0.00182308)
(5.85449 -0.191438 0.00182083)
(5.90816 -0.188832 0.00184242)
(5.93691 -0.197373 0.00181765)
(6.0038 -0.183936 0.00185588)
(5.99743 -0.206877 0.00188672)
(4.51097 -0.0442077 0.00267289)
(4.61592 -0.0509438 0.00339017)
(4.73723 -0.0468055 0.0024874)
(4.89353 -0.0293535 0.00301623)
(5.03052 -0.00710735 0.00246133)
(5.15921 0.0181947 0.00286023)
(5.26244 0.0421516 0.00250501)
(5.34746 0.0638053 0.00276491)
(5.41729 0.0814587 0.00253043)
(5.47199 0.0960518 0.00268454)
(5.52093 0.107539 0.00253913)
(5.55841 0.116856 0.00262143)
(5.59504 0.124638 0.00254525)
(5.62283 0.130568 0.0025787)
(5.6517 0.136736 0.0025565)
(5.67308 0.139744 0.00255407)
(5.69762 0.146583 0.00257905)
(5.71166 0.146091 0.00254764)
(5.73745 0.155342 0.00263396)
(5.73412 0.156559 0.00264112)
(4.51491 -0.0457607 0.00165454)
(4.6504 -0.110494 0.00226132)
(4.77973 -0.163163 0.00133288)
(4.92477 -0.191859 0.00185569)
(5.02924 -0.202246 0.00131507)
(5.10919 -0.203024 0.00172599)
(5.15555 -0.199642 0.00138195)
(5.17954 -0.196455 0.00164685)
(5.18866 -0.194492 0.00141671)
(5.18362 -0.193988 0.00157229)
(5.17558 -0.194373 0.00142925)
(5.1586 -0.195221 0.00151248)
(5.14327 -0.195892 0.00143811)
(5.12328 -0.196992 0.00147224)
(5.10386 -0.19645 0.00145112)
(5.08669 -0.198957 0.00144934)
(5.06179 -0.193968 0.0014717)
(5.0543 -0.20296 0.00144336)
(5.01808 -0.184159 0.00147166)
(5.02696 -0.204681 0.00150544)
(4.53958 -0.0878716 0.00308936)
(4.67239 -0.119567 0.00381256)
(4.71157 -0.121163 0.00285368)
(4.69584 -0.0949191 0.00337398)
(4.61423 -0.0565724 0.00282719)
(4.51319 -0.0138032 0.00323044)
(4.40038 0.0244206 0.00287642)
(4.28946 0.0572208 0.00313465)
(4.18847 0.0821034 0.00289826)
(4.0914 0.101886 0.00305177)
(4.00979 0.116238 0.00290638)
(3.92894 0.127854 0.00298986)
(3.86419 0.136374 0.00291453)
(3.79743 0.143583 0.00294946)
(3.74602 0.149066 0.0029286)
(3.69162 0.153574 0.00292657)
(3.64961 0.157976 0.00295462)
(3.60857 0.160457 0.0029134)
(3.56878 0.165442 0.00300647)
(3.5469 0.174191 0.00301678)
(4.37689 -0.0971355 0.00129748)
(3.96169 -0.149028 0.00184078)
(3.42308 -0.163065 0.000887225)
(2.94101 -0.15681 0.00143138)
(2.52441 -0.14515 0.000908304)
(2.21591 -0.136479 0.00132456)
(1.988 -0.131503 0.000979454)
(1.83203 -0.131113 0.00124268)
(1.72699 -0.133448 0.00101188)
(1.65031 -0.137843 0.00116774)
(1.60148 -0.142834 0.00102365)
(1.55662 -0.148183 0.00110655)
(1.53064 -0.152793 0.0010313)
(1.49951 -0.157592 0.00106574)
(1.48244 -0.160356 0.00104456)
(1.46123 -0.165599 0.00104213)
(1.44116 -0.164143 0.00106677)
(1.4416 -0.174084 0.00102917)
(1.39405 -0.160251 0.00108155)
(1.46322 -0.165849 0.0011)
(4.37689 0.0971354 -0.00129752)
(3.96169 0.149028 -0.00184081)
(3.42308 0.163065 -0.000887259)
(2.94101 0.15681 -0.00143141)
(2.52441 0.14515 -0.000908338)
(2.21591 0.136479 -0.00132459)
(1.988 0.131503 -0.000979491)
(1.83201 0.131114 -0.0012427)
(1.72699 0.133448 -0.00101192)
(1.65027 0.137846 -0.00116776)
(1.60147 0.142834 -0.0010237)
(1.55651 0.148192 -0.00110655)
(1.5306 0.152789 -0.00103138)
(1.49924 0.157619 -0.0010657)
(1.48227 0.16034 -0.00104472)
(1.46063 0.165675 -0.00104197)
(1.44059 0.164093 -0.00106721)
(1.44013 0.174235 -0.00102867)
(1.39283 0.160157 -0.00108278)
(1.45857 0.165691 -0.00109815)
(4.53958 0.0878715 -0.00308939)
(4.67239 0.119567 -0.00381259)
(4.71157 0.121163 -0.00285372)
(4.69584 0.0949194 -0.00337401)
(4.61424 0.0565726 -0.00282723)
(4.51318 0.0138039 -0.00323046)
(4.40039 -0.0244197 -0.00287647)
(4.28944 -0.057219 -0.00313465)
(4.18848 -0.0820997 -0.00289834)
(4.09133 -0.101881 -0.00305175)
(4.00982 -0.116228 -0.0029065)
(3.92877 -0.127839 -0.00298975)
(3.86423 -0.136354 -0.00291476)
(3.79705 -0.14353 -0.00294919)
(3.74601 -0.14903 -0.0029291)
(3.69077 -0.153417 -0.00292593)
(3.64928 -0.157887 -0.00295581)
(3.60665 -0.160081 -0.00291195)
(3.56757 -0.165056 -0.00300972)
(3.54216 -0.173475 -0.0030138)
(4.51492 0.0457606 -0.00165457)
(4.6504 0.110495 -0.00226135)
(4.77973 0.163163 -0.00133292)
(4.92476 0.19186 -0.00185572)
(5.02924 0.202246 -0.0013151)
(5.10918 0.203027 -0.00172602)
(5.15556 0.199642 -0.00138199)
(5.17952 0.196461 -0.00164688)
(5.18868 0.194493 -0.00141675)
(5.18358 0.194002 -0.00157232)
(5.1756 0.194379 -0.00142929)
(5.15851 0.195258 -0.00151251)
(5.14328 0.195906 -0.00143815)
(5.12308 0.197099 -0.00147229)
(5.10378 0.196474 -0.00145112)
(5.08628 0.199242 -0.00144947)
(5.06134 0.194049 -0.00147157)
(5.05342 0.203576 -0.00144362)
(5.01662 0.184587 -0.00147086)
(5.02479 0.20561 -0.00150566)
(4.51097 0.0442075 -0.00267292)
(4.61592 0.0509442 -0.0033902)
(4.73723 0.046805 -0.00248744)
(4.89353 0.0293545 -0.00301627)
(5.03053 0.00710682 -0.00246137)
(5.15921 -0.0181925 -0.00286026)
(5.26244 -0.0421516 -0.00250505)
(5.34746 -0.0638002 -0.00276493)
(5.4173 -0.0814556 -0.00253048)
(5.47197 -0.0960393 -0.00268456)
(5.52094 -0.107528 -0.00253919)
(5.55837 -0.11682 -0.00262142)
(5.59503 -0.124613 -0.00254534)
(5.62275 -0.130456 -0.00257865)
(5.65163 -0.136685 -0.00255669)
(5.67292 -0.139428 -0.00255391)
(5.69733 -0.146434 -0.00257955)
(5.71125 -0.145347 -0.00254736)
(5.73651 -0.154698 -0.0026359)
(5.73292 -0.155111 -0.00264087)
(4.51208 0.0165875 -0.00197243)
(4.6171 0.0556861 -0.00264376)
(4.73141 0.0915638 -0.00175007)
(4.88163 0.117369 -0.00226944)
(5.0164 0.133772 -0.00171228)
(5.14892 0.14487 -0.0021115)
(5.26087 0.152594 -0.00175933)
(5.35911 0.159237 -0.00202161)
(5.44512 0.165039 -0.00179005)
(5.51849 0.170533 -0.0019456)
(5.58792 0.175323 -0.0018023)
(5.64701 0.179698 -0.00188553)
(5.70679 0.183036 -0.00181086)
(5.75734 0.186456 -0.00184471)
(5.81149 0.187822 -0.001823)
(5.85449 0.191781 -0.00182108)
(5.90795 0.18899 -0.00184208)
(5.93685 0.198151 -0.00181808)
(6.00335 0.184611 -0.00185426)
(5.99711 0.208297 -0.00188736)
(4.51082 0.0119415 -0.00230541)
(4.60924 -0.00398299 -0.00300613)
(4.72213 -0.0233992 -0.00212049)
(4.87061 -0.0448943 -0.00264607)
(5.00451 -0.0640428 -0.0020875)
(5.13691 -0.0819082 -0.00248495)
(5.24999 -0.097446 -0.00213014)
(5.35052 -0.111206 -0.00239128)
(5.44015 -0.122666 -0.00215854)
(5.51795 -0.132368 -0.00231373)
(5.59322 -0.140325 -0.00216987)
(5.65819 -0.146828 -0.00225292)
(5.72596 -0.152337 -0.00217799)
(5.78294 -0.15654 -0.00221162)
(5.84773 -0.160545 -0.00218999)
(5.89594 -0.163135 -0.00218753)
(5.96445 -0.165979 -0.0022107)
(5.99388 -0.168604 -0.00218475)
(6.08333 -0.167853 -0.00224963)
(6.06843 -0.177937 -0.00226494)
(4.51082 -0.0119417 -0.00230541)
(4.60924 0.0039835 -0.00300613)
(4.72213 0.0233987 -0.00212049)
(4.87061 0.0448954 -0.00264607)
(5.00451 0.0640421 -0.0020875)
(5.13691 0.0819106 -0.00248495)
(5.24999 0.097446 -0.00213013)
(5.35052 0.111211 -0.00239129)
(5.44015 0.122669 -0.00215853)
(5.51795 0.132382 -0.00231374)
(5.59321 0.140336 -0.00216985)
(5.6582 0.146869 -0.00225296)
(5.72595 0.152362 -0.00217795)
(5.78295 0.156666 -0.00221171)
(5.84773 0.1606 -0.00218986)
(5.89597 0.163483 -0.00218774)
(5.96447 0.166151 -0.00221026)
(5.99395 0.169406 -0.00218512)
(6.08346 0.168584 -0.00224765)
(6.06867 0.179475 -0.00226556)
(4.51208 -0.0165877 -0.00197243)
(4.6171 -0.0556855 -0.00264376)
(4.73141 -0.0915643 -0.00175007)
(4.88163 -0.117368 -0.00226944)
(5.0164 -0.133773 -0.00171228)
(5.14892 -0.144867 -0.0021115)
(5.26087 -0.152594 -0.00175933)
(5.35911 -0.159231 -0.00202161)
(5.44512 -0.165036 -0.00179005)
(5.5185 -0.170519 -0.00194559)
(5.58793 -0.175314 -0.00180232)
(5.64701 -0.179656 -0.0018855)
(5.70682 -0.183012 -0.0018109)
(5.75734 -0.18633 -0.00184462)
(5.81157 -0.187772 -0.00182312)
(5.85449 -0.191438 -0.00182086)
(5.90816 -0.188833 -0.00184246)
(5.93691 -0.197374 -0.00181769)
(6.0038 -0.183936 -0.00185592)
(5.99743 -0.206877 -0.00188676)
(4.51097 -0.0442077 -0.00267292)
(4.61592 -0.0509438 -0.0033902)
(4.73723 -0.0468055 -0.00248744)
(4.89353 -0.0293535 -0.00301627)
(5.03052 -0.00710743 -0.00246136)
(5.15921 0.0181947 -0.00286026)
(5.26244 0.0421516 -0.00250505)
(5.34746 0.0638052 -0.00276494)
(5.41729 0.0814587 -0.00253047)
(5.47199 0.0960516 -0.00268458)
(5.52093 0.107539 -0.00253916)
(5.55841 0.116856 -0.00262146)
(5.59504 0.124638 -0.00254528)
(5.62283 0.130568 -0.00257874)
(5.6517 0.136737 -0.00255654)
(5.67308 0.139744 -0.0025541)
(5.69763 0.146583 -0.00257908)
(5.71166 0.146091 -0.00254767)
(5.73745 0.155342 -0.00263399)
(5.73412 0.156559 -0.00264116)
(4.51491 -0.0457607 -0.00165457)
(4.6504 -0.110494 -0.00226135)
(4.77973 -0.163163 -0.00133292)
(4.92477 -0.191859 -0.00185572)
(5.02924 -0.202246 -0.0013151)
(5.10919 -0.203024 -0.00172603)
(5.15555 -0.199642 -0.00138198)
(5.17954 -0.196455 -0.00164688)
(5.18866 -0.194492 -0.00141674)
(5.18362 -0.193989 -0.00157232)
(5.17558 -0.194374 -0.00142928)
(5.1586 -0.195221 -0.00151251)
(5.14327 -0.195892 -0.00143815)
(5.12328 -0.196992 -0.00147227)
(5.10386 -0.19645 -0.00145115)
(5.08669 -0.198957 -0.00144937)
(5.06179 -0.193968 -0.00147173)
(5.0543 -0.20296 -0.00144339)
(5.01808 -0.184159 -0.0014717)
(5.02696 -0.204681 -0.00150547)
(4.53958 -0.0878716 -0.00308939)
(4.67239 -0.119567 -0.00381259)
(4.71157 -0.121163 -0.00285371)
(4.69584 -0.0949191 -0.00337401)
(4.61423 -0.0565723 -0.00282723)
(4.51319 -0.0138031 -0.00323047)
(4.40038 0.0244207 -0.00287645)
(4.28946 0.0572208 -0.00313468)
(4.18847 0.0821033 -0.0028983)
(4.0914 0.101885 -0.00305181)
(4.00979 0.116238 -0.00290641)
(3.92893 0.127854 -0.00298989)
(3.86418 0.136374 -0.00291456)
(3.79743 0.143583 -0.00294949)
(3.74603 0.149066 -0.00292863)
(3.69162 0.153574 -0.00292661)
(3.64961 0.157976 -0.00295466)
(3.60857 0.160458 -0.00291343)
(3.56878 0.165442 -0.0030065)
(3.5469 0.174191 -0.00301682)
(4.37689 -0.0971355 -0.00129752)
(3.96169 -0.149028 -0.00184081)
(3.42308 -0.163065 -0.000887259)
(2.94101 -0.15681 -0.00143141)
(2.52441 -0.14515 -0.000908337)
(2.21591 -0.136479 -0.00132459)
(1.988 -0.131503 -0.000979489)
(1.83203 -0.131113 -0.00124271)
(1.72699 -0.133448 -0.00101192)
(1.65031 -0.137843 -0.00116778)
(1.60148 -0.142834 -0.00102368)
(1.55662 -0.148183 -0.00110658)
(1.53064 -0.152793 -0.00103133)
(1.49951 -0.157592 -0.00106577)
(1.48244 -0.160356 -0.0010446)
(1.46123 -0.165599 -0.00104216)
(1.44116 -0.164143 -0.00106681)
(1.4416 -0.174084 -0.0010292)
(1.39405 -0.160251 -0.00108158)
(1.46322 -0.165849 -0.00110003)
(4.32378 0.565763 -0.00677787)
(3.07515 0.847738 -0.0043116)
(2.30883 0.869797 -0.00558858)
(1.73871 0.853362 -0.00411396)
(1.5989 0.856078 -0.00525876)
(1.39313 0.86772 -0.00408744)
(1.38598 0.877224 -0.00504003)
(1.26305 0.885018 -0.00406087)
(1.26973 0.889087 -0.00484424)
(1.18215 0.892782 -0.00401981)
(1.18927 0.894508 -0.00466149)
(1.12469 0.896546 -0.00396809)