/*--------------------------------*- C++ -*----------------------------------*\
  =========                 |
  \\      /  F ield         | OpenFOAM: The Open Source CFD Toolbox
   \\    /   O peration     | Website:  https://openfoam.org
    \\  /    A nd           | Version:  7
     \\/     M anipulation  |
\*---------------------------------------------------------------------------*/
FoamFile
{
    version     2.0;
    format      ascii;
    class       volVectorField;
    location    "0.2025";
    object      U_0;
}
// * * * * * * * * * * * * * * * * * * * * * * * * * * * * * * * * * * * * * //

dimensions      [0 1 -1 0 0 0 0];

internalField   nonuniform List<vector> 
7920
(
(2.93372 0.103302 -32.365)
(2.10891 -0.456308 -32.382)
(1.39185 -0.608991 -32.3709)
(1.2744 -0.664733 -32.3788)
(1.03267 -0.681712 -32.3746)
(1.06203 -0.688397 -32.3818)
(0.937292 -0.694603 -32.3805)
(1.0059 -0.696061 -32.3888)
(0.924246 -0.698711 -32.3895)
(0.98832 -0.698272 -32.3959)
(0.920785 -0.699428 -32.3955)
(0.974083 -0.698473 -32.3994)
(0.917587 -0.699203 -32.3983)
(0.963552 -0.698411 -32.4007)
(0.915466 -0.698813 -32.4)
(0.958083 -0.699188 -32.4011)
(0.909541 -0.695234 -32.4018)
(0.953388 -0.70279 -32.4003)
(0.901538 -0.647962 -32.4059)
(0.770688 -0.661163 -32.3908)
(4.41257 0.966902 -32.4067)
(4.34327 0.873083 -32.384)
(3.7014 0.820169 -32.3516)
(3.55367 0.75358 -32.3588)
(3.16 0.72276 -32.354)
(3.18925 0.704848 -32.3628)
(2.9965 0.695516 -32.3631)
(3.11751 0.69156 -32.379)
(3.00474 0.691012 -32.3881)
(3.11949 0.691608 -32.404)
(3.02716 0.692343 -32.4099)
(3.12263 0.692337 -32.4181)
(3.04642 0.692442 -32.4194)
(3.12972 0.692491 -32.4223)
(3.06487 0.691706 -32.4233)
(3.14644 0.694644 -32.4226)
(3.07181 0.688588 -32.4274)
(3.19036 0.698906 -32.4189)
(3.03715 0.68789 -32.4374)
(3.39039 0.683271 -32.3905)
(4.75149 0.192696 -32.4122)
(5.26243 -0.226897 -32.3723)
(5.12876 -0.367878 -32.3212)
(5.24673 -0.483948 -32.3234)
(5.01004 -0.558118 -32.3169)
(5.08107 -0.61398 -32.3233)
(4.91065 -0.653272 -32.3167)
(5.00892 -0.672757 -32.3305)
(4.89973 -0.678861 -32.3441)
(5.00141 -0.679167 -32.3722)
(4.92058 -0.678444 -32.3903)
(5.01114 -0.677932 -32.4094)
(4.9471 -0.677962 -32.4167)
(5.02745 -0.677106 -32.4234)
(4.97574 -0.679176 -32.426)
(5.04767 -0.673509 -32.426)
(5.00681 -0.682437 -32.4314)
(5.06048 -0.664421 -32.4245)
(5.03891 -0.675432 -32.4381)
(5.0345 -0.663785 -32.4025)
(4.75255 0.648583 -32.4221)
(5.28583 0.746779 -32.3802)
(5.3938 0.796275 -32.3248)
(5.71044 0.768763 -32.3245)
(5.65695 0.744108 -32.3181)
(5.82527 0.715857 -32.3233)
(5.72175 0.69437 -32.3121)
(5.82987 0.681826 -32.3195)
(5.73677 0.677768 -32.3306)
(5.83038 0.675484 -32.3618)
(5.75907 0.675654 -32.3876)
(5.84276 0.67485 -32.4147)
(5.78546 0.6749 -32.4284)
(5.86035 0.674702 -32.4391)
(5.81141 0.673989 -32.4432)
(5.883 0.675389 -32.4454)
(5.8369 0.673517 -32.4485)
(5.9161 0.677629 -32.4468)
(5.86438 0.681851 -32.4522)
(6.00815 0.720511 -32.4259)
(4.74595 -0.0879998 -32.4216)
(5.24881 -0.386577 -32.377)
(5.4078 -0.475798 -32.3198)
(5.78252 -0.537746 -32.3184)
(5.80617 -0.578303 -32.3113)
(6.03288 -0.613213 -32.3157)
(5.97206 -0.642002 -32.3023)
(6.09373 -0.658864 -32.3062)
(6.00978 -0.666564 -32.3147)
(6.1013 -0.668108 -32.3459)
(6.03328 -0.668214 -32.374)
(6.11401 -0.667852 -32.4047)
(6.06019 -0.66849 -32.4212)
(6.12983 -0.666721 -32.4345)
(6.08942 -0.670356 -32.4389)
(6.14366 -0.661932 -32.4429)
(6.12829 -0.675388 -32.4443)
(6.14626 -0.651928 -32.4457)
(6.18743 -0.682844 -32.4471)
(6.13662 -0.676667 -32.4259)
(4.73382 0.351726 -32.4253)
(5.1924 0.555139 -32.3805)
(5.35896 0.633021 -32.3235)
(5.74941 0.652993 -32.3223)
(5.79933 0.66226 -32.315)
(6.05066 0.664928 -32.3189)
(6.01057 0.667113 -32.3048)
(6.14509 0.667963 -32.3077)
(6.07036 0.669035 -32.3154)
(6.16609 0.668391 -32.3464)
(6.10194 0.668132 -32.375)
(6.18366 0.667289 -32.4067)
(6.13154 0.667391 -32.424)
(6.20045 0.666295 -32.4382)
(6.16125 0.667713 -32.4426)
(6.21418 0.663644 -32.4474)
(6.19939 0.670409 -32.448)
(6.22301 0.659682 -32.4506)
(6.25896 0.682285 -32.4508)
(6.24833 0.705072 -32.4304)
(4.73382 -0.351724 -32.4253)
(5.1924 -0.555139 -32.3805)
(5.35896 -0.633022 -32.3235)
(5.74941 -0.652995 -32.3223)
(5.79933 -0.662262 -32.315)
(6.05066 -0.66493 -32.3189)
(6.01057 -0.667114 -32.3048)
(6.14508 -0.667965 -32.3077)
(6.07036 -0.669037 -32.3154)
(6.16609 -0.668391 -32.3464)
(6.10196 -0.668134 -32.375)
(6.18364 -0.667278 -32.4067)
(6.13159 -0.667395 -32.424)
(6.2004 -0.666238 -32.4383)
(6.16138 -0.667739 -32.4425)
(6.21406 -0.663411 -32.4476)
(6.19961 -0.670528 -32.4478)
(6.22262 -0.659021 -32.4508)
(6.25908 -0.682243 -32.4506)
(6.24753 -0.70396 -32.4305)
(4.74595 0.0880016 -32.4216)
(5.24881 0.386578 -32.377)
(5.4078 0.475797 -32.3198)
(5.78252 0.537744 -32.3184)
(5.80617 0.578302 -32.3113)
(6.03288 0.613211 -32.3157)
(5.97205 0.642001 -32.3023)
(6.09373 0.658861 -32.3062)
(6.00977 0.666563 -32.3147)
(6.10131 0.668106 -32.3459)
(6.03327 0.668216 -32.374)
(6.11403 0.667854 -32.4048)
(6.06015 0.668497 -32.4211)
(6.12989 0.666752 -32.4348)
(6.08932 0.670353 -32.4385)
(6.14379 0.6621 -32.4436)
(6.12822 0.675317 -32.4435)
(6.14673 0.652592 -32.4467)
(6.18754 0.682961 -32.446)
(6.13805 0.678117 -32.4268)
(4.75255 -0.648581 -32.4221)
(5.28583 -0.746779 -32.3802)
(5.3938 -0.796276 -32.3248)
(5.71044 -0.768764 -32.3245)
(5.65695 -0.74411 -32.3181)
(5.82526 -0.715859 -32.3233)
(5.72174 -0.694372 -32.3121)
(5.82987 -0.681827 -32.3195)
(5.73677 -0.677771 -32.3305)
(5.83038 -0.675483 -32.3618)
(5.75908 -0.675657 -32.3875)
(5.84276 -0.674833 -32.4149)
(5.78548 -0.674906 -32.4281)
(5.86035 -0.674627 -32.4397)
(5.81152 -0.674018 -32.4422)
(5.88299 -0.675119 -32.4469)
(5.83715 -0.673644 -32.4463)
(5.91597 -0.676991 -32.4498)
(5.86482 -0.68201 -32.4485)
(6.00809 -0.71985 -32.43)
(4.75149 -0.192694 -32.4122)
(5.26243 0.226897 -32.3723)
(5.12876 0.367877 -32.3212)
(5.24672 0.483946 -32.3234)
(5.01004 0.558117 -32.3169)
(5.08107 0.613979 -32.3233)
(4.91064 0.653271 -32.3167)
(5.00892 0.672754 -32.3305)
(4.89972 0.678862 -32.3441)
(5.00141 0.679161 -32.3723)
(4.92056 0.678451 -32.3903)
(5.01117 0.677917 -32.4096)
(4.94705 0.677984 -32.4163)
(5.02757 0.677076 -32.4242)
(4.97561 0.679215 -32.4246)
(5.04803 0.673507 -32.4285)
(5.00671 0.682435 -32.4272)
(5.06149 0.664872 -32.431)
(5.03915 0.67556 -32.4287)
(5.0375 0.665252 -32.4146)
(4.41257 -0.9669 -32.4067)
(4.34327 -0.873082 -32.384)
(3.7014 -0.82017 -32.3516)
(3.55366 -0.75358 -32.3588)
(3.15999 -0.722761 -32.354)
(3.18924 -0.704849 -32.3628)
(2.9965 -0.695517 -32.3631)
(3.1175 -0.691561 -32.379)
(3.00474 -0.691015 -32.3881)
(3.11949 -0.691605 -32.404)
(3.02717 -0.692347 -32.4099)
(3.12264 -0.692321 -32.4182)
(3.04643 -0.692452 -32.4192)
(3.12978 -0.692433 -32.4228)
(3.06494 -0.691732 -32.4224)
(3.14658 -0.69442 -32.4245)
(3.07218 -0.688718 -32.4237)
(3.19043 -0.698524 -32.426)
(3.03861 -0.688269 -32.424)
(3.39029 -0.683584 -32.4128)
(2.93372 -0.103301 -32.365)
(2.10891 0.45631 -32.382)
(1.39185 0.608992 -32.3709)
(1.2744 0.664733 -32.3788)
(1.03267 0.681713 -32.3746)
(1.06203 0.688397 -32.3818)
(0.93729 0.694604 -32.3805)
(1.00589 0.69606 -32.3888)
(0.924244 0.698713 -32.3895)
(0.988321 0.698267 -32.3959)
(0.920783 0.699434 -32.3955)
(0.974095 0.698455 -32.3994)
(0.917583 0.699221 -32.3982)
(0.9636 0.698353 -32.4008)
(0.915467 0.69886 -32.3997)
(0.958221 0.699016 -32.4016)
(0.909711 0.69538 -32.4008)
(0.953643 0.702642 -32.4024)
(0.902422 0.648551 -32.4013)
(0.772209 0.662141 -32.4013)
(4.32641 0.565601 0.00816997)
(3.09226 0.845913 0.00570347)
(2.3293 0.867101 0.00696521)
(1.76877 0.850463 0.00548306)
(1.64177 0.855339 0.00660003)
(1.47586 0.871065 0.00540061)
(1.50842 0.884713 0.00632899)
(1.43997 0.894822 0.00532589)
(1.48352 0.899276 0.00609451)
(1.43996 0.902185 0.00524569)
(1.47158 0.902815 0.00587128)
(1.44058 0.903648 0.0051493)
(1.46295 0.903321 0.0056538)
(1.44118 0.903897 0.00504003)
(1.4573 0.902599 0.00544243)
(1.44335 0.905867 0.00492167)
(1.44807 0.894548 0.00523965)
(1.47418 0.923057 0.00479652)
(1.37018 0.806027 0.00507512)
(1.88243 0.822165 0.00459473)
(4.75821 -0.100228 0.00560008)
(4.62535 -0.274309 0.00357201)
(4.54739 -0.471461 0.00486183)
(4.18088 -0.640468 0.00341316)
(4.0561 -0.747272 0.00453595)
(3.83281 -0.814442 0.00334488)
(3.82902 -0.849531 0.00428032)
(3.74069 -0.8679 0.00328561)
(3.78677 -0.874691 0.00405901)
(3.74868 -0.877786 0.00321286)
(3.79278 -0.878341 0.00383952)
(3.7712 -0.879138 0.00311698)
(3.80605 -0.878814 0.00362188)
(3.7939 -0.879528 0.00300736)
(3.82196 -0.87875 0.00341025)
(3.81613 -0.880046 0.00288965)
(3.84057 -0.88023 0.00320367)
(3.82894 -0.877344 0.00276802)
(3.88004 -0.894168 0.00298267)
(3.66164 -0.876332 0.00255724)
(4.63614 0.433793 0.0068969)
(4.83441 0.866731 0.00494039)
(5.15655 0.964998 0.00610864)
(5.109 0.954086 0.00461779)
(5.16994 0.92771 0.00571267)
(5.04895 0.904604 0.00450656)
(5.0774 0.887851 0.00543193)
(5.00737 0.880881 0.00443173)
(5.05225 0.877084 0.00520283)
(5.02005 0.877756 0.00435655)
(5.06265 0.877015 0.00498409)
(5.04625 0.877999 0.00426267)
(5.07976 0.877388 0.00476842)
(5.0738 0.878203 0.00415411)
(5.09572 0.876682 0.00455745)
(5.10632 0.879767 0.00403572)
(5.10165 0.87177 0.00435544)
(5.15714 0.888923 0.0039117)
(5.08968 0.825879 0.00419317)
(5.25566 0.906882 0.0037683)
(4.57594 -0.201378 0.00572026)
(4.70679 -0.397254 0.00398612)
(5.13969 -0.514976 0.00515916)
(5.25226 -0.61983 0.00369643)
(5.4675 -0.698578 0.00479553)
(5.46218 -0.763947 0.00359961)
(5.55311 -0.807883 0.00453331)
(5.51295 -0.836627 0.00353862)
(5.5634 -0.85086 0.00431024)
(5.53301 -0.857829 0.00346535)
(5.57309 -0.859821 0.00409286)
(5.55636 -0.860827 0.00337223)
(5.58886 -0.86125 0.00387892)
(5.5807 -0.860406 0.00326509)
(5.60759 -0.863333 0.003669)
(5.60205 -0.857392 0.00314799)
(5.63258 -0.87036 0.00346239)
(5.60379 -0.847375 0.00302458)
(5.68098 -0.891947 0.00324107)
(5.46276 -0.875643 0.00285979)
(4.5894 0.340491 0.00637225)
(4.7025 0.684206 0.00467513)
(5.11228 0.79847 0.0057998)
(5.2465 0.840103 0.0043237)
(5.5036 0.854511 0.00540998)
(5.54224 0.859963 0.00420565)
(5.66689 0.859577 0.00513265)
(5.65036 0.860438 0.00413267)
(5.7136 0.859751 0.00490161)
(5.69095 0.860892 0.00405509)
(5.73385 0.860265 0.00468224)
(5.71901 0.860763 0.00396219)
(5.75171 0.860065 0.00446906)
(5.74379 0.860352 0.00385594)
(5.77013 0.860248 0.00425969)
(5.76542 0.859604 0.00373837)
(5.79112 0.860126 0.00405641)
(5.77912 0.860615 0.00361404)
(5.82767 0.848777 0.00387824)
(5.75753 0.917508 0.00348158)
(4.58374 -0.268321 0.00600197)
(4.67498 -0.537041 0.00437028)
(5.07782 -0.649792 0.00549444)
(5.21307 -0.720164 0.00402524)
(5.48374 -0.764529 0.00511033)
(5.53944 -0.799758 0.0039074)
(5.68001 -0.82244 0.00483597)
(5.67503 -0.8387 0.00383729)
(5.74556 -0.846811 0.00460643)
(5.72717 -0.851954 0.00376022)
(5.77229 -0.853474 0.00438738)
(5.75829 -0.854529 0.00366744)
(5.7918 -0.854813 0.00417452)
(5.78247 -0.854045 0.00356156)
(5.81217 -0.8566 0.00396539)
(5.79989 -0.850969 0.00344479)
(5.84055 -0.861358 0.00376029)
(5.79713 -0.844464 0.00332067)
(5.89325 -0.871316 0.00355804)
(5.71182 -0.897819 0.00317734)
(4.58374 0.268322 0.00600197)
(4.67498 0.53704 0.00437028)
(5.07782 0.649793 0.00549444)
(5.21307 0.720164 0.00402524)
(5.48374 0.76453 0.00511033)
(5.53944 0.799759 0.0039074)
(5.68001 0.822441 0.00483597)
(5.67503 0.838701 0.00383728)
(5.74556 0.846813 0.00460643)
(5.72717 0.851956 0.00376022)
(5.77228 0.853477 0.00438738)
(5.75831 0.854542 0.00366742)
(5.79176 0.854816 0.00417454)
(5.78253 0.854093 0.00356149)
(5.81206 0.856607 0.00396544)
(5.80007 0.851152 0.00344449)
(5.84036 0.861395 0.00376056)
(5.79761 0.84505 0.0033202)
(5.89316 0.871618 0.0035593)
(5.71283 0.899455 0.00317698)
(4.5894 -0.34049 0.00637224)
(4.7025 -0.684207 0.00467512)
(5.11228 -0.79847 0.0057998)
(5.2465 -0.840103 0.00432369)
(5.5036 -0.85451 0.00540997)
(5.54224 -0.859962 0.00420565)
(5.66689 -0.859576 0.00513265)
(5.65036 -0.860437 0.00413267)
(5.71361 -0.85975 0.00490161)
(5.69095 -0.860887 0.00405508)
(5.73386 -0.860265 0.00468222)
(5.719 -0.86074 0.00396223)
(5.75175 -0.860071 0.00446902)
(5.74374 -0.860276 0.00385607)
(5.77025 -0.860269 0.00425958)
(5.76529 -0.859385 0.00373874)
(5.79141 -0.860157 0.00405603)
(5.77877 -0.860053 0.00361452)
(5.82808 -0.848581 0.00387703)
(5.7571 -0.916272 0.00348179)
(4.57594 0.201378 0.00572026)
(4.70679 0.397253 0.00398611)
(5.13969 0.514975 0.00515915)
(5.25226 0.619831 0.00369643)
(5.4675 0.698579 0.00479553)
(5.46218 0.763947 0.00359961)
(5.55311 0.807883 0.0045333)
(5.51295 0.836626 0.00353862)
(5.56339 0.850862 0.00431024)
(5.53301 0.857828 0.00346536)
(5.57308 0.859826 0.00409286)
(5.55639 0.860825 0.00337224)
(5.58882 0.861266 0.0038789)
(5.58079 0.860413 0.00326509)
(5.60749 0.863375 0.00366896)
(5.60232 0.857456 0.00314786)
(5.63242 0.870467 0.00346246)
(5.60457 0.847866 0.00302439)
(5.68101 0.89226 0.0032421)
(5.46499 0.87756 0.00285959)
(4.63614 -0.433793 0.00689688)
(4.83441 -0.866732 0.00494037)
(5.15655 -0.964998 0.00610863)
(5.109 -0.954086 0.00461778)
(5.16994 -0.927709 0.00571266)
(5.04895 -0.904603 0.00450655)
(5.0774 -0.887851 0.00543192)
(5.00737 -0.880879 0.00443172)
(5.05226 -0.877084 0.00520283)
(5.02006 -0.87775 0.00435656)
(5.06266 -0.877015 0.00498408)
(5.04626 -0.877975 0.00426271)
(5.07978 -0.877397 0.00476836)
(5.07384 -0.878123 0.00415427)
(5.09577 -0.876714 0.0045572)
(5.10644 -0.879521 0.00403626)
(5.1018 -0.871879 0.00435464)
(5.1575 -0.888409 0.00391273)
(5.0901 -0.826045 0.00419144)
(5.25697 -0.906221 0.00376918)
(4.75821 0.100228 0.00560007)
(4.62535 0.274309 0.00357199)
(4.54739 0.47146 0.00486182)
(4.18088 0.640467 0.00341315)
(4.0561 0.747272 0.00453594)
(3.83281 0.814442 0.00334487)
(3.82902 0.849531 0.00428031)
(3.74069 0.867899 0.00328561)
(3.78677 0.874692 0.00405902)
(3.74869 0.87778 0.00321285)
(3.79277 0.878347 0.00383955)
(3.77123 0.87912 0.00311696)
(3.80603 0.87884 0.00362192)
(3.79403 0.879478 0.00300733)
(3.82187 0.878828 0.0034102)
(3.81661 0.879957 0.00288972)
(3.8403 0.880417 0.00320332)
(3.83058 0.877475 0.00276853)
(3.87938 0.894494 0.00298233)
(3.66743 0.877809 0.00255823)
(4.32641 -0.565601 0.00816995)
(3.09226 -0.845913 0.00570345)
(2.3293 -0.867102 0.00696519)
(1.76877 -0.850464 0.00548304)
(1.64177 -0.85534 0.00660002)
(1.47586 -0.871065 0.0054006)
(1.50842 -0.884713 0.00632898)
(1.43997 -0.894821 0.00532588)
(1.48352 -0.899278 0.00609451)
(1.43997 -0.902179 0.00524569)
(1.47158 -0.90282 0.00587128)
(1.44059 -0.903626 0.00514931)
(1.46297 -0.903341 0.0056538)
(1.44122 -0.90383 0.00504009)
(1.45737 -0.902662 0.00544231)
(1.44346 -0.905691 0.00492202)
(1.44838 -0.894757 0.00523898)
(1.47437 -0.92277 0.00479784)
(1.37158 -0.806765 0.00507217)
(1.88243 -0.823342 0.0046002)
(4.37886 0.0973091 0.00202845)
(3.98469 0.148914 0.00257546)
(3.46101 0.159304 0.00162131)
(3.02592 0.144726 0.00216126)
(2.7091 0.126294 0.00162488)
(2.56207 0.120233 0.0020207)
(2.50235 0.125005 0.0016571)
(2.5022 0.135306 0.00190349)
(2.51101 0.143722 0.00166372)
(2.52765 0.149223 0.00180758)
(2.54135 0.151564 0.0016607)
(2.55613 0.152553 0.00172999)
(2.57033 0.152878 0.00165058)
(2.58592 0.152759 0.00166557)
(2.59673 0.15254 0.00163668)
(2.62491 0.15408 0.00161017)
(2.60477 0.149077 0.00162464)
(2.69328 0.159439 0.00156023)
(2.55741 0.139678 0.00158863)
(2.80813 0.160767 0.00158243)
(4.54224 0.087192 0.0038183)
(4.69439 0.117427 0.00453475)
(4.74348 0.116045 0.00356972)
(4.74799 0.0756718 0.00408302)
(4.69602 0.0125166 0.00351956)
(4.66502 -0.0511193 0.00389841)
(4.64188 -0.0977762 0.00352672)
(4.64662 -0.125957 0.00377342)
(4.65862 -0.139592 0.0035366)
(4.68203 -0.145564 0.0036846)
(4.70682 -0.147517 0.00353929)
(4.73485 -0.148026 0.00361015)
(4.76252 -0.148526 0.00353078)
(4.79338 -0.147112 0.00354593)
(4.81708 -0.150366 0.0035176)
(4.85976 -0.143069 0.00348978)
(4.86119 -0.155125 0.00350792)
(4.94025 -0.132841 0.00343818)
(4.88114 -0.159558 0.00350891)
(5.02129 -0.107402 0.0035008)
(4.51823 0.045481 0.00238674)
(4.66913 0.108914 0.00299331)
(4.80707 0.158519 0.00206126)
(4.96431 0.174168 0.00257764)
(5.0536 0.164383 0.00202353)
(5.1147 0.151835 0.00241451)
(5.13559 0.146409 0.00205488)
(5.15757 0.148223 0.00230558)
(5.17537 0.151305 0.00207091)
(5.2024 0.153724 0.00221686)
(5.22959 0.154572 0.0020722)
(5.26085 0.154941 0.00214204)
(5.29003 0.154506 0.00206348)
(5.32344 0.155668 0.00207835)
(5.35033 0.152234 0.00204998)
(5.38808 0.160104 0.00202431)
(5.41111 0.144864 0.00203574)
(5.45117 0.172085 0.00198398)
(5.48023 0.135054 0.00199211)
(5.49978 0.203101 0.00201078)
(4.5149 0.0438812 0.00340288)
(4.63405 0.0488204 0.00411408)
(4.76216 0.0435011 0.00320461)
(4.93143 0.0191495 0.00372603)
(5.05042 -0.0189181 0.00315599)
(5.14618 -0.0618366 0.00353234)
(5.19712 -0.098127 0.00315931)
(5.24073 -0.123848 0.00340419)
(5.27092 -0.139016 0.00316622)
(5.30349 -0.146846 0.00331281)
(5.33245 -0.150257 0.00316833)
(5.36337 -0.151077 0.00323952)
(5.39335 -0.152251 0.00316141)
(5.42362 -0.150041 0.00317699)
(5.45675 -0.154412 0.00314882)
(5.4811 -0.146004 0.00312276)
(5.52882 -0.15865 0.0031378)
(5.52671 -0.13819 0.00308165)
(5.61992 -0.15935 0.0031459)
(5.55083 -0.120866 0.00314707)
(4.51617 0.0165798 0.00270379)
(4.63538 0.0549946 0.00337234)
(4.75473 0.0889849 0.00247356)
(4.91725 0.109327 0.00298584)
(5.0368 0.118557 0.00241531)
(5.13965 0.126298 0.00279528)
(5.1989 0.135025 0.00242803)
(5.24959 0.144062 0.00267549)
(5.2846 0.150294 0.00243872)
(5.32044 0.153731 0.00258401)
(5.35127 0.154888 0.00243948)
(5.38332 0.155108 0.00251007)
(5.41395 0.154863 0.00243242)
(5.44395 0.155183 0.00244786)
(5.47862 0.153591 0.00241988)
(5.49978 0.157296 0.00239519)
(5.5538 0.149627 0.00240569)
(5.54178 0.163831 0.0023601)
(5.65361 0.145626 0.0023791)
(5.57249 0.182643 0.00239174)
(4.5149 0.0118178 0.00303598)
(4.62773 -0.00474146 0.00373216)
(4.74517 -0.0239384 0.00284036)
(4.90509 -0.0460513 0.00335867)
(5.02411 -0.0690775 0.00278648)
(5.1291 -0.0937232 0.00316412)
(5.19246 -0.115954 0.00279357)
(5.24746 -0.133411 0.00303965)
(5.28582 -0.144466 0.0028019)
(5.32363 -0.150414 0.00294745)
(5.35544 -0.152975 0.00280288)
(5.38764 -0.153555 0.0028738)
(5.41865 -0.154185 0.00279618)
(5.44784 -0.15303 0.00281181)
(5.48398 -0.154773 0.00278392)
(5.50234 -0.151822 0.00275874)
(5.56102 -0.155067 0.00277124)
(5.54201 -0.150957 0.00272293)
(5.66295 -0.152878 0.00276607)
(5.57324 -0.152027 0.00276717)
(4.5149 -0.0118175 0.00303598)
(4.62773 0.00474149 0.00373216)
(4.74517 0.0239386 0.00284036)
(4.90509 0.0460518 0.00335867)
(5.02411 0.0690781 0.00278648)
(5.1291 0.0937237 0.00316412)
(5.19245 0.115954 0.00279357)
(5.24746 0.133412 0.00303965)
(5.28582 0.144465 0.0028019)
(5.32363 0.150418 0.00294745)
(5.35544 0.15297 0.00280288)
(5.38765 0.153573 0.00287382)
(5.41864 0.154164 0.00279616)
(5.44785 0.153101 0.00281188)
(5.48397 0.154712 0.00278383)
(5.50237 0.15205 0.00275897)
(5.56101 0.154975 0.00277088)
(5.54208 0.151548 0.00272344)
(5.66302 0.153104 0.00276484)
(5.57345 0.15341 0.00276794)
(4.51617 -0.0165794 0.00270379)
(4.63538 -0.0549946 0.00337234)
(4.75473 -0.0889848 0.00247356)
(4.91725 -0.109327 0.00298584)
(5.0368 -0.118556 0.00241531)
(5.13965 -0.126297 0.00279528)
(5.1989 -0.135025 0.00242803)
(5.24959 -0.144061 0.00267549)
(5.2846 -0.150295 0.00243871)
(5.32044 -0.153726 0.00258401)
(5.35128 -0.154893 0.00243948)
(5.38332 -0.155088 0.00251006)
(5.41397 -0.154886 0.00243243)
(5.44393 -0.155111 0.00244782)
(5.47868 -0.153657 0.00241993)
(5.49974 -0.157069 0.00239499)
(5.55391 -0.149733 0.00240598)
(5.54179 -0.16326 0.00235967)
(5.65376 -0.14544 0.00238022)
(5.57278 -0.181328 0.00239101)
(4.5149 -0.043881 0.00340288)
(4.63405 -0.0488205 0.00411408)
(4.76216 -0.043501 0.00320462)
(4.93143 -0.0191491 0.00372603)
(5.05042 0.0189187 0.00315599)
(5.14618 0.0618371 0.00353234)
(5.19712 0.0981274 0.00315931)
(5.24073 0.123848 0.00340419)
(5.27092 0.139016 0.00316622)
(5.30349 0.146849 0.00331282)
(5.33245 0.150255 0.00316831)
(5.36338 0.151091 0.00323954)
(5.39336 0.152235 0.00316137)
(5.42363 0.150101 0.00317708)
(5.45677 0.154358 0.0031487)
(5.48114 0.146211 0.00312301)
(5.5289 0.158552 0.00313736)
(5.52688 0.138764 0.00308221)
(5.62022 0.159496 0.00314463)
(5.55156 0.122283 0.00314777)
(4.51823 -0.0454808 0.00238674)
(4.66913 -0.108914 0.00299331)
(4.80707 -0.158519 0.00206126)
(4.96431 -0.174167 0.00257764)
(5.0536 -0.164383 0.00202353)
(5.1147 -0.151835 0.00241451)
(5.13559 -0.146409 0.00205488)
(5.15757 -0.148222 0.00230558)
(5.17537 -0.151305 0.00207091)
(5.2024 -0.15372 0.00221685)
(5.22959 -0.154577 0.00207221)
(5.26084 -0.154924 0.00214204)
(5.29005 -0.154526 0.00206348)
(5.32345 -0.155605 0.00207835)
(5.35036 -0.152298 0.00204996)
(5.38814 -0.159903 0.0020243)
(5.41121 -0.144996 0.00203572)
(5.4514 -0.171577 0.00198397)
(5.48055 -0.135031 0.00199262)
(5.50083 -0.201923 0.00201043)
(4.54224 -0.0871918 0.0038183)
(4.69439 -0.117427 0.00453475)
(4.74348 -0.116045 0.00356972)
(4.74799 -0.0756719 0.00408302)
(4.69602 -0.0125165 0.00351956)
(4.66502 0.0511194 0.00389841)
(4.64188 0.0977765 0.00352672)
(4.64662 0.125956 0.00377342)
(4.65862 0.139592 0.00353659)
(4.68203 0.145564 0.00368461)
(4.70681 0.147518 0.00353928)
(4.73487 0.148029 0.00361019)
(4.76248 0.148525 0.00353071)
(4.79351 0.147136 0.00354612)
(4.81694 0.150347 0.0035172)
(4.86018 0.143186 0.0034905)
(4.86088 0.155068 0.00350669)
(4.94137 0.133249 0.00343996)
(4.88087 0.159585 0.00350621)
(5.0243 0.108569 0.00350359)
(4.37886 -0.0973087 0.00202845)
(3.98469 -0.148914 0.00257546)
(3.46101 -0.159304 0.00162131)
(3.02592 -0.144727 0.00216126)
(2.7091 -0.126294 0.00162488)
(2.56207 -0.120233 0.0020207)
(2.50235 -0.125006 0.00165711)
(2.5022 -0.135306 0.00190349)
(2.51101 -0.143723 0.00166372)
(2.52765 -0.149223 0.00180758)
(2.54135 -0.151566 0.00166071)
(2.55614 -0.152548 0.00172999)
(2.57033 -0.152884 0.00165058)
(2.58597 -0.152741 0.00166559)
(2.59675 -0.152566 0.0016366)
(2.62508 -0.154013 0.00161036)
(2.60488 -0.149159 0.00162416)
(2.69403 -0.159253 0.00156111)
(2.55766 -0.13984 0.0015872)
(2.81175 -0.160477 0.00158461)
(4.37886 0.0973089 -0.00202847)
(3.98469 0.148914 -0.00257547)
(3.46101 0.159304 -0.00162132)
(3.02592 0.144727 -0.00216127)
(2.7091 0.126294 -0.00162489)
(2.56207 0.120234 -0.00202071)
(2.50235 0.125006 -0.00165712)
(2.5022 0.135307 -0.0019035)
(2.51101 0.143722 -0.00166373)
(2.52765 0.149224 -0.00180758)
(2.54135 0.151565 -0.00166071)
(2.55613 0.152553 -0.00172999)
(2.57032 0.152878 -0.00165058)
(2.58592 0.152759 -0.00166556)
(2.59673 0.152541 -0.00163667)
(2.62491 0.15408 -0.00161015)
(2.60477 0.149077 -0.00162462)
(2.69328 0.15944 -0.00156022)
(2.55741 0.139678 -0.00158861)
(2.80813 0.160768 -0.00158241)
(4.54224 0.087192 -0.00381831)
(4.69439 0.117427 -0.00453476)
(4.74348 0.116045 -0.00356974)
(4.74799 0.0756719 -0.00408304)
(4.69602 0.0125167 -0.00351957)
(4.66502 -0.0511194 -0.00389842)
(4.64188 -0.0977762 -0.00352673)
(4.64662 -0.125956 -0.00377343)
(4.65862 -0.139591 -0.00353661)
(4.68203 -0.145564 -0.00368461)
(4.70682 -0.147516 -0.0035393)
(4.73485 -0.148026 -0.00361015)
(4.76252 -0.148526 -0.00353078)
(4.79338 -0.147112 -0.00354592)
(4.81708 -0.150366 -0.00351758)
(4.85976 -0.143069 -0.00348977)
(4.86119 -0.155125 -0.0035079)
(4.94025 -0.132841 -0.00343817)
(4.88114 -0.159558 -0.00350889)
(5.02129 -0.107402 -0.00350078)
(4.51823 0.0454811 -0.00238675)
(4.66913 0.108914 -0.00299332)
(4.80707 0.158519 -0.00206127)
(4.96431 0.174167 -0.00257766)
(5.0536 0.164383 -0.00202355)
(5.1147 0.151835 -0.00241452)
(5.13559 0.146409 -0.00205489)
(5.15757 0.148223 -0.00230559)
(5.17537 0.151304 -0.00207091)
(5.2024 0.153724 -0.00221686)
(5.22959 0.154572 -0.00207221)
(5.26085 0.154941 -0.00214204)
(5.29003 0.154506 -0.00206348)
(5.32344 0.155667 -0.00207835)
(5.35033 0.152234 -0.00204997)
(5.38808 0.160103 -0.0020243)
(5.41111 0.144864 -0.00203573)
(5.45117 0.172085 -0.00198396)
(5.48023 0.135054 -0.00199209)
(5.49978 0.203101 -0.00201076)
(4.5149 0.0438814 -0.00340289)
(4.63405 0.0488206 -0.00411409)
(4.76216 0.0435011 -0.00320463)
(4.93143 0.0191494 -0.00372604)
(5.05042 -0.0189184 -0.003156)
(5.14618 -0.0618369 -0.00353235)
(5.19712 -0.0981271 -0.00315932)
(5.24072 -0.123848 -0.0034042)
(5.27092 -0.139016 -0.00316623)
(5.30349 -0.146847 -0.00331282)
(5.33245 -0.150257 -0.00316833)
(5.36337 -0.151078 -0.00323952)
(5.39335 -0.152251 -0.00316141)
(5.42362 -0.150042 -0.00317698)
(5.45675 -0.154412 -0.00314881)
(5.4811 -0.146005 -0.00312274)
(5.52882 -0.158651 -0.00313779)
(5.52671 -0.13819 -0.00308163)
(5.61992 -0.159351 -0.00314588)
(5.55083 -0.120866 -0.00314705)
(4.51617 0.0165799 -0.0027038)
(4.63538 0.0549947 -0.00337235)
(4.75473 0.0889849 -0.00247357)
(4.91725 0.109327 -0.00298585)
(5.0368 0.118556 -0.00241532)
(5.13965 0.126298 -0.00279529)
(5.1989 0.135025 -0.00242804)
(5.24959 0.144062 -0.0026755)
(5.2846 0.150294 -0.00243872)
(5.32044 0.15373 -0.00258401)
(5.35127 0.154888 -0.00243948)
(5.38332 0.155107 -0.00251007)
(5.41395 0.154863 -0.00243241)
(5.44395 0.155183 -0.00244786)
(5.47862 0.153591 -0.00241987)
(5.49978 0.157296 -0.00239517)
(5.5538 0.149627 -0.00240568)
(5.54178 0.163831 -0.00236008)
(5.6536 0.145626 -0.00237908)
(5.57249 0.182643 -0.00239172)
(4.5149 0.0118179 -0.003036)
(4.62773 -0.00474133 -0.00373217)
(4.74517 -0.0239384 -0.00284038)
(4.90509 -0.0460515 -0.00335868)
(5.02411 -0.0690778 -0.00278649)
(5.1291 -0.0937234 -0.00316413)
(5.19245 -0.115954 -0.00279358)
(5.24746 -0.133411 -0.00303966)
(5.28582 -0.144466 -0.00280191)
(5.32363 -0.150415 -0.00294745)
(5.35544 -0.152975 -0.00280289)
(5.38764 -0.153556 -0.0028738)
(5.41865 -0.154186 -0.00279618)
(5.44784 -0.153031 -0.0028118)
(5.48398 -0.154773 -0.00278391)
(5.50234 -0.151823 -0.00275873)
(5.56102 -0.155067 -0.00277122)
(5.54201 -0.150958 -0.00272291)
(5.66295 -0.152878 -0.00276605)
(5.57324 -0.152027 -0.00276715)
(4.5149 -0.0118174 -0.003036)
(4.62773 0.00474158 -0.00373217)
(4.74517 0.0239385 -0.00284038)
(4.90509 0.0460516 -0.00335868)
(5.02411 0.0690779 -0.00278649)
(5.1291 0.0937235 -0.00316413)
(5.19245 0.115954 -0.00279358)
(5.24746 0.133412 -0.00303966)
(5.28582 0.144465 -0.00280191)
(5.32363 0.150418 -0.00294746)
(5.35544 0.15297 -0.00280288)
(5.38765 0.153573 -0.00287382)
(5.41864 0.154164 -0.00279616)
(5.44785 0.1531 -0.00281187)
(5.48397 0.154712 -0.00278382)
(5.50237 0.152049 -0.00275896)
(5.56101 0.154974 -0.00277086)
(5.54208 0.151548 -0.00272342)
(5.66302 0.153104 -0.00276482)
(5.57345 0.15341 -0.00276792)
(4.51617 -0.0165793 -0.0027038)
(4.63538 -0.0549945 -0.00337235)
(4.75473 -0.0889848 -0.00247357)
(4.91725 -0.109327 -0.00298585)
(5.0368 -0.118556 -0.00241532)
(5.13965 -0.126297 -0.00279529)
(5.1989 -0.135025 -0.00242804)
(5.24959 -0.144061 -0.0026755)
(5.2846 -0.150295 -0.00243872)
(5.32044 -0.153727 -0.00258401)
(5.35128 -0.154894 -0.00243948)
(5.38331 -0.155089 -0.00251006)
(5.41397 -0.154887 -0.00243242)
(5.44392 -0.155111 -0.00244781)
(5.47867 -0.153657 -0.00241992)
(5.49974 -0.15707 -0.00239498)
(5.55391 -0.149733 -0.00240597)
(5.54179 -0.16326 -0.00235965)
(5.65376 -0.14544 -0.0023802)
(5.57278 -0.181328 -0.00239099)
(4.5149 -0.0438809 -0.00340289)
(4.63405 -0.0488205 -0.00411409)
(4.76216 -0.0435011 -0.00320463)
(4.93143 -0.0191494 -0.00372604)
(5.05042 0.0189184 -0.003156)
(5.14618 0.0618368 -0.00353235)
(5.19712 0.0981273 -0.00315932)
(5.24072 0.123848 -0.0034042)
(5.27092 0.139016 -0.00316623)
(5.30349 0.146849 -0.00331282)
(5.33245 0.150254 -0.00316831)
(5.36337 0.15109 -0.00323954)
(5.39335 0.152235 -0.00316137)
(5.42363 0.1501 -0.00317708)
(5.45677 0.154358 -0.00314868)
(5.48114 0.146211 -0.003123)
(5.5289 0.158552 -0.00313735)
(5.52688 0.138764 -0.00308219)
(5.62021 0.159496 -0.00314461)
(5.55156 0.122283 -0.00314775)
(4.51823 -0.0454807 -0.00238675)
(4.66913 -0.108914 -0.00299332)
(4.80707 -0.158519 -0.00206127)
(4.96431 -0.174167 -0.00257766)
(5.0536 -0.164383 -0.00202354)
(5.1147 -0.151835 -0.00241452)
(5.13559 -0.146409 -0.00205489)
(5.15757 -0.148223 -0.00230559)
(5.17537 -0.151306 -0.00207092)
(5.2024 -0.15372 -0.00221686)
(5.22959 -0.154577 -0.00207221)
(5.26084 -0.154925 -0.00214204)
(5.29005 -0.154527 -0.00206348)
(5.32345 -0.155606 -0.00207834)
(5.35036 -0.152298 -0.00204995)
(5.38813 -0.159904 -0.00202428)
(5.41121 -0.144997 -0.0020357)
(5.4514 -0.171577 -0.00198395)
(5.48055 -0.135031 -0.0019926)
(5.50083 -0.201924 -0.00201041)
(4.54224 -0.0871917 -0.00381831)
(4.69439 -0.117427 -0.00453476)
(4.74348 -0.116045 -0.00356974)
(4.74799 -0.0756718 -0.00408304)
(4.69602 -0.0125165 -0.00351957)
(4.66502 0.0511194 -0.00389842)
(4.64188 0.0977765 -0.00352673)
(4.64662 0.125956 -0.00377343)
(4.65862 0.139593 -0.0035366)
(4.68203 0.145564 -0.00368461)
(4.70681 0.147518 -0.00353928)
(4.73487 0.148029 -0.00361019)
(4.76248 0.148525 -0.0035307)
(4.79351 0.147136 -0.00354611)
(4.81694 0.150347 -0.00351719)
(4.86018 0.143186 -0.00349048)
(4.86088 0.155068 -0.00350667)
(4.94137 0.133249 -0.00343994)
(4.88087 0.159585 -0.00350619)
(5.0243 0.108569 -0.00350357)
(4.37886 -0.0973089 -0.00202847)
(3.98469 -0.148914 -0.00257547)
(3.46101 -0.159304 -0.00162132)
(3.02592 -0.144726 -0.00216127)
(2.7091 -0.126294 -0.00162489)
(2.56207 -0.120233 -0.00202071)
(2.50235 -0.125005 -0.00165711)
(2.5022 -0.135306 -0.0019035)
(2.51101 -0.143722 -0.00166373)
(2.52765 -0.149222 -0.00180758)
(2.54135 -0.151566 -0.00166071)
(2.55614 -0.152548 -0.00172999)
(2.57033 -0.152884 -0.00165058)
(2.58597 -0.152741 -0.00166558)
(2.59675 -0.152566 -0.00163659)
(2.62508 -0.154013 -0.00161035)
(2.60488 -0.149158 -0.00162415)
(2.69403 -0.159252 -0.00156109)
(2.55766 -0.13984 -0.00158718)
(2.81175 -0.160476 -0.00158459)
(4.32641 0.565601 -0.00816994)
(3.09226 0.845913 -0.00570344)
(2.3293 0.867102 -0.00696518)
(1.76877 0.850464 -0.00548304)
(1.64177 0.85534 -0.00660001)
(1.47586 0.871066 -0.00540059)
(1.50842 0.884713 -0.00632898)
(1.43997 0.894822 -0.00532588)
(1.48352 0.899277 -0.0060945)
(1.43996 0.902185 -0.00524568)
(1.47158 0.902816 -0.00587127)
(1.44058 0.903648 -0.00514929)
(1.46295 0.903321 -0.00565379)
(1.44118 0.903897 -0.00504003)
(1.4573 0.9026 -0.00544242)