/*--------------------------------*- C++ -*----------------------------------*\
  =========                 |
  \\      /  F ield         | OpenFOAM: The Open Source CFD Toolbox
   \\    /   O peration     | Website:  https://openfoam.org
    \\  /    A nd           | Version:  7
     \\/     M anipulation  |
\*---------------------------------------------------------------------------*/
FoamFile
{
    version     2.0;
    format      ascii;
    class       volScalarField;
    location    "2.6225";
    object      pPrime2Mean;
}
// * * * * * * * * * * * * * * * * * * * * * * * * * * * * * * * * * * * * * //

dimensions      [2 -2 -4 0 0 0 0];

internalField   nonuniform List<scalar> 
4950
(
557662
556980
557007
556273
556255
555375
555264
554251
554027
552909
552583
551397
550990
549763
549292
548032
547506
546215
545658
544465
557734
557008
557010
556250
556222
555331
555221
554205
553986
552866
552544
551355
550949
549717
549244
547978
547447
546151
545577
544407
557671
556941
556952
556210
556191
555311
555199
554188
553968
552853
552530
551346
550940
549714
549244
547983
547456
546159
545594
544327
557751
557002
556995
556228
556197
555303
555191
554176
553959
552844
552525
551339
550936
549707
549237
547972
547440
546145
545557
544314
557680
556939
556946
556202
556181
555301
555190
554179
553959
552845
552524
551340
550936
549711
549243
547983
547456
546159
545584
544292
557751
557002
556995
556228
556197
555303
555191
554176
553959
552844
552525
551339
550936
549707
549237
547973
547440
546145
545557
544314
557671
556941
556952
556210
556191
555311
555200
554188
553968
552853
552530
551346
550940
549714
549244
547983
547456
546159
545593
544327
557734
557008
557010
556250
556222
555331
555221
554205
553986
552866
552544
551355
550948
549717
549244
547978
547446
546152
545576
544407
557662
556980
557007
556273
556255
555375
555264
554251
554027
552909
552583
551397
550990
549763
549292
548032
547506
546215
545658
544465
556935
555978
556226
555274
555522
554472
554595
553425
553412
552158
552029
550729
550504
549180
548873
547531
547147
545785
545349
543999
556921
555924
556186
555243
555494
554454
554582
553424
553417
552174
552048
550755
550532
549213
548906
547570
547187
545831
545416
544012
556972
555986
556231
555268
555510
554460
554589
553427
553423
552177
552054
550758
550537
549215
548908
547565
547177
545808
545356
543959
556940
555933
556188
555229
555474
554431
554562
553408
553406
552167
552044
550755
550534
549218
548914
547579
547196
545831
545411
543973
556983
555987
556227
555259
555497
554445
554576
553417
553415
552171
552050
550755
550535
549214
548909
547566
547178
545806
545355
543941
556940
555933
556188
555229
555474
554431
554562
553408
553406
552167
552044
550755
550534
549218
548914
547579
547196
545832
545411
543973
556972
555986
556231
555268
555510
554460
554589
553427
553423
552177
552054
550758
550537
549215
548908
547565
547176
545808
545356
543959
556921
555924
556186
555243
555494
554454
554582
553424
553417
552174
552048
550755
550532
549213
548906
547570
547187
545832
545415
544013
556935
555978
556226
555274
555522
554472
554595
553425
553411
552158
552029
550729
550504
549180
548873
547531
547146
545785
545348
544000
556648
555691
555837
554910
555090
554108
554227
553130
553122
551917
551795
550525
550313
549002
548713
547365
547008
545616
545232
543871
556673
555706
555845
554916
555092
554106
554223
553126
553121
551919
551801
550534
550324
549013
548724
547374
547016
545622
545234
543834
556672
555711
555849
554914
555084
554092
554208
553113
553113
551915
551800
550534
550326
549018
548730
547381
547022
545627
545233
543824
556687
555719
555854
554918
555086
554093
554206
553111
553109
551911
551796
550531
550324
549016
548730
547381
547024
545628
545234
543820
556680
555717
555852
554915
555082
554087
554201
553107
553108
551911
551797
550532
550325
549017
548731
547383
547025
545629
545234
543823
556687
555719
555854
554918
555086
554093
554206
553111
553109
551911
551796
550531
550324
549016
548730
547381
547024
545628
545234
543820
556672
555711
555849
554914
555084
554092
554208
553113
553113
551915
551800
550534
550326
549018
548730
547382
547022
545627
545233
543824
556673
555706
555845
554916
555092
554106
554223
553126
553121
551919
551801
550534
550324
549014
548724
547375
547016
545623
545234
543835
556648
555691
555837
554910
555090
554108
554227
553130
553122
551917
551795
550525
550313
549002
548713
547365
547008
545618
545230
543873
556935
555978
556226
555274
555522
554473
554595
553425
553412
552158
552029
550729
550504
549180
548873
547531
547147
545785
545349
543999
556921
555924
556186
555243
555494
554454
554582
553424
553417
552174
552048
550755
550532
549213
548906
547570
547187
545832
545416
544012
556972
555987
556231
555268
555510
554460
554589
553427
553423
552177
552054
550759
550537
549215
548908
547565
547177
545808
545356
543959
556940
555933
556188
555229
555474
554431
554562
553408
553406
552167
552044
550755
550534
549218
548914
547579
547196
545832
545411
543973
556983
555987
556228
555259
555497
554445
554576
553417
553415
552171
552050
550756
550535
549214
548909
547566
547178
545806
545355
543942
556940
555933
556188
555229
555474
554431
554562
553408
553406
552167
552044
550755
550534
549218
548914
547579
547196
545832
545411
543973
556972
555987
556231
555268
555510
554460
554589
553427
553423
552177
552054
550759
550537
549215
548908
547565
547176
545809
545356
543959
556921
555924
556186
555243
555494
554454
554582
553424
553417
552174
552048
550755
550532
549213
548906
547570
547187
545832
545415
544013
556935
555978
556226
555274
555522
554473
554595
553425
553412
552158
552029
550729
550504
549180
548873
547531
547147
545785
545348
544000
557662
556980
557008
556273
556256
555375
555264
554251
554027
552909
552583
551397
550990
549763
549292
548032
547506
546215
545658
544465
557734
557008
557011
556250
556223
555331
555222
554205
553986
552866
552544
551355
550949
549717
549244
547978
547447
546152
545578
544407
557671
556941
556952
556211
556191
555311
555200
554189
553968
552853
552530
551346
550940
549714
549245
547983
547456
546159
545594
544327
557751
557002
556995
556229
556197
555303
555191
554176
553959
552844
552525
551339
550937
549707
549237
547973
547440
546145
545557
544314
557680
556940
556946
556202
556181
555301
555190
554179
553959
552845
552524
551341
550936
549711
549243
547983
547456
546160
545584
544293
557751
557002
556995
556229
556197
555303
555191
554176
553959
552844
552525
551339
550937
549707
549237
547973
547440
546146
545557
544314
557671
556941
556952
556211
556191
555311
555200
554189
553968
552853
552530
551346
550940
549714
549245
547984
547456
546159
545593
544327
557734
557008
557011
556250
556223
555331
555222
554205
553986
552866
552544
551355
550949
549717
549244
547978
547447
546152
545577
544407
557662
556980
557008
556273
556256
555375
555264
554251
554027
552909
552583
551397
550990
549763
549292
548032
547506
546215
545658
544465
542772
537210
534794
529117
526219
520303
516991
510871
507181
500875
496834
490357
485989
479355
474684
467906
462952
456042
450826
443796
438337
431195
425512
418271
412382
405050
398972
391560
385310
377828
371423
363880
357336
349743
343075
335444
328669
321009
314145
306471
299536
291863
284870
277187
270119
262432
255336
247692
240599
233010
225943
218426
211401
203968
197002
189665
182774
175544
168743
161632
154939
147957
141389
134548
128122
121435
115169
108649
102563
96224.3
90338.3
84195.3
78532.5
72600.1
67184.3
61482.5
56338.1
50883.8
46044.4
40862.6
36355
31470.5
27340.8
22782.4
19063.8
14918.7
11713
7919.43
5211.44
2302.27
542599
536945
534507
528811
525903
519972
516650
510517
506819
500504
496457
489974
485602
478965
474290
467512
462556
455647
450431
443402
437944
430806
425125
417888
412001
404674
398600
391193
384947
377471
371070
363533
356993
349407
342744
335119
328350
320696
313838
306170
299242
291575
284588
276912
269850
262169
255080
247442
240356
232774
225712
218203
211183
203758
196797
189467
182582
175359
168565
161459
154773
147797
141235
134400
127980
121300
115040
108526
102446
96113.4
90233.2
84096.2
78439
72512.6
67102.3
61406.4
56267.4
50818.8
45984.7
40808.5
36306.1
31426.9
27302.2
22749
19035.2
14894.9
11693.7
7904.64
5200.72
2295.04
542470
536992
534570
528896
525998
520084
516770
510651
506961
500657
496615
490141
485773
479142
474472
467697
462744
455838
450623
443596
438139
431001
425320
418082
412195
404867
398792
391383
385136
377658
371255
363716
357174
349585
342920
335291
328519
320863
314001
306331
299399
291729
284739
277059
269994
262309
255217
247575
240486
232900
225835
218321
211298
203869
196905
189571
182682
175455
168658
161548
154858
147879
141313
134475
128051
121367
115104
108587
102503
96166.9
90283.6
84143.1
78482.8
72553
67139.7
61440.6
56298.7
50847
46010.2
40831
36326
31444.1
27317.1
22761.3
19045.3
14902.9
11699.9
7908.94
5203.09
2296.76
542491
536848
534394
528695
525786
519853
516528
510393
506693
500377
496328
489844
485471
478833
474157
467378
462422
455513
450296
443267
437809
430671
424990
417753
411867
404540
398466
391060
384815
377339
370939
363404
356865
349280
342618
334994
328226
320574
313717
306051
299124
291459
284473
276799
269738
262060
254973
247336
240252
232672
225612
218104
211087
203664
196705
189377
182494
175273
168481
161378
154694
147720
141160
134328
127910
121232
114974
108463
102386
96055.1
90177.3
84042.8
78388.1
72464.2
67056.5
61363.1
56226.7
50780.7
45949.3
40775.7
36275.9
31399.4
27277.5
22727
19015.9
14878.4
11680
7893.67
5192.55
2289.66
542441
536977
534543
528870
525973
520060
516746
510626
506935
500631
496589
490115
485747
479116
474444
467670
462717
455810
450595
443567
438110
430972
425291
418052
412165
404837
398761
391353
385105
377627
371224
363685
357142
349553
342888
335260
328488
320831
313970
306299
299368
291697
284708
277028
269963
262279
255187
247545
240456
232870
225806
218292
211270
203841
196877
189544
182656
175429
168632
161523
154834
147855
141290
134452
128029
121346
115083
108567
102484
96148.4
90265.8
84126.1
78466.5
72537.5
67125
61426.7
56285.6
50834.7
45998.7
40820.4
36316.3
31435.2
27309.1
22754.1
19039.1
14897.5
11695.5
7905.33
5200.28
2294.88
542491
536844
534388
528688
525778
519845
516519
510384
506683
500367
496318
489834
485460
478822
474146
467367
462411
455501
450285
443256
437798
430660
424979
417742
411856
404529
398455
391049
384804
377329
370929
363394
356855
349270
342608
334984
328216
320565
313708
306042
299115
291450
284465
276790
269730
262052
254965
247329
240245
232665
225605
218097
211080
203657
196699
189371
182488
175267
168475
161372
154688
147715
141155
134323
127905
121227
114970
108459
102382
96051.2
90173.7
84039.3
78384.8
72461.1
67053.6
61360.3
56224.1
50778.3
45947.1
40773.6
36274.1
31397.7
27276
22725.6
19014.8
14877.4
11679.2
7893.02
5192.09
2289.31
542469
536989
534566
528894
525997
520084
516771
510652
506961
500658
496617
490143
485775
479144
474474
467699
462747
455840
450626
443598
438142
431004
425323
418085
412198
404870
398795
391386
385139
377660
371258
363719
357177
349588
342922
335294
328522
320866
314004
306333
299402
291731
284741
277061
269996
262312
255220
247578
240488
232902
225837
218323
211301
203871
196907
189573
182684
175457
168660
161550
154860
147881
141315
134477
128053
121369
115106
108588
102505
96168.7
90285.3
84144.9
78484.5
72554.7
67141.4
61442.1
56300.2
50848.5
46011.6
40832.4
36327.3
31445.3
27318.2
22762.3
19046.3
14903.8
11700.7
7909.56
5203.58
2297.02
542596
536930
534485
528786
525876
519944
516620
510486
506787
500472
496424
489941
485568
478931
474256
467477
462522
455613
450397
443368
437910
430772
425091
417854
411968
404641
398567
391161
384915
377439
371039
363503
356963
349377
342715
335090
328321
320668
313810
306143
299215
291549
284562
276887
269825
262145
255057
247419
240333
232752
225691
218181
211163
203737
196778
189448
182563
175340
168547
161442
154756
147781
141219
134385
127966
121286
115026
108513
102434
96101.4
90221.7
84085.3
78428.7
72502.8
67093.1
61397.7
56259.3
50811.2
45977.7
40802
36300.2
31421.6
27297.5
22744.8
19031.6
14891.9
11691.3
7902.66
5199.33
2294
542766
537204
534794
529123
526229
520316
517006
510888
507200
500895
496855
490379
486012
479379
474709
467932
462978
456069
450853
443822
438363
431222
425539
418298
412409
405077
398999
391587
385336
377854
371448
363906
357361
349768
343099
335467
328692
321032
314167
306493
299558
291884
284891
277208
270139
262452
255356
247711
240618
233029
225961
218444
211418
203985
197018
189681
182789
175559
168758
161646
154953
147970
141402
134560
128134
121447
115180
108660
102574
96234.2
90347.8
84204.4
78541.1
72608.3
67192
61489.8
56344.9
50890.2
46050.3
40868.1
36360
31475.1
27344.9
22786.1
19067
14921.5
11715.4
7921.43
5212.95
2303.25
542827
537075
534902
529106
526368
520362
517157
510966
507350
500986
496997
490472
486140
479466
474819
468007
463071
456131
450927
443871
438421
431257
425581
418320
412436
405088
399014
391588
385341
377847
371445
363893
357351
349750
343085
335447
328675
321010
314149
306470
299539
291863
284873
277188
270123
262433
255341
247695
240606
233016
225952
218435
211413
203980
197018
189681
182793
175564
168768
161656
154968
147986
141422
134582
128160
121474
115212
108692
102611
96271.7
90389.9
84246.5
78587.6
72654.3
67242.1
61538.5
56397.1
50939.8
46102.6
40916.5
36409.5
31519
27388
22821.8
19099.4
14944.8
11733.2
7927.68
5210.83
2294.39
542928
537284
535126
529349
526619
520631
517436
511260
507653
501302
497319
490804
486477
479810
475168
468361
463427
456490
451289
444233
438784
431620
425943
418681
412796
405446
399370
391941
385692
378194
371789
364232
357687
350082
343412
335769
328992
321322
314456
306772
299836
292153
285159
277467
270396
262700
255603
247950
240855
233259
226188
218665
211637
204198
197229
189886
182992
175756
168953
161836
155141
148153
141582
134736
128307
121615
115347
108821
102733
96387.9
90500
84350.3
78685.4
72745.8
67327.8
61618
56470.9
51007.5
46164.6
40972.7
36460.2
31564.1
27427.7
22856.1
19128.5
14968.9
11752.5
7942.17
5221.04
2300.68
542825
537141
534963
529175
526438
520432
517226
511035
507418
501055
497065
490541
486208
479534
474888
468076
463139
456200
450996
443939
438489
431326
425649
418388
412504
405155
399081
391655
385407
377913
371510
363957
357415
349814
343148
335509
328736
321070
314208
306529
299597
291920
284930
277243
270177
262487
255394
247746
240656
233065
226000
218482
211459
204025
197061
189724
182835
175604
168807
161694
155004
148021
141456
134615
128191
121504
115241
108720
102637
96297.2
90414.1
84269.5
78609.4
72674.7
67261.3
61556.4
56413.8
50955.3
46116.8
40929.5
36421.3
31529.7
27397.5
22830.1
19106.5
14950.9
11738.2
7931.67
5214
2296.39
542876
537300
535144
529370
526642
520655
517460
511284
507677
501326
497344
490828
486502
479834
475192
468385
463451
456514
451312
444256
438807
431643
425966
418704
412818
405467
399391
391962
385712
378214
371808
364252
357706
350100
343430
335787
329010
321339
314473
306788
299852
292169
285174
277481
270411
262715
255617
247963
240868
233272
226201
218677
211649
204209
197240
189896
183002
175766
168963
161845
155149
148161
141590
134743
128315
121622
115354
108827
102739
96393.7
90505.5
84355.6
78690.4
72750.5
67332.2
61622.1
56474.7
51011.1
46167.9
40975.7
36463
31566.6
27430
22858.1
19130.3
14970.4
11753.8
7943.19
5222.01
2301.25
542800
537125
534945
529160
526424
520419
517212
511020
507403
501040
497050
490525
486193
479519
474872
468060
463124
456184
450980
443924
438474
431310
425633
418373
412488
405140
399066
391640
385393
377898
371496
363943
357401
349800
343134
335495
328723
321057
314195
306516
299585
291907
284917
277231
270165
262475
255382
247735
240645
233054
225989
218471
211448
204015
197051
189714
182825
175595
168797
161685
154995
148013
141448
134607
128184
121497
115234
108713
102631
96290.7
90407.9
84263.5
78603.7
72669.3
67256.2
61551.5
56409.2
50951
46112.8
40925.8
36417.9
31526.5
27394.7
22827.6
19104.3
14949
11736.6
7930.42
5213.17
2295.75
542875
537299
535145
529373
526647
520662
517467
511291
507685
501334
497352
490837
486511
479844
475202
468394
463461
456524
451322
444266
438817
431653
425976
418714
412828
405477
399401
391972
385722
378224
371818
364261
357715
350109
343440
335796
329019
321348
314481
306797
299860
292177
285182
277489
270418
262722
255624
247971
240875
233279
226208
218684
211655
204216
197246
189903
183008
175772
168969
161850
155155
148166
141596
134748
128320
121627
115358
108832
102744
96397.9
90509.5
84359.4
78694
72754
67335.4
61625.2
56477.6
51013.8
46170.5
40978.1
36465.2
31568.6
27431.8
22859.7
19131.8
14971.7
11754.9
7944.08
5222.67
2301.67
542826
537134
534954
529165
526428
520422
517215
511023
507406
501043
497053
490528
486196
479522
474875
468063
463127
456187
450983
443927
438477
431313
425636
418376
412491
405143
399069
391643
385396
377902
371499
363946
357404
349803
343137
335499
328726
321060
314199
306520
299588
291911
284921
277234
270168
262478
255385
247738
240648
233058
225992
218474
211452
204018
197054
189717
182828
175598
168801
161688
154999
148016
141451
134610
128187
121499
115237
108716
102633
96293.3
90410.4
84266
78606.1
72671.6
67258.4
61553.7
56411.3
50952.9
46114.6
40927.5
36419.5
31528
27396
22828.8
19105.4
14950
11737.4
7931.09
5213.65
2296.07
542921
537277
535125
529353
526627
520642
517449
511275
507669
501319
497338
490823
486498
479831
475190
468382
463450
456513
451312
444256
438807
431643
425967
418705
412819
405469
399393
391964
385715
378217
371811
364254
357709
350103
343434
335790
329013
321342
314476
306792
299855
292172
285177
277485
270414
262718
255620
247967
240872
233276
226205
218681
211653
204213
197244
189901
183007
175770
168967
161849
155154
148165
141595
134748
128319
121626
115358
108832
102744
96397.8
90509.6
84359.5
78694.3
72754.3
67335.9
61625.7
56478.1
51014.4
46171.1
40978.7
36465.8
31569.2
27432.5
22860.4
19132.3
14972.2
11755.4
7944.5
5222.87
2301.83
542821
537054
534874
529076
526337
520330
517124
510932
507315
500951
496961
490436
486104
479429
474783
467971
463035
456095
450892
443835
438386
431222
425546
418286
412402
405054
398981
391555
385309
377816
371414
363862
357320
349721
343056
335418
328647
320982
314121
306444
299513
291837
284848
277163
270098
262409
255318
247672
240583
232994
225930
218414
211392
203960
196998
189662
182775
175546
168750
161639
154951
147970
141406
134567
128145
121460
115198
108679
102598
96259.8
90378.4
84235.6
78577.3
72644.4
67232.8
61529.7
56388.9
50932.1
46095.4
40909.9
36403.5
31513.6
27383.1
22817.5
19095.6
14941.7
11730.6
7925.71
5209.48
2293.36
542790
537345
535180
529501
526790
520835
517671
511500
507926
501564
497612
491079
486778
480091
475468
468640
463721
456765
451574
444500
439058
431878
426206
418929
413047
405684
399610
392169
385922
378414
372009
364443
357898
350285
343616
335965
329189
321512
314646
306956
300020
292332
285338
277641
270570
262870
255772
248115
241019
233419
226348
218821
211792
204350
197380
190034
183139
175900
169097
161976
155280
148289
141718
134868
128439
121743
115474
108945
102856
96506.7
90617.4
84463.5
78796.8
72852.4
67431.8
61716.7
56566.2
51096.8
46249.7
41050.9
36533.8
31630
27489.1
22908.9
19177.4
15008.3
11788.9
7966.78
5242.61
2309.25
542726
537329
535166
529488
526778
520823
517659
511488
507914
501553
497601
491069
486767
480081
475458
468631
463712
456756
451565
444492
439050
431870
426199
418922
413040
405677
399603
392163
385916
378408
372003
364438
357893
350280
343611
335961
329185
321508
314642
306953
300017
292329
285335
277638
270567
262867
255769
248112
241017
233417
226346
218819
211791
204348
197379
190032
183138
175899
169096
161975
155279
148288
141717
134867
128438
121742
115473
108944
102855
96506
90616.7
84462.8
78796.1
72851.8
67431.2
61716.1
56565.6
51096.3
46249.2
41050.5
36533.3
31629.6
27488.7
22908.6
19177.1
15008
11788.7
7966.57
5242.42
2309.07
542751
537338
535175
529498
526788
520834
517669
511498
507924
501562
497610
491078
486776
480090
475467
468639
463720
456764
451573
444499
439057
431877
426206
418929
413047
405683
399610
392169
385921
378413
372009
364443
357898
350285
343616
335965
329189
321512
314646
306956
300020
292332
285338
277641
270570
262870
255772
248115
241019
233419
226348
218821
211793
204350
197381
190034
183140
175900
169097
161976
155281
148289
141718
134868
128439
121743
115475
108945
102856
96507.1
90617.9
84463.9
78797.2
72852.8
67432.2
61717.1
56566.6
51097.2
46250.1
41051.3
36534.1
31630.3
27489.4
22909.2
19177.7
15008.5
11789.1
7966.97
5242.8
2309.24
542709
537312
535148
529475
526767
520813
517648
511476
507902
501542
497589
491058
486756
480070
475447
468620
463701
456745
451554
444481
439039
431860
426188
418912
413030
405667
399594
392153
385906
378398
371994
364429
357884
350271
343603
335952
329176
321499
314634
306944
300009
292321
285327
277630
270560
262860
255762
248105
241010
233410
226339
218812
211784
204342
197372
190026
183132
175893
169090
161969
155274
148283
141712
134862
128433
121738
115469
108940
102851
96502.2
90613.1
84459.4
78792.8
72848.7
67428.3
61713.3
56563
51093.8
46247
41048.4
36531.5
31627.9
27487.2
22907.2
19176
15007
11787.9
7965.91
5241.94
2308.67
542750
537334
535171
529497
526790
520837
517672
511499
507925
501564
497612
491080
486778
480091
475469
468641
463722
456766
451574
444501
439059
431879
426207
418930
413048
405685
399611
392170
385923
378414
372010
364444
357899
350286
343617
335966
329190
321513
314647
306957
300021
292333
285339
277642
270571
262871
255773
248115
241020
233420
226349
218822
211793
204351
197381
190035
183140
175901
169098
161977
155281
148290
141719
134869
128440
121744
115475
108945
102857
96507.5
90618.2
84464.2
78797.5
72853.1
67432.5
61717.3
56566.8
51097.4
46250.3
41051.5
36534.3
31630.5
27489.6
22909.4
19177.9
15008.6
11789.3
7967.11
5242.92
2309.27
542709
537310
535147
529474
526767
520813
517648
511476
507902
501542
497590
491058
486756
480070
475447
468620
463701
456746
451554
444481
439040
431860
426189
418912
413031
405667
399594
392154
385906
378399
371994
364429
357885
350271
343603
335952
329177
321500
314634
306945
300009
292321
285327
277631
270560
262860
255762
248105
241010
233410
226340
218813
211785
204342
197373
190027
183133
175893
169090
161970
155274
148283
141712
134863
128434
121738
115469
108940
102852
96502.5
90613.4
84459.7
78793.2
72849
67428.6
61713.6
56563.3
51094.1
46247.2
41048.7
36531.7
31628.1
27487.4
22907.4
19176.2
15007.1
11788
7966.05
5242.07
2308.74
542751
537335
535170
529494
526786
520832
517667
511495
507921
501560
497608
491076
486774
480088
475465
468637
463718
456762
451571
444498
439056
431875
426204
418927
413045
405682
399608
392167
385920
378412
372007
364442
357897
350283
343615
335964
329188
321511
314645
306955
300020
292331
285337
277640
270570
262869
255771
248114
241019
233419
226348
218821
211792
204350
197380
190034
183139
175900
169097
161976
155280
148289
141718
134868
128439
121743
115474
108945
102856
96507.1
90617.9
84464
78797.3
72852.9
67432.3
61717.2
56566.7
51097.3
46250.2
41051.5
36534.3
31630.5
27489.6
22909.4
19177.9
15008.7
11789.3
7967.16
5242.98
2309.3
542723
537318
535154
529477
526768
520814
517649
511478
507904
501543
497591
491059
486758
480072
475449
468622
463703
456747
451556
444483
439041
431862
426190
418914
413032
405669
399596
392155
385908
378400
371996
364430
357886
350273
343604
335954
329178
321501
314636
306946
300011
292323
285329
277632
270562
262862
255764
248107
241012
233412
226341
218814
211786
204344
197374
190028
183134
175895
169092
161971
155276
148284
141714
134864
128435
121739
115471
108941
102853
96503.7
90614.6
84460.8
78794.3
72850.1
67429.6
61714.6
56564.3
51095.1
46248.1
41049.5
36532.5
31628.9
27488.1
22908.1
19176.8
15007.7
11788.5
7966.46
5242.4
2308.96
542782
537325
535159
529481
526771
520817
517653
511482
507908
501547
497595
491063
486762
480075
475453
468625
463706
456751
451559
444486
439045
431865
426193
418917
413035
405671
399598
392158
385910
378402
371998
364432
357888
350274
343606
335955
329179
321503
314637
306947
300012
292324
285330
277633
270562
262862
255764
248107
241012
233412
226341
218814
211786
204344
197374
190028
183134
175895
169092
161971
155275
148284
141713
134864
128435
121739
115470
108941
102853
96503.5
90614.4
84460.7
78794.1
72849.9
67429.5
61714.5
56564.2
51095
46248.1
41049.5
36532.5
31628.9
27488.2
22908.2
19176.8
15007.8
11788.6
7966.64
5242.61
2309.11
542827
537076
534902
529106
526368
520362
517157
510966
507350
500986
496997
490472
486140
479466
474819
468007
463071
456131
450928
443871
438421
431257
425581
418320
412436
405088
399014
391588
385341
377848
371445
363893
357351
349750
343085
335447
328675
321010
314149
306470
299539
291863
284873
277188
270123
262433
255341
247695
240606
233016
225952
218435
211413
203980
197018
189681
182793
175564
168768
161656
154968
147986
141422
134582
128160
121474
115212
108692
102611
96271.8
90389.9
84246.5
78587.7
72654.3
67242.1
61538.5
56397.1
50939.8
46102.6
40916.5
36409.5
31519
27388
22821.8
19099.4
14944.8
11733.2
7927.68
5210.83
2294.39
542928
537284
535126
529349
526619
520631
517436
511260
507653
501302
497319
490804
486478
479810
475168
468361
463427
456490
451289
444233
438784
431620
425944
418682
412796
405446
399370
391941
385692
378194
371789
364232
357687
350082
343412
335769
328992
321322
314456
306772
299836
292153
285159
277467
270396
262700
255603
247950
240855
233259
226188
218665
211637
204198
197229
189886
182992
175756
168953
161836
155141
148153
141582
134736
128307
121615
115347
108821
102733
96387.9
90500
84350.3
78685.4
72745.8
67327.8
61618
56470.9
51007.5
46164.6
40972.7
36460.2
31564.1
27427.7
22856.1
19128.5
14968.9
11752.5
7942.17
5221.04
2300.68
542825
537141
534963
529175
526438
520432
517226
511035
507418
501055
497065
490541
486209
479535
474888
468076
463140
456200
450996
443939
438489
431326
425649
418388
412504
405155
399081
391655
385408
377913
371510
363958
357415
349814
343148
335509
328736
321071
314208
306529
299597
291920
284930
277243
270177
262487
255394
247746
240656
233065
226000
218482
211459
204025
197061
189724
182835
175604
168807
161694
155004
148021
141456
134615
128191
121504
115241
108720
102637
96297.2
90414.1
84269.5
78609.4
72674.7
67261.3
61556.4
56413.8
50955.3
46116.8
40929.5
36421.3
31529.7
27397.5
22830.1
19106.5
14950.9
11738.2
7931.67
5214
2296.39
542876
537300
535144
529370
526642
520656
517460
511284
507677
501326
497344
490828
486502
479835
475193
468385
463451
456514
451312
444256
438807
431643
425966
418704
412818
405467
399391
391962
385712
378214
371808
364252
357706
350100
343431
335787
329010
321339
314473
306788
299852
292169
285174
277482
270411
262715
255617
247963
240868
233272
226201
218677
211649
204209
197240
189896
183002
175766
168963
161845
155149
148161
141590
134743
128315
121622
115354
108827
102739
96393.7
90505.5
84355.6
78690.4
72750.5
67332.2
61622.1
56474.7
51011.1
46167.9
40975.7
36463
31566.6
27430
22858.1
19130.3
14970.4
11753.8
7943.19
5222.01
2301.25
542800
537125
534946
529160
526424
520419
517212
511020
507403
501040
497050
490525
486193
479519
474872
468060
463124
456184
450980
443924
438474
431310
425633
418373
412488
405140
399066
391640
385393
377899
371496
363943
357401
349800
343134
335495
328723
321057
314195
306516
299585
291907
284917
277231
270165
262475
255382
247735
240645
233054
225989
218471
211448
204015
197051
189714
182825
175595
168797
161685
154995
148013
141448
134607
128184
121497
115234
108713
102631
96290.7
90407.9
84263.5
78603.7
72669.3
67256.2
61551.5
56409.2
50951
46112.8
40925.8
36417.9
31526.5
27394.7
22827.6
19104.3
14949
11736.6
7930.42
5213.17
2295.75
542875
537299
535146
529373
526647
520662
517467
511291
507685
501334
497353
490837
486511
479844
475202
468394
463461
456524
451322
444266
438817
431653
425976
418714
412828
405477
399401
391972
385722
378224
371818
364261
357715
350109
343440
335796
329019
321348
314481
306797
299860
292177
285182
277489
270418
262722
255624
247971
240875
233279
226208
218684
211655
204216
197246
189903
183008
175772
168969
161851
155155
148166
141596
134748
128320
121627
115358
108832
102744
96397.9
90509.5
84359.4
78694
72754
67335.5
61625.2
56477.6
51013.8
46170.5
40978.1
36465.2
31568.6
27431.8
22859.7
19131.8
14971.7
11754.9
7944.08
5222.67
2301.68
542826
537134
534954
529165
526428
520422
517215
511023
507406
501043
497053
490528
486196
479522
474875
468063
463127
456187
450983
443927
438477
431313
425637
418376
412491
405143
399069
391643
385396
377902
371499
363946
357404
349803
343137
335499
328726
321061
314199
306520
299588
291911
284921
277234
270168
262478
255385
247738
240648
233058
225992
218474
211452
204018
197054
189717
182828
175598
168801
161688
154999
148016
141451
134610
128187
121499
115237
108716
102633
96293.4
90410.5
84266
78606.1
72671.6
67258.4
61553.7
56411.3
50952.9
46114.6
40927.5
36419.5
31528
27396.1
22828.9
19105.5
14950
11737.4
7931.09
5213.65
2296.07
542922
537277
535125
529353
526627
520642
517449
511275
507669
501319
497338
490823
486498
479831
475190
468383
463450
456513
451312
444256
438807
431643
425967
418705
412820
405469
399393
391964
385715
378217
371811
364255
357709
350103
343434
335790
329013
321343
314476
306792
299855
292172
285178
277485
270414
262718
255621
247967
240872
233276
226205
218681
211653
204213
197244
189901
183007
175770
168967
161849
155154
148165
141595
134748
128319
121626
115358
108832
102744
96397.8
90509.6
84359.5
78694.3
72754.3
67335.9
61625.7
56478.1
51014.4
46171.1
40978.7
36465.8
31569.2
27432.5
22860.4
19132.3
14972.2
11755.4
7944.5
5222.87
2301.83
542821
537054
534874
529077
526337
520330
517124
510932
507315
500951
496961
490436
486104
479429
474783
467971
463035
456095
450892
443835
438386
431222
425546
418286
412402
405054
398981
391555
385309
377816
371414
363862
357321
349721
343056
335418
328647
320982
314121
306444
299513
291837
284848
277163
270098
262409
255318
247672