/*--------------------------------*- C++ -*----------------------------------*\
  =========                 |
  \\      /  F ield         | OpenFOAM: The Open Source CFD Toolbox
   \\    /   O peration     | Website:  https://openfoam.org
    \\  /    A nd           | Version:  7
     \\/     M anipulation  |
\*---------------------------------------------------------------------------*/
FoamFile
{
    version     2.0;
    format      ascii;
    class       volScalarField;
    location    "2.1";
    object      rho_0;
}
// * * * * * * * * * * * * * * * * * * * * * * * * * * * * * * * * * * * * * //

dimensions      [1 -3 0 0 0 0 0];

internalField   nonuniform List<scalar> 
1200
(
1.23068
1.23063
1.2306
1.23059
1.23058
1.23057
1.23056
1.23056
1.23055
1.23055
1.23054
1.23054
1.23053
1.23054
1.2305
1.23056
1.23044
1.23067
1.2301
1.23175
1.23067
1.23063
1.23061
1.23059
1.23058
1.23057
1.23056
1.23055
1.23054
1.23054
1.23053
1.23055
1.2305
1.23057
1.23046
1.23063
1.23032
1.23086
1.2299
1.23154
1.23067
1.23064
1.23062
1.2306
1.23059
1.23058
1.23056
1.23056
1.23054
1.23055
1.23052
1.23055
1.2305
1.23056
1.23046
1.23061
1.23039
1.2307
1.23026
1.23084
1.23066
1.23064
1.23062
1.23061
1.2306
1.23059
1.23058
1.23057
1.23056
1.23056
1.23054
1.23055
1.23052
1.23054
1.23051
1.23055
1.2305
1.23055
1.23049
1.23054
1.23066
1.23064
1.23062
1.23061
1.2306
1.23059
1.23058
1.23057
1.23056
1.23056
1.23055
1.23055
1.23054
1.23054
1.23054
1.23053
1.23054
1.23052
1.23055
1.2305
1.23066
1.23064
1.23062
1.23061
1.2306
1.23059
1.23058
1.23057
1.23056
1.23056
1.23055
1.23055
1.23054
1.23054
1.23054
1.23053
1.23054
1.23053
1.23054
1.23053
1.23065
1.23064
1.23062
1.23061
1.23059
1.23058
1.23058
1.23057
1.23056
1.23056
1.23055
1.23054
1.23054
1.23054
1.23053
1.23053
1.23053
1.23053
1.23053
1.23053
1.23066
1.23064
1.23062
1.2306
1.23059
1.23058
1.23058
1.23057
1.23056
1.23055
1.23055
1.23054
1.23054
1.23053
1.23053
1.23053
1.23053
1.23053
1.23052
1.23052
1.23066
1.23064
1.23062
1.2306
1.23059
1.23058
1.23057
1.23056
1.23055
1.23055
1.23054
1.23053
1.23053
1.23052
1.23052
1.23052
1.23051
1.23051
1.23051
1.23051
1.23066
1.23064
1.23061
1.2306
1.23058
1.23057
1.23056
1.23055
1.23054
1.23053
1.23053
1.23052
1.23052
1.23051
1.23051
1.23051
1.23051
1.2305
1.2305
1.2305
1.23066
1.23063
1.2306
1.23058
1.23057
1.23056
1.23055
1.23054
1.23053
1.23053
1.23052
1.23052
1.23052
1.23051
1.23051
1.23051
1.2305
1.2305
1.2305
1.23049
1.23067
1.23062
1.2306
1.23058
1.23057
1.23056
1.23056
1.23055
1.23054
1.23054
1.23053
1.23053
1.23052
1.23052
1.23051
1.23051
1.2305
1.2305
1.23049
1.23049
1.21703
1.20808
1.20237
1.19796
1.19428
1.19105
1.18814
1.18546
1.18295
1.1806
1.17836
1.17623
1.1742
1.17225
1.17037
1.16856
1.16681
1.16511
1.16347
1.16187
1.16032
1.15882
1.15736
1.15596
1.1546
1.15329
1.15203
1.15082
1.14966
1.14856
1.14751
1.14652
1.14559
1.14472
1.14392
1.14318
1.14251
1.1419
1.14135
1.14087
1.14044
1.14007
1.13974
1.13947
1.13923
1.13904
1.13887
1.13874
1.13863
1.13855
1.13849
1.13844
1.1384
1.13838
1.13836
1.13834
1.13833
1.13833
1.13832
1.13831
1.13831
1.13831
1.1383
1.1383
1.1383
1.1383
1.1383
1.1383
1.1383
1.1383
1.13829
1.13829
1.13829
1.13829
1.13828
1.13828
1.13826
1.13827
1.13825
1.13827
1.22525
1.21759
1.21213
1.20783
1.20418
1.20097
1.19805
1.19536
1.19284
1.19047
1.18822
1.18607
1.18402
1.18206
1.18016
1.17834
1.17657
1.17486
1.1732
1.17158
1.17001
1.1685
1.16702
1.1656
1.16422
1.16289
1.16161
1.16037
1.15919
1.15806
1.15698
1.15596
1.155
1.1541
1.15326
1.15249
1.15178
1.15114
1.15056
1.15004
1.14957
1.14917
1.14882
1.14851
1.14825
1.14803
1.14784
1.14769
1.14756
1.14746
1.14738
1.14732
1.14727
1.14724
1.14721
1.14719
1.14717
1.14716
1.14715
1.14714
1.14713
1.14712
1.14711
1.14711
1.1471
1.14709
1.14709
1.14708
1.14708
1.14707
1.14707
1.14706
1.14705
1.14704
1.14703
1.14703
1.14701
1.14701
1.14699
1.147
1.22914
1.22421
1.21967
1.21582
1.21244
1.20939
1.20659
1.20397
1.20151
1.19919
1.19698
1.19487
1.19284
1.1909
1.18902
1.1872
1.18545
1.18375
1.18209
1.18048
1.17892
1.1774
1.17593
1.1745
1.17312
1.17178
1.17048
1.16924
1.16804
1.16688
1.16579
1.16474
1.16375
1.16281
1.16194
1.16113
1.16039
1.1597
1.15908
1.15852
1.15801
1.15757
1.15718
1.15684
1.15654
1.15629
1.15607
1.15589
1.15574
1.15562
1.15552
1.15544
1.15537
1.15532
1.15529
1.15526
1.15523
1.15521
1.15519
1.15518
1.15517
1.15515
1.15514
1.15513
1.15512
1.15511
1.1551
1.15509
1.15508
1.15507
1.15506
1.15505
1.15504
1.15503
1.15501
1.155
1.15498
1.15498
1.15495
1.15495
1.2305
1.22822
1.22519
1.2222
1.21937
1.21672
1.21421
1.21182
1.20954
1.20736
1.20527
1.20327
1.20133
1.19946
1.19765
1.1959
1.1942
1.19254
1.19094
1.18937
1.18784
1.18635
1.18491
1.18351
1.18215
1.18082
1.17954
1.1783
1.1771
1.17595
1.17484
1.17379
1.17278
1.17182
1.17093
1.17009
1.16931
1.16859
1.16793
1.16733
1.16678
1.16629
1.16586
1.16548
1.16515
1.16486
1.16461
1.1644
1.16422
1.16407
1.16395
1.16384
1.16376
1.1637
1.16365
1.16361
1.16358
1.16355
1.16352
1.1635
1.16349
1.16347
1.16345
1.16344
1.16342
1.16341
1.16339
1.16338
1.16337
1.16335
1.16334
1.16332
1.1633
1.16329
1.16327
1.16326
1.16323
1.16322
1.16319
1.16319
1.23067
1.23005
1.22855
1.22667
1.22466
1.22264
1.22063
1.21865
1.2167
1.2148
1.21296
1.21117
1.20943
1.20773
1.20606
1.20444
1.20286
1.20133
1.19982
1.19835
1.19691
1.19551
1.19414
1.19281
1.19152
1.19025
1.18902
1.18783
1.18667
1.18555
1.18447
1.18344
1.18244
1.1815
1.1806
1.17975
1.17896
1.17823
1.17755
1.17692
1.17635
1.17583
1.17537
1.17495
1.17459
1.17427
1.174
1.17375
1.17355
1.17337
1.17322
1.1731
1.173
1.17292
1.17285
1.1728
1.17276
1.17273
1.1727
1.17267
1.17265
1.17262
1.1726
1.17258
1.17256
1.17254
1.17253
1.17251
1.17249
1.17247
1.17245
1.17243
1.17241
1.17239
1.17237
1.17235
1.17232
1.17231
1.17228
1.17227
1.23055
1.23052
1.23009
1.22925
1.22814
1.22688
1.22552
1.2241
1.22265
1.22118
1.21973
1.21829
1.21686
1.21544
1.21404
1.21265
1.21129
1.20996
1.20865
1.20736
1.20609
1.20484
1.20362
1.20244
1.20127
1.20014
1.19902
1.19793
1.19687
1.19585
1.19486
1.1939
1.19297
1.19209
1.19124
1.19043
1.18968
1.18897
1.18831
1.18769
1.18712
1.1866
1.18613
1.18571
1.18534
1.18501
1.18472
1.18446
1.18424
1.18405
1.18388
1.18374
1.18363
1.18354
1.18346
1.1834
1.18335
1.18331
1.18327
1.18324
1.18321
1.18318
1.18316
1.18313
1.18311
1.18308
1.18306
1.18303
1.18301
1.18299
1.18296
1.18294
1.18291
1.18289
1.18286
1.18284
1.18281
1.18279
1.18276
1.18274
1.23053
1.2305
1.23042
1.23017
1.22973
1.22912
1.22838
1.22753
1.2266
1.22562
1.22461
1.22359
1.22254
1.22148
1.22041
1.21933
1.21826
1.21721
1.21617
1.21513
1.2141
1.21308
1.21208
1.2111
1.21014
1.20919
1.20825
1.20734
1.20644
1.20558
1.20473
1.20391
1.20312
1.20235
1.20162
1.20092
1.20025
1.19963
1.19904
1.19849
1.19798
1.1975
1.19707
1.19669
1.19634
1.19603
1.19576
1.19551
1.1953
1.19511
1.19495
1.19481
1.1947
1.1946
1.19452
1.19446
1.1944
1.19436
1.19432
1.19428
1.19425
1.19422
1.19419
1.19416
1.19413
1.1941
1.19407
1.19404
1.19401
1.19398
1.19395
1.19392
1.1939
1.19387
1.19384
1.19381
1.19378
1.19375
1.19372
1.1937
1.23052
1.23046
1.23042
1.23034
1.23018
1.22992
1.22954
1.22906
1.2285
1.22788
1.22722
1.22652
1.22579
1.22503
1.22424
1.22344
1.22265
1.22185
1.22106
1.22027
1.21947
1.21868
1.2179
1.21713
1.21637
1.21562
1.21488
1.21415
1.21343
1.21274
1.21206
1.2114
1.21076
1.21014
1.20954
1.20897
1.20843
1.20792
1.20743
1.20698
1.20655
1.20616
1.2058
1.20547
1.20518
1.20492
1.20468
1.20447
1.20429
1.20412
1.20398
1.20386
1.20376
1.20367
1.2036
1.20354
1.20348
1.20344
1.2034
1.20336
1.20333
1.2033
1.20326
1.20323
1.2032
1.20316
1.20313
1.2031
1.20307
1.20303
1.203
1.20297
1.20294
1.2029
1.20287
1.20284
1.20281
1.20278
1.20274
1.20272
1.2305
1.23044
1.2304
1.23036
1.2303
1.23017
1.22996
1.22968
1.22933
1.22893
1.22849
1.22801
1.22749
1.22695
1.22638
1.2258
1.22521
1.22463
1.22404
1.22344
1.22284
1.22225
1.22166
1.22108
1.2205
1.21992
1.21935
1.21879
1.21824
1.2177
1.21718
1.21667
1.21617
1.21569
1.21523
1.21479
1.21436
1.21397
1.21359
1.21323
1.21289
1.21258
1.2123
1.21204
1.21181
1.2116
1.21141
1.21124
1.21109
1.21096
1.21084
1.21074
1.21065
1.21058
1.21051
1.21046
1.21041
1.21037
1.21033
1.2103
1.21026
1.21023
1.21019
1.21016
1.21012
1.21009
1.21005
1.21002
1.20998
1.20995
1.20991
1.20988
1.20984
1.20981
1.20978
1.20974
1.20971
1.20968
1.20964
1.20961
1.23048
1.23043
1.2304
1.23037
1.23033
1.23025
1.23013
1.22995
1.22972
1.22946
1.22916
1.22884
1.22848
1.22809
1.22769
1.22728
1.22687
1.22645
1.22603
1.22561
1.22518
1.22476
1.22434
1.22392
1.2235
1.22308
1.22266
1.22225
1.22185
1.22145
1.22107
1.2207
1.22034
1.21998
1.21965
1.21933
1.21902
1.21873
1.21845
1.21818
1.21794
1.21771
1.2175
1.2173
1.21713
1.21697
1.21683
1.2167
1.21658
1.21648
1.21638
1.2163
1.21623
1.21617
1.21612
1.21607
1.21603
1.21599
1.21595
1.21591
1.21588
1.21584
1.21581
1.21577
1.21574
1.2157
1.21566
1.21562
1.21559
1.21555
1.21551
1.21548
1.21544
1.21541
1.21537
1.21534
1.21531
1.21527
1.21524
1.2152
1.23048
1.23043
1.23039
1.23036
1.23033
1.23028
1.2302
1.23008
1.22994
1.22978
1.22959
1.22938
1.22915
1.2289
1.22864
1.22838
1.22811
1.22785
1.22758
1.22731
1.22704
1.22677
1.2265
1.22622
1.22595
1.22568
1.2254
1.22513
1.22487
1.22461
1.22436
1.22412
1.22388
1.22365
1.22343
1.22322
1.22302
1.22283
1.22265
1.22247
1.22231
1.22215
1.22201
1.22188
1.22176
1.22165
1.22155
1.22145
1.22137
1.22129
1.22122
1.22116
1.2211
1.22105
1.221
1.22096
1.22092
1.22089
1.22085
1.22081
1.22078
1.22074
1.22071
1.22067
1.22063
1.22059
1.22056
1.22052
1.22048
1.22044
1.2204
1.22037
1.22033
1.2203
1.22026
1.22023
1.22019
1.22016
1.22012
1.22009
1.23048
1.23043
1.2304
1.23037
1.23033
1.23029
1.23024
1.23018
1.23011
1.23003
1.22995
1.22985
1.22974
1.22963
1.22951
1.2294
1.22928
1.22917
1.22906
1.22895
1.22884
1.22872
1.22861
1.22849
1.22837
1.22825
1.22812
1.228
1.22788
1.22777
1.22765
1.22754
1.22744
1.22734
1.22724
1.22715
1.22706
1.22697
1.22688
1.2268
1.22672
1.22664
1.22657
1.2265
1.22643
1.22637
1.22631
1.22626
1.2262
1.22615
1.2261
1.22606
1.22602
1.22598
1.22594
1.2259
1.22586
1.22583
1.22579
1.22575
1.22572
1.22568
1.22565
1.22561
1.22557
1.22553
1.22549
1.22545
1.22541
1.22538
1.22534
1.2253
1.22526
1.22523
1.22519
1.22516
1.22512
1.22509
1.22505
1.22501
)
;

boundaryField
{
    upperWall
    {
        type            calculated;
        value           nonuniform List<scalar> 
100
(
1.23068
1.23063
1.2306
1.23059
1.23058
1.23057
1.23056
1.23055
1.23055
1.23054
1.23053
1.23053
1.23052
1.23052
1.23051
1.23051
1.2305
1.2305
1.23049
1.23049
1.23048
1.23043
1.2304
1.23036
1.23033
1.2303
1.23027
1.23024
1.2302
1.23017
1.23014
1.2301
1.23006
1.23002
1.22997
1.22994
1.2299
1.22987
1.22984
1.22982
1.22979
1.22977
1.22974
1.2297
1.22966
1.22962
1.22958
1.22953
1.22949
1.22945
1.22941
1.22937
1.22934
1.22931
1.22928
1.22925
1.22922
1.22918
1.22915
1.22912
1.22908
1.22905
1.22901
1.22897
1.22893
1.2289
1.22886
1.22882
1.22878
1.22875
1.22871
1.22867
1.22864
1.2286
1.22856
1.22853
1.22849
1.22846
1.22842
1.22839
1.22835
1.22832
1.22828
1.22824
1.2282
1.22816
1.22812
1.22808
1.22804
1.228
1.22796
1.22793
1.22789
1.22785
1.22782
1.22778
1.22775
1.22771
1.22767
1.22764
)
;
    }
    lowerWall
    {
        type            calculated;
        value           nonuniform List<scalar> 
20
(
1.23068
1.23064
1.23061
1.2306
1.23059
1.23058
1.23057
1.23057
1.23056
1.23055
1.23055
1.23054
1.23054
1.23053
1.23053
1.23052
1.23052
1.23052
1.23051
1.23051
)
;
    }
    heatedWall
    {
        type            calculated;
        value           nonuniform List<scalar> 
80
(
1.21107
1.20247
1.19676
1.19237
1.18872
1.18553
1.18264
1.17998
1.1775
1.17517
1.17295
1.17084
1.16882
1.16688
1.16502
1.16323
1.16149
1.15981
1.15818
1.15659
1.15505
1.15357
1.15212
1.15073
1.14938
1.14808
1.14683
1.14563
1.14448
1.14339
1.14235
1.14137
1.14045
1.13959
1.13879
1.13806
1.1374
1.13679
1.13625
1.13577
1.13535
1.13498
1.13466
1.13439
1.13416
1.13396
1.13381
1.13368
1.13357
1.13349
1.13343
1.13338
1.13335
1.13333
1.13331
1.1333
1.13329
1.13329
1.13329
1.13328
1.13328
1.13328
1.13328
1.13328
1.13328
1.13328
1.13329
1.13329
1.13329
1.13329
1.13329
1.13329
1.13329
1.13329
1.13328
1.13329
1.13327
1.13329
1.13326
1.13329
)
;
    }
    inlet
    {
        type            calculated;
        value           nonuniform List<scalar> 
12
(
1.23068
1.23067
1.23067
1.23066
1.23066
1.23066
1.23065
1.23065
1.23066
1.23066
1.23066
1.23068
)
;
    }
    outlet
    {
        type            calculated;
        value           nonuniform List<scalar> 
12
(
1.13825
1.14698
1.15494
1.16318
1.17225
1.18272
1.19368
1.2027
1.20959
1.21519
1.22007
1.225
)
;
    }
    frontAndBack
    {
        type            empty;
    }
}


// ************************************************************************* //
