/*--------------------------------*- C++ -*----------------------------------*\
  =========                 |
  \\      /  F ield         | OpenFOAM: The Open Source CFD Toolbox
   \\    /   O peration     | Website:  https://openfoam.org
    \\  /    A nd           | Version:  7
     \\/     M anipulation  |
\*---------------------------------------------------------------------------*/
FoamFile
{
    version     2.0;
    format      ascii;
    class       volScalarField;
    location    "3.86";
    object      alphat;
}
// * * * * * * * * * * * * * * * * * * * * * * * * * * * * * * * * * * * * * //

dimensions      [1 -1 -1 0 0 0 0];

internalField   nonuniform List<scalar> 
5760
(
0.00396876
0.00351258
0.00306205
0.00276486
0.00255557
0.00241611
0.00232829
0.00226583
0.00221183
0.00216264
0.0021194
0.0020821
0.0020495
0.00202038
0.00199407
0.00197018
0.0019484
0.00192845
0.00191008
0.00189309
0.00187733
0.00186265
0.00184894
0.0018361
0.00182406
0.00181273
0.00180205
0.00179197
0.00178243
0.00177339
0.00176481
0.00175666
0.0017489
0.00174151
0.00173447
0.00172774
0.00172131
0.00171516
0.00170927
0.00170362
0.00169821
0.00169302
0.00168803
0.00168324
0.00167863
0.0016742
0.00166994
0.00166583
0.00166188
0.00165808
0.00165441
0.00165087
0.00164746
0.00164417
0.001641
0.00163794
0.00163499
0.00163215
0.0016294
0.00162676
0.00162421
0.00162174
0.00161937
0.00161709
0.00161488
0.00161276
0.00161071
0.00160874
0.00160684
0.001605
0.00160324
0.00160154
0.0015999
0.00159832
0.0015968
0.00159534
0.00159393
0.00159256
0.00159125
0.00158999
0.00158877
0.00158759
0.00158645
0.00158535
0.00158429
0.00158327
0.00158228
0.00158132
0.00158039
0.0015795
0.00157863
0.00157779
0.00157697
0.00157618
0.00157541
0.00157467
0.00157394
0.00157324
0.00157255
0.00157189
0.00157124
0.00157061
0.00157
0.0015694
0.00156881
0.00156825
0.00156769
0.00156715
0.00156662
0.00156611
0.0015656
0.00156511
0.00156463
0.00156417
0.00156371
0.00156327
0.00156283
0.00156241
0.00156199
0.00156159
0.0015612
0.00156082
0.00156044
0.00156008
0.00155973
0.00155939
0.00155905
0.00155873
0.00155842
0.00155811
0.00155782
0.00155754
0.00155726
0.001557
0.00155674
0.0015565
0.00155626
0.00155604
0.00155582
0.00155562
0.00155542
0.00155523
0.00155506
0.00155489
0.00155474
0.00155459
0.00155446
0.00155433
0.00155421
0.00155411
0.00155401
0.00155393
0.00155385
0.00155378
0.00155373
0.00155368
0.00155364
0.00155361
0.0015536
0.00155359
0.00155359
0.0015536
0.00155362
0.00155365
0.00155369
0.00155374
0.0015538
0.00155387
0.00155394
0.00155403
0.00155412
0.00155423
0.00155434
0.00155446
0.00155459
0.00155473
0.00155488
0.00155503
0.00155519
0.00155537
0.00155554
0.00155573
0.00155593
0.00155613
0.00155634
0.00155656
0.00155679
0.00155702
0.00155727
0.00155751
0.00155777
0.00155803
0.0015583
0.00155858
0.00155886
0.00155915
0.00155945
0.00155975
0.00156006
0.00156038
0.0015607
0.00156103
0.00156136
0.0015617
0.00156205
0.0015624
0.00156276
0.00156312
0.00156349
0.00156386
0.00156424
0.00156463
0.00156502
0.00156541
0.00156581
0.00156622
0.00156662
0.00156704
0.00156746
0.00156788
0.00156831
0.00156874
0.00156918
0.00156962
0.00157006
0.00157051
0.00157096
0.00157142
0.00157188
0.00157235
0.00157281
0.0015733
0.00157374
0.00157427
0.00157468
0.00157527
0.00157562
0.00157629
0.00157654
0.00157738
0.00287577
0.00332902
0.00326373
0.00310694
0.00292448
0.00277591
0.00266993
0.00259409
0.00253398
0.00248195
0.00243595
0.00239554
0.00235999
0.00232833
0.00229979
0.00227389
0.00225025
0.00222857
0.00220861
0.00219015
0.00217301
0.00215706
0.00214215
0.0021282
0.0021151
0.00210278
0.00209117
0.00208021
0.00206984
0.00206001
0.00205069
0.00204183
0.0020334
0.00202537
0.00201772
0.00201041
0.00200343
0.00199675
0.00199036
0.00198423
0.00197836
0.00197273
0.00196733
0.00196214
0.00195715
0.00195236
0.00194774
0.0019433
0.00193903
0.00193492
0.00193095
0.00192713
0.00192345
0.0019199
0.00191648
0.00191318
0.00191
0.00190693
0.00190397
0.00190111
0.00189837
0.00189571
0.00189315
0.00189069
0.00188831
0.00188602
0.00188381
0.00188168
0.00187963
0.00187765
0.00187575
0.00187391
0.00187213
0.00187042
0.00186877
0.00186718
0.00186564
0.00186416
0.00186273
0.00186135
0.00186001
0.00185872
0.00185748
0.00185627
0.00185511
0.00185398
0.00185289
0.00185183
0.0018508
0.00184981
0.00184885
0.00184791
0.001847
0.00184612
0.00184526
0.00184442
0.00184361
0.00184282
0.00184204
0.00184129
0.00184056
0.00183985
0.00183915
0.00183847
0.00183781
0.00183716
0.00183653
0.00183592
0.00183531
0.00183472
0.00183415
0.00183358
0.00183303
0.00183249
0.00183197
0.00183145
0.00183095
0.00183046
0.00182998
0.00182951
0.00182906
0.00182861
0.00182818
0.00182775
0.00182734
0.00182694
0.00182655
0.00182618
0.00182581
0.00182545
0.00182511
0.00182477
0.00182445
0.00182413
0.00182383
0.00182354
0.00182326
0.00182299
0.00182273
0.00182249
0.00182225
0.00182203
0.00182182
0.00182162
0.00182143
0.00182125
0.00182109
0.00182093
0.00182079
0.00182066
0.00182054
0.00182043
0.00182033
0.00182025
0.00182017
0.00182011
0.00182006
0.00182001
0.00181998
0.00181997
0.00181996
0.00181996
0.00181998
0.00182001
0.00182004
0.00182009
0.00182015
0.00182022
0.00182031
0.0018204
0.0018205
0.00182061
0.00182074
0.00182087
0.00182101
0.00182117
0.00182133
0.0018215
0.00182169
0.00182188
0.00182208
0.00182229
0.00182251
0.00182274
0.00182298
0.00182323
0.00182349
0.00182376
0.00182403
0.00182432
0.00182461
0.00182491
0.00182522
0.00182554
0.00182586
0.0018262
0.00182654
0.00182689
0.00182724
0.0018276
0.00182798
0.00182835
0.00182874
0.00182913
0.00182953
0.00182994
0.00183035
0.00183077
0.00183119
0.00183163
0.00183207
0.00183251
0.00183296
0.00183342
0.00183388
0.00183435
0.00183483
0.00183531
0.00183579
0.00183628
0.00183678
0.00183728
0.00183779
0.0018383
0.00183881
0.00183934
0.00183986
0.0018404
0.00184093
0.00184148
0.00184201
0.00184258
0.0018431
0.00184371
0.00184419
0.00184488
0.0018453
0.00184605
0.00184644
0.00184723
0.00164222
0.00249664
0.00271923
0.00274866
0.00269799
0.00260168
0.00251763
0.00245272
0.00240195
0.00235934
0.00232179
0.00228829
0.00225844
0.00223167
0.00220747
0.00218543
0.00216523
0.00214664
0.00212946
0.00211354
0.00209872
0.00208488
0.00207194
0.0020598
0.00204839
0.00203763
0.00202749
0.0020179
0.00200882
0.00200021
0.00199203
0.00198426
0.00197685
0.0019698
0.00196307
0.00195663
0.00195049
0.00194461
0.00193897
0.00193358
0.0019284
0.00192344
0.00191868
0.0019141
0.00190971
0.00190548
0.00190141
0.0018975
0.00189374
0.00189011
0.00188662
0.00188325
0.00188001
0.00187688
0.00187386
0.00187095
0.00186815
0.00186544
0.00186283
0.00186032
0.00185789
0.00185555
0.0018533
0.00185112
0.00184902
0.001847
0.00184504
0.00184316
0.00184134
0.00183958
0.00183789
0.00183625
0.00183466
0.00183313
0.00183166
0.00183023
0.00182884
0.00182751
0.00182621
0.00182496
0.00182375
0.00182257
0.00182144
0.00182033
0.00181926
0.00181823
0.00181722
0.00181624
0.00181529
0.00181436
0.00181346
0.00181258
0.00181173
0.00181089
0.00181008
0.00180928
0.00180851
0.00180775
0.00180701
0.00180629
0.00180559
0.0018049
0.00180422
0.00180357
0.00180292
0.00180229
0.00180167
0.00180107
0.00180048
0.0017999
0.00179933
0.00179878
0.00179823
0.0017977
0.00179717
0.00179666
0.00179616
0.00179566
0.00179518
0.00179471
0.00179425
0.0017938
0.00179337
0.00179294
0.00179252
0.00179212
0.00179172
0.00179133
0.00179096
0.00179059
0.00179024
0.0017899
0.00178956
0.00178924
0.00178892
0.00178862
0.00178833
0.00178805
0.00178777
0.00178751
0.00178726
0.00178703
0.0017868
0.00178659
0.00178638
0.00178619
0.00178601
0.00178584
0.00178568
0.00178553
0.0017854
0.00178527
0.00178516
0.00178505
0.00178496
0.00178488
0.00178481
0.00178475
0.0017847
0.00178466
0.00178464
0.00178462
0.00178462
0.00178462
0.00178464
0.00178467
0.00178471
0.00178477
0.00178483
0.0017849
0.00178498
0.00178508
0.00178518
0.0017853
0.00178542
0.00178555
0.0017857
0.00178585
0.00178601
0.00178618
0.00178636
0.00178655
0.00178676
0.00178697
0.00178718
0.00178741
0.00178765
0.0017879
0.00178815
0.00178842
0.00178869
0.00178898
0.00178927
0.00178956
0.00178987
0.00179018
0.0017905
0.00179083
0.00179117
0.00179151
0.00179186
0.00179222
0.00179258
0.00179296
0.00179334
0.00179372
0.00179412
0.00179452
0.00179493
0.00179534
0.00179576
0.00179619
0.00179662
0.00179706
0.00179751
0.00179796
0.00179842
0.00179888
0.00179934
0.00179982
0.0018003
0.00180078
0.00180127
0.00180176
0.00180226
0.00180277
0.00180327
0.00180379
0.0018043
0.00180484
0.00180535
0.00180591
0.00180641
0.00180701
0.00180747
0.00180814
0.00180856
0.00180927
0.00180971
0.00181039
0.000677435
0.00155849
0.00190097
0.00211805
0.00221983
0.00222451
0.00220649
0.00217605
0.00214865
0.0021246
0.00210262
0.00208215
0.00206319
0.00204564
0.00202943
0.00201439
0.00200038
0.00198729
0.00197504
0.00196356
0.00195278
0.00194263
0.00193306
0.00192402
0.00191548
0.00190738
0.0018997
0.00189241
0.00188548
0.00187889
0.00187261
0.00186662
0.0018609
0.00185543
0.0018502
0.0018452
0.0018404
0.00183581
0.0018314
0.00182717
0.00182311
0.00181922
0.00181547
0.00181187
0.00180841
0.00180508
0.00180188
0.0017988
0.00179583
0.00179297
0.00179022
0.00178756
0.001785
0.00178253
0.00178015
0.00177785
0.00177563
0.0017735
0.00177143
0.00176944
0.00176752
0.00176566
0.00176387
0.00176215
0.00176048
0.00175887
0.00175731
0.00175581
0.00175435
0.00175294
0.00175158
0.00175025
0.00174897
0.00174773
0.00174652
0.00174535
0.00174422
0.00174311
0.00174204
0.00174099
0.00173998
0.00173899
0.00173803
0.00173709
0.00173618
0.00173529
0.00173442
0.00173357
0.00173274
0.00173193
0.00173114
0.00173036
0.0017296
0.00172885
0.00172812
0.00172741
0.0017267
0.00172601
0.00172533
0.00172467
0.00172402
0.00172338
0.00172275
0.00172214
0.00172153
0.00172094
0.00172036
0.00171978
0.00171922
0.00171867
0.00171813
0.0017176
0.00171707
0.00171656
0.00171605
0.00171555
0.00171506
0.00171458
0.00171411
0.00171365
0.0017132
0.00171275
0.00171232
0.0017119
0.00171148
0.00171108
0.00171068
0.0017103
0.00170992
0.00170956
0.0017092
0.00170886
0.00170852
0.00170819
0.00170787
0.00170756
0.00170726
0.00170697
0.00170669
0.00170642
0.00170616
0.00170591
0.00170567
0.00170545
0.00170523
0.00170503
0.00170483
0.00170465
0.00170448
0.00170431
0.00170416
0.00170402
0.00170389
0.00170377
0.00170366
0.00170356
0.00170347
0.0017034
0.00170333
0.00170327
0.00170322
0.00170319
0.00170316
0.00170315
0.00170314
0.00170315
0.00170317
0.0017032
0.00170324
0.00170328
0.00170335
0.00170342
0.0017035
0.00170358
0.00170368
0.00170379
0.00170391
0.00170404
0.00170417
0.00170432
0.00170447
0.00170463
0.00170481
0.00170499
0.00170518
0.00170538
0.00170559
0.00170581
0.00170604
0.00170627
0.00170652
0.00170677
0.00170703
0.0017073
0.00170758
0.00170787
0.00170816
0.00170846
0.00170876
0.00170908
0.0017094
0.00170972
0.00171006
0.0017104
0.00171075
0.0017111
0.00171147
0.00171184
0.00171221
0.0017126
0.00171299
0.00171338
0.00171379
0.0017142
0.00171461
0.00171503
0.00171546
0.00171589
0.00171632
0.00171677
0.00171721
0.00171767
0.00171812
0.00171858
0.00171905
0.00171952
0.00172
0.00172049
0.00172096
0.00172147
0.00172195
0.00172248
0.00172294
0.00172351
0.00172395
0.00172457
0.00172498
0.00172564
0.00172609
0.00172672
0.000245351
0.000774657
0.00108095
0.0013594
0.0015774
0.00169407
0.00175422
0.00178329
0.00179799
0.00180512
0.0018076
0.00180707
0.00180476
0.00180115
0.00179703
0.0017925
0.00178761
0.00178261
0.00177759
0.00177259
0.00176765
0.00176281
0.00175808
0.00175347
0.001749
0.00174466
0.00174046
0.0017364
0.00173248
0.0017287
0.00172505
0.00172152
0.00171813
0.00171485
0.00171169
0.00170864
0.0017057
0.00170286
0.00170011
0.00169747
0.00169492
0.00169246
0.00169009
0.0016878
0.0016856
0.00168347
0.00168142
0.00167945
0.00167754
0.0016757
0.00167393
0.00167222
0.00167056
0.00166897
0.00166743
0.00166594
0.0016645
0.00166311
0.00166177
0.00166047
0.00165921
0.001658
0.00165683
0.00165569
0.00165459
0.00165352
0.00165249
0.00165148
0.00165051
0.00164955
0.00164863
0.00164772
0.00164684
0.00164597
0.00164513
0.0016443
0.00164348
0.00164268
0.0016419
0.00164113
0.00164038
0.00163963
0.0016389
0.00163818
0.00163748
0.00163678
0.0016361
0.00163542
0.00163476
0.0016341
0.00163345
0.00163281
0.00163218
0.00163155
0.00163093
0.00163032
0.00162972
0.00162912
0.00162853
0.00162794
0.00162736
0.00162679
0.00162623
0.00162568
0.00162513
0.00162459
0.00162406
0.00162353
0.00162301
0.0016225
0.001622
0.0016215
0.00162101
0.00162052
0.00162004
0.00161957
0.00161911
0.00161865
0.00161819
0.00161775
0.00161731
0.00161688
0.00161646
0.00161605
0.00161564
0.00161525
0.00161486
0.00161449
0.00161412
0.00161376
0.00161341
0.00161306
0.00161273
0.0016124
0.00161209
0.00161178
0.00161147
0.00161118
0.0016109
0.00161062
0.00161036
0.0016101
0.00160986
0.00160962
0.0016094
0.00160918
0.00160898
0.00160879
0.00160861
0.00160844
0.00160827
0.00160812
0.00160798
0.00160785
0.00160773
0.00160761
0.00160751
0.00160742
0.00160733
0.00160726
0.00160719
0.00160714
0.00160709
0.00160706
0.00160704
0.00160702
0.00160702
0.00160703
0.00160705
0.00160708
0.00160712
0.00160716
0.00160722
0.00160729
0.00160737
0.00160745
0.00160755
0.00160765
0.00160776
0.00160788
0.00160801
0.00160815
0.00160829
0.00160845
0.00160861
0.00160878
0.00160896
0.00160915
0.00160935
0.00160956
0.00160978
0.00161
0.00161023
0.00161047
0.00161072
0.00161098
0.00161124
0.00161151
0.00161178
0.00161207
0.00161236
0.00161265
0.00161295
0.00161326
0.00161358
0.0016139
0.00161423
0.00161457
0.00161491
0.00161526
0.00161562
0.00161598
0.00161635
0.00161672
0.00161711
0.00161749
0.00161789
0.00161828
0.00161869
0.00161909
0.00161951
0.00161992
0.00162034
0.00162077
0.0016212
0.00162164
0.00162208
0.00162253
0.00162297
0.00162344
0.00162388
0.00162438
0.0016248
0.00162534
0.00162574
0.00162633
0.0016267
0.00162731
0.00162775
0.00162834
8.04044e-05
0.000318531
0.0004861
0.000677751
0.000904313
0.00107349
0.00119315
0.00128054
0.00134613
0.0013952
0.00143175
0.00145915
0.00148008
0.00149621
0.00150884
0.00151881
0.00152667
0.0015329
0.00153784
0.00154175
0.00154483
0.00154724
0.00154911
0.00155053
0.00155157
0.00155232
0.00155281
0.00155309
0.00155321
0.00155318
0.00155304
0.0015528
0.00155249
0.00155211
0.00155168
0.00155121
0.0015507
0.00155017
0.00154962
0.00154905
0.00154847
0.00154789
0.00154731
0.00154672
0.00154615
0.00154558
0.00154503
0.00154448
0.00154394
0.00154342
0.00154291
0.00154241
0.00154193
0.00154145
0.00154099
0.00154054
0.0015401
0.00153966
0.00153924
0.00153882
0.00153841
0.00153801
0.00153762
0.00153723
0.00153684
0.00153646
0.00153608
0.00153571
0.00153533
0.00153495
0.00153457
0.00153419
0.0015338
0.0015334
0.00153301
0.0015326
0.00153219
0.00153177
0.00153135
0.00153092
0.00153049
0.00153005
0.0015296
0.00152916
0.0015287
0.00152825
0.00152779
0.00152733
0.00152687
0.0015264
0.00152593
0.00152546
0.00152499
0.00152451
0.00152403
0.00152355
0.00152307
0.00152258
0.0015221
0.00152161
0.00152113
0.00152064
0.00152016
0.00151968
0.00151921
0.00151873
0.00151826
0.0015178
0.00151733
0.00151688
0.00151642
0.00151597
0.00151552
0.00151508
0.00151463
0.0015142
0.00151376
0.00151333
0.00151291
0.00151249
0.00151207
0.00151167
0.00151126
0.00151087
0.00151048
0.0015101
0.00150972
0.00150936
0.001509
0.00150865
0.00150831
0.00150798
0.00150765
0.00150733
0.00150702
0.00150672
0.00150642
0.00150613
0.00150585
0.00150558
0.00150531
0.00150505
0.00150481
0.00150457
0.00150434
0.00150412
0.00150391
0.00150371
0.00150352
0.00150335
0.00150318
0.00150302
0.00150287
0.00150273
0.0015026
0.00150248
0.00150237
0.00150226
0.00150217
0.00150208
0.001502
0.00150193
0.00150187
0.00150182
0.00150178
0.00150175
0.00150173
0.00150172
0.00150173
0.00150174
0.00150176
0.00150179
0.00150183
0.00150188
0.00150193
0.001502
0.00150207
0.00150216
0.00150225
0.00150234
0.00150245
0.00150256
0.00150268
0.00150281
0.00150295
0.0015031
0.00150325
0.00150342
0.00150359
0.00150377
0.00150396
0.00150416
0.00150436
0.00150457
0.0015048
0.00150502
0.00150526
0.0015055
0.00150575
0.001506
0.00150626
0.00150652
0.00150679
0.00150707
0.00150735
0.00150764
0.00150794
0.00150824
0.00150855
0.00150887
0.00150919
0.00150952
0.00150986
0.0015102
0.00151055
0.0015109
0.00151126
0.00151162
0.00151199
0.00151236
0.00151274
0.00151312
0.00151351
0.0015139
0.00151429
0.0015147
0.00151509
0.00151551
0.00151591
0.00151635
0.00151674
0.00151721
0.00151759
0.00151809
0.00151845
0.00151899
0.00151934
0.00151989
0.00152031
0.00152087
2.7326e-05
0.000118061
0.000176862
0.000260815
0.000385896
0.000524768
0.000641753
0.000744013
0.00083511
0.00091433
0.000981585
0.00103807
0.00108555
0.0011255
0.00115921
0.00118776
0.00121206
0.00123286
0.00125079
0.00126634
0.0012799
0.00129179
0.00130227
0.00131155
0.00131979
0.00132716
0.00133375
0.00133968
0.00134504
0.00134988
0.00135429
0.0013583
0.00136197
0.00136533
0.00136842
0.00137126
0.00137388
0.0013763
0.00137855
0.00138064
0.00138258
0.00138439
0.00138609
0.00138768
0.00138918
0.00139059
0.00139193
0.00139319
0.00139439
0.00139553
0.00139661
0.00139764
0.00139862
0.00139955
0.00140044
0.00140128
0.00140208
0.00140284
0.00140356
0.00140424
0.00140488
0.00140548
0.00140604
0.00140657
0.00140706
0.00140751
0.00140793
0.00140831
0.00140865
0.00140896
0.00140923
0.00140947
0.00140967
0.00140983
0.00140997
0.00141006
0.00141012
0.00141015
0.00141015
0.00141012
0.00141006
0.00140997
0.00140986
0.00140972
0.00140957
0.00140939
0.00140919
0.00140897
0.00140874
0.00140849
0.00140822
0.00140794
0.00140765
0.00140734
0.00140702
0.00140669
0.00140634
0.00140599
0.00140563
0.00140526
0.00140488
0.00140449
0.0014041
0.00140371
0.00140331
0.00140291
0.00140251
0.00140211
0.00140171
0.00140131
0.00140091
0.00140051
0.00140011
0.00139971
0.00139931
0.00139891
0.00139852
0.00139812
0.00139773
0.00139733
0.00139695
0.00139656
0.00139618
0.0013958
0.00139543
0.00139507
0.00139471
0.00139436
0.00139401
0.00139368
0.00139335
0.00139302
0.00139271
0.0013924
0.00139209
0.00139179
0.0013915
0.00139122
0.00139094
0.00139067
0.00139041
0.00139015
0.0013899
0.00138966
0.00138943
0.00138921
0.00138899
0.00138879
0.0013886
0.00138841
0.00138824
0.00138808
0.00138792
0.00138778
0.00138764
0.00138751
0.00138739
0.00138728
0.00138717
0.00138707
0.00138699
0.00138691
0.00138683
0.00138677
0.00138672
0.00138667
0.00138664
0.00138661
0.0013866
0.00138659
0.00138659
0.00138661
0.00138663
0.00138666
0.0013867
0.00138675
0.00138681
0.00138687
0.00138694
0.00138702
0.0013871
0.0013872
0.0013873
0.0013874
0.00138752
0.00138764
0.00138777
0.00138791
0.00138805
0.00138821
0.00138837
0.00138854
0.00138872
0.00138891
0.0013891
0.0013893
0.00138951
0.00138972
0.00138994
0.00139017
0.0013904
0.00139063
0.00139088
0.00139112
0.00139137
0.00139163
0.0013919
0.00139217
0.00139244
0.00139273
0.00139301
0.00139331
0.00139361
0.00139392
0.00139423
0.00139455
0.00139487
0.0013952
0.00139554
0.00139588
0.00139622
0.00139657
0.00139691
0.00139727
0.00139762
0.00139799
0.00139834
0.00139873
0.00139908
0.00139949
0.00139983
0.00140027
0.0014006
0.00140107
0.00140138
0.00140189
0.0014022
0.00140271
0.0014031
0.00140362
1.5547e-05
4.56574e-05
6.05774e-05
8.50125e-05
0.000126314
0.000186082
0.000252303
0.000320455
0.000391745
0.000463191
0.000531756
0.000595934
0.000655322
0.00070983
0.000759465
0.000804374
0.00084481
0.000881103
0.000913621
0.000942741
0.000968834
0.000992253
0.00101332
0.00103232
0.00104952
0.00106513
0.00107935
0.00109235
0.00110427
0.00111522
0.00112532
0.00113466
0.00114332
0.00115137
0.00115885
0.00116584
0.00117238
0.0011785
0.00118425
0.00118966
0.00119475
0.00119955
0.0012041
0.0012084
0.00121247
0.00121635
0.00122003
0.00122354
0.00122689
0.00123008
0.00123313
0.00123604
0.00123882
0.00124148
0.00124402
0.00124644
0.00124876
0.00125096
0.00125305
0.00125505
0.00125694
0.00125873
0.00126043
0.00126204
0.00126355
0.00126497
0.00126631
0.00126756
0.00126873
0.00126982
0.00127083
0.00127177
0.00127263
0.00127341
0.00127413
0.00127477
0.00127535
0.00127587
0.00127632
0.00127672
0.00127706
0.00127735
0.00127759
0.00127779
0.00127794
0.00127805
0.00127812
0.00127816
0.00127816
0.00127813
0.00127808
0.00127799
0.00127788
0.00127775
0.00127759
0.0012774
0.0012772
0.00127698
0.00127674
0.00127648
0.00127621
0.00127592
0.00127562
0.00127531
0.00127499
0.00127466
0.00127433
0.00127399
0.00127365
0.0012733
0.00127295
0.0012726
0.00127224
0.00127188
0.00127152
0.00127116
0.0012708
0.00127043
0.00127006
0.0012697
0.00126933
0.00126897
0.0012686
0.00126824
0.00126788
0.00126753
0.00126718
0.00126684
0.0012665
0.00126617
0.00126585
0.00126553
0.00126522
0.00126492
0.00126462
0.00126432
0.00126403
0.00126375
0.00126347
0.0012632
0.00126294
0.00126268
0.00126242
0.00126218
0.00126194
0.00126171
0.00126149
0.00126128
0.00126108
0.00126089
0.00126071
0.00126053
0.00126037
0.00126021
0.00126007
0.00125993
0.0012598
0.00125968
0.00125956
0.00125945
0.00125935
0.00125926
0.00125917
0.00125909
0.00125902
0.00125896
0.00125891
0.00125887
0.00125883
0.00125881
0.00125879
0.00125879
0.00125879
0.00125881
0.00125883
0.00125886
0.00125889
0.00125894
0.00125899
0.00125904
0.00125911
0.00125918
0.00125926
0.00125934
0.00125943
0.00125953
0.00125963
0.00125974
0.00125986
0.00125999
0.00126013
0.00126027
0.00126042
0.00126058
0.00126075
0.00126092
0.0012611
0.00126128
0.00126147
0.00126167
0.00126187
0.00126208
0.00126229
0.00126251
0.00126273
0.00126295
0.00126318
0.00126342
0.00126366
0.00126391
0.00126416
0.00126442
0.00126469
0.00126496
0.00126524
0.00126552
0.00126581
0.0012661
0.0012664
0.0012667
0.001267
0.00126732
0.00126762
0.00126795
0.00126826
0.0012686
0.0012689
0.00126926
0.00126956
0.00126994
0.00127022
0.00127063
0.00127091
0.00127135
0.00127161
0.00127208
0.00127235
0.0012728
0.00127316
0.00127364
1.41842e-05
2.37397e-05
2.79988e-05
3.24015e-05
4.09526e-05
5.48264e-05
7.42154e-05
9.80125e-05
0.000128257
0.000164506
0.000204929
0.000247927
0.000292403
0.000337489
0.000382406
0.000426506
0.000469298
0.000510429
0.000549649
0.000586796
0.000621782
0.000654577
0.000685201
0.000713714
0.000740203
0.000764775
0.000787552
0.000808663
0.000828239
0.000846408
0.000863293
0.00087901
0.000893664
0.000907354
0.000920165
0.000932177
0.000943459
0.000954073
0.000964075
0.000973515
0.000982437
0.000990882
0.000998885
0.00100648
0.0010137
0.00102056
0.0010271
0.00103333
0.00103928
0.00104495
0.00105036
0.00105553
0.00106047
0.00106518
0.00106967
0.00107396
0.00107804
0.00108192
0.00108561
0.00108911
0.00109243
0.00109557
0.00109853
0.00110133
0.00110397
0.00110645
0.00110878
0.00111097
0.00111301
0.00111491
0.00111669
0.00111834
0.00111987
0.00112128
0.00112257
0.00112377
0.00112485
0.00112584
0.00112674
0.00112755
0.00112827
0.00112891
0.00112948
0.00112998
0.00113042
0.00113079
0.00113111
0.00113137
0.00113159
0.00113175
0.00113188
0.00113197
0.00113201
0.00113202
0.001132
0.00113195
0.00113186
0.00113175
0.00113161
0.00113144
0.00113125
0.00113104
0.00113081
0.00113057
0.00113031
0.00113003
0.00112975
0.00112945
0.00112915
0.00112884
0.00112852
0.0011282
0.00112787
0.00112754
0.0011272
0.00112686
0.00112651
0.00112616
0.00112581
0.00112546
0.0011251
0.00112474
0.00112438
0.00112403
0.00112367
0.00112332
0.00112297
0.00112262
0.00112228
0.00112195
0.00112162
0.00112129
0.00112098
0.00112066
0.00112036
0.00112005
0.00111976
0.00111947
0.00111918
0.0011189
0.00111862
0.00111835
0.00111809
0.00111783
0.00111758
0.00111733
0.0011171
0.00111687
0.00111665
0.00111644
0.00111624
0.00111605
0.00111587
0.0011157
0.00111553
0.00111538
0.00111523
0.00111509
0.00111496
0.00111483
0.00111471
0.0011146
0.00111449
0.00111439
0.0011143
0.00111422
0.00111414
0.00111408
0.00111402
0.00111397
0.00111393
0.0011139
0.00111388
0.00111387
0.00111387
0.00111387
0.00111388
0.0011139
0.00111393
0.00111396
0.001114
0.00111404
0.00111409
0.00111415
0.00111421
0.00111428
0.00111435
0.00111444
0.00111452
0.00111462
0.00111473
0.00111484
0.00111496
0.00111508
0.00111522
0.00111536
0.0011155
0.00111566
0.00111581
0.00111598
0.00111615
0.00111632
0.0011165
0.00111668
0.00111686
0.00111705
0.00111725
0.00111745
0.00111765
0.00111786
0.00111808
0.0011183
0.00111852
0.00111876
0.00111899
0.00111924
0.00111948
0.00111974
0.00111999
0.00112026
0.00112052
0.0011208
0.00112106
0.00112135
0.00112161
0.00112191
0.00112217
0.00112249
0.00112273
0.00112308
0.00112331
0.00112369
0.00112391
0.00112431
0.00112452
0.00112494
0.00112517
0.00112557
0.00112588
0.00112632
1.39809e-05
1.91587e-05
2.17364e-05
2.2589e-05
2.37832e-05
2.55243e-05
2.79716e-05
3.14093e-05
3.68003e-05
4.50125e-05
5.63482e-05
7.0789e-05
8.82485e-05
0.000108559
0.00013143
0.000156488
0.000183329
0.000211555
0.000240779
0.000270637
0.000300795
0.000330956
0.000360859
0.000390285
0.000419048
0.000446999
0.000474026
0.000500042
0.000524993
0.000548846
0.000571588
0.000593227
0.000613779
0.000633276
0.000651755
0.000669259
0.000685837
0.000701539
0.000716413
0.000730511
0.000743881
0.00075657
0.00076862
0.000780074
0.000790968
0.000801338
0.000811213
0.000820622
0.000829587
0.000838132
0.000846274
0.000854029
0.000861413
0.000868437
0.000875113
0.000881451
0.000887462
0.000893155
0.000898539
0.000903624
0.000908419
0.000912934
0.000917179
0.000921164
0.0009249
0.000928395
0.000931662
0.000934709
0.000937548
0.000940187
0.000942637
0.000944906
0.000947004
0.000948939
0.000950718
0.000952351
0.000953845
0.000955207
0.000956444
0.000957564
0.000958574
0.000959479
0.000960288
0.000961006
0.000961639
0.000962194
0.000962675
0.000963089
0.000963441
0.000963734
0.000963972
0.00096416
0.0009643
0.000964396
0.00096445
0.000964464
0.000964441
0.000964384
0.000964293
0.000964171
0.000964021
0.000963845
0.000963645
0.000963423
0.000963182
0.000962924
0.00096265
0.000962364
0.000962066
0.000961758
0.000961441
0.000961116
0.000960785
0.000960446
0.000960102
0.000959752
0.000959397
0.000959037
0.000958672
0.000958303
0.000957931
0.000957557
0.000957181
0.000956804
0.000956428
0.000956053
0.00095568
0.000955312
0.000954947
0.000954587
0.000954232
0.000953883
0.000953539
0.000953201
0.000952869
0.000952542
0.00095222
0.000951902
0.00095159
0.000951282
0.000950979
0.000950681
0.000950388
0.000950101
0.000949821
0.000949548
0.000949282
0.000949025
0.000948776
0.000948536
0.000948305
0.000948084
0.000947872
0.000947668
0.000947474
0.000947288
0.00094711
0.000946939
0.000946776
0.000946619
0.000946469
0.000946325
0.000946188
0.000946058
0.000945935
0.000945819
0.000945711
0.000945611
0.000945519
0.000945437
0.000945363
0.000945298
0.000945243
0.000945196
0.000945157
0.000945127
0.000945104
0.000945089
0.00094508
0.000945078
0.000945081
0.00094509
0.000945105
0.000945125
0.000945151
0.000945182
0.00094522
0.000945264
0.000945314
0.000945371
0.000945436
0.000945507
0.000945586
0.000945673
0.000945766
0.000945866
0.000945972
0.000946085
0.000946203
0.000946326
0.000946454
0.000946586
0.000946722
0.000946863
0.000947006
0.000947154
0.000947305
0.000947462
0.000947621
0.000947788
0.000947956
0.000948133
0.000948311
0.0009485
0.000948687
0.000948889
0.000949084
0.000949298
0.0009495
0.000949726
0.000949931
0.000950169
0.000950375
0.000950625
0.000950827
0.000951092
0.000951288
0.000951571
0.000951756
0.000952061
0.000952234
0.000952564
0.000952726
0.000953078
0.000953238
0.000953598
0.000953784
0.00095412
0.000954386
0.000954774
1.38929e-05
1.85752e-05
2.059e-05
2.11869e-05
2.16312e-05
2.20187e-05
2.23393e-05
2.26498e-05
2.30398e-05
2.3606e-05
2.4493e-05
2.58869e-05
2.80386e-05
3.12335e-05
3.57319e-05
4.17337e-05
4.93497e-05
5.8632e-05
6.95674e-05
8.21068e-05
9.61618e-05
0.000111621
0.000128351
0.000146201
0.000165013
0.00018462
0.000204857
0.00022556
0.000246573
0.000267751
0.00028896
0.000310078
0.000330997
0.000351626
0.000371882
0.000391701
0.000411026
0.000429816
0.000448036
0.000465663
0.000482678
0.000499072
0.00051484
0.000529981
0.000544497
0.000558395
0.000571682
0.000584368
0.000596462
0.000607978
0.000618928
0.000629325
0.000639181
0.000648511
0.00065733
0.000665652
0.000673495
0.000680873
0.000687803
0.000694302
0.000700389
0.00070608
0.000711393
0.000716346
0.000720957
0.000725243
0.000729222
0.000732911
0.000736326
0.000739482
0.000742396
0.000745081
0.00074755
0.000749817
0.000751894
0.000753793
0.000755523
0.000757096
0.000758521
0.000759808
0.000760965
0.000762001
0.000762924
0.000763743
0.000764464
0.000765095
0.000765643
0.000766113
0.000766512
0.000766846
0.000767118
0.000767333
0.000767495
0.000767609
0.000767676
0.0007677
0.000767683
0.000767628
0.000767537
0.000767412
0.000767257
0.000767073
0.000766862
0.000766628
0.000766372
0.000766097
0.000765805
0.000765498
0.000765178
0.000764846
0.000764505
0.000764154
0.000763796
0.000763431
0.00076306
0.000762682
0.000762299
0.00076191
0.000761517
0.00076112
0.000760719
0.000760315
0.000759908
0.000759501
0.000759094
0.000758687
0.000758282
0.000757881
0.000757483
0.000757089
0.0007567
0.000756317
0.00075594
0.000755568
0.000755202
0.000754841
0.000754486
0.000754136
0.00075379
0.00075345
0.000753114
0.000752784
0.000752459
0.000752139
0.000751825
0.000751518
0.000751219
0.000750927
0.000750643
0.000750368
0.000750102
0.000749845
0.000749597
0.000749358
0.000749128
0.000748907
0.000748693
0.000748488
0.000748289
0.000748097
0.000747912
0.000747733
0.000747561
0.000747395
0.000747236
0.000747083
0.000746938
0.000746801
0.000746671
0.00074655
0.000746437
0.000746333
0.000746237
0.00074615
0.000746071
0.000746001
0.000745938
0.000745882
0.000745832
0.000745789
0.000745752
0.00074572
0.000745694
0.000745672
0.000745656
0.000745646
0.00074564
0.000745641
0.000745647
0.00074566
0.000745679
0.000745705
0.000745737
0.000745777
0.000745823
0.000745876
0.000745935
0.000746
0.00074607
0.000746146
0.000746225
0.00074631
0.000746396
0.000746489
0.000746582
0.000746683
0.000746783
0.000746891
0.000746997
0.000747115
0.000747228
0.000747356
0.000747477
0.000747616
0.000747745
0.000747897
0.000748032
0.000748197
0.000748336
0.000748514
0.000748655
0.000748847
0.000748986
0.000749191
0.000749326
0.000749546
0.000749673
0.000749909
0.000750027
0.000750281
0.00075039
0.000750662
0.000750766
0.000751051
0.00075116
0.000751444
0.000751583
0.000751844
0.00075205
0.000752368