/*--------------------------------*- C++ -*----------------------------------*\
  =========                 |
  \\      /  F ield         | OpenFOAM: The Open Source CFD Toolbox
   \\    /   O peration     | Website:  https://openfoam.org
    \\  /    A nd           | Version:  7
     \\/     M anipulation  |
\*---------------------------------------------------------------------------*/
FoamFile
{
    version     2.0;
    format      ascii;
    class       volScalarField;
    location    "0.44";
    object      p;
}
// * * * * * * * * * * * * * * * * * * * * * * * * * * * * * * * * * * * * * //

dimensions      [1 -1 -2 0 0 0 0];

internalField   nonuniform List<scalar> 
7920
(
101744
101727
101735
101725
101731
101723
101728
101722
101726
101721
101724
101719
101722
101718
101720
101717
101718
101715
101717
101714
101727
101714
101721
101712
101718
101710
101715
101709
101713
101708
101711
101707
101709
101705
101707
101704
101705
101703
101703
101701
101735
101722
101729
101719
101725
101717
101723
101716
101720
101715
101718
101714
101716
101713
101714
101711
101713
101710
101711
101708
101728
101716
101723
101713
101720
101712
101717
101711
101715
101709
101713
101708
101711
101707
101709
101706
101707
101704
101705
101703
101732
101721
101727
101717
101723
101716
101721
101714
101718
101713
101716
101712
101715
101711
101713
101709
101711
101708
101709
101707
101730
101719
101725
101715
101722
101714
101719
101712
101717
101711
101715
101710
101713
101709
101711
101708
101709
101706
101707
101705
101730
101719
101725
101715
101722
101714
101719
101712
101717
101711
101715
101710
101713
101709
101711
101708
101709
101706
101707
101705
101732
101721
101727
101717
101723
101716
101721
101714
101718
101713
101716
101712
101715
101711
101713
101709
101711
101708
101709
101707
101728
101716
101723
101713
101720
101712
101717
101711
101715
101709
101713
101708
101711
101707
101709
101706
101707
101704
101705
101703
101735
101722
101729
101719
101725
101717
101723
101716
101720
101715
101718
101714
101716
101713
101714
101711
101713
101710
101711
101708
101727
101714
101721
101712
101718
101710
101715
101709
101713
101708
101711
101707
101709
101705
101707
101704
101705
101703
101703
101701
101744
101727
101735
101725
101731
101723
101728
101722
101726
101721
101724
101719
101722
101718
101720
101717
101718
101715
101717
101714
101710
101712
101705
101708
101704
101706
101703
101704
101702
101703
101701
101702
101700
101701
101700
101699
101699
101698
101698
101698
101721
101724
101718
101720
101716
101718
101715
101716
101714
101715
101713
101713
101712
101712
101711
101711
101711
101710
101710
101710
101712
101715
101708
101711
101706
101708
101705
101707
101705
101705
101704
101704
101703
101703
101702
101702
101701
101701
101700
101700
101718
101722
101715
101718
101714
101716
101713
101714
101712
101712
101711
101711
101710
101710
101709
101709
101708
101708
101707
101707
101713
101717
101711
101713
101709
101711
101708
101709
101707
101708
101706
101707
101705
101705
101705
101704
101704
101703
101703
101703
101715
101719
101713
101716
101711
101713
101710
101712
101709
101710
101709
101709
101708
101708
101707
101707
101706
101706
101705
101705
101715
101719
101713
101716
101711
101713
101710
101712
101709
101710
101709
101709
101708
101708
101707
101707
101706
101706
101705
101705
101713
101717
101711
101713
101709
101711
101708
101709
101707
101708
101706
101707
101705
101705
101705
101704
101704
101703
101703
101703
101718
101722
101715
101718
101714
101716
101713
101714
101712
101712
101711
101711
101710
101710
101709
101709
101708
101708
101707
101707
101712
101715
101708
101711
101706
101708
101705
101707
101705
101705
101704
101704
101703
101703
101702
101702
101701
101701
101700
101700
101721
101724
101718
101720
101716
101718
101715
101716
101714
101715
101713
101713
101712
101712
101711
101711
101711
101710
101710
101710
101710
101712
101705
101708
101704
101706
101703
101704
101702
101703
101701
101702
101700
101701
101700
101699
101699
101698
101698
101698
101702
101701
101700
101699
101698
101698
101697
101697
101696
101696
101695
101695
101694
101694
101693
101693
101693
101692
101691
101691
101702
101701
101700
101699
101698
101698
101697
101697
101696
101696
101695
101695
101694
101694
101693
101693
101692
101692
101691
101691
101702
101701
101700
101699
101698
101698
101697
101697
101696
101696
101695
101695
101694
101694
101694
101693
101693
101692
101691
101691
101701
101701
101700
101699
101699
101698
101697
101697
101696
101696
101695
101695
101694
101694
101694
101693
101693
101692
101691
101691
101701
101701
101700
101699
101699
101698
101697
101697
101696
101696
101695
101695
101694
101694
101694
101693
101693
101692
101691
101691
101701
101701
101700
101699
101699
101698
101697
101697
101696
101696
101695
101695
101694
101694
101694
101693
101693
101692
101691
101691
101701
101701
101700
101699
101699
101698
101697
101697
101696
101696
101695
101695
101694
101694
101694
101693
101693
101692
101691
101691
101701
101701
101700
101699
101699
101698
101697
101697
101696
101696
101695
101695
101694
101694
101694
101693
101693
101692
101691
101691
101701
101701
101700
101699
101699
101698
101697
101697
101696
101696
101695
101695
101694
101694
101694
101693
101693
101692
101691
101691
101702
101701
101700
101699
101698
101698
101697
101697
101696
101696
101695
101695
101694
101694
101694
101693
101693
101692
101691
101691
101702
101701
101700
101699
101698
101698
101697
101697
101696
101696
101695
101695
101694
101694
101693
101693
101692
101692
101691
101691
101702
101701
101700
101699
101698
101698
101697
101697
101696
101696
101695
101695
101694
101694
101693
101693
101693
101692
101691
101691
101702
101701
101700
101699
101698
101698
101697
101697
101696
101696
101695
101695
101694
101694
101693
101693
101693
101692
101691
101691
101702
101701
101700
101699
101698
101698
101697
101697
101696
101696
101695
101695
101694
101694
101693
101693
101692
101692
101691
101691
101702
101701
101700
101699
101698
101698
101697
101697
101696
101696
101695
101695
101694
101694
101694
101693
101693
101692
101691
101691
101701
101701
101700
101699
101699
101698
101697
101697
101696
101696
101695
101695
101694
101694
101694
101693
101693
101692
101691
101691
101701
101701
101700
101699
101699
101698
101697
101697
101696
101696
101695
101695
101694
101694
101694
101693
101693
101692
101691
101691
101701
101701
101700
101699
101699
101698
101697
101697
101696
101696
101695
101695
101694
101694
101694
101693
101693
101692
101691
101691
101701
101701
101700
101699
101699
101698
101697
101697
101696
101696
101695
101695
101694
101694
101694
101693
101693
101692
101691
101691
101701
101701
101700
101699
101699
101698
101697
101697
101696
101696
101695
101695
101694
101694
101694
101693
101693
101692
101691
101691
101701
101701
101700
101699
101699
101698
101697
101697
101696
101696
101695
101695
101694
101694
101694
101693
101693
101692
101691
101691
101702
101701
101700
101699
101698
101698
101697
101697
101696
101696
101695
101695
101694
101694
101694
101693
101693
101692
101691
101691
101702
101701
101700
101699
101698
101698
101697
101697
101696
101696
101695
101695
101694
101694
101693
101693
101692
101692
101691
101691
101702
101701
101700
101699
101698
101698
101697
101697
101696
101696
101695
101695
101694
101694
101693
101693
101693
101692
101691
101691
101710
101712
101705
101708
101704
101706
101703
101704
101702
101703
101701
101702
101700
101701
101700
101699
101699
101698
101698
101698
101721
101724
101718
101720
101716
101718
101715
101716
101714
101715
101713
101713
101712
101712
101711
101711
101711
101710
101710
101710
101712
101715
101708
101711
101706
101708
101705
101707
101705
101705
101704
101704
101703
101703
101702
101702
101701
101701
101700
101700
101718
101722
101715
101718
101714
101716
101713
101714
101712
101712
101711
101711
101710
101710
101709
101709
101708
101708
101707
101707
101713
101717
101711
101713
101709
101711
101708
101709
101707
101708
101706
101707
101705
101705
101705
101704
101704
101703
101703
101703
101715
101719
101713
101716
101711
101713
101710
101712
101709
101710
101709
101709
101708
101708
101707
101707
101706
101706
101705
101705
101715
101719
101713
101716
101711
101713
101710
101712
101709
101710
101709
101709
101708
101708
101707
101707
101706
101706
101705
101705
101713
101717
101711
101713
101709
101711
101708
101709
101707
101708
101706
101707
101705
101705
101705
101704
101704
101703
101703
101703
101718
101722
101715
101718
101714
101716
101713
101714
101712
101712
101711
101711
101710
101710
101709
101709
101708
101708
101707
101707
101712
101715
101708
101711
101706
101708
101705
101707
101705
101705
101704
101704
101703
101703
101702
101702
101701
101701
101700
101700
101721
101724
101718
101720
101716
101718
101715
101716
101714
101715
101713
101713
101712
101712
101711
101711
101711
101710
101710
101710
101710
101712
101705
101708
101704
101706
101703
101704
101702
101703
101701
101702
101700
101701
101700
101699
101699
101698
101698
101698
101744
101727
101735
101725
101731
101723
101728
101722
101726
101721
101724
101719
101722
101718
101720
101717
101718
101715
101717
101714
101727
101714
101721
101712
101718
101710
101715
101709
101713
101708
101711
101707
101709
101705
101707
101704
101705
101703
101703
101701
101735
101722
101729
101719
101725
101717
101723
101716
101720
101715
101718
101714
101716
101713
101714
101711
101713
101710
101711
101708
101728
101716
101723
101713
101720
101712
101717
101711
101715
101709
101713
101708
101711
101707
101709
101706
101707
101704
101705
101703
101732
101721
101727
101717
101723
101716
101721
101714
101718
101713
101716
101712
101715
101711
101713
101709
101711
101708
101709
101707
101730
101719
101725
101715
101722
101714
101719
101712
101717
101711
101715
101710
101713
101709
101711
101708
101709
101706
101707
101705
101730
101719
101725
101715
101722
101714
101719
101712
101717
101711
101715
101710
101713
101709
101711
101708
101709
101706
101707
101705
101732
101721
101727
101717
101723
101716
101721
101714
101718
101713
101716
101712
101715
101711
101713
101709
101711
101708
101709
101707
101728
101716
101723
101713
101720
101712
101717
101711
101715
101709
101713
101708
101711
101707
101709
101706
101707
101704
101705
101703
101735
101722
101729
101719
101725
101717
101723
101716
101720
101715
101718
101714
101716
101713
101714
101711
101713
101710
101711
101708
101727
101714
101721
101712
101718
101710
101715
101709
101713
101708
101711
101707
101709
101705
101707
101704
101705
101703
101703
101701
101744
101727
101735
101725
101731
101723
101728
101722
101726
101721
101724
101719
101722
101718
101720
101717
101718
101715
101717
101714
101735
101721
101721
101709
101708
101697
101696
101686
101684
101674
101672
101662
101659
101650
101646
101638
101634
101626
101623
101615
101611
101602
101597
101588
101583
101575
101571
101564
101559
101551
101545
101536
101530
101521
101515
101506
101501
101493
101488
101479
101473
101463
101455
101445
101437
101427
101420
101411
101404
101396
101388
101378
101369
101357
101345
101332
101320
101306
101294
101280
101268
101252
101237
101217
101197
101171
101145
101113
101082
101044
101009
100967
100928
100883
100840
100792
100743
100692
100638
100584
100526
100474
100414
100365
100308
100266
100214
100179
100135
100103
101700
101685
101685
101672
101672
101661
101660
101650
101648
101638
101635
101626
101623
101613
101610
101601
101598
101590
101587
101578
101574
101565
101560
101552
101547
101539
101535
101527
101523
101515
101509
101500
101493
101484
101478
101470
101465
101457
101451
101443
101436
101427
101419
101409
101401
101391
101383
101375
101368
101360
101352
101342
101333
101320
101309
101296
101283
101270
101258
101244
101231
101216
101201
101181
101161
101135
101109
101077
101046
101008
100973
100931
100892
100847
100804
100756
100707
100656
100602
100549
100490
100438
100378
100330
100272
100230
100179
100143
100099
100068
101719
101705
101706
101693
101693
101682
101681
101670
101669
101659
101656
101646
101643
101634
101631
101622
101619
101611
101607
101599
101595
101586
101581
101572
101568
101560
101555
101548
101544
101535
101530
101521
101514
101505
101499
101491
101485
101478
101472
101464
101457
101447
101439
101429
101421
101411
101404
101395
101389
101380
101373
101363
101353
101341
101329
101316
101304
101290
101278
101264
101252
101236
101221
101201
101181
101155
101130
101097
101066
101028
100993
100951
100913
100868
100825
100776
100728
100676
100622
100569
100510
100458
100398
100350
100292
100251
100199
100163
100119
100088
101704
101689
101689
101677
101676
101665
101664
101654
101652
101642
101640
101630
101627
101617
101614
101605
101602
101594
101591
101583
101578
101570
101565
101556
101551
101543
101539
101532
101527
101519
101513
101504
101498
101488
101482
101474
101469
101461
101456
101447
101441
101431
101423
101413
101405
101395
101388
101379
101372
101364
101356
101346
101337
101325
101313
101300
101288
101274
101262
101248
101236
101220
101205
101185
101165
101139
101113
101081
101050
101012
100977
100935
100896
100851
100808
100760
100712
100660
100606
100553
100494
100442
100382
100334
100276
100234
100183
100147
100103
100072
101714
101700
101700
101687
101687
101676
101675
101665
101663
101653
101651
101641
101638
101628
101625
101616
101613
101605
101602
101593
101589
101580
101576
101567
101562
101554
101550
101542
101538
101530
101524
101515
101508
101499
101493
101485
101480
101472
101466
101458
101451
101442
101434
101424
101416
101406
101398
101390
101383
101374
101367
101357
101347
101335
101324
101310
101298
101285
101273
101259
101246
101231
101216
101196
101176
101150
101124
101091
101060
101023
100987
100946
100907
100862
100819
100770
100722
100670
100617
100563
100505
100452
100392
100344
100287
100245
100193
100158
100113
100082
101709
101695
101695
101682
101682
101670
101669
101659
101658
101648
101645
101635
101632
101623
101620
101611
101608
101600
101596
101588
101584
101575
101570
101561
101556
101548
101544
101537
101533
101524
101519
101509
101503
101494
101488
101480
101474
101467
101461
101453
101446
101436
101428
101418
101410
101400
101393
101384
101377
101369
101362
101352
101342
101330
101318
101305
101293
101279
101267
101253
101241
101225
101210
101190
101170
101144
101119
101086
101055
101017
100982
100940
100902
100857
100814
100765
100717
100665
100611
100558
100499
100447
100387
100339
100281
100240
100188
100153
100108
100077
101709
101695
101695
101682
101682
101671
101670
101660
101658
101648
101645
101636
101632
101623
101620
101611
101608
101600
101597
101588
101584
101575
101570
101561
101557
101549
101545
101537
101533
101525
101519
101510
101503
101494
101488
101480
101474
101467
101461
101453
101446
101437
101429
101419
101410
101401
101393
101384
101378
101369
101362
101352
101342
101330
101319
101305
101293
101279
101268
101254
101241
101225
101210
101191
101171
101145
101119
101086
101055
101018
100982
100941
100902
100857
100814
100765
100717
100665
100611
100558
100500
100447
100387
100339
100282
100240
100188
100153
100108
100077
101714
101700
101700
101687
101687
101676
101675
101664
101663
101653
101650
101641
101637
101628
101625
101616
101613
101605
101601
101593
101589
101580
101575
101566
101562
101554
101550
101542
101538
101530
101524
101515
101508
101499
101493
101485
101479
101472
101466
101458
101451
101442
101434
101423
101415
101406
101398
101389
101383
101374
101367
101357
101347
101335
101324
101310
101298
101284
101272
101258
101246
101230
101215
101195
101175
101149
101124
101091
101060
101022
100987
100946
100907
100862
100819
100770
100722
100670
100616
100563
100505
100452
100392
100344
100286
100245
100193
100158
100113
100082
101704
101689
101689
101677
101676
101665
101664
101654
101652
101643
101640
101630
101627
101618
101614
101606
101603
101594
101591
101583
101579
101570
101565
101556
101551
101543
101539
101532
101527
101519
101514
101504
101498
101489
101483
101475
101469
101461
101456
101448
101441
101431
101423
101413
101405
101395
101388
101379
101372
101364
101357
101347
101337
101325
101313
101300
101288
101274
101262
101248
101236
101220
101205
101185
101165
101139
101114
101081
101050
101012
100977
100935
100897
100852
100809
100760
100712
100660
100606
100553
100494
100442
100382
100334
100276
100235
100183
100148
100103
100072
101719
101705
101705
101693
101692
101681
101680
101670
101668
101658
101656
101646
101643
101634
101630
101622
101619
101610
101607
101599
101595
101586
101581
101572
101567
101559
101555
101548
101543
101535
101529
101520
101514
101505
101499
101490
101485
101477
101472
101463
101457
101447
101439
101429
101421
101411
101404
101395
101388
101380
101372
101362
101353
101341
101329
101316
101304
101290
101278
101264
101252
101236
101221
101201
101181
101155
101129
101097
101066
101028
100993
100951
100912
100867
100824
100776
100727
100676
100622
100569
100510
100458
100398
100350
100292
100250
100199
100163
100119
100088
101700
101685
101685
101673
101672
101661
101660
101650
101648
101638
101636
101626
101623
101613
101610
101602
101598
101590
101587
101579
101575
101566
101561
101552
101547
101539
101535
101528
101523
101515
101509
101500
101494
101485
101479
101470
101465
101457
101452
101443
101437
101427
101419
101409
101401
101391
101384
101375
101368
101360
101352
101342
101333
101321
101309
101296
101284
101270
101258
101244
101232
101216
101201
101181
101161
101135
101109
101077
101046
101008
100973
100931
100893
100847
100805
100756
100708
100656
100602
100549
100490
100438
100378
100330
100272
100231
100179
100144
100099
100068
101735
101721
101721
101708
101708
101697
101696
101686
101684
101674
101671
101662
101659
101649
101646
101637
101634
101626
101623
101614
101610
101601
101596
101588
101583
101575
101571
101563
101559
101551
101545
101536
101529
101520
101514
101506
101501
101493
101487
101479
101472
101463
101455
101445
101437
101427
101419
101411
101404
101395
101388
101378
101368
101356
101345
101331
101319
101306
101294
101280
101267
101252
101237
101217
101197
101171
101145
101112
101081
101044
101008
100967
100928
100883
100840
100791
100743
100691
100637
100584
100526
100473
100413
100365
100307
100266
100214
100179
100134
100103
101680
101671
101670
101661
101660
101652
101650
101642
101640
101631
101629
101620
101617
101608
101605
101597
101594
101586
101583
101574
101570
101562
101557
101548
101544
101536
101532
101524
101520
101512
101506
101497
101491
101482
101475
101467
101462
101454
101449
101441
101434
101424
101416
101406
101398
101388
101381
101372
101366
101357
101350
101340
101330
101318
101307
101293
101281
101267
101255
101241
101229
101213
101198
101178
101158
101132
101107
101074
101043
101005
100970
100928
100889
100844
100801
100752
100704
100652
100598
100545
100486
100434
100374
100326
100268
100226
100174
100139
100094
100063
101713
101705
101704
101695
101694
101686
101684
101676
101674
101666
101663
101654
101651
101642
101639
101631
101628
101620
101617
101609
101605
101596
101591
101582
101578
101570
101566
101559
101554
101546
101540
101531
101525
101516
101510
101501
101496
101489
101483
101475
101468
101458
101451
101440
101432
101422
101415
101406
101400
101391
101384
101374
101364
101352
101341
101327
101315
101301
101289
101275
101263
101247
101232
101212
101192
101166
101141
101108
101077
101039
101004
100962
100923
100878
100835
100786
100738
100686
100632
100579
100520
100468
100408
100360
100302
100260
100208
100173
100128
100096
101688
101679
101678
101669
101668
101659
101658
101650
101648
101639
101637
101628
101624
101616
101613
101604
101601
101593
101590
101582
101578
101570
101565
101556
101551
101543
101539
101532
101528
101520
101514
101505
101498
101489
101483
101475
101470
101462
101457
101448
101442
101432
101424
101414
101406
101396
101389
101380
101373
101365
101357
101347
101338
101326
101314
101301
101289
101275
101263
101249
101237
101221
101206
101186
101166
101140
101114
101082
101051
101013
100978
100936
100897
100852
100809
100760
100712
100660
100606
100553
100494
100442
100381
100333
100276
100234
100182
100147
100102
100071
101707
101698
101697
101689
101687
101679
101678
101669
101667
101659
101656
101647
101644
101635
101632
101624
101621
101613
101610
101602
101598
101589
101584
101576
101571
101563
101559
101552
101547
101539
101534
101524
101518
101509
101503
101495
101489
101482
101476
101468
101461
101452
101444
101434
101426
101416
101408
101400
101393
101384
101377
101367
101358
101345
101334
101320
101308
101295
101283
101269
101256
101241
101226
101206
101186
101160
101134
101101
101070
101032
100997
100955
100917
100871
100828
100780
100731
100680
100626
100572
100514
100461
100401
100353
100295
100253
100201
100166
100121
100090
101695
101686
101684
101676
101674
101666
101665
101656
101654
101646
101643
101634
101631
101622
101619
101611
101608
101600
101597
101589
101585
101576
101571
101563
101558
101550
101546
101539
101534
101526
101521
101511
101505
101496
101490
101482
101476
101469
101463
101455
101448
101439
101431
101421
101412
101403
101395
101387
101380
101371
101364
101354
101344
101332
101321
101307
101295
101282
101270
101256
101243
101228
101213
101193
101173
101147
101121
101088
101057
101019
100984
100942
100904
100858
100815
100767
100718
100667
100613
100559
100501
100448
100388
100340
100282
100240
100188
100153
100108
100077
101701
101692
101691
101682
101681
101673
101671
101663
101661
101652
101650
101641
101638
101629
101626
101618
101615
101607
101603
101595
101591
101583
101578
101569
101565
101557
101553
101545
101541
101533
101527
101518
101512
101502
101496
101488
101483
101475
101470
101462
101455
101445
101437
101427
101419
101409
101402
101393
101386
101378
101371
101361
101351
101339
101327
101314
101302
101288
101276
101262
101250
101234
101219
101199
101179
101153
101127
101095
101064
101026
100991
100949
100910
100865
100822
100773
100725
100673
100619
100566
100507
100455
100395
100346
100289
100247
100195
100160
100115
100083
101701
101692
101691
101682
101681
101672
101671
101663
101661
101652
101649
101641
101637
101629
101625
101617
101614
101606
101603
101595
101591
101582
101578
101569
101564
101556
101552
101545
101541
101533
101527
101518
101511
101502
101496
101488
101483
101475
101470
101461
101454
101445
101437
101427
101419
101409
101402
101393
101386
101378
101370
101360
101351
101339
101327
101314
101302
101288
101276
101262
101250
101234
101219
101199
101179
101153
101127
101095
101063
101026
100990
100949
100910
100865
100822
100773
100725
100673
100619
100565
100507
100455
100394
100346
100288
100247
100195
100159
100114
100083
101695
101686
101684
101676
101675
101666
101665
101657
101655
101646
101643
101635
101631
101623
101619
101611
101608
101600
101597
101589
101585
101576
101572
101563
101558
101550
101546
101539
101535
101526
101521
101512
101505
101496
101490
101482
101477
101469
101463
101455
101448
101439
101431
101421
101413
101403
101396
101387
101380
101372
101364
101354
101345
101333
101321
101308
101296
101282
101270
101256
101244
101228
101213
101193
101173
101147
101121
101089
101057
101020
100984
100943
100904
100859
100816
100767
100719
100667
100613
100559
100501
100449
100388
100340
100282
100241
100189
100153
100108
100077
101707
101698
101697
101688
101687
101679
101677
101669
101667
101658
101656
101647
101644
101635
101632
101624
101621
101613
101610
101602
101598
101589
101584
101575
101571
101563
101559
101551
101547
101539
101533
101524
101518
101509
101503
101494
101489
101481
101476
101468
101461
101451
101443
101433
101425
101415
101408
101399
101393
101384
101377
101367
101357
101345
101334
101320
101308
101294
101282
101268
101256
101240
101225
101205
101185
101159
101133
101101
101070
101032
100997
100955
100916
100871
100828
100779
100731
100679
100625
100572
100513
100461
100401
100353
100295
100253
100201
100166
100121
100089
101688
101679
101678
101669
101668
101660
101658
101650
101648
101639
101637
101628
101625
101616
101613
101605
101602
101594
101590
101582
101578
101570
101565
101556
101552
101544
101540
101532
101528
101520
101514
101505
101499
101490
101483
101475
101470
101462
101457
101449
101442
101432
101424
101414
101406
101396
101389
101380
101374
101365
101358
101348
101338
101326
101315
101301
101289
101275
101263
101249
101237
101221
101206
101186
101166
101140
101114
101082
101051
101013
100978
100936
100897
100852
100809
100760
100712
100660
100606
100553
100494
100442
100382
100334
100276
100234
100182
100147
100102
100071
101713
101705
101704
101695
101694
101686
101684
101676
101674
101665
101663
101654
101651
101642
101639
101630
101627
101620
101616
101608
101604
101596
101591
101582
101577
101570
101565
101558
101554
101546
101540
101531
101524
101515
101509
101501
101496
101488
101483
101474
101468
101458
101450
101440
101432
101422
101415
101406
101399
101391
101383
101373
101364
101352
101340
101327
101315
101301
101289
101275
101263
101247
101232
101212
101192
101166
101140
101108
101077
101039
101003
100962
100923
100878
100835
100786
100738
100686
100632
100578
100520
100467
100407
100359
100301
100260
100207
100172
100127
100096
101680
101671
101670
101662
101660
101652
101650
101642
101640
101632
101629
101620
101617
101608
101605
101597
101594
101586
101583
101575
101571
101562
101557
101548
101544
101536
101532
101525
101520
101512
101506
101497
101491
101482
101476
101468
101462
101455
101449
101441
101434
101425
101417
101406
101398
101389
101381
101372
101366
101357
101350
101340
101330
101318
101307
101293
101281
101268
101256
101242
101229
101214
101198
101179
101159
101133
101107
101074
101043
101005
100970
100928
100890
100844
100801
100753
100704
100653
100599
100545
100487
100434
100374
100326
100268
100226
100174
100139
100094
100063
101689
101682
101680
101673
101671
101664
101662
101655
101653
101645
101643
101635
101631
101623
101620
101613
101609
101602
101599
101591
101587
101579
101574
101565
101561
101553
101549
101542
101538
101530
101524
101515
101508
101499
101493
101485
101480
101472
101467
101459
101452
101442
101435
101424
101416
101407
101399
101390
101384
101375
101368
101358
101348
101336
101325
101311
101299
101286
101274
101260
101247
101232
101216
101197
101177
101150
101125
101092
101061
101023
100988
100946
100907
100862
100819
100770
100721
100670
100616
100562
100503
100451
100391
100343
100285
100243
100191
100156
100111
100080
101689
101682
101680
101673
101671
101664
101662
101655
101653
101645
101643
101635
101632
101623
101620
101613
101610
101602
101599
101591
101587
101579
101574
101565
101561
101553
101549
101542
101538
101530
101524
101515
101508
101499
101493
101485
101480
101472
101467
101459
101452
101442
101435
101424
101416
101407
101399
101390
101384
101375
101368
101358
101348
101336
101325
101311
101299
101286
101274
101260
101247
101232
101217
101197
101177
101150
101125
101092
101061
101023
100988
100946
100907
100862
100819
100770
100721
100670
100616
100562
100504
100451
100391
100343
100285
100243
100191
100156
100111
100080
101689
101682
101679
101673
101671
101664
101662
101655
101653
101645
101643
101635
101631
101623
101620
101612
101609
101602
101599
101591
101587
101579
101574
101565
101561
101553
101549
101542
101538
101530
101524
101515
101508
101499
101493
101485
101480
101472
101467
101459
101452
101442
101435
101424
101416
101407
101399
101390
101384
101375
101368
101358
101348
101336
101325
101311
101299
101286
101274
101260
101247
101232
101216
101197
101177
101150
101125
101092
101061
101023
100988
100946
100907
100862
100819
100770
100721
100670
100616
100562
100503
100451
100391
100343
100285
100243
100191
100156
100111
100080
101689
101682
101680
101673
101671
101664
101662
101655
101653
101645
101643
101635
101631
101623
101620
101613
101610
101602
101599
101591
101587
101579
101574
101565
101561
101553
101549
101542
101538
101530
101524
101515
101508
101499
101493
101485
101480
101472
101467
101459
101452
101442
101435
101424
101416
101407
101399
101390
101384
101375
101368
101358
101348
101336
101325
101311
101299
101286
101274
101260
101247
101232
101217
101197
101177
101150
101125
101092
101061
101023
100988
100946
100907
100862
100819
100770
100721
100670
100616
100562
100504
100451
100391
100343
100285
100243
100191
100156
100111
100080
101689
101682
101680
101673
101671
101664
101662
101655
101653
101645
101643
101635
101631
101623
101620
101612
101609
101602
101599
101591
101587
101579
101574
101565
101561
101553
101549
101542
101538
101530
101524
101515
101508
101499
101493
101485
101480
101472
101467
101459
101452
101442
101435
101424
101416
101407
101399
101390
101384
101375
101368
101358
101348
101336
101325
101311
101299
101286
101274
101260
101247
101232
101216
101197
101177
101150
101125
101092
101061
101023
100988
100946
100907
100862
100819
100770
100721
100670
100616
100562
100503
100451
100391
100343
100285
100243
100191
100156
100111
100080
101689
101682
101680
101673
101671
101664
101662
101655
101653
101645
101643
101635
101631
101623
101620
101613
101609
101602
101599
101591
101587
101579
101574
101565
101561
101553
101549
101542
101538
101530
101524
101515
101508
101499
101493
101485
101480
101472
101467
101459
101452
101442
101435
101424
101416
101407
101399
101390
101384
101375
101368
101358
101348
101336
101325
101311
101299
101286
101274
101260
101247
101232
101216
101197
101177
101150
101125
101092
101061
101023
100988
100946
100907
100862
100819
100770
100721
100670
100616
100562
100503
100451
100391
100343
100285
100243
100191
100156
100111
100080
101689
101682
101680
101673
101671
101664
101662
101655
101653
101645
101643
101635
101631
101623
101620
101612
101609
101602
101599
101591
101587
101579
101574
101565
101561
101553
101549
101542
101538
101530
101524
101515
101508
101499
101493
101485
101480
101472
101467
101459
101452
101442
101435
101424
101416
101407
101399