/*--------------------------------*- C++ -*----------------------------------*\
  =========                 |
  \\      /  F ield         | OpenFOAM: The Open Source CFD Toolbox
   \\    /   O peration     | Website:  https://openfoam.org
    \\  /    A nd           | Version:  7
     \\/     M anipulation  |
\*---------------------------------------------------------------------------*/
FoamFile
{
    version     2.0;
    format      ascii;
    class       volVectorField;
    location    "0.595";
    object      UMean;
}
// * * * * * * * * * * * * * * * * * * * * * * * * * * * * * * * * * * * * * //

dimensions      [0 1 -1 0 0 0 0];

internalField   nonuniform List<vector> 
7920
(
(2.96356 0.0949352 -32.3674)
(2.20836 -0.453182 -32.4054)
(1.5438 -0.59908 -32.3986)
(1.47308 -0.651607 -32.4153)
(1.26203 -0.667262 -32.4109)
(1.30979 -0.671903 -32.4215)
(1.1837 -0.675719 -32.4147)
(1.24366 -0.675829 -32.4208)
(1.1492 -0.677902 -32.4155)
(1.20504 -0.677421 -32.4214)
(1.12997 -0.678778 -32.4194)
(1.17941 -0.678129 -32.4256)
(1.11836 -0.679093 -32.4259)
(1.16156 -0.678539 -32.4311)
(1.11086 -0.679016 -32.4332)
(1.14909 -0.67915 -32.4358)
(1.10362 -0.675967 -32.4415)
(1.13632 -0.682025 -32.4373)
(1.09405 -0.629402 -32.4546)
(0.953175 -0.632661 -32.4246)
(4.40943 0.934909 -32.4288)
(4.36285 0.830846 -32.4656)
(3.76342 0.7771 -32.4609)
(3.67628 0.713646 -32.4739)
(3.33116 0.68925 -32.4727)
(3.3721 0.678072 -32.4822)
(3.15208 0.673033 -32.4795)
(3.22705 0.670588 -32.4845)
(3.06513 0.669023 -32.4816)
(3.14245 0.667927 -32.4853)
(3.01573 0.667081 -32.4844)
(3.08767 0.666341 -32.488)
(2.98563 0.66584 -32.4891)
(3.05076 0.665493 -32.4921)
(2.96616 0.664815 -32.4951)
(3.02771 0.666044 -32.4957)
(2.94682 0.662435 -32.5028)
(3.03189 0.669708 -32.4962)
(2.89711 0.660839 -32.5159)
(3.20535 0.662229 -32.4738)
(4.7401 0.1776 -32.4366)
(5.22945 -0.244479 -32.4697)
(5.07584 -0.390035 -32.4591)
(5.19841 -0.505642 -32.4698)
(4.96698 -0.565793 -32.4653)
(5.04039 -0.598783 -32.4753)
(4.84724 -0.619268 -32.4725)
(4.91571 -0.630458 -32.4801)
(4.76229 -0.638611 -32.4774)
(4.82739 -0.643536 -32.4828)
(4.70482 -0.647551 -32.4807)
(4.76503 -0.650213 -32.4845)
(4.66593 -0.652515 -32.4835)
(4.72064 -0.653854 -32.4859)
(4.63993 -0.655866 -32.4869)
(4.68734 -0.654539 -32.4873)
(4.62543 -0.659779 -32.492)
(4.65058 -0.648261 -32.4878)
(4.62306 -0.657052 -32.5)
(4.5715 -0.647522 -32.4697)
(4.74036 0.627825 -32.4465)
(5.24724 0.714825 -32.4787)
(5.30976 0.754886 -32.4687)
(5.59218 0.723329 -32.4774)
(5.50553 0.705517 -32.4731)
(5.6665 0.691466 -32.4816)
(5.55565 0.681928 -32.4795)
(5.66588 0.674796 -32.4866)
(5.56132 0.669652 -32.4854)
(5.6449 0.665146 -32.4908)
(5.55273 0.662055 -32.4901)
(5.61974 0.659044 -32.4936)
(5.53991 0.657212 -32.493)
(5.59615 0.655172 -32.4945)
(5.52596 0.654132 -32.4945)
(5.57766 0.652903 -32.4942)
(5.51029 0.653139 -32.496)
(5.57298 0.652469 -32.4936)
(5.49537 0.662438 -32.4985)
(5.63012 0.688159 -32.4727)
(4.73222 -0.0906709 -32.4458)
(5.2147 -0.385881 -32.477)
(5.32962 -0.47863 -32.4649)
(5.65843 -0.54449 -32.4737)
(5.62599 -0.579179 -32.4678)
(5.83056 -0.598435 -32.4765)
(5.76508 -0.611258 -32.4734)
(5.90815 -0.618566 -32.4808)
(5.83907 -0.624546 -32.4789)
(5.94587 -0.628448 -32.4851)
(5.88035 -0.632036 -32.4842)
(5.96249 -0.634543 -32.4888)
(5.90245 -0.637266 -32.4879)
(5.96655 -0.638403 -32.4904)
(5.91359 -0.641825 -32.4893)
(5.96143 -0.638867 -32.4901)
(5.92291 -0.648899 -32.4895)
(5.94222 -0.632042 -32.4892)
(5.94459 -0.661812 -32.4896)
(5.90495 -0.660774 -32.4675)
(4.71939 0.343005 -32.4494)
(5.16064 0.539834 -32.4809)
(5.2867 0.614204 -32.4687)
(5.63033 0.632932 -32.4775)
(5.61858 0.642147 -32.4714)
(5.84229 0.644782 -32.4801)
(5.79671 0.646218 -32.4768)
(5.95683 0.646063 -32.4842)
(5.90541 0.646121 -32.4821)
(6.02618 0.645494 -32.4884)
(5.97535 0.645352 -32.4874)
(6.06823 0.64474 -32.4924)
(6.01973 0.644843 -32.4916)
(6.09157 0.64404 -32.4946)
(6.04685 0.645118 -32.4932)
(6.10119 0.642384 -32.4944)
(6.06535 0.648427 -32.4932)
(6.0994 0.638112 -32.4935)
(6.09226 0.662873 -32.4927)
(6.10463 0.681043 -32.4706)
(4.71939 -0.343005 -32.4494)
(5.16064 -0.539834 -32.4809)
(5.2867 -0.614204 -32.4687)
(5.63033 -0.632932 -32.4775)
(5.61858 -0.642148 -32.4714)
(5.84229 -0.644781 -32.4801)
(5.79672 -0.646218 -32.4768)
(5.95683 -0.646061 -32.4842)
(5.90541 -0.64612 -32.4821)
(6.02617 -0.64549 -32.4884)
(5.97536 -0.645346 -32.4874)
(6.06822 -0.644726 -32.4925)
(6.01976 -0.644828 -32.4916)
(6.09154 -0.643983 -32.4946)
(6.04693 -0.645094 -32.4932)
(6.1011 -0.64216 -32.4945)
(6.06554 -0.648407 -32.4931)
(6.09919 -0.637418 -32.4935)
(6.09239 -0.662597 -32.4926)
(6.10417 -0.67965 -32.4707)
(4.73222 0.0906708 -32.4458)
(5.2147 0.385881 -32.477)
(5.32962 0.47863 -32.4649)
(5.65843 0.54449 -32.4737)
(5.62598 0.579179 -32.4678)
(5.83056 0.598435 -32.4766)
(5.76508 0.611259 -32.4734)
(5.90815 0.618567 -32.4808)
(5.83907 0.624548 -32.4789)
(5.94588 0.628451 -32.4851)
(5.88033 0.632044 -32.4841)
(5.96252 0.634552 -32.4889)
(5.90243 0.637287 -32.4878)
(5.96663 0.638445 -32.4906)
(5.91354 0.641863 -32.4891)
(5.96161 0.639055 -32.4904)
(5.9229 0.648944 -32.4891)
(5.94267 0.632711 -32.4897)
(5.945 0.662091 -32.4891)
(5.90634 0.662299 -32.468)
(4.74036 -0.627825 -32.4465)
(5.24724 -0.714825 -32.4787)
(5.30976 -0.754886 -32.4687)
(5.59218 -0.723329 -32.4774)
(5.50553 -0.705518 -32.4731)
(5.6665 -0.691465 -32.4816)
(5.55565 -0.681929 -32.4795)
(5.66588 -0.674794 -32.4866)
(5.56132 -0.669652 -32.4853)
(5.64491 -0.665141 -32.4908)
(5.55273 -0.662052 -32.49)
(5.61976 -0.659028 -32.4938)
(5.53992 -0.657206 -32.4928)
(5.59619 -0.655111 -32.4949)
(5.52604 -0.654128 -32.4939)
(5.57775 -0.652665 -32.4951)
(5.5106 -0.653176 -32.4948)
(5.5731 -0.651797 -32.4954)
(5.49615 -0.662379 -32.4961)
(5.63052 -0.687218 -32.4757)
(4.7401 -0.1776 -32.4366)
(5.22945 0.244479 -32.4697)
(5.07584 0.390035 -32.459)
(5.19841 0.505642 -32.4698)
(4.96698 0.565793 -32.4652)
(5.04039 0.598782 -32.4753)
(4.84723 0.619269 -32.4725)
(4.91572 0.630458 -32.4801)
(4.76229 0.638614 -32.4774)
(4.82741 0.643535 -32.4829)
(4.70481 0.64756 -32.4806)
(4.76509 0.650211 -32.4847)
(4.6659 0.652539 -32.4831)
(4.7208 0.653861 -32.4866)
(4.63989 0.655912 -32.4858)
(4.68774 0.65461 -32.489)
(4.62553 0.659843 -32.4892)
(4.65157 0.648678 -32.4922)
(4.62394 0.657275 -32.4931)
(4.57464 0.648763 -32.4799)
(4.40943 -0.934909 -32.4288)
(4.36285 -0.830847 -32.4656)
(3.76342 -0.7771 -32.4609)
(3.67628 -0.713646 -32.4739)
(3.33116 -0.68925 -32.4727)
(3.3721 -0.678072 -32.4822)
(3.15208 -0.673034 -32.4795)
(3.22705 -0.670587 -32.4845)
(3.06514 -0.669024 -32.4816)
(3.14246 -0.667923 -32.4854)
(3.01573 -0.667082 -32.4843)
(3.0877 -0.66633 -32.4883)
(2.98565 -0.665844 -32.4887)
(3.05085 -0.665454 -32.4927)
(2.96625 -0.664833 -32.4939)
(3.02792 -0.665907 -32.4977)
(2.94726 -0.662526 -32.4992)
(3.03221 -0.669344 -32.5028)
(2.89867 -0.661109 -32.5038)
(3.2057 -0.662417 -32.4957)
(2.96356 -0.0949353 -32.3674)
(2.20836 0.453181 -32.4054)
(1.5438 0.59908 -32.3986)
(1.47308 0.651607 -32.4153)
(1.26203 0.667262 -32.4109)
(1.30979 0.671903 -32.4215)
(1.1837 0.67572 -32.4147)
(1.24366 0.675828 -32.4208)
(1.1492 0.677904 -32.4154)
(1.20505 0.677418 -32.4215)
(1.12997 0.678784 -32.4193)
(1.17943 0.678119 -32.4258)
(1.11836 0.679108 -32.4256)
(1.16162 0.67851 -32.4316)
(1.11087 0.679056 -32.4322)
(1.14926 0.679072 -32.4375)
(1.10379 0.676093 -32.4384)
(1.13671 0.681914 -32.443)
(1.09489 0.629922 -32.4436)
(0.954917 0.633447 -32.446)
(4.33714 0.543456 0.00721339)
(3.18391 0.815872 0.00480682)
(2.49487 0.836483 0.00603396)
(2.01824 0.822463 0.00459578)
(1.91232 0.825629 0.00568206)
(1.76291 0.836407 0.00453706)
(1.76831 0.84503 0.00543119)
(1.68735 0.851924 0.00447008)
(1.70104 0.855242 0.00519624)
(1.64816 0.858142 0.00438954)
(1.65998 0.859245 0.00498093)
(1.62446 0.860732 0.00430662)
(1.63291 0.861032 0.00478722)
(1.60825 0.862116 0.00422444)
(1.61392 0.861609 0.00461237)
(1.59577 0.864155 0.00414247)
(1.59811 0.855979 0.00445423)
(1.60482 0.879823 0.00405866)
(1.53055 0.765528 0.00433687)
(1.994 0.785362 0.00391769)
(4.73518 -0.110017 0.00466709)
(4.6135 -0.291312 0.00269209)
(4.53904 -0.490303 0.00394704)
(4.22592 -0.646756 0.0025415)
(4.11725 -0.734475 0.00363554)
(3.91073 -0.782847 0.00249656)
(3.86749 -0.805773 0.00339531)
(3.74349 -0.819618 0.00243737)
(3.7287 -0.827251 0.00316647)
(3.65049 -0.833013 0.00236094)
(3.64573 -0.836523 0.00295363)
(3.59476 -0.839529 0.00227958)
(3.59316 -0.841243 0.00276072)
(3.55865 -0.843282 0.00219806)
(3.55852 -0.843582 0.00258585)
(3.53153 -0.846301 0.00211676)
(3.53854 -0.844898 0.00242398)
(3.49775 -0.846501 0.00203598)
(3.55401 -0.85763 0.00224921)
(3.25788 -0.83835 0.00188838)
(4.62119 0.419614 0.00594461)
(4.80738 0.830803 0.00403904)
(5.07899 0.914949 0.00517833)
(5.0306 0.90328 0.00373407)
(5.07813 0.884682 0.00480268)
(4.97232 0.872407 0.00365167)
(4.97884 0.863692 0.00454461)
(4.89483 0.858811 0.00358386)
(4.89562 0.853428 0.00431128)
(4.83486 0.850848 0.00350445)
(4.83337 0.847361 0.00409595)
(4.7902 0.846129 0.00342085)
(4.78702 0.843964 0.00390094)
(4.75725 0.843384 0.00333737)
(4.75066 0.84196 0.00372462)
(4.73554 0.841838 0.00325422)
(4.71387 0.83811 0.00356529)
(4.7381 0.846241 0.00317027)
(4.66173 0.798684 0.00344611)
(4.80819 0.855569 0.00306484)
(4.5634 -0.202087 0.00478247)
(4.69314 -0.399095 0.00309592)
(5.06753 -0.523517 0.00424018)
(5.15328 -0.626398 0.002825)
(5.32392 -0.691744 0.00389629)
(5.31854 -0.735852 0.00275013)
(5.3968 -0.760344 0.00364636)
(5.37113 -0.77767 0.00268856)
(5.41116 -0.788506 0.00341879)
(5.38424 -0.797354 0.00261439)
(5.40463 -0.803587 0.00320789)
(5.38098 -0.808833 0.00253438)
(5.39045 -0.812983 0.00301566)
(5.37046 -0.815948 0.0024532)
(5.37431 -0.819685 0.00284074)
(5.35518 -0.819328 0.00237163)
(5.36126 -0.828714 0.00267795)
(5.32303 -0.814432 0.00228842)
(5.36763 -0.855806 0.00249976)
(5.15695 -0.846752 0.00216745)
(4.57535 0.331731 0.00542563)
(4.69106 0.663223 0.00377586)
(5.04764 0.768964 0.00487316)
(5.1512 0.806114 0.00344428)
(5.35358 0.820121 0.00450273)
(5.38464 0.828061 0.00334997)
(5.49822 0.830384 0.00424263)
(5.50678 0.832058 0.00328267)
(5.57633 0.830834 0.00401164)
(5.57665 0.830735 0.00320616)
(5.61912 0.829082 0.00379885)
(5.61527 0.828782 0.00312464)
(5.6401 0.827561 0.00360539)
(5.63406 0.827102 0.00304241)
(5.64686 0.826912 0.00342963)
(5.64046 0.825073 0.00295981)
(5.64302 0.827503 0.00326874)
(5.63717 0.823091 0.00287507)
(5.64086 0.82161 0.00313243)
(5.60074 0.872156 0.00277753)
(4.5694 -0.26428 0.00505955)
(4.66473 -0.526885 0.00347356)
(5.01778 -0.638737 0.00457)
(5.12393 -0.706844 0.0031483)
(5.33689 -0.745221 0.00420553)
(5.38048 -0.771037 0.00305327)
(5.50769 -0.784451 0.00394629)
(5.52968 -0.794209 0.00298677)
(5.61211 -0.799255 0.00371631)
(5.62468 -0.803962 0.00291133)
(5.67838 -0.806634 0.0035045)
(5.68459 -0.809448 0.0028307)
(5.71877 -0.811448 0.00331176)
(5.71965 -0.812804 0.00274917)
(5.74124 -0.815606 0.00313647)
(5.73556 -0.813485 0.00266733)
(5.75329 -0.822569 0.00297427)
(5.72616 -0.808765 0.00258309)
(5.77261 -0.839187 0.00281401)
(5.63003 -0.861453 0.00247824)
(4.5694 0.26428 0.00505955)
(4.66473 0.526885 0.00347356)
(5.01778 0.638737 0.00457)
(5.12393 0.706844 0.00314829)
(5.33689 0.745221 0.00420553)
(5.38048 0.771038 0.00305327)
(5.50769 0.784451 0.00394629)
(5.52968 0.794211 0.00298677)
(5.6121 0.799257 0.00371631)
(5.62468 0.803967 0.00291132)
(5.67837 0.806639 0.00350451)
(5.68461 0.809466 0.00283068)
(5.71874 0.81146 0.00331178)
(5.7197 0.812868 0.00274911)
(5.74116 0.815642 0.00313655)
(5.73571 0.813688 0.00266714)
(5.75318 0.822719 0.00297457)
(5.72662 0.809332 0.00258266)
(5.7728 0.839834 0.00281526)
(5.63108 0.862938 0.00247799)
(4.57535 -0.331731 0.00542563)
(4.69106 -0.663223 0.00377586)
(5.04764 -0.768964 0.00487316)
(5.1512 -0.806114 0.00344428)
(5.35358 -0.820121 0.00450273)
(5.38464 -0.82806 0.00334997)
(5.49822 -0.830384 0.00424263)
(5.50678 -0.832056 0.00328268)
(5.57633 -0.830833 0.00401163)
(5.57665 -0.830728 0.00320617)
(5.61912 -0.82908 0.00379883)
(5.61526 -0.828759 0.00312467)
(5.64013 -0.827557 0.00360534)
(5.63404 -0.827024 0.00304248)
(5.64697 -0.826902 0.0034295)
(5.64039 -0.824848 0.00296002)
(5.64329 -0.827426 0.00326837)
(5.63695 -0.822593 0.00287545)
(5.64126 -0.821083 0.00313118)
(5.60039 -0.871014 0.00277737)
(4.56339 0.202087 0.00478247)
(4.69314 0.399095 0.00309592)
(5.06753 0.523517 0.00424018)
(5.15329 0.626398 0.002825)
(5.32392 0.691744 0.00389629)
(5.31855 0.735852 0.00275013)
(5.3968 0.760345 0.00364636)
(5.37113 0.77767 0.00268856)
(5.41115 0.788508 0.00341879)
(5.38425 0.797356 0.00261439)
(5.40462 0.803594 0.00320789)
(5.38102 0.808841 0.00253437)
(5.39043 0.813001 0.00301566)
(5.37056 0.81598 0.00245317)
(5.37426 0.819735 0.00284075)
(5.35547 0.819448 0.00237155)
(5.36129 0.828899 0.0026781)
(5.32388 0.81489 0.00228816)
(5.36818 0.85649 0.00250079)
(5.15931 0.848311 0.00216709)
(4.62119 -0.419614 0.00594461)
(4.80738 -0.830803 0.00403904)
(5.07899 -0.914949 0.00517833)
(5.03061 -0.90328 0.00373407)
(5.07813 -0.884682 0.00480267)
(4.97232 -0.872406 0.00365167)
(4.97883 -0.863692 0.00454461)
(4.89484 -0.858809 0.00358386)
(4.89561 -0.853429 0.00431127)
(4.83487 -0.850841 0.00350447)
(4.83337 -0.847362 0.00409592)
(4.79023 -0.846106 0.00342089)
(4.78704 -0.84397 0.00390086)
(4.75733 -0.843306 0.00333749)
(4.75075 -0.841979 0.00372439)
(4.73571 -0.841612 0.00325454)
(4.71421 -0.838144 0.00356466)
(4.73848 -0.845831 0.00317092)
(4.66261 -0.798572 0.00344454)
(4.80932 -0.855148 0.00306516)
(4.73518 0.110017 0.00466709)
(4.61351 0.291312 0.00269209)
(4.53904 0.490304 0.00394704)
(4.22592 0.646755 0.0025415)
(4.11725 0.734476 0.00363554)
(3.91073 0.782847 0.00249656)
(3.86749 0.805774 0.00339531)
(3.74349 0.819617 0.00243737)
(3.72869 0.827254 0.00316647)
(3.65051 0.83301 0.00236094)
(3.64572 0.836531 0.00295363)
(3.59481 0.83952 0.00227958)
(3.59314 0.841264 0.0027607)
(3.5588 0.843261 0.00219807)
(3.55851 0.84364 0.00258579)
(3.53198 0.846269 0.00211681)
(3.5386 0.845086 0.00242383)
(3.49926 0.84662 0.0020361)
(3.55415 0.858306 0.00224932)
(3.26381 0.839661 0.00188878)
(4.33714 -0.543456 0.00721339)
(3.18391 -0.815872 0.00480682)
(2.49487 -0.836483 0.00603396)
(2.01824 -0.822462 0.00459578)
(1.91232 -0.825629 0.00568206)
(1.76291 -0.836407 0.00453706)
(1.76831 -0.845031 0.00543119)
(1.68735 -0.851923 0.00447009)
(1.70104 -0.855244 0.00519623)
(1.64816 -0.858136 0.00438955)
(1.65999 -0.85925 0.0049809)
(1.62448 -0.860715 0.00430667)
(1.63294 -0.861047 0.00478713)
(1.6083 -0.862064 0.00422458)
(1.61403 -0.861658 0.00461209)
(1.5959 -0.864016 0.00414292)
(1.59847 -0.856155 0.00445335)
(1.6052 -0.879621 0.00406001)
(1.53151 -0.766364 0.00433382)
(1.99513 -0.786469 0.00392204)
(4.37795 0.0878774 0.00151692)
(4.03304 0.129558 0.0020465)
(3.5721 0.137541 0.00112681)
(3.21435 0.129348 0.00164592)
(2.90337 0.118374 0.00113383)
(2.71796 0.111829 0.00151849)
(2.57641 0.109074 0.00117653)
(2.51229 0.110594 0.00141314)
(2.46178 0.113956 0.00118323)
(2.44798 0.118638 0.00131975)
(2.43174 0.123104 0.00117822)
(2.43254 0.127361 0.00124866)
(2.42666 0.130681 0.00117427)
(2.43162 0.133729 0.00119928)
(2.42693 0.135188 0.00117599)
(2.43932 0.138429 0.00116729)
(2.42172 0.135832 0.00118711)
(2.46646 0.14438 0.00114756)
(2.38454 0.129456 0.00118687)
(2.53993 0.142014 0.001201)
(4.53104 0.0794592 0.00328273)
(4.67038 0.100612 0.00398197)
(4.69178 0.0928595 0.00305642)
(4.70271 0.0614927 0.00355242)
(4.63549 0.0225936 0.00301787)
(4.58911 -0.0164237 0.00339105)
(4.51424 -0.0488365 0.00304209)
(4.47135 -0.0745946 0.00327682)
(4.4174 -0.0929334 0.00304494)
(4.39059 -0.106395 0.00318139)
(4.35715 -0.115628 0.00303878)
(4.34429 -0.122294 0.00310937)
(4.32539 -0.127291 0.00303456)
(4.32346 -0.130337 0.00305967)
(4.3126 -0.134257 0.00303675)
(4.32195 -0.133574 0.00302744)
(4.30906 -0.140436 0.00305065)
(4.33896 -0.130469 0.00300663)
(4.29958 -0.147335 0.00308856)
(4.36967 -0.119086 0.00310045)
(4.50862 0.0418595 0.00187062)
(4.65213 0.0967697 0.00245986)
(4.748 0.137405 0.00156734)
(4.88304 0.155657 0.00206755)
(4.94891 0.158779 0.00153981)
(5.02208 0.155736 0.00191889)
(5.04274 0.150727 0.00157749)
(5.07291 0.147303 0.00181634)
(5.07198 0.145265 0.00158915)
(5.08451 0.144836 0.00172698)
(5.07841 0.144827 0.00158658)
(5.08632 0.145483 0.00165717)
(5.08093 0.145378 0.00158311)
(5.08978 0.146526 0.00160799)
(5.08567 0.144548 0.00158452)
(5.09862 0.148667 0.00157664)
(5.09407 0.14009 0.00159314)
(5.11301 0.156287 0.00156398)
(5.10901 0.129993 0.00158035)
(5.12564 0.172658 0.00161206)
(4.50458 0.0396429 0.0028736)
(4.62125 0.0417457 0.00356674)
(4.71207 0.032945 0.00269591)
(4.85748 0.0121609 0.00319969)
(4.94877 -0.0117223 0.00265837)
(5.05642 -0.0364616 0.00302722)
(5.11409 -0.0584248 0.00267625)
(5.18053 -0.077023 0.00291105)
(5.21268 -0.0915419 0.00268019)
(5.25457 -0.10282 0.00281713)
(5.27421 -0.11154 0.00267523)
(5.30344 -0.117921 0.00274578)
(5.31767 -0.123697 0.00267105)
(5.33953 -0.12676 0.00269596)
(5.35233 -0.132153 0.00267245)
(5.36719 -0.131103 0.00266404)
(5.38511 -0.139824 0.00268375)
(5.38446 -0.129814 0.00265042)
(5.42719 -0.146253 0.00272334)
(5.38221 -0.122213 0.00273419)
(4.50554 0.0154378 0.00218394)
(4.62196 0.0498364 0.00283276)
(4.70685 0.0795852 0.00197203)
(4.84777 0.0995849 0.00246795)
(4.93799 0.111302 0.00192559)
(5.04903 0.118982 0.00229486)
(5.11309 0.124128 0.0019468)
(5.18818 0.128731 0.00218351)
(5.22999 0.132612 0.00195505)
(5.28205 0.136252 0.00209277)
(5.31203 0.13913 0.00195219)
(5.35107 0.141652 0.0020229)
(5.37522 0.143175 0.0019489)
(5.40532 0.144937 0.00197391)
(5.42751 0.144668 0.00195054)
(5.44749 0.147477 0.00194324)
(5.47577 0.14313 0.00195917)
(5.47411 0.15245 0.00193463)
(5.5345 0.138621 0.00196105)
(5.481 0.165156 0.00198729)
(4.50433 0.0103617 0.002512)
(4.61485 -0.00549986 0.0031889)
(4.69872 -0.0241852 0.0023354)
(4.83853 -0.044411 0.00283654)
(4.92857 -0.0620328 0.00229266)
(5.04009 -0.0779793 0.00266045)
(5.10553 -0.0913417 0.00231012)
(5.18269 -0.102718 0.00254596)
(5.22725 -0.111813 0.0023165)
(5.28232 -0.119137 0.00245402)
(5.31585 -0.124926 0.002313)
(5.35814 -0.12928 0.00238368)
(5.38637 -0.13303 0.00230948)
(5.41918 -0.135295 0.00233443)
(5.44618 -0.13815 0.00231115)
(5.46709 -0.138655 0.00230352)
(5.50209 -0.141485 0.00232113)
(5.49732 -0.140338 0.00229445)
(5.56848 -0.142408 0.0023455)
(5.5069 -0.143147 0.00235959)
(4.50433 -0.0103618 0.002512)
(4.61485 0.00550002 0.0031889)
(4.69872 0.024185 0.0023354)
(4.83853 0.0444114 0.00283654)
(4.92857 0.0620325 0.00229266)
(5.04009 0.0779803 0.00266045)
(5.10553 0.0913412 0.00231011)
(5.18269 0.10272 0.00254596)
(5.22725 0.111813 0.0023165)
(5.28232 0.119143 0.00245403)
(5.31585 0.124926 0.00231299)
(5.35814 0.1293 0.0023837)
(5.38636 0.133029 0.00230946)
(5.41919 0.135361 0.0023345)
(5.44617 0.138149 0.00231106)
(5.46711 0.13885 0.0023037)
(5.5021 0.141535 0.00232076)
(5.49739 0.140842 0.00229479)
(5.56856 0.142841 0.00234395)
(5.5071 0.144283 0.00235968)
(4.50554 -0.0154379 0.00218394)
(4.62196 -0.0498362 0.00283276)
(4.70685 -0.0795854 0.00197203)
(4.84777 -0.0995845 0.00246795)
(4.93799 -0.111302 0.00192559)
(5.04903 -0.118981 0.00229486)
(5.11309 -0.124128 0.0019468)
(5.18818 -0.128728 0.00218351)
(5.22999 -0.132613 0.00195505)
(5.28205 -0.136245 0.00209276)
(5.31203 -0.139132 0.0019522)
(5.35107 -0.14163 0.00202288)
(5.37524 -0.143179 0.00194892)
(5.40531 -0.144871 0.00197385)
(5.42756 -0.144673 0.0019506)
(5.44748 -0.147284 0.00194306)
(5.47589 -0.143093 0.00195948)
(5.47413 -0.151966 0.00193428)
(5.53472 -0.13823 0.00196239)
(5.48124 -0.164095 0.00198705)
(4.50458 -0.039643 0.0028736)
(4.62125 -0.0417456 0.00356674)
(4.71207 -0.0329451 0.00269591)
(4.85748 -0.0121606 0.0031997)
(4.94877 0.0117221 0.00265837)
(5.05642 0.0364624 0.00302722)
(5.11409 0.0584246 0.00267625)
(5.18053 0.077025 0.00291106)
(5.21268 0.0915418 0.00268018)
(5.25457 0.102825 0.00281714)
(5.27421 0.111541 0.00267521)
(5.30345 0.117938 0.00274581)
(5.31767 0.123698 0.00267101)
(5.33956 0.126816 0.00269603)
(5.35236 0.132153 0.00267234)
(5.36725 0.131281 0.00266421)
(5.38524 0.13986 0.00268336)
(5.38466 0.130296 0.0026507)
(5.42764 0.146615 0.00272181)
(5.38293 0.123333 0.00273427)
(4.50862 -0.0418595 0.00187062)
(4.65213 -0.0967696 0.00245986)
(4.748 -0.137405 0.00156734)
(4.88304 -0.155657 0.00206755)
(4.94891 -0.158779 0.00153981)
(5.02208 -0.155735 0.00191889)
(5.04274 -0.150727 0.00157748)
(5.07292 -0.1473 0.00181634)
(5.07198 -0.145266 0.00158915)
(5.08453 -0.14483 0.00172698)
(5.0784 -0.14483 0.00158658)
(5.08635 -0.145464 0.00165716)
(5.08093 -0.145384 0.0015831)
(5.08984 -0.146468 0.00160797)
(5.0857 -0.144564 0.00158452)
(5.09875 -0.1485 0.00157656)
(5.09427 -0.140096 0.00159325)
(5.11334 -0.15588 0.00156379)
(5.10968 -0.129764 0.00158106)
(5.1267 -0.171839 0.00161202)
(4.53104 -0.0794592 0.00328273)
(4.67038 -0.100612 0.00398197)
(4.69178 -0.0928594 0.00305642)
(4.70271 -0.0614927 0.00355242)
(4.63549 -0.0225934 0.00301786)
(4.58912 0.0164239 0.00339105)
(4.51423 0.0488369 0.00304208)
(4.47135 0.0745949 0.00327683)
(4.41739 0.0929345 0.00304492)
(4.39062 0.106396 0.00318142)
(4.35713 0.11563 0.00303873)
(4.34436 0.1223 0.00310945)
(4.32534 0.127297 0.00303443)
(4.32363 0.130363 0.00305987)
(4.31253 0.134264 0.00303642)
(4.32237 0.13367 0.00302792)
(4.30905 0.140461 0.00304978)
(4.34 0.130761 0.00300772)
(4.29996 0.14756 0.00308611)
(4.37253 0.119826 0.00310263)
(4.37795 -0.0878774 0.00151692)
(4.03304 -0.129558 0.0020465)
(3.5721 -0.137541 0.00112681)
(3.21435 -0.129348 0.00164592)
(2.90337 -0.118374 0.00113383)
(2.71796 -0.111828 0.00151849)
(2.57641 -0.109074 0.00117653)
(2.51229 -0.110594 0.00141314)
(2.46178 -0.113956 0.00118322)
(2.448 -0.118636 0.00131975)
(2.43173 -0.123105 0.00117821)
(2.43259 -0.127356 0.00124867)
(2.42665 -0.130685 0.00117424)
(2.43174 -0.133712 0.00119932)
(2.42694 -0.135203 0.00117588)
(2.43966 -0.138375 0.00116741)
(2.42182 -0.135877 0.00118679)
(2.46751 -0.144255 0.00114797)
(2.38474 -0.12952 0.0011859)
(2.5439 -0.141971 0.00120261)
(4.37795 0.0878774 -0.00151701)
(4.03304 0.129558 -0.00204659)
(3.5721 0.137541 -0.0011269)
(3.21435 0.129348 -0.001646)
(2.90337 0.118374 -0.00113391)
(2.71796 0.111829 -0.00151857)
(2.57641 0.109074 -0.00117662)
(2.51228 0.110594 -0.00141322)
(2.46178 0.113956 -0.00118331)
(2.44798 0.118638 -0.00131983)
(2.43174 0.123104 -0.0011783)
(2.43254 0.127361 -0.00124874)
(2.42666 0.130681 -0.00117436)
(2.43162 0.133729 -0.00119937)
(2.42693 0.135188 -0.00117607)
(2.43932 0.138429 -0.00116737)
(2.42172 0.135832 -0.00118719)
(2.46646 0.14438 -0.00114765)
(2.38454 0.129456 -0.00118696)
(2.53993 0.142014 -0.00120109)
(4.53104 0.0794592 -0.00328281)
(4.67038 0.100612 -0.00398206)
(4.69178 0.0928594 -0.0030565)
(4.70271 0.0614927 -0.00355251)
(4.63549 0.0225935 -0.00301795)
(4.58911 -0.0164238 -0.00339114)
(4.51424 -0.0488366 -0.00304217)
(4.47134 -0.0745946 -0.00327691)
(4.4174 -0.0929334 -0.00304503)
(4.39059 -0.106395 -0.00318148)
(4.35715 -0.115628 -0.00303887)
(4.34429 -0.122294 -0.00310946)
(4.32539 -0.127292 -0.00303464)
(4.32345 -0.130338 -0.00305975)
(4.3126 -0.134257 -0.00303683)
(4.32195 -0.133574 -0.00302753)
(4.30905 -0.140436 -0.00305074)
(4.33896 -0.130469 -0.00300672)
(4.29958 -0.147335 -0.00308865)
(4.36967 -0.119086 -0.00310054)
(4.50862 0.0418595 -0.00187071)
(4.65213 0.0967697 -0.00245994)
(4.748 0.137405 -0.00156743)
(4.88304 0.155657 -0.00206763)
(4.94891 0.158779 -0.0015399)
(5.02208 0.155736 -0.00191897)
(5.04274 0.150727 -0.00157757)
(5.07291 0.147303 -0.00181643)
(5.07198 0.145265 -0.00158924)
(5.08451 0.144836 -0.00172706)
(5.0784 0.144827 -0.00158667)
(5.08632 0.145483 -0.00165725)
(5.08093 0.145378 -0.00158319)
(5.08978 0.146526 -0.00160807)
(5.08567 0.144549 -0.00158461)
(5.09862 0.148667 -0.00157673)
(5.09407 0.14009 -0.00159323)
(5.11301 0.156287 -0.00156406)
(5.10901 0.129993 -0.00158043)
(5.12564 0.172658 -0.00161215)
(4.50458 0.0396429 -0.00287368)
(4.62125 0.0417457 -0.00356683)
(4.71207 0.032945 -0.002696)
(4.85748 0.0121609 -0.00319978)
(4.94877 -0.0117224 -0.00265846)
(5.05642 -0.0364616 -0.0030273)
(5.11409 -0.0584249 -0.00267634)
(5.18053 -0.0770231 -0.00291114)
(5.21268 -0.091542 -0.00268028)
(5.25457 -0.10282 -0.00281721)
(5.27421 -0.111541 -0.00267531)
(5.30344 -0.117921 -0.00274586)
(5.31766 -0.123698 -0.00267113)
(5.33953 -0.12676 -0.00269604)
(5.35233 -0.132154 -0.00267254)
(5.36719 -0.131103 -0.00266413)
(5.38511 -0.139824 -0.00268384)
(5.38446 -0.129814 -0.00265051)
(5.42719 -0.146253 -0.00272343)
(5.38221 -0.122213 -0.00273427)
(4.50554 0.0154378 -0.00218403)
(4.62196 0.0498364 -0.00283285)
(4.70685 0.0795853 -0.00197211)
(4.84777 0.099585 -0.00246804)
(4.93799 0.111302 -0.00192567)
(5.04903 0.118982 -0.00229494)
(5.11309 0.124128 -0.00194689)
(5.18818 0.128731 -0.00218359)
(5.22999 0.132612 -0.00195514)
(5.28205 0.136252 -0.00209285)
(5.31203 0.13913 -0.00195228)
(5.35107 0.141652 -0.00202299)
(5.37522 0.143175 -0.00194899)
(5.40532 0.144937 -0.001974)
(5.42751 0.144668 -0.00195062)
(5.44749 0.147477 -0.00194333)
(5.47577 0.14313 -0.00195926)
(5.4741 0.15245 -0.00193472)
(5.5345 0.138621 -0.00196114)
(5.481 0.165156 -0.00198737)
(4.50433 0.0103617 -0.00251208)
(4.61485 -0.00549988 -0.00318898)
(4.69872 -0.0241852 -0.00233548)
(4.83853 -0.0444111 -0.00283663)
(4.92857 -0.0620329 -0.00229274)
(5.04009 -0.0779794 -0.00266053)
(5.10553 -0.0913418 -0.0023102)
(5.18269 -0.102718 -0.00254604)
(5.22725 -0.111813 -0.00231659)
(5.28232 -0.119137 -0.00245411)
(5.31585 -0.124926 -0.00231309)
(5.35814 -0.12928 -0.00238376)
(5.38637 -0.13303 -0.00230957)
(5.41918 -0.135295 -0.00233452)
(5.44618 -0.13815 -0.00231124)
(5.46708 -0.138656 -0.0023036)
(5.50209 -0.141485 -0.00232122)
(5.49732 -0.140338 -0.00229454)
(5.56848 -0.142408 -0.00234558)
(5.5069 -0.143147 -0.00235968)
(4.50433 -0.0103618 -0.00251208)
(4.61485 0.00550003 -0.00318898)
(4.69872 0.0241851 -0.00233548)
(4.83853 0.0444114 -0.00283663)
(4.92857 0.0620325 -0.00229274)
(5.04009 0.0779804 -0.00266053)
(5.10553 0.0913413 -0.0023102)
(5.18269 0.10272 -0.00254604)
(5.22725 0.111813 -0.00231658)
(5.28232 0.119143 -0.00245412)
(5.31585 0.124926 -0.00231308)
(5.35814 0.1293 -0.00238379)
(5.38636 0.133029 -0.00230954)
(5.41919 0.135361 -0.00233459)
(5.44617 0.138149 -0.00231115)
(5.46711 0.13885 -0.00230379)
(5.5021 0.141535 -0.00232085)
(5.49739 0.140842 -0.00229487)
(5.56856 0.142841 -0.00234403)
(5.5071 0.144283 -0.00235976)
(4.50554 -0.0154379 -0.00218403)
(4.62196 -0.0498363 -0.00283285)
(4.70685 -0.0795854 -0.00197211)
(4.84777 -0.0995846 -0.00246804)
(4.93799 -0.111302 -0.00192567)
(5.04903 -0.118981 -0.00229494)
(5.11309 -0.124128 -0.00194689)
(5.18818 -0.128728 -0.00218359)
(5.22999 -0.132613 -0.00195514)
(5.28205 -0.136245 -0.00209284)
(5.31203 -0.139132 -0.00195228)
(5.35107 -0.141631 -0.00202297)
(5.37524 -0.143179 -0.00194901)
(5.40531 -0.144871 -0.00197393)
(5.42756 -0.144673 -0.00195069)
(5.44748 -0.147284 -0.00194315)
(5.47589 -0.143093 -0.00195957)
(5.47413 -0.151966 -0.00193436)
(5.53472 -0.13823 -0.00196248)
(5.48124 -0.164095 -0.00198714)
(4.50458 -0.0396429 -0.00287368)
(4.62125 -0.0417456 -0.00356683)
(4.71207 -0.0329451 -0.002696)
(4.85748 -0.0121606 -0.00319978)
(4.94877 0.0117222 -0.00265846)
(5.05642 0.0364624 -0.0030273)
(5.11409 0.0584246 -0.00267633)
(5.18053 0.077025 -0.00291115)
(5.21268 0.0915419 -0.00268027)
(5.25457 0.102825 -0.00281722)
(5.27421 0.111541 -0.0026753)
(5.30345 0.117938 -0.00274589)
(5.31767 0.123698 -0.00267109)
(5.33956 0.126817 -0.00269612)
(5.35236 0.132153 -0.00267243)
(5.36725 0.131281 -0.0026643)
(5.38524 0.13986 -0.00268345)
(5.38466 0.130296 -0.00265079)
(5.42764 0.146615 -0.0027219)
(5.38293 0.123333 -0.00273436)
(4.50862 -0.0418595 -0.00187071)
(4.65213 -0.0967696 -0.00245994)
(4.748 -0.137405 -0.00156743)
(4.88304 -0.155657 -0.00206763)
(4.94891 -0.158779 -0.0015399)
(5.02208 -0.155735 -0.00191897)
(5.04274 -0.150727 -0.00157757)
(5.07292 -0.1473 -0.00181643)
(5.07198 -0.145266 -0.00158923)
(5.08453 -0.14483 -0.00172706)
(5.0784 -0.14483 -0.00158666)
(5.08635 -0.145464 -0.00165725)
(5.08093 -0.145384 -0.00158319)
(5.08984 -0.146468 -0.00160805)
(5.0857 -0.144564 -0.00158461)
(5.09875 -0.1485 -0.00157664)
(5.09427 -0.140096 -0.00159334)
(5.11334 -0.15588 -0.00156388)
(5.10968 -0.129764 -0.00158115)
(5.1267 -0.171839 -0.0016121)
(4.53104 -0.0794592 -0.00328281)
(4.67038 -0.100612 -0.00398206)
(4.69178 -0.0928594 -0.0030565)
(4.70271 -0.0614927 -0.00355251)
(4.63549 -0.0225934 -0.00301795)
(4.58912 0.0164239 -0.00339114)
(4.51423 0.048837 -0.00304217)
(4.47135 0.074595 -0.00327692)
(4.41739 0.0929346 -0.00304501)
(4.39062 0.106396 -0.00318151)
(4.35713 0.115631 -0.00303882)
(4.34436 0.1223 -0.00310954)
(4.32534 0.127297 -0.00303452)
(4.32363 0.130363 -0.00305995)
(4.31253 0.134264 -0.00303651)
(4.32237 0.13367 -0.00302801)
(4.30904 0.140461 -0.00304987)
(4.34 0.130761 -0.00300781)
(4.29996 0.14756 -0.0030862)
(4.37253 0.119826 -0.00310272)
(4.37795 -0.0878774 -0.00151701)
(4.03304 -0.129558 -0.00204659)
(3.5721 -0.137541 -0.0011269)
(3.21435 -0.129348 -0.001646)
(2.90337 -0.118374 -0.00113391)
(2.71796 -0.111828 -0.00151857)
(2.57641 -0.109074 -0.00117662)
(2.51229 -0.110594 -0.00141322)
(2.46178 -0.113956 -0.00118331)
(2.448 -0.118636 -0.00131984)
(2.43173 -0.123105 -0.00117829)
(2.43259 -0.127356 -0.00124876)
(2.42665 -0.130685 -0.00117433)
(2.43174 -0.133712 -0.00119941)
(2.42694 -0.135203 -0.00117597)
(2.43966 -0.138375 -0.0011675)
(2.42182 -0.135877 -0.00118688)
(2.46751 -0.144255 -0.00114806)
(2.38474 -0.12952 -0.00118599)
(2.5439 -0.141971 -0.0012027)
(4.33714 0.543456 -0.00721345)
(3.18391 0.815872 -0.00480689)
(2.49487 0.836483 -0.00603402)
(2.01823 0.822463 -0.00459584)
(1.91232 0.825629 -0.00568212)
(1.76291 0.836407 -0.00453712)
(1.76831 0.84503 -0.00543126)
(1.68735 0.851924 -0.00447014)
(1.70104 0.855242 -0.00519631)
(1.64816 0.858142 -0.0043896)
(1.65998 0.859245 -0.00498099)
(1.62446 0.860732 -0.00430669)
(1.63291 0.861032 -0.00478729)
(1.60825 0.862116 -0.0042245)