/*--------------------------------*- C++ -*----------------------------------*\
  =========                 |
  \\      /  F ield         | OpenFOAM: The Open Source CFD Toolbox
   \\    /   O peration     | Website:  https://openfoam.org
    \\  /    A nd           | Version:  7
     \\/     M anipulation  |
\*---------------------------------------------------------------------------*/
FoamFile
{
    version     2.0;
    format      ascii;
    class       volScalarField;
    location    "0.9475";
    object      alphat;
}
// * * * * * * * * * * * * * * * * * * * * * * * * * * * * * * * * * * * * * //

dimensions      [1 -1 -1 0 0 0 0];

internalField   nonuniform List<scalar> 
7920
(
0.0107651
0.011212
0.0112162
0.0112179
0.011212
0.011211
0.011207
0.011207
0.0112049
0.0112056
0.0112043
0.0112049
0.0112037
0.011204
0.0112028
0.0112026
0.0112021
0.0111999
0.0112063
0.0112217
0.00555293
0.00558646
0.0054722
0.00535821
0.00530461
0.00528261
0.0052649
0.00525887
0.0052496
0.00524701
0.00524124
0.0052397
0.00523559
0.00523468
0.00523196
0.00523168
0.00523003
0.00522968
0.00526413
0.00527218
0.00424486
0.00453402
0.00456511
0.004561
0.00455284
0.00454991
0.00454524
0.00454359
0.0045406
0.00453923
0.00453668
0.00453547
0.00453318
0.00453225
0.00453028
0.00452983
0.00452782
0.00452792
0.00452754
0.00453634
0.00408288
0.00441657
0.0044817
0.00450401
0.00451163
0.00451969
0.00452223
0.00452643
0.00452755
0.00453026
0.00453057
0.00453248
0.00453206
0.00453338
0.00453265
0.00453367
0.00453287
0.00453383
0.00453347
0.0045398
0.00406556
0.0044034
0.00447223
0.00449848
0.00450968
0.0045211
0.00452635
0.00453404
0.00453746
0.00454325
0.00454569
0.00455032
0.00455171
0.00455527
0.00455601
0.00455887
0.00455949
0.00456153
0.0045626
0.00456824
0.00406727
0.00440217
0.0044706
0.00449718
0.00450932
0.00452189
0.00452843
0.00453751
0.00454214
0.00454957
0.00455323
0.00455936
0.00456198
0.00456679
0.0045686
0.00457258
0.00457414
0.00457711
0.00457929
0.00458479
0.00406727
0.00440217
0.0044706
0.00449718
0.00450932
0.00452189
0.00452843
0.00453751
0.00454214
0.00454957
0.00455323
0.00455936
0.00456198
0.00456679
0.0045686
0.00457259
0.00457414
0.00457712
0.0045793
0.00458482
0.00406556
0.0044034
0.00447223
0.00449848
0.00450968
0.0045211
0.00452636
0.00453403
0.00453746
0.00454324
0.00454569
0.00455032
0.00455171
0.00455527
0.00455605
0.00455885
0.00455954
0.00456151
0.00456267
0.00456826
0.00408288
0.00441657
0.0044817
0.00450401
0.00451163
0.00451969
0.00452223
0.00452643
0.00452755
0.00453025
0.00453058
0.00453247
0.00453208
0.00453335
0.00453272
0.00453359
0.00453297
0.00453375
0.00453367
0.00453958
0.00424486
0.00453402
0.00456511
0.004561
0.00455284
0.00454991
0.00454525
0.00454358
0.0045406
0.00453922
0.00453669
0.00453546
0.0045332
0.00453221
0.00453031
0.00452971
0.00452793
0.00452787
0.00452799
0.00453551
0.00555293
0.00558646
0.0054722
0.00535821
0.00530461
0.00528261
0.0052649
0.00525887
0.0052496
0.00524701
0.00524124
0.00523969
0.00523559
0.00523466
0.00523198
0.00523161
0.00523008
0.00522956
0.00526406
0.00527064
0.0107651
0.011212
0.0112162
0.0112179
0.011212
0.011211
0.011207
0.011207
0.0112049
0.0112056
0.0112042
0.0112049
0.0112037
0.011204
0.0112027
0.0112027
0.0112018
0.0112004
0.0112053
0.011223
0.00412811
0.00463585
0.00465551
0.00462636
0.00461707
0.00460069
0.00459914
0.00458992
0.00458968
0.0045835
0.00458374
0.00457934
0.00457968
0.0045764
0.00457675
0.0045741
0.00457471
0.00457176
0.00457083
0.00458755
0.00365646
0.00428165
0.00436912
0.00438188
0.00438305
0.00438382
0.00438297
0.00438284
0.0043818
0.00438117
0.00438005
0.00437935
0.00437843
0.00437795
0.00437731
0.0043773
0.0043764
0.00437751
0.00437625
0.0043833
0.00355758
0.00418989
0.00428121
0.00430112
0.0043036
0.00430902
0.00430971
0.0043135
0.00431393
0.00431669
0.0043167
0.00431848
0.00431833
0.0043196
0.00431951
0.00432062
0.00432042
0.00432179
0.00432079
0.00433145
0.00355547
0.00418828
0.00427886
0.00429784
0.00429867
0.00430194
0.00430143
0.00430359
0.00430348
0.00430549
0.00430542
0.00430704
0.00430701
0.00430815
0.00430834
0.00430913
0.0043095
0.00431
0.00431043
0.00431624
0.00355136
0.00418369
0.00427406
0.00429363
0.00429409
0.00429717
0.004296
0.00429774
0.00429694
0.00429836
0.00429772
0.00429905
0.00429849
0.00429956
0.00429923
0.00430005
0.00429988
0.0043005
0.0043006
0.00430609
0.00355351
0.00418618
0.00427628
0.0042958
0.00429621
0.0042993
0.00429806
0.00429979
0.00429888
0.00430017
0.00429939
0.00430056
0.00429985
0.00430084
0.00430032
0.00430105
0.00430073
0.00430117
0.00430107
0.00430604
0.00355351
0.00418618
0.00427628
0.0042958
0.00429621
0.0042993
0.00429806
0.00429979
0.00429888
0.00430017
0.0042994
0.00430056
0.00429985
0.00430084
0.00430032
0.00430105
0.00430073
0.00430117
0.00430107
0.00430604
0.00355136
0.00418369
0.00427406
0.00429363
0.0042941
0.00429717
0.004296
0.00429773
0.00429694
0.00429836
0.00429772
0.00429905
0.00429848
0.00429957
0.00429921
0.00430006
0.00429987
0.0043005
0.00430059
0.00430608
0.00355547
0.00418828
0.00427886
0.00429784
0.00429867
0.00430194
0.00430144
0.00430358
0.00430349
0.00430549
0.00430542
0.00430705
0.004307
0.00430817
0.00430832
0.00430915
0.00430951
0.00430995
0.00431049
0.004316
0.00355758
0.00418989
0.00428121
0.00430112
0.0043036
0.00430902
0.00430971
0.0043135
0.00431393
0.00431668
0.00431671
0.00431847
0.00431833
0.00431959
0.00431952
0.00432055
0.00432056
0.00432156
0.00432108
0.00433064
0.00365646
0.00428165
0.00436912
0.00438188
0.00438305
0.00438382
0.00438298
0.00438284
0.00438181
0.00438116
0.00438006
0.00437933
0.00437847
0.0043779
0.00437738
0.00437718
0.00437657
0.00437709
0.00437703
0.00438164
0.00412811
0.00463585
0.00465551
0.00462636
0.00461707
0.00460069
0.00459915
0.00458992
0.00458968
0.00458349
0.00458375
0.00457934
0.00457969
0.00457639
0.00457678
0.00457407
0.00457483
0.00457158
0.00457165
0.00458515
0.00102946
0.00151832
0.00159025
0.00157093
0.00151931
0.00147041
0.00143111
0.00140291
0.00138191
0.00136581
0.00135409
0.00134357
0.00133627
0.00132861
0.0013237
0.00131813
0.00131404
0.00131185
0.00130374
0.00131514
0.000437167
0.000921789
0.00108213
0.00114471
0.00116635
0.00117975
0.00118636
0.00119348
0.00119685
0.00120039
0.00120135
0.00120261
0.00120243
0.00120264
0.00120217
0.0012024
0.00120143
0.001202
0.00120045
0.00120457
0.000378092
0.000816248
0.000961941
0.00102755
0.00104766
0.00106225
0.00106567
0.00107259
0.00107493
0.00108006
0.00108232
0.00108655
0.0010889
0.00109238
0.00109482
0.00109771
0.0011001
0.00110273
0.00110442
0.0011094
0.000389372
0.000821249
0.000963343
0.00102614
0.00104578
0.001058
0.00105988
0.00106326
0.00106346
0.00106467
0.00106477
0.00106571
0.00106601
0.00106688
0.00106773
0.00106838
0.00106969
0.00107031
0.00107163
0.00107508
0.000384095
0.000815812
0.00095739
0.00102052
0.00103977
0.00105201
0.00105359
0.00105673
0.00105655
0.0010571
0.00105667
0.00105675
0.00105637
0.00105636
0.00105623
0.00105613
0.00105619
0.00105605
0.00105629
0.00105841
0.000387062
0.000818855
0.000960446
0.00102316
0.00104252
0.0010546
0.00105634
0.00105937
0.00105924
0.00105974
0.0010593
0.00105929
0.00105885
0.00105871
0.00105847
0.00105821
0.00105806
0.00105772
0.00105769
0.00105955
0.000387062
0.000818855
0.000960446
0.00102316
0.00104252
0.0010546
0.00105634
0.00105937
0.00105924
0.00105974
0.0010593
0.00105929
0.00105885
0.00105871
0.00105847
0.00105821
0.00105806
0.00105772
0.00105768
0.00105955
0.000384095
0.000815812
0.00095739
0.00102052
0.00103977
0.00105201
0.00105359
0.00105673
0.00105655
0.0010571
0.00105668
0.00105675
0.00105637
0.00105636
0.00105622
0.00105613
0.00105618
0.00105605
0.00105627
0.00105842
0.000389371
0.000821249
0.000963343
0.00102614
0.00104578
0.001058
0.00105988
0.00106326
0.00106346
0.00106467
0.00106477
0.00106571
0.001066
0.00106689
0.00106772
0.00106838
0.00106968
0.0010703
0.0010716
0.00107504
0.000378091
0.000816248
0.000961941
0.00102755
0.00104766
0.00106225
0.00106567
0.00107259
0.00107493
0.00108005
0.00108232
0.00108654
0.00108891
0.00109237
0.00109482
0.00109768
0.00110011
0.00110263
0.00110449
0.00110915
0.000437167
0.000921789
0.00108213
0.00114471
0.00116635
0.00117975
0.00118636
0.00119347
0.00119685
0.00120039
0.00120136
0.00120259
0.00120246
0.00120258
0.00120225
0.00120221
0.00120164
0.00120159
0.00120095
0.00120368
0.00102946
0.00151832
0.00159025
0.00157093
0.00151931
0.00147041
0.00143112
0.00140291
0.00138191
0.00136581
0.0013541
0.00134358
0.00133629
0.00132863
0.00132376
0.00131815
0.00131431
0.0013116
0.00130501
0.00131356
0.00102946
0.00151832
0.00159025
0.00157093
0.00151931
0.00147041
0.00143111
0.00140291
0.00138191
0.00136581
0.00135409
0.00134357
0.00133627
0.00132861
0.0013237
0.00131813
0.00131404
0.00131185
0.00130374
0.00131514
0.000437167
0.000921789
0.00108213
0.00114471
0.00116635
0.00117975
0.00118636
0.00119348
0.00119685
0.00120039
0.00120135
0.00120261
0.00120243
0.00120264
0.00120217
0.0012024
0.00120143
0.001202
0.00120045
0.00120457
0.000378092
0.000816248
0.000961941
0.00102755
0.00104766
0.00106225
0.00106567
0.00107259
0.00107493
0.00108006
0.00108232
0.00108655
0.0010889
0.00109238
0.00109482
0.00109771
0.0011001
0.00110273
0.00110442
0.0011094
0.000389372
0.000821249
0.000963343
0.00102614
0.00104578
0.001058
0.00105988
0.00106326
0.00106346
0.00106467
0.00106477
0.00106571
0.00106601
0.00106688
0.00106773
0.00106838
0.00106969
0.00107031
0.00107163
0.00107508
0.000384095
0.000815812
0.00095739
0.00102052
0.00103977
0.00105201
0.00105359
0.00105673
0.00105655
0.0010571
0.00105667
0.00105675
0.00105637
0.00105636
0.00105623
0.00105613
0.00105619
0.00105605
0.00105629
0.00105841
0.000387062
0.000818855
0.000960446
0.00102316
0.00104252
0.0010546
0.00105634
0.00105937
0.00105924
0.00105974
0.0010593
0.00105929
0.00105885
0.00105871
0.00105847
0.00105821
0.00105806
0.00105772
0.00105769
0.00105955
0.000387062
0.000818855
0.000960446
0.00102316
0.00104252
0.0010546
0.00105634
0.00105937
0.00105924
0.00105974
0.0010593
0.00105929
0.00105885
0.00105871
0.00105847
0.00105821
0.00105806
0.00105772
0.00105768
0.00105955
0.000384095
0.000815812
0.00095739
0.00102052
0.00103977
0.00105201
0.00105359
0.00105673
0.00105655
0.0010571
0.00105668
0.00105675
0.00105637
0.00105636
0.00105622
0.00105613
0.00105618
0.00105605
0.00105627
0.00105842
0.000389371
0.000821249
0.000963343
0.00102614
0.00104578
0.001058
0.00105988
0.00106326
0.00106346
0.00106467
0.00106477
0.00106571
0.001066
0.00106689
0.00106772
0.00106838
0.00106968
0.0010703
0.0010716
0.00107504
0.000378091
0.000816248
0.000961941
0.00102755
0.00104766
0.00106225
0.00106567
0.00107259
0.00107493
0.00108005
0.00108232
0.00108654
0.00108891
0.00109237
0.00109482
0.00109768
0.00110011
0.00110263
0.00110449
0.00110915
0.000437167
0.000921789
0.00108213
0.00114471
0.00116635
0.00117975
0.00118636
0.00119347
0.00119685
0.00120039
0.00120136
0.00120259
0.00120246
0.00120258
0.00120225
0.00120221
0.00120164
0.00120159
0.00120095
0.00120368
0.00102946
0.00151832
0.00159025
0.00157093
0.00151931
0.00147041
0.00143112
0.00140291
0.00138191
0.00136581
0.0013541
0.00134358
0.00133629
0.00132863
0.00132376
0.00131815
0.00131431
0.0013116
0.00130501
0.00131356
0.00412811
0.00463585
0.00465551
0.00462636
0.00461707
0.00460069
0.00459914
0.00458992
0.00458968
0.0045835
0.00458374
0.00457934
0.00457968
0.0045764
0.00457675
0.0045741
0.00457471
0.00457176
0.00457083
0.00458755
0.00365646
0.00428165
0.00436912
0.00438188
0.00438305
0.00438382
0.00438297
0.00438284
0.0043818
0.00438117
0.00438005
0.00437935
0.00437843
0.00437795
0.00437731
0.0043773
0.0043764
0.00437751
0.00437625
0.0043833
0.00355758
0.00418989
0.00428121
0.00430112
0.00430359
0.00430902
0.00430971
0.0043135
0.00431393
0.00431669
0.0043167
0.00431848
0.00431833
0.00431959
0.00431951
0.00432062
0.00432042
0.00432179
0.00432079
0.00433145
0.00355547
0.00418828
0.00427886
0.00429784
0.00429867
0.00430194
0.00430143
0.00430359
0.00430348
0.00430549
0.00430542
0.00430704
0.00430701
0.00430815
0.00430834
0.00430913
0.0043095
0.00431
0.00431043
0.00431624
0.00355136
0.00418369
0.00427406
0.00429363
0.00429409
0.00429717
0.004296
0.00429774
0.00429694
0.00429836
0.00429772
0.00429905
0.00429849
0.00429956
0.00429923
0.00430005
0.00429988
0.0043005
0.0043006
0.00430609
0.00355351
0.00418618
0.00427628
0.0042958
0.00429621
0.0042993
0.00429806
0.00429979
0.00429888
0.00430017
0.00429939
0.00430056
0.00429985
0.00430084
0.00430032
0.00430105
0.00430073
0.00430117
0.00430107
0.00430604
0.00355351
0.00418618
0.00427628
0.0042958
0.00429621
0.00429929
0.00429806
0.00429979
0.00429888
0.00430017
0.0042994
0.00430056
0.00429985
0.00430084
0.00430032
0.00430105
0.00430073
0.00430117
0.00430107
0.00430604
0.00355136
0.00418369
0.00427406
0.00429363
0.0042941
0.00429717
0.004296
0.00429773
0.00429694
0.00429836
0.00429772
0.00429905
0.00429848
0.00429957
0.00429921
0.00430006
0.00429987
0.0043005
0.00430059
0.00430608
0.00355547
0.00418828
0.00427886
0.00429784
0.00429867
0.00430194
0.00430144
0.00430358
0.00430349
0.00430549
0.00430542
0.00430705
0.004307
0.00430817
0.00430832
0.00430915
0.00430951
0.00430995
0.00431049
0.004316
0.00355758
0.00418989
0.00428121
0.00430112
0.0043036
0.00430902
0.00430971
0.0043135
0.00431393
0.00431668
0.00431671
0.00431847
0.00431833
0.00431959
0.00431952
0.00432055
0.00432056
0.00432156
0.00432108
0.00433064
0.00365646
0.00428165
0.00436912
0.00438188
0.00438305
0.00438382
0.00438298
0.00438284
0.00438181
0.00438116
0.00438006
0.00437933
0.00437847
0.0043779
0.00437738
0.00437718
0.00437657
0.00437709
0.00437703
0.00438164
0.00412811
0.00463585
0.00465551
0.00462636
0.00461707
0.00460069
0.00459915
0.00458992
0.00458968
0.00458349
0.00458375
0.00457934
0.00457969
0.00457639
0.00457678
0.00457407
0.00457483
0.00457158
0.00457165
0.00458515
0.0107651
0.011212
0.0112162
0.0112179
0.011212
0.011211
0.011207
0.011207
0.0112049
0.0112056
0.0112043
0.0112049
0.0112037
0.0112039
0.0112028
0.0112026
0.0112021
0.0111999
0.0112063
0.0112217
0.00555293
0.00558646
0.0054722
0.00535821
0.00530461
0.00528261
0.0052649
0.00525887
0.0052496
0.00524701
0.00524124
0.0052397
0.00523559
0.00523468
0.00523196
0.00523168
0.00523003
0.00522968
0.00526413
0.00527218
0.00424486
0.00453402
0.00456511
0.004561
0.00455284
0.00454991
0.00454524
0.00454359
0.0045406
0.00453923
0.00453668
0.00453547
0.00453318
0.00453225
0.00453028
0.00452983
0.00452782
0.00452792
0.00452754
0.00453634
0.00408288
0.00441657
0.0044817
0.00450401
0.00451163
0.00451969
0.00452223
0.00452643
0.00452755
0.00453026
0.00453057
0.00453248
0.00453206
0.00453338
0.00453265
0.00453367
0.00453287
0.00453383
0.00453347
0.0045398
0.00406556
0.0044034
0.00447223
0.00449848
0.00450968
0.0045211
0.00452635
0.00453404
0.00453746
0.00454325
0.00454569
0.00455032
0.00455171
0.00455527
0.00455601
0.00455887
0.00455949
0.00456153
0.0045626
0.00456824
0.00406727
0.00440217
0.0044706
0.00449718
0.00450932
0.00452189
0.00452843
0.00453751
0.00454214
0.00454957
0.00455323
0.00455936
0.00456198
0.00456679
0.0045686
0.00457258
0.00457414
0.00457711
0.00457929
0.00458479
0.00406727
0.00440217
0.0044706
0.00449718
0.00450932
0.00452189
0.00452843
0.00453751
0.00454214
0.00454957
0.00455323
0.00455936
0.00456198
0.00456679
0.0045686
0.00457259
0.00457414
0.00457712
0.0045793
0.00458482
0.00406556
0.0044034
0.00447223
0.00449848
0.00450968
0.0045211
0.00452636
0.00453403
0.00453746
0.00454324
0.00454569
0.00455032
0.00455171
0.00455527
0.00455605
0.00455885
0.00455954
0.00456151
0.00456267
0.00456826
0.00408288
0.00441657
0.0044817
0.00450401
0.00451163
0.00451969
0.00452223
0.00452643
0.00452755
0.00453025
0.00453058
0.00453247
0.00453208
0.00453335
0.00453272
0.00453359
0.00453297
0.00453375
0.00453367
0.00453958
0.00424486
0.00453402
0.00456511
0.004561
0.00455284
0.00454991
0.00454525
0.00454358
0.0045406
0.00453922
0.00453669
0.00453546
0.0045332
0.00453221
0.00453031
0.00452971
0.00452793
0.00452787
0.00452799
0.00453551
0.00555293
0.00558646
0.0054722
0.00535821
0.00530461
0.00528261
0.0052649
0.00525887
0.0052496
0.00524701
0.00524124
0.00523969
0.00523558
0.00523465
0.00523198
0.00523161
0.00523008
0.00522956
0.00526406
0.00527064
0.0107651
0.011212
0.0112162
0.0112179
0.011212
0.011211
0.011207
0.011207
0.0112049
0.0112056
0.0112042
0.0112049
0.0112037
0.011204
0.0112027
0.0112027
0.0112018
0.0112004
0.0112053
0.011223
0.0324744
0.0325318
0.0325315
0.0325294
0.0325271
0.0325249
0.0325228
0.0325208
0.0325196
0.0325184
0.0325179
0.0325169
0.0325164
0.0325154
0.0325149
0.0325139
0.0325134
0.0325124
0.0325119
0.032511
0.0325105
0.0325096
0.0325092
0.0325083
0.0325079
0.0325071
0.0325068
0.032506
0.0325057
0.0325049
0.0325046
0.032504
0.0325036
0.032503
0.0325028
0.0325022
0.0325019
0.0325014
0.0325012
0.0325007
0.0325005
0.0325001
0.0324999
0.0324996
0.0324994
0.0324991
0.032499
0.0324987
0.0324986
0.0324984
0.0324984
0.0324982
0.0324982
0.0324982
0.0324982
0.0324983
0.0324984
0.0324985
0.0324987
0.0324989
0.0324992
0.0324995
0.0324999
0.0325004
0.0325008
0.0325015
0.0325021
0.0325029
0.0325036
0.0325046
0.0325056
0.0325068
0.0325079
0.0325093
0.0325105
0.0325121
0.0325135
0.0325153
0.0325169
0.0325188
0.0325205
0.0325225
0.0325243
0.0325264
0.0325284
0.0325305
0.0325325
0.0325348
0.0325339
0.0325337
0.0186552
0.0189105
0.018909
0.01891
0.0189039
0.018906
0.0189028
0.0189053
0.0189026
0.0189042
0.0189016
0.018903
0.0189011
0.0189027
0.0189016
0.0189033
0.0189026
0.0189044
0.018904
0.0189057
0.0189055
0.0189073
0.0189072
0.0189089
0.018909
0.0189107
0.0189109
0.0189126
0.0189129
0.0189146
0.018915
0.0189167
0.0189171
0.0189189
0.0189194
0.0189211
0.0189217
0.0189235
0.0189241
0.0189259
0.0189266
0.0189284
0.0189292
0.018931
0.0189319
0.0189337
0.0189346
0.0189364
0.0189374
0.0189393
0.0189403
0.0189422
0.0189433
0.0189452
0.0189464
0.0189483
0.0189495
0.0189515
0.0189528
0.0189548
0.0189562
0.0189582
0.0189596
0.0189618
0.0189632
0.0189654
0.0189669
0.0189692
0.0189707
0.018973
0.0189746
0.018977
0.0189786
0.018981
0.0189827
0.0189851
0.0189868
0.0189892
0.0189909
0.0189932
0.0189948
0.0189972
0.0189987
0.0190009
0.0190024
0.0190044
0.0190058
0.0190078
0.0190064
0.0190059
0.0150344
0.0154811
0.0154865
0.0154921
0.0154828
0.0154886
0.0154833
0.0154897
0.0154858
0.0154911
0.0154875
0.0154924
0.0154899
0.0154948
0.0154936
0.0154985
0.0154981
0.015503
0.0155031
0.015508
0.0155085
0.0155133
0.0155141
0.0155189
0.0155199
0.0155246
0.0155258
0.0155306
0.015532
0.0155366
0.0155382
0.0155429
0.0155446
0.0155492
0.015551
0.0155557
0.0155576
0.0155622
0.0155643
0.0155689
0.015571
0.0155756
0.0155778
0.0155824
0.0155847
0.0155893
0.0155917
0.0155962
0.0155987
0.0156032
0.0156058
0.0156102
0.0156129
0.0156173
0.01562
0.0156244
0.0156272
0.0156316
0.0156344
0.0156387
0.0156416
0.0156459
0.0156488
0.0156531
0.015656
0.0156603
0.0156631
0.0156674
0.0156703
0.0156745
0.0156773
0.0156815
0.0156842
0.0156883
0.015691
0.015695
0.0156975
0.0157014
0.0157038
0.0157075
0.0157097
0.0157131
0.0157152
0.0157184
0.0157202
0.0157231
0.0157247
0.0157273
0.0157283
0.015725
0.0144924
0.0150843
0.0151064
0.0151178
0.015108
0.015116
0.0151099
0.0151182
0.0151141
0.0151218
0.0151179
0.0151249
0.0151222
0.0151291
0.0151279
0.0151346
0.0151345
0.0151412
0.0151418
0.0151485
0.0151495
0.0151561
0.0151576
0.0151641
0.0151658
0.0151724
0.0151743
0.0151808
0.015183
0.0151894
0.0151918
0.0151982
0.0152008
0.0152071
0.0152098
0.0152162
0.015219
0.0152253
0.0152283
0.0152346
0.0152376
0.0152439
0.0152471
0.0152533
0.0152565
0.0152627
0.0152661
0.0152721
0.0152756
0.0152816
0.0152852
0.0152912
0.0152948
0.0153007
0.0153044
0.0153103
0.015314
0.0153199
0.0153236
0.0153294
0.0153332
0.0153389
0.0153427
0.0153483
0.0153521
0.0153577
0.0153614
0.0153669
0.0153706
0.015376
0.0153796
0.0153849
0.0153884
0.0153936
0.0153969
0.015402
0.0154051
0.0154099
0.0154129
0.0154175
0.0154202
0.0154244
0.0154269
0.0154308
0.015433
0.0154366
0.0154384
0.0154416
0.0154437
0.0154395
0.0144612
0.0151317
0.0151696
0.0151871
0.015178
0.0151878
0.0151817
0.0151909
0.0151872
0.0151959
0.0151919
0.0152
0.015197
0.0152048
0.0152035
0.0152111
0.0152111
0.0152187
0.0152196
0.0152272
0.0152286
0.0152361
0.0152379
0.0152454
0.0152476
0.0152551
0.0152574
0.0152649
0.0152675
0.015275
0.0152778
0.0152852
0.0152882
0.0152956
0.0152988
0.0153061
0.0153094
0.0153167
0.0153202
0.0153275
0.0153311
0.0153383
0.015342
0.0153491
0.015353
0.01536
0.015364
0.015371
0.015375
0.0153819
0.0153861
0.015393
0.0153972
0.015404
0.0154083
0.015415
0.0154193
0.015426
0.0154303
0.0154369
0.0154413
0.0154478
0.0154522
0.0154586
0.015463
0.0154693
0.0154736
0.0154799
0.0154841
0.0154903
0.0154944
0.0155004
0.0155044
0.0155103
0.0155141
0.0155197
0.0155233
0.0155287
0.0155321
0.0155372
0.0155402
0.015545
0.0155478
0.0155522
0.0155546
0.0155587
0.0155608
0.0155642
0.015567
0.0155623
0.0144836
0.0151981
0.015246
0.0152679
0.01526
0.0152711
0.0152654
0.015275
0.015272
0.015281
0.0152773
0.0152859
0.0152828
0.015291
0.0152896
0.0152977
0.0152977
0.0153058
0.0153067
0.0153147
0.0153163
0.0153243
0.0153262
0.0153342
0.0153365
0.0153444
0.015347
0.0153549
0.0153578
0.0153656
0.0153687
0.0153765
0.0153798
0.0153876
0.015391
0.0153988
0.0154024
0.0154101
0.0154139
0.0154215
0.0154254
0.015433
0.015437
0.0154446
0.0154487
0.0154562
0.0154604
0.0154678
0.0154722
0.0154795
0.015484
0.0154912
0.0154957
0.0155029
0.0155075
0.0155147
0.0155193
0.0155263
0.015531
0.015538
0.0155426
0.0155495
0.0155542
0.015561
0.0155656
0.0155723
0.0155769
0.0155835
0.015588
0.0155945
0.0155989
0.0156053
0.0156095
0.0156157
0.0156197
0.0156257
0.0156295
0.0156352
0.0156387
0.0156441
0.0156473
0.0156524
0.0156553
0.01566
0.0156625
0.0156668
0.015669
0.0156725
0.0156755
0.0156707
0.0144838
0.0151989
0.0152477
0.0152704
0.0152629
0.0152741
0.015269
0.0152789
0.0152763
0.0152852
0.0152819
0.0152905
0.0152876
0.0152958
0.0152945
0.0153026
0.0153027
0.0153107
0.0153117
0.0153197
0.0153213
0.0153293
0.0153312
0.0153392
0.0153415
0.0153495
0.0153521
0.01536
0.0153629
0.0153708
0.0153738
0.0153817
0.0153849
0.0153928
0.0153962
0.015404
0.0154076
0.0154154
0.0154191
0.0154268
0.0154307
0.0154383
0.0154423
0.0154499
0.015454
0.0154616
0.0154658
0.0154732
0.0154776
0.0154849
0.0154894
0.0154967
0.0155012
0.0155084
0.015513
0.0155201
0.0155248
0.0155318
0.0155365
0.0155435
0.0155481
0.0155551
0.0155597
0.0155666
0.0155712
0.0155779
0.0155825
0.0155891
0.0155936
0.0156002
0.0156045
0.0156109
0.0156152
0.0156213
0.0156254
0.0156314
0.0156352
0.0156409
0.0156444
0.0156499
0.0156531
0.0156582
0.0156611
0.0156657
0.0156683
0.0156725
0.0156748
0.0156783
0.0156813
0.0156765
0.014462
0.0151348
0.0151747
0.0151939
0.015186
0.015196
0.0151913
0.0152009
0.0151984
0.0152069
0.015204
0.0152122
0.0152097
0.0152175
0.0152164
0.0152241
0.0152242
0.0152319
0.0152327
0.0152404
0.0152418
0.0152494
0.0152512
0.0152588
0.0152609
0.0152685
0.0152709
0.0152784
0.0152811
0.0152886
0.0152914
0.0152989
0.0153019
0.0153094
0.0153126
0.01532
0.0153233
0.0153307
0.0153342
0.0153415
0.0153451
0.0153524
0.0153561
0.0153633
0.0153672
0.0153743
0.0153783
0.0153854
0.0153894
0.0153964
0.0154006
0.0154075
0.0154118
0.0154186
0.0154229
0.0154297
0.0154341
0.0154408
0.0154452
0.0154518
0.0154562
0.0154628
0.0154672
0.0154736
0.015478
0.0154844
0.0154887
0.015495
0.0154993
0.0155055
0.0155096
0.0155157
0.0155197
0.0155256
0.0155294
0.0155351
0.0155387
0.0155442
0.0155475
0.0155527
0.0155557
0.0155606
0.0155633
0.0155678
0.0155702
0.0155743
0.0155764
0.0155798
0.0155825
0.015578
0.0144932
0.015088
0.015113
0.0151266
0.0151184
0.0151264
0.0151221
0.0151307
0.0151283
0.0151359
0.0151334
0.0151407
0.0151385
0.0151456
0.0151446
0.0151514
0.0151514
0.0151582
0.0151589
0.0151656
0.0151667
0.0151735
0.0151749
0.0151816
0.0151833
0.01519
0.015192
0.0151986
0.0152008
0.0152074
0.0152098
0.0152163
0.0152189
0.0152254
0.0152281
0.0152346
0.0152375
0.0152439
0.0152469
0.0152533
0.0152564
0.0152627
0.015266
0.0152723
0.0152756
0.0152818
0.0152853
0.0152914
0.015295
0.0153011
0.0153047
0.0153108
0.0153145
0.0153205
0.0153242
0.0153302
0.015334
0.0153399
0.0153437
0.0153495
0.0153534
0.0153591
0.015363
0.0153687
0.0153725
0.0153782
0.015382
0.0153875
0.0153913
0.0153968
0.0154004
0.0154058
0.0154093
0.0154146
0.0154179
0.015423
0.0154262
0.0154311
0.015434
0.0154387
0.0154414
0.0154457
0.0154482
0.0154522
0.0154543
0.015458
0.0154598
0.015463
0.0154651
0.0154611
0.0150321
0.0154807
0.0154884
0.0154956
0.0154877
0.0154932
0.0154894
0.0154959
0.0154934
0.0154989
0.0154964
0.0155017
0.0154997
0.0155048
0.0155038
0.0155089
0.0155086
0.0155136
0.0155138
0.0155188
0.0155193
0.0155243
0.0155251
0.0155301
0.0155311
0.015536
0.0155373
0.0155421
0.0155436
0.0155484
0.01555
0.0155549
0.0155566
0.0155614
0.0155633
0.0155681
0.0155701
0.0155748
0.0155769
0.0155817
0.0155839
0.0155886
0.0155909
0.0155956
0.015598
0.0156027
0.0156052
0.0156098
0.0156124
0.015617
0.0156196
0.0156242
0.0156269
0.0156315
0.0156343
0.0156388
0.0156417
0.0156462
0.015649
0.0156535
0.0156564
0.0156609
0.0156638
0.0156682
0.0156712
0.0156756
0.0156785
0.0156829
0.0156858
0.0156901
0.015693
0.0156972
0.0157
0.0157042
0.0157069
0.015711
0.0157136
0.0157175
0.01572
0.0157237
0.015726
0.0157295
0.0157316
0.0157349
0.0157367
0.0157397
0.0157413
0.015744
0.0157449
0.0157419
0.0186506
0.0189075
0.0189077
0.0189098
0.0189044
0.0189067
0.0189039
0.0189067
0.0189046
0.0189067
0.0189048
0.0189066
0.018905
0.0189069
0.0189058
0.0189077
0.0189071
0.0189089
0.0189085
0.0189104
0.0189102
0.0189121
0.018912
0.0189138
0.0189139
0.0189157
0.0189159
0.0189178
0.0189181
0.0189199
0.0189203
0.0189221
0.0189226
0.0189244
0.018925
0.0189268
0.0189274
0.0189293
0.01893
0.0189319
0.0189326
0.0189345
0.0189354
0.0189373
0.0189382
0.0189401
0.018941
0.018943
0.018944
0.018946
0.0189471
0.018949
0.0189502
0.0189522
0.0189534
0.0189555
0.0189567
0.0189588
0.0189602
0.0189623
0.0189637
0.0189658
0.0189673
0.0189695
0.018971
0.0189733
0.0189749
0.0189772
0.0189788
0.0189812
0.0189829
0.0189853
0.018987
0.0189895
0.0189912
0.0189937
0.0189955
0.018998
0.0189996
0.0190021
0.0190038
0.0190061
0.0190077
0.01901
0.0190115
0.0190137
0.019015
0.0190172
0.0190157
0.0190153
0.032507
0.0325726
0.0325773
0.032579
0.0325786
0.032577
0.0325751
0.032574
0.0325742
0.0325748
0.0325758
0.0325762
0.0325766
0.0325763
0.0325762
0.0325755
0.0325751
0.0325742
0.0325737
0.0325728
0.0325724
0.0325715
0.0325711
0.0325703
0.0325699
0.0325692
0.0325688
0.0325681
0.0325678
0.0325671
0.0325668
0.0325662
0.0325659
0.0325654
0.0325651
0.0325646
0.0325644
0.0325639
0.0325637
0.0325633
0.0325631
0.0325628
0.0325626
0.0325623
0.0325622
0.0325619
0.0325618
0.0325616
0.0325616
0.0325615
0.0325614
0.0325614
0.0325614
0.0325615
0.0325615
0.0325617
0.0325618
0.032562
0.0325623
0.0325626
0.0325629
0.0325633
0.0325638
0.0325643
0.0325649
0.0325656
0.0325663
0.0325672
0.0325681
0.0325692
0.0325702
0.0325716
0.0325727
0.0325743
0.0325757
0.0325774
0.032579
0.0325809
0.0325826
0.0325846
0.0325865
0.0325887
0.0325907
0.0325929
0.032595
0.0325973
0.0325995
0.0326019
0.0326013
0.0326013
0.0148231
0.0149217
0.0149197
0.0149168
0.0149147
0.0149136
0.0149122
0.0149121
0.0149111
0.0149116
0.0149108
0.0149116
0.014911
0.0149119
0.0149114
0.0149125
0.0149121
0.0149132
0.0149129
0.014914
0.0149138
0.0149149
0.0149147
0.0149159
0.0149158
0.014917
0.0149169
0.0149181
0.0149181
0.0149193
0.0149194
0.0149206
0.0149207
0.0149219
0.0149221
0.0149233
0.0149236
0.0149248
0.0149252
0.0149264
0.0149268
0.014928
0.0149285
0.0149297
0.0149302
0.0149315
0.014932
0.0149333
0.0149339
0.0149353
0.0149359
0.0149373
0.014938
0.0149394
0.0149402
0.0149416
0.0149424
0.0149439
0.0149447
0.0149462
0.0149472
0.0149487
0.0149497
0.0149513
0.0149523
0.014954
0.0149551
0.0149568
0.0149579
0.0149597
0.0149608
0.0149626
0.0149638
0.0149657
0.0149669
0.0149688
0.01497
0.0149719
0.014973
0.0149749
0.0149761
0.0149779
0.0149791
0.0149809
0.0149819
0.0149838
0.0149847
0.0149869
0.0149866
0.0149876
0.0143593
0.0146298
0.0146339
0.0146328
0.0146309
0.0146312
0.0146309
0.0146319
0.0146316
0.0146322
0.0146316
0.0146322
0.0146319
0.0146329
0.0146329
0.0146341
0.0146343
0.0146356
0.014636
0.0146373
0.0146377
0.014639
0.0146395
0.0146408
0.0146413
0.0146426
0.0146431
0.0146444
0.014645
0.0146463
0.0146469
0.0146482
0.0146489
0.0146502
0.0146508
0.0146522
0.0146529
0.0146542
0.0146549
0.0146562
0.014657
0.0146583
0.0146591
0.0146604
0.0146612
0.0146625
0.0146633
0.0146647
0.0146655
0.0146669
0.0146677
0.0146691
0.01467
0.0146713
0.0146722
0.0146736
0.0146746
0.014676
0.0146769
0.0146783
0.0146793
0.0146808
0.0146818
0.0146833
0.0146843
0.0146859
0.014687
0.0146885
0.0146897
0.0146913
0.0146925
0.0146942
0.0146954
0.0146971
0.0146984
0.0147001
0.0147014
0.0147032
0.0147045
0.0147063
0.0147076
0.0147094
0.0147106
0.0147124
0.0147135
0.0147153
0.0147164
0.0147182
0.014719
0.0147207
0.0138117
0.014257
0.0142782
0.01428
0.0142788
0.0142791
0.0142794
0.0142804
0.0142807
0.0142808
0.0142803
0.0142801
0.0142797
0.0142798
0.0142798
0.0142802
0.0142805
0.0142811
0.0142816
0.0142822
0.0142827
0.0142833
0.0142838
0.0142845
0.014285
0.0142857
0.0142862
0.0142869
0.0142874
0.014288
0.0142886
0.0142892
0.0142898
0.0142904
0.014291
0.0142917
0.0142922
0.0142929
0.0142934
0.0142941
0.0142946
0.0142953
0.0142959
0.0142966
0.0142971
0.0142978
0.0142984
0.0142991
0.0142996
0.0143003
0.0143009
0.0143016
0.0143021
0.0143029
0.0143034
0.0143042
0.0143048
0.0143055
0.0143061
0.0143069
0.0143075
0.0143083
0.0143089
0.0143098
0.0143104
0.0143113
0.014312
0.014313
0.0143137
0.0143147
0.0143156
0.0143166
0.0143175
0.0143186
0.0143196
0.0143208
0.0143218
0.014323
0.014324
0.0143253
0.0143264
0.0143277
0.0143287
0.0143301
0.0143311
0.0143325
0.0143334
0.0143347
0.0143355
0.014331
0.0136318
0.0141729
0.0142081
0.0142126
0.0142119
0.0142117
0.0142121
0.0142132
0.014214
0.0142142
0.0142138
0.014213
0.0142124
0.0142118
0.0142116
0.0142114
0.0142115
0.0142116
0.0142118
0.014212
0.0142123
0.0142125
0.0142128
0.014213
0.0142133
0.0142135
0.0142138
0.0142141
0.0142144
0.0142146
0.0142149
0.0142152
0.0142155
0.0142157
0.014216
0.0142163