/*--------------------------------*- C++ -*----------------------------------*\
  =========                 |
  \\      /  F ield         | OpenFOAM: The Open Source CFD Toolbox
   \\    /   O peration     | Website:  https://openfoam.org
    \\  /    A nd           | Version:  7
     \\/     M anipulation  |
\*---------------------------------------------------------------------------*/
FoamFile
{
    version     2.0;
    format      ascii;
    class       volScalarField;
    location    "0.21";
    object      nut;
}
// * * * * * * * * * * * * * * * * * * * * * * * * * * * * * * * * * * * * * //

dimensions      [0 2 -1 0 0 0 0];

internalField   nonuniform List<scalar> 
2400
(
1.45088e-07
9.22522e-08
6.52502e-08
4.94532e-08
3.89494e-08
3.1277e-08
2.53206e-08
2.0521e-08
1.65713e-08
1.32895e-08
1.05589e-08
8.29713e-09
6.44028e-09
4.93383e-09
3.72869e-09
2.7795e-09
2.04439e-09
1.48532e-09
1.0686e-09
7.65313e-10
5.51361e-10
4.07106e-10
3.16228e-10
2.64136e-10
2.37428e-10
2.25202e-10
2.20252e-10
2.18628e-10
2.18431e-10
2.18815e-10
2.19426e-10
2.20119e-10
2.20837e-10
2.21559e-10
2.22277e-10
2.22989e-10
2.23694e-10
2.24392e-10
2.25083e-10
2.25766e-10
2.26444e-10
2.27114e-10
2.27779e-10
2.28438e-10
2.29091e-10
2.29739e-10
2.30381e-10
2.31019e-10
2.31652e-10
2.3228e-10
2.32904e-10
2.33523e-10
2.34139e-10
2.34751e-10
2.35359e-10
2.35964e-10
2.36565e-10
2.37164e-10
2.37759e-10
2.38352e-10
2.38942e-10
2.39529e-10
2.40115e-10
2.40697e-10
2.41278e-10
2.41857e-10
2.42434e-10
2.43009e-10
2.43583e-10
2.44155e-10
2.44726e-10
2.45296e-10
2.45864e-10
2.46431e-10
2.46998e-10
2.47563e-10
2.48128e-10
2.48692e-10
2.49255e-10
2.49818e-10
2.50381e-10
2.50943e-10
2.51504e-10
2.52066e-10
2.52627e-10
2.53188e-10
2.53748e-10
2.54309e-10
2.54869e-10
2.55429e-10
2.5599e-10
2.5655e-10
2.5711e-10
2.57669e-10
2.58229e-10
2.58788e-10
2.59347e-10
2.59905e-10
2.60461e-10
2.61014e-10
2.61561e-10
2.62096e-10
2.62609e-10
2.63081e-10
2.63482e-10
2.63763e-10
2.63845e-10
2.63615e-10
2.62908e-10
2.61499e-10
2.59091e-10
2.55312e-10
2.49705e-10
2.41725e-10
2.30719e-10
2.15887e-10
1.96168e-10
1.69941e-10
1.34046e-10
7.81634e-11
1.77694e-07
1.33324e-07
1.02623e-07
8.09466e-08
6.4977e-08
5.2691e-08
4.28971e-08
3.48907e-08
2.82453e-08
2.2693e-08
1.80555e-08
1.42037e-08
1.10347e-08
8.45962e-09
6.39696e-09
4.77071e-09
3.5102e-09
2.55086e-09
1.83532e-09
1.31418e-09
9.46209e-10
6.97773e-10
5.40948e-10
4.50825e-10
4.04495e-10
3.83233e-10
3.74596e-10
3.71741e-10
3.71366e-10
3.72005e-10
3.73037e-10
3.74212e-10
3.75432e-10
3.7666e-10
3.77881e-10
3.79091e-10
3.8029e-10
3.81476e-10
3.8265e-10
3.83812e-10
3.84963e-10
3.86104e-10
3.87233e-10
3.88353e-10
3.89464e-10
3.90565e-10
3.91657e-10
3.92741e-10
3.93816e-10
3.94884e-10
3.95945e-10
3.96998e-10
3.98045e-10
3.99085e-10
4.00119e-10
4.01147e-10
4.02169e-10
4.03187e-10
4.04199e-10
4.05206e-10
4.06209e-10
4.07208e-10
4.08202e-10
4.09193e-10
4.10181e-10
4.11165e-10
4.12145e-10
4.13123e-10
4.14099e-10
4.15071e-10
4.16042e-10
4.1701e-10
4.17976e-10
4.1894e-10
4.19903e-10
4.20864e-10
4.21824e-10
4.22783e-10
4.23741e-10
4.24698e-10
4.25654e-10
4.26609e-10
4.27564e-10
4.28518e-10
4.29472e-10
4.30425e-10
4.31378e-10
4.32331e-10
4.33283e-10
4.34236e-10
4.35188e-10
4.3614e-10
4.37092e-10
4.38043e-10
4.38995e-10
4.39945e-10
4.40895e-10
4.41844e-10
4.42789e-10
4.43729e-10
4.44659e-10
4.45568e-10
4.4644e-10
4.47242e-10
4.47925e-10
4.48403e-10
4.48545e-10
4.48158e-10
4.46962e-10
4.44576e-10
4.40501e-10
4.34106e-10
4.24622e-10
4.11129e-10
3.92528e-10
3.67467e-10
3.34136e-10
2.89742e-10
2.28809e-10
1.33562e-10
1.86137e-07
1.48838e-07
1.1971e-07
9.71119e-08
7.93378e-08
6.50637e-08
5.33664e-08
4.36308e-08
3.54531e-08
2.85643e-08
2.27765e-08
1.79485e-08
1.39635e-08
1.0717e-08
8.11133e-09
6.05367e-09
4.45662e-09
3.23975e-09
2.33111e-09
1.6685e-09
1.19985e-09
8.82627e-10
6.81599e-10
5.65491e-10
5.05485e-10
4.77809e-10
4.66496e-10
4.627e-10
4.62134e-10
4.62889e-10
4.64158e-10
4.65615e-10
4.67131e-10
4.68657e-10
4.70176e-10
4.71682e-10
4.73173e-10
4.74648e-10
4.76109e-10
4.77555e-10
4.78987e-10
4.80406e-10
4.81811e-10
4.83205e-10
4.84586e-10
4.85956e-10
4.87315e-10
4.88663e-10
4.90001e-10
4.9133e-10
4.92649e-10
4.93959e-10
4.95261e-10
4.96555e-10
4.97842e-10
4.99121e-10
5.00393e-10
5.01658e-10
5.02917e-10
5.04171e-10
5.05418e-10
5.06661e-10
5.07898e-10
5.09131e-10
5.10359e-10
5.11583e-10
5.12803e-10
5.1402e-10
5.15233e-10
5.16443e-10
5.1765e-10
5.18855e-10
5.20057e-10
5.21257e-10
5.22454e-10
5.2365e-10
5.24845e-10
5.26037e-10
5.27229e-10
5.28419e-10
5.29608e-10
5.30797e-10
5.31984e-10
5.33171e-10
5.34358e-10
5.35544e-10
5.3673e-10
5.37915e-10
5.391e-10
5.40285e-10
5.41469e-10
5.42654e-10
5.43838e-10
5.45021e-10
5.46205e-10
5.47388e-10
5.48569e-10
5.49749e-10
5.50925e-10
5.52095e-10
5.53251e-10
5.54383e-10
5.55467e-10
5.56466e-10
5.57317e-10
5.57914e-10
5.58096e-10
5.57622e-10
5.56149e-10
5.53207e-10
5.48183e-10
5.40304e-10
5.28628e-10
5.12035e-10
4.89189e-10
4.58436e-10
4.17531e-10
3.62916e-10
2.87489e-10
1.68382e-10
1.88989e-07
1.55608e-07
1.2836e-07
1.06174e-07
8.79851e-08
7.2901e-08
6.0243e-08
4.95258e-08
4.04117e-08
3.26647e-08
2.61127e-08
2.06197e-08
1.60683e-08
1.23492e-08
9.35709e-09
6.98961e-09
5.14908e-09
3.74464e-09
2.69445e-09
1.92734e-09
1.38352e-09
1.01409e-09
7.78676e-10
6.41705e-10
5.70361e-10
5.37211e-10
5.23539e-10
5.18856e-10
5.18046e-10
5.18823e-10
5.20219e-10
5.21841e-10
5.23536e-10
5.25245e-10
5.26947e-10
5.28635e-10
5.30305e-10
5.31959e-10
5.33595e-10
5.35216e-10
5.36821e-10
5.3841e-10
5.39985e-10
5.41547e-10
5.43094e-10
5.44629e-10
5.46152e-10
5.47663e-10
5.49162e-10
5.50651e-10
5.52129e-10
5.53598e-10
5.55057e-10
5.56507e-10
5.57948e-10
5.59381e-10
5.60807e-10
5.62225e-10
5.63636e-10
5.6504e-10
5.66438e-10
5.6783e-10
5.69217e-10
5.70598e-10
5.71974e-10
5.73346e-10
5.74713e-10
5.76076e-10
5.77436e-10
5.78792e-10
5.80144e-10
5.81494e-10
5.82841e-10
5.84185e-10
5.85527e-10
5.86867e-10
5.88205e-10
5.89542e-10
5.90877e-10
5.9221e-10
5.93543e-10
5.94875e-10
5.96205e-10
5.97535e-10
5.98865e-10
6.00194e-10
6.01522e-10
6.0285e-10
6.04178e-10
6.05506e-10
6.06833e-10
6.0816e-10
6.09487e-10
6.10813e-10
6.12139e-10
6.13464e-10
6.14788e-10
6.1611e-10
6.17428e-10
6.18739e-10
6.20035e-10
6.21303e-10
6.22518e-10
6.23639e-10
6.24594e-10
6.25267e-10
6.25479e-10
6.24963e-10
6.23339e-10
6.20089e-10
6.1454e-10
6.05845e-10
5.92984e-10
5.74749e-10
5.49712e-10
5.16104e-10
4.71481e-10
4.11803e-10
3.28607e-10
1.94464e-10
1.90138e-07
1.58796e-07
1.32899e-07
1.11341e-07
9.32399e-08
7.78994e-08
6.47931e-08
5.35378e-08
4.38606e-08
3.55659e-08
2.85052e-08
2.25563e-08
1.76078e-08
1.35518e-08
1.02803e-08
7.68645e-09
5.6664e-09
4.12252e-09
2.96623e-09
2.12e-09
1.51846e-09
1.10802e-09
8.44679e-10
6.90028e-10
6.08653e-10
5.70478e-10
5.5456e-10
5.48976e-10
5.47859e-10
5.48578e-10
5.50014e-10
5.51714e-10
5.53501e-10
5.55306e-10
5.57104e-10
5.58887e-10
5.60653e-10
5.62401e-10
5.64131e-10
5.65844e-10
5.6754e-10
5.69221e-10
5.70886e-10
5.72536e-10
5.74172e-10
5.75794e-10
5.77404e-10
5.79001e-10
5.80586e-10
5.82159e-10
5.83722e-10
5.85274e-10
5.86816e-10
5.88349e-10
5.89872e-10
5.91387e-10
5.92894e-10
5.94393e-10
5.95884e-10
5.97369e-10
5.98846e-10
6.00318e-10
6.01783e-10
6.03243e-10
6.04698e-10
6.06148e-10
6.07593e-10
6.09033e-10
6.1047e-10
6.11903e-10
6.13333e-10
6.1476e-10
6.16183e-10
6.17604e-10
6.19022e-10
6.20439e-10
6.21853e-10
6.23266e-10
6.24677e-10
6.26086e-10
6.27495e-10
6.28902e-10
6.30309e-10
6.31714e-10
6.33119e-10
6.34524e-10
6.35928e-10
6.37332e-10
6.38735e-10
6.40138e-10
6.41541e-10
6.42944e-10
6.44346e-10
6.45748e-10
6.47149e-10
6.4855e-10
6.4995e-10
6.51347e-10
6.5274e-10
6.54125e-10
6.55495e-10
6.56835e-10
6.58121e-10
6.59307e-10
6.6032e-10
6.61037e-10
6.61273e-10
6.60749e-10
6.59071e-10
6.55705e-10
6.49958e-10
6.40969e-10
6.27712e-10
6.08995e-10
5.83441e-10
5.49379e-10
5.04499e-10
4.44779e-10
3.60969e-10
2.20934e-10
1.90661e-07
1.60381e-07
1.35334e-07
1.14301e-07
9.64157e-08
8.10539e-08
6.77654e-08
5.62313e-08
4.62273e-08
3.75918e-08
3.01998e-08
2.39439e-08
1.87214e-08
1.44283e-08
1.09575e-08
8.20021e-09
6.04917e-09
4.40262e-09
3.16743e-09
2.26167e-09
1.61594e-09
1.17325e-09
8.87032e-10
7.17144e-10
6.26678e-10
5.83755e-10
5.65632e-10
5.59113e-10
5.57634e-10
5.58228e-10
5.59637e-10
5.61348e-10
5.63158e-10
5.64992e-10
5.6682e-10
5.68634e-10
5.7043e-10
5.72208e-10
5.73968e-10
5.75711e-10
5.77436e-10
5.79146e-10
5.80839e-10
5.82518e-10
5.84182e-10
5.85833e-10
5.8747e-10
5.89094e-10
5.90707e-10
5.92307e-10
5.93897e-10
5.95476e-10
5.97044e-10
5.98603e-10
6.00153e-10
6.01694e-10
6.03226e-10
6.04751e-10
6.06268e-10
6.07778e-10
6.09281e-10
6.10778e-10
6.12268e-10
6.13753e-10
6.15233e-10
6.16707e-10
6.18177e-10
6.19643e-10
6.21104e-10
6.22562e-10
6.24016e-10
6.25467e-10
6.26915e-10
6.2836e-10
6.29803e-10
6.31243e-10
6.32682e-10
6.34119e-10
6.35554e-10
6.36988e-10
6.3842e-10
6.39852e-10
6.41282e-10
6.42712e-10
6.44141e-10
6.4557e-10
6.46998e-10
6.48426e-10
6.49853e-10
6.5128e-10
6.52707e-10
6.54134e-10
6.5556e-10
6.56986e-10
6.58411e-10
6.59836e-10
6.61259e-10
6.62681e-10
6.64098e-10
6.65507e-10
6.669e-10
6.68264e-10
6.69572e-10
6.70781e-10
6.71815e-10
6.72553e-10
6.72808e-10
6.72302e-10
6.70646e-10
6.67312e-10
6.61621e-10
6.52745e-10
6.39714e-10
6.21441e-10
5.9674e-10
5.64289e-10
5.22417e-10
4.68258e-10
3.94333e-10
2.68596e-10
1.90918e-07
1.61196e-07
1.36657e-07
1.15991e-07
9.83111e-08
8.30077e-08
6.96636e-08
5.79952e-08
4.78093e-08
3.89689e-08
3.13677e-08
2.4911e-08
1.95049e-08
1.50499e-08
1.14408e-08
8.56864e-09
6.32464e-09
4.60449e-09
3.31217e-09
2.36274e-09
1.68397e-09
1.21644e-09
9.11812e-10
7.28973e-10
6.3035e-10
5.82978e-10
5.62716e-10
5.55252e-10
5.53374e-10
5.53801e-10
5.55136e-10
5.56809e-10
5.58596e-10
5.60411e-10
5.62224e-10
5.64022e-10
5.65804e-10
5.67567e-10
5.69312e-10
5.7104e-10
5.72751e-10
5.74447e-10
5.76126e-10
5.77791e-10
5.79441e-10
5.81078e-10
5.82702e-10
5.84313e-10
5.85911e-10
5.87499e-10
5.89075e-10
5.9064e-10
5.92196e-10
5.93742e-10
5.95279e-10
5.96807e-10
5.98326e-10
5.99838e-10
6.01342e-10
6.0284e-10
6.0433e-10
6.05814e-10
6.07292e-10
6.08765e-10
6.10232e-10
6.11694e-10
6.13152e-10
6.14605e-10
6.16054e-10
6.17499e-10
6.18941e-10
6.2038e-10
6.21816e-10
6.23249e-10
6.24679e-10
6.26108e-10
6.27534e-10
6.28959e-10
6.30382e-10
6.31803e-10
6.33224e-10
6.34643e-10
6.36062e-10
6.37479e-10
6.38896e-10
6.40313e-10
6.41729e-10
6.43145e-10
6.4456e-10
6.45975e-10
6.4739e-10
6.48804e-10
6.50219e-10
6.51632e-10
6.53046e-10
6.54458e-10
6.5587e-10
6.57279e-10
6.58684e-10
6.60081e-10
6.61463e-10
6.62816e-10
6.64115e-10
6.65316e-10
6.66345e-10
6.67086e-10
6.67356e-10
6.66888e-10
6.65305e-10
6.62103e-10
6.56644e-10
6.48158e-10
6.35778e-10
6.18583e-10
5.95678e-10
5.66288e-10
5.29881e-10
4.86419e-10
4.37385e-10
3.91309e-10
1.91048e-07
1.61622e-07
1.37373e-07
1.16942e-07
9.94141e-08
8.41795e-08
7.08318e-08
5.91045e-08
4.88222e-08
3.9864e-08
3.21362e-08
2.55541e-08
2.00303e-08
1.54697e-08
1.17691e-08
8.82007e-09
6.51322e-09
4.74284e-09
3.41114e-09
2.43122e-09
1.72894e-09
1.24321e-09
9.24514e-10
7.31238e-10
6.25689e-10
5.74378e-10
5.52164e-10
5.43813e-10
5.41541e-10
5.41787e-10
5.43027e-10
5.44639e-10
5.46377e-10
5.4815e-10
5.49921e-10
5.5168e-10
5.53421e-10
5.55146e-10
5.56853e-10
5.58543e-10
5.60216e-10
5.61874e-10
5.63516e-10
5.65144e-10
5.66758e-10
5.68359e-10
5.69947e-10
5.71522e-10
5.73085e-10
5.74638e-10
5.76179e-10
5.7771e-10
5.79231e-10
5.80743e-10
5.82245e-10
5.8374e-10
5.85226e-10
5.86704e-10
5.88175e-10
5.89639e-10
5.91096e-10
5.92547e-10
5.93993e-10
5.95433e-10
5.96867e-10
5.98297e-10
5.99722e-10
6.01143e-10
6.0256e-10
6.03973e-10
6.05383e-10
6.0679e-10
6.08194e-10
6.09595e-10
6.10994e-10
6.12391e-10
6.13785e-10
6.15178e-10
6.1657e-10
6.1796e-10
6.19349e-10
6.20737e-10
6.22124e-10
6.2351e-10
6.24896e-10
6.26281e-10
6.27665e-10
6.29049e-10
6.30433e-10
6.31817e-10
6.332e-10
6.34583e-10
6.35966e-10
6.37349e-10
6.3873e-10
6.40112e-10
6.41492e-10
6.4287e-10
6.44243e-10
6.4561e-10
6.46961e-10
6.48284e-10
6.49556e-10
6.50732e-10
6.51744e-10
6.52478e-10
6.5276e-10
6.52336e-10
6.50849e-10
6.47826e-10
6.42678e-10
6.3471e-10
6.23166e-10
6.07311e-10
5.86548e-10
5.60613e-10
5.29882e-10
4.95946e-10
4.62794e-10
4.39056e-10
1.91113e-07
1.61838e-07
1.37745e-07
1.17447e-07
1.00016e-07
8.48341e-08
7.14975e-08
5.97474e-08
4.94177e-08
4.03964e-08
3.2598e-08
2.59437e-08
2.03509e-08
1.57273e-08
1.19715e-08
8.9757e-09
6.63023e-09
4.82875e-09
3.47245e-09
2.47328e-09
1.75591e-09
1.25821e-09
9.29916e-10
7.29201e-10
6.18491e-10
5.6414e-10
5.40382e-10
5.31314e-10
5.28717e-10
5.28806e-10
5.29958e-10
5.31509e-10
5.33198e-10
5.34925e-10
5.36652e-10
5.38368e-10
5.40067e-10
5.4175e-10
5.43415e-10
5.45064e-10
5.46697e-10
5.48315e-10
5.49917e-10
5.51506e-10
5.5308e-10
5.54642e-10
5.56191e-10
5.57728e-10
5.59254e-10
5.60768e-10
5.62272e-10
5.63766e-10
5.6525e-10
5.66725e-10
5.68191e-10
5.69649e-10
5.71099e-10
5.72541e-10
5.73976e-10
5.75404e-10
5.76826e-10
5.78242e-10
5.79652e-10
5.81057e-10
5.82457e-10
5.83851e-10
5.85242e-10
5.86628e-10
5.88011e-10
5.89389e-10
5.90765e-10
5.92137e-10
5.93507e-10
5.94874e-10
5.96239e-10
5.97601e-10
5.98962e-10
6.00321e-10
6.01679e-10
6.03035e-10
6.0439e-10
6.05744e-10
6.07097e-10
6.08449e-10
6.09801e-10
6.11152e-10
6.12503e-10
6.13854e-10
6.15204e-10
6.16554e-10
6.17903e-10
6.19252e-10
6.20601e-10
6.2195e-10
6.23298e-10
6.24646e-10
6.25992e-10
6.27336e-10
6.28677e-10
6.3001e-10
6.31328e-10
6.3262e-10
6.33861e-10
6.35011e-10
6.36003e-10
6.36727e-10
6.37018e-10
6.36632e-10
6.35234e-10
6.32379e-10
6.2752e-10
6.20028e-10
6.09248e-10
5.94593e-10
5.75698e-10
5.52649e-10
5.2633e-10
4.98907e-10
4.74433e-10
4.59047e-10
1.91139e-07
1.61928e-07
1.37903e-07
1.17666e-07
1.00281e-07
8.51258e-08
7.1798e-08
6.00408e-08
4.9692e-08
4.06436e-08
3.28138e-08
2.61268e-08
2.05022e-08
1.58494e-08
1.20678e-08
9.04987e-09
6.68609e-09
4.86978e-09
3.50168e-09
2.4932e-09
1.76846e-09
1.26481e-09
9.31635e-10
7.2702e-10
6.13523e-10
5.57489e-10
5.32862e-10
5.23386e-10
5.20602e-10
5.20599e-10
5.21698e-10
5.23212e-10
5.2487e-10
5.26567e-10
5.28267e-10
5.29956e-10
5.31629e-10
5.33285e-10
5.34924e-10
5.36547e-10
5.38154e-10
5.39746e-10
5.41324e-10
5.42887e-10
5.44437e-10
5.45974e-10
5.47499e-10
5.49012e-10
5.50513e-10
5.52004e-10
5.53484e-10
5.54954e-10
5.56415e-10
5.57867e-10
5.5931e-10
5.60745e-10
5.62172e-10
5.63591e-10
5.65004e-10
5.66409e-10
5.67809e-10
5.69202e-10
5.7059e-10
5.71973e-10
5.73351e-10
5.74723e-10
5.76092e-10
5.77456e-10
5.78817e-10
5.80174e-10
5.81528e-10
5.82879e-10
5.84227e-10
5.85572e-10
5.86915e-10
5.88256e-10
5.89596e-10
5.90933e-10
5.92269e-10
5.93604e-10
5.94938e-10
5.9627e-10
5.97602e-10
5.98933e-10
6.00263e-10
6.01593e-10
6.02923e-10
6.04252e-10
6.05581e-10
6.06909e-10
6.08238e-10
6.09566e-10
6.10893e-10
6.12221e-10
6.13547e-10
6.14874e-10
6.16199e-10
6.17522e-10
6.18841e-10
6.20153e-10
6.21451e-10
6.22722e-10
6.23944e-10
6.25078e-10
6.26056e-10
6.26774e-10
6.27069e-10
6.26707e-10
6.25362e-10
6.22607e-10
6.17922e-10
6.10715e-10
6.0039e-10
5.86442e-10
5.68629e-10
5.47208e-10
5.23263e-10
4.99089e-10
4.78446e-10
4.66151e-10
1.91139e-07
1.61928e-07
1.37903e-07
1.17666e-07
1.00281e-07
8.51258e-08
7.1798e-08
6.00408e-08
4.9692e-08
4.06437e-08
3.28138e-08
2.61268e-08
2.05022e-08
1.58494e-08
1.20678e-08
9.04987e-09
6.68609e-09
4.86978e-09
3.50168e-09
2.4932e-09
1.76846e-09
1.26481e-09
9.31635e-10
7.2702e-10
6.13522e-10
5.57488e-10
5.32861e-10
5.23385e-10
5.20601e-10
5.20598e-10
5.21697e-10
5.23211e-10
5.24869e-10
5.26566e-10
5.28266e-10
5.29955e-10
5.31628e-10
5.33283e-10
5.34923e-10
5.36546e-10
5.38153e-10
5.39745e-10
5.41323e-10
5.42886e-10
5.44436e-10
5.45973e-10
5.47498e-10
5.49011e-10
5.50512e-10
5.52003e-10
5.53483e-10
5.54953e-10
5.56414e-10
5.57865e-10
5.59309e-10
5.60743e-10
5.6217e-10
5.6359e-10
5.65002e-10
5.66408e-10
5.67808e-10
5.69201e-10
5.70589e-10
5.71972e-10
5.73349e-10
5.74722e-10
5.76091e-10
5.77455e-10
5.78816e-10
5.80173e-10
5.81527e-10
5.82877e-10
5.84225e-10
5.85571e-10
5.86914e-10
5.88255e-10
5.89594e-10
5.90932e-10
5.92268e-10
5.93603e-10
5.94936e-10
5.96269e-10
5.97601e-10
5.98932e-10
6.00262e-10
6.01592e-10
6.02921e-10
6.04251e-10
6.05579e-10
6.06908e-10
6.08236e-10
6.09564e-10
6.10892e-10
6.12219e-10
6.13546e-10
6.14872e-10
6.16197e-10
6.1752e-10
6.1884e-10
6.20152e-10
6.2145e-10
6.22721e-10
6.23943e-10
6.25076e-10
6.26054e-10
6.26772e-10
6.27068e-10
6.26705e-10
6.2536e-10
6.22605e-10
6.1792e-10
6.10714e-10
6.00388e-10
5.8644e-10
5.68627e-10
5.47207e-10
5.23262e-10
4.99088e-10
4.78445e-10
4.6615e-10
1.91113e-07
1.61838e-07
1.37745e-07
1.17447e-07
1.00016e-07
8.48341e-08
7.14975e-08
5.97474e-08
4.94177e-08
4.03964e-08
3.2598e-08
2.59437e-08
2.03509e-08
1.57273e-08
1.19715e-08
8.9757e-09
6.63023e-09
4.82876e-09
3.47245e-09
2.47328e-09
1.75591e-09
1.25821e-09
9.29916e-10
7.292e-10
6.18489e-10
5.64138e-10
5.40379e-10
5.31311e-10
5.28714e-10
5.28803e-10
5.29955e-10
5.31506e-10
5.33195e-10
5.34922e-10
5.36649e-10
5.38365e-10
5.40064e-10
5.41747e-10
5.43412e-10
5.45061e-10
5.46694e-10
5.48311e-10
5.49914e-10
5.51502e-10
5.53077e-10
5.54639e-10
5.56188e-10
5.57725e-10
5.5925e-10
5.60765e-10
5.62269e-10
5.63762e-10
5.65246e-10
5.66721e-10
5.68187e-10
5.69645e-10
5.71095e-10
5.72537e-10
5.73972e-10
5.75401e-10
5.76823e-10
5.78238e-10
5.79649e-10
5.81053e-10
5.82453e-10
5.83848e-10
5.85238e-10
5.86625e-10
5.88007e-10
5.89386e-10
5.90761e-10
5.92134e-10
5.93503e-10
5.9487e-10
5.96235e-10
5.97598e-10
5.98958e-10
6.00317e-10
6.01675e-10
6.03031e-10
6.04386e-10
6.0574e-10
6.07093e-10
6.08445e-10
6.09797e-10
6.11148e-10
6.12499e-10
6.1385e-10
6.152e-10
6.1655e-10
6.17899e-10
6.19248e-10
6.20597e-10
6.21946e-10
6.23294e-10
6.24642e-10
6.25988e-10
6.27332e-10
6.28673e-10
6.30006e-10
6.31324e-10
6.32616e-10
6.33857e-10
6.35007e-10
6.35998e-10
6.36723e-10
6.37013e-10
6.36628e-10
6.3523e-10
6.32374e-10
6.27515e-10
6.20024e-10
6.09244e-10
5.94589e-10
5.75694e-10
5.52646e-10
5.26327e-10
4.98905e-10
4.74431e-10
4.59045e-10
1.91048e-07
1.61622e-07
1.37373e-07
1.16942e-07
9.94141e-08
8.41795e-08
7.08318e-08
5.91045e-08
4.88222e-08
3.9864e-08
3.21362e-08
2.55541e-08
2.00303e-08
1.54697e-08
1.17691e-08
8.82008e-09
6.51322e-09
4.74285e-09
3.41114e-09
2.43122e-09
1.72894e-09
1.24321e-09
9.24513e-10
7.31236e-10
6.25686e-10
5.74374e-10
5.5216e-10
5.43809e-10
5.41537e-10
5.41782e-10
5.43022e-10
5.44634e-10
5.46372e-10
5.48145e-10
5.49916e-10
5.51675e-10
5.53417e-10
5.55141e-10
5.56848e-10
5.58537e-10
5.60211e-10
5.61869e-10
5.63511e-10
5.65139e-10
5.66753e-10
5.68354e-10
5.69941e-10
5.71517e-10
5.7308e-10
5.74632e-10
5.76174e-10
5.77705e-10
5.79226e-10
5.80737e-10
5.8224e-10
5.83734e-10
5.8522e-10
5.86698e-10
5.88169e-10
5.89633e-10
5.91091e-10
5.92542e-10
5.93987e-10
5.95427e-10
5.96862e-10
5.98291e-10
5.99717e-10
6.01137e-10
6.02554e-10
6.03968e-10
6.05378e-10
6.06784e-10
6.08188e-10
6.09589e-10
6.10988e-10
6.12385e-10
6.1378e-10
6.15173e-10
6.16564e-10
6.17954e-10
6.19343e-10
6.20731e-10
6.22118e-10
6.23504e-10
6.24889e-10
6.26274e-10
6.27659e-10
6.29043e-10
6.30427e-10
6.31811e-10
6.33194e-10
6.34577e-10
6.3596e-10
6.37342e-10
6.38724e-10
6.40105e-10
6.41485e-10
6.42863e-10
6.44237e-10
6.45603e-10
6.46955e-10
6.48278e-10
6.49549e-10
6.50726e-10
6.51738e-10
6.52472e-10
6.52754e-10
6.52329e-10
6.50842e-10
6.4782e-10
6.42672e-10
6.34703e-10
6.2316e-10
6.07305e-10
5.86543e-10
5.60608e-10
5.29877e-10
4.95942e-10
4.6279e-10
4.39052e-10
1.90918e-07
1.61196e-07
1.36657e-07
1.15991e-07
9.83111e-08
8.30077e-08
6.96636e-08
5.79952e-08
4.78093e-08
3.89689e-08
3.13677e-08
2.49111e-08
1.95049e-08
1.50499e-08
1.14408e-08
8.56865e-09
6.32465e-09
4.6045e-09
3.31217e-09
2.36275e-09
1.68397e-09
1.21644e-09
9.11811e-10
7.2897e-10
6.30346e-10
5.82972e-10
5.6271e-10
5.55247e-10
5.53368e-10
5.53795e-10
5.5513e-10
5.56803e-10
5.5859e-10
5.60405e-10
5.62218e-10
5.64016e-10
5.65797e-10
5.6756e-10
5.69306e-10
5.71034e-10
5.72745e-10
5.7444e-10
5.7612e-10
5.77784e-10
5.79435e-10
5.81072e-10
5.82695e-10
5.84306e-10
5.85905e-10
5.87492e-10
5.89068e-10
5.90634e-10
5.92189e-10
5.93735e-10
5.95272e-10
5.968e-10
5.98319e-10
5.99831e-10
6.01335e-10
6.02833e-10
6.04323e-10
6.05807e-10
6.07285e-10
6.08758e-10
6.10225e-10
6.11687e-10
6.13144e-10
6.14598e-10
6.16047e-10
6.17492e-10
6.18934e-10
6.20373e-10
6.21808e-10
6.23241e-10
6.24672e-10
6.261e-10
6.27527e-10
6.28951e-10
6.30374e-10
6.31796e-10
6.33216e-10
6.34636e-10
6.36054e-10
6.37472e-10
6.38889e-10
6.40305e-10
6.41721e-10
6.43137e-10
6.44552e-10
6.45967e-10
6.47382e-10
6.48797e-10
6.50211e-10
6.51625e-10
6.53038e-10
6.5445e-10
6.55862e-10
6.57271e-10
6.58676e-10
6.60073e-10
6.61455e-10
6.62808e-10
6.64106e-10
6.65307e-10
6.66337e-10
6.67078e-10
6.67348e-10
6.6688e-10
6.65296e-10
6.62095e-10
6.56635e-10
6.4815e-10
6.3577e-10
6.18575e-10
5.95671e-10
5.66282e-10
5.29875e-10
4.86414e-10
4.37381e-10
3.91305e-10
1.90661e-07
1.60381e-07
1.35334e-07
1.14301e-07
9.64157e-08
8.10539e-08
6.77654e-08
5.62313e-08
4.62273e-08
3.75918e-08
3.01998e-08
2.39439e-08
1.87214e-08
1.44284e-08
1.09576e-08
8.20022e-09
6.04919e-09
4.40263e-09
3.16744e-09
2.26168e-09
1.61594e-09
1.17325e-09
8.87031e-10
7.17141e-10
6.26673e-10
5.83749e-10
5.65626e-10
5.59107e-10
5.57627e-10
5.58221e-10
5.5963e-10
5.61341e-10
5.63151e-10
5.64985e-10
5.66813e-10
5.68627e-10
5.70423e-10
5.72201e-10
5.73961e-10
5.75704e-10
5.77429e-10
5.79138e-10
5.80832e-10
5.82511e-10
5.84175e-10
5.85825e-10
5.87463e-10
5.89087e-10
5.90699e-10
5.923e-10
5.93889e-10
5.95468e-10
5.97037e-10
5.98596e-10
6.00145e-10
6.01686e-10
6.03219e-10
6.04743e-10
6.0626e-10
6.0777e-10
6.09273e-10
6.1077e-10
6.1226e-10
6.13745e-10
6.15225e-10
6.16699e-10
6.18169e-10
6.19635e-10
6.21096e-10
6.22554e-10
6.24008e-10
6.25459e-10
6.26907e-10
6.28352e-10
6.29795e-10
6.31235e-10
6.32674e-10
6.3411e-10
6.35546e-10
6.36979e-10
6.38412e-10
6.39843e-10
6.41274e-10
6.42704e-10
6.44133e-10
6.45561e-10
6.46989e-10
6.48417e-10
6.49845e-10
6.51272e-10
6.52698e-10
6.54125e-10
6.55551e-10
6.56977e-10
6.58402e-10
6.59827e-10
6.6125e-10
6.62672e-10
6.64088e-10
6.65497e-10
6.66891e-10
6.68255e-10
6.69563e-10
6.70772e-10
6.71806e-10
6.72543e-10
6.72798e-10
6.72293e-10
6.70637e-10
6.67302e-10
6.61612e-10
6.52736e-10
6.39705e-10
6.21432e-10
5.96732e-10
5.64282e-10
5.2241e-10
4.68252e-10
3.94328e-10
2.68593e-10
1.90138e-07
1.58796e-07
1.32899e-07
1.11341e-07
9.32399e-08
7.78994e-08
6.47931e-08
5.35378e-08
4.38606e-08
3.55659e-08
2.85052e-08
2.25563e-08
1.76078e-08
1.35518e-08
1.02803e-08
7.68647e-09
5.66642e-09
4.12254e-09
2.96624e-09
2.12001e-09
1.51847e-09
1.10802e-09
8.44679e-10
6.90024e-10
6.08648e-10
5.70472e-10
5.54553e-10
5.48969e-10
5.47852e-10
5.4857e-10
5.50007e-10
5.51707e-10
5.53494e-10
5.55298e-10
5.57097e-10
5.5888e-10
5.60646e-10
5.62394e-10
5.64124e-10
5.65836e-10
5.67533e-10
5.69213e-10
5.70878e-10
5.72528e-10
5.74164e-10
5.75787e-10
5.77396e-10
5.78993e-10
5.80578e-10
5.82152e-10
5.83714e-10
5.85266e-10
5.86808e-10
5.88341e-10
5.89865e-10
5.91379e-10
5.92886e-10
5.94385e-10
5.95876e-10
5.9736e-10
5.98838e-10
6.0031e-10
6.01775e-10
6.03235e-10
6.0469e-10
6.06139e-10
6.07584e-10
6.09025e-10
6.10462e-10
6.11895e-10
6.13325e-10
6.14751e-10
6.16175e-10
6.17595e-10
6.19014e-10
6.2043e-10
6.21844e-10
6.23257e-10
6.24668e-10
6.26077e-10
6.27486e-10
6.28893e-10
6.303e-10
6.31705e-10
6.3311e-10
6.34515e-10
6.35919e-10
6.37323e-10
6.38726e-10
6.40129e-10
6.41532e-10
6.42935e-10
6.44337e-10
6.45739e-10
6.4714e-10
6.48541e-10
6.4994e-10
6.51337e-10
6.52731e-10
6.54116e-10
6.55485e-10
6.56826e-10
6.58111e-10
6.59298e-10
6.6031e-10
6.61028e-10
6.61263e-10
6.60739e-10
6.59061e-10
6.55695e-10
6.49948e-10
6.4096e-10
6.27703e-10
6.08986e-10
5.83432e-10
5.49372e-10
5.04492e-10
4.44773e-10
3.60964e-10
2.20931e-10
1.88989e-07
1.55608e-07
1.2836e-07
1.06174e-07
8.79851e-08
7.2901e-08
6.0243e-08
4.95258e-08
4.04117e-08
3.26647e-08
2.61127e-08
2.06197e-08
1.60683e-08
1.23492e-08
9.35711e-09
6.98963e-09
5.1491e-09
3.74465e-09
2.69446e-09
1.92735e-09
1.38353e-09
1.01409e-09
7.78676e-10
6.41703e-10
5.70356e-10
5.37205e-10
5.23533e-10
5.1885e-10
5.1804e-10
5.18816e-10
5.20212e-10
5.21834e-10
5.23529e-10
5.25238e-10
5.2694e-10
5.28627e-10
5.30298e-10
5.31951e-10
5.33588e-10
5.35208e-10
5.36813e-10
5.38403e-10
5.39978e-10
5.41539e-10
5.43087e-10
5.44622e-10
5.46145e-10
5.47655e-10
5.49155e-10
5.50643e-10
5.52122e-10
5.5359e-10
5.55049e-10
5.56499e-10
5.5794e-10
5.59374e-10
5.60799e-10
5.62217e-10
5.63628e-10
5.65032e-10
5.6643e-10
5.67822e-10
5.69209e-10
5.7059e-10
5.71966e-10
5.73338e-10
5.74705e-10
5.76068e-10
5.77428e-10
5.78783e-10
5.80136e-10
5.81486e-10
5.82832e-10
5.84177e-10
5.85519e-10
5.86859e-10
5.88197e-10
5.89533e-10
5.90868e-10
5.92202e-10
5.93534e-10
5.94866e-10
5.96197e-10
5.97527e-10
5.98856e-10
6.00185e-10
6.01513e-10
6.02841e-10
6.04169e-10
6.05497e-10
6.06824e-10
6.08151e-10
6.09478e-10
6.10804e-10
6.1213e-10
6.13455e-10
6.14779e-10
6.16101e-10
6.17419e-10
6.1873e-10
6.20025e-10
6.21293e-10
6.22509e-10
6.2363e-10
6.24584e-10
6.25258e-10
6.2547e-10
6.24953e-10
6.23329e-10
6.2008e-10
6.14531e-10
6.05836e-10
5.92975e-10
5.7474e-10
5.49703e-10
5.16096e-10
4.71474e-10
4.11797e-10
3.28602e-10
1.94461e-10
1.86137e-07
1.48838e-07
1.1971e-07
9.71119e-08
7.93378e-08
6.50637e-08
5.33664e-08
4.36308e-08
3.54531e-08
2.85643e-08
2.27765e-08
1.79485e-08
1.39635e-08
1.0717e-08
8.11135e-09
6.05369e-09
4.45664e-09
3.23976e-09
2.33113e-09
1.66851e-09
1.19986e-09
8.8263e-10
6.816e-10
5.65489e-10
5.05481e-10
4.77804e-10
4.66491e-10
4.62694e-10
4.62128e-10
4.62883e-10
4.64152e-10
4.65608e-10
4.67124e-10
4.68651e-10
4.7017e-10
4.71675e-10
4.73166e-10
4.74642e-10
4.76102e-10
4.77548e-10
4.7898e-10
4.80399e-10
4.81805e-10
4.83198e-10
4.84579e-10
4.85949e-10
4.87308e-10
4.88656e-10
4.89994e-10
4.91323e-10
4.92642e-10
4.93952e-10
4.95254e-10
4.96548e-10
4.97835e-10
4.99114e-10
5.00386e-10
5.01651e-10
5.0291e-10
5.04164e-10
5.05411e-10
5.06654e-10
5.07891e-10
5.09124e-10
5.10352e-10
5.11576e-10
5.12796e-10
5.14013e-10
5.15226e-10
5.16436e-10
5.17643e-10
5.18847e-10
5.20049e-10
5.21249e-10
5.22447e-10
5.23643e-10
5.24837e-10
5.2603e-10
5.27221e-10
5.28411e-10
5.29601e-10
5.30789e-10
5.31976e-10
5.33163e-10
5.3435e-10
5.35536e-10
5.36722e-10
5.37907e-10
5.39092e-10
5.40277e-10
5.41461e-10
5.42645e-10
5.4383e-10
5.45013e-10
5.46197e-10
5.47379e-10
5.48561e-10
5.49741e-10
5.50917e-10
5.52087e-10
5.53243e-10
5.54374e-10
5.55459e-10
5.56458e-10
5.57308e-10
5.57905e-10
5.58087e-10
5.57613e-10
5.5614e-10
5.53199e-10
5.48175e-10
5.40295e-10
5.28619e-10
5.12027e-10
4.89181e-10
4.58429e-10
4.17524e-10
3.62911e-10
2.87484e-10
1.6838e-10
1.77694e-07
1.33324e-07
1.02623e-07
8.09466e-08
6.4977e-08
5.2691e-08
4.28971e-08
3.48907e-08
2.82453e-08
2.2693e-08
1.80555e-08
1.42037e-08
1.10347e-08
8.45964e-09
6.39698e-09
4.77073e-09
3.51021e-09
2.55087e-09
1.83534e-09
1.31419e-09
9.46215e-10
6.97777e-10
5.40949e-10
4.50823e-10
4.04491e-10
3.83229e-10
3.74591e-10
3.71736e-10
3.71361e-10
3.72e-10
3.73032e-10
3.74207e-10
3.75427e-10
3.76655e-10
3.77876e-10
3.79086e-10
3.80284e-10
3.8147e-10
3.82644e-10
3.83807e-10
3.84958e-10
3.86098e-10
3.87228e-10
3.88348e-10
3.89458e-10
3.90559e-10
3.91651e-10
3.92735e-10
3.93811e-10
3.94879e-10
3.95939e-10
3.96992e-10
3.98039e-10
3.99079e-10
4.00113e-10
4.01141e-10
4.02164e-10
4.03181e-10
4.04193e-10
4.052e-10
4.06203e-10
4.07202e-10
4.08197e-10
4.09187e-10
4.10175e-10
4.11159e-10
4.12139e-10
4.13117e-10
4.14092e-10
4.15065e-10
4.16035e-10
4.17004e-10
4.1797e-10
4.18934e-10
4.19897e-10
4.20858e-10
4.21818e-10
4.22777e-10
4.23735e-10
4.24691e-10
4.25647e-10
4.26603e-10
4.27557e-10
4.28511e-10
4.29465e-10
4.30418e-10
4.31372e-10
4.32324e-10
4.33277e-10
4.34229e-10
4.35181e-10
4.36133e-10
4.37085e-10
4.38037e-10
4.38988e-10
4.39939e-10
4.40889e-10
4.41837e-10
4.42783e-10
4.43723e-10
4.44652e-10
4.45561e-10
4.46433e-10
4.47236e-10
4.47918e-10
4.48396e-10
4.48538e-10
4.48151e-10
4.46955e-10
4.44569e-10
4.40494e-10
4.34099e-10
4.24615e-10
4.11122e-10
3.92522e-10
3.67461e-10
3.34131e-10
2.89737e-10
2.28806e-10
1.3356e-10
1.45088e-07
9.22522e-08
6.52502e-08
4.94532e-08
3.89494e-08
3.1277e-08
2.53206e-08
2.0521e-08
1.65713e-08
1.32895e-08
1.05589e-08
8.29714e-09
6.44029e-09
4.93384e-09
3.7287e-09
2.77951e-09
2.0444e-09
1.48533e-09
1.06861e-09
7.65319e-10
5.51365e-10
4.07109e-10
3.16228e-10
2.64135e-10
2.37426e-10
2.252e-10
2.20249e-10
2.18625e-10
2.18428e-10
2.18812e-10
2.19423e-10
2.20116e-10
2.20834e-10
2.21556e-10
2.22274e-10
2.22986e-10
2.23691e-10
2.24389e-10
2.2508e-10
2.25763e-10
2.2644e-10
2.27111e-10
2.27776e-10
2.28435e-10
2.29088e-10
2.29735e-10
2.30378e-10
2.31016e-10
2.31648e-10
2.32276e-10
2.329e-10
2.3352e-10
2.34136e-10
2.34747e-10
2.35356e-10
2.35961e-10
2.36562e-10
2.3716e-10
2.37756e-10
2.38348e-10
2.38938e-10
2.39526e-10
2.40111e-10
2.40694e-10
2.41275e-10
2.41854e-10
2.42431e-10
2.43006e-10
2.4358e-10
2.44152e-10
2.44723e-10
2.45292e-10
2.4586e-10
2.46428e-10
2.46994e-10
2.4756e-10
2.48124e-10
2.48688e-10
2.49252e-10
2.49815e-10
2.50377e-10
2.50939e-10
2.51501e-10
2.52062e-10
2.52623e-10
2.53184e-10
2.53744e-10
2.54305e-10
2.54865e-10
2.55426e-10
2.55986e-10
2.56546e-10
2.57106e-10
2.57666e-10
2.58225e-10
2.58784e-10
2.59343e-10
2.59901e-10
2.60457e-10
2.6101e-10
2.61557e-10
2.62092e-10
2.62605e-10
2.63077e-10
2.63478e-10
2.63759e-10
2.63841e-10
2.63611e-10
2.62904e-10
2.61495e-10
2.59087e-10
2.55308e-10
2.49702e-10
2.41721e-10
2.30715e-10
2.15884e-10
1.96165e-10
1.69938e-10
1.34044e-10
7.81621e-11
)
;

boundaryField
{
    upperWall
    {
        type            zeroGradient;
    }
    lowerWall
    {
        type            zeroGradient;
    }
    inlet
    {
        type            zeroGradient;
    }
    outlet
    {
        type            zeroGradient;
    }
    frontAndBack
    {
        type            empty;
    }
}


// ************************************************************************* //
