/*--------------------------------*- C++ -*----------------------------------*\
  =========                 |
  \\      /  F ield         | OpenFOAM: The Open Source CFD Toolbox
   \\    /   O peration     | Website:  https://openfoam.org
    \\  /    A nd           | Version:  7
     \\/     M anipulation  |
\*---------------------------------------------------------------------------*/
FoamFile
{
    version     2.0;
    format      ascii;
    class       volVectorField;
    location    "2.4225";
    object      U_0;
}
// * * * * * * * * * * * * * * * * * * * * * * * * * * * * * * * * * * * * * //

dimensions      [0 1 -1 0 0 0 0];

internalField   nonuniform List<vector> 
4950
(
(3.51177 0.420419 -27.0284)
(2.80157 0.150588 -27.0651)
(2.04745 0.0449974 -27.0668)
(1.83732 -0.0234588 -27.074)
(1.55833 -0.0445876 -27.0721)
(1.53994 -0.0514649 -27.0763)
(1.38309 -0.052497 -27.0742)
(1.4063 -0.0513703 -27.0774)
(1.29225 -0.0500273 -27.0756)
(1.32357 -0.0486998 -27.0782)
(1.23328 -0.0469784 -27.0767)
(1.26497 -0.0467863 -27.0788)
(1.1913 -0.0435433 -27.0776)
(1.22124 -0.0462094 -27.0791)
(1.15949 -0.0373672 -27.0784)
(1.18715 -0.0475136 -27.0792)
(1.13223 -0.0160901 -27.0794)
(1.14688 -0.0454482 -27.0786)
(1.12306 0.0944325 -27.0816)
(0.894623 0.123356 -27.0707)
(4.60143 0.549326 -27.0535)
(4.79304 0.379458 -27.0819)
(4.49989 0.291003 -27.0814)
(4.44152 0.191534 -27.088)
(4.14601 0.134796 -27.0877)
(4.1113 0.103005 -27.0919)
(3.88316 0.0832172 -27.0913)
(3.87938 0.0717317 -27.0942)
(3.70238 0.0630451 -27.0941)
(3.71558 0.0575173 -27.0963)
(3.57477 0.0521958 -27.0963)
(3.59647 0.0497421 -27.0978)
(3.48123 0.0444433 -27.098)
(3.50828 0.0459256 -27.0987)
(3.40903 0.0353843 -27.0996)
(3.44655 0.0455081 -27.0987)
(3.34819 0.0165747 -27.1018)
(3.42788 0.0367875 -27.0963)
(3.2893 -0.0183437 -27.1071)
(3.6297 -0.0749091 -27.0754)
(4.72094 0.289001 -27.0551)
(5.20492 0.212202 -27.0781)
(5.32076 0.191335 -27.0701)
(5.56512 0.13127 -27.0739)
(5.51428 0.0941767 -27.0693)
(5.63735 0.0685264 -27.0727)
(5.55141 0.0500825 -27.0695)
(5.63013 0.0373154 -27.0725)
(5.54389 0.0274081 -27.0703)
(5.60094 0.0193988 -27.0732)
(5.52265 0.013792 -27.0719)
(5.56573 0.0077388 -27.0744)
(5.49848 0.00542285 -27.0739)
(5.52878 -0.000539992 -27.0757)
(5.47717 0.00174394 -27.0761)
(5.48655 -0.00626326 -27.0765)
(5.46335 0.00707262 -27.0784)
(5.42012 -0.00500959 -27.0764)
(5.44246 0.0392779 -27.0809)
(5.28437 0.0547551 -27.059)
(4.69898 0.169393 -27.064)
(5.12202 0.131718 -27.087)
(5.33779 0.124767 -27.0807)
(5.68449 0.095223 -27.0821)
(5.75782 0.0766842 -27.0785)
(5.98528 0.0644978 -27.0796)
(6.00627 0.0556153 -27.0773)
(6.16824 0.0497173 -27.0783)
(6.1688 0.0445867 -27.077)
(6.29114 0.0406976 -27.078)
(6.28153 0.0369307 -27.0773)
(6.37809 0.0342647 -27.0784)
(6.36136 0.0307391 -27.0782)
(6.44285 0.0297561 -27.0792)
(6.41737 0.024527 -27.0795)
(6.49775 0.0269596 -27.08)
(6.45635 0.0155047 -27.0807)
(6.56634 0.021304 -27.0807)
(6.49663 0.00416051 -27.0817)
(6.73041 -0.0105972 -27.0606)
(4.7003 -1.23124e-08 -27.0591)
(5.1184 9.07668e-08 -27.0808)
(5.34417 -2.87265e-08 -27.0714)
(5.70603 2.65687e-07 -27.0733)
(5.7945 1.87644e-08 -27.0672)
(6.03855 7.07549e-07 -27.0691)
(6.07933 3.96028e-07 -27.0648)
(6.26075 1.7925e-06 -27.0667)
(6.28462 2.01034e-06 -27.0636)
(6.42642 4.79448e-06 -27.0655)
(6.44175 6.84249e-06 -27.0634)
(6.55358 1.54984e-05 -27.0653)
(6.56493 1.67782e-05 -27.0641)
(6.65002 5.68012e-05 -27.0659)
(6.66456 2.92353e-05 -27.0651)
(6.71588 0.000196622 -27.0668)
(6.74948 6.04101e-05 -27.0663)
(6.73855 0.000556062 -27.0678)
(6.80519 0.000206883 -27.0672)
(6.69271 0.000868272 -27.0483)
(4.69898 -0.169393 -27.064)
(5.12202 -0.131718 -27.087)
(5.33779 -0.124767 -27.0807)
(5.68449 -0.0952227 -27.0821)
(5.75782 -0.0766839 -27.0785)
(5.98529 -0.0644968 -27.0796)
(6.00627 -0.055614 -27.0773)
(6.16824 -0.0497149 -27.0783)
(6.1688 -0.0445818 -27.0769)
(6.29115 -0.0406919 -27.078)
(6.28152 -0.0369147 -27.0773)
(6.37811 -0.0342479 -27.0784)
(6.36137 -0.0306974 -27.0781)
(6.44292 -0.0296952 -27.0793)
(6.41741 -0.0244352 -27.0793)
(6.49791 -0.026749 -27.0803)
(6.45656 -0.0152928 -27.0804)
(6.56666 -0.0207275 -27.0811)
(6.49721 -0.00341717 -27.0812)
(6.73124 0.0120083 -27.061)
(4.72094 -0.289001 -27.0551)
(5.20492 -0.212202 -27.0781)
(5.32076 -0.191335 -27.0701)
(5.56512 -0.13127 -27.0739)
(5.51428 -0.0941765 -27.0693)
(5.63735 -0.0685254 -27.0727)
(5.55141 -0.0500817 -27.0694)
(5.63014 -0.0373128 -27.0725)
(5.54388 -0.027405 -27.0703)
(5.60096 -0.019392 -27.0732)
(5.52265 -0.0137823 -27.0718)
(5.56579 -0.00771724 -27.0745)
(5.49848 -0.00540204 -27.0736)
(5.52894 0.000618063 -27.0761)
(5.47722 -0.00172104 -27.0754)
(5.48694 0.00652922 -27.0775)
(5.46362 -0.00706646 -27.077)
(5.42103 0.00574007 -27.0785)
(5.44356 -0.0390693 -27.078)
(5.2869 -0.0532382 -27.063)
(4.60143 -0.549326 -27.0535)
(4.79304 -0.379458 -27.0819)
(4.49989 -0.291003 -27.0814)
(4.44152 -0.191534 -27.088)
(4.14601 -0.134796 -27.0877)
(4.1113 -0.103005 -27.0919)
(3.88317 -0.0832162 -27.0913)
(3.87938 -0.0717312 -27.0943)
(3.70239 -0.0630419 -27.094)
(3.7156 -0.057516 -27.0963)
(3.57478 -0.0521862 -27.0962)
(3.59653 -0.0497377 -27.098)
(3.48127 -0.0444191 -27.0978)
(3.50843 -0.0459032 -27.0991)
(3.4092 -0.03533 -27.0989)
(3.44691 -0.0454133 -27.0999)
(3.34881 -0.0164512 -27.0996)
(3.42865 -0.0365245 -27.1002)
(3.29097 0.0187361 -27.0997)
(3.63187 0.0751071 -27.0888)
(3.51177 -0.420419 -27.0284)
(2.80157 -0.150588 -27.0651)
(2.04745 -0.0449974 -27.0668)
(1.83732 0.0234589 -27.074)
(1.55833 0.0445875 -27.0721)
(1.53995 0.0514651 -27.0763)
(1.38309 0.0524968 -27.0741)
(1.4063 0.0513708 -27.0774)
(1.29225 0.0500266 -27.0756)
(1.32358 0.0487009 -27.0782)
(1.23329 0.0469762 -27.0767)
(1.26501 0.0467887 -27.0788)
(1.19133 0.0435356 -27.0776)
(1.22133 0.0462174 -27.0793)
(1.1596 0.0373506 -27.0782)
(1.18735 0.0475307 -27.0796)
(1.13262 0.0160365 -27.0787)
(1.14737 0.0455021 -27.0798)
(1.12421 -0.0943844 -27.0789)
(0.896537 -0.12273 -27.0785)
(4.49775 0.19295 0.00518338)
(3.73076 0.281832 0.00355416)
(3.12697 0.243702 0.0043492)
(2.53985 0.166896 0.00329912)
(2.26618 0.116604 0.00406267)
(1.98263 0.0829858 0.0032301)
(1.90164 0.0670452 0.00390869)
(1.75303 0.0581386 0.00319814)
(1.73289 0.0542315 0.00377673)
(1.63757 0.0521934 0.00315917)
(1.6336 0.0506399 0.00364792)
(1.56487 0.0508674 0.00311145)
(1.5653 0.0481775 0.00352495)
(1.51306 0.0515075 0.00306066)
(1.51493 0.0421084 0.00341184)
(1.47596 0.0553387 0.00301029)
(1.47379 0.0150641 0.00331286)
(1.48096 0.0612905 0.00295986)
(1.41292 -0.127978 0.0032585)
(1.84244 -0.171795 0.00285165)
(4.63443 0.10991 0.00329875)
(4.66689 0.234784 0.00198238)
(4.80871 0.21494 0.00273607)
(4.67414 0.162114 0.00169928)
(4.64913 0.106705 0.00245658)
(4.47743 0.0630662 0.00162139)
(4.43124 0.034072 0.002296)
(4.2882 0.0156777 0.00158355)
(4.25141 0.00370412 0.00215975)
(4.13964 -0.00401921 0.00154148)
(4.1123 -0.00933068 0.00202844)
(4.02442 -0.0141387 0.00149236)
(4.00473 -0.0152772 0.00190322)
(3.93241 -0.0214496 0.00144145)
(3.92258 -0.0152824 0.00178581)
(3.85147 -0.028734 0.00139217)
(3.8668 -0.00553309 0.0016709)
(3.75105 -0.0270606 0.00133787)
(3.84978 0.00809579 0.001531)
(3.42844 0.06617 0.00115517)
(4.56564 0.0616663 0.0046048)
(4.72383 0.187374 0.00337977)
(5.06016 0.219144 0.00410074)
(5.1749 0.196976 0.00305215)
(5.36988 0.166834 0.00379773)
(5.38796 0.135557 0.00295675)
(5.48284 0.113907 0.00363211)
(5.46152 0.0972953 0.00292036)
(5.51207 0.0856391 0.00350007)
(5.48222 0.0768871 0.00288339)
(5.51158 0.0694657 0.00337394)
(5.48341 0.0644326 0.00283807)
(5.49915 0.0582409 0.00325361)
(5.47827 0.056187 0.00278868)
(5.47922 0.0479033 0.00314401)
(5.4777 0.0508193 0.00273909)
(5.44995 0.0288478 0.00305567)
(5.50192 0.0425161 0.00269314)
(5.42392 -0.0356426 0.0030424)
(5.57591 -0.0463363 0.00265796)
(4.5231 0.0291432 0.00313169)
(4.58609 0.07246 0.00202377)
(4.94473 0.0768857 0.00273435)
(5.11411 0.0693044 0.00170719)
(5.3931 0.056499 0.00244834)
(5.4984 0.0440254 0.00160702)
(5.67813 0.0347529 0.00227765)
(5.7384 0.0279431 0.00156402)
(5.86191 0.0230146 0.00214014)
(5.90113 0.0192814 0.00152284)
(5.99234 0.0163055 0.00201025)
(6.0196 0.0135003 0.00147551)
(6.09069 0.0118874 0.00188622)
(6.10733 0.00875689 0.00142581)
(6.1683 0.00947593 0.00176836)
(6.16648 0.00456881 0.00137592)
(6.23295 0.00936362 0.00164699)
(6.17263 0.00469537 0.00131358)
(6.27444 0.00637161 0.0014694)
(5.99516 0.0309444 0.00114927)
(4.55536 -2.38938e-08 0.00451571)
(4.6698 7.14441e-08 0.00340946)
(5.00054 -4.90225e-09 0.0041084)
(5.16056 2.04631e-07 0.00306536)
(5.43126 1.10571e-07 0.00380223)
(5.54014 5.19397e-07 0.00295684)
(5.72714 6.16686e-07 0.00362969)
(5.79944 1.26666e-06 0.00291655)
(5.93625 2.32267e-06 0.00349619)
(5.99214 3.21261e-06 0.00287961)
(6.09808 7.16522e-06 0.00337064)
(6.1457 8.86659e-06 0.00283518)
(6.22782 1.9602e-05 0.00325126)
(6.27282 2.49514e-05 0.00278663)
(6.33041 5.21549e-05 0.00314312)
(6.38503 6.40421e-05 0.00273798)
(6.40758 0.000149636 0.00305956)
(6.49676 0.000170552 0.00269383)
(6.4841 0.000484066 0.00306099)
(6.59733 0.000696676 0.0026826)
(4.5231 -0.0291432 0.00313169)
(4.58609 -0.0724598 0.00202377)
(4.94473 -0.0768858 0.00273435)
(5.11411 -0.0693039 0.00170719)
(5.3931 -0.056499 0.00244834)
(5.4984 -0.0440239 0.00160702)
(5.67813 -0.0347524 0.00227765)
(5.73841 -0.0279391 0.00156402)
(5.86191 -0.0230122 0.00214013)
(5.90114 -0.0192703 0.00152284)
(5.99233 -0.0162974 0.00201025)
(6.01962 -0.0134673 0.00147552)
(6.09069 -0.0118673 0.00188621)
(6.10738 -0.0086541 0.00142582)
(6.16832 -0.00943295 0.00176834)
(6.16661 -0.00425881 0.00137591)
(6.23306 -0.00925354 0.00164694)
(6.17297 -0.00386307 0.00131352)
(6.27495 -0.00599961 0.0014695)
(5.99613 -0.0291529 0.0011491)
(4.56564 -0.0616663 0.0046048)
(4.72383 -0.187374 0.00337977)
(5.06016 -0.219144 0.00410074)
(5.1749 -0.196976 0.00305215)
(5.36988 -0.166834 0.00379773)
(5.38796 -0.135556 0.00295675)
(5.48284 -0.113906 0.00363211)
(5.46153 -0.0972933 0.00292037)
(5.51207 -0.0856345 0.00350006)
(5.48223 -0.0768818 0.00288339)
(5.51158 -0.0694521 0.00337392)
(5.48345 -0.0644165 0.00283809)
(5.49916 -0.0582042 0.00325357)
(5.4784 -0.0561365 0.00278872)
(5.47929 -0.0478075 0.00314393)
(5.478 -0.0506688 0.0027392)
(5.45025 -0.0285739 0.00305549)
(5.50262 -0.0421411 0.00269334)
(5.4249 0.0365045 0.00304197)
(5.57775 0.0472443 0.002658)
(4.63443 -0.10991 0.00329875)
(4.66689 -0.234784 0.00198238)
(4.80871 -0.21494 0.00273607)
(4.67414 -0.162114 0.00169928)
(4.64913 -0.106705 0.00245658)
(4.47743 -0.0630655 0.00162139)
(4.43124 -0.0340715 0.002296)
(4.2882 -0.0156757 0.00158355)
(4.25141 -0.00370235 0.00215975)
(4.13966 0.00402446 0.00154148)
(4.1123 0.00933543 0.00202843)
(4.02449 0.0141546 0.00149237)
(4.00475 0.0152867 0.00190319)
(3.93261 0.0214999 0.00144148)
(3.92265 0.0152938 0.00178574)
(3.85199 0.0288883 0.00139224)
(3.86702 0.00554007 0.00167072)
(3.75259 0.0274885 0.001338)
(3.85041 -0.00793732 0.00153077)
(3.43321 -0.0649588 0.00115529)
(4.49775 -0.19295 0.00518338)
(3.73076 -0.281832 0.00355416)
(3.12697 -0.243702 0.0043492)
(2.53985 -0.166896 0.00329912)
(2.26618 -0.116604 0.00406267)
(1.98263 -0.0829859 0.0032301)
(1.90165 -0.0670446 0.00390869)
(1.75304 -0.0581388 0.00319814)
(1.7329 -0.0542299 0.00377673)
(1.63759 -0.052194 0.00315917)
(1.63362 -0.0506351 0.00364791)
(1.56491 -0.0508685 0.00311147)
(1.56535 -0.0481641 0.00352493)
(1.51317 -0.0515076 0.0030607)
(1.5151 -0.0420735 0.00341176)
(1.47622 -0.0553292 0.00301042)
(1.47433 -0.0149859 0.00331259)
(1.48158 -0.0612907 0.00296033)
(1.41422 0.12801 0.00325723)
(1.84472 0.171049 0.00285413)
(4.45603 0.0663265 -1.04187e-09)
(4.2229 0.122447 -1.04566e-09)
(3.84547 0.134174 -1.04888e-09)
(3.47803 0.119674 -1.05182e-09)
(3.11611 0.0949301 -1.06039e-09)
(2.81673 0.0705552 -1.06421e-09)
(2.56574 0.0474718 -1.07744e-09)
(2.37272 0.0301273 -1.08406e-09)
(2.22656 0.0157986 -1.10041e-09)
(2.11408 0.00674172 -1.10661e-09)
(2.03641 -0.000731038 -1.11864e-09)
(1.97105 -0.00406567 -1.1193e-09)
(1.9307 -0.00812385 -1.12239e-09)
(1.89079 -0.00768907 -1.11423e-09)
(1.86747 -0.0117169 -1.10798e-09)
(1.8461 -0.00727769 -1.0951e-09)
(1.82067 -0.0159372 -1.08732e-09)
(1.83324 -0.00691581 -1.07794e-09)
(1.77368 -0.0278053 -1.07721e-09)
(1.87668 -0.0539237 -1.07184e-09)
(4.51435 0.0584632 -1.05741e-09)
(4.6453 0.113056 -1.06869e-09)
(4.73823 0.146177 -1.07619e-09)
(4.81724 0.157534 -1.07644e-09)
(4.83644 0.154035 -1.07235e-09)
(4.83424 0.139279 -1.05815e-09)
(4.8025 0.121091 -1.05336e-09)
(4.76031 0.101017 -1.04908e-09)
(4.7118 0.0842696 -1.06107e-09)
(4.65808 0.0688676 -1.06813e-09)
(4.60996 0.0580981 -1.08191e-09)
(4.55693 0.0481188 -1.0837e-09)
(4.51559 0.0422975 -1.08924e-09)
(4.46696 0.0357853 -1.08442e-09)
(4.43478 0.0327416 -1.08546e-09)
(4.39031 0.0291692 -1.07561e-09)
(4.36854 0.0251078 -1.07476e-09)
(4.3269 0.0290312 -1.06253e-09)
(4.31133 0.015457 -1.05949e-09)
(4.27213 0.0369478 -1.05664e-09)
(4.50403 0.0220917 -1.05758e-09)
(4.62229 0.0569407 -1.06513e-09)
(4.74129 0.0842732 -1.07081e-09)
(4.90463 0.0987733 -1.07387e-09)
(5.0455 0.101958 -1.0792e-09)
(5.18553 0.0977225 -1.07715e-09)
(5.29683 0.0882765 -1.08081e-09)
(5.39163 0.0779228 -1.07447e-09)
(5.46564 0.0672169 -1.07415e-09)
(5.52339 0.0583551 -1.06349e-09)
(5.57013 0.0503153 -1.0611e-09)
(5.60523 0.0445181 -1.0519e-09)
(5.63471 0.0387422 -1.05496e-09)
(5.65845 0.0356666 -1.05361e-09)
(5.67618 0.0301482 -1.06369e-09)
(5.69609 0.0305525 -1.06537e-09)
(5.70498 0.0209825 -1.07546e-09)
(5.72382 0.0275555 -1.07568e-09)
(5.73111 0.00608956 -1.08349e-09)
(5.739 0.0102287 -1.08286e-09)
(4.50242 0.0176855 -1.05743e-09)
(4.59634 0.0346831 -1.06427e-09)
(4.70249 0.0465018 -1.0675e-09)
(4.8609 0.0523853 -1.06879e-09)
(5.01091 0.0543484 -1.07376e-09)
(5.17204 0.0525873 -1.07407e-09)
(5.31397 0.0491502 -1.08124e-09)
(5.44631 0.0444072 -1.0796e-09)
(5.56235 0.0400931 -1.08375e-09)
(5.66403 0.035794 -1.07675e-09)
(5.75705 0.0325929 -1.07692e-09)
(5.83626 0.0295813 -1.0687e-09)
(5.91367 0.0274887 -1.07006e-09)
(5.97725 0.025588 -1.06557e-09)
(6.0457 0.0237558 -1.06979e-09)
(6.09501 0.023488 -1.06916e-09)
(6.1632 0.0197762 -1.07408e-09)
(6.18814 0.0242108 -1.07837e-09)
(6.27183 0.0143528 -1.08406e-09)
(6.24167 0.0292665 -1.09645e-09)
(4.50308 -4.26479e-08 -1.05809e-09)
(4.60876 1.22625e-07 -1.0643e-09)
(4.71599 -8.10169e-08 -1.06718e-09)
(4.87341 3.16135e-07 -1.06762e-09)
(5.01952 -1.33837e-08 -1.07207e-09)
(5.17896 7.95171e-07 -1.07097e-09)
(5.32103 5.01428e-07 -1.07665e-09)
(5.45645 1.96848e-06 -1.07341e-09)
(5.57694 2.26551e-06 -1.07762e-09)
(5.68559 5.29525e-06 -1.07324e-09)
(5.7855 6.6695e-06 -1.07813e-09)
(5.87469 1.60245e-05 -1.07602e-09)
(5.95977 1.55781e-05 -1.08229e-09)
(6.0365 4.95048e-05 -1.08144e-09)
(6.11168 3.44339e-05 -1.08707e-09)
(6.17825 0.000138379 -1.08692e-09)
(6.25127 9.69574e-05 -1.09357e-09)
(6.29819 0.000326301 -1.09561e-09)
(6.3934 0.000349397 -1.10471e-09)
(6.38637 0.000658206 -1.11015e-09)
(4.50242 -0.0176856 -1.05721e-09)
(4.59634 -0.0346829 -1.06331e-09)
(4.70249 -0.046502 -1.06543e-09)
(4.8609 -0.0523846 -1.06532e-09)
(5.01091 -0.0543485 -1.06867e-09)
(5.17204 -0.0525856 -1.06658e-09)
(5.31397 -0.0491495 -1.07038e-09)
(5.44631 -0.0444028 -1.06622e-09)
(5.56235 -0.0400897 -1.07096e-09)
(5.66404 -0.0357822 -1.06998e-09)
(5.75705 -0.0325828 -1.08031e-09)
(5.83628 -0.0295459 -1.08458e-09)
(5.91368 -0.0274663 -1.09581e-09)
(5.97727 -0.0254801 -1.09838e-09)
(6.04574 -0.0237094 -1.10523e-09)
(6.09506 -0.0231899 -1.10567e-09)
(6.16335 -0.0196368 -1.11352e-09)
(6.18828 -0.0235141 -1.11294e-09)
(6.27225 -0.0137801 -1.1237e-09)
(6.24213 -0.0278935 -1.12079e-09)
(4.50403 -0.0220917 -1.05828e-09)
(4.62229 -0.0569405 -1.06299e-09)
(4.74129 -0.0842733 -1.06295e-09)
(4.90463 -0.0987728 -1.06064e-09)
(5.0455 -0.101958 -1.06403e-09)
(5.18554 -0.0977211 -1.06352e-09)
(5.29683 -0.0882755 -1.07102e-09)
(5.39164 -0.0779193 -1.07146e-09)
(5.46563 -0.0672127 -1.08197e-09)
(5.52341 -0.0583457 -1.08589e-09)
(5.57012 -0.0503033 -1.10006e-09)
(5.60528 -0.0444899 -1.10538e-09)
(5.63471 -0.0387153 -1.11483e-09)
(5.65856 -0.0355796 -1.11368e-09)
(5.67624 -0.0300922 -1.11495e-09)
(5.69632 -0.0303094 -1.11406e-09)
(5.70526 -0.0208301 -1.11568e-09)
(5.72435 -0.0269902 -1.12131e-09)
(5.73202 -0.0055286 -1.12647e-09)
(5.74035 -0.00914902 -1.13476e-09)
(4.51435 -0.0584632 -1.05674e-09)
(4.6453 -0.113056 -1.05771e-09)
(4.73823 -0.146177 -1.0555e-09)
(4.81724 -0.157533 -1.05689e-09)
(4.83644 -0.154034 -1.07016e-09)
(4.83425 -0.139278 -1.08254e-09)
(4.8025 -0.12109 -1.0984e-09)
(4.76032 -0.101015 -1.09796e-09)
(4.71179 -0.0842665 -1.09713e-09)
(4.65811 -0.0688608 -1.08475e-09)
(4.60995 -0.0580905 -1.08296e-09)
(4.55703 -0.0480971 -1.07676e-09)
(4.51558 -0.0422838 -1.08252e-09)
(4.4672 -0.0357162 -1.08374e-09)
(4.43482 -0.032722 -1.09513e-09)
(4.39088 -0.0289756 -1.10392e-09)
(4.36881 -0.0250548 -1.11968e-09)
(4.32824 -0.0285904 -1.13564e-09)
(4.31224 -0.0151746 -1.14625e-09)
(4.27543 -0.0361499 -1.16961e-09)
(4.45603 -0.0663265 -1.05901e-09)
(4.2229 -0.122447 -1.06606e-09)
(3.84547 -0.134174 -1.0705e-09)
(3.47803 -0.119674 -1.07252e-09)
(3.11611 -0.0949298 -1.0767e-09)
(2.81674 -0.0705552 -1.07128e-09)
(2.56574 -0.047471 -1.06688e-09)
(2.37272 -0.0301274 -1.0514e-09)
(2.22656 -0.0157961 -1.0439e-09)
(2.11411 -0.0067418 -1.0326e-09)
(2.03643 0.000737131 -1.03466e-09)
(1.97112 0.00406688 -1.03313e-09)
(1.93077 0.00813667 -1.04426e-09)
(1.89096 0.0076979 -1.05166e-09)
(1.86769 0.0117401 -1.07076e-09)
(1.8465 0.00731155 -1.08335e-09)
(1.82128 0.015987 -1.10419e-09)
(1.83438 0.00698868 -1.11412e-09)
(1.7747 0.0279634 -1.12743e-09)
(1.88093 0.053842 -1.12633e-09)
(4.49775 0.19295 -0.00518339)
(3.73076 0.281832 -0.00355417)
(3.12697 0.243702 -0.0043492)
(2.53985 0.166896 -0.00329912)
(2.26618 0.116604 -0.00406267)
(1.98263 0.0829858 -0.0032301)
(1.90164 0.0670452 -0.00390869)
(1.75303 0.0581386 -0.00319814)
(1.73289 0.0542315 -0.00377673)
(1.63757 0.0521934 -0.00315917)
(1.6336 0.0506399 -0.00364792)
(1.56487 0.0508674 -0.00311145)
(1.5653 0.0481775 -0.00352495)
(1.51306 0.0515075 -0.00306066)
(1.51493 0.0421084 -0.00341184)
(1.47596 0.0553387 -0.00301029)
(1.47379 0.0150641 -0.00331286)
(1.48096 0.0612905 -0.00295986)
(1.41292 -0.127978 -0.0032585)
(1.84244 -0.171795 -0.00285165)
(4.63443 0.10991 -0.00329875)
(4.66689 0.234784 -0.00198238)
(4.80871 0.21494 -0.00273607)
(4.67414 0.162114 -0.00169928)
(4.64913 0.106705 -0.00245659)
(4.47743 0.0630662 -0.0016214)
(4.43124 0.034072 -0.002296)
(4.2882 0.0156777 -0.00158355)
(4.25141 0.00370412 -0.00215975)
(4.13964 -0.00401921 -0.00154148)
(4.1123 -0.00933068 -0.00202844)
(4.02442 -0.0141387 -0.00149236)
(4.00473 -0.0152772 -0.00190322)
(3.93241 -0.0214496 -0.00144145)
(3.92258 -0.0152824 -0.00178581)
(3.85147 -0.028734 -0.00139217)
(3.8668 -0.0055331 -0.0016709)
(3.75105 -0.0270606 -0.00133787)
(3.84978 0.00809578 -0.00153101)
(3.42844 0.06617 -0.00115517)
(4.56564 0.0616663 -0.0046048)
(4.72383 0.187374 -0.00337977)
(5.06016 0.219145 -0.00410074)
(5.1749 0.196976 -0.00305215)
(5.36988 0.166834 -0.00379774)
(5.38796 0.135557 -0.00295675)
(5.48284 0.113907 -0.00363211)
(5.46152 0.0972953 -0.00292036)
(5.51207 0.0856391 -0.00350007)
(5.48222 0.0768871 -0.00288339)
(5.51158 0.0694657 -0.00337394)
(5.48341 0.0644325 -0.00283807)
(5.49915 0.0582409 -0.00325361)
(5.47827 0.056187 -0.00278868)
(5.47922 0.0479033 -0.00314402)
(5.4777 0.0508193 -0.00273909)
(5.44995 0.0288478 -0.00305567)
(5.50192 0.0425161 -0.00269314)
(5.42392 -0.0356426 -0.0030424)
(5.57591 -0.0463363 -0.00265796)
(4.5231 0.0291432 -0.00313169)
(4.58609 0.07246 -0.00202377)
(4.94473 0.0768857 -0.00273435)
(5.11411 0.0693044 -0.00170719)
(5.3931 0.056499 -0.00244834)
(5.4984 0.0440254 -0.00160702)
(5.67813 0.0347529 -0.00227765)
(5.7384 0.0279431 -0.00156402)
(5.86191 0.0230146 -0.00214014)
(5.90113 0.0192814 -0.00152284)
(5.99234 0.0163055 -0.00201025)
(6.0196 0.0135003 -0.00147551)
(6.09069 0.0118874 -0.00188622)
(6.10733 0.00875689 -0.00142582)
(6.1683 0.00947592 -0.00176836)
(6.16648 0.0045688 -0.00137592)
(6.23295 0.00936361 -0.00164699)
(6.17263 0.00469536 -0.00131358)
(6.27444 0.0063716 -0.00146941)
(5.99516 0.0309444 -0.00114927)
(4.55536 -2.39729e-08 -0.00451571)
(4.6698 7.16063e-08 -0.00340946)
(5.00054 -4.60387e-09 -0.0041084)
(5.16056 2.05098e-07 -0.00306536)
(5.43126 1.10964e-07 -0.00380223)
(5.54014 5.19383e-07 -0.00295684)
(5.72714 6.16236e-07 -0.00362969)
(5.79944 1.26557e-06 -0.00291655)
(5.93625 2.32091e-06 -0.0034962)
(5.99214 3.20975e-06 -0.00287961)
(6.09808 7.161e-06 -0.00337064)
(6.1457 8.86081e-06 -0.00283518)
(6.22782 1.95949e-05 -0.00325126)
(6.27282 2.49437e-05 -0.00278663)
(6.33041 5.21472e-05 -0.00314312)
(6.38503 6.40358e-05 -0.00273798)
(6.40758 0.000149631 -0.00305956)
(6.49676 0.000170549 -0.00269383)
(6.4841 0.000484064 -0.00306099)
(6.59733 0.000696676 -0.0026826)
(4.5231 -0.0291432 -0.00313169)
(4.58609 -0.0724598 -0.00202377)
(4.94473 -0.0768858 -0.00273435)
(5.11411 -0.0693039 -0.00170719)
(5.3931 -0.056499 -0.00244834)
(5.4984 -0.0440239 -0.00160702)
(5.67813 -0.0347524 -0.00227765)
(5.73841 -0.0279391 -0.00156402)
(5.86191 -0.0230122 -0.00214014)
(5.90114 -0.0192703 -0.00152284)
(5.99233 -0.0162974 -0.00201025)
(6.01962 -0.0134674 -0.00147552)
(6.09069 -0.0118673 -0.00188622)
(6.10738 -0.00865411 -0.00142582)
(6.16832 -0.00943295 -0.00176834)
(6.16661 -0.00425882 -0.00137591)
(6.23306 -0.00925355 -0.00164694)
(6.17297 -0.00386308 -0.00131353)
(6.27495 -0.00599962 -0.0014695)
(5.99613 -0.0291529 -0.0011491)
(4.56564 -0.0616663 -0.0046048)
(4.72383 -0.187374 -0.00337977)
(5.06016 -0.219144 -0.00410074)
(5.1749 -0.196976 -0.00305215)
(5.36988 -0.166834 -0.00379773)
(5.38796 -0.135556 -0.00295675)
(5.48284 -0.113906 -0.00363211)
(5.46153 -0.0972933 -0.00292037)
(5.51207 -0.0856345 -0.00350007)
(5.48223 -0.0768818 -0.0028834)
(5.51158 -0.0694521 -0.00337392)
(5.48345 -0.0644165 -0.00283809)
(5.49916 -0.0582043 -0.00325357)
(5.4784 -0.0561365 -0.00278873)
(5.47929 -0.0478075 -0.00314393)
(5.478 -0.0506688 -0.0027392)
(5.45025 -0.0285739 -0.00305549)
(5.50262 -0.0421411 -0.00269334)
(5.4249 0.0365045 -0.00304197)
(5.57775 0.0472443 -0.00265801)
(4.63443 -0.10991 -0.00329875)
(4.66689 -0.234784 -0.00198238)
(4.80871 -0.21494 -0.00273607)
(4.67414 -0.162114 -0.00169928)
(4.64913 -0.106705 -0.00245659)
(4.47743 -0.0630655 -0.0016214)
(4.43124 -0.0340715 -0.002296)
(4.2882 -0.0156757 -0.00158355)
(4.25141 -0.00370234 -0.00215975)
(4.13966 0.00402447 -0.00154148)
(4.1123 0.00933543 -0.00202843)
(4.02449 0.0141546 -0.00149237)
(4.00475 0.0152867 -0.00190319)
(3.93261 0.0214999 -0.00144148)
(3.92265 0.0152938 -0.00178574)
(3.85199 0.0288883 -0.00139224)
(3.86702 0.00554006 -0.00167072)
(3.75259 0.0274885 -0.001338)
(3.85041 -0.00793733 -0.00153077)
(3.43321 -0.0649588 -0.0011553)
(4.49775 -0.19295 -0.00518339)
(3.73076 -0.281832 -0.00355417)
(3.12697 -0.243702 -0.0043492)
(2.53985 -0.166896 -0.00329912)
(2.26618 -0.116604 -0.00406267)
(1.98263 -0.0829859 -0.0032301)
(1.90165 -0.0670447 -0.00390869)
(1.75304 -0.0581388 -0.00319814)
(1.7329 -0.0542299 -0.00377673)
(1.63759 -0.052194 -0.00315917)
(1.63362 -0.0506351 -0.00364791)
(1.56491 -0.0508685 -0.00311147)
(1.56535 -0.0481641 -0.00352493)
(1.51317 -0.0515076 -0.0030607)
(1.5151 -0.0420735 -0.00341176)
(1.47622 -0.0553292 -0.00301043)
(1.47433 -0.0149859 -0.00331259)
(1.48158 -0.0612907 -0.00296033)
(1.41422 0.12801 -0.00325723)
(1.84472 0.171049 -0.00285414)
(3.51177 0.420419 27.0284)
(2.80157 0.150588 27.0651)
(2.04745 0.0449974 27.0668)
(1.83732 -0.0234588 27.074)
(1.55833 -0.0445876 27.0721)
(1.53994 -0.0514649 27.0763)
(1.38309 -0.052497 27.0742)
(1.4063 -0.0513703 27.0774)
(1.29225 -0.0500272 27.0756)
(1.32357 -0.0486998 27.0782)
(1.23328 -0.0469783 27.0767)
(1.26497 -0.0467863 27.0788)
(1.1913 -0.0435432 27.0776)
(1.22124 -0.0462094 27.0791)
(1.15949 -0.0373672 27.0784)
(1.18715 -0.0475136 27.0792)
(1.13223 -0.0160901 27.0794)
(1.14688 -0.0454482 27.0786)
(1.12306 0.0944325 27.0816)
(0.894623 0.123356 27.0707)
(4.60143 0.549326 27.0535)
(4.79304 0.379458 27.0819)
(4.49989 0.291003 27.0814)
(4.44152 0.191534 27.088)
(4.14601 0.134796 27.0877)
(4.1113 0.103005 27.0919)
(3.88316 0.0832172 27.0913)
(3.87938 0.0717317 27.0942)
(3.70238 0.0630452 27.0941)
(3.71558 0.0575173 27.0963)
(3.57477 0.0521959 27.0963)
(3.59647 0.0497421 27.0978)
(3.48123 0.0444433 27.098)
(3.50828 0.0459256 27.0987)
(3.40903 0.0353843 27.0996)
(3.44655 0.0455081 27.0987)
(3.34819 0.0165747 27.1018)
(3.42788 0.0367875 27.0963)
(3.2893 -0.0183437 27.1071)
(3.6297 -0.0749091 27.0754)
(4.72094 0.289001 27.0551)
(5.20492 0.212202 27.0781)
(5.32076 0.191335 27.0701)
(5.56512 0.13127 27.0739)
(5.51428 0.0941767 27.0693)
(5.63735 0.0685264 27.0727)
(5.55141 0.0500825 27.0695)
(5.63013 0.0373154 27.0725)
(5.54389 0.0274081 27.0703)
(5.60094 0.0193988 27.0732)
(5.52265 0.013792 27.0719)
(5.56573 0.00773882 27.0744)
(5.49848 0.00542287 27.0739)
(5.52878 -0.000539978 27.0757)
(5.47717 0.00174395 27.0761)
(5.48655 -0.00626325 27.0765)
(5.46335 0.00707262 27.0784)
(5.42012 -0.00500959 27.0764)
(5.44246 0.0392779 27.0809)
(5.28437 0.0547551 27.059)
(4.69898 0.169393 27.064)
(5.12202 0.131718 27.087)
(5.33779 0.124767 27.0807)
(5.68449 0.095223 27.0821)
(5.75782 0.0766842 27.0785)
(5.98528 0.0644978 27.0796)
(6.00627 0.0556153 27.0773)
(6.16824 0.0497173 27.0783)
(6.1688 0.0445867 27.077)
(6.29114 0.0406976 27.078)
(6.28153 0.0369308 27.0773)
(6.37809 0.0342647 27.0784)
(6.36136 0.0307391 27.0782)
(6.44285 0.0297561 27.0792)
(6.41737 0.024527 27.0795)
(6.49775 0.0269596 27.08)
(6.45635 0.0155047 27.0807)
(6.56634 0.021304 27.0807)
(6.49663 0.00416052 27.0817)
(6.73041 -0.0105971 27.0606)
(4.7003 -1.35748e-08 27.0591)
(5.1184 8.92539e-08 27.0808)
(5.34417 -2.84859e-08 27.0714)
(5.70603 2.68935e-07 27.0733)
(5.7945 2.56112e-08 27.0672)
(6.03855 7.18484e-07 27.0691)
(6.07933 4.10765e-07 27.0648)
(6.26075 1.81034e-06 27.0667)
(6.28462 2.03048e-06 27.0636)
(6.42642 4.8155e-06 27.0655)
(6.44175 6.86396e-06 27.0634)
(6.55358 1.55187e-05 27.0653)
(6.56493 1.6798e-05 27.0641)
(6.65002 5.6818e-05 27.0659)
(6.66456 2.9252e-05 27.0651)
(6.71588 0.000196636 27.0668)
(6.74948 6.0426e-05 27.0663)
(6.73855 0.000556073 27.0678)
(6.80519 0.00020689 27.0672)
(6.69271 0.000868274 27.0483)
(4.69898 -0.169393 27.064)
(5.12202 -0.131718 27.087)
(5.33779 -0.124767 27.0807)
(5.68449 -0.0952227 27.0821)
(5.75782 -0.0766839 27.0785)
(5.98529 -0.0644968 27.0796)
(6.00627 -0.055614 27.0773)
(6.16824 -0.0497149 27.0783)
(6.1688 -0.0445817 27.0769)
(6.29115 -0.0406919 27.078)
(6.28152 -0.0369147 27.0773)
(6.37811 -0.0342479 27.0784)
(6.36137 -0.0306974 27.0781)
(6.44292 -0.0296951 27.0793)
(6.41741 -0.0244352 27.0793)
(6.49791 -0.026749 27.0803)
(6.45656 -0.0152927 27.0804)
(6.56666 -0.0207275 27.0811)
(6.49721 -0.00341716 27.0812)
(6.73124 0.0120084 27.061)
(4.72094 -0.289001 27.0551)
(5.20492 -0.212202 27.0781)
(5.32076 -0.191335 27.0701)
(5.56512 -0.13127 27.0739)
(5.51428 -0.0941765 27.0693)
(5.63735 -0.0685254 27.0727)
(5.55141 -0.0500817 27.0694)
(5.63014 -0.0373128 27.0725)
(5.54388 -0.0274049 27.0703)
(5.60096 -0.019392 27.0732)
(5.52265 -0.0137823 27.0718)
(5.56579 -0.00771722 27.0745)
(5.49848 -0.00540203 27.0736)
(5.52894 0.000618078 27.0761)
(5.47722 -0.00172102 27.0754)
(5.48694 0.00652923 27.0775)
(5.46362 -0.00706645 27.077)
(5.42103 0.00574007 27.0785)
(5.44356 -0.0390693 27.078)
(5.2869 -0.0532382 27.063)
(4.60143 -0.549326 27.0535)
(4.79304 -0.379458 27.0819)
(4.49989 -0.291003 27.0814)
(4.44152 -0.191534 27.088)
(4.14601 -0.134796 27.0877)
(4.1113 -0.103005 27.0919)
(3.88317 -0.0832162 27.0913)
(3.87938 -0.0717312 27.0943)
(3.70239 -0.0630419 27.094)
(3.7156 -0.057516 27.0963)
(3.57478 -0.0521862 27.0962)
(3.59653 -0.0497376 27.098)
(3.48127 -0.0444191 27.0978)
(3.50843 -0.0459032 27.0991)
(3.4092 -0.03533 27.0989)
(3.44691 -0.0454133 27.0999)
(3.34881 -0.0164512 27.0996)
(3.42865 -0.0365245 27.1002)
(3.29097 0.0187361 27.0997)
(3.63187 0.0751071 27.0888)
(3.51177 -0.420419 27.0284)
(2.80157 -0.150588 27.0651)
(2.04745 -0.0449974 27.0668)
(1.83732 0.0234589 27.074)
(1.55833 0.0445875 27.0721)
(1.53995 0.0514651 27.0763)
(1.38309 0.0524968 27.0741)
(1.4063 0.0513708 27.0774)
(1.29225 0.0500266 27.0756)
(1.32358 0.0487009 27.0782)
(1.23329 0.0469762 27.0767)
(1.26501 0.0467887 27.0788)
(1.19133 0.0435356 27.0776)
(1.22133 0.0462174 27.0793)
(1.1596 0.0373507 27.0782)
(1.18735 0.0475307 27.0796)
(1.13262 0.0160365 27.0787)
(1.14737 0.0455021 27.0798)
(1.12421 -0.0943844 27.0789)
(0.896537 -0.12273 27.0785)
(1.03141 -0.157227 -27.1301)
(1.13907 -0.145167 -27.2553)
(1.10084 -0.114787 -27.3378)
(1.12112 -0.111524 -27.4058)
(1.09281 -0.111423 -27.4603)
(1.10911 -0.111701 -27.5102)
(1.08741 -0.112445 -27.5535)
(1.10102 -0.112848 -27.5949)
(1.08377 -0.1135 -27.6323)
(1.09531 -0.113877 -27.6683)
(1.08121 -0.114436 -27.7013)
(1.09119 -0.114789 -27.7332)
(1.07944 -0.115287 -27.763)
(1.08824 -0.115626 -27.792)
(1.07827 -0.116075 -27.8194)
(1.08615 -0.116396 -27.846)
(1.07757 -0.116804 -27.8712)
(1.08472 -0.117106 -27.8954)
(1.07723 -0.117479 -27.9185)
(1.08378 -0.117763 -27.9408)
(1.07718 -0.118104 -27.9621)
(1.08321 -0.118366 -27.9824)
(1.07734 -0.118673 -28.0017)
(1.08291 -0.118909 -28.0199)
(1.07764 -0.119181 -28.037)
(1.08281 -0.119388 -28.0531)
(1.07806 -0.119623 -28.068)
(1.08286 -0.119796 -28.0817)
(1.07854 -0.119991 -28.0942)
(1.083 -0.120127 -28.1053)
(1.07906 -0.120281 -28.1153)
(1.08321 -0.120382 -28.124)
(1.0796 -0.120498 -28.1314)
(1.08346 -0.120565 -28.1378)
(1.08014 -0.120647 -28.143)
(1.08374 -0.120686 -28.1473)
(1.08069 -0.12074 -28.1507)
(1.08404 -0.120757 -28.1533)
(1.08123 -0.12079 -28.1553)
(1.08436 -0.120793 -28.1566)
(1.08178 -0.120813 -28.1576)
(1.08471 -0.120808 -28.1583)
(1.08233 -0.120821 -28.1587)
(1.08508 -0.120813 -28.159)
(1.0829 -0.120823 -28.1591)
(1.08547 -0.120814 -28.1592)
(1.08347 -0.120823 -28.1593)
(1.08589 -0.120813 -28.1593)
(1.08406 -0.120821 -28.1593)
(1.08633 -0.120813 -28.1593)
(1.08465 -0.12082 -28.1593)
(1.08678 -0.120812 -28.1593)
(1.08525 -0.120819 -28.1593)