/*--------------------------------*- C++ -*----------------------------------*\
  =========                 |
  \\      /  F ield         | OpenFOAM: The Open Source CFD Toolbox
   \\    /   O peration     | Website:  https://openfoam.org
    \\  /    A nd           | Version:  7
     \\/     M anipulation  |
\*---------------------------------------------------------------------------*/
FoamFile
{
    version     2.0;
    format      ascii;
    class       volScalarField;
    location    "2.6575";
    object      k_0;
}
// * * * * * * * * * * * * * * * * * * * * * * * * * * * * * * * * * * * * * //

dimensions      [0 2 -2 0 0 0 0];

internalField   nonuniform List<scalar> 
4950
(
32.6408
37.0481
37.2084
37.2739
37.2343
37.2566
37.2149
37.2245
37.1879
37.1952
37.1656
37.1726
37.1492
37.1557
37.1381
37.1419
37.136
37.1249
37.1697
37.3557
9.02795
10.2488
10.1121
9.74021
9.46467
9.32873
9.23254
9.18997
9.14463
9.12552
9.09671
9.08539
9.06468
9.0572
9.04263
9.03645
9.03821
9.01571
9.19471
9.24366
5.70446
7.00388
7.30822
7.38539
7.39665
7.41736
7.42107
7.43399
7.43606
7.44514
7.44563
7.45156
7.45105
7.45518
7.45395
7.45723
7.45579
7.45729
7.46272
7.49167
5.45426
6.72067
7.07196
7.21393
7.27849
7.33716
7.36922
7.4085
7.42917
7.45864
7.47301
7.49614
7.50643
7.52497
7.53251
7.54707
7.55359
7.56274
7.5699
7.5974
5.41796
6.6927
7.04554
7.19331
7.26089
7.3242
7.35933
7.4036
7.42795
7.46282
7.48136
7.50992
7.52447
7.54805
7.55966
7.57878
7.58883
7.60297
7.61152
7.64235
5.45426
6.72067
7.07196
7.21394
7.27849
7.33717
7.36921
7.40851
7.42915
7.45867
7.47297
7.4962
7.50636
7.52507
7.53242
7.54723
7.55342
7.56292
7.56994
7.59761
5.70446
7.00388
7.30821
7.38539
7.39665
7.41737
7.42106
7.434
7.43605
7.44517
7.4456
7.4516
7.45096
7.45531
7.45376
7.45754
7.45539
7.45778
7.46234
7.49252
9.02795
10.2488
10.1121
9.74022
9.46466
9.32873
9.23253
9.18998
9.1446
9.12555
9.09663
9.08547
9.06448
9.05731
9.04219
9.03683
9.03707
9.01746
9.18982
9.2465
32.6408
37.0481
37.2084
37.2739
37.2343
37.2567
37.2148
37.2246
37.1878
37.1952
37.1655
37.1728
37.1489
37.1563
37.1371
37.1437
37.1328
37.1308
37.159
37.3786
5.04413
7.29374
7.61271
7.55888
7.51784
7.44877
7.43318
7.39245
7.38613
7.35911
7.35603
7.33632
7.33483
7.3194
7.31939
7.3055
7.30871
7.29079
7.29008
7.3485
3.7502
6.01801
6.52452
6.63172
6.65776
6.66959
6.67655
6.68309
6.68675
6.69059
6.6924
6.69463
6.69543
6.69691
6.69708
6.69834
6.6977
6.69807
6.70335
6.71944
3.56626
5.76395
6.27341
6.39743
6.42302
6.4366
6.44012
6.44815
6.45167
6.45913
6.46265
6.46911
6.47253
6.47767
6.48112
6.48477
6.4883
6.49035
6.49119
6.51957
3.57392
5.76939
6.27361
6.39645
6.42165
6.43258
6.43306
6.4359
6.43597
6.43809
6.43849
6.44059
6.44117
6.44311
6.44383
6.44551
6.44658
6.44771
6.44952
6.4708
3.55739
5.74553
6.2521
6.37745
6.40269
6.41421
6.41409
6.41651
6.41577
6.41748
6.41691
6.41827
6.41788
6.41899
6.41871
6.41963
6.41935
6.42
6.41945
6.43803
3.57392
5.76939
6.27361
6.39645
6.42165
6.43259
6.43306
6.4359
6.43596
6.4381
6.43848
6.44061
6.44115
6.44315
6.44378
6.44559
6.44636
6.44783
6.44941
6.47075
3.56626
5.76395
6.27341
6.39743
6.42301
6.43661
6.44012
6.44816
6.45167
6.45916
6.46258
6.46921
6.47237
6.4779
6.48076
6.48528
6.48755
6.49112
6.4906
6.51982
3.7502
6.01801
6.52452
6.63172
6.65776
6.6696
6.67654
6.6831
6.68673
6.69063
6.69235
6.69471
6.69535
6.69704
6.69686
6.69868
6.69693
6.69908
6.70171
6.72191
5.04413
7.29374
7.61271
7.55888
7.51784
7.44877
7.43318
7.39245
7.38613
7.35912
7.35602
7.33636
7.33481
7.3195
7.31932
7.30576
7.30841
7.29186
7.28857
7.35225
0.288488
0.963385
1.21455
1.25626
1.23621
1.19236
1.14912
1.11386
1.08629
1.06363
1.04713
1.03204
1.02195
1.01103
1.00459
0.99638
0.991338
0.986854
0.977441
0.99182
0.0633058
0.36103
0.579659
0.684906
0.729486
0.752133
0.763409
0.773308
0.780311
0.787636
0.792914
0.798266
0.801885
0.805609
0.808054
0.810458
0.812588
0.81343
0.81522
0.820136
0.0541153
0.305448
0.48619
0.584005
0.62285
0.645139
0.651617
0.658665
0.660512
0.664621
0.666333
0.670023
0.672014
0.675504
0.677822
0.68094
0.683301
0.686253
0.687743
0.693416
0.0556696
0.313399
0.495533
0.590633
0.628977
0.649163
0.655349
0.660102
0.66079
0.662216
0.662358
0.662901
0.663087
0.663514
0.663962
0.664292
0.66504
0.66536
0.666177
0.669927
0.0539138
0.304424
0.482012
0.578099
0.615597
0.637053
0.642535
0.647928
0.648281
0.649562
0.649323
0.649725
0.649474
0.64969
0.649529
0.649656
0.649533
0.649642
0.649238
0.652117
0.0556695
0.313399
0.495532
0.590634
0.628977
0.649163
0.655349
0.660102
0.660791
0.662216
0.662358
0.662902
0.663087
0.663515
0.663959
0.66429
0.66503
0.66535
0.666163
0.6699
0.0541153
0.305448
0.48619
0.584006
0.622849
0.64514
0.651616
0.658666
0.660512
0.664623
0.666331
0.670034
0.671987
0.67553
0.677776
0.680974
0.683243
0.686243
0.687706
0.693331
0.0633057
0.361031
0.579659
0.684907
0.729485
0.752135
0.763406
0.773312
0.780304
0.787645
0.792898
0.798283
0.801854
0.805643
0.807986
0.810517
0.812465
0.813435
0.815138
0.82005
0.288488
0.963385
1.21455
1.25626
1.23621
1.19237
1.14912
1.11386
1.08629
1.06364
1.04713
1.03207
1.02194
1.01109
1.00458
0.996527
0.991323
0.987147
0.977488
0.992591
5.04413
7.29374
7.61271
7.55888
7.51784
7.44877
7.43318
7.39245
7.38613
7.35911
7.35603
7.33632
7.33483
7.3194
7.31939
7.3055
7.30871
7.29079
7.29008
7.3485
3.7502
6.01801
6.52452
6.63172
6.65776
6.66959
6.67655
6.68309
6.68675
6.69059
6.6924
6.69463
6.69543
6.69691
6.69708
6.69834
6.6977
6.69807
6.70335
6.71944
3.56626
5.76395
6.27341
6.39743
6.42302
6.4366
6.44012
6.44815
6.45167
6.45913
6.46265
6.46911
6.47253
6.47767
6.48112
6.48477
6.4883
6.49035
6.49119
6.51957
3.57392
5.76939
6.27361
6.39645
6.42165
6.43258
6.43306
6.4359
6.43597
6.43809
6.43849
6.44059
6.44117
6.44311
6.44383
6.44551
6.44658
6.44771
6.44952
6.4708
3.55739
5.74553
6.2521
6.37745
6.40269
6.41421
6.41409
6.41651
6.41577
6.41748
6.41691
6.41827
6.41788
6.41899
6.41871
6.41963
6.41935
6.42
6.41945
6.43803
3.57392
5.76939
6.27361
6.39645
6.42165
6.43259
6.43306
6.4359
6.43596
6.4381
6.43848
6.44061
6.44115
6.44315
6.44378
6.44559
6.44636
6.44783
6.44941
6.47075
3.56626
5.76395
6.27341
6.39743
6.42301
6.43661
6.44012
6.44816
6.45167
6.45916
6.46258
6.46921
6.47237
6.4779
6.48076
6.48528
6.48755
6.49112
6.4906
6.51982
3.7502
6.01801
6.52452
6.63172
6.65776
6.6696
6.67654
6.6831
6.68673
6.69063
6.69235
6.69471
6.69535
6.69704
6.69686
6.69868
6.69693
6.69908
6.70171
6.72191
5.04413
7.29374
7.61271
7.55888
7.51784
7.44877
7.43318
7.39245
7.38613
7.35912
7.35602
7.33636
7.33481
7.3195
7.31932
7.30576
7.30841
7.29186
7.28857
7.35225
32.6408
37.0481
37.2084
37.2739
37.2343
37.2566
37.2149
37.2245
37.1879
37.1952
37.1656
37.1726
37.1492
37.1557
37.1381
37.1419
37.136
37.1249
37.1697
37.3557
9.02795
10.2488
10.1121
9.74021
9.46467
9.32873
9.23254
9.18997
9.14463
9.12552
9.09671
9.08539
9.06468
9.0572
9.04263
9.03645
9.03821
9.01571
9.19471
9.24366
5.70446
7.00388
7.30822
7.38539
7.39665
7.41736
7.42107
7.43399
7.43606
7.44514
7.44563
7.45156
7.45105
7.45518
7.45395
7.45723
7.45579
7.45729
7.46272
7.49167
5.45426
6.72067
7.07196
7.21393
7.27849
7.33716
7.36922
7.4085
7.42917
7.45864
7.47301
7.49614
7.50643
7.52497
7.53251
7.54707
7.55359
7.56274
7.5699
7.5974
5.41796
6.6927
7.04554
7.19331
7.26089
7.3242
7.35933
7.4036
7.42795
7.46282
7.48136
7.50992
7.52447
7.54805
7.55966
7.57878
7.58883
7.60297
7.61152
7.64235
5.45426
6.72067
7.07196
7.21394
7.27849
7.33717
7.36921
7.40851
7.42915
7.45867
7.47297
7.4962
7.50636
7.52507
7.53242
7.54723
7.55342
7.56292
7.56994
7.59761
5.70446
7.00388
7.30821
7.38539
7.39665
7.41737
7.42106
7.434
7.43605
7.44517
7.4456
7.4516
7.45096
7.45531
7.45376
7.45754
7.45539
7.45778
7.46234
7.49252
9.02795
10.2488
10.1121
9.74022
9.46466
9.32873
9.23253
9.18998
9.1446
9.12555
9.09663
9.08547
9.06448
9.05731
9.04219
9.03683
9.03707
9.01746
9.18982
9.2465
32.6408
37.0481
37.2084
37.2739
37.2343
37.2567
37.2148
37.2246
37.1878
37.1952
37.1655
37.1728
37.1488
37.1563
37.1371
37.1437
37.1328
37.1308
37.159
37.3786
96.2388
97.8744
98.4701
98.9695
99.3321
99.7077
100.001
100.313
100.566
100.836
101.061
101.303
101.51
101.73
101.92
102.121
102.297
102.483
102.646
102.818
102.969
103.127
103.266
103.411
103.539
103.671
103.786
103.904
104.006
104.109
104.196
104.283
104.354
104.426
104.481
104.537
104.578
104.618
104.646
104.674
104.691
104.71
104.719
104.73
104.733
104.74
104.741
104.745
104.744
104.747
104.746
104.748
104.746
104.748
104.747
104.749
104.747
104.749
104.748
104.75
104.748
104.75
104.749
104.75
104.749
104.751
104.75
104.751
104.75
104.752
104.751
104.752
104.751
104.752
104.751
104.752
104.752
104.752
104.752
104.752
104.752
104.752
104.751
104.751
104.75
104.75
104.748
104.749
104.715
104.691
32.7369
34.8131
35.0469
35.2389
35.3409
35.487
35.5697
35.6925
35.7639
35.8711
35.9355
36.0318
36.0912
36.1788
36.2339
36.3141
36.3654
36.4394
36.4873
36.5557
36.6003
36.6633
36.7045
36.7625
36.8002
36.8531
36.8869
36.9343
36.9639
37.0056
37.0305
37.0663
37.0862
37.1159
37.1308
37.1546
37.1646
37.1831
37.189
37.2028
37.2055
37.2154
37.2157
37.2229
37.2218
37.2273
37.2253
37.2298
37.2276
37.2314
37.2292
37.2327
37.2307
37.2339
37.232
37.2351
37.2334
37.2363
37.2347
37.2375
37.236
37.2386
37.2374
37.2398
37.2387
37.241
37.24
37.2422
37.2413
37.2434
37.2426
37.2446
37.2438
37.2457
37.2451
37.2468
37.2462
37.2478
37.2472
37.2487
37.2482
37.2495
37.2489
37.2501
37.2495
37.2505
37.2495
37.2515
37.2379
37.2342
23.0736
25.5926
25.8103
25.9531
25.999
26.1071
26.1467
26.2406
26.2759
26.3591
26.3914
26.4669
26.4974
26.5669
26.5957
26.6597
26.6867
26.7459
26.7715
26.8265
26.8504
26.9014
26.9236
26.9706
26.991
27.0342
27.0526
27.0918
27.1079
27.1428
27.1564
27.1869
27.1976
27.2236
27.2315
27.253
27.2581
27.2754
27.278
27.2917
27.2922
27.3028
27.3018
27.3102
27.3082
27.3151
27.3125
27.3185
27.3157
27.321
27.3184
27.3233
27.3209
27.3255
27.3233
27.3276
27.3257
27.3298
27.3281
27.332
27.3305
27.3342
27.3328
27.3364
27.3352
27.3386
27.3376
27.3409
27.34
27.3431
27.3424
27.3453
27.3447
27.3475
27.347
27.3496
27.3492
27.3517
27.3513
27.3536
27.3534
27.3555
27.3552
27.3572
27.3569
27.3588
27.3585
27.3597
27.3607
27.3399
22.0184
25.0093
25.294
25.43
25.4545
25.5455
25.57
25.6528
25.6766
25.7519
25.7746
25.844
25.8663
25.9311
25.9527
26.0128
26.0333
26.0891
26.1088
26.1609
26.1796
26.2281
26.2455
26.2904
26.3066
26.348
26.3629
26.4008
26.4139
26.448
26.4592
26.4896
26.4986
26.525
26.5317
26.554
26.5585
26.5769
26.5792
26.5941
26.5946
26.6065
26.6055
26.6152
26.6132
26.6212
26.6186
26.6255
26.6227
26.6289
26.6263
26.632
26.6295
26.6349
26.6327
26.6378
26.6359
26.6407
26.639
26.6437
26.6422
26.6466
26.6454
26.6496
26.6486
26.6526
26.6518
26.6556
26.6549
26.6586
26.6581
26.6616
26.6612
26.6645
26.6643
26.6675
26.6673
26.6703
26.6702
26.6731
26.6731
26.6757
26.6758
26.6783
26.6784
26.6807
26.6808
26.6824
26.6842
26.6643
22.0043
25.0411
25.3233
25.4452
25.4509
25.524
25.5352
25.6053
25.619
25.6846
25.6992
25.7606
25.7761
25.8342
25.85
25.9042
25.9195
25.97
25.9849
26.0323
26.0467
26.0908
26.1043
26.1453
26.158
26.196
26.2077
26.2426
26.253
26.2848
26.2938
26.3222
26.3296
26.3546
26.3601
26.3816
26.3852
26.4032
26.4051
26.4199
26.4202
26.4323
26.4313
26.4412
26.4392
26.4475
26.4449
26.4522
26.4494
26.4559
26.4533
26.4593
26.4568
26.4625
26.4603
26.4657
26.4638
26.4689
26.4673
26.4721
26.4707
26.4754
26.4742
26.4787
26.4777
26.4819
26.4812
26.4852
26.4846
26.4885
26.4881
26.4918
26.4915
26.495
26.4949
26.4982
26.4982
26.5013
26.5014
26.5044
26.5045
26.5073
26.5075
26.5101
26.5103
26.5127
26.5131
26.5145
26.52
26.4965
22.0179
24.9778
25.221
25.3145
25.3048
25.3604
25.3599
25.4149
25.4199
25.4731
25.4801
25.5308
25.5397
25.5882
25.598
25.6435
25.6532
25.6958
25.7056
25.7456
25.7553
25.7926
25.8018
25.8365
25.8451
25.8774
25.8855
25.9153
25.9225
25.9496
25.9558
25.9803
25.9853
26.007
26.0107
26.0294
26.0317
26.0476
26.0485
26.0618
26.0614
26.0724
26.071
26.0802
26.0779
26.0857
26.0831
26.0899
26.0871
26.0933
26.0906
26.0963
26.0939
26.0993
26.0971
26.1022
26.1003
26.1051
26.1035
26.1081
26.1066
26.111
26.1098
26.114
26.113
26.117
26.1162
26.1201
26.1194
26.1231
26.1226
26.126
26.1257
26.129
26.1288
26.1319
26.1318
26.1348
26.1348
26.1376
26.1376
26.1402
26.1403
26.1428
26.1429
26.1452
26.1455
26.1467
26.1493
26.1302
23.0454
25.4644
25.5866
25.644
25.6227
25.6638
25.6542
25.6962
25.6927
25.7331
25.733
25.7714
25.7737
25.8106
25.814
25.8486
25.8525
25.8848
25.8892
25.9196
25.924
25.9524
25.9567
25.9831
25.9873
26.0118
26.0158
26.0384
26.0419
26.0625
26.0655
26.0841
26.0864
26.103
26.1044
26.1189
26.1193
26.1317
26.1313
26.1418
26.1405
26.1494
26.1474
26.155
26.1524
26.1589
26.1562
26.1619
26.1592
26.1644
26.1618
26.1667
26.1643
26.1689
26.1667
26.171
26.1691
26.1732
26.1715
26.1754
26.174
26.1777
26.1764
26.1799
26.1788
26.1821
26.1812
26.1844
26.1836
26.1866
26.186
26.1888
26.1883
26.191
26.1906
26.1932
26.1928
26.1953
26.195
26.1973
26.1971
26.1992
26.199
26.2009
26.2008
26.2025
26.2025
26.2033
26.2057
26.1859
32.5605
34.3731
34.4145
34.4509
34.4281
34.4595
34.4477
34.4795
34.4734
34.5037
34.5009
34.5295
34.5291
34.5561
34.557
34.582
34.5835
34.6069
34.6088
34.6307
34.6329
34.6531
34.6554
34.6741
34.6764
34.6938
34.6959
34.712
34.7138
34.7285
34.73
34.7433
34.7443
34.7562
34.7566
34.7669
34.7667
34.7756
34.7748
34.7824
34.781
34.7874
34.7855
34.7909
34.7887
34.7933
34.791
34.7951
34.7928
34.7965
34.7943
34.7978
34.7957
34.799
34.7971
34.8002
34.7985
34.8014
34.7999
34.8026
34.8012
34.8038
34.8026
34.805
34.8039
34.8063
34.8053
34.8075
34.8066
34.8087
34.8079
34.8099
34.8092
34.811
34.8104
34.8121
34.8116
34.8132
34.8127
34.8141
34.8137
34.815
34.8146
34.8157
34.8153
34.8162
34.8155
34.8173
34.8056
34.8026
95.3943
96.2024
96.2273
96.2675
96.253
96.2919
96.292
96.3324
96.34
96.3784
96.3892
96.4256
96.4389
96.4734
96.4875
96.5192
96.5331
96.5625
96.5762
96.6037
96.6169
96.6422
96.6546
96.678
96.6897
96.7113
96.7222
96.742
96.7518
96.7697
96.7785
96.7945
96.802
96.8161
96.822
96.834
96.8384
96.8484
96.8513
96.8593
96.8608
96.8671
96.8674
96.8722
96.8716
96.8753
96.8741
96.8771
96.8757
96.8781
96.8767
96.8789
96.8774
96.8795
96.8781
96.88
96.8788
96.8806
96.8795
96.8811
96.8801
96.8816
96.8807
96.8822
96.8813
96.8827
96.8819
96.8832
96.8825
96.8837
96.883
96.8841
96.8835
96.8845
96.8839
96.8848
96.8843
96.8851
96.8845
96.8852
96.8846
96.8851
96.8845
96.8848
96.884
96.8842
96.8829
96.8834
96.8536
96.8321
23.0255
23.8683
24.0316
24.1465
24.2401
24.3292
24.4019
24.4783
24.5386
24.6065
24.6589
24.7211
24.7679
24.8252
24.8675
24.9205
24.9591
25.0084
25.044
25.0898
25.1224
25.1648
25.1947
25.2337
25.2608
25.2964
25.3206
25.3524
25.3733
25.4012
25.4187
25.4425
25.4564
25.4759
25.4862
25.5017
25.5085
25.5204
25.5244
25.5331
25.5348
25.5411
25.5412
25.5457
25.5448
25.5483
25.5469
25.5497
25.5482
25.5506
25.5491
25.5513
25.5499
25.552
25.5506
25.5526
25.5514
25.5532
25.5521
25.5539
25.5529
25.5545
25.5536
25.5552
25.5544
25.5559
25.5551
25.5565
25.5559
25.5572
25.5567
25.558
25.5575
25.5587
25.5583
25.5595
25.5592
25.5604
25.5601
25.5613
25.5611
25.5624
25.5622
25.5636
25.5635
25.5653
25.565
25.5684
25.5631
25.5662
20.9646
22.6007
22.8011
22.9153
23.0023
23.0884
23.1579
23.2306
23.2895
23.3533
23.4052
23.463
23.5099
23.5627
23.6054
23.654
23.6932
23.7382
23.7744
23.816
23.8493
23.8878
23.9183
23.9536
23.9815
24.0136
24.0385
24.0672
24.089
24.114
24.1324
24.1537
24.1686
24.1861
24.1974
24.2111
24.2192
24.2295
24.2347
24.242
24.245
24.25
24.2513
24.2547
24.255
24.2573
24.257
24.2587
24.2582
24.2596
24.259
24.2602
24.2596
24.2608
24.2603
24.2614
24.2609
24.2619
24.2615
24.2625
24.2621
24.2631
24.2627
24.2637
24.2634
24.2643
24.264
24.2649
24.2647
24.2655
24.2653
24.2661
24.266
24.2668
24.2667
24.2675
24.2674
24.2682
24.2681
24.2689
24.2689
24.2697
24.2696
24.2705
24.2704
24.2714
24.2712
24.272
24.2733
24.2729
19.0229
21.2533
21.5197
21.6257
21.7005
21.7735
21.8353
21.898
21.952
22.0073
22.0556
22.1058
22.15
22.1963
22.2369
22.2795
22.3168
22.3562
22.3909
22.4275
22.4595
22.4933
22.5228
22.5539
22.5809
22.6093
22.6337
22.6592
22.6808
22.7033
22.7219
22.7411
22.7566
22.7724
22.7848
22.7972
22.8065
22.8159
22.8223
22.829
22.8332
22.8377
22.84
22.8429
22.844
22.8458
22.8462
22.8474
22.8474
22.8482
22.8482
22.8488
22.8487
22.8492
22.8491
22.8497
22.8496
22.8501
22.85
22.8505
22.8505
22.851
22.8509
22.8514
22.8514
22.8519
22.8519
22.8523
22.8523
22.8528
22.8528
22.8532
22.8533
22.8537
22.8538
22.8542
22.8543
22.8547
22.8548
22.8552
22.8552
22.8557
22.8557
22.8562
22.8561
22.8566
22.8564
22.857
22.8578
22.8426
18.4943
20.8862
21.1629
21.2475
21.3032
21.3607
21.4109
21.4637
21.5102
21.5582
21.6007
21.645
21.6846
21.7259
21.7628
21.801
21.8351
21.8706
21.9023
21.9353
21.9648
21.9954
22.0226
22.0508
22.0758
22.1017
22.1245
22.1479
22.1683
22.1891
22.2069
22.2249
22.2401
22.2551
22.2674
22.2795
22.289
22.2983
22.3052
22.3119
22.3165
22.3211
22.3239
22.3268
22.3283
22.3301
22.3307
22.3317
22.332
22.3326
22.3326
22.3331
22.3331
22.3335
22.3334
22.3338
22.3337
22.3341
22.3341
22.3344
22.3344
22.3347
22.3347
22.335
22.335
22.3353
22.3354
22.3357
22.3357
22.336
22.336
22.3363
22.3364
22.3367
22.3367
22.337
22.337
22.3373
22.3374
22.3377
22.3377
22.338
22.338
22.3383
22.3382
22.3385
22.3383
22.3387
22.338
22.3265
18.1587
20.6678
20.9427
21.0063
21.0421
21.0825
21.1192
21.16
21.1965
21.2353
21.2699
21.3065
21.3394
21.3742
21.4053
21.4378
21.4666
21.4968
21.5237
21.552
21.5772
21.6035
21.6266
21.6509
21.6723
21.6947
21.7143
21.7347
21.7524
21.7706
21.7861
21.8021
21.8155
21.829
21.84
21.851
21.8596
21.8682
21.8746
21.8809
21.8853
21.8897
21.8924
21.8953
21.8967
21.8985
21.8991
21.9002
21.9003
21.901
21.901
21.9015
21.9014
21.9018
21.9017
21.9021
21.902
21.9023
21.9023
21.9026
21.9026
21.9029
21.9029
21.9032
21.9032
21.9034
21.9034
21.9037
21.9037
21.904
21.904
21.9043
21.9043
21.9046
21.9046
21.9049
21.9049
21.9052
21.9052
21.9055
21.9055
21.9058
21.9057
21.906
21.9059
21.9062
21.906
21.906
21.907
21.8909
18.4926
20.854
21.0913
21.1382
21.1602
21.1878
21.2128
21.2428
21.2695
21.2993
21.3255
21.3542
21.3798
21.4076
21.432
21.458
21.4808
21.5051
21.5265
21.5494
21.5694
21.5907
21.6091
21.6288
21.6459
21.6641
21.6798
21.6964
21.7105
21.7254
21.738
21.7511
21.7619
21.7732
21.7822
21.7914
21.7985
21.8057
21.811
21.8165
21.8201
21.824
21.8262
21.8288
21.83
21.8316
21.8321
21.8331
21.8333
21.8339
21.834
21.8344
21.8344
21.8348
21.8348
21.8351
21.8351
21.8355
21.8354
21.8358
21.8358
21.8361
21.8361
21.8364
21.8364
21.8368
21.8368
21.8371
21.8371
21.8374
21.8375
21.8378
21.8378
21.8381
21.8382
21.8385
21.8385
21.8388
21.8389
21.8392
21.8392
21.8395
21.8395
21.8398
21.8398
21.8401
21.84
21.8401
21.8399
21.8292
19.0021
21.1469
21.3298
21.3614
21.3739
21.3924
21.4077
21.4285
21.4455
21.4665
21.4836
21.5043
21.5213
21.5415
21.5578
21.5767
21.592
21.6098
21.6241
21.6409
21.6543
21.6699
21.6822
21.6967
21.7081
21.7215
21.732
21.7443
21.7537
21.7647
21.7731
21.7829
21.7901
21.7985
21.8045
21.8114
21.8161
21.8217
21.8251
21.8294
21.8317
21.8348
21.8362
21.8384
21.839
21.8405
21.8407
21.8417
21.8418
21.8425
21.8424
21.8431
21.843
21.8436
21.8435
21.844
21.8439
21.8445
21.8444
21.8449
21.8449
21.8454
21.8454
21.8458
21.8459
21.8463
21.8463
21.8468
21.8468
21.8473
21.8473
21.8478
21.8478
21.8483
21.8483
21.8488
21.8488
21.8493
21.8494
21.8498
21.8499
21.8503
21.8503
21.8508
21.8508
21.8513
21.8512
21.8516
21.8531
21.8393
20.8675
22.3376
22.4133
22.4266
22.4308
22.4438
22.4506
22.4658
22.4734
22.4888
22.4964
22.5118
22.5193
22.5342
22.5413
22.5554
22.5619
22.5752
22.5813
22.5938
22.5994
22.611
22.6162
22.6269
22.6317
22.6417
22.646
22.6551
22.659
22.6672
22.6706
22.678
22.6808
22.6872
22.6894
22.6948
22.6964
22.7009
22.7018
22.7055
22.7059
22.7088
22.7088
22.7111
22.7107
22.7126
22.712
22.7136
22.7129
22.7143
22.7137
22.7149
22.7144
22.7155
22.715
22.7161
22.7157
22.7167
22.7163
22.7173
22.7169
22.7179
22.7176
22.7185
22.7183
22.7191
22.7189
22.7198
22.7196
22.7204
22.7203
22.7211
22.721
22.7218
22.7217
22.7225
22.7224
22.7232
22.7232
22.7239
22.7239
22.7247
22.7247
22.7256
22.7256
22.7266
22.7266
22.7272
22.7289
22.7286
22.7944
23.4238
23.4462
23.4495
23.4506
23.4576
23.4585
23.4683
23.4684
23.4792
23.4789
23.4901
23.4894
23.5006
23.4997
23.5105
23.5094
23.5198
23.5187
23.5285
23.5274
23.5366
23.5355
23.5442
23.5431
23.5512
23.5501
23.5576
23.5565
23.5635
23.5623
23.5686
23.5674
23.5732
23.5718
23.5769
23.5754
23.58
23.5784
23.5824
23.5807
23.5842
23.5824
23.5856
23.5838
23.5866
23.5848
23.5874
23.5857
23.5881
23.5865
23.5887
23.5873
23.5893
23.588
23.59
23.5888
23.5906
23.5896
23.5913
23.5903
23.592
23.5911
23.5926
23.5918
23.5933
23.5926
23.594
23.5934
23.5947
23.5942
23.5955
23.595
23.5962
23.5958
23.597
23.5967
23.5979
23.5976
23.5988
23.5987
23.5999
23.5998
23.6012
23.6012
23.6029
23.6028
23.606
23.6012
23.604
4.63238
5.01216
5.0584
5.08011
5.1047
5.12653
5.14566
5.16728
5.18176
5.20275
5.21369
5.23389
5.24225
5.26138
5.2679
5.28589
5.29107
5.30791
5.31205
5.32775
5.33106
5.34562
5.34825
5.36166
5.36367
5.37591
5.37733
5.38836
5.38919
5.39899
5.39921
5.40778
5.4074
5.41481
5.41386
5.4202
5.41876
5.42416
5.42235
5.42696
5.42493
5.42892
5.42679
5.43031
5.4282
5.43138
5.42935
5.43228
5.43037
5.4331
5.43133
5.43388
5.43226
5.43466
5.43317
5.43543
5.43407
5.4362
5.43497
5.43699
5.43586
5.43778
5.43677
5.43859
5.43768
5.43942
5.4386
5.44028
5.43954
5.44117
5.44052
5.4421
5.44152
5.44308
5.44258
5.44413
5.44369
5.44525
5.44487
5.44646
5.44614
5.44775
5.44748
5.44911
5.44887
5.4505
5.45014
5.45225
5.45007
5.45168
4.26873
5.2102
5.33144
5.36608
5.38955
5.41157
5.42938
5.44843
5.46297
5.48009
5.49237
5.50807
5.51872
5.53322
5.54261
5.55603
5.56441
5.57686
5.58438
5.59591
5.60268
5.61332
5.61938
5.62913
5.6345
5.64332
5.64798
5.65584
5.65973
5.66658
5.66968
5.6755
5.67783
5.6826
5.68422
5.68801
5.68899
5.69192
5.6924
5.69463
5.69474
5.69643
5.6963
5.69766
5.69739
5.69853
5.6982
5.69921
5.69889
5.69982
5.69951
5.70039
5.70011
5.70094
5.70071
5.7015
5.70131
5.70207
5.70191
5.70264
5.70251
5.70321
5.70312
5.7038
5.70373
5.70439
5.70435
5.705
5.70499
5.70562
5.70564
5.70627
5.70631
5.70693
5.707
5.70763
5.70772
5.70836
5.70847
5.70913
5.70925
5.70993
5.71007
5.71078
5.71091
5.71163
5.7118
5.71212
5.71299
5.71445
3.46739
4.67365
4.87566
4.92512
4.9478
4.96684
4.9819
4.99723
5.01002
5.02344
5.0348
5.0469
5.05721
5.06829
5.07774
5.08792
5.0966
5.10599
5.11399
5.12265
5.13002
5.138
5.14474
5.15203
5.15815
5.16475
5.17021
5.17607
5.18083
5.18591
5.18993
5.1942
5.19746
5.20091
5.20343
5.2061
5.20794
5.20992
5.21117
5.21257
5.21336
5.21432
5.21478
5.21543
5.21568
5.21615
5.21629
5.21664
5.21674
5.21703
5.21712
5.21739
5.21747
5.21773
5.21781
5.21806
5.21815
5.2184
5.21849
5.21874
5.21884
5.21908
5.21918
5.21942
5.21953
5.21976
5.21987
5.22011
5.22023
5.22046
5.22058
5.22082
5.22094
5.22118
5.22131
5.22155
5.22168
5.22192
5.22206
5.22231
5.22245
5.2227
5.22284
5.22311
5.22323
5.22351
5.2236
5.2239
5.22439
5.22186
3.18764
4.43825
4.66972
4.71738
4.73694
4.74924
4.76171
4.77203
4.78307
4.79263
4.80264
4.81161
4.82079
4.82927
4.83774
4.84573
4.85354
4.86104
4.86826
4.8753
4.88198
4.88854
4.89469
4.90076
4.90638
4.91194
4.91701
4.922
4.92648
4.93086
4.93471
4.93843
4.94162
4.94466
4.94718
4.94955
4.95145
4.9532
4.95452
4.95574
4.9566
4.95739
4.9579
4.95839
4.95867
4.95896
4.95911
4.95929
4.95938
4.9595
4.95956
4.95967
4.95972
4.95981
4.95987
4.95996
4.96001
4.9601
4.96016
4.96025
4.96031
4.9604
4.96046
4.96055
4.96062
4.96071
4.96078
4.96087
4.96094
4.96104
4.96111
4.96121
4.96129
4.96138
4.96147
4.96156
4.96166
4.96175
4.96185
4.96195
4.96204
4.96214
4.96221
4.96232
4.96235
4.96244
4.96239
4.96242
4.96207
4.95987
3.04712
4.31163
4.54624
4.59153
4.60488
4.61419
4.6224
4.63098
4.63904
4.64739
4.65512
4.66308
4.6704
4.67795
4.68485
4.69195
4.69839
4.70504
4.71104
4.71725
4.72283
4.72861
4.73376
4.7391
4.74383
4.74872
4.75302
4.75743
4.76125
4.76515
4.76847
4.77181
4.77459
4.77735
4.77957
4.78177
4.78345
4.7851
4.78628
4.78745
4.78822
4.78899
4.78944
4.78992
4.79015
4.79044
4.79054
4.79071
4.79076
4.79087
4.79089
4.79097
4.79099
4.79106
4.79107
4.79114
4.79116
4.79123
4.79124
4.79131
4.79133
4.79139
4.79141
4.79148
4.7915
4.79156
4.79159
4.79165
4.79167
4.79174
4.79176
4.79183
4.79185
4.79192
4.79195
4.79201
4.79204
4.7921
4.79213
4.7922
4.79222
4.79228
4.7923
4.79236
4.79236
4.79242
4.79239
4.79241
4.79249
4.7899
3.1874
4.4325
4.65613
4.69568
4.70776
4.71337
4.72005
4.72524
4.73177
4.73724
4.74355
4.74908
4.7551
4.76058
4.76625
4.77158
4.77686
4.78195
4.78687
4.7917
4.79627
4.80082
4.80505
4.80929
4.81318
4.8171
4.82065
4.82422
4.82739
4.83058
4.83335
4.83611
4.83846
4.84077
4.84267
4.84452
4.84598
4.8474
4.84845
4.84947
4.85017
4.85086
4.85129
4.85173
4.85197
4.85225
4.85238
4.85256
4.85264
4.85277
4.85283
4.85294
4.85299
4.85309
4.85314
4.85324
4.85329
4.85339
4.85344
4.85354
4.85359
4.85369
4.85375
4.85385
4.85391
4.85401
4.85408
4.85417
4.85424
4.85434
4.85442
4.85451
4.8546
4.85469
4.85478
4.85488
4.85497
4.85507
4.85517
4.85527
4.85536
4.85547
4.85554
4.85566
4.85568
4.85578
4.85575
4.85576
4.85547
4.85345
3.46466
4.6547
4.8395
4.8727
4.88143
4.88816
4.89269
4.89854
4.903
4.90873
4.91316
4.9187
4.923
4.92829
4.93239
4.93737
4.9412
4.94586
4.94943
4.95376
4.95708
4.96109
4.96415
4.96785
4.97066
4.97405
4.9766
4.97969
4.98196
4.98471
4.9867
4.9891
4.99078
4.99282
4.99418
4.99586
4.9969
4.99824
4.99899
5.00002
5.00052
5.00128
5.0016
5.00216
5.00236
5.00278
5.00291
5.00325
5.00334
5.00364
5.00373
5.004
5.00409
5.00435
5.00444
5.00469
5.00479
5.00504
5.00514
5.00539
5.00549
5.00574
5.00584
5.00609
5.0062
5.00644
5.00655
5.0068
5.00691
5.00716
5.00728
5.00752
5.00765
5.00789
5.00802
5.00827
5.0084
5.00865
5.00879
5.00904
5.00919
5.00945
5.00959
5.00986
5.00999
5.01028
5.0104
5.01067
5.01127
5.00908
4.2544
5.16217
5.25566
5.26756
5.27229
5.27797
5.28171
5.28799
5.29115
5.29761
5.30028
5.30658
5.30886
5.31489
5.31682
5.32251
5.32413
5.32945
5.33083
5.33578
5.33696
5.34154
5.34254
5.34677
5.34762
5.35151
5.35222
5.35576
5.35634
5.35954
5.35998
5.36284
5.36313
5.36565
5.36579
5.36798
5.36798
5.36985
5.36973
5.37134
5.37111
5.37249
5.37219
5.37339
5.37306
5.37413
5.37379
5.37478
5.37446
5.37538
5.37509
5.37596
5.3757
5.37653
5.37631
5.37711
5.37692
5.37768
5.37753
5.37826
5.37815
5.37885
5.37876
5.37944
5.37939
5.38005
5.38002
5.38067
5.38067
5.3813
5.38133
5.38195
5.382
5.38263
5.3827
5.38333
5.38343
5.38407
5.38419
5.38484
5.38498
5.38566
5.38581
5.38652
5.38667
5.38738
5.3876
5.38789
5.38887
5.39018
4.59002
4.92545
4.94402
4.9443
4.95075
4.95696
4.9623
4.9712
4.97432
4.98421
4.98547
4.99558
4.99544
5.00538
5.00423
5.01386
5.01195
5.02113
5.01874
5.0274
5.0247
5.03282
5.02994
5.03751
5.03455
5.04158
5.03862
5.04512
5.04219
5.04818
5.0453
5.05081
5.048
5.05305
5.05033
5.05495
5.05231
5.05654
5.054
5.05787
5.05544
5.059
5.0567
5.05998
5.05782
5.06086
5.05885
5.06169
5.05982
5.06248
5.06076
5.06326
5.06168
5.06403
5.06258
5.0648
5.06348
5.06557
5.06437
5.06635
5.06526
5.06714
5.06615
5.06794
5.06706
5.06877
5.06797
5.06962
5.06891
5.0705
5.06987
5.07142
5.07087
5.0724
5.07191
5.07343
5.07301
5.07454
5.07418
5.07574
5.07543
5.07702
5.07676
5.07836
5.07815
5.07974
5.07942
5.08148
5.07937
5.08071
23.0255
23.8683
24.0316
24.1465
24.2401
24.3292
24.4019
24.4783
24.5386
24.6065
24.6589
24.7211
24.7679
24.8252
24.8675
24.9205
24.9591
25.0084
25.044
25.0898
25.1224
25.1648
25.1947
25.2337
25.2608
25.2964
25.3206
25.3524
25.3733
25.4012
25.4187
25.4425
25.4564
25.4759
25.4862
25.5017
25.5085
25.5204
25.5244
25.5331
25.5348
25.5411
25.5412
25.5457
25.5448
25.5483
25.5469
25.5497
25.5482
25.5506
25.5491
25.5513
25.5499
25.552
25.5506
25.5526
25.5514
25.5532
25.5521
25.5539
25.5529
25.5545
25.5536
25.5552
25.5544
25.5559
25.5551
25.5565
25.5559
25.5572
25.5567
25.558
25.5575
25.5587
25.5583
25.5595
25.5592
25.5604
25.5601
25.5613
25.5611
25.5624
25.5622
25.5636
25.5635
25.5653
25.565
25.5684
25.5631
25.5662
20.9646
22.6007
22.8011
22.9153
23.0023
23.0884
23.1579
23.2306
23.2895
23.3533
23.4052
23.463
23.5099
23.5627
23.6054
23.654
23.6932
23.7382
23.7744
23.816
23.8493
23.8878
23.9183
23.9536
23.9815
24.0136
24.0385
24.0672
24.089
24.114
24.1324
24.1537
24.1686
24.1861
24.1974
24.2111
24.2192
24.2295
24.2347
24.242
24.245
24.25
24.2513
24.2547
24.255
24.2573
24.257
24.2587
24.2582
24.2596
24.259
24.2602
24.2596
24.2608
24.2603
24.2614
24.2609
24.2619
24.2615
24.2625
24.2621
24.2631
24.2627
24.2637
24.2634
24.2643
24.264
24.2649
24.2647
24.2655
24.2653
24.2661
24.266
24.2668
24.2667
24.2675
24.2674
24.2682
24.2681
24.2689
24.2689
24.2697
24.2696
24.2705
24.2704
24.2714
24.2712
24.272
24.2733
24.2729
19.0229
21.2533
21.5197
21.6257
21.7005
21.7735
21.8353
21.898
21.952
22.0073
22.0556
22.1058
22.15
22.1963
22.2369
22.2795
22.3168
22.3562
22.3909
22.4275
22.4595
22.4933
22.5228
22.5539
22.5809
22.6093
22.6337
22.6592
22.6808
22.7033
22.7219
22.7411
22.7566
22.7724
22.7848
22.7972
22.8065
22.8159
22.8223
22.829
22.8332
22.8377
22.84
22.8429
22.844
22.8458
22.8462
22.8474
22.8474
22.8482
22.8482
22.8488
22.8487
22.8492
22.8491
22.8497
22.8496
22.8501
22.85
22.8505
22.8505
22.851
22.8509
22.8514
22.8514
22.8519
22.8519
22.8523
22.8523
22.8528
22.8528
22.8532
22.8533
22.8537
22.8538
22.8542
22.8543
22.8547
22.8548
22.8552
22.8552
22.8557
22.8557
22.8562
22.8561
22.8566
22.8564
22.857
22.8578
22.8426
18.4943
20.8862
21.1629
21.2475
21.3032
21.3607
21.4109
21.4637
21.5102
21.5582
21.6007
21.645
21.6846
21.7259
21.7628
21.801
21.8351
21.8706
21.9023
21.9353
21.9648
21.9954
22.0226
22.0508
22.0758
22.1017
22.1245
22.1479
22.1683
22.1891
22.2069
22.2249
22.2401
22.2551
22.2674
22.2795
22.289
22.2983
22.3052
22.3119
22.3165
22.3211
22.3239
22.3268
22.3283
22.33
22.3307
22.3317
22.332
22.3326
22.3326
22.3331
22.3331
22.3335
22.3334
22.3338
22.3337
22.3341
22.3341
22.3344
22.3344
22.3347
22.3347
22.335
22.335
22.3353
22.3354
22.3357
22.3357
22.336
22.336
22.3363
22.3364
22.3367
22.3367
22.337
22.337
22.3373
22.3374
22.3377
22.3377
22.338
22.338
22.3383
22.3382
22.3385
22.3383
22.3387
22.338
22.3265
18.1587
20.6678
20.9427
21.0063
21.0421
21.0825
21.1192
21.16
21.1965