/*--------------------------------*- C++ -*----------------------------------*\
  =========                 |
  \\      /  F ield         | OpenFOAM: The Open Source CFD Toolbox
   \\    /   O peration     | Website:  https://openfoam.org
    \\  /    A nd           | Version:  7
     \\/     M anipulation  |
\*---------------------------------------------------------------------------*/
FoamFile
{
    version     2.0;
    format      ascii;
    class       volScalarField;
    location    "1.0275";
    object      nut;
}
// * * * * * * * * * * * * * * * * * * * * * * * * * * * * * * * * * * * * * //

dimensions      [0 2 -1 0 0 0 0];

internalField   nonuniform List<scalar> 
4950
(
0.00877
0.00934246
0.00936153
0.00936856
0.00936238
0.00936401
0.00935781
0.0093585
0.00935373
0.00935482
0.00935153
0.00935296
0.00935068
0.0093521
0.00935047
0.00935131
0.00935082
0.00934956
0.00935486
0.00937837
0.00461199
0.00491356
0.00488035
0.00478932
0.00472051
0.00468585
0.00466101
0.00464992
0.00463836
0.00463369
0.00462676
0.00462437
0.00461972
0.00461834
0.0046152
0.00461408
0.00461475
0.00460863
0.00465435
0.00466611
0.00366596
0.00406192
0.00414885
0.00417021
0.00417278
0.00417782
0.00417817
0.0041809
0.00418116
0.00418352
0.00418381
0.00418592
0.00418625
0.00418827
0.00418867
0.00419069
0.00419104
0.00419221
0.00419431
0.00420293
0.00358463
0.00397897
0.00408122
0.0041215
0.00413929
0.00415521
0.00416343
0.0041737
0.00417892
0.00418691
0.00419092
0.00419762
0.00420085
0.00420664
0.00420946
0.00421461
0.00421743
0.00422127
0.00422401
0.00423255
0.00357269
0.00397066
0.00407358
0.00411559
0.00413429
0.00415154
0.00416065
0.00417232
0.00417856
0.00418802
0.00419316
0.00420133
0.00420568
0.0042128
0.00421665
0.00422304
0.00422682
0.00423212
0.00423537
0.00424494
0.00358463
0.00397897
0.00408122
0.0041215
0.00413929
0.00415521
0.00416342
0.00417371
0.00417892
0.00418692
0.00419091
0.00419764
0.00420083
0.00420667
0.00420943
0.00421465
0.00421739
0.00422131
0.00422403
0.0042326
0.00366596
0.00406192
0.00414885
0.00417021
0.00417278
0.00417783
0.00417817
0.0041809
0.00418115
0.00418353
0.0041838
0.00418594
0.00418623
0.00418831
0.00418863
0.00419078
0.00419097
0.00419238
0.00419417
0.00420308
0.00461199
0.00491356
0.00488035
0.00478932
0.00472051
0.00468585
0.00466101
0.00464993
0.00463835
0.0046337
0.00462674
0.00462439
0.00461968
0.00461837
0.00461508
0.00461419
0.00461446
0.00460905
0.00465324
0.0046667
0.00877
0.00934246
0.00936153
0.00936856
0.00936237
0.00936401
0.00935781
0.0093585
0.00935373
0.00935483
0.00935151
0.00935299
0.00935063
0.00935219
0.00935033
0.00935156
0.00935041
0.00935027
0.00935363
0.00938088
0.00344757
0.00414526
0.00423445
0.0042191
0.0042072
0.00418754
0.00418296
0.00417141
0.00416966
0.00416215
0.00416141
0.00415604
0.00415576
0.00415155
0.00415162
0.00414772
0.00414859
0.00414351
0.00414306
0.0041597
0.00297262
0.00376521
0.00391995
0.00395144
0.00395846
0.00396124
0.00396272
0.00396436
0.00396543
0.00396678
0.00396773
0.00396891
0.00396975
0.00397076
0.0039713
0.00397215
0.00397218
0.00397237
0.00397391
0.00397857
0.00289879
0.00368483
0.00384373
0.00388098
0.00388804
0.00389127
0.00389161
0.00389306
0.0038938
0.00389581
0.00389705
0.00389933
0.00390088
0.00390313
0.003905
0.00390702
0.00390886
0.00391023
0.00391078
0.00391964
0.00290188
0.00368655
0.00384377
0.0038807
0.0038877
0.00389005
0.00388944
0.00388946
0.00388891
0.00388923
0.00388931
0.00389011
0.00389059
0.0038918
0.00389267
0.0038943
0.00389551
0.00389713
0.00389826
0.00390544
0.00289518
0.00367892
0.00383718
0.00387493
0.00388197
0.00388449
0.0038837
0.00388365
0.00388281
0.00388299
0.00388274
0.00388325
0.00388339
0.00388425
0.00388473
0.00388615
0.0038869
0.00388856
0.0038891
0.00389553
0.00290188
0.00368655
0.00384377
0.0038807
0.0038877
0.00389005
0.00388944
0.00388946
0.00388891
0.00388924
0.00388931
0.00389012
0.00389058
0.00389181
0.00389264
0.00389434
0.00389546
0.00389715
0.00389824
0.00390542
0.00289879
0.00368483
0.00384373
0.00388098
0.00388804
0.00389127
0.0038916
0.00389306
0.0038938
0.00389583
0.00389702
0.00389936
0.00390082
0.00390321
0.00390488
0.00390717
0.00390865
0.00391044
0.00391065
0.00391967
0.00297262
0.00376521
0.00391995
0.00395144
0.00395846
0.00396125
0.00396272
0.00396436
0.00396542
0.00396679
0.00396771
0.00396894
0.00396969
0.00397084
0.00397122
0.00397227
0.00397195
0.00397265
0.00397349
0.00397919
0.00344757
0.00414526
0.00423445
0.0042191
0.0042072
0.00418754
0.00418296
0.00417141
0.00416965
0.00416216
0.00416141
0.00415605
0.00415575
0.00415158
0.00415159
0.0041478
0.00414849
0.00414382
0.00414265
0.00416066
0.000824198
0.00150663
0.00169174
0.00172104
0.00170738
0.0016773
0.00164698
0.00162194
0.00160205
0.00158562
0.00157358
0.00156255
0.00155518
0.00154716
0.00154248
0.00153643
0.0015327
0.00152951
0.00152231
0.00153367
0.000386243
0.000922216
0.00116829
0.00126989
0.00131042
0.00133054
0.00134044
0.00134915
0.00135536
0.00136188
0.00136666
0.0013715
0.00137486
0.00137826
0.00138052
0.0013827
0.00138462
0.00138533
0.00138689
0.00139097
0.000357129
0.000848324
0.00106996
0.00117251
0.00121068
0.00123202
0.00123807
0.00124467
0.00124642
0.00125035
0.00125206
0.00125571
0.00125781
0.00126128
0.00126369
0.00126678
0.00126914
0.00127193
0.00127334
0.00127855
0.00036221
0.000859294
0.00108021
0.00117915
0.00121664
0.00123584
0.00124158
0.001246
0.00124663
0.00124802
0.00124823
0.00124892
0.00124925
0.00124995
0.00125064
0.00125119
0.00125216
0.00125262
0.00125351
0.00125708
0.000356463
0.000846912
0.00106537
0.00116658
0.00120363
0.00122427
0.00122939
0.00123448
0.0012348
0.0012361
0.00123597
0.00123648
0.00123641
0.00123683
0.00123691
0.00123738
0.00123747
0.00123784
0.00123755
0.00124034
0.00036221
0.000859294
0.00108021
0.00117915
0.00121664
0.00123584
0.00124158
0.001246
0.00124663
0.00124802
0.00124823
0.00124893
0.00124925
0.00124995
0.00125062
0.0012512
0.00125215
0.00125261
0.00125349
0.00125706
0.000357128
0.000848324
0.00106996
0.00117251
0.00121068
0.00123202
0.00123807
0.00124467
0.00124642
0.00125036
0.00125206
0.00125572
0.00125778
0.00126131
0.00126365
0.0012668
0.00126909
0.00127192
0.0012733
0.00127847
0.000386243
0.000922216
0.00116829
0.00126989
0.00131042
0.00133055
0.00134044
0.00134915
0.00135535
0.00136189
0.00136665
0.00137152
0.00137482
0.0013783
0.00138046
0.00138275
0.00138451
0.0013853
0.00138683
0.00139091
0.000824198
0.00150663
0.00169174
0.00172104
0.00170738
0.0016773
0.00164698
0.00162194
0.00160205
0.00158563
0.00157358
0.00156256
0.00155518
0.00154721
0.00154247
0.00153655
0.00153267
0.00152974
0.00152234
0.00153423
0.00344757
0.00414526
0.00423445
0.0042191
0.0042072
0.00418754
0.00418296
0.00417141
0.00416966
0.00416215
0.00416141
0.00415604
0.00415576
0.00415155
0.00415162
0.00414772
0.00414859
0.00414351
0.00414306
0.0041597
0.00297262
0.00376521
0.00391995
0.00395144
0.00395846
0.00396124
0.00396272
0.00396436
0.00396543
0.00396678
0.00396773
0.00396891
0.00396975
0.00397076
0.0039713
0.00397215
0.00397218
0.00397237
0.00397391
0.00397857
0.00289879
0.00368483
0.00384373
0.00388098
0.00388804
0.00389127
0.00389161
0.00389306
0.0038938
0.00389581
0.00389705
0.00389933
0.00390088
0.00390313
0.003905
0.00390702
0.00390886
0.00391023
0.00391078
0.00391964
0.00290188
0.00368655
0.00384377
0.0038807
0.0038877
0.00389005
0.00388944
0.00388946
0.00388891
0.00388923
0.00388931
0.00389011
0.00389059
0.00389179
0.00389267
0.0038943
0.00389551
0.00389713
0.00389826
0.00390544
0.00289518
0.00367892
0.00383718
0.00387493
0.00388197
0.00388449
0.0038837
0.00388365
0.00388281
0.00388299
0.00388274
0.00388325
0.00388339
0.00388425
0.00388473
0.00388615
0.0038869
0.00388856
0.0038891
0.00389553
0.00290188
0.00368655
0.00384377
0.0038807
0.0038877
0.00389005
0.00388944
0.00388946
0.00388891
0.00388924
0.00388931
0.00389012
0.00389058
0.00389181
0.00389264
0.00389434
0.00389546
0.00389715
0.00389824
0.00390542
0.00289879
0.00368483
0.00384373
0.00388098
0.00388804
0.00389127
0.0038916
0.00389306
0.0038938
0.00389583
0.00389702
0.00389936
0.00390082
0.00390321
0.00390488
0.00390717
0.00390865
0.00391044
0.00391065
0.00391967
0.00297262
0.00376521
0.00391995
0.00395144
0.00395846
0.00396125
0.00396272
0.00396436
0.00396542
0.00396679
0.00396771
0.00396894
0.00396969
0.00397084
0.00397122
0.00397227
0.00397195
0.00397265
0.00397349
0.00397919
0.00344757
0.00414526
0.00423445
0.0042191
0.0042072
0.00418754
0.00418296
0.00417141
0.00416965
0.00416216
0.00416141
0.00415605
0.00415575
0.00415158
0.00415159
0.0041478
0.00414849
0.00414382
0.00414265
0.00416066
0.00877
0.00934246
0.00936153
0.00936856
0.00936238
0.00936401
0.00935781
0.0093585
0.00935373
0.00935482
0.00935153
0.00935296
0.00935068
0.0093521
0.00935047
0.00935131
0.00935082
0.00934956
0.00935486
0.00937837
0.00461199
0.00491356
0.00488035
0.00478932
0.00472051
0.00468585
0.00466101
0.00464992
0.00463836
0.00463369
0.00462676
0.00462437
0.00461972
0.00461834
0.0046152
0.00461408
0.00461475
0.00460863
0.00465435
0.00466611
0.00366596
0.00406192
0.00414885
0.00417021
0.00417278
0.00417782
0.00417817
0.0041809
0.00418116
0.00418352
0.00418381
0.00418592
0.00418625
0.00418827
0.00418867
0.00419069
0.00419104
0.00419221
0.00419431
0.00420293
0.00358463
0.00397897
0.00408122
0.0041215
0.00413929
0.00415521
0.00416343
0.0041737
0.00417892
0.00418691
0.00419092
0.00419762
0.00420085
0.00420664
0.00420946
0.00421461
0.00421743
0.00422127
0.00422401
0.00423255
0.00357269
0.00397066
0.00407358
0.00411559
0.00413429
0.00415154
0.00416065
0.00417232
0.00417856
0.00418802
0.00419316
0.00420133
0.00420568
0.0042128
0.00421665
0.00422304
0.00422682
0.00423212
0.00423537
0.00424494
0.00358463
0.00397897
0.00408122
0.0041215
0.00413929
0.00415521
0.00416342
0.00417371
0.00417892
0.00418692
0.00419091
0.00419764
0.00420083
0.00420667
0.00420943
0.00421465
0.00421739
0.00422131
0.00422403
0.0042326
0.00366596
0.00406192
0.00414885
0.00417021
0.00417278
0.00417783
0.00417817
0.0041809
0.00418115
0.00418353
0.0041838
0.00418594
0.00418623
0.00418831
0.00418863
0.00419078
0.00419097
0.00419238
0.00419417
0.00420308
0.00461199
0.00491356
0.00488035
0.00478932
0.00472051
0.00468585
0.00466101
0.00464993
0.00463835
0.0046337
0.00462674
0.00462439
0.00461968
0.00461837
0.00461508
0.00461419
0.00461446
0.00460905
0.00465324
0.0046667
0.00877
0.00934246
0.00936153
0.00936856
0.00936237
0.00936401
0.00935781
0.0093585
0.00935373
0.00935483
0.00935151
0.00935299
0.00935063
0.00935219
0.00935033
0.00935156
0.00935042
0.00935027
0.00935363
0.00938088
0.0274739
0.0276946
0.0277793
0.0278539
0.0279066
0.0279558
0.0279904
0.0280275
0.0280579
0.0280909
0.0281159
0.0281395
0.0281541
0.0281668
0.0281727
0.0281783
0.0281797
0.028182
0.0281816
0.0281828
0.028182
0.0281828
0.0281819
0.0281826
0.0281818
0.0281824
0.0281817
0.0281822
0.0281816
0.0281821
0.0281815
0.028182
0.0281815
0.0281819
0.0281814
0.0281818
0.0281814
0.0281818
0.0281814
0.0281818
0.0281814
0.0281818
0.0281815
0.0281818
0.0281815
0.0281819
0.0281816
0.0281819
0.0281817
0.028182
0.0281818
0.0281821
0.028182
0.0281822
0.0281821
0.0281824
0.0281823
0.0281825
0.0281824
0.0281827
0.0281826
0.0281829
0.0281828
0.0281831
0.028183
0.0281833
0.0281833
0.0281835
0.0281835
0.0281838
0.0281838
0.028184
0.0281841
0.0281843
0.0281843
0.0281846
0.0281846
0.0281849
0.0281849
0.0281851
0.0281852
0.0281854
0.0281855
0.0281856
0.0281857
0.0281857
0.0281858
0.028186
0.0281816
0.028179
0.0160264
0.01652
0.0165751
0.0166231
0.0166489
0.0166819
0.0166977
0.0167227
0.0167366
0.0167591
0.0167707
0.0167879
0.016794
0.0168045
0.0168059
0.0168117
0.0168106
0.0168141
0.0168123
0.0168149
0.0168129
0.0168152
0.0168133
0.0168154
0.0168137
0.0168156
0.0168141
0.0168158
0.0168144
0.0168161
0.0168148
0.0168164
0.0168152
0.0168166
0.0168156
0.0168169
0.016816
0.0168172
0.0168163
0.0168175
0.0168167
0.0168178
0.0168171
0.0168182
0.0168175
0.0168185
0.0168179
0.0168188
0.0168182
0.0168192
0.0168186
0.0168195
0.016819
0.0168199
0.0168195
0.0168203
0.0168199
0.0168207
0.0168203
0.0168211
0.0168208
0.0168215
0.0168212
0.0168219
0.0168217
0.0168224
0.0168222
0.0168228
0.0168227
0.0168233
0.0168232
0.0168238
0.0168237
0.0168243
0.0168242
0.0168248
0.0168248
0.0168253
0.0168253
0.0168259
0.0168259
0.0168264
0.0168264
0.0168268
0.0168269
0.0168273
0.0168273
0.016828
0.0168252
0.0168245
0.0134624
0.0141731
0.0142301
0.0142714
0.0142879
0.0143208
0.0143305
0.0143535
0.0143605
0.0143815
0.0143893
0.0144084
0.0144133
0.014427
0.0144282
0.0144369
0.0144358
0.0144418
0.0144399
0.0144447
0.0144427
0.014447
0.0144451
0.0144491
0.0144474
0.0144512
0.0144498
0.0144534
0.0144521
0.0144555
0.0144544
0.0144576
0.0144566
0.0144597
0.0144588
0.0144617
0.014461
0.0144638
0.0144631
0.0144657
0.0144652
0.0144677
0.0144672
0.0144696
0.0144692
0.0144715
0.0144711
0.0144733
0.014473
0.0144751
0.0144749
0.0144769
0.0144767
0.0144786
0.0144785
0.0144803
0.0144802
0.014482
0.014482
0.0144837
0.0144837
0.0144853
0.0144853
0.0144869
0.014487
0.0144885
0.0144886
0.0144901
0.0144902
0.0144916
0.0144918
0.0144932
0.0144933
0.0144947
0.0144948
0.0144961
0.0144963
0.0144976
0.0144978
0.014499
0.0144992
0.0145003
0.0145005
0.0145016
0.0145018
0.0145029
0.0145031
0.0145039
0.0145047
0.0144998
0.0131568
0.0140167
0.0140898
0.0141279
0.01414
0.0141723
0.0141801
0.0142011
0.0142046
0.0142233
0.0142297
0.0142495
0.014255
0.0142709
0.014273
0.0142837
0.0142832
0.0142906
0.0142891
0.0142951
0.0142933
0.0142986
0.0142969
0.014302
0.0143005
0.0143053
0.0143041
0.0143087
0.0143077
0.014312
0.0143112
0.0143153
0.0143146
0.0143186
0.0143181
0.0143218
0.0143214
0.014325
0.0143247
0.0143282
0.0143279
0.0143312
0.0143311
0.0143343
0.0143342
0.0143372
0.0143372
0.0143401
0.0143402
0.014343
0.0143431
0.0143458
0.0143459
0.0143485
0.0143487
0.0143512
0.0143515
0.0143539
0.0143541
0.0143564
0.0143568
0.014359
0.0143593
0.0143615
0.0143618
0.0143639
0.0143643
0.0143663
0.0143667
0.0143687
0.0143691
0.014371
0.0143714
0.0143732
0.0143737
0.0143754
0.0143759
0.0143776
0.014378
0.0143797
0.0143801
0.0143817
0.0143821
0.0143836
0.014384
0.0143855
0.0143859
0.0143871
0.0143881
0.0143838
0.0131543
0.0140279
0.014099
0.0141321
0.0141394
0.0141684
0.0141736
0.0141918
0.0141923
0.0142081
0.0142127
0.0142315
0.0142366
0.0142528
0.014255
0.0142663
0.0142659
0.0142739
0.0142725
0.0142789
0.0142771
0.0142829
0.0142813
0.0142867
0.0142853
0.0142904
0.0142893
0.0142942
0.0142933
0.014298
0.0142973
0.0143018
0.0143012
0.0143055
0.0143051
0.0143091
0.0143088
0.0143127
0.0143125
0.0143163
0.0143162
0.0143198
0.0143198
0.0143232
0.0143232
0.0143265
0.0143267
0.0143298
0.01433
0.0143331
0.0143333
0.0143362
0.0143365
0.0143394
0.0143397
0.0143424
0.0143428
0.0143454
0.0143458
0.0143483
0.0143487
0.0143512
0.0143516
0.014354
0.0143545
0.0143568
0.0143573
0.0143595
0.01436
0.0143621
0.0143627
0.0143647
0.0143653
0.0143673
0.0143678
0.0143697
0.0143703
0.0143721
0.0143727
0.0143745
0.014375
0.0143767
0.0143772
0.0143789
0.0143794
0.014381
0.0143815
0.0143827
0.0143848
0.0143795
0.013157
0.0140086
0.0140693
0.0140952
0.0140983
0.0141215
0.0141235
0.0141375
0.0141357
0.0141487
0.0141514
0.0141677
0.0141715
0.0141858
0.0141872
0.0141975
0.0141968
0.0142041
0.0142025
0.0142086
0.0142068
0.0142122
0.0142105
0.0142156
0.0142142
0.014219
0.0142178
0.0142224
0.0142214
0.0142258
0.014225
0.0142292
0.0142286
0.0142326
0.0142321
0.0142359
0.0142355
0.0142392
0.0142389
0.0142424
0.0142422
0.0142455
0.0142454
0.0142486
0.0142486
0.0142517
0.0142517
0.0142546
0.0142547
0.0142576
0.0142577
0.0142604
0.0142606
0.0142633
0.0142635
0.014266
0.0142663
0.0142687
0.014269
0.0142714
0.0142717
0.014274
0.0142744
0.0142766
0.0142769
0.0142791
0.0142795
0.0142815
0.014282
0.0142839
0.0142844
0.0142863
0.0142868
0.0142886
0.0142891
0.0142909
0.0142913
0.0142931
0.0142935
0.0142952
0.0142957
0.0142973
0.0142977
0.0142993
0.0142997
0.0143012
0.0143016
0.0143028
0.0143039
0.0142999
0.013456
0.01414
0.0141688
0.014186
0.0141851
0.0142013
0.0141996
0.0142094
0.0142061
0.0142163
0.014217
0.0142295
0.0142312
0.014242
0.0142419
0.0142497
0.0142483
0.0142542
0.0142522
0.014257
0.014255
0.0142594
0.0142575
0.0142616
0.01426
0.0142639
0.0142625
0.0142661
0.0142649
0.0142684
0.0142673
0.0142706
0.0142697
0.0142729
0.014272
0.014275
0.0142743
0.0142772
0.0142766
0.0142793
0.0142788
0.0142814
0.0142809
0.0142834
0.014283
0.0142854
0.0142851
0.0142873
0.0142871
0.0142893
0.0142891
0.0142912
0.014291
0.014293
0.0142929
0.0142948
0.0142948
0.0142966
0.0142966
0.0142984
0.0142984
0.0143001
0.0143002
0.0143018
0.0143019
0.0143035
0.0143037
0.0143052
0.0143053
0.0143068
0.014307
0.0143084
0.0143086
0.01431
0.0143102
0.0143116
0.0143118
0.0143131
0.0143133
0.0143146
0.0143148
0.014316
0.0143162
0.0143174
0.0143176
0.0143187
0.0143189
0.0143198
0.0143208
0.0143161
0.0159894
0.0164227
0.0164294
0.0164393
0.016437
0.0164464
0.016443
0.0164484
0.0164451
0.0164515
0.0164511
0.0164585
0.0164586
0.0164646
0.0164637
0.0164679
0.0164662
0.0164693
0.0164673
0.0164699
0.0164679
0.0164702
0.0164683
0.0164704
0.0164688
0.0164707
0.0164692
0.016471
0.0164697
0.0164714
0.0164701
0.0164717
0.0164706
0.0164721
0.016471
0.0164724
0.0164715
0.0164728
0.0164719
0.0164732
0.0164724
0.0164736
0.0164728
0.0164739
0.0164732
0.0164743
0.0164737
0.0164747
0.0164741
0.0164751
0.0164746
0.0164755
0.016475
0.0164759
0.0164754
0.0164763
0.0164759
0.0164767
0.0164764
0.0164771
0.0164768
0.0164776
0.0164773
0.016478
0.0164778
0.0164785
0.0164783
0.0164789
0.0164788
0.0164794
0.0164793
0.0164799
0.0164798
0.0164804
0.0164804
0.016481
0.0164809
0.0164815
0.0164814
0.016482
0.016482
0.0164825
0.0164825
0.016483
0.016483
0.0164835
0.0164834
0.0164841
0.0164814
0.016481
0.0273683
0.0274757
0.0274753
0.0274816
0.0274826
0.0274899
0.027489
0.027492
0.0274908
0.0274949
0.0274965
0.0275019
0.0275038
0.027508
0.0275086
0.0275111
0.0275107
0.027512
0.0275112
0.0275121
0.0275111
0.0275119
0.0275109
0.0275116
0.0275107
0.0275113
0.0275106
0.0275111
0.0275104
0.0275109
0.0275103
0.0275107
0.0275102
0.0275106
0.0275101
0.0275105
0.02751
0.0275104
0.0275099
0.0275103
0.0275099
0.0275102
0.0275098
0.0275101
0.0275098
0.0275101
0.0275098
0.02751
0.0275098
0.02751
0.0275098
0.02751
0.0275098
0.02751
0.0275098
0.02751
0.0275098
0.0275101
0.0275099
0.0275101
0.02751
0.0275102
0.02751
0.0275102
0.0275101
0.0275103
0.0275102
0.0275104
0.0275103
0.0275105
0.0275105
0.0275106
0.0275106
0.0275108
0.0275107
0.0275109
0.0275109
0.027511
0.027511
0.0275112
0.0275111
0.0275113
0.0275112
0.0275114
0.0275113
0.0275115
0.0275113
0.0275116
0.0275073
0.0275048
0.0134368
0.0136749
0.0137224
0.013757
0.0137833
0.013806
0.0138229
0.0138413
0.0138559
0.0138725
0.0138835
0.0138953
0.0139007
0.0139073
0.0139085
0.0139119
0.0139111
0.0139131
0.0139116
0.0139131
0.0139115
0.0139127
0.0139111
0.0139123
0.0139108
0.0139119
0.0139105
0.0139115
0.0139102
0.0139111
0.0139099
0.0139108
0.0139096
0.0139104
0.0139093
0.0139101
0.0139091
0.0139098
0.0139088
0.0139095
0.0139086
0.0139092
0.0139084
0.013909
0.0139082
0.0139088
0.0139081
0.0139086
0.0139079
0.0139084
0.0139078
0.0139083
0.0139077
0.0139082
0.0139076
0.0139081
0.0139076
0.013908
0.0139076
0.013908
0.0139076
0.013908
0.0139076
0.013908
0.0139077
0.013908
0.0139078
0.0139081
0.0139079
0.0139082
0.013908
0.0139084
0.0139082
0.0139086
0.0139084
0.0139088
0.0139087
0.0139091
0.013909
0.0139094
0.0139094
0.0139098
0.0139098
0.0139102
0.0139103
0.0139108
0.0139108
0.0139118
0.0139105
0.0139114
0.012826
0.0133147
0.0133744
0.0134109
0.0134384
0.0134631
0.013481
0.0134996
0.0135149
0.013532
0.013545
0.013558
0.0135659
0.0135738
0.0135772
0.0135815
0.0135826
0.0135852
0.0135854
0.0135872
0.0135872
0.0135887
0.0135887
0.0135901
0.01359
0.0135914
0.0135914
0.0135927
0.0135926
0.0135939
0.0135939
0.013595
0.013595
0.0135962
0.0135962
0.0135973
0.0135973
0.0135983
0.0135984
0.0135993
0.0135994
0.0136003
0.0136004
0.0136013
0.0136014
0.0136023
0.0136024
0.0136032
0.0136033
0.0136041
0.0136042
0.0136049
0.0136051
0.0136058
0.0136059
0.0136066
0.0136067
0.0136074
0.0136076
0.0136082
0.0136084
0.013609
0.0136091
0.0136097
0.0136099
0.0136105
0.0136106
0.0136112
0.0136113
0.0136119
0.0136121
0.0136126
0.0136128
0.0136133
0.0136134
0.013614
0.0136141
0.0136146
0.0136148
0.0136153
0.0136154
0.0136159
0.0136161
0.0136166
0.0136167
0.0136172
0.0136174
0.0136178
0.0136184
0.0136187
0.0122214
0.0129133
0.0129909
0.0130249
0.0130517
0.013076
0.0130934
0.0131092
0.0131225
0.0131374
0.0131507
0.013164
0.0131738
0.0131825
0.0131878
0.0131923
0.0131946
0.013197
0.013198
0.0131995
0.0132
0.0132012
0.0132016
0.0132027
0.0132031
0.0132042
0.0132046
0.0132056
0.013206
0.013207
0.0132074
0.0132083
0.0132087
0.0132096
0.01321
0.0132109
0.0132113
0.0132122
0.0132126
0.0132135
0.0132139
0.0132147
0.0132151
0.0132159
0.0132163
0.013217
0.0132174
0.0132182
0.0132186
0.0132193
0.0132197
0.0132204
0.0132208
0.0132214
0.0132218
0.0132225
0.0132228
0.0132235
0.0132238
0.0132244
0.0132248
0.0132254
0.0132258
0.0132263
0.0132267
0.0132272
0.0132276
0.0132281
0.0132284
0.0132289
0.0132293
0.0132298
0.0132301
0.0132306
0.0132308
0.0132313
0.0132316
0.013232
0.0132323
0.0132328
0.013233
0.0132334
0.0132337
0.0132341
0.0132343
0.0132347
0.0132348
0.0132352
0.0132357
0.0132316
0.0120547
0.0128033
0.0128806
0.012906
0.0129282
0.0129507
0.0129663
0.012979
0.012989
0.0130009
0.0130129
0.013026
0.0130365
0.0130459
0.0130521
0.0130572
0.01306
0.0130624
0.0130635
0.0130648
0.0130653
0.0130662
0.0130665
0.0130673
0.0130676
0.0130684
0.0130687
0.0130694
0.0130697
0.0130704
0.0130707
0.0130714
0.0130717
0.0130724
0.0130726
0.0130733
0.0130736
0.0130742
0.0130745
0.0130752
0.0130754
0.0130761
0.0130763
0.0130769
0.0130772
0.0130778
0.0130781
0.0130786
0.0130789
0.0130795
0.0130798
0.0130803
0.0130806
0.0130811
0.0130814
0.0130819
0.0130821
0.0130826
0.0130829
0.0130834
0.0130836
0.0130841
0.0130843
0.0130848
0.0130851
0.0130855
0.0130857
0.0130862
0.0130864
0.0130868
0.013087
0.0130874
0.0130877
0.0130881
0.0130883
0.0130887
0.0130889
0.0130892
0.0130894
0.0130898
0.01309
0.0130903
0.0130905
0.0130908
0.013091
0.0130913
0.0130914
0.0130917
0.0130917
0.0130887
0.0119468
0.0127376
0.0128128
0.0128307
0.0128473
0.0128661
0.0128787
0.0128879
0.0128945
0.0129035
0.0129134
0.0129251
0.012935
0.0129442
0.0129504
0.0129555
0.0129584
0.0129608
0.0129619
0.0129632
0.0129636
0.0129644
0.0129647
0.0129654
0.0129656
0.0129663
0.0129665
0.0129672
0.0129674
0.012968
0.0129682
0.0129689
0.0129691
0.0129697
0.0129699
0.0129705
0.0129707
0.0129713
0.0129715
0.0129721
0.0129723
0.0129729
0.0129731
0.0129736
0.0129738
0.0129744
0.0129746
0.0129751
0.0129753
0.0129758
0.012976
0.0129765
0.0129767
0.0129772
0.0129774
0.0129779
0.0129781
0.0129785
0.0129787
0.0129792
0.0129794
0.0129798
0.01298
0.0129804
0.0129806
0.012981
0.0129812
0.0129816
0.0129818
0.0129822
0.0129824
0.0129827
0.0129829
0.0129833
0.0129835
0.0129838
0.012984
0.0129843
0.0129845
0.0129848
0.012985
0.0129853
0.0129855
0.0129858
0.0129859
0.0129862
0.0129863
0.0129865
0.012987
0.0129823
0.0120547
0.0127942
0.0128586
0.012872
0.0128845
0.012899
0.0129079
0.0129141
0.0129182
0.0129249
0.0129327
0.0129426
0.0129511
0.0129591
0.0129645
0.0129691
0.0129716
0.0129739
0.012975
0.0129763
0.0129768
0.0129777
0.012978
0.0129788
0.0129791
0.0129799
0.0129802
0.012981
0.0129813
0.012982
0.0129823
0.012983
0.0129833
0.012984
0.0129843
0.012985
0.0129853
0.012986
0.0129863
0.0129869
0.0129872
0.0129879
0.0129882
0.0129888
0.0129891
0.0129897
0.01299
0.0129906
0.0129909
0.0129914
0.0129917
0.0129923
0.0129926
0.0129931
0.0129934
0.0129939
0.0129942
0.0129947
0.012995
0.0129955
0.0129958
0.0129963
0.0129965
0.012997
0.0129973
0.0129977
0.012998
0.0129984
0.0129987
0.0129991
0.0129994
0.0129998
0.013
0.0130004
0.0130007
0.0130011
0.0130013
0.0130017
0.0130019
0.0130023
0.0130025
0.0130029
0.013003
0.0130034
0.0130036
0.0130039
0.0130041
0.0130043
0.0130044
0.0130015
0.0122164
0.0128829
0.0129337
0.0129444
0.0129535
0.0129636
0.0129688
0.0129726
0.0129752
0.0129805
0.0129863
0.012994
0.0130002
0.0130064
0.0130102
0.013014
0.0130159
0.0130181
0.013019
0.0130204
0.013021
0.0130222
0.0130226
0.0130237
0.0130242
0.0130252
0.0130257
0.0130267
0.0130271
0.0130282
0.0130286
0.0130296
0.01303
0.013031
0.0130314
0.0130323
0.0130327
0.0130337
0.0130341
0.013035
0.0130354
0.0130363
0.0130367
0.0130375
0.0130379
0.0130387
0.0130392
0.0130399
0.0130404
0.0130411
0.0130415
0.0130423
0.0130427
0.0130434
0.0130438
0.0130445
0.0130449
0.0130456
0.013046
0.0130466
0.013047
0.0130476
0.013048
0.0130486
0.013049
0.0130495
0.0130499
0.0130505
0.0130508
0.0130514
0.0130517
0.0130522
0.0130526
0.0130531
0.0130534
0.0130539
0.0130542
0.0130547
0.013055
0.0130555
0.0130557
0.0130562
0.0130564
0.0130569
0.0130571
0.0130575
0.0130577
0.0130581
0.0130588
0.0130548
0.0128007
0.013242
0.0132627
0.0132686
0.0132734
0.0132796
0.0132815
0.0132846
0.0132857
0.0132902
0.0132933
0.013299
0.013302
0.0133066
0.0133082
0.0133113
0.0133119
0.0133141
0.0133142
0.013316
0.013316
0.0133176
0.0133175
0.013319
0.013319
0.0133204
0.0133204
0.0133218
0.0133218
0.013323
0.0133231
0.0133243
0.0133243
0.0133255
0.0133255
0.0133267
0.0133267
0.0133278
0.0133279
0.0133289
0.013329
0.01333
0.0133301
0.013331
0.0133311
0.013332
0.0133321
0.013333
0.0133331
0.0133339
0.0133341
0.0133349
0.013335
0.0133358
0.0133359
0.0133366
0.0133368
0.0133375
0.0133376
0.0133383
0.0133385
0.0133391
0.0133393
0.0133399
0.0133401
0.0133407
0.0133408
0.0133414
0.0133416
0.0133422
0.0133423
0.0133429
0.013343
0.0133436
0.0133438
0.0133443
0.0133444
0.013345
0.0133451
0.0133456
0.0133458
0.0133463
0.0133465
0.013347
0.0133471
0.0133477
0.0133478
0.0133482
0.0133489
0.0133493
0.0133773
0.0135561
0.0135609
0.0135622
0.0135633
0.0135655
0.0135647
0.0135661
0.013565
0.0135675
0.0135671
0.0135702
0.0135696
0.0135722
0.013571
0.013573
0.0135714
0.013573
0.0135713
0.0135727
0.013571
0.0135723
0.0135707
0.0135719
0.0135704
0.0135715
0.0135701
0.0135711
0.0135698
0.0135707
0.0135695
0.0135704
0.0135692
0.0135701
0.013569
0.0135697
0.0135687
0.0135694
0.0135685
0.0135691
0.0135682
0.0135689
0.013568
0.0135686
0.0135678
0.0135684
0.0135676
0.0135681
0.0135674
0.0135679
0.0135673
0.0135677
0.0135672
0.0135676
0.013567
0.0135675
0.0135669
0.0135673
0.0135669
0.0135673
0.0135668
0.0135672
0.0135668
0.0135672
0.0135668
0.0135672
0.0135668
0.0135672
0.0135669
0.0135672
0.013567
0.0135673
0.0135671
0.0135675
0.0135673
0.0135676
0.0135674
0.0135678
0.0135677
0.0135681
0.013568
0.0135684
0.0135683
0.0135688
0.0135687
0.0135693
0.0135692
0.0135702
0.0135689
0.0135698
0.00602934
0.00627046
0.00629992
0.00631432
0.006329
0.00634139
0.00635169
0.00636415
0.00637212
0.00638407
0.00638889
0.00639869
0.00640024
0.00640774
0.00640715
0.00641317
0.00641148
0.00641672
0.00641454
0.00641932
0.00641692
0.00642136
0.0064189
0.00642302
0.00642056
0.00642438
0.00642196
0.00642551
0.00642315
0.00642643
0.00642416
0.00642719
0.00642502
0.00642782
0.00642574
0.00642833
0.00642636
0.00642876
0.00642689
0.00642911
0.00642735
0.00642941
0.00642775
0.00642966
0.0064281
0.00642989
0.00642843
0.00643009
0.00642872
0.00643028
0.006429
0.00643047
0.00642927
0.00643065
0.00642954
0.00643085
0.00642981
0.00643105
0.00643009
0.00643128
0.00643039
0.00643153
0.00643072
0.00643181
0.00643106
0.00643213
0.00643144
0.00643249
0.00643186
0.0064329
0.00643232
0.00643336
0.00643284
0.00643388
0.00643341
0.00643446
0.00643405
0.00643513
0.00643476
0.00643588
0.00643555
0.0064367
0.00643643
0.0064376
0.00643738
0.00643857
0.00643828
0.00643981
0.00643844
0.00643931
0.00578803
0.00639984
0.00647712
0.00650098
0.00651689
0.0065308
0.00654143
0.00655309
0.00656228
0.00657319
0.0065806
0.00658933
0.00659397
0.00660018
0.00660265
0.00660721
0.00660861
0.00661225
0.00661324
0.00661647
0.00661733
0.00662035
0.00662115
0.00662404
0.00662482
0.00662759
0.00662836
0.00663102
0.00663179
0.00663435
0.00663511
0.00663757
0.00663833
0.0066407
0.00664146
0.00664375
0.0066445
0.00664671
0.00664746
0.00664959
0.00665034
0.0066524
0.00665314
0.00665512
0.00665587
0.00665777
0.00665851
0.00666035
0.00666109
0.00666286
0.00666358
0.00666529
0.006666
0.00666765
0.00666835
0.00666994
0.00667063
0.00667215
0.00667283
0.00667429
0.00667495
0.00667636
0.00667701
0.00667836
0.00667899
0.00668029
0.0066809
0.00668215
0.00668273
0.00668395
0.0066845
0.00668567
0.0066862
0.00668733
0.00668784
0.00668893
0.00668941
0.00669047
0.00669092
0.00669195
0.00669238
0.00669337
0.00669377
0.00669473
0.00669511
0.00669601
0.00669642
0.00669695
0.00669787
0.00669937
0.00521265
0.00605578
0.00618702
0.00622078
0.00623757
0.00625069
0.00625971
0.00626831
0.00627567
0.00628401
0.00629117
0.00629839
0.00630363
0.00630846
0.0063115
0.00631441
0.0063161
0.00631801
0.00631911
0.00632061
0.0063215
0.00632284
0.00632368
0.00632496
0.00632578
0.00632702
0.00632783
0.00632904
0.00632984
0.00633102
0.00633182
0.00633297
0.00633377
0.00633489
0.00633568
0.00633678
0.00633756
0.00633864
0.00633941
0.00634046
0.00634123
0.00634226
0.00634301
0.00634402
0.00634476
0.00634575
0.00634648
0.00634744
0.00634817
0.0063491
0.00634982
0.00635073
0.00635143
0.00635232
0.006353
0.00635386
0.00635453
0.00635537
0.00635602
0.00635684
0.00635747
0.00635826
0.00635888
0.00635964
0.00636024
0.00636098
0.00636156
0.00636227
0.00636283
0.00636352
0.00636405
0.00636471
0.00636522
0.00636586
0.00636635
0.00636696
0.00636743
0.00636802
0.00636846
0.00636902
0.00636944
0.00636997
0.00637037
0.00637088
0.00637124
0.00637173
0.00637205
0.00637251
0.00637313
0.00637193
0.00499888
0.00589911
0.00605054
0.00608299
0.00609864
0.00610857
0.0061162
0.00612105
0.0061264
0.00613174
0.00613804
0.00614376
0.00614898
0.0061529
0.0061559
0.0061579
0.00615931
0.00616023
0.00616088
0.00616138
0.00616175
0.00616213
0.00616244
0.0061628
0.0061631
0.00616347
0.00616377
0.00616416
0.00616445
0.00616485
0.00616515
0.00616555
0.00616585
0.00616626
0.00616656
0.00616697
0.00616727
0.00616768
0.00616797
0.00616838
0.00616868
0.00616908
0.00616938
0.00616978
0.00617007
0.00617047
0.00617076
0.00617115
0.00617144
0.00617182
0.00617211
0.00617249