/*--------------------------------*- C++ -*----------------------------------*\
  =========                 |
  \\      /  F ield         | OpenFOAM: The Open Source CFD Toolbox
   \\    /   O peration     | Website:  https://openfoam.org
    \\  /    A nd           | Version:  7
     \\/     M anipulation  |
\*---------------------------------------------------------------------------*/
FoamFile
{
    version     2.0;
    format      ascii;
    class       surfaceScalarField;
    location    "1.0275";
    object      phi_0;
}
// * * * * * * * * * * * * * * * * * * * * * * * * * * * * * * * * * * * * * //

dimensions      [1 0 -1 0 0 0 0];

internalField   nonuniform List<scalar> 
13265
(
0.00258472
0.00108334
1.34899e-05
0.00198016
0.000595439
6.94084e-06
0.00158525
0.00038109
1.17028e-05
0.00138057
0.000195391
7.20499e-06
0.00125809
0.00010936
1.10591e-05
0.00118203
6.65549e-05
7.44656e-06
0.00112607
4.33591e-05
1.05089e-05
0.00108469
3.172e-05
7.52953e-06
0.00104924
2.33084e-05
9.97976e-06
0.00102111
1.84092e-05
7.53448e-06
0.000995336
1.40746e-05
9.5033e-06
0.000974376
1.12546e-05
7.49874e-06
0.000954554
8.54304e-06
9.07737e-06
0.000937957
6.97738e-06
7.43292e-06
0.00092207
5.03547e-06
8.69144e-06
0.000907543
5.06098e-06
7.34299e-06
0.000889084
8.02403e-06
8.34903e-06
0.000882182
-2.36509e-06
7.22479e-06
0.000777112
9.48195e-05
8.23691e-06
6.02811e-05
6.78792e-06
0.000708091
0.00384654
0.000914548
3.31348e-06
0.00380036
0.000642206
-2.6552e-06
0.00365605
0.000521537
1.9011e-06
0.00350683
0.00034532
-2.596e-06
0.00337125
0.000241899
1.24365e-06
0.00325981
0.000178636
-2.38663e-06
0.00316413
0.000136608
6.73246e-07
0.00308631
0.000109986
-2.31327e-06
0.00301792
8.95788e-05
1.37196e-07
0.00296178
7.47438e-05
-2.3115e-06
0.00291122
6.27622e-05
-3.44609e-07
0.00286904
5.34812e-05
-2.34899e-06
0.00283089
4.5122e-05
-7.7947e-07
0.00279757
4.03364e-05
-2.41385e-06
0.0027702
3.12148e-05
-1.18851e-06
0.00274173
3.37206e-05
-2.49803e-06
0.00273213
1.70067e-05
-1.6244e-06
0.00270481
2.54742e-05
-2.64082e-06
0.00278598
1.38851e-05
-2.27981e-06
-3.56919e-05
-3.63626e-06
0.00288365
0.00406541
0.000518938
1.16172e-05
0.00430744
0.000391812
6.31282e-06
0.00445524
0.000361086
1.06941e-05
0.00453065
0.000261792
6.21758e-06
0.00456034
0.000200351
1.00374e-05
0.0045723
0.000158565
6.42853e-06
0.00456937
0.000128436
9.50436e-06
0.00456334
0.000107851
6.53471e-06
0.00455091
9.12203e-05
8.99416e-06
0.00453909
7.80237e-05
6.55415e-06
0.00452358
6.75806e-05
8.52783e-06
0.00451041
5.78267e-05
6.52507e-06
0.00449378
5.12218e-05
8.11041e-06
0.0044817
4.34039e-05
6.46258e-06
0.00446259
3.99107e-05
7.74145e-06
0.00445353
3.36641e-05
6.37342e-06
0.00442452
3.57962e-05
7.46241e-06
0.00441256
2.84959e-05
6.26817e-06
0.00435577
6.05571e-05
7.60037e-06
5.92905e-05
6.13543e-06
0.00425227
0.00402137
0.000175702
2.88816e-06
0.00427913
0.000134392
-2.40231e-06
0.00450952
0.000126834
1.90401e-06
0.00467758
9.44107e-05
-2.5963e-06
0.00480078
7.41057e-05
1.20234e-06
0.00489929
6.07885e-05
-2.43521e-06
0.00497441
5.11229e-05
6.32135e-07
0.00503833
4.47281e-05
-2.35147e-06
0.00508859
3.91907e-05
1.04572e-07
0.00513205
3.50121e-05
-2.34196e-06
0.00516692
3.09769e-05
-3.74522e-07
0.00519671
2.81559e-05
-2.37674e-06
0.00522197
2.43927e-05
-8.10079e-07
0.00524188
2.34428e-05
-2.44004e-06
0.0052625
1.7856e-05
-1.22648e-06
0.0052752
2.06438e-05
-2.53266e-06
0.00530087
8.87203e-06
-1.70695e-06
0.00531405
1.50238e-05
-2.74199e-06
0.00537884
-4.50624e-06
-2.61655e-06
-2.17318e-05
-3.70619e-06
0.00546078
0.00402144
-0.000175702
1.13576e-05
0.00428176
-0.000134392
6.41486e-06
0.0045228
-0.000126834
1.06703e-05
0.00470349
-9.44092e-05
6.21014e-06
0.00483985
-7.41051e-05
1.00045e-05
0.00495333
-6.07854e-05
6.392e-06
0.00504455
-5.11207e-05
9.46968e-06
0.00512597
-4.47214e-05
6.50237e-06
0.00519374
-3.91819e-05
8.9651e-06
0.00525536
-3.49958e-05
6.52702e-06
0.0053067
-3.09478e-05
8.50201e-06
0.00535422
-2.81057e-05
6.50027e-06
0.0053925
-2.43202e-05
8.0871e-06
0.00543031
-2.32654e-05
6.43994e-06
0.00545554
-1.77114e-05
7.72506e-06
0.00548706
-2.00605e-05
6.35355e-06
0.00549404
-8.56256e-06
7.47245e-06
0.00551319
-1.34864e-05
6.25067e-06
0.0054922
5.7993e-06
7.69506e-06
2.51864e-05
6.20732e-06
0.00543617
0.00402137
-0.000518937
2.88816e-06
0.00427913
-0.000391811
-2.40231e-06
0.00450952
-0.000361085
1.90401e-06
0.00467758
-0.00026179
-2.5963e-06
0.00480078
-0.00020035
1.20234e-06
0.00489929
-0.000158563
-2.43522e-06
0.00497441
-0.000128434
6.32136e-07
0.00503834
-0.000107845
-2.35147e-06
0.00508859
-9.1212e-05
1.04574e-07
0.00513205
-7.80098e-05
-2.34196e-06
0.00516693
-6.75544e-05
-3.74522e-07
0.00519672
-5.77838e-05
-2.37675e-06
0.005222
-5.11582e-05
-8.1009e-07
0.00524193
-4.32497e-05
-2.44008e-06
0.00526257
-3.97902e-05
-1.22652e-06
0.00527534
-3.31529e-05
-2.5328e-06
0.00530107
-3.55421e-05
-1.70701e-06
0.0053144
-2.71057e-05
-2.74239e-06
0.0053794
-5.94774e-05
-2.61575e-06
-5.62486e-05
-3.70682e-06
0.00546176
0.00406541
-0.000914548
1.16172e-05
0.00430744
-0.000642205
6.31282e-06
0.00445524
-0.000521537
1.06941e-05
0.00453065
-0.000345319
6.21758e-06
0.00456034
-0.000241899
1.00374e-05
0.0045723
-0.000178634
6.42853e-06
0.00456937
-0.000136606
9.50436e-06
0.00456334
-0.000109983
6.53471e-06
0.00455092
-8.95722e-05
8.99416e-06
0.0045391
-7.4735e-05
6.55414e-06
0.0045236
-6.27428e-05
8.52783e-06
0.00451044
-5.34527e-05
6.52508e-06
0.00449383
-4.5078e-05
8.1104e-06
0.0044818
-4.02291e-05
6.46262e-06
0.00446274
-3.11401e-05
7.74141e-06
0.00445381
-3.33559e-05
6.37353e-06
0.00442493
-1.68724e-05
7.46233e-06
0.00441339
-2.45088e-05
6.26835e-06
0.0043571
-1.32965e-05
7.59979e-06
3.75241e-05
6.135e-06
0.00425481
0.00384654
-0.00108333
3.31348e-06
0.00380036
-0.000595439
-2.6552e-06
0.00365605
-0.000381089
1.9011e-06
0.00350683
-0.00019539
-2.596e-06
0.00337125
-0.00010936
1.24365e-06
0.00325982
-6.65541e-05
-2.38663e-06
0.00316414
-4.33579e-05
6.73247e-07
0.00308632
-3.17186e-05
-2.31328e-06
0.00301792
-2.33053e-05
1.372e-07
0.00296179
-1.84065e-05
-2.3115e-06
0.00291124
-1.40659e-05
-3.44604e-07
0.00286909
-1.12466e-05
-2.34901e-06
0.00283096
-8.52173e-06
-7.79468e-07
0.00279771
-6.94411e-06
-2.41391e-06
0.00277039
-4.99588e-06
-1.18849e-06
0.00274215
-4.94443e-06
-2.49826e-06
0.00273261
-7.93024e-06
-1.62419e-06
0.0027059
2.69426e-06
-2.64162e-06
0.00278723
-9.43736e-05
-2.27798e-06
-5.94167e-05
-3.63859e-06
0.00288587
0.00258472
1.34899e-05
0.00198016
6.94084e-06
0.00158525
1.17028e-05
0.00138057
7.20499e-06
0.00125809
1.10591e-05
0.00118203
7.44656e-06
0.00112607
1.05089e-05
0.00108469
7.52953e-06
0.00104925
9.97976e-06
0.00102112
7.53449e-06
0.000995353
9.50328e-06
0.000974401
7.49876e-06
0.0009546
9.07733e-06
0.000938037
7.433e-06
0.00092219
8.6913e-06
0.000907778
7.3432e-06
0.000889415
8.34868e-06
0.000882837
7.22531e-06
0.000778223
8.23599e-06
6.78838e-06
0.000710043
0.0033636
0.000327034
3.29931e-06
0.00280113
0.000562165
5.09663e-06
0.00231049
0.000497915
2.37642e-06
0.00195704
0.000354806
3.8589e-06
0.00172577
0.000238273
2.09972e-06
0.00157471
0.000153238
3.29607e-06
0.00147717
0.000103876
2.13105e-06
0.00140564
7.39163e-05
3.05575e-06
0.00135471
5.6538e-05
2.2217e-06
0.00131134
4.58436e-05
2.88098e-06
0.00127801
3.83578e-05
2.27961e-06
0.00124724
3.33586e-05
2.71774e-06
0.00122262
2.92015e-05
2.30754e-06
0.00119912
2.61866e-05
2.57666e-06
0.00118077
2.25918e-05
2.3276e-06
0.00116098
2.25843e-05
2.46616e-06
0.00116011
4.82993e-06
2.35044e-06
0.00113267
3.0298e-05
2.39269e-06
0.0012778
-0.000141113
2.25524e-06
-0.000127728
2.52331e-06
0.00140792
0.00380343
0.000199644
8.05728e-06
0.00387358
0.000477705
9.58661e-06
0.00387318
0.00049067
7.56226e-06
0.00380693
0.000408032
8.54232e-06
0.00372372
0.000313673
7.26324e-06
0.00363355
0.000231276
8.05348e-06
0.00355351
0.000175581
7.28256e-06
0.00347837
0.000137057
7.83973e-06
0.0034147
0.000110981
7.34917e-06
0.00335568
9.27072e-05
7.68225e-06
0.0033055
7.85362e-05
7.37402e-06
0.00325908
6.7488e-05
7.5374e-06
0.00321841
5.92281e-05
7.36882e-06
0.00318225
4.99845e-05
7.41079e-06
0.00314639
4.7378e-05
7.36016e-06
0.00312096
3.57635e-05
7.30609e-06
0.00307773
3.67024e-05
7.38352e-06
0.00306788
2.80628e-05
7.23986e-06
0.00293445
-1.95965e-05
7.53857e-06
3.18791e-05
7.58036e-06
0.00276168
0.00379772
9.06033e-05
3.38115e-06
0.00399843
0.00027607
5.16813e-06
0.00417935
0.000315871
2.59429e-06
0.00430478
0.000282802
4.09264e-06
0.00438904
0.00023539
2.25597e-06
0.00443438
0.000187217
3.49162e-06
0.00446234
0.000153269
2.25103e-06
0.00447346
0.000127577
3.21992e-06
0.00447981
0.000109414
2.34732e-06
0.00447825
9.57116e-05
3.04404e-06
0.00447634
8.43143e-05
2.42457e-06
0.0044694
7.56942e-05
2.89073e-06
0.00446464
6.71056e-05
2.47062e-06
0.00445419
6.1467e-05
2.76042e-06
0.00445102
5.29682e-05
2.4996e-06
0.00443654
5.10902e-05
2.65806e-06
0.00444351
3.18573e-05
2.49193e-06
0.00443057
4.19675e-05
2.58637e-06
0.0044581
-4.42956e-05
2.22376e-06
-2.8486e-05
2.59275e-06
0.00451961
0.00372485
4.14876e-05
7.91761e-06
0.00389631
9.06792e-05
9.4746e-06
0.00410898
9.55666e-05
7.55388e-06
0.00429132
8.73704e-05
8.5705e-06
0.00444565
7.31718e-05
7.27788e-06
0.00456133
5.94032e-05
8.0537e-06
0.00465731
4.90957e-05
7.26331e-06
0.0047316
4.15062e-05
7.81342e-06
0.00479605
3.59561e-05
7.31803e-06
0.00484803
3.1719e-05
7.65099e-06
0.00489413
2.83094e-05
7.34337e-06
0.00493258
2.5049e-05
7.5075e-06
0.00496592
2.317e-05
7.3417e-06
0.0049955
1.94667e-05
7.38371e-06
0.00501677
2.03174e-05
7.34008e-06
0.00504063
1.44386e-05
7.28564e-06
0.00503995
2.03917e-05
7.38573e-06
0.00505414
1.47629e-05
7.25685e-06
0.00497847
1.8263e-05
7.66616e-06
4.62644e-05
7.63239e-06
0.00488967
0.00377141
-4.14877e-05
3.36261e-06
0.00395196
-9.06789e-05
5.16222e-06
0.00414913
-9.55668e-05
2.64811e-06
0.004324
-8.73693e-05
4.14882e-06
0.00447622
-7.31718e-05
2.30524e-06
0.00459623
-5.94002e-05
3.53473e-06
0.00470005
-4.90946e-05
2.28124e-06
0.00478471
-4.14987e-05
3.24581e-06
0.00486143
-3.59498e-05
2.3696e-06
0.0049263
-3.1699e-05
3.0647e-06
0.00498676
-2.8286e-05
2.44634e-06
0.00503809
-2.49926e-05
2.91125e-06
0.00508753
-2.31035e-05
2.49363e-06
0.00512738
-1.9295e-05
2.78187e-06
0.00517026
-2.0152e-05
2.52118e-06
0.00519931
-1.39203e-05
2.68015e-06
0.00524152
-1.99369e-05
2.49647e-06
0.00527018
-1.33806e-05
2.61101e-06
0.00530773
-1.6687e-05
2.17687e-06
-4.29533e-05
2.59799e-06
0.00539773
0.00372485
-9.06033e-05
7.91761e-06
0.00389631
-0.00027607
9.4746e-06
0.00410898
-0.000315871
7.55388e-06
0.00429132
-0.000282801
8.5705e-06
0.00444565
-0.00023539
7.27788e-06
0.00456133
-0.000187215
8.0537e-06
0.00465731
-0.000153267
7.26331e-06
0.0047316
-0.00012757
7.81342e-06
0.00479605
-0.000109408
7.31803e-06
0.00484803
-9.56934e-05
7.65099e-06
0.00489413
-8.42931e-05
7.34337e-06
0.00493259
-7.56422e-05
7.50751e-06
0.00496594
-6.70472e-05
7.3417e-06
0.00499553
-6.13077e-05
7.38373e-06
0.00501682
-5.28274e-05
7.34009e-06
0.00504072
-5.06134e-05
7.2857e-06
0.00504013
-3.1478e-05
7.38569e-06
0.00505446
-4.07372e-05
7.25702e-06
0.00497903
4.56323e-05
7.66567e-06
3.13696e-05
7.63243e-06
0.00489066
0.00379772
-0.000199644
3.38115e-06
0.00399843
-0.000477705
5.16813e-06
0.00417935
-0.00049067
2.59429e-06
0.00430478
-0.000408032
4.09264e-06
0.00438904
-0.000313672
2.25598e-06
0.00443438
-0.000231274
3.49162e-06
0.00446234
-0.000175579
2.25103e-06
0.00447346
-0.000137052
3.21992e-06
0.00447981
-0.000110975
2.34732e-06
0.00447826
-9.26956e-05
3.04404e-06
0.00447635
-7.85175e-05
2.42457e-06
0.00446943
-6.74538e-05
2.89073e-06
0.00446469
-5.91799e-05
2.47064e-06
0.00445428
-4.9875e-05
2.7604e-06
0.00445115
-4.7269e-05
2.49963e-06
0.0044368
-3.54262e-05
2.65798e-06
0.00444387
-3.64169e-05
2.49195e-06
0.00443126
-2.7171e-05
2.5862e-06
0.00445914
2.05898e-05
2.22397e-06
-2.96318e-05
2.5923e-06
0.00452128
0.00380343
-0.000327034
8.05728e-06
0.00387358
-0.000562165
9.58661e-06
0.00387318
-0.000497915
7.56226e-06
0.00380693
-0.000354806
8.54232e-06
0.00372372
-0.000238272
7.26324e-06
0.00363355
-0.000153237
8.05348e-06
0.00355351
-0.000103875
7.28256e-06
0.00347837
-7.39144e-05
7.83974e-06
0.00341471
-5.65346e-05
7.34917e-06
0.0033557
-4.58387e-05
7.68225e-06
0.00330552
-3.83481e-05
7.37402e-06
0.00325912
-3.33434e-05
7.53742e-06
0.00321848
-2.91785e-05
7.36881e-06
0.00318238
-2.61344e-05
7.41085e-06
0.00314659
-2.2548e-05
7.36011e-06
0.00312131
-2.24157e-05
7.30627e-06
0.00307829
-4.74516e-06
7.38327e-06
0.00306888
-2.98554e-05
7.24031e-06
0.00293619
0.000141385
7.53734e-06
0.000128173
7.58128e-06
0.00276521
0.0033636
3.29931e-06
0.00280113
5.09663e-06
0.00231049
2.37642e-06
0.00195704
3.8589e-06
0.00172577
2.09972e-06
0.00157471
3.29608e-06
0.00147718
2.13105e-06
0.00140564
3.05576e-06
0.00135472
2.22171e-06
0.00131135
2.88098e-06
0.00127804
2.27963e-06
0.00124727
2.71772e-06
0.00122268
2.30759e-06
0.00119923
2.57662e-06
0.00118092
2.32769e-06
0.00116131
2.4661e-06
0.00116053
2.35049e-06
0.00113352
2.39269e-06
0.00127895
2.25511e-06
2.52303e-06
0.00140948
0.00354875
0.00013802
-3.29933e-06
0.00329666
0.000260178
-5.09666e-06
0.00298978
0.000309633
-2.37645e-06
0.00268952
0.000306082
-3.85892e-06
0.00241705
0.00027484
-2.09974e-06
0.00218995
0.000231832
-3.2961e-06
0.00200567
0.00018656
-2.13107e-06
0.00186407
0.000145591
-3.05578e-06
0.00175482
0.00011148
-2.22172e-06
0.00167381
8.45253e-05
-2.88101e-06
0.00161182
6.43049e-05
-2.27964e-06
0.00156558
4.94745e-05
-2.71776e-06
0.00152957
3.8454e-05
-2.30757e-06
0.00150085
3.17431e-05
-2.57669e-06
0.00147965
2.37618e-05
-2.32763e-06
0.00145751
2.50387e-05
-2.46619e-06
0.00144967
1.05351e-05
-2.35047e-06
0.00142716
2.53486e-05
-2.39272e-06
0.00144285
-1.31361e-05
-2.25526e-06
-1.89041e-05
-2.52334e-06
0.00146492
0.00374543
8.88681e-05
-8.05731e-06
0.00383488
0.000187837
-9.58664e-06
0.00390312
0.000254536
-7.56229e-06
0.00394144
0.000282949
-8.54235e-06
0.00394662
0.00028244
-7.26327e-06
0.00393138
0.000261546
-8.05351e-06
0.00389956
0.000231288
-7.28259e-06
0.00386098
0.000198033
-7.83976e-06
0.00381715
0.000167989
-7.3492e-06
0.00377354
0.000141309
-7.68228e-06
0.0037297
0.000120537
-7.37405e-06
0.00368871
0.000103014
-7.53743e-06
0.00364914
9.00987e-05
-7.36885e-06
0.00361345
7.95241e-05
-7.41082e-06
0.00357943
6.97814e-05
-7.36019e-06
0.00354972
6.6753e-05
-7.30611e-06
0.00352156
5.09802e-05
-7.38355e-06
0.00349562
6.34839e-05
-7.23989e-06
0.00347136
2.40649e-05
-7.5386e-06
5.28248e-05
-7.58039e-06
0.00341288
0.00373179
4.40081e-05
-3.38118e-06
0.00382668
0.000101212
-5.16815e-06
0.00394002
0.000144406
-2.59432e-06
0.0040624
0.000166828
-4.09267e-06
0.0041752
0.000172392
-2.256e-06
0.00427634
0.000165786
-3.49165e-06
0.0043589
0.000151659
-2.25105e-06
0.00442651
0.000135167
-3.21994e-06
0.00447857
0.000118715
-2.34734e-06
0.00451961
0.000104247
-3.04406e-06
0.00455091
9.18345e-05
-2.42459e-06
0.00457525
8.20557e-05
-2.89076e-06
0.00459437
7.33296e-05
-2.47065e-06
0.00460876
6.7856e-05
-2.76045e-06
0.004621
5.95692e-05
-2.49963e-06
0.00463002
6.00361e-05
-2.65809e-06
0.00463813
4.48824e-05
-2.49196e-06
0.00464636
5.76232e-05
-2.5864e-06
0.00464976
2.24954e-05
-2.22379e-06
4.39924e-05
-2.59277e-06
0.00466131
0.00372052
1.94851e-05
-7.91764e-06
0.00380027
3.83457e-05
-9.47463e-06
0.0039064
5.13961e-05
-7.55391e-06
0.00403058
5.78708e-05
-8.57053e-06
0.00415576
5.99996e-05
-7.27791e-06
0.00427802
5.80475e-05
-8.05373e-06
0.00438836
5.4291e-05
-7.26334e-06
0.00448837
4.91089e-05
-7.81345e-06
0.00457541
4.44045e-05
-7.31806e-06
0.00465317
3.96863e-05
-7.65102e-06
0.00472129
3.61661e-05
-7.3434e-06
0.00478317
3.28333e-05
-7.50753e-06
0.00483816
3.0514e-05
-7.34173e-06
0.00488961
2.84573e-05
-7.38374e-06
0.00493453
2.63596e-05
-7.34011e-06
0.00497974
2.62846e-05
-7.28567e-06
0.00501429
2.19795e-05
-7.38576e-06
0.00505605
2.732e-05
-7.25688e-06
0.00507471
1.63742e-05
-7.66619e-06
3.33431e-05
-7.63242e-06
0.0050979
0.00372586
-1.94853e-05
-3.36264e-06
0.00381081
-3.83451e-05
-5.16224e-06
0.00391691
-5.13965e-05
-2.64813e-06
0.00403902
-5.78692e-05
-4.14885e-06
0.00416187
-6e-05
-2.30526e-06
0.00428344
-5.80435e-05
-3.53475e-06
0.00439503
-5.42901e-05
-2.28126e-06
0.00449806
-4.9099e-05
-3.24584e-06
0.00458969
-4.43977e-05
-2.36963e-06
0.00467307
-3.96609e-05
-3.06472e-06
0.00474803
-3.61426e-05
-2.44637e-06
0.00481711
-3.27616e-05
-2.91128e-06
0.00488058
-3.04557e-05
-2.49365e-06
0.00494014
-2.82416e-05
-2.7819e-06
0.00499483
-2.62333e-05
-2.52121e-06
0.00504903
-2.56794e-05
-2.68017e-06
0.00509447
-2.1624e-05
-2.4965e-06
0.00514979
-2.58951e-05
-2.61103e-06
0.00518269
-1.50123e-05
-2.17689e-06
-3.05172e-05
-2.59801e-06
0.00524898
0.00372052
-4.40082e-05
-7.91764e-06
0.00380027
-0.000101211
-9.47463e-06
0.0039064
-0.000144406
-7.55391e-06
0.00403058
-0.000166827
-8.57053e-06
0.00415576
-0.000172392
-7.27791e-06
0.00427802
-0.000165783
-8.05373e-06
0.00438836
-0.000151658
-7.26334e-06
0.00448837
-0.000135158
-7.81345e-06
0.00457541
-0.000118709
-7.31806e-06
0.00465317
-0.000104223
-7.65102e-06
0.00472129
-9.18131e-05
-7.3434e-06
0.00478318
-8.19871e-05
-7.50754e-06
0.00483818
-7.32773e-05
-7.34173e-06
0.00488963
-6.76508e-05
-7.38376e-06
0.00493457
-5.9459e-05
-7.34012e-06
0.00497982
-5.94629e-05
-7.28573e-06
0.00501441
-4.45751e-05
-7.38572e-06
0.00505626
-5.62842e-05
-7.25705e-06
0.00507506
-2.12848e-05
-7.6657e-06
-4.14068e-05
-7.63246e-06
0.0050985
0.00373179
-8.88681e-05
-3.38118e-06
0.00382668
-0.000187836
-5.16815e-06
0.00394002
-0.000254536
-2.59432e-06
0.0040624
-0.000282948
-4.09267e-06
0.0041752
-0.00028244
-2.256e-06
0.00427634
-0.000261543
-3.49165e-06
0.0043589
-0.000231287
-2.25105e-06
0.00442651
-0.000198026
-3.21994e-06
0.00447857
-0.000167983
-2.34734e-06
0.00451962
-0.00014129
-3.04406e-06
0.00455092
-0.000120519
-2.4246e-06
0.00457527
-0.000102959
-2.89075e-06
0.0045944
-9.00582e-05
-2.47066e-06
0.00460884
-7.93553e-05
-2.76042e-06
0.00462111
-6.97066e-05
-2.49965e-06
0.00463023
-6.628e-05
-2.65801e-06
0.00463844
-5.07768e-05
-2.49197e-06
0.00464692
-6.23969e-05
-2.58623e-06
0.00465064
-2.31773e-05
-2.224e-06
-5.08254e-05
-2.59232e-06
0.00466278
0.00374543
-0.00013802
-8.05731e-06
0.00383488
-0.000260178
-9.58664e-06
0.00390312
-0.000309633
-7.56229e-06
0.00394144
-0.000306082
-8.54235e-06
0.00394662
-0.000274839
-7.26327e-06
0.00393138
-0.000231831
-8.05351e-06
0.00389956
-0.000186558
-7.28259e-06
0.00386098
-0.000145588
-7.83976e-06
0.00381716
-0.000111474
-7.3492e-06
0.00377356
-8.45178e-05
-7.68228e-06
0.00372972
-6.42906e-05
-7.37405e-06
0.00368876
-4.945e-05
-7.53744e-06
0.0036492
-3.84265e-05
-7.36884e-06
0.0036136
-3.16588e-05
-7.41088e-06
0.00357962
-2.37204e-05
-7.36014e-06
0.00355012
-2.4788e-05
-7.3063e-06
0.00352208
-1.04406e-05
-7.3833e-06
0.00349664
-2.47771e-05
-7.24034e-06
0.00347282
1.35943e-05
-7.53736e-06
1.96944e-05
-7.58131e-06
0.00341555
0.00354875
-3.29933e-06
0.00329666
-5.09666e-06
0.00298978
-2.37645e-06
0.00268952
-3.85892e-06
0.00241705
-2.09974e-06
0.00218995
-3.2961e-06
0.00200567
-2.13107e-06
0.00186408
-3.05578e-06
0.00175484
-2.22173e-06
0.00167383
-2.881e-06
0.00161186
-2.27965e-06
0.00156563
-2.71775e-06
0.00152965
-2.30761e-06
0.00150102
-2.57665e-06
0.00147986
-2.32771e-06
0.00145797
-2.46613e-06
0.00145023
-2.35051e-06
0.00142827
-2.39272e-06
0.00144447
-2.25514e-06
-2.52306e-06
0.00146728
0.0033636
0.000327034
-1.34899e-05
0.00280113
0.000562165
-6.94085e-06
0.00231049
0.000497915
-1.17028e-05
0.00195704
0.000354806
-7.205e-06
0.00172577
0.000238273
-1.10591e-05
0.00157471
0.000153238
-7.44657e-06
0.00147717
0.000103876
-1.05089e-05
0.00140564
7.39163e-05
-7.52954e-06
0.00135471
5.6538e-05
-9.97977e-06
0.00131134
4.58437e-05
-7.53449e-06
0.00127801
3.83578e-05
-9.50331e-06
0.00124724
3.33586e-05
-7.49875e-06
0.00122262
2.92016e-05
-9.07738e-06
0.00119912
2.61867e-05
-7.43293e-06
0.00118077
2.25919e-05
-8.69146e-06
0.00116098
2.25844e-05
-7.34301e-06
0.00116011
4.82999e-06
-8.34904e-06
0.00113267
3.0298e-05
-7.2248e-06
0.0012778
-0.000141113
-8.23692e-06
-0.000127728
-6.78794e-06
0.00140792
0.00380343
0.000199644
-3.31349e-06
0.00387358
0.000477705
2.65519e-06
0.00387318
0.00049067
-1.90111e-06
0.00380693
0.000408032
2.59599e-06
0.00372372
0.000313673
-1.24366e-06
0.00363355
0.000231276
2.38662e-06
0.00355351
0.000175581
-6.73258e-07
0.00347837
0.000137057
2.31326e-06
0.0034147
0.000110981
-1.3721e-07
0.00335568
9.27073e-05
2.31148e-06
0.0033055
7.85363e-05
3.44595e-07
0.00325908
6.74882e-05
2.34898e-06
0.00321841
5.92282e-05
7.79455e-07
0.00318225
4.99847e-05
2.41384e-06
0.00314639
4.73782e-05
1.1885e-06
0.00312096
3.57636e-05
2.49802e-06
0.00307773
3.67025e-05
1.62438e-06
0.00306788
2.80628e-05
2.6408e-06
0.00293445
-1.95965e-05
2.2798e-06
3.18791e-05
3.63624e-06
0.00276168
0.00379772
9.06033e-05
-1.16172e-05
0.00399843
0.00027607
-6.31283e-06
0.00417935
0.000315871
-1.06941e-05
0.00430478
0.000282802
-6.21759e-06
0.00438904
0.00023539
-1.00374e-05
0.00443438
0.000187217
-6.42855e-06
0.00446234
0.000153269
-9.50437e-06
0.00447346
0.000127577
-6.53472e-06
0.00447981
0.000109414
-8.99417e-06
0.00447825
9.57118e-05
-6.55416e-06
0.00447634
8.43145e-05
-8.52785e-06
0.0044694
7.56943e-05
-6.52509e-06
0.00446464
6.71057e-05
-8.11042e-06
0.00445419
6.14671e-05
-6.4626e-06
0.00445102
5.29682e-05
-7.74146e-06
0.00443654
5.10902e-05
-6.37343e-06
0.00444351
3.18572e-05
-7.46243e-06
0.00443057
4.19674e-05
-6.26818e-06
0.0044581
-4.42957e-05
-7.60039e-06
-2.84861e-05
-6.13545e-06
0.00451961
0.00372485
4.14877e-05
-2.88818e-06
0.00389631
9.06793e-05
2.4023e-06
0.00410898
9.55667e-05
-1.90403e-06
0.00429132
8.73704e-05
2.59629e-06
0.00444565
7.31718e-05
-1.20235e-06
0.00456133
5.94033e-05
2.4352e-06
0.00465731
4.90959e-05
-6.32148e-07
0.0047316
4.15065e-05
2.35145e-06
0.00479605
3.59563e-05
-1.04586e-07
0.00484803
3.17192e-05
2.34194e-06
0.00489413
2.83096e-05
3.74508e-07
0.00493258
2.50491e-05
2.37672e-06
0.00496592
2.31701e-05
8.10065e-07
0.0049955
1.94668e-05
2.44002e-06
0.00501677
2.03174e-05
1.22646e-06
0.00504063
1.44386e-05
2.53264e-06
0.00503995
2.03916e-05
1.70693e-06
0.00505414
1.47627e-05
2.74197e-06
0.00497847
1.82627e-05
2.61654e-06
4.62642e-05
3.70618e-06
0.00488967
0.00377141
-4.14877e-05
-1.13576e-05
0.00395196
-9.06788e-05
-6.41487e-06
0.00414913
-9.55668e-05
-1.06703e-05
0.004324
-8.73693e-05
-6.21015e-06
0.00447622
-7.31717e-05
-1.00045e-05
0.00459623
-5.94001e-05
-6.39202e-06
0.00470005
-4.90945e-05
-9.46969e-06
0.00478471
-4.14984e-05
-6.50238e-06
0.00486143
-3.59495e-05
-8.96511e-06
0.0049263
-3.16988e-05
-6.52703e-06
0.00498676
-2.82858e-05
-8.50202e-06
0.00503809
-2.49925e-05
-6.50028e-06
0.00508753
-2.31034e-05
-8.08711e-06
0.00512738
-1.9295e-05
-6.43996e-06
0.00517026
-2.01519e-05
-7.72507e-06
0.00519931
-1.39203e-05
-6.35357e-06
0.00524152
-1.9937e-05
-7.47246e-06
0.00527018
-1.33808e-05
-6.25069e-06
0.00530773
-1.66872e-05
-7.69508e-06
-4.29534e-05
-6.20733e-06
0.00539773
0.00372485
-9.06033e-05
-2.88818e-06
0.00389631
-0.00027607
2.4023e-06
0.00410898
-0.000315871
-1.90403e-06
0.00429132
-0.000282801
2.59629e-06
0.00444565
-0.00023539
-1.20235e-06
0.00456133
-0.000187215
2.4352e-06
0.00465731
-0.000153267
-6.32149e-07
0.0047316
-0.00012757
2.35146e-06
0.00479605
-0.000109408
-1.04587e-07
0.00484803
-9.56932e-05
2.34195e-06
0.00489413
-8.42929e-05
3.74508e-07
0.00493259
-7.56421e-05
2.37673e-06
0.00496594
-6.70472e-05
8.10075e-07
0.00499553
-6.13076e-05
2.44006e-06
0.00501682
-5.28273e-05
1.22651e-06
0.00504072
-5.06134e-05
2.53278e-06
0.00504013
-3.14781e-05
1.70699e-06
0.00505446
-4.07373e-05
2.74237e-06
0.00497903
4.56322e-05
2.61574e-06
3.13696e-05
3.7068e-06
0.00489066
0.00379772
-0.000199644
-1.16172e-05
0.00399843
-0.000477705
-6.31283e-06
0.00417935
-0.00049067
-1.06941e-05
0.00430478
-0.000408032
-6.21759e-06
0.00438904
-0.000313672
-1.00374e-05
0.00443438
-0.000231274
-6.42855e-06
0.00446234
-0.000175579
-9.50437e-06
0.00447346
-0.000137052
-6.53472e-06
0.00447981
-0.000110975
-8.99417e-06
0.00447826
-9.26955e-05
-6.55416e-06
0.00447635
-7.85174e-05
-8.52784e-06
0.00446943
-6.74537e-05
-6.52509e-06
0.00446469
-5.91798e-05
-8.11041e-06
0.00445428
-4.98749e-05
-6.46263e-06
0.00445115
-4.72688e-05
-7.74142e-06
0.0044368
-3.5426e-05
-6.37355e-06
0.00444387
-3.64168e-05
-7.46234e-06
0.00443126
-2.71709e-05
-6.26836e-06
0.00445914
2.05898e-05
-7.5998e-06
-2.96318e-05
-6.13502e-06
0.00452128
0.00380343
-0.000327034
-3.31349e-06
0.00387358
-0.000562165
2.65519e-06
0.00387318
-0.000497915
-1.90111e-06
0.00380693
-0.000354806
2.59599e-06
0.00372372
-0.000238272
-1.24366e-06
0.00363355
-0.000153237
2.38662e-06
0.00355351
-0.000103875
-6.7326e-07
0.00347837
-7.39144e-05
2.31326e-06
0.00341471
-5.65346e-05
-1.37213e-07
0.0033557
-4.58386e-05
2.31149e-06
0.00330552
-3.8348e-05
3.4459e-07
0.00325912
-3.33434e-05
2.349e-06
0.00321848
-2.91784e-05
7.79454e-07
0.00318238
-2.61343e-05
2.4139e-06
0.00314659
-2.25479e-05
1.18847e-06
0.00312131
-2.24156e-05
2.49824e-06
0.00307829
-4.74509e-06
1.62418e-06
0.00306888
-2.98553e-05
2.64161e-06
0.00293619
0.000141385
2.27796e-06
0.000128173
3.63857e-06
0.00276521
0.0033636
-1.34899e-05
0.00280113
-6.94085e-06
0.00231049
-1.17028e-05
0.00195704
-7.20501e-06
0.00172577
-1.10591e-05
0.00157471
-7.44657e-06
0.00147718
-1.05089e-05
0.00140564
-7.52955e-06
0.00135472
-9.97977e-06
0.00131135
-7.5345e-06
0.00127804
-9.5033e-06
0.00124727
-7.49878e-06
0.00122268
-9.07734e-06
0.00119923
-7.43302e-06
0.00118092
-8.69132e-06
0.00116131
-7.34322e-06
0.00116053
-8.34869e-06
0.00113352
-7.22532e-06
0.00127895
-8.23601e-06
-6.7884e-06
0.00140948
0.00258472
0.00108333
0.00198016
0.000595439
0.00158525
0.000381089
0.00138057
0.00019539
0.00125809
0.00010936
0.00118203
6.65545e-05
0.00112607
4.33587e-05
0.00108469
3.17197e-05
0.00104924
2.33082e-05
0.00102111
1.8409e-05
0.000995336
1.40745e-05
0.000974376
1.12545e-05
0.000954553
8.54299e-06
0.000937957
6.97734e-06
0.00092207
5.03542e-06
0.000907543
5.06089e-06
0.000889084
8.0239e-06
0.000882182
-2.36526e-06
0.000777112
9.48193e-05
6.02809e-05
0.000708091
0.00384654
0.000914548
0.00380036
0.000642206
0.00365605
0.000521537
0.00350683
0.000345319
0.00337125
0.000241899
0.00325981
0.000178636
0.00316413
0.000136608
0.00308631
0.000109986
0.00301792
8.95787e-05
0.00296178
7.47437e-05
0.00291121
6.27622e-05
0.00286904
5.34813e-05
0.00283089
4.51221e-05
0.00279756
4.03365e-05
0.0027702
3.12149e-05
0.00274173
3.37207e-05
0.00273213
1.70067e-05
0.00270481
2.54742e-05
0.00278598
1.38851e-05
-3.56919e-05
0.00288365
0.00406541
0.000518937
0.00430744
0.000391811
0.00445524
0.000361085
0.00453065
0.000261791
0.00456034
0.00020035
0.0045723
0.000158565
0.00456937
0.000128436
0.00456334
0.000107851
0.00455091
9.12202e-05
0.00453909
7.80237e-05
0.00452358
6.75807e-05
0.00451041
5.78268e-05
0.00449378
5.12219e-05
0.0044817
4.3404e-05
0.00446259
3.99108e-05
0.00445353
3.36642e-05
0.00442452
3.57964e-05
0.00441256
2.84961e-05
0.00435577
6.05572e-05
5.92906e-05
0.00425227
0.00402137
0.000175702
0.00427913
0.000134392
0.00450952
0.000126834
0.00467758
9.44103e-05
0.00480078
7.41053e-05
0.00489929
6.07881e-05
0.00497441
5.11226e-05
0.00503833
4.4728e-05
0.00508859
3.91907e-05
0.00513205
3.50122e-05
0.00516692
3.0977e-05
0.00519671
2.8156e-05
0.00522197
2.43929e-05
0.00524188
2.34429e-05
0.0052625
1.78561e-05
0.0052752
2.0644e-05
0.00530087
8.87222e-06
0.00531405
1.50241e-05
0.00537884
-4.50607e-06
-2.17316e-05
0.00546078
0.00402144
-0.000175702
0.00428176
-0.000134392
0.0045228
-0.000126835
0.00470349
-9.44097e-05
0.00483985
-7.41055e-05
0.00495333
-6.07858e-05
0.00504455
-5.1121e-05
0.00512597
-4.47216e-05
0.00519374
-3.9182e-05
0.00525536
-3.49957e-05
0.0053067
-3.09477e-05
0.00535422
-2.81056e-05
0.0053925
-2.432e-05
0.00543031
-2.32653e-05
0.00545554
-1.77112e-05
0.00548706
-2.00603e-05
0.00549404
-8.56236e-06
0.00551319
-1.34862e-05
0.0054922
5.79948e-06
2.51866e-05
0.00543617
0.00402137
-0.000518938
0.00427913
-0.000391811
0.00450952
-0.000361086
0.00467758
-0.000261791
0.00480078
-0.00020035
0.00489929
-0.000158563
0.00497441
-0.000128434
0.00503834
-0.000107845
0.00508859
-9.1212e-05
0.00513205
-7.80098e-05
0.00516693
-6.75543e-05
0.00519672
-5.77837e-05
0.005222
-5.1158e-05
0.00524193
-4.32495e-05
0.00526257
-3.979e-05
0.00527534
-3.31527e-05
0.00530107
-3.55419e-05
0.0053144
-2.71054e-05
0.0053794
-5.94772e-05
-5.62485e-05
0.00546176
0.00406541
-0.000914548
0.00430744
-0.000642206
0.00445524
-0.000521537
0.00453065
-0.000345319
0.00456034
-0.000241899
0.0045723
-0.000178635
0.00456937
-0.000136606
0.00456334
-0.000109983
0.00455092
-8.95723e-05
0.0045391
-7.4735e-05
0.0045236
-6.27428e-05
0.00451044
-5.34526e-05
0.00449383
-4.50779e-05
0.0044818
-4.0229e-05
0.00446274
-3.114e-05
0.00445381
-3.33558e-05
0.00442493
-1.68723e-05
0.00441339
-2.45087e-05
0.0043571
-1.32965e-05
3.7524e-05
0.00425481
0.00384654
-0.00108333
0.00380036
-0.000595439
0.00365605
-0.000381089
0.00350683
-0.00019539
0.00337125
-0.00010936
0.00325982
-6.65544e-05
0.00316414
-4.33583e-05
0.00308632
-3.17189e-05
0.00301792
-2.33055e-05
0.00296179
-1.84066e-05
0.00291124
-1.40659e-05
0.00286909
-1.12466e-05
0.00283096
-8.52175e-06
0.00279771
-6.94413e-06
0.00277039
-4.99591e-06
0.00274215
-4.94448e-06
0.00273261
-7.93034e-06
0.0027059
2.69412e-06
0.00278723
-9.43738e-05
-5.9417e-05
0.00288587
0.00258472
0.00198016
0.00158525
0.00138057
0.00125809
0.00118203
0.00112607
0.00108469
0.00104925
0.00102112
0.000995353
0.000974401
0.0009546
0.000938037
0.00092219
0.000907778
0.000889415
0.000882836
0.000778223
0.000710043
0.000837923
-0.000203753
6.83587e-05
0.000854901
-8.34276e-05
6.03767e-05
0.000839421
-5.50322e-05
6.39166e-05
0.000827762
-5.23942e-05
5.75347e-05
0.000816282
-5.37503e-05
5.93515e-05
0.000806949
-5.07591e-05
5.49432e-05
0.000797792
-5.15049e-05
5.5971e-05
0.000789834
-4.94834e-05
5.28993e-05
0.000782109
-5.02067e-05
5.34711e-05
0.000775201
-4.86542e-05
5.13097e-05
0.0007687
-4.89348e-05
5.16064e-05
0.000762814
-4.74506e-05
5.00646e-05
0.000757393
-4.7432e-05
5.01881e-05
0.000752386
-4.61747e-05
4.90724e-05
0.000747824
-4.61553e-05
4.90902e-05
0.000743519
-4.52088e-05
4.82756e-05
0.000739637
-4.52699e-05
4.82339e-05
0.000735909
-4.45715e-05
4.76361e-05