/*--------------------------------*- C++ -*----------------------------------*\
  =========                 |
  \\      /  F ield         | OpenFOAM: The Open Source CFD Toolbox
   \\    /   O peration     | Website:  https://openfoam.org
    \\  /    A nd           | Version:  7
     \\/     M anipulation  |
\*---------------------------------------------------------------------------*/
FoamFile
{
    version     2.0;
    format      ascii;
    class       volScalarField;
    location    "5";
    object      alphat;
}
// * * * * * * * * * * * * * * * * * * * * * * * * * * * * * * * * * * * * * //

dimensions      [1 -1 -1 0 0 0 0];

internalField   nonuniform List<scalar> 
24000
(
1.01764e-05
2.21115e-05
3.60372e-05
5.28446e-05
6.17657e-05
7.04922e-05
8.79715e-05
0.000105844
0.000114734
0.00012169
0.000137017
0.000152502
0.000161783
0.000171981
0.000184301
0.000195748
0.000205976
0.000216275
0.000226714
0.000236641
0.000246023
0.000255226
0.000264314
0.000273075
0.000281411
0.000289417
0.000297188
0.000304711
0.000311931
0.000318828
0.00032543
0.000331772
0.000337861
0.000343683
0.000349233
0.000354524
0.000359578
0.000364404
0.000369002
0.000373371
0.000377518
0.000381457
0.0003852
0.000388752
0.000392116
0.000395299
0.000398309
0.000401157
0.000403849
0.000406389
0.000408783
0.000411038
0.000413162
0.00041516
0.000417036
0.000418798
0.000420449
0.000421997
0.000423445
0.0004248
0.000426065
0.000427246
0.000428345
0.000429366
0.000430314
0.000431192
0.000432005
0.000432755
0.000433447
0.000434082
0.000434665
0.000435198
0.000435682
0.000436122
0.000436519
0.000436876
0.000437195
0.000437478
0.000437727
0.000437945
0.000438132
0.000438291
0.000438422
0.000438529
0.00043861
0.000438669
0.000438706
0.000438723
0.000438717
0.0004387
0.000438666
0.000438614
0.000438546
0.000438465
0.00043837
0.000438262
0.000438142
0.000438011
0.000437869
0.000437716
0.000437554
0.000437383
0.000437203
0.000437015
0.00043682
0.000436618
0.00043641
0.000436195
0.000435974
0.000435748
0.000435517
0.00043528
0.000435039
0.000434793
0.000434543
0.000434289
0.000434032
0.000433771
0.000433506
0.000433239
0.000432968
0.000432695
0.00043242
0.000432142
0.000431862
0.00043158
0.000431296
0.00043101
0.000430722
0.000430432
0.000430141
0.000429848
0.000429554
0.000429258
0.000428961
0.000428664
0.000428365
0.000428065
0.000427764
0.000427462
0.000427159
0.000426856
0.000426552
0.000426247
0.000425941
0.000425635
0.000425328
0.000425021
0.000424713
0.000424405
0.000424096
0.000423786
0.000423477
0.000423167
0.000422856
0.000422546
0.000422235
0.000421924
0.000421613
0.000421302
0.00042099
0.000420678
0.000420366
0.000420054
0.000419741
0.000419428
0.000419115
0.000418802
0.000418489
0.000418176
0.000417863
0.00041755
0.000417236
0.000416923
0.00041661
0.000416296
0.000415983
0.00041567
0.000415356
0.000415043
0.000414729
0.000414416
0.000414102
0.000413789
0.000413475
0.000413161
0.000412848
0.000412535
0.000412221
0.000411909
0.000411596
0.000411283
0.000410971
0.000410659
0.000410348
0.000410036
0.000409725
0.000409415
0.000409105
0.000408795
0.000408486
0.000408178
0.000407869
0.000407562
0.000407254
0.000406947
0.000406641
0.000406335
0.000406029
0.000405724
0.000405418
0.000405114
0.000404809
0.000404504
0.0004042
0.000403896
0.000403592
0.000403287
0.000402983
0.000402679
0.000402375
0.000402071
0.000401767
0.000401463
0.000401159
0.000400855
0.000400551
0.000400248
0.000399944
0.00039964
0.000399337
0.000399034
0.00039873
0.000398427
0.000398124
0.000397822
0.000397519
0.000397217
0.000396914
0.000396613
0.000396311
0.000396009
0.000395708
0.000395407
0.000395107
0.000394807
0.000394507
0.000394207
0.000393907
0.000393608
0.000393309
0.000393011
0.000392712
0.000392414
0.000392116
0.000391819
0.000391522
0.000391225
0.000390929
0.000390632
0.000390337
0.000390041
0.000389746
0.000389451
0.000389156
0.000388862
0.000388568
0.000388274
0.00038798
0.000387687
0.000387394
0.000387102
0.00038681
0.000386518
0.000386227
0.000385936
0.000385645
0.000385355
0.000385065
0.000384776
0.000384486
0.000384198
0.000383909
0.000383621
0.000383333
0.000383046
0.000382759
0.000382472
0.000382186
0.000381901
0.000381615
0.000381331
0.000381046
0.000380762
0.000380479
0.000380196
0.000379913
0.000379631
0.000379349
0.000379068
0.000378787
0.000378506
0.000378226
0.000377946
0.000377667
0.000377388
0.000377109
0.00037683
0.000376551
0.000376273
0.000375995
0.000375717
0.000375439
0.000375161
0.000374883
0.000374606
0.000374328
0.000374051
0.000373774
0.000373497
0.00037322
0.000372943
0.000372667
0.000372392
0.000372116
0.000371842
0.000371567
0.000371294
0.000371021
0.000370748
0.000370476
0.000370205
0.000369934
0.000369664
0.000369395
0.000369126
0.000368858
0.00036859
0.000368323
0.000368056
0.00036779
0.000367524
0.000367259
0.000366994
0.000366729
0.000366465
0.000366202
0.000365939
0.000365676
0.000365413
0.000365151
0.000364889
0.000364628
0.000364366
0.000364105
0.000363845
0.000363584
0.000363324
0.000363064
0.000362805
0.000362545
0.000362286
0.000362027
0.000361768
0.000361509
0.00036125
0.000360991
0.000360733
0.000360474
0.000360215
0.000359956
0.000359697
0.000359438
0.000359178
0.000358918
0.000358658
0.000358397
0.000358136
0.000357874
0.000357612
0.000357349
0.000357084
0.000356819
0.000356552
0.000356284
0.000356014
0.000355743
0.000355468
0.000355192
0.000354912
0.00035463
0.000354344
0.00035405
0.000353761
0.000353444
0.000353166
0.000352792
0.000352574
0.000352038
0.00035254
3.65637e-06
3.66757e-06
3.70312e-06
3.8015e-06
3.91531e-06
4.1053e-06
4.5604e-06
5.24652e-06
5.6534e-06
6.12227e-06
7.19046e-06
8.5662e-06
9.33541e-06
1.00569e-05
1.14944e-05
1.34522e-05
1.45861e-05
1.55756e-05
1.74e-05
1.93468e-05
2.09123e-05
2.24373e-05
2.42327e-05
2.61682e-05
2.80566e-05
2.99032e-05
3.17867e-05
3.37289e-05
3.57076e-05
3.76953e-05
3.96791e-05
4.16641e-05
4.36687e-05
4.5696e-05
4.77228e-05
4.97235e-05
5.17e-05
5.36721e-05
5.56533e-05
5.76355e-05
5.96037e-05
6.15478e-05
6.34697e-05
6.53725e-05
6.72566e-05
6.91196e-05
7.09597e-05
7.27751e-05
7.45662e-05
7.63319e-05
7.80717e-05
7.97843e-05
8.14681e-05
8.3121e-05
8.47432e-05
8.63366e-05
8.79042e-05
8.94467e-05
9.09614e-05
9.24435e-05
9.38901e-05
9.53015e-05
9.66818e-05
9.80353e-05
9.93646e-05
0.00010067
0.000101948
0.000103197
0.000104415
0.000105602
0.000106758
0.000107886
0.000108988
0.000110065
0.000111119
0.00011215
0.000113156
0.000114135
0.000115087
0.000116012
0.000116911
0.000117784
0.000118635
0.000119466
0.000120278
0.000121072
0.000121848
0.000122604
0.000123339
0.000124053
0.000124744
0.000125414
0.000126065
0.000126698
0.000127313
0.000127912
0.000128495
0.000129062
0.000129614
0.00013015
0.000130671
0.000131177
0.000131669
0.000132147
0.000132611
0.000133064
0.000133504
0.000133934
0.000134352
0.000134759
0.000135153
0.000135534
0.000135902
0.000136257
0.0001366
0.000136933
0.000137257
0.000137572
0.00013788
0.000138179
0.000138469
0.000138751
0.000139024
0.000139289
0.000139546
0.000139795
0.000140038
0.000140273
0.000140502
0.000140723
0.000140937
0.000141143
0.000141342
0.000141535
0.000141722
0.000141904
0.000142081
0.000142253
0.00014242
0.000142582
0.000142739
0.000142891
0.000143039
0.000143183
0.000143324
0.00014346
0.000143593
0.000143722
0.000143846
0.000143966
0.000144082
0.000144194
0.000144302
0.000144408
0.000144511
0.000144612
0.000144711
0.000144806
0.000144899
0.000144988
0.000145075
0.000145159
0.000145241
0.00014532
0.000145398
0.000145474
0.000145547
0.000145619
0.000145688
0.000145756
0.000145822
0.000145886
0.000145947
0.000146007
0.000146065
0.00014612
0.000146174
0.000146227
0.00014628
0.000146331
0.000146382
0.000146433
0.000146482
0.000146529
0.000146576
0.000146621
0.000146666
0.000146709
0.000146753
0.000146796
0.000146838
0.000146879
0.000146919
0.000146958
0.000146995
0.000147032
0.000147067
0.000147102
0.000147137
0.000147172
0.000147207
0.000147243
0.000147278
0.000147312
0.000147346
0.000147379
0.000147412
0.000147444
0.000147476
0.000147509
0.000147542
0.000147576
0.000147611
0.000147647
0.000147682
0.000147717
0.000147752
0.000147785
0.000147817
0.000147849
0.000147881
0.000147913
0.000147945
0.000147978
0.000148012
0.000148046
0.000148081
0.000148115
0.00014815
0.000148185
0.00014822
0.000148255
0.00014829
0.000148325
0.000148361
0.000148398
0.000148434
0.000148472
0.000148509
0.000148547
0.000148585
0.000148623
0.000148662
0.000148701
0.00014874
0.00014878
0.000148821
0.000148861
0.000148902
0.000148943
0.000148985
0.000149026
0.000149067
0.000149109
0.00014915
0.000149193
0.000149236
0.00014928
0.000149324
0.000149369
0.000149414
0.000149459
0.000149504
0.00014955
0.000149595
0.000149641
0.000149687
0.000149734
0.000149781
0.000149829
0.000149877
0.000149926
0.000149975
0.000150025
0.000150075
0.000150125
0.000150176
0.000150227
0.000150279
0.000150332
0.000150385
0.000150438
0.000150492
0.000150546
0.000150601
0.000150656
0.000150712
0.000150768
0.000150825
0.000150882
0.00015094
0.000150997
0.000151055
0.000151113
0.000151171
0.00015123
0.000151289
0.000151349
0.000151409
0.00015147
0.000151532
0.000151594
0.000151657
0.00015172
0.000151784
0.000151849
0.000151914
0.00015198
0.000152047
0.000152113
0.00015218
0.000152247
0.000152314
0.000152381
0.000152448
0.000152517
0.000152585
0.000152655
0.000152725
0.000152796
0.000152867
0.000152939
0.000153011
0.000153084
0.000153157
0.00015323
0.000153303
0.000153378
0.000153452
0.000153528
0.000153604
0.00015368
0.000153757
0.000153835
0.000153912
0.00015399
0.000154068
0.000154146
0.000154224
0.000154302
0.000154381
0.000154461
0.000154541
0.000154622
0.000154704
0.000154787
0.000154871
0.000154955
0.00015504
0.000155125
0.000155211
0.000155299
0.000155386
0.000155475
0.000155564
0.000155654
0.000155745
0.000155836
0.000155928
0.000156021
0.000156114
0.000156209
0.000156304
0.000156401
0.000156499
0.000156599
0.000156699
0.000156802
0.000156905
0.000157011
0.000157117
0.000157225
0.000157333
0.000157445
0.000157557
0.000157672
0.000157788
0.000157907
0.000158028
0.000158153
0.000158278
0.000158408
0.000158539
0.000158674
0.00015881
0.000158951
0.000159093
0.000159241
0.00015939
0.000159546
0.000159703
0.000159866
0.000160032
0.000160203
0.000160377
0.000160554
0.00016074
0.000160917
0.000161126
0.000161284
3.66511e-06
3.66569e-06
3.66552e-06
3.66487e-06
3.66395e-06
3.66339e-06
3.66321e-06
3.66279e-06
3.66249e-06
3.6626e-06
3.66326e-06
3.66536e-06
3.66744e-06
3.66941e-06
3.67344e-06
3.68311e-06
3.69118e-06
3.69745e-06
3.70935e-06
3.73482e-06
3.75561e-06
3.77142e-06
3.80285e-06
3.84591e-06
3.88691e-06
3.93033e-06
3.98577e-06
4.05406e-06
4.12708e-06
4.20214e-06
4.29197e-06
4.39196e-06
4.49886e-06
4.61696e-06
4.74688e-06
4.88273e-06
5.02648e-06
5.17747e-06
5.34006e-06
5.51317e-06
5.6988e-06
5.88986e-06
6.08921e-06
6.29369e-06
6.50402e-06
6.72435e-06
6.95524e-06
7.18933e-06
7.4296e-06
7.67521e-06
7.92739e-06
8.18541e-06
8.44848e-06
8.71354e-06
8.9823e-06
9.25308e-06
9.52935e-06
9.81401e-06
1.01051e-05
1.03967e-05
1.06866e-05
1.09743e-05
1.12638e-05
1.15568e-05
1.18551e-05
1.21573e-05
1.24619e-05
1.27663e-05
1.30704e-05
1.33748e-05
1.36798e-05
1.39839e-05
1.42867e-05
1.45897e-05
1.48963e-05
1.52064e-05
1.5518e-05
1.58274e-05
1.61334e-05
1.64364e-05
1.6738e-05
1.70379e-05
1.73365e-05
1.76344e-05
1.79334e-05
1.82345e-05
1.85379e-05
1.88415e-05
1.91435e-05
1.94417e-05
1.97362e-05
2.00274e-05
2.03171e-05
2.06054e-05
2.08926e-05
2.11777e-05
2.14612e-05
2.1743e-05
2.20242e-05
2.23038e-05
2.25815e-05
2.28561e-05
2.31279e-05
2.33973e-05
2.36656e-05
2.39334e-05
2.42017e-05
2.44705e-05
2.47402e-05
2.5009e-05
2.52756e-05
2.55374e-05
2.57937e-05
2.60442e-05
2.62912e-05
2.65361e-05
2.67811e-05
2.70258e-05
2.72701e-05
2.75128e-05
2.77538e-05
2.79924e-05
2.82291e-05
2.84634e-05
2.86961e-05
2.89272e-05
2.91576e-05
2.93871e-05
2.96155e-05
2.98409e-05
3.00628e-05
3.02803e-05
3.04944e-05
3.07059e-05
3.09164e-05
3.11258e-05
3.13343e-05
3.15407e-05
3.17449e-05
3.19462e-05
3.21452e-05
3.23417e-05
3.25373e-05
3.27321e-05
3.29272e-05
3.31219e-05
3.3316e-05
3.35077e-05
3.36966e-05
3.38817e-05
3.40639e-05
3.42435e-05
3.44219e-05
3.45989e-05
3.47754e-05
3.49503e-05
3.51239e-05
3.52955e-05
3.54654e-05
3.56331e-05
3.57995e-05
3.59641e-05
3.61278e-05
3.62897e-05
3.64505e-05
3.66092e-05
3.67667e-05
3.69225e-05
3.7078e-05
3.72325e-05
3.73866e-05
3.75386e-05
3.76887e-05
3.78353e-05
3.79794e-05
3.81206e-05
3.82605e-05
3.8399e-05
3.85375e-05
3.8675e-05
3.88123e-05
3.8948e-05
3.90825e-05
3.92146e-05
3.93452e-05
3.94737e-05
3.96019e-05
3.97293e-05
3.98576e-05
3.99855e-05
4.01137e-05
4.02402e-05
4.03654e-05
4.04874e-05
4.06072e-05
4.07234e-05
4.08376e-05
4.09492e-05
4.10603e-05
4.11703e-05
4.12813e-05
4.13917e-05
4.15029e-05
4.16124e-05
4.17208e-05
4.18258e-05
4.19285e-05
4.20277e-05
4.21257e-05
4.22218e-05
4.23189e-05
4.24163e-05
4.25161e-05
4.26166e-05
4.2719e-05
4.28204e-05
4.29217e-05
4.30198e-05
4.31163e-05
4.32089e-05
4.32999e-05
4.33877e-05
4.34751e-05
4.35606e-05
4.3647e-05
4.37322e-05
4.38187e-05
4.3904e-05
4.39903e-05
4.40747e-05
4.41594e-05
4.42417e-05
4.4324e-05
4.44036e-05
4.44834e-05
4.45611e-05
4.46397e-05
4.47166e-05
4.47949e-05
4.48715e-05
4.49493e-05
4.50246e-05
4.51004e-05
4.51735e-05
4.52473e-05
4.53188e-05
4.53918e-05
4.5463e-05
4.55362e-05
4.56075e-05
4.56803e-05
4.57504e-05
4.58211e-05
4.58882e-05
4.59557e-05
4.60197e-05
4.6085e-05
4.61477e-05
4.62126e-05
4.62756e-05
4.6341e-05
4.64041e-05
4.64692e-05
4.65311e-05
4.65945e-05
4.66544e-05
4.6716e-05
4.67742e-05
4.68347e-05
4.68919e-05
4.69516e-05
4.70079e-05
4.70663e-05
4.71207e-05
4.71772e-05
4.72295e-05
4.72844e-05
4.73355e-05
4.73899e-05
4.74408e-05
4.74953e-05
4.7546e-05
4.76001e-05
4.76499e-05
4.77031e-05
4.77517e-05
4.78039e-05
4.78517e-05
4.79036e-05
4.79514e-05
4.80038e-05
4.8052e-05
4.8105e-05
4.81534e-05
4.82064e-05
4.82541e-05
4.8306e-05
4.83521e-05
4.84026e-05
4.84469e-05
4.84959e-05
4.85387e-05
4.85865e-05
4.86279e-05
4.86746e-05
4.87147e-05
4.87603e-05
4.87993e-05
4.88443e-05
4.88826e-05
4.89277e-05
4.89663e-05
4.90123e-05
4.90515e-05
4.90983e-05
4.91378e-05
4.9185e-05
4.9224e-05
4.92706e-05
4.93082e-05
4.93537e-05
4.93897e-05
4.94342e-05
4.94691e-05
4.95132e-05
4.95478e-05
4.95921e-05
4.96268e-05
4.96716e-05
4.97059e-05
4.97506e-05
4.97838e-05
4.98275e-05
4.98592e-05
4.99018e-05
4.99321e-05
4.99742e-05
5.00041e-05
5.00467e-05
5.00769e-05
5.01207e-05
5.01516e-05
5.01966e-05
5.02281e-05
5.02739e-05
5.03053e-05
5.03514e-05
5.03824e-05
5.04284e-05
5.04585e-05
5.05043e-05
5.05334e-05
5.05789e-05
5.06071e-05
5.06525e-05
5.068e-05
5.07256e-05
5.07526e-05
5.07987e-05
5.08254e-05
5.08724e-05
5.08994e-05
5.09479e-05
5.09756e-05
5.10261e-05
5.10546e-05
5.11067e-05
5.11357e-05
5.11892e-05
5.1218e-05
5.12721e-05
5.13006e-05
5.13555e-05
5.1384e-05
5.14404e-05
5.14698e-05
5.15287e-05
5.15599e-05
5.16225e-05
5.16559e-05
5.17226e-05
5.17581e-05
5.18287e-05
5.18662e-05
5.19402e-05
5.19793e-05
5.20574e-05
5.20989e-05
5.2182e-05
5.22267e-05
5.23162e-05
5.23649e-05
5.24629e-05
5.25165e-05
5.26245e-05
5.2684e-05
5.28035e-05
5.28693e-05
5.30012e-05
5.30742e-05
3.67394e-06
3.67559e-06
3.67546e-06
3.67465e-06
3.67387e-06
3.67312e-06
3.67248e-06
3.67171e-06
3.67087e-06
3.67004e-06
3.66934e-06
3.66859e-06
3.66787e-06
3.66712e-06
3.66639e-06
3.66562e-06
3.66484e-06
3.66412e-06
3.66354e-06
3.66284e-06
3.66203e-06
3.66128e-06
3.66065e-06
3.66016e-06
3.65963e-06
3.65891e-06
3.6582e-06
3.65767e-06
3.65721e-06
3.65685e-06
3.6566e-06
3.65624e-06
3.65576e-06
3.65551e-06
3.65551e-06
3.65558e-06
3.65573e-06
3.65592e-06
3.65626e-06
3.6566e-06
3.65731e-06
3.65791e-06
3.65915e-06
3.66001e-06
3.66172e-06
3.66283e-06
3.6651e-06
3.66656e-06
3.66952e-06
3.67135e-06
3.67505e-06
3.67729e-06
3.68182e-06
3.68452e-06
3.68999e-06
3.69319e-06
3.69968e-06
3.70346e-06
3.71113e-06
3.71553e-06
3.72441e-06
3.72939e-06
3.73939e-06
3.745e-06
3.75631e-06
3.7627e-06
3.77561e-06
3.78284e-06
3.79738e-06
3.80536e-06
3.82136e-06
3.83006e-06
3.84746e-06
3.85703e-06
3.87593e-06
3.88698e-06
3.90753e-06
3.9201e-06
3.94188e-06
3.95549e-06
3.97834e-06
3.99299e-06
4.01692e-06
4.03268e-06
4.05808e-06
4.07554e-06
4.10287e-06
4.12222e-06
4.15126e-06
4.17182e-06
4.20185e-06
4.22327e-06
4.25424e-06
4.27689e-06
4.30917e-06
4.33299e-06
4.36642e-06
4.39152e-06
4.42636e-06
4.45299e-06
4.48905e-06
4.51666e-06
4.55349e-06
4.58189e-06
4.61962e-06
4.64924e-06
4.68852e-06
4.72021e-06
4.76176e-06
4.79565e-06
4.83878e-06
4.87318e-06
4.91585e-06
4.94929e-06
4.99139e-06
5.0252e-06
5.06874e-06
5.10451e-06
5.14981e-06
5.18701e-06
5.23309e-06
5.27109e-06
5.31772e-06
5.35634e-06
5.40348e-06
5.44283e-06
5.49113e-06
5.53201e-06
5.58187e-06
5.62359e-06
5.67336e-06
5.71433e-06
5.76323e-06
5.80405e-06
5.85342e-06
5.89541e-06
5.94589e-06
5.98871e-06
6.03952e-06
6.08226e-06
6.13287e-06
6.17546e-06
6.22627e-06
6.2697e-06
6.3219e-06
6.36722e-06
6.42089e-06
6.46688e-06
6.52028e-06
6.5653e-06
6.61776e-06
6.66233e-06
6.71491e-06
6.75995e-06
6.81306e-06
6.8585e-06
6.91178e-06
6.95743e-06
7.01091e-06
7.0567e-06
7.11042e-06
7.15643e-06
7.21044e-06
7.25673e-06
7.31078e-06
7.35692e-06
7.41084e-06
7.45709e-06
7.51174e-06
7.55919e-06
7.61504e-06
7.663e-06
7.71827e-06
7.76472e-06
7.81811e-06
7.86309e-06
7.91597e-06
7.96116e-06
8.01486e-06
8.06095e-06
8.11532e-06
8.16167e-06
8.21581e-06
8.26142e-06
8.31463e-06
8.35948e-06
8.41268e-06
8.45847e-06
8.51334e-06
8.56095e-06
8.61718e-06
8.66523e-06
8.72097e-06
8.76776e-06
8.82176e-06
8.86664e-06
8.91868e-06
8.96198e-06
9.0132e-06
9.05669e-06
9.10911e-06
9.15424e-06
9.20813e-06
9.25374e-06
9.30685e-06
9.35049e-06
9.40096e-06
9.442e-06
9.49059e-06
9.53093e-06
9.58016e-06
9.62225e-06
9.67408e-06
9.71901e-06
9.77324e-06
9.81962e-06
9.87414e-06
9.91959e-06
9.97229e-06
1.00155e-05
1.00659e-05
1.01071e-05
1.0156e-05
1.01962e-05
1.02449e-05
1.02855e-05
1.0335e-05
1.03766e-05
1.0427e-05
1.0469e-05
1.05194e-05
1.05609e-05
1.06104e-05
1.06507e-05
1.06991e-05
1.07386e-05
1.07868e-05
1.08266e-05
1.08755e-05
1.0916e-05
1.09653e-05
1.10054e-05
1.10538e-05
1.10926e-05
1.11399e-05
1.11782e-05
1.12257e-05
1.12646e-05
1.13132e-05
1.13531e-05
1.14023e-05
1.1442e-05
1.14903e-05
1.15283e-05
1.15745e-05
1.16107e-05
1.16556e-05
1.16914e-05
1.1737e-05
1.17738e-05
1.18205e-05
1.18579e-05
1.19047e-05
1.19417e-05
1.19877e-05
1.20238e-05
1.20692e-05
1.21047e-05
1.21499e-05
1.21853e-05
1.22305e-05
1.22654e-05
1.23098e-05
1.23433e-05
1.2386e-05
1.24179e-05
1.24598e-05
1.24914e-05
1.25337e-05
1.2566e-05
1.26089e-05
1.26412e-05
1.26839e-05
1.27156e-05
1.27577e-05
1.27886e-05
1.28301e-05
1.28607e-05
1.29023e-05
1.29333e-05
1.29759e-05
1.30081e-05
1.3052e-05
1.3085e-05
1.31294e-05
1.31623e-05
1.32061e-05
1.3238e-05
1.32808e-05
1.33113e-05
1.3353e-05
1.33824e-05
1.34231e-05
1.34515e-05
1.34911e-05
1.35182e-05
1.35564e-05
1.3582e-05
1.36194e-05
1.36446e-05
1.36825e-05
1.37085e-05
1.37478e-05
1.37755e-05
1.38164e-05
1.38449e-05
1.38865e-05
1.39149e-05
1.39559e-05
1.39829e-05
1.40225e-05
1.40477e-05
1.4086e-05
1.41104e-05
1.41484e-05
1.41727e-05
1.42113e-05
1.42362e-05
1.42752e-05
1.43e-05
1.43385e-05
1.43621e-05
1.43989e-05
1.44206e-05
1.44557e-05
1.4476e-05
1.45106e-05
1.45309e-05
1.45663e-05
1.45878e-05
1.46247e-05
1.46476e-05
1.46858e-05
1.47097e-05
1.47486e-05
1.47725e-05
1.48113e-05
1.48347e-05
1.4873e-05
1.48956e-05
1.49332e-05
1.49547e-05
1.49913e-05
1.50117e-05
1.50473e-05
1.50666e-05
1.51014e-05
1.51196e-05
1.51539e-05
1.51716e-05
1.52061e-05
1.52242e-05
1.52596e-05
1.5279e-05
1.53158e-05
1.53362e-05
1.53736e-05
1.53943e-05
1.54319e-05
1.54517e-05
1.54881e-05
1.55065e-05
1.55419e-05
1.55597e-05
1.55951e-05
1.56131e-05
1.56492e-05
1.56682e-05
1.57066e-05
1.57272e-05
1.57676e-05
1.5789e-05
1.58302e-05
1.58518e-05
1.58931e-05
1.59144e-05
1.59558e-05
1.59769e-05
1.60189e-05
1.60406e-05
1.6084e-05
1.61069e-05
1.61532e-05
1.6178e-05
1.62281e-05
1.62551e-05
1.63062e-05
1.63352e-05
1.63864e-05
1.64175e-05
3.68158e-06
3.6842e-06
3.68405e-06
3.6832e-06
3.68248e-06
3.6817e-06
3.68102e-06
3.68015e-06
3.67934e-06
3.67845e-06
3.67777e-06
3.67698e-06
3.67628e-06
3.67541e-06
3.67464e-06
3.67375e-06
3.67303e-06
3.67225e-06
3.67163e-06
3.67082e-06
3.67002e-06
3.66911e-06
3.66847e-06
3.66783e-06
3.66722e-06
3.66627e-06
3.66537e-06
3.66451e-06
3.664e-06
3.66343e-06
3.66283e-06
3.6619e-06
3.66104e-06
3.66019e-06
3.65963e-06
3.65903e-06
3.65847e-06
3.65767e-06
3.65696e-06
3.6562e-06
3.65564e-06
3.65495e-06
3.65431e-06
3.65352e-06
3.65292e-06
3.65227e-06
3.65174e-06
3.651e-06
3.65032e-06
3.64954e-06
3.64897e-06
3.64832e-06
3.64778e-06
3.64708e-06
3.64649e-06
3.64582e-06
3.64529e-06
3.64459e-06
3.64399e-06
3.64328e-06
3.64278e-06
3.64223e-06
3.64179e-06
3.64116e-06
3.64058e-06
3.63992e-06
3.63945e-06
3.63893e-06
3.63851e-06
3.6379e-06
3.63734e-06
3.63671e-06
3.63625e-06
3.63574e-06
3.63527e-06
3.63467e-06
3.63416e-06
3.63371e-06
3.63346e-06
3.63326e-06
3.63303e-06
3.63258e-06
3.63206e-06
3.63152e-06
3.63114e-06
3.6308e-06
3.63048e-06
3.63008e-06
3.62973e-06
3.62944e-06
3.62929e-06
3.62911e-06
3.62884e-06
3.62841e-06
3.62798e-06
3.62764e-06
3.62748e-06
3.62743e-06
3.6274e-06
3.62731e-06
3.62714e-06
3.62705e-06
3.62704e-06
3.62704e-06
3.62705e-06
3.62705e-06
3.62707e-06
3.6271e-06
3.62719e-06
3.62735e-06
3.6276e-06
3.62776e-06
3.62799e-06
3.62811e-06
3.62834e-06
3.62849e-06
3.62882e-06
3.62905e-06
3.62956e-06
3.62985e-06
3.63042e-06
3.63071e-06
3.63131e-06
3.63165e-06
3.63236e-06
3.63276e-06
3.63361e-06
3.63408e-06
3.63504e-06
3.63555e-06
3.63657e-06
3.63712e-06
3.63823e-06
3.63881e-06
3.63998e-06
3.64059e-06
3.64184e-06
3.64251e-06
3.64388e-06
3.64463e-06
3.64613e-06
3.64691e-06
3.64846e-06
3.64928e-06
3.65093e-06
3.65181e-06
3.65361e-06
3.6546e-06
3.6566e-06
3.65764e-06
3.65969e-06
3.66073e-06
3.66283e-06
3.66391e-06
3.66608e-06
3.66722e-06
3.66952e-06
3.67074e-06
3.67321e-06
3.67451e-06
3.67713e-06
3.67849e-06
3.68123e-06
3.68264e-06
3.68547e-06
3.68694e-06
3.68989e-06
3.69143e-06
3.69453e-06
3.69617e-06
3.69948e-06
3.70123e-06
3.70465e-06
3.7064e-06
3.70983e-06
3.71157e-06
3.71505e-06
3.71683e-06
3.72039e-06
3.72224e-06
3.72597e-06
3.72793e-06
3.73188e-06
3.73397e-06
3.73808e-06
3.74018e-06
3.74431e-06
3.74644e-06
3.75069e-06
3.75301e-06
3.75769e-06
3.76024e-06
3.76505e-06
3.76761e-06
3.7724e-06
3.77488e-06
3.7796e-06
3.782e-06
3.78669e-06
3.7891e-06
3.79391e-06
3.79652e-06
3.80174e-06
3.80455e-06
3.80985e-06
3.81262e-06
3.81786e-06
3.82052e-06
3.8257e-06
3.82832e-06
3.83353e-06
3.83623e-06
3.84166e-06
3.84466e-06
3.85084e-06
3.85428e-06
3.8607e-06
3.86414e-06
3.87049e-06
3.87377e-06
3.87998e-06
3.88312e-06
3.88926e-06
3.89236e-06
3.89854e-06
3.90169e-06
3.908e-06
3.91129e-06
3.91794e-06
3.92148e-06
3.92838e-06
3.93195e-06
3.93886e-06
3.94244e-06
3.9493e-06
3.95292e-06
3.95973e-06
3.96339e-06
3.97015e-06
3.97397e-06
3.98105e-06
3.98505e-06
3.99239e-06
3.99626e-06
4.00369e-06
4.00745e-06
4.0149e-06
4.01882e-06
4.0265e-06
4.03067e-06
4.0385e-06
4.04291e-06
4.05086e-06
4.05524e-06
4.06317e-06
4.06729e-06
4.075e-06
4.07891e-06
4.08662e-06
4.09074e-06
4.09879e-06
4.10329e-06
4.1115e-06
4.11625e-06
4.12463e-06
4.1292e-06
4.13768e-06
4.1421e-06
4.15038e-06
4.15492e-06
4.16304e-06
4.16804e-06
4.17607e-06
4.18113e-06
4.1891e-06
4.1938e-06
4.20155e-06
4.20604e-06
4.21412e-06
4.21871e-06
4.22707e-06
4.23192e-06
4.24051e-06
4.24546e-06
4.25388e-06
4.25877e-06
4.26707e-06
4.27183e-06
4.28018e-06
4.28515e-06
4.29375e-06
4.2992e-06
4.30833e-06
4.31421e-06
4.32351e-06
4.32937e-06
4.33888e-06
4.34444e-06
4.35391e-06
4.3591e-06
4.36855e-06
4.37366e-06
4.38284e-06
4.38805e-06
4.39688e-06
4.40196e-06
4.41026e-06
4.41527e-06
4.42331e-06
4.42853e-06
4.43663e-06
4.44214e-06
4.45075e-06
4.4566e-06
4.46586e-06
4.47192e-06
4.48164e-06
4.48782e-06
4.49763e-06
4.50347e-06
4.51309e-06
4.51841e-06
4.52774e-06
4.53266e-06
4.54193e-06
4.54693e-06
4.5564e-06
4.56189e-06
4.57152e-06
4.57739e-06
4.58671e-06
4.59275e-06
4.60127e-06
4.60712e-06
4.61485e-06
4.62038e-06
4.62828e-06
4.63333e-06
4.64219e-06
4.64709e-06
4.65701e-06
4.66239e-06
4.67273e-06
4.67871e-06
4.68915e-06
4.6953e-06
4.70579e-06
4.71183e-06
4.72209e-06
4.72823e-06
4.73797e-06
4.74429e-06
4.75312e-06
4.75974e-06
4.76809e-06
4.77456e-06
4.78274e-06
4.78864e-06
4.79716e-06
4.80223e-06
4.81142e-06
4.81616e-06
4.82582e-06
4.83117e-06
4.84123e-06
4.84747e-06
4.85755e-06
4.86431e-06
4.87421e-06
4.88091e-06
4.89071e-06
4.89655e-06
4.90623e-06
4.91136e-06
4.92108e-06
4.92625e-06
4.93614e-06
4.94216e-06
4.95228e-06
4.95953e-06
4.96992e-06
4.97776e-06
4.98831e-06
4.9962e-06
5.0064e-06
5.01394e-06
5.02432e-06
5.03155e-06
5.04191e-06
5.04964e-06
5.06036e-06
5.06831e-06
5.07983e-06
5.08874e-06
5.10059e-06
5.1097e-06
5.12229e-06
5.13179e-06
5.14398e-06
5.15349e-06
3.68595e-06
3.68912e-06
3.68894e-06
3.68812e-06
3.68736e-06
3.68658e-06
3.68585e-06
3.68499e-06
3.68414e-06
3.68327e-06
3.68253e-06
3.68172e-06
3.68094e-06
3.68008e-06
3.6793e-06
3.67845e-06
3.67768e-06
3.6769e-06
3.67621e-06
3.6754e-06
3.67455e-06
3.67365e-06
3.67298e-06
3.67236e-06
3.6717e-06
3.67074e-06
3.66978e-06
3.66893e-06
3.66839e-06
3.66783e-06
3.66717e-06
3.66622e-06
3.66532e-06
3.66449e-06
3.66391e-06
3.6633e-06
3.66268e-06
3.66187e-06
3.66112e-06
3.66037e-06
3.65977e-06
3.65906e-06
3.65834e-06
3.65753e-06
3.65688e-06
3.65624e-06
3.65566e-06
3.6549e-06
3.65414e-06
3.65335e-06
3.65274e-06
3.65209e-06
3.65147e-06
3.65071e-06
3.65005e-06
3.64935e-06
3.64875e-06
3.64801e-06
3.64731e-06
3.64656e-06
3.64599e-06
3.6454e-06
3.64487e-06
3.64416e-06
3.64348e-06
3.64274e-06
3.6422e-06
3.64163e-06
3.64111e-06
3.64036e-06
3.63963e-06
3.63884e-06
3.63825e-06
3.63762e-06
3.63703e-06
3.63627e-06
3.6356e-06
3.63497e-06
3.6346e-06
3.63419e-06
3.63377e-06
3.63306e-06
3.6323e-06
3.63149e-06
3.6309e-06
3.63032e-06
3.62979e-06
3.62905e-06
3.62836e-06
3.62768e-06
3.62727e-06
3.62678e-06
3.62621e-06
3.62528e-06
3.6244e-06
3.62358e-06
3.62311e-06
3.62264e-06
3.62215e-06
3.62139e-06
3.62072e-06
3.62009e-06
3.6197e-06
3.6192e-06
3.61862e-06
3.61781e-06
3.61712e-06
3.61651e-06
3.61615e-06
3.61568e-06
3.61514e-06
3.61433e-06
3.6136e-06
3.61291e-06
3.61247e-06
3.61198e-06
3.6115e-06
3.61075e-06
3.61005e-06
3.60932e-06
3.60882e-06
3.60831e-06
3.60785e-06
3.60718e-06
3.60654e-06
3.60582e-06
3.60532e-06
3.60477e-06
3.60434e-06
3.60371e-06
3.60313e-06
3.60245e-06
3.60195e-06
3.60138e-06
3.60092e-06
3.60029e-06
3.59977e-06
3.59916e-06
3.5987e-06
3.59811e-06
3.59759e-06
3.59689e-06
3.59633e-06
3.59571e-06
3.59526e-06
3.5947e-06
3.59421e-06
3.59356e-06
3.59303e-06
3.59241e-06
3.59193e-06
3.5913e-06
3.59077e-06
3.59012e-06
3.58964e-06
3.5891e-06
3.58868e-06
3.58809e-06
3.58754e-06
3.58687e-06
3.58637e-06
3.58584e-06
3.58547e-06
3.58493e-06
3.58442e-06
3.58374e-06
3.5832e-06
3.58263e-06
3.58226e-06
3.58179e-06
3.58138e-06
3.58078e-06
3.58025e-06
3.5796e-06
3.57911e-06
3.57853e-06
3.57808e-06
3.57751e-06
3.57708e-06
3.57655e-06
3.57617e-06
3.57568e-06
3.57528e-06
3.5747e-06
3.57419e-06
3.57355e-06
3.57306e-06
3.57251e-06
3.57215e-06
3.57169e-06
3.57134e-06
3.57082e-06
3.57042e-06
3.5699e-06
3.5695e-06
3.56894e-06
3.56847e-06
3.56785e-06
3.56739e-06
3.5669e-06
3.56663e-06
3.56625e-06
3.56591e-06
3.56535e-06
3.56483e-06
3.56421e-06
3.56379e-06
3.56334e-06
3.56301e-06
3.56252e-06
3.5621e-06
3.56156e-06
3.56119e-06
3.56079e-06
3.5605e-06
3.56005e-06
3.55961e-06
3.55902e-06
3.55856e-06
3.55809e-06
3.55779e-06
3.5574e-06
3.55706e-06
3.5566e-06
3.55625e-06
3.55585e-06
3.55559e-06
3.55524e-06
3.55492e-06
3.55445e-06
3.55405e-06
3.55356e-06
3.55319e-06
3.55273e-06
3.55231e-06
3.55182e-06
3.55143e-06
3.55104e-06
3.55078e-06
3.55044e-06
3.5501e-06
3.54963e-06
3.5492e-06
3.54875e-06
3.54846e-06
3.54815e-06
3.54791e-06
3.54756e-06
3.54724e-06
3.54684e-06
3.54652e-06
3.54616e-06
3.54588e-06
3.54552e-06
3.5452e-06
3.54483e-06
3.54455e-06
3.54423e-06
3.54396e-06
3.54358e-06
3.54322e-06
3.5428e-06
3.54251e-06
3.54224e-06
3.54207e-06
3.54181e-06
3.54155e-06
3.54117e-06
3.54086e-06
3.54055e-06
3.54032e-06
3.54005e-06
3.53979e-06
3.53946e-06
3.53918e-06
3.5389e-06
3.53872e-06
3.53852e-06
3.53834e-06
3.53803e-06
3.53773e-06
3.53738e-06
3.53715e-06
3.53695e-06
3.53684e-06
3.53664e-06
3.5364e-06
3.53602e-06
3.53568e-06
3.53536e-06
3.53519e-06
3.53505e-06
3.53497e-06
3.53482e-06
3.53465e-06
3.53441e-06
3.53423e-06
3.53401e-06
3.53387e-06
3.53367e-06
3.53352e-06
3.53331e-06
3.53316e-06
3.53297e-06
3.53283e-06
3.53265e-06
3.53249e-06
3.53229e-06
3.53213e-06
3.53193e-06
3.53176e-06
3.53157e-06
3.53141e-06
3.53124e-06
3.53112e-06
3.53099e-06
3.53091e-06
3.53081e-06
3.53075e-06
3.53066e-06
3.53059e-06
3.53049e-06
3.53037e-06
3.5302e-06
3.53002e-06
3.52983e-06
3.5297e-06
3.52961e-06
3.52956e-06
3.52948e-06
3.52936e-06
3.52919e-06
3.52903e-06
3.5289e-06
3.52883e-06
3.52878e-06
3.52872e-06
3.52862e-06
3.52849e-06
3.52838e-06
3.52831e-06
3.52827e-06
3.52827e-06
3.52826e-06
3.52825e-06
3.52819e-06
3.52811e-06
3.52806e-06
3.52804e-06
3.52804e-06
3.52805e-06
3.52805e-06
3.52805e-06
3.52801e-06
3.52791e-06
3.52784e-06
3.52781e-06
3.52778e-06
3.52773e-06
3.52766e-06
3.52758e-06
3.52753e-06
3.52752e-06
3.52752e-06
3.52753e-06
3.52755e-06
3.5276e-06
3.5277e-06
3.52781e-06
3.5279e-06
3.52798e-06
3.52803e-06
3.52809e-06
3.52812e-06
3.52817e-06
3.5282e-06
3.52825e-06
3.5283e-06
3.52842e-06
3.52853e-06
3.52874e-06
3.52887e-06
3.52908e-06
3.52919e-06
3.5294e-06
3.52952e-06
3.52974e-06
3.52987e-06
3.53013e-06
3.53027e-06
3.53057e-06
3.53075e-06
3.5311e-06
3.5313e-06
3.53171e-06
3.53195e-06
3.53243e-06
3.5327e-06
3.53324e-06
3.53353e-06
3.6859e-06
3.68907e-06
3.6888e-06
3.68801e-06
3.68726e-06
3.68647e-06
3.68572e-06
3.68486e-06
3.68403e-06
3.68318e-06
3.68244e-06
3.68161e-06
3.68081e-06
3.67994e-06
3.67917e-06
3.67834e-06
3.67757e-06
3.67678e-06
3.67607e-06
3.67526e-06
3.67442e-06
3.67355e-06
3.67289e-06
3.67226e-06
3.67156e-06
3.67061e-06
3.66964e-06
3.66881e-06
3.66827e-06
3.66771e-06
3.667e-06
3.66603e-06
3.66512e-06
3.66433e-06
3.66378e-06
3.66318e-06
3.66252e-06
3.66169e-06
3.66093e-06
3.66021e-06
3.65961e-06
3.65889e-06
3.65814e-06
3.65733e-06
3.65669e-06
3.65608e-06
3.6555e-06
3.65474e-06
3.65397e-06
3.65319e-06
3.65259e-06
3.65195e-06
3.65134e-06
3.65057e-06
3.64988e-06
3.64917e-06
3.64857e-06
3.64785e-06
3.64716e-06
3.64641e-06
3.64582e-06
3.64523e-06
3.64469e-06