/*--------------------------------*- C++ -*----------------------------------*\
  =========                 |
  \\      /  F ield         | OpenFOAM: The Open Source CFD Toolbox
   \\    /   O peration     | Website:  https://openfoam.org
    \\  /    A nd           | Version:  7
     \\/     M anipulation  |
\*---------------------------------------------------------------------------*/
FoamFile
{
    version     2.0;
    format      ascii;
    class       volScalarField;
    location    "0.0325";
    object      pPrime2Mean;
}
// * * * * * * * * * * * * * * * * * * * * * * * * * * * * * * * * * * * * * //

dimensions      [2 -2 -4 0 0 0 0];

internalField   nonuniform List<scalar> 
1440
(
3.79748e+06
3.77317e+06
3.75485e+06
3.74138e+06
3.72958e+06
3.71758e+06
3.705e+06
3.69214e+06
3.67931e+06
3.66661e+06
3.65389e+06
3.64095e+06
3.62766e+06
3.61398e+06
3.5999e+06
3.58539e+06
3.57044e+06
3.55503e+06
3.5392e+06
3.52297e+06
3.50637e+06
3.48945e+06
3.47222e+06
3.45472e+06
3.43696e+06
3.41895e+06
3.40068e+06
3.38217e+06
3.36341e+06
3.34439e+06
3.32512e+06
3.30561e+06
3.28585e+06
3.26585e+06
3.24562e+06
3.22516e+06
3.20449e+06
3.18361e+06
3.16252e+06
3.14123e+06
3.11975e+06
3.09808e+06
3.07622e+06
3.05417e+06
3.03195e+06
3.00955e+06
2.98697e+06
2.96422e+06
2.9413e+06
2.91822e+06
2.89497e+06
2.87157e+06
2.848e+06
2.82429e+06
2.80042e+06
2.7764e+06
2.75224e+06
2.72794e+06
2.70349e+06
2.67891e+06
2.65419e+06
2.62934e+06
2.60437e+06
2.57927e+06
2.55404e+06
2.52869e+06
2.50323e+06
2.47765e+06
2.45196e+06
2.42616e+06
2.40025e+06
2.37424e+06
2.34813e+06
2.32192e+06
2.29561e+06
2.26921e+06
2.24272e+06
2.21614e+06
2.18947e+06
2.16272e+06
2.13589e+06
2.10898e+06
2.082e+06
2.05494e+06
2.02782e+06
2.00062e+06
1.97336e+06
1.94604e+06
1.91866e+06
1.89123e+06
1.86374e+06
1.8362e+06
1.80861e+06
1.78098e+06
1.7533e+06
1.72558e+06
1.69781e+06
1.67e+06
1.64215e+06
1.61425e+06
1.58629e+06
1.55828e+06
1.53022e+06
1.5021e+06
1.47393e+06
1.4457e+06
1.41743e+06
1.38913e+06
1.36081e+06
1.3325e+06
1.30421e+06
1.27599e+06
1.24787e+06
1.21989e+06
1.19209e+06
1.16453e+06
1.13723e+06
1.11026e+06
1.08364e+06
1.0575e+06
3.79787e+06
3.77369e+06
3.7555e+06
3.7421e+06
3.73035e+06
3.7184e+06
3.70582e+06
3.69288e+06
3.67989e+06
3.667e+06
3.65414e+06
3.6411e+06
3.62773e+06
3.61397e+06
3.59984e+06
3.58531e+06
3.57035e+06
3.55494e+06
3.53911e+06
3.52288e+06
3.50629e+06
3.48937e+06
3.47216e+06
3.45467e+06
3.43692e+06
3.41891e+06
3.40066e+06
3.38215e+06
3.36339e+06
3.34437e+06
3.3251e+06
3.30558e+06
3.28582e+06
3.26582e+06
3.24559e+06
3.22514e+06
3.20447e+06
3.18359e+06
3.1625e+06
3.14122e+06
3.11974e+06
3.09807e+06
3.07621e+06
3.05417e+06
3.03194e+06
3.00954e+06
2.98697e+06
2.96422e+06
2.9413e+06
2.91822e+06
2.89497e+06
2.87157e+06
2.848e+06
2.82429e+06
2.80042e+06
2.7764e+06
2.75224e+06
2.72794e+06
2.70349e+06
2.67891e+06
2.6542e+06
2.62935e+06
2.60437e+06
2.57927e+06
2.55404e+06
2.5287e+06
2.50323e+06
2.47766e+06
2.45196e+06
2.42616e+06
2.40026e+06
2.37424e+06
2.34813e+06
2.32192e+06
2.29561e+06
2.26921e+06
2.24272e+06
2.21614e+06
2.18947e+06
2.16272e+06
2.13589e+06
2.10899e+06
2.082e+06
2.05495e+06
2.02782e+06
2.00063e+06
1.97337e+06
1.94605e+06
1.91867e+06
1.89123e+06
1.86374e+06
1.8362e+06
1.80861e+06
1.78098e+06
1.7533e+06
1.72558e+06
1.69781e+06
1.67e+06
1.64215e+06
1.61425e+06
1.58629e+06
1.55828e+06
1.53022e+06
1.5021e+06
1.47393e+06
1.4457e+06
1.41743e+06
1.38913e+06
1.36081e+06
1.33249e+06
1.30421e+06
1.27599e+06
1.24787e+06
1.21989e+06
1.19209e+06
1.16452e+06
1.13723e+06
1.11025e+06
1.08362e+06
1.05747e+06
3.79818e+06
3.77405e+06
3.7559e+06
3.74255e+06
3.73084e+06
3.71893e+06
3.70637e+06
3.69337e+06
3.68024e+06
3.66717e+06
3.65413e+06
3.64093e+06
3.6274e+06
3.6135e+06
3.59924e+06
3.58463e+06
3.56964e+06
3.55425e+06
3.53847e+06
3.52232e+06
3.50581e+06
3.48898e+06
3.47184e+06
3.45441e+06
3.4367e+06
3.41872e+06
3.40048e+06
3.38198e+06
3.36323e+06
3.34422e+06
3.32496e+06
3.30545e+06
3.2857e+06
3.26572e+06
3.24551e+06
3.22507e+06
3.20441e+06
3.18355e+06
3.16247e+06
3.1412e+06
3.11972e+06
3.09806e+06
3.0762e+06
3.05416e+06
3.03194e+06
3.00954e+06
2.98696e+06
2.96422e+06
2.9413e+06
2.91822e+06
2.89497e+06
2.87157e+06
2.84801e+06
2.82429e+06
2.80042e+06
2.7764e+06
2.75224e+06
2.72794e+06
2.70349e+06
2.67891e+06
2.6542e+06
2.62935e+06
2.60437e+06
2.57927e+06
2.55404e+06
2.5287e+06
2.50323e+06
2.47765e+06
2.45196e+06
2.42616e+06
2.40025e+06
2.37424e+06
2.34813e+06
2.32192e+06
2.29561e+06
2.26921e+06
2.24272e+06
2.21614e+06
2.18947e+06
2.16272e+06
2.13589e+06
2.10898e+06
2.082e+06
2.05494e+06
2.02782e+06
2.00062e+06
1.97336e+06
1.94604e+06
1.91866e+06
1.89123e+06
1.86374e+06
1.8362e+06
1.80861e+06
1.78098e+06
1.7533e+06
1.72557e+06
1.69781e+06
1.67e+06
1.64214e+06
1.61424e+06
1.58629e+06
1.55828e+06
1.53022e+06
1.5021e+06
1.47392e+06
1.4457e+06
1.41743e+06
1.38912e+06
1.3608e+06
1.33249e+06
1.3042e+06
1.27598e+06
1.24786e+06
1.21988e+06
1.19209e+06
1.16452e+06
1.13722e+06
1.11024e+06
1.08361e+06
1.05745e+06
3.79843e+06
3.77432e+06
3.75621e+06
3.74289e+06
3.73121e+06
3.71931e+06
3.70674e+06
3.69369e+06
3.68045e+06
3.66726e+06
3.65411e+06
3.6408e+06
3.62717e+06
3.6132e+06
3.59889e+06
3.58426e+06
3.56928e+06
3.55392e+06
3.53817e+06
3.52206e+06
3.50559e+06
3.48879e+06
3.47168e+06
3.45427e+06
3.43658e+06
3.41861e+06
3.40038e+06
3.38189e+06
3.36314e+06
3.34413e+06
3.32488e+06
3.30538e+06
3.28564e+06
3.26566e+06
3.24546e+06
3.22502e+06
3.20437e+06
3.18351e+06
3.16244e+06
3.14117e+06
3.11969e+06
3.09803e+06
3.07618e+06
3.05414e+06
3.03192e+06
3.00952e+06
2.98695e+06
2.9642e+06
2.94128e+06
2.9182e+06
2.89496e+06
2.87155e+06
2.84799e+06
2.82427e+06
2.8004e+06
2.77639e+06
2.75223e+06
2.72792e+06
2.70348e+06
2.6789e+06
2.65418e+06
2.62933e+06
2.60436e+06
2.57925e+06
2.55403e+06
2.52868e+06
2.50322e+06
2.47764e+06
2.45195e+06
2.42615e+06
2.40024e+06
2.37423e+06
2.34812e+06
2.32191e+06
2.2956e+06
2.2692e+06
2.24271e+06
2.21613e+06
2.18946e+06
2.16271e+06
2.13588e+06
2.10897e+06
2.08199e+06
2.05493e+06
2.02781e+06
2.00061e+06
1.97335e+06
1.94603e+06
1.91865e+06
1.89122e+06
1.86373e+06
1.83619e+06
1.8086e+06
1.78097e+06
1.75329e+06
1.72557e+06
1.6978e+06
1.66999e+06
1.64214e+06
1.61423e+06
1.58628e+06
1.55827e+06
1.53021e+06
1.50209e+06
1.47391e+06
1.44569e+06
1.41742e+06
1.38911e+06
1.3608e+06
1.33248e+06
1.3042e+06
1.27598e+06
1.24786e+06
1.21988e+06
1.19208e+06
1.16451e+06
1.13721e+06
1.11023e+06
1.0836e+06
1.05744e+06
3.79861e+06
3.7745e+06
3.75641e+06
3.74312e+06
3.73145e+06
3.71955e+06
3.70697e+06
3.69388e+06
3.68059e+06
3.66733e+06
3.65411e+06
3.64074e+06
3.62706e+06
3.61304e+06
3.5987e+06
3.58404e+06
3.56905e+06
3.55368e+06
3.53794e+06
3.52184e+06
3.50539e+06
3.48862e+06
3.47153e+06
3.45414e+06
3.43647e+06
3.41851e+06
3.40029e+06
3.3818e+06
3.36306e+06
3.34406e+06
3.3248e+06
3.30531e+06
3.28557e+06
3.2656e+06
3.2454e+06
3.22497e+06
3.20432e+06
3.18347e+06
3.1624e+06
3.14113e+06
3.11967e+06
3.09801e+06
3.07616e+06
3.05412e+06
3.03191e+06
3.00951e+06
2.98694e+06
2.96419e+06
2.94127e+06
2.91819e+06
2.89495e+06
2.87154e+06
2.84798e+06
2.82427e+06
2.8004e+06
2.77638e+06
2.75222e+06
2.72792e+06
2.70347e+06
2.67889e+06
2.65417e+06
2.62933e+06
2.60435e+06
2.57925e+06
2.55402e+06
2.52868e+06
2.50321e+06
2.47764e+06
2.45195e+06
2.42615e+06
2.40024e+06
2.37423e+06
2.34811e+06
2.3219e+06
2.2956e+06
2.26919e+06
2.2427e+06
2.21612e+06
2.18946e+06
2.16271e+06
2.13588e+06
2.10897e+06
2.08199e+06
2.05493e+06
2.0278e+06
2.00061e+06
1.97335e+06
1.94603e+06
1.91865e+06
1.89121e+06
1.86372e+06
1.83618e+06
1.8086e+06
1.78096e+06
1.75328e+06
1.72556e+06
1.6978e+06
1.66999e+06
1.64213e+06
1.61423e+06
1.58627e+06
1.55827e+06
1.5302e+06
1.50208e+06
1.47391e+06
1.44568e+06
1.41741e+06
1.38911e+06
1.36079e+06
1.33248e+06
1.30419e+06
1.27597e+06
1.24785e+06
1.21987e+06
1.19207e+06
1.1645e+06
1.1372e+06
1.11022e+06
1.08359e+06
1.05743e+06
3.7987e+06
3.7746e+06
3.75652e+06
3.74323e+06
3.73157e+06
3.71966e+06
3.70707e+06
3.69397e+06
3.68066e+06
3.66737e+06
3.65411e+06
3.64071e+06
3.62701e+06
3.61296e+06
3.5986e+06
3.58393e+06
3.56893e+06
3.55356e+06
3.53783e+06
3.52174e+06
3.50531e+06
3.48855e+06
3.47147e+06
3.45409e+06
3.43642e+06
3.41847e+06
3.40025e+06
3.38176e+06
3.36302e+06
3.34402e+06
3.32477e+06
3.30528e+06
3.28555e+06
3.26558e+06
3.24538e+06
3.22496e+06
3.20431e+06
3.18346e+06
3.1624e+06
3.14113e+06
3.11966e+06
3.098e+06
3.07615e+06
3.05412e+06
3.0319e+06
3.0095e+06
2.98693e+06
2.96419e+06
2.94127e+06
2.91819e+06
2.89495e+06
2.87154e+06
2.84798e+06
2.82426e+06
2.80039e+06
2.77638e+06
2.75222e+06
2.72791e+06
2.70347e+06
2.67888e+06
2.65417e+06
2.62932e+06
2.60435e+06
2.57924e+06
2.55402e+06
2.52867e+06
2.50321e+06
2.47763e+06
2.45194e+06
2.42614e+06
2.40023e+06
2.37422e+06
2.34811e+06
2.3219e+06
2.29559e+06
2.26919e+06
2.2427e+06
2.21612e+06
2.18945e+06
2.1627e+06
2.13587e+06
2.10896e+06
2.08198e+06
2.05493e+06
2.0278e+06
2.0006e+06
1.97335e+06
1.94602e+06
1.91864e+06
1.89121e+06
1.86372e+06
1.83618e+06
1.80859e+06
1.78096e+06
1.75328e+06
1.72556e+06
1.69779e+06
1.66998e+06
1.64213e+06
1.61422e+06
1.58627e+06
1.55826e+06
1.5302e+06
1.50208e+06
1.47391e+06
1.44568e+06
1.41741e+06
1.38911e+06
1.36079e+06
1.33247e+06
1.30419e+06
1.27597e+06
1.24785e+06
1.21987e+06
1.19207e+06
1.1645e+06
1.1372e+06
1.11022e+06
1.08358e+06
1.05742e+06
3.7987e+06
3.7746e+06
3.75652e+06
3.74323e+06
3.73157e+06
3.71967e+06
3.70708e+06
3.69397e+06
3.68066e+06
3.66737e+06
3.65411e+06
3.64072e+06
3.62701e+06
3.61296e+06
3.5986e+06
3.58393e+06
3.56893e+06
3.55356e+06
3.53784e+06
3.52175e+06
3.50532e+06
3.48855e+06
3.47148e+06
3.4541e+06
3.43643e+06
3.41847e+06
3.40025e+06
3.38176e+06
3.36302e+06
3.34402e+06
3.32477e+06
3.30528e+06
3.28554e+06
3.26558e+06
3.24538e+06
3.22495e+06
3.20431e+06
3.18346e+06
3.16239e+06
3.14113e+06
3.11966e+06
3.098e+06
3.07615e+06
3.05412e+06
3.0319e+06
3.0095e+06
2.98693e+06
2.96418e+06
2.94127e+06
2.91819e+06
2.89494e+06
2.87154e+06
2.84798e+06
2.82426e+06
2.80039e+06
2.77638e+06
2.75221e+06
2.72791e+06
2.70346e+06
2.67888e+06
2.65417e+06
2.62932e+06
2.60434e+06
2.57924e+06
2.55402e+06
2.52867e+06
2.50321e+06
2.47763e+06
2.45194e+06
2.42614e+06
2.40023e+06
2.37422e+06
2.34811e+06
2.3219e+06
2.29559e+06
2.26919e+06
2.2427e+06
2.21612e+06
2.18945e+06
2.1627e+06
2.13587e+06
2.10896e+06
2.08198e+06
2.05492e+06
2.0278e+06
2.0006e+06
1.97334e+06
1.94602e+06
1.91864e+06
1.89121e+06
1.86372e+06
1.83618e+06
1.80859e+06
1.78096e+06
1.75328e+06
1.72556e+06
1.69779e+06
1.66998e+06
1.64213e+06
1.61422e+06
1.58627e+06
1.55826e+06
1.5302e+06
1.50208e+06
1.47391e+06
1.44568e+06
1.41741e+06
1.38911e+06
1.36079e+06
1.33247e+06
1.30419e+06
1.27597e+06
1.24785e+06
1.21987e+06
1.19207e+06
1.1645e+06
1.1372e+06
1.11022e+06
1.08358e+06
1.05742e+06
3.79861e+06
3.7745e+06
3.75642e+06
3.74312e+06
3.73146e+06
3.71956e+06
3.70698e+06
3.69389e+06
3.6806e+06
3.66734e+06
3.65411e+06
3.64074e+06
3.62706e+06
3.61304e+06
3.5987e+06
3.58405e+06
3.56905e+06
3.55369e+06
3.53795e+06
3.52186e+06
3.50541e+06
3.48864e+06
3.47155e+06
3.45416e+06
3.43648e+06
3.41852e+06
3.40029e+06
3.3818e+06
3.36305e+06
3.34405e+06
3.3248e+06
3.3053e+06
3.28556e+06
3.26559e+06
3.24539e+06
3.22497e+06
3.20432e+06
3.18347e+06
3.1624e+06
3.14113e+06
3.11967e+06
3.09801e+06
3.07616e+06
3.05412e+06
3.0319e+06
3.00951e+06
2.98693e+06
2.96419e+06
2.94127e+06
2.91819e+06
2.89495e+06
2.87154e+06
2.84798e+06
2.82426e+06
2.80039e+06
2.77638e+06
2.75222e+06
2.72791e+06
2.70347e+06
2.67889e+06
2.65417e+06
2.62932e+06
2.60435e+06
2.57925e+06
2.55402e+06
2.52867e+06
2.50321e+06
2.47763e+06
2.45194e+06
2.42614e+06
2.40023e+06
2.37422e+06
2.34811e+06
2.3219e+06
2.29559e+06
2.26919e+06
2.2427e+06
2.21612e+06
2.18945e+06
2.1627e+06
2.13587e+06
2.10896e+06
2.08198e+06
2.05492e+06
2.0278e+06
2.0006e+06
1.97334e+06
1.94602e+06
1.91864e+06
1.89121e+06
1.86372e+06
1.83618e+06
1.80859e+06
1.78096e+06
1.75328e+06
1.72556e+06
1.69779e+06
1.66998e+06
1.64213e+06
1.61422e+06
1.58627e+06
1.55826e+06
1.5302e+06
1.50208e+06
1.47391e+06
1.44568e+06
1.41741e+06
1.38911e+06
1.36079e+06
1.33247e+06
1.30419e+06
1.27597e+06
1.24785e+06
1.21987e+06
1.19207e+06
1.1645e+06
1.1372e+06
1.11022e+06
1.08358e+06
1.05742e+06
3.79843e+06
3.77432e+06
3.75621e+06
3.7429e+06
3.73122e+06
3.71932e+06
3.70676e+06
3.6937e+06
3.68047e+06
3.66727e+06
3.65411e+06
3.6408e+06
3.62717e+06
3.6132e+06
3.59889e+06
3.58427e+06
3.56929e+06
3.55393e+06
3.53819e+06
3.52208e+06
3.50562e+06
3.48882e+06
3.47171e+06
3.4543e+06
3.4366e+06
3.41862e+06
3.40038e+06
3.38188e+06
3.36313e+06
3.34412e+06
3.32487e+06
3.30537e+06
3.28563e+06
3.26565e+06
3.24545e+06
3.22502e+06
3.20437e+06
3.18351e+06
3.16244e+06
3.14116e+06
3.11969e+06
3.09803e+06
3.07618e+06
3.05414e+06
3.03192e+06
3.00952e+06
2.98694e+06
2.9642e+06
2.94128e+06
2.9182e+06
2.89495e+06
2.87155e+06
2.84798e+06
2.82427e+06
2.8004e+06
2.77638e+06
2.75222e+06
2.72791e+06
2.70347e+06
2.67889e+06
2.65417e+06
2.62933e+06
2.60435e+06
2.57925e+06
2.55402e+06
2.52868e+06
2.50321e+06
2.47764e+06
2.45195e+06
2.42614e+06
2.40024e+06
2.37423e+06
2.34811e+06
2.3219e+06
2.29559e+06
2.26919e+06
2.2427e+06
2.21612e+06
2.18945e+06
2.1627e+06
2.13587e+06
2.10897e+06
2.08198e+06
2.05493e+06
2.0278e+06
2.00061e+06
1.97335e+06
1.94603e+06
1.91865e+06
1.89121e+06
1.86372e+06
1.83618e+06
1.80859e+06
1.78096e+06
1.75328e+06
1.72556e+06
1.69779e+06
1.66998e+06
1.64213e+06
1.61423e+06
1.58627e+06
1.55826e+06
1.5302e+06
1.50208e+06
1.47391e+06
1.44568e+06
1.41741e+06
1.38911e+06
1.36079e+06
1.33247e+06
1.30419e+06
1.27597e+06
1.24785e+06
1.21987e+06
1.19207e+06
1.1645e+06
1.1372e+06
1.11022e+06
1.08359e+06
1.05743e+06
3.79818e+06
3.77405e+06
3.75591e+06
3.74257e+06
3.73086e+06
3.71895e+06
3.7064e+06
3.6934e+06
3.68026e+06
3.66718e+06
3.65414e+06
3.64093e+06
3.62739e+06
3.61349e+06
3.59924e+06
3.58463e+06
3.56965e+06
3.55427e+06
3.5385e+06
3.52236e+06
3.50586e+06
3.48903e+06
3.47189e+06
3.45445e+06
3.43673e+06
3.41874e+06
3.40048e+06
3.38197e+06
3.36321e+06
3.3442e+06
3.32493e+06
3.30543e+06
3.28568e+06
3.2657e+06
3.24549e+06
3.22506e+06
3.20441e+06
3.18354e+06
3.16247e+06
3.14119e+06
3.11972e+06
3.09805e+06
3.0762e+06
3.05416e+06
3.03194e+06
3.00953e+06
2.98696e+06
2.96421e+06
2.94129e+06
2.91821e+06
2.89496e+06
2.87156e+06
2.84799e+06
2.82428e+06
2.80041e+06
2.77639e+06
2.75223e+06
2.72792e+06
2.70348e+06
2.6789e+06
2.65418e+06
2.62934e+06
2.60436e+06
2.57926e+06
2.55403e+06
2.52869e+06
2.50322e+06
2.47764e+06
2.45195e+06
2.42615e+06
2.40024e+06
2.37423e+06
2.34812e+06
2.32191e+06
2.2956e+06
2.2692e+06
2.24271e+06
2.21612e+06
2.18946e+06
2.16271e+06
2.13588e+06
2.10897e+06
2.08199e+06
2.05493e+06
2.0278e+06
2.00061e+06
1.97335e+06
1.94603e+06
1.91865e+06
1.89122e+06
1.86373e+06
1.83619e+06
1.8086e+06
1.78096e+06
1.75329e+06
1.72556e+06
1.6978e+06
1.66999e+06
1.64213e+06
1.61423e+06
1.58627e+06
1.55827e+06
1.5302e+06
1.50209e+06
1.47391e+06
1.44569e+06
1.41742e+06
1.38911e+06
1.36079e+06
1.33248e+06
1.30419e+06
1.27597e+06
1.24785e+06
1.21987e+06
1.19207e+06
1.1645e+06
1.13721e+06
1.11023e+06
1.0836e+06
1.05744e+06
3.79786e+06
3.7737e+06
3.7555e+06
3.74212e+06
3.73037e+06
3.71843e+06
3.70586e+06
3.69292e+06
3.67991e+06
3.66702e+06
3.65415e+06
3.6411e+06
3.62771e+06
3.61396e+06
3.59983e+06
3.5853e+06
3.57035e+06
3.55496e+06
3.53914e+06
3.52293e+06
3.50635e+06
3.48944e+06
3.47222e+06
3.45472e+06
3.43696e+06
3.41893e+06
3.40066e+06
3.38213e+06
3.36336e+06
3.34434e+06
3.32507e+06
3.30555e+06
3.28579e+06
3.2658e+06
3.24558e+06
3.22513e+06
3.20446e+06
3.18359e+06
3.1625e+06
3.14122e+06
3.11974e+06
3.09807e+06
3.07621e+06
3.05417e+06
3.03194e+06
3.00954e+06
2.98696e+06
2.96421e+06
2.9413e+06
2.91821e+06
2.89496e+06
2.87156e+06
2.84799e+06
2.82428e+06
2.80041e+06
2.77639e+06
2.75223e+06
2.72793e+06
2.70348e+06
2.6789e+06
2.65419e+06
2.62934e+06
2.60436e+06
2.57926e+06
2.55404e+06
2.52869e+06
2.50323e+06
2.47765e+06
2.45196e+06
2.42616e+06
2.40025e+06
2.37424e+06
2.34812e+06
2.32191e+06
2.2956e+06
2.2692e+06
2.24271e+06
2.21613e+06
2.18946e+06
2.16271e+06
2.13588e+06
2.10897e+06
2.08199e+06
2.05493e+06
2.02781e+06
2.00061e+06
1.97336e+06
1.94604e+06
1.91866e+06
1.89122e+06
1.86373e+06
1.83619e+06
1.8086e+06
1.78097e+06
1.75329e+06
1.72557e+06
1.6978e+06
1.66999e+06
1.64214e+06
1.61423e+06
1.58628e+06
1.55827e+06
1.53021e+06
1.50209e+06
1.47392e+06
1.44569e+06
1.41742e+06
1.38912e+06
1.3608e+06
1.33248e+06
1.3042e+06
1.27598e+06
1.24786e+06
1.21988e+06
1.19208e+06
1.16451e+06
1.13721e+06
1.11023e+06
1.08361e+06
1.05746e+06
3.79747e+06
3.77317e+06
3.75486e+06
3.7414e+06
3.72961e+06
3.71763e+06
3.70506e+06
3.69219e+06
3.67936e+06
3.66664e+06
3.6539e+06
3.64094e+06
3.62764e+06
3.61395e+06
3.59987e+06
3.58537e+06
3.57044e+06
3.55505e+06
3.53924e+06
3.52302e+06
3.50644e+06
3.48952e+06
3.4723e+06
3.45479e+06
3.43701e+06
3.41897e+06
3.40069e+06
3.38216e+06
3.36338e+06
3.34435e+06
3.32508e+06
3.30557e+06
3.28581e+06
3.26582e+06
3.2456e+06
3.22515e+06
3.20448e+06
3.1836e+06
3.16252e+06
3.14123e+06
3.11975e+06
3.09807e+06
3.07621e+06
3.05417e+06
3.03194e+06
3.00954e+06
2.98696e+06
2.96421e+06
2.94129e+06
2.91821e+06
2.89496e+06
2.87155e+06
2.84799e+06
2.82427e+06
2.8004e+06
2.77638e+06
2.75222e+06
2.72792e+06
2.70347e+06
2.67889e+06
2.65418e+06
2.62933e+06
2.60435e+06
2.57925e+06
2.55403e+06
2.52868e+06
2.50322e+06
2.47764e+06
2.45195e+06
2.42614e+06
2.40024e+06
2.37423e+06
2.34811e+06
2.3219e+06
2.29559e+06
2.26919e+06
2.2427e+06
2.21612e+06
2.18945e+06
2.1627e+06
2.13587e+06
2.10897e+06
2.08198e+06
2.05493e+06
2.0278e+06
2.00061e+06
1.97335e+06
1.94603e+06
1.91865e+06
1.89121e+06
1.86372e+06
1.83619e+06
1.8086e+06
1.78096e+06
1.75329e+06
1.72556e+06
1.6978e+06
1.66999e+06
1.64213e+06
1.61423e+06
1.58628e+06
1.55827e+06
1.53021e+06
1.50209e+06
1.47391e+06
1.44569e+06
1.41742e+06
1.38912e+06
1.3608e+06
1.33248e+06
1.3042e+06
1.27598e+06
1.24786e+06
1.21988e+06
1.19208e+06
1.16451e+06
1.13721e+06
1.11024e+06
1.08362e+06
1.05749e+06
)
;

boundaryField
{
    upperWall
    {
        type            calculated;
        value           nonuniform List<scalar> 
120
(
3.79747e+06
3.77317e+06
3.75486e+06
3.7414e+06
3.72961e+06
3.71763e+06
3.70506e+06
3.69219e+06
3.67936e+06
3.66664e+06
3.6539e+06
3.64094e+06
3.62764e+06
3.61395e+06
3.59987e+06
3.58537e+06
3.57044e+06
3.55505e+06
3.53924e+06
3.52302e+06
3.50644e+06
3.48952e+06
3.4723e+06
3.45479e+06
3.43701e+06
3.41897e+06
3.40069e+06
3.38216e+06
3.36338e+06
3.34435e+06
3.32508e+06
3.30557e+06
3.28581e+06
3.26582e+06
3.2456e+06
3.22515e+06
3.20448e+06
3.1836e+06
3.16252e+06
3.14123e+06
3.11975e+06
3.09807e+06
3.07621e+06
3.05417e+06
3.03194e+06
3.00954e+06
2.98696e+06
2.96421e+06
2.94129e+06
2.91821e+06
2.89496e+06
2.87155e+06
2.84799e+06
2.82427e+06
2.8004e+06
2.77638e+06
2.75222e+06
2.72792e+06
2.70347e+06
2.67889e+06
2.65418e+06
2.62933e+06
2.60435e+06
2.57925e+06
2.55403e+06
2.52868e+06
2.50322e+06
2.47764e+06
2.45195e+06
2.42614e+06
2.40024e+06
2.37423e+06
2.34811e+06
2.3219e+06
2.29559e+06
2.26919e+06
2.2427e+06
2.21612e+06
2.18945e+06
2.1627e+06
2.13587e+06
2.10897e+06
2.08198e+06
2.05493e+06
2.0278e+06
2.00061e+06
1.97335e+06
1.94603e+06
1.91865e+06
1.89121e+06
1.86372e+06
1.83619e+06
1.8086e+06
1.78096e+06
1.75329e+06
1.72556e+06
1.6978e+06
1.66999e+06
1.64213e+06
1.61423e+06
1.58628e+06
1.55827e+06
1.53021e+06
1.50209e+06
1.47391e+06
1.44569e+06
1.41742e+06
1.38912e+06
1.3608e+06
1.33248e+06
1.3042e+06
1.27598e+06
1.24786e+06
1.21988e+06
1.19208e+06
1.16451e+06
1.13721e+06
1.11024e+06
1.08362e+06
1.05749e+06
)
;
    }
    lowerWall
    {
        type            calculated;
        value           nonuniform List<scalar> 
120
(
3.79748e+06
3.77317e+06
3.75485e+06
3.74138e+06
3.72958e+06
3.71758e+06
3.705e+06
3.69214e+06
3.67931e+06
3.66661e+06
3.65389e+06
3.64095e+06
3.62766e+06
3.61398e+06
3.5999e+06
3.58539e+06
3.57044e+06
3.55503e+06
3.5392e+06
3.52297e+06
3.50637e+06
3.48945e+06
3.47222e+06
3.45472e+06
3.43696e+06
3.41895e+06
3.40068e+06
3.38217e+06
3.36341e+06
3.34439e+06
3.32512e+06
3.30561e+06
3.28585e+06
3.26585e+06
3.24562e+06
3.22516e+06
3.20449e+06
3.18361e+06
3.16252e+06
3.14123e+06
3.11975e+06
3.09808e+06
3.07622e+06
3.05417e+06
3.03195e+06
3.00955e+06
2.98697e+06
2.96422e+06
2.9413e+06
2.91822e+06
2.89497e+06
2.87157e+06
2.848e+06
2.82429e+06
2.80042e+06
2.7764e+06
2.75224e+06
2.72794e+06
2.70349e+06
2.67891e+06
2.65419e+06
2.62934e+06
2.60437e+06
2.57927e+06
2.55404e+06
2.52869e+06
2.50323e+06
2.47765e+06
2.45196e+06
2.42616e+06
2.40025e+06
2.37424e+06
2.34813e+06
2.32192e+06
2.29561e+06
2.26921e+06
2.24272e+06
2.21614e+06
2.18947e+06
2.16272e+06
2.13589e+06
2.10898e+06
2.082e+06
2.05494e+06
2.02782e+06
2.00062e+06
1.97336e+06
1.94604e+06
1.91866e+06
1.89123e+06
1.86374e+06
1.8362e+06
1.80861e+06
1.78098e+06
1.7533e+06
1.72558e+06
1.69781e+06
1.67e+06
1.64215e+06
1.61425e+06
1.58629e+06
1.55828e+06
1.53022e+06
1.5021e+06
1.47393e+06
1.4457e+06
1.41743e+06
1.38913e+06
1.36081e+06
1.3325e+06
1.30421e+06
1.27599e+06
1.24787e+06
1.21989e+06
1.19209e+06
1.16453e+06
1.13723e+06
1.11026e+06
1.08364e+06
1.0575e+06
)
;
    }
    inlet
    {
        type            calculated;
        value           nonuniform List<scalar> 
12
(
3.79748e+06
3.79787e+06
3.79818e+06
3.79843e+06
3.79861e+06
3.7987e+06
3.7987e+06
3.79861e+06
3.79843e+06
3.79818e+06
3.79786e+06
3.79747e+06
)
;
    }
    outlet
    {
        type            calculated;
        value           nonuniform List<scalar> 
12
(
1.04413e+06
1.04407e+06
1.04405e+06
1.04404e+06
1.04403e+06
1.04402e+06
1.04402e+06
1.04402e+06
1.04403e+06
1.04404e+06
1.04406e+06
1.04411e+06
)
;
    }
    frontAndBack
    {
        type            empty;
    }
}


// ************************************************************************* //
