/*--------------------------------*- C++ -*----------------------------------*\
  =========                 |
  \\      /  F ield         | OpenFOAM: The Open Source CFD Toolbox
   \\    /   O peration     | Website:  https://openfoam.org
    \\  /    A nd           | Version:  7
     \\/     M anipulation  |
\*---------------------------------------------------------------------------*/
FoamFile
{
    version     2.0;
    format      ascii;
    class       volVectorField;
    location    "0.65";
    object      U;
}
// * * * * * * * * * * * * * * * * * * * * * * * * * * * * * * * * * * * * * //

dimensions      [0 1 -1 0 0 0 0];

internalField   nonuniform List<vector> 
5280
(
(1.43237 -0.888667 -71.2905)
(1.78115 -1.47555 -71.5548)
(0.692551 -1.5181 -71.576)
(0.926313 -1.48522 -71.5995)
(0.715761 -1.50118 -71.5949)
(0.716937 -1.4893 -71.6023)
(0.695369 -1.48703 -71.606)
(0.678452 -1.48763 -71.6095)
(0.665443 -1.48755 -71.6111)
(0.656721 -1.48702 -71.6127)
(0.649955 -1.48684 -71.6147)
(0.645989 -1.487 -71.6162)
(0.64205 -1.48699 -71.6177)
(0.641629 -1.48694 -71.6186)
(0.638433 -1.48657 -71.6203)
(0.642093 -1.48638 -71.6203)
(0.635106 -1.48427 -71.6229)
(0.645254 -1.48192 -71.6205)
(0.597313 -1.44416 -71.6288)
(0.428656 -1.40509 -71.6216)
(3.094 1.97486 -71.5442)
(4.18026 1.60067 -71.8197)
(2.37228 1.52664 -71.9125)
(2.71026 1.37807 -71.9757)
(2.30792 1.40069 -71.9631)
(2.26523 1.35998 -71.9906)
(2.21231 1.3567 -72.0029)
(2.16603 1.35657 -72.0148)
(2.13162 1.354 -72.0193)
(2.10841 1.35221 -72.0243)
(2.08956 1.35168 -72.0305)
(2.07917 1.35109 -72.0348)
(2.06775 1.35126 -72.0393)
(2.06802 1.35033 -72.041)
(2.05752 1.35121 -72.0456)
(2.07178 1.34942 -72.0436)
(2.0493 1.35097 -72.052)
(2.11416 1.35316 -72.0401)
(1.98499 1.3483 -72.0691)
(2.47419 1.34772 -71.9735)
(3.7548 0.248111 -71.5063)
(5.69496 -0.620809 -71.6988)
(4.35557 -0.908331 -71.796)
(4.74309 -1.15802 -71.8224)
(4.44388 -1.17491 -71.895)
(4.34508 -1.22377 -71.9282)
(4.29164 -1.23303 -71.9468)
(4.23939 -1.238 -71.9715)
(4.19485 -1.2434 -71.98)
(4.16581 -1.24691 -71.9932)
(4.14166 -1.24889 -72.0086)
(4.13121 -1.25177 -72.02)
(4.11466 -1.25258 -72.0319)
(4.12084 -1.25493 -72.0367)
(4.10117 -1.25355 -72.0487)
(4.13363 -1.25643 -72.0451)
(4.08575 -1.25398 -72.0654)
(4.17479 -1.24761 -72.04)
(4.01961 -1.27644 -72.0977)
(4.10559 -1.28678 -71.9588)
(4.06901 1.05078 -71.5365)
(6.39245 1.17975 -71.6394)
(5.59928 1.25752 -71.709)
(6.05096 1.22792 -71.7448)
(5.9217 1.25381 -71.793)
(5.89962 1.23314 -71.8356)
(5.89017 1.22473 -71.8675)
(5.87482 1.21931 -71.8974)
(5.861 1.21049 -71.9059)
(5.85626 1.20315 -71.9308)
(5.84897 1.19891 -71.9543)
(5.85468 1.19566 -71.9712)
(5.84769 1.1938 -71.9889)
(5.86909 1.19061 -71.9968)
(5.85049 1.19053 -72.0142)
(5.90528 1.1879 -72.0112)
(5.84145 1.18891 -72.0361)
(5.99451 1.19623 -72.0106)
(5.78077 1.18582 -72.0628)
(6.17222 1.2595 -71.94)
(4.01353 0.115749 -71.5275)
(6.26403 -0.45592 -71.6109)
(5.81195 -0.675854 -71.6405)
(6.43086 -0.932605 -71.6774)
(6.51864 -0.973529 -71.7111)
(6.60275 -1.04641 -71.7428)
(6.69189 -1.08556 -71.7787)
(6.75329 -1.10054 -71.7986)
(6.7948 -1.11221 -71.8345)
(6.83492 -1.12163 -71.8537)
(6.86386 -1.12708 -71.8769)
(6.89934 -1.13138 -71.8939)
(6.91393 -1.13338 -71.9136)
(6.95589 -1.13642 -71.9252)
(6.94939 -1.13644 -71.9452)
(7.01947 -1.13793 -71.9481)
(6.96569 -1.14023 -71.9704)
(7.10578 -1.13298 -71.9585)
(6.94095 -1.1574 -71.9897)
(7.12693 -1.22971 -71.9041)
(4.05373 0.326 -71.5458)
(6.30131 0.680891 -71.6162)
(5.91829 0.850993 -71.6382)
(6.57534 0.995716 -71.6659)
(6.71889 1.04067 -71.6919)
(6.86502 1.07838 -71.7162)
(7.00227 1.10312 -71.7461)
(7.10617 1.11295 -71.7662)
(7.18588 1.11851 -71.7929)
(7.25792 1.12308 -71.8189)
(7.3124 1.12521 -71.8415)
(7.36949 1.12503 -71.8592)
(7.4016 1.12412 -71.8795)
(7.45939 1.12318 -71.8944)
(7.4638 1.12288 -71.914)
(7.54665 1.12212 -71.9225)
(7.49799 1.12369 -71.9405)
(7.65525 1.12707 -71.9399)
(7.49087 1.12563 -71.9578)
(7.74156 1.23128 -71.8885)
(4.05365 -0.325588 -71.5455)
(6.30123 -0.680531 -71.617)
(5.91768 -0.851508 -71.6372)
(6.57545 -0.996302 -71.6661)
(6.71984 -1.04021 -71.6928)
(6.86495 -1.07791 -71.7164)
(7.00203 -1.10326 -71.7457)
(7.10613 -1.11309 -71.7659)
(7.18589 -1.11864 -71.7927)
(7.2579 -1.1231 -71.819)
(7.31238 -1.12518 -71.8413)
(7.36952 -1.12476 -71.8595)
(7.4016 -1.12379 -71.879)
(7.45952 -1.12296 -71.8951)
(7.46395 -1.12204 -71.913)
(7.54717 -1.12085 -71.9241)
(7.49865 -1.12121 -71.9383)
(7.65688 -1.12238 -71.9428)
(7.493 -1.12051 -71.9539)
(7.74466 -1.21719 -71.8932)
(4.01352 -0.115378 -71.5263)
(6.26373 0.45617 -71.6145)
(5.81213 0.675563 -71.6347)
(6.4308 0.931078 -71.6802)
(6.51814 0.974677 -71.7155)
(6.6026 1.04691 -71.7426)
(6.69184 1.08539 -71.7762)
(6.75332 1.10038 -71.797)
(6.79487 1.11208 -71.8337)
(6.83504 1.12161 -71.8539)
(6.86398 1.12709 -71.8765)
(6.89953 1.13162 -71.8947)
(6.91396 1.13367 -71.9123)
(6.95643 1.13661 -71.9272)
(6.9496 1.13722 -71.9421)
(7.02127 1.13903 -71.9528)
(6.96614 1.1424 -71.9631)
(7.11047 1.13752 -71.969)
(6.94299 1.16117 -71.9749)
(7.14062 1.24552 -71.9221)
(4.0688 -1.05058 -71.5343)
(6.39205 -1.17907 -71.6478)
(5.59828 -1.25808 -71.6923)
(6.05118 -1.22746 -71.7629)
(5.9235 -1.25411 -71.8003)
(5.89923 -1.2335 -71.8304)
(5.88958 -1.22515 -71.8599)
(5.87473 -1.21946 -71.8934)
(5.86108 -1.21052 -71.9043)
(5.85633 -1.20308 -71.9309)
(5.84906 -1.19892 -71.9537)
(5.8549 -1.19546 -71.9721)
(5.84771 -1.19364 -71.9874)
(5.86983 -1.19045 -71.9993)
(5.85087 -1.19005 -72.0101)
(5.90787 -1.18699 -72.018)
(5.84294 -1.18725 -72.0246)
(6.00167 -1.1927 -72.0293)
(5.78866 -1.18266 -72.0323)
(6.18699 -1.24786 -71.9856)
(3.75487 -0.248191 -71.5046)
(5.69437 0.620645 -71.7067)
(4.3562 0.908925 -71.7739)
(4.7423 1.1565 -71.8742)
(4.44344 1.17599 -71.8832)
(4.34545 1.22385 -71.9134)
(4.29188 1.23303 -71.9368)
(4.23951 1.23799 -71.9676)
(4.19496 1.24327 -71.9789)
(4.16595 1.24686 -71.9933)
(4.14186 1.24886 -72.0082)
(4.13149 1.2519 -72.0206)
(4.11475 1.25266 -72.0308)
(4.12163 1.25503 -72.0386)
(4.10174 1.25377 -72.0456)
(4.13637 1.25689 -72.0506)
(4.08717 1.25454 -72.0552)
(4.18173 1.24958 -72.0589)
(4.02491 1.27583 -72.0603)
(4.124 1.29427 -72.0323)
(3.09391 -1.97492 -71.5439)
(4.17979 -1.60093 -71.8207)
(2.37132 -1.52647 -71.9133)
(2.7108 -1.37931 -71.9415)
(2.30936 -1.39961 -71.9967)
(2.26448 -1.35979 -71.9958)
(2.21209 -1.35671 -72.0013)
(2.16604 -1.35655 -72.0139)
(2.1317 -1.35399 -72.0191)
(2.1085 -1.35216 -72.0244)
(2.08972 -1.35169 -72.0303)
(2.07935 -1.35103 -72.035)
(2.06781 -1.35125 -72.0388)
(2.06855 -1.35031 -72.0417)
(2.05808 -1.35114 -72.0443)
(2.07377 -1.34917 -72.0459)
(2.05069 -1.35057 -72.0476)
(2.11913 -1.35206 -72.0488)
(1.99267 -1.34664 -72.0488)
(2.47388 -1.34324 -72.0288)
(1.43233 0.888658 -71.2904)
(1.78091 1.47578 -71.555)
(0.692568 1.51832 -71.5763)
(0.926395 1.48612 -71.5898)
(0.715618 1.50026 -71.6038)
(0.716958 1.48894 -71.604)
(0.695365 1.48697 -71.6058)
(0.678417 1.48761 -71.6093)
(0.66549 1.48751 -71.6111)
(0.656786 1.487 -71.6128)
(0.65009 1.48681 -71.6147)
(0.646087 1.48702 -71.6163)
(0.641998 1.48697 -71.6176)
(0.641807 1.48696 -71.6188)
(0.638704 1.48651 -71.6199)
(0.64289 1.4864 -71.6208)
(0.635617 1.48401 -71.6218)
(0.646974 1.48176 -71.6226)
(0.599255 1.4429 -71.6236)
(0.43332 1.40204 -71.626)
(5.07829 1.93329 0.0353558)
(2.14277 2.65599 0.0155746)
(2.01312 2.544 0.0244608)
(1.24216 2.44494 0.0209523)
(1.26495 2.35899 0.0215758)
(1.16333 2.35797 0.0213067)
(1.10308 2.35288 0.0210609)
(1.06301 2.34759 0.0208114)
(1.03254 2.34456 0.0205799)
(1.00851 2.3434 0.0203377)
(0.988112 2.34369 0.0200646)
(0.971062 2.34465 0.0197954)
(0.956981 2.34558 0.0195042)
(0.943524 2.34644 0.0192036)
(0.934298 2.34694 0.0188791)
(0.917526 2.3479 0.0185629)
(0.925955 2.34491 0.0181787)
(0.881072 2.35313 0.0179222)
(0.906701 2.18179 0.0174302)
(1.79106 2.13749 0.0172982)
(5.82301 -1.05133 -0.00197566)
(4.01556 -1.6076 -0.0211808)
(4.3874 -1.95596 -0.0126832)
(3.51392 -2.09194 -0.0162641)
(3.3634 -2.16504 -0.0158523)
(3.1902 -2.1635 -0.0160656)
(3.0542 -2.17382 -0.0163362)
(2.96016 -2.17465 -0.0166065)
(2.89204 -2.17821 -0.0168327)
(2.83911 -2.17944 -0.0170887)
(2.79558 -2.18201 -0.0173579)
(2.75849 -2.1853 -0.0176292)
(2.7281 -2.18804 -0.0179168)
(2.69804 -2.19013 -0.0182123)
(2.67986 -2.19198 -0.0185379)
(2.64081 -2.19454 -0.0188502)
(2.65942 -2.1927 -0.0192539)
(2.53805 -2.1927 -0.0195214)
(2.71974 -2.22323 -0.0204414)
(1.78728 -2.19624 -0.0205954)
(5.52298 1.28953 0.0171413)
(4.59382 2.22206 0.000715266)
(5.51897 2.30005 0.00916649)
(5.04363 2.25766 0.0060064)
(4.94239 2.18595 0.00666952)
(4.80009 2.16558 0.0064419)
(4.67777 2.14364 0.00614987)
(4.59052 2.1174 0.00582569)
(4.52183 2.10392 0.00570797)
(4.46794 2.09569 0.00541512)
(4.42292 2.09114 0.00514728)
(4.38423 2.08838 0.00486006)
(4.35327 2.08611 0.00456756)
(4.321 2.0846 0.00426719)
(4.3023 2.0836 0.00393919)
(4.26298 2.08154 0.00362141)
(4.26812 2.08343 0.00324529)
(4.21359 2.07407 0.00296769)
(4.23778 2.03407 0.00263361)
(4.42946 2.06879 0.00273627)
(5.31179 -0.871431 0.00325851)
(4.39919 -1.17078 -0.0145723)
(5.59947 -1.4048 -0.00711341)
(5.50038 -1.56795 -0.010822)
(5.64399 -1.74382 -0.0105053)
(5.70323 -1.8118 -0.0106973)
(5.69791 -1.85213 -0.0110144)
(5.68764 -1.88696 -0.0111797)
(5.67632 -1.90651 -0.0116038)
(5.66324 -1.91868 -0.0117688)
(5.65001 -1.92706 -0.0120314)
(5.63447 -1.93445 -0.0123068)
(5.62135 -1.94025 -0.0125894)
(5.6021 -1.94497 -0.0128787)
(5.59529 -1.94821 -0.013206)
(5.56129 -1.95261 -0.0135135)
(5.58048 -1.95446 -0.0139184)
(5.48243 -1.9577 -0.0142138)
(5.59511 -2.00536 -0.015048)
(5.17956 -2.06978 -0.0150671)
(5.29331 0.940754 0.0111017)
(4.36298 1.5298 -0.00485066)
(5.65189 1.71272 0.00308249)
(5.70236 1.79091 2.82496e-05)
(5.96528 1.85407 0.00038198)
(6.12399 1.88994 0.000380602)
(6.21591 1.90326 0.000122969)
(6.28739 1.91397 -9.31911e-05)
(6.33988 1.91924 -0.000284634)
(6.37872 1.92204 -0.000582905)
(6.40679 1.92184 -0.000880308)
(6.42547 1.91931 -0.00111465)
(6.44064 1.91655 -0.00142632)
(6.44544 1.91474 -0.0017225)
(6.45547 1.91348 -0.00205316)
(6.44367 1.91129 -0.0023671)
(6.45891 1.91331 -0.00275578)
(6.42431 1.90766 -0.00304979)
(6.45665 1.90381 -0.00348432)
(6.4503 2.05118 -0.00329021)
(5.29345 -0.823048 0.00724875)
(4.30431 -1.19785 -0.009264)
(5.56353 -1.38985 -0.00177935)
(5.64818 -1.51184 -0.00524171)
(5.97747 -1.64663 -0.00496416)
(6.2178 -1.71577 -0.00505361)
(6.37554 -1.75571 -0.00537292)
(6.50241 -1.79175 -0.00562114)
(6.60395 -1.81582 -0.00587251)
(6.68321 -1.83312 -0.00613237)
(6.74514 -1.8444 -0.00635664)
(6.79143 -1.85123 -0.00667988)
(6.82864 -1.85626 -0.00695538)
(6.85175 -1.8592 -0.00724761)
(6.87597 -1.86082 -0.00757692)
(6.87573 -1.8626 -0.00788698)
(6.90156 -1.86485 -0.00828765)
(6.85959 -1.86677 -0.00859195)
(6.9163 -1.89136 -0.00921781)
(6.76401 -2.0182 -0.00914214)
(5.29355 0.823189 0.00724761)
(4.30423 1.19769 -0.0092599)
(5.56354 1.38978 -0.00177701)
(5.6484 1.51164 -0.00524965)
(5.97739 1.64686 -0.00495847)
(6.21762 1.71613 -0.00506077)
(6.37543 1.75567 -0.00537431)
(6.50242 1.79159 -0.00561653)
(6.60399 1.81573 -0.00587555)
(6.68327 1.83315 -0.00613427)
(6.74517 1.84438 -0.00635652)
(6.79148 1.85151 -0.00668173)
(6.82858 1.8564 -0.00695735)
(6.8519 1.8593 -0.00724747)
(6.87586 1.86117 -0.00757731)
(6.87626 1.86316 -0.00788863)
(6.90135 1.86627 -0.00828659)
(6.86186 1.86924 -0.00859647)
(6.91851 1.89481 -0.00920392)
(6.77428 2.02986 -0.0091243)
(5.29316 -0.940667 0.0111037)
(4.36305 -1.52988 -0.00484409)
(5.65183 -1.71288 0.00308812)
(5.70218 -1.79073 -3.66811e-05)
(5.96554 -1.85412 0.000437382)
(6.12409 -1.88986 0.000402901)
(6.21587 -1.90331 0.000111585)
(6.28739 -1.91401 -0.000107708)
(6.33988 -1.91932 -0.000296996)
(6.37873 -1.922 -0.000586303)
(6.4068 -1.92185 -0.000881152)
(6.4256 -1.91904 -0.00110994)
(6.44053 -1.91642 -0.00142294)
(6.4458 -1.91458 -0.00172301)
(6.45539 -1.91324 -0.00205419)
(6.4449 -1.91068 -0.00236728)
(6.45869 -1.91213 -0.00275636)
(6.42753 -1.90584 -0.00304913)
(6.45596 -1.90096 -0.00349183)
(6.45505 -2.03771 -0.0033218)
(5.31184 0.871517 0.00325465)
(4.39911 1.17059 -0.0145629)
(5.59955 1.40504 -0.00709762)
(5.50057 1.56763 -0.0108452)
(5.64387 1.74366 -0.0104878)
(5.70304 1.81195 -0.0107235)
(5.69779 1.85221 -0.011024)
(5.68766 1.88697 -0.0111766)
(5.67638 1.90639 -0.0115989)
(5.66337 1.91865 -0.011769)
(5.65011 1.92699 -0.0120339)
(5.63466 1.93462 -0.0123024)
(5.62125 1.94025 -0.0125886)
(5.60263 1.94509 -0.0128802)
(5.59526 1.9484 -0.0132058)
(5.5633 1.95321 -0.0135153)
(5.58033 1.95533 -0.0139165)
(5.48952 1.96023 -0.0142207)
(5.59878 2.00779 -0.0150342)
(5.20704 2.07937 -0.0150777)
(5.52283 -1.28945 0.0171391)
(4.59392 -2.22217 0.000715007)
(5.51878 -2.30007 0.00917719)
(5.04361 -2.25677 0.00614699)
(4.94286 -2.18654 0.0064864)
(4.80003 -2.16603 0.00641575)
(4.67755 -2.14369 0.00614409)
(4.59044 -2.11734 0.00582531)
(4.52186 -2.10389 0.00571009)
(4.468 -2.0956 0.00541691)
(4.42304 -2.09113 0.00514524)
(4.3844 -2.08825 0.00486362)
(4.35325 -2.08604 0.00456644)
(4.32147 -2.08453 0.00426622)
(4.30256 -2.08335 0.00393769)
(4.26493 -2.08124 0.0036209)
(4.26866 -2.08249 0.00324318)
(4.22021 -2.07389 0.00296823)
(4.23882 -2.03196 0.0026358)
(4.44247 -2.07218 0.00272857)
(5.82296 1.05134 -0.00197959)
(4.01564 1.60748 -0.0211786)
(4.38729 1.95645 -0.0126912)
(3.51426 2.09109 -0.0164082)
(3.36329 2.16549 -0.0156926)
(3.19012 2.16369 -0.0160691)
(3.05407 2.17394 -0.0163337)
(2.96005 2.17463 -0.0166027)
(2.89209 2.17807 -0.016833)
(2.83919 2.17938 -0.017089)
(2.79576 2.18198 -0.0173601)
(2.75861 2.18532 -0.0176266)
(2.72817 2.18805 -0.0179188)
(2.69839 2.19011 -0.0182136)
(2.68038 2.19212 -0.0185381)
(2.64262 2.19476 -0.0188524)
(2.66046 2.1933 -0.0192519)
(2.54507 2.19362 -0.0195291)
(2.72287 2.22314 -0.0204236)
(1.82583 2.20796 -0.0206361)
(5.07825 -1.93325 0.0353523)
(2.14286 -2.65615 0.0155683)
(2.01228 -2.54417 0.0244741)
(1.24291 -2.44311 0.0209613)
(1.26588 -2.36017 0.0215876)
(1.16262 -2.35844 0.0213248)
(1.10279 -2.35289 0.0210672)
(1.06294 -2.3475 0.0208165)
(1.03261 -2.34448 0.0205821)
(1.00856 -2.34336 0.0203389)
(0.988262 -2.34365 0.0200639)
(0.971119 -2.34464 0.0197966)
(0.956986 -2.34551 0.0195006)
(0.943626 -2.34651 0.0192035)
(0.934729 -2.34681 0.0188775)
(0.918314 -2.34805 0.0185627)
(0.926903 -2.3447 0.0181764)
(0.884008 -2.35353 0.0179259)
(0.909215 -2.18284 0.017425)
(1.7843 -2.14562 0.0173312)
(5.07829 1.93329 -0.0353562)
(2.14277 2.65599 -0.015574)
(2.01312 2.544 -0.0244604)
(1.24216 2.44494 -0.0209544)
(1.26495 2.35899 -0.0215739)
(1.16333 2.35797 -0.0213056)
(1.10308 2.35288 -0.0210601)
(1.06301 2.34759 -0.0208153)
(1.03254 2.34456 -0.0205795)
(1.00851 2.3434 -0.0203367)
(0.988111 2.34369 -0.0200655)
(0.971063 2.34465 -0.0197956)
(0.956982 2.34558 -0.0195017)
(0.943525 2.34644 -0.0192042)
(0.934299 2.34694 -0.0188792)
(0.917526 2.3479 -0.0185622)
(0.925955 2.34491 -0.0181807)
(0.881073 2.35313 -0.0179227)
(0.906702 2.18179 -0.0174286)
(1.79106 2.13748 -0.0172972)
(5.82301 -1.05133 0.00197539)
(4.01556 -1.6076 0.0211812)
(4.3874 -1.95596 0.0126836)
(3.51393 -2.09195 0.0162634)
(3.3634 -2.16504 0.0158528)
(3.1902 -2.1635 0.0160662)
(3.0542 -2.17382 0.0163365)
(2.96016 -2.17465 0.0166058)
(2.89204 -2.17821 0.0168317)
(2.83911 -2.17944 0.0170891)
(2.79558 -2.18201 0.0173583)
(2.75849 -2.1853 0.0176287)
(2.7281 -2.18803 0.0179185)
(2.69805 -2.19013 0.0182121)
(2.67986 -2.19198 0.0185378)
(2.64081 -2.19454 0.0188506)
(2.65942 -2.1927 0.0192527)
(2.53805 -2.1927 0.0195214)
(2.71974 -2.22323 0.0204421)
(1.78728 -2.19624 0.0205958)
(5.52298 1.28953 -0.0171414)
(4.59382 2.22206 -0.000714893)
(5.51897 2.30005 -0.00916644)
(5.04363 2.25766 -0.00600574)
(4.94239 2.18595 -0.00667037)
(4.80009 2.16558 -0.00644155)
(4.67777 2.14364 -0.00614944)
(4.59052 2.1174 -0.00582772)
(4.52183 2.10392 -0.0057078)
(4.46794 2.09569 -0.0054148)
(4.42292 2.09114 -0.00514587)
(4.38423 2.08838 -0.00486073)
(4.35327 2.08611 -0.00456694)
(4.32101 2.0846 -0.00426714)
(4.3023 2.0836 -0.00393924)
(4.26298 2.08154 -0.00362129)
(4.26812 2.08343 -0.00324562)
(4.21359 2.07407 -0.00296726)
(4.23778 2.03407 -0.00263359)
(4.42946 2.06879 -0.00273646)
(5.31179 -0.87143 -0.00325847)
(4.39919 -1.17078 0.0145725)
(5.59947 -1.4048 0.00711305)
(5.50038 -1.56795 0.0108222)
(5.644 -1.74381 0.0105053)
(5.70322 -1.8118 0.0106975)
(5.69791 -1.85214 0.0110138)
(5.68764 -1.88696 0.0111803)
(5.67631 -1.90652 0.0116036)
(5.66324 -1.91868 0.0117694)
(5.65001 -1.92706 0.0120328)
(5.63447 -1.93445 0.0123066)
(5.62135 -1.94025 0.0125892)
(5.60211 -1.94497 0.0128789)
(5.59529 -1.94821 0.013206)
(5.56129 -1.95261 0.0135135)
(5.58048 -1.95446 0.0139186)
(5.48243 -1.9577 0.0142143)
(5.59511 -2.00536 0.0150477)
(5.17956 -2.06978 0.0150668)
(5.29331 0.940755 -0.0111015)
(4.36298 1.5298 0.00485092)
(5.65189 1.71272 -0.00308257)
(5.70236 1.79091 -2.7896e-05)
(5.96528 1.85406 -0.000381402)
(6.12399 1.88994 -0.000380985)
(6.21591 1.90326 -0.000124467)
(6.28739 1.91397 9.77544e-05)
(6.33988 1.91924 0.000282658)
(6.37872 1.92204 0.000583754)
(6.40679 1.92183 0.00087976)
(6.42547 1.91932 0.00111562)
(6.44064 1.91655 0.00142599)
(6.44544 1.91474 0.00172263)
(6.45547 1.91348 0.00205305)
(6.44367 1.91129 0.00236719)
(6.45892 1.91331 0.00275627)
(6.42431 1.90766 0.00305022)
(6.45665 1.90381 0.00348433)
(6.4503 2.05118 0.00328999)
(5.29345 -0.823048 -0.0072485)
(4.30431 -1.19785 0.00926414)
(5.56353 -1.38985 0.00177943)
(5.64818 -1.51184 0.00524179)
(5.97747 -1.64663 0.0049654)
(6.21781 -1.71577 0.00505371)
(6.37554 -1.75571 0.00537222)
(6.50241 -1.79175 0.00562273)
(6.60394 -1.81582 0.00587167)
(6.68321 -1.83313 0.00613305)
(6.74514 -1.8444 0.00635544)
(6.79143 -1.85123 0.00668121)
(6.82864 -1.85626 0.00695537)
(6.85175 -1.8592 0.00724765)
(6.87597 -1.86082 0.00757684)
(6.87573 -1.8626 0.00788728)
(6.90156 -1.86485 0.00828818)
(6.85959 -1.86677 0.00859208)
(6.9163 -1.89136 0.00921852)
(6.76401 -2.0182 0.00914255)
(5.29355 0.823189 -0.00724729)
(4.30423 1.19769 0.00925995)
(5.56354 1.38978 0.00177732)
(5.6484 1.51163 0.00524965)
(5.97739 1.64686 0.00495941)
(6.21763 1.71613 0.00506131)
(6.37543 1.75568 0.00537458)
(6.50242 1.79159 0.00561545)
(6.60399 1.81573 0.00587648)
(6.68328 1.83315 0.00613461)
(6.74517 1.84438 0.00635794)
(6.79148 1.85151 0.00668138)
(6.82859 1.8564 0.00695775)
(6.8519 1.8593 0.00724745)
(6.87586 1.86117 0.00757733)
(6.87626 1.86316 0.00788913)
(6.90135 1.86627 0.00828698)
(6.86186 1.86924 0.00859626)
(6.91851 1.89481 0.00920514)
(6.77428 2.02986 0.00912537)
(5.29316 -0.940667 -0.0111035)
(4.36305 -1.52988 0.004844)
(5.65183 -1.71288 -0.00308765)
(5.70218 -1.79074 3.66744e-05)
(5.96554 -1.85411 -0.000437646)
(6.1241 -1.88986 -0.000402429)
(6.21587 -1.90331 -0.000110563)
(6.28739 -1.914 0.00010367)
(6.33988 -1.91932 0.000299378)
(6.37873 -1.922 0.000586619)
(6.4068 -1.92185 0.000881893)
(6.4256 -1.91904 0.00110959)
(6.44053 -1.91643 0.00142365)
(6.4458 -1.91458 0.00172296)
(6.45539 -1.91324 0.00205439)
(6.4449 -1.91068 0.00236792)
(6.45869 -1.91213 0.00275665)
(6.42753 -1.90584 0.00304873)
(6.45596 -1.90096 0.00349287)
(6.45505 -2.03771 0.00332291)
(5.31184 0.871517 -0.00325434)
(4.39911 1.17059 0.0145628)
(5.59955 1.40504 0.00709788)
(5.50057 1.56763 0.0108454)
(5.64387 1.74366 0.0104869)
(5.70304 1.81194 0.0107243)
(5.69779 1.85221 0.011025)
(5.68766 1.88696 0.0111765)
(5.67639 1.90638 0.0115996)
(5.66337 1.91865 0.0117691)
(5.65012 1.92699 0.0120328)
(5.63466 1.93462 0.0123031)
(5.62125 1.94025 0.012589)
(5.60263 1.94509 0.0128802)
(5.59526 1.9484 0.0132062)
(5.5633 1.95321 0.0135159)
(5.58033 1.95533 0.0139168)
(5.48952 1.96023 0.0142205)
(5.59878 2.00779 0.015035)
(5.20704 2.07937 0.0150786)
(5.52283 -1.28945 -0.0171388)
(4.59392 -2.22217 -0.00071506)
(5.51877 -2.30006 -0.00917703)
(5.04361 -2.25677 -0.00614555)
(4.94286 -2.18654 -0.00648817)
(4.80003 -2.16603 -0.00641571)
(4.67755 -2.14369 -0.00614349)
(4.59044 -2.11734 -0.00582312)
(4.52186 -2.10389 -0.00570999)
(4.468 -2.0956 -0.00541672)
(4.42304 -2.09113 -0.00514646)
(4.3844 -2.08825 -0.00486249)
(4.35325 -2.08604 -0.004567)
(4.32147 -2.08453 -0.00426579)
(4.30256 -2.08335 -0.00393697)
(4.26493 -2.08124 -0.00362064)
(4.26866 -2.08249 -0.00324263)
(4.22021 -2.07389 -0.00296793)
(4.23882 -2.03196 -0.00263606)
(4.44247 -2.07218 -0.00272831)
(5.82296 1.05134 0.00198003)
(4.01564 1.60748 0.0211788)
(4.38729 1.95645 0.0126913)
(3.51426 2.09109 0.0164089)
(3.36328 2.16549 0.0156924)
(3.19012 2.16369 0.016069)
(3.05407 2.17393 0.016334)
(2.96005 2.17463 0.016603)
(2.89209 2.17807 0.0168347)
(2.8392 2.17938 0.0170887)
(2.79576 2.18198 0.0173598)
(2.75861 2.18531 0.0176278)
(2.72817 2.18805 0.017917)
(2.69839 2.19011 0.0182146)
(2.68038 2.19212 0.0185391)
(2.64262 2.19476 0.0188523)
(2.66046 2.1933 0.019253)
(2.54507 2.19362 0.0195303)
(2.72287 2.22314 0.0204219)
(1.82583 2.20796 0.0206355)
(5.07825 -1.93325 -0.0353517)
(2.14286 -2.65615 -0.0155681)
(2.01228 -2.54417 -0.0244745)
(1.24292 -2.44312 -0.0209604)
(1.26588 -2.36017 -0.0215866)
(1.16261 -2.35844 -0.0213256)
(1.10279 -2.35289 -0.0210674)
(1.06294 -2.3475 -0.0208137)
(1.0326 -2.34448 -0.020581)
(1.00856 -2.34336 -0.0203401)
(0.988263 -2.34365 -0.0200627)
(0.971119 -2.34464 -0.0197958)
(0.956987 -2.34551 -0.0195033)
(0.943626 -2.34651 -0.0192019)
(0.934729 -2.34681 -0.0188764)
(0.918314 -2.34805 -0.0185632)
(0.926904 -2.3447 -0.0181749)
(0.884008 -2.35353 -0.0179239)
(0.909215 -2.18284 -0.0174279)
(1.7843 -2.14562 -0.0173324)
(1.43237 -0.888665 71.2904)
(1.78115 -1.47555 71.5548)
(0.692553 -1.5181 71.576)
(0.926311 -1.48522 71.5995)
(0.71576 -1.50118 71.5949)
(0.716939 -1.4893 71.6023)
(0.695368 -1.48703 71.606)
(0.678452 -1.48763 71.6095)
(0.665445 -1.48756 71.6111)
(0.656717 -1.48702 71.6127)
(0.649952 -1.48683 71.6147)
(0.645989 -1.48699 71.6162)
(0.642051 -1.48698 71.6177)
(0.64163 -1.48694 71.6186)
(0.638434 -1.48657 71.6202)
(0.642092 -1.48638 71.6202)
(0.635104 -1.48427 71.6229)
(0.645254 -1.48191 71.6205)
(0.597315 -1.44416 71.6287)
(0.428655 -1.40509 71.6216)
(3.094 1.97486 71.5442)
(4.18026 1.60068 71.8197)
(2.37228 1.52664 71.9125)
(2.71026 1.37807 71.9757)
(2.30792 1.4007 71.9631)
(2.26523 1.35999 71.9906)
(2.21231 1.3567 72.0029)
(2.16603 1.35657 72.0148)
(2.13162 1.35399 72.0193)
(2.10841 1.35221 72.0243)
(2.08956 1.35169 72.0305)
(2.07917 1.35109 72.0348)
(2.06775 1.35127 72.0393)
(2.06802 1.35033 72.041)
(2.05752 1.35121 72.0456)
(2.07178 1.34942 72.0436)
(2.04929 1.35097 72.052)
(2.11416 1.35316 72.0401)
(1.98499 1.3483 72.0691)
(2.47419 1.34773 71.9735)
(3.7548 0.248114 71.5063)
(5.69496 -0.620803 71.6988)
(4.35557 -0.908331 71.796)
(4.74309 -1.15803 71.8224)
(4.44388 -1.1749 71.895)
(4.34508 -1.22377 71.9282)
(4.29164 -1.23304 71.9468)
(4.23938 -1.238 71.9715)
(4.19485 -1.24341 71.9799)
(4.16581 -1.24691 71.9932)
(4.14166 -1.24888 72.0086)
(4.13121 -1.25176 72.02)
(4.11466 -1.25257 72.0319)
(4.12083 -1.25493 72.0367)
(4.10117 -1.25355 72.0487)
(4.13363 -1.25643 72.0451)
(4.08575 -1.25398 72.0654)
(4.17479 -1.2476 72.04)
(4.01961 -1.27644 72.0977)
(4.10559 -1.28678 71.9588)
(4.06901 1.05079 71.5365)
(6.39245 1.17975 71.6394)
(5.59928 1.25752 71.709)
(6.05096 1.22792 71.7448)
(5.9217 1.25382 71.793)
(5.89961 1.23314 71.8356)
(5.89016 1.22473 71.8675)
(5.87482 1.21932 71.8973)
(5.86101 1.21049 71.9058)
(5.85626 1.20316 71.9308)
(5.84897 1.19892 71.9543)
(5.85468 1.19566 71.9712)
(5.84769 1.1938 71.9889)
(5.86909 1.19061 71.9968)
(5.85049 1.19054 72.0142)
(5.90528 1.1879 72.0112)
(5.84145 1.18891 72.0361)
(5.99451 1.19624 72.0106)
(5.78077 1.18582 72.0628)
(6.17222 1.2595 71.94)
(4.01353 0.115753 71.5275)
(6.26403 -0.455916 71.6109)
(5.81195 -0.67585 71.6405)
(6.43086 -0.932604 71.6774)
(6.51864 -0.973523 71.7111)
(6.60275 -1.04641 71.7428)
(6.69189 -1.08556 71.7787)
(6.75329 -1.10054 71.7986)
(6.79481 -1.11221 71.8346)
(6.83492 -1.12162 71.8537)
(6.86386 -1.12708 71.877)
(6.89934 -1.13137 71.8939)
(6.91393 -1.13338 71.9136)
(6.95589 -1.13642 71.9252)
(6.94939 -1.13644 71.9452)
(7.01947 -1.13793 71.9481)
(6.96569 -1.14023 71.9704)
(7.10579 -1.13297 71.9585)
(6.94095 -1.1574 71.9897)
(7.12693 -1.22971 71.9041)
(4.05373 0.326003 71.5458)
(6.30131 0.680894 71.6162)
(5.91829 0.850996 71.6382)
(6.57534 0.995719 71.6659)
(6.71889 1.04068 71.6919)
(6.86501 1.07838 71.7163)
(7.00227 1.10312 71.7461)
(7.10617 1.11296 71.7662)
(7.18588 1.11852 71.7929)
(7.25792 1.12308 71.8189)
(7.3124 1.1252 71.8415)
(7.36949 1.12504 71.8592)
(7.4016 1.12411 71.8795)
(7.45939 1.12318 71.8944)
(7.46381 1.12289 71.914)
(7.54665 1.12213 71.9225)
(7.49799 1.12369 71.9405)
(7.65525 1.12707 71.9399)
(7.49087 1.12563 71.9577)
(7.74156 1.23128 71.8885)
(4.05365 -0.325585 71.5455)
(6.30123 -0.680529 71.617)
(5.91769 -0.851506 71.6372)
(6.57545 -0.996295 71.6661)
(6.71984 -1.04022 71.6928)
(6.86495 -1.07791 71.7164)
(7.00203 -1.10325 71.7457)
(7.10613 -1.11308 71.7659)
(7.18589 -1.11863 71.7927)
(7.2579 -1.1231 71.819)
(7.31238 -1.12518 71.8413)
(7.36952 -1.12476 71.8595)
(7.4016 -1.12379 71.879)
(7.45952 -1.12295 71.8951)
(7.46395 -1.12204 71.913)
(7.54717 -1.12085 71.9241)
(7.49866 -1.1212 71.9383)
(7.65688 -1.12237 71.9428)
(7.493 -1.12051 71.9539)
(7.74466 -1.21719 71.8932)
(4.01352 -0.115375 71.5263)
(6.26373 0.456172 71.6145)
(5.81213 0.675565 71.6347)
(6.4308 0.931087 71.6802)
(6.51814 0.974674 71.7155)
(6.6026 1.04692 71.7426)
(6.69185 1.08539 71.7762)
(6.75333 1.10038 71.797)
(6.79487 1.11208 71.8336)
(6.83504 1.12161 71.8539)
(6.86398 1.12709 71.8764)
(6.89954 1.13163 71.8947)
(6.91396 1.13367 71.9123)
(6.95643 1.13662 71.9272)
(6.9496 1.13722 71.9421)
(7.02127 1.13903 71.9528)
(6.96614 1.1424 71.9631)
(7.11047 1.13753 71.969)
(6.94299 1.16117 71.975)
(7.14062 1.24552 71.9221)
(4.0688 -1.05058 71.5343)
(6.39205 -1.17906 71.6478)
(5.59828 -1.25808 71.6923)
(6.05118 -1.22745 71.7629)
(5.9235 -1.25411 71.8003)
(5.89923 -1.2335 71.8304)
(5.88958 -1.22515 71.8599)
(5.87474 -1.21946 71.8934)
(5.86108 -1.21052 71.9044)
(5.85633 -1.20308 71.9309)
(5.84906 -1.19891 71.9537)
(5.8549 -1.19546 71.9721)
(5.84771 -1.19363 71.9874)
(5.86983 -1.19044 71.9993)
(5.85087 -1.19005 72.0101)
(5.90787 -1.18699 72.018)
(5.84294 -1.18725 72.0246)
(6.00167 -1.1927 72.0293)
(5.78866 -1.18266 72.0323)
(6.18699 -1.24786 71.9856)
(3.75487 -0.248188 71.5046)
(5.69437 0.62065 71.7067)
(4.3562 0.908929 71.7739)
(4.74231 1.1565 71.8742)
(4.44344 1.17599 71.8832)
(4.34546 1.22385 71.9135)
(4.29188 1.23302 71.9368)
(4.23952 1.23799 71.9676)
(4.19496 1.24326 71.9789)
(4.16595 1.24686 71.9933)
(4.14186 1.24887 72.0082)
(4.13149 1.2519 72.0206)
(4.11476 1.25267 72.0308)
(4.12164 1.25503 72.0386)
(4.10174 1.25377 72.0456)
(4.13638 1.25689 72.0506)
(4.08717 1.25454 72.0552)
(4.18173 1.24958 72.0589)
(4.02491 1.27583 72.0603)
(4.124 1.29427 72.0323)
(3.09391 -1.97491 71.544)
(4.17979 -1.60092 71.8207)
(2.37132 -1.52647 71.9133)
(2.7108 -1.37931 71.9415)
(2.30936 -1.3996 71.9967)
(2.26448 -1.35978 71.9958)
(2.2121 -1.3567 72.0013)
(2.16604 -1.35654 72.0139)
(2.1317 -1.354 72.0191)
(2.1085 -1.35216 72.0244)
(2.08972 -1.35168 72.0303)
(2.07935 -1.35103 72.035)
(2.06781 -1.35124 72.0389)
(2.06855 -1.3503 72.0417)
(2.05808 -1.35114 72.0443)
(2.07378 -1.34916 72.0459)
(2.0507 -1.35057 72.0476)
(2.11913 -1.35206 72.0488)
(1.99267 -1.34664 72.0488)
(2.47388 -1.34324 72.0288)
(1.43234 0.888658 71.2904)
(1.78091 1.47578 71.555)
(0.692568 1.51832 71.5763)
(0.926396 1.48612 71.5899)
(0.715618 1.50026 71.6039)
(0.716957 1.48893 71.604)
(0.695369 1.48697 71.6058)
(0.678416 1.48761 71.6093)
(0.665487 1.48751 71.6111)
(0.656793 1.487 71.6128)
(0.650092 1.48682 71.6147)
(0.646087 1.48702 71.6163)
(0.642002 1.48697 71.6176)
(0.641806 1.48696 71.6188)
(0.638703 1.48651 71.6199)
(0.64289 1.4864 71.6208)
(0.635618 1.484 71.6218)
(0.646975 1.48176 71.6226)
(0.599258 1.4429 71.6236)
(0.433323 1.40204 71.6261)
(0.590198 -1.607 -71.2707)
(0.705101 -1.58359 -71.9038)
(0.699844 -1.59232 -72.3821)
(0.699392 -1.60185 -72.7663)
(0.693537 -1.60962 -73.0801)
(0.692214 -1.61605 -73.3409)
(0.690881 -1.62182 -73.5712)
(0.690361 -1.62733 -73.788)
(0.690376 -1.63269 -73.9969)
(0.69078 -1.63776 -74.1937)
(0.691474 -1.64233 -74.3701)
(0.692358 -1.64617 -74.5187)
(0.69337 -1.64919 -74.6361)
(0.694463 -1.65142 -74.7229)
(0.695596 -1.65295 -74.7833)
(0.696741 -1.65394 -74.8227)
(0.697889 -1.65454 -74.8467)
(0.699038 -1.65487 -74.8603)
(0.700191 -1.65504 -74.8675)
(0.701353 -1.65511 -74.8708)
(0.702523 -1.65513 -74.872)
(0.7037 -1.65512 -74.8723)
(0.70488 -1.6551 -74.8721)
(0.706061 -1.65508 -74.8718)
(0.707243 -1.65506 -74.8714)
(0.708428 -1.65504 -74.871)
(0.709616 -1.65502 -74.8707)
(0.710806 -1.65501 -74.8704)
(0.711999 -1.65499 -74.8701)
(0.713192 -1.65497 -74.8699)
(0.714385 -1.65496 -74.8696)
(0.715578 -1.65494 -74.8694)
(0.71677 -1.65492 -74.8692)
(0.717961 -1.65491 -74.869)
(0.719152 -1.65489 -74.8688)
(0.720343 -1.65488 -74.8686)
(0.721533 -1.65486 -74.8683)
(0.722721 -1.65485 -74.8681)
(0.723907 -1.65483 -74.8679)
(0.72509 -1.65482 -74.8677)
(0.726272 -1.6548 -74.8675)
(0.727451 -1.65479 -74.8673)
(0.728628 -1.65477 -74.8671)
(0.729802 -1.65476 -74.8669)
(0.730972 -1.65474 -74.8667)
(0.732137 -1.65473 -74.8665)
(0.7333 -1.65471 -74.8663)
(0.734459 -1.6547 -74.8661)
(0.735614 -1.65468 -74.8659)
(0.736765 -1.65467 -74.8657)
(0.73791 -1.65465 -74.8655)
(0.739051 -1.65464 -74.8653)
(0.740187 -1.65462 -74.8651)
(0.741319 -1.65461 -74.8649)
(0.742447 -1.6546 -74.8647)
(0.743571 -1.65458 -74.8645)
(0.74469 -1.65457 -74.8643)
(0.745804 -1.65455 -74.8641)
(0.746912 -1.65454 -74.8639)
(0.748016 -1.65452 -74.8637)
(0.749115 -1.65451 -74.8635)
(0.750209 -1.65449 -74.8633)
(0.751298 -1.65448 -74.8631)
(0.752383 -1.65446 -74.8629)
(0.753463 -1.65445 -74.8627)
(0.754539 -1.65443 -74.8625)
(0.75561 -1.65442 -74.8623)
(0.75668 -1.6544 -74.8621)
(0.757745 -1.65439 -74.8619)
(0.758807 -1.65437 -74.8617)
(0.759861 -1.65436 -74.8615)
(0.760905 -1.65435 -74.8613)
(0.761937 -1.65433 -74.8611)
(0.762961 -1.65432 -74.8609)
(0.763969 -1.6543 -74.8606)
(0.764958 -1.65429 -74.8604)
(0.765917 -1.65428 -74.8602)
(0.766856 -1.65427 -74.86)
(0.767743 -1.65426 -74.8597)
(0.76859 -1.65426 -74.8595)