/*--------------------------------*- C++ -*----------------------------------*\
  =========                 |
  \\      /  F ield         | OpenFOAM: The Open Source CFD Toolbox
   \\    /   O peration     | Website:  https://openfoam.org
    \\  /    A nd           | Version:  7
     \\/     M anipulation  |
\*---------------------------------------------------------------------------*/
FoamFile
{
    version     2.0;
    format      ascii;
    class       surfaceScalarField;
    location    "0.165";
    object      phi_0;
}
// * * * * * * * * * * * * * * * * * * * * * * * * * * * * * * * * * * * * * //

dimensions      [1 0 -1 0 0 0 0];

internalField   nonuniform List<scalar> 
2748
(
0.00483539
2.3311e-05
0.0047756
5.9792e-05
0.00467861
9.69876e-05
0.00455252
0.000126089
0.00440385
0.000148676
0.00423982
0.000164031
0.00406655
0.000173271
0.0038894
0.000177153
0.00371253
0.000176867
0.00353933
0.000173202
0.00337222
0.000167115
0.00321276
0.00015946
0.00306221
0.000150554
0.00292128
0.000140922
0.00279034
0.000130944
0.00266944
0.000120906
0.00255842
0.000111015
0.002457
0.000101429
0.00236473
9.2263e-05
0.00228114
8.3597e-05
0.00220565
7.54853e-05
0.0021377
6.7956e-05
0.00207668
6.10227e-05
0.002022
5.46835e-05
0.00197307
4.8924e-05
0.00192935
4.3722e-05
0.0018903
3.90484e-05
0.00185544
3.48699e-05
0.00182429
3.11505e-05
0.00179643
2.7853e-05
0.0017715
2.49397e-05
0.00174912
2.2374e-05
0.001729
2.01207e-05
0.00171086
1.81462e-05
0.00169444
1.64198e-05
0.00167953
1.49124e-05
0.00166593
1.3598e-05
0.00165348
1.24528e-05
0.00164203
1.14556e-05
0.00163144
1.05875e-05
0.00162161
9.83162e-06
0.00161244
9.17324e-06
0.00160384
8.59913e-06
0.00159574
8.09783e-06
0.00158808
7.65914e-06
0.00158081
7.27488e-06
0.00157388
6.93673e-06
0.00156724
6.63952e-06
0.00156086
6.3757e-06
0.00155472
6.1434e-06
0.00154879
5.93408e-06
0.00154304
5.75064e-06
0.00153746
5.58083e-06
0.00153202
5.43505e-06
0.00152673
5.29361e-06
0.00152155
5.1775e-06
0.0015165
5.05804e-06
0.00151154
4.96338e-06
0.00150667
4.86954e-06
4.78544e-06
0.00150188
0.00486586
1.6038e-05
0.00488351
4.21397e-05
0.00491142
6.90839e-05
0.00494506
9.24466e-05
0.00498039
0.000113351
0.00501378
0.000130641
0.00504252
0.000144535
0.00506484
0.00015483
0.00507988
0.000161832
0.00508736
0.00016572
0.00508759
0.000166886
0.00508124
0.000165809
0.00506904
0.000162752
0.00505182
0.000158143
0.00503044
0.000152331
0.00500569
0.000145651
0.00497833
0.000138382
0.00494899
0.000130771
0.00491823
0.000123021
0.00488653
0.000115299
0.00485428
0.000107739
0.00482179
0.000100446
0.00478932
9.34942e-05
0.00475707
8.69375e-05
0.00472518
8.08086e-05
0.00469378
7.51244e-05
0.00466294
6.98874e-05
0.00463272
6.50902e-05
0.00460316
6.0717e-05
0.00457427
5.67463e-05
0.00454606
5.31527e-05
0.00451852
4.99084e-05
0.00449166
4.69846e-05
0.00446545
4.43524e-05
0.00443989
4.19836e-05
0.00441495
3.98512e-05
0.00439062
3.793e-05
0.00436688
3.61965e-05
0.00434371
3.46291e-05
0.00432109
3.32087e-05
0.004299
3.19175e-05
0.00427744
3.07402e-05
0.00425637
2.96626e-05
0.0042358
2.86728e-05
0.0042157
2.77594e-05
0.00419606
2.69139e-05
0.00417687
2.61269e-05
0.00415812
2.53932e-05
0.0041398
2.4704e-05
0.00412188
2.40579e-05
0.00410437
2.34447e-05
0.00408726
2.28682e-05
0.00407052
2.23147e-05
0.00405416
2.17953e-05
0.00403817
2.12901e-05
0.00402253
2.08183e-05
0.00400723
2.03553e-05
0.00399227
1.99219e-05
0.00397764
1.9503e-05
1.9098e-05
0.00396333
0.00486386
1.07429e-05
0.00487641
2.95952e-05
0.00489672
4.8767e-05
0.0049236
6.55745e-05
0.00495613
8.08147e-05
0.00499322
9.35541e-05
0.00503373
0.00010403
0.00507651
0.00011205
0.0051205
0.000117838
0.00516473
0.0001215
0.00520833
0.000123283
0.00525065
0.000123486
0.00529113
0.000122279
0.00532934
0.000119931
0.00536501
0.000116664
0.00539797
0.000112694
0.00542814
0.00010821
0.00545553
0.000103378
0.00548021
9.83438e-05
0.00550228
9.32309e-05
0.00552188
8.81416e-05
0.00553917
8.31596e-05
0.00555431
7.83503e-05
0.00556749
7.37627e-05
0.00557887
6.94316e-05
0.00558861
6.53793e-05
0.00559689
6.16173e-05
0.00560383
5.81483e-05
0.00560958
5.49682e-05
0.00561426
5.20673e-05
0.00561798
4.9432e-05
0.00562085
4.7046e-05
0.00562294
4.48912e-05
0.00562435
4.29488e-05
0.00562513
4.11996e-05
0.00562536
3.96251e-05
0.00562508
3.82074e-05
0.00562435
3.69296e-05
0.0056232
3.57759e-05
0.00562168
3.47322e-05
0.00561981
3.37851e-05
0.00561763
3.29232e-05
0.00561516
3.21354e-05
0.00561242
3.14129e-05
0.00560943
3.07469e-05
0.00560622
3.01307e-05
0.00560279
2.95572e-05
0.00559916
2.90222e-05
0.00559535
2.85188e-05
0.00559136
2.80461e-05
0.00558721
2.75961e-05
0.00558291
2.71718e-05
0.00557846
2.67627e-05
0.00557388
2.63771e-05
0.00556917
2.60008e-05
0.00556435
2.56466e-05
0.0055594
2.5299e-05
0.00555436
2.49698e-05
0.00554921
2.46517e-05
2.4342e-05
0.00554397
0.00486237
6.88687e-06
0.00487249
1.94734e-05
0.00488915
3.21153e-05
0.0049116
4.31203e-05
0.00493937
5.30478e-05
0.00497162
6.1307e-05
0.00500756
6.80928e-05
0.00504631
7.3295e-05
0.00508708
7.70714e-05
0.00512908
7.95013e-05
0.00517163
8.07385e-05
0.00521416
8.09554e-05
0.00525616
8.0273e-05
0.00529724
7.88567e-05
0.00533706
7.68401e-05
0.0053754
7.43601e-05
0.00541207
7.1534e-05
0.00544698
6.84702e-05
0.00548007
6.52614e-05
0.00551131
6.19887e-05
0.00554073
5.87189e-05
0.00556839
5.5508e-05
0.00559434
5.23997e-05
0.00561868
4.94275e-05
0.00564149
4.66157e-05
0.00566289
4.39802e-05
0.00568298
4.15301e-05
0.00570186
3.92686e-05
0.00571964
3.71941e-05
0.00573641
3.53015e-05
0.00575226
3.35826e-05
0.00576728
3.20276e-05
0.00578155
3.06253e-05
0.00579513
2.93636e-05
0.0058081
2.82304e-05
0.00582051
2.72138e-05
0.00583242
2.6302e-05
0.00584387
2.54841e-05
0.00585489
2.47497e-05
0.00586554
2.40894e-05
0.00587583
2.34945e-05
0.00588579
2.29572e-05
0.00589546
2.24702e-05
0.00590485
2.20275e-05
0.00591397
2.16232e-05
0.00592285
2.12529e-05
0.0059315
2.09116e-05
0.00593992
2.05968e-05
0.00594814
2.03035e-05
0.00595616
2.00314e-05
0.00596398
1.97747e-05
0.00597162
1.95359e-05
0.00597907
1.93075e-05
0.00598636
1.90953e-05
0.00599347
1.88898e-05
0.00600042
1.86993e-05
0.00600721
1.85145e-05
0.00601384
1.83416e-05
0.00602031
1.81773e-05
1.80188e-05
0.00602664
0.00486201
3.37818e-06
0.00487199
9.49458e-06
0.0048885
1.56005e-05
0.00491061
2.10164e-05
0.0049377
2.59587e-05
0.00496889
3.01204e-05
0.0050034
3.35798e-05
0.00504044
3.62582e-05
0.00507929
3.82219e-05
0.00511929
3.95009e-05
0.00515986
4.01687e-05
0.00520051
4.03111e-05
0.00524079
3.99929e-05
0.00528035
3.92988e-05
0.00531889
3.82993e-05
0.00535619
3.70653e-05
0.00539206
3.56574e-05
0.0054264
3.4131e-05
0.00545913
3.25328e-05
0.00549022
3.09035e-05
0.00551966
2.92766e-05
0.00554749
2.76795e-05
0.00557376
2.61338e-05
0.00559853
2.4656e-05
0.00562189
2.32579e-05
0.00564393
2.19475e-05
0.00566473
2.0729e-05
0.0056844
1.9604e-05
0.00570302
1.85718e-05
0.00572069
1.76298e-05
0.0057375
1.6774e-05
0.00575353
1.59997e-05
0.00576886
1.53011e-05
0.00578355
1.46725e-05
0.00579767
1.41079e-05
0.00581129
1.36014e-05
0.00582444
1.31472e-05
0.00583719
1.27399e-05
0.00584956
1.23743e-05
0.00586161
1.20459e-05
0.00587335
1.17503e-05
0.00588483
1.14836e-05
0.00589605
1.12423e-05
0.00590706
1.10236e-05
0.00591786
1.08241e-05
0.00592847
1.06421e-05
0.00593891
1.04748e-05
0.00594918
1.03214e-05
0.00595931
1.01788e-05
0.0059693
1.00479e-05
0.00597915
9.92457e-06
0.00598887
9.81152e-06
0.00599848
9.7036e-06
0.00600797
9.60527e-06
0.00601735
9.51054e-06
0.00602663
9.42466e-06
0.0060358
9.34242e-06
0.00604488
9.26707e-06
0.00605386
9.19755e-06
9.1314e-06
0.00606275
0.00486186
1.21698e-12
0.00487136
3.68218e-12
0.00488696
6.26442e-12
0.00490798
9.335e-12
0.00493394
1.33796e-11
0.00496406
1.83695e-11
0.00499764
2.33866e-11
0.0050339
3.40714e-11
0.00507212
3.69167e-11
0.00511162
5.19141e-11
0.00515179
6.39892e-11
0.00519211
8.00163e-11
0.0052321
9.85853e-11
0.0052714
1.20577e-10
0.0053097
1.47203e-10
0.00534677
1.78851e-10
0.00538242
2.17392e-10
0.00541656
2.61699e-10
0.00544909
3.14542e-10
0.00547999
3.76223e-10
0.00550927
4.48604e-10
0.00553695
5.33715e-10
0.00556309
6.33077e-10
0.00558774
7.49262e-10
0.005611
8.8486e-10
0.00563295
1.04346e-09
0.00565368
1.22771e-09
0.00567328
1.44325e-09
0.00569185
1.6931e-09
0.00570948
1.9853e-09
0.00572626
2.32339e-09
0.00574226
2.71931e-09
0.00575755
3.17549e-09
0.00577222
3.71135e-09
0.00578633
4.32468e-09
0.00579993
5.04976e-09
0.00581307
5.8716e-09
0.0058258
6.85221e-09
0.00583817
7.94956e-09
0.00585021
9.27561e-09
0.00586195
1.07344e-08
0.00587342
1.25295e-08
0.00588465
1.4458e-08
0.00589565
1.6891e-08
0.00590646
1.9426e-08
0.00591708
2.27268e-08
0.00592753
2.60436e-08
0.00593782
3.05173e-08
0.00594797
3.48474e-08
0.00595798
4.08854e-08
0.00596786
4.65566e-08
0.00597761
5.46177e-08
0.00598726
6.21356e-08
0.00599679
7.268e-08
0.00600622
8.28425e-08
0.00601555
9.62226e-08
0.00602479
1.10165e-07
0.00603393
1.26558e-07
0.00604298
1.45406e-07
1.64969e-07
0.00605195
0.00486186
-3.37817e-06
0.00487136
-9.49458e-06
0.00488696
-1.56005e-05
0.00490798
-2.10164e-05
0.00493394
-2.59586e-05
0.00496406
-3.01203e-05
0.00499764
-3.35797e-05
0.0050339
-3.62582e-05
0.00507212
-3.82218e-05
0.00511162
-3.95008e-05
0.00515179
-4.01686e-05
0.00519211
-4.0311e-05
0.0052321
-3.99927e-05
0.0052714
-3.92986e-05
0.0053097
-3.8299e-05
0.00534677
-3.70649e-05
0.00538242
-3.5657e-05
0.00541656
-3.41304e-05
0.00544909
-3.25322e-05
0.00547999
-3.09028e-05
0.00550927
-2.92757e-05
0.00553695
-2.76784e-05
0.00556309
-2.61326e-05
0.00558774
-2.46545e-05
0.005611
-2.32562e-05
0.00563295
-2.19454e-05
0.00565368
-2.07265e-05
0.00567328
-1.96011e-05
0.00569186
-1.85684e-05
0.00570948
-1.76259e-05
0.00572626
-1.67694e-05
0.00574226
-1.59943e-05
0.00575755
-1.52948e-05
0.00577222
-1.46652e-05
0.00578633
-1.40994e-05
0.00579993
-1.35914e-05
0.00581307
-1.31355e-05
0.0058258
-1.27263e-05
0.00583817
-1.23586e-05
0.00585021
-1.20275e-05
0.00586195
-1.1729e-05
0.00587342
-1.14588e-05
0.00588465
-1.12137e-05
0.00589566
-1.09901e-05
0.00590646
-1.07856e-05
0.00591708
-1.05971e-05
0.00592753
-1.04232e-05
0.00593783
-1.02609e-05
0.00594797
-1.01098e-05
0.00595798
-9.9668e-06
0.00596786
-9.83229e-06
0.00597762
-9.70314e-06
0.00598727
-9.58044e-06
0.0059968
-9.46097e-06
0.00600623
-9.34626e-06
0.00601556
-9.23351e-06
0.0060248
-9.12369e-06
0.00603394
-9.01547e-06
0.006043
-8.9082e-06
-8.80292e-06
0.00605197
0.00486201
-6.88686e-06
0.00487199
-1.94734e-05
0.0048885
-3.21152e-05
0.00491061
-4.31203e-05
0.0049377
-5.30478e-05
0.00496889
-6.1307e-05
0.0050034
-6.80928e-05
0.00504044
-7.3295e-05
0.00507929
-7.70713e-05
0.00511929
-7.95012e-05
0.00515986
-8.07384e-05
0.00520051
-8.09552e-05
0.00524079
-8.02728e-05
0.00528035
-7.88565e-05
0.00531889
-7.68398e-05
0.00535619
-7.43598e-05
0.00539206
-7.15336e-05
0.0054264
-6.84697e-05
0.00545913
-6.52608e-05
0.00549022
-6.19879e-05
0.00551966
-5.87181e-05
0.00554749
-5.5507e-05
0.00557376
-5.23985e-05
0.00559853
-4.94261e-05
0.00562189
-4.6614e-05
0.00564393
-4.39782e-05
0.00566473
-4.15278e-05
0.0056844
-3.92658e-05
0.00570302
-3.71909e-05
0.00572069
-3.52977e-05
0.0057375
-3.35782e-05
0.00575353
-3.20224e-05
0.00576886
-3.06192e-05
0.00578355
-2.93565e-05
0.00579768
-2.82221e-05
0.00581129
-2.72041e-05
0.00582444
-2.62907e-05
0.00583719
-2.54709e-05
0.00584957
-2.47344e-05
0.00586161
-2.40716e-05
0.00587336
-2.34739e-05
0.00588483
-2.29331e-05
0.00589606
-2.24424e-05
0.00590707
-2.19951e-05
0.00591787
-2.15858e-05
0.00592848
-2.12092e-05
0.00593892
-2.08615e-05
0.0059492
-2.05381e-05
0.00595933
-2.02365e-05
0.00596931
-1.99527e-05
0.00597917
-1.96852e-05
0.0059889
-1.94305e-05
0.00599851
-1.9188e-05
0.006008
-1.89547e-05
0.00601739
-1.87305e-05
0.00602667
-1.85128e-05
0.00603585
-1.83017e-05
0.00604493
-1.80956e-05
0.00605392
-1.78937e-05
-1.76963e-05
0.00606281
0.00486237
-1.07429e-05
0.00487249
-2.95952e-05
0.00488915
-4.8767e-05
0.0049116
-6.55745e-05
0.00493937
-8.08147e-05
0.00497162
-9.35541e-05
0.00500756
-0.00010403
0.00504631
-0.00011205
0.00508708
-0.000117838
0.00512908
-0.0001215
0.00517163
-0.000123283
0.00521416
-0.000123485
0.00525616
-0.000122279
0.00529724
-0.000119931
0.00533706
-0.000116663
0.0053754
-0.000112694
0.00541207
-0.000108209
0.00544698
-0.000103378
0.00548007
-9.83432e-05
0.00551131
-9.32303e-05
0.00554073
-8.81408e-05
0.00556839
-8.31586e-05
0.00559434
-7.83492e-05
0.00561868
-7.37614e-05
0.00564149
-6.94301e-05
0.0056629
-6.53775e-05
0.00568298
-6.16151e-05
0.00570187
-5.81457e-05
0.00571964
-5.49651e-05
0.00573641
-5.20637e-05
0.00575226
-4.94279e-05
0.00576728
-4.70411e-05
0.00578155
-4.48855e-05
0.00579513
-4.29421e-05
0.00580811
-4.11919e-05
0.00582052
-3.96161e-05
0.00583242
-3.81969e-05
0.00584387
-3.69173e-05
0.0058549
-3.57617e-05
0.00586554
-3.47156e-05
0.00587584
-3.3766e-05
0.00588581
-3.29009e-05
0.00589547
-3.21097e-05
0.00590486
-3.1383e-05
0.00591399
-3.07124e-05
0.00592287
-3.00904e-05
0.00593152
-2.9511e-05
0.00593995
-2.89681e-05
0.00594818
-2.84573e-05
0.0059562
-2.79736e-05
0.00596403
-2.75141e-05
0.00597168
-2.70747e-05
0.00597914
-2.66537e-05
0.00598644
-2.62476e-05
0.00599356
-2.58555e-05
0.00600053
-2.54748e-05
0.00600733
-2.51045e-05
0.00601398
-2.47432e-05
0.00602048
-2.43897e-05
-2.40438e-05
0.00602683
0.00486386
-1.6038e-05
0.00487641
-4.21397e-05
0.00489672
-6.90839e-05
0.0049236
-9.24465e-05
0.00495613
-0.000113351
0.00499322
-0.000130641
0.00503373
-0.000144535
0.00507651
-0.00015483
0.0051205
-0.000161832
0.00516473
-0.00016572
0.00520833
-0.000166886
0.00525065
-0.000165809
0.00529113
-0.000162752
0.00532934
-0.000158143
0.00536501
-0.000152331
0.00539797
-0.000145651
0.00542814
-0.000138382
0.00545553
-0.000130771
0.00548021
-0.00012302
0.00550228
-0.000115298
0.00552188
-0.000107739
0.00553917
-0.000100445
0.00555431
-9.34933e-05
0.00556749
-8.69364e-05
0.00557887
-8.08074e-05
0.00558862
-7.51229e-05
0.00559689
-6.98856e-05
0.00560383
-6.50881e-05
0.00560958
-6.07145e-05
0.00561426
-5.67434e-05
0.00561799
-5.31494e-05
0.00562085
-4.99045e-05
0.00562295
-4.69801e-05
0.00562435
-4.43471e-05
0.00562514
-4.19775e-05
0.00562537
-3.98441e-05
0.00562509
-3.79217e-05
0.00562436
-3.61869e-05
0.00562322
-3.4618e-05
0.0056217
-3.31957e-05
0.00561984
-3.19026e-05
0.00561766
-3.07229e-05
0.0056152
-2.96427e-05
0.00561246
-2.86495e-05
0.00560949
-2.77328e-05
0.00560628
-2.68828e-05
0.00560286
-2.60915e-05
0.00559925
-2.53516e-05
0.00559545
-2.46571e-05
0.00559148
-2.40022e-05
0.00558735
-2.33826e-05
0.00558307
-2.27938e-05
0.00557865
-2.22328e-05
0.0055741
-2.16961e-05
0.00556943
-2.11816e-05
0.00556464
-2.06866e-05
0.00555975
-2.02096e-05
0.00555475
-1.97489e-05
0.00554967
-1.9303e-05
-1.88711e-05
0.0055445
0.00486586
-2.3311e-05
0.00488351
-5.9792e-05
0.00491142
-9.69876e-05
0.00494506
-0.000126089
0.00498039
-0.000148676
0.00501378
-0.000164031
0.00504252
-0.000173271
0.00506484
-0.000177153
0.00507988
-0.000176867
0.00508736
-0.000173202
0.00508759
-0.000167115
0.00508124
-0.00015946
0.00506904
-0.000150554
0.00505182
-0.000140922
0.00503044
-0.000130944
0.00500569
-0.000120906
0.00497833
-0.000111015
0.00494899
-0.000101429
0.00491823
-9.22628e-05
0.00488653
-8.35967e-05
0.00485428
-7.54849e-05
0.00482179
-6.79555e-05
0.00478932
-6.10222e-05
0.00475707
-5.46829e-05
0.00472519
-4.89233e-05
0.00469379
-4.37212e-05
0.00466295
-3.90474e-05
0.00463273
-3.48688e-05
0.00460317
-3.11492e-05
0.00457428
-2.78514e-05
0.00454607
-2.49379e-05
0.00451853
-2.23719e-05
0.00449167
-2.01183e-05
0.00446547
-1.81435e-05
0.00443991
-1.64166e-05
0.00441498
-1.49087e-05
0.00439065
-1.35937e-05
0.00436691
-1.24479e-05
0.00434374
-1.14499e-05
0.00432113
-1.05809e-05
0.00429905
-9.82405e-06
0.00427749
-9.16446e-06
0.00425644
-8.58907e-06
0.00423588
-8.08612e-06
0.00421579
-7.6458e-06
0.00419617
-7.25926e-06
0.004177
-6.91911e-06
0.00415827
-6.61867e-06
0.00413997
-6.35253e-06
0.00412208
-6.11553e-06
0.0041046
-5.90375e-06
0.00408752
-5.71327e-06
0.00407083
-5.5413e-06
0.00405452
-5.38486e-06
0.00403858
-5.24196e-06
0.00402301
-5.11042e-06
0.00400779
-4.9887e-06
0.00399292
-4.87539e-06
0.00397838
-4.7692e-06
-4.6694e-06
0.00396418
0.00483539
0.0047756
0.00467861
0.00455252
0.00440385
0.00423982
0.00406655
0.0038894
0.00371253
0.00353933
0.00337222
0.00321276
0.00306221
0.00292128
0.00279034
0.00266944
0.00255842
0.002457
0.00236474
0.00228114
0.00220566
0.0021377
0.00207668
0.002022
0.00197308
0.00192936
0.00189031
0.00185544
0.0018243
0.00179644
0.00177151
0.00174914
0.00172902
0.00171088
0.00169446
0.00167955
0.00166596
0.00165352
0.00164207
0.00163149
0.00162166
0.0016125
0.00160391
0.00159583
0.00158818
0.00158093
0.00157401
0.00156739
0.00156104
0.00155492
0.00154902
0.00154331
0.00153777
0.00153238
0.00152714
0.00152203
0.00151705
0.00151217
0.0015074
0.00150274
0.00149716
4.72824e-06
0.0014925
4.65242e-06
0.00148791
4.59356e-06
0.00148338
4.53178e-06
0.00147891
4.47647e-06
0.00147449
4.41986e-06
0.00147012
4.36578e-06
0.00146581
4.3108e-06
0.00146156
4.25672e-06
0.00145736
4.20194e-06
0.00145321
4.14738e-06
0.00144912
4.09227e-06
0.00144508
4.03709e-06
0.0014411
3.98152e-06
0.00143718
3.92592e-06
0.00143331
3.87023e-06
0.00142949
3.81464e-06
0.00142574
3.75915e-06
0.00142203
3.70386e-06
0.00141838
3.64879e-06
0.00141479
3.59395e-06
0.00141125
3.53951e-06
0.00140777
3.48548e-06
0.00140434
3.43204e-06
0.00140096
3.37915e-06
0.00139763
3.32702e-06
0.00139436
3.27551e-06
0.00139113
3.22494e-06
0.00138796
3.17504e-06
0.00138483
3.12617e-06
0.00138176
3.07793e-06
0.00137873
3.03082e-06
0.00137574
2.98423e-06
0.00137281
2.93886e-06
0.00136991
2.89392e-06
0.00136706
2.85022e-06
0.00136426
2.80686e-06
0.00136149
2.76472e-06
0.00135877
2.72269e-06
0.00135609
2.68189e-06
0.00135345
2.64137e-06
0.00135085
2.60166e-06
0.00134828
2.56331e-06
0.00134576
2.5233e-06
0.00134327
2.48863e-06
0.00134083
2.4453e-06
0.00133841
2.41729e-06
0.00133605
2.36451e-06
0.0013337
2.34869e-06
0.00133142
2.27531e-06
0.00132914
2.27983e-06
0.00132698
2.16879e-06
0.00132478
2.19989e-06
0.00132274
2.03396e-06
0.00132067
2.07775e-06
0.00131881
1.86121e-06
0.00131697
1.83995e-06
0.00131533
1.6424e-06
0.00131393
1.39276e-06
1.25617e-06
0.00394933
1.87304e-05
0.00393562
1.83631e-05
0.0039222
1.80174e-05
0.00390905
1.76767e-05
0.00389618
1.73491e-05
0.00388358
1.70269e-05
0.00387123
1.67136e-05
0.00385914
1.64054e-05
0.00384729
1.6104e-05
0.00383568
1.58075e-05
0.00382432
1.55167e-05
0.00381318
1.52306e-05
0.00380227
1.49497e-05
0.00379158
1.46735e-05
0.0037811
1.44024e-05
0.00377083
1.41362e-05
0.00376077
1.38751e-05
0.00375092
1.36188e-05
0.00374125
1.33675e-05
0.00373178
1.31211e-05
0.0037225
1.28796e-05
0.0037134
1.2643e-05
0.00370447
1.24113e-05
0.00369572
1.21846e-05
0.00368714
1.19628e-05
0.00367872
1.17462e-05
0.00367046
1.15345e-05
0.00366236
1.1328e-05
0.00365441
1.11262e-05
0.00364661
1.09296e-05
0.00363895
1.07376e-05
0.00363143
1.05506e-05
0.00362404
1.03678e-05
0.00361679
1.019e-05
0.00360967
1.00159e-05
0.00360268
9.84671e-06
0.0035958
9.68078e-06
0.00358905
9.51963e-06
0.00358241
9.36125e-06
0.00357589
9.20759e-06
0.00356947
9.05674e-06
0.00356317
8.9099e-06
0.00355697
8.76713e-06
0.00355086
8.62503e-06
0.00354486
8.49217e-06
0.00353896
8.34991e-06
0.00353314
8.23116e-06
0.00352743
8.07807e-06
0.0035218
7.98226e-06
0.00351627
7.79735e-06
0.00351081
7.74066e-06
0.00350549
7.4867e-06
0.0035002
7.49267e-06
0.00349512
7.11258e-06
0.00349
7.20049e-06
0.00348524
6.62234e-06
0.00348031
6.77253e-06
0.00347603
5.92495e-06
0.00347138
6.044e-06
4.79821e-06
0.00553864
2.40541e-05
0.00553324
2.3767e-05
0.00552776
2.34942e-05
0.00552222
2.32232e-05
0.00551661
2.29602e-05
0.00551093
2.26989e-05
0.00550521
2.24421e-05
0.00549943
2.21867e-05
0.0054936
2.19338e-05
0.00548772
2.16822e-05
0.00548181
2.14323e-05
0.00547586
2.11835e-05
0.00546987
2.09363e-05
0.00546386
2.06903e-05
0.00545781
2.04458e-05
0.00545175
2.02028e-05
0.00544566
1.99615e-05
0.00543956
1.97219e-05
0.00543345
1.94843e-05
0.00542732
1.92486e-05
0.00542119
1.90152e-05
0.00541505
1.8784e-05
0.00540891
1.85553e-05
0.00540276
1.83291e-05
0.00539662
1.81056e-05
0.00539048
1.78849e-05
0.00538435
1.7667e-05
0.00537823
1.74522e-05
0.00537211
1.72403e-05
0.00536601
1.70317e-05
0.00535992
1.68257e-05
0.00535385
1.66231e-05
0.00534779
1.64228e-05
0.00534176
1.62259e-05
0.00533574
1.6031e-05
0.00532975
1.58395e-05
0.00532378
1.56496e-05
0.00531784
1.54633e-05
0.00531192
1.52785e-05
0.00530604
1.50972e-05
0.00530018
1.49179e-05
0.00529435
1.47413e-05
0.00528855
1.45686e-05
0.00528278
1.43947e-05
0.00527705
1.4231e-05
0.00527134
1.40544e-05
0.00526567
1.39052e-05
0.00526004
1.37129e-05
0.00525443
1.35905e-05
0.00524888
1.33544e-05
0.00524333
1.32843e-05
0.00523787
1.29488e-05
0.00523238
1.2979e-05
0.00522705
1.24407e-05
0.0052216
1.26484e-05
0.00521649
1.17298e-05
0.00521106
1.22077e-05
0.00520634
1.06391e-05
0.005201
1.13885e-05
8.88201e-06
0.00603282
1.78745e-05
0.00603885
1.77312e-05
0.00604475
1.75974e-05
0.00605051
1.74646e-05
0.00605613
1.73369e-05
0.00606162
1.72098e-05
0.00606698
1.70851e-05
0.0060722
1.69606e-05
0.0060773
1.68369e-05
0.00608227
1.67131e-05
0.00608711
1.65893e-05
0.00609183
1.64652e-05
0.00609643
1.63409e-05
0.0061009
1.62163e-05
0.00610526
1.60916e-05
0.0061095
1.59667e-05
0.00611362
1.58419e-05
0.00611762
1.57172e-05
0.00612152
1.55927e-05
0.0061253
1.54686e-05
0.00612897
1.53448e-05
0.00613254
1.52217e-05
0.006136
1.50994e-05
0.00613935
1.49779e-05
0.0061426
1.48575e-05
0.00614575
1.47382e-05
0.00614879
1.462e-05
0.00615174
1.45032e-05
0.0061546
1.43875e-05
0.00615736
1.42733e-05
0.00616002
1.41603e-05
0.0061626
1.40488e-05
0.00616508
1.39384e-05
0.00616748
1.38295e-05
0.00616978
1.37215e-05
0.00617201
1.36148e-05
0.00617415
1.35091e-05
0.00617621
1.34047e-05
0.00617818
1.3301e-05
0.00618008
1.31987e-05
0.0061819
1.30976e-05
0.00618365
1.2997e-05
0.00618532
1.28995e-05
0.00618692
1.27988e-05
0.00618844
1.27071e-05
0.0061899
1.26015e-05
0.00619128
1.25204e-05
0.0061926
1.23985e-05
0.00619386
1.23391e-05
0.00619504
1.2176e-05
0.00619616
1.2162e-05
0.00619721
1.19064e-05
0.00619821
1.19849e-05
0.00619911
1.15383e-05
0.00619997
1.17905e-05
0.00620072
1.09756e-05
0.00620142
1.15105e-05
0.00620201
1.00495e-05
0.00620252
1.08819e-05
8.5107e-06
0.00607155
9.07364e-06
0.00608027
9.01667e-06
0.0060889
8.96568e-06
0.00609745
8.91499e-06
0.00610592
8.86742e-06
0.00611431
8.81968e-06
0.00612262
8.77306e-06
0.00613085
8.72585e-06
0.00613901
8.67862e-06
0.0061471
8.6305e-06
0.0061551
8.58174e-06
0.00616304
8.53192e-06
0.0061709
8.4812e-06
0.00617869
8.42944e-06
0.0061864
8.37682e-06
0.00619405
8.32338e-06
0.00620162
8.26928e-06
0.00620912
8.21457e-06
0.00621656
8.15941e-06
0.00622393
8.10386e-06
0.00623123
8.04802e-06
0.00623846
7.99204e-06
0.00624562
7.93604e-06
0.00625272
7.8802e-06
0.00625976
7.8246e-06
0.00626673
7.76943e-06
0.00627364
7.71466e-06
0.00628048
7.66048e-06
0.00628726
7.6068e-06
0.00629398
7.55374e-06
0.00630064
7.50123e-06
0.00630724
7.44942e-06
0.00631378
7.39818e-06
0.00632026
7.34765e-06
0.00632668
7.29769e-06
0.00633305
7.24838e-06
0.00633936
7.19969e-06
0.00634561
7.15155e-06
0.0063518
7.10402e-06
0.00635794
7.05684e-06
0.00636403
7.01064e-06
0.00637006
6.96409e-06
0.00637605
6.91967e-06
0.00638197
6.87254e-06
0.00638785
6.83105e-06
0.00639367
6.78045e-06
0.00639945
6.74452e-06
0.00640517
6.68397e-06
0.00641085
6.65945e-06
0.00641646
6.57523e-06
0.00642205
6.57462e-06
0.00642752
6.43906e-06
0.00643302
6.48658e-06
0.00643832
6.24719e-06
0.00644373
6.38335e-06
0.00644876
5.94711e-06
0.00645405
6.22179e-06
0.00645865
5.44541e-06
0.00646368
5.85254e-06
4.59459e-06
0.00606083
1.88601e-07
0.00606964
2.11591e-07
0.00607837
2.3731e-07
0.00608702
2.62021e-07
0.0060956
2.87662e-07
0.00610411
3.1197e-07
0.00611255
3.35852e-07
0.00612091
3.58076e-07
0.00612921
3.79042e-07
0.00613745
3.98122e-07
0.00614561
4.1553e-07
0.00615371
4.3097e-07
0.00616175
4.44606e-07
0.00616973
4.56341e-07
0.00617764
4.66318e-07
0.00618549
4.74574e-07
0.00619328
4.8124e-07
0.00620101
4.86408e-07
0.00620868
4.90234e-07
0.00621629
4.92813e-07
0.00622385
4.94303e-07
0.00623135
4.94809e-07
0.00623879
4.94462e-07
0.00624618
4.93387e-07
0.00625352
4.91669e-07
0.0062608
4.89431e-07
0.00626803
4.86738e-07
0.00627521
4.83704e-07
0.00628233
4.80378e-07
0.00628941
4.76797e-07
0.00629644
4.73067e-07
0.00630342
4.69195e-07
0.00631035
4.65226e-07
0.00631723
4.61154e-07
0.00632407
4.57067e-07
0.00633087
4.52845e-07
0.00633762
4.48679e-07
0.00634432
4.44337e-07
0.00635099
4.40054e-07
0.00635761
4.35435e-07
0.00636419
4.31033e-07
0.00637072
4.26023e-07
0.00637722
4.21425e-07
0.00638368
4.1577e-07
0.0063901
4.10836e-07
0.00639648
4.04154e-07
0.00640283
3.98847e-07
0.00640913
3.90628e-07
0.00641541
3.84932e-07
0.00642161
3.74582e-07
0.00642782
3.68414e-07
0.00643391
3.54973e-07
0.00644005
3.48444e-07
0.00644597
3.30635e-07
0.00645204
3.23979e-07
0.00645769
3.00002e-07
0.00646361
2.94038e-07
0.0064688
2.60572e-07
0.00647439
2.57715e-07
2.08458e-07
0.00606085
-8.6973e-06
0.00606966
-8.5941e-06
0.00607839
-8.49103e-06
0.00608704
-8.39047e-06
0.00609562
-8.29103e-06
0.00610413
-8.19423e-06
0.00611256
-8.0994e-06
0.00612093
-8.0074e-06
0.00612922
-7.91794e-06
0.00613745
-7.83145e-06
0.00614562
-7.74772e-06
0.00615371
-7.66692e-06
0.00616175
-7.58888e-06
0.00616972
-7.51364e-06
0.00617763
-7.4411e-06
0.00618548
-7.37119e-06
0.00619326
-7.30383e-06
0.00620099
-7.23888e-06
0.00620866
-7.17617e-06
0.00621627
-7.11556e-06
0.00622382
-7.05686e-06
0.00623132
-6.99998e-06
0.00623876
-6.94478e-06
0.00624615
-6.89119e-06
0.00625348
-6.83912e-06
0.00626076
-6.78852e-06
0.00626799
-6.73923e-06
0.00627516
-6.69119e-06
0.00628229
-6.64423e-06
0.00628937
-6.5984e-06
0.00629639
-6.55341e-06
0.00630337
-6.50939e-06
0.0063103
-6.46613e-06
0.00631718
-6.42379e-06
0.00632402
-6.38204e-06
0.00633081
-6.3412e-06
0.00633756
-6.30087e-06
0.00634427
-6.26142e-06
0.00635093
-6.22247e-06
0.00635755
-6.18454e-06
0.00636413
-6.14717e-06
0.00637066
-6.11063e-06
0.00637716
-6.07542e-06
0.00638362
-6.03958e-06
0.00639004
-6.00797e-06
0.00639642
-5.97071e-06
0.00640276
-5.94539e-06
0.00640906
-5.90125e-06
0.00641534
-5.88806e-06
0.00642154
-5.82455e-06
0.00642775
-5.83611e-06
0.00643383
-5.72752e-06
0.00643997
-5.78775e-06
0.00644589
-5.58423e-06
0.00645195
-5.73303e-06
0.0064576
-5.34529e-06
0.00646353
-5.63076e-06
0.00646871
-4.92231e-06
0.0064743
-5.33355e-06
-4.17557e-06
0.00607162
-1.75016e-05
0.00608034
-1.73111e-05
0.00608897
-1.71232e-05
0.00609752
-1.69393e-05
0.00610599
-1.67584e-05
0.00611437
-1.65813e-05
0.00612268
-1.64076e-05
0.00613091
-1.62379e-05
0.00613906
-1.60717e-05
0.00614714
-1.59095e-05
0.00615515
-1.5751e-05
0.00616308
-1.55962e-05
0.00617093
-1.54451e-05
0.00617872
-1.52976e-05
0.00618643
-1.51536e-05
0.00619407
-1.50131e-05
0.00620165
-1.48758e-05
0.00620915
-1.47417e-05
0.00621659
-1.46106e-05
0.00622396
-1.44823e-05
0.00623126
-1.43566e-05
0.0062385
-1.42335e-05
0.00624567
-1.41128e-05
0.00625277
-1.39945e-05
0.00625981
-1.38784e-05
0.00626679
-1.37645e-05
0.00627371
-1.36526e-05
0.00628056
-1.35426e-05
0.00628735
-1.34344e-05
0.00629408
-1.33282e-05
0.00630075
-1.32234e-05
0.00630736
-1.31203e-05
0.00631391
-1.30185e-05
0.00632041
-1.29184e-05
0.00632684
-1.28191e-05
0.00633322
-1.27215e-05
0.00633954
-1.26246e-05
0.00634581
-1.25294e-05
0.00635202
-1.24348e-05
0.00635818
-1.23421e-05
0.00636428
-1.22504e-05
0.00637033
-1.21601e-05
0.00637633
-1.20723e-05
0.00638227
-1.19832e-05
0.00638817
-1.19017e-05
0.00639401
-1.18097e-05
0.00639981
-1.17394e-05
0.00640554
-1.16341e-05
0.00641125
-1.1586e-05
0.00641687
-1.14437e-05
0.00642248
-1.14417e-05
0.00642797
-1.12133e-05
0.00643349
-1.13038e-05
0.0064388
-1.08933e-05
0.00644423
-1.1157e-05
0.00644927
-1.03906e-05
0.00645458
-1.09347e-05
0.0064592
-9.54119e-06
0.00646424
-1.03762e-05
-8.10314e-06
0.00603303
-2.3704e-05
0.00603909
-2.33711e-05
0.00604501
-2.30436e-05
0.0060508
-2.27225e-05
0.00605644
-2.24068e-05
0.00606196
-2.20972e-05
0.00606735
-2.1793e-05
0.0060726
-2.14946e-05
0.00607773
-2.12017e-05
0.00608274
-2.09145e-05
0.00608762
-2.06327e-05
0.00609238
-2.03564e-05
0.00609702
-2.00855e-05
0.00610155
-1.98198e-05
0.00610595
-1.95593e-05
0.00611024
-1.93037e-05
0.00611442
-1.9053e-05
0.00611849
-1.88069e-05
0.00612245
-1.85654e-05
0.00612629
-1.83283e-05
0.00613004
-1.80954e-05
0.00613367
-1.78665e-05
0.0061372
-1.76417e-05
0.00614063
-1.74206e-05
0.00614396
-1.72034e-05
0.00614718
-1.69899e-05
0.00615031
-1.67799e-05
0.00615334
-1.65735e-05
0.00615628
-1.63705e-05
0.00615912
-1.61709e-05
0.00616187
-1.59744e-05
0.00616453
-1.57812e-05
0.00616711
-1.55905e-05
0.00616959
-1.54033e-05
0.00617199
-1.52179e-05
0.0061743
-1.50362e-05
0.00617653
-1.48558e-05
0.00617868
-1.46793e-05
0.00618075
-1.4504e-05
0.00618274
-1.43328e-05
0.00618465
-1.41631e-05
0.00618649
-1.3997e-05
0.00618826
-1.38341e-05
0.00618995
-1.36718e-05
0.00619156
-1.35183e-05
0.00619311
-1.33549e-05
0.00619459
-1.32163e-05
0.006196
-1.30399e-05
0.00619735
-1.29282e-05
0.00619862
-1.27122e-05
0.00619983
-1.26528e-05
0.00620096
-1.23431e-05
0.00620205
-1.23834e-05
0.00620303
-1.18789e-05
0.00620397
-1.20957e-05
0.00620481
-1.12217e-05
0.00620558
-1.17069e-05
0.00620623
-1.01976e-05
0.00620681
-1.09498e-05
-8.52615e-06
0.00553924
-1.84519e-05
0.00553392
-1.80452e-05
0.00552852
-1.76497e-05
0.00552307
-1.72658e-05
0.00551755
-1.68923e-05
0.00551199
-1.65293e-05
0.00550637
-1.61763e-05
0.00550071
-1.58333e-05
0.00549501
-1.54998e-05
0.00548927
-1.51757e-05
0.0054835
-1.48607e-05
0.0054777
-1.45545e-05
0.00547187
-1.4257e-05
0.00546602
-1.39679e-05
0.00546015
-1.3687e-05
0.00545426
-1.3414e-05
0.00544836
-1.31487e-05
0.00544245
-1.28908e-05
0.00543652
-1.26399e-05
0.00543059
-1.23959e-05
0.00542466
-1.21584e-05
0.00541872
-1.19271e-05
0.00541278
-1.17019e-05
0.00540684
-1.14827e-05
0.00540091
-1.12692e-05
0.00539498
-1.10614e-05
0.00538906
-1.0859e-05
0.00538315
-1.0662e-05
0.00537725
-1.04701e-05
0.00537136
-1.02834e-05
0.00536549
-1.01013e-05
0.00535963
-9.9243e-06
0.00535379
-9.75142e-06
0.00534797
-9.58347e-06
0.00534217
-9.41908e-06
0.0053364
-9.25956e-06
0.00533064
-9.10305e-06
0.00532492
-8.95136e-06
0.00531922
-8.80228e-06
0.00531355