/*--------------------------------*- C++ -*----------------------------------*\
  =========                 |
  \\      /  F ield         | OpenFOAM: The Open Source CFD Toolbox
   \\    /   O peration     | Website:  https://openfoam.org
    \\  /    A nd           | Version:  7
     \\/     M anipulation  |
\*---------------------------------------------------------------------------*/
FoamFile
{
    version     2.0;
    format      ascii;
    class       surfaceScalarField;
    location    "0.85";
    object      phi_0;
}
// * * * * * * * * * * * * * * * * * * * * * * * * * * * * * * * * * * * * * //

dimensions      [1 0 -1 0 0 0 0];

internalField   nonuniform List<scalar> 
17238
(
0.0137907
1.11741e-05
0.0137717
2.68553e-05
0.0137409
3.9538e-05
0.0137048
4.62919e-05
0.0136581
5.85271e-05
0.013595
7.55835e-05
0.0135214
8.59235e-05
0.0134427
8.97723e-05
0.013357
9.54783e-05
0.0132599
0.000105542
0.0131521
0.00011556
0.0130378
0.00012169
0.0129204
0.000124522
0.0128004
0.000127052
0.0126764
0.000131027
0.0125478
0.000135608
0.0124158
0.000138968
0.0122824
0.000140439
0.0121484
0.000140925
0.0120138
0.00014159
0.0118781
0.00014267
0.0117416
0.000143541
0.0116049
0.000143671
0.0114687
0.000143164
0.0113332
0.000142439
0.0111983
0.00014176
0.0110642
0.000141058
0.0109309
0.000140179
0.0107987
0.00013909
0.0106678
0.000137829
0.0105382
0.000136446
0.0104101
0.00013499
0.0102834
0.000133511
0.0101582
0.000132019
0.0100345
0.000130473
0.00991242
0.00012883
0.00979205
0.000127101
0.00967344
0.000125343
0.00955653
0.000123601
0.00944131
0.000121873
0.0093278
0.000120127
0.0092161
0.000118337
0.00910626
0.000116513
0.00899822
0.000114676
0.0088919
0.000112844
0.0087873
0.000111016
0.00868455
0.000109194
0.00858382
0.000107387
0.00848513
0.000105608
0.00838832
0.000103862
0.00829307
0.00010213
0.00819913
0.00010038
0.00810643
9.85795e-05
0.00801511
9.67176e-05
0.00792545
9.48074e-05
0.00783772
9.28814e-05
0.00775209
9.09795e-05
0.0076686
8.91311e-05
0.0075872
8.73378e-05
0.00750781
8.55773e-05
0.00743034
8.38311e-05
0.00735471
8.20992e-05
0.00728084
8.03936e-05
0.00720866
7.87249e-05
0.00713811
7.70971e-05
0.00706914
7.55092e-05
0.00700171
7.39577e-05
0.00693579
7.2435e-05
0.00687137
7.09285e-05
0.00680847
6.94238e-05
0.00674709
6.79102e-05
0.00668724
6.63852e-05
0.00662892
6.4855e-05
0.00657212
6.33321e-05
0.00651686
6.18299e-05
0.00646313
6.03583e-05
0.00641089
5.89222e-05
0.00636007
5.75219e-05
0.00631057
5.61549e-05
0.00626232
5.48173e-05
0.00621532
5.35055e-05
0.00616962
5.22185e-05
0.00612529
5.09573e-05
0.00608238
4.97247e-05
0.00604085
4.85234e-05
0.00600063
4.73538e-05
0.00596161
4.62146e-05
0.00592371
4.51035e-05
0.00588681
4.40186e-05
0.00585089
4.29595e-05
0.0058159
4.19265e-05
0.00578183
4.09202e-05
0.0057487
3.99407e-05
0.00571647
3.8988e-05
0.00568515
3.80619e-05
0.00565472
3.71618e-05
0.00562516
3.62868e-05
0.00559645
3.54352e-05
0.00556859
3.46048e-05
0.00554153
3.37932e-05
0.00551524
3.29986e-05
0.00548972
3.22203e-05
0.00546494
3.14588e-05
0.00544091
3.0715e-05
0.00541762
2.99898e-05
0.00539506
2.9284e-05
0.0053732
2.85979e-05
0.00535198
2.79319e-05
0.00533136
2.72863e-05
0.0053113
2.66614e-05
0.00529178
2.60573e-05
0.00527278
2.54736e-05
0.00525432
2.49098e-05
0.0052364
2.43643e-05
0.00521902
2.38352e-05
0.00520217
2.33207e-05
0.00518586
2.282e-05
0.00517007
2.23335e-05
0.00515477
2.18618e-05
0.00513995
2.14054e-05
0.00512557
2.09633e-05
0.00511163
2.05328e-05
0.00509811
2.01088e-05
0.00508502
1.96838e-05
0.00507237
1.92502e-05
0.00506017
1.88028e-05
0.00504842
1.83458e-05
0.00503712
1.78943e-05
0.00502623
1.7472e-05
0.00501572
1.71043e-05
0.00500552
1.68113e-05
0.00499555
1.66041e-05
0.00498573
1.64759e-05
0.004976
1.64061e-05
0.00496636
1.63437e-05
0.00495681
1.62664e-05
0.00494732
1.61966e-05
0.00493787
1.61517e-05
0.00492849
1.60796e-05
0.00491909
1.60675e-05
0.00490977
1.59858e-05
0.00490033
1.60897e-05
0.00489105
1.59265e-05
0.0048814
1.62834e-05
0.00487238
1.56419e-05
0.0048625
1.65536e-05
0.00485482
1.42469e-05
0.00484495
1.66578e-05
0.00484276
8.70326e-06
1.89192e-05
0.00483048
0.0137979
1.48505e-05
0.0138075
2.46897e-05
0.0138223
3.31477e-05
0.0138377
4.06166e-05
0.0138593
4.83931e-05
0.0138899
5.7265e-05
0.0139228
6.51222e-05
0.0139524
7.11466e-05
0.0139805
7.69119e-05
0.0140108
8.33982e-05
0.0140438
8.99689e-05
0.0140766
9.56612e-05
0.0141075
0.000100223
0.0141368
0.000104156
0.0141661
0.0001081
0.0141959
0.000112174
0.0142252
0.000115964
0.0142529
0.00011906
0.0142786
0.00012148
0.0143028
0.000123574
0.0143261
0.000125626
0.0143482
0.000127623
0.0143688
0.000129357
0.0143874
0.000130684
0.0144044
0.000131647
0.0144199
0.000132407
0.014434
0.000133089
0.0144466
0.000133701
0.0144576
0.000134171
0.0144671
0.000134435
0.0144751
0.000134497
0.0144818
0.000134421
0.0144871
0.000134276
0.0144911
0.000134078
0.0144938
0.000133794
0.0144952
0.000133388
0.0144955
0.000132863
0.0144946
0.000132256
0.0144925
0.000131604
0.0144894
0.000130914
0.0144853
0.000130164
0.0144801
0.000129338
0.0144741
0.000128442
0.0144671
0.000127501
0.0144592
0.000126535
0.0144505
0.000125542
0.014441
0.000124506
0.0144307
0.000123423
0.0144198
0.000122303
0.0144083
0.000121162
0.0143962
0.000120004
0.0143835
0.000118813
0.0143701
0.000117564
0.0143562
0.000116249
0.0143417
0.000114884
0.0143268
0.000113503
0.0143113
0.000112129
0.0142954
0.00011076
0.0142789
0.000109375
0.0142618
0.000107954
0.0142444
0.000106502
0.0142266
0.000105048
0.0142088
0.000103625
0.0141911
0.000102256
0.0141734
0.000100945
0.0141556
9.96819e-05
0.0141374
9.84512e-05
0.0141185
9.72303e-05
0.0140987
9.59909e-05
0.0140779
9.47037e-05
0.0140562
9.33477e-05
0.0140337
9.19202e-05
0.0140109
9.0438e-05
0.0139879
8.89301e-05
0.0139651
8.74254e-05
0.0139427
8.59439e-05
0.0139208
8.44962e-05
0.0138994
8.30866e-05
0.0138785
8.17176e-05
0.013858
8.03903e-05
0.0138378
7.91032e-05
0.0138178
7.78517e-05
0.0137979
7.66289e-05
0.0137782
7.54283e-05
0.0137585
7.42463e-05
0.0137389
7.3082e-05
0.0137193
7.19372e-05
0.0136998
7.08138e-05
0.0136803
6.97128e-05
0.0136608
6.86335e-05
0.0136414
6.75738e-05
0.0136221
6.6532e-05
0.0136028
6.55079e-05
0.0135836
6.45027e-05
0.0135644
6.35181e-05
0.0135453
6.25552e-05
0.0135263
6.16131e-05
0.0135074
6.069e-05
0.0134886
5.97837e-05
0.0134699
5.88937e-05
0.0134512
5.80201e-05
0.0134327
5.71637e-05
0.0134142
5.63245e-05
0.0133958
5.55021e-05
0.0133776
5.46958e-05
0.0133595
5.3906e-05
0.0133414
5.31337e-05
0.0133235
5.23805e-05
0.0133056
5.16471e-05
0.0132878
5.09339e-05
0.0132701
5.02399e-05
0.0132526
4.95649e-05
0.0132352
4.89087e-05
0.013218
4.82705e-05
0.0132009
4.76483e-05
0.0131838
4.70381e-05
0.0131667
4.64351e-05
0.0131497
4.58361e-05
0.0131328
4.52406e-05
0.0131161
4.46512e-05
0.0130998
4.4072e-05
0.0130838
4.35052e-05
0.013068
4.29481e-05
0.0130524
4.23906e-05
0.0130366
4.18179e-05
0.0130207
4.12171e-05
0.0130047
4.05885e-05
0.0129885
3.99518e-05
0.0129726
3.93437e-05
0.0129569
3.88071e-05
0.0129418
3.83808e-05
0.0129272
3.80862e-05
0.0129133
3.7925e-05
0.0128998
3.7874e-05
0.0128867
3.79014e-05
0.0128737
3.79667e-05
0.0128606
3.80474e-05
0.0128474
3.81195e-05
0.0128338
3.82023e-05
0.0128198
3.83025e-05
0.0128052
3.84929e-05
0.0127902
3.87642e-05
0.0127742
3.9236e-05
0.0127578
3.98422e-05
0.0127396
4.08469e-05
0.0127209
4.20278e-05
0.0126979
4.4022e-05
0.012675
4.6112e-05
0.0126403
4.99905e-05
5.32936e-05
0.0126125
0.0137974
1.8265e-05
0.0138034
2.53298e-05
0.0138128
3.13467e-05
0.0138252
3.72454e-05
0.0138413
4.29019e-05
0.0138614
4.87376e-05
0.0138835
5.43132e-05
0.0139056
5.92361e-05
0.0139274
6.37563e-05
0.0139501
6.81793e-05
0.0139741
7.25024e-05
0.0139992
7.65789e-05
0.014025
8.02639e-05
0.0140513
8.3508e-05
0.0140786
8.64123e-05
0.0141072
8.91258e-05
0.0141371
9.16964e-05
0.0141676
9.40596e-05
0.0141984
9.61311e-05
0.0142296
9.78915e-05
0.0142613
9.93991e-05
0.0142936
0.000100739
0.0143265
0.000101962
0.0143595
0.000103062
0.0143926
0.000103997
0.0144257
0.00010473
0.0144589
0.000105278
0.0144922
0.000105702
0.0145257
0.000106066
0.0145591
0.000106388
0.0145923
0.000106634
0.0146253
0.00010676
0.0146581
0.000106755
0.0146909
0.000106655
0.0147235
0.000106505
0.0147558
0.000106328
0.0147878
0.000106114
0.0148195
0.000105837
0.0148509
0.000105482
0.014882
0.000105055
0.0149127
0.000104584
0.0149431
0.000104092
0.0149731
0.000103587
0.0150028
0.000103054
0.015032
0.000102475
0.0150608
0.000101842
0.0150892
0.000101169
0.0151171
0.000100479
0.0151447
9.97871e-05
0.0151719
9.90902e-05
0.0151986
9.83687e-05
0.0152249
9.7602e-05
0.0152507
9.67834e-05
0.0152759
9.59238e-05
0.0153005
9.50423e-05
0.0153247
9.41527e-05
0.0153486
9.32567e-05
0.0153722
9.23461e-05
0.0153954
9.14132e-05
0.015418
9.04594e-05
0.0154398
8.94955e-05
0.0154608
8.85361e-05
0.0154812
8.75904e-05
0.0155012
8.66598e-05
0.0155213
8.57421e-05
0.0155417
8.48368e-05
0.0155623
8.39454e-05
0.015583
8.30668e-05
0.0156034
8.21908e-05
0.0156229
8.12997e-05
0.015641
8.03749e-05
0.0156576
7.94069e-05
0.0156725
7.84003e-05
0.0156858
7.73709e-05
0.0156979
7.6338e-05
0.0157092
7.53154e-05
0.01572
7.43094e-05
0.0157306
7.33207e-05
0.0157413
7.23504e-05
0.0157524
7.14006e-05
0.0157637
7.04743e-05
0.0157753
6.95728e-05
0.0157871
6.86932e-05
0.0157991
6.78299e-05
0.0158111
6.6977e-05
0.0158231
6.61325e-05
0.015835
6.52982e-05
0.0158467
6.44792e-05
0.0158583
6.36791e-05
0.0158696
6.28977e-05
0.0158806
6.21321e-05
0.0158914
6.13781e-05
0.015902
6.06335e-05
0.0159123
5.98995e-05
0.0159224
5.91794e-05
0.0159322
5.84754e-05
0.0159418
5.77869e-05
0.0159511
5.71113e-05
0.0159602
5.64459e-05
0.0159691
5.57902e-05
0.0159778
5.51453e-05
0.0159862
5.45128e-05
0.0159945
5.38937e-05
0.0160025
5.32876e-05
0.0160103
5.26928e-05
0.016018
5.2108e-05
0.0160254
5.15331e-05
0.0160327
5.09691e-05
0.0160398
5.04181e-05
0.0160468
4.98816e-05
0.0160536
4.93588e-05
0.0160602
4.88493e-05
0.0160666
4.83513e-05
0.016073
4.78635e-05
0.0160792
4.73857e-05
0.0160854
4.69175e-05
0.0160915
4.64572e-05
0.0160975
4.6003e-05
0.0161032
4.55529e-05
0.0161088
4.51052e-05
0.0161141
4.46596e-05
0.0161194
4.42161e-05
0.0161246
4.3774e-05
0.0161299
4.33327e-05
0.0161352
4.28914e-05
0.0161404
4.24509e-05
0.0161454
4.20162e-05
0.01615
4.1598e-05
0.0161542
4.12123e-05
0.016158
4.08762e-05
0.0161616
4.06055e-05
0.0161652
4.04093e-05
0.016169
4.02931e-05
0.0161732
4.02482e-05
0.0161777
4.02679e-05
0.0161825
4.03319e-05
0.0161873
4.04467e-05
0.0161918
4.05896e-05
0.0161958
4.08015e-05
0.0161991
4.10457e-05
0.0162016
4.14308e-05
0.0162037
4.18507e-05
0.0162054
4.25497e-05
0.0162071
4.3235e-05
0.0162091
4.44485e-05
0.016212
4.54169e-05
0.0162155
4.75565e-05
0.0162207
4.8984e-05
0.0162262
5.31804e-05
5.5069e-05
0.016234
0.0137977
2.02653e-05
0.0138031
2.56009e-05
0.0138116
2.92898e-05
0.0138236
3.3246e-05
0.0138388
3.71866e-05
0.0138571
4.08946e-05
0.0138774
4.43329e-05
0.0138981
4.75922e-05
0.0139188
5.06779e-05
0.0139397
5.36505e-05
0.0139612
5.64675e-05
0.0139837
5.90784e-05
0.0140073
6.14733e-05
0.0140317
6.36726e-05
0.014057
6.56904e-05
0.0140831
6.75476e-05
0.01411
6.92421e-05
0.0141378
7.07639e-05
0.0141662
7.21137e-05
0.0141953
7.33083e-05
0.0142247
7.43689e-05
0.0142545
7.53091e-05
0.0142848
7.61323e-05
0.0143154
7.68361e-05
0.0143463
7.742e-05
0.0143775
7.78919e-05
0.0144089
7.82697e-05
0.0144403
7.85745e-05
0.0144719
7.8821e-05
0.0145036
7.9012e-05
0.0145354
7.91418e-05
0.0145673
7.92043e-05
0.0145991
7.91997e-05
0.0146309
7.91367e-05
0.0146627
7.90278e-05
0.0146944
7.88823e-05
0.0147261
7.87032e-05
0.0147577
7.84879e-05
0.0147892
7.8233e-05
0.0148206
7.79393e-05
0.0148517
7.76134e-05
0.0148827
7.72641e-05
0.0149136
7.6897e-05
0.0149443
7.65117e-05
0.0149748
7.6104e-05
0.0150051
7.56714e-05
0.0150352
7.52162e-05
0.0150649
7.47454e-05
0.0150945
7.42644e-05
0.015124
7.3773e-05
0.0151533
7.32647e-05
0.0151823
7.27317e-05
0.015211
7.21719e-05
0.0152391
7.15902e-05
0.015267
7.09964e-05
0.0152947
7.03982e-05
0.0153222
6.97967e-05
0.0153497
6.91873e-05
0.0153769
6.85651e-05
0.0154036
6.79297e-05
0.0154296
6.72871e-05
0.015455
6.66454e-05
0.0154798
6.60112e-05
0.0155045
6.53865e-05
0.0155294
6.47704e-05
0.0155548
6.41622e-05
0.0155806
6.35622e-05
0.0156066
6.29687e-05
0.0156323
6.23755e-05
0.0156572
6.17726e-05
0.0156809
6.1149e-05
0.015703
6.04984e-05
0.0157234
5.98213e-05
0.0157423
5.91256e-05
0.0157601
5.84235e-05
0.0157771
5.77257e-05
0.0157938
5.70384e-05
0.0158104
5.63642e-05
0.0158272
5.57041e-05
0.0158445
5.50612e-05
0.0158621
5.44335e-05
0.0158801
5.3822e-05
0.0158985
5.32247e-05
0.0159171
5.26398e-05
0.0159358
5.20631e-05
0.0159546
5.14909e-05
0.0159733
5.09224e-05
0.015992
5.03629e-05
0.0160104
4.98182e-05
0.0160287
4.92882e-05
0.0160468
4.87704e-05
0.0160647
4.82616e-05
0.0160824
4.776e-05
0.0160999
4.72644e-05
0.0161172
4.67751e-05
0.0161342
4.62934e-05
0.0161511
4.58198e-05
0.0161677
4.53555e-05
0.0161841
4.49003e-05
0.0162004
4.44529e-05
0.0162165
4.40128e-05
0.0162324
4.35815e-05
0.0162481
4.31597e-05
0.0162636
4.27469e-05
0.0162789
4.23425e-05
0.016294
4.19446e-05
0.016309
4.15517e-05
0.0163239
4.11645e-05
0.0163386
4.07843e-05
0.0163532
4.04126e-05
0.0163676
4.00503e-05
0.0163817
3.9701e-05
0.0163957
3.93574e-05
0.0164096
3.90201e-05
0.0164234
3.86888e-05
0.0164372
3.83637e-05
0.016451
3.8045e-05
0.0164646
3.77322e-05
0.0164781
3.74229e-05
0.0164913
3.71152e-05
0.0165043
3.68081e-05
0.016517
3.65001e-05
0.0165297
3.61927e-05
0.0165424
3.5888e-05
0.0165552
3.55869e-05
0.0165681
3.52911e-05
0.0165809
3.5004e-05
0.0165936
3.473e-05
0.0166058
3.44762e-05
0.0166177
3.42514e-05
0.0166291
3.40634e-05
0.0166404
3.39222e-05
0.0166518
3.38336e-05
0.0166635
3.3796e-05
0.0166758
3.38097e-05
0.0166887
3.38645e-05
0.016702
3.39651e-05
0.0167154
3.41004e-05
0.0167286
3.42921e-05
0.0167412
3.45222e-05
0.016753
3.48486e-05
0.016764
3.5226e-05
0.0167744
3.57791e-05
0.0167845
3.63883e-05
0.0167947
3.73391e-05
0.0168053
3.83247e-05
0.0168171
3.99721e-05
0.0168301
4.14147e-05
0.0168457
4.41001e-05
4.57482e-05
0.0168629
0.0137971
2.15992e-05
0.0138023
2.47206e-05
0.0138103
2.64508e-05
0.0138218
2.83962e-05
0.013837
3.02294e-05
0.013855
3.20632e-05
0.0138745
3.38179e-05
0.0138944
3.54422e-05
0.0139144
3.69709e-05
0.0139347
3.84199e-05
0.0139556
3.97704e-05
0.0139773
4.10718e-05
0.0139999
4.22502e-05
0.0140235
4.34065e-05
0.014048
4.43835e-05
0.0140735
4.52644e-05
0.0140998
4.60876e-05
0.0141269
4.68326e-05
0.0141547
4.75023e-05
0.014183
4.81021e-05
0.0142119
4.86328e-05
0.0142412
4.90962e-05
0.014271
4.9496e-05
0.0143011
4.98333e-05
0.0143314
5.01083e-05
0.0143621
5.03253e-05
0.0143929
5.04942e-05
0.0144239
5.06277e-05
0.0144551
5.07353e-05
0.0144863
5.08196e-05
0.0145176
5.08758e-05
0.014549
5.08972e-05
0.0145803
5.08814e-05
0.0146117
5.08317e-05
0.014643
5.07554e-05
0.0146742
5.06594e-05
0.0147054
5.05473e-05
0.0147365
5.04188e-05
0.0147675
5.02715e-05
0.0147983
5.01041e-05
0.0148289
4.99177e-05
0.0148594
4.9716e-05
0.0148898
4.95035e-05
0.01492
4.9283e-05
0.01495
4.90547e-05
0.0149797
4.88169e-05
0.0150092
4.85689e-05
0.0150385
4.83114e-05
0.0150676
4.80464e-05
0.0150966
4.77751e-05
0.0151254
4.74964e-05
0.0151538
4.72082e-05
0.0151819
4.69088e-05
0.0152096
4.6599e-05
0.0152369
4.62816e-05
0.0152641
4.59596e-05
0.0152912
4.56342e-05
0.0153182
4.53046e-05
0.015345
4.49695e-05
0.0153713
4.46281e-05
0.0153969
4.42818e-05
0.0154219
4.39333e-05
0.0154464
4.35852e-05
0.0154708
4.3239e-05
0.0154956
4.28956e-05
0.0155208
4.25551e-05
0.0155465
4.22183e-05
0.0155724
4.18856e-05
0.0155979
4.15557e-05
0.0156227
4.12251e-05
0.0156461
4.08884e-05
0.0156679
4.05403e-05
0.0156881
4.0179e-05
0.0157068
3.9808e-05
0.0157245
3.94323e-05
0.0157414
3.90571e-05
0.015758
3.86874e-05
0.0157746
3.8328e-05
0.0157914
3.79808e-05
0.0158087
3.76622e-05
0.0158264
3.73316e-05
0.0158445
3.69851e-05
0.0158629
3.66585e-05
0.0158816
3.63368e-05
0.0159004
3.60222e-05
0.0159192
3.57324e-05
0.015938
3.54061e-05
0.0159567
3.50762e-05
0.0159753
3.47659e-05
0.0159937
3.44689e-05
0.0160119
3.41825e-05
0.01603
3.39037e-05
0.0160478
3.36281e-05
0.0160655
3.33536e-05
0.016083
3.30793e-05
0.0161002
3.28107e-05
0.0161173
3.25507e-05
0.0161341
3.22897e-05
0.0161508
3.20354e-05
0.0161673
3.17845e-05
0.0161837
3.15384e-05
0.0161999
3.12982e-05
0.0162159
3.10637e-05
0.0162317
3.08356e-05
0.0162473
3.06185e-05
0.0162628
3.0406e-05
0.0162781
3.01822e-05
0.0162933
2.99631e-05
0.0163084
2.97489e-05
0.0163233
2.95365e-05
0.0163381
2.92981e-05
0.0163527
2.91293e-05
0.0163671
2.8924e-05
0.0163814
2.8723e-05
0.0163957
2.8527e-05
0.0164099
2.83393e-05
0.0164242
2.81566e-05
0.0164384
2.79779e-05
0.0164523
2.78003e-05
0.016466
2.7622e-05
0.0164794
2.74436e-05
0.0164927
2.72684e-05
0.0165059
2.70932e-05
0.0165192
2.69212e-05
0.0165326
2.67558e-05
0.0165461
2.65916e-05
0.0165596
2.64381e-05
0.0165729
2.62946e-05
0.0165857
2.61591e-05
0.016598
2.60571e-05
0.01661
2.59385e-05
0.0166218
2.58482e-05
0.0166338
2.57845e-05
0.0166463
2.5745e-05
0.0166594
2.5732e-05
0.0166732
2.57449e-05
0.0166874
2.57794e-05
0.0167018
2.58353e-05
0.0167158
2.59358e-05
0.0167294
2.60598e-05
0.0167421
2.62403e-05
0.0167541
2.6461e-05
0.0167656
2.67524e-05
0.016777
2.70607e-05
0.0167888
2.75421e-05
0.0168017
2.80556e-05
0.0168162
2.8861e-05
0.0168326
2.95943e-05
0.0168517
3.0764e-05
3.15502e-05
0.0168732
0.0137974
2.12469e-05
0.0138024
2.25754e-05
0.0138104
2.21874e-05
0.0138217
2.22034e-05
0.0138366
2.22047e-05
0.0138541
2.22178e-05
0.0138732
2.22152e-05
0.0138927
2.21979e-05
0.0139124
2.21691e-05
0.0139322
2.2125e-05
0.0139526
2.20758e-05
0.0139739
2.20319e-05
0.0139961
2.1997e-05
0.0140194
2.19733e-05
0.0140436
2.19647e-05
0.0140686
2.19405e-05
0.0140946
2.19031e-05
0.0141212
2.18625e-05
0.0141486
2.18278e-05
0.0141766
2.1801e-05
0.0142051
2.1778e-05
0.0142341
2.17522e-05
0.0142636
2.17187e-05
0.0142934
2.16753e-05
0.0143235
2.16231e-05
0.0143539
2.15656e-05
0.0143845
2.15083e-05
0.0144153
2.14573e-05
0.0144463
2.14167e-05
0.0144774
2.13852e-05
0.0145085
2.13575e-05
0.0145397
2.13264e-05
0.0145709
2.12872e-05
0.0146022
2.124e-05
0.0146334
2.11887e-05
0.0146645
2.11379e-05
0.0146956
2.10904e-05
0.0147266
2.10457e-05
0.0147575
2.1001e-05
0.0147882
2.09538e-05
0.0148188
2.09027e-05
0.0148492
2.08487e-05
0.0148795
2.07942e-05
0.0149097
2.07419e-05
0.0149397
2.06929e-05
0.0149694
2.06475e-05
0.0149988
2.06045e-05
0.0150281
2.05625e-05
0.0150571
2.05204e-05
0.0150861
2.04778e-05
0.0151148
2.04344e-05
0.0151432
2.03906e-05
0.0151712
2.03465e-05
0.0151989
2.03022e-05
0.0152262
2.02575e-05
0.0152534
2.02124e-05
0.0152805
2.01675e-05
0.0153075
2.0123e-05
0.0153342
2.00784e-05
0.0153605
2.00329e-05
0.0153861
1.99852e-05
0.015411
1.99343e-05
0.0154355
1.98797e-05
0.0154599
1.98221e-05
0.0154846
1.97644e-05
0.0155098
1.97095e-05
0.0155355
1.96573e-05
0.0155612
1.96086e-05
0.0155867
1.95641e-05
0.0156113
1.95226e-05
0.0156345
1.94845e-05
0.0156561
1.94582e-05
0.0156761
1.94113e-05
0.0156946
1.93456e-05
0.0157121
1.9284e-05
0.0157289
1.92225e-05
0.0157454
1.91626e-05
0.015762
1.91068e-05
0.0157788
1.90562e-05
0.0157961
1.90123e-05
0.0158138
1.89684e-05
0.015832
1.8922e-05
0.0158504
1.88743e-05
0.015869
1.88178e-05
0.0158878
1.87594e-05
0.0159067
1.87081e-05
0.0159255
1.86532e-05
0.0159442
1.85978e-05
0.0159627
1.85472e-05
0.015981
1.84963e-05
0.0159992
1.84449e-05
0.0160172
1.83967e-05
0.016035
1.83487e-05
0.0160526
1.82993e-05
0.01607
1.82442e-05
0.0160872
1.81641e-05
0.0161042
1.80864e-05
0.0161211
1.8073e-05
0.0161377
1.80351e-05
0.0161542
1.79919e-05
0.0161705
1.79478e-05
0.0161866
1.79034e-05
0.0162026
1.78596e-05
0.0162183
1.78172e-05
0.0162338
1.77732e-05
0.0162492
1.77271e-05
0.0162645
1.76797e-05
0.0162797
1.76303e-05
0.0162948
1.7575e-05
0.0163097
1.75332e-05
0.0163244
1.74867e-05
0.016339
1.74413e-05
0.0163533
1.73939e-05
0.0163676
1.73453e-05
0.0163818
1.72984e-05
0.016396
1.72536e-05
0.0164102
1.72095e-05
0.0164243
1.71666e-05
0.0164382
1.71268e-05
0.0164518
1.71001e-05
0.0164651
1.70648e-05
0.0164782
1.69973e-05
0.0164914
1.69495e-05
0.0165047
1.6904e-05
0.0165181
1.6861e-05
0.0165317
1.6821e-05
0.0165452
1.6785e-05
0.0165584
1.67535e-05
0.0165712
1.67276e-05
0.0165836
1.66938e-05
0.0165956
1.66579e-05
0.0166075
1.66225e-05
0.0166197
1.65881e-05
0.0166323
1.65545e-05
0.0166456
1.65224e-05
0.0166595
1.64922e-05
0.0166738
1.64443e-05
0.0166883
1.64028e-05
0.0167024
1.6426e-05
0.016716
1.64075e-05
0.0167289
1.63874e-05
0.016741
1.63807e-05
0.0167528
1.63684e-05
0.0167645
1.63535e-05
0.0167767
1.63324e-05
0.0167901
1.63291e-05
0.0168051
1.63181e-05
0.0168222
1.62852e-05
0.0168416
1.62584e-05
1.62439e-05
0.0168633
0.0137973
1.95102e-05
0.0138025
1.87864e-05
0.0138104
1.64628e-05
0.0138217
1.45405e-05
0.0138365
1.26262e-05
0.0138541
1.08747e-05
0.0138731
9.11385e-06
0.0138927
7.42085e-06
0.0139123
5.85273e-06
0.0139322
4.31008e-06
0.0139526
2.86447e-06
0.0139738
1.50502e-06
0.013996
2.54046e-07
0.0140193
-9.75568e-07
0.0140435
-1.91913e-06
0.0140686
-2.87252e-06
0.0140945
-3.77451e-06
0.0141211
-4.60063e-06
0.0141485
-5.33919e-06
0.0141765
-5.99105e-06
0.014205
-6.56561e-06
0.014234
-7.07869e-06
0.0142635
-7.54397e-06
0.0142933
-7.96601e-06
0.0143234
-8.34266e-06
0.0143538
-8.67082e-06
0.0143844
-8.94927e-06
0.0144152
-9.17919e-06
0.0144462
-9.36406e-06
0.0144772
-9.50891e-06
0.0145084
-9.61982e-06
0.0145396
-9.70306e-06
0.0145708
-9.76391e-06
0.014602
-9.80511e-06
0.0146332
-9.82665e-06
0.0146644
-9.82699e-06
0.0146955
-9.80531e-06
0.0147265
-9.76273e-06
0.0147574
-9.70214e-06
0.0147881
-9.62698e-06
0.0148187
-9.54016e-06
0.0148491
-9.4432e-06
0.0148794
-9.33579e-06
0.0149095
-9.21592e-06
0.0149395
-9.0812e-06
0.0149692
-8.93058e-06
0.0149987
-8.76564e-06
0.0150279
-8.59012e-06
0.015057
-8.40791e-06
0.0150859
-8.22062e-06
0.0151146
-8.0268e-06
0.0151431
-7.82359e-06
0.0151711
-7.60914e-06
0.0151987
-7.38454e-06
0.015226
-7.15291e-06
0.0152532
-6.91722e-06
0.0152803
-6.67835e-06
0.0153074
-6.43511e-06
0.0153341
-6.18641e-06
0.0153604
-5.93327e-06
0.0153859
-5.67916e-06
0.0154108
-5.42845e-06
0.0154353
-5.184e-06
0.0154597
-4.94549e-06
0.0154844
-4.71046e-06
0.0155096
-4.47622e-06
0.0155353
-4.24054e-06
0.0155611
-4.00172e-06
0.0155865
-3.7579e-06
0.015611
-3.50709e-06
0.0156343
-3.2484e-06
0.0156559
-2.98319e-06
0.0156759
-2.71491e-06
0.0156945
-2.44692e-06
0.0157119
-2.1824e-06
0.0157287
-1.92349e-06
0.0157452
-1.66947e-06
0.0157618
-1.41825e-06
0.0157787
-1.17017e-06
0.0157959
-9.27113e-07
0.0158137
-6.89885e-07
0.0158318
-4.52424e-07
0.0158502
-1.85326e-07
0.0158689
1.02392e-08
0.0158877
1.94473e-07
0.0159065
4.57495e-07
0.0159253
6.66124e-07
0.015944
8.61037e-07
0.0159625
1.0497e-06
0.0159809
1.23489e-06
0.0159991
1.43419e-06
0.016017
1.6358e-06
0.0160348
1.83344e-06
0.0160524
2.0243e-06
0.0160699
2.20396e-06
0.0160871
2.33776e-06
0.0161041
2.49678e-06
0.0161209
2.64883e-06
0.0161375
2.85291e-06
0.016154
3.01024e-06
0.0161703
3.15735e-06
0.0161865
3.30182e-06
0.0162024
3.44496e-06
0.0162182
3.58219e-06
0.0162337
3.72509e-06
0.0162491
3.86195e-06
0.0162644
3.99471e-06
0.0162796
4.12286e-06
0.0162947
4.24603e-06
0.0163096
4.3628e-06
0.0163243
4.47547e-06
0.0163388
4.58534e-06
0.0163532
4.69268e-06
0.0163674
4.79763e-06
0.0163816
4.90127e-06
0.0163959
5.005e-06
0.0164101
5.10778e-06
0.0164242
5.20897e-06
0.016438
5.30474e-06
0.0164517
5.40563e-06
0.016465
5.50122e-06
0.0164782
5.59349e-06
0.0164913
5.68328e-06
0.0165046
5.77101e-06
0.016518
5.85784e-06
0.0165316
5.94327e-06
0.0165451
6.02605e-06
0.0165583
6.10391e-06
0.0165711
6.17297e-06
0.0165835
6.23019e-06
0.0165955
6.26946e-06
0.0166074
6.28796e-06
0.0166196
6.28357e-06
0.0166322
6.25746e-06
0.0166456
6.21219e-06
0.0166595
6.15158e-06
0.0166738
6.07344e-06
0.0166882
5.98167e-06
0.0167024
5.86089e-06
0.016716
5.69496e-06
0.0167289
5.42962e-06
0.016741
5.28895e-06
0.0167527
4.97141e-06
0.0167644
4.59841e-06
0.0167766
4.10244e-06
0.01679
3.55265e-06
0.016805
2.73945e-06
0.016822
2.02442e-06
0.0168414
6.97917e-07
-1.16046e-07
0.0168631
0.0137972
1.65063e-05
0.0138022
1.35571e-05
0.0138102
9.16018e-06
0.0138217
5.22385e-06
0.013837
1.2329e-06
0.013855
-2.39209e-06
0.0138744
-5.84457e-06
0.0138943
-9.14996e-06
0.0139143
-1.22976e-05
0.0139345
-1.5347e-05
0.0139554
-1.82448e-05
0.0139771
-2.09246e-05
0.0139997
-2.3372e-05
0.0140232
-2.56062e-05
0.0140478
-2.76477e-05
0.0140732
-2.95521e-05
0.0140996
-3.13131e-05
0.0141267
-3.29058e-05
0.0141544
-3.43166e-05
0.0141827
-3.55591e-05
0.0142116
-3.66613e-05
0.0142409
-3.76482e-05
0.0142706
-3.85317e-05
0.0143007
-3.93125e-05
0.0143311
-3.99874e-05
0.0143617
-4.05578e-05
0.0143926
-4.10327e-05
0.0144236
-4.14239e-05
0.0144547
-4.17405e-05
0.0144859
-4.19874e-05
0.0145173
-4.21671e-05
0.0145486
-4.22841e-05
0.01458
-4.2346e-05
0.0146113
-4.23618e-05
0.0146426
-4.23385e-05
0.0146738
-4.2279e-05
0.014705
-4.2182e-05
0.0147361
-4.20455e-05
0.0147671
-4.18696e-05
0.0147979
-4.1659e-05
0.0148285
-4.14214e-05
0.014859
-4.1164e-05
0.0148893
-4.08889e-05
0.0149195
-4.05922e-05
0.0149495
-4.0268e-05
0.0149793
-3.99138e-05
0.0150088
-3.95342e-05
0.0150381
-3.9138e-05
0.0150672
-3.87323e-05
0.0150961
-3.83167e-05
0.0151249
-3.78841e-05
0.0151534
-3.74268e-05
0.0151815
-3.69426e-05
0.0152091
-3.64376e-05
0.0152364
-3.59218e-05
0.0152636
-3.54025e-05
0.0152908
-3.48801e-05
0.0153178
-3.43497e-05
0.0153446
-3.38065e-05
0.0153709
-3.32515e-05
0.0153965
-3.26925e-05
0.0154214
-3.21393e-05
0.0154459
-3.15981e-05
0.0154704
-3.10696e-05
0.0154951
-3.05504e-05
0.0155203
-3.00361e-05
0.015546
-2.95238e-05
0.0155719
-2.90109e-05
0.0155975
-2.84924e-05
0.0156222
-2.79605e-05
0.0156456
-2.74076e-05
0.0156674
-2.68306e-05
0.0156876
-2.62341e-05
0.0157063
-2.56289e-05
0.015724
-2.50256e-05
0.0157408
-2.44306e-05
0.0157574
-2.38455e-05
0.0157741
-2.32685e-05
0.0157909
-2.26971e-05
0.0158082
-2.21325e-05
0.0158259
-2.15803e-05
0.015844
-2.10468e-05
0.0158625
-2.05325e-05
0.0158811
-2.00415e-05
0.0158998
-1.95617e-05
0.0159187
-1.90814e-05
0.0159375
-1.86107e-05
0.0159563
-1.81503e-05
0.0159748
-1.77002e-05
0.0159932
-1.72581e-05
0.0160115
-1.68237e-05
0.0160295
-1.6396e-05
0.0160474
-1.59752e-05
0.0160651
-1.55631e-05
0.0160826
-1.51618e-05
0.0160998
-1.47746e-05
0.0161168
-1.43951e-05
0.0161336
-1.40201e-05
0.0161503
-1.36449e-05
0.0161668
-1.32761e-05
0.0161832
-1.29141e-05
0.0161994
-1.2559e-05
0.0162154
-1.22118e-05
0.0162312
-1.18734e-05
0.0162469
-1.15441e-05
0.0162623
-1.12231e-05
0.0162776
-1.09099e-05
0.0162929
-1.06045e-05
0.016308
-1.03078e-05
0.016323
-1.00196e-05
0.0163377
-9.74012e-06
0.0163523
-9.46895e-06
0.0163667
-9.20473e-06
0.016381
-8.94551e-06
0.0163953
-8.69076e-06
0.0164095
-8.44062e-06
0.0164238
-8.19473e-06
0.016438
-7.95262e-06
0.0164519
-7.71382e-06
0.0164656
-7.47718e-06
0.016479
-7.2423e-06
0.0164923
-7.00913e-06
0.0165055
-6.77668e-06
0.0165188
-6.54442e-06
0.0165323
-6.31289e-06
0.0165458
-6.08228e-06
0.0165593
-5.85494e-06
0.0165726
-5.63637e-06
0.0165854
-5.43542e-06
0.0165978
-5.26288e-06
0.0166097
-5.1307e-06
0.0166216
-5.04569e-06
0.0166336
-5.01225e-06
0.0166461
-5.02595e-06
0.0166593
-5.08519e-06
0.016673
-5.17917e-06
0.0166873
-5.31297e-06
0.0167016
-5.47397e-06
0.0167157
-5.68773e-06
0.0167293
-5.93613e-06
0.0167419
-6.27901e-06
0.016754
-6.65376e-06
0.0167655
-7.21362e-06
0.0167768
-7.82431e-06
0.0167887
-8.78965e-06
0.0168015
-9.77754e-06
0.016816
-1.14444e-05
0.0168325
-1.28695e-05
0.0168515
-1.55921e-05
-1.7225e-05
0.0168729
0.0137977
1.17178e-05
0.0138033
6.47828e-06
0.0138117
8.25246e-08
0.0138235
-5.83256e-06
0.0138387
-1.14948e-05
0.013857
-1.73188e-05
0.0138772
-2.29016e-05
0.0138979
-2.78527e-05
0.0139185
-3.24199e-05
0.0139394
-3.69055e-05
0.0139609
-4.1297e-05
0.0139834
-4.54335e-05
0.0140069
-4.91599e-05
0.0140313
-5.24294e-05
0.0140566
-5.53582e-05
0.0140826
-5.81095e-05
0.0141096
-6.07327e-05
0.0141373
-6.31534e-05
0.0141658
-6.52758e-05
0.0141948
-6.70769e-05
0.0142242
-6.86202e-05
0.014254
-6.99993e-05
0.0142842
-7.12712e-05
0.0143148
-7.24327e-05
0.0143458
-7.34394e-05
0.014377
-7.42522e-05
0.0144083
-7.48792e-05
0.0144398
-7.53752e-05
0.0144713
-7.57989e-05
0.014503
-7.61686e-05
0.0145348
-7.64561e-05
0.0145667
-7.6625e-05
0.0145985
-7.66728e-05
0.0146303
-7.6635e-05
0.0146621
-7.65542e-05
0.0146938
-7.64484e-05
0.0147255
-7.63033e-05
0.0147571
-7.60925e-05
0.0147886
-7.58019e-05
0.0148199
-7.54424e-05
0.0148511
-7.50414e-05
0.014882
-7.46226e-05
0.0149129
-7.41904e-05
0.0149436
-7.3729e-05
0.0149742
-7.32179e-05
0.0150045
-7.26501e-05
0.0150345
-7.20395e-05
0.0150643
-7.14105e-05
0.0150939
-7.07802e-05
0.0151233
-7.01455e-05
0.0151526
-6.94865e-05
0.0151817
-6.87824e-05
0.0152103
-6.80266e-05
0.0152385
-6.72299e-05
0.0152663
-6.6412e-05
0.015294
-6.55868e-05
0.0153216
-6.47557e-05
0.015349
-6.39106e-05
0.0153762
-6.30439e-05
0.0154029
-6.21572e-05
0.015429
-6.12627e-05
0.0154543
-6.03755e-05
0.0154791
-5.95048e-05
0.0155038
-5.86512e-05
0.0155287
-5.78105e-05
0.0155541
-5.69796e-05
0.0155799
-5.61585e-05
0.0156058
-5.53448e-05
0.0156316
-5.45292e-05
0.0156565
-5.36958e-05
0.0156801
-5.28288e-05
0.0157022
-5.19217e-05
0.0157226
-5.09817e-05
0.0157415
-5.00259e-05
0.0157593
-4.90722e-05
0.0157763
-4.81317e-05
0.015793
-4.7207e-05
0.0158096
-4.62956e-05
0.0158264
-4.53965e-05
0.0158436
-4.45128e-05
0.0158613
-4.36506e-05
0.0158794
-4.28137e-05
0.0158977
-4.20018e-05
0.0159163
-4.12109e-05
0.0159351
-4.04346e-05
0.0159538
-3.9669e-05
0.0159726
-3.89153e-05
0.0159912
-3.81754e-05
0.0160097
-3.74504e-05
0.016028
-3.674e-05
0.0160461
-3.60415e-05
0.016064
-3.53522e-05
0.0160817
-3.46728e-05
0.0160992
-3.40065e-05
0.0161165
-3.33574e-05
0.0161335
-3.27259e-05
0.0161504
-3.2109e-05
0.016167
-3.15032e-05
0.0161834
-3.09055e-05
0.0161997
-3.0315e-05
0.0162158
-2.97329e-05
0.0162317
-2.91621e-05
0.0162474
-2.86044e-05
0.0162629
-2.80599e-05
0.0162783
-2.7527e-05
0.0162934
-2.70046e-05
0.0163084
-2.64932e-05
0.0163232
-2.5994e-05
0.016338
-2.55083e-05
0.0163526
-2.50367e-05
0.016367
-2.45785e-05
0.0163811
-2.41319e-05
0.0163951
-2.36952e-05
0.016409
-2.32674e-05
0.0164228
-2.28481e-05
0.0164366
-2.24371e-05
0.0164504
-2.20332e-05
0.0164641
-2.1635e-05
0.0164775
-2.12414e-05
0.0164908
-2.0851e-05
0.0165037
-2.04629e-05
0.0165165
-2.00768e-05
0.0165292
-1.96911e-05
0.0165419
-1.93035e-05
0.0165547