/*--------------------------------*- C++ -*----------------------------------*\
  =========                 |
  \\      /  F ield         | OpenFOAM: The Open Source CFD Toolbox
   \\    /   O peration     | Website:  https://openfoam.org
    \\  /    A nd           | Version:  7
     \\/     M anipulation  |
\*---------------------------------------------------------------------------*/
FoamFile
{
    version     2.0;
    format      ascii;
    class       volVectorField;
    location    "0.275";
    object      UMean;
}
// * * * * * * * * * * * * * * * * * * * * * * * * * * * * * * * * * * * * * //

dimensions      [0 1 -1 0 0 0 0];

internalField   nonuniform List<vector> 
400
(
(0.0747146 0.0114002 0)
(0.06336 0.0100799 0)
(0.0471345 0.0052456 0)
(0.0352311 0.00272214 0)
(0.0280669 0.00153626 0)
(0.0236379 0.00089132 0)
(0.02077 0.000524874 0)
(0.0188751 0.000317254 0)
(0.017607 0.000197061 0)
(0.0167491 0.000124826 0)
(0.0161653 7.98853e-05 0)
(0.0157683 5.11558e-05 0)
(0.0155003 3.2404e-05 0)
(0.0153222 1.99709e-05 0)
(0.0152072 1.16217e-05 0)
(0.0151365 5.95349e-06 0)
(0.015097 2.10094e-06 0)
(0.015079 -3.79713e-07 0)
(0.0150747 -1.58866e-06 0)
(0.0150775 -1.81136e-06 0)
(0.100321 0.0245979 0)
(0.0993539 0.0295988 0)
(0.0889509 0.0221731 0)
(0.0772308 0.0151237 0)
(0.0677212 0.0100988 0)
(0.0605456 0.00672788 0)
(0.055236 0.00451296 0)
(0.0513638 0.0030585 0)
(0.0485693 0.0020917 0)
(0.0465664 0.00143841 0)
(0.0451403 0.000990194 0)
(0.044133 0.000678957 0)
(0.0434294 0.000460981 0)
(0.0429457 0.000307447 0)
(0.0426208 0.000198886 0)
(0.0424103 0.000121978 0)
(0.042282 6.77607e-05 0)
(0.0422119 3.07209e-05 0)
(0.0421809 8.21606e-06 0)
(0.042172 -1.19501e-06 0)
(0.101877 0.020299 0)
(0.106796 0.0315114 0)
(0.104967 0.0291795 0)
(0.0993871 0.0234313 0)
(0.0928945 0.0177382 0)
(0.0868426 0.0130428 0)
(0.0817174 0.00945341 0)
(0.0776095 0.00680369 0)
(0.0744305 0.00487523 0)
(0.0720284 0.00347828 0)
(0.0702462 0.00246747 0)
(0.0689448 0.00173624 0)
(0.0680096 0.00120746 0)
(0.0673494 0.000825368 0)
(0.0668939 0.000549478 0)
(0.0665894 0.000350522 0)
(0.0663958 0.000207804 0)
(0.0662826 0.000107741 0)
(0.0662251 4.30322e-05 0)
(0.0662014 1.10536e-05 0)
(0.10138 0.0145041 0)
(0.107255 0.0276227 0)
(0.110027 0.0298971 0)
(0.109613 0.0270503 0)
(0.107163 0.0224629 0)
(0.103862 0.0177717 0)
(0.100484 0.0136508 0)
(0.0974279 0.0102847 0)
(0.0948531 0.00764078 0)
(0.0927812 0.00561108 0)
(0.0911683 0.00407561 0)
(0.0899448 0.00292592 0)
(0.0890375 0.00207179 0)
(0.0883794 0.00144113 0)
(0.0879136 0.000977659 0)
(0.087594 0.000638343 0)
(0.0873843 0.000391327 0)
(0.0872565 0.000214691 0)
(0.0871871 9.60697e-05 0)
(0.0871547 3.27403e-05 0)
(0.100929 0.0104177 0)
(0.106122 0.0225542 0)
(0.110723 0.027065 0)
(0.113499 0.0266472 0)
(0.114392 0.0237131 0)
(0.113987 0.0198586 0)
(0.112887 0.0159804 0)
(0.111526 0.0125038 0)
(0.110167 0.00957879 0)
(0.108948 0.00721265 0)
(0.107924 0.00534873 0)
(0.107103 0.00390822 0)
(0.106466 0.00281088 0)
(0.105987 0.00198414 0)
(0.105637 0.00136642 0)
(0.10539 0.000907694 0)
(0.105223 0.000569152 0)
(0.105118 0.00032298 0)
(0.105058 0.000153105 0)
(0.105027 5.79822e-05 0)
(0.100558 0.00748265 0)
(0.10485 0.0175467 0)
(0.109911 0.0225788 0)
(0.114357 0.0236292 0)
(0.117537 0.0221577 0)
(0.119508 0.0193994 0)
(0.120565 0.0162047 0)
(0.121012 0.0130797 0)
(0.121096 0.0102817 0)
(0.120988 0.0079098 0)
(0.120798 0.00597232 0)
(0.120589 0.00443163 0)
(0.120395 0.00323096 0)
(0.12023 0.00230956 0)
(0.120098 0.00161054 0)
(0.119998 0.00108457 0)
(0.119926 0.000691528 0)
(0.119878 0.000401604 0)
(0.119848 0.000197341 0)
(0.11983 7.91277e-05 0)
(0.100383 0.00520067 0)
(0.103884 0.0129576 0)
(0.108815 0.0175157 0)
(0.113985 0.0191592 0)
(0.118543 0.0186814 0)
(0.122212 0.0169203 0)
(0.125004 0.014551 0)
(0.127051 0.0120386 0)
(0.12851 0.00966296 0)
(0.129532 0.00756616 0)
(0.130236 0.00579938 0)
(0.130716 0.0043596 0)
(0.131039 0.0032153 0)
(0.131255 0.00232297 0)
(0.131397 0.00163687 0)
(0.131487 0.00111457 0)
(0.131542 0.000719953 0)
(0.131573 0.000425324 0)
(0.131588 0.000214376 0)
(0.131592 8.93667e-05 0)
(0.100294 0.00343284 0)
(0.103226 0.0088768 0)
(0.107866 0.0123966 0)
(0.113271 0.0139794 0)
(0.118583 0.0140136 0)
(0.123346 0.0130087 0)
(0.12738 0.0114303 0)
(0.13066 0.00963426 0)
(0.133247 0.00785785 0)
(0.135238 0.00623818 0)
(0.136742 0.00483908 0)
(0.137858 0.00367628 0)
(0.138674 0.0027373 0)
(0.139261 0.00199536 0)
(0.139674 0.00141845 0)
(0.139958 0.000974862 0)
(0.140146 0.000636499 0)
(0.140261 0.000381271 0)
(0.140324 0.000196215 0)
(0.140352 8.46595e-05 0)
(0.100208 0.00194945 0)
(0.102799 0.00518257 0)
(0.107194 0.00738545 0)
(0.112637 0.00849098 0)
(0.118319 0.00866673 0)
(0.123715 0.00817841 0)
(0.128527 0.00729249 0)
(0.132627 0.00622739 0)
(0.135995 0.00513838 0)
(0.138684 0.00412177 0)
(0.140779 0.00322758 0)
(0.142378 0.00247354 0)
(0.143574 0.00185722 0)
(0.144452 0.00136508 0)
(0.145082 0.000978729 0)
(0.145523 0.000678938 0)
(0.145818 0.000448151 0)
(0.146003 0.000272364 0)
(0.146107 0.000143519 0)
(0.146157 6.48686e-05 0)
(0.100169 0.000619716 0)
(0.102595 0.00171749 0)
(0.106851 0.00248158 0)
(0.112279 0.0028875 0)
(0.118107 0.00298158 0)
(0.123786 0.00284551 0)
(0.128969 0.0025656 0)
(0.133473 0.00221533 0)
(0.137238 0.00184875 0)
(0.14029 0.00150067 0)
(0.142698 0.00119011 0)
(0.144555 0.000924775 0)
(0.145958 0.00070505 0)
(0.146996 0.000527132 0)
(0.147746 0.00038526 0)
(0.148273 0.000273192 0)
(0.148629 0.000185177 0)
(0.148854 0.00011671 0)
(0.148981 6.55333e-05 0)
(0.149043 3.38222e-05 0)
(0.100178 -0.000619216 0)
(0.102602 -0.00166343 0)
(0.106853 -0.00237735 0)
(0.112275 -0.00274153 0)
(0.118099 -0.00280382 0)
(0.123774 -0.00264604 0)
(0.128955 -0.00235378 0)
(0.133458 -0.00199935 0)
(0.137223 -0.00163539 0)
(0.140275 -0.00129532 0)
(0.142684 -0.000996966 0)
(0.144542 -0.000746979 0)
(0.145946 -0.000544895 0)
(0.146985 -0.000386222 0)
(0.147736 -0.000264616 0)
(0.148264 -0.000173272 0)
(0.14862 -0.00010578 0)
(0.148845 -5.67029e-05 0)
(0.148972 -2.22356e-05 0)
(0.149034 -1.71021e-06 0)
(0.100282 -0.00190857 0)
(0.102836 -0.00510466 0)
(0.107201 -0.00726722 0)
(0.112624 -0.0083369 0)
(0.118292 -0.00848497 0)
(0.123678 -0.00797815 0)
(0.128485 -0.00708242 0)
(0.132582 -0.00601508 0)
(0.13595 -0.00493002 0)
(0.138641 -0.00392226 0)
(0.140738 -0.00304065 0)
(0.14234 -0.00230199 0)
(0.143539 -0.00170305 0)
(0.14442 -0.00122968 0)
(0.145052 -0.000862977 0)
(0.145494 -0.000583178 0)
(0.145791 -0.000372114 0)
(0.145977 -0.000214891 0)
(0.146081 -0.000101978 0)
(0.146131 -3.39284e-05 0)
(0.100276 -0.00337434 0)
(0.103214 -0.00878381 0)
(0.107843 -0.0122662 0)
(0.113232 -0.0138171 0)
(0.118528 -0.0138282 0)
(0.12328 -0.0128094 0)
(0.127308 -0.0112253 0)
(0.130586 -0.00943024 0)
(0.133173 -0.00766004 0)
(0.135168 -0.00605055 0)
(0.136676 -0.00466457 0)
(0.137798 -0.00351703 0)
(0.138619 -0.00259483 0)
(0.13921 -0.00187069 0)
(0.139627 -0.00131216 0)
(0.139914 -0.00088712 0)
(0.140103 -0.000566919 0)
(0.140219 -0.000328666 0)
(0.140282 -0.000158059 0)
(0.140312 -5.60186e-05 0)
(0.100371 -0.00521383 0)
(0.103859 -0.012883 0)
(0.108769 -0.0173856 0)
(0.113917 -0.0189944 0)
(0.118458 -0.0184967 0)
(0.122115 -0.0167267 0)
(0.124902 -0.0143565 0)
(0.126949 -0.0118488 0)
(0.128412 -0.00948191 0)
(0.129439 -0.00739665 0)
(0.13015 -0.00564332 0)
(0.130637 -0.00421832 0)
(0.130968 -0.00308969 0)
(0.131189 -0.00221359 0)
(0.131336 -0.00154398 0)
(0.13143 -0.00103812 0)
(0.131487 -0.000659425 0)
(0.13152 -0.000379524 0)
(0.131535 -0.000180955 0)
(0.13154 -6.39578e-05 0)
(0.100558 -0.00744212 0)
(0.104814 -0.0174516 0)
(0.10984 -0.0224381 0)
(0.114257 -0.0234615 0)
(0.117419 -0.0219779 0)
(0.119381 -0.0192177 0)
(0.120436 -0.0160275 0)
(0.120887 -0.0129111 0)
(0.120978 -0.0101241 0)
(0.120879 -0.00776449 0)
(0.120698 -0.0058402 0)
(0.120498 -0.00431317 0)
(0.120312 -0.00312643 0)
(0.120155 -0.00221907 0)
(0.120029 -0.00153405 0)
(0.119933 -0.00102182 0)
(0.119864 -0.000641928 0)
(0.119817 -0.000363995 0)
(0.119788 -0.000169633 0)
(0.119772 -5.76646e-05 0)
(0.100893 -0.0103867 0)
(0.106042 -0.0224423 0)
(0.110606 -0.0269158 0)
(0.113358 -0.026483 0)
(0.11424 -0.0235468 0)
(0.113833 -0.0196979 0)
(0.112738 -0.0158292 0)
(0.111385 -0.012364 0)
(0.110037 -0.00945093 0)
(0.108831 -0.00709686 0)
(0.107818 -0.00524488 0)
(0.107007 -0.00381609 0)
(0.10638 -0.00273024 0)
(0.105909 -0.00191477 0)
(0.105565 -0.00130807 0)
(0.105323 -0.000859984 0)
(0.105159 -0.000531471 0)
(0.105055 -0.000294285 0)
(0.104996 -0.000131645 0)
(0.104967 -4.09124e-05 0)
(0.101223 -0.0144984 0)
(0.107087 -0.0275252 0)
(0.109849 -0.0297644 0)
(0.109432 -0.026909 0)
(0.106984 -0.0223258 0)
(0.103692 -0.0176443 0)
(0.100325 -0.013535 0)
(0.0972837 -0.0101806 0)
(0.0947233 -0.00754775 0)
(0.0926655 -0.00552835 0)
(0.0910654 -0.00400243 0)
(0.0898533 -0.00286168 0)
(0.0889557 -0.00201602 0)
(0.0883054 -0.00139344 0)
(0.0878456 -0.000937713 0)
(0.0875303 -0.000605759 0)
(0.0873234 -0.000365568 0)
(0.0871971 -0.00019491 0)
(0.0871289 -8.09231e-05 0)
(0.0870986 -2.02273e-05 0)
(0.101764 -0.0202881 0)
(0.106628 -0.0314375 0)
(0.104777 -0.0290808 0)
(0.0991966 -0.02333 0)
(0.0927145 -0.0176439 0)
(0.086678 -0.0129585 0)
(0.0815697 -0.00937942 0)
(0.0774787 -0.00673906 0)
(0.0743154 -0.00481879 0)
(0.0719276 -0.00342897 0)
(0.0701578 -0.00242443 0)
(0.0688671 -0.00169882 0)
(0.0679406 -0.0011752 0)
(0.0672874 -0.000797897 0)
(0.0668371 -0.000526518 0)
(0.0665363 -0.000331786 0)
(0.066345 -0.000192914 0)
(0.0662331 -9.61227e-05 0)
(0.0661767 -3.3787e-05 0)
(0.066155 -2.96991e-06 0)
(0.100227 -0.0245853 0)
(0.0991998 -0.0295443 0)
(0.0887807 -0.0221126 0)
(0.0770684 -0.0150683 0)
(0.0675747 -0.0100511 0)
(0.0604167 -0.00668791 0)
(0.0551241 -0.00447948 0)
(0.0512672 -0.00303029 0)
(0.0484861 -0.0020677 0)
(0.0464948 -0.00141782 0)
(0.0450783 -0.000972441 0)
(0.0440791 -0.000663633 0)
(0.043382 -0.000447807 0)
(0.0429033 -0.000296225 0)
(0.0425821 -0.000189469 0)
(0.0423742 -0.000114225 0)
(0.0422474 -6.14932e-05 0)
(0.0421782 -2.56592e-05 0)
(0.042148 -3.90716e-06 0)
(0.0421407 5.33148e-06 0)
(0.0746772 -0.011398 0)
(0.0632707 -0.0100562 0)
(0.0470429 -0.00522661 0)
(0.0351511 -0.00270841 0)
(0.0279992 -0.00152617 0)
(0.0235812 -0.000883717 0)
(0.0207227 -0.000518968 0)
(0.0188355 -0.000312507 0)
(0.0175737 -0.000193121 0)
(0.016721 -0.000121472 0)
(0.0161414 -7.69751e-05 0)
(0.0157477 -4.85964e-05 0)
(0.0154823 -3.01398e-05 0)
(0.0153063 -1.79677e-05 0)
(0.0151927 -9.85853e-06 0)
(0.015123 -4.41603e-06 0)
(0.015084 -7.75769e-07 0)
(0.0150663 1.51151e-06 0)
(0.0150624 2.59099e-06 0)
(0.015066 2.90627e-06 0)
)
;

boundaryField
{
    upperWall
    {
        type            calculated;
        value           uniform (0 0 0);
    }
    lowerWall
    {
        type            calculated;
        value           uniform (0 0 0);
    }
    inlet
    {
        type            calculated;
        value           nonuniform List<vector> 
20
(
(0.0999572 2.96944e-05 -1.76151e-05)
(0.0999821 -9.15841e-06 7.37234e-05)
(0.10004 1.05461e-05 -5.45093e-06)
(0.100074 1.5903e-05 4.92776e-05)
(0.100051 -2.62457e-05 0.000137827)
(0.0999477 5.55577e-05 -4.14932e-05)
(0.0999838 -1.51152e-07 -1.23502e-05)
(0.100026 5.17605e-06 -5.00374e-05)
(0.0999791 -2.81008e-05 -1.46243e-05)
(0.0999821 -6.08609e-05 -3.76338e-05)
(0.0999825 3.03759e-05 -2.8271e-05)
(0.100115 6.18463e-05 7.61508e-05)
(0.0999613 5.43241e-05 6.40642e-05)
(0.0999742 -0.000103049 -8.48329e-05)
(0.0999721 -1.5866e-05 -0.00012634)
(0.100037 -2.74829e-05 2.58293e-06)
(0.0998878 -0.000116068 -5.11345e-06)
(0.0999734 -5.35132e-05 6.31079e-05)
(0.0999187 -4.52637e-05 -9.66252e-06)
(0.0999708 -8.44664e-05 -1.2155e-05)
)
;
    }
    outlet
    {
        type            calculated;
        value           nonuniform List<vector> 
20
(
(0.0150775 -1.81136e-06 0)
(0.042172 -1.19501e-06 0)
(0.0662014 1.10536e-05 0)
(0.0871547 3.27403e-05 0)
(0.105027 5.79822e-05 0)
(0.11983 7.91277e-05 0)
(0.131592 8.93667e-05 0)
(0.140352 8.46595e-05 0)
(0.146157 6.48686e-05 0)
(0.149043 3.38222e-05 0)
(0.149034 -1.71021e-06 0)
(0.146131 -3.39284e-05 0)
(0.140312 -5.60186e-05 0)
(0.13154 -6.39578e-05 0)
(0.119772 -5.76646e-05 0)
(0.104967 -4.09124e-05 0)
(0.0870986 -2.02273e-05 0)
(0.066155 -2.96991e-06 0)
(0.0421407 5.33148e-06 0)
(0.015066 2.90627e-06 0)
)
;
    }
    frontAndBack
    {
        type            empty;
    }
}


// ************************************************************************* //
