/*--------------------------------*- C++ -*----------------------------------*\
  =========                 |
  \\      /  F ield         | OpenFOAM: The Open Source CFD Toolbox
   \\    /   O peration     | Website:  https://openfoam.org
    \\  /    A nd           | Version:  7
     \\/     M anipulation  |
\*---------------------------------------------------------------------------*/
FoamFile
{
    version     2.0;
    format      ascii;
    class       surfaceScalarField;
    location    "1.1275";
    object      phi;
}
// * * * * * * * * * * * * * * * * * * * * * * * * * * * * * * * * * * * * * //

dimensions      [1 0 -1 0 0 0 0];

internalField   nonuniform List<scalar> 
13265
(
0.00259951
0.00108989
1.33795e-05
0.0019915
0.000598719
6.7922e-06
0.0015951
0.00038233
1.15851e-05
0.00139068
0.000194918
7.06516e-06
0.00126925
0.000108101
1.09446e-05
0.00119472
6.48825e-05
7.31507e-06
0.00114047
4.15514e-05
1.03967e-05
0.00110094
2.98375e-05
7.40393e-06
0.00106736
2.14345e-05
9.86985e-06
0.00104113
1.65398e-05
7.4148e-06
0.00101722
1.22232e-05
9.39728e-06
0.000998121
9.39736e-06
7.38602e-06
0.000980114
6.69119e-06
8.977e-06
0.000965292
5.13036e-06
7.32829e-06
0.000951015
3.2937e-06
8.59852e-06
0.000938228
3.13891e-06
7.24833e-06
0.000921296
6.25695e-06
8.26515e-06
0.00091585
-4.11051e-06
7.14237e-06
0.000811462
9.38172e-05
8.16253e-06
6.09574e-05
6.72161e-06
0.000741363
0.00386892
0.00092009
3.14216e-06
0.003822
0.000645996
-2.86392e-06
0.00367606
0.000524001
1.71868e-06
0.00352516
0.000346131
-2.80346e-06
0.00338818
0.000241669
1.05892e-06
0.00327574
0.000177723
-2.58972e-06
0.00317945
0.000135279
4.88354e-07
0.00310144
0.000108378
-2.51159e-06
0.00303317
8.78268e-05
-4.53441e-08
0.00297742
7.29218e-05
-2.5029e-06
0.00292738
6.0915e-05
-5.21216e-07
0.00288575
5.16441e-05
-2.53095e-06
0.00284808
4.33169e-05
-9.47883e-07
0.00281524
3.84771e-05
-2.58482e-06
0.00278819
2.95242e-05
-1.34762e-06
0.00276012
3.16357e-05
-2.65804e-06
0.00275055
1.53075e-05
-1.77466e-06
0.00272364
2.32405e-05
-2.7881e-06
0.00280585
1.16808e-05
-2.42581e-06
-3.79604e-05
-3.77118e-06
0.00290614
0.00408908
0.000522133
1.14962e-05
0.00433218
0.000394228
6.16004e-06
0.00448005
0.000362986
1.05691e-05
0.00455481
0.000262743
6.06941e-06
0.0045835
0.000200643
9.91412e-06
0.00459434
0.000158371
6.28831e-06
0.0045903
0.000127894
9.38347e-06
0.0045833
0.000107059
6.4003e-06
0.00457015
9.02871e-05
8.87512e-06
0.0045579
7.70258e-05
6.42518e-06
0.0045422
6.65727e-05
8.41276e-06
0.00452903
5.68394e-05
6.40363e-06
0.00451247
5.0292e-05
8.00179e-06
0.00450048
4.24414e-05
6.34994e-06
0.00448134
3.92032e-05
7.64092e-06
0.00447219
3.25511e-05
6.27158e-06
0.0044427
3.5336e-05
7.37237e-06
0.00443041
2.71257e-05
6.18003e-06
0.00437188
6.03757e-05
7.52235e-06
5.83019e-05
6.06302e-06
0.00426709
0.0040449
0.000176737
2.71405e-06
0.00430406
0.000135174
-2.60956e-06
0.00453524
0.000127501
1.72157e-06
0.00470341
9.47984e-05
-2.80415e-06
0.00482629
7.42964e-05
1.01696e-06
0.00492422
6.0842e-05
-2.63875e-06
0.00499855
5.10717e-05
4.46896e-07
0.00506164
4.45989e-05
-2.5502e-06
0.00511118
3.8999e-05
-7.86271e-08
0.00515421
3.47842e-05
-2.53404e-06
0.005189
3.07204e-05
-5.51632e-07
0.005219
2.78974e-05
-2.55871e-06
0.0052447
2.41351e-05
-9.78217e-07
0.00526511
2.31741e-05
-2.61067e-06
0.0052865
1.76196e-05
-1.3856e-06
0.00529965
2.03308e-05
-2.69247e-06
0.00532629
8.63843e-06
-1.85757e-06
0.00533957
1.46597e-05
-2.88878e-06
0.00540543
-4.89608e-06
-2.76181e-06
-2.25981e-05
-3.8416e-06
0.00548781
0.00404483
-0.000176737
1.12352e-05
0.00430641
-0.000135174
6.26277e-06
0.00454829
-0.000127501
1.05451e-05
0.00472924
-9.47971e-05
6.06163e-06
0.0048655
-7.42957e-05
9.88063e-06
0.00497868
-6.08388e-05
6.25125e-06
0.00506943
-5.10689e-05
9.34831e-06
0.00515033
-4.45919e-05
6.36731e-06
0.00521764
-3.89887e-05
8.84524e-06
0.00527903
-3.47671e-05
6.39714e-06
0.00533042
-3.06879e-05
8.38609e-06
0.00537829
-2.78462e-05
6.37833e-06
0.0054171
-2.4053e-05
7.9783e-06
0.00545552
-2.29924e-05
6.32741e-06
0.00548145
-1.74534e-05
7.62451e-06
0.00551354
-1.97046e-05
6.25168e-06
0.00552125
-8.30692e-06
7.38231e-06
0.00554066
-1.29413e-05
6.16266e-06
0.0055198
6.22647e-06
7.61843e-06
2.64763e-05
6.13551e-06
0.00546229
0.0040449
-0.000522133
2.71405e-06
0.00430406
-0.000394228
-2.60956e-06
0.00453524
-0.000362986
1.72157e-06
0.00470341
-0.000262742
-2.80415e-06
0.00482629
-0.000200642
1.01696e-06
0.00492422
-0.000158368
-2.63875e-06
0.00499855
-0.000127892
4.46897e-07
0.00506165
-0.000107052
-2.55021e-06
0.00511118
-9.02777e-05
-7.86265e-08
0.00515422
-7.7011e-05
-2.53405e-06
0.00518901
-6.65436e-05
-5.51634e-07
0.00521901
-5.67953e-05
-2.55872e-06
0.00524473
-5.02199e-05
-9.7823e-07
0.00526516
-4.2285e-05
-2.61071e-06
0.00528657
-3.90612e-05
-1.38566e-06
0.00529981
-3.20075e-05
-2.6926e-06
0.00532651
-3.506e-05
-1.85766e-06
0.00533995
-2.55805e-05
-2.88921e-06
0.00540601
-5.92515e-05
-2.76086e-06
-5.48871e-05
-3.84223e-06
0.00548887
0.00408908
-0.00092009
1.14962e-05
0.00433218
-0.000645996
6.16004e-06
0.00448005
-0.000524001
1.05691e-05
0.00455481
-0.000346131
6.06941e-06
0.0045835
-0.000241669
9.91412e-06
0.00459435
-0.000177721
6.28831e-06
0.00459031
-0.000135276
9.38347e-06
0.00458331
-0.000108373
6.4003e-06
0.00457015
-8.78196e-05
8.87512e-06
0.00455791
-7.29119e-05
6.42518e-06
0.00454222
-6.0894e-05
8.41276e-06
0.00452907
-5.16143e-05
6.40363e-06
0.00451253
-4.32676e-05
8.00178e-06
0.00450058
-3.8368e-05
6.34997e-06
0.0044815
-2.94346e-05
7.64087e-06
0.0044725
-3.12502e-05
6.27171e-06
0.00444313
-1.51577e-05
7.37228e-06
0.00443133
-2.21761e-05
6.18022e-06
0.00437331
-1.10766e-05
7.52177e-06
3.99761e-05
6.06243e-06
0.00426994
0.00386892
-0.00108989
3.14216e-06
0.003822
-0.000598719
-2.86392e-06
0.00367606
-0.00038233
1.71868e-06
0.00352516
-0.000194918
-2.80346e-06
0.00338818
-0.000108101
1.05892e-06
0.00327574
-6.48817e-05
-2.58972e-06
0.00317945
-4.15502e-05
4.88354e-07
0.00310144
-2.9836e-05
-2.51159e-06
0.00303318
-2.14311e-05
-4.53445e-08
0.00297744
-1.65366e-05
-2.50291e-06
0.0029274
-1.22138e-05
-5.21215e-07
0.00288579
-9.38787e-06
-2.53097e-06
0.00284815
-6.66919e-06
-9.47886e-07
0.00281539
-5.09563e-06
-2.58487e-06
0.00278839
-3.24955e-06
-1.34763e-06
0.00276057
-3.01308e-06
-2.65824e-06
0.00275105
-6.15693e-06
-1.77446e-06
0.00272486
4.47072e-06
-2.78892e-06
0.00280714
-9.33185e-05
-2.42369e-06
-6.0019e-05
-3.77374e-06
0.00290856
0.00259951
1.33796e-05
0.0019915
6.79223e-06
0.0015951
1.15852e-05
0.00139068
7.0652e-06
0.00126925
1.09446e-05
0.00119472
7.3151e-06
0.00114047
1.03967e-05
0.00110094
7.40396e-06
0.00106737
9.86988e-06
0.00104114
7.41484e-06
0.00101724
9.39729e-06
0.000998149
7.38608e-06
0.000980163
8.97699e-06
0.000965375
7.32839e-06
0.000951143
8.59842e-06
0.000938481
7.24857e-06
0.000921649
8.26486e-06
0.000916565
7.14284e-06
0.000812669
8.16191e-06
6.72178e-06
0.000743534
0.00338296
0.000328945
3.15635e-06
0.00281681
0.00056548
4.95386e-06
0.00232299
0.00050065
2.24439e-06
0.00196781
0.000356116
3.7059e-06
0.00173619
0.00023826
1.97353e-06
0.00158581
0.000152297
3.13957e-06
0.00148959
0.000102412
2.00211e-06
0.00141965
7.22593e-05
2.90041e-06
0.00137046
5.47941e-05
2.08937e-06
0.00132882
4.41392e-05
2.73018e-06
0.0012972
3.66483e-05
2.14855e-06
0.00126806
3.17048e-05
2.57439e-06
0.00124505
2.75123e-05
2.18157e-06
0.00122313
2.44939e-05
2.44271e-06
0.0012062
2.09853e-05
2.20898e-06
0.00118813
2.06151e-05
2.34491e-06
0.00118829
3.49977e-06
2.24147e-06
0.00116279
2.79978e-05
2.28638e-06
0.00131098
-0.00014454
2.16233e-06
-0.00012963
2.43592e-06
0.00144253
0.00382531
0.000200853
7.93216e-06
0.00389519
0.00048075
9.46511e-06
0.0038937
0.000493859
7.43417e-06
0.00382582
0.000410273
8.41666e-06
0.00374095
0.000314712
7.13679e-06
0.00364936
0.000231206
7.93157e-06
0.0035683
0.000174777
7.16215e-06
0.00349254
0.000135866
7.7231e-06
0.00342862
0.000109626
7.23342e-06
0.00336955
9.13844e-05
7.57016e-06
0.00331944
7.72309e-05
7.26334e-06
0.00327307
6.63134e-05
7.43173e-06
0.00323244
5.8031e-05
7.2656e-06
0.0031962
4.883e-05
7.31419e-06
0.0031601
4.63492e-05
7.26737e-06
0.00313445
3.41587e-05
7.22173e-06
0.00309031
3.62552e-05
7.30462e-06
0.00308061
2.53708e-05
7.17009e-06
0.00294372
-1.99501e-05
7.47768e-06
3.04389e-05
7.52827e-06
0.00276993
0.00381971
9.10877e-05
3.22345e-06
0.00402132
0.000277758
5.02529e-06
0.00420277
0.000317951
2.44646e-06
0.00432808
0.00028455
3.94221e-06
0.00441165
0.00023656
2.11438e-06
0.00445587
0.000187755
3.34036e-06
0.00448258
0.000153333
2.10954e-06
0.00449253
0.000127343
3.07224e-06
0.00449804
0.000109
2.2034e-06
0.00449603
9.52547e-05
2.90137e-06
0.00449402
8.38141e-05
2.28139e-06
0.00448721
7.52485e-05
2.75542e-06
0.00448272
6.66187e-05
2.33215e-06
0.00447256
6.10065e-05
2.63423e-06
0.00446977
5.25661e-05
2.36856e-06
0.00445529
5.03641e-05
2.54311e-06
0.00446268
3.17334e-05
2.37292e-06
0.00444894
4.05264e-05
2.4851e-06
0.00447683
-4.48304e-05
2.12682e-06
-3.06726e-05
2.50527e-06
0.00453893
0.00374625
4.17546e-05
7.79158e-06
0.00391825
9.1276e-05
9.35261e-06
0.00413168
9.62298e-05
7.4256e-06
0.00431451
8.79267e-05
8.44477e-06
0.00446901
7.35398e-05
7.15104e-06
0.00458447
5.95554e-05
7.93104e-06
0.00468001
4.90906e-05
7.14193e-06
0.00475381
4.1401e-05
7.69569e-06
0.00481791
3.58044e-05
7.2014e-06
0.00486984
3.15641e-05
7.53844e-06
0.00491617
2.81551e-05
7.23295e-06
0.00495508
2.49259e-05
7.4028e-06
0.004989
2.30495e-05
7.23987e-06
0.00501922
1.93527e-05
7.28846e-06
0.0050412
2.02726e-05
7.24808e-06
0.0050656
1.42108e-05
7.20148e-06
0.00506561
2.05725e-05
7.30667e-06
0.00507963
1.42797e-05
7.18649e-06
0.00500352
1.86491e-05
7.60392e-06
4.63459e-05
7.57738e-06
0.00491258
0.00379321
-4.17547e-05
3.20335e-06
0.00397449
-9.12756e-05
5.01926e-06
0.00417241
-9.623e-05
2.49855e-06
0.00434777
-8.79255e-05
3.99894e-06
0.00450018
-7.35397e-05
2.16172e-06
0.00461999
-5.95523e-05
3.3839e-06
0.00472337
-4.9089e-05
2.13812e-06
0.00480753
-4.13936e-05
3.09796e-06
0.00488394
-3.57962e-05
2.22407e-06
0.00494882
-3.15449e-05
2.92176e-06
0.00500963
-2.81279e-05
2.30219e-06
0.00506159
-2.48688e-05
2.77657e-06
0.00511184
-2.29774e-05
2.35519e-06
0.00515254
-1.9169e-05
2.65698e-06
0.00519651
-2.00937e-05
2.39066e-06
0.00522625
-1.36518e-05
2.56636e-06
0.00526994
-2.00628e-05
2.37852e-06
0.00529854
-1.27771e-05
2.51056e-06
0.0053374
-1.68762e-05
2.08155e-06
-4.26425e-05
2.50995e-06
0.00542757
0.00374625
-9.10878e-05
7.79158e-06
0.00391825
-0.000277757
9.35261e-06
0.00413168
-0.000317951
7.4256e-06
0.00431451
-0.000284549
8.44477e-06
0.00446901
-0.000236559
7.15104e-06
0.00458447
-0.000187752
7.93104e-06
0.00468001
-0.000153332
7.14193e-06
0.00475381
-0.000127336
7.69569e-06
0.00481791
-0.000108993
7.2014e-06
0.00486985
-9.5237e-05
7.53844e-06
0.00491617
-8.37896e-05
7.23295e-06
0.00495509
-7.51959e-05
7.4028e-06
0.00498902
-6.65549e-05
7.23988e-06
0.00501925
-6.08371e-05
7.28848e-06
0.00504126
-5.24118e-05
7.24808e-06
0.00506571
-4.9853e-05
7.20156e-06
0.00506579
-3.13032e-05
7.30662e-06
0.00507999
-3.91986e-05
7.18668e-06
0.00500414
4.6342e-05
7.60332e-06
3.38784e-05
7.57741e-06
0.0049137
0.00381971
-0.000200853
3.22345e-06
0.00402132
-0.000480749
5.02529e-06
0.00420277
-0.000493859
2.44646e-06
0.00432808
-0.000410272
3.94221e-06
0.00441165
-0.000314712
2.11438e-06
0.00445587
-0.000231204
3.34036e-06
0.00448258
-0.000174775
2.10954e-06
0.00449254
-0.000135862
3.07225e-06
0.00449805
-0.00010962
2.2034e-06
0.00449604
-9.13724e-05
2.90137e-06
0.00449403
-7.72105e-05
2.28139e-06
0.00448724
-6.62775e-05
2.75541e-06
0.00448276
-5.79798e-05
2.33216e-06
0.00447266
-4.87133e-05
2.63421e-06
0.0044699
-4.62284e-05
2.36858e-06
0.00445558
-3.38036e-05
2.54303e-06
0.00446306
-3.59173e-05
2.37287e-06
0.00444972
-2.4435e-05
2.48495e-06
0.00447795
2.11051e-05
2.1269e-06
-2.79604e-05
2.50481e-06
0.0045408
0.00382531
-0.000328945
7.93216e-06
0.00389519
-0.00056548
9.46511e-06
0.0038937
-0.00050065
7.43417e-06
0.00382582
-0.000356116
8.41666e-06
0.00374095
-0.00023826
7.13679e-06
0.00364936
-0.000152296
7.93157e-06
0.0035683
-0.000102411
7.16215e-06
0.00349255
-7.22573e-05
7.7231e-06
0.00342863
-5.47905e-05
7.23342e-06
0.00336957
-4.41339e-05
7.57017e-06
0.00331947
-3.66379e-05
7.26334e-06
0.00327311
-3.16886e-05
7.43174e-06
0.00323251
-2.7488e-05
7.26559e-06
0.00319633
-2.44381e-05
7.31424e-06
0.0031603
-2.0936e-05
7.26733e-06
0.00313483
-2.0438e-05
7.22187e-06
0.00309092
-3.3953e-06
7.30438e-06
0.0030817
-2.75335e-05
7.17049e-06
0.00294565
0.00014484
7.47622e-06
0.000130101
7.52922e-06
0.0027739
0.00338296
3.15635e-06
0.00281681
4.95386e-06
0.00232299
2.24439e-06
0.00196781
3.7059e-06
0.00173619
1.97353e-06
0.00158581
3.13957e-06
0.00148959
2.00211e-06
0.00141966
2.90041e-06
0.00137047
2.08937e-06
0.00132883
2.73017e-06
0.00129722
2.14856e-06
0.0012681
2.57437e-06
0.00124512
2.1816e-06
0.00122325
2.44268e-06
0.00120637
2.20902e-06
0.00118848
2.34489e-06
0.00118874
2.24145e-06
0.00116371
2.28623e-06
0.00131219
2.16241e-06
2.43508e-06
0.00144426
0.00356876
0.000138957
-3.15638e-06
0.0033143
0.000261839
-4.95389e-06
0.00300449
0.000311756
-2.24442e-06
0.00270129
0.000308173
-3.70593e-06
0.00242634
0.000276621
-1.97356e-06
0.00219771
0.000232765
-3.1396e-06
0.002013
0.00018668
-2.00214e-06
0.00187181
0.000144976
-2.90044e-06
0.0017634
0.000110558
-2.0894e-06
0.00168325
8.35152e-05
-2.73021e-06
0.00162199
6.34027e-05
-2.14858e-06
0.00157629
4.86613e-05
-2.57442e-06
0.00154078
3.7659e-05
-2.1816e-06
0.00151254
3.08907e-05
-2.44275e-06
0.00149175
2.29667e-05
-2.20901e-06
0.00147037
2.38266e-05
-2.34495e-06
0.00146265
9.95699e-06
-2.2415e-06
0.00144147
2.35226e-05
-2.28641e-06
0.00145751
-1.39056e-05
-2.16236e-06
-2.29034e-05
-2.43595e-06
0.00148306
0.00376676
8.94638e-05
-7.9322e-06
0.00385594
0.000189057
-9.46515e-06
0.00392354
0.000256438
-7.4342e-06
0.00396077
0.000285257
-8.4167e-06
0.0039645
0.000284844
-7.13683e-06
0.00394758
0.000263422
-7.93161e-06
0.00391418
0.000232442
-7.16219e-06
0.00387433
0.000198442
-7.72314e-06
0.00382966
0.00016798
-7.23346e-06
0.00378556
0.000141141
-7.5702e-06
0.00374149
0.000120396
-7.26338e-06
0.00370036
0.000102968
-7.43177e-06
0.0036607
9.00504e-05
-7.26564e-06
0.00362486
7.94202e-05
-7.31423e-06
0.00359047
6.97942e-05
-7.26741e-06
0.00356036
6.61519e-05
-7.22177e-06
0.00353127
5.12894e-05
-7.30466e-06
0.00350486
6.18222e-05
-7.17013e-06
0.00347933
2.40965e-05
-7.47772e-06
4.88402e-05
-7.52831e-06
0.00342016
0.00375301
4.43013e-05
-3.22348e-06
0.00384774
0.000101854
-5.02532e-06
0.00396099
0.000145483
-2.44649e-06
0.00408338
0.000168217
-3.94225e-06
0.00419615
0.000173967
-2.11441e-06
0.00429698
0.000167153
-3.34039e-06
0.00437898
0.000152682
-2.10957e-06
0.00444593
0.000135768
-3.07228e-06
0.00449751
0.000119067
-2.20344e-06
0.00453838
0.000104481
-2.9014e-06
0.00456981
9.20497e-05
-2.28143e-06
0.00459454
8.23106e-05
-2.75545e-06
0.00461421
7.3525e-05
-2.33219e-06
0.0046292
6.80226e-05
-2.63427e-06
0.00464216
5.97429e-05
-2.3686e-06
0.00465151
5.98898e-05
-2.54315e-06
0.0046602
4.52104e-05
-2.37296e-06
0.00466787
5.68051e-05
-2.48513e-06
0.00467108
2.26641e-05
-2.12686e-06
4.11243e-05
-2.50531e-06
0.0046811
0.00374166
1.96165e-05
-7.79162e-06
0.00382111
3.85903e-05
-9.35265e-06
0.00392707
5.17734e-05
-7.42563e-06
0.0040513
5.83454e-05
-8.44481e-06
0.00417671
6.05338e-05
-7.15108e-06
0.00429908
5.85288e-05
-7.93108e-06
0.00440941
5.46663e-05
-7.14197e-06
0.00450933
4.93548e-05
-7.69573e-06
0.00459647
4.45701e-05
-7.20144e-06
0.00467461
3.9811e-05
-7.53848e-06
0.00474338
3.62918e-05
-7.23299e-06
0.00480613
3.29682e-05
-7.40284e-06
0.00486206
3.06493e-05
-7.23991e-06
0.00491451
2.85689e-05
-7.2885e-06
0.0049605
2.65044e-05
-7.24812e-06
0.0050066
2.62893e-05
-7.20153e-06
0.00504223
2.21783e-05
-7.30672e-06
0.00508411
2.71196e-05
-7.18653e-06
0.00510319
1.64705e-05
-7.60396e-06
3.268e-05
-7.57743e-06
0.00512418
0.00374703
-1.96168e-05
-3.20339e-06
0.00383173
-3.85897e-05
-5.0193e-06
0.00393767
-5.1774e-05
-2.49858e-06
0.00405983
-5.83438e-05
-3.99898e-06
0.00418289
-6.05342e-05
-2.16175e-06
0.0043046
-5.85249e-05
-3.38393e-06
0.00441623
-5.46646e-05
-2.13815e-06
0.00451925
-4.93457e-05
-3.09799e-06
0.00461106
-4.45608e-05
-2.2241e-06
0.00469489
-3.97878e-05
-2.9218e-06
0.00477059
-3.62632e-05
-2.30222e-06
0.00484063
-3.28973e-05
-2.7766e-06
0.00490515
-3.05856e-05
-2.35523e-06
0.00496582
-2.83425e-05
-2.65701e-06
0.00502175
-2.63733e-05
-2.3907e-06
0.00507694
-2.56484e-05
-2.56639e-06
0.00512368
-2.18026e-05
-2.37856e-06
0.00517929
-2.5617e-05
-2.5106e-06
0.00521266
-1.5006e-05
-2.08159e-06
-2.97001e-05
-2.50999e-06
0.00527751
0.00374166
-4.43015e-05
-7.79162e-06
0.00382111
-0.000101854
-9.35265e-06
0.00392707
-0.000145483
-7.42563e-06
0.0040513
-0.000168215
-8.44481e-06
0.00417671
-0.000173968
-7.15108e-06
0.00429908
-0.000167149
-7.93108e-06
0.00440941
-0.000152681
-7.14197e-06
0.00450933
-0.00013576
-7.69573e-06
0.00459647
-0.000119058
-7.20144e-06
0.00467461
-0.000104459
-7.53848e-06
0.00474338
-9.20234e-05
-7.23299e-06
0.00480614
-8.22433e-05
-7.40284e-06
0.00486207
-7.34667e-05
-7.23992e-06
0.00491453
-6.78091e-05
-7.28852e-06
0.00496054
-5.96264e-05
-7.24812e-06
0.00500668
-5.92872e-05
-7.2016e-06
0.00504235
-4.48796e-05
-7.30666e-06
0.00508433
-5.54041e-05
-7.18672e-06
0.00510357
-2.13501e-05
-7.60336e-06
-3.8422e-05
-7.57745e-06
0.00512483
0.00375301
-8.94639e-05
-3.22348e-06
0.00384774
-0.000189057
-5.02532e-06
0.00396099
-0.000256438
-2.44649e-06
0.00408338
-0.000285256
-3.94225e-06
0.00419615
-0.000284844
-2.11442e-06
0.00429698
-0.000263419
-3.34039e-06
0.00437898
-0.000232441
-2.10957e-06
0.00444593
-0.000198434
-3.07228e-06
0.00449751
-0.000167972
-2.20344e-06
0.00453839
-0.000141123
-2.9014e-06
0.00456983
-0.000120374
-2.28143e-06
0.00459456
-0.000102913
-2.75545e-06
0.00461424
-9.0005e-05
-2.33219e-06
0.00462928
-7.92464e-05
-2.63424e-06
0.00464227
-6.97109e-05
-2.36861e-06
0.00465174
-6.56637e-05
-2.54306e-06
0.00466052
-5.10554e-05
-2.3729e-06
0.00466848
-6.07098e-05
-2.48498e-06
0.00467201
-2.3103e-05
-2.12694e-06
-4.67936e-05
-2.50484e-06
0.00468269
0.00376676
-0.000138957
-7.9322e-06
0.00385594
-0.000261839
-9.46515e-06
0.00392354
-0.000311756
-7.4342e-06
0.00396077
-0.000308173
-8.4167e-06
0.0039645
-0.000276621
-7.13683e-06
0.00394759
-0.000232764
-7.93161e-06
0.00391418
-0.000186678
-7.16219e-06
0.00387433
-0.000144973
-7.72314e-06
0.00382967
-0.000110553
-7.23346e-06
0.00378558
-8.35076e-05
-7.57021e-06
0.00374151
-6.33875e-05
-7.26338e-06
0.00370042
-4.8636e-05
-7.43179e-06
0.00366077
-3.76303e-05
-7.26563e-06
0.00362501
-3.08026e-05
-7.31428e-06
0.00359067
-2.29211e-05
-7.26737e-06
0.00356079
-2.35713e-05
-7.22191e-06
0.00353181
-9.8386e-06
-7.30442e-06
0.00350596
-2.2958e-05
-7.17053e-06
0.00348086
1.44423e-05
-7.47626e-06
2.3644e-05
-7.52925e-06
0.00342303
0.00356876
-3.15638e-06
0.0033143
-4.95389e-06
0.0030045
-2.24442e-06
0.0027013
-3.70593e-06
0.00242634
-1.97356e-06
0.00219772
-3.1396e-06
0.002013
-2.00214e-06
0.00187182
-2.90045e-06
0.00176341
-2.0894e-06
0.00168327
-2.73021e-06
0.00162203
-2.14859e-06
0.00157635
-2.57441e-06
0.00154087
-2.18164e-06
0.00151272
-2.44272e-06
0.00149197
-2.20905e-06
0.00147084
-2.34493e-06
0.00146325
-2.24149e-06
0.00144264
-2.28627e-06
0.00145919
-2.16244e-06
-2.43512e-06
0.00148556
0.00338296
0.000328945
-1.33796e-05
0.00281681
0.00056548
-6.79225e-06
0.00232299
0.00050065
-1.15852e-05
0.00196781
0.000356116
-7.06522e-06
0.00173619
0.00023826
-1.09446e-05
0.00158581
0.000152297
-7.31513e-06
0.00148959
0.000102412
-1.03967e-05
0.00141965
7.22593e-05
-7.40398e-06
0.00137046
5.47941e-05
-9.8699e-06
0.00132882
4.41392e-05
-7.41485e-06
0.0012972
3.66483e-05
-9.39733e-06
0.00126806
3.17048e-05
-7.38608e-06
0.00124505
2.75122e-05
-8.97705e-06
0.00122313
2.44939e-05
-7.32834e-06
0.0012062
2.09853e-05
-8.59857e-06
0.00118813
2.06151e-05
-7.24839e-06
0.00118829
3.4998e-06
-8.26521e-06
0.00116279
2.79979e-05
-7.14242e-06
0.00131098
-0.00014454
-8.16258e-06
-0.00012963
-6.72166e-06
0.00144253
0.00382531
0.000200853
-3.14219e-06
0.00389519
0.00048075
2.8639e-06
0.0038937
0.000493859
-1.7187e-06
0.00382582
0.000410273
2.80343e-06
0.00374095
0.000314712
-1.05894e-06
0.00364936
0.000231206
2.5897e-06
0.0035683
0.000174777
-4.88374e-07
0.00349254
0.000135866
2.51157e-06
0.00342862
0.000109626
4.53249e-08
0.00336955
9.13844e-05
2.50288e-06
0.00331944
7.72309e-05
5.21197e-07
0.00327307
6.63134e-05
2.53093e-06
0.00323244
5.80311e-05
9.47865e-07
0.0031962
4.88301e-05
2.5848e-06
0.0031601
4.63493e-05
1.3476e-06
0.00313445
3.41588e-05
2.65802e-06
0.00309031
3.62553e-05
1.77463e-06
0.00308061
2.53709e-05
2.78808e-06
0.00294372
-1.995e-05
2.42579e-06
3.0439e-05
3.77116e-06
0.00276993
0.00381971
9.10877e-05
-1.14963e-05
0.00402132
0.000277758
-6.16006e-06
0.00420277
0.000317951
-1.05691e-05
0.00432808
0.00028455
-6.06943e-06
0.00441165
0.00023656
-9.91414e-06
0.00445587
0.000187755
-6.28834e-06
0.00448258
0.000153333
-9.38349e-06
0.00449253
0.000127343
-6.40032e-06
0.00449804
0.000109
-8.87514e-06
0.00449603
9.52548e-05
-6.4252e-06
0.00449402
8.38142e-05
-8.41278e-06
0.00448721
7.52487e-05
-6.40365e-06
0.00448272
6.66189e-05
-8.00181e-06
0.00447256
6.10067e-05
-6.34996e-06
0.00446977
5.25664e-05
-7.64094e-06
0.00445529
5.03643e-05
-6.2716e-06
0.00446268
3.17335e-05
-7.37239e-06
0.00444894
4.05266e-05
-6.18006e-06
0.00447683
-4.48303e-05
-7.52237e-06
-3.06725e-05
-6.06304e-06
0.00453893
0.00374625
4.17546e-05
-2.71408e-06
0.00391825
9.1276e-05
2.60954e-06
0.00413168
9.62298e-05
-1.72159e-06
0.0043145
8.79267e-05
2.80413e-06
0.00446901
7.35398e-05
-1.01699e-06
0.00458447
5.95554e-05
2.63873e-06
0.00468001
4.90907e-05
-4.46919e-07
0.00475381
4.14011e-05
2.55018e-06
0.00481791
3.58045e-05
7.8604e-08
0.00486984
3.15642e-05
2.53402e-06
0.00491617
2.81552e-05
5.5161e-07
0.00495508
2.49261e-05
2.55869e-06
0.004989
2.30497e-05
9.78195e-07
0.00501922
1.9353e-05
2.61065e-06
0.0050412
2.0273e-05
1.38558e-06
0.0050656
1.42111e-05
2.69244e-06
0.00506561
2.05727e-05
1.85755e-06
0.00507963
1.42798e-05
2.88876e-06
0.00500352
1.86492e-05
2.76178e-06
4.63459e-05
3.84158e-06
0.00491258
0.00379321
-4.17547e-05
-1.12353e-05
0.00397449
-9.12756e-05
-6.26279e-06
0.00417241
-9.623e-05
-1.05451e-05
0.00434777
-8.79255e-05
-6.06165e-06
0.00450018
-7.35397e-05
-9.88065e-06
0.00461999
-5.95523e-05
-6.25128e-06
0.00472337
-4.90889e-05
-9.34834e-06
0.00480753
-4.13936e-05
-6.36733e-06
0.00488394
-3.57961e-05
-8.84527e-06
0.00494882
-3.15448e-05
-6.39717e-06
0.00500963
-2.81278e-05
-8.38611e-06
0.00506159
-2.48686e-05
-6.37835e-06
0.00511184
-2.29772e-05
-7.97832e-06
0.00515254
-1.91687e-05
-6.32743e-06
0.00519651
-2.00933e-05
-7.62453e-06
0.00522625
-1.36515e-05
-6.2517e-06
0.00526994
-2.00625e-05
-7.38234e-06
0.00529854
-1.2777e-05
-6.16269e-06
0.0053374
-1.68762e-05
-7.61845e-06
-4.26424e-05
-6.13554e-06
0.00542757
0.00374625
-9.10878e-05
-2.71408e-06
0.00391825
-0.000277757
2.60954e-06
0.00413168
-0.000317951
-1.72159e-06
0.00431451
-0.000284549
2.80413e-06
0.00446901
-0.000236559
-1.01699e-06
0.00458447
-0.000187752
2.63873e-06
0.00468001
-0.000153332
-4.4692e-07
0.00475381
-0.000127336
2.55018e-06
0.00481791
-0.000108993
7.86034e-08
0.00486985
-9.52369e-05
2.53402e-06
0.00491617
-8.37894e-05
5.51611e-07
0.00495509
-7.51957e-05
2.5587e-06
0.00498902
-6.65547e-05
9.78204e-07
0.00501925
-6.08369e-05
2.61068e-06
0.00504126
-5.24115e-05
1.38563e-06
0.00506571
-4.98528e-05
2.69257e-06
0.00506579
-3.1303e-05
1.85763e-06
0.00507999
-3.91985e-05
2.88919e-06
0.00500414
4.63421e-05
2.76083e-06
3.38785e-05
3.84221e-06
0.0049137
0.00381971
-0.000200853
-1.14963e-05
0.00402132
-0.000480749
-6.16006e-06
0.00420277
-0.000493859
-1.05691e-05
0.00432808
-0.000410272
-6.06943e-06
0.00441165
-0.000314712
-9.91414e-06
0.00445587
-0.000231204
-6.28834e-06
0.00448258
-0.000174775
-9.3835e-06
0.00449254
-0.000135862
-6.40032e-06
0.00449805
-0.00010962
-8.87514e-06
0.00449604
-9.13724e-05
-6.4252e-06
0.00449403
-7.72105e-05
-8.41278e-06
0.00448724
-6.62775e-05
-6.40365e-06
0.00448276
-5.79798e-05
-8.00181e-06
0.00447266
-4.87132e-05
-6.35e-06
0.0044699
-4.62283e-05
-7.6409e-06
0.00445558
-3.38034e-05
-6.27173e-06
0.00446306
-3.59172e-05
-7.3723e-06
0.00444972
-2.44348e-05
-6.18025e-06
0.00447795
2.11052e-05
-7.52179e-06
-2.79602e-05
-6.06245e-06
0.0045408
0.00382531
-0.000328945
-3.14219e-06
0.00389519
-0.00056548
2.8639e-06
0.0038937
-0.00050065
-1.7187e-06
0.00382582
-0.000356116
2.80344e-06
0.00374095
-0.00023826
-1.05894e-06
0.00364936
-0.000152296
2.5897e-06
0.0035683
-0.000102411
-4.88378e-07
0.00349255
-7.22573e-05
2.51157e-06
0.00342863
-5.47905e-05
4.53187e-08
0.00336957
-4.4134e-05
2.50288e-06
0.00331947
-3.6638e-05
5.21188e-07
0.00327311
-3.16887e-05
2.53094e-06
0.00323251
-2.74881e-05
9.47858e-07
0.00319633
-2.44381e-05
2.58484e-06
0.0031603
-2.09359e-05
1.3476e-06
0.00313483
-2.04379e-05
2.65822e-06
0.00309092
-3.39526e-06
1.77444e-06
0.0030817
-2.75334e-05
2.7889e-06
0.00294564
0.00014484
2.42367e-06
0.000130101
3.77372e-06
0.0027739
0.00338296
-1.33796e-05
0.00281681
-6.79222e-06
0.00232299
-1.15851e-05
0.00196781
-7.06519e-06
0.00173619
-1.09446e-05
0.00158581
-7.3151e-06
0.00148959
-1.03967e-05
0.00141966
-7.40396e-06
0.00137047
-9.86987e-06
0.00132883
-7.41483e-06
0.00129722
-9.39729e-06
0.0012681
-7.38607e-06
0.00124512
-8.97698e-06
0.00122325
-7.32839e-06
0.00120637
-8.59842e-06
0.00118848
-7.24857e-06
0.00118874
-8.26486e-06
0.00116371
-7.14284e-06
0.00131219
-8.16191e-06
-6.72177e-06
0.00144426
0.00259951
0.00108989
0.0019915
0.000598719
0.0015951
0.00038233
0.00139068
0.000194918
0.00126925
0.000108101
0.00119472
6.48822e-05
0.00114047
4.15511e-05
0.00110094
2.98372e-05
0.00106736
2.14341e-05
0.00104113
1.65395e-05
0.00101722
1.22229e-05
0.000998121
9.39707e-06
0.000980114
6.69094e-06
0.000965292
5.13015e-06
0.000951015
3.29353e-06
0.000938228
3.13877e-06
0.000921296
6.25683e-06
0.00091585
-4.1106e-06
0.000811462
9.38171e-05
6.09573e-05
0.000741363
0.00386892
0.00092009
0.003822
0.000645996
0.00367606
0.000524001
0.00352516
0.000346131
0.00338818
0.000241669
0.00327574
0.000177723
0.00317945
0.000135278
0.00310144
0.000108377
0.00303318
8.78263e-05
0.00297742
7.29213e-05
0.00292738
6.09145e-05
0.00288575
5.16437e-05
0.00284808
4.33165e-05
0.00281524
3.84768e-05
0.00278819
2.95239e-05
0.00276012
3.16355e-05
0.00275055
1.53073e-05
0.00272364
2.32404e-05
0.00280585
1.16806e-05
-3.79605e-05
0.00290614
0.00408908
0.000522133
0.00433218
0.000394228
0.00448005
0.000362986
0.00455481
0.000262743
0.0045835
0.000200642
0.00459434
0.000158371
0.0045903
0.000127894
0.0045833
0.000107058
0.00457015
9.02865e-05
0.0045579
7.70254e-05
0.0045422
6.65722e-05
0.00452903
5.6839e-05
0.00451247
5.02916e-05
0.00450048
4.2441e-05
0.00448134
3.92029e-05
0.00447219
3.25508e-05
0.0044427
3.53357e-05
0.00443041
2.71255e-05
0.00437188
6.03755e-05
5.83018e-05
0.00426708
0.0040449
0.000176737
0.00430406
0.000135174
0.00453524
0.000127501
0.00470341
9.47982e-05
0.00482629
7.4296e-05
0.00492422
6.08415e-05
0.00499855
5.10711e-05
0.00506164
4.45984e-05
0.00511118
3.89984e-05
0.00515421
3.47837e-05
0.005189
3.072e-05
0.005219
2.78969e-05
0.0052447
2.41347e-05
0.00526511
2.31738e-05
0.0052865
1.76193e-05
0.00529965
2.03305e-05
0.00532629
8.63815e-06
0.00533957
1.46595e-05
0.00540543
-4.89634e-06
-2.25982e-05
0.00548781
0.00404483
-0.000176737
0.00430641
-0.000135174
0.00454829
-0.000127501
0.00472924
-9.47973e-05
0.0048655
-7.4296e-05
0.00497868
-6.08393e-05
0.00506943
-5.10694e-05
0.00515033
-4.45924e-05
0.00521764
-3.89893e-05
0.00527903
-3.47676e-05
0.00533042
-3.06883e-05
0.00537829
-2.78466e-05
0.0054171
-2.40534e-05
0.00545552
-2.29928e-05
0.00548145
-1.74537e-05
0.00551354
-1.97049e-05
0.00552125
-8.30721e-06
0.00554066
-1.29415e-05
0.0055198
6.22622e-06
2.64761e-05
0.00546229
0.0040449
-0.000522133
0.00430406
-0.000394228
0.00453524
-0.000362986
0.00470341
-0.000262742
0.00482629
-0.000200642
0.00492422
-0.000158369
0.00499855
-0.000127892
0.00506165
-0.000107053
0.00511118
-9.02782e-05
0.00515422
-7.70115e-05
0.00518901
-6.65441e-05
0.00521901
-5.67957e-05
0.00524473
-5.02203e-05
0.00526516
-4.22853e-05
0.00528657
-3.90615e-05
0.00529981
-3.20078e-05
0.00532651
-3.50602e-05
0.00533995
-2.55807e-05
0.00540601
-5.92517e-05
-5.48871e-05
0.00548887
0.00408908
-0.00092009
0.00433218
-0.000645996
0.00448005
-0.000524001
0.00455481
-0.000346131
0.0045835
-0.000241669
0.00459435
-0.000177721
0.0045903
-0.000135277
0.00458331
-0.000108374
0.00457015
-8.782e-05
0.00455791
-7.29124e-05
0.00454222
-6.08944e-05
0.00452907
-5.16147e-05
0.00451253
-4.32679e-05
0.00450058
-3.83683e-05
0.0044815
-2.94349e-05
0.0044725
-3.12504e-05
0.00444313
-1.51578e-05
0.00443133
-2.21762e-05
0.00437331
-1.10767e-05
3.99761e-05
0.00426994
0.00386892
-0.00108989
0.003822
-0.000598719
0.00367606
-0.00038233
0.00352516
-0.000194918
0.00338818
-0.000108101
0.00327574
-6.48819e-05
0.00317945
-4.15505e-05
0.00310144
-2.98363e-05
0.00303318
-2.14314e-05
0.00297744
-1.65369e-05
0.0029274
-1.22141e-05
0.00288579
-9.38814e-06
0.00284815
-6.66941e-06
0.00281539
-5.09581e-06
0.00278839
-3.24969e-06
0.00276057
-3.01319e-06
0.00275105
-6.15701e-06
0.00272486
4.47065e-06
0.00280714
-9.33186e-05
-6.00191e-05
0.00290856
0.00259951
0.0019915
0.0015951
0.00139068
0.00126925
0.00119472
0.00114047
0.00110094
0.00106737
0.00104114
0.00101724
0.000998148
0.000980163
0.000965375
0.000951143
0.000938481
0.000921649
0.000916565
0.000812669
0.000743534
0.00087176
-0.000205916
6.84328e-05
0.00089496
-8.983e-05
6.03063e-05
0.000884097
-5.93971e-05
6.39416e-05
0.000876399
-5.64733e-05
5.74345e-05
0.000868474
-5.84578e-05
5.9309e-05
0.000862523
-5.59064e-05
5.48213e-05
0.000856607
-5.67096e-05
5.58966e-05
0.000851828
-5.44151e-05
5.277e-05
0.000847092
-5.4932e-05
5.3369e-05
0.000842974
-5.33613e-05
5.11626e-05
0.000838988
-5.38256e-05
5.14777e-05
0.000835398
-5.25535e-05
4.99063e-05
0.000832057
-5.27143e-05
5.00489e-05
0.000828981
-5.15288e-05
4.89156e-05
0.000826187
-5.15159e-05
4.89504e-05
0.000823522
-5.05244e-05
4.81227e-05
0.000821121
-5.05295e-05
4.80935e-05
0.00081874
-4.97733e-05
4.74845e-05
0.000816601
-4.9839e-05