/*--------------------------------*- C++ -*----------------------------------*\
  =========                 |
  \\      /  F ield         | OpenFOAM: The Open Source CFD Toolbox
   \\    /   O peration     | Website:  https://openfoam.org
    \\  /    A nd           | Version:  7
     \\/     M anipulation  |
\*---------------------------------------------------------------------------*/
FoamFile
{
    version     2.0;
    format      ascii;
    class       volVectorField;
    location    "0.1575";
    object      UMean;
}
// * * * * * * * * * * * * * * * * * * * * * * * * * * * * * * * * * * * * * //

dimensions      [0 1 -1 0 0 0 0];

internalField   nonuniform List<vector> 
4950
(
(3.59896 0.348583 -27.0416)
(3.14755 0.0958054 -27.0875)
(2.61763 0.0175339 -27.0966)
(2.60237 -0.0259619 -27.1077)
(2.43985 -0.0340901 -27.1101)
(2.52072 -0.0356821 -27.1157)
(2.418 -0.0365539 -27.1153)
(2.49181 -0.0364213 -27.1182)
(2.40419 -0.0369857 -27.117)
(2.46448 -0.0369023 -27.1187)
(2.38864 -0.0369422 -27.1176)
(2.43815 -0.037405 -27.1189)
(2.37269 -0.0359004 -27.1181)
(2.41314 -0.0384055 -27.1191)
(2.35636 -0.0316372 -27.1185)
(2.38894 -0.0405806 -27.1193)
(2.33697 -0.0142191 -27.1191)
(2.35809 -0.0417246 -27.1188)
(2.30945 0.065339 -27.1212)
(2.18967 0.119136 -27.1045)
(4.5634 0.45329 -27.066)
(4.76185 0.247808 -27.1091)
(4.51937 0.154653 -27.1207)
(4.59316 0.0714772 -27.1384)
(4.41507 0.0368694 -27.1482)
(4.51415 0.0239246 -27.1612)
(4.38324 0.0208255 -27.1664)
(4.47264 0.0213936 -27.1728)
(4.3606 0.0216017 -27.1734)
(4.43399 0.0225405 -27.176)
(4.336 0.0220411 -27.1753)
(4.39675 0.0232216 -27.1767)
(4.31052 0.0212625 -27.1762)
(4.36249 0.024462 -27.1771)
(4.2835 0.0173909 -27.1769)
(4.33571 0.0280775 -27.1772)
(4.24863 0.00333382 -27.178)
(4.34002 0.032622 -27.1759)
(4.18036 -0.0276253 -27.1812)
(4.49529 -0.00949262 -27.1545)
(4.67111 0.232521 -27.068)
(5.06008 0.125995 -27.1055)
(5.02578 0.08498 -27.1127)
(5.19506 0.0246841 -27.1285)
(5.05262 -0.00211661 -27.138)
(5.15387 -0.0148954 -27.1534)
(5.01988 -0.0187788 -27.1616)
(5.103 -0.0196005 -27.1715)
(4.98827 -0.0196649 -27.174)
(5.05755 -0.0196552 -27.1781)
(4.9588 -0.0194475 -27.1777)
(5.01497 -0.0198766 -27.1797)
(4.93045 -0.0188074 -27.1789)
(4.97296 -0.0202988 -27.1804)
(4.90437 -0.0166003 -27.1799)
(4.92605 -0.0196569 -27.1809)
(4.88423 -0.0093398 -27.1809)
(4.85448 -0.00713275 -27.1808)
(4.86468 0.0182935 -27.1823)
(4.71819 0.0970766 -27.1648)
(4.64805 0.139447 -27.0753)
(4.99215 0.0857213 -27.1142)
(5.02579 0.0658495 -27.1222)
(5.23628 0.0332221 -27.1375)
(5.12632 0.0176496 -27.1474)
(5.24047 0.0102169 -27.1629)
(5.11302 0.00775121 -27.172)
(5.19795 0.00727161 -27.1823)
(5.08473 0.00711888 -27.1857)
(5.15454 0.00733361 -27.1898)
(5.05534 0.00713768 -27.19)
(5.11343 0.00753219 -27.1916)
(5.02511 0.00682754 -27.1913)
(5.07598 0.00800893 -27.1922)
(4.9938 0.00530057 -27.1921)
(5.04659 0.00957168 -27.1926)
(4.96429 -0.0003325 -27.1926)
(5.0405 0.0120165 -27.1927)
(4.97109 -0.0103602 -27.193)
(5.12282 0.00750654 -27.1761)
(4.6486 -8.90714e-08 -27.0713)
(4.99221 -8.27108e-08 -27.1075)
(5.03097 -1.02288e-07 -27.1136)
(5.24689 -1.04707e-07 -27.1282)
(5.13738 -1.06341e-07 -27.1371)
(5.25204 4.88344e-08 -27.1525)
(5.12468 1.57405e-07 -27.1612)
(5.20898 2.15537e-07 -27.1718)
(5.09544 3.85607e-07 -27.1751)
(5.16398 6.25024e-07 -27.1796)
(5.06559 8.27005e-07 -27.1794)
(5.12075 2.26543e-06 -27.1815)
(5.03659 1.7741e-06 -27.1808)
(5.07765 1.11697e-05 -27.1822)
(5.01031 1.75189e-06 -27.1817)
(5.02778 6.03543e-05 -27.1829)
(4.99267 -4.44034e-06 -27.1823)
(4.94637 0.000293669 -27.1835)
(4.98768 7.03039e-05 -27.1827)
(4.79865 0.000729492 -27.169)
(4.64805 -0.139447 -27.0753)
(4.99215 -0.0857215 -27.1142)
(5.02579 -0.0658498 -27.1222)
(5.23628 -0.0332222 -27.1375)
(5.12632 -0.0176497 -27.1474)
(5.24047 -0.0102167 -27.1629)
(5.11302 -0.00775093 -27.172)
(5.19795 -0.0072712 -27.1823)
(5.08473 -0.00711824 -27.1857)
(5.15454 -0.00733239 -27.1898)
(5.05534 -0.0071357 -27.19)
(5.11343 -0.00752887 -27.1916)
(5.02511 -0.0068217 -27.1913)
(5.07599 -0.00799199 -27.1922)
(4.99381 -0.00528134 -27.192)
(5.0466 -0.00949684 -27.1927)
(4.96438 0.000398004 -27.1925)
(5.04054 -0.0117346 -27.1929)
(4.97128 0.0107009 -27.1926)
(5.12316 -0.00644487 -27.1768)
(4.67111 -0.232522 -27.068)
(5.06008 -0.125995 -27.1055)
(5.02578 -0.0849803 -27.1127)
(5.19506 -0.0246843 -27.1285)
(5.05262 0.00211648 -27.138)
(5.15387 0.0148956 -27.1534)
(5.01988 0.0187791 -27.1616)
(5.103 0.0196009 -27.1715)
(4.98828 0.0196656 -27.174)
(5.05755 0.0196564 -27.1781)
(4.9588 0.0194491 -27.1777)
(5.01497 0.0198798 -27.1797)
(4.93046 0.0188112 -27.1789)
(4.97297 0.0203156 -27.1804)
(4.90439 0.0166053 -27.1798)
(4.92609 0.0197476 -27.1811)
(4.88429 0.00933111 -27.1804)
(4.85466 0.0075439 -27.1818)
(4.865 -0.0182442 -27.1804)
(4.7191 -0.0957031 -27.1681)
(4.5634 -0.45329 -27.066)
(4.76185 -0.247808 -27.1091)
(4.51937 -0.154653 -27.1207)
(4.59316 -0.0714774 -27.1384)
(4.41507 -0.0368694 -27.1482)
(4.51415 -0.0239245 -27.1612)
(4.38324 -0.0208253 -27.1664)
(4.47264 -0.0213933 -27.1728)
(4.3606 -0.0216012 -27.1734)
(4.43399 -0.0225399 -27.176)
(4.336 -0.02204 -27.1753)
(4.39675 -0.0232197 -27.1767)
(4.31052 -0.0212587 -27.1762)
(4.3625 -0.0244543 -27.1771)
(4.28354 -0.0173773 -27.1768)
(4.33577 -0.0280383 -27.1775)
(4.24882 -0.00328288 -27.1771)
(4.34025 -0.0324118 -27.1781)
(4.18097 0.0278265 -27.1762)
(4.49682 0.0101345 -27.1649)
(3.59896 -0.348583 -27.0416)
(3.14755 -0.0958057 -27.0875)
(2.61763 -0.0175341 -27.0966)
(2.60237 0.0259619 -27.1077)
(2.43985 0.0340902 -27.1101)
(2.52072 0.0356823 -27.1157)
(2.418 0.0365541 -27.1153)
(2.49181 0.0364216 -27.1182)
(2.40419 0.0369861 -27.117)
(2.46448 0.0369027 -27.1187)
(2.38864 0.0369429 -27.1176)
(2.43816 0.0374058 -27.1189)
(2.3727 0.0359023 -27.1181)
(2.41316 0.0384084 -27.1191)
(2.35639 0.0316437 -27.1185)
(2.38901 0.0405893 -27.1194)
(2.33711 0.0142258 -27.1188)
(2.35834 0.0417564 -27.1197)
(2.3101 -0.0653685 -27.1185)
(2.19099 -0.118632 -27.1148)
(4.50097 0.134331 0.00565284)
(3.98284 0.196597 0.0042316)
(3.60496 0.149702 0.00490603)
(3.37805 0.0937003 0.00400045)
(3.2891 0.0644238 0.00459392)
(3.25243 0.0494273 0.00385115)
(3.23754 0.0438229 0.00434244)
(3.23303 0.0409286 0.00370608)
(3.21907 0.0399526 0.00410786)
(3.21873 0.0391522 0.0035644)
(3.20124 0.0385508 0.00389157)
(3.20288 0.0388099 0.00342898)
(3.18349 0.0370497 0.00369341)
(3.18638 0.0397444 0.00330046)
(3.16552 0.0318868 0.00351284)
(3.1722 0.0441086 0.00317937)
(3.14047 0.00855927 0.00335123)
(3.19211 0.0540316 0.00306657)
(3.05579 -0.0978436 0.00323291)
(3.45458 -0.112715 0.00292825)
(4.56141 0.0668649 0.00390072)
(4.61956 0.139176 0.00276273)
(4.66832 0.0831516 0.00339021)
(4.63919 0.0272993 0.00249198)
(4.62322 -0.0108331 0.00307962)
(4.60511 -0.0270053 0.00233533)
(4.59255 -0.0315565 0.00282696)
(4.58874 -0.0313287 0.0021899)
(4.57301 -0.0304043 0.00259258)
(4.57276 -0.0296177 0.00204842)
(4.55301 -0.0289234 0.00237608)
(4.5539 -0.0292396 0.00191336)
(4.53271 -0.0276217 0.00217697)
(4.53217 -0.0301212 0.00178555)
(4.5136 -0.0237134 0.00199271)
(4.50383 -0.0316406 0.00166551)
(4.49914 -0.012644 0.0018158)
(4.44815 -0.0183314 0.00154965)
(4.49162 0.00548007 0.00161415)
(4.23237 0.110061 0.0013724)
(4.51206 0.0436762 0.00509796)
(4.66841 0.125679 0.00403495)
(4.80825 0.116063 0.00463656)
(4.86018 0.0802277 0.00373552)
(4.88058 0.0510006 0.00431847)
(4.87387 0.0329903 0.00357367)
(4.85842 0.0251891 0.00406589)
(4.85078 0.0217619 0.00342901)
(4.83088 0.0206534 0.00383236)
(4.82926 0.0201599 0.00328795)
(4.80732 0.0197742 0.00361627)
(4.80903 0.0199617 0.00315238)
(4.7845 0.0188969 0.00341829)
(4.78985 0.0204411 0.00302345)
(4.75986 0.015729 0.00323952)
(4.7768 0.0227247 0.00290198)
(4.73077 0.00093124 0.00308704)
(4.7872 0.0276137 0.00279234)
(4.72252 -0.051204 0.00300553)
(4.8486 -0.0143596 0.00271495)
(4.47874 0.0180815 0.00374535)
(4.57257 0.044363 0.00279085)
(4.73127 0.0313846 0.00337575)
(4.81232 0.0151574 0.00248672)
(4.86438 0.00128649 0.00306198)
(4.87795 -0.00605927 0.00231524)
(4.87613 -0.00922322 0.00280503)
(4.8758 -0.0100067 0.0021682)
(4.86013 -0.0100105 0.00257114)
(4.86001 -0.00984876 0.00202734)
(4.83971 -0.00962412 0.00235507)
(4.84022 -0.00974748 0.00189251)
(4.81877 -0.00916061 0.0021557)
(4.81683 -0.00999712 0.00176461)
(4.79904 -0.00786314 0.00196995)
(4.78356 -0.00993718 0.00164344)
(4.78507 -0.00453666 0.00178604)
(4.70597 -0.00214979 0.00152026)
(4.77998 8.75654e-05 0.00154736)
(4.47319 0.0409031 0.00132993)
(4.50397 5.70311e-08 0.00501435)
(4.63847 3.77311e-08 0.00405811)
(4.78031 1.00771e-07 0.00463789)
(4.85512 3.39491e-08 0.00374195)
(4.8963 3.5736e-08 0.00431828)
(4.90295 7.07367e-08 0.00357158)
(4.89384 1.03296e-07 0.00406272)
(4.8888 5.86237e-08 0.00342562)
(4.86949 1.3703e-07 0.00382915)
(4.86804 4.02994e-07 0.00328477)
(4.84588 5.22984e-07 0.0036133)
(4.8477 1.46462e-06 0.00314933)
(4.8228 1.90821e-06 0.0034155)
(4.82866 7.38024e-06 0.00302044)
(4.7982 8.7122e-06 0.00323736)
(4.81578 2.5811e-05 0.00289924)
(4.77337 4.92467e-05 0.00308791)
(4.82124 9.11065e-05 0.00279099)
(4.78974 0.000250732 0.00301567)
(4.8603 0.000396936 0.00271936)
(4.47874 -0.0180816 0.00374535)
(4.57257 -0.0443629 0.00279085)
(4.73127 -0.0313846 0.00337575)
(4.81232 -0.0151573 0.00248672)
(4.86438 -0.00128645 0.00306198)
(4.87795 0.00605953 0.00231524)
(4.87613 0.00922354 0.00280503)
(4.8758 0.010007 0.0021682)
(4.86013 0.0100109 0.00257114)
(4.86001 0.00984957 0.00202734)
(4.83971 0.009625 0.00235507)
(4.84023 0.00975114 0.00189251)
(4.81877 0.00916247 0.0021557)
(4.81683 0.010018 0.00176461)
(4.79905 0.00786487 0.00196994)
(4.78358 0.0100449 0.00164344)
(4.7851 0.00454269 0.001786)
(4.70604 0.00257657 0.00152023)
(4.78009 0.000124481 0.00154734)
(4.47349 -0.0395978 0.00132975)
(4.51206 -0.0436761 0.00509796)
(4.66841 -0.125679 0.00403495)
(4.80825 -0.116063 0.00463656)
(4.86018 -0.0802276 0.00373552)
(4.88058 -0.0510005 0.00431848)
(4.87387 -0.0329901 0.00357367)
(4.85842 -0.0251889 0.00406589)
(4.85078 -0.0217619 0.00342901)
(4.83088 -0.0206532 0.00383236)
(4.82926 -0.0201593 0.00328795)
(4.80732 -0.0197732 0.00361626)
(4.80903 -0.0199595 0.00315238)
(4.78451 -0.0188937 0.00341828)
(4.78985 -0.0204286 0.00302345)
(4.75989 -0.015715 0.00323949)
(4.77682 -0.0226701 0.00290201)
(4.73087 -0.00085537 0.00308693)
(4.78733 -0.0274059 0.00279249)
(4.7228 0.0516636 0.00300515)
(4.84932 0.0152103 0.00271514)
(4.56141 -0.0668648 0.00390072)
(4.61956 -0.139176 0.00276273)
(4.66832 -0.0831515 0.00339021)
(4.63919 -0.0272993 0.00249198)
(4.62322 0.0108331 0.00307962)
(4.60511 0.0270054 0.00233533)
(4.59255 0.0315567 0.00282696)
(4.58874 0.0313289 0.0021899)
(4.57301 0.0304046 0.00259258)
(4.57276 0.0296181 0.00204842)
(4.55301 0.0289242 0.00237608)
(4.5539 0.0292414 0.00191335)
(4.53271 0.0276237 0.00217696)
(4.53218 0.0301315 0.00178555)
(4.51361 0.0237158 0.00199269)
(4.50392 0.0316965 0.00166551)
(4.49917 0.0126415 0.00181571)
(4.44861 0.0185884 0.00154965)
(4.49165 -0.00539613 0.00161388)
(4.23454 -0.109074 0.00137222)
(4.50097 -0.134331 0.00565284)
(3.98284 -0.196597 0.0042316)
(3.60496 -0.149702 0.00490603)
(3.37805 -0.0937002 0.00400045)
(3.2891 -0.0644238 0.00459392)
(3.25243 -0.0494272 0.00385115)
(3.23754 -0.0438229 0.00434245)
(3.23303 -0.0409285 0.00370608)
(3.21907 -0.0399526 0.00410786)
(3.21873 -0.0391523 0.0035644)
(3.20124 -0.0385506 0.00389157)
(3.20288 -0.0388092 0.00342897)
(3.1835 -0.0370489 0.00369342)
(3.18639 -0.0397406 0.00330044)
(3.16556 -0.0318837 0.00351284)
(3.17224 -0.0440813 0.00317933)
(3.14065 -0.0085467 0.00335119)
(3.19236 -0.0539549 0.00306665)
(3.05628 0.0979538 0.00323213)
(3.45701 0.112752 0.00293)
(4.42397 0.0403429 -5.11919e-08)
(4.36145 0.0486061 -5.12648e-08)
(4.16386 0.0356388 -5.16093e-08)
(4.13328 0.0170669 -5.19957e-08)
(4.03727 0.00272872 -5.22443e-08)
(4.06916 -0.00387272 -5.20673e-08)
(4.02347 -0.00739558 -5.20407e-08)
(4.06475 -0.00783944 -5.17848e-08)
(4.03155 -0.00868378 -5.19817e-08)
(4.06724 -0.0083398 -5.18446e-08)
(4.03951 -0.00889903 -5.22054e-08)
(4.06958 -0.00840104 -5.20751e-08)
(4.04608 -0.00912942 -5.24888e-08)
(4.07186 -0.00811916 -5.23398e-08)
(4.05089 -0.0100506 -5.27695e-08)
(4.07637 -0.00682652 -5.261e-08)
(4.04774 -0.0139484 -5.30713e-08)
(4.0971 -0.00226319 -5.29178e-08)
(4.00219 -0.0268038 -5.34747e-08)
(4.16972 0.00219995 -5.31317e-08)
(4.48349 0.0397676 -5.09526e-08)
(4.61189 0.052649 -5.12433e-08)
(4.58426 0.0475233 -5.15332e-08)
(4.66302 0.0325621 -5.15122e-08)
(4.61554 0.0189773 -5.12983e-08)
(4.66913 0.0102198 -5.0959e-08)
(4.62722 0.00650189 -5.10841e-08)
(4.67254 0.00502457 -5.11268e-08)
(4.63855 0.00499703 -5.16024e-08)
(4.67696 0.00486971 -5.16525e-08)
(4.64857 0.0051597 -5.20978e-08)
(4.68089 0.0049441 -5.20068e-08)
(4.65718 0.00532797 -5.24316e-08)
(4.68421 0.00493728 -5.22726e-08)
(4.66489 0.00534646 -5.27575e-08)
(4.68678 0.00638996 -5.25108e-08)
(4.67163 0.00305753 -5.31157e-08)
(4.68853 0.0176514 -5.27933e-08)
(4.67462 -0.00408574 -5.35317e-08)
(4.68069 0.0613766 -5.30326e-08)
(4.47545 0.0137556 -5.09725e-08)
(4.60237 0.0237787 -5.12724e-08)
(4.58698 0.0240816 -5.15816e-08)
(4.68578 0.0164465 -5.15518e-08)
(4.65271 0.00753353 -5.12796e-08)
(4.71443 0.00164272 -5.08863e-08)
(4.67513 -0.00203838 -5.10672e-08)
(4.72109 -0.00329394 -5.12519e-08)
(4.68669 -0.00414641 -5.18611e-08)
(4.72503 -0.00410356 -5.19959e-08)
(4.69629 -0.00442959 -5.24773e-08)
(4.72895 -0.00416886 -5.24084e-08)
(4.70463 -0.00458909 -5.28316e-08)
(4.73295 -0.00394687 -5.2697e-08)
(4.71183 -0.00534257 -5.31624e-08)
(4.73698 -0.00257199 -5.29393e-08)
(4.72031 -0.00899256 -5.34914e-08)
(4.73714 0.00322987 -5.32257e-08)
(4.74649 -0.0181339 -5.38776e-08)
(4.721 0.0170319 -5.35791e-08)
(4.47304 0.0118427 -5.09691e-08)
(4.58676 0.0164216 -5.12485e-08)
(4.57029 0.0159704 -5.1444e-08)
(4.67146 0.0116829 -5.14404e-08)
(4.64414 0.00732093 -5.13888e-08)
(4.71074 0.00416154 -5.12729e-08)
(4.67505 0.00258913 -5.15543e-08)
(4.72303 0.00185694 -5.16602e-08)
(4.68972 0.00171695 -5.21115e-08)
(4.72846 0.00162347 -5.21208e-08)
(4.70007 0.00170301 -5.25219e-08)
(4.73245 0.00163231 -5.25142e-08)
(4.7088 0.00174879 -5.29876e-08)
(4.7356 0.00167119 -5.31721e-08)
(4.71704 0.00169441 -5.39085e-08)
(4.73644 0.00238595 -5.31593e-08)
(4.72813 0.000751368 -5.34969e-08)
(4.72741 0.00694723 -5.36577e-08)
(4.7542 -0.000825737 -5.39843e-08)
(4.69431 0.0230043 -5.35614e-08)
(4.47378 6.62586e-09 -5.10279e-08)
(4.59271 2.00843e-08 -5.12652e-08)
(4.57611 4.64305e-09 -5.14298e-08)
(4.67742 6.71344e-09 -5.14573e-08)
(4.64875 -1.70632e-08 -5.15007e-08)
(4.71433 3.30763e-08 -5.14946e-08)
(4.67743 3.1451e-08 -5.18141e-08)
(4.72457 4.707e-08 -5.18898e-08)
(4.69061 4.91339e-09 -5.22519e-08)
(4.72908 3.90157e-07 -5.21821e-08)
(4.70035 -7.24963e-08 -5.25249e-08)
(4.73302 1.72881e-06 -5.2393e-08)
(4.70869 -6.15339e-07 -5.27774e-08)
(4.73695 8.55181e-06 -5.26901e-08)
(4.71619 -1.15413e-06 -5.32076e-08)
(4.74043 3.38419e-05 -5.2923e-08)
(4.72669 1.30842e-05 -5.3208e-08)
(4.73847 0.000116074 -5.31718e-08)
(4.76093 0.000148503 -5.3742e-08)
(4.72593 0.00035749 -5.35283e-08)
(4.47304 -0.0118428 -5.102e-08)
(4.58676 -0.0164215 -5.12397e-08)
(4.57029 -0.0159703 -5.13728e-08)
(4.67146 -0.0116829 -5.1452e-08)
(4.64414 -0.00732097 -5.16022e-08)
(4.71074 -0.00416147 -5.17101e-08)
(4.67505 -0.00258907 -5.20521e-08)
(4.72303 -0.00185685 -5.20692e-08)
(4.68972 -0.00171697 -5.23272e-08)
(4.72846 -0.00162267 -5.21639e-08)
(4.70007 -0.00170331 -5.24513e-08)
(4.73245 -0.00162866 -5.22861e-08)
(4.7088 -0.00175092 -5.26681e-08)
(4.73559 -0.00165299 -5.25209e-08)
(4.71705 -0.00170092 -5.29654e-08)
(4.73645 -0.00231215 -5.2777e-08)
(4.72816 -0.000742614 -5.32209e-08)
(4.72745 -0.00669147 -5.30672e-08)
(4.75429 0.00107413 -5.36141e-08)
(4.69456 -0.0222223 -5.33718e-08)
(4.47545 -0.0137556 -5.1075e-08)
(4.60237 -0.0237786 -5.12321e-08)
(4.58698 -0.0240815 -5.12699e-08)
(4.68578 -0.0164465 -5.13921e-08)
(4.65271 -0.00753354 -5.17808e-08)
(4.71443 -0.00164266 -5.21549e-08)
(4.67513 0.00203845 -5.25724e-08)
(4.72109 0.00329402 -5.2497e-08)
(4.68669 0.00414643 -5.25924e-08)
(4.72503 0.00410414 -5.23211e-08)
(4.69629 0.00442951 -5.2539e-08)
(4.72895 0.00417158 -5.2353e-08)
(4.70464 0.004588 -5.27278e-08)
(4.73295 0.00396107 -5.28074e-08)
(4.71185 0.00533885 -5.34667e-08)
(4.73698 0.00263077 -5.28157e-08)
(4.72038 0.00900424 -5.26717e-08)
(4.73722 -0.00302213 -5.294e-08)
(4.74669 0.0183571 -5.36322e-08)
(4.72152 -0.0163678 -5.33877e-08)
(4.48349 -0.0397677 -5.1034e-08)
(4.61189 -0.052649 -5.11872e-08)
(4.58426 -0.0475232 -5.12564e-08)
(4.66302 -0.0325621 -5.14675e-08)
(4.61554 -0.0189773 -5.18819e-08)
(4.66913 -0.0102197 -5.21777e-08)
(4.62722 -0.00650182 -5.25396e-08)
(4.67254 -0.0050245 -5.25012e-08)
(4.63855 -0.00499701 -5.27006e-08)
(4.67696 -0.00486932 -5.25217e-08)
(4.64857 -0.0051598 -5.28033e-08)
(4.68089 -0.00494204 -5.26447e-08)
(4.65718 -0.00532944 -5.30273e-08)
(4.68422 -0.00492555 -5.28746e-08)
(4.66491 -0.005354 -5.33136e-08)
(4.68681 -0.00633708 -5.31129e-08)
(4.67168 -0.00307246 -5.35881e-08)
(4.68876 -0.0174567 -5.33983e-08)
(4.67473 0.00419232 -5.39565e-08)
(4.6818 -0.0607285 -5.37336e-08)
(4.42397 -0.0403429 -5.08819e-08)
(4.36145 -0.0486061 -5.1187e-08)
(4.16386 -0.0356388 -5.1256e-08)
(4.13328 -0.0170669 -5.11113e-08)
(4.03727 -0.00272872 -5.10709e-08)
(4.06916 0.00387275 -5.11699e-08)
(4.02347 0.00739561 -5.16459e-08)
(4.06475 0.00783946 -5.18905e-08)
(4.03155 0.00868377 -5.23507e-08)
(4.06724 0.00833995 -5.23555e-08)
(4.03951 0.00889896 -5.27193e-08)
(4.06958 0.0084019 -5.26122e-08)
(4.04608 0.00912854 -5.30056e-08)
(4.07187 0.00812417 -5.28573e-08)
(4.05091 0.0100465 -5.32977e-08)
(4.07644 0.00685113 -5.31202e-08)
(4.04772 0.0139372 -5.3591e-08)
(4.09765 0.00235753 -5.34357e-08)
(4.00177 0.0268467 -5.3961e-08)
(4.17294 -0.00187238 -5.38314e-08)
(4.50097 0.134331 -0.00565292)
(3.98284 0.196597 -0.00423168)
(3.60496 0.149702 -0.00490612)
(3.37805 0.0937003 -0.00400053)
(3.2891 0.0644238 -0.00459401)
(3.25243 0.0494273 -0.00385124)
(3.23754 0.0438229 -0.00434253)
(3.23303 0.0409286 -0.00370617)
(3.21907 0.0399526 -0.00410795)
(3.21872 0.0391522 -0.00356449)
(3.20124 0.0385508 -0.00389166)
(3.20288 0.0388099 -0.00342907)
(3.18349 0.0370498 -0.00369351)
(3.18638 0.0397444 -0.00330055)
(3.16551 0.0318868 -0.00351293)
(3.1722 0.0441086 -0.00317946)
(3.14047 0.00855929 -0.00335132)
(3.19211 0.0540316 -0.00306666)
(3.05579 -0.0978437 -0.003233)
(3.45458 -0.112715 -0.00292834)
(4.56141 0.0668649 -0.00390081)
(4.61956 0.139176 -0.00276281)
(4.66832 0.0831516 -0.0033903)
(4.63919 0.0272993 -0.00249207)
(4.62322 -0.0108331 -0.00307971)
(4.60511 -0.0270054 -0.00233542)
(4.59255 -0.0315566 -0.00282705)
(4.58874 -0.0313288 -0.00218998)
(4.57301 -0.0304044 -0.00259267)
(4.57276 -0.0296178 -0.00204851)
(4.55301 -0.0289236 -0.00237617)
(4.55389 -0.0292398 -0.00191345)
(4.53271 -0.0276218 -0.00217706)
(4.53216 -0.0301214 -0.00178564)
(4.5136 -0.0237136 -0.0019928)
(4.50383 -0.0316407 -0.0016656)
(4.49914 -0.0126441 -0.00181589)
(4.44815 -0.0183315 -0.00154974)
(4.49162 0.00547999 -0.00161425)
(4.23236 0.110061 -0.00137249)
(4.51206 0.0436762 -0.00509805)
(4.66841 0.125679 -0.00403504)
(4.80825 0.116063 -0.00463665)
(4.86018 0.0802276 -0.00373561)
(4.88058 0.0510005 -0.00431856)
(4.87387 0.0329902 -0.00357376)
(4.85842 0.025189 -0.00406598)
(4.85078 0.0217619 -0.0034291)
(4.83088 0.0206534 -0.00383245)
(4.82926 0.0201599 -0.00328803)
(4.80732 0.0197742 -0.00361635)
(4.80903 0.0199618 -0.00315247)
(4.7845 0.018897 -0.00341838)
(4.78985 0.0204411 -0.00302354)
(4.75986 0.0157291 -0.00323962)
(4.7768 0.0227248 -0.00290207)
(4.73076 0.000931319 -0.00308713)
(4.7872 0.0276138 -0.00279243)
(4.72252 -0.0512039 -0.00300562)
(4.8486 -0.0143596 -0.00271505)
(4.47874 0.0180815 -0.00374544)
(4.57257 0.0443629 -0.00279094)
(4.73127 0.0313846 -0.00337584)
(4.81232 0.0151573 -0.00248681)
(4.86438 0.00128641 -0.00306207)
(4.87795 -0.00605941 -0.00231533)
(4.87613 -0.0092234 -0.00280512)
(4.8758 -0.0100069 -0.00216828)
(4.86013 -0.0100107 -0.00257122)
(4.86001 -0.00984887 -0.00202742)
(4.83971 -0.0096242 -0.00235516)
(4.84022 -0.00974755 -0.00189259)
(4.81877 -0.00916067 -0.00215579)
(4.81683 -0.00999718 -0.0017647)
(4.79904 -0.00786319 -0.00197004)
(4.78356 -0.00993724 -0.00164353)
(4.78507 -0.00453668 -0.00178613)
(4.70597 -0.00214984 -0.00152035)
(4.77998 8.75533e-05 -0.00154745)
(4.47319 0.0409031 -0.00133002)
(4.50397 4.59176e-08 -0.00501444)
(4.63847 -1.79256e-08 -0.0040582)
(4.78031 4.33656e-08 -0.00463797)
(4.85512 -3.20288e-08 -0.00374203)
(4.8963 -2.34731e-08 -0.00431837)
(4.90295 -3.7192e-09 -0.00357166)
(4.89384 4.14333e-08 -0.00406281)
(4.88879 5.74681e-09 -0.00342571)
(4.86949 1.14251e-07 -0.00382924)
(4.86804 4.17106e-07 -0.00328486)
(4.84588 5.65419e-07 -0.00361339)
(4.8477 1.52288e-06 -0.00314942)
(4.8228 1.97829e-06 -0.00341559)
(4.82866 7.45247e-06 -0.00302053)
(4.7982 8.78907e-06 -0.00323745)
(4.81578 2.5894e-05 -0.00289933)
(4.77337 4.93333e-05 -0.003088)
(4.82124 9.11959e-05 -0.00279109)
(4.78974 0.000250834 -0.00301576)
(4.8603 0.000397024 -0.00271946)
(4.47874 -0.0180816 -0.00374544)
(4.57257 -0.044363 -0.00279094)
(4.73127 -0.0313847 -0.00337584)
(4.81232 -0.0151574 -0.00248681)
(4.86438 -0.00128651 -0.00306207)
(4.87795 0.00605941 -0.00231533)
(4.87613 0.00922339 -0.00280512)
(4.8758 0.0100069 -0.00216828)
(4.86013 0.0100108 -0.00257122)
(4.86001 0.00984948 -0.00202742)
(4.83971 0.00962494 -0.00235516)
(4.84022 0.00975109 -0.00189259)
(4.81877 0.00916244 -0.00215579)
(4.81683 0.010018 -0.0017647)
(4.79905 0.00786485 -0.00197003)
(4.78357 0.0100448 -0.00164353)
(4.78509 0.00454268 -0.00178609)
(4.70604 0.00257654 -0.00152032)
(4.78009 0.000124476 -0.00154743)
(4.47349 -0.0395978 -0.00132985)
(4.51206 -0.0436762 -0.00509805)
(4.66841 -0.125679 -0.00403504)
(4.80825 -0.116063 -0.00463665)
(4.86018 -0.0802277 -0.00373561)
(4.88058 -0.0510006 -0.00431856)
(4.87387 -0.0329902 -0.00357376)
(4.85842 -0.0251889 -0.00406598)
(4.85078 -0.0217619 -0.0034291)
(4.83088 -0.0206532 -0.00383245)
(4.82926 -0.0201593 -0.00328803)
(4.80732 -0.0197732 -0.00361635)
(4.80903 -0.0199594 -0.00315247)
(4.78451 -0.0188936 -0.00341837)
(4.78985 -0.0204286 -0.00302354)
(4.75988 -0.015715 -0.00323959)
(4.77682 -0.02267 -0.0029021)
(4.73087 -0.000855317 -0.00308702)
(4.78733 -0.0274058 -0.00279258)
(4.7228 0.0516636 -0.00300525)
(4.84932 0.0152104 -0.00271523)
(4.56141 -0.0668649 -0.00390081)
(4.61956 -0.139176 -0.00276281)
(4.66832 -0.0831515 -0.0033903)
(4.63919 -0.0272993 -0.00249207)
(4.62322 0.0108331 -0.00307971)
(4.60511 0.0270055 -0.00233541)
(4.59255 0.0315567 -0.00282705)
(4.58874 0.0313288 -0.00218998)
(4.57301 0.0304045 -0.00259267)
(4.57276 0.029618 -0.00204851)
(4.55301 0.0289241 -0.00237617)
(4.5539 0.0292413 -0.00191344)
(4.53271 0.0276236 -0.00217705)
(4.53218 0.0301314 -0.00178564)
(4.51361 0.0237157 -0.00199278)
(4.50391 0.0316964 -0.0016656)
(4.49916 0.0126415 -0.0018158)
(4.44861 0.0185883 -0.00154974)
(4.49165 -0.00539619 -0.00161398)
(4.23454 -0.109074 -0.00137232)
(4.50097 -0.134331 -0.00565292)
(3.98284 -0.196597 -0.00423168)
(3.60496 -0.149702 -0.00490612)
(3.37805 -0.0937003 -0.00400053)
(3.2891 -0.0644238 -0.00459401)
(3.25243 -0.0494272 -0.00385124)
(3.23754 -0.0438229 -0.00434253)
(3.23303 -0.0409285 -0.00370616)
(3.21907 -0.0399526 -0.00410795)
(3.21873 -0.0391523 -0.00356449)
(3.20124 -0.0385506 -0.00389166)
(3.20288 -0.0388092 -0.00342906)
(3.1835 -0.0370489 -0.0036935)
(3.18639 -0.0397406 -0.00330053)
(3.16556 -0.0318837 -0.00351293)
(3.17224 -0.0440813 -0.00317942)
(3.14065 -0.00854671 -0.00335128)
(3.19236 -0.0539549 -0.00306674)
(3.05628 0.0979538 -0.00323222)
(3.45701 0.112752 -0.00293009)
(3.59896 0.348583 27.0416)
(3.14755 0.0958056 27.0875)
(2.61763 0.0175341 27.0966)
(2.60237 -0.0259618 27.1077)
(2.43984 -0.0340902 27.1101)
(2.52072 -0.0356823 27.1157)
(2.418 -0.0365541 27.1153)
(2.49181 -0.0364216 27.1182)
(2.40419 -0.0369861 27.117)
(2.46448 -0.0369026 27.1187)
(2.38864 -0.0369425 27.1176)
(2.43815 -0.0374053 27.1189)
(2.37269 -0.0359008 27.1181)
(2.41314 -0.0384058 27.1191)
(2.35636 -0.0316375 27.1185)
(2.38894 -0.0405809 27.1193)
(2.33697 -0.0142194 27.1191)
(2.35809 -0.0417248 27.1188)
(2.30945 0.0653388 27.1212)
(2.18967 0.119136 27.1045)
(4.5634 0.45329 27.066)
(4.76185 0.247808 27.1091)
(4.51937 0.154653 27.1207)
(4.59316 0.0714773 27.1384)
(4.41507 0.0368694 27.1482)
(4.51415 0.0239245 27.1612)
(4.38324 0.0208254 27.1664)
(4.47264 0.0213934 27.1728)
(4.3606 0.0216014 27.1734)
(4.43399 0.0225402 27.176)
(4.336 0.0220408 27.1753)
(4.39674 0.0232213 27.1767)
(4.31051 0.0212622 27.1762)
(4.36248 0.0244617 27.1771)
(4.2835 0.0173906 27.177)
(4.33571 0.0280772 27.1772)
(4.24863 0.00333355 27.178)
(4.34002 0.0326217 27.1759)
(4.18036 -0.0276256 27.1813)
(4.49528 -0.00949299 27.1545)
(4.67111 0.232521 27.068)
(5.06008 0.125995 27.1055)
(5.02578 0.0849803 27.1127)
(5.19506 0.0246843 27.1285)
(5.05262 -0.00211649 27.138)
(5.15387 -0.0148955 27.1534)
(5.01988 -0.018779 27.1616)
(5.103 -0.0196009 27.1715)
(4.98827 -0.0196654 27.174)
(5.05754 -0.0196557 27.1781)
(4.95879 -0.019448 27.1777)
(5.01496 -0.0198771 27.1797)
(4.93045 -0.0188079 27.1789)
(4.97296 -0.0202993 27.1804)
(4.90437 -0.0166008 27.1799)
(4.92605 -0.0196574 27.1809)
(4.88422 -0.00934026 27.1809)
(4.85447 -0.00713324 27.1808)
(4.86467 0.0182931 27.1823)
(4.71819 0.097076 27.1648)
(4.64805 0.139447 27.0753)
(4.99215 0.0857215 27.1142)
(5.02579 0.0658497 27.1222)
(5.23628 0.0332222 27.1375)
(5.12632 0.0176497 27.1474)
(5.24047 0.0102168 27.1629)
(5.11302 0.00775108 27.172)
(5.19795 0.00727134 27.1823)
(5.08472 0.00711855 27.1857)
(5.15453 0.00733323 27.1898)
(5.05534 0.00713729 27.19)
(5.11342 0.00753179 27.1916)
(5.02511 0.00682715 27.1913)
(5.07598 0.00800853 27.1922)
(4.99379 0.00530018 27.1921)
(5.04659 0.00957126 27.1926)
(4.96429 -0.000332893 27.1926)
(5.0405 0.0120161 27.1927)
(4.97108 -0.0103606 27.193)
(5.12282 0.00750608 27.1761)
(4.6486 6.84849e-08 27.0713)
(4.99221 6.07229e-08 27.1075)
(5.03097 2.03165e-07 27.1136)
(5.24688 9.90276e-08 27.1282)
(5.13738 1.01671e-07 27.1371)
(5.25204 7.78677e-08 27.1525)
(5.12468 2.087e-08 27.1612)
(5.20898 -7.7141e-08 27.1718)
(5.09544 2.51221e-08 27.1751)
(5.16398 2.00678e-07 27.1796)
(5.06558 3.84197e-07 27.1794)
(5.12075 1.80596e-06 27.1815)
(5.03659 1.31227e-06 27.1808)
(5.07765 1.07059e-05 27.1822)
(5.01031 1.29888e-06 27.1817)
(5.02777 5.9901e-05 27.1829)
(4.99266 -4.82926e-06 27.1823)
(4.94636 0.000293149 27.1835)
(4.98768 6.98676e-05 27.1827)
(4.79865 0.000728944 27.169)
(4.64805 -0.139447 27.0753)
(4.99215 -0.0857214 27.1142)
(5.02579 -0.0658495 27.1222)
(5.23628 -0.0332221 27.1375)
(5.12632 -0.0176496 27.1474)
(5.24047 -0.0102167 27.1629)
(5.11302 -0.00775103 27.172)
(5.19795 -0.00727144 27.1823)
(5.08472 -0.00711854 27.1857)
(5.15453 -0.00733274 27.1898)
(5.05534 -0.00713607 27.19)
(5.11342 -0.00752924 27.1916)
(5.02511 -0.00682206 27.1913)
(5.07598 -0.00799236 27.1922)
(4.99381 -0.00528171 27.192)
(5.04659 -0.00949722 27.1927)
(4.96438 0.000397639 27.1925)
(5.04054 -0.011735 27.1929)
(4.97127 0.0107006 27.1926)
(5.12316 -0.00644523 27.1768)
(4.67111 -0.232521 27.068)
(5.06008 -0.125995 27.1055)
(5.02578 -0.08498 27.1127)
(5.19506 -0.0246841 27.1285)
(5.05262 0.00211666 27.138)
(5.15387 0.0148956 27.1534)
(5.01988 0.018779 27.1616)
(5.103 0.0196006 27.1715)
(4.98827 0.0196653 27.174)
(5.05754 0.0196559 27.1781)
(4.9588 0.0194486 27.1777)
(5.01497 0.0198793 27.1797)
(4.93046 0.0188108 27.1789)
(4.97297 0.0203152 27.1804)
(4.90438 0.0166048 27.1798)
(4.92609 0.0197472 27.1811)
(4.88429 0.00933067 27.1804)
(4.85466 0.00754345 27.1818)
(4.865 -0.0182446 27.1804)
(4.7191 -0.0957036 27.1681)
(4.5634 -0.45329 27.066)
(4.76185 -0.247808 27.1091)
(4.51937 -0.154653 27.1207)
(4.59316 -0.0714772 27.1384)
(4.41507 -0.0368693 27.1482)
(4.51415 -0.0239245 27.1612)
(4.38324 -0.0208254 27.1664)
(4.47264 -0.0213935 27.1728)
(4.3606 -0.0216014 27.1734)
(4.43399 -0.0225401 27.176)
(4.336 -0.0220402 27.1753)
(4.39675 -0.0232199 27.1767)
(4.31052 -0.0212589 27.1762)
(4.3625 -0.0244545 27.1771)
(4.28354 -0.0173775 27.1768)
(4.33576 -0.0280385 27.1775)
(4.24882 -0.00328308 27.1771)
(4.34025 -0.032412 27.1781)
(4.18097 0.0278263 27.1762)
(4.49682 0.0101343 27.1649)
(3.59896 -0.348583 27.0416)
(3.14755 -0.0958055 27.0875)
(2.61763 -0.0175339 27.0966)
(2.60237 0.025962 27.1077)
(2.43984 0.0340902 27.1101)
(2.52072 0.0356822 27.1157)
(2.418 0.036554 27.1153)
(2.49181 0.0364214 27.1182)
(2.40419 0.0369858 27.117)
(2.46448 0.0369025 27.1187)
(2.38864 0.0369426 27.1176)
(2.43816 0.0374055 27.1189)
(2.37269 0.0359021 27.1181)
(2.41316 0.0384082 27.1191)
(2.35639 0.0316435 27.1185)
(2.38901 0.040589 27.1193)
(2.33711 0.0142255 27.1188)
(2.35834 0.0417561 27.1197)
(2.3101 -0.0653687 27.1185)
(2.19099 -0.118632 27.1148)
(1.69427 -0.131999 -27.1583)
(1.69303 -0.137563 -27.2014)
(1.61911 -0.105726 -27.2052)
(1.6369 -0.100957 -27.2059)
(1.5832 -0.0998498 -27.2054)
(1.59775 -0.099356 -27.2055)
(1.55289 -0.0994166 -27.2052)
(1.56674 -0.0991841 -27.2049)
(1.52972 -0.0992706 -27.2045)
(1.54387 -0.0990822 -27.204)
(1.51374 -0.0991496 -27.2035)
(1.52882 -0.0989821 -27.2028)
(1.50476 -0.0990312 -27.2023)
(1.52097 -0.0988768 -27.2014)
(1.50209 -0.0989108 -27.2008)
(1.51915 -0.0987668 -27.1998)
(1.50423 -0.0987899 -27.1991)
(1.52141 -0.0986571 -27.1981)
(1.5091 -0.0986752 -27.1973)
(1.52541 -0.098556 -27.1963)
(1.51437 -0.0985749 -27.1955)
(1.52899 -0.098471 -27.1944)
(1.51845 -0.0984941 -27.1936)
(1.53125 -0.0984052 -27.1925)
(1.52119 -0.0984315 -27.1917)
(1.53272 -0.0983532 -27.1906)
(1.52378 -0.0983784 -27.1898)
(1.53503 -0.0983054 -27.1887)
(1.52774 -0.0983252 -27.1878)
(1.53906 -0.0982543 -27.1867)
(1.5332 -0.0982681 -27.1858)
(1.54416 -0.0982007 -27.1846)
(1.53896 -0.0982128 -27.1837)
(1.54875 -0.098152 -27.1826)
(1.54352 -0.0981655 -27.1817)
(1.55206 -0.0981123 -27.1805)
(1.54713 -0.0981266 -27.1796)
(1.55512 -0.0980777 -27.1785)
(1.551 -0.0980883 -27.1775)
(1.55897 -0.09804 -27.1764)
(1.55579 -0.0980456 -27.1754)
(1.56356 -0.0979986 -27.1743)