/*--------------------------------*- C++ -*----------------------------------*\
  =========                 |
  \\      /  F ield         | OpenFOAM: The Open Source CFD Toolbox
   \\    /   O peration     | Website:  https://openfoam.org
    \\  /    A nd           | Version:  7
     \\/     M anipulation  |
\*---------------------------------------------------------------------------*/
FoamFile
{
    version     2.0;
    format      ascii;
    class       volVectorField;
    location    "3.975";
    object      U;
}
// * * * * * * * * * * * * * * * * * * * * * * * * * * * * * * * * * * * * * //

dimensions      [0 1 -1 0 0 0 0];

internalField   nonuniform List<vector> 
7920
(
(-3.10117 -9.03249 -243.659)
(2.40886 -10.272 -250.302)
(-0.359593 -10.6792 -249.747)
(1.23861 -10.4931 -250.141)
(0.368092 -10.6307 -249.961)
(0.952049 -10.5657 -250.055)
(0.628923 -10.6132 -249.991)
(0.863634 -10.589 -250.017)
(0.739288 -10.6049 -249.99)
(0.845522 -10.5943 -249.996)
(0.798792 -10.597 -249.983)
(0.862737 -10.5911 -249.98)
(0.84812 -10.5855 -249.971)
(0.91527 -10.5814 -249.964)
(0.913476 -10.5646 -249.956)
(1.0321 -10.5614 -249.941)
(1.03225 -10.5197 -249.939)
(1.29038 -10.5174 -249.901)
(1.28987 -10.3876 -249.912)
(1.56136 -10.3594 -250.129)
(-2.12523 5.57319 -271.371)
(5.35747 5.42846 -278.562)
(0.383605 5.35836 -281.079)
(3.32916 5.43058 -281.097)
(1.58108 5.35201 -281.585)
(2.73541 5.39372 -281.473)
(2.07771 5.36572 -281.596)
(2.55531 5.38142 -281.529)
(2.3 5.37109 -281.541)
(2.52044 5.37735 -281.49)
(2.42403 5.37414 -281.448)
(2.55947 5.37619 -281.396)
(2.52824 5.37679 -281.303)
(2.67136 5.37584 -281.243)
(2.66188 5.38043 -281.064)
(2.9099 5.37407 -280.982)
(2.88823 5.38876 -280.619)
(3.44084 5.36415 -280.466)
(3.35082 5.42574 -279.542)
(4.81982 5.4925 -278.439)
(-2.82164 -2.60102 -272.628)
(7.56521 -3.28719 -282.217)
(1.44658 -4.10837 -284.722)
(5.222 -3.88389 -285.984)
(3.06884 -4.11104 -286.116)
(4.49987 -4.03807 -286.263)
(3.71282 -4.10501 -286.236)
(4.3004 -4.07879 -286.233)
(4.00118 -4.09941 -286.174)
(4.27508 -4.08803 -286.13)
(4.16521 -4.09126 -286.039)
(4.34127 -4.08545 -285.975)
(4.30794 -4.07775 -285.834)
(4.50644 -4.07533 -285.755)
(4.49458 -4.05259 -285.521)
(4.85148 -4.05646 -285.412)
(4.80458 -3.9997 -285.005)
(5.61746 -4.02333 -284.768)
(5.37477 -3.89672 -283.846)
(7.56217 -3.87154 -281.504)
(-2.60208 1.91939 -273.073)
(8.21716 1.99037 -279.231)
(2.61683 1.88346 -282.992)
(6.28171 1.8296 -283.014)
(4.31722 1.75954 -283.895)
(5.68379 1.7444 -283.707)
(4.95301 1.73276 -283.928)
(5.5106 1.73106 -283.803)
(5.23007 1.73001 -283.816)
(5.49233 1.73086 -283.713)
(5.38966 1.73202 -283.616)
(5.56255 1.73287 -283.515)
(5.53248 1.73513 -283.311)
(5.73095 1.73491 -283.209)
(5.71954 1.7382 -282.836)
(6.07217 1.73437 -282.714)
(6.02041 1.73832 -282.035)
(6.79171 1.72677 -281.737)
(6.56706 1.68377 -280.569)
(8.33335 1.80587 -277.418)
(-2.88571 -0.948994 -272.166)
(8.44784 -1.19577 -278.233)
(2.99409 -1.67853 -282.143)
(6.8915 -1.56053 -282.049)
(5.02294 -1.69125 -283.058)
(6.40809 -1.66623 -282.828)
(5.71339 -1.70228 -283.084)
(6.26686 -1.69419 -282.935)
(6.00017 -1.70419 -282.949)
(6.25979 -1.70049 -282.83)
(6.16322 -1.70173 -282.717)
(6.33771 -1.69966 -282.603)
(6.31091 -1.69539 -282.37)
(6.51697 -1.69449 -282.258)
(6.50695 -1.68193 -281.839)
(6.8793 -1.68426 -281.706)
(6.82224 -1.65124 -280.983)
(7.64761 -1.66472 -280.597)
(7.38965 -1.58715 -279.6)
(9.2754 -1.61188 -275.811)
(-2.86485 0.863405 -272.395)
(8.47144 0.997356 -277.641)
(3.22792 1.14186 -281.567)
(7.13098 1.05876 -281.156)
(5.38181 1.06296 -282.163)
(6.7573 1.0359 -281.904)
(6.10049 1.04247 -282.163)
(6.64128 1.03578 -282.004)
(6.38606 1.03965 -282.014)
(6.63847 1.03812 -281.886)
(6.54587 1.03969 -281.765)
(6.71648 1.03934 -281.645)
(6.69157 1.03906 -281.398)
(6.89422 1.03892 -281.282)
(6.8861 1.03547 -280.847)
(7.251 1.03509 -280.707)
(7.19842 1.02201 -279.982)
(7.99428 1.02441 -279.545)
(7.76594 0.956791 -278.675)
(9.48146 1.03601 -274.647)
(-2.86485 -0.863395 -272.395)
(8.47144 -0.997272 -277.64)
(3.2279 -1.14187 -281.567)
(7.13098 -1.05882 -281.156)
(5.38182 -1.06296 -282.163)
(6.7573 -1.03586 -281.904)
(6.10048 -1.04244 -282.163)
(6.64128 -1.03579 -282.004)
(6.38606 -1.03967 -282.014)
(6.63847 -1.03812 -281.886)
(6.54587 -1.03968 -281.765)
(6.71647 -1.03935 -281.645)
(6.69157 -1.03908 -281.398)
(6.89421 -1.03899 -281.282)
(6.88609 -1.03544 -280.847)
(7.25098 -1.03544 -280.707)
(7.19836 -1.02156 -279.983)
(7.99435 -1.0259 -279.542)
(7.76563 -0.954571 -278.683)
(9.48131 -1.03665 -274.631)
(-2.8857 0.948965 -272.166)
(8.44784 1.19575 -278.233)
(2.99407 1.67854 -282.143)
(6.89149 1.56055 -282.049)
(5.02296 1.69126 -283.058)
(6.40809 1.66622 -282.828)
(5.71338 1.70227 -283.084)
(6.26685 1.6942 -282.935)
(6.00017 1.70419 -282.949)
(6.25979 1.70048 -282.83)
(6.16321 1.70172 -282.717)
(6.3377 1.69964 -282.603)
(6.31088 1.69539 -282.37)
(6.51696 1.69443 -282.257)
(6.50685 1.68194 -281.84)
(6.87934 1.68394 -281.705)
(6.82175 1.65162 -280.987)
(7.64801 1.66337 -280.588)
(7.38851 1.58926 -279.624)
(9.27456 1.61152 -275.76)
(-2.60207 -1.91942 -273.073)
(8.21717 -1.99045 -279.231)
(2.61683 -1.88344 -282.992)
(6.28171 -1.82955 -283.014)
(4.31722 -1.75954 -283.895)
(5.68379 -1.74443 -283.707)
(4.95301 -1.73277 -283.928)
(5.5106 -1.73104 -283.802)
(5.23007 -1.72999 -283.816)
(5.49233 -1.73087 -283.713)
(5.38965 -1.73204 -283.616)
(5.56253 -1.73288 -283.515)
(5.53245 -1.73512 -283.312)
(5.73092 -1.73495 -283.208)
(5.71944 -1.73818 -282.837)
(6.07215 -1.7346 -282.712)
(6.01988 -1.73794 -282.041)
(6.79221 -1.7279 -281.724)
(6.565 -1.68111 -280.606)
(8.33443 -1.80662 -277.329)
(-2.82163 2.60103 -272.628)
(7.56523 3.28716 -282.217)
(1.4466 4.10836 -284.722)
(5.22199 3.8839 -285.983)
(3.06882 4.11104 -286.117)
(4.49987 4.03806 -286.263)
(3.71282 4.105 -286.236)
(4.30041 4.07879 -286.233)
(4.00118 4.09941 -286.174)
(4.27507 4.08802 -286.131)
(4.1652 4.09125 -286.039)
(4.34126 4.08544 -285.975)
(4.3079 4.07775 -285.834)
(4.50641 4.0753 -285.755)
(4.49444 4.0526 -285.522)
(4.85157 4.05629 -285.41)
(4.80383 3.99995 -285.01)
(5.61886 4.02245 -284.755)
(5.37149 3.89921 -283.887)
(7.56831 3.87075 -281.376)
(-2.12524 -5.57312 -271.371)
(5.35746 -5.42844 -278.562)
(0.383615 -5.3584 -281.079)
(3.32916 -5.43061 -281.097)
(1.58107 -5.352 -281.584)
(2.7354 -5.39371 -281.473)
(2.07771 -5.36573 -281.596)
(2.55531 -5.38143 -281.529)
(2.3 -5.3711 -281.541)
(2.52043 -5.37734 -281.49)
(2.42402 -5.37413 -281.448)
(2.55946 -5.3762 -281.396)
(2.52822 -5.37679 -281.303)
(2.67134 -5.37584 -281.242)
(2.66179 -5.38043 -281.065)
(2.90991 -5.37408 -280.981)
(2.88776 -5.38876 -280.622)
(3.44169 -5.36428 -280.459)
(3.34818 -5.42507 -279.563)
(4.83166 -5.49262 -278.35)
(-3.10119 9.03252 -243.659)
(2.40884 10.272 -250.301)
(-0.35959 10.6792 -249.748)
(1.23863 10.4931 -250.142)
(0.368092 10.6307 -249.961)
(0.95204 10.5657 -250.055)
(0.62892 10.6132 -249.991)
(0.863639 10.589 -250.017)
(0.739292 10.6049 -249.991)
(0.845519 10.5943 -249.996)
(0.798787 10.597 -249.983)
(0.862733 10.5911 -249.98)
(0.848116 10.5855 -249.971)
(0.915266 10.5814 -249.964)
(0.913444 10.5646 -249.956)
(1.03212 10.5614 -249.941)
(1.03211 10.5197 -249.939)
(1.29081 10.5171 -249.9)
(1.28872 10.3879 -249.915)
(1.56568 10.3573 -250.138)
(9.11852 13.0906 0.837133)
(0.804302 14.9192 0.361011)
(1.85333 14.5854 0.688074)
(0.714968 14.5367 0.493974)
(1.0026 14.5095 0.624181)
(0.814984 14.5246 0.541531)
(0.82992 14.5097 0.594708)
(0.802521 14.5177 0.558463)
(0.787045 14.5093 0.578888)
(0.783618 14.5128 0.561974)
(0.772361 14.5077 0.567368)
(0.764652 14.5089 0.558367)
(0.759239 14.5046 0.555431)
(0.732104 14.505 0.549558)
(0.73171 14.4984 0.53941)
(0.650077 14.4991 0.534745)
(0.66496 14.4837 0.514221)
(0.417631 14.4841 0.510258)
(0.54146 14.3385 0.471544)
(1.09022 14.3371 0.463774)
(12.3293 -4.96113 0.0329006)
(2.09853 -7.2125 -0.464749)
(4.73796 -7.14548 -0.144735)
(2.31666 -7.59029 -0.343517)
(2.73357 -7.45546 -0.211096)
(2.29653 -7.48839 -0.295058)
(2.29349 -7.44821 -0.240921)
(2.22172 -7.44643 -0.277594)
(2.17542 -7.43548 -0.256801)
(2.16227 -7.43021 -0.273806)
(2.13266 -7.42902 -0.268172)
(2.11168 -7.42511 -0.277118)
(2.09831 -7.43245 -0.279906)
(2.02894 -7.42874 -0.285654)
(2.02873 -7.45574 -0.29565)
(1.81452 -7.44901 -0.300011)
(1.84899 -7.53167 -0.320478)
(1.21238 -7.51919 -0.323679)
(1.44353 -8.03202 -0.364818)
(-0.446006 -7.9057 -0.368896)
(12.5839 5.19853 0.332493)
(4.02906 6.68873 -0.173913)
(6.37141 6.24636 0.149751)
(4.19362 6.08895 -0.0540976)
(4.37268 5.92093 0.0795245)
(3.99681 5.93842 -0.00634579)
(3.91437 5.90045 0.0484327)
(3.86245 5.9169 0.011064)
(3.78609 5.90517 0.0320928)
(3.77991 5.91367 0.0147868)
(3.73916 5.90963 0.0204831)
(3.72086 5.91428 0.0113882)
(3.70477 5.9122 0.00855997)
(3.63378 5.91617 0.00268029)
(3.63565 5.91168 -0.00740604)
(3.40602 5.9167 -0.0119313)
(3.44459 5.89738 -0.0324866)
(2.74516 5.89318 -0.0360221)
(2.95242 5.80796 -0.0773265)
(0.310465 5.8431 -0.0805766)
(12.3586 -0.926299 0.153345)
(4.01499 -1.84603 -0.353529)
(7.45299 -1.8457 -0.0368145)
(5.48808 -2.34988 -0.2342)
(5.74823 -2.40556 -0.102846)
(5.34973 -2.44625 -0.185385)
(5.24685 -2.44336 -0.132066)
(5.17196 -2.43445 -0.167905)
(5.08199 -2.43102 -0.147499)
(5.06404 -2.4227 -0.164102)
(5.01735 -2.42321 -0.158569)
(4.99018 -2.41786 -0.167273)
(4.97448 -2.42549 -0.169949)
(4.88667 -2.42025 -0.175547)
(4.89737 -2.44719 -0.185267)
(4.61604 -2.43831 -0.189529)
(4.67975 -2.52535 -0.209429)
(3.79791 -2.52055 -0.212574)
(4.0443 -2.88683 -0.252596)
(1.37675 -2.83063 -0.253902)
(12.2346 1.71618 0.250585)
(4.27993 2.65764 -0.248993)
(7.9154 2.5075 0.0714208)
(6.39723 2.51613 -0.129342)
(6.64888 2.41624 0.00219857)
(6.32568 2.42544 -0.0817657)
(6.20881 2.39277 -0.028403)
(6.14571 2.39845 -0.0646228)
(6.05077 2.38981 -0.0441769)
(6.03382 2.39231 -0.0609023)
(5.98625 2.39047 -0.0553979)
(5.96041 2.39216 -0.0641675)
(5.9466 2.39361 -0.066877)
(5.86319 2.39544 -0.0725193)
(5.88019 2.40051 -0.0823113)
(5.6089 2.40263 -0.0866559)
(5.68714 2.41453 -0.106736)
(4.82566 2.41002 -0.10996)
(5.07325 2.43321 -0.151404)
(2.15347 2.4498 -0.151878)
(12.0978 -0.596212 0.2089)
(4.04349 -1.1876 -0.29433)
(8.04152 -1.12223 0.0243792)
(6.71115 -1.39097 -0.174528)
(7.08455 -1.4285 -0.0432049)
(6.80879 -1.46702 -0.125872)
(6.70761 -1.46344 -0.0728398)
(6.64565 -1.46336 -0.108512)
(6.55118 -1.45985 -0.0882397)
(6.53131 -1.45718 -0.104698)
(6.48338 -1.45698 -0.0992312)
(6.45499 -1.45516 -0.107872)
(6.44226 -1.45951 -0.110544)
(6.35504 -1.45759 -0.116091)
(6.37635 -1.47266 -0.125772)
(6.09379 -1.46911 -0.130026)
(6.18218 -1.51632 -0.149943)
(5.28074 -1.51483 -0.153027)
(5.53615 -1.67223 -0.193971)
(2.76282 -1.66851 -0.193878)
(12.0978 0.596312 0.208856)
(4.04348 1.18763 -0.294291)
(8.04152 1.12217 0.024407)
(6.71116 1.39094 -0.174546)
(7.08455 1.42854 -0.0432286)
(6.80878 1.46705 -0.125866)
(6.7076 1.46343 -0.0728226)
(6.64565 1.46334 -0.10851)
(6.55118 1.45984 -0.0882502)
(6.53131 1.45719 -0.104703)
(6.48338 1.45697 -0.0992252)
(6.45498 1.45512 -0.107865)
(6.44225 1.45947 -0.110547)
(6.35503 1.45746 -0.116099)
(6.37631 1.47248 -0.125775)
(6.09377 1.46865 -0.130025)
(6.18198 1.51503 -0.149946)
(5.28058 1.51363 -0.153038)
(5.5354 1.66374 -0.193995)
(2.75871 1.66671 -0.193882)
(12.2346 -1.71624 0.250511)
(4.27992 -2.65764 -0.248926)
(7.91539 -2.50747 0.0714674)
(6.39724 -2.51611 -0.129371)
(6.64889 -2.41625 0.00215565)
(6.32568 -2.42545 -0.0817561)
(6.2088 -2.39277 -0.0283717)
(6.14571 -2.39845 -0.0646185)
(6.05078 -2.38982 -0.0441956)
(6.03382 -2.39232 -0.0609119)
(5.98624 -2.39048 -0.0553873)
(5.96039 -2.39219 -0.0641552)
(5.94656 -2.39363 -0.066881)
(5.86313 -2.39555 -0.0725309)
(5.88 -2.40068 -0.082314)
(5.60854 -2.40302 -0.0866451)
(5.68642 -2.41569 -0.10674)
(4.82338 -2.41108 -0.109945)
(5.07094 -2.44133 -0.151474)
(2.14318 -2.45164 -0.151786)
(12.3586 0.926151 0.153336)
(4.01499 1.84601 -0.353513)
(7.45298 1.84578 -0.0368117)
(5.48807 2.34991 -0.234206)
(5.74823 2.40551 -0.102858)
(5.34973 2.44621 -0.185383)
(5.24685 2.44337 -0.132056)
(5.17196 2.43448 -0.167903)
(5.08199 2.43101 -0.147504)
(5.06404 2.42268 -0.164104)
(5.01734 2.4232 -0.158566)
(4.99016 2.41785 -0.16727)
(4.97443 2.42548 -0.169951)
(4.88659 2.42016 -0.175552)
(4.89712 2.44704 -0.18527)
(4.61563 2.43803 -0.189531)
(4.67877 2.52449 -0.209441)
(3.79507 2.51995 -0.212573)
(4.04099 2.8814 -0.252693)
(1.35797 2.83025 -0.253822)
(12.5839 -5.19856 0.332544)
(4.02909 -6.68873 -0.173958)
(6.37142 -6.24633 0.149711)
(4.1936 -6.08894 -0.0540796)
(4.37267 -5.92094 0.0795609)
(3.99682 -5.93843 -0.00634716)
(3.91437 -5.90044 0.048408)
(3.86244 -5.91689 0.0110565)
(3.78608 -5.90518 0.0321077)
(3.7799 -5.91369 0.0147979)
(3.73915 -5.90963 0.0204759)
(3.72084 -5.91428 0.0113764)
(3.70469 -5.91222 0.00856071)
(3.63369 -5.91623 0.00268952)
(3.63536 -5.91179 -0.00740448)
(3.40553 -5.91688 -0.0119379)
(3.44353 -5.89809 -0.0325064)
(2.7423 -5.89354 -0.0360019)
(2.94936 -5.81231 -0.077463)
(0.285019 -5.84326 -0.0804038)
(12.3293 4.96126 0.0329481)
(2.09851 7.21251 -0.464793)
(4.73796 7.1454 -0.144767)
(2.31666 7.59027 -0.343497)
(2.73357 7.45551 -0.211063)
(2.29653 7.48842 -0.295063)
(2.29349 7.44819 -0.240946)
(2.22172 7.44641 -0.277599)
(2.17542 7.43549 -0.256787)
(2.16226 7.43024 -0.273798)
(2.13265 7.42902 -0.26818)
(2.11166 7.42509 -0.277128)
(2.09825 7.43245 -0.279904)
(2.02886 7.42874 -0.285646)
(2.02849 7.45574 -0.29565)
(1.81405 7.44897 -0.300021)
(1.84817 7.53155 -0.320495)
(1.20909 7.51917 -0.323676)
(1.44165 8.03267 -0.364946)
(-0.472388 7.90683 -0.3688)
(9.11849 -13.0905 0.837109)
(0.804257 -14.9192 0.361023)
(1.85333 -14.5854 0.688102)
(0.714992 -14.5367 0.493972)
(1.0026 -14.5095 0.624157)
(0.814969 -14.5246 0.541523)
(0.829913 -14.5097 0.594718)
(0.802527 -14.5177 0.558471)
(0.787051 -14.5093 0.578881)
(0.783613 -14.5128 0.561964)
(0.772349 -14.5077 0.567369)
(0.764644 -14.5089 0.558375)
(0.759216 -14.5047 0.555433)
(0.732077 -14.505 0.549552)
(0.731593 -14.4984 0.539407)
(0.649898 -14.4991 0.534744)
(0.664577 -14.4839 0.514217)
(0.416493 -14.484 0.51025)
(0.540678 -14.3382 0.471479)
(1.09213 -14.3333 0.463781)
(2.24876 -0.0542842 -0.623013)
(1.81778 0.213052 -0.353959)
(2.41734 0.282072 -0.473087)
(1.09545 0.133856 -0.479563)
(2.25594 0.184421 -0.470058)
(1.34517 0.148033 -0.499127)
(2.00833 0.156896 -0.483914)
(1.52744 0.139832 -0.502413)
(1.84753 0.139494 -0.494243)
(1.60022 0.131208 -0.504113)
(1.74041 0.128864 -0.501108)
(1.59444 0.124255 -0.506407)
(1.6485 0.121208 -0.505558)
(1.54595 0.117564 -0.508727)
(1.56302 0.114753 -0.506468)
(1.51597 0.11104 -0.508822)
(1.51693 0.109094 -0.496832)
(1.68816 0.120384 -0.500224)
(1.54602 0.0662081 -0.452851)
(3.03686 0.130642 -0.466419)
(4.86147 -0.0660431 0.169269)
(3.34263 -1.1186 0.510656)
(4.87517 -1.1389 0.378471)
(2.98447 -1.29069 0.375624)
(4.05526 -1.32769 0.38143)
(3.07184 -1.31004 0.353855)
(3.66332 -1.34152 0.367478)
(3.19749 -1.31737 0.349326)
(3.47708 -1.3339 0.356658)
(3.24026 -1.31879 0.34684)
(3.35935 -1.32581 0.349381)
(3.20818 -1.31748 0.344024)
(3.25012 -1.32103 0.344454)
(3.11922 -1.31639 0.341174)
(3.12622 -1.32319 0.342908)
(3.00159 -1.32031 0.340373)
(2.99658 -1.34695 0.351309)
(2.95277 -1.33129 0.347339)
(2.94669 -1.50443 0.390098)
(3.28811 -1.52063 0.370073)
(4.47489 0.505591 -0.226174)
(4.13085 1.22288 0.0556735)
(5.67548 1.2774 -0.0622496)
(4.19426 1.09731 -0.0742131)
(5.28133 1.04052 -0.0628296)
(4.44007 0.97229 -0.0931874)
(5.03307 0.937103 -0.0774784)
(4.6162 0.917661 -0.0964212)
(4.89154 0.901219 -0.0883272)
(4.67029 0.894121 -0.0983756)
(4.78509 0.885806 -0.0955185)
(4.63845 0.882098 -0.100957)
(4.67461 0.877055 -0.100454)
(4.5495 0.873138 -0.103815)
(4.54413 0.870416 -0.102163)
(4.44826 0.863932 -0.104766)
(4.40662 0.860845 -0.0941677)
(4.47561 0.86103 -0.0980326)
(4.35177 0.794867 -0.055683)
(4.97286 0.857912 -0.0714221)
(4.42461 -0.328907 -0.0459237)
(3.92153 -1.09168 0.290693)
(6.16279 -1.01207 0.161774)
(5.04336 -1.21538 0.162633)
(6.17275 -1.27058 0.168171)
(5.49909 -1.29097 0.14038)
(6.00979 -1.32701 0.153738)
(5.66548 -1.31583 0.135507)
(5.89005 -1.33211 0.142677)
(5.70399 -1.32218 0.132805)
(5.79513 -1.32922 0.135337)
(5.66594 -1.32299 0.129974)
(5.6937 -1.32755 0.130541)
(5.57201 -1.32358 0.127213)
(5.5687 -1.33369 0.129406)
(5.44261 -1.32908 0.126753)
(5.42287 -1.36777 0.139112)
(5.33177 -1.34758 0.134955)
(5.31643 -1.52278 0.183434)
(5.35685 -1.56311 0.164077)
(4.37987 0.439086 -0.135983)
(4.04399 1.15898 0.175587)
(6.21999 1.23737 0.0487847)
(5.37033 1.21872 0.0408557)
(6.60268 1.18329 0.0474311)
(6.07583 1.13268 0.0177684)
(6.63917 1.09305 0.0318939)
(6.36217 1.06962 0.0133673)
(6.60385 1.05146 0.0208164)
(6.4446 1.04294 0.0109368)
(6.53963 1.03524 0.0135117)
(6.42266 1.03119 0.00816249)
(6.44969 1.02848 0.00865489)
(6.33925 1.02464 0.00533132)
(6.3308 1.02706 0.00717461)
(6.22859 1.01985 0.00451038)
(6.19142 1.03114 0.0157938)
(6.16232 1.02124 0.0116915)
(6.09604 1.01649 0.0564498)
(6.21675 1.08686 0.039521)
(4.31547 -0.391214 -0.104949)
(3.86025 -1.05938 0.219883)
(6.22904 -1.03012 0.091291)
(5.50316 -1.15556 0.0889871)
(6.83076 -1.17587 0.0948454)
(6.39842 -1.17077 0.066184)
(6.97618 -1.17038 0.0797445)
(6.73636 -1.15712 0.0614119)
(6.9756 -1.1572 0.0686245)
(6.83119 -1.1495 0.0587954)
(6.92319 -1.14972 0.0612843)
(6.81251 -1.14517 0.0559396)
(6.83853 -1.14656 0.0564865)
(6.72958 -1.14287 0.0531677)
(6.72286 -1.15007 0.0552807)
(6.61312 -1.14401 0.0525679)
(6.58273 -1.17165 0.0647014)
(6.51612 -1.15702 0.0605264)
(6.46267 -1.2404 0.107973)
(6.50684 -1.30499 0.090073)
(4.31545 0.391349 -0.104948)
(3.86022 1.05936 0.219921)
(6.22904 1.03002 0.0912947)
(5.50318 1.15556 0.0889591)
(6.83076 1.17594 0.0948348)
(6.39841 1.17079 0.0661968)
(6.97618 1.17034 0.0797558)
(6.73636 1.15709 0.0614059)
(6.9756 1.15721 0.068615)
(6.83119 1.14951 0.0587961)
(6.92318 1.14971 0.0612918)
(6.8125 1.1451 0.0559414)
(6.83852 1.14652 0.0564806)
(6.72953 1.14275 0.0531616)
(6.72282 1.14986 0.0552806)
(6.61293 1.14384 0.052568)
(6.5826 1.17034 0.0646849)
(6.51558 1.15708 0.0605156)
(6.46213 1.23638 0.107898)
(6.50518 1.30184 0.0900495)
(4.37985 -0.439155 -0.135976)
(4.04397 -1.15897 0.175651)
(6.22 -1.23733 0.0487862)
(5.37035 -1.21872 0.0408094)
(6.60268 -1.1833 0.0474129)
(6.07581 -1.13268 0.0177884)
(6.63916 -1.09305 0.0319127)
(6.36217 -1.06962 0.0133578)
(6.60385 -1.05147 0.0208008)
(6.44459 -1.04296 0.0109381)
(6.53961 -1.03524 0.0135242)
(6.42265 -1.03124 0.00816685)
(6.44964 -1.0285 0.00864714)
(6.33923 -1.02478 0.00532534)
(6.33061 -1.02729 0.00718307)
(6.22841 -1.01999 0.00452084)
(6.19106 -1.03252 0.0158161)
(6.161 -1.02104 0.0117012)
(6.09586 -1.02083 0.0565619)
(6.21131 -1.09033 0.0395165)
(4.42461 0.32873 -0.0459124)
(3.92152 1.09173 0.290701)
(6.16278 1.01218 0.161762)
(5.04336 1.21538 0.162627)
(6.17276 1.27049 0.168168)
(5.49909 1.29094 0.140383)
(6.00978 1.32705 0.15374)
(5.66548 1.31586 0.135504)
(5.89006 1.33209 0.142676)
(5.70399 1.32214 0.132806)
(5.7951 1.32922 0.135338)
(5.66591 1.32298 0.129973)
(5.69362 1.32753 0.13054)
(5.57192 1.32347 0.127212)
(5.56845 1.33349 0.129408)
(5.44214 1.32899 0.12675)
(5.42238 1.36682 0.139116)
(5.32936 1.34771 0.134956)
(5.31576 1.5202 0.183501)
(5.34788 1.56079 0.164051)
(4.47493 -0.505648 -0.226171)
(4.13091 -1.22285 0.0556232)
(5.67547 -1.27736 -0.0622619)
(4.19423 -1.09733 -0.0741805)
(5.28132 -1.04057 -0.0628084)
(4.44009 -0.972288 -0.0931995)
(5.03307 -0.937072 -0.077499)
(4.61619 -0.917651 -0.0964199)
(4.89152 -0.901237 -0.0883124)
(4.67029 -0.894142 -0.0983718)
(4.78508 -0.885801 -0.0955287)
(4.63843 -0.882115 -0.100964)
(4.6745 -0.87707 -0.100448)
(4.54943 -0.873224 -0.103806)
(4.54382 -0.870564 -0.102162)
(4.44781 -0.863962 -0.104769)
(4.4061 -0.861756 -0.0941585)
(4.47296 -0.860669 -0.0980089)
(4.35204 -0.797646 -0.0556283)
(4.96314 -0.8604 -0.0714236)
(4.86145 0.0662062 0.169267)
(3.34263 1.11857 0.51062)
(4.87518 1.13877 0.37847)
(2.98446 1.29068 0.375649)
(4.05524 1.32777 0.381442)
(3.07185 1.31007 0.353843)
(3.66333 1.34147 0.367464)
(3.19749 1.31733 0.34933)
(3.47706 1.33392 0.356668)
(3.24025 1.31882 0.34684)
(3.35933 1.3258 0.349373)
(3.20816 1.31744 0.34402)
(3.25001 1.32101 0.34446)
(3.11913 1.31638 0.341178)
(3.1259 1.32313 0.34291)
(3.00102 1.3203 0.340368)
(2.99612 1.34658 0.351332)
(2.94927 1.33138 0.347341)
(2.94765 1.504 0.390257)
(3.273 1.51981 0.369954)
(2.24872 0.0543767 -0.623027)
(1.81775 -0.213077 -0.35393)
(2.41736 -0.282141 -0.473062)
(1.09549 -0.133862 -0.479577)
(2.25594 -0.184359 -0.470084)
(1.34515 -0.148012 -0.499129)
(2.00832 -0.15693 -0.483898)
(1.52745 -0.139858 -0.502408)
(1.84754 -0.139478 -0.494255)
(1.60021 -0.131186 -0.504121)
(1.74038 -0.128866 -0.501103)
(1.59442 -0.124281 -0.506399)
(1.64843 -0.121212 -0.505559)
(1.5459 -0.117562 -0.508734)
(1.56278 -0.114756 -0.506469)
(1.51561 -0.111033 -0.508813)
(1.51679 -0.109208 -0.496827)
(1.68616 -0.120335 -0.500193)
(1.54683 -0.0656982 -0.452802)
(3.0356 -0.130952 -0.466281)
(2.24879 -0.0542617 0.623103)
(1.8178 0.213028 0.353897)
(2.41733 0.282057 0.473023)
(1.09544 0.133874 0.479591)
(2.25595 0.184441 0.470119)
(1.34518 0.148028 0.499129)
(2.00833 0.156882 0.483875)
(1.52744 0.139832 0.502402)
(1.84753 0.139503 0.494268)
(1.60023 0.131211 0.504131)
(1.74041 0.128859 0.501097)
(1.59444 0.12425 0.506389)
(1.6485 0.121211 0.50556)
(1.54595 0.117569 0.508742)
(1.56302 0.114752 0.506471)
(1.51597 0.111036 0.508812)
(1.51693 0.109094 0.496826)
(1.68816 0.120386 0.500228)
(1.54602 0.0662093 0.452856)
(3.03686 0.130641 0.46642)
(4.86147 -0.0660045 -0.169213)
(3.34262 -1.11864 -0.510643)
(4.87517 -1.13893 -0.378508)
(2.98447 -1.29067 -0.375642)
(4.05526 -1.32766 -0.381409)
(3.07184 -1.31005 -0.353837)
(3.66332 -1.34154 -0.367485)
(3.19749 -1.31737 -0.349341)
(3.47708 -1.33389 -0.356656)
(3.24026 -1.31878 -0.346827)
(3.35935 -1.32582 -0.349377)
(3.20818 -1.31749 -0.344032)
(3.25012 -1.32103 -0.34446)
(3.11923 -1.31638 -0.34117)
(3.12622 -1.32319 -0.342902)
(3.00159 -1.32032 -0.340375)
(2.99658 -1.34695 -0.351314)
(2.95277 -1.33129 -0.34734)
(2.94669 -1.50443 -0.390095)
(3.28811 -1.52063 -0.37007)
(4.47488 0.505642 0.226124)
(4.13085 1.22287 -0.0556042)
(5.67549 1.27736 0.0622818)
(4.19427 1.09731 0.0741715)
(5.28132 1.04054 0.0627904)
(4.44007 0.9723 0.0932015)
(5.03307 0.937093 0.0775091)
(4.61621 0.917649 0.0964208)
(4.89154 0.901223 0.0883068)
(4.67029 0.894132 0.0983696)
(4.78509 0.885807 0.0955321)
(4.63845 0.88209 0.100967)
(4.67462 0.877051 0.100447)
(4.5495 0.873143 0.103803)
(4.54413 0.870421 0.102163)
(4.44826 0.86393 0.104774)
(4.40662 0.860841 0.0941699)
(4.47561 0.861029 0.098028)
(4.35177 0.794869 0.0556805)
(4.97286 0.857914 0.0714233)
(4.4246 -0.328907 0.0458162)
(3.92153 -1.09164 -0.290655)
(6.1628 -1.01207 -0.161705)
(5.04336 -1.21541 -0.162644)
(6.17275 -1.27059 -0.168224)
(5.49908 -1.29095 -0.140388)
(6.00979 -1.327 -0.153707)
(5.66548 -1.31583 -0.135491)
(5.89006 -1.33212 -0.142693)
(5.70399 -1.32218 -0.132822)
(5.79512 -1.32921 -0.135331)
(5.66594 -1.32299 -0.129958)
(5.6937 -1.32756 -0.13054)
(5.57201 -1.32359 -0.127226)
(5.56869 -1.33368 -0.129412)
(5.44261 -1.32907 -0.126746)
(5.42287 -1.36777 -0.139105)
(5.33177 -1.34758 -0.134957)
(5.31643 -1.52278 -0.183438)
(5.35685 -1.5631 -0.164079)
(4.37987 0.439035 0.13593)
(4.04398 1.15902 -0.175631)
(6.21998 1.2374 -0.0487536)
(5.37034 1.2187 -0.0408151)
(6.60268 1.18326 -0.0474368)
(6.07583 1.13268 -0.0177917)
(6.63916 1.09307 -0.0318961)
(6.36217 1.06962 -0.0133503)
(6.60385 1.05145 -0.0208093)
(6.4446 1.04293 -0.0109471)
(6.53963 1.03524 -0.0135214)
(6.42266 1.0312 -0.00815827)
(6.44969 1.02848 -0.00864549)
(6.33925 1.02464 -0.00533096)
(6.3308 1.02706 -0.00718228)
(6.22859 1.01986 -0.00451375)
(6.19142 1.03114 -0.0157896)
(6.16232 1.02123 -0.0116877)
(6.09604 1.01648 -0.0564506)
(6.21675 1.08686 -0.0395231)
(4.31548 -0.391257 0.105012)
(3.86026 -1.05939 -0.219951)
(6.22904 -1.03009 -0.0913304)
(5.50316 -1.15554 -0.08895)
(6.83076 -1.17588 -0.0948067)
(6.39843 -1.17078 -0.0661953)
(6.97618 -1.17037 -0.0797721)
(6.73636 -1.15711 -0.0614124)
(6.9756 -1.1572 -0.0686064)
(6.83119 -1.14951 -0.058789)
(6.92319 -1.14972 -0.061296)
(6.81251 -1.14517 -0.0559495)
(6.83853 -1.14655 -0.056481)
(6.72958 -1.14287 -0.0531573)
(6.72286 -1.15007 -0.0552812)
(6.61312 -1.14401 -0.0525759)
(6.58273 -1.17164 -0.0647037)
(6.51612 -1.15702 -0.0605222)
(6.46267 -1.2404 -0.10797)
(6.50684 -1.30499 -0.0900736)
(4.31546 0.391361 0.105051)
(3.86023 1.05932 -0.219932)
(6.22904 1.03002 -0.0913573)
(5.50317 1.15558 -0.0889717)
(6.83076 1.17595 -0.0947947)
(6.39842 1.17078 -0.0661805)
(6.97618 1.17033 -0.0797754)
(6.73636 1.15709 -0.0614241)
(6.9756 1.15722 -0.0686087)
(6.83119 1.14951 -0.0587811)
(6.92318 1.14971 -0.0612908)
(6.8125 1.1451 -0.0559533)
(6.83851 1.14653 -0.0564865)
(6.72952 1.14276 -0.0531544)
(6.72282 1.14986 -0.0552729)
(6.61293 1.14383 -0.0525703)
(6.5826 1.17034 -0.064691)
(6.51558 1.15708 -0.0605163)
(6.46213 1.23638 -0.107895)
(6.50518 1.30184 -0.0900475)
(4.37985 -0.439096 0.135997)
(4.04397 -1.15898 -0.1756)
(6.22001 -1.23736 -0.0487996)
(5.37035 -1.21871 -0.0408481)
(6.60268 -1.18328 -0.0474112)
(6.07581 -1.13268 -0.0177685)
(6.63916 -1.09306 -0.0319062)
(6.36218 -1.06962 -0.0133709)
(6.60385 -1.05146 -0.0208107)
(6.44459 -1.04295 -0.0109325)
(6.53961 -1.03525 -0.0135146)
(6.42265 -1.03125 -0.0081676)
(6.44965 -1.0285 -0.00865536)
(6.33923 -1.02477 -0.00532826)
(6.33061 -1.02729 -0.00717736)
(6.22841 -1.02 -0.00451622)
(6.19106 -1.03252 -0.0158183)
(6.161 -1.02104 -0.0117047)
(6.09586 -1.02083 -0.0565618)
(6.21131 -1.09033 -0.0395147)
(4.42459 0.328765 0.0458312)
(3.92152 1.09175 -0.290656)
(6.16279 1.01216 -0.161716)
(5.04337 1.21536 -0.162643)
(6.17276 1.27049 -0.168206)
(5.49908 1.29095 -0.140384)
(6.00978 1.32705 -0.153718)
(5.66548 1.31585 -0.135497)
(5.89006 1.33208 -0.142689)
(5.70399 1.32214 -0.132817)
(5.7951 1.32922 -0.135332)
(5.66591 1.32298 -0.129963)
(5.69362 1.32753 -0.130541)
(5.57192 1.32347 -0.12722)
(5.56845 1.3335 -0.129411)
(5.44214 1.32899 -0.126745)
(5.42238 1.36682 -0.139112)
(5.32936 1.3477 -0.134958)
(5.31576 1.5202 -0.183503)
(5.34788 1.56079 -0.164051)
(4.47492 -0.505673 0.226088)
(4.13089 -1.22283 -0.0556276)
(5.67547 -1.27734 0.0623083)
(4.19423 -1.09734 0.0741951)
(5.28133 -1.04058 0.0627763)
(4.44009 -0.972287 0.0931836)
(5.03307 -0.937063 0.077513)
(4.61619 -0.91765 0.096435)
(4.89153 -0.901243 0.0883084)
(4.67029 -0.894145 0.098359)
(4.78508 -0.885797 0.0955266)
(4.63843 -0.882112 0.100973)
(4.6745 -0.877071 0.100454)
(4.54943 -0.873228 0.103801)
(4.54382 -0.870565 0.102156)
(4.44781 -0.863959 0.10477)
(4.4061 -0.861755 0.0941634)
(4.47296 -0.86067 0.0980098)
(4.35204 -0.797647 0.0556259)
(4.96314 -0.8604 0.0714216)
(4.86146 0.0661575 -0.169257)
(3.34263 1.11858 -0.510651)
(4.87517 1.1388 -0.378475)
(2.98446 1.29069 -0.37563)
(4.05525 1.32775 -0.381436)
(3.07185 1.31006 -0.353853)
(3.66333 1.34148 -0.367473)
(3.19748 1.31734 -0.349327)
(3.47707 1.33392 -0.356661)
(3.24025 1.31881 -0.34684)
(3.35933 1.3258 -0.349379)
(3.20816 1.31745 -0.344023)
(3.25001 1.32101 -0.344456)
(3.11913 1.31637 -0.341174)
(3.1259 1.32313 -0.342911)
(3.00102 1.3203 -0.340371)
(2.99612 1.34658 -0.351332)
(2.94927 1.33138 -0.34734)
(2.94765 1.504 -0.390257)
(3.273 1.51981 -0.369955)
(2.24873 0.0543474 0.623115)
(1.81776 -0.213081 0.353911)
(2.41736 -0.282125 0.473015)
(1.09548 -0.133855 0.479578)
(2.25594 -0.184371 0.470118)
(1.34515 -0.148018 0.499135)
(2.00832 -0.156925 0.483877)
(1.52745 -0.139852 0.502396)
(1.84753 -0.139479 0.494264)
(1.60021 -0.13119 0.504133)
(1.74038 -0.128867 0.5011)
(1.59442 -0.124278 0.506388)
(1.64843 -0.12121 0.505557)
(1.5459 -0.117564 0.508742)
(1.56279 -0.114758 0.506475)
(1.51561 -0.111032 0.50881)
(1.51679 -0.109206 0.496823)
(1.68616 -0.120334 0.500193)
(1.54683 -0.0656987 0.452805)
(3.0356 -0.130952 0.466282)
(9.11856 13.0906 -0.837079)
(0.804344 14.9191 -0.361035)
(1.85331 14.5853 -0.688116)
(0.714934 14.5367 -0.493965)
(1.00261 14.5095 -0.624146)
(0.81501 14.5246 -0.541526)
(0.829922 14.5097 -0.594726)
(0.802503 14.5177 -0.55847)
(0.787038 14.5093 -0.578876)
(0.783628 14.5128 -0.561963)
(0.772369 14.5077 -0.567372)
(0.764647 14.5089 -0.558377)
(0.759231 14.5046 -0.555432)
(0.732105 14.505 -0.549551)
(0.731716 14.4984 -0.539408)
(0.650079 14.4991 -0.53475)
(0.664956 14.4837 -0.514225)
(0.417628 14.4841 -0.510257)
(0.541462 14.3385 -0.471541)
(1.09022 14.3371 -0.463773)
(12.3293 -4.96102 -0.0328676)
(2.09854 -7.21258 0.464761)
(4.73796 -7.14555 0.144717)
(2.31666 -7.59025 0.343508)
(2.73357 -7.4554 0.211108)
(2.29653 -7.4884 0.295068)
(2.29349 -7.44826 0.240919)
(2.22172 -7.44644 0.277587)
(2.17542 -7.43545 0.256802)
(2.16227 -7.4302 0.273812)
(2.13266 -7.42904 0.268174)
(2.11168 -7.42513 0.277115)
(2.09831 -7.43245 0.279903)
(2.02894 -7.42873 0.285655)
(2.02873 -7.45574 0.295653)
(1.81452 -7.44902 0.300011)
(1.84899 -7.53168 0.320476)
(1.21238 -7.51919 0.323678)
(1.44353 -8.03201 0.364819)
(-0.446006 -7.9057 0.368897)
(12.5838 5.19867 -0.33252)
(4.02904 6.68872 0.173948)
(6.37144 6.24628 -0.149728)
(4.19364 6.08894 0.0540817)
(4.37267 5.92098 -0.0795456)
(3.9968 5.93844 0.00635152)
(3.91437 5.90043 -0.0484175)
(3.86246 5.91688 -0.0110633)
(3.78609 5.90518 -0.032103)
(3.7799 5.91369 -0.014791)
(3.73915 5.90963 -0.0204771)
(3.72086 5.91426 -0.0113826)
(3.70477 5.9122 -0.00856232)
(3.63378 5.91618 -0.0026855)
(3.63564 5.91169 0.00740612)
(3.40602 5.9167 0.0119354)
(3.44459 5.89737 0.0324881)
(2.74516 5.89318 0.03602)
(2.95242 5.80796 0.0773247)
(0.310465 5.8431 0.0805764)
(12.3586 -0.926306 -0.153411)
(4.01497 -1.84594 0.353544)
(7.45299 -1.8457 0.0368489)
(5.48809 -2.34994 0.234196)
(5.74823 -2.40559 0.102818)
(5.34972 -2.44622 0.18538)
(5.24685 -2.44333 0.13208)
(5.17196 -2.43446 0.167912)
(5.082 -2.43104 0.147491)
(5.06404 -2.4227 0.164093)
(5.01734 -2.42319 0.158572)
(4.99018 -2.41785 0.16728)
(4.97449 -2.4255 0.16995)
(4.88667 -2.42026 0.175542)
(4.89737 -2.44718 0.185265)
(4.61604 -2.4383 0.189532)
(4.67975 -2.52535 0.209431)
(3.79791 -2.52055 0.212573)
(4.0443 -2.88684 0.252594)