/*--------------------------------*- C++ -*----------------------------------*\
  =========                 |
  \\      /  F ield         | OpenFOAM: The Open Source CFD Toolbox
   \\    /   O peration     | Website:  https://openfoam.org
    \\  /    A nd           | Version:  7
     \\/     M anipulation  |
\*---------------------------------------------------------------------------*/
FoamFile
{
    version     2.0;
    format      ascii;
    class       volScalarField;
    location    "1.175";
    object      p_0;
}
// * * * * * * * * * * * * * * * * * * * * * * * * * * * * * * * * * * * * * //

dimensions      [1 -1 -2 0 0 0 0];

internalField   nonuniform List<scalar> 
7920
(
100966
100950
100957
100947
100953
100945
100950
100944
100947
100942
100945
100941
100943
100939
100941
100937
100939
100936
100937
100934
100950
100936
100944
100934
100940
100932
100937
100931
100935
100929
100932
100928
100930
100926
100928
100925
100926
100923
100924
100921
100958
100945
100952
100942
100948
100940
100945
100938
100942
100937
100940
100935
100937
100933
100935
100932
100933
100930
100931
100928
100950
100939
100946
100936
100942
100934
100939
100932
100936
100931
100934
100929
100932
100928
100930
100926
100928
100925
100925
100923
100954
100943
100950
100940
100946
100938
100943
100936
100940
100935
100938
100933
100936
100932
100933
100930
100931
100928
100929
100927
100952
100941
100948
100938
100944
100936
100941
100934
100938
100933
100936
100931
100934
100930
100932
100928
100929
100927
100927
100925
100952
100941
100948
100938
100944
100936
100941
100934
100938
100933
100936
100931
100934
100930
100932
100928
100929
100927
100927
100925
100954
100943
100950
100940
100946
100938
100943
100936
100940
100935
100938
100933
100936
100932
100933
100930
100931
100928
100929
100927
100950
100939
100946
100936
100942
100934
100939
100932
100936
100931
100934
100929
100932
100928
100930
100926
100928
100925
100925
100923
100958
100945
100952
100942
100948
100940
100945
100938
100942
100937
100940
100935
100937
100933
100935
100932
100933
100930
100931
100928
100950
100936
100944
100934
100940
100932
100937
100931
100935
100929
100932
100928
100930
100926
100928
100925
100926
100923
100924
100921
100966
100950
100957
100947
100953
100945
100950
100944
100947
100942
100945
100941
100943
100939
100941
100937
100939
100936
100937
100934
100932
100934
100928
100930
100926
100928
100925
100926
100924
100924
100922
100923
100921
100921
100920
100920
100919
100918
100918
100917
100943
100946
100940
100942
100938
100940
100936
100938
100935
100936
100934
100934
100933
100933
100932
100931
100931
100930
100929
100929
100934
100937
100930
100933
100928
100930
100927
100928
100926
100927
100925
100925
100924
100924
100923
100922
100921
100921
100920
100920
100940
100944
100937
100940
100936
100937
100934
100935
100933
100934
100932
100932
100931
100931
100930
100929
100928
100928
100927
100927
100936
100939
100933
100935
100931
100933
100930
100931
100928
100929
100927
100927
100926
100926
100925
100925
100924
100923
100922
100922
100938
100941
100935
100938
100933
100935
100932
100933
100931
100931
100930
100930
100928
100928
100927
100927
100926
100925
100925
100925
100938
100941
100935
100938
100933
100935
100932
100933
100931
100931
100930
100930
100928
100928
100927
100927
100926
100925
100925
100925
100936
100939
100933
100935
100931
100933
100930
100931
100928
100929
100927
100927
100926
100926
100925
100925
100924
100923
100922
100922
100940
100944
100937
100940
100936
100937
100934
100935
100933
100934
100932
100932
100931
100931
100930
100929
100928
100928
100927
100927
100934
100937
100930
100933
100928
100930
100927
100928
100926
100927
100925
100925
100924
100924
100923
100922
100921
100921
100920
100920
100943
100946
100940
100942
100938
100940
100936
100938
100935
100936
100934
100934
100933
100933
100932
100931
100931
100930
100929
100929
100932
100934
100928
100930
100926
100928
100925
100926
100924
100924
100922
100923
100921
100921
100920
100920
100919
100918
100918
100917
100924
100923
100922
100921
100920
100919
100918
100918
100917
100917
100916
100916
100915
100914
100913
100913
100912
100912
100911
100910
100923
100923
100922
100921
100920
100919
100919
100918
100917
100917
100916
100916
100915
100914
100913
100913
100912
100912
100911
100910
100923
100923
100922
100921
100920
100919
100918
100918
100917
100917
100916
100916
100915
100914
100913
100913
100912
100912
100911
100910
100923
100923
100922
100921
100920
100919
100919
100918
100917
100917
100916
100916
100915
100914
100913
100913
100912
100912
100911
100910
100923
100923
100922
100921
100920
100919
100919
100918
100917
100917
100916
100916
100915
100914
100913
100913
100912
100912
100911
100910
100923
100923
100922
100921
100920
100920
100919
100918
100917
100917
100916
100916
100915
100914
100913
100913
100912
100912
100911
100910
100923
100923
100922
100921
100920
100920
100919
100918
100917
100917
100916
100916
100915
100914
100913
100913
100912
100912
100911
100910
100923
100923
100922
100921
100920
100919
100919
100918
100917
100917
100916
100916
100915
100914
100913
100913
100912
100912
100911
100910
100923
100923
100922
100921
100920
100919
100919
100918
100917
100917
100916
100916
100915
100914
100913
100913
100912
100912
100911
100910
100923
100923
100922
100921
100920
100919
100918
100918
100917
100917
100916
100916
100915
100914
100913
100913
100912
100912
100911
100910
100923
100923
100922
100921
100920
100919
100919
100918
100917
100917
100916
100916
100915
100914
100913
100913
100912
100912
100911
100910
100924
100923
100922
100921
100920
100919
100918
100918
100917
100917
100916
100916
100915
100914
100913
100913
100912
100912
100911
100910
100924
100923
100922
100921
100920
100919
100918
100918
100917
100917
100916
100916
100915
100914
100913
100913
100912
100912
100911
100910
100923
100923
100922
100921
100920
100919
100919
100918
100917
100917
100916
100916
100915
100914
100913
100913
100912
100912
100911
100910
100923
100923
100922
100921
100920
100919
100918
100918
100917
100917
100916
100916
100915
100914
100913
100913
100912
100912
100911
100910
100923
100923
100922
100921
100920
100919
100919
100918
100917
100917
100916
100916
100915
100914
100913
100913
100912
100912
100911
100910
100923
100923
100922
100921
100920
100919
100919
100918
100917
100917
100916
100916
100915
100914
100913
100913
100912
100912
100911
100910
100923
100923
100922
100921
100920
100920
100919
100918
100917
100917
100916
100916
100915
100914
100913
100913
100912
100912
100911
100910
100923
100923
100922
100921
100920
100920
100919
100918
100917
100917
100916
100916
100915
100914
100913
100913
100912
100912
100911
100910
100923
100923
100922
100921
100920
100919
100919
100918
100917
100917
100916
100916
100915
100914
100913
100913
100912
100912
100911
100910
100923
100923
100922
100921
100920
100919
100919
100918
100917
100917
100916
100916
100915
100914
100913
100913
100912
100912
100911
100910
100923
100923
100922
100921
100920
100919
100918
100918
100917
100917
100916
100916
100915
100914
100913
100913
100912
100912
100911
100910
100923
100923
100922
100921
100920
100919
100919
100918
100917
100917
100916
100916
100915
100914
100913
100913
100912
100912
100911
100910
100924
100923
100922
100921
100920
100919
100918
100918
100917
100917
100916
100916
100915
100914
100913
100913
100912
100912
100911
100910
100932
100934
100928
100930
100926
100928
100925
100926
100924
100924
100922
100923
100921
100921
100920
100920
100919
100918
100918
100917
100943
100946
100940
100942
100938
100940
100936
100938
100935
100936
100934
100934
100933
100933
100932
100931
100931
100930
100929
100929
100934
100937
100930
100933
100928
100930
100927
100928
100926
100927
100925
100925
100924
100924
100923
100922
100921
100921
100920
100920
100940
100944
100937
100940
100936
100937
100934
100935
100933
100934
100932
100932
100931
100931
100930
100929
100928
100928
100927
100927
100936
100939
100933
100935
100931
100933
100930
100931
100928
100929
100927
100927
100926
100926
100925
100925
100924
100923
100922
100922
100938
100941
100935
100938
100933
100935
100932
100933
100931
100931
100930
100930
100928
100928
100927
100927
100926
100925
100925
100925
100938
100941
100935
100938
100933
100935
100932
100933
100931
100931
100930
100930
100928
100928
100927
100927
100926
100925
100925
100925
100936
100939
100933
100935
100931
100933
100930
100931
100928
100929
100927
100927
100926
100926
100925
100925
100924
100923
100922
100922
100940
100944
100937
100940
100936
100937
100934
100935
100933
100934
100932
100932
100931
100931
100930
100929
100928
100928
100927
100927
100934
100937
100930
100933
100928
100930
100927
100928
100926
100927
100925
100925
100924
100924
100923
100922
100921
100921
100920
100920
100943
100946
100940
100942
100938
100940
100936
100938
100935
100936
100934
100934
100933
100933
100932
100931
100931
100930
100929
100929
100932
100934
100928
100930
100926
100928
100925
100926
100924
100924
100922
100923
100921
100921
100920
100920
100919
100918
100918
100917
100966
100950
100957
100947
100953
100945
100950
100944
100947
100942
100945
100941
100943
100939
100941
100937
100939
100936
100937
100934
100950
100936
100944
100934
100940
100932
100937
100931
100935
100929
100932
100928
100930
100926
100928
100925
100926
100923
100924
100921
100958
100945
100952
100942
100948
100940
100945
100938
100942
100937
100940
100935
100937
100933
100935
100932
100933
100930
100931
100928
100950
100939
100946
100936
100942
100934
100939
100932
100936
100931
100934
100929
100932
100928
100930
100926
100928
100925
100925
100923
100954
100943
100950
100940
100946
100938
100943
100936
100940
100935
100938
100933
100936
100932
100933
100930
100931
100928
100929
100927
100952
100941
100948
100938
100944
100936
100941
100934
100938
100933
100936
100931
100934
100930
100932
100928
100929
100927
100927
100925
100952
100941
100948
100938
100944
100936
100941
100934
100938
100933
100936
100931
100934
100930
100932
100928
100929
100927
100927
100925
100954
100943
100950
100940
100946
100938
100943
100936
100940
100935
100938
100933
100936
100932
100933
100930
100931
100928
100929
100927
100950
100939
100946
100936
100942
100934
100939
100932
100936
100931
100934
100929
100932
100928
100930
100926
100928
100925
100925
100923
100958
100945
100952
100942
100948
100940
100945
100938
100942
100937
100940
100935
100937
100933
100935
100932
100933
100930
100931
100928
100950
100936
100944
100934
100940
100932
100937
100931
100935
100929
100932
100928
100930
100926
100928
100925
100926
100923
100924
100921
100966
100950
100957
100947
100953
100945
100950
100944
100947
100942
100945
100941
100943
100939
100941
100937
100939
100936
100937
100934
100955
100941
100941
100928
100926
100914
100912
100900
100897
100886
100882
100870
100866
100854
100849
100837
100831
100820
100813
100802
100795
100783
100776
100764
100756
100744
100736
100725
100716
100705
100696
100684
100675
100664
100654
100643
100633
100622
100612
100601
100591
100579
100569
100558
100548
100536
100526
100514
100504
100492
100482
100470
100460
100448
100438
100426
100416
100404
100394
100382
100371
100360
100349
100337
100327
100315
100304
100293
100282
100270
100259
100248
100237
100225
100214
100203
100192
100180
100169
100158
100147
100135
100124
100113
100102
100091
100079
100068
100057
100046
100920
100905
100905
100892
100890
100878
100876
100864
100861
100849
100845
100834
100829
100818
100812
100801
100795
100783
100777
100765
100758
100747
100739
100727
100719
100708
100700
100688
100680
100668
100659
100648
100639
100627
100618
100606
100597
100585
100576
100564
100554
100543
100533
100521
100511
100499
100489
100478
100467
100456
100446
100434
100424
100412
100401
100390
100379
100368
100357
100346
100335
100323
100312
100301
100290
100279
100268
100256
100245
100234
100223
100211
100200
100189
100178
100166
100155
100144
100133
100122
100110
100099
100088
100077
100066
100054
100043
100032
100021
100010
100939
100925
100925
100912
100911
100899
100896
100885
100881
100870
100866
100855
100850
100839
100833
100822
100816
100804
100798
100786
100779
100767
100760
100748
100740
100729
100721
100709
100700
100689
100680
100668
100659
100648
100639
100627
100618
100606
100597
100585
100575
100563
100554
100542
100532
100520
100510
100499
100488
100477
100466
100455
100444
100433
100422
100411
100400
100389
100378
100366
100356
100344
100333
100322
100311
100299
100288
100277
100266
100255
100244
100232
100221
100210
100199
100187
100176
100165
100154
100142
100131
100120
100109
100097
100086
100075
100064
100053
100042
100030
100924
100909
100909
100896
100895
100882
100880
100868
100865
100854
100849
100838
100833
100822
100816
100805
100799
100788
100781
100769
100762
100751
100743
100732
100724
100712
100704
100692
100684
100672
100663
100652
100643
100631
100622
100610
100601
100589
100580
100568
100559
100547
100537
100525
100515
100504
100494
100482
100472
100460
100450
100438
100428
100416
100406
100394
100384
100372
100361
100350
100339
100327
100317
100305
100294
100283
100272
100260
100249
100238
100227
100216
100205
100193
100182
100171
100160
100148
100137
100126
100115
100103
100092
100081
100070
100059
100047
100036
100025
100014
100934
100920
100920
100907
100905
100893
100891
100879
100876
100865
100860
100849
100844
100833
100827
100816
100810
100799
100792
100781
100773
100762
100754
100743
100735
100723
100715
100703
100695
100683
100674
100663
100654
100642
100633
100621
100612
100600
100591
100579
100570
100558
100548
100536
100526
100515
100505
100493
100483
100471
100461
100449
100439
100427
100417
100405
100395
100383
100372
100361
100350
100338
100328
100316
100305
100294
100283
100271
100260
100249
100238
100227
100216
100204
100193
100182
100171
100159
100148
100137
100126
100114
100103
100092
100081
100069
100058
100047
100036
100025
100929
100915
100914
100901
100900
100888
100885
100874
100870
100859
100855
100844
100839
100827
100822
100811
100804
100793
100786
100775
100768
100756
100749
100737
100729
100718
100709
100698
100689
100678
100669
100657
100648
100637
100627
100616
100606
100595
100585
100574
100564
100552
100542
100531
100521
100509
100499
100487
100477
100465
100455
100444
100433
100422
100411
100399
100389
100377
100367
100355
100344
100333
100322
100311
100300
100288
100277
100266
100255
100243
100232
100221
100210
100199
100187
100176
100165
100154
100142
100131
100120
100109
100098
100086
100075
100064
100053
100042
100030
100019
100929
100915
100915
100902
100900
100888
100886
100874
100871
100859
100855
100844
100839
100828
100822
100811
100805
100793
100787
100775
100768
100757
100749
100738
100730
100718
100710
100698
100690
100678
100669
100658
100649
100637
100628
100616
100607
100595
100586
100574
100564
100553
100543
100531
100521
100510
100499
100488
100478
100466
100456
100444
100434
100422
100411
100400
100389
100378
100367
100356
100345
100333
100322
100311
100300
100289
100278
100266
100255
100244
100233
100221
100210
100199
100188
100177
100165
100154
100143
100132
100120
100109
100098
100087
100076
100064
100053
100042
100031
100020
100934
100920
100920
100907
100905
100893
100891
100879
100876
100864
100860
100849
100844
100833
100827
100816
100810
100798
100792
100780
100773
100761
100754
100742
100734
100723
100715
100703
100694
100683
100674
100662
100654
100642
100633
100621
100612
100600
100591
100579
100569
100557
100548
100536
100526
100514
100504
100493
100482
100471
100460
100449
100438
100427
100416
100405
100394
100383
100372
100360
100350
100338
100327
100316
100305
100293
100282
100271
100260
100249
100238
100226
100215
100204
100193
100181
100170
100159
100148
100136
100125
100114
100103
100091
100080
100069
100058
100047
100036
100025
100924
100909
100909
100896
100895
100883
100880
100869
100865
100854
100850
100839
100834
100823
100817
100806
100799
100788
100781
100770
100763
100751
100744
100732
100724
100713
100704
100693
100684
100673
100664
100652
100643
100632
100623
100611
100602
100590
100580
100569
100559
100547
100538
100526
100516
100504
100494
100482
100472
100461
100450
100439
100428
100417
100406
100395
100384
100372
100362
100350
100340
100328
100317
100306
100295
100283
100272
100261
100250
100239
100228
100216
100205
100194
100183
100171
100160
100149
100138
100126
100115
100104
100093
100081
100070
100059
100048
100037
100026
100015
100939
100925
100925
100912
100911
100899
100896
100885
100881
100870
100866
100854
100849
100838
100833
100821
100815
100804
100797
100786
100779
100767
100759
100748
100740
100728
100720
100709
100700
100688
100680
100668
100659
100647
100638
100627
100617
100606
100596
100584
100575
100563
100553
100542
100532
100520
100510
100498
100488
100476
100466
100454
100444
100432
100422
100410
100400
100388
100377
100366
100355
100344
100333
100321
100310
100299
100288
100277
100266
100254
100243
100232
100221
100209
100198
100187
100176
100164
100153
100142
100131
100119
100108
100097
100086
100075
100063
100052
100041
100030
100920
100905
100905
100892
100891
100879
100876
100865
100861
100850
100846
100834
100829
100818
100813
100801
100795
100784
100777
100766
100759
100747
100739
100728
100720
100708
100700
100689
100680
100668
100660
100648
100639
100628
100618
100607
100597
100586
100576
100565
100555
100543
100533
100522
100512
100500
100490
100478
100468
100456
100446
100434
100424
100412
100402
100390
100380
100368
100358
100346
100335
100324
100313
100301
100291
100279
100268
100257
100246
100234
100223
100212
100201
100189
100178
100167
100156
100145
100133
100122
100111
100100
100088
100077
100066
100055
100044
100032
100021
100010
100955
100941
100940
100927
100926
100914
100912
100900
100897
100885
100881
100870
100865
100854
100848
100837
100831
100819
100813
100801
100794
100783
100775
100763
100755
100744
100736
100724
100716
100704
100695
100684
100675
100663
100654
100642
100633
100621
100612
100600
100590
100579
100569
100557
100547
100535
100525
100514
100503
100492
100481
100470
100459
100448
100437
100426
100415
100404
100393
100381
100371
100359
100348
100337
100326
100314
100303
100292
100281
100270
100259
100247
100236
100225
100214
100202
100191
100180
100169
100157
100146
100135
100124
100112
100101
100090
100079
100068
100057
100045
100900
100891
100889
100880
100878
100869
100866
100856
100852
100842
100838
100828
100823
100812
100807
100796
100790
100779
100772
100761
100754
100742
100735
100723
100716
100704
100696
100684
100676
100664
100656
100644
100635
100624
100614
100603
100594
100582
100572
100561
100551
100539
100530
100518
100508
100496
100486
100475
100464
100453
100442
100431
100420
100409
100398
100387
100376
100365
100354
100342
100332
100320
100309
100298
100287
100275
100264
100253
100242
100231
100220
100208
100197
100186
100175
100163
100152
100141
100130
100118
100107
100096
100084
100073
100062
100051
100039
100028
100016
100005
100933
100925
100923
100914
100912
100903
100900
100890
100887
100877
100872
100862
100857
100847
100841
100830
100824
100813
100806
100795
100788
100777
100769
100758
100750
100738
100730
100719
100710
100699
100690
100678
100670
100658
100649
100637
100628
100616
100607
100595
100585
100574
100564
100552
100542
100531
100520
100509
100499
100487
100477
100465
100455
100443
100433
100421
100410
100399
100388
100377
100366
100354
100344
100332
100321
100310
100299
100287
100276
100265
100254
100242
100231
100220
100209
100197
100186
100175
100164
100152
100141
100130
100119
100107
100096
100085
100073
100062
100051
100039
100908
100899
100897
100888
100886
100876
100873
100864
100860
100850
100846
100835
100830
100820
100814
100804
100797
100786
100780
100769
100761
100750
100743
100731
100723
100712
100704
100692
100684
100672
100663
100652
100643
100631
100622
100611
100601
100590
100580
100568
100559
100547
100537
100526
100516
100504
100494
100482
100472
100460
100450
100438
100428
100416
100406
100394
100384
100372
100362
100350
100339
100328
100317
100305
100295
100283
100272
100261
100250
100238
100227
100216
100205
100193
100182
100171
100160
100148
100137
100126
100115
100103
100092
100081
100070
100058
100047
100036
100024
100013
100926
100918
100916
100908
100905
100896
100893
100883
100880
100870
100866
100855
100850
100840
100834
100823
100817
100806
100800
100788
100781
100770
100762
100751
100743
100732
100724
100712
100704
100692
100683
100672
100663
100651
100642
100630
100621
100609
100600
100588
100579
100567
100557
100545
100535
100524
100514
100502
100492
100480
100470
100458
100448
100436
100426
100414
100404
100392
100381
100370
100359
100348
100337
100325
100314
100303
100292
100281
100270
100258
100247
100236
100225
100213
100202
100191
100180
100168
100157
100146
100134
100123
100112
100101
100089
100078
100067
100055
100044
100033
100914
100905
100904
100895
100892
100883
100880
100870
100867
100857
100852
100842
100837
100827
100821
100810
100804
100793
100786
100775
100768
100757
100749
100738
100730
100718
100710
100699
100690
100679
100670
100658
100650
100638
100629
100617
100608
100596
100587
100575
100565
100554
100544
100532
100522
100511
100500
100489
100479
100467
100457
100445
100435
100423
100413
100401
100390
100379
100368
100357
100346
100334
100324
100312
100301
100290
100279
100267
100256
100245
100234
100222
100211
100200
100189
100178
100166
100155
100144
100133
100121
100110
100099
100088
100076
100065
100053
100042
100031
100020
100920
100912
100910
100901
100899
100890
100887
100877
100873
100863
100859
100849
100844
100833
100828
100817
100811
100800
100793
100782
100775
100764
100756
100745
100737
100725
100717
100706
100697
100686
100677
100665
100656
100645
100636
100624
100615
100603
100594
100582
100572
100561
100551
100539
100529
100517
100507
100496
100485
100474
100463
100452
100441
100430
100419
100408
100397
100386
100375
100363
100353
100341
100330
100319
100308
100296
100286
100274
100263
100252
100241
100229
100218
100207
100196
100184
100173
100162
100151
100139
100128
100117
100106
100094
100083
100072
100060
100049
100037
100026
100920
100911
100910
100901
100899
100889
100886
100877
100873
100863
100859
100848
100843
100833
100827
100816
100810
100799
100793
100782
100774
100763
100756
100744
100736
100725
100717
100705
100697
100685
100676
100665
100656
100644
100635
100624
100614
100603
100593
100581
100572
100560
100550
100539
100529
100517
100507
100495
100485
100473
100463
100451
100441
100429
100419
100407
100397
100385
100375
100363
100352
100341
100330
100318
100308
100296
100285
100274
100263
100251
100240
100229
100218
100206
100195
100184
100173
100161
100150
100139
100128
100116
100105
100094
100082
100071
100060
100049
100037
100026
100914
100905
100904
100895
100893
100883
100880
100871
100867
100857
100853
100842
100837
100827
100821
100811
100804
100793
100787
100776
100768
100757
100750
100738
100730
100719
100711
100699
100691
100679
100670
100659
100650
100638
100629
100618
100608
100597
100587
100575
100566
100554
100544
100533
100523
100511
100501
100489
100479
100467
100457
100446
100435
100424
100413
100401
100391
100379
100369
100357
100346
100335
100324
100312
100302
100290
100279
100268
100257
100245
100234
100223
100212
100200
100189
100178
100167
100155
100144
100133
100122
100110
100099
100088
100077
100065
100054
100043
100031
100020
100926
100918
100916
100907
100905
100896
100893
100883
100879
100869
100865
100855
100850
100839
100834
100823
100817
100806
100799
100788
100781
100769
100762
100751
100743
100731
100723
100711
100703
100691
100683
100671
100662
100651
100642
100630
100621
100609
100599
100588
100578
100566
100557
100545
100535
100523
100513
100502
100491
100480
100469
100458
100447
100436
100425
100414
100403
100392
100381
100369
100359
100347
100336
100325
100314
100302
100291
100280
100269
100258
100247
100235
100224
100213
100202
100190
100179
100168
100157
100145
100134
100123
100111
100100
100089
100078
100066
100055
100043
100032
100908
100899
100897
100888
100886
100877
100874
100864
100861
100850
100846
100836
100831
100820
100815
100804
100798
100787
100780
100769
100762
100751
100743
100732
100724
100712
100704
100693
100684
100673
100664
100652
100643
100632
100623
100611
100602
100590
100581
100569
100559
100548
100538
100526
100516
100504
100494
100483
100472
100461
100451
100439
100428
100417
100406
100395
100384
100373
100362
100350
100340
100328
100317
100306
100295
100284
100273
100261
100250
100239
100228
100216
100205
100194
100183
100171
100160
100149
100138
100126
100115
100104
100093
100081
100070
100059
100047
100036
100025
100013
100933
100924
100923
100914
100912
100902
100899
100890
100886
100876
100872
100861
100856
100846
100840
100830
100823
100812
100806
100795
100787
100776
100769
100757
100749
100738
100730
100718
100710
100698
100689
100678
100669
100657
100648
100637
100627
100616
100606
100594
100585
100573
100563
100552
100542
100530
100520
100508
100498
100486
100476
100464
100454
100442
100432
100420
100410
100398
100388
100376
100365
100354
100343
100331
100321
100309
100298
100287
100276
100264
100253
100242
100231
100219
100208
100197
100186
100174
100163
100152
100141
100129
100118
100107
100095
100084
100073
100062
100050
100039
100900
100891
100890
100881
100878
100869
100866
100856
100853
100843
100838
100828
100823
100813
100807
100796
100790
100779
100772
100761
100754
100743
100735
100724
100716
100705
100696
100685
100676
100665
100656
100645
100636
100624
100615
100603
100594
100582
100573
100561
100551
100540
100530
100518
100508
100497
100487
100475
100465
100453
100443
100431
100421
100409
100399
100387
100377
100365
100354
100343
100332
100320
100310
100298
100287
100276
100265
100253
100242
100231
100220
100209
100198
100186
100175
100164
100153
100141
100130
100119
100107
100096
100085
100074
100062
100051
100040
100028
100017
100006
100908
100901
100898
100891
100888
100881
100877
100869
100865
100856
100851
100842
100837
100827
100821
100811
100805
100794
100788
100777
100770
100759
100751
100740
100732
100721
100713
100701
100693
100681
100673
100661
100652
100641
100632
100620
100611
100599
100590
100578
100568
100557
100547
100535
100525
100514
100504
100492
100482
100470
100460
100448
100438
100426
100416
100404
100393
100382
100371
100360
100349
100337
100327
100315
100304
100293
100282
100270
100259
100248
100237
100225
100214
100203
100192
100180
100169
100158
100147
100135
100124
100113
100102
100090
100079
100068
100056
100045
100034
100023
100908
100901
100898
100891
100888
100881
100877
100869
100865
100856
100851
100842
100837
100827
100822
100811
100805
100794
100788
100777
100770
100759
100751
100740
100732
100721
100713
100701
100693
100681
100673
100661
100652
100641
100632
100620
100611
100599
100590
100578
100568
100557
100547
100535
100525
100514
100504
100492
100482
100470
100460
100448
100438
100426
100416
100404
100393
100382
100371
100360
100349
100337
100327
100315
100304
100293
100282
100270
100259
100248
100237
100225
100214
100203
100192
100181
100169
100158
100147
100135
100124
100113
100102
100090
100079
100068
100056
100045
100034
100023
100908
100901
100898
100891
100888
100881
100877
100869
100865
100856
100851
100842
100837
100827
100821
100811
100805
100794
100788
100777
100770
100759
100751
100740
100732
100721
100713
100701
100693
100681
100673
100661
100652
100641
100632
100620
100611
100599
100590
100578
100568
100557
100547
100535
100525
100514
100503
100492
100482
100470
100460
100448
100438
100426
100416
100404
100393
100382
100371
100360
100349
100337
100327
100315
100304
100293
100282
100270
100259
100248
100237
100225
100214
100203
100192
100180
100169
100158
100147
100135
100124
100113
100102
100090
100079
100068
100056
100045
100034
100023
100908
100901
100898
100891
100888
100881
100877
100869
100865
100856
100851
100842
100837
100827
100822
100811
100805
100794
100788
100777
100770
100759
100751
100740
100732
100721
100713
100701
100693
100681
100673
100661
100652
100641
100632
100620
100611
100599
100590
100578
100568
100557
100547
100535
100525
100514
100504
100492
100482
100470
100460
100448
100438
100426
100416
100404
100394
100382
100371
100360
100349
100337
100327
100315
100304
100293
100282
100270
100259
100248
100237
100225
100214
100203
100192
100181
100169
100158
100147
100135
100124
100113
100102
100090
100079
100068
100056
100045
100034
100023
100908
100901
100898
100891
100888
100881
100877
100869
100865
100856
100851
100842
100837
100827
100821
100811
100805
100794
100788
100777
100770
100759
100751
100740
100732
100721
100713
100701
100693
100681
100673
100661
100652
100641
100632
100620
100611
100599
100590
100578
100568
100557
100547
100535
100525
100514
100503
100492
100482
100470
100460
100448
100438
100426
100416
100404
100393
100382
100371
100360
100349
100337
100327
100315
100304
100293
100282
100270
100259
100248
100237
100225
100214
100203
100192
100180
100169
100158
100147
100135
100124
100113
100102
100090
100079
100068
100056
100045
100034
100023
100908
100901
100898
100891
100888
100881
100877
100869
100865
100856
100851
100842
100837
100827
100821
100811
100805
100794
100788
100777
100770
100759
100751
100740
100732
100721
100713
100701
100693
100681
100673
100661
100652
100641
100632
100620
100611
100599
100590
100578
100568
100557
100547
100535
100525
100514
100504
100492
100482
100470
100460
100448
100438
100426
100416
100404
100393
100382
100371
100360
100349
100337
100327
100315
100304
100293
100282
100270
100259
100248
100237
100225
100214
100203
100192
100180
100169
100158
100147
100135
100124
100113
100102
100090
100079
100068
100056
100045
100034
100023
100908
100901
100898
100891
100888
100881
100877
100869
100865
100856
100851
100842
100837
100827
100821
100811
100805
100794
100788
100777
100770
100759
100751
100740
100732
100721
100713
100701
100693
100681
100673
100661
100652
100641
100632
100620
100611
100599
100590
100578
100568
100557
100547
100535
100525
100514
100503