/*--------------------------------*- C++ -*----------------------------------*\
  =========                 |
  \\      /  F ield         | OpenFOAM: The Open Source CFD Toolbox
   \\    /   O peration     | Website:  https://openfoam.org
    \\  /    A nd           | Version:  7
     \\/     M anipulation  |
\*---------------------------------------------------------------------------*/
FoamFile
{
    version     2.0;
    format      ascii;
    class       surfaceScalarField;
    location    "0.085";
    object      phi;
}
// * * * * * * * * * * * * * * * * * * * * * * * * * * * * * * * * * * * * * //

dimensions      [1 0 -1 0 0 0 0];

internalField   nonuniform List<scalar> 
2748
(
0.00483614
2.33293e-05
0.00477655
5.98022e-05
0.00467986
9.6887e-05
0.00455402
0.000126024
0.0044055
0.000148698
0.00424155
0.000164113
0.00406833
0.000173364
0.00389124
0.000177237
0.00371444
0.000176938
0.00354132
0.000173258
0.00337431
0.00016715
0.00321499
0.00015947
0.00306462
0.000150538
0.00292391
0.000140883
0.00279321
0.000130892
0.00267255
0.000120855
0.00256178
0.000110977
0.00246057
0.000101414
0.00236848
9.22732e-05
0.00228503
8.36294e-05
0.00220966
7.55313e-05
0.00214181
6.80033e-05
0.0020809
6.10589e-05
0.00202636
5.46994e-05
0.0019776
4.89162e-05
0.00193408
4.3694e-05
0.00189524
3.90089e-05
0.00186059
3.48306e-05
0.00182963
3.11213e-05
0.00180195
2.78389e-05
0.00177717
2.49394e-05
0.00175495
2.23814e-05
0.00173499
2.01277e-05
0.00171702
1.81466e-05
0.00170078
1.64111e-05
0.00168606
1.48969e-05
0.00167265
1.35814e-05
0.00166038
1.24413e-05
0.0016491
1.14522e-05
0.00163868
1.05901e-05
0.00162901
9.83465e-06
0.00162001
9.17042e-06
0.00161159
8.58757e-06
0.00160367
8.07883e-06
0.00159619
7.63669e-06
0.00158909
7.2533e-06
0.00158233
6.9189e-06
0.00157585
6.62661e-06
0.00156964
6.36797e-06
0.00156365
6.14084e-06
0.00155786
5.93675e-06
0.00155226
5.7586e-06
0.00154682
5.59365e-06
0.00154152
5.45157e-06
0.00153637
5.3125e-06
0.00153133
5.19706e-06
0.00152641
5.07621e-06
0.00152159
4.97866e-06
0.00151687
4.88157e-06
4.79572e-06
0.00151223
0.00486665
1.60417e-05
0.00488451
4.21459e-05
0.00491255
6.90405e-05
0.00494635
9.24163e-05
0.00498186
0.000113356
0.00501546
0.00013068
0.00504438
0.000144591
0.00506686
0.000154888
0.00508204
0.000161886
0.00508965
0.000165765
0.00509
0.000166916
0.00508377
0.000165821
0.00507169
0.000162744
0.0050546
0.000158116
0.00503334
0.000152293
0.00500875
0.000145612
0.00498155
0.000138355
0.0049524
0.000130763
0.00492185
0.000123038
0.00489036
0.00011534
0.00485832
0.000107798
0.00482604
0.000100509
0.00479378
9.35502e-05
0.00476173
8.69743e-05
0.00473004
8.08197e-05
0.00469883
7.51092e-05
0.00466817
6.98515e-05
0.00463813
6.50429e-05
0.00460874
6.06685e-05
0.00458001
5.67049e-05
0.00455195
5.31231e-05
0.00452455
4.98917e-05
0.00449781
4.69791e-05
0.00447171
4.43553e-05
0.00444624
4.19926e-05
0.00442139
3.98654e-05
0.00439716
3.79495e-05
0.00437354
3.62211e-05
0.00435051
3.46568e-05
0.00432806
3.32345e-05
0.00430617
3.19348e-05
0.00428482
3.07429e-05
0.00426399
2.96478e-05
0.00424366
2.86417e-05
0.00422381
2.77167e-05
0.00420442
2.68661e-05
0.00418545
2.6081e-05
0.0041669
2.53556e-05
0.00414874
2.46801e-05
0.00413096
2.40514e-05
0.00411354
2.34577e-05
0.00409649
2.29002e-05
0.0040798
2.23628e-05
0.00406348
2.1854e-05
0.00404754
2.13527e-05
0.00403198
2.08779e-05
0.00401679
2.04064e-05
0.00400197
1.99617e-05
0.00398751
1.95316e-05
1.91189e-05
0.00397338
0.00486464
1.07434e-05
0.00487739
2.95982e-05
0.00489788
4.87476e-05
0.00492492
6.55637e-05
0.00495763
8.08201e-05
0.00499489
9.35777e-05
0.00503557
0.000104062
0.00507851
0.000112084
0.00512265
0.000117869
0.00516701
0.000121525
0.00521074
0.000123299
0.00525319
0.00012349
0.00529379
0.000122272
0.00533212
0.000119914
0.00536791
0.000116642
0.005401
0.000112675
0.00543133
0.0001082
0.00545889
0.000103384
0.00548377
9.83682e-05
0.00550606
9.32725e-05
0.00552589
8.81945e-05
0.00554343
8.32149e-05
0.00555883
7.83979e-05
0.00557227
7.37934e-05
0.0055839
6.94401e-05
0.00559388
6.53652e-05
0.00560238
6.15847e-05
0.00560954
5.81046e-05
0.00561548
5.49214e-05
0.00562034
5.20245e-05
0.00562422
4.93982e-05
0.00562722
4.70237e-05
0.00562943
4.48808e-05
0.00563093
4.29495e-05
0.0056318
4.12104e-05
0.0056321
3.96452e-05
0.00563188
3.82364e-05
0.00563121
3.69663e-05
0.00563014
3.58171e-05
0.0056287
3.47722e-05
0.00562694
3.38167e-05
0.00562488
3.294e-05
0.00562256
3.21341e-05
0.00562
3.13938e-05
0.00561722
3.07136e-05
0.00561423
3.00887e-05
0.00561105
2.95125e-05
0.00560768
2.89814e-05
0.00560414
2.84882e-05
0.00560042
2.80314e-05
0.00559653
2.76015e-05
0.00559247
2.71987e-05
0.00558823
2.68089e-05
0.00558384
2.64367e-05
0.00557929
2.6066e-05
0.00557459
2.571e-05
0.00556975
2.53549e-05
0.00556478
2.50162e-05
0.00555968
2.46901e-05
2.43778e-05
0.00555447
0.00486314
6.88674e-06
0.00487347
1.94748e-05
0.00489031
3.21063e-05
0.00491295
4.31165e-05
0.00494089
5.30513e-05
0.00497331
6.13199e-05
0.0050094
6.81107e-05
0.00504831
7.33145e-05
0.00508922
7.70895e-05
0.00513135
7.9516e-05
0.00517401
8.07476e-05
0.00521666
8.09581e-05
0.00525878
8.02694e-05
0.00529998
7.88481e-05
0.00533993
7.68292e-05
0.00537841
7.43506e-05
0.00541525
7.15301e-05
0.00545035
6.84752e-05
0.00548365
6.52768e-05
0.00551513
6.20137e-05
0.00554481
5.87506e-05
0.00557273
5.55416e-05
0.00559895
5.24297e-05
0.00562355
4.94488e-05
0.00564662
4.66247e-05
0.00566826
4.39761e-05
0.00568856
4.15143e-05
0.00570765
3.92446e-05
0.00572561
3.71663e-05
0.00574254
3.52739e-05
0.00575854
3.35586e-05
0.00577369
3.20093e-05
0.00578807
3.06136e-05
0.00580176
2.9359e-05
0.00581482
2.82327e-05
0.00582731
2.72228e-05
0.00583929
2.63172e-05
0.00585081
2.55045e-05
0.00586191
2.47735e-05
0.00587265
2.41136e-05
0.00588304
2.35154e-05
0.00589313
2.29714e-05
0.00590293
2.24754e-05
0.00591246
2.20234e-05
0.00592176
2.16111e-05
0.00593083
2.12357e-05
0.00593969
2.08929e-05
0.00594835
2.05805e-05
0.00595683
2.0293e-05
0.00596512
2.00294e-05
0.00597323
1.97824e-05
0.00598116
1.95532e-05
0.00598891
1.93326e-05
0.00599647
1.91254e-05
0.00600383
1.89215e-05
0.00601101
1.87298e-05
0.00601798
1.85421e-05
0.00602476
1.83668e-05
0.00603134
1.82021e-05
1.80472e-05
0.00603773
0.00486278
3.378e-06
0.00487297
9.49526e-06
0.00488967
1.55973e-05
0.00491196
2.10155e-05
0.00493923
2.59607e-05
0.00497058
3.01264e-05
0.00500525
3.35878e-05
0.00504243
3.62669e-05
0.00508142
3.82297e-05
0.00512155
3.95071e-05
0.00516224
4.01723e-05
0.005203
4.03116e-05
0.0052434
3.99905e-05
0.00528309
3.92944e-05
0.00532176
3.82943e-05
0.00535921
3.70615e-05
0.00539525
3.56566e-05
0.00542978
3.41348e-05
0.00546272
3.25419e-05
0.00549404
3.09173e-05
0.00552374
2.92933e-05
0.00555183
2.76966e-05
0.00557836
2.61487e-05
0.0056034
2.46663e-05
0.00562702
2.32621e-05
0.0056493
2.19451e-05
0.00567033
2.07209e-05
0.0056902
1.95918e-05
0.00570901
1.85577e-05
0.00572685
1.76158e-05
0.0057438
1.67618e-05
0.00575995
1.59902e-05
0.00577539
1.52948e-05
0.00579017
1.46696e-05
0.00580437
1.41084e-05
0.00581805
1.36052e-05
0.00583127
1.31542e-05
0.00584408
1.27496e-05
0.00585653
1.23858e-05
0.00586866
1.20578e-05
0.00588051
1.17607e-05
0.00589211
1.14911e-05
0.00590349
1.12456e-05
0.00591466
1.10224e-05
0.00592564
1.08191e-05
0.00593647
1.06348e-05
0.00594714
1.04668e-05
0.00595768
1.03148e-05
0.00596809
1.01753e-05
0.00597837
1.00488e-05
0.00598852
9.93062e-06
0.00599854
9.8226e-06
0.00600843
9.71886e-06
0.00601818
9.62316e-06
0.0060278
9.52918e-06
0.00603728
9.44242e-06
0.00604662
9.35812e-06
0.00605583
9.28053e-06
0.00606491
9.20939e-06
9.14343e-06
0.00607386
0.00486263
-2.54747e-14
0.00487234
2.38753e-12
0.00488813
6.84656e-12
0.00490933
9.37688e-12
0.00493547
1.59378e-11
0.00496576
2.12642e-11
0.00499949
2.86663e-11
0.00503589
3.51118e-11
0.00507425
4.26302e-11
0.00511388
5.19435e-11
0.00515416
6.36616e-11
0.00519459
7.87223e-11
0.0052347
9.77864e-11
0.00527413
1.20585e-10
0.00531256
1.47625e-10
0.00534978
1.80748e-10
0.00538561
2.21513e-10
0.00541993
2.69892e-10
0.00545268
3.25492e-10
0.00548382
3.88961e-10
0.00551335
4.6228e-10
0.0055413
5.48158e-10
0.0055677
6.49178e-10
0.00559262
7.6824e-10
0.00561614
9.07858e-10
0.00563833
1.07142e-09
0.00565928
1.2615e-09
0.00567909
1.48308e-09
0.00569785
1.73948e-09
0.00571564
2.03884e-09
0.00573255
2.38507e-09
0.00574867
2.79044e-09
0.00576408
3.25731e-09
0.00577883
3.80612e-09
0.00579301
4.43398e-09
0.00580668
5.17681e-09
0.00581988
6.01916e-09
0.00583268
7.02329e-09
0.00584512
8.14758e-09
0.00585724
9.50319e-09
0.00586909
1.09957e-08
0.00588069
1.28277e-08
0.00589207
1.47987e-08
0.00590324
1.72774e-08
0.00591424
1.98688e-08
0.00592508
2.32266e-08
0.00593578
2.6612e-08
0.00594634
3.11552e-08
0.00595677
3.55644e-08
0.00596708
4.16833e-08
0.00597726
4.74425e-08
0.00598732
5.56003e-08
0.00599725
6.32156e-08
0.00600705
7.38662e-08
0.00601671
8.41332e-08
0.00602624
9.76354e-08
0.00603564
1.11669e-07
0.00604491
1.28218e-07
0.00605405
1.47136e-07
1.66889e-07
0.00606306
0.00486263
-3.378e-06
0.00487234
-9.49525e-06
0.00488813
-1.55973e-05
0.00490933
-2.10155e-05
0.00493547
-2.59606e-05
0.00496576
-3.01263e-05
0.00499949
-3.35878e-05
0.00503589
-3.62668e-05
0.00507425
-3.82297e-05
0.00511388
-3.9507e-05
0.00515416
-4.01722e-05
0.00519459
-4.03115e-05
0.0052347
-3.99903e-05
0.00527413
-3.92942e-05
0.00531256
-3.8294e-05
0.00534978
-3.70611e-05
0.00538561
-3.56562e-05
0.00541993
-3.41342e-05
0.00545268
-3.25412e-05
0.00548382
-3.09165e-05
0.00551335
-2.92924e-05
0.0055413
-2.76955e-05
0.0055677
-2.61474e-05
0.00559262
-2.46648e-05
0.00561614
-2.32603e-05
0.00563833
-2.1943e-05
0.00565928
-2.07184e-05
0.0056791
-1.95889e-05
0.00569785
-1.85542e-05
0.00571564
-1.76118e-05
0.00573255
-1.67571e-05
0.00574867
-1.59847e-05
0.00576408
-1.52884e-05
0.00577883
-1.46621e-05
0.00579301
-1.40996e-05
0.00580668
-1.3595e-05
0.00581988
-1.31423e-05
0.00583268
-1.27357e-05
0.00584512
-1.23697e-05
0.00585724
-1.20389e-05
0.00586909
-1.17389e-05
0.00588069
-1.14656e-05
0.00589207
-1.12162e-05
0.00590325
-1.09881e-05
0.00591425
-1.07797e-05
0.00592509
-1.05887e-05
0.00593578
-1.0414e-05
0.00594634
-1.0253e-05
0.00595678
-1.01048e-05
0.00596709
-9.96613e-06
0.00597727
-9.83658e-06
0.00598733
-9.71227e-06
0.00599726
-9.59355e-06
0.00600706
-9.4765e-06
0.00601672
-9.36233e-06
0.00602625
-9.24845e-06
0.00603565
-9.13639e-06
0.00604492
-9.0256e-06
0.00605406
-8.91662e-06
-8.81116e-06
0.00606308
0.00486278
-6.88673e-06
0.00487297
-1.94748e-05
0.00488967
-3.21063e-05
0.00491196
-4.31165e-05
0.00493923
-5.30513e-05
0.00497058
-6.13199e-05
0.00500525
-6.81107e-05
0.00504243
-7.33144e-05
0.00508142
-7.70894e-05
0.00512155
-7.95159e-05
0.00516224
-8.07475e-05
0.005203
-8.09579e-05
0.0052434
-8.02692e-05
0.00528309
-7.88478e-05
0.00532176
-7.68289e-05
0.00535921
-7.43503e-05
0.00539525
-7.15297e-05
0.00542978
-6.84747e-05
0.00546272
-6.52762e-05
0.00549404
-6.2013e-05
0.00552374
-5.87497e-05
0.00555183
-5.55406e-05
0.00557836
-5.24285e-05
0.0056034
-4.94473e-05
0.00562702
-4.6623e-05
0.0056493
-4.3974e-05
0.00567033
-4.15119e-05
0.0056902
-3.92418e-05
0.00570901
-3.71629e-05
0.00572685
-3.527e-05
0.0057438
-3.35541e-05
0.00575996
-3.2004e-05
0.00577539
-3.06074e-05
0.00579017
-2.93517e-05
0.00580437
-2.82242e-05
0.00581806
-2.72128e-05
0.00583127
-2.63056e-05
0.00584409
-2.5491e-05
0.00585654
-2.47578e-05
0.00586867
-2.40954e-05
0.00588052
-2.34943e-05
0.00589212
-2.29468e-05
0.00590349
-2.2447e-05
0.00591466
-2.19902e-05
0.00592565
-2.15729e-05
0.00593648
-2.11911e-05
0.00594715
-2.08417e-05
0.00595769
-2.05205e-05
0.0059681
-2.02246e-05
0.00597838
-1.9949e-05
0.00598854
-1.96912e-05
0.00599856
-1.94458e-05
0.00600845
-1.92111e-05
0.00601821
-1.89824e-05
0.00602783
-1.87596e-05
0.00603732
-1.85405e-05
0.00604666
-1.83262e-05
0.00605588
-1.81175e-05
0.00606496
-1.79152e-05
-1.77209e-05
0.00607392
0.00486314
-1.07434e-05
0.00487347
-2.95982e-05
0.00489031
-4.87476e-05
0.00491295
-6.55637e-05
0.00494089
-8.08201e-05
0.00497331
-9.35777e-05
0.0050094
-0.000104062
0.00504831
-0.000112084
0.00508922
-0.000117869
0.00513135
-0.000121525
0.00517401
-0.000123298
0.00521666
-0.00012349
0.00525878
-0.000122271
0.00529998
-0.000119914
0.00533993
-0.000116642
0.00537841
-0.000112675
0.00541525
-0.000108199
0.00545035
-0.000103384
0.00548365
-9.83677e-05
0.00551513
-9.32718e-05
0.00554481
-8.81937e-05
0.00557273
-8.3214e-05
0.00559895
-7.83967e-05
0.00562355
-7.3792e-05
0.00564662
-6.94385e-05
0.00566826
-6.53633e-05
0.00568857
-6.15825e-05
0.00570765
-5.81019e-05
0.00572561
-5.49183e-05
0.00574254
-5.20209e-05
0.00575854
-4.93939e-05
0.00577369
-4.70187e-05
0.00578807
-4.4875e-05
0.00580176
-4.29427e-05
0.00581482
-4.12025e-05
0.00582731
-3.9636e-05
0.00583929
-3.82256e-05
0.00585081
-3.69537e-05
0.00586192
-3.58026e-05
0.00587266
-3.47553e-05
0.00588305
-3.37971e-05
0.00589314
-3.29172e-05
0.00590294
-3.21078e-05
0.00591248
-3.13631e-05
0.00592178
-3.06783e-05
0.00593085
-3.00475e-05
0.00593971
-2.94654e-05
0.00594838
-2.89261e-05
0.00595687
-2.84253e-05
0.00596516
-2.79574e-05
0.00597328
-2.75179e-05
0.00598122
-2.70998e-05
0.00598898
-2.66978e-05
0.00599655
-2.63049e-05
0.00600393
-2.59183e-05
0.00601112
-2.55355e-05
0.00601811
-2.51575e-05
0.00602491
-2.47864e-05
0.00603151
-2.44251e-05
-2.40762e-05
0.00603792
0.00486464
-1.60417e-05
0.00487739
-4.21459e-05
0.00489788
-6.90405e-05
0.00492492
-9.24163e-05
0.00495763
-0.000113356
0.00499489
-0.00013068
0.00503557
-0.000144591
0.00507851
-0.000154888
0.00512265
-0.000161886
0.00516701
-0.000165765
0.00521074
-0.000166916
0.00525319
-0.000165821
0.00529379
-0.000162744
0.00533212
-0.000158116
0.00536791
-0.000152293
0.005401
-0.000145612
0.00543133
-0.000138354
0.00545889
-0.000130763
0.00548377
-0.000123038
0.00550606
-0.00011534
0.0055259
-0.000107797
0.00554343
-0.000100508
0.00555884
-9.35493e-05
0.00557227
-8.69732e-05
0.0055839
-8.08184e-05
0.00559389
-7.51077e-05
0.00560239
-6.98497e-05
0.00560954
-6.50408e-05
0.00561549
-6.0666e-05
0.00562034
-5.6702e-05
0.00562422
-5.31197e-05
0.00562722
-4.98877e-05
0.00562944
-4.69744e-05
0.00563094
-4.43499e-05
0.00563181
-4.19863e-05
0.00563211
-3.98581e-05
0.0056319
-3.7941e-05
0.00563123
-3.62112e-05
0.00563016
-3.46454e-05
0.00562872
-3.32213e-05
0.00562697
-3.19195e-05
0.00562492
-3.07251e-05
0.0056226
-2.96274e-05
0.00562005
-2.86179e-05
0.00561727
-2.76894e-05
0.00561429
-2.68343e-05
0.00561112
-2.60449e-05
0.00560777
-2.53131e-05
0.00560424
-2.46321e-05
0.00560054
-2.39946e-05
0.00559667
-2.33943e-05
0.00559263
-2.28244e-05
0.00558842
-2.22793e-05
0.00558406
-2.1753e-05
0.00557954
-2.12422e-05
0.00557489
-2.07442e-05
0.0055701
-2.02586e-05
0.00556518
-1.97865e-05
0.00556015
-1.93295e-05
-1.88896e-05
0.00555501
0.00486665
-2.33294e-05
0.00488451
-5.98022e-05
0.00491255
-9.6887e-05
0.00494635
-0.000126024
0.00498186
-0.000148698
0.00501546
-0.000164113
0.00504438
-0.000173364
0.00506686
-0.000177237
0.00508204
-0.000176938
0.00508965
-0.000173258
0.00509
-0.00016715
0.00508377
-0.00015947
0.00507169
-0.000150538
0.0050546
-0.000140883
0.00503334
-0.000130892
0.00500875
-0.000120855
0.00498155
-0.000110977
0.0049524
-0.000101414
0.00492185
-9.2273e-05
0.00489036
-8.36291e-05
0.00485832
-7.55309e-05
0.00482605
-6.80028e-05
0.00479378
-6.10584e-05
0.00476173
-5.46988e-05
0.00473005
-4.89155e-05
0.00469883
-4.36931e-05
0.00466818
-3.9008e-05
0.00463814
-3.48295e-05
0.00460875
-3.112e-05
0.00458002
-2.78374e-05
0.00455196
-2.49376e-05
0.00452457
-2.23793e-05
0.00449782
-2.01253e-05
0.00447172
-1.81437e-05
0.00444626
-1.64078e-05
0.00442142
-1.48931e-05
0.00439719
-1.3577e-05
0.00437357
-1.24363e-05
0.00435055
-1.14463e-05
0.0043281
-1.05834e-05
0.00430622
-9.82691e-06
0.00428488
-9.16143e-06
0.00426406
-8.57728e-06
0.00424375
-8.06687e-06
0.00422391
-7.62307e-06
0.00420453
-7.23734e-06
0.00418558
-6.9009e-06
0.00416705
-6.60533e-06
0.00414891
-6.34424e-06
0.00413116
-6.1124e-06
0.00411378
-5.90578e-06
0.00409676
-5.72052e-06
0.00408012
-5.5534e-06
0.00406385
-5.40054e-06
0.00404797
-5.25996e-06
0.00403247
-5.12913e-06
0.00401736
-5.00584e-06
0.00400263
-4.88972e-06
0.00398826
-4.78081e-06
-4.67851e-06
0.00397425
0.00483614
0.00477655
0.00467986
0.00455402
0.0044055
0.00424155
0.00406833
0.00389124
0.00371444
0.00354132
0.00337431
0.00321499
0.00306462
0.00292391
0.00279321
0.00267255
0.00256178
0.00246057
0.00236849
0.00228503
0.00220966
0.00214181
0.0020809
0.00202636
0.00197761
0.00193408
0.00189525
0.00186059
0.00182964
0.00180196
0.00177718
0.00175497
0.00173501
0.00171704
0.00170081
0.00168609
0.00167268
0.00166042
0.00164914
0.00163873
0.00162907
0.00162008
0.00161167
0.00160376
0.0015963
0.00158921
0.00158246
0.00157601
0.00156982
0.00156386
0.0015581
0.00155254
0.00154714
0.00154189
0.00153679
0.00153182
0.00152697
0.00152224
0.00151762
0.00151309
0.00150764
4.73428e-06
0.00150313
4.6557e-06
0.00149866
4.59837e-06
0.00149426
4.54139e-06
0.00148992
4.49012e-06
0.00148563
4.43243e-06
0.00148141
4.37012e-06
0.00147725
4.30215e-06
0.00147315
4.23474e-06
0.00146911
4.16775e-06
0.00146516
4.09746e-06
0.00146128
4.0216e-06
0.00145747
3.94842e-06
0.00145373
3.88583e-06
0.00145003
3.83596e-06
0.00144637
3.79575e-06
0.00144274
3.76448e-06
0.00143913
3.74359e-06
0.00143553
3.72924e-06
0.00143194
3.71794e-06
0.00142836
3.7121e-06
0.00142478
3.71368e-06
0.0014212
3.72156e-06
0.00141762
3.7321e-06
0.00141402
3.74571e-06
0.00141041
3.76647e-06
0.00140677
3.79397e-06
0.00140311
3.82515e-06
0.00139942
3.86075e-06
0.00139571
3.90532e-06
0.00139196
3.95777e-06
0.00138817
4.00771e-06
0.00138436
4.04652e-06
0.00138051
4.07383e-06
0.00137664
4.08902e-06
0.00137277
4.08549e-06
0.00136892
4.05405e-06
0.00136513
3.99447e-06
0.00136141
3.91136e-06
0.0013578
3.80213e-06
0.00135434
3.66822e-06
0.00135103
3.51678e-06
0.0013479
3.35272e-06
0.00134496
3.17337e-06
0.00134221
2.97775e-06
0.00133968
2.77049e-06
0.00133734
2.55972e-06
0.00133521
2.34948e-06
0.00133329
2.13923e-06
0.00133156
1.93717e-06
0.00133002
1.73887e-06
0.00132868
1.5507e-06
0.00132752
1.37147e-06
0.00132654
1.19511e-06
0.0013257
1.05961e-06
0.00132502
9.05685e-07
0.00132439
8.59008e-07
0.00132389
7.26009e-07
0.00132336
7.62086e-07
7.40044e-07
0.00395958
1.87474e-05
0.00394606
1.83825e-05
0.00393282
1.80463e-05
0.00391983
1.77212e-05
0.00390709
1.74129e-05
0.00389458
1.71105e-05
0.00388229
1.68162e-05
0.00387019
1.65282e-05
0.00385829
1.62499e-05
0.00384658
1.59776e-05
0.00383507
1.57088e-05
0.00382373
1.54439e-05
0.00381258
1.51886e-05
0.00380161
1.49474e-05
0.00379083
1.47227e-05
0.00378024
1.45132e-05
0.00376982
1.43184e-05
0.00375958
1.41388e-05
0.0037495
1.39742e-05
0.00373957
1.38247e-05
0.00372977
1.36909e-05
0.00372009
1.3573e-05
0.00371052
1.34718e-05
0.00370103
1.33875e-05
0.0036916
1.33183e-05
0.00368224
1.32625e-05
0.00367293
1.32208e-05
0.00366366
1.31923e-05
0.00365443
1.31736e-05
0.00364525
1.31613e-05
0.00363613
1.31482e-05
0.0036271
1.31226e-05
0.00361817
1.30728e-05
0.00360938
1.29882e-05
0.00360075
1.2859e-05
0.00359233
1.26757e-05
0.00358415
1.24296e-05
0.00357624
1.21172e-05
0.00356864
1.17395e-05
0.00356137
1.12979e-05
0.00355445
1.08002e-05
0.00354791
1.02545e-05
0.00354176
9.67289e-06
0.00353601
9.06167e-06
0.00353066
8.43157e-06
0.00352572
7.79106e-06
0.00352119
7.15328e-06
0.00351706
6.52524e-06
0.00351334
5.90834e-06
0.00351002
5.31258e-06
0.00350712
4.73377e-06
0.00350461
4.18138e-06
0.00350249
3.66045e-06
0.00350073
3.15254e-06
0.0034993
2.72615e-06
0.00349822
2.26008e-06
0.00349739
1.99503e-06
0.00349683
1.59784e-06
0.00349638
1.55003e-06
1.42868e-06
0.00554917
2.40932e-05
0.00554377
2.38162e-05
0.00553831
2.356e-05
0.0055328
2.33107e-05
0.00552724
2.30723e-05
0.00552165
2.28363e-05
0.00551602
2.2605e-05
0.00551037
2.23763e-05
0.0055047
2.21524e-05
0.00549898
2.19326e-05
0.00549322
2.17178e-05
0.00548741
2.15081e-05
0.00548154
2.13066e-05
0.0054756
2.11165e-05
0.00546959
2.094e-05
0.00546352
2.07766e-05
0.00545738
2.06257e-05
0.00545117
2.04885e-05
0.00544489
2.03659e-05
0.00543854
2.02585e-05
0.00543214
2.01667e-05
0.00542567
2.00912e-05
0.00541914
2.00331e-05
0.00541256
1.99915e-05
0.00540593
1.99638e-05
0.00539926
1.99491e-05
0.00539255
1.9946e-05
0.00538582
1.99499e-05
0.00537908
1.99548e-05
0.00537235
1.99537e-05
0.00536565
1.99379e-05
0.00535899
1.9896e-05
0.0053524
1.98143e-05
0.00534588
1.96815e-05
0.00533947
1.94898e-05
0.00533315
1.92323e-05
0.00532694
1.89026e-05
0.00532085
1.84957e-05
0.00531488
1.80156e-05
0.00530901
1.74655e-05
0.00530326
1.68546e-05
0.00529761
1.61893e-05
0.00529205
1.54851e-05
0.00528659
1.47483e-05
0.00528121
1.39889e-05
0.00527592
1.32136e-05
0.00527072
1.24308e-05
0.00526562
1.16482e-05
0.00526065
1.08558e-05
0.00525582
1.00705e-05
0.00525118
9.27133e-06
0.00524674
8.47736e-06
0.00524257
7.6812e-06
0.0052387
6.86723e-06
0.00523515
6.12431e-06
0.00523202
5.27922e-06
0.00522922
4.71227e-06
0.00522697
3.84365e-06
0.00522489
3.63551e-06
2.83091e-06
0.00604394
1.79102e-05
0.00604999
1.7778e-05
0.00605588
1.76584e-05
0.00606164
1.75417e-05
0.00606728
1.74305e-05
0.00607281
1.73192e-05
0.00607826
1.72094e-05
0.00608363
1.70994e-05
0.00608893
1.69909e-05
0.00609417
1.68839e-05
0.00609933
1.67786e-05
0.00610442
1.66745e-05
0.00610943
1.6574e-05
0.00611436
1.64799e-05
0.00611921
1.63943e-05
0.00612396
1.6318e-05
0.00612862
1.62512e-05
0.00613317
1.61953e-05
0.00613762
1.61519e-05
0.00614196
1.61207e-05
0.0061462
1.61021e-05
0.00615033
1.60962e-05
0.00615436
1.61029e-05
0.0061583
1.61226e-05
0.00616214
1.61531e-05
0.00616591
1.61907e-05
0.0061696
1.6233e-05
0.00617323
1.62775e-05
0.00617682
1.6319e-05
0.00618036
1.63511e-05
0.00618388
1.63675e-05
0.00618737
1.63591e-05
0.00619084
1.63169e-05
0.00619428
1.62327e-05
0.0061977
1.61005e-05
0.00620109
1.59142e-05
0.00620443
1.5669e-05
0.00620772
1.5361e-05
0.00621094
1.4994e-05
0.00621407
1.45705e-05
0.00621711
1.4098e-05
0.00622004
1.35807e-05
0.00622285
1.30294e-05
0.00622551
1.24492e-05
0.00622804
1.18471e-05
0.0062304
1.12296e-05
0.0062326
1.05983e-05
0.00623463
9.96323e-06
0.00623649
9.3102e-06
0.00623817
8.65991e-06
0.00623967
7.98609e-06
0.00624099
7.31585e-06
0.00624213
6.62804e-06
0.00624309
5.93402e-06
0.00624389
5.27347e-06
0.00624452
4.55303e-06
0.00624503
4.01854e-06
0.00624537
3.2803e-06
0.00624571
3.0258e-06
2.29383e-06
0.0060827
9.0879e-06
0.00609143
9.03547e-06
0.00610007
8.9912e-06
0.00610864
8.94902e-06
0.00611714
8.91091e-06
0.00612559
8.87289e-06
0.006134
8.83587e-06
0.00614239
8.79805e-06
0.00615076
8.75998e-06
0.0061591
8.72122e-06
0.00616743
8.68214e-06
0.00617573
8.64207e-06
0.006184
8.60215e-06
0.00619223
8.56362e-06
0.00620042
8.52785e-06
0.00620856
8.49562e-06
0.00621665
8.46718e-06
0.00622469
8.44345e-06
0.00623267
8.42555e-06
0.0062406
8.41347e-06
0.00624849
8.40742e-06
0.00625633
8.40765e-06
0.00626413
8.4143e-06
0.0062719
8.42759e-06
0.00627964
8.4466e-06
0.00628736
8.46959e-06
0.00629507
8.49521e-06
0.00630277
8.52206e-06
0.00631047
8.5474e-06
0.00631817
8.56777e-06
0.00632586
8.57992e-06
0.00633356
8.57947e-06
0.00634124
8.56164e-06
0.00634889
8.52204e-06
0.00635651
8.45776e-06
0.00636407
8.36572e-06
0.00637155
8.24347e-06
0.00637893
8.08794e-06
0.00638618
7.90133e-06
0.00639327
7.68471e-06
0.00640019
7.44262e-06
0.0064069
7.17618e-06
0.00641339
6.89215e-06
0.00641964
6.59155e-06
0.00642563
6.28027e-06
0.00643134
5.95847e-06
0.00643675
5.63187e-06
0.00644185
5.29996e-06
0.00644661
4.96333e-06
0.00645104
4.62147e-06
0.00645509
4.27531e-06
0.00645876
3.92043e-06
0.00646203
3.56904e-06
0.00646489
3.20338e-06
0.00646734
2.87026e-06
0.00646937
2.49872e-06
0.00647104
2.22729e-06
0.00647225
1.86681e-06
0.00647328
1.72037e-06
1.39886e-06
0.00607197
1.90664e-07
0.00608077
2.13889e-07
0.00608949
2.39939e-07
0.00609814
2.65114e-07
0.00610673
2.91225e-07
0.0061153
3.16026e-07
0.00612384
3.40339e-07
0.00613237
3.62952e-07
0.0061409
3.84293e-07
0.00614942
4.03782e-07
0.00615792
4.21759e-07
0.00616641
4.37804e-07
0.00617488
4.52055e-07
0.0061833
4.64521e-07
0.00619168
4.75408e-07
0.00620002
4.84819e-07
0.0062083
4.92807e-07
0.00621653
4.99632e-07
0.0062247
5.0567e-07
0.00623282
5.10907e-07
0.00624089
5.15538e-07
0.00624892
5.19609e-07
0.00625691
5.23207e-07
0.00626487
5.2649e-07
0.00627281
5.29249e-07
0.00628073
5.31492e-07
0.00628865
5.33278e-07
0.00629657
5.34763e-07
0.00630449
5.3602e-07
0.00631242
5.36727e-07
0.00632036
5.36976e-07
0.00632831
5.36785e-07
0.00633625
5.35871e-07
0.00634418
5.34072e-07
0.00635209
5.31755e-07
0.00635994
5.29068e-07
0.00636773
5.26201e-07
0.00637541
5.221e-07
0.00638297
5.17504e-07
0.00639037
5.11845e-07
0.0063976
5.06422e-07
0.00640461
4.99478e-07
0.0064114
4.93357e-07
0.00641793
4.85199e-07
0.00642418
4.79629e-07
0.00643014
4.71289e-07
0.00643577
4.68838e-07
0.00644106
4.61612e-07
0.006446
4.63522e-07
0.00645056
4.56258e-07
0.00645471
4.63329e-07
0.00645846
4.55712e-07
0.00646174
4.70892e-07
0.00646459
4.65595e-07
0.00646698
4.89943e-07
0.00646892
4.88104e-07
0.00647047
5.19075e-07
0.00647154
5.25171e-07
0.00647236
5.51184e-07
5.74099e-07
0.00607198
-8.70749e-06
0.00608079
-8.60843e-06
0.00608951
-8.51138e-06
0.00609816
-8.41828e-06
0.00610675
-8.32728e-06
0.00611532
-8.23914e-06
0.00612386
-8.15299e-06
0.00613239
-8.06958e-06
0.00614091
-7.98864e-06
0.00614942
-7.91085e-06
0.00615793
-7.83564e-06
0.00616641
-7.76342e-06
0.00617487
-7.6951e-06
0.0061833
-7.63179e-06
0.00619168
-7.57434e-06
0.00620001
-7.52328e-06
0.00620829
-7.47905e-06
0.00621651
-7.442e-06
0.00622468
-7.4121e-06
0.0062328
-7.3895e-06
0.00624087
-7.37411e-06
0.00624889
-7.36619e-06
0.00625688
-7.36561e-06
0.00626484
-7.37205e-06
0.00627278
-7.38534e-06
0.0062807
-7.40384e-06
0.00628861
-7.42596e-06
0.00629653
-7.44986e-06
0.00630445
-7.47244e-06
0.00631237
-7.49133e-06
0.00632031
-7.50311e-06
0.00632825
-7.50293e-06
0.0063362
-7.48679e-06
0.00634413
-7.45099e-06
0.00635203
-7.39187e-06
0.00635988
-7.30524e-06
0.00636766
-7.18807e-06
0.00637534
-7.0404e-06
0.0063829
-6.86321e-06
0.0063903
-6.65805e-06
0.00639752
-6.42676e-06
0.00640453
-6.17417e-06
0.00641131
-5.90282e-06
0.00641784
-5.61912e-06
0.00642409
-5.31998e-06
0.00643005
-5.01538e-06
0.00643568
-4.69391e-06
0.00644098
-4.3766e-06
0.00644591
-4.03672e-06
0.00645048
-3.70933e-06
0.00645463
-3.34909e-06
0.00645837
-3.01044e-06
0.00646165
-2.62881e-06
0.0064645
-2.27407e-06
0.0064669
-1.88997e-06
0.00646884
-1.52447e-06
0.00647039
-1.18771e-06
0.00647146
-8.18078e-07
0.00647227
-6.07208e-07
-2.42036e-07
0.00608277
-1.75334e-05
0.0060915
-1.73538e-05
0.00610014
-1.71793e-05
0.00610871
-1.70104e-05
0.00611721
-1.68449e-05
0.00612565
-1.66825e-05
0.00613407
-1.65228e-05
0.00614245
-1.63669e-05
0.00615081
-1.62154e-05
0.00615915
-1.60693e-05
0.00616748
-1.5928e-05
0.00617577
-1.5792e-05
0.00618404
-1.56637e-05
0.00619227
-1.55454e-05
0.00620045
-1.54389e-05
0.00620859
-1.53447e-05
0.00621668
-1.52632e-05
0.00622472
-1.51951e-05
0.00623271
-1.51406e-05
0.00624064
-1.50998e-05
0.00624853
-1.50728e-05
0.00625637
-1.50595e-05
0.00626418
-1.50597e-05
0.00627196
-1.50731e-05
0.00627971
-1.50986e-05
0.00628744
-1.51326e-05
0.00629515
-1.51723e-05
0.00630286
-1.52144e-05
0.00631057
-1.52535e-05
0.00631828
-1.52846e-05
0.00632599
-1.53009e-05
0.00633369
-1.5293e-05
0.00634138
-1.52529e-05
0.00634905
-1.51731e-05
0.00635668
-1.50467e-05
0.00636425
-1.48659e-05
0.00637174
-1.46261e-05
0.00637913
-1.43265e-05
0.00638639
-1.39696e-05
0.0063935
-1.35576e-05
0.00640043
-1.30957e-05
0.00640716
-1.25919e-05
0.00641366
-1.20533e-05
0.00641992
-1.14901e-05
0.00642592
-1.09008e-05
0.00643165
-1.03003e-05
0.00643707
-9.67407e-06
0.00644219
-9.05302e-06
0.00644696
-8.39662e-06
0.0064514
-7.76016e-06
0.00645546
-7.07184e-06
0.00645915
-6.41994e-06
0.00646243
-5.70103e-06
0.00646531
-5.0202e-06
0.00646777
-4.30341e-06
0.00646981
-3.59496e-06
0.00647149
-2.98645e-06
0.00647271
-2.24816e-06
0.00647374
-1.90903e-06
-1.13565e-06
0.00604416
-2.374e-05
0.00605023
-2.34173e-05
0.00605615
-2.31058e-05
0.00606193
-2.2805e-05
0.0060676
-2.25125e-05
0.00607316
-2.22268e-05
0.00607864
-2.19474e-05
0.00608404
-2.16752e-05
0.00608938
-2.14113e-05
0.00609464
-2.11553e-05
0.00609985
-2.09071e-05
0.00610498
-2.06689e-05
0.00611004
-2.04434e-05
0.00611502
-2.02328e-05
0.00611992
-2.00388e-05
0.00612473
-1.98612e-05
0.00612945
-1.97002e-05
0.00613407
-1.95549e-05
0.00613859
-1.94247e-05
0.00614301
-1.93106e-05
0.00614732
-1.92134e-05
0.00615153
-1.91337e-05
0.00615564
-1.90717e-05
0.00615966
-1.90263e-05
0.0061636
-1.89967e-05
0.00616745
-1.89818e-05
0.00617124
-1.89789e-05
0.00617497
-1.89825e-05
0.00617865
-1.8987e-05
0.00618229
-1.89869e-05
0.00618591
-1.89732e-05
0.0061895
-1.8933e-05
0.00619308
-1.88542e-05
0.00619663
-1.87272e-05
0.00620015
-1.8543e-05
0.00620364
-1.82914e-05
0.00620709
-1.79672e-05
0.00621048
-1.75693e-05
0.00621381
-1.70999e-05
0.00621705
-1.65603e-05
0.0062202
-1.59584e-05
0.00622323
-1.53049e-05
0.00622613
-1.46117e-05
0.0062289
-1.38894e-05
0.00623152
-1.31413e-05
0.00623398
-1.23812e-05
0.00623627
-1.16025e-05
0.0062384
-1.0834e-05
0.00624035
-1.00385e-05
0.00624213
-9.26574e-06
0.00624372
-8.45039e-06
0.00624513
-7.67553e-06
0.00624636
-6.84849e-06
0.00624742
-6.0532e-06
0.00624831
-5.25184e-06
0.00624904
-4.42623e-06
0.00624965
-3.77413e-06
0.00625008
-2.91141e-06
0.00625049
-2.59944e-06
-1.74033e-06
0.00554978
-1.84675e-05
0.00554447
-1.8064e-05
0.00553909
-1.76777e-05
0.00553367
-1.73082e-05
0.00552821
-1.69522e-05
0.00552272
-1.66075e-05
0.00551721
-1.62733e-05
0.00551169
-1.59512e-05
0.00550614
-1.56413e-05
0.00550057
-1.53403e-05
0.00549496
-1.50459e-05
0.0054893
-1.47603e-05
0.00548359
-1.4488e-05
0.00547782
-1.42331e-05
0.00547199
-1.39975e-05
0.0054661
-1.37815e-05
0.00546015
-1.35837e-05
0.00545414
-1.34019e-05
0.00544806
-1.32355e-05
0.00544193
-1.30855e-05
0.00543574
-1.29522e-05
0.00542949
-1.28353e-05
0.00542319
-1.27344e-05
0.00541683
-1.26512e-05
0.00541044
-1.25851e-05
0.005404
-1.25335e-05
0.00539754
-1.24958e-05
0.00539105
-1.24699e-05
0.00538456
-1.2454e-05
0.00537808
-1.2445e-05
0.00537163
-1.24348e-05
0.00536523
-1.24127e-05
0.00535889
-1.23679e-05
0.00535263
-1.22899e-05
0.00534647
-1.21669e-05
0.0053404
-1.19884e-05
0.00533445
-1.17492e-05
0.00532861
-1.14457e-05