/*--------------------------------*- C++ -*----------------------------------*\
  =========                 |
  \\      /  F ield         | OpenFOAM: The Open Source CFD Toolbox
   \\    /   O peration     | Website:  https://openfoam.org
    \\  /    A nd           | Version:  7
     \\/     M anipulation  |
\*---------------------------------------------------------------------------*/
FoamFile
{
    version     2.0;
    format      ascii;
    class       volScalarField;
    location    "0.0575";
    object      pPrime2Mean;
}
// * * * * * * * * * * * * * * * * * * * * * * * * * * * * * * * * * * * * * //

dimensions      [2 -2 -4 0 0 0 0];

internalField   nonuniform List<scalar> 
27000
(
4.33529e+06
4.34099e+06
4.34913e+06
4.34305e+06
4.34543e+06
4.33816e+06
4.33495e+06
4.32618e+06
4.3187e+06
4.30773e+06
4.29669e+06
4.28305e+06
4.26883e+06
4.25279e+06
4.23597e+06
4.2179e+06
4.19912e+06
4.17946e+06
4.15914e+06
4.13813e+06
4.11649e+06
4.09413e+06
4.07124e+06
4.04768e+06
4.02346e+06
3.9986e+06
3.9731e+06
3.94706e+06
3.92046e+06
3.89328e+06
3.86556e+06
3.83725e+06
3.80836e+06
3.7789e+06
3.74889e+06
3.71834e+06
3.68731e+06
3.65583e+06
3.62392e+06
3.59157e+06
4.33611e+06
4.34349e+06
4.35188e+06
4.346e+06
4.34837e+06
4.34031e+06
4.33673e+06
4.32702e+06
4.31902e+06
4.30723e+06
4.2955e+06
4.28133e+06
4.26659e+06
4.25003e+06
4.23287e+06
4.21445e+06
4.19529e+06
4.17514e+06
4.15424e+06
4.13256e+06
4.11022e+06
4.08722e+06
4.06364e+06
4.0395e+06
4.01489e+06
3.98973e+06
3.96403e+06
3.93786e+06
3.91116e+06
3.8839e+06
3.85604e+06
3.82758e+06
3.79856e+06
3.76895e+06
3.73875e+06
3.70806e+06
3.67689e+06
3.64528e+06
3.61325e+06
3.58081e+06
4.3338e+06
4.34012e+06
4.34778e+06
4.34132e+06
4.34312e+06
4.33504e+06
4.33135e+06
4.32199e+06
4.31429e+06
4.30315e+06
4.29225e+06
4.27883e+06
4.26496e+06
4.24918e+06
4.23242e+06
4.2143e+06
4.1953e+06
4.17522e+06
4.15455e+06
4.13314e+06
4.11113e+06
4.08859e+06
4.06551e+06
4.04184e+06
4.01762e+06
3.99278e+06
3.96737e+06
3.94136e+06
3.91477e+06
3.88768e+06
3.86005e+06
3.83185e+06
3.80311e+06
3.77379e+06
3.74395e+06
3.71352e+06
3.68253e+06
3.65107e+06
3.61915e+06
3.58672e+06
4.33648e+06
4.34362e+06
4.35139e+06
4.34515e+06
4.3471e+06
4.33888e+06
4.3352e+06
4.32559e+06
4.31776e+06
4.30635e+06
4.2952e+06
4.28147e+06
4.26729e+06
4.25124e+06
4.23432e+06
4.21598e+06
4.19679e+06
4.1766e+06
4.15566e+06
4.13388e+06
4.11157e+06
4.08863e+06
4.0651e+06
4.0411e+06
4.01659e+06
3.99151e+06
3.96594e+06
3.93982e+06
3.91319e+06
3.88601e+06
3.85822e+06
3.82989e+06
3.80097e+06
3.77144e+06
3.74137e+06
3.71074e+06
3.67961e+06
3.64801e+06
3.61593e+06
3.58343e+06
4.33521e+06
4.34194e+06
4.34961e+06
4.34323e+06
4.34505e+06
4.33682e+06
4.33309e+06
4.32353e+06
4.31583e+06
4.30455e+06
4.29353e+06
4.28012e+06
4.26617e+06
4.25027e+06
4.23358e+06
4.21541e+06
4.19632e+06
4.17617e+06
4.15528e+06
4.13362e+06
4.11141e+06
4.0886e+06
4.06525e+06
4.04138e+06
4.01699e+06
3.9921e+06
3.96664e+06
3.9406e+06
3.91405e+06
3.88694e+06
3.85924e+06
3.83099e+06
3.80216e+06
3.77278e+06
3.74284e+06
3.71231e+06
3.68129e+06
3.64977e+06
3.61776e+06
3.58529e+06
4.33521e+06
4.34194e+06
4.34961e+06
4.34322e+06
4.34504e+06
4.3368e+06
4.33308e+06
4.32355e+06
4.31582e+06
4.30452e+06
4.29356e+06
4.28012e+06
4.26613e+06
4.25029e+06
4.23354e+06
4.21539e+06
4.19632e+06
4.17612e+06
4.15528e+06
4.13364e+06
4.11138e+06
4.08857e+06
4.06526e+06
4.04139e+06
4.017e+06
3.99209e+06
3.96664e+06
3.9406e+06
3.91405e+06
3.88694e+06
3.85924e+06
3.83099e+06
3.80215e+06
3.77278e+06
3.74283e+06
3.71231e+06
3.68129e+06
3.64977e+06
3.61776e+06
3.58528e+06
4.33648e+06
4.34362e+06
4.3514e+06
4.34516e+06
4.3471e+06
4.33887e+06
4.33519e+06
4.32559e+06
4.3178e+06
4.30635e+06
4.29521e+06
4.28153e+06
4.2673e+06
4.25121e+06
4.23429e+06
4.21599e+06
4.19684e+06
4.17658e+06
4.15566e+06
4.13393e+06
4.11156e+06
4.08861e+06
4.06514e+06
4.04111e+06
4.01656e+06
3.99153e+06
3.96596e+06
3.93982e+06
3.9132e+06
3.88602e+06
3.85824e+06
3.82989e+06
3.80095e+06
3.77145e+06
3.74138e+06
3.71074e+06
3.67962e+06
3.64801e+06
3.61595e+06
3.58343e+06
4.33379e+06
4.34012e+06
4.34778e+06
4.34132e+06
4.34311e+06
4.33503e+06
4.33134e+06
4.32197e+06
4.31428e+06
4.30314e+06
4.29224e+06
4.27886e+06
4.26495e+06
4.24912e+06
4.23245e+06
4.2143e+06
4.19525e+06
4.17524e+06
4.15457e+06
4.13313e+06
4.11114e+06
4.08857e+06
4.06549e+06
4.04185e+06
4.0176e+06
3.99279e+06
3.96738e+06
3.94135e+06
3.91478e+06
3.88766e+06
3.86004e+06
3.83185e+06
3.80309e+06
3.7738e+06
3.74395e+06
3.71351e+06
3.68254e+06
3.65106e+06
3.61914e+06
3.58673e+06
4.33611e+06
4.3435e+06
4.35188e+06
4.346e+06
4.34837e+06
4.34033e+06
4.33674e+06
4.32704e+06
4.31905e+06
4.30725e+06
4.29552e+06
4.28135e+06
4.26661e+06
4.25008e+06
4.23289e+06
4.21443e+06
4.1953e+06
4.17517e+06
4.15427e+06
4.13258e+06
4.1102e+06
4.08722e+06
4.06369e+06
4.03952e+06
4.01489e+06
3.98975e+06
3.96406e+06
3.93786e+06
3.91117e+06
3.8839e+06
3.85603e+06
3.82759e+06
3.79857e+06
3.76895e+06
3.73876e+06
3.70806e+06
3.67688e+06
3.64527e+06
3.61325e+06
3.5808e+06
4.33528e+06
4.34099e+06
4.34912e+06
4.34305e+06
4.34542e+06
4.33811e+06
4.33491e+06
4.32615e+06
4.31866e+06
4.30772e+06
4.29668e+06
4.28301e+06
4.26882e+06
4.2528e+06
4.23593e+06
4.21786e+06
4.19912e+06
4.17945e+06
4.15914e+06
4.13809e+06
4.11648e+06
4.09417e+06
4.0712e+06
4.04767e+06
4.02346e+06
3.99856e+06
3.97311e+06
3.94707e+06
3.92044e+06
3.89329e+06
3.86556e+06
3.83724e+06
3.80834e+06
3.7789e+06
3.74889e+06
3.71832e+06
3.6873e+06
3.65583e+06
3.62391e+06
3.59157e+06
4.33659e+06
4.3255e+06
4.33586e+06
4.32153e+06
4.32501e+06
4.31406e+06
4.31152e+06
4.30136e+06
4.29411e+06
4.28226e+06
4.27083e+06
4.25635e+06
4.2413e+06
4.22441e+06
4.20694e+06
4.18831e+06
4.16905e+06
4.14889e+06
4.12817e+06
4.10662e+06
4.08446e+06
4.0617e+06
4.03837e+06
4.01446e+06
3.99e+06
3.965e+06
3.93939e+06
3.91318e+06
3.8864e+06
3.85905e+06
3.83108e+06
3.80254e+06
3.77346e+06
3.7438e+06
3.71363e+06
3.68299e+06
3.65187e+06
3.62031e+06
3.58836e+06
3.55597e+06
4.33523e+06
4.3225e+06
4.33242e+06
4.31699e+06
4.31974e+06
4.30767e+06
4.30453e+06
4.29407e+06
4.28703e+06
4.27588e+06
4.26557e+06
4.2523e+06
4.23848e+06
4.22263e+06
4.20594e+06
4.18784e+06
4.16897e+06
4.14916e+06
4.12873e+06
4.10755e+06
4.08579e+06
4.06342e+06
4.04048e+06
4.01696e+06
3.9929e+06
3.96827e+06
3.94305e+06
3.91722e+06
3.8908e+06
3.86378e+06
3.83614e+06
3.80791e+06
3.77911e+06
3.74972e+06
3.71978e+06
3.68934e+06
3.65842e+06
3.62703e+06
3.59519e+06
3.56294e+06
4.33732e+06
4.32547e+06
4.33565e+06
4.32066e+06
4.32342e+06
4.31169e+06
4.30863e+06
4.29825e+06
4.29117e+06
4.27989e+06
4.26935e+06
4.25589e+06
4.24182e+06
4.22567e+06
4.20866e+06
4.19019e+06
4.17092e+06
4.15067e+06
4.12979e+06
4.10814e+06
4.0859e+06
4.06309e+06
4.03974e+06
4.01584e+06
3.9914e+06
3.96645e+06
3.94099e+06
3.91498e+06
3.88841e+06
3.86125e+06
3.8335e+06
3.80511e+06
3.77611e+06
3.74655e+06
3.71642e+06
3.68574e+06
3.65457e+06
3.62295e+06
3.5909e+06
3.55843e+06
4.33512e+06
4.32227e+06
4.3324e+06
4.31707e+06
4.32017e+06
4.30833e+06
4.30535e+06
4.29475e+06
4.28745e+06
4.27588e+06
4.26513e+06
4.25155e+06
4.23756e+06
4.22165e+06
4.20498e+06
4.18689e+06
4.16797e+06
4.14803e+06
4.12737e+06
4.10592e+06
4.08386e+06
4.06122e+06
4.03802e+06
4.01428e+06
3.99006e+06
3.96535e+06
3.94011e+06
3.91433e+06
3.88801e+06
3.8611e+06
3.83358e+06
3.80545e+06
3.77673e+06
3.74737e+06
3.71743e+06
3.68695e+06
3.65596e+06
3.6245e+06
3.59257e+06
3.56022e+06
4.33626e+06
4.32382e+06
4.33402e+06
4.31879e+06
4.3216e+06
4.30965e+06
4.30643e+06
4.29575e+06
4.28841e+06
4.2769e+06
4.26624e+06
4.25278e+06
4.23885e+06
4.22294e+06
4.2062e+06
4.18799e+06
4.16894e+06
4.14885e+06
4.1281e+06
4.10654e+06
4.08438e+06
4.06167e+06
4.03838e+06
4.01455e+06
3.99025e+06
3.96544e+06
3.94012e+06
3.91425e+06
3.88784e+06
3.86087e+06
3.83327e+06
3.80507e+06
3.77627e+06
3.74685e+06
3.71683e+06
3.68627e+06
3.65521e+06
3.62366e+06
3.59166e+06
3.55922e+06
4.33626e+06
4.32383e+06
4.33402e+06
4.31879e+06
4.3216e+06
4.30965e+06
4.30644e+06
4.29576e+06
4.28842e+06
4.2769e+06
4.26625e+06
4.25279e+06
4.23886e+06
4.22295e+06
4.20621e+06
4.188e+06
4.16894e+06
4.14886e+06
4.12811e+06
4.10654e+06
4.08439e+06
4.06167e+06
4.03838e+06
4.01455e+06
3.99026e+06
3.96545e+06
3.94013e+06
3.91425e+06
3.88784e+06
3.86087e+06
3.83327e+06
3.80507e+06
3.77628e+06
3.74685e+06
3.71683e+06
3.68628e+06
3.65521e+06
3.62367e+06
3.59166e+06
3.55922e+06
4.33512e+06
4.32227e+06
4.3324e+06
4.31707e+06
4.32017e+06
4.30832e+06
4.30534e+06
4.29474e+06
4.28744e+06
4.27587e+06
4.26513e+06
4.25154e+06
4.23755e+06
4.22164e+06
4.20498e+06
4.18689e+06
4.16797e+06
4.14802e+06
4.12738e+06
4.10592e+06
4.08386e+06
4.06122e+06
4.03801e+06
4.01427e+06
3.99007e+06
3.96535e+06
3.94012e+06
3.91433e+06
3.888e+06
3.8611e+06
3.83358e+06
3.80545e+06
3.77673e+06
3.74737e+06
3.71742e+06
3.68695e+06
3.65596e+06
3.6245e+06
3.59257e+06
3.56021e+06
4.33732e+06
4.32547e+06
4.33565e+06
4.32066e+06
4.32343e+06
4.3117e+06
4.30864e+06
4.29827e+06
4.29118e+06
4.2799e+06
4.26936e+06
4.2559e+06
4.24183e+06
4.22569e+06
4.20867e+06
4.1902e+06
4.17092e+06
4.15067e+06
4.12979e+06
4.10814e+06
4.08591e+06
4.06309e+06
4.03974e+06
4.01584e+06
3.99141e+06
3.96646e+06
3.941e+06
3.91499e+06
3.88842e+06
3.86125e+06
3.83348e+06
3.8051e+06
3.77613e+06
3.74656e+06
3.71641e+06
3.68574e+06
3.65458e+06
3.62295e+06
3.5909e+06
3.55843e+06
4.33523e+06
4.3225e+06
4.33242e+06
4.31699e+06
4.31973e+06
4.30765e+06
4.30451e+06
4.29405e+06
4.28701e+06
4.27587e+06
4.26555e+06
4.25228e+06
4.23848e+06
4.22262e+06
4.20592e+06
4.18783e+06
4.16897e+06
4.14915e+06
4.12873e+06
4.10754e+06
4.08578e+06
4.06341e+06
4.04047e+06
4.01698e+06
3.9929e+06
3.96824e+06
3.94303e+06
3.91723e+06
3.89081e+06
3.86377e+06
3.83614e+06
3.80792e+06
3.77909e+06
3.7497e+06
3.71978e+06
3.68934e+06
3.65842e+06
3.62703e+06
3.59519e+06
3.56294e+06
4.33659e+06
4.3255e+06
4.33586e+06
4.32154e+06
4.32502e+06
4.31409e+06
4.31155e+06
4.30136e+06
4.29414e+06
4.28229e+06
4.27081e+06
4.25638e+06
4.24134e+06
4.22441e+06
4.20698e+06
4.18831e+06
4.16904e+06
4.14891e+06
4.12816e+06
4.10663e+06
4.08447e+06
4.06172e+06
4.03839e+06
4.01446e+06
3.99003e+06
3.965e+06
3.93938e+06
3.91318e+06
3.88641e+06
3.85905e+06
3.83109e+06
3.80254e+06
3.77344e+06
3.74381e+06
3.71363e+06
3.68298e+06
3.65188e+06
3.62032e+06
3.58835e+06
3.55598e+06
4.34646e+06
4.33037e+06
4.33637e+06
4.32025e+06
4.32146e+06
4.3089e+06
4.30531e+06
4.29391e+06
4.28612e+06
4.2737e+06
4.26223e+06
4.24781e+06
4.23315e+06
4.21648e+06
4.19914e+06
4.18039e+06
4.16094e+06
4.14051e+06
4.11948e+06
4.09778e+06
4.07557e+06
4.05283e+06
4.02961e+06
4.00585e+06
3.98157e+06
3.95671e+06
3.93127e+06
3.90521e+06
3.87854e+06
3.85124e+06
3.82333e+06
3.79482e+06
3.76573e+06
3.73609e+06
3.70594e+06
3.67531e+06
3.64423e+06
3.61274e+06
3.58083e+06
3.54851e+06
4.34705e+06
4.33107e+06
4.3373e+06
4.32112e+06
4.32244e+06
4.30984e+06
4.30632e+06
4.29499e+06
4.28733e+06
4.27509e+06
4.26382e+06
4.24963e+06
4.23518e+06
4.21869e+06
4.20147e+06
4.18278e+06
4.16332e+06
4.14282e+06
4.12168e+06
4.09984e+06
4.07749e+06
4.05462e+06
4.03128e+06
4.00745e+06
3.98312e+06
3.95826e+06
3.93285e+06
3.90685e+06
3.88025e+06
3.85304e+06
3.82521e+06
3.79677e+06
3.76773e+06
3.73812e+06
3.70796e+06
3.6773e+06
3.64617e+06
3.6146e+06
3.58261e+06
3.55021e+06
4.3468e+06
4.33067e+06
4.33662e+06
4.32033e+06
4.32146e+06
4.30881e+06
4.3052e+06
4.29386e+06
4.28619e+06
4.27399e+06
4.26278e+06
4.24866e+06
4.23428e+06
4.21785e+06
4.20067e+06
4.18199e+06
4.16252e+06
4.142e+06
4.12082e+06
4.09891e+06
4.07648e+06
4.05352e+06
4.03009e+06
4.00618e+06
3.98179e+06
3.9569e+06
3.93149e+06
3.90553e+06
3.87899e+06
3.85186e+06
3.82411e+06
3.79574e+06
3.76676e+06
3.73718e+06
3.70704e+06
3.67638e+06
3.64522e+06
3.61362e+06
3.58158e+06
3.54913e+06
4.34704e+06
4.33106e+06
4.33727e+06
4.32106e+06
4.32235e+06
4.30977e+06
4.30628e+06
4.29501e+06
4.28743e+06
4.27532e+06
4.2642e+06
4.25016e+06
4.23586e+06
4.21949e+06
4.20235e+06
4.1837e+06
4.16422e+06
4.14368e+06
4.12246e+06
4.10051e+06
4.07805e+06
4.05505e+06
4.03159e+06
4.00767e+06
3.98328e+06
3.9584e+06
3.933e+06
3.90706e+06
3.88056e+06
3.85345e+06
3.82574e+06
3.7974e+06
3.76845e+06
3.7389e+06
3.70878e+06
3.67812e+06
3.64696e+06
3.61534e+06
3.58328e+06
3.55079e+06
4.34698e+06
4.33094e+06
4.33701e+06
4.32071e+06
4.32193e+06
4.3093e+06
4.30575e+06
4.29446e+06
4.28685e+06
4.27473e+06
4.26362e+06
4.24959e+06
4.23529e+06
4.21893e+06
4.20179e+06
4.18314e+06
4.16366e+06
4.14311e+06
4.12189e+06
4.09993e+06
4.07745e+06
4.05443e+06
4.03096e+06
4.00702e+06
3.98262e+06
3.95774e+06
3.93234e+06
3.90641e+06
3.87991e+06
3.85282e+06
3.82512e+06
3.7968e+06
3.76785e+06
3.7383e+06
3.70818e+06
3.67751e+06
3.64634e+06
3.61471e+06
3.58264e+06
3.55015e+06
4.34698e+06
4.33094e+06
4.33701e+06
4.32071e+06
4.32193e+06
4.3093e+06
4.30575e+06
4.29446e+06
4.28685e+06
4.27474e+06
4.26362e+06
4.24959e+06
4.23529e+06
4.21893e+06
4.20179e+06
4.18314e+06
4.16366e+06
4.14311e+06
4.12189e+06
4.09993e+06
4.07745e+06
4.05443e+06
4.03096e+06
4.00702e+06
3.98263e+06
3.95774e+06
3.93234e+06
3.90641e+06
3.87991e+06
3.85282e+06
3.82512e+06
3.7968e+06
3.76785e+06
3.7383e+06
3.70818e+06
3.67751e+06
3.64634e+06
3.61471e+06
3.58264e+06
3.55015e+06
4.34704e+06
4.33106e+06
4.33727e+06
4.32106e+06
4.32235e+06
4.30977e+06
4.30628e+06
4.29501e+06
4.28743e+06
4.27532e+06
4.2642e+06
4.25016e+06
4.23586e+06
4.21949e+06
4.20235e+06
4.1837e+06
4.16422e+06
4.14368e+06
4.12246e+06
4.10051e+06
4.07805e+06
4.05505e+06
4.03159e+06
4.00767e+06
3.98328e+06
3.9584e+06
3.933e+06
3.90706e+06
3.88056e+06
3.85345e+06
3.82574e+06
3.7974e+06
3.76845e+06
3.7389e+06
3.70878e+06
3.67812e+06
3.64696e+06
3.61534e+06
3.58328e+06
3.55079e+06
4.3468e+06
4.33067e+06
4.33662e+06
4.32033e+06
4.32146e+06
4.30881e+06
4.3052e+06
4.29386e+06
4.28619e+06
4.27399e+06
4.26278e+06
4.24866e+06
4.23428e+06
4.21785e+06
4.20067e+06
4.18199e+06
4.16252e+06
4.142e+06
4.12081e+06
4.09891e+06
4.07648e+06
4.05352e+06
4.03009e+06
4.00618e+06
3.98179e+06
3.9569e+06
3.93149e+06
3.90553e+06
3.87899e+06
3.85186e+06
3.82411e+06
3.79574e+06
3.76676e+06
3.73718e+06
3.70704e+06
3.67638e+06
3.64522e+06
3.61362e+06
3.58158e+06
3.54914e+06
4.34705e+06
4.33107e+06
4.3373e+06
4.32112e+06
4.32243e+06
4.30984e+06
4.30632e+06
4.29499e+06
4.28733e+06
4.27509e+06
4.26382e+06
4.24963e+06
4.23518e+06
4.21869e+06
4.20147e+06
4.18278e+06
4.16332e+06
4.14282e+06
4.12168e+06
4.09984e+06
4.07749e+06
4.05461e+06
4.03128e+06
4.00745e+06
3.98312e+06
3.95826e+06
3.93285e+06
3.90685e+06
3.88025e+06
3.85304e+06
3.82521e+06
3.79677e+06
3.76773e+06
3.73812e+06
3.70796e+06
3.6773e+06
3.64617e+06
3.6146e+06
3.58261e+06
3.55021e+06
4.34646e+06
4.33037e+06
4.33637e+06
4.32025e+06
4.32146e+06
4.3089e+06
4.30531e+06
4.29391e+06
4.28612e+06
4.2737e+06
4.26222e+06
4.24781e+06
4.23315e+06
4.21648e+06
4.19914e+06
4.1804e+06
4.16094e+06
4.14051e+06
4.11948e+06
4.09777e+06
4.07557e+06
4.05283e+06
4.02961e+06
4.00585e+06
3.98157e+06
3.95671e+06
3.93127e+06
3.90521e+06
3.87854e+06
3.85124e+06
3.82333e+06
3.79482e+06
3.76573e+06
3.73609e+06
3.70594e+06
3.67531e+06
3.64424e+06
3.61274e+06
3.58083e+06
3.54851e+06
4.36585e+06
4.34501e+06
4.34832e+06
4.33011e+06
4.32864e+06
4.31488e+06
4.30965e+06
4.29751e+06
4.28886e+06
4.27601e+06
4.26413e+06
4.24947e+06
4.23457e+06
4.21767e+06
4.20007e+06
4.18101e+06
4.1612e+06
4.14039e+06
4.11898e+06
4.09691e+06
4.07438e+06
4.05137e+06
4.02793e+06
4.00403e+06
3.97965e+06
3.95475e+06
3.92929e+06
3.90324e+06
3.87656e+06
3.84923e+06
3.82126e+06
3.79264e+06
3.76342e+06
3.73363e+06
3.7033e+06
3.6725e+06
3.64126e+06
3.60962e+06
3.57759e+06
3.54517e+06
4.36599e+06
4.34516e+06
4.34839e+06
4.33015e+06
4.32858e+06
4.31478e+06
4.30951e+06
4.29736e+06
4.28872e+06
4.2759e+06
4.26408e+06
4.24948e+06
4.23465e+06
4.21782e+06
4.20027e+06
4.18124e+06
4.16144e+06
4.14061e+06
4.11915e+06
4.09702e+06
4.07441e+06
4.05131e+06
4.02778e+06
4.0038e+06
3.97937e+06
3.95444e+06
3.92898e+06
3.90294e+06
3.87631e+06
3.84905e+06
3.82116e+06
3.79263e+06
3.76347e+06
3.73373e+06
3.70344e+06
3.67264e+06
3.64138e+06
3.6097e+06
3.57762e+06
3.54513e+06
4.36587e+06
4.34497e+06
4.34823e+06
4.32997e+06
4.32841e+06
4.31459e+06
4.30933e+06
4.29718e+06
4.28857e+06
4.27579e+06
4.26401e+06
4.24946e+06
4.23468e+06
4.21788e+06
4.20035e+06
4.18133e+06
4.16152e+06
4.14067e+06
4.11919e+06
4.09702e+06
4.07437e+06
4.05122e+06
4.02766e+06
4.00365e+06
3.9792e+06
3.95426e+06
3.92881e+06
3.9028e+06
3.87621e+06
3.849e+06
3.82116e+06
3.79268e+06
3.76357e+06
3.73386e+06
3.70359e+06
3.67279e+06
3.64152e+06
3.60982e+06
3.5777e+06
3.54518e+06
4.366e+06
4.34517e+06
4.34835e+06
4.33006e+06
4.32846e+06
4.31461e+06
4.30933e+06
4.29717e+06
4.28856e+06
4.27578e+06
4.26402e+06
4.24949e+06
4.23473e+06
4.21796e+06
4.20044e+06
4.18142e+06
4.1616e+06
4.14074e+06
4.11924e+06
4.09704e+06
4.07436e+06
4.05119e+06
4.0276e+06
4.00357e+06
3.9791e+06
3.95416e+06
3.92871e+06
3.90271e+06
3.87613e+06
3.84894e+06
3.82112e+06
3.79266e+06
3.76357e+06
3.73388e+06
3.70361e+06
3.67281e+06
3.64153e+06
3.60981e+06
3.57767e+06
3.54513e+06
4.36595e+06
4.34506e+06
4.34827e+06
4.32998e+06
4.3284e+06
4.31454e+06
4.30927e+06
4.29711e+06
4.28851e+06
4.27574e+06
4.26399e+06
4.24947e+06
4.23472e+06
4.21795e+06
4.20043e+06
4.18141e+06
4.16159e+06
4.14073e+06
4.11922e+06
4.09702e+06
4.07433e+06
4.05115e+06
4.02756e+06
4.00353e+06
3.97906e+06
3.95411e+06
3.92867e+06
3.90267e+06
3.87611e+06
3.84893e+06
3.82112e+06
3.79267e+06
3.76359e+06
3.7339e+06
3.70363e+06
3.67284e+06
3.64155e+06
3.60982e+06
3.57768e+06
3.54513e+06
4.36595e+06
4.34506e+06
4.34827e+06
4.32998e+06
4.3284e+06
4.31454e+06
4.30927e+06
4.29711e+06
4.28851e+06
4.27574e+06
4.26399e+06
4.24947e+06
4.23472e+06
4.21795e+06
4.20043e+06
4.18141e+06
4.16159e+06
4.14073e+06
4.11922e+06
4.09702e+06
4.07433e+06
4.05115e+06
4.02756e+06
4.00353e+06
3.97906e+06
3.95411e+06
3.92867e+06
3.90267e+06
3.87611e+06
3.84893e+06
3.82112e+06
3.79267e+06
3.76359e+06
3.7339e+06
3.70363e+06
3.67284e+06
3.64155e+06
3.60982e+06
3.57768e+06
3.54513e+06
4.366e+06
4.34517e+06
4.34835e+06
4.33006e+06
4.32846e+06
4.31461e+06
4.30933e+06
4.29717e+06
4.28856e+06
4.27578e+06
4.26402e+06
4.24949e+06
4.23473e+06
4.21796e+06
4.20044e+06
4.18142e+06
4.1616e+06
4.14074e+06
4.11924e+06
4.09704e+06
4.07436e+06
4.05119e+06
4.0276e+06
4.00357e+06
3.9791e+06
3.95416e+06
3.92871e+06
3.90271e+06
3.87613e+06
3.84894e+06
3.82112e+06
3.79266e+06
3.76357e+06
3.73388e+06
3.70361e+06
3.67281e+06
3.64153e+06
3.60981e+06
3.57767e+06
3.54513e+06
4.36587e+06
4.34497e+06
4.34823e+06
4.32997e+06
4.32841e+06
4.31459e+06
4.30933e+06
4.29718e+06
4.28857e+06
4.27579e+06
4.26401e+06
4.24946e+06
4.23468e+06
4.21788e+06
4.20035e+06
4.18133e+06
4.16152e+06
4.14067e+06
4.11919e+06
4.09702e+06
4.07437e+06
4.05122e+06
4.02766e+06
4.00365e+06
3.9792e+06
3.95426e+06
3.92881e+06
3.9028e+06
3.87621e+06
3.849e+06
3.82116e+06
3.79268e+06
3.76357e+06
3.73386e+06
3.70359e+06
3.67279e+06
3.64152e+06
3.60981e+06
3.5777e+06
3.54518e+06
4.36599e+06
4.34516e+06
4.34839e+06
4.33015e+06
4.32858e+06
4.31478e+06
4.30951e+06
4.29736e+06
4.28872e+06
4.2759e+06
4.26408e+06
4.24948e+06
4.23465e+06
4.21782e+06
4.20027e+06
4.18124e+06
4.16144e+06
4.14061e+06
4.11915e+06
4.09702e+06
4.07441e+06
4.05131e+06
4.02778e+06
4.0038e+06
3.97937e+06
3.95444e+06
3.92898e+06
3.90294e+06
3.87631e+06
3.84905e+06
3.82116e+06
3.79263e+06
3.76347e+06
3.73373e+06
3.70344e+06
3.67264e+06
3.64138e+06
3.6097e+06
3.57762e+06
3.54513e+06
4.36585e+06
4.34501e+06
4.34832e+06
4.33011e+06
4.32864e+06
4.31488e+06
4.30965e+06
4.29751e+06
4.28886e+06
4.27601e+06
4.26413e+06
4.24947e+06
4.23457e+06
4.21767e+06
4.20007e+06
4.18101e+06
4.1612e+06
4.14039e+06
4.11898e+06
4.09691e+06
4.07438e+06
4.05137e+06
4.02793e+06
4.00403e+06
3.97965e+06
3.95475e+06
3.92929e+06
3.90324e+06
3.87656e+06
3.84923e+06
3.82126e+06
3.79264e+06
3.76342e+06
3.73362e+06
3.7033e+06
3.6725e+06
3.64126e+06
3.60962e+06
3.57759e+06
3.54517e+06
4.3842e+06
4.35971e+06
4.36151e+06
4.34093e+06
4.33745e+06
4.32214e+06
4.31539e+06
4.30223e+06
4.29257e+06
4.27905e+06
4.26651e+06
4.25136e+06
4.23599e+06
4.21868e+06
4.20067e+06
4.18122e+06
4.16104e+06
4.13988e+06
4.11815e+06
4.09579e+06
4.07301e+06
4.04978e+06
4.02616e+06
4.00212e+06
3.97763e+06
3.95265e+06
3.92713e+06
3.90102e+06
3.8743e+06
3.84693e+06
3.81891e+06
3.79023e+06
3.76093e+06
3.73105e+06
3.70063e+06
3.66972e+06
3.63838e+06
3.60665e+06
3.57455e+06
3.54207e+06
4.38422e+06
4.35973e+06
4.36152e+06
4.34091e+06
4.33739e+06
4.32206e+06
4.31529e+06
4.30213e+06
4.29248e+06
4.27898e+06
4.26647e+06
4.25136e+06
4.23602e+06
4.21876e+06
4.20078e+06
4.18136e+06
4.16119e+06
4.14002e+06
4.11826e+06
4.09587e+06
4.07303e+06
4.04974e+06
4.02607e+06
4.00197e+06
3.97744e+06
3.95243e+06
3.92691e+06
3.90082e+06
3.87413e+06
3.84681e+06
3.81885e+06
3.79025e+06
3.76101e+06
3.73118e+06
3.70079e+06
3.6699e+06
3.63855e+06
3.60679e+06
3.57464e+06
3.54211e+06
4.3842e+06
4.35972e+06
4.36151e+06
4.34088e+06
4.33736e+06
4.32202e+06
4.31525e+06
4.30209e+06
4.29245e+06
4.27896e+06
4.26647e+06
4.25138e+06
4.23608e+06
4.21883e+06
4.20087e+06
4.18145e+06
4.16128e+06
4.1401e+06
4.11833e+06
4.0959e+06
4.07304e+06
4.04972e+06
4.02602e+06
4.0019e+06
3.97735e+06
3.95233e+06
3.92681e+06
3.90074e+06
3.87408e+06
3.84679e+06
3.81887e+06
3.79029e+06
3.76109e+06
3.73128e+06
3.7009e+06
3.67001e+06
3.63866e+06
3.60687e+06
3.5747e+06
3.54213e+06
4.38422e+06
4.35972e+06
4.3615e+06
4.34086e+06
4.33733e+06
4.32197e+06
4.3152e+06
4.30204e+06
4.2924e+06
4.27892e+06
4.26645e+06
4.25137e+06
4.23608e+06
4.21885e+06
4.20089e+06
4.18148e+06
4.1613e+06
4.14012e+06
4.11833e+06
4.09589e+06
4.07302e+06
4.04968e+06
4.02596e+06
4.00183e+06
3.97727e+06
3.95225e+06
3.92673e+06
3.90067e+06
3.87402e+06
3.84675e+06
3.81884e+06
3.79028e+06
3.76109e+06
3.73129e+06
3.70092e+06
3.67003e+06
3.63867e+06
3.60688e+06
3.57469e+06
3.54211e+06
4.38421e+06
4.35972e+06
4.3615e+06
4.34086e+06
4.33732e+06
4.32197e+06
4.31519e+06
4.30203e+06
4.2924e+06
4.27892e+06
4.26645e+06
4.25139e+06
4.2361e+06
4.21887e+06
4.20091e+06
4.1815e+06
4.16132e+06
4.14013e+06
4.11834e+06
4.0959e+06
4.07301e+06
4.04967e+06
4.02595e+06
4.00181e+06
3.97726e+06
3.95224e+06
3.92672e+06
3.90066e+06
3.87401e+06
3.84675e+06
3.81885e+06
3.7903e+06
3.76112e+06
3.73132e+06
3.70095e+06
3.67006e+06
3.63869e+06
3.60689e+06
3.5747e+06
3.54211e+06
4.38421e+06
4.35972e+06
4.3615e+06
4.34086e+06
4.33732e+06
4.32197e+06
4.31519e+06
4.30203e+06
4.2924e+06
4.27892e+06
4.26645e+06
4.25139e+06
4.2361e+06
4.21887e+06
4.20091e+06
4.1815e+06
4.16132e+06
4.14013e+06
4.11834e+06
4.0959e+06
4.07301e+06
4.04967e+06
4.02595e+06
4.00181e+06
3.97726e+06
3.95224e+06
3.92672e+06
3.90066e+06
3.87401e+06
3.84675e+06
3.81885e+06
3.7903e+06
3.76112e+06
3.73132e+06
3.70095e+06
3.67006e+06
3.63869e+06
3.60689e+06
3.5747e+06
3.54211e+06
4.38422e+06
4.35972e+06
4.3615e+06
4.34086e+06
4.33733e+06
4.32197e+06
4.3152e+06
4.30204e+06
4.2924e+06
4.27892e+06
4.26645e+06
4.25137e+06
4.23608e+06
4.21885e+06
4.20089e+06
4.18148e+06
4.1613e+06
4.14012e+06
4.11833e+06
4.09589e+06
4.07301e+06
4.04968e+06
4.02596e+06
4.00183e+06
3.97727e+06
3.95225e+06
3.92673e+06
3.90067e+06
3.87402e+06
3.84675e+06
3.81884e+06
3.79028e+06
3.76109e+06
3.73129e+06
3.70092e+06
3.67003e+06
3.63867e+06
3.60688e+06
3.57469e+06
3.54211e+06
4.3842e+06
4.35972e+06
4.36151e+06
4.34088e+06
4.33736e+06
4.32202e+06
4.31525e+06
4.30209e+06
4.29245e+06
4.27896e+06
4.26647e+06
4.25138e+06
4.23608e+06
4.21883e+06
4.20087e+06
4.18145e+06
4.16128e+06
4.1401e+06
4.11833e+06
4.0959e+06
4.07304e+06
4.04972e+06
4.02602e+06
4.0019e+06
3.97735e+06
3.95233e+06
3.92681e+06
3.90074e+06
3.87408e+06
3.84679e+06
3.81887e+06
3.79029e+06
3.76109e+06
3.73128e+06
3.7009e+06
3.67001e+06
3.63866e+06
3.60687e+06
3.5747e+06
3.54213e+06
4.38422e+06
4.35973e+06
4.36152e+06
4.34091e+06
4.33739e+06
4.32206e+06
4.3153e+06
4.30213e+06
4.29248e+06
4.27898e+06
4.26647e+06
4.25136e+06
4.23602e+06
4.21876e+06
4.20078e+06
4.18136e+06
4.16119e+06
4.14002e+06
4.11826e+06
4.09587e+06
4.07303e+06
4.04974e+06
4.02607e+06
4.00197e+06
3.97744e+06
3.95243e+06
3.92691e+06
3.90082e+06
3.87413e+06
3.84681e+06
3.81885e+06
3.79025e+06
3.76101e+06
3.73118e+06
3.70079e+06
3.6699e+06
3.63855e+06
3.60679e+06
3.57464e+06
3.54211e+06
4.3842e+06
4.35971e+06
4.36151e+06
4.34093e+06
4.33745e+06
4.32214e+06
4.31539e+06
4.30223e+06
4.29257e+06
4.27905e+06
4.26651e+06
4.25136e+06
4.23599e+06
4.21868e+06
4.20067e+06
4.18122e+06
4.16104e+06
4.13988e+06
4.11815e+06
4.09579e+06
4.07301e+06
4.04978e+06
4.02616e+06
4.00212e+06
3.97763e+06
3.95265e+06
3.92713e+06
3.90102e+06
3.8743e+06
3.84693e+06
3.81891e+06
3.79023e+06
3.76093e+06
3.73105e+06
3.70062e+06
3.66972e+06
3.63838e+06
3.60665e+06
3.57455e+06
3.54207e+06
4.40105e+06
4.37415e+06
4.37503e+06
4.35246e+06
4.34746e+06
4.33062e+06
4.32255e+06
4.30828e+06
4.29762e+06
4.28328e+06
4.27001e+06
4.25425e+06
4.23831e+06
4.22052e+06
4.20204e+06
4.18218e+06
4.16161e+06
4.1401e+06
4.11805e+06
4.09541e+06
4.07238e+06
4.04894e+06
4.02514e+06
4.00094e+06
3.97632e+06
3.95122e+06
3.92561e+06
3.89943e+06
3.87263e+06
3.84519e+06
3.8171e+06
3.78835e+06
3.75897e+06
3.72901e+06
3.69851e+06
3.66754e+06
3.63614e+06
3.60435e+06
3.5722e+06
3.53969e+06
4.40108e+06
4.37418e+06
4.37506e+06
4.35247e+06
4.34745e+06
4.3306e+06
4.32252e+06
4.30824e+06
4.29758e+06
4.28326e+06
4.27e+06
4.25427e+06
4.23836e+06
4.2206e+06
4.20215e+06
4.18231e+06
4.16175e+06
4.14023e+06
4.11816e+06
4.09549e+06
4.07242e+06
4.04893e+06
4.02508e+06
4.00084e+06
3.97618e+06
3.95107e+06
3.92545e+06
3.89927e+06
3.87251e+06
3.84511e+06
3.81707e+06
3.78839e+06
3.75907e+06
3.72916e+06
3.69869e+06
3.66773e+06
3.63632e+06
3.6045e+06
3.57231e+06
3.53974e+06
4.40107e+06
4.37418e+06
4.37505e+06
4.35245e+06
4.34743e+06
4.33057e+06
4.32249e+06
4.30821e+06
4.29756e+06
4.28324e+06
4.27e+06
4.25428e+06
4.23839e+06
4.22064e+06
4.2022e+06
4.18237e+06
4.16181e+06
4.14029e+06
4.11821e+06
4.09552e+06
4.07243e+06
4.04891e+06
4.02504e+06
4.00078e+06
3.97611e+06
3.95098e+06
3.92537e+06
3.8992e+06
3.87245e+06
3.84508e+06
3.81707e+06
3.78841e+06
3.75912e+06
3.72923e+06
3.69877e+06
3.66781e+06
3.63639e+06
3.60456e+06
3.57235e+06
3.53976e+06
4.40108e+06
4.37419e+06
4.37506e+06
4.35245e+06
4.34743e+06
4.33056e+06
4.32248e+06
4.30819e+06
4.29754e+06
4.28323e+06
4.27e+06
4.25429e+06
4.2384e+06
4.22066e+06
4.20223e+06
4.1824e+06
4.16183e+06
4.14031e+06
4.11822e+06
4.09552e+06
4.07242e+06
4.0489e+06
4.02501e+06
4.00074e+06
3.97607e+06
3.95094e+06
3.92533e+06
3.89917e+06
3.87243e+06
3.84507e+06
3.81708e+06
3.78843e+06
3.75915e+06
3.72926e+06
3.69881e+06
3.66785e+06
3.63642e+06
3.60458e+06
3.57236e+06
3.53975e+06
4.40108e+06
4.37419e+06
4.37506e+06
4.35245e+06
4.34742e+06
4.33055e+06
4.32247e+06
4.30819e+06
4.29754e+06
4.28323e+06
4.26999e+06
4.25429e+06
4.23841e+06
4.22067e+06
4.20224e+06
4.18241e+06
4.16184e+06
4.14032e+06
4.11822e+06
4.09552e+06
4.07242e+06
4.04889e+06
4.025e+06
4.00073e+06
3.97605e+06
3.95093e+06
3.92531e+06
3.89916e+06
3.87242e+06
3.84507e+06
3.81708e+06
3.78844e+06
3.75916e+06
3.72928e+06
3.69883e+06
3.66786e+06
3.63643e+06
3.60459e+06
3.57236e+06
3.53975e+06
4.40108e+06
4.37419e+06
4.37506e+06
4.35245e+06
4.34742e+06
4.33055e+06
4.32247e+06
4.30819e+06
4.29754e+06
4.28323e+06
4.26999e+06
4.25429e+06
4.23841e+06
4.22067e+06
4.20224e+06
4.18241e+06
4.16184e+06
4.14032e+06
4.11822e+06
4.09552e+06
4.07242e+06
4.04889e+06
4.025e+06
4.00073e+06
3.97605e+06
3.95093e+06
3.92531e+06
3.89916e+06
3.87242e+06
3.84507e+06
3.81708e+06
3.78844e+06
3.75916e+06
3.72928e+06
3.69883e+06
3.66786e+06
3.63643e+06
3.60459e+06
3.57236e+06
3.53975e+06
4.40108e+06
4.37419e+06
4.37506e+06
4.35245e+06
4.34743e+06
4.33056e+06
4.32248e+06
4.30819e+06
4.29754e+06
4.28323e+06
4.27e+06
4.25429e+06
4.23841e+06
4.22066e+06
4.20223e+06
4.1824e+06
4.16183e+06
4.14031e+06
4.11822e+06
4.09552e+06
4.07242e+06
4.0489e+06
4.02501e+06
4.00074e+06
3.97607e+06
3.95094e+06
3.92533e+06
3.89917e+06
3.87243e+06
3.84507e+06
3.81708e+06
3.78843e+06
3.75915e+06
3.72926e+06
3.69881e+06
3.66785e+06
3.63642e+06
3.60458e+06
3.57236e+06
3.53975e+06
4.40107e+06
4.37418e+06
4.37505e+06
4.35245e+06
4.34743e+06
4.33057e+06
4.32249e+06
4.30821e+06
4.29756e+06
4.28324e+06
4.27e+06
4.25428e+06
4.23839e+06
4.22064e+06
4.2022e+06
4.18237e+06
4.16181e+06
4.14029e+06
4.11821e+06
4.09552e+06
4.07243e+06
4.04891e+06
4.02504e+06
4.00078e+06
3.97611e+06
3.95098e+06
3.92537e+06
3.8992e+06
3.87245e+06
3.84508e+06
3.81707e+06
3.78841e+06
3.75912e+06
3.72923e+06
3.69877e+06
3.66781e+06
3.63639e+06
3.60456e+06
3.57235e+06
3.53976e+06
4.40108e+06
4.37418e+06
4.37506e+06
4.35247e+06
4.34745e+06
4.3306e+06
4.32252e+06
4.30824e+06
4.29758e+06
4.28326e+06
4.27e+06
4.25427e+06
4.23836e+06
4.2206e+06
4.20215e+06
4.18231e+06
4.16175e+06
4.14023e+06
4.11816e+06
4.09549e+06
4.07242e+06
4.04893e+06
4.02508e+06
4.00084e+06
3.97618e+06
3.95107e+06
3.92545e+06
3.89927e+06
3.87251e+06
3.84511e+06
3.81707e+06
3.78839e+06
3.75907e+06
3.72916e+06
3.69869e+06
3.66773e+06
3.63632e+06
3.6045e+06
3.57231e+06
3.53974e+06
4.40105e+06
4.37415e+06
4.37503e+06
4.35246e+06
4.34746e+06
4.33062e+06
4.32255e+06
4.30828e+06
4.29762e+06
4.28328e+06
4.27001e+06
4.25425e+06
4.23831e+06
4.22052e+06
4.20204e+06
4.18218e+06
4.16161e+06
4.1401e+06
4.11805e+06
4.09541e+06
4.07238e+06
4.04894e+06
4.02514e+06
4.00094e+06
3.97632e+06
3.95122e+06
3.92561e+06
3.89943e+06
3.87263e+06
3.84519e+06
3.8171e+06
3.78835e+06
3.75897e+06
3.72901e+06
3.69851e+06
3.66754e+06
3.63614e+06
3.60435e+06
3.5722e+06
3.53969e+06
4.41644e+06
4.38796e+06
4.38827e+06
4.36417e+06
4.35798e+06
4.33982e+06
4.33058e+06
4.31521e+06
4.30359e+06
4.28839e+06
4.27435e+06
4.25793e+06
4.24138e+06
4.22305e+06
4.20408e+06
4.18377e+06
4.16279e+06
4.14092e+06
4.11854e+06
4.09561e+06
4.07233e+06
4.04866e+06
4.02466e+06
4.00029e+06
3.97552e+06
3.95029e+06
3.92457e+06
3.89828e+06
3.87138e+06
3.84385e+06
3.81567e+06
3.78683e+06
3.75738e+06
3.72734e+06
3.69677e+06
3.66573e+06
3.63428e+06
3.60244e+06
3.57025e+06
3.53771e+06
4.41647e+06
4.38799e+06
4.38831e+06
4.36419e+06
4.35799e+06
4.33981e+06
4.33057e+06
4.31519e+06
4.30357e+06
4.28838e+06
4.27435e+06
4.25795e+06
4.24143e+06
4.22312e+06
4.20417e+06
4.18389e+06
4.16292e+06
4.14105e+06
4.11865e+06
4.09569e+06
4.07237e+06
4.04866e+06