/*--------------------------------*- C++ -*----------------------------------*\
  =========                 |
  \\      /  F ield         | OpenFOAM: The Open Source CFD Toolbox
   \\    /   O peration     | Website:  https://openfoam.org
    \\  /    A nd           | Version:  7
     \\/     M anipulation  |
\*---------------------------------------------------------------------------*/
FoamFile
{
    version     2.0;
    format      ascii;
    class       volScalarField;
    location    "1.865";
    object      nut;
}
// * * * * * * * * * * * * * * * * * * * * * * * * * * * * * * * * * * * * * //

dimensions      [0 2 -1 0 0 0 0];

internalField   nonuniform List<scalar> 
7920
(
0.00875638
0.00912597
0.00912998
0.00913476
0.00912914
0.00913002
0.00912541
0.00912625
0.00912303
0.00912395
0.00912156
0.00912241
0.00912042
0.00912111
0.00911983
0.0091203
0.0091202
0.00911879
0.00912565
0.00913611
0.00451644
0.00454421
0.00445043
0.00435862
0.00431431
0.00429696
0.00428192
0.00427727
0.00426926
0.00426741
0.00426219
0.00426122
0.00425837
0.00425806
0.00425608
0.00425578
0.00425471
0.00425372
0.00428264
0.0042842
0.00345192
0.00368685
0.0037109
0.00370823
0.0037007
0.00369889
0.00369409
0.00369317
0.00368962
0.00368879
0.0036858
0.00368507
0.00368264
0.00368207
0.00368016
0.00367973
0.00367834
0.00367787
0.00367859
0.00368371
0.00332078
0.0035919
0.00364365
0.00366246
0.00366758
0.00367452
0.00367574
0.00367936
0.0036795
0.00368142
0.00368107
0.00368219
0.00368159
0.00368226
0.0036816
0.00368208
0.00368152
0.00368193
0.00368199
0.00368662
0.00330633
0.00358088
0.00363536
0.00365747
0.00366523
0.00367494
0.00367819
0.00368469
0.00368658
0.00369109
0.00369228
0.00369558
0.0036963
0.00369874
0.00369919
0.00370108
0.00370143
0.00370288
0.00370354
0.00370856
0.00330786
0.00358017
0.00363433
0.00365677
0.00366526
0.00367594
0.00368017
0.00368786
0.00369069
0.00369656
0.00369862
0.0037032
0.00370473
0.00370833
0.00370947
0.00371235
0.0037133
0.00371552
0.00371689
0.00372199
0.00330786
0.00358017
0.00363433
0.00365677
0.00366526
0.00367594
0.00368017
0.00368786
0.00369069
0.00369656
0.00369862
0.0037032
0.00370473
0.00370833
0.00370947
0.00371236
0.0037133
0.00371553
0.00371691
0.00372201
0.00330633
0.00358088
0.00363536
0.00365748
0.00366523
0.00367494
0.00367819
0.0036847
0.00368658
0.0036911
0.00369227
0.00369558
0.00369629
0.00369875
0.00369918
0.0037011
0.00370143
0.00370292
0.00370355
0.00370862
0.00332078
0.0035919
0.00364365
0.00366246
0.00366757
0.00367452
0.00367574
0.00367936
0.0036795
0.00368142
0.00368106
0.00368221
0.00368157
0.00368229
0.00368156
0.00368216
0.00368144
0.00368211
0.00368187
0.0036868
0.00345192
0.00368685
0.0037109
0.00370823
0.0037007
0.00369889
0.00369409
0.00369317
0.00368962
0.0036888
0.00368579
0.00368509
0.00368261
0.00368211
0.00368008
0.00367984
0.00367813
0.00367829
0.00367818
0.00368437
0.00451644
0.00454421
0.00445043
0.00435862
0.00431431
0.00429696
0.00428192
0.00427728
0.00426926
0.00426741
0.00426218
0.00426123
0.00425834
0.0042581
0.00425601
0.00425589
0.00425448
0.00425418
0.00428135
0.00428566
0.00875638
0.00912597
0.00912998
0.00913476
0.00912914
0.00913002
0.00912541
0.00912625
0.00912302
0.00912396
0.00912154
0.00912243
0.00912038
0.00912118
0.00911972
0.00912049
0.00911985
0.00911944
0.00912415
0.00913938
0.0033631
0.00377623
0.00379316
0.00376837
0.00376149
0.0037473
0.0037466
0.00373837
0.00373856
0.00373294
0.00373338
0.00372929
0.00372973
0.00372661
0.00372704
0.00372444
0.00372521
0.00372202
0.00372273
0.00373183
0.00297849
0.00348741
0.00355945
0.00356917
0.00357041
0.00357036
0.0035699
0.00356934
0.00356865
0.00356797
0.00356733
0.00356666
0.0035662
0.00356561
0.00356536
0.00356484
0.00356467
0.00356425
0.00356512
0.00356676
0.00289875
0.00341352
0.00348919
0.00350469
0.00350749
0.00351124
0.00351232
0.00351473
0.00351538
0.00351694
0.00351732
0.00351833
0.00351862
0.00351933
0.00351973
0.00352021
0.00352089
0.003521
0.00352156
0.00352827
0.0028966
0.00341147
0.00348632
0.00350102
0.00350228
0.00350452
0.00350451
0.0035057
0.00350584
0.00350678
0.00350692
0.00350761
0.00350777
0.00350828
0.00350859
0.00350894
0.00350962
0.00350971
0.0035105
0.00351487
0.00289359
0.00340811
0.00348296
0.00349803
0.00349906
0.00350106
0.00350058
0.00350139
0.00350101
0.00350155
0.00350122
0.00350158
0.00350132
0.00350155
0.00350139
0.00350159
0.00350163
0.00350189
0.00350223
0.0035067
0.0028952
0.00340987
0.00348448
0.00349944
0.00350042
0.0035024
0.00350187
0.00350265
0.00350217
0.00350264
0.00350218
0.00350244
0.00350202
0.00350213
0.00350178
0.00350184
0.00350167
0.00350177
0.00350184
0.00350589
0.0028952
0.00340987
0.00348448
0.00349944
0.00350042
0.0035024
0.00350187
0.00350265
0.00350217
0.00350264
0.00350218
0.00350244
0.00350202
0.00350213
0.00350178
0.00350185
0.00350167
0.00350177
0.00350184
0.00350588
0.00289359
0.00340811
0.00348296
0.00349803
0.00349906
0.00350106
0.00350058
0.0035014
0.003501
0.00350155
0.00350122
0.00350158
0.00350131
0.00350156
0.00350138
0.00350162
0.00350161
0.00350192
0.0035022
0.00350671
0.0028966
0.00341147
0.00348632
0.00350102
0.00350228
0.00350452
0.00350451
0.0035057
0.00350584
0.00350678
0.00350691
0.00350762
0.00350775
0.00350831
0.00350852
0.00350904
0.00350946
0.00350981
0.00351041
0.00351498
0.00289875
0.00341352
0.00348919
0.00350469
0.00350749
0.00351124
0.00351232
0.00351473
0.00351537
0.00351695
0.00351731
0.00351835
0.0035186
0.00351939
0.00351963
0.00352038
0.0035206
0.00352139
0.00352112
0.00352873
0.00297849
0.00348741
0.00355945
0.00356917
0.00357041
0.00357036
0.0035699
0.00356935
0.00356865
0.00356798
0.00356732
0.00356667
0.00356617
0.00356566
0.00356528
0.00356498
0.00356443
0.00356464
0.00356443
0.00356807
0.0033631
0.00377623
0.00379316
0.00376837
0.00376149
0.0037473
0.0037466
0.00373837
0.00373856
0.00373294
0.00373338
0.0037293
0.00372972
0.00372663
0.00372702
0.0037245
0.00372513
0.00372225
0.0037224
0.00373281
0.000838548
0.00123525
0.00129207
0.001275
0.00123135
0.00119055
0.00115805
0.00113433
0.00111663
0.00110263
0.0010924
0.00108296
0.00107636
0.00106926
0.00106463
0.00105918
0.00105529
0.0010522
0.00104612
0.00105171
0.000356022
0.000750929
0.000881222
0.000931722
0.000948992
0.000959649
0.000964911
0.000970623
0.00097344
0.000976464
0.000977458
0.000978672
0.000978727
0.000978926
0.000978677
0.000978553
0.000978132
0.000977832
0.000977226
0.000979402
0.000307672
0.000664899
0.000783474
0.000836586
0.000852686
0.00086435
0.000867032
0.000872473
0.000874362
0.000878465
0.000880461
0.000884111
0.000886281
0.00088931
0.000891572
0.000894023
0.000896309
0.000898338
0.000899848
0.000903603
0.000316761
0.0006689
0.00078458
0.000835407
0.000851157
0.000860891
0.000862304
0.000864838
0.000864932
0.000865724
0.00086592
0.000866671
0.00086711
0.000867962
0.000868868
0.000869553
0.000870906
0.000871568
0.000872743
0.000875644
0.000312436
0.000664476
0.000779722
0.000830828
0.000846266
0.000856024
0.000857197
0.000859483
0.000859248
0.000859621
0.000859309
0.000859437
0.000859253
0.000859321
0.000859321
0.000859378
0.000859624
0.000859733
0.000860027
0.00086195
0.000314864
0.000666953
0.00078222
0.000832973
0.000848507
0.00085813
0.000859432
0.000861645
0.000861448
0.000861771
0.000861456
0.000861503
0.000861268
0.00086122
0.000861094
0.000861008
0.000861045
0.00086099
0.000861125
0.000862782
0.000314864
0.000666953
0.00078222
0.000832973
0.000848507
0.00085813
0.000859432
0.000861645
0.000861448
0.000861771
0.000861456
0.000861503
0.000861268
0.000861221
0.000861094
0.000861009
0.000861045
0.00086099
0.000861123
0.000862781
0.000312435
0.000664476
0.000779722
0.000830828
0.000846266
0.000856024
0.000857197
0.000859483
0.000859248
0.000859621
0.000859308
0.000859437
0.000859253
0.000859322
0.00085932
0.000859378
0.000859623
0.000859729
0.000860024
0.000861939
0.00031676
0.0006689
0.00078458
0.000835408
0.000851157
0.000860891
0.000862303
0.000864838
0.000864932
0.000865725
0.00086592
0.000866675
0.000867104
0.000867972
0.000868846
0.000869569
0.000870879
0.00087156
0.000872723
0.000875605
0.000307671
0.000664899
0.000783473
0.000836587
0.000852685
0.000864351
0.000867032
0.000872473
0.000874362
0.000878468
0.000880452
0.00088412
0.000886265
0.000889328
0.000891534
0.00089405
0.000896245
0.000898341
0.000899807
0.00090352
0.000356021
0.000750929
0.000881221
0.000931722
0.000948991
0.00095965
0.000964909
0.000970626
0.000973435
0.00097647
0.000977448
0.00097868
0.000978721
0.00097893
0.000978641
0.000978559
0.000978063
0.000977853
0.000977131
0.000979408
0.000838548
0.00123525
0.00129207
0.001275
0.00123135
0.00119055
0.00115805
0.00113433
0.00111663
0.00110264
0.0010924
0.00108298
0.00107636
0.00106931
0.00106463
0.00105929
0.0010553
0.00105243
0.0010462
0.00105238
0.000838548
0.00123525
0.00129207
0.001275
0.00123135
0.00119055
0.00115805
0.00113433
0.00111663
0.00110263
0.0010924
0.00108296
0.00107636
0.00106926
0.00106463
0.00105918
0.00105529
0.0010522
0.00104612
0.00105171
0.000356022
0.000750929
0.000881222
0.000931722
0.000948992
0.000959649
0.000964911
0.000970623
0.00097344
0.000976464
0.000977458
0.000978672
0.000978727
0.000978926
0.000978677
0.000978553
0.000978132
0.000977832
0.000977226
0.000979402
0.000307672
0.000664899
0.000783474
0.000836586
0.000852686
0.00086435
0.000867032
0.000872473
0.000874362
0.000878465
0.000880461
0.000884111
0.000886281
0.00088931
0.000891573
0.000894023
0.000896309
0.000898338
0.000899848
0.000903603
0.000316761
0.0006689
0.00078458
0.000835407
0.000851157
0.000860891
0.000862304
0.000864838
0.000864932
0.000865724
0.00086592
0.000866671
0.00086711
0.000867962
0.000868868
0.000869553
0.000870906
0.000871568
0.000872743
0.000875644
0.000312436
0.000664476
0.000779722
0.000830828
0.000846266
0.000856024
0.000857197
0.000859483
0.000859248
0.000859621
0.000859309
0.000859437
0.000859254
0.000859321
0.000859321
0.000859378
0.000859624
0.000859733
0.000860028
0.00086195
0.000314864
0.000666953
0.00078222
0.000832973
0.000848507
0.00085813
0.000859432
0.000861645
0.000861448
0.000861771
0.000861456
0.000861503
0.000861268
0.000861221
0.000861094
0.000861008
0.000861045
0.00086099
0.000861125
0.000862782
0.000314864
0.000666953
0.00078222
0.000832973
0.000848507
0.00085813
0.000859432
0.000861645
0.000861448
0.000861771
0.000861456
0.000861503
0.000861268
0.000861221
0.000861094
0.000861009
0.000861045
0.00086099
0.000861123
0.000862781
0.000312435
0.000664476
0.000779722
0.000830828
0.000846266
0.000856024
0.000857197
0.000859483
0.000859248
0.000859621
0.000859308
0.000859437
0.000859253
0.000859322
0.00085932
0.000859378
0.000859623
0.00085973
0.000860024
0.000861939
0.00031676
0.0006689
0.00078458
0.000835408
0.000851157
0.000860891
0.000862303
0.000864839
0.000864932
0.000865725
0.00086592
0.000866675
0.000867104
0.000867972
0.000868846
0.000869569
0.000870879
0.00087156
0.000872723
0.000875605
0.000307671
0.000664899
0.000783473
0.000836587
0.000852685
0.000864351
0.000867032
0.000872473
0.000874362
0.000878468
0.000880452
0.00088412
0.000886265
0.000889328
0.000891534
0.00089405
0.000896246
0.000898341
0.000899807
0.00090352
0.000356021
0.000750929
0.000881222
0.000931722
0.000948991
0.00095965
0.000964909
0.000970626
0.000973435
0.00097647
0.000977448
0.00097868
0.000978721
0.00097893
0.000978641
0.000978559
0.000978063
0.000977853
0.000977131
0.000979408
0.000838548
0.00123525
0.00129207
0.001275
0.00123135
0.00119055
0.00115805
0.00113433
0.00111663
0.00110264
0.0010924
0.00108298
0.00107636
0.00106931
0.00106463
0.00105929
0.0010553
0.00105243
0.0010462
0.00105238
0.0033631
0.00377623
0.00379316
0.00376837
0.00376149
0.0037473
0.0037466
0.00373837
0.00373856
0.00373294
0.00373338
0.00372929
0.00372973
0.00372661
0.00372704
0.00372444
0.00372521
0.00372202
0.00372273
0.00373183
0.00297849
0.00348741
0.00355945
0.00356917
0.00357041
0.00357036
0.0035699
0.00356934
0.00356865
0.00356797
0.00356733
0.00356666
0.0035662
0.00356561
0.00356536
0.00356484
0.00356467
0.00356425
0.00356512
0.00356676
0.00289875
0.00341352
0.00348919
0.00350469
0.00350749
0.00351124
0.00351232
0.00351473
0.00351538
0.00351694
0.00351732
0.00351833
0.00351862
0.00351933
0.00351973
0.00352021
0.00352089
0.003521
0.00352156
0.00352827
0.0028966
0.00341147
0.00348632
0.00350102
0.00350228
0.00350452
0.00350451
0.0035057
0.00350584
0.00350678
0.00350692
0.00350761
0.00350777
0.00350828
0.00350859
0.00350894
0.00350962
0.00350971
0.0035105
0.00351487
0.00289359
0.00340811
0.00348296
0.00349803
0.00349906
0.00350106
0.00350058
0.00350139
0.00350101
0.00350155
0.00350122
0.00350158
0.00350132
0.00350155
0.00350139
0.00350159
0.00350163
0.00350189
0.00350223
0.0035067
0.0028952
0.00340987
0.00348448
0.00349944
0.00350042
0.0035024
0.00350187
0.00350265
0.00350217
0.00350264
0.00350218
0.00350244
0.00350202
0.00350213
0.00350178
0.00350184
0.00350167
0.00350177
0.00350184
0.00350589
0.0028952
0.00340987
0.00348448
0.00349944
0.00350042
0.0035024
0.00350187
0.00350265
0.00350217
0.00350264
0.00350218
0.00350244
0.00350202
0.00350213
0.00350178
0.00350185
0.00350167
0.00350177
0.00350184
0.00350588
0.00289359
0.00340811
0.00348296
0.00349803
0.00349906
0.00350106
0.00350058
0.0035014
0.003501
0.00350155
0.00350122
0.00350158
0.00350131
0.00350156
0.00350138
0.00350162
0.00350161
0.00350192
0.0035022
0.00350671
0.0028966
0.00341147
0.00348632
0.00350102
0.00350228
0.00350452
0.00350451
0.0035057
0.00350584
0.00350678
0.00350691
0.00350762
0.00350775
0.00350831
0.00350852
0.00350904
0.00350946
0.00350981
0.00351041
0.00351498
0.00289875
0.00341352
0.00348919
0.00350469
0.00350749
0.00351124
0.00351232
0.00351473
0.00351537
0.00351695
0.00351731
0.00351835
0.0035186
0.00351939
0.00351963
0.00352038
0.0035206
0.00352139
0.00352112
0.00352873
0.00297849
0.00348741
0.00355945
0.00356917
0.00357041
0.00357036
0.0035699
0.00356935
0.00356865
0.00356798
0.00356732
0.00356667
0.00356617
0.00356566
0.00356528
0.00356498
0.00356443
0.00356464
0.00356443
0.00356807
0.0033631
0.00377623
0.00379316
0.00376837
0.00376149
0.0037473
0.0037466
0.00373837
0.00373856
0.00373294
0.00373338
0.0037293
0.00372972
0.00372663
0.00372702
0.0037245
0.00372513
0.00372225
0.0037224
0.00373281
0.00875638
0.00912597
0.00912998
0.00913476
0.00912914
0.00913002
0.00912541
0.00912625
0.00912303
0.00912395
0.00912156
0.00912241
0.00912042
0.00912111
0.00911983
0.0091203
0.0091202
0.00911879
0.00912565
0.0091361
0.00451644
0.00454421
0.00445043
0.00435862
0.00431431
0.00429696
0.00428192
0.00427727
0.00426926
0.00426741
0.00426219
0.00426122
0.00425837
0.00425806
0.00425608
0.00425578
0.00425471
0.00425372
0.00428264
0.0042842
0.00345192
0.00368685
0.0037109
0.00370823
0.0037007
0.00369889
0.00369409
0.00369317
0.00368962
0.00368879
0.0036858
0.00368507
0.00368264
0.00368207
0.00368016
0.00367973
0.00367834
0.00367787
0.00367859
0.00368371
0.00332078
0.0035919
0.00364365
0.00366246
0.00366758
0.00367452
0.00367574
0.00367936
0.0036795
0.00368142
0.00368107
0.00368219
0.00368159
0.00368226
0.0036816
0.00368208
0.00368152
0.00368193
0.00368199
0.00368662
0.00330633
0.00358088
0.00363536
0.00365747
0.00366523
0.00367494
0.00367819
0.00368469
0.00368658
0.00369109
0.00369228
0.00369558
0.0036963
0.00369874
0.00369919
0.00370108
0.00370143
0.00370288
0.00370354
0.00370856
0.00330786
0.00358017
0.00363433
0.00365677
0.00366526
0.00367594
0.00368017
0.00368786
0.00369069
0.00369656
0.00369862
0.0037032
0.00370473
0.00370833
0.00370947
0.00371235
0.0037133
0.00371552
0.00371689
0.00372199
0.00330786
0.00358017
0.00363433
0.00365677
0.00366526
0.00367594
0.00368017
0.00368786
0.00369069
0.00369656
0.00369862
0.0037032
0.00370473
0.00370833
0.00370947
0.00371236
0.0037133
0.00371553
0.00371691
0.00372201
0.00330633
0.00358088
0.00363536
0.00365748
0.00366523
0.00367494
0.00367819
0.0036847
0.00368658
0.0036911
0.00369227
0.00369558
0.00369629
0.00369875
0.00369918
0.0037011
0.00370143
0.00370292
0.00370355
0.00370862
0.00332078
0.0035919
0.00364365
0.00366246
0.00366757
0.00367452
0.00367574
0.00367936
0.0036795
0.00368142
0.00368106
0.00368221
0.00368157
0.00368229
0.00368156
0.00368216
0.00368144
0.00368211
0.00368187
0.0036868
0.00345192
0.00368685
0.0037109
0.00370823
0.0037007
0.00369889
0.00369409
0.00369317
0.00368962
0.0036888
0.00368578
0.00368509
0.00368261
0.00368211
0.00368008
0.00367984
0.00367813
0.00367829
0.00367818
0.00368437
0.00451644
0.00454421
0.00445043
0.00435862
0.00431431
0.00429696
0.00428192
0.00427728
0.00426926
0.00426741
0.00426218
0.00426123
0.00425834
0.0042581
0.00425601
0.00425589
0.00425448
0.00425418
0.00428135
0.00428566
0.00875638
0.00912597
0.00912998
0.00913476
0.00912914
0.00913002
0.00912541
0.00912625
0.00912302
0.00912396
0.00912154
0.00912243
0.00912038
0.00912118
0.00911972
0.00912049
0.00911985
0.00911944
0.00912415
0.00913938
0.0266211
0.0268124
0.0269042
0.0269808
0.0270421
0.0271011
0.02715
0.0271967
0.0272363
0.0272759
0.0273117
0.0273478
0.0273801
0.0274116
0.0274394
0.0274666
0.027491
0.0275148
0.0275357
0.0275552
0.0275717
0.0275867
0.0275992
0.0276107
0.02762
0.0276284
0.0276347
0.0276401
0.0276438
0.0276468
0.0276485
0.0276499
0.0276504
0.027651
0.0276511
0.0276513
0.0276512
0.0276513
0.0276511
0.0276512
0.027651
0.027651
0.0276508
0.0276509
0.0276507
0.0276507
0.0276506
0.0276506
0.0276504
0.0276505
0.0276503
0.0276503
0.0276502
0.0276502
0.02765
0.0276501
0.0276499
0.0276499
0.0276498
0.0276498
0.0276497
0.0276497
0.0276495
0.0276495
0.0276494
0.0276494
0.0276493
0.0276493
0.0276491
0.0276491
0.027649
0.027649
0.0276489
0.0276488
0.0276487
0.0276487
0.0276486
0.0276485
0.0276484
0.0276483
0.0276482
0.0276482
0.027648
0.0276479
0.0276477
0.0276477
0.0276473
0.0276473
0.0276443
0.0276426
0.0152485
0.0155268
0.0155762
0.0156212
0.0156521
0.0156875
0.0157125
0.0157408
0.0157611
0.0157851
0.0158035
0.0158254
0.0158422
0.0158613
0.0158758
0.0158923
0.015905
0.0159195
0.0159303
0.0159424
0.0159508
0.0159601
0.0159664
0.0159736
0.0159781
0.0159836
0.0159864
0.0159902
0.0159915
0.0159938
0.0159941
0.0159954
0.0159951
0.0159959
0.0159954
0.0159959
0.0159953
0.0159957
0.0159951
0.0159955
0.015995
0.0159953
0.0159948
0.0159952
0.0159947
0.015995
0.0159946
0.0159949
0.0159944
0.0159947
0.0159943
0.0159946
0.0159943
0.0159945
0.0159942
0.0159944
0.0159941
0.0159943
0.0159941
0.0159943
0.015994
0.0159942
0.015994
0.0159942
0.015994
0.0159941
0.0159939
0.0159941
0.0159939
0.0159941
0.0159939
0.0159941
0.0159939
0.0159941
0.0159939
0.0159941
0.0159939
0.0159941
0.0159939
0.015994
0.0159939
0.015994
0.0159939
0.015994
0.0159938
0.0159939
0.0159936
0.0159938
0.0159911
0.0159898
0.0122437
0.01264
0.0126767
0.0127116
0.0127294
0.0127582
0.0127737
0.0127976
0.0128101
0.0128301
0.0128414
0.0128598
0.0128706
0.0128871
0.0128964
0.0129106
0.0129187
0.0129313
0.0129384
0.0129492
0.0129547
0.0129633
0.0129671
0.012974
0.0129765
0.0129819
0.0129834
0.0129873
0.0129877
0.0129903
0.0129899
0.0129915
0.0129906
0.0129917
0.0129906
0.0129915
0.0129903
0.0129911
0.0129899
0.0129906
0.0129896
0.0129902
0.0129893
0.0129899
0.012989
0.0129896
0.0129887
0.0129893
0.0129885
0.012989
0.0129883
0.0129888
0.0129881
0.0129886
0.012988
0.0129885
0.0129879
0.0129884
0.0129878
0.0129883
0.0129878
0.0129882
0.0129878
0.0129882
0.0129878
0.0129882
0.0129878
0.0129882
0.0129879
0.0129883
0.012988
0.0129883
0.0129881
0.0129884
0.0129882
0.0129885
0.0129883
0.0129886
0.0129885
0.0129888
0.0129886
0.0129889
0.0129888
0.012989
0.0129889
0.0129892
0.0129889
0.0129893
0.0129883
0.0129847
0.0117843
0.0122775
0.0123147
0.012345
0.0123559
0.0123813
0.0123927
0.0124153
0.0124244
0.0124427
0.0124507
0.0124678
0.0124763
0.0124923
0.0124997
0.0125135
0.0125198
0.0125321
0.0125379
0.0125489
0.0125536
0.0125626
0.0125658
0.0125729
0.012575
0.0125808
0.012582
0.0125865
0.0125868
0.0125899
0.0125893
0.0125914
0.0125902
0.0125917
0.0125903
0.0125914
0.0125899
0.0125909
0.0125895
0.0125903
0.012589
0.0125898
0.0125886
0.0125894
0.0125883
0.012589
0.012588
0.0125886
0.0125877
0.0125884
0.0125875
0.0125881
0.0125873
0.0125879
0.0125872
0.0125878
0.0125871
0.0125877
0.0125871
0.0125876
0.0125871
0.0125876
0.0125871
0.0125876
0.0125872
0.0125877
0.0125873
0.0125878
0.0125874
0.0125879
0.0125876
0.0125881
0.0125878
0.0125883
0.0125881
0.0125885
0.0125883
0.0125888
0.0125886
0.0125891
0.0125889
0.0125894
0.0125892
0.0125897
0.0125895
0.01259
0.0125898
0.0125902
0.0125902
0.0125857
0.0117474
0.0122919
0.012331
0.0123582
0.0123638
0.0123855
0.0123938
0.0124146
0.0124212
0.0124377
0.0124432
0.0124587
0.0124655
0.0124808
0.0124869
0.0125
0.0125051
0.0125168
0.0125218
0.0125328
0.012537
0.0125461
0.0125489
0.0125562
0.012558
0.012564
0.0125652
0.01257
0.0125704
0.0125738
0.0125733
0.0125757
0.0125745
0.0125761
0.0125746
0.0125759
0.0125743
0.0125754
0.0125738
0.0125748
0.0125734
0.0125743
0.012573
0.0125738
0.0125726
0.0125735
0.0125723
0.0125731
0.0125721
0.0125729
0.0125719
0.0125727
0.0125718
0.0125725
0.0125717
0.0125724
0.0125717
0.0125724
0.0125717
0.0125724
0.0125718
0.0125724
0.0125719
0.0125725
0.0125721
0.0125727
0.0125723
0.0125728
0.0125725
0.0125731
0.0125728
0.0125733
0.0125731
0.0125737
0.0125734
0.012574
0.0125738
0.0125744
0.0125742
0.0125748
0.0125747
0.0125752
0.0125751
0.0125756
0.0125755
0.012576
0.012576
0.0125764
0.0125767
0.0125717
0.0117637
0.0123379
0.0123778
0.012402
0.0124033
0.0124208
0.0124261
0.0124442
0.0124485
0.0124626
0.012466
0.0124796
0.0124848
0.0124988
0.0125037
0.0125157
0.0125196
0.0125304
0.0125345
0.012545
0.0125486
0.0125575
0.0125599
0.012567
0.0125686
0.0125745
0.0125756
0.0125805
0.0125808
0.0125844
0.0125839
0.0125864
0.0125853
0.012587
0.0125855
0.0125868
0.0125852
0.0125863
0.0125847
0.0125857
0.0125843
0.0125852
0.0125839
0.0125848
0.0125836
0.0125844
0.0125833
0.0125841
0.0125831
0.0125839
0.0125829
0.0125837
0.0125828
0.0125836
0.0125828
0.0125835
0.0125828
0.0125835
0.0125829
0.0125836
0.012583
0.0125837
0.0125832
0.0125838
0.0125834
0.012584
0.0125836
0.0125843
0.0125839
0.0125846
0.0125843
0.0125849
0.0125847
0.0125853
0.0125851
0.0125857
0.0125856
0.0125861
0.012586
0.0125866
0.0125865
0.0125871
0.0125871
0.0125876
0.0125876
0.0125881
0.0125881
0.0125886
0.0125891
0.0125839
0.011764
0.0123361
0.0123724
0.0123923
0.0123899
0.0124039
0.0124063
0.0124213
0.0124235
0.0124351
0.0124367
0.0124482
0.0124519
0.0124642
0.0124678
0.0124784
0.0124812
0.0124908
0.0124941
0.0125035
0.0125066
0.0125147
0.0125166
0.0125231
0.0125244
0.0125299
0.0125308
0.0125355
0.0125357
0.0125392
0.0125387
0.0125411
0.0125399
0.0125417
0.0125401
0.0125415
0.0125398
0.012541
0.0125394
0.0125404
0.0125389
0.0125399
0.0125386
0.0125395
0.0125382
0.0125391
0.012538
0.0125388
0.0125378
0.0125386
0.0125376
0.0125384
0.0125375
0.0125383
0.0125375
0.0125382
0.0125375
0.0125382
0.0125376
0.0125383
0.0125377
0.0125384
0.0125379
0.0125385
0.0125381
0.0125388
0.0125384
0.012539
0.0125387
0.0125393
0.012539
0.0125396
0.0125394
0.01254
0.0125398
0.0125404
0.0125403
0.0125409
0.0125408
0.0125414
0.0125413
0.0125419
0.0125418
0.0125424
0.0125424
0.0125429
0.0125429
0.0125433
0.0125439
0.0125387
0.0117479
0.0122841
0.0123111
0.0123254
0.01232
0.0123308
0.0123307
0.0123427
0.0123429
0.0123522
0.0123523
0.0123619
0.0123642
0.0123746
0.0123769
0.0123858
0.0123876
0.0123958
0.0123981
0.0124063
0.0124085
0.0124155
0.0124168
0.0124225
0.0124233
0.0124282
0.0124287
0.0124329
0.0124329
0.0124361
0.0124354
0.0124377
0.0124365
0.0124381
0.0124365
0.0124378
0.0124362
0.0124373
0.0124358
0.0124367
0.0124353
0.0124362
0.0124349
0.0124358
0.0124346
0.0124354
0.0124343
0.0124351
0.0124341
0.0124348
0.0124339
0.0124346
0.0124338
0.0124345
0.0124337
0.0124344
0.0124337
0.0124344
0.0124337
0.0124344
0.0124338
0.0124344
0.0124339
0.0124345
0.0124341
0.0124347
0.0124343
0.0124349
0.0124346
0.0124351
0.0124348
0.0124354
0.0124352
0.0124357
0.0124355
0.0124361
0.0124359
0.0124365
0.0124363
0.0124369
0.0124368
0.0124373
0.0124372
0.0124377
0.0124377
0.0124382
0.0124381
0.0124385
0.012439
0.0124343
0.0117806
0.0122531
0.0122679
0.0122765
0.0122694
0.0122774
0.0122755
0.0122846
0.0122831
0.0122903
0.0122894
0.0122971
0.0122982
0.0123064
0.0123075
0.0123144
0.0123153
0.0123219
0.0123233
0.0123299
0.0123312
0.0123368
0.0123374
0.012342
0.0123423
0.0123463
0.0123464
0.0123499
0.0123496
0.0123523
0.0123515
0.0123534
0.0123521
0.0123535
0.0123521
0.0123532
0.0123517
0.0123526
0.0123512
0.0123521
0.0123508
0.0123516
0.0123504
0.0123512
0.0123501
0.0123508
0.0123498
0.0123505
0.0123495
0.0123502
0.0123493
0.01235
0.0123492
0.0123498
0.0123491
0.0123497
0.012349
0.0123496
0.012349
0.0123495
0.012349
0.0123495
0.012349
0.0123495
0.0123491
0.0123496
0.0123492
0.0123497
0.0123494
0.0123499
0.0123496
0.0123501
0.0123498
0.0123503
0.01235
0.0123505
0.0123503
0.0123508
0.0123506
0.0123511
0.0123509
0.0123514
0.0123513
0.0123517
0.0123516
0.012352
0.0123519
0.0123523
0.0123524
0.0123482
0.0122224
0.0125773
0.0125792
0.0125839
0.0125769
0.0125829
0.0125801
0.0125865
0.0125842
0.0125894
0.012588
0.0125938
0.0125938
0.0125996
0.0125997
0.0126046
0.0126047
0.0126095
0.01261
0.0126147
0.0126152
0.0126191
0.0126191
0.0126224
0.0126223
0.0126252
0.0126251
0.0126276
0.0126271
0.012629
0.0126282
0.0126296
0.0126285
0.0126296
0.0126284
0.0126292
0.012628
0.0126288
0.0126277
0.0126284
0.0126273
0.012628
0.012627
0.0126276
0.0126267
0.0126273
0.0126265
0.012627
0.0126263
0.0126268
0.0126261
0.0126266
0.0126259
0.0126264
0.0126258
0.0126263
0.0126257
0.0126262
0.0126257
0.0126261
0.0126256
0.012626
0.0126256
0.012626
0.0126256
0.012626
0.0126257
0.0126261
0.0126258
0.0126261
0.0126259
0.0126262
0.012626
0.0126263
0.0126261
0.0126264
0.0126262
0.0126266
0.0126264
0.0126267
0.0126266
0.0126269
0.0126267
0.012627
0.0126269
0.0126272
0.012627
0.0126273
0.0126267
0.0126235
0.0151812
0.0153866
0.0153847
0.0153872
0.0153828
0.0153867
0.0153851
0.0153891
0.0153877
0.015391
0.0153904
0.0153941
0.0153943
0.0153979
0.0153981
0.0154011
0.0154014
0.0154043
0.0154049
0.0154077
0.0154082
0.0154106
0.0154107
0.0154127
0.0154128
0.0154146
0.0154147
0.0154162
0.015416
0.0154172
0.0154168
0.0154176
0.015417
0.0154177
0.0154171
0.0154176
0.0154169
0.0154174
0.0154168
0.0154172
0.0154167
0.0154171
0.0154165
0.0154169
0.0154164
0.0154168
0.0154163
0.0154167
0.0154162
0.0154166
0.0154162
0.0154165
0.0154161
0.0154164
0.0154161
0.0154163
0.015416
0.0154163
0.015416
0.0154162
0.015416
0.0154162
0.015416
0.0154162
0.015416
0.0154162
0.015416
0.0154162
0.015416
0.0154162
0.0154161
0.0154162
0.0154161
0.0154163
0.0154161
0.0154163
0.0154162
0.0154163
0.0154162
0.0154164
0.0154162
0.0154164
0.0154163
0.0154164
0.0154163
0.0154164
0.0154162
0.0154164
0.0154139
0.0154128
0.0264656
0.0265233
0.0265246
0.0265266
0.0265251
0.0265282
0.026529
0.0265323
0.026533
0.0265356
0.0265366
0.0265397
0.0265416
0.0265447
0.0265463
0.0265489
0.0265504
0.0265529
0.0265547
0.0265572
0.0265587
0.0265607
0.0265618
0.0265634
0.0265644
0.0265658
0.0265667
0.0265678
0.0265684
0.0265692
0.0265694
0.02657
0.0265699
0.0265703
0.0265701
0.0265703
0.0265701
0.0265703
0.0265701
0.0265703
0.0265701
0.0265702
0.02657
0.0265702
0.02657
0.0265701
0.02657
0.0265701
0.0265699
0.02657
0.0265699
0.02657
0.0265698
0.0265699
0.0265698
0.0265699
0.0265698
0.0265698
0.0265697
0.0265698
0.0265697
0.0265697
0.0265697
0.0265697
0.0265696
0.0265697
0.0265696
0.0265696
0.0265695
0.0265696
0.0265695
0.0265695
0.0265695
0.0265695
0.0265694
0.0265694
0.0265694
0.0265694
0.0265693
0.0265693
0.0265692
0.0265693
0.0265692
0.0265692
0.026569
0.026569
0.0265689
0.0265689
0.0265662
0.026565
0.0121827
0.012333
0.0123759
0.0124084
0.0124365
0.0124621
0.012484
0.0125046
0.0125221
0.01254
0.0125557
0.0125722
0.0125861
0.0126005
0.0126123
0.012625
0.0126353
0.0126464
0.0126551
0.0126642
0.0126709
0.012678
0.0126829
0.0126884
0.0126919
0.012696
0.0126982
0.0127009
0.0127019
0.0127036
0.0127038
0.0127047
0.0127045
0.0127051
0.0127046
0.012705
0.0127046
0.0127049
0.0127045
0.0127048
0.0127044
0.0127047
0.0127043
0.0127046
0.0127042
0.0127045
0.0127041
0.0127044
0.012704
0.0127043
0.012704
0.0127042
0.0127039
0.0127042
0.0127039
0.0127041
0.0127039
0.0127041
0.0127039
0.0127041
0.0127039
0.012704
0.0127038
0.012704
0.0127038
0.012704
0.0127038
0.012704
0.0127039
0.012704
0.0127039
0.012704
0.0127039
0.012704
0.0127039
0.0127041
0.012704
0.0127041
0.012704
0.0127042
0.0127041
0.0127043
0.0127042
0.0127044
0.0127043
0.0127046
0.0127045
0.012705
0.0127042
0.0127043
0.0117469
0.0120169
0.0120605
0.0120933
0.0121203
0.0121461
0.0121675
0.0121882
0.0122054
0.0122231
0.0122385
0.0122548
0.0122686
0.0122829
0.0122947
0.0123071
0.0123174
0.0123283
0.0123371
0.0123461
0.012353
0.01236
0.0123651
0.0123705
0.0123742
0.0123782
0.0123806
0.0123833
0.0123845
0.0123861
0.0123864
0.0123873
0.0123872
0.0123876
0.0123873
0.0123876
0.0123872
0.0123874
0.012387
0.0123872
0.0123868
0.012387
0.0123866
0.0123868
0.0123865
0.0123866
0.0123863
0.0123864
0.0123861
0.0123863
0.012386
0.0123861
0.0123859
0.012386
0.0123858
0.0123859
0.0123857
0.0123858
0.0123856
0.0123857
0.0123855
0.0123856
0.0123854
0.0123855
0.0123853
0.0123854
0.0123853
0.0123854
0.0123853
0.0123853
0.0123852
0.0123853
0.0123852
0.0123853
0.0123852
0.0123853
0.0123852
0.0123853
0.0123852
0.0123853
0.0123852
0.0123853
0.0123853
0.0123854
0.0123853
0.0123855
0.0123853
0.0123856
0.0123854
0.0123856
0.0112781
0.0116674
0.0117158
0.0117457
0.0117705
0.0117944
0.0118152
0.0118348
0.0118515
0.0118678
0.0118825
0.0118977
0.0119115
0.0119251
0.011937
0.0119487
0.0119591
0.0119695
0.0119786
0.0119875
0.0119948
0.0120017
0.0120072
0.0120126
0.0120167
0.0120208
0.0120237
0.0120266
0.0120283
0.01203
0.0120308
0.0120317
0.0120319
0.0120323
0.0120322
0.0120323
0.0120322
0.0120323
0.012032
0.0120321
0.0120319
0.012032
0.0120318
0.0120318
0.0120316
0.0120317
0.0120315
0.0120315
0.0120314
0.0120314
0.0120313
0.0120313
0.0120311
0.0120312
0.0120311
0.0120311
0.012031
0.012031
0.0120309
0.0120309
0.0120308
0.0120308
0.0120307
0.0120308
0.0120307
0.0120307
0.0120306
0.0120307
0.0120306
0.0120306
0.0120306
0.0120306
0.0120306
0.0120306
0.0120305
0.0120306
0.0120305
0.0120306
0.0120305
0.0120306