/*--------------------------------*- C++ -*----------------------------------*\
  =========                 |
  \\      /  F ield         | OpenFOAM: The Open Source CFD Toolbox
   \\    /   O peration     | Website:  https://openfoam.org
    \\  /    A nd           | Version:  7
     \\/     M anipulation  |
\*---------------------------------------------------------------------------*/
FoamFile
{
    version     2.0;
    format      ascii;
    class       volScalarField;
    location    "1.05";
    object      T;
}
// * * * * * * * * * * * * * * * * * * * * * * * * * * * * * * * * * * * * * //

dimensions      [0 0 0 1 0 0 0];

internalField   nonuniform List<scalar> 
3600
(
283.158
283.17
283.183
283.195
283.208
283.22
283.231
283.243
283.258
283.271
283.28
283.291
283.308
283.329
283.346
283.358
283.365
283.369
283.371
283.371
283.371
283.368
283.364
283.358
283.351
283.345
283.34
283.334
283.329
283.325
283.32
283.316
283.313
283.309
283.306
283.303
283.3
283.297
283.295
283.292
283.291
283.289
283.289
283.29
283.291
283.293
283.296
283.298
283.302
283.305
283.31
283.311
283.319
283.315
283.335
283.307
283.373
283.252
283.501
283.021
283.158
283.17
283.182
283.194
283.207
283.221
283.236
283.25
283.264
283.278
283.295
283.314
283.333
283.348
283.36
283.372
283.389
283.414
283.444
283.475
283.501
283.519
283.528
283.53
283.528
283.522
283.513
283.502
283.491
283.479
283.468
283.454
283.439
283.421
283.404
283.389
283.376
283.362
283.347
283.328
283.306
283.283
283.26
283.239
283.223
283.21
283.202
283.196
283.195
283.193
283.197
283.2
283.211
283.215
283.235
283.233
283.262
283.246
283.297
283.26
283.157
283.169
283.182
283.194
283.206
283.22
283.235
283.25
283.262
283.274
283.289
283.309
283.331
283.349
283.359
283.364
283.37
283.384
283.409
283.444
283.482
283.517
283.545
283.564
283.574
283.576
283.572
283.566
283.558
283.549
283.539
283.527
283.513
283.498
283.485
283.472
283.46
283.446
283.428
283.407
283.384
283.363
283.346
283.332
283.32
283.306
283.288
283.263
283.233
283.199
283.165
283.134
283.109
283.092
283.081
283.076
283.076
283.079
283.087
283.098
283.157
283.169
283.181
283.194
283.206
283.219
283.235
283.25
283.263
283.274
283.288
283.309
283.332
283.35
283.36
283.363
283.367
283.379
283.403
283.437
283.476
283.514
283.545
283.567
283.58
283.584
283.581
283.575
283.568
283.56
283.552
283.542
283.529
283.514
283.5
283.488
283.479
283.471
283.46
283.443
283.42
283.394
283.371
283.354
283.344
283.339
283.335
283.327
283.311
283.284
283.248
283.205
283.16
283.117
283.081
283.054
283.035
283.023
283.018
283.013
283.156
283.168
283.181
283.193
283.205
283.219
283.234
283.25
283.262
283.274
283.288
283.309
283.332
283.351
283.36
283.363
283.367
283.379
283.404
283.44
283.479
283.517
283.547
283.569
283.581
283.584
283.581
283.575
283.567
283.56
283.552
283.542
283.529
283.513
283.498
283.487
283.479
283.472
283.462
283.445
283.421
283.395
283.37
283.353
283.344
283.341
283.339
283.334
283.321
283.296
283.261
283.217
283.17
283.124
283.083
283.053
283.031
283.017
283.01
283.001
283.156
283.167
283.18
283.192
283.204
283.218
283.234
283.249
283.262
283.273
283.288
283.309
283.332
283.351
283.36
283.363
283.367
283.38
283.405
283.441
283.481
283.518
283.548
283.57
283.581
283.584
283.581
283.574
283.567
283.56
283.552
283.542
283.528
283.512
283.497
283.486
283.479
283.472
283.461
283.443
283.419
283.392
283.368
283.352
283.343
283.341
283.339
283.334
283.32
283.294
283.258
283.213
283.165
283.119
283.079
283.05
283.029
283.016
283.009
283
283.155
283.167
283.179
283.192
283.204
283.217
283.233
283.249
283.261
283.273
283.288
283.309
283.332
283.35
283.36
283.362
283.366
283.38
283.405
283.441
283.48
283.518
283.548
283.57
283.581
283.584
283.581
283.574
283.567
283.56
283.552
283.541
283.528
283.512
283.497
283.486
283.479
283.471
283.461
283.443
283.418
283.392
283.368
283.351
283.343
283.341
283.339
283.334
283.32
283.294
283.258
283.213
283.165
283.119
283.079
283.05
283.029
283.016
283.009
283
283.154
283.166
283.179
283.191
283.203
283.217
283.232
283.248
283.261
283.272
283.287
283.308
283.331
283.35
283.359
283.362
283.366
283.379
283.404
283.439
283.479
283.516
283.547
283.569
283.581
283.584
283.581
283.574
283.567
283.56
283.552
283.542
283.528
283.513
283.498
283.487
283.479
283.472
283.461
283.444
283.421
283.394
283.37
283.353
283.343
283.34
283.339
283.334
283.321
283.296
283.261
283.217
283.17
283.124
283.083
283.053
283.031
283.017
283.01
283.001
283.154
283.165
283.178
283.19
283.202
283.216
283.232
283.247
283.26
283.272
283.286
283.307
283.33
283.349
283.359
283.362
283.366
283.378
283.402
283.437
283.476
283.514
283.545
283.567
283.58
283.584
283.581
283.575
283.567
283.56
283.552
283.542
283.529
283.514
283.499
283.487
283.478
283.47
283.459
283.442
283.419
283.394
283.371
283.354
283.344
283.339
283.335
283.327
283.311
283.284
283.248
283.205
283.16
283.117
283.081
283.054
283.035
283.023
283.018
283.012
283.153
283.165
283.177
283.19
283.202
283.215
283.231
283.246
283.259
283.271
283.286
283.307
283.329
283.347
283.358
283.362
283.369
283.383
283.409
283.443
283.481
283.517
283.545
283.564
283.573
283.575
283.572
283.565
283.557
283.548
283.538
283.526
283.512
283.497
283.484
283.471
283.459
283.445
283.427
283.406
283.383
283.362
283.345
283.332
283.32
283.306
283.288
283.263
283.232
283.199
283.164
283.134
283.109
283.091
283.081
283.075
283.076
283.078
283.087
283.095
283.153
283.165
283.177
283.189
283.202
283.216
283.231
283.246
283.26
283.275
283.292
283.311
283.33
283.346
283.358
283.37
283.388
283.413
283.443
283.474
283.5
283.518
283.527
283.529
283.526
283.521
283.512
283.501
283.49
283.478
283.466
283.453
283.438
283.42
283.403
283.388
283.374
283.361
283.346
283.327
283.305
283.282
283.259
283.239
283.222
283.209
283.201
283.196
283.193
283.193
283.195
283.201
283.208
283.218
283.228
283.24
283.249
283.263
283.272
283.29
283.153
283.165
283.177
283.189
283.202
283.215
283.226
283.239
283.254
283.267
283.276
283.287
283.305
283.326
283.343
283.355
283.362
283.366
283.368
283.369
283.368
283.366
283.361
283.355
283.349
283.343
283.337
283.332
283.327
283.322
283.318
283.314
283.31
283.307
283.304
283.301
283.298
283.295
283.292
283.29
283.289
283.287
283.287
283.288
283.289
283.291
283.294
283.297
283.3
283.303
283.307
283.311
283.315
283.319
283.323
283.326
283.33
283.334
283.334
283.345
285.391
287.66
289.143
290.292
291.288
292.179
292.992
293.744
294.45
295.119
295.757
296.37
296.958
297.524
298.068
298.589
299.089
299.567
300.025
300.462
300.879
301.279
301.66
302.024
302.372
302.703
303.019
303.318
303.602
303.87
304.122
304.359
304.579
304.784
304.973
305.147
305.305
305.449
305.578
305.694
305.797
305.889
305.969
306.04
306.101
306.155
306.202
306.243
306.279
306.311
306.339
306.364
306.388
306.41
306.43
306.449
306.467
306.483
306.498
306.512
306.524
306.535
306.544
306.551
306.556
306.56
306.563
306.564
306.564
306.563
306.561
306.559
306.557
306.554
306.551
306.547
306.543
306.539
306.535
306.531
306.527
306.522
306.518
306.513
306.508
306.503
306.498
306.493
306.489
306.483
306.478
306.473
306.468
306.463
306.457
306.452
306.446
306.441
306.435
306.429
306.423
306.418
306.412
306.406
306.4
306.395
306.389
306.384
306.379
306.373
306.367
306.362
306.357
306.351
306.345
306.339
306.334
306.328
306.323
306.317
306.311
306.306
306.301
306.296
306.29
306.285
306.28
306.275
306.27
306.265
306.26
306.255
306.25
306.245
306.24
306.235
306.23
306.225
306.22
306.215
306.21
306.205
306.2
306.195
306.19
306.185
306.18
306.176
306.171
306.166
306.161
306.156
306.151
306.147
306.142
306.137
306.131
306.127
306.122
306.117
306.112
306.107
306.103
306.098
306.093
306.088
306.083
306.078
306.073
306.069
306.064
306.058
306.053
306.049
306.044
306.039
306.034
306.029
306.024
306.019
306.014
306.009
306.004
305.999
305.994
305.989
305.984
305.979
305.974
305.969
305.964
305.959
305.954
305.949
305.944
305.939
305.934
305.929
305.924
305.919
305.914
305.909
305.904
305.899
305.895
305.89
305.885
305.88
305.875
305.87
305.865
305.86
305.855
305.85
305.845
305.84
305.836
305.831
305.827
305.821
305.817
305.812
305.807
305.802
305.797
305.792
305.788
305.783
305.779
305.773
305.77
305.763
305.76
305.754
305.749
305.744
305.741
305.734
305.732
305.723
283.45
284.205
285.071
285.906
286.682
287.402
288.071
288.695
289.283
289.842
290.377
290.893
291.394
291.883
292.362
292.83
293.288
293.734
294.166
294.583
294.986
295.372
295.741
296.093
296.427
296.744
297.046
297.333
297.605
297.864
298.109
298.342
298.563
298.773
298.972
299.159
299.336
299.5
299.653
299.795
299.925
300.043
300.15
300.245
300.329
300.403
300.467
300.522
300.569
300.609
300.643
300.672
300.698
300.72
300.741
300.76
300.778
300.797
300.816
300.834
300.853
300.871
300.888
300.904
300.918
300.93
300.939
300.947
300.952
300.955
300.957
300.957
300.956
300.954
300.951
300.948
300.944
300.94
300.935
300.931
300.926
300.92
300.915
300.91
300.904
300.898
300.892
300.887
300.881
300.875
300.869
300.863
300.857
300.851
300.845
300.839
300.833
300.826
300.82
300.813
300.807
300.801
300.795
300.788
300.782
300.775
300.769
300.763
300.757
300.751
300.745
300.739
300.733
300.727
300.721
300.715
300.709
300.703
300.697
300.691
300.685
300.679
300.674
300.668
300.663
300.657
300.652
300.647
300.641
300.636
300.631
300.626
300.621
300.616
300.611
300.606
300.601
300.596
300.591
300.586
300.581
300.576
300.571
300.567
300.562
300.557
300.552
300.548
300.544
300.539
300.534
300.529
300.525
300.521
300.517
300.512
300.507
300.503
300.499
300.494
300.49
300.485
300.481
300.477
300.473
300.469
300.464
300.46
300.456
300.452
300.448
300.443
300.439
300.435
300.431
300.427
300.423
300.418
300.414
300.41
300.406
300.402
300.397
300.393
300.389
300.386
300.382
300.378
300.374
300.37
300.366
300.362
300.358
300.354
300.35
300.346
300.342
300.338
300.334
300.331
300.327
300.323
300.32
300.316
300.312
300.309
300.305
300.302
300.298
300.294
300.291
300.287
300.284
300.28
300.276
300.273
300.27
300.267
300.263
300.26
300.257
300.253
300.25
300.247
300.243
300.24
300.237
300.234
300.231
300.227
300.225
300.221
300.219
300.216
300.212
300.208
300.206
300.202
300.201
300.195
283.125
283.258
283.505
283.848
284.25
284.677
285.099
285.506
285.897
286.276
286.645
287.002
287.349
287.692
288.039
288.392
288.754
289.12
289.489
289.857
290.222
290.583
290.935
291.274
291.595
291.899
292.185
292.454
292.708
292.947
293.172
293.385
293.588
293.784
293.974
294.16
294.341
294.518
294.69
294.858
295.019
295.175
295.323
295.461
295.588
295.704
295.806
295.897
295.975
296.042
296.096
296.14
296.176
296.204
296.226
296.245
296.262
296.28
296.299
296.32
296.345
296.372
296.403
296.435
296.467
296.498
296.528
296.554
296.577
296.596
296.61
296.622
296.63
296.636
296.639
296.641
296.642
296.642
296.641
296.639
296.637
296.634
296.631
296.628
296.625
296.621
296.618
296.614
296.61
296.606
296.603
296.599
296.594
296.59
296.586
296.582
296.578
296.574
296.57
296.565
296.561
296.557
296.553
296.548
296.544
296.539
296.535
296.531
296.527
296.522
296.518
296.514
296.51
296.506
296.502
296.498
296.494
296.49
296.486
296.482
296.478
296.474
296.47
296.466
296.462
296.459
296.455
296.452
296.448
296.445
296.441
296.438
296.435
296.431
296.428
296.425
296.422
296.418
296.415
296.412
296.408
296.405
296.402
296.399
296.396
296.392
296.389
296.386
296.384
296.381
296.377
296.374
296.372
296.369
296.366
296.363
296.36
296.357
296.355
296.352
296.349
296.346
296.343
296.34
296.338
296.335
296.332
296.329
296.327
296.324
296.321
296.318
296.315
296.313
296.31
296.308
296.305
296.302
296.299
296.296
296.293
296.291
296.288
296.285
296.282
296.28
296.277
296.274
296.272
296.269
296.267
296.264
296.261
296.259
296.256
296.253
296.251
296.248
296.245
296.242
296.24
296.238
296.235
296.233
296.23
296.228
296.225
296.223
296.22
296.218
296.215
296.213
296.211
296.208
296.206
296.204
296.202
296.2
296.197
296.195
296.193
296.191
296.189
296.186
296.184
296.181
296.18
296.178
296.176
296.173
296.171
296.169
296.168
296.165
296.163
296.16
296.159
296.157
296.156
296.152
283.027
283.077
283.14
283.231
283.378
283.579
283.803
284.015
284.206
284.386
284.565
284.743
284.91
285.067
285.221
285.39
285.582
285.8
286.039
286.293
286.563
286.849
287.147
287.451
287.75
288.036
288.303
288.551
288.782
288.996
289.192
289.37
289.53
289.679
289.82
289.961
290.103
290.249
290.398
290.552
290.71
290.875
291.045
291.217
291.388
291.552
291.706
291.848
291.976
292.088
292.184
292.262
292.323
292.367
292.396
292.414
292.423
292.428
292.433
292.44
292.453
292.474
292.504
292.543
292.59
292.642
292.698
292.752
292.804
292.852
292.892
292.927
292.955
292.976
292.993
293.006
293.015
293.022
293.027
293.03
293.032
293.033
293.034
293.034
293.033
293.033
293.032
293.03
293.029
293.028
293.026
293.025
293.023
293.021
293.02
293.018
293.016
293.014
293.012
293.01
293.008
293.007
293.005
293.002
293
292.998
292.996
292.994
292.992
292.99
292.988
292.986
292.984
292.983
292.981
292.979
292.977
292.975
292.973
292.972
292.97
292.968
292.967
292.965
292.964
292.962
292.961
292.959
292.958
292.956
292.955
292.954
292.952
292.951
292.95
292.949
292.948
292.947
292.945
292.944
292.943
292.942
292.941
292.94
292.938
292.937
292.936
292.935
292.934
292.933
292.932
292.931
292.93
292.929
292.928
292.927
292.926
292.925
292.924
292.923
292.922
292.921
292.92
292.919
292.918
292.917
292.916
292.915
292.914
292.914
292.913
292.912
292.91
292.909
292.909
292.908
292.907
292.905
292.904
292.903
292.902
292.901
292.899
292.898
292.897
292.896
292.895
292.894
292.893
292.892
292.891
292.89
292.889
292.887
292.886
292.885
292.884
292.883
292.881
292.88
292.879
292.878
292.877
292.876
292.874
292.873
292.872
292.871
292.87
292.869
292.867
292.867
292.866
292.864
292.863
292.862
292.861
292.86
292.859
292.858
292.856
292.856
292.855
292.854
292.852
292.851
292.851
292.85
292.849
292.847
292.846
292.845
292.845
292.844
292.842
292.841
292.84
292.839
292.839
292.836
283.007
283.052
283.097
283.129
283.185
283.299
283.454
283.598
283.695
283.755
283.804
283.857
283.903
283.922
283.911
283.889
283.887
283.921
283.993
284.092
284.213
284.36
284.544
284.764
285.011
285.265
285.509
285.733
285.94
286.131
286.306
286.459
286.583
286.677
286.748
286.807
286.865
286.929
287.002
287.083
287.175
287.284
287.414
287.569
287.743
287.929
288.118
288.305
288.483
288.649
288.799
288.929
289.036
289.116
289.168
289.194
289.197
289.184
289.161
289.134
289.109
289.093
289.091
289.107
289.143
289.196
289.265
289.344
289.427
289.51
289.588
289.657
289.716
289.765
289.804
289.835
289.859
289.876
289.89
289.9
289.908
289.914
289.918
289.921
289.923
289.925
289.926
289.927
289.927
289.928
289.928
289.928
289.928
289.928
289.928
289.927
289.927
289.927
289.926
289.926
289.926
289.925
289.925
289.924
289.924
289.923
289.923
289.922
289.922
289.921
289.92
289.92
289.92
289.919
289.919
289.919
289.918
289.918
289.918
289.917
289.917
289.917
289.917
289.917
289.917
289.917
289.917
289.917
289.917
289.917
289.917
289.917
289.917
289.917
289.918
289.918
289.919
289.919
289.919
289.919
289.919
289.92
289.92
289.921
289.921
289.921
289.921
289.922
289.922
289.922
289.922
289.923
289.923
289.924
289.924
289.925
289.925
289.925
289.926
289.926
289.926
289.927
289.927
289.927
289.928
289.928
289.929
289.929
289.929
289.93
289.93
289.93
289.931
289.931
289.931
289.932
289.932
289.932
289.932
289.932
289.932
289.933
289.933
289.932
289.932
289.933
289.933
289.933
289.933
289.933
289.933
289.933
289.933
289.933
289.933
289.933
289.933
289.933
289.933
289.933
289.933
289.933
289.933
289.933
289.932
289.932
289.933
289.933
289.932
289.932
289.932
289.932
289.932
289.932
289.931
289.931
289.931
289.931
289.931
289.931
289.93
289.93
289.931
289.931
289.93
289.93
289.93
289.93
289.93
289.929
289.929
289.929
289.929
289.929
289.928
289.928
289.928
289.928
289.928
289.927
283.006
283.052
283.099
283.126
283.167
283.266
283.413
283.553
283.635
283.66
283.663
283.674
283.686
283.667
283.591
283.469
283.339
283.24
283.186
283.163
283.154
283.158
283.195
283.286
283.438
283.632
283.837
284.027
284.197
284.353
284.501
284.636
284.744
284.807
284.822
284.801
284.763
284.725
284.695
284.673
284.659
284.66
284.689
284.757
284.869
285.018
285.194
285.384
285.577
285.769
285.952
286.123
286.272
286.392
286.476
286.52
286.526
286.501
286.45
286.383
286.309
286.237
286.178
286.14
286.131
286.153
286.205
286.283
286.38
286.488
286.597
286.7
286.793
286.873
286.939
286.993
287.034
287.066
287.091
287.11
287.124
287.134
287.142
287.148
287.153
287.157
287.16
287.162
287.163
287.165
287.166
287.167
287.167
287.168
287.168
287.169
287.169
287.17
287.17
287.17
287.17
287.171
287.171
287.171
287.171
287.171
287.171
287.172
287.172
287.172
287.172
287.172
287.173
287.173
287.173
287.173
287.174
287.174
287.175
287.175
287.176
287.176
287.177
287.177
287.178
287.179
287.179
287.18
287.181
287.181
287.182
287.183
287.184
287.185
287.185
287.187
287.188
287.189
287.189
287.19
287.191
287.192
287.194
287.195
287.195
287.196
287.197
287.199
287.2
287.201
287.201
287.202
287.204
287.205
287.206
287.207
287.208
287.209
287.21
287.211
287.212
287.213
287.214
287.215
287.216
287.217
287.219
287.22
287.221
287.222
287.223
287.224
287.225
287.225
287.226
287.227
287.228
287.229
287.23
287.231
287.232
287.233
287.233
287.234
287.235
287.236
287.237
287.237
287.238
287.238
287.239
287.24
287.241
287.241
287.242
287.243
287.243
287.244
287.244
287.245
287.245
287.246
287.247
287.247
287.247
287.248
287.249
287.249
287.25
287.25
287.25
287.251
287.251
287.252
287.252
287.252
287.253
287.253
287.254
287.254
287.254
287.255
287.255
287.256
287.256
287.256
287.257
287.257
287.258
287.258
287.258
287.258
287.259
287.259
287.259
287.259
287.26
287.261
287.261
287.261
283.006
283.052
283.099
283.126
283.167
283.266
283.413
283.552
283.633
283.655
283.654
283.658
283.662
283.631
283.541
283.4
283.248
283.125
283.042
282.988
282.945
282.912
282.909
282.958
283.065
283.213
283.369
283.51
283.628
283.731
283.826
283.908
283.962
283.971
283.933
283.858
283.766
283.675
283.592
283.518
283.452
283.403
283.382
283.401
283.466
283.569
283.701
283.849
284.002
284.155
284.302
284.438
284.554
284.643
284.697
284.714
284.694
284.643
284.569
284.48
284.385
284.295
284.219
284.166
284.144
284.154
284.197
284.267
284.357
284.458
284.562
284.662
284.752
284.829
284.894
284.946
284.986
285.017
285.041
285.06
285.073
285.084
285.091
285.097
285.102
285.105
285.108
285.11
285.111
285.113
285.114
285.115
285.115
285.115
285.116
285.116
285.117
285.117
285.117
285.117
285.117
285.117
285.117
285.117
285.117
285.117
285.117
285.117
285.117
285.117
285.117
285.118
285.118
285.118
285.118
285.118
285.119
285.119
285.119
285.119
285.12
285.121
285.121
285.121
285.122
285.122
285.123
285.123
285.124
285.125
285.126
285.126
285.127
285.128
285.128
285.129
285.13
285.131
285.132
285.133
285.133
285.135
285.136
285.137
285.137
285.138
285.139
285.14
285.142
285.142
285.143
285.144
285.145
285.147
285.147
285.148
285.149
285.15
285.151
285.152
285.153
285.155
285.156
285.156
285.157
285.158
285.16
285.161
285.161
285.162
285.163
285.164
285.165
285.166
285.167
285.168
285.169
285.169
285.17
285.171
285.172
285.173
285.174
285.174
285.175
285.176
285.177
285.177
285.178
285.178
285.179
285.18
285.181
285.181
285.181
285.182
285.183
285.184
285.184
285.184
285.185
285.186
285.187
285.187
285.187
285.188
285.188
285.189
285.189
285.189
285.19
285.19
285.191
285.192
285.192
285.192
285.192
285.193
285.193
285.194
285.194
285.194
285.195
285.195
285.195
285.195
285.196
285.197
285.197
285.197
285.197
285.198
285.198
285.199
285.198
285.199
285.199
285.2
285.2
285.201
283.007
283.052
283.098
283.129
283.181
283.288
283.431
283.554
283.62
283.637
283.631
283.619
283.588
283.52
283.412
283.285
283.17
283.087
283.036
283.008
282.997
283.009
283.053
283.131
283.234
283.342
283.438
283.514
283.572
283.615
283.643
283.65
283.631
283.583
283.513
283.434
283.356
283.287
283.229
283.182
283.15
283.138
283.152
283.194
283.26
283.343
283.434
283.528
283.619
283.702
283.775
283.833
283.871
283.887
283.878
283.847
283.798
283.736
283.667
283.599
283.537
283.488
283.457
283.448
283.461
283.496
283.549
283.615
283.688
283.763
283.833
283.897
283.953
283.999
284.036
284.065
284.087
284.104
284.117
284.127
284.135
284.14
284.144
284.148
284.15
284.152
284.153
284.154
284.155
284.155
284.156
284.156
284.156
284.156
284.156
284.156
284.156
284.155
284.155
284.154
284.154
284.154
284.154
284.153
284.153
284.152
284.152
284.152
284.151
284.151
284.151
284.151
284.15
284.15
284.15
284.149
284.149
284.149
284.149
284.149
284.149
284.149
284.149
284.148
284.149
284.149
284.149
284.149
284.149
284.149
284.15
284.15
284.151
284.151
284.151
284.152
284.152
284.152
284.153
284.153
284.154
284.154
284.155
284.156
284.156
284.156
284.157
284.158
284.159
284.159
284.16
284.16
284.161
284.162
284.162
284.163
284.163
284.164
284.165
284.165
284.166
284.167
284.167
284.168
284.169
284.169
284.17
284.17
284.171
284.171
284.172
284.172
284.172
284.173
284.173
284.174
284.175
284.175
284.175
284.176
284.177
284.177
284.178
284.178
284.178
284.179
284.179
284.18
284.18
284.18
284.18
284.181
284.181
284.181
284.181
284.182
284.182
284.182
284.183
284.183
284.183
284.184
284.184
284.184
284.184
284.184
284.184
284.185
284.185
284.184
284.185
284.185
284.185
284.185
284.185
284.185
284.185
284.186
284.186
284.186
284.185
284.186
284.186
284.186
284.186
284.186
284.186
284.186
284.186
284.186
284.186
284.186
284.186
284.187
284.186
284.186
284.186
284.187
284.187
284.187
283.027
283.078
283.131
283.19
283.277
283.389
283.494
283.559
283.578
283.565
283.534
283.49
283.427
283.347
283.262
283.189
283.139
283.115
283.112
283.125
283.155
283.2
283.259
283.324
283.386
283.437
283.472
283.493
283.501
283.496
283.479
283.449
283.407
283.358
283.309
283.264
283.227
283.2
283.183
283.176
283.183
283.202
283.234
283.276
283.323
283.372
283.419
283.46
283.495
283.521
283.536
283.539
283.53
283.51
283.48
283.443
283.403
283.363
283.329
283.301
283.284
283.278
283.286
283.306
283.338
283.377
283.422
283.469
283.515
283.558
283.595
283.627
283.654
283.675
283.692
283.705
283.714
283.721
283.727
283.731
283.734
283.736
283.738
283.739
283.74
283.741
283.741
283.741
283.741
283.741
283.741
283.741
283.74
283.74
283.739
283.739
283.738
283.737
283.737
283.736
283.735
283.734
283.734
283.733
283.732
283.731
283.731
283.73
283.729
283.728
283.728
283.727
283.726
283.726
283.725
283.724
283.724
283.723
283.722
283.722
283.721
283.721
283.721
283.72
283.72
283.72
283.719
283.719
283.719
283.719
283.719
283.719
283.718
283.718
283.718
283.718
283.718
283.718
283.718
283.718
283.718
283.718
283.719
283.719
283.719
283.719
283.719
283.72
283.72
283.721
283.72
283.72
283.721
283.721
283.722
283.722
283.722
283.722
283.723
283.723
283.723
283.723
283.724
283.724
283.724
283.724
283.724
283.724
283.724
283.725
283.725
283.725
283.725
283.725
283.725
283.725
283.725
283.725
283.725
283.725
283.726
283.726
283.726
283.726
283.726
283.726
283.726
283.726
283.726
283.726
283.726
283.726
283.726
283.725
283.725
283.725
283.726
283.726
283.725
283.725
283.725
283.725
283.725
283.725
283.725
283.724
283.724
283.724
283.724
283.724
283.723
283.724
283.724
283.723
283.723
283.722
283.722
283.723
283.722
283.722
283.721
283.721
283.721
283.721
283.72
283.72
283.72
283.72
283.72
283.719
283.718
283.719
283.719
283.718
283.718
283.717
283.717
283.718
283.717
283.717
283.135
283.204
283.27
283.34
283.41
283.469
283.501
283.503
283.483
283.449
283.407
283.358
283.307
283.261
283.227
283.209
283.208
283.221
283.244
283.273
283.308
283.344
283.377
283.404
283.421
283.429
283.427
283.418
283.403
283.383
283.359
283.332
283.306
283.283
283.265
283.253
283.247
283.248
283.254
283.265
283.281
283.301
283.323
283.345
283.364
283.381
283.393
283.4
283.402
283.398
283.388
283.374
283.356
283.337
283.316
283.297
283.281
283.27
283.265
283.266
283.273
283.287
283.307
283.33
283.356
283.383
283.41
283.435
283.457
283.476
283.492
283.505
283.515
283.524
283.53
283.534
283.537
283.54
283.541
283.543
283.543
283.544
283.544
283.544
283.544
283.544
283.544
283.543
283.543
283.543
283.542
283.541
283.54
283.539
283.538
283.538
283.537
283.536
283.534
283.533
283.532
283.531
283.53
283.529
283.528
283.527
283.526
283.525
283.524
283.522
283.521
283.52
283.519
283.518
283.517
283.516
283.515
283.514
283.513
283.512
283.511
283.51
283.51
283.509
283.508
283.508
283.507
283.506
283.505
283.505
283.505
283.504
283.503
283.503
283.502
283.502
283.502
283.501
283.501
283.501
283.5
283.5
283.5
283.5
283.5
283.5
283.5
283.5
283.5
283.5
283.499
283.499
283.499
283.499
283.499
283.498
283.498
283.498
283.498
283.498
283.498
283.498
283.498
283.498
283.498
283.497
283.497
283.497
283.496
283.496
283.496
283.496
283.495
283.495
283.495
283.495
283.494
283.494
283.493
283.493
283.494
283.493
283.493
283.493
283.492
283.492
283.492
283.491
283.491
283.49
283.49
283.49
283.489
283.489
283.488
283.488
283.488
283.488
283.487
283.487
283.486
283.486
283.486
283.485
283.484
283.484
283.484
283.483
283.483
283.482
283.482
283.481
283.481
283.48
283.479
283.479
283.479
283.478
283.478
283.477
283.476
283.476
283.475
283.475
283.474
283.473
283.473
283.473
283.472
283.471
283.47
283.47
283.47
283.469
283.468
283.468
283.468
283.467
283.467
283.466
283.323
283.346
283.368
283.395
283.42
283.432
283.429
283.412
283.387
283.358
283.329
283.303
283.283
283.273
283.272
283.279
283.294
283.312
283.332
283.351
283.368
283.38
283.388
283.39
283.386
283.379
283.368
283.356
283.343
283.33
283.318
283.308
283.3
283.296
283.295
283.297
283.301
283.308
283.316
283.325
283.334
283.342
283.349
283.354
283.357
283.357
283.354
283.349
283.342
283.334
283.324
283.314
283.305
283.297
283.291
283.287
283.287
283.29
283.296
283.304
283.315
283.328
283.342
283.356
283.37
283.383
283.394
283.404
283.413
283.419
283.425
283.429
283.432
283.434
283.436
283.437
283.437
283.438
283.438
283.438
283.438
283.437
283.437
283.437
283.436
283.436
283.435
283.434
283.433
283.432
283.431
283.43
283.429
283.428
283.427
283.425
283.424
283.423
283.422
283.42
283.419
283.417
283.416
283.415
283.413
283.412
283.41
283.409
283.408
283.406
283.404
283.403
283.402
283.4
283.399
283.397
283.396
283.395
283.394
283.393
283.391
283.39
283.389
283.388
283.387
283.386
283.385
283.384
283.383
283.382
283.382
283.381
283.38
283.379
283.378
283.377
283.377
283.376
283.376
283.375
283.374
283.374
283.374
283.374
283.373
283.372
283.372
283.372
283.372
283.371
283.37
283.37
283.369
283.369
283.369
283.368
283.368
283.367
283.367
283.367
283.366
283.366
283.365
283.365
283.365
283.364
283.363
283.363
283.363
283.362
283.362
283.361
283.36
283.36
283.359
283.359
283.358
283.357
283.357
283.357
283.356
283.356
283.355
283.355
283.354
283.354
283.353
283.352
283.351
283.351
283.35
283.35
283.349
283.348
283.348
283.347
283.347
283.346
283.346
283.345
283.344
283.344
283.343
283.342
283.342
283.341
283.34
283.34
283.339
283.338
283.337
283.337
283.336
283.336
283.335
283.334
283.333
283.333
283.332
283.331
283.33
283.329
283.329
283.328
283.327
283.326
283.325
283.325
283.324
283.323
283.322
283.321
283.321
283.32
283.319
283.318
283.318
283.318
283.317
283.315
283.299
283.287
283.292
283.298
283.302
283.301
283.296
283.287
283.278
283.269
283.261
283.257
283.255
283.257
283.261
283.267
283.274
283.281
283.287
283.292
283.295
283.296
283.295
283.293
283.29
283.286
283.282
283.277
283.274
283.271
283.269
283.267
283.267
283.268
283.269
283.271
283.274
283.276
283.279
283.281
283.283
283.284
283.285
283.284
283.283
283.281
283.279
283.276
283.273
283.27
283.267
283.264
283.263
283.262
283.262
283.263
283.264
283.267
283.271
283.275
283.279
283.283
283.288
283.292
283.296
283.299
283.301
283.304
283.305
283.307
283.308
283.308
283.309
283.309
283.309
283.308
283.308
283.308
283.307
283.306
283.306
283.305
283.304
283.304
283.303
283.302
283.301
283.3
283.299
283.298
283.297
283.296
283.295
283.293
283.292
283.291
283.29
283.288
283.287
283.285
283.284
283.283
283.281
283.28
283.278
283.276
283.275
283.274
283.272
283.27
283.269
283.268
283.267
283.265
283.264
283.262
283.262
283.261
283.259
283.258
283.257
283.256
283.255
283.254
283.253
283.252
283.252
283.251
283.25
283.249
283.248
283.248
283.247
283.246
283.246
283.245
283.245
283.244
283.244
283.243
283.243
283.243
283.242
283.242
283.242
283.241
283.241
283.241
283.241
283.241
283.24
283.239
283.239
283.24
283.239
283.239
283.238
283.238
283.238
283.238
283.237
283.237
283.237
283.237
283.237
283.236
283.236
283.235
283.235
283.235
283.235
283.234
283.233
283.233
283.233
283.233
283.232
283.231
283.231
283.231
283.231
283.231
283.23
283.23
283.229
283.229
283.229
283.228
283.228
283.227
283.227
283.226
283.226
283.225
283.225
283.225
283.225
283.224
283.224
283.223
283.223
283.223
283.222
283.222
283.221
283.221
283.22
283.22
283.219
283.219
283.218
283.218
283.218
283.217
283.216
283.216
283.215
283.215
283.214
283.213
283.213
283.213
283.212
283.212
283.211
283.21
283.21
283.21
283.209
283.208
283.208
283.207
283.207
283.206
283.206
283.205
283.205
283.205
283.204
283.203
)
;

boundaryField
{
    upperWall
    {
        type            fixedValue;
        value           uniform 283.15;
    }
    lowerWall
    {
        type            fixedValue;
        value           uniform 283.15;
    }
    heatedWall
    {
        type            externalWallHeatFluxTemperature;
        mode            power;
        kappaMethod     fluidThermo;
        kappa           none;
        alphaAni        Anialpha;
        Q               5040;
        qr              none;
        refValue        nonuniform List<scalar> 
240
(
288.474
290.546
292.027
293.207
294.244
295.172
296.02
296.805
297.542
298.24
298.906
299.544
300.156
300.744
301.308
301.848
302.366
302.861
303.334
303.787
304.219
304.632
305.027
305.403
305.763
306.106
306.432
306.742
307.035
307.312
307.573
307.817
308.045
308.256
308.452
308.631
308.796
308.945
309.08
309.2
309.308
309.404
309.489
309.564
309.629
309.687