/*--------------------------------*- C++ -*----------------------------------*\
  =========                 |
  \\      /  F ield         | OpenFOAM: The Open Source CFD Toolbox
   \\    /   O peration     | Website:  https://openfoam.org
    \\  /    A nd           | Version:  7
     \\/     M anipulation  |
\*---------------------------------------------------------------------------*/
FoamFile
{
    version     2.0;
    format      ascii;
    class       volVectorField;
    location    "0.0675";
    object      U;
}
// * * * * * * * * * * * * * * * * * * * * * * * * * * * * * * * * * * * * * //

dimensions      [0 1 -1 0 0 0 0];

internalField   nonuniform List<vector> 
1440
(
(4.92867 0.0178193 0)
(4.88986 0.062404 0)
(4.81066 0.101149 0)
(4.6943 0.130866 0)
(4.55033 0.151773 0)
(4.38804 0.16407 0)
(4.21463 0.168479 0)
(4.03541 0.166311 0)
(3.85506 0.159384 0)
(3.67693 0.149138 0)
(3.5046 0.137083 0)
(3.33957 0.124479 0)
(3.18354 0.111475 0)
(3.03739 0.0984887 0)
(2.9014 0.0859307 0)
(2.77569 0.0740964 0)
(2.66014 0.0631716 0)
(2.55455 0.0532202 0)
(2.45851 0.0442408 0)
(2.37149 0.0362298 0)
(2.29294 0.0291437 0)
(2.22227 0.0229114 0)
(2.15884 0.01748 0)
(2.10204 0.0127859 0)
(2.05132 0.008743 0)
(2.00603 0.00528861 0)
(1.96561 0.00237822 0)
(1.92957 -5.37154e-05 0)
(1.89748 -0.00208229 0)
(1.86884 -0.00375741 0)
(1.84323 -0.00510622 0)
(1.8203 -0.00616126 0)
(1.79978 -0.00697482 0)
(1.78139 -0.00760619 0)
(1.76481 -0.00809693 0)
(1.7498 -0.00845776 0)
(1.73615 -0.00867889 0)
(1.72373 -0.00875471 0)
(1.71239 -0.0087007 0)
(1.70201 -0.00855086 0)
(1.69247 -0.00834208 0)
(1.68367 -0.00810081 0)
(1.67553 -0.00784413 0)
(1.66799 -0.00758374 0)
(1.66101 -0.00732584 0)
(1.65454 -0.00706881 0)
(1.64855 -0.00680365 0)
(1.643 -0.00651846 0)
(1.63785 -0.00620354 0)
(1.63305 -0.0058521 0)
(1.62857 -0.0054577 0)
(1.62436 -0.0050149 0)
(1.62037 -0.00452426 0)
(1.61655 -0.00399531 0)
(1.61283 -0.00344378 0)
(1.60917 -0.00288701 0)
(1.60554 -0.00234196 0)
(1.60192 -0.00182463 0)
(1.59834 -0.00134826 0)
(1.5948 -0.000920881 0)
(1.59131 -0.000544502 0)
(1.58791 -0.00021656 0)
(1.58461 6.75764e-05 0)
(1.58145 0.000312583 0)
(1.57846 0.000522754 0)
(1.57568 0.000702518 0)
(1.57313 0.000856582 0)
(1.57082 0.000988895 0)
(1.56878 0.00110084 0)
(1.56702 0.00118987 0)
(1.56556 0.00124966 0)
(1.56442 0.00127212 0)
(1.5636 0.00125119 0)
(1.56307 0.00118659 0)
(1.56281 0.00108504 0)
(1.56274 0.000957513 0)
(1.56279 0.000815929 0)
(1.56292 0.000672352 0)
(1.56307 0.000536382 0)
(1.56321 0.000419369 0)
(1.56332 0.000335725 0)
(1.56337 0.000297936 0)
(1.56336 0.000312964 0)
(1.56328 0.000379437 0)
(1.56313 0.000486999 0)
(1.56292 0.000618456 0)
(1.56268 0.000754635 0)
(1.56244 0.000878636 0)
(1.56222 0.000982173 0)
(1.56202 0.00106379 0)
(1.56185 0.00111844 0)
(1.56168 0.00114532 0)
(1.56151 0.00114918 0)
(1.56135 0.00113764 0)
(1.56118 0.00111872 0)
(1.56101 0.00109911 0)
(1.56084 0.0010829 0)
(1.56068 0.00107138 0)
(1.56052 0.00106444 0)
(1.56039 0.00106148 0)
(1.56026 0.00106172 0)
(1.56015 0.00106409 0)
(1.56006 0.00106766 0)
(1.55998 0.00107154 0)
(1.55992 0.00107541 0)
(1.55986 0.00107869 0)
(1.5598 0.00108135 0)
(1.55975 0.00108302 0)
(1.55971 0.00108423 0)
(1.55966 0.00108472 0)
(1.55961 0.00108518 0)
(1.55957 0.00108495 0)
(1.55952 0.00108494 0)
(1.55948 0.00108411 0)
(1.55943 0.00108356 0)
(1.55939 0.00108176 0)
(1.55935 0.00107994 0)
(1.55932 0.00107548 0)
(1.55928 0.00107146 0)
(1.55925 0.00106185 0)
(4.93893 0.0228806 0)
(4.95487 0.0622109 0)
(4.98279 0.0945992 0)
(5.01797 0.122118 0)
(5.05572 0.145929 0)
(5.09221 0.165808 0)
(5.12457 0.181331 0)
(5.15068 0.192517 0)
(5.16941 0.199805 0)
(5.18027 0.203724 0)
(5.18359 0.204735 0)
(5.17983 0.203295 0)
(5.16968 0.19967 0)
(5.15402 0.194143 0)
(5.13381 0.187101 0)
(5.10991 0.178949 0)
(5.08312 0.170056 0)
(5.05409 0.160721 0)
(5.02343 0.15118 0)
(4.99163 0.141627 0)
(4.95913 0.132221 0)
(4.92627 0.123088 0)
(4.89334 0.114321 0)
(4.86057 0.105997 0)
(4.82812 0.0981688 0)
(4.79614 0.0908641 0)
(4.7647 0.0840945 0)
(4.73386 0.0778504 0)
(4.70369 0.0721049 0)
(4.67421 0.0668317 0)
(4.64544 0.0620122 0)
(4.61736 0.0576282 0)
(4.58999 0.0536525 0)
(4.56332 0.050048 0)
(4.53735 0.0467719 0)
(4.51203 0.0437841 0)
(4.48736 0.0410555 0)
(4.4633 0.0385703 0)
(4.43987 0.0363168 0)
(4.41705 0.0342766 0)
(4.39483 0.0324176 0)
(4.3732 0.0307071 0)
(4.35214 0.0291161 0)
(4.33165 0.0276231 0)
(4.3117 0.0262162 0)
(4.29233 0.0248881 0)
(4.27351 0.0236313 0)
(4.25526 0.0224369 0)
(4.23758 0.0212958 0)
(4.22048 0.0202018 0)
(4.20397 0.0191546 0)
(4.18806 0.0181631 0)
(4.17277 0.0172442 0)
(4.15808 0.016413 0)
(4.14402 0.0156702 0)
(4.13059 0.0149986 0)
(4.11779 0.0143732 0)
(4.10562 0.0137759 0)
(4.09409 0.0132019 0)
(4.08318 0.0126519 0)
(4.07289 0.0121179 0)
(4.06321 0.0115782 0)
(4.05416 0.011006 0)
(4.04577 0.0103846 0)
(4.03804 0.00971671 0)
(4.031 0.00902038 0)
(4.02466 0.00831596 0)
(4.019 0.00761305 0)
(4.01402 0.00690597 0)
(4.00971 0.00618156 0)
(4.00608 0.00543616 0)
(4.00313 0.00469098 0)
(4.00087 0.00399446 0)
(3.99927 0.00340811 0)
(3.99827 0.00298326 0)
(3.99778 0.00274147 0)
(3.99766 0.00266941 0)
(3.99776 0.00272769 0)
(3.99799 0.00286967 0)
(3.99824 0.00305547 0)
(3.99846 0.00325527 0)
(3.99861 0.00344831 0)
(3.99863 0.0036161 0)
(3.9985 0.00373562 0)
(3.9982 0.00378227 0)
(3.99775 0.0037423 0)
(3.99721 0.0036229 0)
(3.99663 0.00345323 0)
(3.99606 0.00327104 0)
(3.99551 0.00310811 0)
(3.99498 0.00299013 0)
(3.99448 0.00292639 0)
(3.99401 0.00291088 0)
(3.99357 0.00292912 0)
(3.99317 0.00296391 0)
(3.9928 0.00299914 0)
(3.99246 0.00302321 0)
(3.99216 0.0030307 0)
(3.99188 0.0030216 0)
(3.99165 0.00299906 0)
(3.99144 0.00296785 0)
(3.99127 0.00293291 0)
(3.99113 0.00289875 0)
(3.99101 0.00286816 0)
(3.99092 0.00284294 0)
(3.99083 0.00282321 0)
(3.99076 0.00280931 0)
(3.9907 0.00279957 0)
(3.99063 0.00279417 0)
(3.99058 0.0027903 0)
(3.99052 0.00278955 0)
(3.99047 0.00278759 0)
(3.99041 0.00278909 0)
(3.99035 0.00278594 0)
(3.99029 0.00278873 0)
(3.99024 0.00278079 0)
(3.99018 0.00278518 0)
(3.99013 0.00276586 0)
(3.99009 0.00277189 0)
(3.99002 0.00272517 0)
(4.9384 0.0122412 0)
(4.9467 0.0360468 0)
(4.96341 0.0582538 0)
(4.98788 0.078352 0)
(5.01887 0.0961987 0)
(5.05523 0.111615 0)
(5.09596 0.124332 0)
(5.1399 0.134164 0)
(5.18576 0.141128 0)
(5.23227 0.145366 0)
(5.27832 0.1471 0)
(5.32301 0.14659 0)
(5.36574 0.144201 0)
(5.4061 0.140324 0)
(5.44381 0.135325 0)
(5.4787 0.129526 0)
(5.51068 0.123202 0)
(5.53972 0.116589 0)
(5.56589 0.109875 0)
(5.58931 0.103215 0)
(5.61012 0.0967365 0)
(5.6285 0.0905311 0)
(5.64462 0.0846613 0)
(5.65866 0.0791738 0)
(5.67079 0.0740974 0)
(5.68119 0.0694414 0)
(5.69004 0.0652045 0)
(5.69748 0.0613749 0)
(5.70366 0.0579237 0)
(5.7087 0.0548153 0)
(5.71273 0.0520236 0)
(5.71583 0.0495319 0)
(5.71811 0.0473181 0)
(5.71968 0.0453491 0)
(5.72058 0.0435891 0)
(5.72089 0.0420117 0)
(5.72064 0.0406023 0)
(5.7199 0.0393505 0)
(5.71871 0.0382415 0)
(5.71712 0.0372522 0)
(5.7152 0.0363572 0)
(5.71297 0.0355265 0)
(5.71046 0.034732 0)
(5.70768 0.0339522 0)
(5.70464 0.0331729 0)
(5.70136 0.0323888 0)
(5.69785 0.0316026 0)
(5.69416 0.0308218 0)
(5.69029 0.0300497 0)
(5.68628 0.0292836 0)
(5.68216 0.0285211 0)
(5.67795 0.0277682 0)
(5.67366 0.0270382 0)
(5.66932 0.026343 0)
(5.66495 0.0256812 0)
(5.66059 0.0250337 0)
(5.65626 0.0243712 0)
(5.65197 0.0236669 0)
(5.64772 0.0229086 0)
(5.64354 0.0220997 0)
(5.63944 0.0212504 0)
(5.63545 0.0203657 0)
(5.63158 0.0194371 0)
(5.62785 0.0184465 0)
(5.62425 0.0173788 0)
(5.62077 0.0162337 0)
(5.61743 0.0150274 0)
(5.61428 0.0137825 0)
(5.61136 0.0125165 0)
(5.6087 0.0112356 0)
(5.60631 0.00993923 0)
(5.60414 0.00863154 0)
(5.60213 0.00733399 0)
(5.60024 0.00609115 0)
(5.59849 0.00496274 0)
(5.59693 0.00400267 0)
(5.59565 0.00323313 0)
(5.59474 0.00264318 0)
(5.59426 0.00221602 0)
(5.5942 0.00194016 0)
(5.59445 0.00181442 0)
(5.59487 0.00185031 0)
(5.59532 0.00205523 0)
(5.59571 0.00240547 0)
(5.59605 0.00283681 0)
(5.59639 0.00326928 0)
(5.59677 0.0036494 0)
(5.59723 0.00396522 0)
(5.5977 0.00421223 0)
(5.5981 0.00437004 0)
(5.59836 0.00443049 0)
(5.59836 0.00440406 0)
(5.59807 0.00431145 0)
(5.59748 0.00417586 0)
(5.59664 0.00401863 0)
(5.59564 0.00385834 0)
(5.59458 0.00370994 0)
(5.59357 0.00358421 0)
(5.59268 0.00348762 0)
(5.59194 0.0034206 0)
(5.59139 0.00337833 0)
(5.591 0.0033534 0)
(5.59077 0.0033396 0)
(5.59067 0.00333228 0)
(5.59067 0.00332969 0)
(5.59073 0.00332964 0)
(5.59084 0.0033318 0)
(5.59098 0.00333355 0)
(5.59114 0.00333659 0)
(5.59131 0.00333815 0)
(5.59148 0.00334189 0)
(5.59166 0.00334184 0)
(5.59182 0.00334589 0)
(5.59201 0.00334237 0)
(5.59217 0.00334772 0)
(5.59238 0.00333816 0)
(5.59251 0.00334591 0)
(5.59275 0.00332394 0)
(5.59282 0.00333296 0)
(5.59314 0.00328529 0)
(4.93839 0.00910796 0)
(4.94596 0.026987 0)
(4.96082 0.0437404 0)
(4.98241 0.0587053 0)
(5.00977 0.0716073 0)
(5.0419 0.0824137 0)
(5.07793 0.0911258 0)
(5.11705 0.0977422 0)
(5.15843 0.102334 0)
(5.20128 0.105081 0)
(5.24487 0.106247 0)
(5.28862 0.106134 0)
(5.33201 0.105043 0)
(5.37466 0.103212 0)
(5.4162 0.100811 0)
(5.45636 0.0979631 0)
(5.4949 0.0947741 0)
(5.53165 0.0913468 0)
(5.56653 0.0877685 0)
(5.59949 0.0841093 0)
(5.63054 0.0804307 0)
(5.65972 0.076788 0)
(5.6871 0.0732264 0)
(5.71275 0.0697837 0)
(5.73678 0.0664915 0)
(5.75928 0.0633734 0)
(5.78038 0.0604456 0)
(5.80017 0.0577169 0)
(5.81879 0.0551852 0)
(5.83632 0.0528406 0)
(5.85286 0.0506757 0)
(5.8685 0.0486886 0)
(5.88332 0.0468758 0)
(5.89741 0.0452252 0)
(5.91084 0.043718 0)
(5.92364 0.0423369 0)
(5.93589 0.0410712 0)
(5.94762 0.0399142 0)
(5.95888 0.0388584 0)
(5.96972 0.0378886 0)
(5.98015 0.0369856 0)
(5.99019 0.0361245 0)
(5.99987 0.0352847 0)
(6.00921 0.0344565 0)
(6.01822 0.0336388 0)
(6.02691 0.0328325 0)
(6.0353 0.0320347 0)
(6.04337 0.0312379 0)
(6.05114 0.0304378 0)
(6.05861 0.0296364 0)
(6.06579 0.0288406 0)
(6.0727 0.0280593 0)
(6.07935 0.0273007 0)
(6.08574 0.0265677 0)
(6.09191 0.0258556 0)
(6.09786 0.025153 0)
(6.1036 0.0244474 0)
(6.10914 0.0237304 0)
(6.11446 0.0229978 0)
(6.11956 0.0222465 0)
(6.12442 0.0214705 0)
(6.12905 0.0206604 0)
(6.13345 0.0198061 0)
(6.13761 0.0189027 0)
(6.14152 0.0179529 0)
(6.14517 0.0169623 0)
(6.14852 0.0159323 0)
(6.15155 0.0148567 0)
(6.15425 0.0137273 0)
(6.15664 0.0125476 0)
(6.15876 0.0113433 0)
(6.16062 0.010161 0)
(6.16223 0.00905134 0)
(6.16357 0.00805027 0)
(6.16462 0.00716787 0)
(6.16539 0.00638959 0)
(6.16595 0.00569231 0)
(6.1664 0.00507 0)
(6.16682 0.00455207 0)
(6.16725 0.00419553 0)
(6.1677 0.00404824 0)
(6.16816 0.00410537 0)
(6.16862 0.00428923 0)
(6.16908 0.00447155 0)
(6.16956 0.00452913 0)
(6.17008 0.00440225 0)
(6.17066 0.00412302 0)
(6.17134 0.00379999 0)
(6.17213 0.00357551 0)
(6.173 0.00356807 0)
(6.17391 0.00381969 0)
(6.17477 0.00429394 0)
(6.17549 0.00489486 0)
(6.17599 0.00549767 0)
(6.17624 0.00598641 0)
(6.17624 0.00628281 0)
(6.17602 0.00635708 0)
(6.17566 0.00622377 0)
(6.17524 0.00592959 0)
(6.17481 0.00553676 0)
(6.17445 0.00510731 0)
(6.17418 0.00469119 0)
(6.17404 0.0043222 0)
(6.17402 0.00401794 0)
(6.17412 0.00378345 0)
(6.17432 0.00361359 0)
(6.17461 0.00349873 0)
(6.17497 0.00342519 0)
(6.17537 0.00338221 0)
(6.17581 0.00335746 0)
(6.17626 0.00334654 0)
(6.17676 0.00333988 0)
(6.17722 0.00334058 0)
(6.17775 0.00333738 0)
(6.1782 0.00334157 0)
(6.17877 0.00333449 0)
(6.17915 0.00333998 0)
(6.17983 0.00332414 0)
(6.18005 0.00333017 0)
(6.18095 0.00329818 0)
(4.93834 0.00531372 0)
(4.94516 0.0156301 0)
(4.95874 0.0252094 0)
(4.97876 0.0337448 0)
(5.00445 0.0411193 0)
(5.03492 0.0473348 0)
(5.06925 0.0524099 0)
(5.10662 0.056348 0)
(5.14625 0.059176 0)
(5.18741 0.0609785 0)
(5.22942 0.0618851 0)
(5.27169 0.0620351 0)
(5.31372 0.061551 0)
(5.35508 0.0605288 0)
(5.39541 0.0590412 0)
(5.43445 0.0571545 0)
(5.472 0.0549412 0)
(5.50794 0.0524857 0)
(5.54218 0.0498755 0)
(5.5747 0.0471941 0)
(5.6055 0.0445115 0)
(5.63461 0.0418814 0)
(5.6621 0.0393421 0)
(5.68804 0.0369215 0)
(5.71252 0.0346412 0)
(5.73562 0.0325154 0)
(5.75745 0.0305501 0)
(5.77809 0.0287461 0)
(5.79765 0.0271007 0)
(5.81623 0.0256078 0)
(5.8339 0.0242596 0)
(5.85074 0.0230483 0)
(5.86683 0.0219658 0)
(5.88224 0.021002 0)
(5.89705 0.0201452 0)
(5.9113 0.019384 0)
(5.92506 0.0187086 0)
(5.93835 0.0181092 0)
(5.95121 0.0175744 0)
(5.9637 0.017092 0)
(5.97583 0.0166491 0)
(5.98764 0.0162394 0)
(5.99913 0.0158582 0)
(6.01033 0.0154991 0)
(6.02124 0.0151559 0)
(6.03188 0.0148234 0)
(6.04226 0.014497 0)
(6.05237 0.0141708 0)
(6.06222 0.0138422 0)
(6.07183 0.0135138 0)
(6.08119 0.0131923 0)
(6.09029 0.0128855 0)
(6.09916 0.012599 0)
(6.10778 0.0123323 0)
(6.11619 0.0120779 0)
(6.12437 0.0118254 0)
(6.13233 0.0115665 0)
(6.14007 0.0112967 0)
(6.14759 0.0110123 0)
(6.15486 0.0107087 0)
(6.16186 0.0103789 0)
(6.16859 0.0100159 0)
(6.17501 0.00961448 0)
(6.18111 0.00917467 0)
(6.18688 0.00870137 0)
(6.1923 0.00820091 0)
(6.19735 0.00767533 0)
(6.20199 0.00711995 0)
(6.2062 0.00652789 0)
(6.20997 0.00589978 0)
(6.21329 0.00525067 0)
(6.21618 0.00460828 0)
(6.21868 0.0040025 0)
(6.2208 0.00345261 0)
(6.22256 0.0029631 0)
(6.22396 0.00252716 0)
(6.22502 0.00213486 0)
(6.22575 0.00177669 0)
(6.22622 0.00145754 0)
(6.22653 0.00121019 0)
(6.22681 0.0010804 0)
(6.22716 0.00109674 0)
(6.22765 0.00124716 0)
(6.22826 0.00147992 0)
(6.22895 0.00172456 0)
(6.22964 0.00192199 0)
(6.23025 0.00205007 0)
(6.23075 0.00212916 0)
(6.23118 0.00220605 0)
(6.23162 0.00233094 0)
(6.23217 0.00253583 0)
(6.23291 0.00282385 0)
(6.2339 0.00317096 0)
(6.23511 0.00353626 0)
(6.23651 0.0038735 0)
(6.238 0.00414164 0)
(6.2395 0.00431368 0)
(6.24092 0.00437957 0)
(6.2422 0.00434509 0)
(6.24332 0.00422759 0)
(6.24427 0.0040513 0)
(6.24507 0.00384159 0)
(6.24576 0.00362191 0)
(6.24635 0.0034109 0)
(6.24689 0.00322174 0)
(6.24741 0.00306149 0)
(6.24792 0.00293225 0)
(6.24843 0.00283165 0)
(6.24896 0.00275669 0)
(6.2495 0.00270204 0)
(6.25004 0.0026646 0)
(6.25063 0.00263844 0)
(6.25117 0.00262287 0)
(6.25179 0.00261108 0)
(6.25231 0.00260628 0)
(6.25299 0.00259884 0)
(6.25344 0.00259839 0)
(6.25424 0.0025885 0)
(6.2545 0.00258942 0)
(6.25556 0.00257055 0)
(4.93833 0.00175584 0)
(4.94483 0.00517456 0)
(4.95785 0.00837198 0)
(4.97716 0.011244 0)
(5.0021 0.0137489 0)
(5.03179 0.0158855 0)
(5.06535 0.0176591 0)
(5.10195 0.0190699 0)
(5.14083 0.0201228 0)
(5.18129 0.020838 0)
(5.22266 0.0212491 0)
(5.26436 0.0213911 0)
(5.30587 0.0212963 0)
(5.34676 0.0209978 0)
(5.38669 0.020538 0)
(5.42539 0.0199614 0)
(5.46268 0.0193055 0)
(5.49844 0.0186015 0)
(5.53257 0.0178844 0)
(5.56505 0.0171862 0)
(5.59585 0.0165288 0)
(5.62499 0.0159248 0)
(5.65251 0.0153801 0)
(5.67846 0.0148962 0)
(5.70294 0.014472 0)
(5.72602 0.0141031 0)
(5.74781 0.0137823 0)
(5.76842 0.0135012 0)
(5.78793 0.0132534 0)
(5.80643 0.0130342 0)
(5.82403 0.0128394 0)
(5.84079 0.0126656 0)
(5.85681 0.0125104 0)
(5.87216 0.0123713 0)
(5.88689 0.0122457 0)
(5.90107 0.0121311 0)
(5.91475 0.0120265 0)
(5.92798 0.0119311 0)
(5.94079 0.0118433 0)
(5.95322 0.0117611 0)
(5.9653 0.0116825 0)
(5.97706 0.0116062 0)
(5.9885 0.0115299 0)
(5.99966 0.0114494 0)
(6.01053 0.0113603 0)
(6.02114 0.01126 0)
(6.03149 0.0111481 0)
(6.04159 0.0110276 0)
(6.05145 0.0109008 0)
(6.06106 0.0107667 0)
(6.07042 0.0106235 0)
(6.07954 0.0104704 0)
(6.08843 0.0103084 0)
(6.09709 0.0101388 0)
(6.10553 0.00996256 0)
(6.11376 0.00977908 0)
(6.12177 0.00958692 0)
(6.12957 0.0093838 0)
(6.13715 0.00916731 0)
(6.14448 0.00893568 0)
(6.15156 0.00868884 0)
(6.15836 0.00842863 0)
(6.16486 0.00815808 0)
(6.17104 0.00788002 0)
(6.17688 0.00759548 0)
(6.18238 0.00730292 0)
(6.18751 0.0069992 0)
(6.19226 0.00668215 0)
(6.19659 0.00635247 0)
(6.20048 0.00601351 0)
(6.20394 0.00566992 0)
(6.20697 0.00532666 0)
(6.2096 0.00498872 0)
(6.21187 0.00466505 0)
(6.21377 0.00437216 0)
(6.21531 0.00411189 0)
(6.21652 0.00388801 0)
(6.21741 0.00371095 0)
(6.21805 0.00359197 0)
(6.21852 0.00353596 0)
(6.21892 0.00353467 0)
(6.21936 0.00356193 0)
(6.2199 0.00358285 0)
(6.22056 0.0035656 0)
(6.22132 0.00349041 0)
(6.22209 0.00335599 0)
(6.22279 0.00318153 0)
(6.22336 0.0029997 0)
(6.22383 0.00284451 0)
(6.22427 0.00274409 0)
(6.22477 0.00271594 0)
(6.22549 0.00276455 0)
(6.22652 0.00288001 0)
(6.22791 0.00304258 0)
(6.22966 0.00322445 0)
(6.23171 0.00338982 0)
(6.23393 0.0035096 0)
(6.23622 0.0035667 0)
(6.23845 0.00355539 0)
(6.24055 0.00348134 0)
(6.24244 0.00336157 0)
(6.2441 0.00321 0)
(6.24554 0.00304172 0)
(6.24677 0.00287329 0)
(6.24783 0.00271698 0)
(6.24875 0.00258047 0)
(6.24957 0.00246698 0)
(6.25031 0.00237653 0)
(6.251 0.00230737 0)
(6.25166 0.00225625 0)
(6.25228 0.00221993 0)
(6.25292 0.00219467 0)
(6.2535 0.002178 0)
(6.25414 0.00216673 0)
(6.25468 0.00215985 0)
(6.25537 0.00215463 0)
(6.25582 0.00215187 0)
(6.25663 0.00214824 0)
(6.25689 0.00214678 0)
(6.25796 0.00214187 0)
(4.93833 -0.00167913 0)
(4.94483 -0.00495129 0)
(4.95784 -0.00802059 0)
(4.97713 -0.0107905 0)
(5.00206 -0.0132178 0)
(5.03174 -0.0152919 0)
(5.0653 -0.0170062 0)
(5.1019 -0.0183533 0)
(5.14078 -0.0193359 0)
(5.18124 -0.0199748 0)
(5.22261 -0.0203064 0)
(5.26431 -0.0203732 0)
(5.30582 -0.0202107 0)
(5.34672 -0.0198439 0)
(5.38668 -0.0192941 0)
(5.42541 -0.0185846 0)
(5.46273 -0.0177463 0)
(5.49849 -0.0168218 0)
(5.53261 -0.0158586 0)
(5.56504 -0.0149041 0)
(5.5958 -0.013995 0)
(5.62489 -0.0131518 0)
(5.65236 -0.0123831 0)
(5.67828 -0.0116913 0)
(5.70273 -0.011075 0)
(5.7258 -0.010529 0)
(5.74758 -0.0100452 0)
(5.76818 -0.00961486 0)
(5.78769 -0.00923046 0)
(5.80619 -0.00888593 0)
(5.82379 -0.00857607 0)
(5.84056 -0.00829565 0)
(5.85659 -0.00803899 0)
(5.87194 -0.00780088 0)
(5.88668 -0.00757761 0)
(5.90087 -0.00736645 0)
(5.91456 -0.00716446 0)
(5.92779 -0.0069685 0)
(5.94061 -0.00677657 0)
(5.95304 -0.00658892 0)
(5.96513 -0.00640758 0)
(5.97688 -0.0062341 0)
(5.98832 -0.00606831 0)
(5.99947 -0.00590959 0)
(6.01033 -0.00575815 0)
(6.02093 -0.00561456 0)
(6.03127 -0.00548032 0)
(6.04136 -0.00535555 0)
(6.0512 -0.00523898 0)
(6.06079 -0.0051281 0)
(6.07014 -0.00502004 0)
(6.07925 -0.00491228 0)
(6.08812 -0.00480333 0)
(6.09677 -0.00469202 0)
(6.1052 -0.00457578 0)
(6.11342 -0.00445135 0)
(6.12142 -0.00431645 0)
(6.1292 -0.00417093 0)
(6.13677 -0.00401574 0)
(6.1441 -0.00385078 0)
(6.15117 -0.00367352 0)
(6.15796 -0.00348007 0)
(6.16445 -0.00326848 0)
(6.17061 -0.00304221 0)
(6.17645 -0.0028102 0)
(6.18194 -0.00258157 0)
(6.18706 -0.0023576 0)
(6.1918 -0.00212887 0)
(6.19612 -0.00188222 0)
(6.2 -0.00161297 0)
(6.20343 -0.00133304 0)
(6.20644 -0.00106834 0)
(6.20906 -0.000843667 0)
(6.21133 -0.000667567 0)
(6.21325 -0.000528659 0)
(6.2148 -0.00038153 0)
(6.21601 -0.000195481 0)
(6.21689 2.03645e-05 0)
(6.21754 0.000229021 0)
(6.21803 0.000375795 0)
(6.21847 0.000426197 0)
(6.21896 0.000386716 0)
(6.21954 0.000303873 0)
(6.22022 0.000244438 0)
(6.22096 0.000267364 0)
(6.22171 0.000402312 0)
(6.22241 0.000635532 0)
(6.223 0.000912951 0)
(6.22352 0.00115967 0)
(6.22402 0.00130543 0)
(6.22461 0.00130454 0)
(6.2254 0.00114752 0)
(6.2265 0.00086476 0)
(6.22793 0.00053153 0)
(6.22969 0.000220232 0)
(6.2317 -2.48989e-06 0)
(6.23387 -9.81374e-05 0)
(6.2361 -6.21303e-05 0)
(6.23829 8.46138e-05 0)
(6.24036 0.000305073 0)
(6.24226 0.000553721 0)
(6.24393 0.000798583 0)
(6.24539 0.00101655 0)
(6.24665 0.00118815 0)
(6.24774 0.00131063 0)
(6.24868 0.00139132 0)
(6.24952 0.00143846 0)
(6.25027 0.00146165 0)
(6.25096 0.00146952 0)
(6.25163 0.001469 0)
(6.25225 0.00146432 0)
(6.25289 0.00145879 0)
(6.25347 0.00145324 0)
(6.25411 0.0014494 0)
(6.25465 0.00144601 0)
(6.25534 0.00144516 0)
(6.25579 0.0014437 0)
(6.2566 0.00144603 0)
(6.25686 0.00144578 0)
(6.25793 0.0014521 0)
(4.93834 -0.00522605 0)
(4.94514 -0.0153857 0)
(4.95868 -0.0248441 0)
(4.97866 -0.0332998 0)
(5.00433 -0.0406233 0)
(5.03478 -0.0467984 0)
(5.06911 -0.0518282 0)
(5.10649 -0.0557106 0)
(5.14613 -0.0584724 0)
(5.18729 -0.0601952 0)
(5.2293 -0.0610033 0)
(5.27157 -0.0610358 0)
(5.31358 -0.0604193 0)
(5.35494 -0.0592593 0)
(5.39531 -0.0576486 0)
(5.4344 -0.0556732 0)
(5.47202 -0.0534102 0)
(5.50801 -0.0509287 0)
(5.5423 -0.0482968 0)
(5.57485 -0.0455781 0)
(5.60566 -0.042831 0)
(5.63479 -0.0401072 0)
(5.66228 -0.037451 0)
(5.68821 -0.0348976 0)
(5.71266 -0.0324746 0)
(5.73573 -0.0302005 0)
(5.75752 -0.0280854 0)
(5.77813 -0.0261322 0)
(5.79765 -0.0243393 0)
(5.81619 -0.0227027 0)
(5.83381 -0.0212155 0)
(5.85061 -0.0198691 0)
(5.86667 -0.0186529 0)
(5.88205 -0.0175556 0)
(5.89682 -0.016565 0)
(5.91104 -0.0156696 0)
(5.92477 -0.0148578 0)
(5.93803 -0.0141179 0)
(5.95087 -0.0134379 0)
(5.96333 -0.0128079 0)
(5.97542 -0.0122231 0)
(5.98719 -0.0116805 0)
(5.99864 -0.0111752 0)
(6.00979 -0.0107026 0)
(6.02066 -0.0102603 0)
(6.03124 -0.00984721 0)
(6.04157 -0.00946127 0)
(6.05163 -0.00909935 0)
(6.06144 -0.00875734 0)
(6.07101 -0.0084325 0)
(6.08033 -0.00812599 0)
(6.08941 -0.00784167 0)
(6.09826 -0.00758153 0)
(6.10687 -0.00734168 0)
(6.11527 -0.00711206 0)
(6.12346 -0.0068811 0)
(6.13142 -0.00664132 0)
(6.13917 -0.00639113 0)
(6.14669 -0.00613105 0)
(6.15396 -0.00585803 0)
(6.16097 -0.00556309 0)
(6.16768 -0.00523437 0)
(6.17409 -0.0048636 0)
(6.18018 -0.00445204 0)
(6.18593 -0.00401189 0)
(6.19135 -0.00355939 0)
(6.1964 -0.00310117 0)
(6.20106 -0.00262547 0)
(6.20529 -0.0021108 0)
(6.20909 -0.00154921 0)
(6.21243 -0.000963755 0)
(6.21534 -0.000400848 0)
(6.21786 9.8105e-05 0)
(6.21999 0.000519314 0)
(6.22172 0.000876298 0)
(6.22307 0.00121469 0)
(6.22405 0.00156751 0)
(6.22474 0.00193318 0)
(6.22525 0.00226631 0)
(6.22568 0.00251203 0)
(6.22612 0.0026207 0)
(6.22662 0.00256364 0)
(6.22717 0.00235748 0)
(6.22774 0.00206538 0)
(6.22828 0.00177608 0)
(6.22876 0.00156393 0)
(6.22916 0.00146632 0)
(6.22953 0.00147044 0)
(6.22991 0.00149104 0)
(6.23039 0.00143161 0)
(6.23102 0.00122437 0)
(6.23185 0.000860877 0)
(6.23289 0.000400103 0)
(6.23413 -8.51299e-05 0)
(6.23549 -0.000515331 0)
(6.23691 -0.000822761 0)
(6.23832 -0.000972804 0)
(6.23966 -0.000965375 0)
(6.24089 -0.000826397 0)
(6.242 -0.000598278 0)
(6.24299 -0.000331345 0)
(6.24389 -6.17967e-05 0)
(6.24472 0.000186961 0)
(6.24548 0.00040394 0)
(6.24621 0.00058092 0)
(6.24691 0.000715617 0)
(6.24759 0.000810356 0)
(6.24826 0.000872392 0)
(6.2489 0.000909733 0)
(6.24954 0.000931096 0)
(6.25015 0.000941109 0)
(6.25078 0.00094616 0)
(6.25137 0.0009462 0)
(6.25201 0.000947447 0)
(6.25255 0.000944934 0)
(6.25324 0.000948342 0)
(6.25369 0.000945508 0)
(6.25449 0.000955188 0)
(6.25475 0.000952363 0)
(6.25582 0.000974549 0)
(4.93838 -0.00898444 0)
(4.94589 -0.0266361 0)
(4.96067 -0.0432172 0)
(4.98217 -0.0580797 0)
(5.00948 -0.0709301 0)
(5.0416 -0.0817028 0)
(5.07764 -0.0903794 0)
(5.11677 -0.0969597 0)
(5.15818 -0.10152 0)
(5.20106 -0.104241 0)
(5.24468 -0.105363 0)
(5.28845 -0.105151 0)
(5.33187 -0.103852 0)
(5.37451 -0.101694 0)
(5.41602 -0.0988808 0)
(5.45613 -0.0955909 0)
(5.49461 -0.0919702 0)
(5.53133 -0.0881362 0)
(5.56618 -0.084181 0)
(5.59913 -0.0801777 0)
(5.63017 -0.0761881 0)
(5.65933 -0.0722679 0)
(5.68669 -0.0684651 0)
(5.71231 -0.0648172 0)
(5.73631 -0.0613522 0)
(5.75878 -0.0580901 0)
(5.77985 -0.0550427 0)
(5.79963 -0.0522131 0)
(5.81823 -0.0495967 0)
(5.83575 -0.0471841 0)
(5.85229 -0.0449655 0)
(5.86794 -0.0429332 0)
(5.88279 -0.0410789 0)
(5.89691 -0.0393893 0)
(5.91037 -0.0378457 0)
(5.92322 -0.0364288 0)
(5.93553 -0.0351239 0)
(5.94733 -0.0339205 0)
(5.95867 -0.0328083 0)
(5.96957 -0.031775 0)
(5.98008 -0.0308032 0)
(5.9902 -0.0298785 0)
(5.99996 -0.0289899 0)
(6.00939 -0.0281331 0)
(6.01849 -0.027309 0)
(6.02727 -0.0265184 0)
(6.03575 -0.0257565 0)
(6.04393 -0.0250149 0)
(6.05182 -0.0242866 0)
(6.05943 -0.0235706 0)
(6.06677 -0.0228725 0)
(6.07384 -0.022201 0)
(6.08067 -0.0215617 0)
(6.08726 -0.0209522 0)
(6.09362 -0.0203608 0)
(6.09978 -0.0197716 0)
(6.10573 -0.0191712 0)
(6.11148 -0.0185533 0)
(6.11701 -0.017916 0)
(6.12232 -0.0172551 0)
(6.12739 -0.0165608 0)
(6.13221 -0.0158201 0)
(6.13679 -0.0150247 0)
(6.14113 -0.0141787 0)
(6.14522 -0.0132979 0)
(6.14904 -0.0123974 0)
(6.15258 -0.0114731 0)
(6.15579 -0.0104994 0)
(6.15867 -0.00944916 0)
(6.16121 -0.00832638 0)
(6.16346 -0.00718015 0)
(6.16544 -0.0060842 0)
(6.16717 -0.00509276 0)
(6.16862 -0.00420969 0)
(6.16976 -0.00340169 0)
(6.1706 -0.00264841 0)
(6.17118 -0.0019466 0)
(6.17165 -0.00131506 0)
(6.17215 -0.000808182 0)
(6.17276 -0.000468273 0)
(6.17344 -0.000311249 0)
(6.17408 -0.000306357 0)
(6.17459 -0.000381802 0)
(6.17497 -0.000442847 0)
(6.17528 -0.000412047 0)
(6.17564 -0.000243716 0)
(6.17618 3.32559e-05 0)
(6.17696 0.000298277 0)
(6.17795 0.00042834 0)
(6.17909 0.000329231 0)
(6.18025 -2.74647e-05 0)
(6.1813 -0.000594001 0)
(6.18211 -0.00125668 0)
(6.18257 -0.00189358 0)
(6.18269 -0.0023822 0)
(6.18251 -0.00264711 0)
(6.18212 -0.00266896 0)
(6.18162 -0.00247596 0)
(6.18113 -0.00212928 0)
(6.18072 -0.00170143 0)
(6.18045 -0.00125524 0)
(6.18032 -0.000843668 0)
(6.18034 -0.000498797 0)
(6.1805 -0.000227151 0)
(6.18076 -2.85334e-05 0)
(6.1811 0.000102036 0)
(6.18149 0.00018123 0)
(6.18193 0.000227278 0)
(6.18239 0.000251201 0)
(6.18288 0.000264374 0)
(6.18337 0.000269097 0)
(6.18389 0.0002734 0)
(6.18437 0.000272307 0)
(6.18492 0.000276671 0)
(6.18538 0.000273332 0)
(6.18597 0.000282193 0)
(6.18635 0.000276406 0)
(6.18705 0.000294688 0)
(6.18727 0.000286246 0)
(6.18819 0.000323933 0)
(4.9384 -0.0121549 0)
(4.9466 -0.0358147 0)
(4.96315 -0.0579362 0)
(4.98746 -0.0780005 0)
(5.01835 -0.0958208 0)
(5.05468 -0.111191 0)
(5.09539 -0.123852 0)
(5.13929 -0.13365 0)
(5.1851 -0.140633 0)
(5.23155 -0.144984 0)
(5.27757 -0.146948 0)
(5.32229 -0.146807 0)
(5.36509 -0.14483 0)
(5.40549 -0.141301 0)
(5.44318 -0.136537 0)
(5.47796 -0.130853 0)
(5.50977 -0.124539 0)
(5.53862 -0.117848 0)
(5.56459 -0.110992 0)
(5.58781 -0.104148 0)
(5.60843 -0.0974526 0)
(5.62662 -0.0910099 0)
(5.64257 -0.0848936 0)
(5.65644 -0.0791552 0)
(5.66844 -0.0738288 0)
(5.67874 -0.0689308 0)
(5.68751 -0.0644609 0)
(5.6949 -0.0604032 0)
(5.70107 -0.0567317 0)
(5.70613 -0.0534171 0)
(5.7102 -0.050432 0)
(5.71339 -0.0477511 0)
(5.71579 -0.0453476 0)
(5.7175 -0.0431901 0)
(5.71858 -0.0412441 0)
(5.7191 -0.0394801 0)
(5.7191 -0.0378797 0)
(5.71864 -0.0364234 0)
(5.71776 -0.0350887 0)
(5.71653 -0.0338518 0)
(5.71496 -0.0326911 0)
(5.71311 -0.031592 0)
(5.71099 -0.03055 0)
(5.70863 -0.0295613 0)
(5.70604 -0.0286194 0)
(5.70324 -0.0277183 0)
(5.70025 -0.0268558 0)
(5.69708 -0.026029 0)
(5.69376 -0.0252329 0)
(5.69033 -0.0244619 0)
(5.6868 -0.0237144 0)
(5.68318 -0.0229945 0)
(5.6795 -0.022308 0)
(5.67577 -0.0216565 0)
(5.67202 -0.0210301 0)
(5.66828 -0.0204073 0)
(5.66456 -0.0197624 0)
(5.66087 -0.0190761 0)
(5.65722 -0.0183423 0)
(5.65361 -0.0175654 0)
(5.65006 -0.0167508 0)
(5.6466 -0.0158958 0)
(5.64324 -0.0149885 0)
(5.63999 -0.0140181 0)
(5.63686 -0.0129879 0)
(5.63384 -0.0119122 0)
(5.63095 -0.0107999 0)
(5.62822 -0.00964648 0)
(5.62571 -0.00844415 0)
(5.62343 -0.00720147 0)
(5.62138 -0.0059467 0)
(5.61953 -0.00470857 0)
(5.61779 -0.00350403 0)
(5.61613 -0.00235165 0)
(5.61457 -0.00128441 0)
(5.61319 -0.000365937 0)
(5.61213 0.000320347 0)
(5.61144 0.000739333 0)
(5.61116 0.000960854 0)
(5.61125 0.00110221 0)
(5.6116 0.00125306 0)
(5.6121 0.00140664 0)
(5.61259 0.001467 0)
(5.61302 0.0013349 0)
(5.61337 0.000988577 0)
(5.61374 0.000477967 0)
(5.6142 -0.000104024 0)
(5.61477 -0.000639077 0)
(5.61544 -0.00101559 0)
(5.6161 -0.00120217 0)
(5.61657 -0.00122438 0)
(5.61674 -0.00111655 0)
(5.61656 -0.000934593 0)
(5.61603 -0.000722004 0)
(5.61524 -0.00051536 0)
(5.61429 -0.000342763 0)
(5.6133 -0.000217175 0)
(5.61235 -0.000134425 0)
(5.61152 -8.41728e-05 0)
(5.61087 -5.58248e-05 0)
(5.6104 -4.08025e-05 0)
(5.61011 -3.26847e-05 0)
(5.60998 -2.84002e-05 0)
(5.60996 -2.9229e-05 0)
(5.61002 -3.34482e-05 0)
(5.61015 -3.85226e-05 0)
(5.61032 -4.40192e-05 0)
(5.61051 -4.85047e-05 0)
(5.61071 -5.50059e-05 0)
(5.61091 -6.01773e-05 0)
(5.6111 -6.68381e-05 0)
(5.6113 -6.83365e-05 0)
(5.61149 -7.33741e-05 0)
(5.61169 -6.99358e-05 0)
(5.61186 -7.5819e-05 0)
(5.61209 -6.57617e-05 0)
(5.61223 -7.46757e-05 0)
(5.6125 -5.18395e-05 0)
(5.61258 -6.43911e-05 0)
(5.61293 -1.54593e-05 0)
(4.93891 -0.0223943 0)
(4.95455 -0.0611676 0)
(4.98202 -0.0934789 0)
(5.01673 -0.121131 0)
(5.05401 -0.145034 0)
(5.08997 -0.164885 0)
(5.12167 -0.180259 0)
(5.14697 -0.191178 0)
(5.16473 -0.198084 0)
(5.17451 -0.201481 0)
(5.17669 -0.201875 0)
(5.17178 -0.199739 0)
(5.16063 -0.195461 0)
(5.14411 -0.189417 0)
(5.1231 -0.181995 0)
(5.0984 -0.173561 0)
(5.07083 -0.16445 0)
(5.04107 -0.154941 0)
(5.00973 -0.14527 0)
(4.97731 -0.135626 0)
(4.94425 -0.126158 0)
(4.91091 -0.116994 0)
(4.87756 -0.108223 0)
(4.84444 -0.099916 0)
(4.81171 -0.0921255 0)
(4.7795 -0.084877 0)
(4.7479 -0.0781731 0)
(4.71697 -0.0719987 0)
(4.68676 -0.0663309 0)
(4.65728 -0.0611465 0)
(4.62856 -0.0564233 0)
(4.6006 -0.0521363 0)
(4.5734 -0.0482526 0)
(4.54693 -0.0447319 0)
(4.52119 -0.0415304 0)
(4.49617 -0.0386081 0)
(4.47182 -0.0359309 0)
(4.44816 -0.033476 0)
(4.42518 -0.0312251 0)
(4.40287 -0.0291556 0)
(4.38122 -0.0272417 0)
(4.3602 -0.0254583 0)
(4.3398 -0.0237921 0)
(4.32001 -0.02224 0)
(4.30084 -0.0208022 0)
(4.28228 -0.0194762 0)
(4.26433 -0.0182536 0)
(4.24698 -0.0171199 0)
(4.23022 -0.0160592 0)
(4.21404 -0.0150622 0)
(4.19845 -0.01413 0)
(4.18345 -0.0132743 0)
(4.16903 -0.012508 0)
(4.15519 -0.0118337 0)
(4.14195 -0.0112363 0)
(4.12929 -0.0106891 0)
(4.11724 -0.0101681 0)
(4.10577 -0.0096635 0)
(4.09489 -0.00917665 0)
(4.08459 -0.00870578 0)
(4.07486 -0.00823808 0)
(4.0657 -0.00775379 0)
(4.05714 -0.00723785 0)
(4.0492 -0.00669024 0)
(4.04189 -0.00612347 0)
(4.03523 -0.00555188 0)
(4.02921 -0.00497868 0)
(4.02383 -0.00439187 0)
(4.01909 -0.00377398 0)
(4.015 -0.00311945 0)
(4.01156 -0.00244777 0)
(4.00879 -0.00180327 0)
(4.00666 -0.00124114 0)
(4.00516 -0.000805428 0)
(4.00424 -0.000515217 0)
(4.00378 -0.000369646 0)
(4.00368 -0.000344854 0)
(4.0038 -0.000418985 0)
(4.004 -0.0005556 0)
(4.00419 -0.000719682 0)
(4.00435 -0.000879003 0)
(4.00449 -0.00100998 0)
(4.00464 -0.00110265 0)
(4.00478 -0.00116066 0)
(4.00483 -0.00117408 0)
(4.00472 -0.00113344 0)
(4.00441 -0.00103726 0)
(4.00391 -0.000893231 0)