/*--------------------------------*- C++ -*----------------------------------*\
  =========                 |
  \\      /  F ield         | OpenFOAM: The Open Source CFD Toolbox
   \\    /   O peration     | Website:  https://openfoam.org
    \\  /    A nd           | Version:  7
     \\/     M anipulation  |
\*---------------------------------------------------------------------------*/
FoamFile
{
    version     2.0;
    format      ascii;
    class       surfaceScalarField;
    location    "0.1175";
    object      phi;
}
// * * * * * * * * * * * * * * * * * * * * * * * * * * * * * * * * * * * * * //

dimensions      [1 0 -1 0 0 0 0];

internalField   nonuniform List<scalar> 
23688
(
0.00221776
0.000149519
2.93809e-06
0.00208296
0.000134066
1.55292e-06
0.00190658
0.000174641
2.52685e-06
0.00174554
0.000160186
1.61856e-06
0.00159015
0.000153821
2.30157e-06
0.00145363
0.0001356
1.61171e-06
0.0013358
0.000116388
2.13508e-06
0.00124133
9.35597e-05
1.59215e-06
0.0011694
7.05098e-05
2.00978e-06
0.00111901
4.92779e-05
1.58516e-06
0.0010861
3.13134e-05
1.92835e-06
0.00106837
1.6349e-05
1.59218e-06
0.00106085
5.76833e-06
1.86795e-06
0.00106076
-1.45207e-06
1.5957e-06
0.00106342
-4.46329e-06
1.81677e-06
0.00106728
-5.46671e-06
1.59724e-06
0.00106989
-4.43469e-06
1.77377e-06
0.00107177
-3.56514e-06
1.59503e-06
0.00107231
-2.4346e-06
1.73385e-06
0.00107258
-2.09611e-06
1.58743e-06
0.00107224
-1.66275e-06
1.6961e-06
0.00107201
-1.74063e-06
1.57619e-06
0.00107145
-1.5859e-06
1.66071e-06
0.00107106
-1.73036e-06
1.56228e-06
0.00107042
-1.63064e-06
1.62723e-06
0.00106989
-1.74802e-06
1.54614e-06
0.00106915
-1.66019e-06
1.59511e-06
0.00106849
-1.7467e-06
1.52803e-06
0.00106763
-1.66817e-06
1.56392e-06
0.00106683
-1.7313e-06
1.50822e-06
0.00106587
-1.66517e-06
1.53331e-06
0.00106494
-1.71324e-06
1.48692e-06
0.00106387
-1.65694e-06
1.50307e-06
0.00106283
-1.69192e-06
1.46437e-06
0.00106169
-1.64616e-06
1.47301e-06
0.00106057
-1.67292e-06
1.44074e-06
0.00105937
-1.63392e-06
1.44298e-06
0.00105819
-1.65187e-06
1.4162e-06
0.00105695
-1.61717e-06
1.41287e-06
0.00105574
-1.62804e-06
1.39089e-06
0.00105449
-1.59468e-06
1.38257e-06
0.00105326
-1.59962e-06
1.36491e-06
0.00105203
-1.56232e-06
1.35202e-06
0.00105081
-1.55815e-06
1.33841e-06
0.0010496
-1.5107e-06
1.32115e-06
0.0010484
-1.48469e-06
1.31153e-06
0.0010472
-1.42004e-06
1.28991e-06
0.00104598
-1.33749e-06
1.28446e-06
0.00104472
-1.21745e-06
1.25827e-06
0.00104332
-1.00281e-06
1.2575e-06
0.00104162
-5.99425e-07
1.22646e-06
0.00103968
-2.84894e-07
1.23098e-06
0.00103628
1.29668e-06
1.1954e-06
0.00103323
1.03811e-06
1.20534e-06
0.00102393
7.41692e-06
1.16961e-06
0.00101861
3.54757e-06
1.17884e-06
0.000991299
2.56471e-05
1.16827e-06
0.000977577
1.22033e-05
1.14135e-06
0.000906347
6.97077e-05
1.25842e-06
0.000108318
1.07353e-06
0.000796804
0.00241672
0.000101524
1.30638e-06
0.00244942
0.000101872
3.20687e-07
0.0024738
0.00014989
1.15429e-06
0.00248494
0.00014946
3.16035e-07
0.00248168
0.000156832
9.79097e-07
0.0024697
0.000148019
3.05232e-07
0.00244957
0.000136353
8.32262e-07
0.00242427
0.00011911
2.99513e-07
0.00239348
0.000101083
7.27696e-07
0.00236128
8.17955e-05
3.13606e-07
0.00233215
6.05213e-05
6.68047e-07
0.00231179
3.69872e-05
3.43757e-07
0.00230142
1.57177e-05
6.32803e-07
0.00229995
-6.60176e-07
3.71357e-07
0.00230341
-9.17729e-06
6.03622e-07
0.00230865
-1.18619e-05
3.89025e-07
0.00231286
-9.90585e-06
5.68101e-07
0.00231577
-7.4081e-06
3.90771e-07
0.00231702
-4.62319e-06
5.30243e-07
0.00231734
-3.16181e-06
3.84882e-07
0.0023168
-1.96799e-06
4.93697e-07
0.00231597
-1.69025e-06
3.74605e-07
0.00231477
-1.31457e-06
4.59033e-07
0.00231353
-1.40318e-06
3.61253e-07
0.00231208
-1.24135e-06
4.25985e-07
0.00231064
-1.35976e-06
3.45374e-07
0.00230904
-1.24457e-06
3.94114e-07
0.00230744
-1.33968e-06
3.27388e-07
0.00230571
-1.2441e-06
3.63063e-07
0.00230398
-1.31595e-06
3.07631e-07
0.00230214
-1.23904e-06
3.32562e-07
0.0023003
-1.29491e-06
2.86376e-07
0.00229837
-1.23001e-06
3.02393e-07
0.00229644
-1.26984e-06
2.63855e-07
0.00229445
-1.21898e-06
2.72394e-07
0.00229245
-1.24998e-06
2.40259e-07
0.00229041
-1.20876e-06
2.4242e-07
0.00228837
-1.22937e-06
2.15752e-07
0.00228632
-1.19524e-06
2.12362e-07
0.00228428
-1.20589e-06
1.90465e-07
0.00228224
-1.17621e-06
1.82101e-07
0.00228021
-1.17315e-06
1.64508e-07
0.00227822
-1.14725e-06
1.51552e-07
0.00227623
-1.11111e-06
1.37999e-07
0.00227432
-1.10794e-06
1.2063e-07
0.00227235
-9.63287e-07
1.11053e-07
0.00227059
-1.05152e-06
8.92413e-08
0.00226855
-6.34401e-07
8.38076e-08
0.00226699
-9.0575e-07
5.7183e-08
0.00226465
1.5391e-07
5.6589e-08
0.00226345
-4.74353e-07
2.43662e-08
0.00226033
1.84739e-06
2.95578e-08
0.00225977
9.86525e-07
-9.99949e-09
0.00225447
5.553e-06
2.04606e-09
0.00225571
5.54994e-06
-4.74778e-08
0.00224551
1.32025e-05
-3.20726e-08
0.00225225
1.85478e-05
-9.69353e-08
0.00223335
3.08415e-05
-9.49026e-08
0.00225895
4.41087e-05
-2.2071e-07
8.2879e-05
-2.61952e-07
0.00228452
0.00241823
5.11713e-05
2.24031e-06
0.00246037
5.93089e-05
1.26026e-06
0.00250734
0.000101626
2.07303e-06
0.00255261
0.00010366
1.23681e-06
0.00259324
0.000115019
1.89583e-06
0.00263054
0.000110276
1.22544e-06
0.00266142
0.000104446
1.75098e-06
0.00268736
9.25014e-05
1.21534e-06
0.00270729
7.98966e-05
1.63482e-06
0.00272255
6.57922e-05
1.20739e-06
0.00273175
5.05184e-05
1.54737e-06
0.00273423
3.42198e-05
1.21079e-06
0.00272939
1.97617e-05
1.48655e-06
0.00271879
8.7594e-06
1.21634e-06
0.00270464
2.83862e-06
1.43049e-06
0.00269042
-2.70732e-08
1.20847e-06
0.00267826
-3.903e-07
1.38021e-06
0.00266909
-5.06441e-07
1.2016e-06
0.0026625
-1.71968e-07
1.33993e-06
0.00265793
-3.53626e-07
1.19536e-06
0.00265452
-3.21914e-07
1.30429e-06
0.00265187
-6.70967e-07
1.18574e-06
0.00264955
-7.29326e-07
1.27008e-06
0.00264744
-9.98107e-07
1.17225e-06
0.00264537
-1.01315e-06
1.2369e-06
0.00264336
-1.19336e-06
1.15615e-06
0.0026413
-1.16358e-06
1.20485e-06
0.00263926
-1.27647e-06
1.13804e-06
0.00263716
-1.228e-06
1.17371e-06
0.00263504
-1.30101e-06
1.11822e-06
0.00263286
-1.25141e-06
1.14316e-06
0.00263065
-1.30171e-06
1.09695e-06
0.0026284
-1.25608e-06
1.11298e-06
0.00262612
-1.29107e-06
1.07443e-06
0.0026238
-1.25275e-06
1.08298e-06
0.00262147
-1.27846e-06
1.05083e-06
0.00261911
-1.24541e-06
1.053e-06
0.00261675
-1.26307e-06
1.02632e-06
0.00261437
-1.23265e-06
1.02295e-06
0.002612
-1.24437e-06
1.00104e-06
0.00260964
-1.21189e-06
9.92718e-07
0.0026073
-1.21714e-06
9.75108e-07
0.00260497
-1.17547e-06
9.62235e-07
0.00260269
-1.16615e-06
9.48643e-07
0.00260041
-1.11185e-06
9.31443e-07
0.00259827
-1.05451e-06
9.21776e-07
0.00259603
-9.93441e-07
9.0028e-07
0.00259408
-8.00107e-07
8.94635e-07
0.00259188
-7.32237e-07
8.68836e-07
0.00259022
-1.54529e-07
8.67115e-07
0.00258789
2.15816e-09
8.3727e-07
0.00258648
1.48188e-06
8.39127e-07
0.00258363
2.18483e-06
8.07422e-07
0.00258236
5.26374e-06
8.11035e-07
0.00257844
8.0358e-06
7.84151e-07
0.00257592
1.43951e-05
7.82965e-07
0.00257095
2.22982e-05
7.82327e-07
0.00256227
3.84501e-05
7.55609e-07
0.00255568
4.96666e-05
8.3782e-07
0.000103832
7.45358e-07
0.00253388
0.00238839
3.13581e-05
1.45152e-06
0.00241023
3.77441e-05
5.65536e-07
0.00244551
6.57719e-05
1.34493e-06
0.00248278
6.65355e-05
5.59478e-07
0.00252295
7.43833e-05
1.20622e-06
0.00256206
7.14011e-05
5.55105e-07
0.00259778
6.83591e-05
1.07993e-06
0.00262929
6.09326e-05
5.5235e-07
0.00265556
5.30125e-05
9.75693e-07
0.00267713
4.41797e-05
5.54548e-07
0.00269233
3.52465e-05
9.00781e-07
0.00270063
2.63119e-05
5.69022e-07
0.00270171
1.84569e-05
8.49853e-07
0.00269811
1.1687e-05
5.81094e-07
0.00269274
6.58937e-06
8.02952e-07
0.00268808
2.8126e-06
5.83733e-07
0.00268486
7.91948e-07
7.59681e-07
0.00268316
-4.50089e-07
5.8299e-07
0.00268223
-7.51947e-07
7.23163e-07
0.00268166
-9.33317e-07
5.80109e-07
0.00268093
-7.33812e-07
6.89753e-07
0.00268002
-7.50371e-07
5.71985e-07
0.00267878
-6.07847e-07
6.56562e-07
0.00267738
-6.73985e-07
5.59451e-07
0.00267575
-6.01072e-07
6.23988e-07
0.00267401
-6.73156e-07
5.43773e-07
0.00267213
-6.21809e-07
5.92277e-07
0.00267018
-6.78699e-07
5.25837e-07
0.00266812
-6.34575e-07
5.61313e-07
0.00266602
-6.76054e-07
5.06106e-07
0.00266384
-6.38425e-07
5.30879e-07
0.00266163
-6.69285e-07
4.84875e-07
0.00265935
-6.36971e-07
5.00772e-07
0.00265705
-6.58733e-07
4.62378e-07
0.00265471
-6.3242e-07
4.70822e-07
0.00265234
-6.48746e-07
4.38804e-07
0.00264995
-6.27053e-07
4.40892e-07
0.00264756
-6.37738e-07
4.14313e-07
0.00264516
-6.18901e-07
4.10866e-07
0.00264276
-6.24051e-07
3.89039e-07
0.00264038
-6.06678e-07
3.80634e-07
0.00263801
-6.02869e-07
3.63088e-07
0.00263569
-5.87887e-07
3.50099e-07
0.00263338
-5.58867e-07
3.36553e-07
0.00263117
-5.5932e-07
3.19165e-07
0.00262895
-4.47251e-07
3.09497e-07
0.00262692
-5.07251e-07
2.87705e-07
0.00262482
-1.9097e-07
2.8192e-07
0.00262306
-3.71083e-07
2.555e-07
0.00262115
4.21676e-07
2.53843e-07
0.00261993
-3.92141e-09
2.22109e-07
0.0026185
1.76743e-06
2.24798e-07
0.00261866
9.99266e-07
1.85489e-07
0.00261817
4.83594e-06
1.918e-07
0.00262161
3.81886e-06
1.4031e-07
0.00262365
1.16736e-05
1.484e-07
0.00263469
1.07711e-05
6.89752e-08
0.00264555
2.72062e-05
7.92114e-08
0.00267016
2.49625e-05
-8.48629e-08
6.15446e-05
-4.30398e-08
0.00271242
0.00238678
1.27419e-05
1.9045e-06
0.00240789
1.64474e-05
1.02754e-06
0.00244215
3.04862e-05
1.79889e-06
0.00247704
3.13292e-05
1.01463e-06
0.00251444
3.60694e-05
1.65721e-06
0.00255081
3.48192e-05
1.00611e-06
0.00258467
3.36822e-05
1.52842e-06
0.00261514
2.99396e-05
9.99164e-07
0.00264102
2.60824e-05
1.41928e-06
0.0026628
2.19415e-05
9.94404e-07
0.00267952
1.80528e-05
1.33624e-06
0.0026916
1.41792e-05
1.00084e-06
0.00269881
1.05603e-05
1.27752e-06
0.00270214
7.23553e-06
1.00677e-06
0.00270206
4.63979e-06
1.22301e-06
0.00270002
2.61507e-06
1.00128e-06
0.00269695
1.42068e-06
1.17303e-06
0.00269381
6.28102e-07
9.95106e-07
0.00269083
3.0557e-07
1.13314e-06
0.00268829
4.28923e-08
9.89388e-07
0.00268602
-2.43269e-08
1.09833e-06
0.00268403
-1.6749e-07
9.8041e-07
0.0026821
-1.98675e-07
1.06469e-06
0.00268023
-2.95199e-07
9.67374e-07
0.0026783
-3.0741e-07
1.03185e-06
0.00267638
-3.74292e-07
9.51449e-07
0.00267437
-3.70905e-07
9.9996e-07
0.00267234
-4.13839e-07
9.33393e-07
0.00267023
-4.01672e-07
9.68898e-07
0.0026681
-4.28904e-07
9.13606e-07
0.00266589
-4.14184e-07
9.38407e-07
0.00266366
-4.32258e-07
8.92346e-07
0.00266137
-4.17843e-07
9.0827e-07
0.00265906
-4.30007e-07
8.69834e-07
0.00265671
-4.17235e-07
8.78301e-07
0.00265434
-4.25801e-07
8.4625e-07
0.00265195
-4.14403e-07
8.48359e-07
0.00264955
-4.19965e-07
8.21752e-07
0.00264714
-4.0889e-07
8.18331e-07
0.00264474
-4.11938e-07
7.96478e-07
0.00264234
-3.99439e-07
7.88115e-07
0.00263997
-3.99275e-07
7.70541e-07
0.00263762
-3.83062e-07
7.57637e-07
0.00263533
-3.75138e-07
7.4405e-07
0.00263305
-3.5354e-07
7.26815e-07
0.0026309
-3.23379e-07
7.17083e-07
0.00262873
-2.97134e-07
6.95569e-07
0.00262685
-2.08455e-07
6.89658e-07
0.00262484
-1.76685e-07
6.63855e-07
0.00262342
9.56415e-08
6.61452e-07
0.00262164
1.39498e-07
6.31577e-07
0.00262099
8.5738e-07
6.31877e-07
0.00261954
1.0191e-06
5.99199e-07
0.00262043
2.60713e-06
6.00451e-07
0.00261985
3.18345e-06
5.67646e-07
0.00262361
6.8234e-06
5.65743e-07
0.00262537
8.04418e-06
5.39494e-07
0.00263467
1.7074e-05
5.2736e-07
0.00264153
1.73983e-05
5.20008e-07
3.95243e-05
4.93693e-07
0.00266298
0.00238113
-1.26753e-10
1.65559e-06
0.00239762
-1.49821e-10
7.95212e-07
0.00242732
-1.82694e-10
1.56069e-06
0.00245856
-1.71843e-10
7.92768e-07
0.00249394
-1.73391e-10
1.43253e-06
0.00252877
-2.1127e-10
7.89262e-07
0.00256183
-2.66709e-10
1.31129e-06
0.00259146
-2.55733e-10
7.85316e-07
0.00261671
-1.97453e-10
1.20638e-06
0.00263844
-1.72688e-10
7.83e-07
0.00265624
-2.65347e-10
1.12539e-06
0.00267057
-4.44528e-10
7.89832e-07
0.00268061
-6.38024e-10
1.06672e-06
0.0026869
-7.99401e-10
7.95683e-07
0.00268969
-8.13479e-10
1.01374e-06
0.00269029
-7.45634e-10
7.92839e-07
0.00268949
-5.86635e-10
9.66208e-07
0.00268828
-4.48865e-10
7.88909e-07
0.00268689
-2.69685e-10
9.27854e-07
0.00268558
-1.2354e-10
7.84586e-07
0.00268422
-4.3619e-11
8.938e-07
0.00268285
-4.47298e-12
7.76173e-07
0.00268133
-1.3106e-11
8.60548e-07
0.00267975
-4.18366e-11
7.63474e-07
0.00267802
-6.61951e-11
8.27916e-07
0.00267623
-5.75264e-11
7.47729e-07
0.00267431
-6.06169e-11
7.96169e-07
0.00267233
-5.12072e-11
7.29757e-07
0.00267026
-4.93939e-11
7.65188e-07
0.00266815
-1.01178e-11
7.10008e-07
0.00266597
4.92566e-11
7.34746e-07
0.00266374
1.88951e-10
6.88768e-07
0.00266146
2.85055e-10
7.0464e-07
0.00265916
4.99803e-10
6.66268e-07
0.00265681
6.22061e-10
6.74691e-07
0.00265445
1.02838e-09
6.42691e-07
0.00265205
1.16741e-09
6.44764e-07
0.00264966
1.99804e-09
6.18197e-07
0.00264725
2.12281e-09
6.14741e-07
0.00264485
3.74979e-09
5.92922e-07
0.00264247
3.83389e-09
5.84517e-07
0.0026401
7.01762e-09
5.66972e-07
0.00263777
6.53302e-09
5.53999e-07
0.00263548
1.30703e-08
5.40435e-07
0.00263325
1.14776e-08
5.2309e-07
0.00263109
2.40171e-08
5.13365e-07
0.00262902
2.03759e-08
4.91664e-07
0.00262707
4.0314e-08
4.85727e-07
0.00262525
3.579e-08
4.59545e-07
0.00262374
6.95689e-08
4.57333e-07
0.00262239
5.56898e-08
4.26304e-07
0.00262178
1.16703e-07
4.27504e-07
0.00262149
8.46134e-08
3.90602e-07
0.00262278
1.90149e-07
3.94045e-07
0.00262483
1.43484e-07
3.49042e-07
0.00263047
3.03981e-07
3.53241e-07
0.00263756
2.47343e-07
2.91872e-07
0.00265356
4.70257e-07
2.98656e-07
0.00267014
4.33261e-07
1.96184e-07
7.02808e-07
2.24376e-07
0.00270866
0.00238113
-1.27421e-05
1.65559e-06
0.00239762
-1.64477e-05
7.95212e-07
0.00242732
-3.04866e-05
1.56069e-06
0.00245856
-3.13295e-05
7.92768e-07
0.00249394
-3.60697e-05
1.43253e-06
0.00252877
-3.48195e-05
7.89262e-07
0.00256183
-3.36827e-05
1.31129e-06
0.00259146
-2.99402e-05
7.85316e-07
0.00261671
-2.60828e-05
1.20638e-06
0.00263844
-2.19417e-05
7.83e-07
0.00265624
-1.80532e-05
1.12539e-06
0.00267057
-1.418e-05
7.89831e-07
0.00268061
-1.05617e-05
1.06672e-06
0.0026869
-7.23732e-06
7.95681e-07
0.00268969
-4.64166e-06
1.01374e-06
0.00269029
-2.61667e-06
7.9284e-07
0.00268949
-1.42183e-06
9.66212e-07
0.00268828
-6.28812e-07
7.8891e-07
0.00268689
-3.05929e-07
9.27857e-07
0.00268558
-4.29892e-08
7.84586e-07
0.00268422
2.4336e-08
8.93798e-07
0.00268285
1.67518e-07
7.76168e-07
0.00268133
1.98679e-07
8.60542e-07
0.00267975
2.95161e-07
7.63465e-07
0.00267802
3.07326e-07
8.27906e-07
0.00267623
3.74217e-07
7.47717e-07
0.00267431
3.7087e-07
7.96157e-07
0.00267233
4.13867e-07
7.29745e-07
0.00267026
4.01784e-07
7.65175e-07
0.00266815
4.29153e-07
7.09995e-07
0.00266596
4.14598e-07
7.34735e-07
0.00266374
4.32947e-07
6.88758e-07
0.00266146
4.18806e-07
7.04632e-07
0.00265916
4.31429e-07
6.6626e-07
0.00265681
4.19061e-07
6.74687e-07
0.00265444
4.28457e-07
6.42686e-07
0.00265205
4.1763e-07
6.44763e-07
0.00264965
4.24746e-07
6.18196e-07
0.00264725
4.14433e-07
6.14747e-07
0.00264485
4.20312e-07
5.92925e-07
0.00264246
4.08824e-07
5.84533e-07
0.00264009
4.13779e-07
5.6698e-07
0.00263776
3.9834e-07
5.54035e-07
0.00263547
4.00123e-07
5.40455e-07
0.00263324
3.78435e-07
5.23159e-07
0.00263108
3.65375e-07
5.13391e-07
0.00262901
3.36985e-07
4.91794e-07
0.00262708
2.77996e-07
4.85753e-07
0.00262526
2.44134e-07
4.59787e-07
0.00262375
4.17096e-08
4.5732e-07
0.00262239
-2.09807e-08
4.26718e-07
0.00262178
-6.15804e-07
4.27397e-07
0.00262146
-8.20138e-07
3.9131e-07
0.00262274
-2.21892e-06
3.9401e-07
0.00262475
-2.85777e-06
3.5015e-07
0.00263036
-6.18841e-06
3.53353e-07
0.00263738
-7.48756e-06
2.93698e-07
0.00265331
-1.60657e-05
2.99064e-07
0.00266981
-1.64415e-05
1.99181e-07
-3.79924e-05
2.25385e-07
0.0027082
0.00238678
-3.13584e-05
1.9045e-06
0.00240789
-3.77444e-05
1.02754e-06
0.00244215
-6.57722e-05
1.79889e-06
0.00247704
-6.65359e-05
1.01463e-06
0.00251444
-7.43836e-05
1.65721e-06
0.00255081
-7.14014e-05
1.00611e-06
0.00258467
-6.83596e-05
1.52842e-06
0.00261514
-6.09332e-05
9.99163e-07
0.00264102
-5.3013e-05
1.41928e-06
0.0026628
-4.41799e-05
9.94406e-07
0.00267952
-3.52466e-05
1.33624e-06
0.0026916
-2.63125e-05
1.00084e-06
0.00269881
-1.84582e-05
1.27752e-06
0.00270214
-1.16889e-05
1.00677e-06
0.00270206
-6.5914e-06
1.22301e-06
0.00270002
-2.81435e-06
1.00128e-06
0.00269695
-7.93147e-07
1.17303e-06
0.00269381
4.4936e-07
9.95106e-07
0.00269083
7.51711e-07
1.13314e-06
0.00268829
9.33378e-07
9.89388e-07
0.00268602
7.33939e-07
1.09834e-06
0.00268403
7.50504e-07
9.80415e-07
0.0026821
6.07907e-07
1.0647e-06
0.00268023
6.73967e-07
9.67384e-07
0.0026783
6.00961e-07
1.03186e-06
0.00267638
6.73019e-07
9.51459e-07
0.00267437
6.21697e-07
9.99971e-07
0.00267234
6.78652e-07
9.33404e-07
0.00267023
6.34594e-07
9.68907e-07
0.0026681
6.76188e-07
9.13615e-07
0.0026659
6.38644e-07
9.38416e-07
0.00266366
6.69712e-07
8.92354e-07
0.00266138
6.37552e-07
9.08278e-07
0.00265907
6.59672e-07
8.69841e-07
0.00265672
6.33584e-07
8.78305e-07
0.00265435
6.50628e-07
8.46254e-07
0.00265196
6.29227e-07
8.4836e-07
0.00264956
6.41348e-07
8.21753e-07
0.00264715
6.22854e-07
8.18325e-07
0.00264475
6.30808e-07
7.96475e-07
0.00264236
6.13705e-07
7.881e-07
0.00263999
6.15365e-07
7.70532e-07
0.00263764
5.9987e-07
7.57603e-07
0.00263535
5.82187e-07
7.4403e-07
0.00263308
5.80226e-07
7.26754e-07
0.00263093
4.9219e-07
7.17053e-07
0.00262876
5.45101e-07
6.95457e-07
0.00262687
2.62079e-07
6.89626e-07
0.00262487
4.36694e-07
6.63628e-07
0.00262346
-2.99132e-07
6.61454e-07
0.0026217
1.03477e-07
6.31222e-07
0.00262108
-1.55772e-06
6.31969e-07
0.00261968
-8.52609e-07
5.98576e-07
0.00262061
-4.48906e-06
6.00456e-07
0.00262011
-3.56488e-06
5.66726e-07
0.00262394
-1.11143e-05
5.65594e-07
0.00262583
-1.03333e-05
5.38014e-07
0.00263527
-2.634e-05
5.26942e-07
0.00264231
-2.41874e-05
5.17519e-07
-6.02688e-05
4.92622e-07
0.00266402
0.00238839
-5.11715e-05
1.45152e-06
0.00241023
-5.93092e-05
5.65536e-07
0.00244551
-0.000101627
1.34493e-06
0.00248278
-0.000103661
5.59477e-07
0.00252295
-0.00011502
1.20622e-06
0.00256206
-0.000110276
5.55106e-07
0.00259778
-0.000104446
1.07993e-06
0.00262929
-9.25021e-05
5.52348e-07
0.00265556
-7.98972e-05
9.75691e-07
0.00267712
-6.57924e-05
5.54547e-07
0.00269233
-5.05183e-05
9.00782e-07
0.00270063
-3.42202e-05
5.69022e-07
0.00270171
-1.97631e-05
8.49854e-07
0.00269811
-8.76151e-06
5.8109e-07
0.00269274
-2.84088e-06
8.02953e-07
0.00268808
2.532e-08
5.83733e-07
0.00268486
3.8927e-07
7.59684e-07
0.00268316
5.06059e-07
5.82991e-07
0.00268223
1.72029e-07
7.23166e-07
0.00268166
3.53901e-07
5.80109e-07
0.00268093
3.22205e-07
6.89752e-07
0.00268002
6.71209e-07
5.7198e-07
0.00267878
7.29444e-07
6.56557e-07
0.00267738
9.98142e-07
5.59444e-07
0.00267575
1.01311e-06
6.2398e-07
0.00267401
1.19332e-06
5.43765e-07
0.00267213
1.1636e-06
5.92268e-07
0.00267018
1.27657e-06
5.25829e-07
0.00266812
1.2282e-06
5.61305e-07
0.00266602
1.30133e-06
5.06098e-07
0.00266384
1.25185e-06
5.30872e-07
0.00266163
1.30235e-06
4.84868e-07
0.00265935
1.25694e-06
5.00767e-07
0.00265705
1.29226e-06
4.62373e-07
0.0026547
1.25428e-06
4.70819e-07
0.00265234
1.28062e-06
4.388e-07
0.00264995
1.24809e-06
4.40892e-07
0.00264756
1.26686e-06
4.14311e-07
0.00264516
1.23721e-06
4.10871e-07
0.00264276
1.251e-06
3.8904e-07
0.00264038
1.21957e-06
3.80648e-07
0.00263801
1.22855e-06
3.63093e-07
0.00263569
1.18795e-06
3.50128e-07
0.00263338
1.18589e-06
3.36565e-07
0.00263117
1.13235e-06
3.19222e-07
0.00262897
1.08816e-06
3.09515e-07
0.00262694
1.02721e-06
2.87811e-07
0.00262486
8.54541e-07
2.81937e-07
0.0026231
7.86753e-07
2.55723e-07
0.00262121
2.62623e-07
2.53834e-07
0.00261999
9.60916e-08
2.22463e-07
0.00261857
-1.28559e-06
2.24751e-07
0.00261872
-2.02043e-06
1.86151e-07
0.00261825
-4.94864e-06
1.91853e-07
0.00262168
-7.76826e-06
1.41357e-07
0.00262376
-1.38699e-05
1.48662e-07
0.00263477
-2.18278e-05
7.07972e-08
0.00264565
-3.76032e-05
7.98856e-08
0.00267018
-4.88219e-05
-8.14849e-08
-0.000102507
-4.13897e-08
0.00271239
0.00241823
-0.000101524
2.24031e-06
0.00246037
-0.000101872
1.26026e-06
0.00250734
-0.000149891
2.07303e-06
0.00255261
-0.000149461
1.23681e-06
0.00259324
-0.000156832
1.89583e-06
0.00263054
-0.000148019
1.22544e-06
0.00266142
-0.000136353
1.75098e-06
0.00268736
-0.000119111
1.21534e-06
0.00270729
-0.000101083
1.63481e-06
0.00272255
-8.17954e-05
1.20738e-06
0.00273175
-6.0521e-05
1.54736e-06
0.00273423
-3.69875e-05
1.21079e-06
0.00272939
-1.57192e-05
1.48656e-06
0.00271879
6.58015e-07
1.21633e-06
0.00270464
9.175e-06
1.43049e-06
0.00269042
1.18604e-05
1.20847e-06
0.00267826
9.90518e-06
1.38021e-06
0.00266909
7.40804e-06
1.2016e-06
0.00266251
4.62343e-06
1.33993e-06
0.00265793
3.16214e-06
1.19536e-06
0.00265451
1.96828e-06
1.30429e-06
0.00265187
1.69046e-06
1.18575e-06
0.00264955
1.31469e-06
1.27009e-06
0.00264744
1.40321e-06
1.17226e-06
0.00264537
1.24129e-06
1.23691e-06
0.00264336
1.35971e-06
1.15616e-06
0.0026413
1.24459e-06
1.20486e-06
0.00263926
1.33976e-06
1.13804e-06
0.00263716
1.24425e-06
1.17372e-06
0.00263504
1.31617e-06
1.11823e-06
0.00263286
1.23932e-06
1.14317e-06
0.00263065
1.29532e-06
1.09696e-06
0.0026284
1.23051e-06
1.11299e-06
0.00262612
1.27056e-06
1.07443e-06
0.00262381
1.21988e-06
1.08298e-06
0.00262148
1.25133e-06
1.05083e-06
0.00261912
1.21037e-06
1.05301e-06
0.00261676
1.23179e-06
1.02633e-06
0.00261438
1.19805e-06
1.02295e-06
0.00261202
1.21042e-06
1.00104e-06
0.00260965
1.18121e-06
9.9271e-07
0.00260732
1.18115e-06
9.75102e-07
0.00260499
1.15551e-06
9.62214e-07
0.00260272
1.12599e-06
9.48631e-07
0.00260045
1.12275e-06
9.31406e-07
0.0025983
9.92478e-07
9.21758e-07
0.00259608
1.07899e-06
9.00213e-07
0.00259414
6.78875e-07
8.94618e-07
0.00259194
9.51732e-07
8.6868e-07
0.00259031
-7.15161e-08
8.67117e-07
0.00258801
5.41909e-07
8.37063e-07
0.00258666
-1.7111e-06
8.39159e-07
0.00258387
-8.85894e-07
8.07062e-07
0.00258268
-5.31595e-06
8.10983e-07
0.00257885
-5.37727e-06
7.83656e-07
0.00257647
-1.28136e-05
7.82799e-07
0.00257167
-1.82447e-05
7.81521e-07
0.00256325
-3.02486e-05
7.55208e-07
0.00255693
-4.35422e-05
8.36191e-07
-8.20801e-05
7.44478e-07
0.00253567
0.00241672
-0.000149519
1.30638e-06
0.00244942
-0.000134066
3.20686e-07
0.0024738
-0.000174641
1.15429e-06
0.00248494
-0.000160186
3.16033e-07
0.00248168
-0.000153821
9.79095e-07
0.0024697
-0.0001356
3.05231e-07
0.00244957
-0.000116388
8.32264e-07
0.00242427
-9.35599e-05
2.99515e-07
0.00239348
-7.051e-05
7.27692e-07
0.00236128
-4.92781e-05
3.13599e-07
0.00233215
-3.13139e-05
6.68043e-07
0.00231179
-1.63499e-05
3.43761e-07
0.00230142
-5.76953e-06
6.32815e-07
0.00229996
1.4508e-06
3.71388e-07
0.00230341
4.46219e-06
6.03629e-07
0.00230865
5.46608e-06
3.89023e-07
0.00231286
4.43449e-06
5.68097e-07
0.00231577
3.56517e-06
3.90766e-07
0.00231702
2.43471e-06
5.3024e-07
0.00231734
2.09621e-06
3.8488e-07
0.0023168
1.6628e-06
4.93696e-07
0.00231597
1.74064e-06
3.74603e-07
0.00231477
1.58587e-06
4.5903e-07
0.00231353
1.73031e-06
3.6125e-07
0.00231208
1.63059e-06
4.25982e-07
0.00231064
1.748e-06
3.45371e-07
0.00230904
1.66022e-06
3.94111e-07
0.00230744
1.74678e-06
3.27386e-07
0.00230571
1.66829e-06
3.63061e-07
0.00230398
1.73147e-06
3.0763e-07
0.00230214
1.66539e-06
3.32561e-07
0.0023003
1.71355e-06
2.86375e-07
0.00229837
1.65734e-06
3.02392e-07
0.00229644
1.69245e-06
2.63853e-07
0.00229445
1.64685e-06
2.72393e-07
0.00229245
1.67385e-06
2.40257e-07
0.00229041
1.63508e-06
2.42421e-07
0.00228838
1.6534e-06
2.15752e-07
0.00228633
1.61909e-06
2.12365e-07
0.00228428
1.63071e-06
1.90465e-07
0.00228225
1.59797e-06
1.82109e-07
0.00228022
1.60412e-06
1.6451e-07
0.00227824
1.56761e-06
1.51569e-07
0.00227625
1.56577e-06
1.38002e-07
0.00227435
1.51941e-06
1.20664e-07
0.00227239
1.49774e-06
1.11059e-07
0.00227064
1.43423e-06
8.93073e-08
0.00226863
1.35845e-06
8.38099e-08
0.00226709
1.24123e-06
5.73434e-08
0.0022648
1.04405e-06
5.65829e-08
0.00226362
6.40951e-07
2.45705e-08
0.00226056
3.57293e-07
2.9548e-08
0.00226002
-1.21944e-06
-9.59873e-09
0.00225485
-9.19395e-07
2.09298e-09
0.00225613
-7.29064e-06
-4.67867e-08
0.00224613
-3.35149e-06
-3.19234e-08
0.00225291
-2.53919e-05
-9.56101e-08
0.00223431
-1.19074e-05
-9.43844e-08
0.00225986
-6.91017e-05
-2.178e-07
-0.000107597
-2.60169e-07
0.00228552
0.00221776
2.93809e-06
0.00208296
1.55292e-06
0.00190658
2.52685e-06
0.00174554
1.61856e-06
0.00159015
2.30157e-06
0.00145363
1.6117e-06
0.0013358
2.13508e-06
0.00124133
1.59215e-06
0.0011694
2.00978e-06
0.00111901
1.58516e-06
0.0010861
1.92834e-06
0.00106837
1.59218e-06
0.00106085
1.86796e-06
0.00106076
1.59571e-06
0.00106342
1.81678e-06
0.00106728
1.59724e-06
0.00106989
1.77377e-06
0.00107177
1.59503e-06
0.00107231
1.73385e-06
0.00107258
1.58743e-06
0.00107224
1.6961e-06
0.00107201
1.57619e-06
0.00107145
1.66071e-06
0.00107106
1.56228e-06
0.00107042
1.62724e-06
0.00106989
1.54614e-06
0.00106915
1.59512e-06
0.00106849
1.52804e-06
0.00106763
1.56392e-06
0.00106683
1.50822e-06
0.00106587
1.53332e-06
0.00106494
1.48692e-06
0.00106388
1.50308e-06
0.00106284
1.46437e-06
0.0010617
1.47301e-06
0.00106057
1.44074e-06
0.00105938
1.44298e-06
0.00105819
1.4162e-06
0.00105696
1.41287e-06
0.00105575
1.39089e-06
0.0010545
1.38257e-06
0.00105328
1.36491e-06
0.00105205
1.35202e-06
0.00105085
1.33841e-06
0.00104964
1.32115e-06
0.00104846
1.31152e-06
0.00104727
1.2899e-06
0.00104607
1.28445e-06
0.00104484
1.25827e-06
0.00104348
1.25749e-06
0.00104181
1.22647e-06
0.00103995
1.23099e-06
0.00103663
1.19545e-06
0.0010337
1.20534e-06
0.00102453
1.16975e-06
0.0010194
1.17883e-06
0.000992342
1.16853e-06
0.000978915
1.14142e-06
0.000908294
1.25875e-06
1.07389e-06
0.000799466
0.00237417
-3.4544e-06
1.93142e-06
0.00231197
6.20411e-05
2.52412e-06
0.00224118
7.21299e-05
1.93368e-06
0.00215568
8.54861e-05
2.36403e-06
0.00206895
8.78293e-05
1.94654e-06
0.00198152
8.74128e-05
2.27202e-06
0.00189831
8.39226e-05
1.95307e-06
0.001819
7.92639e-05
2.20418e-06
0.00174636
7.33797e-05
1.94955e-06
0.00168413
6.22909e-05
2.13629e-06
0.00163873
4.57421e-05
1.93438e-06
0.00161102
2.72355e-05
2.09203e-06
0.00159919
1.15811e-05
1.9497e-06
0.00159623
2.2269e-06
2.08512e-06
0.001598
-2.13966e-06
1.97455e-06
0.00160001
-2.64113e-06
2.07579e-06
0.00160173
-2.05486e-06
1.98266e-06
0.00160197
-8.35559e-07
2.05755e-06
0.00160184
-3.06622e-07
1.98254e-06
0.00160095
1.9166e-07
2.04066e-06
0.00160012
2.14395e-07
1.98182e-06
0.00159887
3.85093e-07
2.02704e-06
0.00159777
2.89663e-07
1.98083e-06
0.00159635
3.83494e-07
2.01556e-06
0.00159504
2.93603e-07
1.97918e-06
0.00159348
3.62798e-07
2.00551e-06
0.00159199
2.88022e-07
1.97691e-06
0.00159028
3.44145e-07
1.99659e-06
0.00158862
2.83108e-07
1.97424e-06
0.00158678
3.19386e-07
1.98862e-06
0.00158497
2.62673e-07
1.97132e-06
0.00158301
2.93702e-07
1.98147e-06
0.00158106
2.54413e-07
1.96829e-06
0.001579
2.75743e-07
1.97501e-06
0.00157694
2.38897e-07
1.96525e-06
0.00157478
2.57473e-07
1.96914e-06
0.00157263
2.32079e-07
1.96227e-06
0.00157041
2.4199e-07
1.96377e-06
0.0015682
2.14924e-07
1.95944e-06
0.00156595
2.11262e-07
1.95885e-06
0.00156372
1.89401e-07
1.95682e-06
0.00156148
1.80297e-07
1.95431e-06
0.00155924
1.80457e-07
1.95445e-06
0.00155703
1.58725e-07
1.95009e-06
0.0015548
1.83683e-07
1.95238e-06
0.00155264
1.39411e-07
1.9461e-06
0.00155047
1.72069e-07
1.95069e-06
0.00154834
1.87919e-07
1.94226e-06
0.00154636
6.45287e-08
1.94943e-06
0.00154402
5.04025e-07
1.93842e-06
0.00154259
-3.7705e-07
1.94858e-06
0.0015394
1.48274e-06
1.93435e-06
0.0015397
-1.96854e-06
1.94776e-06
0.0015338
4.36161e-06
1.92954e-06
0.00153958
-7.26876e-06
1.94444e-06
0.00152673
1.1492e-05
1.92368e-06
0.00154717
-2.16922e-05
1.92687e-06
0.00152997
1.60304e-05
1.91639e-06
0.00158122
-5.20991e-05
1.85023e-06
-6.10013e-05
1.88111e-06
0.00164125
0.00236852
-3.50216e-06
2.63464e-06
0.00238693
4.16762e-05
3.10589e-06
0.00240822
5.01038e-05
2.625e-06
0.0024262
6.55026e-05
3.0105e-06
0.00244216
7.09456e-05
2.63522e-06
0.00245255
7.51331e-05
2.93381e-06
0.00245994
7.53102e-05
2.63779e-06
0.00246343
7.36005e-05
2.86717e-06
0.00246591
6.94007e-05
2.62908e-06
0.00246601
6.03089e-05
2.80067e-06
0.00246409
4.64824e-05
2.6104e-06
0.00245859
3.09479e-05
2.7491e-06
0.00245086
1.7456e-05
2.60768e-06
0.00244171
8.56681e-06
2.72278e-06
0.00243322
3.48135e-06
2.61381e-06
0.00242582
1.50705e-06
2.7037e-06
0.00242039
5.50348e-07
2.61688e-06
0.00241626
4.40833e-07
2.68616e-06
0.00241337
1.12613e-07
2.6171e-06
0.00241088
9.68673e-08
2.67054e-06
0.00240885
-1.66603e-07
2.61606e-06
0.00240679
-1.71029e-07
2.65716e-06
0.00240488
-3.59053e-07
2.61413e-06
0.00240283
-3.31003e-07
2.64545e-06
0.00240082
-4.53782e-07
2.61147e-06
0.00239866
-4.12486e-07
2.63505e-06
0.00239651
-4.97991e-07
2.60827e-06
0.00239421
-4.55216e-07
2.62572e-06
0.00239189
-5.19192e-07
2.60472e-06
0.00238944
-4.87378e-07
2.61731e-06
0.00238697
-5.41192e-07
2.60097e-06
0.00238437
-5.13825e-07
2.60966e-06
0.00238175
-5.53188e-07
2.59713e-06
0.00237904
-5.3349e-07
2.60266e-06
0.00237629
-5.66227e-07
2.59328e-06
0.00237346
-5.50703e-07
2.59622e-06
0.00237062
-5.75375e-07
2.58952e-06
0.00236771
-5.70115e-07
2.59025e-06
0.00236479
-5.91544e-07
2.58589e-06
0.00236183
-6.00307e-07
2.58469e-06
0.00235885
-6.07727e-07
2.58248e-06
0.00235587
-6.30799e-07
2.5795e-06
0.00235285
-6.03007e-07
2.57932e-06
0.00234988
-6.61277e-07
2.57462e-06
0.00234686
-5.73536e-07
2.57647e-06
0.00234395
-7.0085e-07
2.56997e-06
0.00234091
-5.21632e-07
2.57399e-06
0.00233812
-7.01153e-07
2.56549e-06
0.00233501
-4.761e-07
2.57198e-06
0.00233245
-5.1413e-07
2.56111e-06
0.00232907
-5.37622e-07
2.57052e-06
0.00232688
2.25511e-07
2.5568e-06
0.0023225
-9.91507e-07
2.56985e-06
0.00232089
2.68587e-06
2.55304e-06
0.00231293
-2.56143e-06
2.57107e-06
0.0023121
9.21296e-06
2.55282e-06
0.00229313
-5.80971e-06
2.579e-06
0.00228416
2.20242e-05
2.56532e-06
0.00223394
-4.91016e-06
2.63422e-06
4.2549e-05
2.61642e-06
0.00212743
0.00236621
1.45685e-07
2.1055e-06
0.00237992
2.74562e-05
2.59094e-06
0.00239759
3.31533e-05
2.0946e-06
0.00241653
4.59903e-05
2.49739e-06
0.00243794
5.00617e-05
2.10645e-06
0.00245812
5.45128e-05
2.42022e-06
0.0024785
5.51632e-05
2.11202e-06
0.00249677
5.45547e-05
2.3544e-06
0.00251419
5.18443e-05
2.10831e-06
0.0025278
4.6194e-05
2.29434e-06
0.00253678
3.7781e-05
2.10161e-06
0.00253923
2.81854e-05
2.25215e-06
0.00253695
1.93185e-05
2.10616e-06
0.00253157
1.24636e-05