/*--------------------------------*- C++ -*----------------------------------*\
  =========                 |
  \\      /  F ield         | OpenFOAM: The Open Source CFD Toolbox
   \\    /   O peration     | Website:  https://openfoam.org
    \\  /    A nd           | Version:  7
     \\/     M anipulation  |
\*---------------------------------------------------------------------------*/
FoamFile
{
    version     2.0;
    format      ascii;
    class       volVectorField;
    location    "0.04";
    object      UMean;
}
// * * * * * * * * * * * * * * * * * * * * * * * * * * * * * * * * * * * * * //

dimensions      [0 1 -1 0 0 0 0];

internalField   nonuniform List<vector> 
1440
(
(24.6189 0.0666989 0)
(24.4413 0.257877 0)
(24.0662 0.435881 0)
(23.5086 0.578637 0)
(22.8177 0.681257 0)
(22.0407 0.742694 0)
(21.2145 0.766308 0)
(20.3648 0.758097 0)
(19.5137 0.726106 0)
(18.6759 0.676618 0)
(17.8682 0.616378 0)
(17.0964 0.551326 0)
(16.3678 0.483776 0)
(15.6872 0.416849 0)
(15.0559 0.353032 0)
(14.4742 0.29378 0)
(13.9412 0.239916 0)
(13.4555 0.191806 0)
(13.015 0.149487 0)
(12.6173 0.112775 0)
(12.2596 0.0813373 0)
(11.9389 0.0547508 0)
(11.6521 0.0325555 0)
(11.3965 0.0142754 0)
(11.1689 -0.000556652 0)
(10.9666 -0.0123882 0)
(10.787 -0.021642 0)
(10.6277 -0.0287062 0)
(10.4862 -0.0339297 0)
(10.3606 -0.0376158 0)
(10.249 -0.0400254 0)
(10.1496 -0.041388 0)
(10.0609 -0.0419341 0)
(9.98146 -0.0418902 0)
(9.91013 -0.0414217 0)
(9.84579 -0.0406307 0)
(9.78748 -0.0395861 0)
(9.73439 -0.0383434 0)
(9.6858 -0.0369492 0)
(9.64111 -0.0354409 0)
(9.59979 -0.0338489 0)
(9.56138 -0.0321987 0)
(9.52549 -0.030512 0)
(9.49178 -0.0288079 0)
(9.45998 -0.0271037 0)
(9.42983 -0.0254141 0)
(9.40112 -0.0237508 0)
(9.37366 -0.0221238 0)
(9.3473 -0.0205401 0)
(9.3219 -0.0190045 0)
(9.29735 -0.0175196 0)
(9.27354 -0.0160881 0)
(9.25039 -0.0147174 0)
(9.22781 -0.0134127 0)
(9.20574 -0.0121745 0)
(9.18412 -0.0110017 0)
(9.16289 -0.00989188 0)
(9.14202 -0.00884382 0)
(9.12147 -0.00785656 0)
(9.1012 -0.00692725 0)
(9.0812 -0.0060532 0)
(9.06144 -0.00523055 0)
(9.0419 -0.0044566 0)
(9.02258 -0.00373014 0)
(9.00345 -0.00304938 0)
(8.98453 -0.00241261 0)
(8.96578 -0.00181797 0)
(8.94723 -0.00126392 0)
(8.92885 -0.000749395 0)
(8.91065 -0.000272438 0)
(8.89264 0.000169171 0)
(8.8748 0.000576594 0)
(8.85714 0.000951611 0)
(8.83966 0.00129681 0)
(8.82236 0.00161461 0)
(8.80524 0.00190713 0)
(8.78831 0.00217685 0)
(8.77155 0.00242629 0)
(8.75498 0.0026575 0)
(8.73859 0.00287136 0)
(8.72238 0.00306869 0)
(8.70636 0.00324979 0)
(8.69052 0.0034154 0)
(8.67487 0.00356547 0)
(8.65941 0.00370045 0)
(8.64414 0.00382092 0)
(8.62905 0.0039283 0)
(8.61416 0.00402448 0)
(8.59946 0.00411103 0)
(8.58495 0.00418898 0)
(8.57064 0.00425957 0)
(8.55651 0.00432422 0)
(8.54258 0.00438424 0)
(8.52884 0.00444016 0)
(8.51528 0.00449289 0)
(8.5019 0.00454212 0)
(8.48871 0.00458885 0)
(8.47569 0.00463244 0)
(8.46284 0.00467323 0)
(8.45017 0.00471039 0)
(8.43765 0.00474448 0)
(8.42531 0.00477512 0)
(8.41312 0.00480289 0)
(8.40109 0.00482738 0)
(8.38921 0.00484856 0)
(8.37749 0.00486735 0)
(8.36591 0.00488213 0)
(8.35448 0.00489641 0)
(8.3432 0.00490221 0)
(8.33202 0.00491437 0)
(8.32106 0.00490473 0)
(8.3101 0.00492324 0)
(8.29951 0.00487956 0)
(8.28864 0.00492777 0)
(8.27862 0.00480074 0)
(8.26754 0.00495466 0)
(8.25856 0.0046221 0)
(8.24647 0.00510947 0)
(8.23993 0.00420356 0)
(8.22308 0.00543369 0)
(24.6605 0.0952328 0)
(24.7567 0.265951 0)
(24.9066 0.415585 0)
(25.0793 0.547841 0)
(25.258 0.662695 0)
(25.4305 0.757223 0)
(25.5851 0.829679 0)
(25.7114 0.880607 0)
(25.8031 0.912262 0)
(25.8575 0.927173 0)
(25.8763 0.927783 0)
(25.8621 0.916501 0)
(25.8193 0.895393 0)
(25.7521 0.866394 0)
(25.6646 0.831397 0)
(25.5605 0.79211 0)
(25.4435 0.749979 0)
(25.3166 0.706195 0)
(25.1827 0.66175 0)
(25.044 0.617473 0)
(24.9026 0.57403 0)
(24.7601 0.531975 0)
(24.6176 0.491723 0)
(24.4763 0.453565 0)
(24.337 0.417707 0)
(24.2002 0.38426 0)
(24.0663 0.35326 0)
(23.9356 0.324685 0)
(23.8084 0.298472 0)
(23.6846 0.274525 0)
(23.5644 0.252727 0)
(23.4477 0.232946 0)
(23.3345 0.215033 0)
(23.2246 0.198832 0)
(23.118 0.184192 0)
(23.0145 0.170975 0)
(22.9141 0.15905 0)
(22.8167 0.148294 0)
(22.7222 0.138587 0)
(22.6304 0.129821 0)
(22.5412 0.121893 0)
(22.4546 0.114714 0)
(22.3705 0.1082 0)
(22.2887 0.10228 0)
(22.2093 0.09689 0)
(22.1321 0.0919731 0)
(22.0571 0.0874793 0)
(21.9842 0.0833643 0)
(21.9134 0.0795895 0)
(21.8445 0.0761212 0)
(21.7776 0.07293 0)
(21.7125 0.0699893 0)
(21.6493 0.0672745 0)
(21.5879 0.0647639 0)
(21.5281 0.0624388 0)
(21.4701 0.0602827 0)
(21.4136 0.0582801 0)
(21.3588 0.0564171 0)
(21.3054 0.0546807 0)
(21.2536 0.0530592 0)
(21.2031 0.0515415 0)
(21.1541 0.050118 0)
(21.1063 0.04878 0)
(21.0599 0.0475195 0)
(21.0147 0.0463291 0)
(20.9707 0.0452022 0)
(20.9279 0.0441331 0)
(20.8862 0.0431168 0)
(20.8456 0.0421493 0)
(20.806 0.0412263 0)
(20.7675 0.040344 0)
(20.7299 0.039499 0)
(20.6932 0.0386886 0)
(20.6575 0.0379106 0)
(20.6227 0.0371625 0)
(20.5887 0.0364423 0)
(20.5555 0.0357485 0)
(20.5232 0.03508 0)
(20.4916 0.0344357 0)
(20.4607 0.0338139 0)
(20.4306 0.0332134 0)
(20.4012 0.0326328 0)
(20.3724 0.032071 0)
(20.3443 0.0315263 0)
(20.3169 0.030997 0)
(20.2901 0.0304816 0)
(20.2638 0.0299793 0)
(20.2382 0.0294888 0)
(20.2131 0.0290091 0)
(20.1886 0.0285393 0)
(20.1646 0.0280793 0)
(20.1412 0.0276292 0)
(20.1183 0.0271892 0)
(20.0959 0.0267591 0)
(20.074 0.0263395 0)
(20.0525 0.0259304 0)
(20.0316 0.0255326 0)
(20.0111 0.025145 0)
(19.991 0.0247685 0)
(19.9714 0.024402 0)
(19.9522 0.0240469 0)
(19.9334 0.0237018 0)
(19.9151 0.0233678 0)
(19.8971 0.023043 0)
(19.8795 0.0227291 0)
(19.8623 0.0224244 0)
(19.8455 0.0221297 0)
(19.829 0.0218445 0)
(19.8128 0.0215654 0)
(19.797 0.0213003 0)
(19.7816 0.0210302 0)
(19.7662 0.0207873 0)
(19.7516 0.0205085 0)
(19.7367 0.0202921 0)
(19.7231 0.0199678 0)
(19.7081 0.0197827 0)
(19.6961 0.0193445 0)
(19.6801 0.0191834 0)
(19.6716 0.0186134 0)
(19.6508 0.0185694 0)
(24.6576 0.0621994 0)
(24.7161 0.181032 0)
(24.8111 0.289582 0)
(24.9302 0.386326 0)
(25.0728 0.470852 0)
(25.24 0.542228 0)
(25.4296 0.599503 0)
(25.6357 0.64252 0)
(25.8511 0.672042 0)
(26.0689 0.689311 0)
(26.2839 0.69569 0)
(26.4923 0.692645 0)
(26.6914 0.681531 0)
(26.8791 0.663663 0)
(27.054 0.640411 0)
(27.2153 0.613129 0)
(27.3626 0.583048 0)
(27.496 0.551244 0)
(27.616 0.518637 0)
(27.7231 0.486002 0)
(27.8181 0.45397 0)
(27.9019 0.423039 0)
(27.9754 0.39358 0)
(28.0394 0.365858 0)
(28.0949 0.34004 0)
(28.1426 0.316208 0)
(28.1833 0.294383 0)
(28.2178 0.27453 0)
(28.2468 0.256578 0)
(28.2708 0.240425 0)
(28.2904 0.22595 0)
(28.3062 0.213021 0)
(28.3185 0.201508 0)
(28.3277 0.19129 0)
(28.3342 0.182239 0)
(28.3384 0.174223 0)
(28.3404 0.167116 0)
(28.3405 0.160795 0)
(28.3389 0.155151 0)
(28.3358 0.150088 0)
(28.3313 0.145519 0)
(28.3256 0.141371 0)
(28.3188 0.13758 0)
(28.3109 0.134095 0)
(28.3021 0.130871 0)
(28.2924 0.127871 0)
(28.282 0.125063 0)
(28.2708 0.12242 0)
(28.259 0.119919 0)
(28.2466 0.11754 0)
(28.2337 0.115266 0)
(28.2202 0.113081 0)
(28.2063 0.110975 0)
(28.192 0.108939 0)
(28.1774 0.106968 0)
(28.1623 0.105054 0)
(28.147 0.103193 0)
(28.1314 0.10138 0)
(28.1155 0.0996132 0)
(28.0995 0.0978882 0)
(28.0832 0.0962025 0)
(28.0668 0.0945532 0)
(28.0502 0.0929383 0)
(28.0334 0.0913561 0)
(28.0166 0.0898049 0)
(27.9996 0.0882828 0)
(27.9826 0.0867885 0)
(27.9655 0.085321 0)
(27.9484 0.0838792 0)
(27.9312 0.0824618 0)
(27.914 0.0810678 0)
(27.8968 0.0796965 0)
(27.8796 0.078348 0)
(27.8624 0.0770218 0)
(27.8452 0.0757179 0)
(27.828 0.0744357 0)
(27.8109 0.0731757 0)
(27.7938 0.0719379 0)
(27.7768 0.0707223 0)
(27.7599 0.0695283 0)
(27.743 0.0683556 0)
(27.7262 0.0672034 0)
(27.7095 0.0660711 0)
(27.6928 0.0649571 0)
(27.6763 0.0638605 0)
(27.6598 0.0627798 0)
(27.6435 0.061715 0)
(27.6273 0.0606648 0)
(27.6112 0.0596293 0)
(27.5952 0.0586079 0)
(27.5793 0.0576019 0)
(27.5636 0.0566109 0)
(27.5479 0.0556364 0)
(27.5325 0.0546774 0)
(27.5171 0.0537357 0)
(27.5019 0.0528104 0)
(27.4869 0.0519031 0)
(27.4719 0.0510115 0)
(27.4572 0.0501383 0)
(27.4426 0.0492803 0)
(27.4281 0.0484416 0)
(27.4139 0.0476164 0)
(27.3997 0.0468111 0)
(27.3858 0.0460163 0)
(27.372 0.0452445 0)
(27.3584 0.0444785 0)
(27.3449 0.0437414 0)
(27.3316 0.0429996 0)
(27.3185 0.0422997 0)
(27.3056 0.0415743 0)
(27.2929 0.0409183 0)
(27.2802 0.0401909 0)
(27.268 0.0395907 0)
(27.2556 0.038821 0)
(27.2439 0.0383039 0)
(27.2315 0.0374012 0)
(27.221 0.0370247 0)
(27.2077 0.0357983 0)
(27.2 0.0357113 0)
(27.1825 0.0337638 0)
(24.6574 0.0419548 0)
(24.711 0.123602 0)
(24.797 0.199703 0)
(24.9034 0.267841 0)
(25.03 0.326924 0)
(25.1781 0.376415 0)
(25.3461 0.415919 0)
(25.53 0.445366 0)
(25.7245 0.465223 0)
(25.925 0.476433 0)
(26.1278 0.48017 0)
(26.3301 0.477651 0)
(26.5298 0.470001 0)
(26.725 0.458242 0)
(26.9144 0.443332 0)
(27.0967 0.426158 0)
(27.2709 0.407499 0)
(27.4365 0.388006 0)
(27.5932 0.368208 0)
(27.7407 0.348524 0)
(27.8793 0.329281 0)
(28.009 0.310719 0)
(28.1301 0.293013 0)
(28.2432 0.276272 0)
(28.3486 0.260559 0)
(28.4469 0.2459 0)
(28.5386 0.232301 0)
(28.6241 0.219748 0)
(28.7041 0.20821 0)
(28.7789 0.197644 0)
(28.8492 0.187996 0)
(28.9152 0.17921 0)
(28.9775 0.171229 0)
(29.0364 0.163995 0)
(29.0923 0.157445 0)
(29.1454 0.151513 0)
(29.196 0.146132 0)
(29.2445 0.141242 0)
(29.2909 0.136787 0)
(29.3355 0.132715 0)
(29.3784 0.128981 0)
(29.4198 0.125546 0)
(29.4598 0.122374 0)
(29.4985 0.119433 0)
(29.536 0.116697 0)
(29.5724 0.114142 0)
(29.6076 0.111746 0)
(29.6419 0.109492 0)
(29.6753 0.107363 0)
(29.7077 0.105346 0)
(29.7393 0.103429 0)
(29.77 0.101602 0)
(29.8 0.0998563 0)
(29.8292 0.0981862 0)
(29.8577 0.0965858 0)
(29.8855 0.0950496 0)
(29.9126 0.0935734 0)
(29.9391 0.0921527 0)
(29.9649 0.0907841 0)
(29.9902 0.0894635 0)
(30.0148 0.0881883 0)
(30.0388 0.0869549 0)
(30.0623 0.0857609 0)
(30.0853 0.0846033 0)
(30.1077 0.0834799 0)
(30.1296 0.082388 0)
(30.1509 0.0813261 0)
(30.1718 0.0802914 0)
(30.1922 0.0792822 0)
(30.2121 0.0782964 0)
(30.2315 0.0773328 0)
(30.2505 0.0763899 0)
(30.269 0.0754668 0)
(30.2871 0.0745619 0)
(30.3048 0.0736749 0)
(30.322 0.0728044 0)
(30.3388 0.0719505 0)
(30.3552 0.0711115 0)
(30.3712 0.0702874 0)
(30.3868 0.0694768 0)
(30.4021 0.0686796 0)
(30.4169 0.0678938 0)
(30.4314 0.0671191 0)
(30.4456 0.0663534 0)
(30.4594 0.065597 0)
(30.4728 0.0648477 0)
(30.4859 0.0641058 0)
(30.4987 0.0633697 0)
(30.5111 0.0626402 0)
(30.5233 0.0619162 0)
(30.5351 0.0611993 0)
(30.5466 0.060488 0)
(30.5578 0.0597842 0)
(30.5687 0.0590865 0)
(30.5794 0.0583967 0)
(30.5897 0.0577131 0)
(30.5998 0.0570379 0)
(30.6096 0.0563689 0)
(30.6191 0.055709 0)
(30.6284 0.0550544 0)
(30.6374 0.0544095 0)
(30.6462 0.053768 0)
(30.6547 0.0531383 0)
(30.663 0.0525081 0)
(30.671 0.0518945 0)
(30.6789 0.0512726 0)
(30.6865 0.0506777 0)
(30.6939 0.0500583 0)
(30.701 0.0494886 0)
(30.7081 0.0488581 0)
(30.7147 0.0483261 0)
(30.7216 0.0476572 0)
(30.7275 0.0471908 0)
(30.7344 0.0464267 0)
(30.7395 0.0460812 0)
(30.7467 0.0451083 0)
(30.7503 0.0449929 0)
(30.7587 0.0435927 0)
(30.7596 0.0438491 0)
(30.7702 0.0414693 0)
(24.6573 0.0244896 0)
(24.7084 0.0723518 0)
(24.7895 0.117366 0)
(24.8893 0.157903 0)
(25.0086 0.193058 0)
(25.1488 0.222513 0)
(25.3087 0.246146 0)
(25.4842 0.263954 0)
(25.6705 0.276188 0)
(25.8632 0.283385 0)
(26.0588 0.286245 0)
(26.2544 0.285482 0)
(26.448 0.281748 0)
(26.6377 0.27561 0)
(26.8222 0.267576 0)
(27.0003 0.258101 0)
(27.171 0.247585 0)
(27.3339 0.236365 0)
(27.4885 0.224726 0)
(27.6347 0.212908 0)
(27.7725 0.201116 0)
(27.9021 0.189522 0)
(28.0239 0.178262 0)
(28.1381 0.167439 0)
(28.2451 0.157126 0)
(28.3455 0.147378 0)
(28.4396 0.138233 0)
(28.5281 0.129716 0)
(28.6113 0.121842 0)
(28.6898 0.114612 0)
(28.7639 0.108018 0)
(28.8341 0.102036 0)
(28.9008 0.0966359 0)
(28.9644 0.0917796 0)
(29.0251 0.0874236 0)
(29.0832 0.0835218 0)
(29.1391 0.0800283 0)
(29.1929 0.076899 0)
(29.245 0.0740926 0)
(29.2953 0.071571 0)
(29.3442 0.0692994 0)
(29.3917 0.0672467 0)
(29.438 0.065385 0)
(29.4831 0.0636901 0)
(29.5272 0.0621408 0)
(29.5704 0.060719 0)
(29.6126 0.059409 0)
(29.654 0.0581973 0)
(29.6946 0.0570719 0)
(29.7345 0.0560227 0)
(29.7737 0.0550413 0)
(29.8123 0.0541204 0)
(29.8502 0.0532543 0)
(29.8875 0.0524375 0)
(29.9243 0.0516653 0)
(29.9605 0.0509332 0)
(29.9962 0.0502373 0)
(30.0314 0.0495743 0)
(30.0661 0.0489411 0)
(30.1003 0.0483348 0)
(30.134 0.047753 0)
(30.1674 0.0471936 0)
(30.2002 0.0466543 0)
(30.2327 0.0461333 0)
(30.2648 0.0456289 0)
(30.2964 0.0451397 0)
(30.3277 0.0446643 0)
(30.3585 0.0442012 0)
(30.389 0.0437492 0)
(30.4191 0.043307 0)
(30.4489 0.0428739 0)
(30.4782 0.0424493 0)
(30.5073 0.042032 0)
(30.536 0.0416217 0)
(30.5643 0.0412176 0)
(30.5923 0.0408197 0)
(30.6199 0.0404275 0)
(30.6473 0.0400405 0)
(30.6743 0.0396583 0)
(30.701 0.0392806 0)
(30.7273 0.0389071 0)
(30.7534 0.0385373 0)
(30.7792 0.0381705 0)
(30.8046 0.037806 0)
(30.8298 0.0374437 0)
(30.8546 0.037083 0)
(30.8792 0.0367236 0)
(30.9035 0.0363652 0)
(30.9275 0.0360079 0)
(30.9512 0.0356518 0)
(30.9746 0.0352974 0)
(30.9978 0.0349446 0)
(31.0206 0.034594 0)
(31.0432 0.0342457 0)
(31.0656 0.0339005 0)
(31.0877 0.0335582 0)
(31.1095 0.0332197 0)
(31.131 0.0328844 0)
(31.1523 0.0325536 0)
(31.1734 0.0322256 0)
(31.1942 0.0319027 0)
(31.2147 0.0315815 0)
(31.235 0.0312669 0)
(31.255 0.0309516 0)
(31.2748 0.0306458 0)
(31.2944 0.0303338 0)
(31.3137 0.0300381 0)
(31.3329 0.0297252 0)
(31.3516 0.0294433 0)
(31.3704 0.0291202 0)
(31.3885 0.0288598 0)
(31.4072 0.0285081 0)
(31.4243 0.0282859 0)
(31.4433 0.0278694 0)
(31.4588 0.0277195 0)
(31.479 0.0271669 0)
(31.4915 0.0271513 0)
(31.515 0.0263069 0)
(31.5212 0.0264683 0)
(31.5514 0.0249364 0)
(24.6572 0.00806665 0)
(24.7072 0.0238423 0)
(24.786 0.0387183 0)
(24.8826 0.0521526 0)
(24.9982 0.0638128 0)
(25.1346 0.0735889 0)
(25.2906 0.0814614 0)
(25.4623 0.0874443 0)
(25.6451 0.0916176 0)
(25.8347 0.0941494 0)
(26.0275 0.0952614 0)
(26.2208 0.0951797 0)
(26.4123 0.0941045 0)
(26.6003 0.0922089 0)
(26.7834 0.0896465 0)
(26.9603 0.08656 0)
(27.13 0.0830781 0)
(27.292 0.0793156 0)
(27.446 0.0753712 0)
(27.5917 0.0713349 0)
(27.7292 0.0672854 0)
(27.8586 0.0632925 0)
(27.9802 0.0594138 0)
(28.0943 0.0556978 0)
(28.2014 0.0521814 0)
(28.3019 0.0488917 0)
(28.3962 0.0458467 0)
(28.4848 0.0430567 0)
(28.5682 0.0405282 0)
(28.6469 0.0382637 0)
(28.7213 0.0362586 0)
(28.7917 0.0345023 0)
(28.8586 0.032978 0)
(28.9223 0.0316655 0)
(28.9831 0.0305423 0)
(29.0414 0.0295851 0)
(29.0974 0.0287707 0)
(29.1513 0.0280769 0)
(29.2033 0.0274834 0)
(29.2537 0.0269718 0)
(29.3026 0.0265259 0)
(29.3501 0.0261322 0)
(29.3964 0.0257794 0)
(29.4416 0.0254589 0)
(29.4857 0.0251633 0)
(29.5289 0.0248872 0)
(29.5712 0.024626 0)
(29.6127 0.0243761 0)
(29.6534 0.0241346 0)
(29.6934 0.0238995 0)
(29.7327 0.0236695 0)
(29.7714 0.0234438 0)
(29.8094 0.0232214 0)
(29.8469 0.023002 0)
(29.8839 0.0227852 0)
(29.9203 0.0225707 0)
(29.9562 0.0223583 0)
(29.9916 0.0221479 0)
(30.0266 0.0219396 0)
(30.0611 0.0217336 0)
(30.0952 0.0215298 0)
(30.1289 0.0213285 0)
(30.1621 0.0211295 0)
(30.195 0.020933 0)
(30.2274 0.0207389 0)
(30.2595 0.0205474 0)
(30.2912 0.0203583 0)
(30.3226 0.0201715 0)
(30.3536 0.0199868 0)
(30.3842 0.0198043 0)
(30.4145 0.0196236 0)
(30.4445 0.0194445 0)
(30.4741 0.0192668 0)
(30.5034 0.0190904 0)
(30.5324 0.0189152 0)
(30.561 0.0187413 0)
(30.5894 0.0185685 0)
(30.6174 0.0183966 0)
(30.6452 0.0182255 0)
(30.6727 0.0180554 0)
(30.6998 0.0178858 0)
(30.7267 0.0177166 0)
(30.7533 0.0175477 0)
(30.7796 0.0173787 0)
(30.8057 0.0172095 0)
(30.8315 0.0170398 0)
(30.857 0.0168694 0)
(30.8822 0.0166985 0)
(30.9072 0.0165272 0)
(30.932 0.0163558 0)
(30.9565 0.0161845 0)
(30.9807 0.0160136 0)
(31.0047 0.0158436 0)
(31.0284 0.015675 0)
(31.0519 0.0155082 0)
(31.0752 0.0153434 0)
(31.0982 0.0151809 0)
(31.121 0.0150209 0)
(31.1435 0.0148636 0)
(31.1658 0.0147088 0)
(31.1879 0.0145569 0)
(31.2098 0.0144069 0)
(31.2314 0.0142602 0)
(31.2529 0.0141144 0)
(31.274 0.0139723 0)
(31.2951 0.013829 0)
(31.3158 0.013691 0)
(31.3365 0.0135481 0)
(31.3566 0.0134144 0)
(31.377 0.0132681 0)
(31.3966 0.0131401 0)
(31.4169 0.0129837 0)
(31.4355 0.0128654 0)
(31.4562 0.0126862 0)
(31.4732 0.0125884 0)
(31.4953 0.0123624 0)
(31.509 0.0123064 0)
(31.5348 0.0119733 0)
(31.5416 0.0119769 0)
(31.5748 0.0113777 0)
(24.6572 -0.00805457 0)
(24.7072 -0.0238053 0)
(24.786 -0.0386554 0)
(24.8826 -0.0520633 0)
(24.9982 -0.0636952 0)
(25.1346 -0.0734374 0)
(25.2906 -0.0812647 0)
(25.4623 -0.0871869 0)
(25.6451 -0.0912819 0)
(25.8347 -0.0937173 0)
(26.0275 -0.0947153 0)
(26.2208 -0.0945038 0)
(26.4123 -0.0932849 0)
(26.6004 -0.0912351 0)
(26.7834 -0.0885115 0)
(26.9603 -0.0852609 0)
(27.1301 -0.081614 0)
(27.2921 -0.0776866 0)
(27.446 -0.0735788 0)
(27.5917 -0.0693827 0)
(27.7292 -0.0651789 0)
(27.8586 -0.0610384 0)
(27.9802 -0.0570197 0)
(28.0944 -0.0531728 0)
(28.2014 -0.0495368 0)
(28.3019 -0.046141 0)
(28.3962 -0.0430042 0)
(28.4848 -0.0401371 0)
(28.5682 -0.0375454 0)
(28.6469 -0.0352302 0)
(28.7212 -0.0331849 0)
(28.7917 -0.0313957 0)
(28.8586 -0.0298424 0)
(28.9223 -0.0285013 0)
(28.9831 -0.0273472 0)
(29.0414 -0.0263558 0)
(29.0973 -0.0255042 0)
(29.1512 -0.024772 0)
(29.2033 -0.0241409 0)
(29.2537 -0.0235947 0)
(29.3026 -0.0231192 0)
(29.3501 -0.0227024 0)
(29.3964 -0.0223334 0)
(29.4415 -0.0220035 0)
(29.4857 -0.0217048 0)
(29.5288 -0.0214313 0)
(29.5711 -0.0211779 0)
(29.6126 -0.0209402 0)
(29.6533 -0.0207146 0)
(29.6933 -0.0204984 0)
(29.7326 -0.0202893 0)
(29.7713 -0.0200855 0)
(29.8093 -0.0198851 0)
(29.8468 -0.0196869 0)
(29.8838 -0.0194898 0)
(29.9202 -0.019293 0)
(29.9561 -0.019096 0)
(29.9915 -0.0188984 0)
(30.0265 -0.0186998 0)
(30.061 -0.0185001 0)
(30.0951 -0.018299 0)
(30.1288 -0.0180964 0)
(30.162 -0.0178921 0)
(30.1949 -0.0176861 0)
(30.2273 -0.0174783 0)
(30.2594 -0.0172692 0)
(30.2911 -0.0170588 0)
(30.3225 -0.0168476 0)
(30.3535 -0.0166358 0)
(30.3841 -0.0164238 0)
(30.4144 -0.0162119 0)
(30.4443 -0.0160003 0)
(30.474 -0.0157892 0)
(30.5033 -0.0155792 0)
(30.5323 -0.0153702 0)
(30.5609 -0.0151628 0)
(30.5893 -0.0149573 0)
(30.6173 -0.0147539 0)
(30.6451 -0.0145529 0)
(30.6725 -0.0143547 0)
(30.6997 -0.0141597 0)
(30.7266 -0.0139683 0)
(30.7532 -0.0137806 0)
(30.7795 -0.013597 0)
(30.8055 -0.0134177 0)
(30.8313 -0.0132431 0)
(30.8568 -0.0130732 0)
(30.8821 -0.0129077 0)
(30.9071 -0.0127466 0)
(30.9318 -0.0125895 0)
(30.9563 -0.0124363 0)
(30.9805 -0.0122863 0)
(31.0045 -0.0121393 0)
(31.0282 -0.0119945 0)
(31.0517 -0.0118518 0)
(31.075 -0.0117106 0)
(31.098 -0.0115709 0)
(31.1208 -0.0114324 0)
(31.1433 -0.011295 0)
(31.1657 -0.0111584 0)
(31.1877 -0.0110232 0)
(31.2096 -0.0108886 0)
(31.2312 -0.0107559 0)
(31.2527 -0.0106236 0)
(31.2739 -0.0104947 0)
(31.2949 -0.0103653 0)
(31.3156 -0.0102415 0)
(31.3363 -0.010115 0)
(31.3564 -0.00999865 0)
(31.3768 -0.00987406 0)
(31.3963 -0.00976833 0)
(31.4167 -0.00964201 0)
(31.4353 -0.00955258 0)
(31.456 -0.00941609 0)
(31.4729 -0.00935353 0)
(31.4951 -0.00918746 0)
(31.5088 -0.00916827 0)
(31.5346 -0.00891752 0)
(31.5414 -0.00894368 0)
(31.5746 -0.0084617 0)
(24.6573 -0.0244785 0)
(24.7084 -0.0723164 0)
(24.7895 -0.117304 0)
(24.8893 -0.157813 0)
(25.0086 -0.192941 0)
(25.1488 -0.222364 0)
(25.3087 -0.245952 0)
(25.4842 -0.263701 0)
(25.6706 -0.275861 0)
(25.8634 -0.282966 0)
(26.0589 -0.285716 0)
(26.2546 -0.284827 0)
(26.4481 -0.280947 0)
(26.6379 -0.274649 0)
(26.8224 -0.266442 0)
(27.0005 -0.256788 0)
(27.1712 -0.246094 0)
(27.3341 -0.234701 0)
(27.4887 -0.222897 0)
(27.6348 -0.210923 0)
(27.7727 -0.198984 0)
(27.9023 -0.187253 0)
(28.024 -0.17587 0)
(28.1382 -0.164937 0)
(28.2452 -0.154529 0)
(28.3456 -0.1447 0)
(28.4397 -0.135488 0)
(28.5281 -0.126917 0)
(28.6113 -0.119 0)
(28.6898 -0.111738 0)
(28.7639 -0.105119 0)
(28.8341 -0.0991165 0)
(28.9008 -0.0936972 0)
(28.9643 -0.0888192 0)
(29.025 -0.0844374 0)
(29.0832 -0.0805063 0)
(29.1391 -0.076982 0)
(29.1929 -0.0738226 0)
(29.2449 -0.0709889 0)
(29.2952 -0.0684444 0)
(29.3441 -0.066155 0)
(29.3916 -0.0640893 0)
(29.4378 -0.0622194 0)
(29.483 -0.0605207 0)
(29.5271 -0.0589721 0)
(29.5702 -0.0575552 0)
(29.6124 -0.0562538 0)
(29.6538 -0.0550536 0)
(29.6944 -0.0539422 0)
(29.7343 -0.0529086 0)
(29.7735 -0.0519439 0)
(29.812 -0.05104 0)
(29.85 -0.0501897 0)
(29.8873 -0.0493869 0)
(29.924 -0.0486261 0)
(29.9602 -0.0479025 0)
(29.9959 -0.047212 0)
(30.0311 -0.046551 0)
(30.0658 -0.0459162 0)
(30.1 -0.0453048 0)
(30.1338 -0.0447143 0)
(30.1671 -0.0441424 0)
(30.2 -0.0435868 0)
(30.2325 -0.0430453 0)
(30.2646 -0.0425162 0)
(30.2962 -0.0419985 0)
(30.3275 -0.0414911 0)
(30.3584 -0.0409935 0)
(30.3889 -0.0405052 0)
(30.419 -0.0400256 0)
(30.4487 -0.039554 0)
(30.4781 -0.0390901 0)
(30.5072 -0.0386334 0)
(30.5358 -0.0381838 0)
(30.5642 -0.0377411 0)
(30.5922 -0.0373053 0)
(30.6199 -0.0368762 0)
(30.6472 -0.036454 0)
(30.6742 -0.0360384 0)
(30.7009 -0.0356297 0)
(30.7273 -0.0352278 0)
(30.7534 -0.0348329 0)
(30.7791 -0.034445 0)
(30.8046 -0.034064 0)
(30.8297 -0.03369 0)
(30.8546 -0.0333229 0)
(30.8792 -0.0329624 0)
(30.9035 -0.0326083 0)
(30.9275 -0.0322602 0)
(30.9512 -0.0319178 0)
(30.9746 -0.0315807 0)
(30.9978 -0.0312483 0)
(31.0207 -0.0309201 0)
(31.0433 -0.0305954 0)
(31.0657 -0.0302741 0)
(31.0878 -0.0299555 0)
(31.1096 -0.0296396 0)
(31.1312 -0.0293257 0)
(31.1525 -0.0290144 0)
(31.1736 -0.0287045 0)
(31.1944 -0.0283979 0)
(31.215 -0.028092 0)
(31.2353 -0.0277913 0)
(31.2554 -0.0274894 0)
(31.2752 -0.0271966 0)
(31.2948 -0.0268985 0)
(31.3141 -0.026617 0)
(31.3333 -0.0263205 0)
(31.352 -0.026056 0)
(31.3709 -0.0257547 0)
(31.3889 -0.0255166 0)
(31.4077 -0.0251952 0)
(31.4248 -0.0250014 0)
(31.4438 -0.0246272 0)
(31.4593 -0.0245121 0)
(31.4796 -0.0240191 0)
(31.4921 -0.0240413 0)
(31.5156 -0.0232809 0)
(31.5218 -0.0234733 0)
(31.5521 -0.0220573 0)
(24.6574 -0.0419485 0)
(24.711 -0.123578 0)
(24.797 -0.199658 0)
(24.9034 -0.267776 0)
(25.03 -0.326835 0)
(25.1782 -0.376291 0)
(25.3462 -0.415745 0)
(25.5301 -0.445124 0)
(25.7247 -0.464901 0)
(25.9252 -0.476019 0)
(26.1281 -0.479653 0)
(26.3304 -0.477015 0)
(26.5301 -0.469227 0)
(26.7254 -0.457311 0)
(26.9148 -0.442226 0)
(27.0971 -0.424859 0)
(27.2713 -0.405997 0)
(27.4369 -0.386295 0)
(27.5935 -0.366289 0)
(27.7411 -0.346404 0)
(27.8796 -0.326967 0)
(28.0092 -0.308226 0)
(28.1304 -0.290358 0)
(28.2434 -0.273471 0)
(28.3488 -0.257631 0)
(28.447 -0.242863 0)
(28.5386 -0.229173 0)
(28.6241 -0.216545 0)
(28.7041 -0.204948 0)
(28.7789 -0.194337 0)
(28.8491 -0.184655 0)
(28.9152 -0.175841 0)
(28.9775 -0.16783 0)
(29.0364 -0.160556 0)
(29.0922 -0.153956 0)
(29.1454 -0.147965 0)
(29.196 -0.142524 0)
(29.2445 -0.137574 0)
(29.2909 -0.133066 0)
(29.3355 -0.128952 0)
(29.3784 -0.125189 0)
(29.4199 -0.121735 0)
(29.4599 -0.118555 0)
(29.4986 -0.115617 0)
(29.5361 -0.112891 0)
(29.5724 -0.110355 0)
(29.6078 -0.107985 0)
(29.6421 -0.105764 0)
(29.6754 -0.103673 0)
(29.7079 -0.101698 0)
(29.7395 -0.0998254 0)
(29.7703 -0.0980438 0)
(29.8003 -0.096344 0)
(29.8296 -0.0947174 0)
(29.8582 -0.0931577 0)
(29.886 -0.0916588 0)
(29.9132 -0.090216 0)
(29.9397 -0.0888243 0)
(29.9656 -0.0874801 0)
(29.9909 -0.0861796 0)
(30.0156 -0.0849198 0)
(30.0397 -0.0836973 0)
(30.0632 -0.0825095 0)
(30.0862 -0.0813524 0)
(30.1087 -0.0802236 0)
(30.1306 -0.0791202 0)
(30.1521 -0.0780411 0)
(30.173 -0.0769848 0)
(30.1934 -0.0759507 0)
(30.2134 -0.0749373 0)
(30.2329 -0.0739443 0)
(30.2519 -0.0729704 0)
(30.2705 -0.0720156 0)
(30.2886 -0.0710786 0)
(30.3063 -0.0701595 0)
(30.3236 -0.0692573 0)
(30.3405 -0.0683723 0)
(30.357 -0.0675031 0)
(30.3731 -0.0666504 0)
(30.3888 -0.065813 0)
(30.4041 -0.0649913 0)
(30.419 -0.064184 0)
(30.4336 -0.0633917 0)
(30.4478 -0.0626131 0)
(30.4616 -0.0618487 0)
(30.4752 -0.061097 0)
(30.4883 -0.0603584 0)
(30.5012 -0.0596312 0)
(30.5137 -0.0589159 0)
(30.5259 -0.0582106 0)
(30.5378 -0.0575157 0)
(30.5494 -0.0568292 0)
(30.5607 -0.0561518 0)
(30.5717 -0.0554812 0)
(30.5824 -0.0548185 0)
(30.5928 -0.0541612 0)
(30.603 -0.0535109 0)
(30.6128 -0.0528647 0)
(30.6225 -0.0522254 0)
(30.6318 -0.0515891 0)
(30.6409 -0.0509608 0)
(30.6497 -0.0503341 0)
(30.6583 -0.0497178 0)
(30.6666 -0.0491003 0)
(30.6747 -0.0484987 0)
(30.6826 -0.0478895 0)
(30.6903 -0.0473074 0)
(30.6977 -0.0467028 0)
(30.7049 -0.0461487 0)
(30.712 -0.0455385 0)
(30.7186 -0.0450272 0)
(30.7255 -0.0443867 0)
(30.7315 -0.0439467 0)
(30.7384 -0.0432227 0)
(30.7435 -0.0429098 0)
(30.7507 -0.041996 0)
(30.7544 -0.0419185 0)
(30.7628 -0.0406062 0)
(30.7637 -0.0408964 0)
(30.7743 -0.0386441 0)
(24.6576 -0.0622007 0)
(24.7161 -0.181039 0)
(24.8111 -0.289611 0)
(24.9302 -0.386382 0)
(25.0728 -0.470922 0)
(25.2401 -0.542282 0)
(25.4298 -0.599514 0)
(25.6359 -0.642466 0)
(25.8513 -0.671908 0)
(26.069 -0.689088 0)
(26.284 -0.695379 0)
(26.4924 -0.692246 0)
(26.6914 -0.681037 0)
(26.8791 -0.66307 0)
(27.0539 -0.639709 0)
(27.215 -0.612309 0)
(27.3622 -0.5821 0)
(27.4954 -0.550158 0)
(27.6152 -0.517409 0)
(27.7222 -0.48463 0)
(27.817 -0.452458 0)
(27.9007 -0.421391 0)
(27.974 -0.391806 0)
(28.0379 -0.36397 0)
(28.0932 -0.338052 0)
(28.1407 -0.314139 0)
(28.1813 -0.29225 0)
(28.2157 -0.272354 0)
(28.2445 -0.254379 0)
(28.2684 -0.238224 0)
(28.2879 -0.223766 0)
(28.3035 -0.210869 0)
(28.3157 -0.199393 0)
(28.3249 -0.189195 0)
(28.3314 -0.180138 0)
(28.3354 -0.172091 0)
(28.3374 -0.164926 0)
(28.3375 -0.158529 0)
(28.3359 -0.152799 0)
(28.3327 -0.147648 0)
(28.3282 -0.142996 0)
(28.3225 -0.138773 0)
(28.3156 -0.134917 0)
(28.3078 -0.131375 0)
(28.299 -0.128103 0)
(28.2894 -0.125065 0)
(28.279 -0.122226 0)
(28.2679 -0.11956 0)
(28.2561 -0.117041 0)
(28.2438 -0.11465 0)
(28.2309 -0.112368 0)
(28.2175 -0.110181 0)
(28.2036 -0.108075 0)
(28.1893 -0.106042 0)
(28.1747 -0.104071 0)
(28.1597 -0.102158 0)
(28.1443 -0.100297 0)
(28.1287 -0.0984825 0)
(28.1128 -0.0967116 0)
(28.0967 -0.0949809 0)
(28.0804 -0.0932879 0)
(28.0639 -0.0916303 0)
(28.0473 -0.0900062 0)
(28.0305 -0.0884129 0)
(28.0136 -0.0868479 0)
(27.9966 -0.0853083 0)
(27.9795 -0.0837929 0)
(27.9624 -0.0823008 0)
(27.9452 -0.0808314 0)
(27.9279 -0.0793844 0)
(27.9107 -0.0779597 0)
(27.8934 -0.0765571 0)
(27.8762 -0.0751768 0)
(27.8589 -0.0738187 0)
(27.8417 -0.0724829 0)
(27.8245 -0.0711693 0)
(27.8074 -0.0698782 0)
(27.7903 -0.0686096 0)
(27.7733 -0.0673637 0)
(27.7564 -0.0661404 0)
(27.7395 -0.0649399 0)
(27.7227 -0.063762 0)
(27.706 -0.0626068 0)
(27.6894 -0.061474 0)
(27.6729 -0.0603635 0)
(27.6565 -0.0592748 0)
(27.6402 -0.0582081 0)
(27.624 -0.0571623 0)
(27.6079 -0.0561374 0)
(27.592 -0.0551323 0)
(27.5761 -0.0541467 0)
(27.5604 -0.0531792 0)
(27.5448 -0.0522299 0)
(27.5294 -0.0512973 0)
(27.514 -0.0503817 0)
(27.4988 -0.0494811 0)
(27.4838 -0.0485968 0)
(27.4689 -0.0477263 0)
(27.4541 -0.0468719 0)
(27.4395 -0.0460303 0)
(27.425 -0.0452057 0)
(27.4107 -0.0443928 0)
(27.3966 -0.0435986 0)
(27.3826 -0.0428141 0)
(27.3688 -0.0420521 0)
(27.3551 -0.041296 0)
(27.3416 -0.0405694 0)
(27.3283 -0.0398401 0)
(27.3151 -0.039154 0)
(27.3021 -0.038446 0)
(27.2893 -0.037808 0)
(27.2766 -0.0371059 0)
(27.2642 -0.0365294 0)
(27.2518 -0.0357964 0)
(27.24 -0.0353067 0)
(27.2275 -0.0344592 0)
(27.2169 -0.0341138 0)
(27.2034 -0.0329859 0)
(27.1956 -0.0329341 0)
(27.178 -0.0311593 0)
(24.6605 -0.0950719 0)
(24.7566 -0.265614 0)
(24.9063 -0.415232 0)
(25.0787 -0.547547 0)
(25.2571 -0.662448 0)
(25.4291 -0.756978 0)
(25.5832 -0.829379 0)
(25.7087 -0.880202 0)
(25.7996 -0.911699 0)
(25.8531 -0.9264 0)
(25.8709 -0.926762 0)
(25.8558 -0.915205 0)
(25.812 -0.893812 0)
(25.7439 -0.86453 0)
(25.6555 -0.829262 0)
(25.5506 -0.789722 0)
(25.4327 -0.747357 0)
(25.3051 -0.703359 0)
(25.1704 -0.658721 0)
(25.0311 -0.614267 0)
(24.8891 -0.570664 0)
(24.746 -0.528459 0)
(24.603 -0.488062 0)
(24.4612 -0.449766 0)
(24.3213 -0.413773 0)
(24.184 -0.380197 0)
(24.0497 -0.349076 0)
(23.9186 -0.32039 0)
(23.7908 -0.294077 0)
(23.6666 -0.270043 0)
(23.546 -0.248174 0)
(23.4289 -0.228338 0)
(23.3153 -0.210398 0)
(23.2051 -0.194204 0)
(23.0982 -0.179611 0)
(22.9946 -0.166473 0)
(22.894 -0.154649 0)
(22.7965 -0.144005 0)
(22.7018 -0.134413 0)
(22.6099 -0.125753 0)
(22.5207 -0.117921 0)
(22.434 -0.110826 0)
(22.3499 -0.104389 0)
(22.2681 -0.0985404 0)
(22.1886 -0.0932175 0)
(22.1114 -0.0883654 0)
(22.0364 -0.083934 0)
(21.9635 -0.0798798 0)
(21.8925 -0.0761635 0)
(21.8236 -0.07275 0)
(21.7566 -0.0696082 0)
(21.6914 -0.0667107 0)
(21.628 -0.0640335 0)
(21.5664 -0.0615554 0)
(21.5065 -0.0592574 0)
(21.4483 -0.0571225 0)
(21.3916 -0.0551356 0)
(21.3365 -0.0532831 0)
(21.283 -0.0515525 0)
(21.2309 -0.0499324 0)
(21.1802 -0.0484123 0)
(21.131 -0.046983 0)
(21.083 -0.0456366 0)
(21.0364 -0.0443672 0)
(20.991 -0.0431694 0)
(20.9468 -0.0420381 0)
(20.9038 -0.0409675 0)
(20.8619 -0.0399518 0)
(20.8212 -0.0389861 0)
(20.7815 -0.0380663 0)
(20.7428 -0.0371889 0)
(20.7052 -0.036351 0)
(20.6685 -0.0355499 0)
(20.6327 -0.0347831 0)
(20.5979 -0.0340482 0)
(20.5639 -0.0333432 0)
(20.5307 -0.0326661 0)
(20.4984 -0.032015 0)
(20.4669 -0.0313881 0)
(20.4361 -0.0307839 0)
(20.406 -0.0302009 0)
(20.3767 -0.0296378 0)
(20.348 -0.0290934 0)
(20.32 -0.0285665 0)
(20.2927 -0.0280563 0)
(20.2659 -0.0275615 0)
(20.2398 -0.0270816 0)
(20.2143 -0.0266154 0)
(20.1893 -0.0261624 0)
(20.1649 -0.0257216 0)
(20.141 -0.0252923 0)
(20.1176 -0.0248736 0)
(20.0947 -0.024465 0)
(20.0724 -0.0240658 0)
(20.0505 -0.0236758 0)
(20.0291 -0.0232942 0)
(20.0081 -0.0229213 0)
(19.9876 -0.0225562 0)
(19.9676 -0.0221997 0)
(19.9479 -0.021851 0)
(19.9287 -0.0215114 0)
(19.9099 -0.0211794 0)
(19.8915 -0.0208571 0)
(19.8735 -0.0205429 0)
(19.8559 -0.020239 0)
(19.8386 -0.0199439 0)
(19.8217 -0.0196592 0)
(19.8051 -0.019385 0)
(19.7889 -0.0191182 0)
(19.773 -0.0188674 0)
(19.7575 -0.0186132 0)
(19.7421 -0.0183905 0)
(19.7274 -0.0181329 0)
(19.7123 -0.0179466 0)
(19.6986 -0.0176479 0)
(19.6834 -0.0175083 0)
(19.6714 -0.0170962 0)
(19.655 -0.0170188 0)
(19.6464 -0.0164738 0)
(19.6252 -0.0166128 0)
(24.6174 -0.0665349 0)
(24.4362 -0.257498 0)
(24.0576 -0.435402 0)
(23.4968 -0.578089 0)
(22.8028 -0.680604 0)
(22.023 -0.741892 0)
(21.1941 -0.765295 0)
(20.3419 -0.756855 0)
(19.4884 -0.724592 0)
(18.6485 -0.674792 0)