/*--------------------------------*- C++ -*----------------------------------*\
  =========                 |
  \\      /  F ield         | OpenFOAM: The Open Source CFD Toolbox
   \\    /   O peration     | Website:  https://openfoam.org
    \\  /    A nd           | Version:  7
     \\/     M anipulation  |
\*---------------------------------------------------------------------------*/
FoamFile
{
    version     2.0;
    format      ascii;
    class       volScalarField;
    location    "0.805";
    object      alphat;
}
// * * * * * * * * * * * * * * * * * * * * * * * * * * * * * * * * * * * * * //

dimensions      [1 -1 -1 0 0 0 0];

internalField   nonuniform List<scalar> 
13200
(
0.0101715
0.0104465
0.0104455
0.0104467
0.0104454
0.0104458
0.0104445
0.0104445
0.010443
0.0104428
0.0104416
0.0104414
0.0104406
0.0104406
0.0104402
0.0104403
0.0104406
0.01044
0.0104445
0.0104492
0.00492599
0.00469259
0.00453423
0.00447198
0.0044493
0.00444318
0.00443615
0.00443546
0.00443234
0.0044323
0.00443009
0.00443031
0.00442861
0.00442889
0.00442747
0.00442768
0.00442659
0.00442627
0.00443186
0.00443673
0.00308049
0.00306947
0.00301046
0.00296574
0.00294475
0.00293614
0.00292777
0.00292443
0.00291915
0.00291715
0.00291328
0.00291207
0.0029091
0.00290832
0.00290584
0.00290527
0.00290309
0.00290292
0.00290083
0.002908
0.00259962
0.00274964
0.00276428
0.00276232
0.00275893
0.00275665
0.00275349
0.00275139
0.0027483
0.00274653
0.00274371
0.00274229
0.00273998
0.00273892
0.00273702
0.00273618
0.00273446
0.00273387
0.0027319
0.0027364
0.0024892
0.00268851
0.00272387
0.00273426
0.00273593
0.00273803
0.00273722
0.00273733
0.00273632
0.00273596
0.00273465
0.00273416
0.00273265
0.00273248
0.00273118
0.0027311
0.0027298
0.00272983
0.00272826
0.00273122
0.00247411
0.00268046
0.00272044
0.00273404
0.00273752
0.00274152
0.00274186
0.00274376
0.00274371
0.00274457
0.00274418
0.00274457
0.00274399
0.00274446
0.0027437
0.00274431
0.00274351
0.00274397
0.00274311
0.00274559
0.0024694
0.00267613
0.00271672
0.00273108
0.00273539
0.0027403
0.00274143
0.00274444
0.00274521
0.00274715
0.00274749
0.00274861
0.00274878
0.00274986
0.00274995
0.00275109
0.00275103
0.00275196
0.00275162
0.00275441
0.0024717
0.00267655
0.00271699
0.00273147
0.00273618
0.00274158
0.00274321
0.00274689
0.00274822
0.00275097
0.00275187
0.00275373
0.00275434
0.00275592
0.00275676
0.00275834
0.00275896
0.0027602
0.00276062
0.00276325
0.0024712
0.00267528
0.00271541
0.0027297
0.00273443
0.00273992
0.00274172
0.00274566
0.00274725
0.00275038
0.00275161
0.00275395
0.00275488
0.00275681
0.00275807
0.00276003
0.00276116
0.00276267
0.00276347
0.00276649
0.00247227
0.00267559
0.00271557
0.0027298
0.00273454
0.00274006
0.00274192
0.00274594
0.00274763
0.00275091
0.00275227
0.00275483
0.00275591
0.00275801
0.00275947
0.00276161
0.00276298
0.00276462
0.00276572
0.00276877
0.00247227
0.00267559
0.00271557
0.0027298
0.00273454
0.00274006
0.00274192
0.00274594
0.00274763
0.00275091
0.00275227
0.00275483
0.00275591
0.00275801
0.00275947
0.00276161
0.00276299
0.00276463
0.00276572
0.00276879
0.0024712
0.00267528
0.00271541
0.0027297
0.00273443
0.00273992
0.00274172
0.00274566
0.00274725
0.00275038
0.00275161
0.00275395
0.00275488
0.00275681
0.00275807
0.00276003
0.00276116
0.00276268
0.00276348
0.00276653
0.0024717
0.00267655
0.00271699
0.00273147
0.00273618
0.00274158
0.00274321
0.00274689
0.00274822
0.00275097
0.00275187
0.00275372
0.00275435
0.00275592
0.00275676
0.00275834
0.00275897
0.0027602
0.00276064
0.00276328
0.0024694
0.00267613
0.00271672
0.00273108
0.00273539
0.0027403
0.00274143
0.00274444
0.00274521
0.00274715
0.00274749
0.0027486
0.00274879
0.00274985
0.00274996
0.00275109
0.00275106
0.00275196
0.0027517
0.00275444
0.00247411
0.00268046
0.00272044
0.00273404
0.00273752
0.00274152
0.00274187
0.00274376
0.00274371
0.00274457
0.00274418
0.00274456
0.002744
0.00274445
0.00274371
0.00274429
0.00274355
0.00274395
0.00274324
0.00274544
0.0024892
0.00268851
0.00272387
0.00273426
0.00273593
0.00273803
0.00273722
0.00273733
0.00273632
0.00273595
0.00273465
0.00273415
0.00273265
0.00273248
0.00273118
0.0027311
0.00272983
0.00272978
0.00272853
0.00273085
0.00259962
0.00274964
0.00276428
0.00276232
0.00275893
0.00275665
0.0027535
0.00275139
0.0027483
0.00274653
0.00274371
0.0027423
0.00273997
0.00273893
0.00273702
0.0027362
0.00273447
0.00273382
0.00273223
0.00273554
0.00308049
0.00306947
0.00301046
0.00296574
0.00294475
0.00293614
0.00292777
0.00292443
0.00291915
0.00291714
0.00291328
0.00291206
0.00290911
0.0029083
0.00290586
0.00290523
0.00290317
0.00290279
0.00290119
0.00290691
0.00492599
0.00469259
0.00453423
0.00447198
0.00444931
0.00444318
0.00443615
0.00443546
0.00443234
0.0044323
0.00443009
0.00443031
0.00442861
0.00442888
0.00442747
0.00442766
0.00442661
0.00442616
0.00443186
0.00443562
0.0101715
0.0104465
0.0104455
0.0104467
0.0104454
0.0104458
0.0104445
0.0104445
0.010443
0.0104428
0.0104416
0.0104415
0.0104406
0.0104406
0.0104402
0.0104404
0.0104404
0.0104402
0.0104438
0.0104513
0.00285415
0.00304359
0.00301336
0.00297841
0.00297238
0.00295862
0.00295863
0.00295064
0.00295158
0.00294606
0.00294708
0.002943
0.00294379
0.00294066
0.00294118
0.00293874
0.00293909
0.00293689
0.00293655
0.00294227
0.00235683
0.00271693
0.00275506
0.00274849
0.00274056
0.00273311
0.00272896
0.00272477
0.00272261
0.00272008
0.00271882
0.00271707
0.0027161
0.00271468
0.00271369
0.00271253
0.00271124
0.00271099
0.00270799
0.00271217
0.00218832
0.00257145
0.00263145
0.00264594
0.00264943
0.00265165
0.00265124
0.00265163
0.00265095
0.00265108
0.00265057
0.00265086
0.0026505
0.0026506
0.00265011
0.00265005
0.00264926
0.00264935
0.00264732
0.00265393
0.00216817
0.00255318
0.00261052
0.00262343
0.00262661
0.00262993
0.002631
0.002633
0.00263354
0.00263471
0.00263523
0.00263625
0.00263678
0.00263762
0.00263801
0.00263862
0.00263871
0.00263918
0.00263874
0.002641
0.00215798
0.0025433
0.00259988
0.00261149
0.00261227
0.00261426
0.00261404
0.00261568
0.00261573
0.00261699
0.00261729
0.00261851
0.00261903
0.00262017
0.00262072
0.00262167
0.00262216
0.00262297
0.00262317
0.00262636
0.00216267
0.00254836
0.00260458
0.00261581
0.00261605
0.00261733
0.00261646
0.00261731
0.00261683
0.00261743
0.00261735
0.00261811
0.00261826
0.00261904
0.0026193
0.0026199
0.00262036
0.00262085
0.0026212
0.0026233
0.00215924
0.00254467
0.00260071
0.002612
0.00261201
0.00261329
0.00261217
0.00261284
0.00261208
0.00261248
0.00261208
0.00261264
0.00261249
0.00261307
0.00261295
0.00261337
0.00261347
0.00261389
0.00261419
0.00261625
0.0021623
0.00254799
0.00260379
0.00261504
0.00261501
0.00261635
0.00261521
0.00261588
0.00261506
0.00261542
0.00261493
0.00261544
0.0026152
0.00261569
0.00261537
0.00261565
0.00261554
0.00261577
0.00261593
0.00261788
0.00216072
0.00254616
0.00260191
0.00261313
0.00261307
0.0026144
0.00261326
0.00261393
0.00261311
0.00261348
0.00261298
0.0026135
0.00261328
0.00261375
0.00261338
0.00261361
0.00261341
0.00261361
0.00261363
0.00261559
0.00216188
0.00254734
0.00260301
0.00261419
0.00261411
0.00261544
0.0026143
0.00261496
0.00261414
0.00261451
0.00261401
0.00261455
0.00261433
0.00261481
0.00261442
0.00261463
0.00261441
0.00261458
0.00261458
0.00261653
0.00216188
0.00254734
0.00260301
0.00261419
0.00261411
0.00261544
0.0026143
0.00261496
0.00261414
0.00261451
0.00261401
0.00261455
0.00261433
0.00261481
0.00261442
0.00261463
0.00261441
0.00261458
0.00261458
0.00261654
0.00216072
0.00254616
0.00260191
0.00261313
0.00261307
0.0026144
0.00261326
0.00261393
0.00261311
0.00261348
0.00261298
0.0026135
0.00261328
0.00261375
0.00261338
0.00261361
0.00261341
0.00261361
0.00261364
0.00261561
0.0021623
0.00254799
0.00260379
0.00261504
0.00261501
0.00261635
0.00261521
0.00261588
0.00261506
0.00261542
0.00261493
0.00261544
0.0026152
0.00261569
0.00261537
0.00261565
0.00261554
0.00261577
0.00261591
0.00261788
0.00215924
0.00254467
0.00260071
0.002612
0.00261201
0.00261329
0.00261217
0.00261284
0.00261208
0.00261248
0.00261207
0.00261264
0.00261249
0.00261307
0.00261294
0.00261338
0.00261347
0.00261389
0.00261421
0.00261625
0.00216267
0.00254836
0.00260458
0.00261581
0.00261605
0.00261733
0.00261646
0.00261731
0.00261683
0.00261743
0.00261735
0.0026181
0.00261827
0.00261904
0.00261929
0.00261991
0.00262035
0.00262082
0.00262124
0.00262316
0.00215798
0.0025433
0.00259988
0.00261149
0.00261227
0.00261426
0.00261404
0.00261568
0.00261573
0.00261699
0.0026173
0.0026185
0.00261904
0.00262017
0.00262073
0.00262163
0.00262219
0.00262286
0.00262338
0.00262607
0.00216817
0.00255318
0.00261052
0.00262343
0.00262661
0.00262993
0.002631
0.002633
0.00263354
0.0026347
0.00263524
0.00263625
0.00263679
0.00263761
0.00263804
0.00263853
0.00263878
0.00263895
0.00263902
0.0026404
0.00218832
0.00257145
0.00263145
0.00264594
0.00264943
0.00265165
0.00265124
0.00265163
0.00265096
0.00265108
0.00265057
0.00265085
0.00265051
0.00265057
0.00265015
0.00264996
0.00264945
0.002649
0.00264805
0.00265252
0.00235683
0.00271693
0.00275506
0.00274849
0.00274056
0.00273311
0.00272896
0.00272477
0.00272261
0.00272008
0.00271883
0.00271706
0.00271612
0.00271465
0.00271374
0.00271245
0.0027114
0.00271067
0.00270879
0.00271023
0.00285415
0.00304359
0.00301336
0.00297841
0.00297238
0.00295862
0.00295863
0.00295064
0.00295158
0.00294606
0.00294708
0.002943
0.0029438
0.00294066
0.0029412
0.00293872
0.00293916
0.00293683
0.00293692
0.00294086
0.0010941
0.00123567
0.00114403
0.00102164
0.000945185
0.00090203
0.00087131
0.000849173
0.000830558
0.000815046
0.000802056
0.000790316
0.000780843
0.000771736
0.000764258
0.000757579
0.000750387
0.00074721
0.000738736
0.000742136
0.000447585
0.00071454
0.000784053
0.00079568
0.000794175
0.000790057
0.000782385
0.000774873
0.000767305
0.000760443
0.000753906
0.000747997
0.000742298
0.000737246
0.000732076
0.000728097
0.000722986
0.00072102
0.000714558
0.000717055
0.000194429
0.000441775
0.000535015
0.000574901
0.000591609
0.00060535
0.000613761
0.000622843
0.000628802
0.000635205
0.000639272
0.000643513
0.000645958
0.000648564
0.000649776
0.000651287
0.000651572
0.000652287
0.000651061
0.000652934
0.000178588
0.000402887
0.000488646
0.000528599
0.000543392
0.000552943
0.000556935
0.000561828
0.000564858
0.000568975
0.000572307
0.000576316
0.000579892
0.000583594
0.000587023
0.000590122
0.000593401
0.000595568
0.000598198
0.000600444
0.000174576
0.000393128
0.000474124
0.000514186
0.000528166
0.000537085
0.000538996
0.000541648
0.000541995
0.000543105
0.000543599
0.000544838
0.000545903
0.000547477
0.000549047
0.000550528
0.000552575
0.000553841
0.000555901
0.000557571
0.000178252
0.000399551
0.000480214
0.000519098
0.000533314
0.000541634
0.000543728
0.000545721
0.000545787
0.000546078
0.000546014
0.000546252
0.000546502
0.000546896
0.000547346
0.00054779
0.000548542
0.000549047
0.000549876
0.000551122
0.000175719
0.000395198
0.000475794
0.000515053
0.000529
0.000537472
0.000539374
0.000541408
0.000541357
0.000541527
0.000541349
0.000541465
0.000541403
0.000541562
0.000541606
0.000541707
0.000541899
0.000542143
0.000542387
0.000543275
0.000177806
0.000398968
0.000479694
0.000518429
0.000532445
0.000540662
0.000542699
0.000544631
0.000544646
0.000544825
0.000544701
0.000544798
0.000544744
0.000544834
0.000544884
0.000544892
0.000545045
0.000545174
0.000545404
0.000546136
0.000176539
0.000396693
0.00047738
0.000516337
0.000530243
0.000538557
0.0005405
0.000542484
0.00054247
0.000542663
0.00054253
0.000542658
0.000542607
0.000542724
0.000542732
0.000542757
0.000542872
0.000542982
0.000543138
0.000543831
0.000177246
0.000397999
0.000478744
0.000517526
0.000531438
0.000539657
0.00054163
0.00054357
0.00054357
0.000543763
0.000543647
0.000543775
0.00054374
0.000543846
0.00054388
0.000543892
0.000544021
0.000544122
0.000544306
0.000544969
0.000177246
0.000397999
0.000478744
0.000517526
0.000531438
0.000539657
0.00054163
0.00054357
0.00054357
0.000543763
0.000543647
0.000543775
0.00054374
0.000543847
0.00054388
0.000543893
0.000544022
0.000544126
0.000544308
0.000544974
0.000176539
0.000396693
0.00047738
0.000516337
0.000530243
0.000538557
0.0005405
0.000542484
0.00054247
0.000542663
0.00054253
0.000542658
0.000542607
0.000542723
0.000542733
0.000542756
0.000542871
0.000542979
0.000543135
0.000543826
0.000177806
0.000398968
0.000479694
0.000518429
0.000532445
0.000540662
0.000542699
0.000544631
0.000544646
0.000544825
0.0005447
0.000544798
0.000544744
0.000544835
0.000544884
0.000544895
0.000545045
0.000545179
0.000545404
0.000546142
0.000175719
0.000395199
0.000475794
0.000515053
0.000529
0.000537472
0.000539373
0.000541408
0.000541357
0.000541527
0.000541348
0.000541466
0.000541402
0.000541563
0.000541604
0.000541707
0.000541894
0.000542142
0.000542377
0.000543268
0.000178252
0.000399551
0.000480214
0.000519098
0.000533314
0.000541634
0.000543727
0.000545721
0.000545787
0.000546078
0.000546013
0.000546253
0.000546501
0.000546899
0.000547342
0.000547792
0.000548531
0.000549046
0.000549854
0.000551109
0.000174576
0.000393128
0.000474124
0.000514186
0.000528166
0.000537085
0.000538996
0.000541647
0.000541996
0.000543104
0.0005436
0.000544839
0.000545898
0.000547479
0.000549039
0.000550523
0.000552552
0.000553819
0.000555853
0.000557498
0.000178588
0.000402887
0.000488646
0.000528599
0.000543392
0.000552943
0.000556935
0.000561828
0.000564858
0.000568974
0.000572307
0.000576313
0.000579893
0.000583579
0.000587029
0.000590076
0.000593403
0.000595469
0.000598151
0.000600219
0.000194429
0.000441775
0.000535015
0.000574901
0.00059161
0.00060535
0.000613762
0.000622842
0.000628803
0.000635202
0.000639274
0.000643503
0.000645966
0.000648532
0.000649802
0.000651193
0.000651651
0.000652033
0.000651248
0.000652373
0.000447585
0.00071454
0.000784053
0.000795679
0.000794176
0.000790056
0.000782385
0.000774872
0.000767307
0.000760441
0.00075391
0.000747991
0.000742309
0.000737229
0.000732113
0.000728041
0.000723136
0.000720694
0.000715229
0.000715963
0.0010941
0.00123567
0.00114403
0.00102164
0.000945185
0.00090203
0.000871311
0.000849174
0.00083056
0.00081505
0.000802061
0.00079033
0.000780858
0.000771776
0.000764308
0.000757664
0.000750593
0.000747289
0.000739609
0.000741458
0.0010941
0.00123567
0.00114403
0.00102164
0.000945185
0.00090203
0.00087131
0.000849173
0.000830558
0.000815046
0.000802055
0.000790316
0.000780843
0.000771735
0.000764258
0.000757579
0.000750387
0.00074721
0.000738736
0.000742137
0.000447585
0.00071454
0.000784053
0.00079568
0.000794176
0.000790057
0.000782385
0.000774873
0.000767306
0.000760444
0.000753906
0.000747998
0.000742298
0.000737245
0.000732076
0.000728097
0.000722986
0.00072102
0.000714558
0.000717055
0.000194429
0.000441776
0.000535016
0.000574901
0.00059161
0.00060535
0.000613762
0.000622843
0.000628802
0.000635206
0.000639272
0.000643513
0.000645959
0.000648564
0.000649776
0.000651287
0.000651572
0.000652287
0.000651061
0.000652934
0.000178588
0.000402887
0.000488647
0.0005286
0.000543392
0.000552943
0.000556936
0.000561829
0.000564858
0.000568976
0.000572307
0.000576317
0.000579893
0.000583594
0.000587024
0.000590122
0.000593402
0.000595568
0.000598198
0.000600445
0.000174576
0.000393128
0.000474124
0.000514186
0.000528167
0.000537086
0.000538997
0.000541648
0.000541996
0.000543106
0.0005436
0.000544838
0.000545904
0.000547478
0.000549047
0.000550529
0.000552575
0.000553841
0.000555902
0.000557572
0.000178252
0.000399552
0.000480215
0.000519099
0.000533315
0.000541634
0.000543728
0.000545721
0.000545787
0.000546078
0.000546015
0.000546253
0.000546502
0.000546897
0.000547347
0.000547791
0.000548542
0.000549048
0.000549877
0.000551123
0.000175719
0.000395199
0.000475795
0.000515053
0.000529
0.000537472
0.000539374
0.000541408
0.000541358
0.000541527
0.000541349
0.000541466
0.000541403
0.000541562
0.000541607
0.000541707
0.000541899
0.000542143
0.000542388
0.000543275
0.000177807
0.000398968
0.000479694
0.000518429
0.000532446
0.000540662
0.000542699
0.000544631
0.000544646
0.000544825
0.000544701
0.000544798
0.000544745
0.000544834
0.000544884
0.000544893
0.000545046
0.000545174
0.000545404
0.000546136
0.000176539
0.000396694
0.00047738
0.000516337
0.000530243
0.000538558
0.000540501
0.000542485
0.000542471
0.000542663
0.00054253
0.000542659
0.000542607
0.000542724
0.000542733
0.000542758
0.000542872
0.000542983
0.000543139
0.000543832
0.000177247
0.000398
0.000478745
0.000517526
0.000531438
0.000539658
0.00054163
0.000543571
0.000543571
0.000543763
0.000543647
0.000543775
0.00054374
0.000543847
0.00054388
0.000543892
0.000544022
0.000544123
0.000544306
0.000544969
0.000177247
0.000398
0.000478745
0.000517526
0.000531438
0.000539658
0.00054163
0.000543571
0.000543571
0.000543763
0.000543647
0.000543776
0.00054374
0.000543847
0.00054388
0.000543893
0.000544023
0.000544126
0.000544309
0.000544975
0.000176539
0.000396694
0.00047738
0.000516337
0.000530243
0.000538558
0.000540501
0.000542485
0.00054247
0.000542663
0.00054253
0.000542659
0.000542607
0.000542723
0.000542733
0.000542756
0.000542871
0.00054298
0.000543135
0.000543826
0.000177807
0.000398968
0.000479694
0.000518429
0.000532446
0.000540662
0.000542699
0.000544631
0.000544646
0.000544826
0.000544701
0.000544799
0.000544744
0.000544835
0.000544884
0.000544895
0.000545046
0.000545179
0.000545404
0.000546142
0.000175719
0.000395199
0.000475795
0.000515053
0.000529
0.000537472
0.000539374
0.000541408
0.000541357
0.000541528
0.000541349
0.000541466
0.000541402
0.000541563
0.000541604
0.000541707
0.000541895
0.000542142
0.000542377
0.000543268
0.000178252
0.000399552
0.000480215
0.000519099
0.000533314
0.000541635
0.000543728
0.000545721
0.000545787
0.000546078
0.000546014
0.000546254
0.000546501
0.000546899
0.000547342
0.000547792
0.000548532
0.000549047
0.000549854
0.000551109
0.000174576
0.000393129
0.000474124
0.000514186
0.000528166
0.000537086
0.000538997
0.000541648
0.000541996
0.000543105
0.0005436
0.00054484
0.000545898
0.00054748
0.000549039
0.000550523
0.000552553
0.000553819
0.000555854
0.000557499
0.000178588
0.000402887
0.000488647
0.0005286
0.000543392
0.000552943
0.000556936
0.000561828
0.000564858
0.000568974
0.000572307
0.000576313
0.000579894
0.000583579
0.000587029
0.000590076
0.000593403
0.00059547
0.000598151
0.00060022
0.000194429
0.000441776
0.000535016
0.000574901
0.00059161
0.00060535
0.000613762
0.000622842
0.000628803
0.000635202
0.000639274
0.000643503
0.000645966
0.000648532
0.000649803
0.000651193
0.000651651
0.000652034
0.000651248
0.000652373
0.000447585
0.00071454
0.000784053
0.000795679
0.000794176
0.000790056
0.000782385
0.000774872
0.000767307
0.000760441
0.00075391
0.000747992
0.00074231
0.000737229
0.000732113
0.000728041
0.000723136
0.000720695
0.000715229
0.000715963
0.0010941
0.00123567
0.00114403
0.00102164
0.000945185
0.00090203
0.00087131
0.000849174
0.00083056
0.00081505
0.000802061
0.00079033
0.000780858
0.000771776
0.000764309
0.000757664
0.000750593
0.000747289
0.000739609
0.000741458
0.00285415
0.00304359
0.00301336
0.00297841
0.00297238
0.00295862
0.00295863
0.00295064
0.00295158
0.00294606
0.00294708
0.002943
0.00294379
0.00294066
0.00294118
0.00293874
0.00293909
0.00293689
0.00293655
0.00294227
0.00235683
0.00271693
0.00275506
0.00274849
0.00274056
0.00273311
0.00272896
0.00272477
0.00272261
0.00272008
0.00271883
0.00271707
0.0027161
0.00271468
0.00271369
0.00271253
0.00271124
0.00271099
0.00270799
0.00271217
0.00218832
0.00257145
0.00263145
0.00264594
0.00264943
0.00265165
0.00265124
0.00265163
0.00265095
0.00265108
0.00265057
0.00265086
0.0026505
0.0026506
0.00265011
0.00265005
0.00264926
0.00264935
0.00264732
0.00265393
0.00216817
0.00255318
0.00261052
0.00262343
0.00262661
0.00262993
0.002631
0.002633
0.00263354
0.00263471
0.00263523
0.00263625
0.00263678
0.00263762
0.00263801
0.00263862
0.00263871
0.00263918
0.00263874
0.002641
0.00215798
0.0025433
0.00259988
0.00261149
0.00261227
0.00261426
0.00261404
0.00261568
0.00261573
0.00261699
0.00261729
0.00261851
0.00261903
0.00262017
0.00262072
0.00262167
0.00262216
0.00262297
0.00262318
0.00262636
0.00216267
0.00254836
0.00260458
0.00261581
0.00261605
0.00261733
0.00261646
0.00261731
0.00261683
0.00261743
0.00261735
0.00261811
0.00261826
0.00261904
0.0026193
0.0026199
0.00262037
0.00262085
0.0026212
0.0026233
0.00215924
0.00254467
0.00260071
0.002612
0.00261201
0.00261329
0.00261217
0.00261284
0.00261208
0.00261248
0.00261207
0.00261264
0.00261249
0.00261307
0.00261295
0.00261338
0.00261347
0.00261389
0.00261419
0.00261625
0.0021623
0.00254799
0.00260379
0.00261504
0.00261501
0.00261635
0.00261521
0.00261588
0.00261506
0.00261542
0.00261493
0.00261544
0.0026152
0.00261569
0.00261537
0.00261565
0.00261554
0.00261577
0.00261593
0.00261788
0.00216072
0.00254616
0.00260191
0.00261313
0.00261307
0.0026144
0.00261326
0.00261393
0.00261311
0.00261348
0.00261298
0.0026135
0.00261328
0.00261375
0.00261338
0.00261361
0.00261341
0.00261361
0.00261363
0.00261559
0.00216188
0.00254734
0.00260301
0.00261419
0.00261411
0.00261544
0.0026143
0.00261496
0.00261414
0.00261451
0.00261401
0.00261455
0.00261433
0.00261481
0.00261442
0.00261463
0.00261441
0.00261458
0.00261458
0.00261653
0.00216188
0.00254734
0.00260301
0.00261419
0.00261411
0.00261544
0.0026143
0.00261496
0.00261414
0.00261451
0.00261401
0.00261455
0.00261433
0.00261481
0.00261442
0.00261463
0.00261441
0.00261458
0.00261458
0.00261654
0.00216072
0.00254616
0.00260191
0.00261313
0.00261307
0.0026144
0.00261326
0.00261393
0.00261311
0.00261348
0.00261298
0.0026135
0.00261328
0.00261375
0.00261338
0.00261361
0.00261341
0.00261361
0.00261364
0.00261561
0.0021623
0.00254799
0.00260379
0.00261504
0.00261501
0.00261635
0.00261521
0.00261588
0.00261506
0.00261542
0.00261493
0.00261544
0.0026152
0.00261569
0.00261537
0.00261565
0.00261554
0.00261577
0.00261591
0.00261787
0.00215924
0.00254467
0.00260071
0.002612
0.00261201
0.00261329
0.00261217
0.00261284
0.00261208
0.00261248
0.00261208
0.00261264
0.00261249
0.00261307
0.00261294
0.00261338
0.00261346
0.00261389
0.00261421
0.00261625
0.00216267
0.00254836
0.00260458
0.00261581
0.00261605
0.00261733
0.00261646
0.00261731
0.00261683
0.00261743
0.00261735
0.0026181
0.00261827
0.00261904
0.00261929
0.0026199
0.00262035
0.00262082
0.00262124
0.00262316
0.00215798
0.0025433
0.00259988
0.00261149
0.00261227
0.00261426
0.00261404
0.00261568
0.00261573
0.00261699
0.0026173
0.0026185
0.00261904
0.00262017
0.00262073
0.00262163
0.00262219
0.00262286
0.00262338
0.00262607
0.00216817
0.00255318
0.00261052
0.00262343
0.00262661
0.00262993
0.002631
0.002633
0.00263354
0.0026347
0.00263524
0.00263624
0.00263679
0.00263761
0.00263803
0.00263853
0.00263878
0.00263895
0.00263902
0.0026404
0.00218832
0.00257145
0.00263145
0.00264594
0.00264943
0.00265165
0.00265124
0.00265163
0.00265095
0.00265108
0.00265057
0.00265085
0.00265051
0.00265057
0.00265015
0.00264996
0.00264945
0.002649
0.00264805
0.00265252
0.00235683
0.00271693
0.00275506
0.00274849
0.00274056
0.00273311
0.00272896
0.00272477
0.00272261
0.00272008
0.00271883
0.00271706
0.00271612
0.00271465
0.00271374
0.00271245
0.0027114
0.00271067
0.00270879
0.00271023
0.00285415
0.00304359
0.00301336
0.00297841
0.00297238
0.00295862
0.00295863
0.00295064
0.00295158
0.00294606
0.00294708
0.002943
0.0029438
0.00294066
0.0029412
0.00293872
0.00293916
0.00293683
0.00293692
0.00294086
0.0101715
0.0104465
0.0104455
0.0104467
0.0104454
0.0104458
0.0104445
0.0104445
0.010443
0.0104428
0.0104416
0.0104414
0.0104406
0.0104406
0.0104402
0.0104403
0.0104406
0.01044
0.0104445
0.0104492
0.00492599
0.00469259
0.00453423
0.00447198
0.00444931
0.00444319
0.00443615
0.00443546
0.00443234
0.0044323
0.00443008
0.00443031
0.00442861
0.00442889
0.00442746
0.00442768
0.00442659
0.00442627
0.00443186
0.00443673
0.00308049
0.00306947
0.00301046
0.00296574
0.00294475
0.00293614
0.00292777
0.00292443
0.00291915
0.00291715
0.00291328
0.00291207
0.0029091
0.00290832
0.00290584
0.00290527
0.00290309
0.00290292
0.00290083
0.002908
0.00259962
0.00274964
0.00276428
0.00276232
0.00275893
0.00275665
0.00275349
0.00275139
0.0027483
0.00274653
0.00274371
0.00274229
0.00273998
0.00273892
0.00273702
0.00273618
0.00273446
0.00273387
0.0027319
0.0027364
0.0024892
0.00268851
0.00272387
0.00273426
0.00273593
0.00273803
0.00273722
0.00273733
0.00273632
0.00273596
0.00273465
0.00273416
0.00273265
0.00273248
0.00273118
0.0027311
0.0027298
0.00272983
0.00272825
0.00273122
0.00247411
0.00268046
0.00272044
0.00273404
0.00273752
0.00274152
0.00274186
0.00274376
0.00274371
0.00274457
0.00274418
0.00274457
0.00274399
0.00274446
0.00274369
0.00274431
0.00274351
0.00274397
0.0027431
0.00274559
0.0024694
0.00267613
0.00271672
0.00273108
0.00273539
0.0027403
0.00274143
0.00274444
0.00274521
0.00274715
0.00274749
0.00274861
0.00274878
0.00274986
0.00274995
0.00275109
0.00275103
0.00275196
0.00275162
0.00275441
0.0024717
0.00267655
0.00271699
0.00273147
0.00273618
0.00274158
0.00274321
0.00274689
0.00274822
0.00275097
0.00275187
0.00275373
0.00275434
0.00275592
0.00275676
0.00275834
0.00275896
0.0027602
0.00276062
0.00276325
0.0024712
0.00267528
0.00271541
0.0027297
0.00273443
0.00273992
0.00274172
0.00274566
0.00274725
0.00275038
0.00275161
0.00275395
0.00275488
0.00275681
0.00275807
0.00276003
0.00276116
0.00276267
0.00276347
0.00276649
0.00247227
0.00267559
0.00271557
0.0027298
0.00273454
0.00274006
0.00274192
0.00274594
0.00274763
0.00275091
0.00275227
0.00275483
0.00275591
0.00275801
0.00275947
0.00276161
0.00276298
0.00276462
0.00276572
0.00276877
0.00247227
0.00267559
0.00271557
0.0027298
0.00273454
0.00274006
0.00274192
0.00274594
0.00274763
0.00275091
0.00275227
0.00275483
0.00275591
0.00275801
0.00275947
0.00276161
0.00276299
0.00276463
0.00276572
0.00276879
0.0024712
0.00267528
0.00271541
0.0027297
0.00273443
0.00273992
0.00274172
0.00274566
0.00274725
0.00275038
0.00275161
0.00275395
0.00275488
0.00275681
0.00275807
0.00276003
0.00276116
0.00276268
0.00276348
0.00276653
0.0024717
0.00267655
0.00271699
0.00273147
0.00273618
0.00274158
0.00274321
0.00274689
0.00274822
0.00275097
0.00275187
0.00275372
0.00275435
0.00275592
0.00275676
0.00275834
0.00275897
0.0027602
0.00276064
0.00276328
0.0024694
0.00267613
0.00271672
0.00273108
0.00273539
0.0027403
0.00274143
0.00274444
0.00274521
0.00274715
0.00274749
0.0027486
0.00274879
0.00274985
0.00274996
0.00275109
0.00275106
0.00275196
0.0027517
0.00275444
0.00247411
0.00268046
0.00272044
0.00273404
0.00273752
0.00274152
0.00274187
0.00274376
0.00274371
0.00274457
0.00274418
0.00274456
0.002744
0.00274445
0.00274371
0.00274429
0.00274355
0.00274395
0.00274324
0.00274544
0.0024892
0.00268851
0.00272387
0.00273426
0.00273593
0.00273803
0.00273722
0.00273733
0.00273632
0.00273595
0.00273465
0.00273415
0.00273265
0.00273248
0.00273118
0.0027311
0.00272983
0.00272978
0.00272853
0.00273085
0.00259962
0.00274964
0.00276428
0.00276232
0.00275893
0.00275665
0.0027535
0.00275139
0.0027483
0.00274653
0.00274371
0.0027423
0.00273997
0.00273893
0.00273702
0.0027362
0.00273447
0.00273382
0.00273223
0.00273554
0.00308049
0.00306947
0.00301046
0.00296574
0.00294475
0.00293614
0.00292777
0.00292443
0.00291915
0.00291714
0.00291328
0.00291206
0.00290911
0.0029083
0.00290586
0.00290523
0.00290317
0.00290279
0.00290119
0.00290691
0.00492599
0.00469259
0.00453423
0.00447198
0.0044493
0.00444318
0.00443615
0.00443546
0.00443234
0.0044323
0.00443009
0.00443031
0.00442861
0.00442888
0.00442747
0.00442766
0.00442661
0.00442616
0.00443186
0.00443562
0.0101715
0.0104465
0.0104455
0.0104467
0.0104454
0.0104458
0.0104445
0.0104445
0.010443
0.0104428
0.0104416
0.0104415
0.0104406
0.0104406
0.0104402
0.0104404
0.0104404
0.0104402
0.0104438
0.0104513
0.0286443
0.0286562
0.0286542
0.0286502
0.0286483
0.0286453
0.0286445
0.0286424
0.028642
0.0286402
0.0286399
0.0286382
0.0286378
0.0286361
0.0286357
0.0286339
0.0286334
0.0286317
0.0286311
0.0286294
0.0286287
0.0286269
0.0286261
0.0286243
0.0286234
0.0286215
0.0286205
0.0286186
0.0286174
0.0286154
0.028614
0.0286119
0.0286103
0.028608
0.0286063
0.0286037
0.0286017
0.0285989
0.0285966
0.0285935
0.0285909
0.0285875
0.0285844
0.0285806
0.0285772
0.028573
0.0285691
0.0285645
0.0285603
0.0285553
0.0285506
0.0285453
0.0285402
0.0285345
0.0285291
0.0285232
0.0285176
0.0285115
0.0285056
0.0284994
0.0284934
0.0284871
0.028481
0.0284748
0.0284686
0.0284624
0.0284562
0.02845
0.0284438
0.0284377
0.0284314
0.0284253
0.028419
0.0284129
0.0284066
0.0284005
0.0283943
0.0283881
0.0283819
0.0283758
0.0283695
0.0283635
0.0283571
0.0283511
0.0283448
0.0283388
0.0283323
0.0283266
0.0283188
0.0283134
0.0162178
0.016282
0.0162783
0.0162773
0.0162743
0.0162731
0.0162703
0.0162691
0.016267
0.0162662
0.0162647
0.0162642
0.0162631
0.0162625
0.0162615
0.016261
0.01626
0.0162594
0.0162585
0.0162578
0.0162568
0.0162561
0.0162552
0.0162544
0.0162534
0.0162526
0.0162516
0.0162507
0.0162496
0.0162486
0.0162475
0.0162464
0.0162453
0.0162441
0.0162428
0.0162415
0.0162401
0.0162387
0.0162372
0.0162356
0.0162339
0.0162321
0.0162303
0.0162283
0.0162263
0.0162241
0.0162219
0.0162196
0.0162172
0.0162146
0.0162121
0.0162094
0.0162066
0.0162038
0.0162009
0.016198
0.0161951
0.0161921
0.016189
0.016186
0.016183
0.01618
0.0161769
0.0161739
0.0161708
0.0161678
0.0161647
0.0161618
0.0161586
0.0161557
0.0161525
0.0161496
0.0161464
0.0161434
0.0161402
0.0161372
0.016134
0.0161309
0.0161276
0.0161246
0.0161212
0.0161182
0.0161147
0.0161117
0.0161081
0.0161051
0.0161014
0.0160984
0.016093
0.0160895
0.0108793
0.0110205
0.0110126
0.0110124
0.011006
0.0110058
0.0109999
0.0109991
0.0109943
0.010994
0.0109905
0.0109906
0.0109878
0.0109878
0.0109854
0.0109853
0.0109831
0.0109829
0.0109808
0.0109805
0.0109785
0.0109782
0.0109763
0.0109758
0.010974
0.0109735
0.0109717
0.0109711
0.0109693
0.0109686
0.0109669
0.0109661
0.0109643
0.0109635
0.0109617
0.0109608
0.0109589
0.0109579
0.010956
0.0109549
0.010953
0.0109517
0.0109497
0.0109483
0.0109462
0.0109447
0.0109426
0.010941
0.0109387
0.010937
0.0109348
0.010933
0.0109307
0.0109288
0.0109265
0.0109246
0.0109223
0.0109205
0.0109182
0.0109163
0.0109141
0.0109123
0.0109101
0.0109084
0.0109063
0.0109046
0.0109025
0.0109009
0.0108988
0.0108972
0.0108952