/*--------------------------------*- C++ -*----------------------------------*\
  =========                 |
  \\      /  F ield         | OpenFOAM: The Open Source CFD Toolbox
   \\    /   O peration     | Website:  https://openfoam.org
    \\  /    A nd           | Version:  7
     \\/     M anipulation  |
\*---------------------------------------------------------------------------*/
FoamFile
{
    version     2.0;
    format      ascii;
    class       volVectorField;
    location    "0.805";
    object      U;
}
// * * * * * * * * * * * * * * * * * * * * * * * * * * * * * * * * * * * * * //

dimensions      [0 1 -1 0 0 0 0];

internalField   nonuniform List<vector> 
7920
(
(2.92846 0.10173 -32.3875)
(2.10134 -0.462907 -32.4464)
(1.38741 -0.617921 -32.4524)
(1.27839 -0.674543 -32.4663)
(1.04372 -0.691616 -32.4659)
(1.06965 -0.696683 -32.4732)
(0.929055 -0.700736 -32.47)
(0.974544 -0.700932 -32.4735)
(0.869645 -0.703427 -32.4694)
(0.914644 -0.703072 -32.4709)
(0.831212 -0.704493 -32.467)
(0.871999 -0.703808 -32.4678)
(0.803979 -0.704635 -32.465)
(0.839826 -0.703967 -32.4661)
(0.783632 -0.70426 -32.4649)
(0.81437 -0.704355 -32.4664)
(0.767152 -0.700458 -32.467)
(0.787581 -0.706924 -32.4675)
(0.754178 -0.648519 -32.4716)
(0.581561 -0.661383 -32.4627)
(4.40974 0.967728 -32.4349)
(4.3296 0.872958 -32.4867)
(3.6735 0.818569 -32.5003)
(3.52334 0.751492 -32.5252)
(3.12092 0.723958 -32.5365)
(3.11392 0.710707 -32.5502)
(2.84932 0.704371 -32.5517)
(2.88996 0.701013 -32.5551)
(2.69229 0.69886 -32.551)
(2.74333 0.697089 -32.5491)
(2.58628 0.695874 -32.5422)
(2.63672 0.694541 -32.5381)
(2.50844 0.693713 -32.532)
(2.5551 0.692659 -32.5292)
(2.44845 0.691986 -32.5273)
(2.49172 0.691902 -32.5267)
(2.3975 0.688993 -32.5303)
(2.45546 0.693527 -32.5278)
(2.33668 0.68408 -32.5437)
(2.60923 0.676884 -32.5078)
(4.75035 0.193221 -32.4392)
(5.25447 -0.229387 -32.4808)
(5.10639 -0.376017 -32.4811)
(5.21562 -0.495242 -32.5061)
(4.96772 -0.560869 -32.5176)
(5.0151 -0.598063 -32.541)
(4.79695 -0.622841 -32.5458)
(4.8365 -0.636842 -32.5559)
(4.65588 -0.647335 -32.5522)
(4.69288 -0.653911 -32.5541)
(4.54337 -0.659247 -32.5451)
(4.57742 -0.663138 -32.5393)
(4.45265 -0.666202 -32.5262)
(4.48311 -0.668902 -32.5173)
(4.37942 -0.670916 -32.5082)
(4.40317 -0.672273 -32.5023)
(4.32428 -0.674967 -32.5026)
(4.32055 -0.671848 -32.4971)
(4.29255 -0.672337 -32.5116)
(4.18936 -0.693888 -32.4825)
(4.75144 0.649525 -32.4494)
(5.28105 0.749972 -32.4874)
(5.3788 0.797383 -32.4849)
(5.68183 0.767791 -32.5045)
(5.62009 0.750024 -32.5159)
(5.78929 0.735761 -32.539)
(5.69185 0.725525 -32.5474)
(5.8008 0.717552 -32.558)
(5.70172 0.711411 -32.5573)
(5.77904 0.705771 -32.5602)
(5.68761 0.701751 -32.5556)
(5.74569 0.697547 -32.5509)
(5.66321 0.69501 -32.5387)
(5.70935 0.691572 -32.5249)
(5.63398 0.690748 -32.5106)
(5.67658 0.686651 -32.4972)
(5.60064 0.690006 -32.491)
(5.65889 0.682051 -32.4813)
(5.56372 0.697687 -32.4866)
(5.70333 0.707398 -32.456)
(4.74349 -0.088199 -32.4484)
(5.24448 -0.387479 -32.4865)
(5.39947 -0.480538 -32.4802)
(5.7583 -0.546854 -32.4997)
(5.76642 -0.583174 -32.5078)
(5.9965 -0.60354 -32.5316)
(5.9664 -0.618081 -32.5384)
(6.12864 -0.626194 -32.5503)
(6.08923 -0.633049 -32.548)
(6.21059 -0.637358 -32.5525)
(6.17018 -0.64147 -32.5483)
(6.26361 -0.644414 -32.5474)
(6.22419 -0.647476 -32.5361)
(6.2968 -0.649375 -32.5237)
(6.25974 -0.652911 -32.5057)
(6.31583 -0.651813 -32.4899)
(6.28601 -0.660649 -32.478)
(6.32106 -0.650339 -32.4665)
(6.31042 -0.673662 -32.4655)
(6.30751 -0.696433 -32.4328)
(4.73098 0.352185 -32.4521)
(5.18779 0.557501 -32.4908)
(5.35284 0.63621 -32.4843)
(5.72717 0.656655 -32.5039)
(5.75924 0.667177 -32.5114)
(6.01324 0.670697 -32.5352)
(6.01015 0.673018 -32.5415)
(6.19717 0.673195 -32.5533)
(6.18536 0.673453 -32.5504)
(6.3305 0.67264 -32.5549)
(6.31656 0.67242 -32.5509)
(6.43174 0.671455 -32.5513)
(6.41635 0.671433 -32.5412)
(6.50835 0.670189 -32.5297)
(6.49141 0.671569 -32.5112)
(6.56647 0.668059 -32.4941)
(6.5489 0.675523 -32.4803)
(6.61317 0.664528 -32.4671)
(6.59774 0.688586 -32.4643)
(6.66203 0.71087 -32.429)
(4.73098 -0.352185 -32.4521)
(5.18779 -0.557501 -32.4908)
(5.35284 -0.63621 -32.4843)
(5.72717 -0.656654 -32.5039)
(5.75924 -0.667177 -32.5114)
(6.01324 -0.670696 -32.5352)
(6.01015 -0.673017 -32.5415)
(6.19717 -0.673191 -32.5533)
(6.18537 -0.673448 -32.5504)
(6.3305 -0.672632 -32.5549)
(6.31656 -0.672403 -32.5509)
(6.43174 -0.671433 -32.5513)
(6.41638 -0.671385 -32.5412)
(6.50833 -0.670107 -32.5298)
(6.49151 -0.671468 -32.5111)
(6.5664 -0.667736 -32.4941)
(6.54917 -0.67536 -32.4802)
(6.61298 -0.663485 -32.4672)
(6.59815 -0.68804 -32.4642)
(6.66173 -0.708878 -32.4291)
(4.74349 0.0881991 -32.4484)
(5.24448 0.387479 -32.4865)
(5.39947 0.480538 -32.4802)
(5.7583 0.546854 -32.4997)
(5.76642 0.583175 -32.5078)
(5.99651 0.603542 -32.5316)
(5.96639 0.618083 -32.5384)
(6.12864 0.626197 -32.5503)
(6.08923 0.633055 -32.548)
(6.2106 0.637364 -32.5525)
(6.17017 0.641488 -32.5483)
(6.26365 0.64443 -32.5475)
(6.22417 0.647528 -32.536)
(6.2969 0.649438 -32.5239)
(6.25971 0.653025 -32.5055)
(6.31611 0.65209 -32.4902)
(6.28607 0.660839 -32.4776)
(6.3218 0.651335 -32.4671)
(6.31104 0.674184 -32.4647)
(6.30945 0.698624 -32.4337)
(4.75144 -0.649525 -32.4494)
(5.28105 -0.749972 -32.4874)
(5.3788 -0.797383 -32.4849)
(5.68183 -0.76779 -32.5045)
(5.62009 -0.750024 -32.5159)
(5.78929 -0.735759 -32.539)
(5.69186 -0.725524 -32.5474)
(5.80081 -0.717548 -32.5581)
(5.70173 -0.711408 -32.5572)
(5.77905 -0.705762 -32.5602)
(5.68762 -0.701739 -32.5555)
(5.74573 -0.697524 -32.551)
(5.66326 -0.694977 -32.5385)
(5.70946 -0.691491 -32.5252)
(5.63413 -0.690687 -32.51)
(5.67681 -0.686355 -32.498)
(5.60121 -0.689948 -32.4896)
(5.65935 -0.681142 -32.4835)
(5.56532 -0.697411 -32.4833)
(5.7045 -0.705795 -32.4605)
(4.75035 -0.193221 -32.4392)
(5.25447 0.229387 -32.4808)
(5.10639 0.376017 -32.4811)
(5.21562 0.495242 -32.5061)
(4.96772 0.560869 -32.5176)
(5.0151 0.598064 -32.541)
(4.79696 0.622842 -32.5457)
(4.83651 0.636843 -32.5559)
(4.65588 0.64734 -32.5521)
(4.69291 0.653913 -32.5542)
(4.54338 0.659262 -32.545)
(4.57749 0.66314 -32.5394)
(4.45266 0.666244 -32.5259)
(4.48334 0.668916 -32.5178)
(4.37949 0.671012 -32.5074)
(4.40378 0.67238 -32.5036)
(4.32468 0.675135 -32.5001)
(4.32215 0.672385 -32.5017)
(4.29417 0.672723 -32.5033)
(4.19443 0.695154 -32.4966)
(4.40974 -0.967728 -32.4349)
(4.3296 -0.872959 -32.4867)
(3.6735 -0.818569 -32.5003)
(3.52334 -0.751492 -32.5252)
(3.12092 -0.723958 -32.5365)
(3.11392 -0.710707 -32.5502)
(2.84932 -0.704371 -32.5517)
(2.88997 -0.701011 -32.5551)
(2.6923 -0.698859 -32.551)
(2.74335 -0.697084 -32.5492)
(2.5863 -0.695871 -32.5422)
(2.63678 -0.694525 -32.5382)
(2.50849 -0.693706 -32.5318)
(2.55527 -0.692604 -32.5295)
(2.44864 -0.691985 -32.5268)
(2.4921 -0.691705 -32.5276)
(2.39828 -0.689093 -32.5285)
(2.45605 -0.692966 -32.5317)
(2.33939 -0.684435 -32.5341)
(2.60942 -0.676999 -32.5315)
(2.92846 -0.101729 -32.3875)
(2.10134 0.462907 -32.4464)
(1.38741 0.617921 -32.4524)
(1.27839 0.674543 -32.4663)
(1.04372 0.691617 -32.4659)
(1.06965 0.696683 -32.4732)
(0.929057 0.700737 -32.47)
(0.974547 0.700931 -32.4735)
(0.869649 0.703429 -32.4694)
(0.914653 0.703069 -32.471)
(0.831221 0.704497 -32.467)
(0.872031 0.703797 -32.4679)
(0.803999 0.704645 -32.465)
(0.83992 0.70393 -32.4662)
(0.783705 0.704296 -32.4648)
(0.814603 0.704238 -32.4666)
(0.767497 0.70062 -32.4665)
(0.78806 0.706682 -32.4686)
(0.755613 0.649315 -32.4689)
(0.583898 0.662181 -32.4709)
(4.32334 0.566026 0.00673916)
(3.07438 0.847819 0.00427136)
(2.30771 0.869789 0.00554684)
(1.73879 0.853385 0.00407242)
(1.59988 0.856569 0.00522013)
(1.39515 0.868756 0.00405282)
(1.38825 0.87885 0.0050091)
(1.2659 0.886924 0.00402922)
(1.27289 0.891043 0.00481156)
(1.18637 0.894532 0.00398554)
(1.19429 0.896009 0.00462751)
(1.13103 0.897805 0.00393468)
(1.13726 0.898358 0.00446266)
(1.08907 0.899656 0.00388332)
(1.09396 0.89941 0.00431703)
(1.05386 0.901707 0.00383231)
(1.0609 0.894331 0.00418967)
(1.03594 0.915901 0.00377949)
(0.995097 0.791826 0.00410431)
(1.43377 0.82064 0.00367637)
(4.75752 -0.100062 0.00416216)
(4.60707 -0.277417 0.00212805)
(4.51769 -0.47819 0.00343372)
(4.13156 -0.645098 0.00199243)
(3.98622 -0.74233 0.00314904)
(3.70446 -0.798092 0.00198676)
(3.62767 -0.825851 0.00294801)
(3.43701 -0.842933 0.00196995)
(3.39419 -0.853117 0.00275584)
(3.25795 -0.860722 0.00193023)
(3.22936 -0.865872 0.00257423)
(3.12766 -0.870105 0.00188181)
(3.10554 -0.872884 0.00241136)
(3.02627 -0.875992 0.00183259)
(3.00906 -0.876621 0.00226698)
(2.9406 -0.8812 0.0017836)
(2.93774 -0.87769 0.00213653)
(2.84898 -0.88558 0.00173483)
(2.9244 -0.888063 0.00199223)
(2.50903 -0.896615 0.00161825)
(4.63627 0.435409 0.00546088)
(4.82229 0.871919 0.00350418)
(5.13544 0.970349 0.00469244)
(5.07234 0.961268 0.00321155)
(5.13097 0.943254 0.00434314)
(4.99119 0.930165 0.00316898)
(4.99317 0.920812 0.00412553)
(4.86932 0.914929 0.00314435)
(4.85936 0.908407 0.00392903)
(4.75814 0.904743 0.0031012)
(4.74309 0.900081 0.00374341)
(4.66078 0.897856 0.00304799)
(4.64296 0.894742 0.00357532)
(4.57627 0.893187 0.00299437)
(4.55559 0.891554 0.00342743)
(4.50565 0.88935 0.00294165)
(4.47239 0.888542 0.0032993)
(4.46294 0.887603 0.00288785)
(4.37928 0.850399 0.00321461)
(4.49387 0.8897 0.00280857)
(4.57434 -0.201842 0.00428173)
(4.69548 -0.398521 0.00254406)
(5.12398 -0.519536 0.0037364)
(5.22122 -0.624824 0.00228372)
(5.43589 -0.693202 0.00341568)
(5.4336 -0.740747 0.00224508)
(5.5417 -0.767643 0.00320442)
(5.51181 -0.787071 0.00222702)
(5.57185 -0.799665 0.00301532)
(5.53624 -0.81007 0.0021909)
(5.56968 -0.81774 0.00283573)
(5.53437 -0.824341 0.0021428)
(5.55165 -0.829575 0.00267197)
(5.51837 -0.83419 0.00209304)
(5.52665 -0.838167 0.00252641)
(5.49414 -0.841165 0.00204259)
(5.50162 -0.847897 0.00239285)
(5.45359 -0.843608 0.00198977)
(5.48755 -0.877813 0.00224441)
(5.2894 -0.900097 0.00189846)
(4.58747 0.341598 0.00493529)
(4.69154 0.688858 0.00323759)
(5.10013 0.804082 0.00438302)
(5.21835 0.845934 0.00291676)
(5.47358 0.863318 0.00403635)
(5.52071 0.873256 0.00285928)
(5.68012 0.877094 0.00381562)
(5.70313 0.879586 0.00283613)
(5.81224 0.878788 0.00362346)
(5.82513 0.878802 0.00279782)
(5.90156 0.876991 0.00344185)
(5.9081 0.876452 0.00274774)
(5.96136 0.874932 0.00327644)
(5.96394 0.874082 0.00269668)
(5.99973 0.873918 0.00313028)
(6.00313 0.870956 0.00264506)
(6.02003 0.875536 0.0029994)
(6.03417 0.866703 0.00258919)
(6.02645 0.87207 0.00289502)
(6.02531 0.917496 0.00252252)
(4.58141 -0.269238 0.00456427)
(4.66327 -0.539761 0.00293084)
(5.06662 -0.654508 0.00407529)
(5.18615 -0.72574 0.00261584)
(5.453 -0.766637 0.00373336)
(5.51549 -0.794556 0.002556)
(5.69321 -0.809342 0.00351217)
(5.7359 -0.820107 0.00253301)
(5.86537 -0.825831 0.0033209)
(5.89933 -0.831064 0.00249583)
(5.99645 -0.834084 0.00314029)
(6.02347 -0.837266 0.00244679)
(6.09657 -0.839449 0.00297608)
(6.11717 -0.841375 0.00239712)
(6.17256 -0.844143 0.00283108)
(6.18781 -0.843289 0.00234681)
(6.23048 -0.852034 0.00269825)
(6.23406 -0.841866 0.00229159)
(6.27706 -0.872589 0.00256794)
(6.19134 -0.907612 0.00221953)
(4.58141 0.269238 0.00456427)
(4.66327 0.539761 0.00293084)
(5.06662 0.654508 0.00407529)
(5.18615 0.725741 0.00261584)
(5.453 0.766637 0.00373336)
(5.5155 0.794558 0.002556)
(5.69321 0.809344 0.00351217)
(5.7359 0.82011 0.002533)
(5.86536 0.825836 0.0033209)
(5.89933 0.831073 0.00249582)
(5.99644 0.834101 0.00314029)
(6.02349 0.837294 0.00244677)
(6.09655 0.839496 0.00297609)
(6.11723 0.84147 0.00239706)
(6.17249 0.844264 0.00283113)
(6.188 0.843593 0.00234663)
(6.23035 0.852391 0.00269848)
(6.23474 0.842735 0.00229114)
(6.27729 0.873662 0.00256909)
(6.19255 0.909912 0.00221891)
(4.58747 -0.341599 0.00493529)
(4.69154 -0.688858 0.00323759)
(5.10013 -0.804082 0.00438302)
(5.21835 -0.845934 0.00291676)
(5.47358 -0.863318 0.00403635)
(5.52071 -0.873254 0.00285928)
(5.68012 -0.877093 0.00381562)
(5.70314 -0.879582 0.00283613)
(5.81224 -0.878784 0.00362346)
(5.82513 -0.878792 0.00279783)
(5.90157 -0.876977 0.00344184)
(5.90812 -0.87642 0.00274776)
(5.9614 -0.874896 0.00327641)
(5.96396 -0.873975 0.00269675)
(5.99987 -0.873832 0.00313018)
(6.00313 -0.870635 0.00264525)
(6.02047 -0.875299 0.00299903)
(6.034 -0.865932 0.00258959)
(6.02734 -0.871299 0.0028938)
(6.02542 -0.915384 0.00252267)
(4.57434 0.201842 0.00428173)
(4.69549 0.398521 0.00254406)
(5.12398 0.519536 0.0037364)
(5.22122 0.624824 0.00228372)
(5.43589 0.693202 0.00341568)
(5.4336 0.740748 0.00224509)
(5.5417 0.767645 0.00320442)
(5.51182 0.787073 0.00222702)
(5.57184 0.79967 0.00301531)
(5.53626 0.810076 0.0021909)
(5.56967 0.817757 0.00283573)
(5.53442 0.824359 0.00214279)
(5.55165 0.829623 0.00267197)
(5.51852 0.834251 0.002093)
(5.52669 0.838298 0.00252639)
(5.49459 0.84137 0.00204251)
(5.50185 0.84829 0.0023929)
(5.45496 0.844311 0.00198955)
(5.48869 0.878978 0.00224534)
(5.29326 0.902038 0.00189794)
(4.63627 -0.435409 0.00546088)
(4.82229 -0.871919 0.00350418)
(5.13544 -0.970349 0.00469244)
(5.07234 -0.961267 0.00321156)
(5.13097 -0.943254 0.00434315)
(4.99119 -0.930164 0.00316899)
(4.99317 -0.920812 0.00412552)
(4.86933 -0.914926 0.00314436)
(4.85936 -0.908405 0.00392902)
(4.75817 -0.904735 0.00310121)
(4.7431 -0.900074 0.00374339)
(4.66084 -0.89783 0.00304802)
(4.643 -0.894725 0.00357526)
(4.57643 -0.8931 0.00299445)
(4.55579 -0.891527 0.00342725)
(4.50602 -0.889095 0.00294193)
(4.47309 -0.888503 0.00329871)
(4.46379 -0.887086 0.00288851)
(4.38107 -0.850247 0.00321284)
(4.49644 -0.888818 0.002809)
(4.75752 0.100062 0.00416216)
(4.60707 0.277417 0.00212805)
(4.51769 0.47819 0.00343373)
(4.13156 0.645098 0.00199244)
(3.98622 0.74233 0.00314905)
(3.70447 0.798092 0.00198676)
(3.62767 0.825853 0.00294801)
(3.43702 0.842933 0.00196996)
(3.39419 0.853121 0.00275583)
(3.25797 0.860721 0.00193023)
(3.22937 0.865883 0.00257422)
(3.12774 0.870102 0.00188181)
(3.10558 0.872916 0.00241134)
(3.0265 0.875984 0.0018326)
(3.00921 0.876718 0.00226694)
(2.94125 0.881178 0.00178362)
(2.93821 0.878013 0.00213645)
(2.8511 0.885666 0.00173485)
(2.9253 0.889082 0.00199247)
(2.51795 0.898102 0.00161858)
(4.32334 -0.566026 0.00673919)
(3.07438 -0.847819 0.0042714)
(2.30771 -0.869789 0.00554688)
(1.73879 -0.853385 0.00407247)
(1.59988 -0.85657 0.00522017)
(1.39515 -0.868756 0.00405287)
(1.38825 -0.878851 0.00500913)
(1.26591 -0.886922 0.00402926)
(1.2729 -0.891043 0.0048116)
(1.18639 -0.894528 0.00398559)
(1.1943 -0.896012 0.00462754)
(1.13107 -0.897792 0.00393473)
(1.13731 -0.898368 0.00446266)
(1.08919 -0.899609 0.00388342)
(1.09413 -0.899458 0.00431695)
(1.05415 -0.901555 0.00383257)
(1.06145 -0.89456 0.00418929)
(1.03659 -0.915588 0.00378006)
(0.996868 -0.793095 0.00410287)
(1.43414 -0.822039 0.00367911)
(4.37648 0.0973464 0.00127481)
(3.96069 0.149146 0.00181816)
(3.42114 0.163132 0.000863795)
(2.93838 0.156778 0.00140753)
(2.52124 0.145004 0.000884498)
(2.21343 0.136174 0.00130189)
(1.98687 0.131155 0.000957466)
(1.83256 0.130886 0.00122058)
(1.72853 0.133461 0.000988463)
(1.65287 0.138023 0.00114396)
(1.60488 0.143049 0.00100067)
(1.56132 0.148329 0.00108473)
(1.53608 0.152816 0.00101044)
(1.50628 0.157535 0.0010452)
(1.4896 0.160134 0.00102441)
(1.47021 0.16538 0.00102202)
(1.45096 0.163856 0.00104736)
(1.45212 0.173862 0.00100968)
(1.40778 0.160012 0.00106289)
(1.47276 0.166348 0.00107988)
(4.53976 0.08808 0.00306765)
(4.67269 0.119785 0.00379092)
(4.71174 0.121431 0.00283173)
(4.69611 0.0951778 0.00335286)
(4.61439 0.0566884 0.0028076)
(4.51324 0.013601 0.00321266)
(4.40012 -0.0249585 0.00286027)
(4.28913 -0.0579893 0.00312005)
(4.18777 -0.0829501 0.0028844)
(4.09021 -0.102709 0.00303778)
(4.00765 -0.117006 0.00289162)
(3.92596 -0.128504 0.00297389)
(3.86029 -0.136998 0.00289795)
(3.79311 -0.144114 0.00293171)
(3.74131 -0.149641 0.00291107)
(3.68693 -0.154223 0.002908)
(3.64548 -0.158393 0.00293798)
(3.60377 -0.16129 0.00289533)
(3.56716 -0.165684 0.00299339)
(3.54062 -0.173752 0.00300002)
(4.51506 0.045888 0.00163208)
(4.65078 0.110642 0.00223882)
(4.78032 0.163359 0.00131018)
(4.92603 0.192102 0.00183358)
(5.03128 0.20253 0.00129323)
(5.11186 0.203261 0.00170447)
(5.15826 0.199855 0.0013605)
(5.1821 0.196733 0.00162604)
(5.19089 0.194872 0.00139671)
(5.18557 0.194424 0.00155321)
(5.17695 0.194748 0.00141055)
(5.15919 0.195545 0.00149381)
(5.14282 0.196016 0.00141932)
(5.12171 0.197077 0.00145326)
(5.10124 0.196227 0.00143203)
(5.08314 0.198768 0.00142987)
(5.05714 0.193735 0.00145183)
(5.04915 0.202589 0.00142342)
(5.01203 0.184351 0.00145101)
(5.01981 0.205475 0.00148622)
(4.5111 0.0443143 0.00265101)
(4.61623 0.0510558 0.00336828)
(4.73774 0.0469445 0.00246542)
(4.8947 0.0295079 0.00299527)
(5.03265 0.00723597 0.00244162)
(5.16233 -0.0181897 0.00284166)
(5.26606 -0.0423296 0.00248714)
(5.35144 -0.0641233 0.00274783)
(5.42151 -0.0818442 0.00251421)
(5.47664 -0.096418 0.00266911)
(5.52575 -0.107886 0.00252408)
(5.56311 -0.117114 0.00260629)
(5.59922 -0.12491 0.00252995)
(5.62606 -0.130735 0.00256296)
(5.65411 -0.13704 0.00254084)
(5.67419 -0.139976 0.00253744)
(5.69755 -0.146788 0.00256252)
(5.71059 -0.146497 0.00252925)
(5.7337 -0.155136 0.00261686)
(5.73031 -0.155834 0.00262213)
(4.51222 0.016637 0.00195014)
(4.61742 0.0557437 0.00262146)
(4.73191 0.0916384 0.00172765)
(4.88276 0.117466 0.00224779)
(5.01846 0.133927 0.00169118)
(5.15206 0.145066 0.00209091)
(5.26464 0.152867 0.00173901)
(5.36341 0.159616 0.00200206)
(5.44981 0.165537 0.00177127)
(5.52387 0.171078 0.00192751)
(5.59376 0.175841 0.00178438)
(5.65312 0.180119 0.00186756)
(5.71271 0.183326 0.00179297)
(5.76261 0.186617 0.001827)
(5.81619 0.187826 0.00180592)
(5.85806 0.191672 0.00180371)
(5.91067 0.188889 0.00182466)
(5.93867 0.197761 0.00179957)
(6.00253 0.184586 0.00183498)
(5.99677 0.208335 0.00186776)
(4.51096 0.0119669 0.00228331)
(4.60955 -0.00395833 0.00298402)
(4.72261 -0.0233712 0.00209829)
(4.87171 -0.0448737 0.00262475)
(5.00651 -0.0640631 0.00206703)
(5.13997 -0.0820085 0.0024653)
(5.25367 -0.0976667 0.00211101)
(5.35477 -0.111543 0.00237306)
(5.44485 -0.123084 0.00214115)
(5.52344 -0.132801 0.00229696)
(5.59928 -0.140724 0.00215309)
(5.66467 -0.147158 0.00223592)
(5.73236 -0.152596 0.00216092)
(5.7888 -0.156743 0.00219469)
(5.85312 -0.160703 0.00217365)
(5.90025 -0.163345 0.00217106)
(5.96802 -0.16609 0.00219395)
(5.99659 -0.168982 0.00216716)
(6.08329 -0.168056 0.00223072)
(6.06899 -0.178269 0.00224614)
(4.51096 -0.011967 0.00228331)
(4.60955 0.0039587 0.00298402)
(4.72261 0.0233709 0.00209829)
(4.87171 0.0448745 0.00262475)
(5.00651 0.064063 0.00206703)
(5.13997 0.0820105 0.0024653)
(5.25367 0.0976676 0.00211101)
(5.35477 0.111547 0.00237306)
(5.44484 0.123089 0.00214115)
(5.52344 0.13281 0.00229696)
(5.59928 0.140739 0.00215309)
(5.66468 0.147189 0.00223593)
(5.73236 0.152631 0.0021609)
(5.78881 0.156849 0.00219474)
(5.85312 0.160772 0.00217359)
(5.90027 0.163673 0.0021712)
(5.96805 0.166271 0.00219362)
(5.99667 0.169798 0.00216743)
(6.08342 0.168794 0.00222881)
(6.06927 0.179927 0.00224668)
(4.51222 -0.0166371 0.00195014)
(4.61742 -0.0557434 0.00262146)
(4.73191 -0.0916387 0.00172765)
(4.88276 -0.117465 0.00224779)
(5.01846 -0.133928 0.00169117)
(5.15206 -0.145064 0.00209091)
(5.26464 -0.152866 0.00173901)
(5.36341 -0.159612 0.00200206)
(5.44981 -0.165533 0.00177128)
(5.52387 -0.171068 0.00192751)
(5.59376 -0.175827 0.00178438)
(5.65313 -0.180088 0.00186754)
(5.71273 -0.183293 0.00179299)
(5.76261 -0.186512 0.00182695)
(5.81627 -0.187763 0.00180598)
(5.85806 -0.191349 0.00180357)
(5.91089 -0.188725 0.00182491)
(5.93871 -0.196971 0.0017993)
(6.00302 -0.183908 0.00183648)
(5.99707 -0.206806 0.00186722)
(4.5111 -0.0443144 0.00265101)
(4.61623 -0.0510555 0.00336828)
(4.73774 -0.0469447 0.00246542)
(4.8947 -0.0295072 0.00299527)
(5.03265 -0.00723605 0.00244162)
(5.16233 0.0181916 0.00284166)
(5.26606 0.0423303 0.00248714)
(5.35145 0.0641271 0.00274783)
(5.4215 0.0818484 0.00251421)
(5.47665 0.0964268 0.00266912)
(5.52574 0.107901 0.00252407)
(5.56314 0.11714 0.0026063)
(5.59924 0.124944 0.00252992)
(5.62612 0.130827 0.002563)
(5.65419 0.137107 0.00254075)
(5.67434 0.140267 0.00253756)
(5.69785 0.146953 0.0025621)
(5.71099 0.147243 0.00252951)
(5.73466 0.155793 0.00261494)
(5.73156 0.15739 0.00262227)
(4.51506 -0.045888 0.00163207)
(4.65078 -0.110641 0.00223882)
(4.78032 -0.163359 0.00131018)
(4.92603 -0.192101 0.00183358)
(5.03128 -0.202531 0.00129323)
(5.11186 -0.203259 0.00170447)
(5.15825 -0.199855 0.00136049)
(5.18211 -0.196729 0.00162605)
(5.19088 -0.19487 0.00139671)
(5.1856 -0.194415 0.00155322)
(5.17693 -0.194738 0.00141054)
(5.15927 -0.195518 0.00149381)
(5.14283 -0.195992 0.00141932)
(5.12187 -0.196991 0.00145326)
(5.10135 -0.196187 0.00143203)
(5.0835 -0.198507 0.00142982)
(5.05761 -0.193643 0.00145185)
(5.04997 -0.201972 0.00142337)
(5.01351 -0.183928 0.00145158)
(5.02199 -0.204477 0.00148612)
(4.53976 -0.08808 0.00306765)
(4.67269 -0.119785 0.00379092)
(4.71174 -0.12143 0.00283173)
(4.69612 -0.0951777 0.00335286)
(4.61439 -0.0566881 0.0028076)
(4.51324 -0.0136003 0.00321267)
(4.40011 0.0249596 0.00286027)
(4.28914 0.0579908 0.00312007)
(4.18776 0.0829539 0.00288438)
(4.09025 0.102712 0.00303782)
(4.00764 0.117017 0.00289157)
(3.92608 0.128514 0.00297396)
(3.86029 0.137023 0.00289783)
(3.79341 0.144154 0.00293187)
(3.74139 0.149689 0.00291079)
(3.68764 0.15436 0.0029084)
(3.64591 0.158501 0.00293712)
(3.60553 0.161659 0.00289648)
(3.5684 0.166084 0.00299036)
(3.54549 0.174538 0.00300285)
(4.37648 -0.0973464 0.00127481)
(3.96069 -0.149146 0.00181816)
(3.42114 -0.163132 0.000863797)
(2.93838 -0.156778 0.00140753)
(2.52124 -0.145004 0.000884501)
(2.21344 -0.136174 0.00130189)
(1.98687 -0.131155 0.000957465)
(1.83257 -0.130885 0.00122058)
(1.72854 -0.13346 0.000988459)
(1.6529 -0.138021 0.00114395)
(1.6049 -0.143047 0.00100066)
(1.5614 -0.148324 0.00108472)
(1.53614 -0.152813 0.00101043)
(1.50648 -0.157517 0.0010452)
(1.48984 -0.160138 0.00102436)
(1.47065 -0.165321 0.00102206)
(1.45174 -0.163884 0.00104717)
(1.45317 -0.173736 0.00100986)
(1.40955 -0.160084 0.00106223)
(1.47698 -0.166534 0.00108094)
(4.37648 0.0973464 -0.00127487)
(3.96069 0.149146 -0.00181822)
(3.42114 0.163132 -0.00086386)
(2.93838 0.156778 -0.00140759)
(2.52124 0.145004 -0.000884563)
(2.21343 0.136174 -0.00130195)
(1.98687 0.131155 -0.000957528)
(1.83256 0.130886 -0.00122064)
(1.72853 0.133461 -0.000988523)
(1.65287 0.138023 -0.00114401)
(1.60488 0.143049 -0.00100073)
(1.56132 0.148329 -0.00108478)
(1.53608 0.152816 -0.0010105)
(1.50628 0.157535 -0.00104526)
(1.4896 0.160134 -0.00102447)
(1.47021 0.16538 -0.00102209)
(1.45096 0.163856 -0.00104743)
(1.45212 0.173862 -0.00100974)
(1.40777 0.160012 -0.00106296)
(1.47276 0.166347 -0.00107994)
(4.53976 0.08808 -0.00306772)
(4.67269 0.119785 -0.00379098)
(4.71174 0.121431 -0.00283179)
(4.69611 0.0951778 -0.00335292)
(4.61439 0.0566884 -0.00280767)
(4.51324 0.0136009 -0.00321273)
(4.40012 -0.0249586 -0.00286034)
(4.28913 -0.0579895 -0.00312012)
(4.18777 -0.0829502 -0.00288446)
(4.09021 -0.102709 -0.00303785)
(4.00765 -0.117006 -0.00289168)
(3.92596 -0.128504 -0.00297395)
(3.86029 -0.136998 -0.00289801)
(3.79311 -0.144114 -0.00293177)
(3.74131 -0.149642 -0.00291113)
(3.68693 -0.154223 -0.00290806)
(3.64548 -0.158393 -0.00293804)
(3.60377 -0.16129 -0.0028954)
(3.56715 -0.165684 -0.00299346)
(3.54062 -0.173752 -0.00300009)
(4.51506 0.045888 -0.00163214)
(4.65078 0.110642 -0.00223888)
(4.78032 0.163359 -0.00131024)
(4.92603 0.192102 -0.00183364)
(5.03128 0.20253 -0.00129329)
(5.11186 0.203261 -0.00170453)
(5.15826 0.199855 -0.00136056)
(5.1821 0.196733 -0.0016261)
(5.19089 0.194873 -0.00139678)
(5.18557 0.194424 -0.00155327)
(5.17695 0.194748 -0.00141061)
(5.15919 0.195545 -0.00149387)
(5.14282 0.196016 -0.00141939)
(5.12171 0.197078 -0.00145333)
(5.10124 0.196227 -0.0014321)
(5.08314 0.198768 -0.00142993)
(5.05714 0.193735 -0.0014519)
(5.04915 0.202589 -0.00142348)
(5.01203 0.184351 -0.00145108)
(5.01981 0.205475 -0.00148628)
(4.5111 0.0443143 -0.00265107)
(4.61623 0.0510558 -0.00336835)
(4.73774 0.0469445 -0.00246548)
(4.8947 0.0295079 -0.00299533)
(5.03265 0.00723586 -0.00244168)
(5.16233 -0.0181899 -0.00284172)
(5.26606 -0.0423298 -0.0024872)
(5.35144 -0.0641234 -0.00274789)
(5.42151 -0.0818443 -0.00251428)
(5.47664 -0.0964181 -0.00266918)
(5.52575 -0.107886 -0.00252414)
(5.56311 -0.117114 -0.00260635)
(5.59922 -0.12491 -0.00253001)
(5.62606 -0.130735 -0.00256303)
(5.65411 -0.13704 -0.00254091)
(5.67419 -0.139976 -0.00253751)
(5.69755 -0.146788 -0.00256258)
(5.71059 -0.146497 -0.00252931)
(5.7337 -0.155136 -0.00261692)
(5.7303 -0.155834 -0.00262219)
(4.51222 0.016637 -0.0019502)
(4.61742 0.0557438 -0.00262152)
(4.73191 0.0916384 -0.00172771)
(4.88276 0.117466 -0.00224785)
(5.01846 0.133927 -0.00169124)
(5.15206 0.145066 -0.00209097)
(5.26464 0.152867 -0.00173907)
(5.36341 0.159616 -0.00200213)
(5.44981 0.165537 -0.00177134)
(5.52387 0.171078 -0.00192758)
(5.59376 0.175841 -0.00178444)
(5.65312 0.180119 -0.00186762)
(5.71271 0.183326 -0.00179304)
(5.76261 0.186618 -0.00182706)
(5.81619 0.187826 -0.00180599)
(5.85806 0.191672 -0.00180378)
(5.91067 0.188889 -0.00182472)
(5.93867 0.197761 -0.00179963)
(6.00253 0.184586 -0.00183505)
(5.99676 0.208335 -0.00186782)
(4.51096 0.0119669 -0.00228337)
(4.60955 -0.00395835 -0.00298409)
(4.72261 -0.0233712 -0.00209835)
(4.87171 -0.0448737 -0.00262481)
(5.00651 -0.0640632 -0.0020671)
(5.13997 -0.0820087 -0.00246536)
(5.25367 -0.0976668 -0.00211108)
(5.35477 -0.111544 -0.00237312)
(5.44485 -0.123084 -0.00214121)
(5.52344 -0.132801 -0.00229702)
(5.59928 -0.140724 -0.00215315)
(5.66467 -0.147158 -0.00223598)
(5.73236 -0.152596 -0.00216098)
(5.7888 -0.156743 -0.00219476)
(5.85312 -0.160703 -0.00217372)
(5.90025 -0.163345 -0.00217112)
(5.96802 -0.16609 -0.00219402)
(5.99659 -0.168982 -0.00216722)
(6.08329 -0.168056 -0.00223078)
(6.06899 -0.178269 -0.00224621)
(4.51096 -0.011967 -0.00228337)
(4.60955 0.00395871 -0.00298409)
(4.72261 0.0233709 -0.00209835)
(4.87171 0.0448745 -0.00262481)
(5.00651 0.064063 -0.0020671)
(5.13997 0.0820104 -0.00246536)
(5.25367 0.0976675 -0.00211107)
(5.35477 0.111547 -0.00237313)
(5.44484 0.123089 -0.00214121)
(5.52344 0.13281 -0.00229702)
(5.59928 0.140739 -0.00215315)
(5.66468 0.147189 -0.002236)
(5.73236 0.152631 -0.00216096)
(5.78881 0.156849 -0.00219481)
(5.85312 0.160772 -0.00217365)
(5.90027 0.163673 -0.00217127)
(5.96805 0.166271 -0.00219368)
(5.99667 0.169799 -0.0021675)
(6.08342 0.168794 -0.00222887)
(6.06927 0.179927 -0.00224675)
(4.51222 -0.0166371 -0.0019502)
(4.61742 -0.0557434 -0.00262152)
(4.73191 -0.0916387 -0.00172771)
(4.88276 -0.117465 -0.00224785)
(5.01846 -0.133928 -0.00169124)
(5.15206 -0.145064 -0.00209097)
(5.26464 -0.152866 -0.00173907)
(5.36341 -0.159612 -0.00200212)
(5.44981 -0.165533 -0.00177134)
(5.52387 -0.171068 -0.00192757)
(5.59376 -0.175827 -0.00178445)
(5.65312 -0.180088 -0.0018676)
(5.71273 -0.183293 -0.00179305)
(5.76261 -0.186512 -0.00182701)
(5.81627 -0.187762 -0.00180604)
(5.85806 -0.191349 -0.00180363)
(5.91089 -0.188724 -0.00182497)
(5.93871 -0.196971 -0.00179937)
(6.00302 -0.183908 -0.00183654)
(5.99707 -0.206806 -0.00186728)
(4.5111 -0.0443144 -0.00265107)
(4.61623 -0.0510555 -0.00336835)
(4.73774 -0.0469447 -0.00246548)
(4.8947 -0.0295072 -0.00299534)
(5.03265 -0.00723608 -0.00244168)
(5.16233 0.0181915 -0.00284172)
(5.26606 0.0423303 -0.0024872)
(5.35145 0.0641271 -0.0027479)
(5.4215 0.0818485 -0.00251427)
(5.47665 0.0964269 -0.00266919)
(5.52574 0.107901 -0.00252413)
(5.56314 0.11714 -0.00260637)
(5.59923 0.124944 -0.00252998)
(5.62612 0.130827 -0.00256306)
(5.65419 0.137107 -0.00254081)
(5.67434 0.140267 -0.00253762)
(5.69785 0.146953 -0.00256216)
(5.71099 0.147243 -0.00252957)
(5.73466 0.155793 -0.002615)
(5.73156 0.15739 -0.00262233)
(4.51506 -0.045888 -0.00163214)
(4.65078 -0.110641 -0.00223888)
(4.78032 -0.163359 -0.00131024)
(4.92603 -0.192101 -0.00183364)
(5.03128 -0.202531 -0.00129329)
(5.11186 -0.203259 -0.00170454)
(5.15825 -0.199855 -0.00136056)
(5.18211 -0.196729 -0.00162611)
(5.19088 -0.19487 -0.00139677)
(5.1856 -0.194415 -0.00155328)
(5.17693 -0.194738 -0.0014106)
(5.15926 -0.195518 -0.00149388)
(5.14283 -0.195992 -0.00141938)
(5.12187 -0.196991 -0.00145332)
(5.10135 -0.196187 -0.00143209)
(5.0835 -0.198507 -0.00142989)
(5.05761 -0.193643 -0.00145191)
(5.04997 -0.201972 -0.00142343)
(5.01351 -0.183928 -0.00145164)
(5.02199 -0.204477 -0.00148618)
(4.53976 -0.08808 -0.00306772)
(4.67269 -0.119785 -0.00379098)
(4.71174 -0.12143 -0.00283179)
(4.69612 -0.0951776 -0.00335292)
(4.61439 -0.056688 -0.00280766)
(4.51324 -0.0136003 -0.00321273)
(4.40011 0.0249597 -0.00286033)
(4.28914 0.0579908 -0.00312013)
(4.18776 0.0829539 -0.00288444)
(4.09025 0.102712 -0.00303788)
(4.00763 0.117017 -0.00289163)
(3.92608 0.128514 -0.00297403)
(3.86029 0.137023 -0.0028979)
(3.79341 0.144154 -0.00293193)
(3.74139 0.149689 -0.00291086)
(3.68764 0.15436 -0.00290847)
(3.64591 0.158501 -0.00293719)
(3.60553 0.161659 -0.00289655)
(3.5684 0.166085 -0.00299042)
(3.54549 0.174538 -0.00300291)
(4.37648 -0.0973464 -0.00127487)
(3.96069 -0.149146 -0.00181822)
(3.42114 -0.163132 -0.000863858)
(2.93838 -0.156778 -0.00140759)
(2.52124 -0.145004 -0.00088456)
(2.21344 -0.136174 -0.00130195)
(1.98687 -0.131155 -0.000957528)
(1.83257 -0.130886 -0.00122064)
(1.72854 -0.13346 -0.000988525)
(1.65289 -0.138021 -0.00114402)
(1.6049 -0.143047 -0.00100073)
(1.5614 -0.148324 -0.00108479)
(1.53614 -0.152813 -0.0010105)
(1.50648 -0.157517 -0.00104527)
(1.48984 -0.160138 -0.00102443)
(1.47065 -0.165321 -0.00102212)
(1.45174 -0.163884 -0.00104723)
(1.45317 -0.173736 -0.00100992)
(1.40955 -0.160084 -0.00106229)
(1.47698 -0.166534 -0.001081)
(4.32334 0.566026 -0.00673924)
(3.07438 0.847819 -0.00427145)
(2.30771 0.869789 -0.00554693)
(1.73879 0.853385 -0.00407251)
(1.59988 0.856569 -0.00522022)
(1.39515 0.868756 -0.00405291)
(1.38825 0.87885 -0.00500918)
(1.2659 0.886923 -0.0040293)
(1.27289 0.891042 -0.00481165)
(1.18637 0.894532 -0.00398562)
(1.19429 0.896009 -0.0046276)
(1.13103 0.897805 -0.00393476)