/*--------------------------------*- C++ -*----------------------------------*\
  =========                 |
  \\      /  F ield         | OpenFOAM: The Open Source CFD Toolbox
   \\    /   O peration     | Website:  https://openfoam.org
    \\  /    A nd           | Version:  7
     \\/     M anipulation  |
\*---------------------------------------------------------------------------*/
FoamFile
{
    version     2.0;
    format      ascii;
    class       surfaceScalarField;
    location    "0.9975";
    object      phi_0;
}
// * * * * * * * * * * * * * * * * * * * * * * * * * * * * * * * * * * * * * //

dimensions      [1 0 -1 0 0 0 0];

internalField   nonuniform List<scalar> 
36620
(
0.000461625
0.000902976
7.80155e-06
0.000257708
0.000200772
4.14589e-06
0.000183659
6.83638e-05
6.70192e-06
0.000159887
2.04248e-05
4.37306e-06
0.000146562
8.03659e-06
6.31032e-06
0.000138332
4.75041e-06
4.48719e-06
0.000132025
1.27261e-06
6.02862e-06
0.000127118
1.3151e-06
4.57384e-06
0.00012299
-6.96383e-07
5.79708e-06
0.000119575
-2.51169e-07
4.63097e-06
0.000116578
-1.64103e-06
5.59837e-06
0.000114001
-1.1273e-06
4.6624e-06
0.000111687
-2.14726e-06
5.42321e-06
0.000109638
-1.65861e-06
4.67255e-06
0.000107765
-2.42306e-06
5.26495e-06
0.000106098
-2.02473e-06
4.6651e-06
0.000104257
-2.3031e-06
5.11964e-06
0.000103124
-2.53188e-06
4.64276e-06
9.09765e-05
8.10703e-06
5.01412e-06
1.22573e-06
4.54106e-06
8.61878e-05
0.000994547
0.00127885
1.78592e-06
0.000737768
0.000460161
-1.58063e-06
0.000586736
0.000219431
1.04779e-06
0.000522028
8.75037e-05
-1.24871e-06
0.000483839
4.66274e-05
7.17515e-07
0.000460181
3.05863e-05
-1.10116e-06
0.000440913
2.11201e-05
4.50816e-07
0.000426948
1.72765e-05
-1.0076e-06
0.000414054
1.29356e-05
2.20536e-07
0.000404405
1.12787e-05
-9.50221e-07
0.000394946
8.71146e-06
2.09128e-08
0.000387763
7.88533e-06
-9.19181e-07
0.000380431
6.25981e-06
-1.56145e-07
0.000374773
5.84532e-06
-9.10229e-07
0.000368929
4.6961e-06
-3.16602e-07
0.000364328
4.47365e-06
-9.17705e-07
0.000360011
3.47825e-06
-4.68381e-07
0.00035673
2.6985e-06
-9.35979e-07
0.000369466
-2.9599e-06
-6.56963e-07
-1.52026e-05
-1.07346e-06
0.000388003
0.00138255
0.00126282
5.79482e-06
0.00127238
0.00056873
2.62775e-06
0.00114264
0.000345156
5.1138e-06
0.00105761
0.000170956
2.78579e-06
0.000997875
0.000102876
4.7233e-06
0.00095696
6.97933e-05
2.89136e-06
0.000924069
5.06596e-05
4.43565e-06
0.000899267
4.00942e-05
2.97554e-06
0.000877111
3.18065e-05
4.2022e-06
0.000859788
2.64216e-05
3.03226e-06
0.00084333
2.19651e-05
4.00253e-06
0.000830209
1.87075e-05
3.06364e-06
0.000817346
1.60559e-05
3.82672e-06
0.00080698
1.39227e-05
3.07351e-06
0.000796636
1.2202e-05
3.66768e-06
0.000788288
1.06384e-05
3.06544e-06
0.000778844
1.03247e-05
3.52433e-06
0.000773208
6.27359e-06
3.04097e-06
0.000754248
1.35431e-05
3.45351e-06
4.60506e-07
2.96367e-06
0.000736674
0.0015349
0.00109809
2.03e-06
0.0015558
0.000549856
-1.01184e-06
0.00151522
0.000385367
1.44662e-06
0.00147128
0.000216941
-8.46738e-07
0.00142978
0.000144566
1.12119e-06
0.00139629
0.000105274
-6.94513e-07
0.00136611
8.11609e-05
8.61044e-07
0.00134132
6.65159e-05
-5.96024e-07
0.00131821
5.5194e-05
6.33714e-07
0.00129901
4.69874e-05
-5.36421e-07
0.00128073
4.05399e-05
4.35673e-07
0.00126536
3.5218e-05
-5.03841e-07
0.00125056
3.11663e-05
2.59806e-07
0.00123789
2.76485e-05
-4.94299e-07
0.00122608
2.45099e-05
9.92869e-08
0.00121498
2.29117e-05
-5.02179e-07
0.00120734
1.87538e-05
-5.39585e-08
0.0011957
1.92719e-05
-5.23871e-07
0.00120038
1.00126e-05
-2.60064e-07
1.70074e-06
-6.45749e-07
0.00120077
0.00157356
0.000891851
4.96542e-06
0.00165764
0.000464651
2.1389e-06
0.00168201
0.000357543
4.50871e-06
0.00168242
0.000215491
2.20898e-06
0.00167124
0.000152919
4.15076e-06
0.00165861
0.000116953
2.32403e-06
0.00164338
9.37949e-05
3.87171e-06
0.00162949
7.9094e-05
2.41234e-06
0.00161478
6.72215e-05
3.63957e-06
0.00160186
5.82812e-05
2.46963e-06
0.00158866
5.10553e-05
3.44032e-06
0.00157706
4.49484e-05
2.50199e-06
0.00156536
4.01095e-05
3.26547e-06
0.00155504
3.58734e-05
2.51244e-06
0.00154481
3.20248e-05
3.10648e-06
0.00153591
2.97688e-05
2.50424e-06
0.00152663
2.56071e-05
2.96403e-06
0.00151888
2.52005e-05
2.4797e-06
0.00150692
1.98008e-05
2.89637e-06
1.94946e-05
2.40879e-06
0.00148756
0.00156497
0.0006966
2.48823e-06
0.00166387
0.000367084
-3.12375e-07
0.00172181
0.000298637
2.00716e-06
0.00175192
0.000186825
-2.93024e-07
0.00176633
0.000138169
1.655e-06
0.00177533
0.00010953
-1.66564e-07
0.00177826
9.08089e-05
1.38613e-06
0.00177969
7.8894e-05
-7.25822e-08
0.00177786
6.88716e-05
1.15583e-06
0.0017758
6.12281e-05
-1.48514e-08
0.00177195
5.47385e-05
9.56573e-07
0.00176832
4.92519e-05
1.77117e-08
0.00176359
4.4593e-05
7.8131e-07
0.00175908
4.07445e-05
2.76123e-08
0.00175424
3.65276e-05
6.20583e-07
0.00174925
3.505e-05
1.86451e-08
0.00174588
2.88777e-05
4.67553e-07
0.0017402
3.1387e-05
-6.47718e-09
0.0017414
1.89184e-05
2.68405e-07
2.11866e-05
-1.08767e-07
0.0017405
0.00155436
0.000510154
4.34399e-06
0.00165214
0.000268622
1.70056e-06
0.00172145
0.000226384
3.97635e-06
0.0017643
0.000143436
1.68996e-06
0.00179201
0.000108141
3.62824e-06
0.00181387
8.72928e-05
1.80475e-06
0.00182898
7.37046e-05
3.35542e-06
0.00184196
6.52053e-05
1.89739e-06
0.00185086
5.78393e-05
3.12579e-06
0.00185875
5.22569e-05
1.95628e-06
0.00186404
4.73393e-05
2.92766e-06
0.00186883
4.32147e-05
1.99023e-06
0.00187172
3.95289e-05
2.75437e-06
0.00187433
3.65433e-05
2.00185e-06
0.00187542
3.30888e-05
2.59548e-06
0.00187686
3.18336e-05
1.99294e-06
0.00187642
2.71315e-05
2.45181e-06
0.00187733
2.88884e-05
1.96693e-06
0.00187383
2.05556e-05
2.36786e-06
2.63379e-05
1.89876e-06
0.00186734
0.00154392
0.000335531
2.92584e-06
0.0016366
0.000176664
2.85098e-07
0.00170954
0.000151954
2.52781e-06
0.00175702
9.68768e-05
2.31785e-07
0.00179042
7.38965e-05
2.16729e-06
0.00181851
6.02857e-05
3.42467e-07
0.00184017
5.15304e-05
1.89329e-06
0.00185992
4.62108e-05
4.3349e-07
0.00187555
4.15416e-05
1.66114e-06
0.00189012
3.80697e-05
4.89942e-07
0.00190192
3.49083e-05
1.46083e-06
0.00191307
3.23119e-05
5.22257e-07
0.00192208
2.98572e-05
1.28591e-06
0.00193051
2.80172e-05
5.32566e-07
0.00193724
2.54811e-05
1.12506e-06
0.00194364
2.50785e-05
5.22501e-07
0.0019491
2.0898e-05
9.72866e-07
0.00195432
2.3488e-05
4.95191e-07
0.00195957
1.49735e-05
7.96873e-07
1.98928e-05
4.08817e-07
0.00196608
0.00153804
0.000165913
3.81888e-06
0.0016273
8.71644e-05
1.25812e-06
0.00170088
7.59217e-05
3.48174e-06
0.00174935
4.83634e-05
1.19868e-06
0.00178449
3.69513e-05
3.1324e-06
0.00181468
3.02133e-05
1.30893e-06
0.00183881
2.59203e-05
2.86028e-06
0.00186144
2.33642e-05
1.40197e-06
0.00188023
2.11067e-05
2.63068e-06
0.00189826
1.94605e-05
1.4609e-06
0.00191362
1.79412e-05
2.43254e-06
0.0019285
1.6716e-05
1.49522e-06
0.00194121
1.55315e-05
2.25971e-06
0.00195351
1.46663e-05
1.50731e-06
0.0019637
1.34384e-05
2.10071e-06
0.00197414
1.32948e-05
1.49782e-06
0.00198192
1.13347e-05
1.95454e-06
0.00199138
1.2818e-05
1.47015e-06
0.00199595
9.00581e-06
1.84267e-06
1.30095e-05
1.40047e-06
0.00200187
0.00153478
2.06877e-11
3.35987e-06
0.00162216
3.64151e-10
7.99115e-07
0.00169611
2.62886e-10
3.0117e-06
0.0017449
8.70504e-10
7.231e-07
0.00178053
2.40438e-11
2.65448e-06
0.00181134
1.36824e-09
8.29507e-07
0.00183625
-1.9077e-10
2.3802e-06
0.00185988
3.20542e-09
9.20746e-07
0.00187982
2.07587e-09
2.14879e-06
0.00189917
8.86081e-09
9.78089e-07
0.00191597
1.23659e-08
1.94926e-06
0.00193244
2.42132e-08
1.01131e-06
0.00194681
4.07273e-08
1.77535e-06
0.00196083
7.6609e-08
1.02261e-06
0.00197281
9.73731e-08
1.61533e-06
0.00198496
2.77591e-07
1.01273e-06
0.0019948
1.84423e-07
1.46578e-06
0.00200601
8.78625e-07
9.85097e-07
0.00201356
5.70672e-07
1.3208e-06
1.95414e-06
9.09894e-07
0.00202413
0.00153478
-0.000165913
3.35987e-06
0.00162216
-8.71637e-05
7.99115e-07
0.00169611
-7.59211e-05
3.0117e-06
0.0017449
-4.83617e-05
7.23099e-07
0.00178053
-3.69512e-05
2.65448e-06
0.00181134
-3.02106e-05
8.29505e-07
0.00183625
-2.59207e-05
2.3802e-06
0.00185988
-2.3358e-05
9.20738e-07
0.00187982
-2.11026e-05
2.14879e-06
0.00189917
-1.94434e-05
9.78065e-07
0.00191597
-1.79166e-05
1.94926e-06
0.00193244
-1.66697e-05
1.01124e-06
0.00194681
-1.54504e-05
1.77533e-06
0.00196084
-1.45191e-05
1.02238e-06
0.00197282
-1.32448e-05
1.61525e-06
0.00198498
-1.27508e-05
1.01204e-06
0.00199483
-1.09728e-05
1.46563e-06
0.00200605
-1.10697e-05
9.83252e-07
0.00201363
-7.89118e-06
1.3209e-06
-9.08598e-06
9.06841e-07
0.00202418
0.00153804
-0.000335531
3.81888e-06
0.0016273
-0.000176663
1.25812e-06
0.00170088
-0.000151953
3.48174e-06
0.00174935
-9.68752e-05
1.19868e-06
0.00178449
-7.38965e-05
3.1324e-06
0.00181468
-6.02831e-05
1.30893e-06
0.00183881
-5.15308e-05
2.86028e-06
0.00186144
-4.62045e-05
1.40198e-06
0.00188023
-4.15377e-05
2.63068e-06
0.00189826
-3.80522e-05
1.46092e-06
0.00191362
-3.48845e-05
2.43254e-06
0.0019285
-3.22643e-05
1.49529e-06
0.00194121
-2.97784e-05
2.25973e-06
0.00195351
-2.78682e-05
1.50753e-06
0.0019637
-2.52926e-05
2.10078e-06
0.00197415
-2.45393e-05
1.4985e-06
0.00198194
-2.05485e-05
1.95465e-06
0.00199144
-2.17724e-05
1.4719e-06
0.00199606
-1.39162e-05
1.84257e-06
-1.61034e-05
1.40305e-06
0.00200211
0.00154392
-0.000510154
2.92584e-06
0.0016366
-0.000268622
2.85098e-07
0.00170954
-0.000226384
2.52781e-06
0.00175702
-0.000143434
2.31784e-07
0.00179042
-0.000108141
2.16729e-06
0.00181851
-8.72904e-05
3.42464e-07
0.00184017
-7.37049e-05
1.89329e-06
0.00185992
-6.51994e-05
4.33483e-07
0.00187555
-5.78355e-05
1.66114e-06
0.00189012
-5.22404e-05
4.8992e-07
0.00190192
-4.73166e-05
1.46083e-06
0.00191307
-4.31704e-05
5.22191e-07
0.00192209
-3.94539e-05
1.2859e-06
0.00193053
-3.64049e-05
5.32372e-07
0.00193727
-3.29099e-05
1.125e-06
0.0019437
-3.13232e-05
5.21924e-07
0.00194919
-2.68104e-05
9.72771e-07
0.00195447
-2.72354e-05
4.93593e-07
0.00195983
-1.96056e-05
7.97312e-07
-2.26744e-05
4.06033e-07
0.00196647
0.00155436
-0.0006966
4.34399e-06
0.00165214
-0.000367083
1.70056e-06
0.00172145
-0.000298636
3.97635e-06
0.0017643
-0.000186824
1.68996e-06
0.00179201
-0.000138169
3.62824e-06
0.00181387
-0.000109528
1.80475e-06
0.00182898
-9.08091e-05
3.35542e-06
0.00184196
-7.88885e-05
1.89739e-06
0.00185086
-6.88678e-05
3.12579e-06
0.00185875
-6.12124e-05
1.95629e-06
0.00186404
-5.47173e-05
2.92766e-06
0.00186883
-4.92096e-05
1.99028e-06
0.00187173
-4.45242e-05
2.75438e-06
0.00187434
-4.06127e-05
2.00205e-06
0.00187546
-3.63656e-05
2.59552e-06
0.00187693
-3.45708e-05
1.99355e-06
0.00187653
-2.86016e-05
2.45185e-06
0.00187755
-2.98419e-05
1.96843e-06
0.00187422
-1.81366e-05
2.36763e-06
-1.78723e-05
1.90064e-06
0.00186807
0.00156497
-0.000891851
2.48823e-06
0.00166387
-0.00046465
-3.12375e-07
0.00172181
-0.000357542
2.00716e-06
0.00175192
-0.000215489
-2.93025e-07
0.00176633
-0.000152919
1.655e-06
0.00177533
-0.000116951
-1.66567e-07
0.00177826
-9.37947e-05
1.38613e-06
0.00177969
-7.90897e-05
-7.25872e-08
0.00177786
-6.72175e-05
1.15584e-06
0.00177581
-5.82686e-05
-1.4871e-08
0.00177196
-5.10357e-05
9.56581e-07
0.00176834
-4.49148e-05
1.76562e-08
0.00176361
-4.00479e-05
7.81314e-07
0.00175912
-3.5766e-05
2.74549e-08
0.00175431
-3.18839e-05
6.20553e-07
0.00174938
-2.93579e-05
1.81741e-08
0.00174607
-2.5386e-05
4.67536e-07
0.00174056
-2.38328e-05
-7.79758e-09
0.00174196
-1.92071e-05
2.69331e-07
-1.65568e-05
-1.11359e-07
0.00174144
0.00157356
-0.00109809
4.96542e-06
0.00165764
-0.000549856
2.1389e-06
0.00168201
-0.000385366
4.50871e-06
0.00168242
-0.00021694
2.20898e-06
0.00167124
-0.000144565
4.15076e-06
0.00165861
-0.000105273
2.32403e-06
0.00164338
-8.11604e-05
3.87171e-06
0.00162949
-6.65128e-05
2.41235e-06
0.00161478
-5.51902e-05
3.63957e-06
0.00160186
-4.69785e-05
2.46964e-06
0.00158866
-4.05227e-05
3.44032e-06
0.00157707
-3.51938e-05
2.50204e-06
0.00156538
-3.11141e-05
3.26549e-06
0.00155509
-2.75676e-05
2.51261e-06
0.00154489
-2.4394e-05
3.1065e-06
0.00153607
-2.25901e-05
2.50475e-06
0.00152687
-1.85963e-05
2.96404e-06
0.00151937
-1.81684e-05
2.48082e-06
0.00150769
-9.6819e-06
2.89603e-06
5.18716e-07
2.40989e-06
0.00148904
0.0015349
-0.00126282
2.03e-06
0.0015558
-0.00056873
-1.01184e-06
0.00151522
-0.000345155
1.44662e-06
0.00147128
-0.000170955
-8.4674e-07
0.00142978
-0.000102875
1.12119e-06
0.00139629
-6.97923e-05
-6.94514e-07
0.00136611
-5.0659e-05
8.61047e-07
0.00134132
-4.00924e-05
-5.96027e-07
0.00131821
-3.18035e-05
6.3372e-07
0.00129901
-2.64172e-05
-5.36437e-07
0.00128074
-2.19525e-05
4.35685e-07
0.00126538
-1.86961e-05
-5.03887e-07
0.0012506
-1.60173e-05
2.59821e-07
0.00123797
-1.38809e-05
-4.94426e-07
0.00122619
-1.21159e-05
9.92838e-08
0.00121521
-1.04438e-05
-5.02543e-07
0.00120763
-1.02088e-05
-5.38748e-08
0.00119636
-5.55195e-06
-5.24889e-07
0.00120116
-1.33206e-05
-2.58544e-07
1.09197e-06
-6.48029e-07
0.0012022
0.00138255
-0.00127885
5.79482e-06
0.00127238
-0.000460161
2.62775e-06
0.00114265
-0.00021943
5.11379e-06
0.00105761
-8.7503e-05
2.78579e-06
0.000997875
-4.66267e-05
4.7233e-06
0.00095696
-3.05856e-05
2.89136e-06
0.000924069
-2.11196e-05
4.43565e-06
0.000899268
-1.72757e-05
2.97554e-06
0.000877113
-1.29341e-05
4.2022e-06
0.000859793
-1.12769e-05
3.03227e-06
0.000843342
-8.70507e-06
4.00253e-06
0.000830228
-7.88045e-06
3.06366e-06
0.000817384
-6.23948e-06
3.82673e-06
0.000807042
-5.82627e-06
3.07364e-06
0.000796741
-4.65098e-06
3.66767e-06
0.000788497
-4.38575e-06
3.06585e-06
0.00077912
-3.42308e-06
3.52429e-06
0.000773846
-2.35265e-06
3.04176e-06
0.00075514
2.95069e-06
3.45322e-06
1.58288e-05
2.96402e-06
0.000738464
0.000994547
-0.000902976
1.78592e-06
0.000737768
-0.000200772
-1.58063e-06
0.000586736
-6.83635e-05
1.04778e-06
0.000522029
-2.04243e-05
-1.24871e-06
0.000483839
-8.03609e-06
7.17515e-07
0.000460181
-4.75003e-06
-1.10116e-06
0.000440913
-1.27239e-06
4.50816e-07
0.000426949
-1.31491e-06
-1.00761e-06
0.000414056
6.96731e-07
2.2054e-07
0.000404409
2.51413e-07
-9.50231e-07
0.000394956
1.64267e-06
2.09255e-08
0.000387777
1.12811e-06
-9.19209e-07
0.00038046
2.15295e-06
-1.56125e-07
0.000374819
1.66258e-06
-9.10299e-07
0.000369007
2.43622e-06
-3.16582e-07
0.000364471
2.04723e-06
-9.17889e-07
0.000360193
2.3217e-06
-4.68286e-07
0.000357159
2.62526e-06
-9.36571e-07
0.000369766
-7.97617e-06
-6.55643e-07
-9.80718e-07
-1.07537e-06
0.000388666
0.000461625
7.80155e-06
0.000257708
4.14589e-06
0.000183659
6.70192e-06
0.000159887
4.37306e-06
0.000146562
6.31032e-06
0.000138332
4.48719e-06
0.000132025
6.02862e-06
0.000127118
4.57384e-06
0.000122991
5.79708e-06
0.000119576
4.63098e-06
0.000116581
5.59837e-06
0.000114006
4.66242e-06
0.000111697
5.42319e-06
0.000109653
4.67265e-06
0.000107794
5.26487e-06
0.000106148
4.66542e-06
0.000104327
5.11941e-06
0.000103284
4.64344e-06
9.12718e-05
5.01356e-06
4.5425e-06
8.67194e-05
0.000878613
0.00049938
1.76132e-06
0.000523319
0.00035818
2.27712e-06
0.000372618
0.000157049
1.40663e-06
0.000315231
6.08548e-05
1.98135e-06
0.000287696
3.34579e-05
1.45075e-06
0.000268384
2.30419e-05
1.79021e-06
0.000255411
1.85725e-05
1.43259e-06
0.000243881
1.54477e-05
1.63578e-06
0.000235686
1.35311e-05
1.41939e-06
0.000227674
1.20555e-05
1.53498e-06
0.000221798
1.10047e-05
1.41381e-06
0.000215767
1.01736e-05
1.46889e-06
0.000211215
9.52399e-06
1.41286e-06
0.000206465
8.97037e-06
1.42665e-06
0.000202735
8.56448e-06
1.41674e-06
0.000198951
8.0406e-06
1.40269e-06
0.000196292
7.3513e-06
1.42729e-06
0.000191866
8.68314e-06
1.38949e-06
0.0002339
-3.74668e-05
1.44064e-06
-2.65838e-05
1.42356e-06
0.000264606
0.00136271
0.000505655
4.90432e-06
0.0011808
0.000534078
5.45355e-06
0.00101387
0.000321503
4.62301e-06
0.000898642
0.000170873
5.14988e-06
0.000825393
0.000103972
4.6501e-06
0.000774006
6.94948e-05
4.96243e-06
0.000738255
5.11857e-05
4.62667e-06
0.000708939
3.98996e-05
4.81625e-06
0.000686929
3.20385e-05
4.61398e-06
0.000667139
2.70162e-05
4.7185e-06
0.000651648
2.27148e-05
4.60973e-06
0.000637027
2.00329e-05
4.65206e-06
0.000625257
1.73665e-05
4.60889e-06
0.000613945
1.56426e-05
4.60768e-06
0.000604473
1.40318e-05
4.61177e-06
0.000595588
1.23914e-05
4.58059e-06
0.000586921
1.19223e-05
4.623e-06
0.000582556
8.57524e-06
4.56253e-06
0.000545584
-4.80391e-06
4.67055e-06
4.0904e-06
4.62252e-06
0.000510258
0.00146914
0.000412117
2.16207e-06
0.00146959
0.000534438
2.82883e-06
0.001402
0.000393502
1.7852e-06
0.00132294
0.000251406
2.53231e-06
0.00125753
0.000173536
1.85347e-06
0.00120377
0.000125023
2.35573e-06
0.00116253
9.61006e-05
1.86266e-06
0.00112736
7.68231e-05
2.20261e-06
0.00109955
6.3056e-05
1.86924e-06
0.00107454
5.37307e-05
2.09512e-06
0.00105413
4.59264e-05
1.88328e-06
0.00103514
4.07016e-05
2.02283e-06
0.00101931
3.57501e-05
1.90156e-06
0.00100427
3.24541e-05
1.97501e-06
0.000991775
2.90167e-05
1.92207e-06
0.000979053
2.70472e-05
1.94716e-06
0.000971273
2.21649e-05
1.94435e-06
0.000956959
2.49535e-05
1.93363e-06
0.000970148
-1.54875e-05
1.93634e-06
-2.77125e-06
1.96841e-06
0.000979052
0.00144951
0.000332225
4.49241e-06
0.00152299
0.000455847
5.10372e-06
0.00154675
0.000367951
4.29605e-06
0.00153393
0.000259771
4.82163e-06
0.00151124
0.00019436
4.31158e-06
0.00148334
0.00014892
4.63098e-06
0.00145777
0.000119423
4.28959e-06
0.0014324
9.81422e-05
4.48263e-06
0.0014107
8.20082e-05
4.27441e-06
0.00138985
7.04537e-05
4.38127e-06
0.00137209
6.0529e-05
4.26898e-06
0.00135495
5.3571e-05
4.31486e-06
0.00134021
4.6957e-05
4.27001e-06
0.00132601
4.23578e-05
4.27168e-06
0.00131363
3.77524e-05
4.27421e-06
0.00130202
3.45331e-05
4.24503e-06
0.00129047
3.00761e-05
4.28657e-06
0.00128231
2.91821e-05
4.22995e-06
0.00125766
5.43935e-06
4.34423e-06
2.49369e-05
4.289e-06
0.00122602
0.00144385
0.000262773
2.55897e-06
0.0015286
0.00037101
3.22596e-06
0.00158335
0.000316525
2.23732e-06
0.00160756
0.000236046
2.91753e-06
0.001619
0.000186132
2.28008e-06
0.00161957
0.000149313
2.73052e-06
0.00161695
0.000124857
2.2897e-06
0.00160976
0.000106224
2.58077e-06
0.0016024
9.16467e-05
2.29346e-06
0.00159304
8.06366e-05
2.47495e-06
0.00158447
7.09584e-05
2.30169e-06
0.00157484
6.38541e-05
2.40499e-06
0.00156622
5.69458e-05
2.31411e-06
0.00155695
5.21319e-05
2.35971e-06
0.00154917
4.66709e-05
2.32796e-06
0.00154022
4.41015e-05
2.33314e-06
0.00153516
3.62984e-05
2.34461e-06
0.00152511
4.00394e-05
2.32268e-06
0.00152695
4.90854e-06
2.33033e-06
2.42316e-05
2.36115e-06
0.00152859
0.00142749
0.000205708
4.12576e-06
0.00150694
0.00028748
4.76762e-06
0.00157377
0.000248788
3.96112e-06
0.00161631
0.00018992
4.49453e-06
0.00164801
0.000153467
3.97441e-06
0.00166791
0.000126325
4.308e-06
0.00168314
0.000108316
3.96075e-06
0.00169191
9.42926e-05
4.16246e-06
0.00169866
8.30489e-05
3.94789e-06
0.00170173
7.43502e-05
4.06044e-06
0.00170403
6.64357e-05
3.94321e-06
0.001704
6.05248e-05
3.99355e-06
0.00170367
5.45479e-05
3.9448e-06
0.00170186
5.03197e-05
3.94945e-06
0.00170001
4.54516e-05
3.94859e-06
0.00169772
4.28199e-05
3.92225e-06
0.00169411
3.68293e-05
3.96178e-06
0.00169234
3.84228e-05
3.91254e-06
0.00167894
1.51622e-05
4.02152e-06
3.68861e-05
3.97163e-06
0.00166296
0.00142922
0.000149927
2.90698e-06
0.00150343
0.000212405
3.56857e-06
0.00156738
0.000187199
2.65996e-06
0.00161244
0.000144479
3.26798e-06
0.00165
0.000118221
2.67041e-06
0.00167786
9.85886e-05
3.07461e-06
0.0017022
8.59337e-05
2.66807e-06
0.00172046
7.6087e-05
2.92443e-06
0.00173665
6.82601e-05
2.66321e-06
0.00174886
6.21463e-05
2.81842e-06
0.00175985
5.65018e-05
2.66557e-06
0.00176801
5.22706e-05
2.74923e-06
0.0017753
4.7799e-05
2.67311e-06
0.00178044
4.47779e-05
2.70314e-06
0.00178532
4.07009e-05
2.68131e-06
0.00178836
3.93538e-05
2.67521e-06
0.00179246
3.28266e-05
2.69461e-06
0.00179393
3.67074e-05
2.6673e-06
0.00179671
1.25906e-05
2.69081e-06
2.9936e-05
2.71265e-06
0.00180347
0.00142188
9.92201e-05
3.80107e-06
0.00149202
0.000139089
4.45861e-06
0.00155647
0.00012268
3.64259e-06
0.00160319
9.50033e-05
4.18399e-06
0.0016434
7.78944e-05
3.64993e-06
0.00167449
6.52435e-05
3.99648e-06
0.00170273
5.72098e-05
3.64017e-06
0.00172543
5.10387e-05
3.85138e-06
0.00174651
4.61551e-05
3.62927e-06
0.00176388
4.23878e-05
3.74917e-06
0.00178017
3.88533e-05
3.62659e-06
0.00179371
3.62547e-05
3.68285e-06
0.00180625
3.3399e-05
3.62955e-06
0.0018167
3.15195e-05
3.63798e-06
0.0018262
2.88939e-05
3.63292e-06
0.00183473
2.79576e-05
3.60983e-06
0.00184105
2.41332e-05
3.64579e-06
0.0018488
2.6268e-05
3.60259e-06
0.00184636
1.2618e-05
3.69533e-06
2.69175e-05
3.65866e-06
0.00184668
0.001423
4.88394e-05
3.21218e-06
0.00149116
6.93077e-05
3.87756e-06
0.00155359
6.17638e-05
3.01537e-06
0.00159942
4.79907e-05
3.58723e-06
0.00163932
3.94791e-05
3.0159e-06
0.00167074
3.31314e-05
3.39332e-06
0.0016999
2.91594e-05
3.00863e-06
0.00172404
2.61332e-05
3.24422e-06
0.00174697
2.37794e-05
2.99986e-06
0.00176657
2.19816e-05
3.13901e-06
0.00178538
2.02961e-05
2.9994e-06
0.00180167
1.90865e-05
3.0708e-06
0.00181711
1.77057e-05
3.00439e-06
0.00183053
1.68864e-05
3.02453e-06
0.00184318
1.5517e-05
3.00936e-06
0.00185448
1.53613e-05
2.99583e-06
0.00186489
1.29444e-05
3.02137e-06
0.00187507
1.4959e-05
2.98933e-06
0.00188047
6.51567e-06
3.03457e-06
1.4013e-05
3.03773e-06
0.00189224
0.00142072
-1.12372e-10
3.5023e-06
0.00148766
1.75479e-10
4.16653e-06
0.00155016
-1.28302e-10
3.33276e-06
0.00159619
5.45925e-10
3.88571e-06
0.00163635
-3.22657e-10
3.33481e-06
0.00166801
1.13485e-09
3.695e-06
0.00169748
-1.86782e-10
3.32635e-06
0.00172205
3.79531e-09
3.54824e-06
0.00174559
2.73831e-09
3.31642e-06
0.00176597
1.19869e-08
3.44475e-06
0.0017857
1.11318e-08
3.31485e-06
0.00180308
3.40264e-08
3.37778e-06
0.00181971
3.61286e-08
3.31874e-06
0.00183449
9.61289e-08
3.33213e-06
0.00184837
1.12634e-07
3.3225e-06
0.00186137
2.75496e-07
3.30345e-06
0.0018724
3.18847e-07
3.33483e-06
0.00188464
7.92318e-07
3.29688e-06
0.00188867
9.25159e-07
3.36746e-06
2.02792e-06
3.3482e-06
0.00189871
0.00142072
-4.88396e-05
3.5023e-06
0.00148766
-6.93073e-05
4.16653e-06
0.00155016
-6.1764e-05
3.33276e-06
0.00159619
-4.79896e-05
3.88571e-06
0.00163635
-3.94797e-05
3.33481e-06
0.00166801
-3.31291e-05
3.695e-06
0.00169748
-2.91598e-05
3.32635e-06
0.00172205
-2.61254e-05
3.54824e-06
0.00174559
-2.3774e-05
3.31641e-06
0.00176597
-2.19571e-05
3.44477e-06
0.0017857
-2.02741e-05
3.31485e-06
0.00180308
-1.90166e-05
3.37782e-06
0.00181971
-1.76345e-05
3.31875e-06
0.00183449
-1.6689e-05
3.33226e-06
0.00184837
-1.52953e-05
3.32254e-06
0.00186135
-1.4798e-05
3.30383e-06
0.00187239
-1.23152e-05
3.33492e-06
0.00188463
-1.33727e-05
3.29797e-06
0.00188872
-4.7348e-06
3.36736e-06
-1.0108e-05
3.34991e-06
0.00189891
0.001423
-9.92203e-05
3.21218e-06
0.00149116
-0.000139088
3.87756e-06
0.00155359
-0.000122681
3.01537e-06
0.00159942
-9.50022e-05
3.58723e-06
0.00163932
-7.7895e-05
3.01591e-06
0.00167074
-6.52413e-05
3.39332e-06
0.0016999
-5.72101e-05
3.00863e-06
0.00172404
-5.10313e-05
3.24421e-06
0.00174698
-4.61497e-05
2.99987e-06
0.00176658
-4.23642e-05
3.139e-06
0.00178538
-3.88316e-05
2.9994e-06
0.00180167
-3.61876e-05
3.07076e-06
0.00181712
-3.33289e-05
3.00438e-06
0.00183054
-3.13304e-05
3.0244e-06
0.0018432
-2.86751e-05
3.00932e-06
0.00185453
-2.74194e-05
2.99544e-06
0.00186494
-2.35142e-05
3.02128e-06
0.00187517
-2.47239e-05
2.98825e-06
0.00188056
-1.08259e-05
3.0346e-06
-2.29363e-05
3.03609e-06
0.00189226
0.00142188
-0.000149928
3.80107e-06
0.00149202
-0.000212405
4.45861e-06
0.00155647
-0.000187199
3.64259e-06
0.00160319
-0.000144478
4.18399e-06
0.0016434
-0.000118222
3.64993e-06
0.00167449
-9.85865e-05
3.99649e-06
0.00170273
-8.5934e-05
3.64017e-06
0.00172543
-7.60797e-05
3.85138e-06
0.00174651
-6.82548e-05
3.62927e-06
0.00176388
-6.21228e-05
3.74918e-06
0.00178017
-5.64811e-05
3.62659e-06
0.00179371
-5.22035e-05
3.68289e-06
0.00180626
-4.77328e-05
3.62955e-06
0.00181671
-4.45892e-05
3.63808e-06
0.00182622
-4.04951e-05
3.63294e-06
0.00183475
-3.8821e-05
3.61013e-06
0.00184111
-3.22444e-05
3.6458e-06
0.0018489
-3.52131e-05
3.60349e-06
0.00184663
-1.09563e-05
3.6949e-06
-2.62191e-05
3.66002e-06
0.00184721
0.00142922
-0.000205708
2.90698e-06
0.00150343
-0.00028748
3.56857e-06
0.00156738
-0.000248788
2.65996e-06
0.00161244
-0.000189919
3.26798e-06
0.00165
-0.000153468
2.67041e-06
0.00167786
-0.000126323
3.07461e-06
0.0017022
-0.000108316
2.66807e-06
0.00172046
-9.4286e-05
2.92442e-06
0.00173665
-8.30435e-05
2.66321e-06
0.00174886
-7.43289e-05
2.81841e-06
0.00175986
-6.64157e-05
2.66557e-06
0.00176802
-6.04633e-05
2.7492e-06
0.00177531
-5.44856e-05
2.67311e-06
0.00178046
-5.01466e-05
2.70301e-06
0.00178536
-4.52596e-05
2.6813e-06
0.00178845
-4.23347e-05
2.67485e-06
0.00179259
-3.62859e-05
2.69454e-06
0.00179417
-3.70423e-05
2.66633e-06
0.00179702
-1.35962e-05
2.6909e-06
-3.32298e-05
2.71121e-06
0.00180385
0.00142749
-0.000262773
4.12576e-06
0.00150694
-0.00037101
4.76762e-06
0.00157377
-0.000316525
3.96111e-06
0.00161631
-0.000236045
4.49453e-06
0.00164801
-0.000186133
3.97441e-06
0.00166791
-0.000149312
4.308e-06
0.00168314
-0.000124857
3.96075e-06
0.00169191
-0.000106218
4.16246e-06
0.00169866
-9.16412e-05
3.94789e-06
0.00170173
-8.06176e-05
4.06045e-06
0.00170404
-7.09396e-05
3.9432e-06
0.00170401
-6.37983e-05
3.99358e-06
0.00170368
-5.68902e-05
3.94479e-06
0.00170189
-5.19735e-05
3.94952e-06
0.00170007
-4.65048e-05
3.94859e-06
0.00169781
-4.36566e-05
3.92246e-06
0.00169429
-3.58397e-05
3.96173e-06
0.00169265
-3.87971e-05
3.91323e-06
0.00167955
-3.63729e-06
4.02071e-06
-2.11e-05
3.97279e-06
0.00166409
0.00144385
-0.000332225
2.55897e-06
0.0015286
-0.000455847
3.22596e-06
0.00158335
-0.000367951
2.23732e-06
0.00160756
-0.00025977
2.91753e-06
0.001619
-0.00019436
2.28008e-06
0.00161957
-0.000148919
2.73052e-06
0.00161695
-0.000119422
2.2897e-06
0.00160976
-9.81377e-05
2.58077e-06
0.0016024
-8.20026e-05
2.29346e-06
0.00159305
-7.04395e-05
2.47494e-06
0.00158447
-6.05113e-05
2.30169e-06
0.00157486
-5.35284e-05
2.40496e-06
0.00156625
-4.69075e-05
2.31411e-06
0.00155701
-4.22343e-05
2.35961e-06
0.00154926
-3.76097e-05
2.32797e-06
0.0015404
-3.41843e-05
2.33282e-06
0.00153541
-2.96815e-05
2.34461e-06
0.0015256
-2.81848e-05
2.3219e-06
0.0015276
-4.32793e-06
2.3306e-06
-2.21357e-05
2.35998e-06
0.00152957
0.00144951
-0.000412117
4.49241e-06
0.00152299
-0.000534438
5.10372e-06
0.00154675
-0.000393502
4.29605e-06
0.00153393
-0.000251406
4.82163e-06
0.00151124
-0.000173536
4.31158e-06
0.00148334
-0.000125022
4.63098e-06
0.00145777
-9.60996e-05
4.28958e-06
0.0014324
-7.682e-05
4.48263e-06
0.00141071
-6.30513e-05
4.27441e-06
0.00138986
-5.37213e-05
4.38127e-06
0.0013721
-4.59122e-05
4.26897e-06
0.00135497
-4.06724e-05
4.31487e-06
0.00134024
-3.57112e-05
4.27e-06
0.00132608
-3.23672e-05
4.27174e-06
0.00131373
-2.89086e-05
4.27418e-06
0.00130221
-2.67945e-05
4.24519e-06
0.0012908
-2.18918e-05
4.28646e-06
0.00128288
-2.42207e-05
4.23045e-06
0.00125874
1.61189e-05
4.34309e-06
4.57857e-06
4.29001e-06
0.00122807
0.00146914
-0.000505655
2.16207e-06
0.00146959
-0.000534078
2.82883e-06
0.001402
-0.000321503
1.7852e-06
0.00132294
-0.000170873
2.53231e-06
0.00125753
-0.000103972
1.85347e-06
0.00120377
-6.94942e-05
2.35572e-06
0.00116253
-5.11849e-05
1.86266e-06
0.00112736
-3.98982e-05
2.20261e-06
0.00109955
-3.20356e-05
1.86924e-06
0.00107455
-2.7012e-05
2.09511e-06
0.00105415
-2.27059e-05
1.88328e-06
0.00103517
-2.00186e-05
2.02281e-06
0.00101935
-1.73411e-05
1.90157e-06
0.00100436
-1.55982e-05
1.97493e-06
0.000991897
-1.39603e-05
1.92207e-06
0.0009793
-1.22658e-05
1.94695e-06
0.000971607
-1.17278e-05
1.94432e-06
0.000957645
-8.20942e-06
1.93318e-06
0.000970996
5.2972e-06
1.93657e-06
-2.90107e-06
1.96772e-06
0.000980493
0.00136271
-0.00049938
4.90432e-06
0.0011808
-0.00035818
5.45355e-06
0.00101387
-0.000157049
4.62301e-06
0.000898642
-6.08546e-05
5.14988e-06
0.000825393
-3.34577e-05
4.6501e-06
0.000774007
-2.30417e-05
4.96243e-06
0.000738256
-1.85723e-05
4.62667e-06
0.000708941
-1.54474e-05
4.81625e-06
0.000686933
-1.35303e-05
4.61398e-06
0.000667146
-1.20543e-05
4.7185e-06
0.000651662
-1.10018e-05
4.60973e-06
0.000637051
-1.01685e-05
4.65207e-06
0.000625298
-9.51535e-06
4.6089e-06
0.000614016
-8.95495e-06
4.6077e-06
0.000604591
-8.54007e-06
4.61176e-06
0.000595786
-7.99589e-06
4.58069e-06
0.000587263
-7.29648e-06
4.62281e-06
0.000583095
-8.52727e-06
4.56304e-06
0.000546897
3.72128e-05
4.66928e-06
2.66007e-05
4.62373e-06
0.000512705
0.000878613
1.76132e-06
0.000523319
2.27712e-06
0.000372619
1.40663e-06
0.000315231
1.98135e-06
0.000287696
1.45075e-06
0.000268385
1.79021e-06
0.000255412
1.43259e-06
0.000243882
1.63578e-06
0.000235689
1.41939e-06
0.000227678
1.53497e-06
0.000221805
1.41382e-06
0.000215781
1.46888e-06
0.000211237
1.41288e-06
0.000206503
1.4266e-06
0.000202797
1.41679e-06
0.000199059
1.40256e-06
0.000196455
1.42735e-06
0.000192182
1.38933e-06
0.000233971
1.44044e-06
1.42314e-06
0.000264677
0.00106329
0.00031031
-1.31312e-11
0.000776422
0.000290184
-1.31391e-11
0.000575851
0.000203086
-1.30073e-11
0.000469739
0.000109225
-1.32668e-11
0.000419064
5.32147e-05
-1.34364e-11
0.000394925
2.6956e-05
-1.36896e-11
0.000380173
1.71575e-05
-1.37195e-11
0.000369471
1.32718e-05
-1.37876e-11
0.000359977
1.1826e-05
-1.35184e-11
0.000351833
1.05901e-05
-1.33082e-11
0.000344398
9.77476e-06
-1.32046e-11
0.000337996
8.82071e-06
-1.3481e-11
0.00033229
8.09395e-06
-1.37908e-11
0.000327349
7.362e-06
-1.4056e-11
0.000323045
6.72579e-06
-1.41205e-11
0.000318878
6.57344e-06
-1.41422e-11
0.000316484
4.81655e-06
-1.41636e-11
0.000311041
7.8204e-06
-1.41308e-11
0.000313493
-6.59588e-08
-1.41194e-11
2.36845e-06
-1.35504e-11
0.00031353
0.00140877
0.000278286
-1.31645e-11
0.00136757
0.000337848
-1.3127e-11
0.00128156
0.000294828
-1.2877e-11
0.00119714
0.000200037
-1.31082e-11
0.00112686
0.000129411
-1.34542e-11
0.00107178
8.81831e-05
-1.37268e-11
0.00102737
6.72288e-05
-1.34978e-11
0.000991234
5.51132e-05
-1.34606e-11
0.000960749
4.76814e-05
-1.34841e-11
0.000935068
4.16432e-05
-1.35551e-11
0.000913005
3.70598e-05
-1.32735e-11
0.000894159
3.29525e-05
-1.30446e-11
0.000877942
2.96255e-05
-1.29036e-11
0.00086394
2.67628e-05
-1.28868e-11
0.000851925
2.42327e-05
-1.27234e-11
0.000841027
2.29959e-05
-1.25755e-11
0.00083269
1.8755e-05
-1.25797e-11
0.000822554
2.35171e-05
-1.2896e-11
0.000817304
1.0819e-05
-1.34844e-11