/*--------------------------------*- C++ -*----------------------------------*\
  =========                 |
  \\      /  F ield         | OpenFOAM: The Open Source CFD Toolbox
   \\    /   O peration     | Website:  https://openfoam.org
    \\  /    A nd           | Version:  7
     \\/     M anipulation  |
\*---------------------------------------------------------------------------*/
FoamFile
{
    version     2.0;
    format      ascii;
    class       volVectorField;
    location    "0.1375";
    object      U;
}
// * * * * * * * * * * * * * * * * * * * * * * * * * * * * * * * * * * * * * //

dimensions      [0 1 -1 0 0 0 0];

internalField   nonuniform List<vector> 
1080
(
(11.9663 0.101648 0)
(11.7448 0.280348 0)
(11.273 0.429623 0)
(10.6707 0.50167 0)
(9.9795 0.514447 0)
(9.26503 0.483842 0)
(8.56274 0.427833 0)
(7.90453 0.362337 0)
(7.30084 0.295715 0)
(6.76419 0.232146 0)
(6.29449 0.175722 0)
(5.89092 0.127427 0)
(5.54773 0.0872699 0)
(5.25943 0.0546364 0)
(5.01872 0.0286735 0)
(4.81921 0.00844053 0)
(4.65415 -0.00692818 0)
(4.51788 -0.018312 0)
(4.40508 -0.0264507 0)
(4.3114 -0.0320084 0)
(4.23304 -0.0355315 0)
(4.16694 -0.0374848 0)
(4.11055 -0.0382399 0)
(4.06186 -0.0381023 0)
(4.01924 -0.0373106 0)
(3.98142 -0.0360557 0)
(3.9474 -0.0344839 0)
(3.9164 -0.0327086 0)
(3.88781 -0.0308159 0)
(3.86119 -0.0288688 0)
(3.83615 -0.0269184 0)
(3.81244 -0.0249929 0)
(3.78982 -0.0231281 0)
(3.76817 -0.0213228 0)
(3.74731 -0.0196177 0)
(3.72718 -0.0179756 0)
(3.70777 -0.0164622 0)
(3.68865 -0.0150021 0)
(3.67086 -0.0136631 0)
(3.65165 -0.0124129 0)
(12.0077 0.10473 0)
(12.0817 0.238272 0)
(12.208 0.370323 0)
(12.3549 0.468015 0)
(12.4765 0.538389 0)
(12.5595 0.578494 0)
(12.5903 0.591773 0)
(12.5739 0.583365 0)
(12.5157 0.558502 0)
(12.4259 0.521651 0)
(12.3121 0.47815 0)
(12.1836 0.431743 0)
(12.0464 0.385535 0)
(11.9059 0.341521 0)
(11.7654 0.301038 0)
(11.6274 0.264715 0)
(11.4935 0.23278 0)
(11.3646 0.205098 0)
(11.2409 0.181377 0)
(11.1227 0.161186 0)
(11.0098 0.144076 0)
(10.9021 0.129588 0)
(10.7991 0.117307 0)
(10.7008 0.106855 0)
(10.6067 0.0979114 0)
(10.5167 0.090205 0)
(10.4304 0.0835099 0)
(10.3478 0.0776452 0)
(10.2685 0.0724587 0)
(10.1923 0.0678403 0)
(10.1193 0.0636834 0)
(10.049 0.0599327 0)
(9.9816 0.0564997 0)
(9.91673 0.0533783 0)
(9.8544 0.0504748 0)
(9.79438 0.0478324 0)
(9.73673 0.0453429 0)
(9.68111 0.0430743 0)
(9.62774 0.040955 0)
(9.57615 0.0389614 0)
(12.0053 0.0485965 0)
(12.0609 0.138341 0)
(12.1576 0.23008 0)
(12.2964 0.304179 0)
(12.458 0.362796 0)
(12.6376 0.400837 0)
(12.8196 0.419485 0)
(12.9972 0.421438 0)
(13.1622 0.410178 0)
(13.3109 0.388621 0)
(13.4402 0.360948 0)
(13.5501 0.330039 0)
(13.6409 0.298427 0)
(13.7146 0.267793 0)
(13.7729 0.239331 0)
(13.818 0.21368 0)
(13.8517 0.191143 0)
(13.876 0.171711 0)
(13.8924 0.155222 0)
(13.9023 0.141382 0)
(13.9068 0.129864 0)
(13.9069 0.120316 0)
(13.9033 0.112412 0)
(13.8967 0.105851 0)
(13.8874 0.100371 0)
(13.8759 0.0957512 0)
(13.8624 0.0918071 0)
(13.8474 0.0883923 0)
(13.8309 0.0853833 0)
(13.8131 0.0826949 0)
(13.7942 0.0802418 0)
(13.7744 0.0779876 0)
(13.7536 0.0758625 0)
(13.7321 0.0738735 0)
(13.7098 0.0719466 0)
(13.687 0.0701276 0)
(13.6636 0.0683366 0)
(13.6397 0.0666289 0)
(13.6154 0.0649706 0)
(13.5907 0.0633316 0)
(12.0029 0.0464561 0)
(12.0427 0.119968 0)
(12.1217 0.190146 0)
(12.2362 0.242256 0)
(12.3757 0.281868 0)
(12.5363 0.307141 0)
(12.7067 0.320877 0)
(12.8816 0.324732 0)
(13.0538 0.320793 0)
(13.2196 0.310589 0)
(13.3751 0.296096 0)
(13.5189 0.278762 0)
(13.6501 0.260031 0)
(13.7689 0.240959 0)
(13.8758 0.222418 0)
(13.9719 0.204974 0)
(14.0583 0.188992 0)
(14.1362 0.174637 0)
(14.2067 0.161953 0)
(14.271 0.150868 0)
(14.3299 0.141264 0)
(14.3842 0.132978 0)
(14.4347 0.125844 0)
(14.4819 0.119694 0)
(14.5262 0.114375 0)
(14.5681 0.109749 0)
(14.6077 0.105695 0)
(14.6455 0.102114 0)
(14.6815 0.0989175 0)
(14.7159 0.0960446 0)
(14.7488 0.093428 0)
(14.7804 0.091038 0)
(14.8106 0.0888166 0)
(14.8396 0.0867644 0)
(14.8675 0.0848222 0)
(14.8941 0.0830163 0)
(14.9197 0.0812874 0)
(14.9442 0.0796646 0)
(14.9677 0.0781241 0)
(14.9902 0.076638 0)
(12.0025 0.0192147 0)
(12.0419 0.0528617 0)
(12.1207 0.08716 0)
(12.2314 0.115262 0)
(12.3646 0.138257 0)
(12.5159 0.153575 0)
(12.6758 0.161575 0)
(12.8403 0.162761 0)
(13.0032 0.158451 0)
(13.1615 0.149803 0)
(13.3117 0.138469 0)
(13.4525 0.125665 0)
(13.5826 0.112507 0)
(13.7019 0.0997512 0)
(13.8106 0.0879446 0)
(13.9096 0.0773855 0)
(13.9996 0.0682203 0)
(14.0816 0.0604532 0)
(14.1568 0.0540148 0)
(14.2261 0.0487745 0)
(14.2903 0.0445831 0)
(14.3503 0.0412802 0)
(14.4068 0.0387138 0)
(14.4604 0.0367439 0)
(14.5114 0.035248 0)
(14.5604 0.034123 0)
(14.6076 0.0332807 0)
(14.6532 0.0326545 0)
(14.6976 0.0321835 0)
(14.7408 0.0318318 0)
(14.7829 0.0315554 0)
(14.8241 0.031344 0)
(14.8644 0.0311593 0)
(14.904 0.0310125 0)
(14.9428 0.0308648 0)
(14.9808 0.0307419 0)
(15.0182 0.0306106 0)
(15.0549 0.0304897 0)
(15.0911 0.0303792 0)
(15.1266 0.0302494 0)
(12.0022 0.0106159 0)
(12.0387 0.0293739 0)
(12.1128 0.0465678 0)
(12.2177 0.0590155 0)
(12.3461 0.0681735 0)
(12.4932 0.0739328 0)
(12.6502 0.0773764 0)
(12.8123 0.0790143 0)
(12.9734 0.0793544 0)
(13.1302 0.0786736 0)
(13.279 0.0772141 0)
(13.4186 0.0751187 0)
(13.5476 0.0725504 0)
(13.666 0.0696386 0)
(13.774 0.0665218 0)
(13.8725 0.0633126 0)
(13.962 0.0601088 0)
(14.0439 0.056984 0)
(14.1188 0.0539938 0)
(14.188 0.0511717 0)
(14.2522 0.0485369 0)
(14.3122 0.0460951 0)
(14.3687 0.0438439 0)
(14.4223 0.0417755 0)
(14.4734 0.0398778 0)
(14.5224 0.0381384 0)
(14.5697 0.036541 0)
(14.6155 0.0350752 0)
(14.6599 0.0337237 0)
(14.7032 0.0324816 0)
(14.7455 0.0313296 0)
(14.787 0.0302699 0)
(14.8275 0.0292797 0)
(14.8674 0.0283698 0)
(14.9065 0.0275141 0)
(14.9449 0.0267287 0)
(14.9828 0.0259912 0)
(15.02 0.0253085 0)
(15.0566 0.0246814 0)
(15.0927 0.0240821 0)
(12.0022 -0.0106159 0)
(12.0387 -0.0293739 0)
(12.1128 -0.0465677 0)
(12.2177 -0.0590153 0)
(12.3461 -0.0681733 0)
(12.4932 -0.0739325 0)
(12.6502 -0.077376 0)
(12.8123 -0.0790137 0)
(12.9734 -0.0793536 0)
(13.1302 -0.0786726 0)
(13.279 -0.0772128 0)
(13.4186 -0.0751171 0)
(13.5476 -0.0725483 0)
(13.666 -0.0696359 0)
(13.774 -0.0665184 0)
(13.8725 -0.0633083 0)
(13.962 -0.0601034 0)
(14.0439 -0.0569772 0)
(14.1188 -0.0539853 0)
(14.188 -0.051161 0)
(14.2522 -0.0485238 0)
(14.3122 -0.0460786 0)
(14.3687 -0.0438238 0)
(14.4223 -0.0417502 0)
(14.4734 -0.0398474 0)
(14.5224 -0.0380997 0)
(14.5697 -0.0364951 0)
(14.6155 -0.0350162 0)
(14.6599 -0.0336546 0)
(14.7032 -0.0323922 0)
(14.7456 -0.0312259 0)
(14.787 -0.0301355 0)
(14.8275 -0.0291242 0)
(14.8674 -0.0281697 0)
(14.9065 -0.0272802 0)
(14.9449 -0.0264348 0)
(14.9828 -0.0256387 0)
(15.02 -0.0248832 0)
(15.0567 -0.0241555 0)
(15.0928 -0.0234751 0)
(12.0025 -0.0192147 0)
(12.0419 -0.0528617 0)
(12.1207 -0.0871599 0)
(12.2314 -0.115262 0)
(12.3646 -0.138256 0)
(12.5159 -0.153574 0)
(12.6758 -0.161574 0)
(12.8403 -0.16276 0)
(13.0032 -0.15845 0)
(13.1615 -0.149802 0)
(13.3117 -0.138467 0)
(13.4525 -0.125663 0)
(13.5826 -0.112505 0)
(13.7019 -0.0997486 0)
(13.8106 -0.0879412 0)
(13.9096 -0.0773812 0)
(13.9996 -0.068215 0)
(14.0816 -0.0604466 0)
(14.1568 -0.0540065 0)
(14.2261 -0.0487641 0)
(14.2903 -0.0445703 0)
(14.3503 -0.0412641 0)
(14.4068 -0.0386942 0)
(14.4604 -0.0367192 0)
(14.5114 -0.0352182 0)
(14.5604 -0.0340851 0)
(14.6076 -0.0332357 0)
(14.6533 -0.0325968 0)
(14.6976 -0.0321158 0)
(14.7408 -0.0317441 0)
(14.7829 -0.031454 0)
(14.8241 -0.0312119 0)
(14.8645 -0.0310075 0)
(14.904 -0.0308154 0)
(14.9428 -0.0306362 0)
(14.9809 -0.030452 0)
(15.0183 -0.030265 0)
(15.055 -0.0300703 0)
(15.0912 -0.0298592 0)
(15.1267 -0.0296491 0)
(12.0029 -0.046456 0)
(12.0427 -0.119968 0)
(12.1217 -0.190146 0)
(12.2362 -0.242256 0)
(12.3757 -0.281868 0)
(12.5363 -0.307141 0)
(12.7067 -0.320877 0)
(12.8816 -0.324731 0)
(13.0538 -0.320793 0)
(13.2196 -0.310588 0)
(13.3751 -0.296095 0)
(13.5189 -0.27876 0)
(13.6501 -0.260029 0)
(13.7689 -0.240956 0)
(13.8758 -0.222415 0)
(13.9719 -0.20497 0)
(14.0583 -0.188987 0)
(14.1362 -0.174631 0)
(14.2067 -0.161945 0)
(14.271 -0.150859 0)
(14.3299 -0.141252 0)
(14.3842 -0.132963 0)
(14.4347 -0.125825 0)
(14.4819 -0.119671 0)
(14.5262 -0.114347 0)
(14.5681 -0.109713 0)
(14.6078 -0.105651 0)
(14.6455 -0.102058 0)
(14.6815 -0.0988527 0)
(14.716 -0.0959608 0)
(14.7489 -0.0933312 0)
(14.7805 -0.0909113 0)
(14.8107 -0.0886718 0)
(14.8397 -0.0865747 0)
(14.8676 -0.084605 0)
(14.8943 -0.0827364 0)
(14.9199 -0.0809584 0)
(14.9445 -0.0792587 0)
(14.968 -0.0776217 0)
(14.9906 -0.0760547 0)
(12.0053 -0.0485965 0)
(12.0609 -0.138341 0)
(12.1576 -0.23008 0)
(12.2964 -0.304179 0)
(12.458 -0.362795 0)
(12.6376 -0.400836 0)
(12.8196 -0.419485 0)
(12.9972 -0.421438 0)
(13.1622 -0.410177 0)
(13.3109 -0.388621 0)
(13.4402 -0.360946 0)
(13.5501 -0.330038 0)
(13.6409 -0.298425 0)
(13.7147 -0.267791 0)
(13.7729 -0.239328 0)
(13.818 -0.213676 0)
(13.8517 -0.191139 0)
(13.876 -0.171706 0)
(13.8924 -0.155215 0)
(13.9023 -0.141374 0)
(13.9069 -0.129853 0)
(13.907 -0.120303 0)
(13.9034 -0.112396 0)
(13.8967 -0.10583 0)
(13.8874 -0.100346 0)
(13.8759 -0.0957197 0)
(13.8625 -0.0917696 0)
(13.8474 -0.0883445 0)
(13.831 -0.0853277 0)
(13.8132 -0.0826224 0)
(13.7944 -0.0801596 0)
(13.7745 -0.0778782 0)
(13.7538 -0.0757413 0)
(13.7323 -0.07371 0)
(13.7102 -0.0717666 0)
(13.6874 -0.0698875 0)
(13.6641 -0.0680635 0)
(13.6403 -0.0662851 0)
(13.6161 -0.0645428 0)
(13.5916 -0.0628433 0)
(12.0077 -0.10473 0)
(12.0817 -0.238272 0)
(12.208 -0.370323 0)
(12.3549 -0.468015 0)
(12.4765 -0.538389 0)
(12.5595 -0.578494 0)
(12.5903 -0.591772 0)
(12.5739 -0.583365 0)
(12.5157 -0.558502 0)
(12.4259 -0.52165 0)
(12.3121 -0.47815 0)
(12.1836 -0.431742 0)
(12.0464 -0.385534 0)
(11.9059 -0.341519 0)
(11.7654 -0.301036 0)
(11.6275 -0.264712 0)
(11.4935 -0.232776 0)
(11.3646 -0.205094 0)
(11.241 -0.181372 0)
(11.1228 -0.16118 0)
(11.0099 -0.144069 0)
(10.9021 -0.129579 0)
(10.7992 -0.117296 0)
(10.7008 -0.106841 0)
(10.6068 -0.0978955 0)
(10.5168 -0.0901848 0)
(10.4305 -0.0834863 0)
(10.3479 -0.0776148 0)
(10.2686 -0.0724243 0)
(10.1925 -0.0677943 0)
(10.1195 -0.0636334 0)
(10.0493 -0.0598631 0)
(9.98194 -0.0564274 0)
(9.91716 -0.0532739 0)
(9.8549 -0.050369 0)
(9.79504 -0.0476787 0)
(9.73748 -0.0451813 0)
(9.68211 -0.0428572 0)
(9.62885 -0.0406867 0)
(9.57761 -0.0386631 0)
(11.9663 -0.101648 0)
(11.7448 -0.280348 0)
(11.273 -0.429623 0)
(10.6707 -0.50167 0)
(9.9795 -0.514447 0)
(9.26503 -0.483842 0)
(8.56274 -0.427833 0)
(7.90453 -0.362337 0)
(7.30084 -0.295715 0)
(6.76419 -0.232146 0)
(6.29449 -0.175722 0)
(5.89092 -0.127427 0)
(5.54774 -0.0872696 0)
(5.25944 -0.0546359 0)
(5.01873 -0.0286729 0)
(4.81922 -0.00843984 0)
(4.65416 0.00692905 0)
(4.51789 0.018313 0)
(4.40509 0.026452 0)
(4.31142 0.03201 0)
(4.23306 0.0355335 0)
(4.16697 0.0374871 0)
(4.11059 0.0382428 0)
(4.06191 0.0381057 0)
(4.0193 0.0373148 0)
(3.9815 0.0360609 0)
(3.94749 0.0344901 0)
(3.91652 0.0327164 0)
(3.88796 0.0308247 0)
(3.86137 0.0288807 0)
(3.83637 0.0269308 0)
(3.8127 0.0250112 0)
(3.79015 0.0231451 0)
(3.76856 0.0213515 0)
(3.74781 0.0196402 0)
(3.72778 0.0180202 0)
(3.70844 0.0164946 0)
(3.6897 0.0150653 0)
(3.67153 0.0137327 0)
(3.65389 0.0124925 0)
(3.63709 -0.0111899 0)
(3.62319 -0.0101411 0)
(3.60934 -0.00912126 0)
(3.59574 -0.00823236 0)
(3.58219 -0.00736759 0)
(3.5691 -0.00665431 0)
(3.55566 -0.00592701 0)
(3.54367 -0.00536278 0)
(3.52948 -0.00480625 0)
(3.52045 -0.00430551 0)
(9.52654 0.0372436 0)
(9.47901 0.0355527 0)
(9.43327 0.0340549 0)
(9.38945 0.0325607 0)
(9.34717 0.0312481 0)
(9.30672 0.0298912 0)
(9.26752 0.0287137 0)
(9.23017 0.0274862 0)
(9.19375 0.0263502 0)
(9.15917 0.0253013 0)
(13.5657 0.0618314 0)
(13.5404 0.0603007 0)
(13.515 0.0588798 0)
(13.4894 0.0574028 0)
(13.4637 0.0560335 0)
(13.4379 0.0545806 0)
(13.4121 0.0532305 0)
(13.3863 0.0518118 0)
(13.3605 0.0504136 0)
(13.3348 0.0490633 0)
(15.0117 0.0752818 0)
(15.0323 0.0739261 0)
(15.052 0.0726744 0)
(15.0708 0.0713953 0)
(15.0887 0.0702067 0)
(15.1059 0.0689654 0)
(15.1221 0.0677986 0)
(15.1377 0.0665852 0)
(15.1524 0.0653848 0)
(15.1663 0.0642059 0)
(15.1615 0.0301667 0)
(15.1959 0.030039 0)
(15.2297 0.0299538 0)
(15.263 0.0298075 0)
(15.2958 0.0296974 0)
(15.328 0.0295161 0)
(15.3598 0.0293552 0)
(15.3911 0.0291389 0)
(15.4218 0.0288954 0)
(15.4521 0.028649 0)
(15.1283 0.0235549 0)
(15.1634 0.0230274 0)
(15.1981 0.0225615 0)
(15.2322 0.0220766 0)
(15.2659 0.02164 0)
(15.2992 0.0211726 0)
(15.332 0.0207342 0)
(15.3644 0.0202725 0)
(15.3964 0.0198035 0)
(15.428 0.0193431 0)
(15.1284 -0.0228009 0)
(15.1635 -0.0221829 0)
(15.1981 -0.0215679 0)
(15.2322 -0.0210149 0)
(15.2659 -0.0204686 0)
(15.2992 -0.0199843 0)
(15.332 -0.019518 0)
(15.3644 -0.0191006 0)
(15.3963 -0.0187246 0)
(15.4279 -0.0183713 0)
(15.1616 -0.0294129 0)
(15.196 -0.0291911 0)
(15.2298 -0.0289478 0)
(15.2631 -0.0287302 0)
(15.2958 -0.0285005 0)
(15.3281 -0.0283016 0)
(15.3598 -0.0281044 0)
(15.391 -0.0279322 0)
(15.4217 -0.027781 0)
(15.4519 -0.0276384 0)
(15.0121 -0.0745309 0)
(15.0328 -0.0730754 0)
(15.0525 -0.0716557 0)
(15.0714 -0.0703034 0)
(15.0894 -0.068986 0)
(15.1066 -0.067732 0)
(15.1229 -0.0665179 0)
(15.1384 -0.0653572 0)
(15.1532 -0.0642461 0)
(15.1672 -0.0631726 0)
(13.5668 -0.0611706 0)
(13.5418 -0.0595453 0)
(13.5165 -0.0579476 0)
(13.4911 -0.056403 0)
(13.4656 -0.0548911 0)
(13.44 -0.0534345 0)
(13.4143 -0.0520178 0)
(13.3886 -0.0506515 0)
(13.3629 -0.049333 0)
(13.3372 -0.0480541 0)
(9.5283 -0.0367651 0)
(9.48083 -0.0349969 0)
(9.43513 -0.0333368 0)
(9.39111 -0.0317932 0)
(9.34869 -0.0303451 0)
(9.3078 -0.0289993 0)
(9.26836 -0.0277399 0)
(9.2303 -0.0265678 0)
(9.19353 -0.0254783 0)
(9.15802 -0.0244611 0)
(3.63676 0.0113454 0)
(3.62011 0.0102826 0)
(3.60391 0.00930534 0)
(3.58816 0.00840312 0)
(3.57281 0.00757669 0)
(3.55787 0.00681638 0)
(3.5433 0.00612153 0)
(3.52911 0.00548594 0)
(3.51525 0.0049065 0)
(3.50173 0.00438219 0)
(3.50253 -0.00398705 0)
(3.485 -0.00355736 0)
(3.46913 -0.00324816 0)
(3.45423 -0.00294186 0)
(3.44047 -0.00268079 0)
(3.42743 -0.00242888 0)
(3.41518 -0.00220601 0)
(3.40346 -0.00199695 0)
(3.39228 -0.00181113 0)
(3.38152 -0.00164019 0)
(3.37114 -0.00148883 0)
(3.3611 -0.00135214 0)
(3.35134 -0.00123359 0)
(3.34187 -0.00112928 0)
(3.33262 -0.00104254 0)
(3.32362 -0.000968165 0)
(3.3148 -0.000910588 0)
(3.30622 -0.000861596 0)
(3.29778 -0.000827231 0)
(3.28958 -0.00079709 0)
(3.28148 -0.000779378 0)
(3.27364 -0.000763488 0)
(3.26584 -0.000756509 0)
(3.25834 -0.000751582 0)
(3.25082 -0.000751304 0)
(3.24364 -0.000756035 0)
(3.23638 -0.000756678 0)
(3.22949 -0.000775675 0)
(3.22252 -0.000767448 0)
(3.21586 -0.00081403 0)
(3.20926 -0.000778687 0)
(3.20268 -0.000875961 0)
(3.19667 -0.000788095 0)
(3.18988 -0.000963904 0)
(3.18489 -0.00081671 0)
(3.17748 -0.00106197 0)
(3.1741 -0.000976128 0)
(3.16594 -0.00109271 0)
(3.16442 -0.00157837 0)
(3.15677 -0.00118078 0)
(9.12563 0.0240504 0)
(9.09277 0.0229943 0)
(9.06092 0.0219282 0)
(9.02984 0.0209816 0)
(8.99972 0.020082 0)
(8.97044 0.0192778 0)
(8.94205 0.0185312 0)
(8.91447 0.0178609 0)
(8.88772 0.0172429 0)
(8.86173 0.0166834 0)
(8.83649 0.0161659 0)
(8.81195 0.0156927 0)
(8.78809 0.0152528 0)
(8.76488 0.0148479 0)
(8.74227 0.0144699 0)
(8.72027 0.0141199 0)
(8.69881 0.013792 0)
(8.67791 0.0134856 0)
(8.65748 0.0131955 0)
(8.6376 0.0129223 0)
(8.61813 0.012662 0)
(8.59917 0.0124176 0)
(8.58057 0.0121808 0)
(8.56248 0.0119592 0)
(8.54465 0.0117462 0)
(8.52736 0.0115352 0)
(8.51025 0.0113495 0)
(8.4937 0.0111297 0)
(8.47726 0.0109902 0)
(8.46138 0.0107247 0)
(8.44563 0.0106717 0)
(8.4303 0.0102902 0)
(8.41538 0.0103897 0)
(8.40031 0.00979319 0)
(8.38667 0.0100871 0)
(8.37125 0.00920592 0)
(8.35986 0.00953274 0)
(8.34298 0.00850766 0)
(8.33579 0.00823639 0)
(8.31582 0.00711981 0)
(13.3093 0.0475585 0)
(13.2837 0.0461572 0)
(13.2583 0.0447222 0)
(13.233 0.0433768 0)
(13.2079 0.0420592 0)
(13.1829 0.0408212 0)
(13.1581 0.0396307 0)
(13.1335 0.0385091 0)
(13.1091 0.037438 0)
(13.085 0.0364255 0)
(13.061 0.0354591 0)
(13.0373 0.0345405 0)
(13.0139 0.0336594 0)
(12.9907 0.0328168 0)
(12.9677 0.0320036 0)
(12.945 0.031223 0)
(12.9225 0.0304653 0)
(12.9004 0.0297388 0)
(12.8785 0.0290308 0)
(12.8569 0.0283548 0)
(12.8355 0.0276944 0)
(12.8145 0.0270672 0)
(12.7937 0.0264545 0)
(12.7733 0.0258719 0)
(12.753 0.0253055 0)
(12.7331 0.0247555 0)
(12.7134 0.0242376 0)
(12.6941 0.0236924 0)
(12.6749 0.0232422 0)
(12.6562 0.0226462 0)
(12.6375 0.0223238 0)
(12.6193 0.021566 0)
(12.6014 0.0215015 0)
(12.5834 0.0203722 0)
(12.5666 0.0207705 0)
(12.5482 0.0189252 0)
(12.5338 0.0199593 0)
(12.5132 0.016965 0)
(12.504 0.0184098 0)
(12.4781 0.0138644 0)
(15.1796 0.0629288 0)
(15.192 0.0617318 0)
(15.2038 0.0605058 0)
(15.2148 0.0593497 0)
(15.2252 0.0582104 0)
(15.2349 0.0571334 0)
(15.244 0.0560901 0)
(15.2525 0.0550995 0)
(15.2605 0.0541437 0)
(15.2679 0.0532296 0)
(15.2747 0.0523454 0)
(15.2811 0.0514936 0)
(15.2869 0.0506656 0)
(15.2923 0.0498632 0)
(15.2972 0.0490787 0)
(15.3017 0.048315 0)
(15.3056 0.047564 0)
(15.3092 0.0468313 0)
(15.3124 0.0461076 0)
(15.3151 0.0454024 0)
(15.3175 0.044706 0)
(15.3195 0.0440288 0)
(15.3211 0.0433613 0)
(15.3224 0.0427104 0)
(15.3233 0.0420741 0)
(15.324 0.0414369 0)
(15.3243 0.0408382 0)
(15.3244 0.0401846 0)
(15.3241 0.0396512 0)
(15.3237 0.0389141 0)
(15.3228 0.0385258 0)
(15.3219 0.037559 0)
(15.3205 0.0375021 0)
(15.3191 0.0359957 0)
(15.3172 0.0366314 0)
(15.3153 0.0339823 0)
(15.3132 0.0358579 0)
(15.3102 0.0310924 0)
(15.3087 0.0344495 0)
(15.3035 0.0268905 0)
(15.4819 0.0283136 0)
(15.5111 0.0280075 0)
(15.5399 0.0276572 0)
(15.5682 0.027341 0)
(15.596 0.0270201 0)
(15.6234 0.0267342 0)
(15.6503 0.0264627 0)
(15.6768 0.0262238 0)
(15.7029 0.0260051 0)
(15.7286 0.0258138 0)
(15.754 0.0256412 0)
(15.7789 0.025489 0)
(15.8035 0.0253506 0)
(15.8277 0.0252259 0)
(15.8515 0.0251101 0)
(15.875 0.0250028 0)
(15.8981 0.0249007 0)
(15.9209 0.0248037 0)
(15.9434 0.0247089 0)
(15.9655 0.0246174 0)
(15.9872 0.0245272 0)
(16.0087 0.02444 0)
(16.0297 0.0243546 0)
(16.0505 0.0242695 0)
(16.071 0.0241924 0)
(16.0912 0.0241013 0)
(16.111 0.0240394 0)
(16.1307 0.0239208 0)
(16.1498 0.023898 0)
(16.169 0.0237022 0)
(16.1874 0.0237829 0)
(16.2063 0.0233976 0)
(16.2237 0.0237301 0)
(16.2427 0.0229145 0)
(16.2586 0.0237872 0)
(16.2783 0.0220645 0)
(16.2914 0.0239152 0)
(16.3133 0.0205211 0)
(16.3214 0.0235039 0)
(16.3471 0.0180116 0)
(15.4592 0.0188356 0)
(15.4899 0.0183626 0)
(15.5203 0.017869 0)
(15.5503 0.0174124 0)
(15.5799 0.0169608 0)
(15.6091 0.0165443 0)
(15.638 0.0161452 0)
(15.6666 0.0157774 0)
(15.6948 0.0154301 0)
(15.7227 0.0151089 0)
(15.7504 0.0148062 0)
(15.7777 0.0145233 0)
(15.8048 0.0142549 0)
(15.8317 0.0140008 0)
(15.8582 0.0137571 0)
(15.8845 0.0135241 0)
(15.9105 0.013299 0)
(15.9364 0.0130824 0)
(15.9619 0.012872 0)
(15.9872 0.0126686 0)
(16.0123 0.0124704 0)
(16.0372 0.0122775 0)
(16.0618 0.0120885 0)
(16.0862 0.0119025 0)
(16.1104 0.0117214 0)
(16.1345 0.0115379 0)
(16.1582 0.0113658 0)
(16.182 0.0111778 0)
(16.2052 0.0110216 0)
(16.2288 0.0108134 0)
(16.2514 0.0106914 0)
(16.2749 0.0104276 0)
(16.2967 0.0103833 0)
(16.3206 0.00999223 0)
(16.3407 0.0101116 0)
(16.3661 0.00944999 0)
(16.3829 0.00986313 0)
(16.4114 0.00869319 0)
(16.4218 0.00945288 0)
(16.4559 0.00758064 0)
(15.4591 -0.0180791 0)
(15.4898 -0.0177908 0)
(15.5202 -0.0175436 0)
(15.5501 -0.0172921 0)
(15.5797 -0.017058 0)
(15.609 -0.0168149 0)
(15.6379 -0.0165745 0)
(15.6665 -0.0163241 0)
(15.6947 -0.0160705 0)
(15.7227 -0.0158085 0)
(15.7503 -0.0155423 0)
(15.7777 -0.0152707 0)
(15.8048 -0.0149961 0)
(15.8316 -0.0147194 0)
(15.8582 -0.0144422 0)
(15.8845 -0.0141668 0)
(15.9105 -0.013894 0)
(15.9363 -0.0136265 0)
(15.9619 -0.0133646 0)
(15.9872 -0.0131102 0)
(16.0123 -0.0128629 0)
(16.0372 -0.0126238 0)
(16.0618 -0.0123924 0)
(16.0862 -0.0121677 0)
(16.1104 -0.0119518 0)
(16.1345 -0.0117378 0)
(16.1582 -0.0115393 0)
(16.182 -0.0113279 0)
(16.2052 -0.0111521 0)
(16.2288 -0.0109265 0)
(16.2514 -0.0107905 0)
(16.2749 -0.0105144 0)
(16.2967 -0.0104609 0)
(16.3206 -0.0100601 0)
(16.3407 -0.010173 0)
(16.3661 -0.00950336 0)
(16.3828 -0.00991276 0)
(16.4114 -0.00873458 0)
(16.4218 -0.00949265 0)
(16.4558 -0.007609 0)
(15.4817 -0.0275307 0)
(15.5109 -0.0274174 0)
(15.5397 -0.0273264 0)
(15.568 -0.0272244 0)
(15.5959 -0.0271293 0)
(15.6233 -0.027022 0)
(15.6503 -0.0269126 0)
(15.6768 -0.0267923 0)
(15.703 -0.0266672 0)
(15.7287 -0.026534 0)
(15.7541 -0.0263961 0)
(15.779 -0.0262529 0)
(15.8036 -0.0261062 0)
(15.8278 -0.0259565 0)
(15.8516 -0.025805 0)
(15.8751 -0.0256534 0)
(15.8983 -0.0255019 0)
(15.921 -0.0253526 0)
(15.9435 -0.025205 0)
(15.9656 -0.0250615 0)
(15.9873 -0.0249214 0)
(16.0087 -0.0247874 0)
(16.0298 -0.0246594 0)
(16.0506 -0.0245353 0)
(16.071 -0.0244232 0)
(16.0912 -0.0243015 0)
(16.111 -0.0242131 0)
(16.1306 -0.0240712 0)
(16.1497 -0.0240288 0)
(16.169 -0.0238157 0)
(16.1873 -0.0238825 0)
(16.2062 -0.0234849 0)
(16.2236 -0.0238081 0)
(16.2426 -0.0229829 0)
(16.2585 -0.0238492 0)
(16.2782 -0.0221184 0)
(16.2913 -0.0239654 0)
(16.3131 -0.020563 0)
(16.3212 -0.0235443 0)
(16.3469 -0.0180405 0)
(15.1804 -0.0621537 0)
(15.1929 -0.0611587 0)
(15.2047 -0.0602058 0)
(15.2158 -0.0592683 0)
(15.2262 -0.058358 0)
(15.2359 -0.0574579 0)
(15.2451 -0.0565738 0)
(15.2536 -0.0556968 0)
(15.2615 -0.0548293 0)
(15.2689 -0.0539671 0)
(15.2757 -0.0531117 0)
(15.282 -0.052263 0)
(15.2877 -0.0514214 0)
(15.293 -0.0505892 0)
(15.2978 -0.0497651 0)
(15.3022 -0.0489537 0)
(15.3061 -0.0481507 0)
(15.3095 -0.0473636 0)
(15.3126 -0.0465858 0)
(15.3153 -0.0458276 0)
(15.3175 -0.0450809 0)
(15.3194 -0.044357 0)
(15.3209 -0.0436472 0)
(15.3222 -0.0429577 0)
(15.323 -0.0422874 0)
(15.3236 -0.0416205 0)
(15.3238 -0.0409962 0)
(15.3239 -0.0403201 0)
(15.3235 -0.0397682 0)
(15.323 -0.0390148 0)
(15.3221 -0.0386137 0)
(15.3211 -0.0376352 0)
(15.3196 -0.0375699 0)
(15.3182 -0.0360545 0)
(15.3163 -0.0366847 0)
(15.3143 -0.0340285 0)
(15.3122 -0.0359009 0)
(15.3091 -0.0311284 0)
(15.3076 -0.0344837 0)
(15.3024 -0.0269154 0)
(13.3116 -0.0468262 0)
(13.286 -0.0456281 0)
(13.2605 -0.0444735 0)
(13.2351 -0.0433434 0)
(13.2098 -0.0422467 0)
(13.1846 -0.0411717 0)
(13.1596 -0.0401238 0)
(13.1348 -0.0390979 0)
(13.1101 -0.0380973 0)
(13.0857 -0.037121 0)
(13.0615 -0.0361698 0)
(13.0375 -0.0352436 0)
(13.0137 -0.0343411 0)
(12.9902 -0.033464 0)
(12.967 -0.0326089 0)
(12.944 -0.0317804 0)
(12.9213 -0.0309729 0)
(12.899 -0.0301954 0)
(12.8768 -0.0294378 0)
(12.8551 -0.0287144 0)
(12.8335 -0.0280099 0)
(12.8123 -0.0273421 0)
(12.7914 -0.0266931 0)
(12.7708 -0.026078 0)
(12.7504 -0.0254839 0)
(12.7305 -0.0249093 0)
(12.7107 -0.0243709 0)
(12.6913 -0.0238079 0)
(12.6721 -0.0233433 0)
(12.6533 -0.0227344 0)
(12.6346 -0.0224028 0)
(12.6164 -0.0216358 0)
(12.5984 -0.0215662 0)
(12.5805 -0.0204297 0)
(12.5637 -0.0208258 0)
(12.5452 -0.0189738 0)
(12.5308 -0.0200078 0)
(12.5102 -0.0170064 0)
(12.501 -0.0184522 0)
(12.4752 -0.0138986 0)
(9.12366 -0.023521 0)
(9.09042 -0.0226396 0)
(9.05823 -0.0218215 0)
(9.02704 -0.0210507 0)
(8.99681 -0.0203293 0)
(8.96749 -0.0196485 0)
(8.93903 -0.0190072 0)
(8.91141 -0.0184011 0)
(8.88459 -0.0178278 0)
(8.85854 -0.0172842 0)
(8.83322 -0.0167672 0)
(8.8086 -0.016277 0)
(8.78466 -0.0158107 0)
(8.76138 -0.0153698 0)
(8.7387 -0.0149517 0)
(8.71664 -0.0145588 0)
(8.69513 -0.0141867 0)
(8.6742 -0.0138369 0)
(8.65376 -0.0135058 0)
(8.63387 -0.0131939 0)
(8.61441 -0.0128978 0)
(8.59549 -0.0126212 0)
(8.57692 -0.0123566 0)
(8.55888 -0.0121102 0)
(8.54111 -0.011875 0)
(8.52389 -0.0116459 0)
(8.50685 -0.011445 0)
(8.49037 -0.0112117 0)
(8.47401 -0.0110616 0)
(8.45822 -0.0107868 0)
(8.44255 -0.0107265 0)
(8.4273 -0.010339 0)
(8.41247 -0.0104345 0)
(8.39748 -0.00983269 0)
(8.38392 -0.0101238 0)
(8.36859 -0.00923814 0)
(8.35726 -0.00956406 0)
(8.34048 -0.00853439 0)
(8.33333 -0.0082634 0)
(8.31349 -0.00714023 0)
(3.48852 0.00390654 0)
(3.47563 0.00348176 0)
(3.46302 0.00310003 0)
(3.4507 0.00276251 0)
(3.43867 0.00246305 0)
(3.42692 0.00220123 0)
(3.41544 0.00197235 0)
(3.40424 0.00177427 0)
(3.3933 0.00160322 0)
(3.38263 0.00145562 0)
(3.37222 0.00132902 0)
(3.36208 0.00122019 0)
(3.35218 0.00112858 0)
(3.34253 0.00105083 0)
(3.33311 0.000988274 0)
(3.32395 0.000936334 0)
(3.31498 0.00089792 0)
(3.30626 0.000865449 0)
(3.29771 0.000844838 0)
(3.28942 0.000825844 0)
(3.28124 0.000816566 0)
(3.27335 0.000807006 0)
(3.26551 0.000804473 0)
(3.25798 0.000802206 0)
(3.25045 0.00080286 0)
(3.24326 0.000807712 0)
(3.23601 0.000807612 0)
(3.22913 0.000824901 0)
(3.22217 0.000814629 0)
(3.21553 0.000858672 0)
(3.20894 0.000820428 0)
(3.20238 0.000914784 0)
(3.19639 0.000824422 0)
(3.18962 0.000996891 0)
(3.18465 0.000847719 0)
(3.17725 0.00108917 0)
(3.17389 0.001003 0)
(3.16574 0.00111458 0)
(3.16423 0.00160188 0)
(3.15661 0.00119779 0)
)
;

boundaryField
{
    upperWall
    {
        type            noSlip;
    }
    lowerWall
    {
        type            noSlip;
    }
    heatedWall
    {
        type            noSlip;
    }
    inlet
    {
        type            fixedValue;
        value           uniform (12 0 0);
    }
    outlet
    {
        type            pressureInletOutletVelocity;
        value           nonuniform List<vector> 
12
(
(3.15677 -0.00118078 0)
(8.31582 0.00711981 0)
(12.4781 0.0138644 0)
(15.3035 0.0268905 0)
(16.3471 0.0180116 0)
(16.4559 0.00758064 0)
(16.4558 -0.007609 0)
(16.3469 -0.0180405 0)
(15.3024 -0.0269154 0)
(12.4752 -0.0138986 0)
(8.31349 -0.00714023 0)
(3.15661 0.00119779 0)
)
;
    }
    frontAndBack
    {
        type            empty;
    }
}


// ************************************************************************* //
