/*--------------------------------*- C++ -*----------------------------------*\
  =========                 |
  \\      /  F ield         | OpenFOAM: The Open Source CFD Toolbox
   \\    /   O peration     | Website:  https://openfoam.org
    \\  /    A nd           | Version:  7
     \\/     M anipulation  |
\*---------------------------------------------------------------------------*/
FoamFile
{
    version     2.0;
    format      ascii;
    class       volVectorField;
    location    "1.175";
    object      UMean;
}
// * * * * * * * * * * * * * * * * * * * * * * * * * * * * * * * * * * * * * //

dimensions      [0 1 -1 0 0 0 0];

internalField   nonuniform List<vector> 
7920
(
(2.9471 0.0987129 -32.3855)
(2.15713 -0.457576 -32.4396)
(1.46863 -0.607892 -32.4411)
(1.37893 -0.662303 -32.4505)
(1.15616 -0.678521 -32.4469)
(1.19282 -0.683321 -32.4525)
(1.05926 -0.687309 -32.4491)
(1.11167 -0.68749 -32.4532)
(1.0117 -0.68966 -32.4505)
(1.06184 -0.689289 -32.4536)
(0.982284 -0.690735 -32.4516)
(1.02709 -0.690118 -32.454)
(0.962284 -0.691071 -32.4526)
(1.00152 -0.690487 -32.4544)
(0.947807 -0.690897 -32.4536)
(0.982149 -0.690993 -32.4547)
(0.935232 -0.687412 -32.4549)
(0.962254 -0.693654 -32.4543)
(0.923306 -0.638034 -32.4577)
(0.767126 -0.645991 -32.4469)
(4.41023 0.95129 -32.4322)
(4.34823 0.851752 -32.4778)
(3.72209 0.797763 -32.4815)
(3.60443 0.732524 -32.4944)
(3.23185 0.706509 -32.4934)
(3.24939 0.694244 -32.5001)
(3.00791 0.688474 -32.4981)
(3.06612 0.685538 -32.5023)
(2.88704 0.683733 -32.5008)
(2.95149 0.68236 -32.5037)
(2.81028 0.681387 -32.5027)
(2.87172 0.680401 -32.5049)
(2.75723 0.679797 -32.5046)
(2.81331 0.679137 -32.506)
(2.71833 0.678463 -32.5067)
(2.77111 0.679103 -32.5067)
(2.68364 0.67567 -32.5099)
(2.7565 0.681678 -32.505)
(2.62833 0.672458 -32.5177)
(2.92035 0.668903 -32.4801)
(4.74574 0.185541 -32.4368)
(5.24309 -0.236842 -32.4725)
(5.09346 -0.382814 -32.4651)
(5.21017 -0.499947 -32.4771)
(4.97172 -0.562518 -32.4723)
(5.03303 -0.59735 -32.4811)
(4.82891 -0.619802 -32.4769)
(4.88415 -0.632297 -32.4834)
(4.7189 -0.641656 -32.4801)
(4.77138 -0.647442 -32.485)
(4.63731 -0.652156 -32.4827)
(4.68599 -0.655467 -32.4866)
(4.57618 -0.658174 -32.4856)
(4.62031 -0.660172 -32.4883)
(4.53016 -0.662232 -32.4891)
(4.56716 -0.662019 -32.4899)
(4.49838 -0.666237 -32.4939)
(4.51099 -0.658466 -32.4901)
(4.48344 -0.663176 -32.5013)
(4.41014 -0.66929 -32.4708)
(4.74645 0.638631 -32.4466)
(5.26523 0.732203 -32.4797)
(5.34614 0.775912 -32.4704)
(5.63933 0.74529 -32.4791)
(5.56595 0.727448 -32.4739)
(5.73177 0.713242 -32.4808)
(5.62891 0.703315 -32.477)
(5.73979 0.695745 -32.4822)
(5.63971 0.690155 -32.4794)
(5.72168 0.68511 -32.4833)
(5.63181 0.681577 -32.4816)
(5.6961 0.677959 -32.4844)
(5.61718 0.675775 -32.484)
(5.67032 0.673005 -32.4859)
(5.59992 0.67202 -32.4869)
(5.64888 0.669417 -32.4878)
(5.57967 0.670926 -32.4907)
(5.64141 0.667001 -32.4897)
(5.55754 0.679255 -32.4953)
(5.69577 0.6971 -32.4708)
(4.73839 -0.0893417 -32.4458)
(5.23063 -0.386558 -32.4782)
(5.36636 -0.479397 -32.466)
(5.71054 -0.54533 -32.4744)
(5.69898 -0.580652 -32.4669)
(5.91671 -0.600306 -32.4738)
(5.86984 -0.613871 -32.4684)
(6.02343 -0.621517 -32.4738)
(5.97058 -0.627967 -32.4696)
(6.08587 -0.632107 -32.4738)
(6.03446 -0.635991 -32.4709)
(6.12369 -0.638742 -32.4743)
(6.07587 -0.641647 -32.4725)
(6.14612 -0.643133 -32.4752)
(6.10337 -0.646627 -32.4746)
(6.15726 -0.644394 -32.4769)
(6.12554 -0.653995 -32.4775)
(6.15384 -0.640009 -32.4795)
(6.15292 -0.666601 -32.4812)
(6.13197 -0.677295 -32.461)
(4.72572 0.347532 -32.4495)
(5.17529 0.548514 -32.4822)
(5.32162 0.624998 -32.4699)
(5.68091 0.644481 -32.4783)
(5.69161 0.654225 -32.4703)
(5.93076 0.657191 -32.4771)
(5.9072 0.658987 -32.4712)
(6.08155 0.658953 -32.4765)
(6.05114 0.659147 -32.472)
(6.1851 0.658458 -32.476)
(6.15401 0.658314 -32.4728)
(6.25923 0.657548 -32.4761)
(6.22892 0.657604 -32.4739)
(6.31255 0.656548 -32.4767)
(6.28381 0.657753 -32.4756)
(6.35035 0.654549 -32.4781)
(6.32611 0.661219 -32.478)
(6.3761 0.650548 -32.4806)
(6.36846 0.674675 -32.4814)
(6.40633 0.694822 -32.461)
(4.72572 -0.347532 -32.4495)
(5.17529 -0.548514 -32.4822)
(5.32162 -0.624999 -32.4699)
(5.68091 -0.64448 -32.4783)
(5.69161 -0.654226 -32.4703)
(5.93076 -0.65719 -32.4771)
(5.9072 -0.658986 -32.4712)
(6.08155 -0.65895 -32.4765)
(6.05114 -0.659144 -32.472)
(6.1851 -0.658452 -32.476)
(6.15401 -0.658304 -32.4727)
(6.25922 -0.657531 -32.4761)
(6.22894 -0.657575 -32.4739)
(6.31253 -0.656485 -32.4768)
(6.28388 -0.657693 -32.4755)
(6.35029 -0.6543 -32.4782)
(6.3263 -0.661128 -32.478)
(6.37591 -0.649769 -32.4806)
(6.36866 -0.674269 -32.4813)
(6.40591 -0.693274 -32.461)
(4.73839 0.0893417 -32.4458)
(5.23063 0.386558 -32.4782)
(5.36636 0.479397 -32.466)
(5.71054 0.545331 -32.4744)
(5.69898 0.580652 -32.4669)
(5.91671 0.600307 -32.4738)
(5.86984 0.613871 -32.4684)
(6.02343 0.621519 -32.4738)
(5.97058 0.62797 -32.4696)
(6.08588 0.632112 -32.4738)
(6.03445 0.636003 -32.4708)
(6.12372 0.638754 -32.4743)
(6.07584 0.641681 -32.4724)
(6.14621 0.643181 -32.4754)
(6.10334 0.646698 -32.4744)
(6.15748 0.644608 -32.4772)
(6.12558 0.65411 -32.4772)
(6.15439 0.640763 -32.4799)
(6.15342 0.667012 -32.4808)
(6.13357 0.678987 -32.4614)
(4.74645 -0.638631 -32.4466)
(5.26523 -0.732203 -32.4797)
(5.34614 -0.775912 -32.4704)
(5.63933 -0.74529 -32.4791)
(5.56595 -0.727448 -32.4739)
(5.73177 -0.713241 -32.4808)
(5.62891 -0.703315 -32.477)
(5.73979 -0.695743 -32.4823)
(5.63971 -0.690154 -32.4794)
(5.72169 -0.685104 -32.4834)
(5.63182 -0.68157 -32.4815)
(5.69613 -0.677942 -32.4846)
(5.61719 -0.675757 -32.4837)
(5.6704 -0.672943 -32.4863)
(5.60001 -0.671988 -32.4863)
(5.64904 -0.669177 -32.4886)
(5.58004 -0.670915 -32.4895)
(5.6417 -0.666294 -32.4914)
(5.55856 -0.679096 -32.493)
(5.69647 -0.696005 -32.4738)
(4.74573 -0.185541 -32.4368)
(5.24309 0.236842 -32.4725)
(5.09346 0.382815 -32.4651)
(5.21017 0.499947 -32.4771)
(4.97172 0.562518 -32.4723)
(5.03303 0.59735 -32.4811)
(4.82891 0.619803 -32.4769)
(4.88415 0.632297 -32.4835)
(4.7189 0.641659 -32.48)
(4.77139 0.647442 -32.4851)
(4.63731 0.652167 -32.4826)
(4.68605 0.655468 -32.4868)
(4.57617 0.658206 -32.4853)
(4.62049 0.660183 -32.4889)
(4.53017 0.6623 -32.4882)
(4.56764 0.662106 -32.4914)
(4.4986 0.666351 -32.4915)
(4.5122 0.658913 -32.4942)
(4.48457 0.663501 -32.4947)
(4.41394 0.670538 -32.4811)
(4.41023 -0.95129 -32.4322)
(4.34823 -0.851752 -32.4778)
(3.72209 -0.797763 -32.4815)
(3.60443 -0.732524 -32.4944)
(3.23185 -0.706509 -32.4934)
(3.24939 -0.694244 -32.5002)
(3.00791 -0.688474 -32.4981)
(3.06612 -0.685537 -32.5024)
(2.88705 -0.683734 -32.5007)
(2.95151 -0.682356 -32.5037)
(2.81029 -0.681387 -32.5027)
(2.87176 -0.68039 -32.505)
(2.75726 -0.679796 -32.5044)
(2.81344 -0.679099 -32.5064)
(2.71845 -0.678471 -32.5061)
(2.77139 -0.678962 -32.5078)
(2.68419 -0.675759 -32.5078)
(2.75693 -0.681286 -32.5091)
(2.63026 -0.672748 -32.509)
(2.92074 -0.669059 -32.499)
(2.9471 -0.0987129 -32.3855)
(2.15713 0.457576 -32.4396)
(1.46863 0.607892 -32.4411)
(1.37893 0.662303 -32.4505)
(1.15616 0.678522 -32.4469)
(1.19282 0.683321 -32.4525)
(1.05926 0.68731 -32.4491)
(1.11167 0.687489 -32.4532)
(1.0117 0.689661 -32.4505)
(1.06185 0.689287 -32.4536)
(0.982289 0.69074 -32.4515)
(1.02712 0.69011 -32.454)
(0.962295 0.691082 -32.4525)
(1.00159 0.690461 -32.4545)
(0.947854 0.690933 -32.4534)
(0.982327 0.690916 -32.455)
(0.935488 0.687548 -32.4543)
(0.962624 0.69352 -32.4555)
(0.924406 0.638651 -32.4549)
(0.768984 0.646793 -32.4546)
(4.3305 0.554723 0.00706692)
(3.13099 0.831723 0.0046302)
(2.40414 0.85302 0.00588041)
(1.88252 0.837602 0.00442277)
(1.7602 0.84052 0.00553784)
(1.58356 0.851753 0.00438087)
(1.58253 0.861047 0.00530548)
(1.48096 0.868513 0.00433479)
(1.49085 0.872324 0.00508879)
(1.42106 0.875602 0.00427169)
(1.43044 0.87703 0.00488773)
(1.3809 0.878773 0.00420308)
(1.38782 0.8793 0.00470641)
(1.35123 0.880546 0.00413416)
(1.35619 0.880205 0.0045436)
(1.32693 0.882654 0.00406536)
(1.33101 0.874802 0.0043979)
(1.32286 0.897568 0.00399454)
(1.26282 0.778723 0.00429358)
(1.71559 0.802163 0.00386848)
(4.74667 -0.105015 0.00450562)
(4.61187 -0.284346 0.00250117)
(4.53102 -0.484055 0.0037808)
(4.18309 -0.645288 0.00235649)
(4.05705 -0.737306 0.00348016)
(3.81448 -0.789066 0.00232882)
(3.75541 -0.814227 0.0032576)
(3.59963 -0.829641 0.00228942)
(3.57178 -0.838565 0.00304628)
(3.46609 -0.845308 0.00223072)
(3.4504 -0.849716 0.00284872)
(3.37553 -0.853425 0.00216486)
(3.36465 -0.855729 0.00266944)
(3.30907 -0.858358 0.00209758)
(3.30135 -0.858839 0.00250753)
(3.25485 -0.862411 0.00203003)
(3.25758 -0.860147 0.00235849)
(3.19486 -0.864513 0.00196236)
(3.25945 -0.871826 0.00219648)
(2.91114 -0.866393 0.0018258)
(4.62911 0.427496 0.00579356)
(4.81626 0.851113 0.00386264)
(5.10909 0.942221 0.00502554)
(5.05446 0.931699 0.0035618)
(5.10838 0.91329 0.00465999)
(4.98718 0.900526 0.0034964)
(4.99279 0.891507 0.00441933)
(4.89085 0.88615 0.00344787)
(4.88788 0.880275 0.00420279)
(4.80902 0.877184 0.00338556)
(4.80253 0.873177 0.00400216)
(4.74202 0.871475 0.00331712)
(4.7334 0.868896 0.00382063)
(4.68734 0.867841 0.00324786)
(4.67549 0.866339 0.00365743)
(4.64494 0.865222 0.00317854)
(4.61904 0.86269 0.00351174)
(4.62836 0.866808 0.0031073)
(4.54939 0.823403 0.00340688)
(4.68185 0.871826 0.00301024)
(4.56925 -0.201916 0.00462299)
(4.69585 -0.398707 0.00291093)
(5.09775 -0.521365 0.00407836)
(5.19 -0.625204 0.00264366)
(5.38304 -0.691798 0.00374398)
(5.38015 -0.737408 0.00258506)
(5.47424 -0.762964 0.00351112)
(5.44796 -0.781273 0.00254282)
(5.49938 -0.792986 0.00330047)
(5.46991 -0.802648 0.00248593)
(5.49851 -0.809652 0.0031044)
(5.47113 -0.815647 0.00242125)
(5.48654 -0.820365 0.00292583)
(5.46223 -0.824178 0.00235447)
(5.47034 -0.82803 0.00276423)
(5.44672 -0.829185 0.00228711)
(5.4554 -0.837528 0.00261482)
(5.41394 -0.827552 0.00221765)
(5.45548 -0.866043 0.00244998)
(5.25187 -0.872107 0.00210762)
(4.58177 0.336636 0.00527127)
(4.69285 0.675847 0.00359768)
(5.07584 0.786176 0.00471805)
(5.1874 0.825468 0.0032695)
(5.4164 0.840974 0.00435702)
(5.4562 0.849768 0.00319145)
(5.59331 0.852801 0.0041141)
(5.61028 0.854878 0.00314359)
(5.70066 0.853924 0.00390009)
(5.70867 0.853933 0.00308442)
(5.76939 0.852289 0.00370211)
(5.77245 0.85193 0.00301817)
(5.81318 0.850611 0.00352213)
(5.81355 0.849954 0.00295019)
(5.83973 0.849763 0.00335962)
(5.84028 0.847328 0.0028817)
(5.852 0.850647 0.00321276)
(5.85719 0.844267 0.00281056)
(5.85848 0.845405 0.00309151)
(5.83651 0.893761 0.00272559)
(4.57576 -0.266719 0.00490275)
(4.66558 -0.533162 0.00329314)
(5.04424 -0.646356 0.00441261)
(5.1578 -0.71582 0.00297119)
(5.39785 -0.755259 0.00405721)
(5.45147 -0.781966 0.00289189)
(5.60438 -0.795985 0.00381468)
(5.6377 -0.806211 0.00284456)
(5.74449 -0.811626 0.00360156)
(5.76893 -0.816639 0.00278645)
(5.84538 -0.81956 0.00340459)
(5.86348 -0.822628 0.00272113)
(5.9186 -0.824761 0.00322536)
(5.93133 -0.826417 0.00265384)
(5.97155 -0.82918 0.00306325)
(5.97838 -0.827596 0.002586)
(6.01042 -0.83655 0.00291464)
(5.99974 -0.824311 0.00251541)
(6.04776 -0.854841 0.00276885)
(5.93223 -0.883347 0.00242415)
(4.57576 0.266719 0.00490275)
(4.66558 0.533162 0.00329314)
(5.04424 0.646356 0.00441261)
(5.1578 0.71582 0.00297119)
(5.39785 0.755259 0.00405721)
(5.45147 0.781967 0.00289189)
(5.60437 0.795985 0.00381468)
(5.6377 0.806213 0.00284455)
(5.74449 0.811629 0.00360156)
(5.76893 0.816646 0.00278645)
(5.84537 0.81957 0.00340459)
(5.86349 0.822648 0.00272111)
(5.91858 0.82479 0.00322538)
(5.93138 0.826486 0.00265379)
(5.97149 0.829261 0.0030633)
(5.97854 0.827819 0.00258586)
(6.0103 0.836793 0.00291489)
(6.00026 0.824975 0.00251507)
(6.04795 0.855601 0.00276997)
(5.93326 0.885141 0.00242395)
(4.58177 -0.336636 0.00527127)
(4.69285 -0.675847 0.00359768)
(5.07584 -0.786176 0.00471805)
(5.1874 -0.825467 0.0032695)
(5.4164 -0.840974 0.00435702)
(5.4562 -0.849767 0.00319146)
(5.59331 -0.8528 0.0041141)
(5.61028 -0.854875 0.0031436)
(5.70066 -0.853922 0.00390008)
(5.70867 -0.853924 0.00308443)
(5.7694 -0.852282 0.00370209)
(5.77245 -0.851905 0.00301819)
(5.81321 -0.85059 0.0035221)
(5.81356 -0.849873 0.00295024)
(5.83984 -0.849709 0.00335953)
(5.84026 -0.847086 0.00288185)
(5.85231 -0.850491 0.00321243)
(5.85703 -0.843676 0.00281085)
(5.85905 -0.844829 0.00309037)
(5.83644 -0.892229 0.00272543)
(4.56925 0.201916 0.00462299)
(4.69585 0.398707 0.00291093)
(5.09775 0.521365 0.00407836)
(5.19 0.625205 0.00264366)
(5.38304 0.691798 0.00374398)
(5.38015 0.737408 0.00258506)
(5.47424 0.762965 0.00351112)
(5.44797 0.781275 0.00254282)
(5.49938 0.792989 0.00330047)
(5.46992 0.802651 0.00248593)
(5.4985 0.809663 0.0031044)
(5.47118 0.815658 0.00242124)
(5.48653 0.820397 0.00292582)
(5.46236 0.824218 0.00235446)
(5.47033 0.828121 0.00276422)
(5.44707 0.829326 0.00228706)
(5.45549 0.837798 0.00261491)
(5.41498 0.828094 0.00221749)
(5.45624 0.866851 0.0024509)
(5.25475 0.873798 0.00210743)
(4.62911 -0.427496 0.00579356)
(4.81626 -0.851112 0.00386264)
(5.10909 -0.942221 0.00502554)
(5.05446 -0.931699 0.0035618)
(5.10838 -0.91329 0.00465999)
(4.98718 -0.900525 0.00349641)
(4.99279 -0.891507 0.00441933)
(4.89086 -0.886147 0.00344787)
(4.88788 -0.880274 0.00420278)
(4.80903 -0.877177 0.00338557)
(4.80254 -0.873173 0.00400214)
(4.74206 -0.871453 0.00331715)
(4.73342 -0.868888 0.00382056)
(4.68745 -0.86777 0.00324795)
(4.6756 -0.866326 0.00365724)
(4.64523 -0.86501 0.00317881)
(4.61946 -0.862677 0.00351118)
(4.62902 -0.866366 0.00310786)
(4.55054 -0.823321 0.00340536)
(4.68367 -0.87119 0.00301057)
(4.74667 0.105015 0.00450562)
(4.61187 0.284346 0.00250117)
(4.53102 0.484055 0.0037808)
(4.18309 0.645288 0.00235649)
(4.05705 0.737306 0.00348016)
(3.81448 0.789066 0.00232883)
(3.75541 0.814228 0.0032576)
(3.59963 0.82964 0.00228942)
(3.57178 0.838568 0.00304628)
(3.46611 0.845306 0.00223072)
(3.4504 0.849724 0.00284872)
(3.37559 0.85342 0.00216486)
(3.36466 0.855755 0.00266942)
(3.30925 0.858343 0.00209759)
(3.30141 0.858915 0.00250748)
(3.25538 0.862383 0.00203009)
(3.25779 0.860383 0.00235836)
(3.19658 0.864625 0.00196252)
(3.25987 0.87255 0.00219655)
(2.91797 0.867785 0.00182643)
(4.3305 -0.554723 0.00706692)
(3.13099 -0.831723 0.0046302)
(2.40414 -0.85302 0.00588042)
(1.88252 -0.837601 0.00442277)
(1.7602 -0.84052 0.00553784)
(1.58356 -0.851753 0.00438088)
(1.58253 -0.861047 0.00530548)
(1.48096 -0.868511 0.00433479)
(1.49085 -0.872325 0.00508879)
(1.42106 -0.875599 0.0042717)
(1.43045 -0.877033 0.00488772)
(1.38093 -0.87876 0.0042031)
(1.38786 -0.879311 0.00470638)
(1.35132 -0.880502 0.00413422)
(1.35631 -0.880247 0.00454349)
(1.32714 -0.882528 0.00406556)
(1.33142 -0.874982 0.0043975)
(1.32334 -0.897339 0.00399513)
(1.26419 -0.779642 0.00429197)
(1.71617 -0.803345 0.0038714)
(4.37764 0.0926197 0.00144359)
(3.9988 0.139312 0.00198037)
(3.49999 0.1502 0.00104297)
(3.08224 0.142915 0.00157398)
(2.72042 0.131606 0.00105593)
(2.47601 0.124043 0.00145636)
(2.29306 0.120194 0.00111326)
(2.18477 0.120785 0.00136285)
(2.10779 0.12366 0.00113181)
(2.06371 0.128232 0.00127705)
(2.03192 0.132957 0.00113427)
(2.01135 0.137757 0.00121045)
(1.99634 0.141706 0.00113573)
(1.98477 0.145652 0.00116452)
(1.97471 0.147774 0.00114211)
(1.97186 0.152053 0.00113561)
(1.95354 0.149997 0.00115779)
(1.97849 0.159412 0.00111833)
(1.91205 0.144751 0.00116419)
(2.02893 0.154286 0.00117903)
(4.5359 0.083769 0.00322301)
(4.67345 0.110105 0.00393448)
(4.70443 0.106835 0.00299144)
(4.7034 0.0778961 0.00349864)
(4.63022 0.0392554 0.00295739)
(4.55858 -0.00151005 0.00334494)
(4.46665 -0.0367032 0.00299387)
(4.39221 -0.0658495 0.00324036)
(4.31682 -0.0874072 0.00300706)
(4.25726 -0.103989 0.00315192)
(4.20162 -0.115791 0.00300838)
(4.1569 -0.124928 0.00308474)
(4.11686 -0.1317 0.00300983)
(4.08454 -0.136833 0.00303865)
(4.05528 -0.141555 0.00301672)
(4.03476 -0.143402 0.00300932)
(4.00926 -0.149254 0.00303508)
(4.0061 -0.14494 0.00299015)
(3.96776 -0.156627 0.00307888)
(3.99543 -0.145386 0.00308668)
(4.51232 0.0438855 0.00179911)
(4.65344 0.103701 0.0023974)
(4.76682 0.150199 0.00148649)
(4.90791 0.173467 0.00199772)
(4.9937 0.180092 0.00146307)
(5.07154 0.178947 0.00185718)
(5.10619 0.174788 0.0015141)
(5.135 0.171553 0.00176525)
(5.14065 0.169584 0.00153688)
(5.14637 0.169141 0.00168331)
(5.14109 0.169296 0.00154215)
(5.13856 0.17004 0.00161865)
(5.13001 0.170268 0.00154477)
(5.12623 0.171398 0.00157357)
(5.11621 0.17004 0.00155144)
(5.1156 0.173452 0.00154568)
(5.10271 0.16636 0.00156499)
(5.10941 0.17959 0.00153509)
(5.09161 0.156137 0.00155668)
(5.10441 0.189423 0.00158887)
(4.50831 0.0419703 0.00281012)
(4.62072 0.0463487 0.00351551)
(4.72764 0.0397902 0.00262804)
(4.87957 0.0205877 0.00314377)
(4.99422 -0.00252114 0.00259531)
(5.11341 -0.0274995 0.00297843)
(5.19467 -0.0504034 0.00262518)
(5.27172 -0.0704546 0.00287172)
(5.32387 -0.086508 0.00263927)
(5.37376 -0.099411 0.00278435)
(5.40956 -0.109515 0.00264132)
(5.44464 -0.117357 0.00271738)
(5.4717 -0.124142 0.00264248)
(5.49811 -0.128637 0.00267106)
(5.52044 -0.134446 0.00264867)
(5.53986 -0.135362 0.00264242)
(5.56242 -0.143338 0.00266512)
(5.5698 -0.137589 0.0026315)
(5.60585 -0.151081 0.00271151)
(5.58038 -0.138228 0.00271911)
(4.50935 0.0160458 0.00211483)
(4.62165 0.0528045 0.00277512)
(4.72211 0.0855535 0.0018974)
(4.86878 0.108351 0.00240472)
(4.9818 0.122331 0.00185464)
(5.1046 0.131682 0.00223812)
(5.19335 0.138106 0.00188771)
(5.28124 0.143739 0.00213637)
(5.34617 0.148588 0.00190652)
(5.41032 0.153158 0.00205268)
(5.46137 0.156979 0.00191119)
(5.51203 0.160411 0.00198762)
(5.55548 0.162817 0.0019136)
(5.59731 0.165376 0.00194233)
(5.6368 0.16589 0.00192017)
(5.66957 0.169231 0.00191487)
(5.71155 0.165569 0.00193364)
(5.72591 0.174919 0.0019085)
(5.79092 0.160892 0.00193975)
(5.75999 0.186607 0.00196852)
(4.50811 0.0111562 0.00244545)
(4.61417 -0.00476131 0.00313446)
(4.71341 -0.0238209 0.0022643)
(4.85867 -0.0446717 0.00277721)
(4.97117 -0.0630383 0.00222566)
(5.09416 -0.0799089 0.00260753)
(5.18416 -0.0943283 0.00225474)
(5.2742 -0.106869 0.00250243)
(5.34229 -0.117134 0.00227153)
(5.41011 -0.125637 0.00241742)
(5.4658 -0.132501 0.00227545)
(5.521 -0.13793 0.00235177)
(5.57042 -0.142541 0.00227748)
(5.61682 -0.145795 0.0023061)
(5.66393 -0.149189 0.00228393)
(5.69982 -0.150778 0.00227836)
(5.75251 -0.153601 0.00229887)
(5.76574 -0.154319 0.002272)
(5.84731 -0.155111 0.00232945)
(5.80823 -0.160282 0.00234389)
(4.50811 -0.0111563 0.00244545)
(4.61417 0.00476153 0.00313446)
(4.71341 0.0238208 0.0022643)
(4.85867 0.0446722 0.00277721)
(4.97117 0.063038 0.00222566)
(5.09416 0.0799102 0.00260754)
(5.18416 0.0943284 0.00225474)
(5.2742 0.106872 0.00250243)
(5.34228 0.117135 0.00227153)
(5.41012 0.125645 0.00241743)
(5.4658 0.132508 0.00227544)
(5.52101 0.137955 0.00235179)
(5.57041 0.142558 0.00227747)
(5.61683 0.145874 0.00230615)
(5.66393 0.149225 0.00228387)
(5.69985 0.151022 0.00227849)
(5.75252 0.153712 0.00229858)
(5.76581 0.154953 0.00227225)
(5.84741 0.155652 0.00232794)
(5.80845 0.161644 0.00234409)
(4.50935 -0.0160459 0.00211483)
(4.62166 -0.0528042 0.00277512)
(4.72211 -0.0855537 0.0018974)
(4.86878 -0.108351 0.00240472)
(4.9818 -0.122331 0.00185464)
(5.1046 -0.13168 0.00223812)
(5.19335 -0.138106 0.00188771)
(5.28124 -0.143736 0.00213637)
(5.34617 -0.148586 0.00190652)
(5.41032 -0.153149 0.00205267)
(5.46137 -0.156974 0.0019112)
(5.51203 -0.160386 0.0019876)
(5.5555 -0.162803 0.00191362)
(5.59731 -0.165296 0.00194228)
(5.63686 -0.165859 0.00192022)
(5.66957 -0.168989 0.00191474)
(5.7117 -0.165472 0.00193388)
(5.72596 -0.174305 0.00190826)
(5.79123 -0.160399 0.00194099)
(5.76028 -0.185338 0.00196822)
(4.50831 -0.0419704 0.00281012)
(4.62072 -0.0463485 0.00351551)
(4.72764 -0.0397903 0.00262804)
(4.87957 -0.0205872 0.00314377)
(4.99421 0.00252098 0.0025953)
(5.11341 0.0275007 0.00297843)
(5.19467 0.0504036 0.00262517)
(5.27172 0.0704574 0.00287172)
(5.32387 0.0865099 0.00263927)
(5.37377 0.099418 0.00278436)
(5.40955 0.109522 0.00264131)
(5.44467 0.117377 0.0027174)
(5.47171 0.124159 0.00264245)
(5.49816 0.128707 0.0026711)
(5.52048 0.13448 0.00264858)
(5.53998 0.135583 0.00264253)
(5.56262 0.143432 0.00266478)
(5.5701 0.138184 0.00263171)
(5.60649 0.151542 0.00271003)
(5.58135 0.13954 0.0027191)
(4.51232 -0.0438856 0.00179911)
(4.65344 -0.1037 0.0023974)
(4.76682 -0.1502 0.00148649)
(4.90791 -0.173466 0.00199773)
(4.99369 -0.180092 0.00146306)
(5.07154 -0.178946 0.00185718)
(5.10619 -0.174788 0.0015141)
(5.13501 -0.17155 0.00176526)
(5.14064 -0.169583 0.00153687)
(5.14639 -0.169133 0.00168331)
(5.14108 -0.169292 0.00154214)
(5.13861 -0.170018 0.00161866)
(5.13001 -0.170259 0.00154475)
(5.12635 -0.17133 0.00157357)
(5.11626 -0.170027 0.00155142)
(5.11586 -0.17325 0.00154565)
(5.10298 -0.166322 0.00156502)
(5.11001 -0.179087 0.00153504)
(5.09256 -0.155852 0.00155724)
(5.10602 -0.188503 0.00158885)
(4.5359 -0.083769 0.00322301)
(4.67345 -0.110105 0.00393448)
(4.70443 -0.106835 0.00299144)
(4.7034 -0.077896 0.00349865)
(4.63022 -0.0392552 0.00295738)
(4.55859 0.00151035 0.00334495)
(4.46664 0.036704 0.00299387)
(4.39222 0.0658503 0.00324037)
(4.31681 0.0874097 0.00300705)
(4.25729 0.103991 0.00315195)
(4.2016 0.115798 0.00300834)
(4.15699 0.124935 0.00308481)
(4.11683 0.131715 0.00300971)
(4.08478 0.136863 0.00303883)
(4.05527 0.141582 0.00301642)
(4.03534 0.143515 0.00300976)
(4.00939 0.149309 0.00303424)
(4.00752 0.145277 0.00299126)
(3.96843 0.156888 0.00307635)
(3.9992 0.146166 0.00308899)
(4.37764 -0.0926197 0.00144359)
(3.9988 -0.139312 0.00198037)
(3.49999 -0.1502 0.00104297)
(3.08224 -0.142915 0.00157398)
(2.72042 -0.131606 0.00105593)
(2.47601 -0.124043 0.00145636)
(2.29306 -0.120194 0.00111326)
(2.18477 -0.120785 0.00136285)
(2.1078 -0.12366 0.00113181)
(2.06373 -0.128231 0.00127705)
(2.03194 -0.132956 0.00113427)
(2.01141 -0.137753 0.00121046)
(1.99638 -0.141706 0.00113572)
(1.98491 -0.145638 0.00116452)
(1.97485 -0.14778 0.00114207)
(1.97219 -0.152004 0.00113566)
(1.95403 -0.150029 0.00115759)
(1.9794 -0.159287 0.00111863)
(1.91312 -0.144827 0.00116338)
(2.0328 -0.154309 0.0011804)
(4.37764 0.0926197 -0.00144365)
(3.9988 0.139312 -0.00198043)
(3.49999 0.1502 -0.00104304)
(3.08224 0.142915 -0.00157405)
(2.72042 0.131606 -0.001056)
(2.47601 0.124044 -0.00145642)
(2.29305 0.120194 -0.00111332)
(2.18477 0.120785 -0.00136291)
(2.10779 0.12366 -0.00113187)
(2.06371 0.128233 -0.00127711)
(2.03192 0.132957 -0.00113434)
(2.01135 0.137757 -0.00121052)
(1.99634 0.141706 -0.0011358)
(1.98477 0.145652 -0.00116458)
(1.97471 0.147774 -0.00114217)
(1.97186 0.152053 -0.00113568)
(1.95354 0.149997 -0.00115785)
(1.97849 0.159413 -0.0011184)
(1.91205 0.144751 -0.00116426)
(2.02893 0.154286 -0.00117909)
(4.5359 0.083769 -0.00322308)
(4.67345 0.110105 -0.00393455)
(4.70443 0.106835 -0.0029915)
(4.7034 0.077896 -0.00349871)
(4.63022 0.0392554 -0.00295745)
(4.55858 -0.00151009 -0.00334501)
(4.46665 -0.0367032 -0.00299394)
(4.39221 -0.0658496 -0.00324043)
(4.31682 -0.0874072 -0.00300713)
(4.25726 -0.103989 -0.00315198)
(4.20161 -0.115791 -0.00300845)
(4.1569 -0.124928 -0.0030848)
(4.11686 -0.1317 -0.00300989)
(4.08454 -0.136833 -0.00303871)
(4.05528 -0.141555 -0.00301678)
(4.03476 -0.143402 -0.00300938)
(4.00926 -0.149254 -0.00303515)
(4.0061 -0.14494 -0.00299021)
(3.96776 -0.156627 -0.00307894)
(3.99542 -0.145386 -0.00308674)
(4.51232 0.0438856 -0.00179917)
(4.65344 0.103701 -0.00239746)
(4.76682 0.150199 -0.00148656)
(4.90791 0.173467 -0.00199779)
(4.99369 0.180092 -0.00146313)
(5.07154 0.178947 -0.00185725)
(5.10619 0.174788 -0.00151417)
(5.135 0.171553 -0.00176532)
(5.14065 0.169584 -0.00153694)
(5.14637 0.169141 -0.00168337)
(5.14109 0.169296 -0.00154221)
(5.13856 0.17004 -0.00161872)
(5.13001 0.170268 -0.00154483)
(5.12623 0.171398 -0.00157363)
(5.11621 0.17004 -0.0015515)
(5.1156 0.173452 -0.00154575)
(5.10271 0.16636 -0.00156505)
(5.10941 0.17959 -0.00153516)
(5.09161 0.156137 -0.00155675)
(5.10441 0.189423 -0.00158893)
(4.50831 0.0419703 -0.00281018)
(4.62072 0.0463487 -0.00351557)
(4.72764 0.0397902 -0.00262811)
(4.87957 0.0205877 -0.00314383)
(4.99422 -0.00252118 -0.00259537)
(5.11341 -0.0274995 -0.00297849)
(5.19467 -0.0504035 -0.00262524)
(5.27172 -0.0704546 -0.00287178)
(5.32387 -0.0865081 -0.00263934)
(5.37376 -0.0994111 -0.00278442)
(5.40956 -0.109515 -0.00264138)
(5.44464 -0.117357 -0.00271745)
(5.4717 -0.124142 -0.00264255)
(5.49811 -0.128637 -0.00267112)
(5.52044 -0.134446 -0.00264874)
(5.53986 -0.135362 -0.00264248)
(5.56242 -0.143339 -0.00266519)
(5.5698 -0.137589 -0.00263156)
(5.60585 -0.151081 -0.00271158)
(5.58038 -0.138228 -0.00271917)
(4.50935 0.0160458 -0.00211489)
(4.62165 0.0528045 -0.00277518)
(4.72211 0.0855536 -0.00189746)
(4.86878 0.108351 -0.00240479)
(4.9818 0.122331 -0.0018547)
(5.1046 0.131682 -0.00223818)
(5.19335 0.138106 -0.00188778)
(5.28124 0.143739 -0.00213644)
(5.34617 0.148588 -0.00190659)
(5.41032 0.153158 -0.00205274)
(5.46137 0.15698 -0.00191126)
(5.51203 0.160411 -0.00198768)
(5.55548 0.162817 -0.00191367)
(5.59731 0.165376 -0.0019424)
(5.6368 0.16589 -0.00192023)
(5.66957 0.169231 -0.00191493)
(5.71155 0.165569 -0.00193371)
(5.72591 0.174919 -0.00190857)
(5.79092 0.160892 -0.00193981)
(5.75999 0.186607 -0.00196858)
(4.50811 0.0111562 -0.00244551)
(4.61417 -0.00476133 -0.00313452)
(4.71341 -0.023821 -0.00226437)
(4.85867 -0.0446717 -0.00277728)
(4.97117 -0.0630383 -0.00222572)
(5.09416 -0.0799089 -0.0026076)
(5.18416 -0.0943284 -0.00225481)
(5.2742 -0.106869 -0.0025025)
(5.34229 -0.117134 -0.0022716)
(5.41011 -0.125637 -0.00241749)
(5.4658 -0.132501 -0.00227551)
(5.521 -0.13793 -0.00235184)
(5.57042 -0.142541 -0.00227755)
(5.61682 -0.145795 -0.00230616)
(5.66393 -0.149189 -0.002284)
(5.69982 -0.150778 -0.00227842)
(5.75251 -0.153601 -0.00229894)
(5.76574 -0.154319 -0.00227206)
(5.84731 -0.155111 -0.00232952)
(5.80823 -0.160282 -0.00234395)
(4.50811 -0.0111563 -0.00244551)
(4.61417 0.00476154 -0.00313452)
(4.71341 0.0238208 -0.00226437)
(4.85867 0.0446722 -0.00277728)
(4.97117 0.0630381 -0.00222572)
(5.09416 0.0799103 -0.0026076)
(5.18416 0.0943285 -0.00225481)
(5.2742 0.106872 -0.0025025)
(5.34228 0.117135 -0.00227159)
(5.41012 0.125645 -0.00241749)
(5.4658 0.132508 -0.00227551)
(5.52101 0.137955 -0.00235185)
(5.57041 0.142558 -0.00227753)
(5.61683 0.145874 -0.00230621)
(5.66393 0.149225 -0.00228394)
(5.69985 0.151022 -0.00227856)
(5.75252 0.153712 -0.00229865)
(5.76581 0.154953 -0.00227231)
(5.84741 0.155652 -0.00232801)
(5.80845 0.161644 -0.00234416)
(4.50935 -0.0160459 -0.00211489)
(4.62165 -0.0528043 -0.00277518)
(4.72211 -0.0855538 -0.00189746)
(4.86878 -0.108351 -0.00240479)
(4.9818 -0.122331 -0.0018547)
(5.1046 -0.13168 -0.00223818)
(5.19335 -0.138106 -0.00188778)
(5.28124 -0.143736 -0.00213644)
(5.34617 -0.148586 -0.00190659)
(5.41032 -0.153149 -0.00205274)
(5.46137 -0.156974 -0.00191126)
(5.51203 -0.160386 -0.00198767)
(5.5555 -0.162803 -0.00191368)
(5.59731 -0.165296 -0.00194235)
(5.63686 -0.165859 -0.00192028)
(5.66957 -0.168989 -0.0019148)
(5.7117 -0.165472 -0.00193394)
(5.72596 -0.174305 -0.00190832)
(5.79123 -0.160399 -0.00194106)
(5.76028 -0.185338 -0.00196829)
(4.50831 -0.0419704 -0.00281018)
(4.62072 -0.0463485 -0.00351557)
(4.72764 -0.0397903 -0.00262811)
(4.87957 -0.0205872 -0.00314384)
(4.99421 0.00252101 -0.00259537)
(5.11341 0.0275007 -0.00297849)
(5.19467 0.0504037 -0.00262524)
(5.27172 0.0704574 -0.00287179)
(5.32387 0.0865099 -0.00263933)
(5.37377 0.0994181 -0.00278443)
(5.40955 0.109522 -0.00264137)
(5.44467 0.117378 -0.00271747)
(5.47171 0.124159 -0.00264252)
(5.49816 0.128707 -0.00267117)
(5.52048 0.13448 -0.00264865)
(5.53998 0.135583 -0.0026426)
(5.56262 0.143432 -0.00266485)
(5.5701 0.138184 -0.00263178)
(5.60649 0.151542 -0.00271009)
(5.58135 0.13954 -0.00271917)
(4.51232 -0.0438856 -0.00179917)
(4.65344 -0.1037 -0.00239746)
(4.76682 -0.1502 -0.00148656)
(4.90791 -0.173466 -0.00199779)
(4.99369 -0.180092 -0.00146313)
(5.07154 -0.178946 -0.00185725)
(5.10619 -0.174788 -0.00151417)
(5.13501 -0.17155 -0.00176532)
(5.14064 -0.169583 -0.00153694)
(5.14639 -0.169133 -0.00168338)
(5.14108 -0.169292 -0.00154221)
(5.13861 -0.170018 -0.00161873)
(5.13001 -0.170259 -0.00154482)
(5.12635 -0.17133 -0.00157363)
(5.11626 -0.170027 -0.00155149)
(5.11586 -0.17325 -0.00154572)
(5.10298 -0.166322 -0.00156509)
(5.11001 -0.179087 -0.00153511)
(5.09256 -0.155852 -0.0015573)
(5.10602 -0.188503 -0.00158892)
(4.5359 -0.083769 -0.00322308)
(4.67345 -0.110105 -0.00393455)
(4.70443 -0.106835 -0.0029915)
(4.7034 -0.077896 -0.00349871)
(4.63022 -0.0392552 -0.00295745)
(4.55859 0.00151039 -0.00334501)
(4.46664 0.036704 -0.00299393)
(4.39222 0.0658503 -0.00324044)
(4.31681 0.0874098 -0.00300711)
(4.25729 0.103991 -0.00315201)
(4.2016 0.115798 -0.00300841)
(4.15699 0.124935 -0.00308487)
(4.11683 0.131715 -0.00300978)
(4.08478 0.136863 -0.00303889)
(4.05527 0.141582 -0.00301649)
(4.03534 0.143515 -0.00300983)
(4.00939 0.149309 -0.00303431)
(4.00752 0.145277 -0.00299133)
(3.96843 0.156889 -0.00307642)
(3.9992 0.146166 -0.00308905)
(4.37764 -0.0926197 -0.00144365)
(3.9988 -0.139312 -0.00198043)
(3.49999 -0.1502 -0.00104304)
(3.08224 -0.142915 -0.00157405)
(2.72042 -0.131606 -0.001056)
(2.47601 -0.124043 -0.00145642)
(2.29306 -0.120194 -0.00111332)
(2.18477 -0.120785 -0.00136291)
(2.1078 -0.12366 -0.00113187)
(2.06373 -0.128231 -0.00127711)
(2.03194 -0.132956 -0.00113434)
(2.01141 -0.137753 -0.00121052)
(1.99638 -0.141706 -0.00113579)
(1.98491 -0.145638 -0.00116459)
(1.97485 -0.14778 -0.00114213)
(1.97219 -0.152004 -0.00113573)
(1.95403 -0.15003 -0.00115765)
(1.9794 -0.159287 -0.0011187)
(1.91312 -0.144827 -0.00116345)
(2.0328 -0.154309 -0.00118046)
(4.3305 0.554723 -0.00706697)
(3.13099 0.831723 -0.00463025)
(2.40414 0.85302 -0.00588046)
(1.88252 0.837602 -0.00442282)
(1.7602 0.84052 -0.00553788)
(1.58356 0.851753 -0.00438092)
(1.58252 0.861047 -0.00530552)
(1.48095 0.868513 -0.00433483)
(1.49085 0.872324 -0.00508884)
(1.42106 0.875602 -0.00427174)
(1.43044 0.87703 -0.00488778)
(1.3809 0.878773 -0.00420313)
(1.38782 0.8793 -0.00470646)
(1.35123 0.880546 -0.00413421)
(1.35619 0.880205 -0.00454365)