/*--------------------------------*- C++ -*----------------------------------*\
  =========                 |
  \\      /  F ield         | OpenFOAM: The Open Source CFD Toolbox
   \\    /   O peration     | Website:  https://openfoam.org
    \\  /    A nd           | Version:  7
     \\/     M anipulation  |
\*---------------------------------------------------------------------------*/
FoamFile
{
    version     2.0;
    format      ascii;
    class       volScalarField;
    location    "2.2925";
    object      alphat;
}
// * * * * * * * * * * * * * * * * * * * * * * * * * * * * * * * * * * * * * //

dimensions      [1 -1 -1 0 0 0 0];

internalField   nonuniform List<scalar> 
7920
(
0.0108109
0.0112616
0.0112669
0.0112682
0.0112629
0.0112612
0.0112574
0.0112566
0.0112542
0.0112539
0.0112521
0.0112521
0.0112506
0.0112505
0.0112493
0.0112492
0.0112488
0.0112474
0.0112533
0.0112716
0.00557458
0.00560769
0.00549228
0.00537707
0.00532268
0.00530017
0.00528206
0.00527577
0.00526634
0.00526373
0.00525777
0.00525631
0.00525274
0.00525217
0.00524971
0.00524939
0.0052475
0.00524716
0.00528066
0.00528813
0.00426231
0.00455186
0.00458271
0.00457777
0.00456919
0.00456561
0.00456043
0.00455839
0.00455479
0.0045532
0.00455024
0.00454902
0.00454653
0.00454568
0.00454347
0.00454303
0.00454077
0.00454087
0.00453999
0.00454881
0.00410002
0.0044342
0.0044992
0.00452104
0.00452803
0.00453548
0.00453754
0.00454128
0.004542
0.00454409
0.00454416
0.00454543
0.00454511
0.00454604
0.00454543
0.00454624
0.00454535
0.00454624
0.00454556
0.00455196
0.00408268
0.00442101
0.00448973
0.00451551
0.00452607
0.00453685
0.00454163
0.00454885
0.00455189
0.00455705
0.00455915
0.00456306
0.00456453
0.00456757
0.0045686
0.00457101
0.0045717
0.00457348
0.00457429
0.00458033
0.0040844
0.00441978
0.0044881
0.00451421
0.00452571
0.00453765
0.00454371
0.00455237
0.00455661
0.00456344
0.00456667
0.00457214
0.00457465
0.00457909
0.00458105
0.00458468
0.00458624
0.00458893
0.0045908
0.00459682
0.0040844
0.00441978
0.0044881
0.00451421
0.00452571
0.00453765
0.00454371
0.00455237
0.00455662
0.00456344
0.00456667
0.00457214
0.00457465
0.00457909
0.00458106
0.00458468
0.00458624
0.00458894
0.00459082
0.00459684
0.00408268
0.00442101
0.00448973
0.00451551
0.00452607
0.00453685
0.00454164
0.00454885
0.0045519
0.00455705
0.00455916
0.00456306
0.00456455
0.00456756
0.00456862
0.004571
0.00457174
0.00457346
0.00457436
0.00458034
0.00410002
0.00443421
0.0044992
0.00452104
0.00452803
0.00453548
0.00453754
0.00454128
0.00454201
0.00454408
0.00454417
0.00454541
0.00454514
0.00454601
0.00454548
0.00454618
0.00454546
0.00454615
0.00454579
0.00455169
0.00426231
0.00455186
0.00458271
0.00457776
0.00456919
0.00456561
0.00456043
0.00455838
0.0045548
0.00455319
0.00455025
0.004549
0.00454656
0.00454563
0.00454353
0.00454289
0.00454093
0.00454073
0.00454063
0.00454784
0.00557458
0.00560769
0.00549228
0.00537707
0.00532268
0.00530017
0.00528206
0.00527577
0.00526634
0.00526372
0.00525777
0.00525629
0.00525275
0.00525213
0.00524976
0.0052493
0.00524763
0.00524697
0.00528065
0.00528632
0.0108109
0.0112616
0.0112669
0.0112682
0.0112629
0.0112612
0.0112574
0.0112566
0.0112542
0.0112539
0.0112521
0.0112521
0.0112506
0.0112505
0.0112493
0.0112492
0.0112487
0.0112474
0.0112533
0.0112711
0.00414281
0.00465104
0.00466865
0.00463937
0.00462891
0.00461289
0.00461073
0.00460197
0.00460136
0.00459561
0.00459539
0.00459129
0.0045912
0.00458823
0.0045881
0.00458583
0.00458576
0.00458352
0.0045813
0.00459966
0.00367108
0.00429815
0.00438471
0.00439686
0.00439716
0.00439744
0.00439623
0.004396
0.00439488
0.00439461
0.00439368
0.00439336
0.0043926
0.00439233
0.0043916
0.00439165
0.00439042
0.00439147
0.00438994
0.00439667
0.00357236
0.00420733
0.00429857
0.00431807
0.00432003
0.00432508
0.00432545
0.00432896
0.00432922
0.00433183
0.00433202
0.00433399
0.00433415
0.00433569
0.00433586
0.00433712
0.00433714
0.00433842
0.00433729
0.00434789
0.00357035
0.00420585
0.00429669
0.00431535
0.00431576
0.00431893
0.00431818
0.00432005
0.00431985
0.00432159
0.00432162
0.00432308
0.00432331
0.00432451
0.00432493
0.00432583
0.00432644
0.00432703
0.00432741
0.0043333
0.0035662
0.00420132
0.00429196
0.00431135
0.00431138
0.00431446
0.00431303
0.00431463
0.00431368
0.004315
0.00431441
0.0043155
0.00431518
0.00431612
0.004316
0.00431681
0.00431683
0.00431754
0.00431774
0.00432343
0.00356835
0.00420385
0.00429421
0.00431356
0.00431355
0.00431667
0.00431519
0.0043168
0.00431575
0.004317
0.00431626
0.00431725
0.00431674
0.00431753
0.00431722
0.00431786
0.00431772
0.00431824
0.00431823
0.00432343
0.00356835
0.00420385
0.00429421
0.00431356
0.00431355
0.00431667
0.00431519
0.0043168
0.00431575
0.004317
0.00431626
0.00431724
0.00431674
0.00431753
0.00431722
0.00431786
0.00431771
0.00431824
0.00431823
0.00432344
0.0035662
0.00420132
0.00429196
0.00431135
0.00431138
0.00431446
0.00431303
0.00431463
0.00431369
0.004315
0.00431441
0.0043155
0.00431519
0.00431611
0.004316
0.0043168
0.00431684
0.00431755
0.00431775
0.00432341
0.00357035
0.00420585
0.00429669
0.00431535
0.00431576
0.00431893
0.00431818
0.00432005
0.00431985
0.00432158
0.00432164
0.00432307
0.00432333
0.0043245
0.00432491
0.00432585
0.00432642
0.00432693
0.00432756
0.0043331
0.00357236
0.00420733
0.00429857
0.00431807
0.00432003
0.00432508
0.00432545
0.00432896
0.00432923
0.00433182
0.00433204
0.00433397
0.00433419
0.00433566
0.00433588
0.00433708
0.00433721
0.00433824
0.00433767
0.00434706
0.00367108
0.00429815
0.00438471
0.00439686
0.00439716
0.00439744
0.00439623
0.00439599
0.00439488
0.00439461
0.00439369
0.00439334
0.00439263
0.00439229
0.00439171
0.0043915
0.00439068
0.00439099
0.00439062
0.00439512
0.00414281
0.00465104
0.00466865
0.00463937
0.00462891
0.00461289
0.00461073
0.00460196
0.00460137
0.00459559
0.00459541
0.00459126
0.00459125
0.00458816
0.00458823
0.00458565
0.00458613
0.00458296
0.00458292
0.00459633
0.00103329
0.0015226
0.00159284
0.00157206
0.00151838
0.00146817
0.00142803
0.0013991
0.00137742
0.00136048
0.00134786
0.00133647
0.00132834
0.00131998
0.00131416
0.00130803
0.00130272
0.00130024
0.00129078
0.00130191
0.000438314
0.000924942
0.00108533
0.00114757
0.00116873
0.00118181
0.00118816
0.0011952
0.00119861
0.00120242
0.00120361
0.00120522
0.0012052
0.0012056
0.00120507
0.00120525
0.00120416
0.00120449
0.00120269
0.00120675
0.000378922
0.000819177
0.000965214
0.00103065
0.00105042
0.00106476
0.00106799
0.00107467
0.00107693
0.001082
0.00108442
0.00108896
0.0010916
0.00109539
0.00109812
0.00110122
0.00110389
0.00110654
0.00110818
0.001113
0.000390158
0.000824164
0.000966717
0.00102938
0.00104875
0.00106076
0.00106249
0.00106561
0.0010657
0.00106671
0.00106693
0.0010679
0.00106843
0.0010695
0.0010706
0.00107146
0.00107308
0.0010739
0.00107532
0.00107885
0.000384827
0.000818705
0.000960739
0.00102377
0.00104278
0.00105483
0.00105627
0.00105912
0.00105882
0.00105929
0.00105892
0.00105911
0.0010589
0.00105902
0.00105903
0.00105912
0.00105938
0.00105951
0.00105985
0.00106215
0.000387822
0.00082176
0.000963823
0.00102642
0.00104555
0.00105745
0.00105905
0.00106183
0.00106158
0.001062
0.00106163
0.00106172
0.00106147
0.00106145
0.00106132
0.00106118
0.00106123
0.00106115
0.00106133
0.00106332
0.000387822
0.00082176
0.000963822
0.00102642
0.00104555
0.00105745
0.00105905
0.00106183
0.00106158
0.001062
0.00106163
0.00106172
0.00106146
0.00106145
0.00106132
0.00106119
0.00106122
0.00106115
0.00106132
0.00106333
0.000384826
0.000818705
0.000960739
0.00102377
0.00104278
0.00105483
0.00105627
0.00105912
0.00105882
0.00105929
0.00105892
0.00105911
0.0010589
0.00105902
0.00105903
0.00105912
0.00105938
0.00105951
0.00105983
0.00106215
0.000390157
0.000824164
0.000966716
0.00102938
0.00104875
0.00106076
0.00106249
0.00106561
0.0010657
0.00106671
0.00106694
0.0010679
0.00106843
0.00106951
0.00107058
0.00107147
0.00107306
0.00107388
0.00107529
0.00107882
0.00037892
0.000819177
0.000965214
0.00103065
0.00105042
0.00106476
0.00106799
0.00107467
0.00107694
0.00108199
0.00108442
0.00108895
0.0010916
0.00109539
0.00109811
0.0011012
0.00110388
0.00110645
0.00110824
0.00111277
0.000438314
0.000924942
0.00108533
0.00114757
0.00116873
0.00118181
0.00118816
0.00119519
0.00119861
0.00120241
0.00120362
0.00120519
0.00120526
0.00120551
0.00120515
0.00120505
0.00120437
0.0012041
0.00120316
0.00120589
0.00103329
0.0015226
0.00159284
0.00157206
0.00151838
0.00146817
0.00142803
0.00139909
0.00137743
0.00136048
0.00134788
0.00133646
0.0013284
0.00131995
0.0013143
0.00130792
0.00130316
0.00129979
0.0012923
0.00130009
0.00103329
0.0015226
0.00159284
0.00157206
0.00151838
0.00146817
0.00142803
0.0013991
0.00137742
0.00136048
0.00134786
0.00133647
0.00132834
0.00131998
0.00131416
0.00130803
0.00130272
0.00130024
0.00129078
0.00130191
0.000438314
0.000924942
0.00108533
0.00114757
0.00116873
0.00118181
0.00118816
0.0011952
0.00119861
0.00120242
0.00120361
0.00120522
0.0012052
0.0012056
0.00120507
0.00120525
0.00120416
0.00120449
0.00120269
0.00120675
0.000378922
0.000819177
0.000965214
0.00103065
0.00105042
0.00106476
0.00106799
0.00107467
0.00107693
0.001082
0.00108442
0.00108896
0.0010916
0.00109539
0.00109812
0.00110122
0.00110389
0.00110654
0.00110818
0.001113
0.000390158
0.000824164
0.000966717
0.00102938
0.00104875
0.00106076
0.00106249
0.00106561
0.0010657
0.00106671
0.00106693
0.0010679
0.00106843
0.0010695
0.00107061
0.00107146
0.00107308
0.0010739
0.00107532
0.00107885
0.000384827
0.000818705
0.000960739
0.00102377
0.00104278
0.00105483
0.00105627
0.00105912
0.00105882
0.00105929
0.00105892
0.00105911
0.0010589
0.00105902
0.00105903
0.00105912
0.00105938
0.00105951
0.00105985
0.00106215
0.000387822
0.00082176
0.000963823
0.00102642
0.00104555
0.00105745
0.00105905
0.00106183
0.00106158
0.001062
0.00106163
0.00106172
0.00106147
0.00106145
0.00106132
0.00106118
0.00106123
0.00106115
0.00106133
0.00106332
0.000387822
0.00082176
0.000963822
0.00102642
0.00104555
0.00105745
0.00105905
0.00106183
0.00106158
0.001062
0.00106163
0.00106172
0.00106146
0.00106145
0.00106132
0.00106119
0.00106122
0.00106115
0.00106132
0.00106333
0.000384826
0.000818705
0.000960739
0.00102377
0.00104278
0.00105483
0.00105627
0.00105912
0.00105882
0.00105929
0.00105892
0.00105911
0.0010589
0.00105902
0.00105903
0.00105912
0.00105938
0.00105951
0.00105983
0.00106215
0.000390157
0.000824165
0.000966716
0.00102938
0.00104875
0.00106076
0.00106249
0.00106561
0.0010657
0.00106671
0.00106694
0.0010679
0.00106843
0.00106951
0.00107058
0.00107147
0.00107306
0.00107388
0.00107529
0.00107882
0.00037892
0.000819178
0.000965214
0.00103065
0.00105042
0.00106476
0.00106799
0.00107467
0.00107694
0.00108199
0.00108442
0.00108895
0.0010916
0.00109539
0.00109811
0.0011012
0.00110388
0.00110645
0.00110824
0.00111277
0.000438314
0.000924942
0.00108533
0.00114757
0.00116873
0.00118181
0.00118816
0.00119519
0.00119861
0.00120241
0.00120362
0.00120519
0.00120526
0.00120551
0.00120515
0.00120505
0.00120437
0.0012041
0.00120316
0.00120589
0.00103329
0.0015226
0.00159284
0.00157206
0.00151838
0.00146817
0.00142803
0.00139909
0.00137743
0.00136048
0.00134788
0.00133646
0.0013284
0.00131995
0.0013143
0.00130792
0.00130316
0.00129979
0.0012923
0.00130009
0.00414281
0.00465104
0.00466865
0.00463937
0.00462891
0.00461289
0.00461073
0.00460197
0.00460136
0.00459561
0.00459539
0.00459129
0.0045912
0.00458823
0.0045881
0.00458583
0.00458576
0.00458352
0.0045813
0.00459966
0.00367108
0.00429815
0.00438471
0.00439686
0.00439716
0.00439744
0.00439623
0.004396
0.00439488
0.00439461
0.00439368
0.00439336
0.0043926
0.00439233
0.0043916
0.00439165
0.00439042
0.00439147
0.00438994
0.00439667
0.00357236
0.00420733
0.00429857
0.00431807
0.00432003
0.00432508
0.00432545
0.00432896
0.00432922
0.00433183
0.00433202
0.00433399
0.00433415
0.00433569
0.00433586
0.00433712
0.00433714
0.00433842
0.00433729
0.00434789
0.00357035
0.00420585
0.00429669
0.00431535
0.00431576
0.00431893
0.00431818
0.00432005
0.00431985
0.00432159
0.00432162
0.00432308
0.00432331
0.00432451
0.00432493
0.00432583
0.00432644
0.00432703
0.00432741
0.0043333
0.0035662
0.00420132
0.00429196
0.00431135
0.00431138
0.00431446
0.00431303
0.00431463
0.00431368
0.004315
0.00431441
0.0043155
0.00431518
0.00431612
0.004316
0.00431681
0.00431683
0.00431754
0.00431774
0.00432343
0.00356835
0.00420385
0.00429421
0.00431356
0.00431355
0.00431667
0.00431519
0.0043168
0.00431575
0.004317
0.00431626
0.00431725
0.00431674
0.00431753
0.00431722
0.00431786
0.00431772
0.00431824
0.00431823
0.00432343
0.00356835
0.00420385
0.00429421
0.00431356
0.00431355
0.00431667
0.00431519
0.0043168
0.00431575
0.004317
0.00431626
0.00431725
0.00431674
0.00431753
0.00431722
0.00431786
0.00431771
0.00431824
0.00431823
0.00432344
0.0035662
0.00420132
0.00429196
0.00431135
0.00431138
0.00431446
0.00431303
0.00431463
0.00431369
0.004315
0.00431441
0.0043155
0.00431519
0.00431611
0.004316
0.0043168
0.00431684
0.00431755
0.00431775
0.00432341
0.00357035
0.00420585
0.00429669
0.00431535
0.00431576
0.00431893
0.00431818
0.00432005
0.00431985
0.00432158
0.00432164
0.00432307
0.00432333
0.0043245
0.00432491
0.00432585
0.00432642
0.00432693
0.00432756
0.0043331
0.00357236
0.00420733
0.00429857
0.00431807
0.00432003
0.00432508
0.00432545
0.00432896
0.00432923
0.00433182
0.00433204
0.00433397
0.00433419
0.00433566
0.00433588
0.00433708
0.00433721
0.00433824
0.00433767
0.00434706
0.00367108
0.00429815
0.00438471
0.00439686
0.00439716
0.00439744
0.00439623
0.00439599
0.00439488
0.00439461
0.00439369
0.00439334
0.00439263
0.00439229
0.00439171
0.0043915
0.00439067
0.00439099
0.00439062
0.00439512
0.00414281
0.00465104
0.00466865
0.00463937
0.00462891
0.00461289
0.00461073
0.00460196
0.00460137
0.00459559
0.00459541
0.00459126
0.00459125
0.00458816
0.00458823
0.00458565
0.00458613
0.00458296
0.00458292
0.00459633
0.0108109
0.0112616
0.0112669
0.0112682
0.0112629
0.0112612
0.0112574
0.0112566
0.0112542
0.0112539
0.0112521
0.0112521
0.0112506
0.0112505
0.0112493
0.0112492
0.0112488
0.0112474
0.0112533
0.0112716
0.00557458
0.00560769
0.00549228
0.00537707
0.00532268
0.00530017
0.00528206
0.00527577
0.00526634
0.00526373
0.00525777
0.00525631
0.00525274
0.00525217
0.00524971
0.00524939
0.0052475
0.00524716
0.00528066
0.00528813
0.00426231
0.00455186
0.00458271
0.00457777
0.00456919
0.00456561
0.00456043
0.00455839
0.00455479
0.0045532
0.00455024
0.00454902
0.00454653
0.00454568
0.00454347
0.00454303
0.00454077
0.00454087
0.00453999
0.00454881
0.00410002
0.0044342
0.0044992
0.00452104
0.00452803
0.00453548
0.00453754
0.00454128
0.004542
0.00454409
0.00454416
0.00454543
0.00454511
0.00454604
0.00454543
0.00454624
0.00454535
0.00454624
0.00454556
0.00455196
0.00408268
0.00442101
0.00448973
0.00451551
0.00452607
0.00453685
0.00454163
0.00454885
0.00455189
0.00455705
0.00455915
0.00456306
0.00456453
0.00456757
0.0045686
0.00457101
0.0045717
0.00457348
0.00457429
0.00458033
0.0040844
0.00441978
0.0044881
0.00451421
0.00452571
0.00453765
0.00454371
0.00455237
0.00455661
0.00456344
0.00456667
0.00457214
0.00457465
0.00457909
0.00458105
0.00458468
0.00458624
0.00458893
0.0045908
0.00459682
0.0040844
0.00441978
0.0044881
0.00451421
0.00452571
0.00453765
0.00454371
0.00455237
0.00455662
0.00456344
0.00456667
0.00457214
0.00457465
0.00457909
0.00458106
0.00458468
0.00458624
0.00458894
0.00459082
0.00459684
0.00408268
0.00442101
0.00448973
0.00451551
0.00452607
0.00453685
0.00454164
0.00454885
0.0045519
0.00455705
0.00455916
0.00456306
0.00456455
0.00456756
0.00456862
0.004571
0.00457174
0.00457346
0.00457436
0.00458034
0.00410002
0.00443421
0.0044992
0.00452104
0.00452803
0.00453548
0.00453754
0.00454128
0.00454201
0.00454408
0.00454417
0.00454541
0.00454514
0.00454601
0.00454548
0.00454618
0.00454546
0.00454615
0.00454579
0.00455169
0.00426231
0.00455186
0.00458271
0.00457776
0.00456919
0.00456561
0.00456043
0.00455838
0.0045548
0.00455319
0.00455025
0.004549
0.00454656
0.00454563
0.00454353
0.00454289
0.00454093
0.00454073
0.00454063
0.00454784
0.00557458
0.00560769
0.00549228
0.00537707
0.00532268
0.00530017
0.00528206
0.00527577
0.00526634
0.00526372
0.00525777
0.00525629
0.00525275
0.00525213
0.00524976
0.0052493
0.00524763
0.00524697
0.00528065
0.00528632
0.0108109
0.0112616
0.0112669
0.0112682
0.0112629
0.0112612
0.0112574
0.0112566
0.0112542
0.0112539
0.0112521
0.0112521
0.0112506
0.0112505
0.0112493
0.0112492
0.0112487
0.0112474
0.0112533
0.0112711
0.032603
0.0326603
0.0326595
0.0326564
0.0326532
0.0326506
0.0326483
0.0326461
0.0326443
0.0326422
0.0326406
0.0326385
0.032637
0.032635
0.0326336
0.0326317
0.0326303
0.0326284
0.0326271
0.0326252
0.032624
0.0326222
0.0326209
0.0326192
0.032618
0.0326163
0.0326151
0.0326135
0.0326123
0.0326108
0.0326096
0.0326081
0.032607
0.0326055
0.0326043
0.0326029
0.0326017
0.0326002
0.032599
0.0325975
0.0325963
0.0325948
0.0325935
0.032592
0.0325908
0.0325892
0.0325879
0.0325864
0.0325851
0.0325836
0.0325822
0.0325807
0.0325793
0.0325778
0.0325764
0.0325749
0.0325734
0.0325719
0.0325705
0.032569
0.0325675
0.032566
0.0325645
0.0325629
0.0325614
0.0325599
0.0325584
0.0325568
0.0325553
0.0325537
0.0325522
0.0325506
0.032549
0.0325475
0.0325459
0.0325443
0.0325427
0.0325412
0.0325395
0.032538
0.0325363
0.0325347
0.0325331
0.0325315
0.0325298
0.0325282
0.0325265
0.0325249
0.0325203
0.0325169
0.0187245
0.018974
0.0189713
0.0189722
0.0189659
0.0189671
0.0189624
0.0189633
0.0189594
0.0189601
0.0189569
0.0189574
0.0189547
0.018955
0.0189525
0.0189527
0.0189505
0.0189506
0.0189486
0.0189486
0.0189467
0.0189467
0.0189449
0.0189448
0.0189431
0.0189429
0.0189412
0.018941
0.0189394
0.0189392
0.0189377
0.0189374
0.018936
0.0189358
0.0189345
0.0189342
0.018933
0.0189328
0.0189317
0.0189315
0.0189305
0.0189303
0.0189293
0.0189291
0.0189281
0.0189279
0.018927
0.0189267
0.0189258
0.0189256
0.0189246
0.0189244
0.0189235
0.0189231
0.0189222
0.0189219
0.018921
0.0189206
0.0189197
0.0189194
0.0189185
0.0189181
0.0189172
0.0189167
0.0189158
0.0189154
0.0189145
0.018914
0.0189131
0.0189127
0.0189117
0.0189112
0.0189103
0.0189098
0.0189089
0.0189084
0.0189074
0.0189069
0.0189059
0.0189054
0.0189044
0.0189038
0.0189029
0.0189023
0.0189013
0.0189006
0.0188996
0.0188991
0.0188953
0.0188931
0.015085
0.015519
0.0155209
0.0155244
0.0155139
0.0155173
0.0155091
0.0155119
0.015505
0.0155075
0.0155017
0.0155039
0.015499
0.0155009
0.0154965
0.0154982
0.0154943
0.0154959
0.0154925
0.0154939
0.0154907
0.015492
0.0154891
0.0154903
0.0154876
0.0154887
0.0154862
0.0154872
0.0154849
0.0154858
0.0154837
0.0154846
0.0154826
0.0154835
0.0154818
0.0154826
0.0154811
0.0154819
0.0154806
0.0154814
0.0154803
0.015481
0.01548
0.0154807
0.0154798
0.0154804
0.0154795
0.0154802
0.0154793
0.0154799
0.015479
0.0154796
0.0154788
0.0154793
0.0154785
0.015479
0.0154782
0.0154786
0.0154779
0.0154782
0.0154775
0.0154779
0.0154772
0.0154775
0.0154768
0.015477
0.0154764
0.0154766
0.0154759
0.0154761
0.0154755
0.0154756
0.015475
0.0154751
0.0154744
0.0154746
0.0154739
0.015474
0.0154733
0.0154734
0.0154727
0.0154727
0.015472
0.015472
0.0154713
0.0154713
0.0154705
0.0154705
0.0154691
0.0154644
0.0145374
0.0151148
0.0151304
0.015138
0.015126
0.0151307
0.0151207
0.0151246
0.0151159
0.0151192
0.0151116
0.0151147
0.0151082
0.015111
0.0151053
0.0151077
0.0151027
0.015105
0.0151005
0.0151027
0.0150986
0.0151006
0.0150969
0.0150987
0.0150954
0.0150972
0.0150941
0.0150958
0.015093
0.0150945
0.015092
0.0150936
0.0150913
0.0150928
0.0150908
0.0150923
0.0150906
0.015092
0.0150906
0.0150918
0.0150907
0.0150919
0.0150909
0.0150921
0.0150911
0.0150923
0.0150914
0.0150925
0.0150917
0.0150927
0.0150919
0.0150929
0.0150922
0.0150931
0.0150924
0.0150933
0.0150926
0.0150934
0.0150928
0.0150936
0.015093
0.0150937
0.0150931
0.0150938
0.0150932
0.0150939
0.0150933
0.0150939
0.0150934
0.015094
0.0150934
0.015094
0.0150934
0.015094
0.0150934
0.0150939
0.0150934
0.0150938
0.0150933
0.0150937
0.0150932
0.0150936
0.015093
0.0150934
0.0150928
0.0150931
0.0150925
0.0150928
0.0150925
0.015087
0.0145041
0.0151591
0.0151888
0.0152015
0.0151902
0.0151958
0.0151856
0.0151898
0.0151804
0.0151838
0.0151756
0.0151787
0.0151716
0.0151745
0.0151681
0.0151709
0.0151651
0.0151677
0.0151626
0.0151651
0.0151605
0.0151628
0.0151586
0.0151607
0.015157
0.015159
0.0151556
0.0151575
0.0151544
0.0151563
0.0151535
0.0151553
0.0151528
0.0151547
0.0151525
0.0151543
0.0151524
0.0151541
0.0151526
0.0151542
0.015153
0.0151545
0.0151535
0.015155
0.0151541
0.0151555
0.0151547
0.015156
0.0151553
0.0151565
0.0151558
0.0151571
0.0151564
0.0151576
0.015157
0.0151581
0.0151575
0.0151586
0.0151581
0.0151591
0.0151586
0.0151595
0.015159
0.01516
0.0151595
0.0151604
0.0151599
0.0151608
0.0151604
0.0151612
0.0151607
0.0151615
0.0151611
0.0151619
0.0151614
0.0151621
0.0151617
0.0151624
0.0151619
0.0151626
0.0151621
0.0151628
0.0151623
0.0151629
0.0151624
0.015163
0.0151625
0.0151629
0.015163
0.0151569
0.0145254
0.0152243
0.0152633
0.0152799
0.01527
0.0152762
0.0152666
0.0152709
0.0152616
0.0152651
0.0152567
0.0152598
0.0152526
0.0152556
0.015249
0.0152518
0.0152458
0.0152486
0.0152432
0.0152459
0.015241
0.0152435
0.015239
0.0152414
0.0152374
0.0152396
0.0152359
0.015238
0.0152347
0.0152367
0.0152338
0.0152358
0.0152332
0.0152352
0.0152329
0.0152348
0.0152329
0.0152348
0.0152332
0.015235
0.0152338
0.0152354
0.0152344
0.015236
0.0152351
0.0152367
0.0152359
0.0152374
0.0152367
0.0152381
0.0152375
0.0152388
0.0152382
0.0152395
0.015239
0.0152402
0.0152397
0.0152409
0.0152404
0.0152415
0.0152411
0.0152422
0.0152417
0.0152428
0.0152424
0.0152434
0.015243
0.015244
0.0152436
0.0152446
0.0152442
0.0152451
0.0152447
0.0152456
0.0152452
0.0152461
0.0152457
0.0152465
0.0152461
0.0152469
0.0152465
0.0152472
0.0152468
0.0152475
0.0152471
0.0152477
0.0152473
0.0152478
0.0152481
0.0152416
0.0145256
0.0152252
0.015265
0.0152821
0.0152731
0.0152793
0.0152703
0.0152745
0.0152657
0.0152692
0.0152612
0.0152643
0.0152574
0.0152603
0.0152539
0.0152567
0.0152509
0.0152536
0.0152484
0.015251
0.0152462
0.0152487
0.0152442
0.0152466
0.0152426
0.0152448
0.0152412
0.0152433
0.01524
0.015242
0.0152391
0.0152411
0.0152385
0.0152405
0.0152382
0.0152401
0.0152382
0.0152401
0.0152386
0.0152403
0.0152391
0.0152408
0.0152398
0.0152414
0.0152405
0.0152421
0.0152413
0.0152428
0.0152421
0.0152435
0.0152428
0.0152442
0.0152436
0.0152449
0.0152444
0.0152456
0.0152451
0.0152463
0.0152458
0.015247
0.0152465
0.0152476
0.0152472
0.0152483
0.0152479
0.0152489
0.0152485
0.0152495
0.0152491
0.01525
0.0152497
0.0152506
0.0152502
0.0152511
0.0152507
0.0152516
0.0152512
0.015252
0.0152516
0.0152524
0.015252
0.0152528
0.0152524
0.0152531
0.0152526
0.0152533
0.0152529
0.0152534
0.0152537
0.0152471
0.0145052
0.0151625
0.0151939
0.0152078
0.0151984
0.0152041
0.0151955
0.0151994
0.0151913
0.0151945
0.0151872
0.0151902
0.0151838
0.0151866
0.0151807
0.0151834
0.015178
0.0151806
0.0151757
0.0151782
0.0151737
0.0151761
0.0151719
0.0151741
0.0151703
0.0151724
0.015169
0.015171
0.0151678
0.0151698
0.0151669
0.0151688
0.0151663
0.0151682
0.015166
0.0151678
0.015166
0.0151677
0.0151662
0.0151678
0.0151666
0.0151682
0.0151672
0.0151687
0.0151678
0.0151692
0.0151684
0.0151698
0.015169
0.0151703
0.0151696
0.0151709
0.0151702
0.0151714
0.0151708
0.015172
0.0151714
0.0151725
0.0151719
0.015173
0.0151725
0.0151735
0.015173
0.0151739
0.0151735
0.0151744
0.0151739
0.0151748
0.0151744
0.0151752
0.0151748
0.0151756
0.0151752
0.015176
0.0151755
0.0151763
0.0151758
0.0151766
0.0151761
0.0151768
0.0151763
0.015177
0.0151765
0.0151771
0.0151767
0.0151772
0.0151768
0.0151772
0.0151773
0.0151712
0.0145385
0.015119
0.0151371
0.0151461
0.0151365
0.0151412
0.0151331
0.0151367
0.0151294
0.0151324
0.0151261
0.0151289
0.0151233
0.015126
0.0151208
0.0151233
0.0151185
0.015121
0.0151166
0.0151189
0.0151149
0.015117
0.0151133
0.0151153
0.0151119
0.0151138
0.0151107
0.0151124
0.0151096
0.0151112
0.0151087
0.0151103
0.015108
0.0151096
0.0151076
0.0151091
0.0151074
0.0151089
0.0151074
0.0151088
0.0151076
0.0151089
0.0151078
0.0151091
0.0151081
0.0151093
0.0151084
0.0151096
0.0151087
0.0151098
0.015109
0.01511
0.0151093
0.0151103
0.0151096
0.0151105
0.0151098
0.0151107
0.0151101
0.0151109
0.0151103
0.015111
0.0151104
0.0151112
0.0151106
0.0151113
0.0151107
0.0151114
0.0151109
0.0151115
0.0151109
0.0151115
0.015111
0.0151116
0.015111
0.0151115
0.015111
0.0151115
0.0151109
0.0151114
0.0151109
0.0151113
0.0151107
0.0151111
0.0151105
0.0151109
0.0151103
0.0151106
0.0151102
0.0151046
0.0150827
0.0155194
0.0155227
0.0155271
0.0155182
0.0155215
0.0155146
0.0155174
0.0155114
0.0155138
0.0155087
0.015511
0.0155064
0.0155085
0.0155043
0.0155062
0.0155024
0.0155042
0.0155007
0.0155024
0.0154992
0.0155006
0.0154977
0.015499
0.0154963
0.0154975
0.015495
0.015496
0.0154937
0.0154947
0.0154925
0.0154935
0.0154916
0.0154925
0.0154907
0.0154917
0.0154901
0.015491
0.0154897
0.0154905
0.0154894
0.0154902
0.0154892
0.0154899
0.015489
0.0154897
0.0154888
0.0154895
0.0154886
0.0154892
0.0154884
0.015489
0.0154882
0.0154887
0.0154879
0.0154884
0.0154877
0.0154881
0.0154874
0.0154878
0.0154871
0.0154874
0.0154867
0.0154871
0.0154864
0.0154867
0.015486
0.0154863
0.0154856
0.0154859
0.0154852
0.0154854
0.0154847
0.0154849
0.0154843
0.0154844
0.0154837
0.0154839
0.0154832
0.0154833
0.0154826
0.0154827
0.015482
0.015482
0.0154813
0.0154813
0.0154806
0.0154806
0.0154793
0.0154746
0.0187199
0.0189717
0.01897
0.0189714
0.0189659
0.0189672
0.0189631
0.0189641
0.0189606
0.0189615
0.0189585
0.0189593
0.0189566
0.0189572
0.0189547
0.0189552
0.0189529
0.0189533
0.0189512
0.0189514
0.0189495
0.0189496
0.0189478
0.0189478
0.0189461
0.018946
0.0189443
0.0189442
0.0189425
0.0189423
0.0189408
0.0189406
0.0189392
0.018939
0.0189376
0.0189374
0.0189362
0.018936
0.0189349
0.0189348
0.0189337
0.0189336
0.0189326
0.0189324
0.0189314
0.0189313
0.0189303
0.0189301
0.0189292
0.0189289
0.018928
0.0189278
0.0189269
0.0189266
0.0189257
0.0189254
0.0189245
0.0189241
0.0189232
0.0189229
0.018922
0.0189216
0.0189207
0.0189203
0.0189194
0.018919
0.0189181
0.0189176
0.0189167
0.0189163
0.0189154
0.0189149
0.018914
0.0189135
0.0189126
0.0189121
0.0189111
0.0189106
0.0189096
0.0189091
0.0189081
0.0189076
0.0189066
0.018906
0.018905
0.0189044
0.0189033
0.0189029
0.0188989
0.0188967
0.0326468
0.0327125
0.0327152
0.0327137
0.0327117
0.03271
0.0327085
0.032707
0.0327057
0.0327041
0.0327028
0.0327011
0.0326999
0.0326982
0.032697
0.0326953
0.0326941
0.0326923
0.032691
0.0326893
0.032688
0.0326863
0.032685
0.0326833
0.032682
0.0326804
0.0326791
0.0326775
0.0326763
0.0326748
0.0326736
0.0326721
0.0326709
0.0326695
0.0326683
0.0326669
0.0326657
0.0326642
0.032663
0.0326616
0.0326603
0.0326588
0.0326576
0.0326561
0.0326548
0.0326533
0.032652
0.0326505
0.0326491
0.0326476
0.0326463
0.0326448
0.0326434
0.0326419
0.0326405
0.032639
0.0326375
0.032636
0.0326346
0.0326331
0.0326316
0.0326301
0.0326286
0.0326271
0.0326255
0.032624
0.0326225
0.032621
0.0326194
0.0326179
0.0326163
0.0326148
0.0326132
0.0326116
0.03261
0.0326085
0.0326069
0.0326053
0.0326037
0.0326021
0.0326005
0.0325989
0.0325972
0.0325957
0.032594
0.0325924
0.0325907
0.0325891
0.0325843
0.032581
0.0148776
0.014975
0.0149723
0.0149686
0.0149659
0.0149641
0.0149621
0.0149612
0.0149594
0.0149588
0.0149571
0.0149567
0.0149551
0.0149548
0.0149533
0.0149531
0.0149516
0.0149515
0.0149501
0.01495
0.0149487
0.0149486
0.0149474
0.0149473
0.0149461
0.0149461
0.014945
0.0149449
0.0149438
0.0149438
0.0149428
0.0149427
0.0149418
0.0149417
0.0149408
0.0149408
0.0149399
0.0149398
0.014939
0.0149389
0.0149381
0.014938
0.0149373
0.0149371
0.0149364
0.0149362
0.0149355
0.0149353
0.0149346
0.0149344
0.0149336
0.0149334
0.0149327
0.0149324
0.0149317
0.0149315
0.0149307
0.0149305
0.0149297
0.0149295
0.0149287
0.0149284
0.0149277
0.0149274
0.0149267
0.0149263
0.0149256
0.0149252
0.0149245
0.0149242
0.0149234
0.014923
0.0149223
0.0149219
0.0149212
0.0149208
0.01492
0.0149196
0.0149189
0.0149185
0.0149177
0.0149173
0.0149166
0.0149162
0.0149154
0.0149151
0.0149143
0.0149143
0.0149123
0.0149118
0.0144157
0.0146789
0.0146818
0.0146805
0.0146783
0.0146779
0.0146763
0.0146759
0.0146744
0.014674
0.0146727
0.0146724
0.0146712
0.0146709
0.0146697
0.0146694
0.0146682
0.014668
0.0146668
0.0146666
0.0146655
0.0146652
0.0146641
0.0146638
0.0146627
0.0146624
0.0146613
0.014661
0.0146599
0.0146595
0.0146585
0.0146581
0.0146572
0.0146568
0.0146559
0.0146555
0.0146546
0.0146543
0.0146535
0.0146532
0.0146525
0.0146522
0.0146515
0.0146512
0.0146505
0.0146502
0.0146495
0.0146492
0.0146485
0.0146482
0.0146475
0.0146472
0.0146465
0.0146462
0.0146455
0.0146451
0.0146445
0.0146441
0.0146434
0.014643
0.0146423
0.0146419
0.0146413
0.0146409
0.0146402
0.0146398
0.0146391
0.0146387
0.014638
0.0146375
0.0146369
0.0146364
0.0146357
0.0146353
0.0146346
0.0146341
0.0146334
0.014633
0.0146323
0.0146318
0.0146311
0.0146307
0.0146299
0.0146295
0.0146287
0.0146283
0.0146274
0.0146272
0.014626
0.0146258
0.0138714
0.0143071
0.0143262
0.0143281
0.0143276
0.0143278
0.0143271
0.0143266
0.0143256
0.0143249
0.014324
0.0143234
0.0143226
0.014322
0.0143211
0.0143204
0.0143195
0.0143189
0.0143181
0.0143175
0.0143166
0.014316
0.0143151
0.0143144
0.0143136
0.0143129
0.014312
0.0143113
0.0143104
0.0143096
0.0143087
0.014308
0.0143071
0.0143064
0.0143055
0.0143049
0.0143041
0.0143034
0.0143027
0.0143022
0.0143015
0.014301
0.0143004
0.0142999
0.0142993
0.0142988
0.0142982
0.0142977
0.0142971
0.0142966
0.014296
0.0142955
0.0142949
0.0142944
0.0142938
0.0142933
0.0142927
0.0142922
0.0142916
0.0142911
0.0142905
0.0142899
0.0142893
0.0142888
0.0142882
0.0142876
0.014287
0.0142865
0.0142858
0.0142853
0.0142847
0.0142841
0.0142835
0.014283
0.0142823
0.0142818
0.0142811
0.0142806
0.0142799
0.0142794
0.0142787
0.0142782
0.0142775
0.014277
0.0142762
0.0142757
0.0142748
0.0142744
0.0142732
0.0142679
0.013694
0.0142255
0.0142578
0.014262
0.0142627
0.0142634
0.0142634
0.0142632
0.0142626
0.0142619
0.0142612
0.0142606
0.0142601
0.0142594
0.0142587
0.0142579
0.0142573
0.0142565
0.0142559
0.0142552
0.0142546
0.0142538
0.0142531
0.0142523
0.0142517
0.0142509
0.0142501
0.0142493
0.0142485
0.0142476
0.0142468
0.0142459