/*--------------------------------*- C++ -*----------------------------------*\
  =========                 |
  \\      /  F ield         | OpenFOAM: The Open Source CFD Toolbox
   \\    /   O peration     | Website:  https://openfoam.org
    \\  /    A nd           | Version:  7
     \\/     M anipulation  |
\*---------------------------------------------------------------------------*/
FoamFile
{
    version     2.0;
    format      ascii;
    class       volVectorField;
    location    "2.66";
    object      UMean;
}
// * * * * * * * * * * * * * * * * * * * * * * * * * * * * * * * * * * * * * //

dimensions      [0 1 -1 0 0 0 0];

internalField   nonuniform List<vector> 
7920
(
(2.9376 0.100513 -32.3848)
(2.1281 -0.460124 -32.4388)
(1.42643 -0.612811 -32.4404)
(1.3263 -0.668252 -32.4499)
(1.09726 -0.684814 -32.4463)
(1.128 -0.689705 -32.4521)
(0.990597 -0.693767 -32.4487)
(1.03911 -0.693967 -32.4529)
(0.936417 -0.69617 -32.4503)
(0.983727 -0.695872 -32.4535)
(0.902066 -0.697385 -32.4514)
(0.944657 -0.696828 -32.4539)
(0.878173 -0.697794 -32.4524)
(0.915545 -0.697215 -32.4542)
(0.860608 -0.697598 -32.4533)
(0.893062 -0.697685 -32.4544)
(0.845884 -0.693902 -32.4545)
(0.869908 -0.700291 -32.4539)
(0.833441 -0.643041 -32.4573)
(0.668984 -0.653593 -32.4469)
(4.41085 0.960436 -32.4315)
(4.34031 0.863616 -32.4767)
(3.69968 0.809476 -32.4805)
(3.56538 0.74324 -32.4934)
(3.17791 0.71631 -32.4927)
(3.18282 0.703444 -32.4996)
(2.92985 0.697264 -32.4981)
(2.97922 0.694049 -32.5024)
(2.79116 0.692105 -32.5013)
(2.84904 0.690559 -32.5043)
(2.70043 0.689526 -32.5034)
(2.75663 0.688432 -32.5055)
(2.63592 0.68779 -32.5052)
(2.68755 0.686963 -32.5064)
(2.58756 0.686309 -32.507)
(2.63596 0.686622 -32.5067)
(2.54569 0.683307 -32.5099)
(2.61206 0.688673 -32.5046)
(2.48834 0.679196 -32.5176)
(2.77171 0.673171 -32.4792)
(4.74916 0.189814 -32.436)
(5.25161 -0.232511 -32.4714)
(5.10492 -0.378558 -32.4636)
(5.21899 -0.496497 -32.4755)
(4.97734 -0.560439 -32.4707)
(5.03256 -0.596339 -32.4797)
(4.82304 -0.619934 -32.4758)
(4.87151 -0.63319 -32.4827)
(4.70035 -0.64325 -32.4797)
(4.74638 -0.649538 -32.4852)
(4.60657 -0.654669 -32.4831)
(4.64938 -0.658382 -32.4872)
(4.53428 -0.661327 -32.4863)
(4.57304 -0.663733 -32.4889)
(4.47834 -0.665811 -32.4896)
(4.50997 -0.666261 -32.49)
(4.43819 -0.669937 -32.4939)
(4.44407 -0.664198 -32.4892)
(4.41749 -0.666766 -32.5008)
(4.33224 -0.681288 -32.4691)
(4.75006 0.644665 -32.4459)
(5.27607 0.741994 -32.4784)
(5.36813 0.787724 -32.4687)
(5.66821 0.757648 -32.4771)
(5.60321 0.739798 -32.4717)
(5.77261 0.725535 -32.4786)
(5.67515 0.715393 -32.475)
(5.78721 0.707576 -32.4804)
(5.69051 0.701728 -32.4781)
(5.77233 0.696374 -32.4823)
(5.68457 0.69261 -32.481)
(5.74803 0.688681 -32.4841)
(5.67034 0.686329 -32.484)
(5.7224 0.68317 -32.4859)
(5.65255 0.682257 -32.487)
(5.7006 0.678891 -32.4874)
(5.63096 0.681206 -32.4903)
(5.6928 0.675451 -32.4886)
(5.60609 0.689009 -32.4939)
(5.74663 0.70272 -32.4685)
(4.74207 -0.0886873 -32.445)
(5.24041 -0.386925 -32.4771)
(5.38862 -0.479711 -32.4643)
(5.74223 -0.545642 -32.4726)
(5.74335 -0.581307 -32.4647)
(5.96937 -0.601204 -32.4716)
(5.93395 -0.615202 -32.466)
(6.09435 -0.623053 -32.4716)
(6.0516 -0.629776 -32.4677)
(6.17253 -0.63406 -32.4722)
(6.12997 -0.638128 -32.4696)
(6.22399 -0.641043 -32.4732)
(6.18389 -0.644062 -32.4717)
(6.25836 -0.645774 -32.4746)
(6.22211 -0.649307 -32.474)
(6.28014 -0.647515 -32.4761)
(6.25289 -0.656897 -32.4765)
(6.28705 -0.644473 -32.478)
(6.28493 -0.669347 -32.4791)
(6.27534 -0.686338 -32.458)
(4.72948 0.350098 -32.4487)
(5.18433 0.553395 -32.4813)
(5.34281 0.631005 -32.4683)
(5.71172 0.650898 -32.4766)
(5.73599 0.660938 -32.4681)
(5.98473 0.664116 -32.4749)
(5.97456 0.666127 -32.4689)
(6.15783 0.666172 -32.4743)
(6.14025 0.666447 -32.47)
(6.28255 0.665728 -32.4743)
(6.26354 0.665599 -32.4713)
(6.37659 0.664768 -32.4749)
(6.35743 0.664818 -32.4728)
(6.44855 0.663646 -32.4758)
(6.4296 0.664938 -32.4746)
(6.50386 0.6615 -32.4771)
(6.4868 0.668559 -32.4767)
(6.54669 0.657697 -32.4789)
(6.53941 0.681473 -32.479)
(6.59253 0.702755 -32.4576)
(4.72948 -0.350098 -32.4487)
(5.18433 -0.553395 -32.4813)
(5.34281 -0.631005 -32.4683)
(5.71172 -0.650898 -32.4766)
(5.73599 -0.660938 -32.4681)
(5.98473 -0.664115 -32.4749)
(5.97456 -0.666126 -32.4689)
(6.15783 -0.666169 -32.4743)
(6.14025 -0.666444 -32.4699)
(6.28255 -0.665721 -32.4744)
(6.26355 -0.665585 -32.4712)
(6.37659 -0.664749 -32.4749)
(6.35746 -0.66478 -32.4728)
(6.44853 -0.663574 -32.4758)
(6.42968 -0.664861 -32.4746)
(6.5038 -0.661218 -32.4772)
(6.48699 -0.668438 -32.4766)
(6.54653 -0.656828 -32.4789)
(6.53967 -0.681006 -32.479)
(6.59219 -0.70108 -32.4576)
(4.74207 0.0886873 -32.445)
(5.24041 0.386925 -32.4771)
(5.38862 0.479711 -32.4643)
(5.74223 0.545642 -32.4726)
(5.74335 0.581307 -32.4646)
(5.96937 0.601205 -32.4716)
(5.93395 0.615203 -32.466)
(6.09436 0.623055 -32.4716)
(6.0516 0.62978 -32.4677)
(6.17254 0.634065 -32.4723)
(6.12996 0.638143 -32.4695)
(6.22402 0.641057 -32.4733)
(6.18387 0.644104 -32.4716)
(6.25846 0.64583 -32.4747)
(6.22208 0.649395 -32.4738)
(6.28038 0.64776 -32.4764)
(6.25295 0.657038 -32.4761)
(6.28767 0.645314 -32.4784)
(6.2855 0.669805 -32.4787)
(6.27704 0.688158 -32.4584)
(4.75006 -0.644665 -32.4459)
(5.27607 -0.741994 -32.4784)
(5.36813 -0.787724 -32.4687)
(5.66821 -0.757647 -32.4771)
(5.60321 -0.739798 -32.4717)
(5.77261 -0.725534 -32.4786)
(5.67515 -0.715393 -32.475)
(5.78721 -0.707573 -32.4805)
(5.69051 -0.701726 -32.478)
(5.77234 -0.696367 -32.4824)
(5.68457 -0.692601 -32.4809)
(5.74807 -0.68866 -32.4843)
(5.67036 -0.686304 -32.4837)
(5.7225 -0.683099 -32.4863)
(5.65265 -0.682213 -32.4864)
(5.70082 -0.678629 -32.4884)
(5.63138 -0.681174 -32.4889)
(5.69322 -0.674686 -32.4905)
(5.60729 -0.688797 -32.4914)
(5.7476 -0.701491 -32.4717)
(4.74916 -0.189814 -32.436)
(5.25161 0.232511 -32.4714)
(5.10492 0.378558 -32.4636)
(5.21899 0.496497 -32.4755)
(4.97734 0.560439 -32.4707)
(5.03256 0.59634 -32.4797)
(4.82304 0.619935 -32.4758)
(4.87152 0.633191 -32.4828)
(4.70035 0.643254 -32.4797)
(4.7464 0.649539 -32.4853)
(4.60656 0.654682 -32.483)
(4.64946 0.658383 -32.4874)
(4.53428 0.661364 -32.4859)
(4.57325 0.663747 -32.4895)
(4.47837 0.665888 -32.4886)
(4.51052 0.666366 -32.4916)
(4.43848 0.670062 -32.4912)
(4.44545 0.66469 -32.4936)
(4.41883 0.667102 -32.4936)
(4.33642 0.682511 -32.4803)
(4.41085 -0.960436 -32.4315)
(4.34031 -0.863616 -32.4767)
(3.69968 -0.809476 -32.4805)
(3.56538 -0.743239 -32.4934)
(3.17791 -0.71631 -32.4927)
(3.18282 -0.703444 -32.4996)
(2.92985 -0.697264 -32.498)
(2.97922 -0.694047 -32.5024)
(2.79117 -0.692105 -32.5012)
(2.84905 -0.690555 -32.5043)
(2.70044 -0.689525 -32.5033)
(2.75668 -0.68842 -32.5057)
(2.63596 -0.687786 -32.505)
(2.68771 -0.686921 -32.5068)
(2.58771 -0.686311 -32.5064)
(2.6363 -0.686468 -32.5079)
(2.54633 -0.68339 -32.5077)
(2.61259 -0.688254 -32.5089)
(2.49052 -0.67948 -32.5085)
(2.77217 -0.673321 -32.4993)
(2.9376 -0.100513 -32.3848)
(2.1281 0.460124 -32.4388)
(1.42643 0.612811 -32.4404)
(1.3263 0.668252 -32.4499)
(1.09726 0.684814 -32.4463)
(1.128 0.689705 -32.4521)
(0.990598 0.693767 -32.4487)
(1.03911 0.693966 -32.4529)
(0.93642 0.696172 -32.4503)
(0.983735 0.695869 -32.4535)
(0.902072 0.697389 -32.4514)
(0.944685 0.696819 -32.4539)
(0.878188 0.697805 -32.4523)
(0.915629 0.697187 -32.4543)
(0.860665 0.697631 -32.4531)
(0.893266 0.697602 -32.4547)
(0.846175 0.694034 -32.4539)
(0.870321 0.700145 -32.4552)
(0.834636 0.643677 -32.4545)
(0.670962 0.654381 -32.4545)
(4.32729 0.561034 0.006994)
(3.10217 0.840671 0.0045401)
(2.35459 0.862315 0.00580286)
(1.80775 0.846144 0.0043349)
(1.67659 0.848961 0.00546698)
(1.48482 0.860536 0.00430386)
(1.48065 0.870227 0.00524586)
(1.36787 0.878047 0.00426977)
(1.37623 0.882125 0.00503952)
(1.29745 0.885627 0.00421686)
(1.30611 0.887235 0.00484708)
(1.24922 0.889151 0.00415708)
(1.2559 0.889818 0.00467361)
(1.21308 0.891188 0.00409656)
(1.21826 0.890951 0.00451866)
(1.18312 0.893374 0.00403619)
(1.18892 0.885717 0.00438119)
(1.1726 0.907934 0.00397364)
(1.1211 0.786381 0.00428582)
(1.56812 0.812082 0.00385659)
(4.75347 -0.102233 0.00442427)
(4.61208 -0.280347 0.002404)
(4.52851 -0.480291 0.00369711)
(4.1616 -0.644204 0.00226268)
(4.02649 -0.738687 0.00340315)
(3.76417 -0.792463 0.00224556)
(3.69685 -0.818944 0.00319155)
(3.52374 -0.835307 0.00221803)
(3.48917 -0.844976 0.00299056)
(3.36858 -0.852304 0.00216955)
(3.34742 -0.857224 0.00280169)
(3.2597 -0.861363 0.00211256)
(3.24433 -0.864002 0.00263036)
(3.17746 -0.867003 0.00205379)
(3.16625 -0.867575 0.00247639)
(3.10915 -0.871674 0.00199479)
(3.11042 -0.868905 0.00233539)
(3.0352 -0.874797 0.00193563)
(3.10586 -0.879992 0.00218147)
(2.72773 -0.882164 0.00180664)
(4.63384 0.431846 0.00571805)
(4.82211 0.86245 0.00377319)
(5.12776 0.957527 0.00494889)
(5.07051 0.947766 0.00347462)
(5.12897 0.929516 0.00458947)
(4.99993 0.916532 0.00341943)
(5.00584 0.907341 0.00435957)
(4.89451 0.901728 0.00338264)
(4.89015 0.895558 0.00415332)
(4.80175 0.892192 0.00333054)
(4.79314 0.887901 0.00396138)
(4.72348 0.885971 0.00327097)
(4.71245 0.883191 0.0037877)
(4.65781 0.8819 0.00321008)
(4.64363 0.880407 0.00363231)
(4.60496 0.878728 0.00314913)
(4.57728 0.876982 0.00349491)
(4.5787 0.878791 0.00308592)
(4.49898 0.837858 0.00339899)
(4.62348 0.881934 0.00299477)
(4.57288 -0.201809 0.00454285)
(4.69828 -0.398455 0.00281709)
(5.11639 -0.520026 0.0039973)
(5.21312 -0.624378 0.00255204)
(5.41974 -0.691666 0.00366865)
(5.41916 -0.738173 0.00250302)
(5.52314 -0.764357 0.0034461)
(5.4974 -0.783267 0.00247236)
(5.55613 -0.795483 0.00324571)
(5.52601 -0.805629 0.00242577)
(5.56003 -0.813074 0.00305847)
(5.53128 -0.819516 0.00237012)
(5.55076 -0.824556 0.00288793)
(5.5247 -0.828874 0.00231189)
(5.53587 -0.832771 0.0027342)
(5.51041 -0.834819 0.00225303)
(5.52115 -0.842521 0.00259273)
(5.47864 -0.834952 0.00219205)
(5.51905 -0.871786 0.00243598)
(5.32038 -0.886306 0.00208912)
(4.5857 0.339337 0.00519398)
(4.69474 0.682879 0.00350738)
(5.0933 0.795786 0.0046404)
(5.21019 0.836345 0.00318124)
(5.45514 0.852732 0.00428512)
(5.5008 0.862066 0.00311285)
(5.65215 0.865518 0.00405261)
(5.6748 0.867852 0.00307666)
(5.77787 0.867047 0.00384895)
(5.79113 0.867133 0.00302789)
(5.86305 0.8655 0.00365989)
(5.87087 0.865136 0.00297076)
(5.92139 0.863784 0.00348801)
(5.92623 0.863047 0.00291135)
(5.96068 0.862892 0.00333346)
(5.96606 0.860143 0.00285138)
(5.98354 0.864042 0.00319495)
(5.99608 0.856544 0.00278855)
(5.99663 0.859293 0.00308273)
(5.98602 0.906672 0.00271134)
(4.57967 -0.268054 0.00482412)
(4.66696 -0.536644 0.00320171)
(5.06075 -0.650552 0.00433388)
(5.17926 -0.720797 0.0028818)
(5.43549 -0.760844 0.00398401)
(5.49571 -0.788098 0.00281182)
(5.66407 -0.802478 0.0037516)
(5.70475 -0.813002 0.00277596)
(5.82626 -0.818626 0.0035487)
(5.85835 -0.82383 0.0027282)
(5.94858 -0.826893 0.00336061)
(5.97431 -0.830125 0.00267198)
(6.04214 -0.832343 0.00318948)
(6.06244 -0.834186 0.00261328)
(6.11401 -0.836939 0.00303531)
(6.12884 -0.835672 0.00255398)
(6.16965 -0.844569 0.00289484)
(6.16941 -0.8332 0.00249177)
(6.21896 -0.863838 0.00275769)
(6.12012 -0.895906 0.00240893)
(4.57967 0.268053 0.00482412)
(4.66696 0.536644 0.00320171)
(5.06075 0.650552 0.00433388)
(5.17926 0.720798 0.0028818)
(5.43549 0.760844 0.00398401)
(5.49571 0.788099 0.00281182)
(5.66407 0.802479 0.0037516)
(5.70476 0.813005 0.00277595)
(5.82625 0.81863 0.0035487)
(5.85835 0.823838 0.0027282)
(5.94857 0.826907 0.00336062)
(5.97433 0.83015 0.00267196)
(6.04211 0.832381 0.0031895)
(6.0625 0.834269 0.00261323)
(6.11394 0.837041 0.00303537)
(6.12901 0.835929 0.00255382)
(6.16953 0.844864 0.00289508)
(6.16998 0.833939 0.00249141)
(6.21918 0.864712 0.0027588)
(6.12119 0.897863 0.00240861)
(4.5857 -0.339337 0.00519398)
(4.69474 -0.682879 0.00350738)
(5.0933 -0.795786 0.0046404)
(5.21019 -0.836345 0.00318124)
(5.45514 -0.852732 0.00428512)
(5.5008 -0.862065 0.00311286)
(5.65215 -0.865517 0.00405261)
(5.6748 -0.867849 0.00307666)
(5.77787 -0.867045 0.00384894)
(5.79113 -0.867123 0.0030279)
(5.86306 -0.86549 0.00365988)
(5.87088 -0.865106 0.00297079)
(5.92142 -0.863756 0.00348797)
(5.92624 -0.862953 0.00291141)
(5.9608 -0.862821 0.00333336)
(5.96605 -0.859869 0.00285155)
(5.9839 -0.863845 0.00319463)
(5.99594 -0.855892 0.00278885)
(5.99731 -0.858649 0.00308161)
(5.98606 -0.904966 0.00271126)
(4.57288 0.201809 0.00454285)
(4.69828 0.398455 0.00281709)
(5.11639 0.520026 0.0039973)
(5.21312 0.624378 0.00255204)
(5.41973 0.691666 0.00366865)
(5.41917 0.738174 0.00250302)
(5.52314 0.764359 0.0034461)
(5.49741 0.783268 0.00247236)
(5.55612 0.795488 0.00324571)
(5.52603 0.805633 0.00242578)
(5.56002 0.813088 0.00305846)
(5.53133 0.819532 0.00237011)
(5.55074 0.824596 0.00288792)
(5.52485 0.828925 0.00231188)
(5.53587 0.832882 0.0027342)
(5.51083 0.834991 0.00225299)
(5.52129 0.842842 0.00259281)
(5.47985 0.835564 0.00219189)
(5.51996 0.872718 0.00243691)
(5.32363 0.888085 0.00208884)
(4.63384 -0.431846 0.00571805)
(4.82211 -0.86245 0.00377319)
(5.12776 -0.957527 0.00494889)
(5.07051 -0.947766 0.00347462)
(5.12897 -0.929517 0.00458946)
(4.99993 -0.916531 0.00341944)
(5.00584 -0.907341 0.00435956)
(4.89452 -0.901725 0.00338265)
(4.89015 -0.895556 0.00415331)
(4.80177 -0.892184 0.00333056)
(4.79314 -0.887896 0.00396136)
(4.72353 -0.885946 0.00327101)
(4.71248 -0.883179 0.00378763)
(4.65796 -0.88182 0.00321018)
(4.64377 -0.880388 0.0036321)
(4.60532 -0.878499 0.00314942)
(4.57779 -0.876954 0.00349434)
(4.57952 -0.878334 0.00308652)
(4.50034 -0.837748 0.00339742)
(4.62571 -0.881287 0.00299513)
(4.75347 0.102233 0.00442427)
(4.61208 0.280347 0.002404)
(4.52851 0.480291 0.00369711)
(4.1616 0.644204 0.00226268)
(4.02649 0.738687 0.00340315)
(3.76417 0.792463 0.00224556)
(3.69685 0.818945 0.00319155)
(3.52374 0.835307 0.00221803)
(3.48917 0.84498 0.00299055)
(3.36861 0.852302 0.00216955)
(3.34742 0.857234 0.00280169)
(3.25978 0.861359 0.00211256)
(3.24435 0.864033 0.00263035)
(3.17768 0.866991 0.00205381)
(3.16635 0.867662 0.00247633)
(3.10977 0.871652 0.00199487)
(3.11072 0.869171 0.00233524)
(3.03716 0.874922 0.00193581)
(3.10645 0.880798 0.00218154)
(2.7353 0.883625 0.00180727)
(4.32729 -0.561034 0.006994)
(3.10217 -0.840671 0.0045401)
(2.35459 -0.862315 0.00580286)
(1.80775 -0.846144 0.0043349)
(1.67659 -0.848961 0.00546698)
(1.48482 -0.860536 0.00430386)
(1.48065 -0.870227 0.00524586)
(1.36787 -0.878046 0.00426978)
(1.37624 -0.882126 0.00503952)
(1.29746 -0.885623 0.00421687)
(1.30612 -0.887239 0.00484707)
(1.24926 -0.889137 0.0041571)
(1.25594 -0.88983 0.00467358)
(1.21318 -0.891143 0.00409663)
(1.21841 -0.890997 0.00451854)
(1.18338 -0.893243 0.00403641)
(1.18939 -0.885913 0.00438077)
(1.17316 -0.907707 0.00397427)
(1.12259 -0.787399 0.00428415)
(1.56865 -0.8134 0.00385963)
(4.37802 0.0952117 0.00140788)
(3.98088 0.144796 0.0019486)
(3.46156 0.157375 0.00100154)
(3.01048 0.150667 0.0015392)
(2.62039 0.139189 0.00101822)
(2.34286 0.131051 0.00142775)
(2.13682 0.126565 0.00108421)
(2.00389 0.126621 0.00134105)
(1.91258 0.129218 0.00110948)
(1.85203 0.133739 0.00125968)
(1.81235 0.138628 0.00111646)
(1.78034 0.143762 0.00119603)
(1.76098 0.14808 0.00112141)
(1.74039 0.152542 0.00115255)
(1.72808 0.155017 0.00113096)
(1.71654 0.159854 0.00112596)
(1.69907 0.158064 0.00114983)
(1.71198 0.167924 0.00111069)
(1.65635 0.153314 0.00116055)
(1.75022 0.161459 0.00117621)
(4.53893 0.0861132 0.00319448)
(4.67615 0.115399 0.00391248)
(4.71345 0.114714 0.00295961)
(4.70657 0.0872475 0.00347313)
(4.63099 0.0488325 0.00292838)
(4.54587 0.00710204 0.00332443)
(4.44508 -0.0296954 0.00297257)
(4.35342 -0.0608231 0.003226)
(4.26654 -0.0842676 0.00299206)
(4.18893 -0.102669 0.00314172)
(4.12131 -0.115937 0.00299769)
(4.05897 -0.126471 0.00307731)
(4.00754 -0.134197 0.00300244)
(3.95826 -0.140507 0.00303348)
(3.91916 -0.145593 0.00301237)
(3.88155 -0.148937 0.00300631)
(3.84965 -0.154032 0.00303394)
(3.82673 -0.153024 0.00298895)
(3.79002 -0.16161 0.00308194)
(3.79139 -0.159733 0.00308833)
(4.51473 0.0449788 0.00176433)
(4.65507 0.107547 0.00236763)
(4.77905 0.157359 0.00144659)
(4.92435 0.18353 0.00196394)
(5.02237 0.192213 0.00142556)
(5.10383 0.192202 0.00182827)
(5.14742 0.188548 0.00148456)
(5.17635 0.185425 0.0017429)
(5.18662 0.183497 0.00151413)
(5.18925 0.183052 0.00166558)
(5.18517 0.183336 0.00152411)
(5.1774 0.18417 0.00160403)
(5.16771 0.184662 0.0015303)
(5.1574 0.18581 0.00156143)
(5.1446 0.184914 0.00154012)
(5.1369 0.187875 0.00153577)
(5.11969 0.18185 0.0015567)
(5.12001 0.193262 0.00152685)
(5.09467 0.171713 0.00155127)
(5.10554 0.199866 0.00158458)
(4.51074 0.0432432 0.00277955)
(4.62136 0.0489199 0.00349159)
(4.73806 0.0436434 0.00259485)
(4.89439 0.0253781 0.00311732)
(5.02314 0.00275137 0.00256504)
(5.14981 -0.022339 0.00295643)
(5.24544 -0.0457795 0.0026022)
(5.32947 -0.0666815 0.00285567)
(5.39394 -0.0836348 0.00262262)
(5.44926 -0.0974863 0.00277256)
(5.4951 -0.108378 0.0026291)
(5.53438 -0.117037 0.00270847)
(5.56955 -0.124351 0.00263364)
(5.59945 -0.129635 0.00266444)
(5.62794 -0.135588 0.00264282)
(5.65103 -0.137637 0.00263792)
(5.6768 -0.144995 0.00266242)
(5.69017 -0.141705 0.00262885)
(5.72272 -0.153283 0.00271298)
(5.71026 -0.146559 0.00271923)
(4.51182 0.0163697 0.00208128)
(4.62243 0.0544479 0.0027479)
(4.73237 0.0888854 0.00186079)
(4.88301 0.113291 0.00237451)
(5.0098 0.128582 0.00182026)
(5.14017 0.13891 0.00221189)
(5.24391 0.14608 0.00186043)
(5.34001 0.152316 0.00211608)
(5.41904 0.157729 0.00188569)
(5.49098 0.162848 0.00203681)
(5.55491 0.167232 0.00189499)
(5.61309 0.171212 0.00197482)
(5.66841 0.174155 0.00190094)
(5.7179 0.177191 0.00193198)
(5.76813 0.178194 0.00191063)
(5.80934 0.181831 0.0019067)
(5.8599 0.178656 0.00192712)
(5.88501 0.187986 0.001902)
(5.95327 0.173994 0.00193579)
(5.93742 0.199327 0.00196665)
(4.51057 0.0115958 0.00241325)
(4.61473 -0.00434086 0.00310889)
(4.72335 -0.023602 0.00222949)
(4.8724 -0.0447983 0.00274902)
(4.99848 -0.063581 0.00219335)
(5.12887 -0.0809796 0.00258335)
(5.23377 -0.09601 0.00222945)
(5.33207 -0.109232 0.00248409)
(5.41449 -0.120182 0.00225263)
(5.49048 -0.129376 0.00240347)
(5.55969 -0.136864 0.00226114)
(5.62315 -0.142909 0.00234084)
(5.68555 -0.148007 0.00226668)
(5.74066 -0.151814 0.00229758)
(5.80019 -0.155496 0.00227622)
(5.84576 -0.157694 0.00227201)
(5.90939 -0.160467 0.0022943)
(5.93449 -0.162237 0.00226759)
(6.02274 -0.162245 0.00232875)
(5.99873 -0.16986 0.00234381)
(4.51057 -0.0115959 0.00241325)
(4.61473 0.00434114 0.00310889)
(4.72335 0.0236018 0.00222949)
(4.8724 0.044799 0.00274902)
(4.99848 0.0635808 0.00219335)
(5.12887 0.0809813 0.00258335)
(5.23377 0.0960104 0.00222945)
(5.33207 0.109236 0.00248409)
(5.41448 0.120185 0.00225263)
(5.49048 0.129386 0.00240348)
(5.55969 0.136875 0.00226113)
(5.62316 0.14294 0.00234086)
(5.68555 0.148033 0.00226667)
(5.74067 0.151909 0.00229763)
(5.80019 0.155553 0.00227615)
(5.84578 0.157979 0.00227215)
(5.90941 0.160622 0.002294)
(5.93456 0.162957 0.00226783)
(6.02285 0.162875 0.0023271)
(5.99897 0.171355 0.0023441)
(4.51182 -0.0163698 0.00208128)
(4.62243 -0.0544476 0.0027479)
(4.73237 -0.0888857 0.00186079)
(4.88301 -0.11329 0.00237451)
(5.0098 -0.128582 0.00182026)
(5.14017 -0.138908 0.00221189)
(5.24391 -0.14608 0.00186043)
(5.34001 -0.152312 0.00211608)
(5.41904 -0.157726 0.00188569)
(5.49098 -0.162837 0.00203681)
(5.55491 -0.167222 0.00189499)
(5.6131 -0.171181 0.0019748)
(5.66843 -0.174131 0.00190096)
(5.7179 -0.177096 0.00193193)
(5.7682 -0.178142 0.00191069)
(5.80934 -0.18155 0.00190657)
(5.86008 -0.178515 0.00192737)
(5.88507 -0.187289 0.00190176)
(5.95366 -0.173416 0.00193713)
(5.93774 -0.197937 0.00196631)
(4.51074 -0.0432433 0.00277955)
(4.62136 -0.0489197 0.00349159)
(4.73806 -0.0436435 0.00259485)
(4.89439 -0.0253775 0.00311732)
(5.02314 -0.0027515 0.00256504)
(5.14981 0.0223405 0.00295643)
(5.24543 0.04578 0.00260219)
(5.32947 0.0666851 0.00285567)
(5.39393 0.083638 0.00262261)
(5.44927 0.0974953 0.00277257)
(5.4951 0.108388 0.00262909)
(5.53441 0.117063 0.0027085)
(5.56955 0.124377 0.0026336)
(5.59952 0.129719 0.00266449)
(5.628 0.135642 0.00264273)
(5.65117 0.137895 0.00263803)
(5.67704 0.145129 0.00266206)
(5.69054 0.142376 0.00262906)
(5.72351 0.153827 0.00271139)
(5.71138 0.147984 0.00271923)
(4.51473 -0.0449789 0.00176433)
(4.65507 -0.107547 0.00236763)
(4.77905 -0.157359 0.00144659)
(4.92435 -0.183529 0.00196395)
(5.02236 -0.192213 0.00142556)
(5.10383 -0.192201 0.00182827)
(5.14741 -0.188548 0.00148456)
(5.17636 -0.185421 0.00174291)
(5.18661 -0.183495 0.00151412)
(5.18927 -0.183043 0.00166558)
(5.18516 -0.183329 0.0015241)
(5.17747 -0.184144 0.00160404)
(5.16771 -0.184646 0.00153029)
(5.15756 -0.18573 0.00156144)
(5.14466 -0.184886 0.00154011)
(5.13725 -0.187641 0.00153575)
(5.12004 -0.181779 0.00155674)
(5.12079 -0.1927 0.00152681)
(5.09584 -0.171368 0.00155185)
(5.1075 -0.198897 0.00158455)
(4.53893 -0.0861132 0.00319447)
(4.67615 -0.115399 0.00391248)
(4.71345 -0.114714 0.00295961)
(4.70657 -0.0872473 0.00347314)
(4.63099 -0.0488322 0.00292838)
(4.54588 -0.00710158 0.00332443)
(4.44508 0.0296965 0.00297257)
(4.35344 0.0608242 0.00322601)
(4.26654 0.0842711 0.00299204)
(4.18897 0.102672 0.00314175)
(4.1213 0.115946 0.00299764)
(4.05908 0.12648 0.00307739)
(4.00753 0.134219 0.00300232)
(3.95855 0.140544 0.00303367)
(3.91918 0.145632 0.00301204)
(3.88225 0.149065 0.0030068)
(3.84988 0.154111 0.00303302)
(3.82843 0.153385 0.00299017)
(3.79092 0.161918 0.00307918)
(3.79575 0.160517 0.00309086)
(4.37802 -0.0952117 0.00140788)
(3.98088 -0.144796 0.0019486)
(3.46156 -0.157375 0.00100154)
(3.01048 -0.150666 0.0015392)
(2.62039 -0.139189 0.00101822)
(2.34286 -0.131051 0.00142775)
(2.13683 -0.126564 0.00108421)
(2.0039 -0.12662 0.00134105)
(1.91259 -0.129217 0.00110948)
(1.85206 -0.133738 0.00125968)
(1.81237 -0.138627 0.00111646)
(1.78041 -0.143757 0.00119604)
(1.76103 -0.148078 0.0011214)
(1.74057 -0.152526 0.00115255)
(1.72828 -0.155021 0.00113093)
(1.71695 -0.159802 0.00112601)
(1.69971 -0.158093 0.00114963)
(1.71302 -0.167797 0.001111)
(1.65772 -0.153393 0.00115969)
(1.7543 -0.161541 0.00117771)
(4.37802 0.0952117 -0.00140791)
(3.98088 0.144796 -0.00194864)
(3.46156 0.157375 -0.00100157)
(3.01048 0.150667 -0.00153923)
(2.62039 0.139189 -0.00101825)
(2.34286 0.131051 -0.00142779)
(2.13682 0.126565 -0.00108425)
(2.00389 0.126621 -0.00134108)
(1.91258 0.129218 -0.00110952)
(1.85203 0.133739 -0.00125971)
(1.81235 0.138628 -0.00111649)
(1.78034 0.143762 -0.00119607)
(1.76098 0.14808 -0.00112144)
(1.74039 0.152542 -0.00115258)
(1.72808 0.155017 -0.001131)
(1.71654 0.159854 -0.001126)
(1.69907 0.158065 -0.00114986)
(1.71198 0.167924 -0.00111073)
(1.65635 0.153314 -0.00116059)
(1.75022 0.161459 -0.00117625)
(4.53893 0.0861132 -0.00319451)
(4.67615 0.115399 -0.00391251)
(4.71345 0.114714 -0.00295964)
(4.70657 0.0872475 -0.00347317)
(4.63099 0.0488325 -0.00292842)
(4.54587 0.00710202 -0.00332446)
(4.44508 -0.0296954 -0.00297261)
(4.35342 -0.0608231 -0.00322603)
(4.26654 -0.0842676 -0.0029921)
(4.18893 -0.102669 -0.00314175)
(4.12131 -0.115937 -0.00299772)
(4.05897 -0.126471 -0.00307734)
(4.00754 -0.134198 -0.00300247)
(3.95826 -0.140508 -0.00303351)
(3.91916 -0.145593 -0.0030124)
(3.88155 -0.148937 -0.00300634)
(3.84965 -0.154032 -0.00303397)
(3.82673 -0.153025 -0.00298899)
(3.79002 -0.16161 -0.00308197)
(3.79139 -0.159734 -0.00308837)
(4.51473 0.0449789 -0.00176436)
(4.65507 0.107547 -0.00236767)
(4.77905 0.157359 -0.00144662)
(4.92435 0.18353 -0.00196398)
(5.02237 0.192213 -0.00142559)
(5.10383 0.192202 -0.00182831)
(5.14742 0.188548 -0.0014846)
(5.17635 0.185425 -0.00174294)
(5.18662 0.183497 -0.00151416)
(5.18925 0.183052 -0.00166561)
(5.18517 0.183336 -0.00152415)
(5.1774 0.18417 -0.00160407)
(5.16771 0.184662 -0.00153034)
(5.1574 0.18581 -0.00156147)
(5.14459 0.184915 -0.00154016)
(5.1369 0.187875 -0.00153581)
(5.11969 0.18185 -0.00155674)
(5.12001 0.193262 -0.00152689)
(5.09467 0.171713 -0.00155131)
(5.10554 0.199866 -0.00158462)
(4.51074 0.0432432 -0.00277958)
(4.62136 0.0489199 -0.00349162)
(4.73806 0.0436433 -0.00259488)
(4.89439 0.0253781 -0.00311735)
(5.02314 0.00275135 -0.00256507)
(5.14981 -0.022339 -0.00295646)
(5.24544 -0.0457795 -0.00260223)
(5.32947 -0.0666815 -0.0028557)
(5.39394 -0.0836349 -0.00262266)
(5.44926 -0.0974863 -0.0027726)
(5.4951 -0.108378 -0.00262914)
(5.53438 -0.117037 -0.00270851)
(5.56954 -0.124351 -0.00263368)
(5.59945 -0.129635 -0.00266448)
(5.62794 -0.135588 -0.00264286)
(5.65103 -0.137637 -0.00263795)
(5.6768 -0.144995 -0.00266245)
(5.69017 -0.141705 -0.00262889)
(5.72272 -0.153283 -0.00271302)
(5.71026 -0.146559 -0.00271927)
(4.51182 0.0163697 -0.00208132)
(4.62243 0.0544479 -0.00274794)
(4.73237 0.0888854 -0.00186082)
(4.88301 0.113291 -0.00237454)
(5.0098 0.128582 -0.0018203)
(5.14017 0.13891 -0.00221193)
(5.24391 0.14608 -0.00186047)
(5.34001 0.152316 -0.00211611)
(5.41904 0.157729 -0.00188572)
(5.49098 0.162848 -0.00203685)
(5.55491 0.167232 -0.00189502)
(5.61309 0.171212 -0.00197485)
(5.66841 0.174155 -0.00190098)
(5.7179 0.177191 -0.00193202)
(5.76813 0.178194 -0.00191067)
(5.80934 0.181831 -0.00190674)
(5.8599 0.178656 -0.00192715)
(5.88501 0.187986 -0.00190204)
(5.95327 0.173994 -0.00193583)
(5.93742 0.199327 -0.00196669)
(4.51057 0.0115958 -0.00241329)
(4.61473 -0.00434087 -0.00310893)
(4.72335 -0.023602 -0.00222952)
(4.8724 -0.0447983 -0.00274906)
(4.99848 -0.063581 -0.00219339)
(5.12887 -0.0809796 -0.00258338)
(5.23377 -0.09601 -0.00222949)
(5.33207 -0.109232 -0.00248413)
(5.41448 -0.120182 -0.00225267)
(5.49048 -0.129376 -0.00240351)
(5.55969 -0.136864 -0.00226118)
(5.62315 -0.142909 -0.00234088)
(5.68555 -0.148007 -0.00226672)
(5.74066 -0.151814 -0.00229761)
(5.80019 -0.155496 -0.00227625)
(5.84576 -0.157694 -0.00227205)
(5.90939 -0.160467 -0.00229434)
(5.93449 -0.162237 -0.00226763)
(6.02274 -0.162245 -0.00232878)
(5.99873 -0.16986 -0.00234384)
(4.51057 -0.0115959 -0.00241329)
(4.61473 0.00434115 -0.00310893)
(4.72335 0.0236018 -0.00222952)
(4.8724 0.044799 -0.00274906)
(4.99848 0.0635809 -0.00219339)
(5.12887 0.0809813 -0.00258338)
(5.23377 0.0960104 -0.00222949)
(5.33207 0.109236 -0.00248413)
(5.41448 0.120185 -0.00225266)
(5.49048 0.129386 -0.00240351)
(5.55969 0.136875 -0.00226117)
(5.62316 0.14294 -0.0023409)
(5.68555 0.148033 -0.0022667)
(5.74067 0.151909 -0.00229766)
(5.80019 0.155553 -0.00227619)
(5.84578 0.157979 -0.00227218)
(5.90941 0.160622 -0.00229403)
(5.93456 0.162957 -0.00226787)
(6.02285 0.162875 -0.00232714)
(5.99896 0.171355 -0.00234414)
(4.51182 -0.0163698 -0.00208132)
(4.62243 -0.0544477 -0.00274794)
(4.73237 -0.0888857 -0.00186082)
(4.88301 -0.11329 -0.00237454)
(5.0098 -0.128582 -0.0018203)
(5.14017 -0.138908 -0.00221193)
(5.24391 -0.14608 -0.00186047)
(5.34001 -0.152312 -0.00211611)
(5.41904 -0.157726 -0.00188573)
(5.49098 -0.162837 -0.00203684)
(5.55491 -0.167222 -0.00189503)
(5.61309 -0.171182 -0.00197484)
(5.66843 -0.174131 -0.001901)
(5.7179 -0.177096 -0.00193197)
(5.7682 -0.178142 -0.00191072)
(5.80934 -0.18155 -0.0019066)
(5.86008 -0.178515 -0.0019274)
(5.88507 -0.187289 -0.0019018)
(5.95366 -0.173416 -0.00193717)
(5.93774 -0.197937 -0.00196634)
(4.51074 -0.0432433 -0.00277958)
(4.62136 -0.0489197 -0.00349162)
(4.73806 -0.0436435 -0.00259488)
(4.89439 -0.0253775 -0.00311735)
(5.02314 -0.00275148 -0.00256507)
(5.14981 0.0223405 -0.00295647)
(5.24543 0.04578 -0.00260223)
(5.32947 0.0666851 -0.00285571)
(5.39393 0.083638 -0.00262265)
(5.44927 0.0974953 -0.00277261)
(5.4951 0.108388 -0.00262912)
(5.53441 0.117063 -0.00270853)
(5.56955 0.124377 -0.00263364)
(5.59952 0.129719 -0.00266453)
(5.628 0.135642 -0.00264276)
(5.65117 0.137895 -0.00263807)
(5.67704 0.145129 -0.0026621)
(5.69054 0.142376 -0.0026291)
(5.7235 0.153827 -0.00271143)
(5.71137 0.147984 -0.00271926)
(4.51473 -0.0449789 -0.00176436)
(4.65507 -0.107547 -0.00236767)
(4.77905 -0.157359 -0.00144662)
(4.92435 -0.183529 -0.00196398)
(5.02236 -0.192213 -0.00142559)
(5.10383 -0.192201 -0.00182831)
(5.14741 -0.188548 -0.0014846)
(5.17636 -0.185421 -0.00174294)
(5.18661 -0.183495 -0.00151416)
(5.18927 -0.183043 -0.00166562)
(5.18516 -0.183329 -0.00152414)
(5.17747 -0.184144 -0.00160408)
(5.16771 -0.184646 -0.00153033)
(5.15756 -0.18573 -0.00156147)
(5.14466 -0.184886 -0.00154014)
(5.13725 -0.187642 -0.00153579)
(5.12004 -0.181779 -0.00155677)
(5.12079 -0.1927 -0.00152685)
(5.09584 -0.171368 -0.00155189)
(5.1075 -0.198897 -0.00158459)
(4.53893 -0.0861132 -0.00319451)
(4.67615 -0.115399 -0.00391251)
(4.71345 -0.114714 -0.00295964)
(4.70657 -0.0872473 -0.00347317)
(4.63099 -0.0488322 -0.00292842)
(4.54588 -0.00710156 -0.00332447)
(4.44508 0.0296965 -0.0029726)
(4.35344 0.0608242 -0.00322605)
(4.26654 0.0842712 -0.00299208)
(4.18897 0.102672 -0.00314179)
(4.1213 0.115946 -0.00299768)
(4.05908 0.12648 -0.00307742)
(4.00753 0.134219 -0.00300235)
(3.95855 0.140544 -0.00303371)
(3.91918 0.145632 -0.00301208)
(3.88225 0.149065 -0.00300684)
(3.84988 0.154111 -0.00303306)
(3.82843 0.153385 -0.00299021)
(3.79092 0.161918 -0.00307922)
(3.79575 0.160517 -0.00309089)
(4.37802 -0.0952117 -0.00140791)
(3.98088 -0.144796 -0.00194864)
(3.46156 -0.157375 -0.00100157)
(3.01048 -0.150666 -0.00153923)
(2.62039 -0.139189 -0.00101825)
(2.34286 -0.131051 -0.00142779)
(2.13683 -0.126564 -0.00108425)
(2.0039 -0.12662 -0.00134108)
(1.91259 -0.129217 -0.00110952)
(1.85206 -0.133738 -0.00125971)
(1.81237 -0.138627 -0.00111649)
(1.78041 -0.143757 -0.00119607)
(1.76103 -0.148078 -0.00112144)
(1.74057 -0.152526 -0.00115259)
(1.72828 -0.155021 -0.00113097)
(1.71695 -0.159802 -0.00112604)
(1.69971 -0.158093 -0.00114967)
(1.71302 -0.167797 -0.00111104)
(1.65772 -0.153393 -0.00115972)
(1.7543 -0.161541 -0.00117775)
(4.32729 0.561034 -0.00699403)
(3.10217 0.840671 -0.00454012)
(2.35459 0.862315 -0.00580288)
(1.80775 0.846144 -0.00433493)
(1.67659 0.848961 -0.00546701)
(1.48482 0.860536 -0.00430389)
(1.48065 0.870227 -0.00524589)
(1.36787 0.878047 -0.0042698)
(1.37623 0.882125 -0.00503955)
(1.29745 0.885627 -0.00421689)
(1.30611 0.887235 -0.00484711)
(1.24922 0.889151 -0.0041571)
(1.2559 0.889818 -0.00467364)