/*--------------------------------*- C++ -*----------------------------------*\
  =========                 |
  \\      /  F ield         | OpenFOAM: The Open Source CFD Toolbox
   \\    /   O peration     | Website:  https://openfoam.org
    \\  /    A nd           | Version:  7
     \\/     M anipulation  |
\*---------------------------------------------------------------------------*/
FoamFile
{
    version     2.0;
    format      ascii;
    class       volScalarField;
    location    "0.9";
    object      alphat;
}
// * * * * * * * * * * * * * * * * * * * * * * * * * * * * * * * * * * * * * //

dimensions      [1 -1 -1 0 0 0 0];

internalField   nonuniform List<scalar> 
7920
(
0.0108105
0.0112629
0.0112682
0.0112686
0.0112625
0.0112609
0.0112578
0.0112581
0.0112565
0.0112566
0.0112549
0.0112548
0.0112534
0.0112535
0.0112525
0.0112524
0.0112517
0.0112503
0.0112556
0.0112739
0.00557381
0.00560972
0.00549594
0.00538169
0.00532766
0.00530539
0.00528737
0.0052811
0.00527173
0.00526927
0.00526341
0.00526222
0.00525823
0.0052576
0.00525485
0.00525479
0.00525347
0.00525328
0.00528743
0.00529805
0.00426123
0.0045529
0.00458506
0.00458084
0.00457286
0.00456969
0.00456537
0.00456341
0.00456019
0.00455861
0.00455595
0.00455484
0.0045526
0.004552
0.00455002
0.00454995
0.00454795
0.00454845
0.0045482
0.00455747
0.00409891
0.00443506
0.00450121
0.00452388
0.00453145
0.00453949
0.00454204
0.00454663
0.00454758
0.00455048
0.0045504
0.00455222
0.00455191
0.00455316
0.00455281
0.00455397
0.00455341
0.0045547
0.00455437
0.0045614
0.00408155
0.00442186
0.00449172
0.00451836
0.00452947
0.00454086
0.00454624
0.00455432
0.0045578
0.00456383
0.00456585
0.00457032
0.00457168
0.00457535
0.00457649
0.00457944
0.0045803
0.0045824
0.00458379
0.00459024
0.00408327
0.00442064
0.00449009
0.00451706
0.0045291
0.00454163
0.00454831
0.00455779
0.00456269
0.00457021
0.00457361
0.00457947
0.00458201
0.004587
0.00458916
0.00459339
0.00459514
0.00459818
0.00460062
0.0046069
0.00408327
0.00442064
0.00449009
0.00451706
0.0045291
0.00454163
0.00454831
0.00455779
0.00456269
0.00457021
0.00457361
0.00457948
0.00458202
0.004587
0.00458916
0.0045934
0.00459514
0.00459819
0.00460063
0.00460693
0.00408155
0.00442186
0.00449171
0.00451836
0.00452947
0.00454086
0.00454624
0.00455432
0.0045578
0.00456383
0.00456585
0.00457032
0.00457169
0.00457534
0.00457651
0.00457942
0.00458034
0.00458238
0.00458386
0.00459026
0.00409891
0.00443506
0.00450121
0.00452388
0.00453145
0.00453949
0.00454205
0.00454663
0.00454758
0.00455048
0.00455041
0.0045522
0.00455194
0.00455312
0.00455286
0.00455391
0.00455346
0.00455456
0.00455467
0.00456117
0.00426123
0.0045529
0.00458506
0.00458084
0.00457286
0.00456969
0.00456537
0.00456341
0.00456019
0.0045586
0.00455596
0.00455481
0.00455263
0.00455194
0.00455009
0.00454981
0.00454808
0.00454838
0.00454876
0.0045565
0.00557381
0.00560972
0.00549594
0.00538169
0.00532766
0.0053054
0.00528737
0.0052811
0.00527173
0.00526926
0.00526342
0.0052622
0.00525824
0.00525755
0.00525489
0.00525474
0.00525356
0.00525305
0.00528744
0.00529619
0.0108105
0.0112629
0.0112682
0.0112686
0.0112625
0.0112609
0.0112578
0.0112581
0.0112565
0.0112566
0.0112549
0.0112548
0.0112534
0.0112535
0.0112524
0.0112524
0.0112517
0.0112503
0.0112555
0.0112732
0.00414244
0.00465187
0.00467145
0.00464305
0.00463266
0.00461645
0.00461356
0.0046049
0.00460483
0.00459953
0.00459963
0.00459561
0.00459567
0.00459296
0.0045932
0.00459125
0.00459154
0.00458952
0.00458731
0.00460633
0.00367018
0.00429765
0.00438526
0.00439859
0.00439986
0.0044007
0.00439882
0.00439779
0.00439598
0.00439529
0.00439433
0.00439411
0.00439348
0.00439336
0.00439287
0.00439309
0.00439217
0.0043935
0.00439222
0.00439902
0.00357143
0.00420673
0.00429867
0.00431869
0.00432115
0.0043267
0.00432725
0.00433079
0.00433052
0.00433268
0.00433235
0.00433403
0.004334
0.0043354
0.00433552
0.0043369
0.00433696
0.00433852
0.00433774
0.00434834
0.00356938
0.00420537
0.00429683
0.00431591
0.00431646
0.00431996
0.00431932
0.00432153
0.00432104
0.00432292
0.00432246
0.00432383
0.00432373
0.00432481
0.00432497
0.0043259
0.00432638
0.00432712
0.00432777
0.00433384
0.00356523
0.00420077
0.00429211
0.00431184
0.00431199
0.00431533
0.00431404
0.00431567
0.00431463
0.0043162
0.00431524
0.00431646
0.00431582
0.00431673
0.00431637
0.00431709
0.00431711
0.00431784
0.00431786
0.00432399
0.00356738
0.00420328
0.00429436
0.00431405
0.00431415
0.00431752
0.00431616
0.00431774
0.00431661
0.0043181
0.00431705
0.00431824
0.00431746
0.00431828
0.00431774
0.0043183
0.00431817
0.00431871
0.00431839
0.00432408
0.00356738
0.00420328
0.00429436
0.00431405
0.00431415
0.00431752
0.00431616
0.00431774
0.00431661
0.0043181
0.00431705
0.00431824
0.00431746
0.00431828
0.00431775
0.0043183
0.00431817
0.00431872
0.0043184
0.00432409
0.00356523
0.00420077
0.00429211
0.00431184
0.00431199
0.00431533
0.00431404
0.00431567
0.00431463
0.0043162
0.00431524
0.00431647
0.00431583
0.00431673
0.00431638
0.00431708
0.0043171
0.00431787
0.00431783
0.00432397
0.00356938
0.00420537
0.00429683
0.00431591
0.00431646
0.00431996
0.00431932
0.00432152
0.00432104
0.00432292
0.00432246
0.00432383
0.00432373
0.0043248
0.004325
0.00432586
0.00432646
0.00432708
0.00432774
0.00433364
0.00357143
0.00420673
0.00429867
0.00431869
0.00432115
0.0043267
0.00432725
0.00433079
0.00433052
0.00433267
0.00433236
0.00433401
0.00433404
0.00433533
0.00433558
0.00433681
0.0043371
0.00433838
0.00433794
0.00434758
0.00367018
0.00429765
0.00438526
0.00439859
0.00439986
0.0044007
0.00439883
0.00439778
0.00439599
0.00439528
0.00439434
0.00439409
0.00439351
0.00439332
0.00439295
0.00439298
0.0043924
0.00439301
0.00439291
0.00439744
0.00414244
0.00465187
0.00467145
0.00464305
0.00463266
0.00461644
0.00461356
0.0046049
0.00460484
0.00459952
0.00459965
0.00459559
0.00459572
0.00459289
0.00459333
0.00459107
0.00459191
0.00458892
0.00458902
0.00460295
0.0010334
0.0015249
0.00159744
0.0015782
0.00152593
0.00147566
0.00143509
0.00140676
0.00138652
0.00137116
0.00135949
0.00134873
0.00134112
0.00133364
0.00132876
0.00132374
0.00131953
0.00131791
0.00130953
0.00132148
0.000438059
0.000924909
0.00108593
0.00114881
0.0011705
0.00118371
0.0011897
0.00119612
0.00119894
0.00120232
0.00120331
0.00120477
0.00120481
0.00120526
0.00120487
0.0012052
0.0012041
0.00120461
0.00120274
0.0012067
0.000378816
0.000819166
0.000965631
0.00103146
0.00105159
0.00106628
0.00106961
0.00107628
0.00107816
0.00108285
0.00108487
0.00108908
0.00109154
0.00109515
0.00109782
0.00110096
0.0011037
0.00110664
0.00110845
0.00111349
0.000390122
0.000824213
0.000967176
0.00103016
0.00104977
0.00106207
0.00106397
0.00106722
0.00106708
0.00106796
0.00106785
0.00106858
0.00106889
0.0010697
0.00107053
0.00107132
0.00107279
0.00107382
0.00107539
0.00107913
0.000384774
0.000818754
0.000961211
0.00102455
0.00104376
0.00105606
0.00105766
0.00106067
0.00106018
0.00106047
0.00105986
0.00105988
0.00105949
0.00105942
0.00105922
0.00105904
0.00105919
0.00105931
0.00105987
0.00106225
0.000387769
0.000821812
0.000964292
0.00102721
0.00104653
0.00105868
0.00106043
0.00106334
0.00106289
0.00106317
0.00106257
0.00106253
0.00106213
0.00106195
0.00106161
0.0010612
0.00106117
0.00106095
0.00106124
0.00106338
0.000387769
0.000821812
0.000964292
0.00102721
0.00104653
0.00105868
0.00106043
0.00106334
0.00106289
0.00106317
0.00106257
0.00106253
0.00106213
0.00106195
0.00106161
0.0010612
0.00106117
0.00106096
0.00106123
0.00106338
0.000384773
0.000818754
0.000961211
0.00102455
0.00104376
0.00105606
0.00105766
0.00106067
0.00106018
0.00106047
0.00105986
0.00105988
0.00105949
0.00105942
0.00105921
0.00105904
0.00105918
0.00105931
0.00105985
0.00106226
0.000390121
0.000824213
0.000967176
0.00103016
0.00104977
0.00106207
0.00106397
0.00106722
0.00106708
0.00106796
0.00106785
0.00106858
0.00106888
0.00106971
0.00107052
0.00107131
0.00107278
0.0010738
0.00107536
0.00107909
0.000378815
0.000819166
0.000965631
0.00103146
0.00105159
0.00106628
0.00106961
0.00107628
0.00107816
0.00108284
0.00108487
0.00108907
0.00109154
0.00109513
0.00109782
0.00110094
0.0011037
0.00110656
0.0011085
0.00111326
0.000438059
0.000924909
0.00108593
0.00114881
0.0011705
0.00118371
0.0011897
0.00119612
0.00119894
0.00120231
0.00120332
0.00120473
0.00120486
0.00120517
0.00120497
0.00120501
0.00120432
0.00120419
0.00120324
0.00120585
0.0010334
0.0015249
0.00159744
0.0015782
0.00152593
0.00147566
0.00143509
0.00140676
0.00138652
0.00137116
0.00135951
0.00134872
0.00134117
0.0013336
0.0013289
0.00132363
0.00131997
0.00131743
0.00131112
0.00131959
0.0010334
0.0015249
0.00159744
0.0015782
0.00152593
0.00147566
0.00143508
0.00140676
0.00138652
0.00137116
0.00135949
0.00134873
0.00134112
0.00133364
0.00132876
0.00132374
0.00131953
0.00131791
0.00130953
0.00132148
0.000438059
0.000924909
0.00108593
0.00114881
0.0011705
0.00118371
0.0011897
0.00119612
0.00119894
0.00120232
0.00120331
0.00120477
0.00120481
0.00120526
0.00120487
0.0012052
0.0012041
0.00120461
0.00120274
0.0012067
0.000378816
0.000819166
0.000965631
0.00103146
0.00105159
0.00106628
0.00106961
0.00107628
0.00107816
0.00108285
0.00108487
0.00108908
0.00109154
0.00109515
0.00109782
0.00110096
0.0011037
0.00110664
0.00110845
0.00111349
0.000390122
0.000824213
0.000967176
0.00103016
0.00104977
0.00106207
0.00106397
0.00106722
0.00106708
0.00106796
0.00106785
0.00106858
0.00106889
0.0010697
0.00107053
0.00107132
0.00107279
0.00107382
0.00107539
0.00107913
0.000384774
0.000818754
0.000961211
0.00102455
0.00104376
0.00105606
0.00105766
0.00106067
0.00106018
0.00106047
0.00105986
0.00105988
0.00105949
0.00105942
0.00105922
0.00105904
0.00105919
0.00105931
0.00105987
0.00106225
0.000387769
0.000821812
0.000964292
0.00102721
0.00104653
0.00105868
0.00106043
0.00106334
0.00106289
0.00106317
0.00106257
0.00106253
0.00106213
0.00106195
0.00106161
0.0010612
0.00106117
0.00106095
0.00106124
0.00106338
0.000387769
0.000821812
0.000964292
0.00102721
0.00104653
0.00105868
0.00106043
0.00106334
0.00106289
0.00106317
0.00106257
0.00106253
0.00106213
0.00106195
0.00106161
0.0010612
0.00106117
0.00106096
0.00106123
0.00106338
0.000384773
0.000818754
0.000961211
0.00102455
0.00104376
0.00105606
0.00105766
0.00106067
0.00106018
0.00106047
0.00105986
0.00105988
0.00105949
0.00105942
0.00105921
0.00105904
0.00105918
0.00105931
0.00105985
0.00106226
0.000390121
0.000824213
0.000967176
0.00103016
0.00104977
0.00106207
0.00106397
0.00106722
0.00106708
0.00106796
0.00106785
0.00106858
0.00106888
0.00106971
0.00107052
0.00107131
0.00107278
0.0010738
0.00107536
0.00107909
0.000378815
0.000819166
0.000965631
0.00103146
0.00105159
0.00106628
0.00106961
0.00107628
0.00107816
0.00108284
0.00108487
0.00108907
0.00109154
0.00109513
0.00109782
0.00110094
0.0011037
0.00110656
0.0011085
0.00111326
0.000438059
0.000924909
0.00108593
0.00114881
0.0011705
0.00118371
0.0011897
0.00119612
0.00119894
0.00120231
0.00120332
0.00120473
0.00120485
0.00120517
0.00120497
0.00120501
0.00120432
0.00120419
0.00120324
0.00120585
0.0010334
0.0015249
0.00159744
0.0015782
0.00152593
0.00147566
0.00143509
0.00140676
0.00138652
0.00137116
0.00135951
0.00134872
0.00134117
0.0013336
0.0013289
0.00132363
0.00131997
0.00131743
0.00131112
0.00131959
0.00414244
0.00465187
0.00467145
0.00464305
0.00463266
0.00461645
0.00461356
0.0046049
0.00460483
0.00459953
0.00459963
0.00459561
0.00459567
0.00459296
0.0045932
0.00459125
0.00459154
0.00458952
0.00458731
0.00460633
0.00367018
0.00429765
0.00438526
0.00439859
0.00439986
0.0044007
0.00439882
0.00439779
0.00439598
0.00439529
0.00439433
0.00439411
0.00439348
0.00439336
0.00439287
0.00439309
0.00439217
0.0043935
0.00439222
0.00439902
0.00357143
0.00420673
0.00429867
0.00431869
0.00432115
0.0043267
0.00432725
0.00433079
0.00433052
0.00433267
0.00433235
0.00433403
0.004334
0.0043354
0.00433552
0.0043369
0.00433696
0.00433852
0.00433774
0.00434834
0.00356938
0.00420537
0.00429683
0.00431591
0.00431646
0.00431997
0.00431932
0.00432153
0.00432104
0.00432291
0.00432246
0.00432383
0.00432373
0.00432481
0.00432497
0.0043259
0.00432638
0.00432712
0.00432777
0.00433384
0.00356523
0.00420077
0.00429211
0.00431184
0.00431199
0.00431533
0.00431404
0.00431567
0.00431463
0.0043162
0.00431524
0.00431646
0.00431582
0.00431673
0.00431637
0.00431709
0.00431711
0.00431784
0.00431786
0.00432399
0.00356738
0.00420328
0.00429436
0.00431405
0.00431415
0.00431752
0.00431616
0.00431774
0.00431661
0.0043181
0.00431705
0.00431824
0.00431746
0.00431828
0.00431774
0.0043183
0.00431817
0.00431871
0.00431839
0.00432408
0.00356738
0.00420328
0.00429436
0.00431405
0.00431415
0.00431752
0.00431616
0.00431774
0.00431661
0.0043181
0.00431705
0.00431824
0.00431746
0.00431828
0.00431775
0.0043183
0.00431817
0.00431872
0.0043184
0.00432409
0.00356523
0.00420077
0.00429211
0.00431184
0.00431199
0.00431533
0.00431404
0.00431567
0.00431463
0.0043162
0.00431524
0.00431647
0.00431583
0.00431673
0.00431638
0.00431708
0.0043171
0.00431787
0.00431783
0.00432397
0.00356938
0.00420537
0.00429683
0.00431591
0.00431646
0.00431996
0.00431932
0.00432152
0.00432104
0.00432292
0.00432246
0.00432384
0.00432373
0.0043248
0.004325
0.00432586
0.00432646
0.00432708
0.00432773
0.00433364
0.00357143
0.00420673
0.00429867
0.00431869
0.00432115
0.0043267
0.00432725
0.00433079
0.00433052
0.00433267
0.00433236
0.00433401
0.00433404
0.00433533
0.00433558
0.00433681
0.0043371
0.00433838
0.00433794
0.00434757
0.00367018
0.00429765
0.00438526
0.00439859
0.00439986
0.0044007
0.00439883
0.00439778
0.00439599
0.00439528
0.00439434
0.00439409
0.00439351
0.00439332
0.00439295
0.00439298
0.0043924
0.00439301
0.00439291
0.00439744
0.00414244
0.00465187
0.00467145
0.00464305
0.00463266
0.00461644
0.00461356
0.0046049
0.00460484
0.00459952
0.00459965
0.00459559
0.00459572
0.00459289
0.00459333
0.00459107
0.00459191
0.00458892
0.00458902
0.00460295
0.0108105
0.0112629
0.0112682
0.0112686
0.0112625
0.0112609
0.0112578
0.0112581
0.0112565
0.0112566
0.0112549
0.0112548
0.0112534
0.0112535
0.0112525
0.0112524
0.0112517
0.0112503
0.0112556
0.0112739
0.00557381
0.00560972
0.00549594
0.00538169
0.00532766
0.0053054
0.00528737
0.0052811
0.00527173
0.00526927
0.00526341
0.00526222
0.00525823
0.0052576
0.00525485
0.00525479
0.00525347
0.00525328
0.00528743
0.00529805
0.00426123
0.0045529
0.00458506
0.00458084
0.00457286
0.00456969
0.00456537
0.00456341
0.00456019
0.00455861
0.00455595
0.00455484
0.0045526
0.004552
0.00455002
0.00454995
0.00454795
0.00454845
0.0045482
0.00455747
0.00409891
0.00443506
0.00450121
0.00452388
0.00453145
0.00453949
0.00454204
0.00454663
0.00454758
0.00455048
0.0045504
0.00455222
0.00455191
0.00455316
0.00455281
0.00455397
0.00455341
0.0045547
0.00455437
0.0045614
0.00408155
0.00442186
0.00449172
0.00451836
0.00452947
0.00454086
0.00454624
0.00455432
0.0045578
0.00456383
0.00456585
0.00457032
0.00457168
0.00457535
0.00457649
0.00457944
0.0045803
0.0045824
0.00458379
0.00459024
0.00408327
0.00442064
0.00449009
0.00451706
0.0045291
0.00454163
0.00454831
0.00455779
0.00456269
0.00457021
0.00457361
0.00457947
0.00458201
0.004587
0.00458916
0.00459339
0.00459514
0.00459818
0.00460062
0.0046069
0.00408327
0.00442064
0.00449009
0.00451706
0.0045291
0.00454163
0.00454831
0.00455779
0.00456269
0.00457021
0.00457361
0.00457948
0.00458201
0.004587
0.00458916
0.0045934
0.00459514
0.00459819
0.00460063
0.00460693
0.00408155
0.00442186
0.00449171
0.00451836
0.00452947
0.00454086
0.00454624
0.00455432
0.0045578
0.00456383
0.00456585
0.00457032
0.00457169
0.00457534
0.00457651
0.00457942
0.00458034
0.00458238
0.00458386
0.00459026
0.00409891
0.00443506
0.00450121
0.00452388
0.00453145
0.00453949
0.00454205
0.00454663
0.00454758
0.00455048
0.00455041
0.0045522
0.00455193
0.00455312
0.00455286
0.00455391
0.00455346
0.00455456
0.00455467
0.00456118
0.00426123
0.0045529
0.00458506
0.00458084
0.00457286
0.00456969
0.00456537
0.00456341
0.00456019
0.0045586
0.00455596
0.00455481
0.00455262
0.00455194
0.00455009
0.00454981
0.00454808
0.00454838
0.00454876
0.0045565
0.00557381
0.00560972
0.00549594
0.00538169
0.00532766
0.00530539
0.00528737
0.0052811
0.00527173
0.00526926
0.00526342
0.0052622
0.00525824
0.00525755
0.00525489
0.00525474
0.00525356
0.00525305
0.00528744
0.00529619
0.0108105
0.0112629
0.0112682
0.0112686
0.0112625
0.0112609
0.0112578
0.0112581
0.0112565
0.0112566
0.0112549
0.0112548
0.0112534
0.0112535
0.0112524
0.0112524
0.0112517
0.0112503
0.0112555
0.0112732
0.0326074
0.0326672
0.0326678
0.032666
0.0326635
0.0326614
0.0326597
0.0326586
0.0326581
0.0326576
0.0326576
0.0326572
0.0326573
0.0326569
0.032657
0.0326566
0.0326568
0.0326565
0.0326567
0.0326566
0.0326569
0.0326568
0.0326571
0.0326571
0.0326576
0.0326576
0.0326581
0.0326582
0.0326587
0.0326589
0.0326594
0.0326598
0.0326603
0.0326607
0.0326614
0.0326619
0.0326626
0.0326632
0.032664
0.0326646
0.0326654
0.0326661
0.0326668
0.0326674
0.032668
0.0326685
0.032669
0.0326693
0.0326695
0.0326696
0.0326695
0.0326693
0.032669
0.0326684
0.0326677
0.0326669
0.0326658
0.0326646
0.0326632
0.0326617
0.0326599
0.0326581
0.0326561
0.032654
0.0326517
0.0326494
0.0326468
0.0326443
0.0326416
0.032639
0.0326361
0.0326333
0.0326303
0.0326275
0.0326244
0.0326214
0.0326183
0.0326153
0.032612
0.032609
0.0326057
0.0326027
0.0325993
0.0325962
0.0325929
0.0325898
0.0325863
0.0325834
0.0325768
0.0325709
0.0187357
0.018997
0.0189959
0.0189982
0.0189938
0.0189979
0.0189958
0.0189993
0.0189971
0.0189999
0.0189984
0.0190013
0.0190008
0.019004
0.0190042
0.0190075
0.0190082
0.0190115
0.0190125
0.0190158
0.0190169
0.0190202
0.0190215
0.0190248
0.0190262
0.0190295
0.019031
0.0190342
0.0190357
0.0190389
0.0190405
0.0190437
0.0190454
0.0190485
0.0190502
0.0190532
0.0190549
0.0190579
0.0190596
0.0190625
0.0190641
0.0190668
0.0190683
0.0190709
0.0190722
0.0190746
0.0190758
0.0190779
0.0190788
0.0190806
0.0190813
0.0190828
0.0190833
0.0190844
0.0190846
0.0190855
0.0190853
0.0190859
0.0190855
0.0190858
0.0190852
0.0190852
0.0190844
0.0190842
0.0190831
0.0190828
0.0190815
0.019081
0.0190796
0.0190789
0.0190775
0.0190767
0.0190751
0.0190742
0.0190725
0.0190716
0.0190698
0.0190688
0.019067
0.0190659
0.0190641
0.0190629
0.019061
0.0190598
0.0190579
0.0190566
0.0190546
0.0190534
0.0190487
0.0190451
0.0151033
0.0155584
0.0155644
0.0155714
0.0155643
0.015573
0.0155696
0.0155778
0.0155748
0.0155818
0.0155798
0.0155867
0.0155861
0.0155932
0.0155938
0.0156008
0.0156022
0.0156092
0.0156111
0.015618
0.0156201
0.0156269
0.0156293
0.015636
0.0156385
0.0156451
0.0156478
0.0156542
0.0156569
0.0156632
0.0156661
0.0156722
0.0156751
0.015681
0.0156839
0.0156897
0.0156926
0.0156982
0.015701
0.0157064
0.0157091
0.0157142
0.0157168
0.0157217
0.015724
0.0157285
0.0157307
0.0157348
0.0157367
0.0157405
0.0157421
0.0157455
0.0157468
0.0157497
0.0157507
0.0157533
0.015754
0.0157562
0.0157566
0.0157585
0.0157587
0.0157602
0.0157602
0.0157615
0.0157612
0.0157622
0.0157618
0.0157626
0.015762
0.0157627
0.0157619
0.0157624
0.0157615
0.0157619
0.0157609
0.0157612
0.0157601
0.0157603
0.0157592
0.0157592
0.015758
0.015758
0.0157567
0.0157566
0.0157552
0.0157551
0.0157536
0.0157534
0.0157514
0.0157454
0.0145603
0.015161
0.0151834
0.0151956
0.0151876
0.0151986
0.0151947
0.0152051
0.015202
0.0152114
0.0152089
0.015218
0.0152172
0.0152261
0.0152268
0.0152356
0.0152374
0.0152461
0.0152484
0.015257
0.0152597
0.0152682
0.0152712
0.0152796
0.0152828
0.0152911
0.0152944
0.0153025
0.015306
0.0153139
0.0153174
0.0153252
0.0153288
0.0153363
0.01534
0.0153473
0.0153509
0.015358
0.0153615
0.0153684
0.0153718
0.0153783
0.0153816
0.0153877
0.0153908
0.0153965
0.0153993
0.0154046
0.0154071
0.015412
0.0154142
0.0154186
0.0154204
0.0154244
0.0154259
0.0154294
0.0154306
0.0154337
0.0154345
0.0154372
0.0154378
0.0154402
0.0154405
0.0154425
0.0154426
0.0154444
0.0154443
0.0154458
0.0154455
0.0154468
0.0154464
0.0154475
0.015447
0.015448
0.0154473
0.0154481
0.0154474
0.0154481
0.0154472
0.0154478
0.0154469
0.0154474
0.0154463
0.0154468
0.0154456
0.015446
0.0154447
0.015445
0.0154442
0.0154374
0.0145297
0.0152093
0.0152471
0.0152648
0.0152574
0.0152701
0.0152667
0.0152779
0.015275
0.0152856
0.0152827
0.0152927
0.0152915
0.0153013
0.0153019
0.0153116
0.0153134
0.015323
0.0153255
0.015335
0.015338
0.0153473
0.0153506
0.0153599
0.0153634
0.0153725
0.0153762
0.0153852
0.015389
0.0153978
0.0154018
0.0154103
0.0154144
0.0154227
0.0154268
0.0154349
0.0154389
0.0154468
0.0154507
0.0154583
0.0154621
0.0154693
0.015473
0.0154798
0.0154832
0.0154896
0.0154928
0.0154987
0.0155015
0.0155069
0.0155094
0.0155144
0.0155165
0.0155209
0.0155227
0.0155267
0.0155281
0.0155316
0.0155327
0.0155358
0.0155366
0.0155393
0.0155398
0.0155422
0.0155425
0.0155446
0.0155446
0.0155465
0.0155464
0.015548
0.0155478
0.0155492
0.0155488
0.0155501
0.0155496
0.0155507
0.0155501
0.0155511
0.0155504
0.0155513
0.0155504
0.0155513
0.0155503
0.015551
0.01555
0.0155507
0.0155496
0.0155499
0.0155497
0.0155422
0.0145523
0.0152763
0.0153238
0.0153457
0.0153394
0.0153533
0.0153507
0.0153622
0.0153598
0.0153709
0.0153679
0.0153783
0.0153769
0.0153871
0.0153876
0.0153977
0.0153995
0.0154094
0.015412
0.0154219
0.015425
0.0154347
0.0154382
0.0154478
0.0154515
0.0154609
0.0154648
0.0154741
0.0154781
0.0154873
0.0154914
0.0155003
0.0155045
0.0155132
0.0155174
0.0155259
0.0155301
0.0155383
0.0155424
0.0155503
0.0155543
0.0155618
0.0155656
0.0155727
0.0155763
0.015583
0.0155862
0.0155924
0.0155954
0.0156011
0.0156037
0.0156088
0.0156111
0.0156157
0.0156176
0.0156217
0.0156232
0.0156269
0.0156281
0.0156314
0.0156322
0.0156351
0.0156357
0.0156383
0.0156386
0.0156409
0.015641
0.015643
0.0156429
0.0156447
0.0156445
0.0156461
0.0156457
0.0156472
0.0156467
0.015648
0.0156474
0.0156485
0.0156479
0.0156489
0.0156481
0.0156491
0.0156482
0.015649
0.0156481
0.0156488
0.0156478
0.0156482
0.0156482
0.0156405
0.0145526
0.0152772
0.0153255
0.015348
0.0153425
0.0153564
0.0153545
0.0153659
0.015364
0.015375
0.0153722
0.0153827
0.0153814
0.0153916
0.0153921
0.0154022
0.015404
0.0154139
0.0154165
0.0154264
0.0154295
0.0154393
0.0154427
0.0154523
0.015456
0.0154655
0.0154694
0.0154787
0.0154827
0.0154919
0.015496
0.0155049
0.0155091
0.0155178
0.0155221
0.0155305
0.0155347
0.0155429
0.0155471
0.015555
0.015559
0.0155665
0.0155703
0.0155774
0.015581
0.0155877
0.0155909
0.0155971
0.0156001
0.0156058
0.0156084
0.0156135
0.0156158
0.0156204
0.0156223
0.0156265
0.015628
0.0156317
0.0156329
0.0156361
0.015637
0.0156399
0.0156405
0.015643
0.0156434
0.0156456
0.0156458
0.0156478
0.0156477
0.0156495
0.0156493
0.0156509
0.0156505
0.015652
0.0156515
0.0156528
0.0156522
0.0156534
0.0156527
0.0156537
0.015653
0.0156539
0.015653
0.0156539
0.0156529
0.0156536
0.0156527
0.015653
0.0156531
0.0156454
0.0145307
0.0152126
0.0152521
0.0152713
0.0152658
0.0152783
0.0152768
0.0152877
0.0152859
0.0152965
0.015294
0.0153042
0.0153032
0.015313
0.0153137
0.0153234
0.0153252
0.0153348
0.0153374
0.0153469
0.0153499
0.0153593
0.0153626
0.0153719
0.0153754
0.0153846
0.0153883
0.0153973
0.0154012
0.01541
0.0154139
0.0154225
0.0154266
0.015435
0.015439
0.0154472
0.0154512
0.0154591
0.0154631
0.0154707
0.0154745
0.0154817
0.0154854
0.0154923
0.0154957
0.0155021
0.0155052
0.0155112
0.015514
0.0155195
0.015522
0.0155269
0.0155291
0.0155335
0.0155353
0.0155393
0.0155407
0.0155443
0.0155453
0.0155485
0.0155493
0.015552
0.0155525
0.015555
0.0155552
0.0155574
0.0155574
0.0155593
0.0155592
0.0155608
0.0155606
0.015562
0.0155616
0.015563
0.0155624
0.0155636
0.015563
0.015564
0.0155633
0.0155642
0.0155634
0.0155642
0.0155633
0.015564
0.015563
0.0155636
0.0155626
0.0155629
0.0155627
0.0155554
0.0145613
0.015165
0.0151901
0.015204
0.0151984
0.0152094
0.0152077
0.0152176
0.0152159
0.0152256
0.0152236
0.0152329
0.0152323
0.0152413
0.0152421
0.015251
0.0152527
0.0152616
0.0152639
0.0152726
0.0152753
0.0152839
0.0152869
0.0152954
0.0152986
0.0153069
0.0153103
0.0153184
0.0153219
0.0153299
0.0153335
0.0153413
0.0153449
0.0153526
0.0153562
0.0153636
0.0153672
0.0153744
0.015378
0.0153848
0.0153883
0.0153948
0.0153981
0.0154043
0.0154074
0.0154132
0.015416
0.0154214
0.0154239
0.0154288
0.015431
0.0154355
0.0154373
0.0154413
0.0154428
0.0154464
0.0154476
0.0154507
0.0154516
0.0154543
0.0154549
0.0154573
0.0154576
0.0154597
0.0154598
0.0154616
0.0154615
0.0154631
0.0154628
0.0154641
0.0154637
0.0154649
0.0154643
0.0154654
0.0154647
0.0154656
0.0154648
0.0154656
0.0154647
0.0154654
0.0154644
0.015465
0.0154639
0.0154644
0.0154632
0.0154636
0.0154624
0.0154626
0.0154617
0.0154552
0.0151009
0.0155586
0.0155665
0.0155746
0.0155694
0.0155782
0.0155765
0.0155846
0.0155829
0.0155904
0.0155888
0.0155961
0.0155957
0.0156029
0.0156036
0.0156107
0.0156122
0.0156193
0.0156211
0.0156281
0.0156303
0.0156372
0.0156397
0.0156465
0.015649
0.0156557
0.0156584
0.0156649
0.0156677
0.0156741
0.015677
0.0156832
0.0156861
0.0156922
0.0156951
0.015701
0.0157039
0.0157096
0.0157125
0.015718
0.0157207
0.0157259
0.0157285
0.0157334
0.0157358
0.0157404
0.0157426
0.0157468
0.0157487
0.0157525
0.0157542
0.0157576
0.0157589
0.015762
0.015763
0.0157656
0.0157663
0.0157686
0.015769
0.015771
0.0157712
0.0157728
0.0157727
0.0157741
0.0157738
0.0157749
0.0157744
0.0157753
0.0157747
0.0157754
0.0157747
0.0157753
0.0157744
0.0157748
0.0157739
0.0157742
0.0157731
0.0157733
0.0157722
0.0157723
0.0157711
0.0157711
0.0157698
0.0157697
0.0157684
0.0157682
0.0157668
0.0157666
0.0157646
0.0157589
0.0187312
0.0189949
0.0189949
0.018998
0.0189945
0.0189992
0.0189979
0.0190021
0.0190006
0.019004
0.0190027
0.019006
0.0190056
0.019009
0.0190092
0.0190127
0.0190133
0.0190168
0.0190177
0.0190212
0.0190223
0.0190258
0.0190271
0.0190305
0.0190319
0.0190353
0.0190368
0.0190401
0.0190417
0.019045
0.0190466
0.0190499
0.0190516
0.0190548
0.0190565
0.0190597
0.0190614
0.0190644
0.0190661
0.0190691
0.0190707
0.0190735
0.0190751
0.0190777
0.0190791
0.0190815
0.0190827
0.0190848
0.0190858
0.0190877
0.0190884
0.0190899
0.0190904
0.0190916
0.0190918
0.0190927
0.0190926
0.0190932
0.0190928
0.0190931
0.0190925
0.0190926
0.0190918
0.0190916
0.0190906
0.0190902
0.019089
0.0190885
0.0190871
0.0190865
0.019085
0.0190842
0.0190827
0.0190818
0.0190802
0.0190792
0.0190775
0.0190765
0.0190747
0.0190736
0.0190718
0.0190707
0.0190688
0.0190676
0.0190656
0.0190644
0.0190624
0.0190613
0.0190564
0.0190529
0.032651
0.0327194
0.0327235
0.0327234
0.0327222
0.0327209
0.0327196
0.0327187
0.0327183
0.0327179
0.0327178
0.0327175
0.0327175
0.0327171
0.0327172
0.0327169
0.0327171
0.0327169
0.0327171
0.032717
0.0327173
0.0327173
0.0327176
0.0327177
0.0327181
0.0327182
0.0327187
0.0327189
0.0327194
0.0327196
0.0327202
0.0327205
0.0327211
0.0327216
0.0327222
0.0327228
0.0327235
0.0327242
0.032725
0.0327256
0.0327264
0.0327271
0.0327279
0.0327285
0.0327291
0.0327297
0.0327301
0.0327305
0.0327307
0.0327308
0.0327308
0.0327306
0.0327302
0.0327297
0.032729
0.0327282
0.0327271
0.0327259
0.0327245
0.032723
0.0327213
0.0327195
0.0327174
0.0327154
0.0327131
0.0327108
0.0327083
0.0327058
0.0327031
0.0327004
0.0326976
0.0326948
0.0326918
0.0326889
0.0326858
0.0326829
0.0326797
0.0326768
0.0326735
0.0326705
0.0326672
0.0326642
0.0326608
0.0326577
0.0326544
0.0326513
0.0326478
0.0326448
0.0326384
0.0326326
0.0148852
0.0149899
0.0149889
0.0149868
0.0149855
0.0149855
0.0149851
0.0149863
0.0149864
0.0149881
0.0149884
0.0149905
0.0149911
0.0149934
0.0149941
0.0149965
0.0149974
0.0149999
0.0150009
0.0150035
0.0150045
0.0150072
0.0150083
0.015011
0.0150122
0.015015
0.0150162
0.015019
0.0150203
0.0150231
0.0150245
0.0150273
0.0150288
0.0150315
0.0150331
0.0150358
0.0150374
0.0150402
0.0150418
0.0150444
0.015046
0.0150486
0.0150501
0.0150526
0.015054
0.0150562
0.0150575
0.0150595
0.0150606
0.0150624
0.0150632
0.0150647
0.0150653
0.0150666
0.0150669
0.0150678
0.0150679
0.0150686
0.0150684
0.0150688
0.0150684
0.0150686
0.015068
0.0150679
0.0150671
0.0150669
0.015066
0.0150656
0.0150645
0.015064
0.0150628
0.0150622
0.015061
0.0150603
0.0150589
0.0150582
0.0150568
0.015056
0.0150546
0.0150538
0.0150523
0.0150515
0.0150499
0.0150491
0.0150475
0.0150469
0.0150451
0.0150448
0.0150419
0.0150404
0.0144148
0.0146935
0.0146979
0.0146973
0.0146965
0.0146979
0.0146983
0.0146997
0.0146996
0.0147007
0.0147006
0.014702
0.0147024
0.0147042
0.0147049
0.0147068
0.0147077
0.0147097
0.0147106
0.0147126
0.0147136
0.0147155
0.0147165
0.0147184
0.0147194
0.0147212
0.0147222
0.0147239
0.0147249
0.0147266
0.0147275
0.0147292
0.0147301
0.0147317
0.0147326
0.0147341
0.014735
0.0147365
0.0147373
0.0147387
0.0147395
0.0147408
0.0147415
0.0147427
0.0147434
0.0147445
0.014745
0.0147459
0.0147463
0.0147471
0.0147473
0.014748
0.014748
0.0147485
0.0147484
0.0147487
0.0147484
0.0147485
0.0147481
0.014748
0.0147475
0.0147473
0.0147466
0.0147462
0.0147454
0.0147449
0.014744
0.0147434
0.0147424
0.0147418
0.0147407
0.01474
0.0147388
0.014738
0.0147368
0.014736
0.0147347
0.0147339
0.0147326
0.0147317
0.0147303
0.0147295
0.014728
0.0147272
0.0147256
0.0147249
0.0147232
0.0147225
0.0147207
0.0147197
0.0138633
0.0143153
0.0143359
0.0143371
0.0143366
0.0143378
0.0143385
0.0143394
0.0143391
0.0143388
0.0143382
0.014338
0.0143378
0.0143381
0.0143382
0.0143388
0.0143392
0.0143398
0.0143403
0.0143409
0.0143414
0.0143421
0.0143426
0.0143432
0.0143437
0.0143443
0.0143448
0.0143454
0.0143458
0.0143464
0.0143468
0.0143473
0.0143477
0.0143483
0.0143487
0.0143492
0.0143496
0.0143502
0.0143505
0.0143511
0.0143514
0.0143519
0.0143523
0.0143527
0.014353
0.0143534
0.0143536
0.0143539
0.014354
0.0143542
0.0143542
0.0143543
0.0143542
0.0143541
0.0143539
0.0143537
0.0143533
0.014353
0.0143525
0.014352
0.0143514
0.0143509
0.0143501
0.0143494
0.0143486
0.0143478
0.0143469
0.014346
0.014345
0.0143441
0.014343
0.0143421
0.0143409
0.0143399
0.0143387
0.0143377
0.0143365
0.0143354
0.0143341
0.0143331
0.0143318
0.0143307
0.0143293
0.0143283
0.0143268
0.0143258
0.0143242
0.0143232
0.0143215
0.0143145
0.0136831
0.0142309
0.0142651
0.0142681
0.0142676
0.0142686
0.01427
0.0142712
0.0142713
0.0142708
0.0142699
0.014269
0.0142684
0.0142679
0.0142678
0.0142677
0.0142679
0.0142679
0.0142682
0.0142683
0.0142686
0.0142688
0.0142691
0.0142692
0.0142695
0.0142696
0.0142699
0.0142701
0.0142703