/*--------------------------------*- C++ -*----------------------------------*\
  =========                 |
  \\      /  F ield         | OpenFOAM: The Open Source CFD Toolbox
   \\    /   O peration     | Website:  https://openfoam.org
    \\  /    A nd           | Version:  7
     \\/     M anipulation  |
\*---------------------------------------------------------------------------*/
FoamFile
{
    version     2.0;
    format      ascii;
    class       volScalarField;
    location    "1.6";
    object      k_0;
}
// * * * * * * * * * * * * * * * * * * * * * * * * * * * * * * * * * * * * * //

dimensions      [0 2 -2 0 0 0 0];

internalField   nonuniform List<scalar> 
3960
(
0.0348566
0.189215
0.467805
0.760259
1.00447
1.17253
1.27004
1.30403
1.29651
1.27189
1.22387
1.16949
1.11391
1.06024
1.01016
0.964458
0.923326
0.886648
0.85409
0.82524
0.799663
0.776937
0.756674
0.738523
0.722181
0.707374
0.693884
0.681507
0.670077
0.659465
0.649564
0.640281
0.631536
0.623264
0.615412
0.607934
0.600793
0.593959
0.587404
0.581108
0.57505
0.569214
0.563585
0.558151
0.5529
0.547816
0.542904
0.53813
0.533533
0.52901
0.524724
0.520364
0.516447
0.512071
0.508708
0.503966
0.501381
0.496072
0.492623
0.497093
0.000148911
0.00299135
0.0143533
0.0404296
0.0885158
0.147264
0.207037
0.261149
0.304605
0.338809
0.363379
0.380109
0.390755
0.3971
0.400342
0.401721
0.401609
0.401157
0.400219
0.399124
0.398039
0.397037
0.396145
0.395371
0.3947
0.394122
0.393606
0.393138
0.392703
0.392285
0.391872
0.391453
0.39102
0.390567
0.390088
0.389582
0.389044
0.38848
0.387879
0.387256
0.386592
0.385915
0.385191
0.384471
0.383688
0.382939
0.382098
0.38134
0.380433
0.37969
0.378701
0.378006
0.376915
0.3763
0.375111
0.374536
0.37325
0.372674
0.370697
0.371146
2.01575e-05
3.32436e-05
0.000140158
0.000573426
0.00180551
0.00448291
0.00922105
0.0158577
0.0236895
0.0322154
0.040786
0.0489825
0.0564554
0.0630997
0.0688343
0.073742
0.0778646
0.0813328
0.0842418
0.0866984
0.0887913
0.0906085
0.0922146
0.0936723
0.0950233
0.0963091
0.0975544
0.0987855
0.100017
0.101266
0.102536
0.103838
0.105171
0.10654
0.107945
0.109385
0.11086
0.112366
0.113905
0.115467
0.117058
0.118664
0.120295
0.121933
0.123594
0.12525
0.126931
0.128593
0.130284
0.131939
0.133637
0.135268
0.136976
0.138564
0.140301
0.141814
0.143613
0.145003
0.146951
0.148282
2.00102e-05
2.01092e-05
2.08164e-05
2.46501e-05
3.95496e-05
8.32257e-05
0.000187564
0.000387944
0.000764275
0.00126159
0.0019437
0.00271596
0.0036181
0.0045377
0.0055209
0.00645896
0.00741709
0.00829199
0.0091674
0.00994188
0.0107156
0.0113844
0.0120625
0.0126381
0.0132376
0.0137372
0.014276
0.0147162
0.0152109
0.0156071
0.0160732
0.0164379
0.0168875
0.0172295
0.0176715
0.0179981
0.0184404
0.0187582
0.0192077
0.0195219
0.0199842
0.0202978
0.0207775
0.0210925
0.0215934
0.0219118
0.0224377
0.0227605
0.0233148
0.0236426
0.0242283
0.0245621
0.0251824
0.0255232
0.0261813
0.0265321
0.0272307
0.0276058
0.028373
0.0288059
2.00006e-05
2.00374e-05
2.01587e-05
2.0419e-05
2.09489e-05
2.18276e-05
2.36464e-05
2.69749e-05
3.4712e-05
4.463e-05
6.68463e-05
8.64173e-05
0.000128524
0.000157648
0.00021844
0.000254671
0.000328872
0.000369381
0.000451362
0.000493837
0.000578794
0.000622475
0.000707642
0.00075124
0.000836022
0.000879135
0.000963401
0.00100604
0.00108985
0.00113206
0.00121572
0.0012578
0.00134157
0.00138363
0.00146744
0.00150943
0.00159338
0.00163552
0.00171987
0.00176233
0.00184738
0.00189028
0.00197627
0.00201971
0.00210682
0.00215091
0.00223937
0.00228425
0.0023744
0.00242027
0.00251253
0.00255965
0.00265462
0.0027033
0.0028018
0.00285258
0.00295633
0.00301073
0.00312518
0.0031876
1.99883e-05
2.00165e-05
2.01215e-05
2.03442e-05
2.08565e-05
2.12907e-05
2.22122e-05
2.2779e-05
2.395e-05
2.45917e-05
2.5923e-05
2.66386e-05
2.81466e-05
2.89597e-05
3.0684e-05
3.16046e-05
3.3549e-05
3.45704e-05
3.67112e-05
3.78202e-05
4.01239e-05
4.13081e-05
4.37517e-05
4.50059e-05
4.75845e-05
4.89125e-05
5.16371e-05
5.30468e-05
5.59345e-05
5.74346e-05
6.05033e-05
6.21016e-05
6.53674e-05
6.70693e-05
7.05421e-05
7.23505e-05
7.60358e-05
7.7954e-05
8.18592e-05
8.3892e-05
8.80281e-05
9.01819e-05
9.45628e-05
9.68446e-05
0.000101483
0.000103899
0.000108807
0.000111363
0.000116553
0.000119261
0.000124764
0.000127644
0.000133508
0.000136587
0.000142883
0.000146208
0.000153084
0.000156762
0.000164589
0.000168884
1.99883e-05
2.00165e-05
2.01215e-05
2.03442e-05
2.08565e-05
2.12907e-05
2.22123e-05
2.27791e-05
2.39501e-05
2.45919e-05
2.59233e-05
2.66389e-05
2.8147e-05
2.89601e-05
3.06844e-05
3.1605e-05
3.35493e-05
3.45706e-05
3.67112e-05
3.782e-05
4.01237e-05
4.13073e-05
4.375e-05
4.50035e-05
4.75806e-05
4.89074e-05
5.16295e-05
5.30372e-05
5.59208e-05
5.74176e-05
6.04797e-05
6.20729e-05
6.53281e-05
6.70222e-05
7.04779e-05
7.2274e-05
7.5933e-05
7.78322e-05
8.16972e-05
8.37009e-05
8.77755e-05
8.98852e-05
9.4173e-05
9.63882e-05
0.000100887
0.000103202
0.0001079
0.000110306
0.000115183
0.000117668
0.000122705
0.000125255
0.00013043
0.000133024
0.000138309
0.000140927
0.00014634
0.000149007
0.000154768
0.000157677
2.00006e-05
2.00374e-05
2.01587e-05
2.0419e-05
2.09489e-05
2.18276e-05
2.36599e-05
2.69813e-05
3.4726e-05
4.4637e-05
6.68602e-05
8.64245e-05
0.000128537
0.000157653
0.00021845
0.000254674
0.000328877
0.000369378
0.000451359
0.000493824
0.000578858
0.000622358
0.000707664
0.000751121
0.000835986
0.000878983
0.000963309
0.00100582
0.00108966
0.00113175
0.00121539
0.00125736
0.00134103
0.00138297
0.00146659
0.00150842
0.00159208
0.001634
0.00171791
0.00176004
0.00184444
0.00188686
0.00197188
0.00201463
0.00210032
0.00214339
0.00222977
0.00227317
0.00236026
0.00240397
0.00249177
0.00253574
0.00262421
0.00266831
0.00275741
0.00280155
0.00289182
0.00293669
0.00303214
0.00308141
2.00102e-05
2.01092e-05
2.08164e-05
2.46501e-05
3.95495e-05
8.32245e-05
0.000188484
0.000387003
0.000765216
0.00126066
0.00194462
0.00271505
0.00361902
0.00453674
0.00552183
0.00645791
0.00741807
0.00829082
0.00916837
0.00994056
0.0107166
0.0113828
0.0120634
0.0126363
0.0132383
0.013735
0.0142765
0.0147135
0.0152112
0.0156037
0.0160729
0.0164336
0.0168861
0.017224
0.0176686
0.0179907
0.0184352
0.018748
0.0191993
0.0195076
0.019971
0.0202777
0.020757
0.0210639
0.0215625
0.0218709
0.0223913
0.0227018
0.023246
0.0235583
0.024127
0.0244406
0.0250339
0.0253485
0.0259646
0.0262813
0.0269168
0.0272442
0.0279209
0.0282867
2.01575e-05
3.32436e-05
0.000140157
0.000573423
0.0018055
0.0044828
0.00922111
0.0158575
0.0236896
0.0322152
0.0407862
0.0489821
0.0564556
0.0630992
0.0688346
0.0737414
0.0778648
0.0813318
0.084242
0.086697
0.0887915
0.0906065
0.0922145
0.0936695
0.0950229
0.096305
0.0975534
0.0987796
0.100015
0.101257
0.102533
0.103826
0.105166
0.106524
0.107936
0.109361
0.110846
0.112333
0.113883
0.11542
0.117025
0.118598
0.120246
0.12184
0.12352
0.125119
0.126822
0.128409
0.130126
0.13168
0.133407
0.134907
0.136643
0.138065
0.139816
0.141128
0.142898
0.144067
0.145877
0.147017
0.000148912
0.00299135
0.0143533
0.0404296
0.0885157
0.147264
0.207036
0.261149
0.304605
0.338809
0.363379
0.380109
0.390754
0.397099
0.400341
0.40172
0.401609
0.401156
0.400218
0.399123
0.398038
0.397035
0.396143
0.395369
0.394697
0.394118
0.393601
0.393133
0.392697
0.392278
0.391863
0.391443
0.391008
0.390553
0.390071
0.389563
0.389021
0.388453
0.387846
0.387219
0.386547
0.385866
0.38513
0.384404
0.383604
0.38285
0.381984
0.38122
0.380279
0.37953
0.378493
0.377791
0.376638
0.376006
0.374745
0.374126
0.372754
0.372077
0.369914
0.370186
0.0348566
0.189215
0.467805
0.760259
1.00447
1.17253
1.27004
1.30403
1.29651
1.27189
1.22387
1.16949
1.11391
1.06024
1.01016
0.96446
0.923328
0.88665
0.854093
0.825244
0.799667
0.776943
0.756681
0.738532
0.722191
0.707387
0.6939
0.681526
0.6701
0.659493
0.649597
0.64032
0.631583
0.623322
0.615481
0.608016
0.600891
0.594076
0.587543
0.581274
0.575247
0.56945
0.563864
0.558485
0.55329
0.548287
0.543453
0.538797
0.534297
0.529955
0.52578
0.521712
0.517889
0.514011
0.510637
0.506784
0.503933
0.500079
0.496132
0.501664
0.877905
1.02624
1.05999
1.05857
1.04842
1.03484
1.02357
1.01406
1.0058
0.998376
0.991691
0.985727
0.98043
0.975719
0.971522
0.967779
0.96445
0.961505
0.958922
0.95668
0.954777
0.953169
0.951837
0.950782
0.949968
0.94937
0.948968
0.94874
0.948657
0.948718
0.948907
0.94921
0.949616
0.950122
0.950723
0.951414
0.952194
0.953061
0.954015
0.955054
0.956177
0.957379
0.958655
0.96
0.961406
0.962863
0.964364
0.9659
0.967463
0.969045
0.970638
0.972237
0.973836
0.975431
0.977019
0.978598
0.980166
0.981724
0.98327
0.984804
0.986328
0.987841
0.989344
0.990836
0.992317
0.993787
0.995246
0.996691
0.998125
0.999545
1.00095
1.00234
1.00372
1.00509
1.00644
1.00778
1.00911
1.01043
1.01174
1.01304
1.01434
1.01563
1.01692
1.0182
1.01949
1.02077
1.02206
1.02334
1.02463
1.02591
1.0272
1.02849
1.02977
1.03106
1.03234
1.03362
1.0349
1.03617
1.03744
1.03871
1.03997
1.04123
1.04249
1.04374
1.04499
1.04625
1.0475
1.04876
1.05002
1.05129
1.05257
1.05385
1.05514
1.05645
1.05776
1.05908
1.06042
1.06176
1.06312
1.06449
1.06586
1.06724
1.06863
1.07002
1.07143
1.07283
1.07424
1.07566
1.07708
1.0785
1.07993
1.08138
1.08283
1.08429
1.08576
1.08725
1.08875
1.09027
1.0918
1.09335
1.09492
1.0965
1.0981
1.09972
1.10135
1.10299
1.10465
1.10632
1.108
1.10969
1.11139
1.11311
1.11483
1.11656
1.11829
1.12003
1.12178
1.12354
1.1253
1.12706
1.12883
1.1306
1.13238
1.13416
1.13594
1.13773
1.13951
1.1413
1.1431
1.14489
1.14668
1.14848
1.15027
1.15207
1.15386
1.15566
1.15745
1.15925
1.16104
1.16283
1.16462
1.16641
1.1682
1.16999
1.17177
1.17356
1.17535
1.17713
1.17892
1.18071
1.1825
1.18429
1.18608
1.18788
1.18968
1.19148
1.19329
1.1951
1.19692
1.19874
1.20057
1.2024
1.20424
1.20609
1.20795
1.20982
1.21169
1.21358
1.21547
1.21737
1.21929
1.22121
1.22314
1.22508
1.22703
1.22899
1.23096
1.23294
1.23492
1.23691
1.23891
1.24091
1.24292
1.24493
1.24695
1.24897
1.25099
1.25301
1.25503
1.25705
1.25907
1.26109
1.26311
1.26513
1.26714
1.26916
1.27117
1.27317
1.27518
1.27718
1.27918
1.28118
1.28318
1.28517
1.28717
1.28917
1.29116
1.29316
1.29515
1.29715
1.29915
1.30115
1.30315
1.30517
1.30717
1.3092
1.31119
1.31325
1.31523
1.31732
1.31926
1.32144
1.32329
1.32563
1.32727
1.32991
1.33123
1.33428
1.33518
1.33887
0.573636
0.804747
0.904625
0.940916
0.947989
0.945261
0.938362
0.930012
0.922526
0.916102
0.910687
0.90616
0.902395
0.899276
0.896708
0.894613
0.892935
0.891631
0.890678
0.890029
0.889726
0.88971
0.889848
0.890276
0.890971
0.891839
0.892881
0.894077
0.895407
0.896861
0.898422
0.900081
0.90183
0.903661
0.90557
0.907552
0.909603
0.911721
0.913905
0.916154
0.918465
0.920835
0.923259
0.925733
0.928251
0.930806
0.933394
0.936007
0.938638
0.941282
0.943933
0.946586
0.949237
0.951883
0.95452
0.957146
0.95976
0.96236
0.964944
0.967513
0.970066
0.972604
0.975125
0.97763
0.980118
0.982588
0.985039
0.987471
0.989884
0.992277
0.994649
0.997001
0.999331
1.00164
1.00393
1.00619
1.00844
1.01066
1.01287
1.01505
1.01722
1.01936
1.02149
1.02361
1.02571
1.02781
1.02989
1.03197
1.03404
1.0361
1.03816
1.04022
1.04227
1.04433
1.04638
1.04844
1.05049
1.05254
1.05458
1.05663
1.05867
1.06071
1.06274
1.06477
1.0668
1.06881
1.07083
1.07283
1.07484
1.07684
1.07884
1.08083
1.08283
1.08483
1.08683
1.08883
1.09084
1.09286
1.09488
1.0969
1.09893
1.10097
1.10301
1.10506
1.10711
1.10916
1.11121
1.11327
1.11532
1.11737
1.11942
1.12147
1.12351
1.12555
1.12759
1.12963
1.13167
1.1337
1.13574
1.13778
1.13983
1.14188
1.14393
1.14598
1.14803
1.15009
1.15216
1.15422
1.15629
1.15836
1.16043
1.1625
1.16458
1.16666
1.16874
1.17082
1.1729
1.17498
1.17707
1.17915
1.18124
1.18333
1.18542
1.18751
1.18961
1.1917
1.1938
1.19589
1.19799
1.20009
1.2022
1.2043
1.20641
1.20851
1.21062
1.21273
1.21484
1.21696
1.21907
1.22119
1.2233
1.22542
1.22754
1.22966
1.23178
1.23391
1.23603
1.23815
1.24028
1.2424
1.24453
1.24666
1.24878
1.25091
1.25304
1.25517
1.2573
1.25943
1.26156
1.26369
1.26582
1.26795
1.27008
1.27222
1.27435
1.27648
1.27862
1.28075
1.28289
1.28502
1.28716
1.2893
1.29143
1.29357
1.29571
1.29785
1.3
1.30214
1.30428
1.30643
1.30857
1.31072
1.31286
1.31501
1.31716
1.31931
1.32146
1.32361
1.32576
1.32792
1.33007
1.33223
1.33438
1.33654
1.3387
1.34086
1.34302
1.34518
1.34734
1.3495
1.35167
1.35383
1.356
1.35817
1.36034
1.36251
1.36468
1.36685
1.36902
1.3712
1.37338
1.37556
1.37773
1.37992
1.38209
1.38429
1.38645
1.38867
1.39081
1.39307
1.39516
1.3975
1.39948
1.40197
1.40375
1.4065
1.40799
1.41106
1.41234
1.41585
0.18854
0.298728
0.402687
0.483271
0.537789
0.571404
0.590789
0.601297
0.606721
0.609327
0.610448
0.610862
0.611011
0.611137
0.611368
0.611754
0.612305
0.613014
0.613875
0.614866
0.616
0.617251
0.618592
0.620038
0.621581
0.623213
0.624928
0.626722
0.628588
0.630517
0.632502
0.634535
0.636609
0.638718
0.640857
0.643019
0.645197
0.647388
0.649586
0.651791
0.654001
0.656217
0.658439
0.660666
0.6629
0.66514
0.667386
0.669641
0.671903
0.674173
0.676449
0.678729
0.681011
0.683292
0.685572
0.687848
0.690119
0.692382
0.694635
0.696876
0.699105
0.70132
0.703524
0.705715
0.707896
0.710066
0.712225
0.714374
0.716513
0.718645
0.720769
0.722886
0.724997
0.727101
0.729196
0.731283
0.733361
0.735429
0.737486
0.739533
0.741567
0.743588
0.745594
0.747584
0.749558
0.751516
0.753459
0.755387
0.757301
0.759201
0.761088
0.762963
0.764828
0.766684
0.768533
0.770375
0.772213
0.774047
0.775877
0.777703
0.779527
0.781347
0.783164
0.784977
0.786786
0.788589
0.790386
0.792175
0.793955
0.795727
0.797488
0.799241
0.800983
0.802716
0.804441
0.806158
0.807868
0.809571
0.81127
0.812966
0.81466
0.816353
0.818046
0.819742
0.82144
0.823142
0.824847
0.826556
0.828268
0.829981
0.831696
0.833411
0.835125
0.836836
0.838545
0.84025
0.841952
0.84365
0.845345
0.847036
0.848725
0.850411
0.852096
0.85378
0.855463
0.857146
0.858829
0.860512
0.862195
0.863879
0.865564
0.867248
0.868934
0.87062
0.872306
0.873994
0.875682
0.87737
0.879059
0.880749
0.88244
0.884131
0.885823
0.887516
0.889209
0.890903
0.892598
0.894294
0.895991
0.897688
0.899386
0.901085
0.902784
0.904485
0.906186
0.907888
0.909591
0.911294
0.912998
0.914703
0.916408
0.918114
0.919821
0.921528
0.923235
0.924943
0.926652
0.928361
0.930071
0.931781
0.933491
0.935202
0.936913
0.938624
0.940336
0.942048
0.94376
0.945473
0.947186
0.948899
0.950613
0.952326
0.95404
0.955754
0.957468
0.959183
0.960897
0.962612
0.964327
0.966042
0.967758
0.969474
0.97119
0.972906
0.974623
0.97634
0.978058
0.979776
0.981494
0.983213
0.984932
0.986652
0.988373
0.990094
0.991815
0.993538
0.99526
0.996984
0.998707
1.00043
1.00216
1.00388
1.00561
1.00733
1.00906
1.01079
1.01251
1.01424
1.01597
1.01769
1.01942
1.02115
1.02288
1.02461
1.02633
1.02806
1.02979
1.03152
1.03325
1.03498
1.03671
1.03845
1.04017
1.04191
1.04363
1.04538
1.0471
1.04886
1.05055
1.05234
1.054
1.05584
1.05743
1.05936
1.06084
1.06292
1.06422
1.06649
1.06764
1.07039
0.0334672
0.0485607
0.0729636
0.104624
0.140047
0.175092
0.207118
0.235034
0.258683
0.27836
0.294584
0.307944
0.319009
0.328272
0.336143
0.342941
0.348903
0.354196
0.358951
0.363262
0.367214
0.370869
0.374274
0.377468
0.380482
0.383348
0.386093
0.388743
0.391319
0.393837
0.396306
0.398732
0.401117
0.403464
0.405775
0.408047
0.410278
0.412461
0.41459
0.416659
0.418668
0.420615
0.422504
0.424337
0.426117
0.427848
0.429536
0.431185
0.432805
0.434402
0.435982
0.43755
0.439109
0.44066
0.442205
0.443744
0.445278
0.446807
0.44833
0.449845
0.45135
0.452843
0.454324
0.455792
0.45725
0.4587
0.460141
0.461575
0.463004
0.464429
0.465852
0.467275
0.468702
0.470134
0.471571
0.473014
0.474463
0.475917
0.477376
0.47884
0.480308
0.48178
0.483252
0.484722
0.486189
0.48765
0.489103
0.490548
0.491983
0.493409
0.494823
0.496226
0.497617
0.498996
0.500365
0.501724
0.503076
0.504422
0.505762
0.507099
0.508433
0.509765
0.511096
0.512428
0.51376
0.515092
0.516424
0.517755
0.519084
0.520408
0.521727
0.523039
0.524342
0.525634
0.526917
0.528187
0.529445
0.530691
0.531924
0.533146
0.534357
0.535558
0.536751
0.537938
0.539121
0.540301
0.541482
0.542664
0.543849
0.545039
0.546233
0.547432
0.548635
0.549842
0.551051
0.55226
0.55347
0.554677
0.555882
0.557083
0.55828
0.559472
0.56066
0.561843
0.563022
0.564197
0.565369
0.566538
0.567705
0.568869
0.570032
0.571194
0.572355
0.573515
0.574674
0.575833
0.576993
0.578152
0.579311
0.580471
0.581631
0.582791
0.583952
0.585114
0.586276
0.587439
0.588603
0.589768
0.590933
0.592099
0.593266
0.594434
0.595603
0.596773
0.597943
0.599115
0.600287
0.60146
0.602634
0.603809
0.604985
0.606161
0.607339
0.608517
0.609695
0.610875
0.612055
0.613235
0.614417
0.615599
0.616781
0.617965
0.619148
0.620333
0.621518
0.622703
0.623889
0.625076
0.626263
0.627451
0.628639
0.629828
0.631017
0.632206
0.633397
0.634587
0.635778
0.636969
0.638161
0.639354
0.640546
0.641739
0.642933
0.644127
0.645322
0.646517
0.647712
0.648908
0.650105
0.651302
0.6525
0.653698
0.654898
0.656097
0.657298
0.658499
0.659701
0.660903
0.662107
0.663311
0.664515
0.66572
0.666926
0.668133
0.66934
0.670548
0.671756
0.672965
0.674174
0.675384
0.676594
0.677805
0.679015
0.680227
0.681437
0.682651
0.683861
0.685076
0.686286
0.687502
0.688712
0.689931
0.691138
0.692362
0.693565
0.694797
0.695991
0.697236
0.698414
0.699682
0.700833
0.702137
0.703244
0.704606
0.70564
0.707097
0.708018
0.7096
0.710416
0.712377
0.0035541
0.00467218
0.00647519
0.00934707
0.0138186
0.0200203
0.0277296
0.036617
0.0463722
0.0567009
0.0673145
0.0779386
0.0883583
0.0984388
0.108112
0.117346
0.126122
0.134428
0.142255
0.149606
0.156492
0.162934
0.168951
0.174565
0.179795
0.184663
0.189194
0.193415
0.197354
0.201042
0.204506
0.207767
0.210843
0.213748
0.216495
0.219096
0.221559
0.22389
0.226091
0.228162
0.230102
0.23191
0.233591
0.235151
0.236597
0.237935
0.239173
0.24032
0.241384
0.242377
0.243309
0.244195
0.245042
0.245859
0.246651
0.247423
0.248179
0.248922
0.249656
0.250382
0.251101
0.251812
0.252512
0.253201
0.253879
0.254546
0.255206
0.255858
0.256505
0.257146
0.257784
0.258419
0.259056
0.259695
0.260342
0.260997
0.261663
0.262339
0.263027
0.263728
0.264441
0.265168
0.265909
0.266663
0.267429
0.268204
0.268986
0.269772
0.270562
0.271352
0.272143
0.272932
0.273718
0.274498
0.275272
0.27604
0.2768
0.277555
0.278305
0.279052
0.279796
0.280539
0.281281
0.282024
0.28277
0.28352
0.284274
0.285034
0.285799
0.286569
0.287343
0.288119
0.288895
0.289671
0.290443
0.29121
0.29197
0.292723
0.293466
0.294198
0.29492
0.295629
0.296327
0.297014
0.297692
0.29836
0.299022
0.299678
0.300333
0.300987
0.301643
0.302303
0.302969
0.30364
0.304317
0.305
0.305687
0.306378
0.307071
0.307765
0.308458
0.309148
0.309835
0.310518
0.311197
0.31187
0.312539
0.313203
0.313862
0.314518
0.31517
0.31582
0.316466
0.317111
0.317753
0.318395
0.319035
0.319674
0.320313
0.320952
0.32159
0.322228
0.322866
0.323504
0.324142
0.324781
0.325421
0.32606
0.3267
0.327341
0.327982
0.328624
0.329267
0.32991
0.330554
0.331198
0.331843
0.332489
0.333135
0.333782
0.33443
0.335079
0.335728
0.336377
0.337028
0.337678
0.33833
0.338982
0.339634
0.340287
0.340941
0.341595
0.34225
0.342905
0.34356
0.344216
0.344873
0.34553
0.346187
0.346845
0.347504
0.348162
0.348822
0.349481
0.350142
0.350802
0.351463
0.352125
0.352787
0.353449
0.354112
0.354776
0.35544
0.356104
0.356769
0.357434
0.3581
0.358766
0.359432
0.3601
0.360767
0.361436
0.362105
0.362774
0.363444
0.364115
0.364786
0.365458
0.36613
0.366803
0.367477
0.368151
0.368826
0.369502
0.370177
0.370854
0.371531
0.372209
0.372887
0.373566
0.374245
0.374926
0.375604
0.376286
0.376965
0.377649
0.378327
0.379013
0.37969
0.38038
0.381054
0.381748
0.382419
0.383119
0.383784
0.384492
0.38515
0.385868
0.386514
0.387249
0.387878
0.388634
0.389239
0.390027
0.390593
0.391432
0.391943
0.392838
0.393302
0.394423
0.00018914
0.00024245
0.000324749
0.000433863
0.000593457
0.000859435
0.00128602
0.00189532
0.00269879
0.00373494
0.00506051
0.00670006
0.00863289
0.0108221
0.0132524
0.015928
0.0188489
0.0219863
0.0252866
0.0286969
0.0321773
0.0357036
0.0392522
0.0427916
0.046284
0.0496937
0.0529944
0.0561727
0.0592231
0.0621454
0.0649393
0.067603
0.0701351
0.0725367
0.0748113
0.0769646
0.0790026
0.0809295
0.082747
0.0844545
0.0860502
0.0875332
0.0889049
0.0901687
0.0913294
0.0923921
0.0933611
0.0942408
0.0950363
0.0957543
0.0964033
0.0969928
0.0975319
0.0980286
0.098489
0.0989177
0.099319
0.0996973
0.100057
0.100401
0.100733
0.101053
0.101362
0.101658
0.101941
0.102211
0.10247
0.102718
0.102957
0.103188
0.10341
0.103624
0.103832
0.104034
0.104235
0.104436
0.104639
0.104845
0.105055
0.105269
0.10549
0.105717
0.105952
0.106196
0.106449
0.10671
0.106979
0.107252
0.10753
0.107812
0.108097
0.108383
0.108671
0.108959
0.109245
0.109529
0.10981
0.110088
0.110364
0.110638
0.11091
0.111182
0.111453
0.111725
0.111999
0.112274
0.112552
0.112835
0.113122
0.113413
0.11371
0.11401
0.114315
0.114621
0.114929
0.115238
0.115546
0.115852
0.116156
0.116455
0.116751
0.117041
0.117325
0.117603
0.117875
0.118142
0.118403
0.118659
0.118912
0.119163
0.119413
0.119664
0.119916
0.120172
0.120431
0.120694
0.12096
0.121231
0.121504
0.12178
0.122056
0.122333
0.12261
0.122885
0.123158
0.123428
0.123696
0.123961
0.124224
0.124484
0.124741
0.124997
0.12525
0.125502
0.125752
0.126002
0.12625
0.126497
0.126744
0.12699
0.127236
0.127482
0.127727
0.127973
0.128218
0.128463
0.128709
0.128954
0.1292
0.129446
0.129692
0.129938
0.130184
0.130431
0.130677
0.130924
0.131172
0.131419
0.131667
0.131915
0.132163
0.132411
0.13266
0.132909
0.133158
0.133408
0.133657
0.133907
0.134157
0.134408
0.134658
0.134909
0.13516
0.135411
0.135662
0.135914
0.136165
0.136417
0.136669
0.136921
0.137174
0.137426
0.137679
0.137932
0.138185
0.138438
0.138692
0.138945
0.139199
0.139453
0.139708
0.139962
0.140217
0.140472
0.140727
0.140982
0.141238
0.141494
0.14175
0.142006
0.142262
0.142519
0.142776
0.143033
0.14329
0.143548
0.143806
0.144064
0.144322
0.144581
0.14484
0.145099
0.145358
0.145619
0.145877
0.146139
0.146397
0.14666
0.146918
0.147182
0.14744
0.147705
0.147962
0.148229
0.148485
0.148755
0.149008
0.149281
0.149531
0.149808
0.150055
0.150337
0.150579
0.150866
0.151104
0.151397
0.151628
0.151928
0.152153
0.152461
0.152678
0.152994
0.153205
0.153529
0.15373
0.154067
0.154256
0.154603
0.154783
0.155221
0.00017336
0.000215623
0.000272633
0.000342023
0.00044082
0.000612423
0.000903719
0.00133611
0.00192516
0.00271095
0.00375513
0.00509565
0.00673253
0.00864342
0.0108258
0.0132943
0.0160577
0.0190952
0.0223574
0.0257943
0.0293655
0.0330473
0.0368161
0.0406358
0.0444648
0.0482594
0.0519873
0.0556277
0.0591758
0.0626174
0.0659588
0.0691957
0.0723201
0.0753276
0.0782182
0.0809946
0.0836602
0.0862175
0.0886666
0.0910052
0.0932305
0.0953402
0.0973345
0.0992156
0.100987
0.102653
0.104218
0.105685
0.107058
0.108344
0.10955
0.110686
0.111761
0.112783
0.113758
0.114689
0.115582
0.11644
0.117268
0.118068
0.118844
0.119596
0.120323
0.121025
0.1217
0.12235
0.122974
0.123576
0.124155
0.124712
0.125248
0.125764
0.126262
0.126743
0.127212
0.12767
0.128121
0.128566
0.129006
0.129443
0.129879
0.130314
0.130751
0.131191
0.131635
0.13208
0.132528
0.132975
0.133421
0.133865
0.134307
0.134746
0.13518
0.135609
0.136031
0.136446
0.136853
0.137252
0.137645
0.138031
0.138413
0.138791
0.139166
0.139539
0.139912
0.140284
0.140659
0.141037
0.141418
0.141804
0.142194
0.142587
0.142983
0.143379
0.143776
0.144172
0.144566
0.144956
0.145341
0.14572
0.146093
0.146458
0.146816
0.147165
0.147507
0.147841
0.14817
0.148492
0.148812
0.149129
0.149446
0.149764
0.150085
0.150411
0.150741
0.151076
0.151417
0.151762
0.152111
0.152463
0.152816
0.15317
0.153523
0.153874
0.154223
0.154569
0.154912
0.155252
0.155589
0.155922
0.156253
0.156582
0.156908
0.157233
0.157555
0.157877
0.158197
0.158517
0.158836
0.159154
0.159471
0.159789
0.160106
0.160423
0.16074
0.161057
0.161374
0.161692
0.162009
0.162327
0.162645
0.162963
0.163281
0.1636
0.163919
0.164238
0.164558
0.164878
0.165198
0.165518
0.165839
0.16616
0.166482
0.166803
0.167125
0.167447
0.16777
0.168093
0.168416
0.168739
0.169062
0.169386
0.16971
0.170034
0.170358
0.170683
0.171008
0.171333
0.171659
0.171984
0.17231
0.172636
0.172963
0.17329
0.173617
0.173944
0.174272
0.1746
0.174928
0.175256
0.175585
0.175914
0.176243
0.176573
0.176903
0.177233
0.177564
0.177894
0.178225
0.178557
0.178888
0.17922
0.179552
0.179885
0.180217
0.180551
0.180884
0.181218
0.181551
0.181886
0.18222
0.182555
0.18289
0.183226
0.183561
0.183898
0.184232
0.184571
0.184905
0.185245
0.185579
0.185921
0.186254
0.186597
0.186929
0.187275
0.187605
0.187954
0.188282
0.188634
0.188958
0.189316
0.189635
0.189999
0.190312
0.190685
0.190989
0.191373
0.191665
0.192063
0.192342
0.192756
0.193017
0.193451
0.193695
0.194145
0.194377
0.194838
0.195066
0.195637
0.00340544
0.00440039
0.00590992
0.00824904
0.0119965
0.0173939
0.0243192
0.0325118
0.041732
0.0517422
0.062286
0.0730984
0.0839543
0.0946962
0.105229
0.115487
0.12542
0.134987
0.144155
0.152906
0.161236
0.169146
0.176648
0.18375
0.190462
0.196796
0.202766
0.208395
0.213704
0.21873
0.223483
0.227986
0.23226
0.236321
0.240184
0.243859
0.247355
0.250682
0.253844
0.256839
0.259669
0.262335
0.264842
0.267195
0.269404
0.271476
0.27342
0.275241
0.276952
0.278563
0.280088
0.28154
0.282928
0.284261
0.285546
0.286786
0.287986
0.28915
0.290283
0.291387
0.292461
0.293505
0.294517
0.295496
0.296443
0.29736
0.298248
0.29911
0.299947
0.300761
0.301553
0.302327
0.303087
0.303838
0.304583
0.305326
0.306069
0.306814
0.307564
0.308319
0.309082
0.309854
0.310636
0.311427
0.312226
0.31303
0.313837
0.314645
0.315452
0.316258
0.317061
0.317858
0.31865
0.319434
0.320209
0.320977
0.321737
0.322492
0.323243
0.323991
0.32474
0.325489
0.326242
0.326999
0.327762
0.328532
0.329312
0.3301
0.330897
0.331701
0.332511
0.333325
0.33414
0.334955
0.335768
0.336575
0.337377
0.33817
0.338954
0.339728
0.340492
0.341244
0.341987
0.34272
0.343445
0.344165
0.34488
0.345595
0.34631
0.347029
0.347754
0.348486
0.349225
0.349974
0.35073
0.351494
0.352263
0.353037
0.353813
0.354589
0.355364
0.356136
0.356905
0.357669
0.358428
0.359181
0.35993
0.360674
0.361414
0.362149
0.362881
0.36361
0.364336
0.365061
0.365783
0.366504
0.367224
0.367943
0.368662
0.36938
0.370098
0.370816
0.371534
0.372252
0.37297
0.373689
0.374408
0.375128
0.375848
0.376569
0.37729
0.378012
0.378735
0.379458
0.380182
0.380907
0.381632
0.382358
0.383085
0.383812
0.38454
0.385269
0.385998
0.386728
0.387458
0.388189
0.38892
0.389652
0.390385
0.391118
0.391851
0.392586
0.39332
0.394055
0.394791
0.395527
0.396264
0.397001
0.397739
0.398477
0.399216
0.399955
0.400695
0.401436
0.402177
0.402919
0.403661
0.404404
0.405147
0.405891
0.406636
0.407381
0.408126
0.408873
0.409619
0.410367
0.411114
0.411863
0.412612
0.413361
0.414112
0.414862
0.415614
0.416365
0.417118
0.417871
0.418624
0.419379
0.420133
0.420889
0.421645
0.422401
0.423158
0.423916
0.424674
0.425433
0.426192
0.426952
0.427711
0.428473
0.429233
0.429995
0.430756
0.43152
0.43228
0.433046
0.433806
0.434574
0.435332
0.436103
0.43686
0.437635
0.438389
0.43917
0.439918
0.440709
0.441447
0.442253
0.442975
0.443802
0.444499
0.44536
0.446019
0.446927
0.447536
0.4485
0.449056
0.450074
0.450591
0.451859
0.0326926
0.0470151
0.0696454
0.0995694
0.134156
0.169464
0.202721
0.232544
0.258552
0.280857
0.299841
0.315989
0.329791
0.341689
0.352062
0.361209
0.36936
0.376689
0.38333
0.38939
0.394962
0.400117
0.404915
0.409398
0.413603
0.417561
0.421306
0.42487
0.428281
0.431559
0.434717
0.437767
0.440717
0.443572
0.446337
0.449011
0.451593
0.454082
0.456474
0.458764
0.460954
0.463045
0.46504
0.466943
0.468759
0.470491
0.472147
0.473735
0.475262
0.476739
0.478173
0.479571
0.480935
0.48227
0.483579
0.484862
0.486124
0.487363
0.488581
0.489776
0.490947
0.492092
0.493213
0.494312
0.49539
0.49645
0.497494
0.498525
0.499545
0.500557
0.501566
0.502574
0.503587
0.504607
0.505635
0.506673
0.507722
0.508782
0.509853
0.510936
0.51203
0.513135
0.514246
0.515363
0.516483
0.517604
0.518725
0.519845
0.520963
0.52208
0.523193
0.524304
0.525413
0.526519
0.527626
0.528734
0.529846
0.530962
0.532084
0.533214
0.534352
0.535498
0.536653
0.537818
0.538992
0.540174
0.541364
0.542558
0.543756
0.544956
0.546154
0.54735
0.548542
0.549729
0.55091
0.552085
0.553252
0.554412
0.555566
0.556714
0.557857
0.558997
0.560136
0.561274
0.562414
0.563558
0.564708
0.565863
0.567026
0.568196
0.569373
0.570557
0.571745
0.572937
0.57413
0.575325
0.576517
0.577708
0.578895
0.580078
0.581257
0.582431
0.583601
0.584766
0.585928
0.587087
0.588243
0.589396
0.590548
0.591698
0.592847
0.593996
0.595144
0.596291
0.597438
0.598586
0.599733
0.600881
0.602029
0.603178
0.604327
0.605477
0.606627
0.607778
0.60893
0.610083
0.611236
0.61239
0.613545
0.614701
0.615858
0.617015
0.618174
0.619333
0.620493
0.621654
0.622816
0.623978
0.625142
0.626306
0.627471
0.628636
0.629803
0.63097
0.632137
0.633306
0.634475
0.635644
0.636815
0.637985
0.639157
0.640329
0.641502
0.642675
0.643849
0.645023
0.646198
0.647374
0.648551
0.649727
0.650905
0.652083
0.653262
0.654441
0.655621
0.656802
0.657983
0.659164
0.660347
0.66153
0.662713
0.663897
0.665082
0.666267
0.667453
0.66864
0.669828
0.671015
0.672204
0.673393
0.674583
0.675774
0.676965
0.678157
0.67935
0.680543
0.681737
0.682932
0.684127
0.685323
0.68652
0.687717
0.688914
0.690112
0.691311
0.69251
0.693709
0.694909
0.696109
0.697311
0.698511
0.699713
0.700914
0.702117
0.703319
0.704523
0.705724
0.70693
0.708131
0.709339
0.710539
0.71175
0.712948
0.714164
0.715357
0.716582
0.717766
0.719006
0.720173
0.721438
0.722573
0.723882
0.724962
0.726345
0.727336
0.728825
0.729706
0.731306
0.73211
0.734083
0.186257
0.295952
0.400626
0.485233
0.545123
0.583895
0.607884
0.622246
0.630845
0.636026
0.639209
0.641247
0.642646
0.643712
0.644622
0.64547
0.646306
0.647157
0.648038
0.648961
0.649929
0.650941
0.651991
0.653074
0.654186
0.655327
0.6565
0.657702
0.658934
0.660189
0.661463
0.662754
0.664054
0.665363
0.666678
0.667987
0.669288
0.670583
0.671867
0.673138
0.674396
0.675642
0.676877
0.6781
0.679315
0.680522
0.681725
0.682925
0.684124
0.685325
0.686526
0.687727
0.68893
0.690132
0.691335
0.692539
0.693742
0.694945
0.696147
0.697346
0.698545
0.699744
0.700945
0.70215
0.703361
0.70458
0.705807
0.707046
0.708297
0.709562
0.710844
0.712143
0.713459
0.714791
0.716139
0.717501
0.718876