/*--------------------------------*- C++ -*----------------------------------*\
  =========                 |
  \\      /  F ield         | OpenFOAM: The Open Source CFD Toolbox
   \\    /   O peration     | Website:  https://openfoam.org
    \\  /    A nd           | Version:  7
     \\/     M anipulation  |
\*---------------------------------------------------------------------------*/
FoamFile
{
    version     2.0;
    format      ascii;
    class       volVectorField;
    location    "0.0725";
    object      U_0;
}
// * * * * * * * * * * * * * * * * * * * * * * * * * * * * * * * * * * * * * //

dimensions      [0 1 -1 0 0 0 0];

internalField   nonuniform List<vector> 
1440
(
(4.92866 0.0178188 0)
(4.88987 0.0623895 0)
(4.81068 0.101148 0)
(4.6943 0.130893 0)
(4.5503 0.151797 0)
(4.38801 0.164061 0)
(4.21461 0.168447 0)
(4.03542 0.166288 0)
(3.85509 0.15939 0)
(3.67694 0.149163 0)
(3.50458 0.137097 0)
(3.33955 0.124468 0)
(3.18353 0.111457 0)
(3.03739 0.0984822 0)
(2.90141 0.0859368 0)
(2.77569 0.0741091 0)
(2.66015 0.0631719 0)
(2.55457 0.0532065 0)
(2.45851 0.0442345 0)
(2.3715 0.0362289 0)
(2.29296 0.0291409 0)
(2.22228 0.0229166 0)
(2.15888 0.0174849 0)
(2.1021 0.0127788 0)
(2.05135 0.00874101 0)
(2.00604 0.00530118 0)
(1.96565 0.00238626 0)
(1.92963 -5.57294e-05 0)
(1.89748 -0.00207098 0)
(1.86881 -0.0037197 0)
(1.84322 -0.00506202 0)
(1.82031 -0.00613691 0)
(1.79973 -0.00696639 0)
(1.78122 -0.00757656 0)
(1.76454 -0.00800932 0)
(1.74947 -0.00831307 0)
(1.73579 -0.00852232 0)
(1.7233 -0.00864591 0)
(1.71183 -0.00867415 0)
(1.70127 -0.00859758 0)
(1.6915 -0.00842182 0)
(1.68245 -0.00816791 0)
(1.67401 -0.00786531 0)
(1.66611 -0.00754319 0)
(1.65869 -0.00722277 0)
(1.65169 -0.00691426 0)
(1.64509 -0.00661903 0)
(1.63886 -0.00633341 0)
(1.63299 -0.00605136 0)
(1.62745 -0.00576604 0)
(1.62222 -0.00547102 0)
(1.61727 -0.00516065 0)
(1.61257 -0.00482927 0)
(1.6081 -0.00447117 0)
(1.60381 -0.00408275 0)
(1.59968 -0.00366503 0)
(1.59567 -0.00322423 0)
(1.59175 -0.00277013 0)
(1.5879 -0.00231386 0)
(1.58409 -0.00186639 0)
(1.5803 -0.00143778 0)
(1.57654 -0.00103667 0)
(1.57281 -0.000669576 0)
(1.56914 -0.000340426 0)
(1.56556 -5.01603e-05 0)
(1.56207 0.000203375 0)
(1.55871 0.000424715 0)
(1.55549 0.000619242 0)
(1.55243 0.000791597 0)
(1.54956 0.000944671 0)
(1.54689 0.00107943 0)
(1.54445 0.00119542 0)
(1.54224 0.00129142 0)
(1.54028 0.00136596 0)
(1.53858 0.0014172 0)
(1.53717 0.00144232 0)
(1.53604 0.0014374 0)
(1.53519 0.00139854 0)
(1.53462 0.00132485 0)
(1.53429 0.00122095 0)
(1.53414 0.00109649 0)
(1.53412 0.000963163 0)
(1.53417 0.000832569 0)
(1.53424 0.000714042 0)
(1.53432 0.000610899 0)
(1.53438 0.000526447 0)
(1.53442 0.000467769 0)
(1.53442 0.000441838 0)
(1.53439 0.000453289 0)
(1.5343 0.000501876 0)
(1.53416 0.000580747 0)
(1.53398 0.000678293 0)
(1.53378 0.000781936 0)
(1.53357 0.000880127 0)
(1.53339 0.000964877 0)
(1.53323 0.0010348 0)
(1.5331 0.00108712 0)
(1.53298 0.0011187 0)
(1.53288 0.00113061 0)
(1.53276 0.00112695 0)
(1.53264 0.0011133 0)
(1.53251 0.0010951 0)
(1.53236 0.00107709 0)
(1.53221 0.00106232 0)
(1.53205 0.00105214 0)
(1.5319 0.001046 0)
(1.53176 0.00104334 0)
(1.53163 0.00104313 0)
(1.53152 0.00104508 0)
(1.53143 0.00104789 0)
(1.53135 0.00105158 0)
(1.53129 0.00105473 0)
(1.53123 0.00105813 0)
(1.53119 0.00105994 0)
(1.53115 0.00106178 0)
(1.53112 0.00106113 0)
(1.53109 0.00106087 0)
(1.53107 0.00105661 0)
(1.53105 0.00105411 0)
(1.53104 0.00104411 0)
(4.93893 0.0228807 0)
(4.95487 0.0622061 0)
(4.98278 0.0945966 0)
(5.01796 0.122129 0)
(5.05573 0.145944 0)
(5.09223 0.165808 0)
(5.12457 0.181313 0)
(5.15067 0.192494 0)
(5.16939 0.199794 0)
(5.18026 0.203734 0)
(5.18359 0.204758 0)
(5.17984 0.20331 0)
(5.16967 0.199665 0)
(5.15401 0.194123 0)
(5.1338 0.187076 0)
(5.10992 0.178935 0)
(5.08312 0.170058 0)
(5.0541 0.16073 0)
(5.02343 0.151187 0)
(4.99163 0.141625 0)
(4.95914 0.132204 0)
(4.92629 0.123063 0)
(4.89337 0.114301 0)
(4.86061 0.105988 0)
(4.82817 0.0981735 0)
(4.79618 0.0908792 0)
(4.76473 0.0841068 0)
(4.73391 0.07785 0)
(4.70374 0.0720997 0)
(4.67426 0.0668399 0)
(4.64549 0.0620459 0)
(4.61743 0.0576876 0)
(4.59005 0.0537308 0)
(4.56336 0.0501391 0)
(4.53733 0.0468775 0)
(4.51198 0.0439163 0)
(4.48727 0.0412307 0)
(4.4632 0.0387974 0)
(4.43972 0.0365911 0)
(4.41682 0.034587 0)
(4.39448 0.0327609 0)
(4.37271 0.0310962 0)
(4.35149 0.0295804 0)
(4.33079 0.0281987 0)
(4.31061 0.0269314 0)
(4.29093 0.025755 0)
(4.27174 0.0246463 0)
(4.25305 0.0235868 0)
(4.23485 0.0225666 0)
(4.21714 0.0215841 0)
(4.19993 0.0206421 0)
(4.18323 0.0197436 0)
(4.16703 0.0188898 0)
(4.15134 0.0180794 0)
(4.13617 0.0173098 0)
(4.12152 0.0165802 0)
(4.1074 0.0158952 0)
(4.09382 0.0152622 0)
(4.08077 0.0146847 0)
(4.06826 0.014155 0)
(4.05629 0.0136546 0)
(4.04486 0.0131629 0)
(4.03397 0.0126679 0)
(4.0236 0.0121686 0)
(4.01377 0.0116687 0)
(4.00446 0.0111665 0)
(3.99571 0.0106511 0)
(3.98751 0.0101077 0)
(3.97991 0.00952661 0)
(3.97289 0.00891023 0)
(3.96649 0.00827184 0)
(3.96071 0.00762793 0)
(3.95554 0.00698843 0)
(3.95099 0.00635157 0)
(3.94704 0.00570835 0)
(3.94371 0.00505499 0)
(3.94098 0.00440574 0)
(3.93885 0.00379695 0)
(3.93729 0.00327831 0)
(3.93625 0.00289525 0)
(3.93565 0.0026706 0)
(3.9354 0.00259615 0)
(3.93538 0.00263802 0)
(3.93548 0.00275013 0)
(3.93563 0.00289233 0)
(3.93576 0.00303894 0)
(3.93586 0.00317796 0)
(3.9359 0.00330641 0)
(3.93584 0.00341963 0)
(3.93567 0.00350426 0)
(3.93538 0.00354134 0)
(3.93499 0.00351652 0)
(3.93454 0.00342822 0)
(3.93407 0.00329112 0)
(3.93363 0.00313158 0)
(3.93322 0.0029759 0)
(3.93285 0.0028484 0)
(3.9325 0.00276593 0)
(3.93217 0.00273277 0)
(3.93184 0.00274371 0)
(3.93152 0.00278603 0)
(3.9312 0.00284295 0)
(3.93089 0.00289809 0)
(3.93058 0.00293886 0)
(3.93029 0.00295937 0)
(3.93002 0.00295879 0)
(3.92977 0.00294091 0)
(3.92956 0.00291017 0)
(3.92939 0.00287358 0)
(3.92924 0.00283471 0)
(3.92912 0.0028 0)
(3.92903 0.00276813 0)
(3.92896 0.00274508 0)
(3.9289 0.00272333 0)
(3.92884 0.00271262 0)
(3.92881 0.00269604 0)
(3.92876 0.00269434 0)
(3.92873 0.00267264 0)
(3.92871 0.00267601 0)
(3.92868 0.00263145 0)
(4.9384 0.0122411 0)
(4.9467 0.0360449 0)
(4.9634 0.0582517 0)
(4.98787 0.0783557 0)
(5.01887 0.0962056 0)
(5.05524 0.111616 0)
(5.09596 0.124324 0)
(5.13989 0.134154 0)
(5.18575 0.141124 0)
(5.23226 0.145369 0)
(5.27831 0.147106 0)
(5.32302 0.146589 0)
(5.36574 0.144192 0)
(5.40609 0.140313 0)
(5.4438 0.135316 0)
(5.47869 0.12952 0)
(5.51066 0.123199 0)
(5.53971 0.116585 0)
(5.56589 0.109869 0)
(5.58931 0.103208 0)
(5.61013 0.0967224 0)
(5.62851 0.0905087 0)
(5.64463 0.0846389 0)
(5.65867 0.0791582 0)
(5.6708 0.0740904 0)
(5.68122 0.0694442 0)
(5.69008 0.0652123 0)
(5.69753 0.0613769 0)
(5.70372 0.0579185 0)
(5.70878 0.0548158 0)
(5.71282 0.0520426 0)
(5.71595 0.0495706 0)
(5.71827 0.0473746 0)
(5.71985 0.0454291 0)
(5.72078 0.0437036 0)
(5.72112 0.0421653 0)
(5.72091 0.0407885 0)
(5.72022 0.0395575 0)
(5.71908 0.0384644 0)
(5.71753 0.0374998 0)
(5.71564 0.0366504 0)
(5.71342 0.035895 0)
(5.71092 0.0352081 0)
(5.70814 0.034566 0)
(5.70511 0.0339476 0)
(5.70184 0.033336 0)
(5.69835 0.0327199 0)
(5.69467 0.0320957 0)
(5.69079 0.0314634 0)
(5.68674 0.0308244 0)
(5.68254 0.0301804 0)
(5.67821 0.0295346 0)
(5.67375 0.0288917 0)
(5.6692 0.0282571 0)
(5.66456 0.0276323 0)
(5.65986 0.0270143 0)
(5.65512 0.0263986 0)
(5.65036 0.0257851 0)
(5.64558 0.0251769 0)
(5.64082 0.0245747 0)
(5.63609 0.0239701 0)
(5.63139 0.0233453 0)
(5.62675 0.0226803 0)
(5.62216 0.0219602 0)
(5.61765 0.0211802 0)
(5.61322 0.0203455 0)
(5.6089 0.0194655 0)
(5.6047 0.0185468 0)
(5.60063 0.0175889 0)
(5.5967 0.0165862 0)
(5.59291 0.0155347 0)
(5.58929 0.0144371 0)
(5.58583 0.0133017 0)
(5.58257 0.0121378 0)
(5.57954 0.010953 0)
(5.57674 0.00975581 0)
(5.5742 0.00856092 0)
(5.57191 0.00739028 0)
(5.56984 0.00627337 0)
(5.56796 0.00524871 0)
(5.56625 0.00436316 0)
(5.56471 0.00365583 0)
(5.56337 0.00313056 0)
(5.56229 0.00275408 0)
(5.56155 0.0024893 0)
(5.56119 0.00231456 0)
(5.56119 0.00222408 0)
(5.56146 0.00222953 0)
(5.56188 0.00234757 0)
(5.5623 0.00257322 0)
(5.56265 0.00286457 0)
(5.5629 0.00316151 0)
(5.56309 0.00342261 0)
(5.56329 0.00364239 0)
(5.56352 0.00383017 0)
(5.56379 0.00397778 0)
(5.56407 0.00407011 0)
(5.56429 0.00410547 0)
(5.56435 0.0040935 0)
(5.5642 0.00404648 0)
(5.5638 0.00397459 0)
(5.56317 0.00388483 0)
(5.56236 0.0037835 0)
(5.56145 0.00367777 0)
(5.56053 0.0035766 0)
(5.55966 0.00348716 0)
(5.55892 0.00341561 0)
(5.55832 0.00336204 0)
(5.55788 0.003326 0)
(5.55759 0.00330097 0)
(5.55742 0.00328717 0)
(5.55736 0.00327639 0)
(5.55737 0.00327461 0)
(5.55746 0.00326888 0)
(5.55755 0.00327298 0)
(5.55772 0.00326408 0)
(5.55782 0.00327062 0)
(5.55804 0.00325135 0)
(5.55811 0.00325724 0)
(5.55841 0.00321497 0)
(4.93839 0.0091078 0)
(4.94596 0.0269863 0)
(4.96081 0.0437397 0)
(4.98241 0.0587069 0)
(5.00977 0.0716102 0)
(5.0419 0.0824136 0)
(5.07793 0.0911214 0)
(5.11704 0.0977369 0)
(5.15842 0.10233 0)
(5.20127 0.105079 0)
(5.24487 0.106246 0)
(5.28861 0.106134 0)
(5.33201 0.105039 0)
(5.37465 0.103205 0)
(5.41619 0.100802 0)
(5.45635 0.0979539 0)
(5.49489 0.0947672 0)
(5.53164 0.09134 0)
(5.56653 0.0877588 0)
(5.59949 0.0840963 0)
(5.63054 0.0804138 0)
(5.65973 0.0767663 0)
(5.6871 0.0732034 0)
(5.71276 0.0697644 0)
(5.73679 0.0664776 0)
(5.7593 0.0633628 0)
(5.78041 0.0604336 0)
(5.80023 0.0576978 0)
(5.81886 0.0551591 0)
(5.8364 0.0528171 0)
(5.85296 0.0506655 0)
(5.86864 0.0486949 0)
(5.8835 0.0468962 0)
(5.89764 0.0452591 0)
(5.91112 0.0437693 0)
(5.924 0.0424086 0)
(5.93633 0.0411622 0)
(5.94816 0.0400225 0)
(5.95953 0.0389865 0)
(5.97047 0.0380479 0)
(5.98103 0.037195 0)
(5.99123 0.0364088 0)
(6.00108 0.0356699 0)
(6.01062 0.0349638 0)
(6.01987 0.0342805 0)
(6.02884 0.0336115 0)
(6.03754 0.0329487 0)
(6.04596 0.0322853 0)
(6.05411 0.0316201 0)
(6.062 0.0309575 0)
(6.06963 0.0303042 0)
(6.07702 0.0296648 0)
(6.08416 0.0290403 0)
(6.09106 0.0284259 0)
(6.09773 0.0278143 0)
(6.10418 0.0272005 0)
(6.11041 0.0265854 0)
(6.11643 0.0259756 0)
(6.12225 0.0253774 0)
(6.12787 0.02479 0)
(6.13331 0.0242038 0)
(6.13856 0.0236043 0)
(6.14362 0.0229796 0)
(6.14848 0.0223242 0)
(6.15315 0.0216383 0)
(6.15761 0.0209224 0)
(6.16184 0.0201728 0)
(6.16583 0.0193813 0)
(6.16959 0.0185388 0)
(6.1731 0.0176422 0)
(6.17637 0.0166984 0)
(6.17941 0.015722 0)
(6.18219 0.0147258 0)
(6.1847 0.0137111 0)
(6.18693 0.012668 0)
(6.18886 0.0115889 0)
(6.19051 0.0104871 0)
(6.19191 0.00940311 0)
(6.19311 0.00839552 0)
(6.19413 0.00752244 0)
(6.195 0.00681941 0)
(6.19571 0.0062796 0)
(6.19629 0.00585109 0)
(6.19678 0.00546292 0)
(6.19721 0.00506947 0)
(6.19762 0.00468594 0)
(6.19805 0.00438009 0)
(6.19852 0.00422304 0)
(6.19904 0.00423692 0)
(6.19962 0.00436961 0)
(6.20024 0.00451273 0)
(6.20087 0.00455277 0)
(6.20149 0.00442564 0)
(6.20211 0.00414483 0)
(6.20275 0.00379655 0)
(6.20345 0.00350754 0)
(6.20422 0.00338949 0)
(6.20504 0.00350326 0)
(6.20586 0.00384879 0)
(6.20661 0.00436382 0)
(6.2072 0.00494368 0)
(6.20759 0.00547512 0)
(6.20775 0.00586693 0)
(6.20769 0.00606705 0)
(6.20746 0.00606709 0)
(6.20711 0.00589224 0)
(6.20671 0.00559039 0)
(6.20631 0.00521678 0)
(6.20597 0.00482581 0)
(6.20573 0.00445593 0)
(6.20559 0.00413619 0)
(6.20559 0.00387461 0)
(6.20566 0.00367879 0)
(6.20588 0.00353417 0)
(6.2061 0.00344212 0)
(6.20651 0.00337509 0)
(6.20678 0.00334294 0)
(6.20737 0.00330908 0)
(6.20754 0.00330106 0)
(6.20839 0.003269 0)
(4.93834 0.00531359 0)
(4.94516 0.0156297 0)
(4.95874 0.0252089 0)
(4.97875 0.033745 0)
(5.00445 0.0411203 0)
(5.03492 0.0473344 0)
(5.06924 0.0524073 0)
(5.10661 0.0563446 0)
(5.14624 0.0591731 0)
(5.1874 0.0609765 0)
(5.22941 0.0618835 0)
(5.27169 0.0620326 0)
(5.31371 0.0615453 0)
(5.35507 0.0605207 0)
(5.3954 0.0590332 0)
(5.43444 0.0571468 0)
(5.472 0.0549328 0)
(5.50793 0.0524756 0)
(5.54218 0.0498624 0)
(5.5747 0.047177 0)
(5.6055 0.044491 0)
(5.63461 0.0418583 0)
(5.6621 0.0393179 0)
(5.68805 0.036898 0)
(5.71253 0.0346181 0)
(5.73564 0.0324907 0)
(5.75748 0.0305224 0)
(5.77814 0.0287147 0)
(5.79772 0.0270653 0)
(5.81631 0.0255702 0)
(5.834 0.0242236 0)
(5.85088 0.0230173 0)
(5.86701 0.0219407 0)
(5.88248 0.0209831 0)
(5.89735 0.0201337 0)
(5.91168 0.0193812 0)
(5.92552 0.0187142 0)
(5.93892 0.0181228 0)
(5.95191 0.0175986 0)
(5.96453 0.0171349 0)
(5.97681 0.0167235 0)
(5.98879 0.0163591 0)
(6.0005 0.0160374 0)
(6.01194 0.0157505 0)
(6.02314 0.0154882 0)
(6.03412 0.0152404 0)
(6.04487 0.0149997 0)
(6.05541 0.0147614 0)
(6.06574 0.0145242 0)
(6.07585 0.0142888 0)
(6.08575 0.0140565 0)
(6.09544 0.0138295 0)
(6.10493 0.0136097 0)
(6.11422 0.0133968 0)
(6.12332 0.0131872 0)
(6.13223 0.0129758 0)
(6.14095 0.012761 0)
(6.14948 0.0125454 0)
(6.15781 0.0123328 0)
(6.16596 0.0121236 0)
(6.17391 0.0119121 0)
(6.18167 0.0116884 0)
(6.18922 0.0114428 0)
(6.19654 0.0111692 0)
(6.20363 0.0108658 0)
(6.21048 0.0105333 0)
(6.21706 0.0101721 0)
(6.22336 0.00977916 0)
(6.22936 0.00934904 0)
(6.23503 0.00887763 0)
(6.24036 0.00836766 0)
(6.24534 0.00783008 0)
(6.24996 0.00727851 0)
(6.25421 0.0067204 0)
(6.25806 0.00615288 0)
(6.2615 0.0055686 0)
(6.26449 0.00496804 0)
(6.26706 0.00436742 0)
(6.26924 0.00379488 0)
(6.27109 0.00328083 0)
(6.27267 0.00284826 0)
(6.27403 0.00250381 0)
(6.27518 0.00222913 0)
(6.27613 0.00198845 0)
(6.27686 0.00175501 0)
(6.27739 0.0015309 0)
(6.27778 0.00134902 0)
(6.27812 0.00125601 0)
(6.27851 0.00128387 0)
(6.27903 0.00142919 0)
(6.2797 0.00165022 0)
(6.28048 0.00188393 0)
(6.28128 0.00207474 0)
(6.28201 0.00219643 0)
(6.28262 0.00225653 0)
(6.2831 0.00228798 0)
(6.28352 0.00233528 0)
(6.28397 0.00243815 0)
(6.28454 0.00261859 0)
(6.28531 0.00287587 0)
(6.2863 0.00318796 0)
(6.2875 0.00351751 0)
(6.28886 0.00382222 0)
(6.29029 0.0040654 0)
(6.2917 0.00422322 0)
(6.29302 0.00428635 0)
(6.2942 0.00425914 0)
(6.29523 0.00415528 0)
(6.2961 0.00399667 0)
(6.29683 0.0038046 0)
(6.29745 0.00360183 0)
(6.29802 0.00340365 0)
(6.2985 0.00322517 0)
(6.29904 0.00306922 0)
(6.29947 0.00294354 0)
(6.30006 0.00283858 0)
(6.30043 0.00276348 0)
(6.30117 0.00269599 0)
(6.30139 0.00266054 0)
(6.3024 0.00260514 0)
(4.93833 0.00175575 0)
(4.94483 0.00517431 0)
(4.95785 0.00837158 0)
(4.97716 0.0112438 0)
(5.00209 0.0137487 0)
(5.03179 0.0158847 0)
(5.06535 0.0176574 0)
(5.10194 0.0190677 0)
(5.14082 0.0201204 0)
(5.18128 0.0208355 0)
(5.22265 0.021246 0)
(5.26435 0.0213866 0)
(5.30586 0.0212905 0)
(5.34675 0.020992 0)
(5.38668 0.0205318 0)
(5.42538 0.0199524 0)
(5.46267 0.0192929 0)
(5.49843 0.0185873 0)
(5.53257 0.0178696 0)
(5.56504 0.017169 0)
(5.59585 0.0165077 0)
(5.62499 0.0158997 0)
(5.65251 0.0153515 0)
(5.67846 0.0148646 0)
(5.70295 0.014437 0)
(5.72604 0.0140634 0)
(5.74785 0.013737 0)
(5.76847 0.0134502 0)
(5.78799 0.013196 0)
(5.80652 0.0129699 0)
(5.82414 0.012769 0)
(5.84094 0.0125903 0)
(5.857 0.0124301 0)
(5.8724 0.012285 0)
(5.8872 0.0121525 0)
(5.90145 0.0120313 0)
(5.91523 0.0119201 0)
(5.92856 0.0118181 0)
(5.94149 0.0117252 0)
(5.95406 0.0116419 0)
(5.9663 0.0115679 0)
(5.97824 0.0115026 0)
(5.98991 0.0114446 0)
(6.00132 0.0113911 0)
(6.01249 0.0113388 0)
(6.02344 0.0112841 0)
(6.03417 0.0112233 0)
(6.0447 0.0111544 0)
(6.05501 0.0110752 0)
(6.06512 0.0109842 0)
(6.07502 0.0108817 0)
(6.08473 0.0107697 0)
(6.09425 0.0106497 0)
(6.10358 0.0105223 0)
(6.11272 0.0103868 0)
(6.12168 0.0102415 0)
(6.13045 0.0100865 0)
(6.13904 0.00992381 0)
(6.14745 0.00975572 0)
(6.15567 0.00958317 0)
(6.16371 0.00940498 0)
(6.17155 0.00921886 0)
(6.17919 0.00902321 0)
(6.18662 0.00881797 0)
(6.19381 0.00860372 0)
(6.20077 0.00838006 0)
(6.20748 0.00814491 0)
(6.21391 0.00789565 0)
(6.22004 0.00763128 0)
(6.22585 0.00735424 0)
(6.23131 0.00707009 0)
(6.23642 0.00678448 0)
(6.24116 0.00649953 0)
(6.24553 0.00621228 0)
(6.24951 0.0059171 0)
(6.25309 0.00561104 0)
(6.25625 0.00529773 0)
(6.259 0.00498693 0)
(6.26136 0.00469282 0)
(6.26338 0.00443309 0)
(6.26511 0.00421096 0)
(6.26662 0.00401894 0)
(6.26791 0.00385174 0)
(6.26901 0.00371018 0)
(6.2699 0.00360253 0)
(6.27059 0.00354015 0)
(6.2711 0.00352618 0)
(6.27152 0.00354654 0)
(6.27195 0.00357326 0)
(6.27247 0.00357367 0)
(6.27315 0.00352126 0)
(6.27396 0.00340739 0)
(6.27483 0.00324323 0)
(6.27567 0.00305269 0)
(6.2764 0.00286585 0)
(6.27698 0.00271063 0)
(6.27745 0.00260655 0)
(6.27788 0.00256462 0)
(6.27839 0.00258986 0)
(6.27911 0.00268013 0)
(6.28013 0.00282205 0)
(6.2815 0.0029922 0)
(6.28319 0.0031637 0)
(6.28515 0.00330985 0)
(6.28727 0.00340914 0)
(6.28944 0.00345052 0)
(6.29157 0.00343199 0)
(6.29357 0.00336026 0)
(6.29537 0.00325152 0)
(6.29698 0.00311475 0)
(6.29836 0.00296411 0)
(6.29959 0.00281317 0)
(6.3006 0.00267305 0)
(6.30156 0.00254923 0)
(6.30231 0.00244586 0)
(6.30314 0.00236097 0)
(6.30369 0.00229727 0)
(6.30455 0.00224457 0)
(6.30485 0.00221417 0)
(6.30595 0.0021751 0)
(4.93833 -0.00167917 0)
(4.94483 -0.00495146 0)
(4.95783 -0.00802093 0)
(4.97713 -0.0107913 0)
(5.00205 -0.013219 0)
(5.03174 -0.0152928 0)
(5.0653 -0.017007 0)
(5.10189 -0.0183546 0)
(5.14077 -0.0193381 0)
(5.18123 -0.019978 0)
(5.2226 -0.0203103 0)
(5.2643 -0.0203771 0)
(5.30581 -0.0202155 0)
(5.34671 -0.0198512 0)
(5.38667 -0.0193036 0)
(5.4254 -0.0185946 0)
(5.46272 -0.0177568 0)
(5.49848 -0.0168348 0)
(5.5326 -0.0158756 0)
(5.56504 -0.014925 0)
(5.59579 -0.014019 0)
(5.62488 -0.0131793 0)
(5.65236 -0.0124159 0)
(5.67828 -0.0117305 0)
(5.70274 -0.0111205 0)
(5.72582 -0.0105805 0)
(5.74761 -0.0101035 0)
(5.76822 -0.00968125 0)
(5.78774 -0.00930624 0)
(5.80627 -0.0089726 0)
(5.82389 -0.00867527 0)
(5.8407 -0.00840884 0)
(5.85677 -0.0081675 0)
(5.87217 -0.00794574 0)
(5.88698 -0.00773915 0)
(5.90124 -0.00754477 0)
(5.91502 -0.00736088 0)
(5.92836 -0.00718591 0)
(5.9413 -0.00701762 0)
(5.95388 -0.00685351 0)
(5.96613 -0.0066921 0)
(5.97807 -0.00653275 0)
(5.98974 -0.00637522 0)
(6.00115 -0.00621957 0)
(6.01232 -0.00606695 0)
(6.02326 -0.00591899 0)
(6.03399 -0.00577734 0)
(6.0445 -0.00564211 0)
(6.0548 -0.00551247 0)
(6.06489 -0.00538819 0)
(6.07478 -0.00526974 0)
(6.08447 -0.00515774 0)
(6.09397 -0.00505167 0)
(6.10329 -0.00494992 0)
(6.11242 -0.00484951 0)
(6.12136 -0.0047467 0)
(6.13013 -0.00463869 0)
(6.13871 -0.0045242 0)
(6.14711 -0.00440285 0)
(6.15532 -0.00427416 0)
(6.16336 -0.00413704 0)
(6.17119 -0.0039903 0)
(6.17883 -0.00383384 0)
(6.18624 -0.00366935 0)
(6.19343 -0.00350013 0)
(6.20037 -0.00332936 0)
(6.20707 -0.0031578 0)
(6.21349 -0.00298259 0)
(6.21961 -0.00279876 0)
(6.2254 -0.0026027 0)
(6.23085 -0.00239544 0)
(6.23594 -0.00218264 0)
(6.24068 -0.00197031 0)
(6.24504 -0.00175946 0)
(6.24901 -0.00154477 0)
(6.25258 -0.00131894 0)
(6.25571 -0.00108009 0)
(6.25843 -0.000838772 0)
(6.26079 -0.000619787 0)
(6.26283 -0.000454502 0)
(6.26459 -0.000348052 0)
(6.26612 -0.000278704 0)
(6.26742 -0.000212054 0)
(6.26851 -0.000113034 0)
(6.26938 3.2119e-05 0)
(6.27004 0.000209064 0)
(6.27055 0.000378558 0)
(6.27098 0.000494152 0)
(6.27142 0.000527095 0)
(6.27196 0.000484692 0)
(6.27265 0.000410986 0)
(6.27347 0.000367119 0)
(6.27437 0.000406874 0)
(6.27525 0.000553272 0)
(6.27602 0.000788798 0)
(6.27665 0.00105845 0)
(6.27717 0.00128862 0)
(6.27766 0.00141241 0)
(6.27824 0.00138928 0)
(6.27901 0.00121888 0)
(6.28007 0.000940137 0)
(6.28145 0.000619971 0)
(6.28314 0.000328126 0)
(6.28506 0.000122267 0)
(6.28714 3.53456e-05 0)
(6.28927 6.96305e-05 0)
(6.29136 0.000204851 0)
(6.29335 0.000406719 0)
(6.29516 0.000632871 0)
(6.29679 0.000857872 0)
(6.2982 0.00105835 0)
(6.29945 0.00121551 0)
(6.3005 0.00132816 0)
(6.30148 0.00140306 0)
(6.30225 0.00144632 0)
(6.3031 0.00146841 0)
(6.30366 0.00147571 0)
(6.30452 0.00147645 0)
(6.30482 0.00147386 0)
(6.30592 0.0014699 0)
(4.93834 -0.00522605 0)
(4.94514 -0.0153857 0)
(4.95868 -0.0248443 0)
(4.97866 -0.033301 0)
(5.00433 -0.0406255 0)
(5.03478 -0.0467996 0)
(5.06911 -0.0518279 0)
(5.10648 -0.0557106 0)
(5.14612 -0.0584741 0)
(5.18729 -0.0601987 0)
(5.2293 -0.0610086 0)
(5.27156 -0.0610412 0)
(5.31357 -0.0604235 0)
(5.35493 -0.0592637 0)
(5.3953 -0.0576558 0)
(5.43439 -0.0556845 0)
(5.472 -0.053425 0)
(5.508 -0.0509456 0)
(5.54228 -0.0483151 0)
(5.57483 -0.0455983 0)
(5.60565 -0.0428542 0)
(5.63478 -0.0401353 0)
(5.66227 -0.0374862 0)
(5.6882 -0.034942 0)
(5.71266 -0.0325286 0)
(5.73574 -0.0302632 0)
(5.75755 -0.0281564 0)
(5.77817 -0.0262125 0)
(5.7977 -0.0244314 0)
(5.81625 -0.0228099 0)
(5.8339 -0.0213418 0)
(5.85073 -0.0200184 0)
(5.86683 -0.0188283 0)
(5.88226 -0.0177594 0)
(5.8971 -0.0167995 0)
(5.9114 -0.0159367 0)
(5.92521 -0.0151594 0)
(5.93858 -0.0144564 0)
(5.95154 -0.0138171 0)
(5.96414 -0.0132318 0)
(5.97641 -0.0126952 0)
(5.98838 -0.0122029 0)
(6.00006 -0.011749 0)
(6.01148 -0.0113261 0)
(6.02265 -0.0109276 0)
(6.03358 -0.0105498 0)
(6.04429 -0.0101915 0)
(6.05479 -0.00985352 0)
(6.06507 -0.00953685 0)
(6.07514 -0.00924129 0)
(6.085 -0.00896643 0)
(6.09466 -0.00871227 0)
(6.10412 -0.00847795 0)
(6.11339 -0.00826009 0)
(6.12248 -0.00805282 0)
(6.13137 -0.00785003 0)
(6.14008 -0.00764825 0)
(6.1486 -0.00744716 0)
(6.15693 -0.00724743 0)
(6.16508 -0.00704749 0)
(6.17304 -0.00684193 0)
(6.1808 -0.00662284 0)
(6.18835 -0.00638344 0)
(6.19567 -0.00612145 0)
(6.20277 -0.00583952 0)
(6.20962 -0.00554205 0)
(6.21621 -0.00523001 0)
(6.22252 -0.00489795 0)
(6.22852 -0.00453566 0)
(6.23419 -0.00413428 0)
(6.23952 -0.00369423 0)
(6.24449 -0.00322761 0)
(6.24912 -0.00275077 0)
(6.25339 -0.00227254 0)
(6.25727 -0.00178813 0)
(6.26073 -0.00128528 0)
(6.26375 -0.000760871 0)
(6.26633 -0.000232528 0)
(6.26853 0.000264192 0)
(6.27041 0.000687137 0)
(6.27203 0.00101682 0)
(6.27341 0.00126008 0)
(6.27454 0.00144509 0)
(6.27545 0.00162284 0)
(6.27614 0.00184221 0)
(6.27668 0.00211095 0)
(6.27713 0.00237861 0)
(6.27758 0.00255269 0)
(6.27809 0.00255046 0)
(6.27868 0.00234424 0)
(6.27935 0.00198196 0)
(6.28004 0.0015755 0)
(6.28068 0.00125694 0)
(6.28124 0.00109809 0)
(6.28169 0.00110857 0)
(6.28209 0.0012264 0)
(6.28248 0.00134301 0)
(6.28296 0.00135082 0)
(6.2836 0.0011905 0)
(6.28444 0.000868483 0)
(6.2855 0.000439558 0)
(6.28672 -1.56572e-05 0)
(6.28805 -0.000419875 0)
(6.28941 -0.000713751 0)
(6.29074 -0.000863917 0)
(6.29198 -0.000868431 0)
(6.29311 -0.000750269 0)
(6.29412 -0.000547394 0)
(6.29502 -0.000307241 0)
(6.29585 -5.87015e-05 0)
(6.2966 0.000174201 0)
(6.29734 0.000383789 0)
(6.29801 0.00055675 0)
(6.29873 0.000692898 0)
(6.29933 0.000788327 0)
(6.30008 0.000858449 0)
(6.30058 0.000899467 0)
(6.30142 0.000935084 0)
(6.3017 0.000948129 0)
(6.3028 0.000977525 0)
(4.93838 -0.00898439 0)
(4.94589 -0.0266358 0)
(4.96066 -0.0432172 0)
(4.98217 -0.0580823 0)
(5.00948 -0.070934 0)
(5.0416 -0.0817036 0)
(5.07764 -0.0903769 0)
(5.11677 -0.0969576 0)
(5.15817 -0.101521 0)
(5.20104 -0.104244 0)
(5.24467 -0.105369 0)
(5.28845 -0.105157 0)
(5.33186 -0.103857 0)
(5.3745 -0.101698 0)
(5.41601 -0.0988863 0)
(5.45611 -0.0956003 0)
(5.49459 -0.0919849 0)
(5.53131 -0.0881549 0)
(5.56617 -0.0842015 0)
(5.59912 -0.080199 0)
(5.63016 -0.076211 0)
(5.65932 -0.072295 0)
(5.68667 -0.0685006 0)
(5.71229 -0.0648654 0)
(5.73629 -0.0614151 0)
(5.75878 -0.0581656 0)
(5.77986 -0.0551269 0)
(5.79965 -0.0523046 0)
(5.81826 -0.0496998 0)
(5.83579 -0.0473079 0)
(5.85235 -0.0451197 0)
(5.86803 -0.043123 0)
(5.88291 -0.0413045 0)
(5.89707 -0.03965 0)
(5.91058 -0.0381441 0)
(5.9235 -0.0367715 0)
(5.93588 -0.0355187 0)
(5.94777 -0.0343733 0)
(5.95921 -0.0333229 0)
(5.97024 -0.0323548 0)
(5.98089 -0.0314539 0)
(5.99117 -0.0306083 0)
(6.00113 -0.0298079 0)
(6.01078 -0.0290448 0)
(6.02013 -0.0283124 0)
(6.02921 -0.0276049 0)
(6.03801 -0.0269163 0)
(6.04654 -0.0262434 0)
(6.0548 -0.025587 0)
(6.06281 -0.0249508 0)
(6.07058 -0.0243399 0)
(6.07812 -0.0237575 0)
(6.08542 -0.0232025 0)
(6.09251 -0.0226678 0)
(6.09937 -0.0221438 0)
(6.10601 -0.0216235 0)
(6.11245 -0.021105 0)
(6.11869 -0.0205909 0)
(6.12475 -0.0200826 0)
(6.13061 -0.0195755 0)
(6.1363 -0.0190593 0)
(6.14179 -0.0185216 0)
(6.14708 -0.0179541 0)
(6.15218 -0.0173549 0)
(6.15707 -0.0167265 0)
(6.16175 -0.0160709 0)
(6.1662 -0.0153849 0)
(6.17042 -0.0146603 0)
(6.17438 -0.0138876 0)
(6.1781 -0.0130634 0)
(6.18156 -0.0121963 0)
(6.18479 -0.0113027 0)
(6.18777 -0.0103939 0)
(6.19048 -0.00946354 0)
(6.1929 -0.00849342 0)
(6.195 -0.00747487 0)
(6.19679 -0.00643049 0)
(6.19833 -0.00541915 0)
(6.19967 -0.00451224 0)
(6.20085 -0.00374789 0)
(6.20187 -0.00312827 0)
(6.20271 -0.00262429 0)
(6.20334 -0.00218486 0)
(6.20383 -0.00175904 0)
(6.20426 -0.00132763 0)
(6.20474 -0.000905645 0)
(6.20531 -0.000546695 0)
(6.20593 -0.000317056 0)
(6.20658 -0.000256508 0)
(6.20718 -0.000342107 0)
(6.20774 -0.000487144 0)
(6.20829 -0.00057295 0)
(6.20887 -0.000515527 0)
(6.20949 -0.000284445 0)
(6.21023 4.85216e-05 0)
(6.21109 0.000343807 0)
(6.21206 0.000465262 0)
(6.21308 0.000333205 0)
(6.21409 -5.19921e-05 0)
(6.21496 -0.000616413 0)
(6.2156 -0.00124178 0)
(6.21594 -0.00180826 0)
(6.21598 -0.00221444 0)
(6.21577 -0.00240159 0)
(6.2154 -0.00236853 0)
(6.21495 -0.00215227 0)
(6.21451 -0.00181321 0)
(6.21416 -0.00141539 0)
(6.21391 -0.00101357 0)
(6.2138 -0.000651863 0)
(6.21382 -0.000356462 0)
(6.21398 -0.000124428 0)
(6.2142 3.63644e-05 0)
(6.21454 0.000144423 0)
(6.21486 0.000204349 0)
(6.21535 0.000248802 0)
(6.21567 0.000263833 0)
(6.21631 0.000291842 0)
(6.21651 0.000292058 0)
(6.21739 0.000330042 0)
(4.9384 -0.0121549 0)
(4.9466 -0.0358131 0)
(4.96315 -0.0579351 0)
(4.98745 -0.0780053 0)
(5.01835 -0.095828 0)
(5.05469 -0.111192 0)
(5.09539 -0.123846 0)
(5.13928 -0.133643 0)
(5.18508 -0.140634 0)
(5.23154 -0.144993 0)
(5.27756 -0.146959 0)
(5.32229 -0.146812 0)
(5.36509 -0.144828 0)
(5.40548 -0.1413 0)
(5.44316 -0.136543 0)
(5.47793 -0.130866 0)
(5.50974 -0.124556 0)
(5.53859 -0.117868 0)
(5.56457 -0.111015 0)
(5.5878 -0.104172 0)
(5.60841 -0.0974763 0)
(5.6266 -0.0910344 0)
(5.64253 -0.0849261 0)
(5.6564 -0.0792041 0)
(5.66839 -0.0738974 0)
(5.67869 -0.0690165 0)
(5.68746 -0.0645576 0)
(5.69485 -0.0605079 0)
(5.701 -0.0568476 0)
(5.70605 -0.0535532 0)
(5.71012 -0.0505991 0)
(5.7133 -0.0479571 0)
(5.71571 -0.0455963 0)
(5.71741 -0.043483 0)
(5.71847 -0.0415828 0)
(5.71896 -0.0398691 0)
(5.71894 -0.0383252 0)
(5.71846 -0.0369328 0)
(5.71758 -0.0356703 0)
(5.71634 -0.0345138 0)
(5.71476 -0.0334405 0)
(5.71288 -0.032434 0)
(5.71072 -0.0314873 0)
(5.70831 -0.0305962 0)
(5.70566 -0.029753 0)
(5.70281 -0.0289471 0)
(5.69976 -0.0281704 0)
(5.69654 -0.0274188 0)
(5.69316 -0.0266914 0)
(5.68963 -0.0259872 0)
(5.68597 -0.0253051 0)
(5.6822 -0.0246444 0)
(5.67833 -0.0240053 0)
(5.67436 -0.023387 0)
(5.67033 -0.022786 0)
(5.66623 -0.0221966 0)
(5.6621 -0.0216139 0)
(5.65795 -0.0210349 0)
(5.65379 -0.0204571 0)
(5.64964 -0.0198751 0)
(5.64552 -0.0192793 0)
(5.64142 -0.0186573 0)
(5.63737 -0.0179976 0)
(5.63337 -0.0172935 0)
(5.62943 -0.0165452 0)
(5.62556 -0.0157576 0)
(5.62178 -0.014933 0)
(5.61808 -0.0140716 0)
(5.61448 -0.0131703 0)
(5.611 -0.0122276 0)
(5.60766 -0.0112484 0)
(5.60447 -0.0102402 0)
(5.60144 -0.00920153 0)
(5.59858 -0.00812411 0)
(5.5959 -0.00700524 0)
(5.59344 -0.00585806 0)
(5.5912 -0.00471576 0)
(5.58919 -0.00362057 0)
(5.58737 -0.0026005 0)
(5.58571 -0.00166884 0)
(5.58419 -0.000839256 0)
(5.58284 -0.000147278 0)
(5.58169 0.000349953 0)
(5.58079 0.000629653 0)
(5.5802 0.000756833 0)
(5.57998 0.000835439 0)
(5.5801 0.000939615 0)
(5.58049 0.00106981 0)
(5.58101 0.00115396 0)
(5.58151 0.00110416 0)
(5.5819 0.000876272 0)
(5.58214 0.000486058 0)
(5.58233 6.4759e-06 0)
(5.58256 -0.000435096 0)
(5.58288 -0.000750287 0)
(5.58331 -0.000914875 0)
(5.5838 -0.000955612 0)
(5.58421 -0.000905608 0)
(5.58445 -0.00079303 0)
(5.58444 -0.000656101 0)
(5.58413 -0.000521355 0)
(5.58357 -0.000400883 0)
(5.58281 -0.000297839 0)
(5.58195 -0.000217427 0)
(5.58108 -0.000159542 0)
(5.58026 -0.000116512 0)
(5.57957 -8.3818e-05 0)
(5.57904 -5.76635e-05 0)
(5.57866 -3.83497e-05 0)
(5.57845 -2.24233e-05 0)
(5.57835 -1.33874e-05 0)
(5.57836 -8.46175e-06 0)
(5.57843 -1.20942e-05 0)
(5.57857 -9.66681e-06 0)
(5.57871 -1.6215e-05 0)
(5.57892 -9.14918e-06 0)
(5.57905 -1.99823e-05 0)
(5.57931 -3.24007e-06 0)
(5.57938 -1.50505e-05 0)
(5.57973 2.70952e-05 0)
(4.93891 -0.0223943 0)
(4.95455 -0.0611631 0)
(4.98201 -0.0934779 0)
(5.01672 -0.121143 0)
(5.05402 -0.145049 0)
(5.08998 -0.164884 0)
(5.12167 -0.180241 0)
(5.14694 -0.191159 0)
(5.16471 -0.198079 0)
(5.1745 -0.201498 0)
(5.17669 -0.201902 0)
(5.17177 -0.199757 0)
(5.16061 -0.195459 0)
(5.14409 -0.189403 0)
(5.12307 -0.181983 0)
(5.09838 -0.173565 0)
(5.07081 -0.16447 0)
(5.04103 -0.154969 0)
(5.00968 -0.145296 0)
(4.97725 -0.135645 0)
(4.94418 -0.126169 0)
(4.91083 -0.117006 0)
(4.87748 -0.108247 0)
(4.84434 -0.0999597 0)
(4.81159 -0.0921877 0)
(4.77935 -0.0849491 0)
(4.74771 -0.0782464 0)
(4.71675 -0.0720731 0)
(4.68649 -0.0664168 0)
(4.65697 -0.0612581 0)
(4.6282 -0.0565703 0)
(4.60017 -0.0523183 0)
(4.57287 -0.0484637 0)
(4.5463 -0.0449679 0)
(4.52044 -0.0417969 0)
(4.49527 -0.0389193 0)
(4.47077 -0.0363029 0)
(4.44693 -0.0339173 0)
(4.42374 -0.0317342 0)
(4.40118 -0.0297271 0)
(4.37924 -0.027876 0)
(4.3579 -0.0261656 0)
(4.33714 -0.0245876 0)
(4.31695 -0.0231352 0)
(4.29734 -0.0217982 0)
(4.27828 -0.0205621 0)
(4.25978 -0.0194111 0)
(4.24183 -0.0183327 0)
(4.22442 -0.017321 0)
(4.20755 -0.0163748 0)
(4.1912 -0.0154939 0)
(4.17538 -0.0146753 0)
(4.16006 -0.0139135 0)
(4.14525 -0.0132019 0)
(4.13095 -0.0125361 0)
(4.11715 -0.0119165 0)
(4.10385 -0.0113474 0)
(4.09106 -0.0108321 0)
(4.07877 -0.0103657 0)
(4.06699 -0.00993294 0)
(4.05571 -0.00951416 0)
(4.04495 -0.00909457 0)
(4.03468 -0.00866844 0)
(4.02492 -0.00823753 0)
(4.01564 -0.00780241 0)
(4.00688 -0.00735688 0)
(3.99863 -0.00689592 0)
(3.9909 -0.00641531 0)
(3.98373 -0.00591525 0)
(3.97711 -0.00540167 0)
(3.97107 -0.00488149 0)
(3.9656 -0.00435746 0)
(3.9607 -0.0038252 0)
(3.95637 -0.00327624 0)
(3.95262 -0.00271046 0)
(3.94945 -0.00214484 0)
(3.94687 -0.00160689 0)
(3.94487 -0.00112665 0)
(3.9434 -0.000736486 0)
(3.94241 -0.000468592 0)
(3.94182 -0.000334219 0)
(3.94156 -0.000314221 0)
(3.94152 -0.000371061 0)
(3.94163 -0.000476752 0)
(3.94178 -0.00060035 0)
(3.9419 -0.00072009 0)
(3.94198 -0.000819347 0)
(3.94206 -0.000894849 0)
(3.94214 -0.000953401 0)