/*--------------------------------*- C++ -*----------------------------------*\
  =========                 |
  \\      /  F ield         | OpenFOAM: The Open Source CFD Toolbox
   \\    /   O peration     | Website:  https://openfoam.org
    \\  /    A nd           | Version:  7
     \\/     M anipulation  |
\*---------------------------------------------------------------------------*/
FoamFile
{
    version     2.0;
    format      ascii;
    class       volScalarField;
    location    "1.3";
    object      rho;
}
// * * * * * * * * * * * * * * * * * * * * * * * * * * * * * * * * * * * * * //

dimensions      [1 -3 0 0 0 0 0];

internalField   nonuniform List<scalar> 
3600
(
1.23135
1.23132
1.23127
1.23123
1.23119
1.23115
1.23111
1.23107
1.23104
1.23099
1.23095
1.23092
1.23089
1.23084
1.2308
1.23075
1.23072
1.23071
1.2307
1.23069
1.23068
1.23068
1.23069
1.2307
1.23071
1.23072
1.23074
1.23075
1.23076
1.23077
1.23078
1.23079
1.2308
1.23081
1.23082
1.23082
1.23083
1.23084
1.23084
1.23084
1.23085
1.23085
1.23085
1.23085
1.23085
1.23084
1.23084
1.23083
1.23082
1.23081
1.2308
1.2308
1.23077
1.23079
1.23071
1.23084
1.23056
1.23108
1.23002
1.23207
1.23135
1.23131
1.23127
1.23123
1.23119
1.23115
1.2311
1.23106
1.23101
1.23096
1.23092
1.23087
1.23082
1.23077
1.23071
1.23066
1.23062
1.23059
1.23055
1.2305
1.23043
1.23036
1.2303
1.23026
1.23023
1.23023
1.23023
1.23025
1.23028
1.23031
1.23034
1.23038
1.23041
1.23045
1.2305
1.23054
1.23059
1.23063
1.23067
1.2307
1.23074
1.23079
1.23084
1.23089
1.23094
1.23099
1.23102
1.23104
1.23105
1.23106
1.23105
1.23106
1.23103
1.23104
1.23097
1.231
1.23088
1.23097
1.23077
1.23097
1.23134
1.2313
1.23126
1.23122
1.23118
1.23114
1.2311
1.23106
1.23101
1.23096
1.23092
1.23088
1.23083
1.23078
1.23072
1.23067
1.23063
1.2306
1.23058
1.23056
1.23051
1.23045
1.23036
1.23028
1.2302
1.23014
1.2301
1.23008
1.23009
1.2301
1.23013
1.23015
1.23019
1.23022
1.23026
1.23031
1.23035
1.23039
1.23043
1.23047
1.23051
1.23057
1.23063
1.23069
1.23074
1.23078
1.23082
1.23085
1.23089
1.23094
1.231
1.23107
1.23114
1.23121
1.23127
1.23132
1.23135
1.23136
1.23137
1.23135
1.23133
1.23129
1.23125
1.23121
1.23117
1.23113
1.23109
1.23105
1.231
1.23095
1.23091
1.23087
1.23083
1.23078
1.23072
1.23066
1.23061
1.23059
1.23058
1.23056
1.23052
1.23046
1.23038
1.23029
1.2302
1.23013
1.23008
1.23005
1.23005
1.23006
1.23008
1.23011
1.23013
1.23016
1.2302
1.23024
1.23028
1.23033
1.23036
1.23039
1.23042
1.23046
1.23051
1.23057
1.23064
1.2307
1.23075
1.23078
1.2308
1.23081
1.23084
1.23088
1.23094
1.23103
1.23112
1.23123
1.23132
1.23141
1.23147
1.23151
1.23131
1.23128
1.23124
1.2312
1.23116
1.23112
1.23108
1.23103
1.23098
1.23094
1.23089
1.23086
1.23081
1.23076
1.2307
1.23064
1.2306
1.23058
1.23057
1.23055
1.23051
1.23045
1.23036
1.23027
1.23019
1.23012
1.23007
1.23004
1.23004
1.23005
1.23007
1.2301
1.23012
1.23015
1.23019
1.23023
1.23027
1.23032
1.23035
1.23038
1.23041
1.23044
1.23049
1.23056
1.23063
1.23069
1.23074
1.23077
1.23078
1.23079
1.23081
1.23084
1.2309
1.23098
1.23108
1.23119
1.2313
1.2314
1.23147
1.23152
1.2313
1.23126
1.23123
1.23119
1.23114
1.2311
1.23106
1.23102
1.23097
1.23092
1.23088
1.23084
1.2308
1.23075
1.23069
1.23063
1.23059
1.23056
1.23055
1.23053
1.2305
1.23043
1.23035
1.23025
1.23017
1.2301
1.23005
1.23003
1.23003
1.23004
1.23006
1.23009
1.23011
1.23014
1.23017
1.23022
1.23026
1.23031
1.23034
1.23037
1.2304
1.23043
1.23048
1.23055
1.23062
1.23068
1.23073
1.23076
1.23077
1.23078
1.2308
1.23083
1.23089
1.23097
1.23108
1.23119
1.23129
1.23139
1.23146
1.23151
1.23128
1.23125
1.23121
1.23117
1.23113
1.23109
1.23105
1.231
1.23096
1.23091
1.23087
1.23083
1.23079
1.23074
1.23067
1.23062
1.23057
1.23055
1.23054
1.23052
1.23048
1.23042
1.23033
1.23024
1.23016
1.23009
1.23004
1.23002
1.23001
1.23003
1.23005
1.23007
1.2301
1.23013
1.23016
1.23021
1.23025
1.2303
1.23033
1.23036
1.23039
1.23042
1.23047
1.23054
1.23061
1.23067
1.23072
1.23074
1.23076
1.23077
1.23078
1.23082
1.23088
1.23096
1.23107
1.23118
1.23128
1.23138
1.23145
1.2315
1.23127
1.23124
1.2312
1.23116
1.23112
1.23108
1.23104
1.23099
1.23094
1.2309
1.23085
1.23082
1.23078
1.23073
1.23066
1.23061
1.23056
1.23054
1.23053
1.23051
1.23047
1.23041
1.23033
1.23023
1.23015
1.23008
1.23003
1.23001
1.23
1.23002
1.23004
1.23006
1.23009
1.23011
1.23015
1.23019
1.23024
1.23028
1.23032
1.23035
1.23037
1.23041
1.23046
1.23052
1.23059
1.23065
1.2307
1.23073
1.23075
1.23076
1.23078
1.23081
1.23087
1.23095
1.23105
1.23116
1.23126
1.23136
1.23143
1.23148
1.23126
1.23122
1.23119
1.23115
1.23111
1.23106
1.23102
1.23098
1.23093
1.23088
1.23084
1.23081
1.23077
1.23072
1.23066
1.2306
1.23055
1.23053
1.23052
1.2305
1.23046
1.2304
1.23032
1.23023
1.23014
1.23007
1.23002
1.23
1.22999
1.23
1.23003
1.23005
1.23007
1.2301
1.23014
1.23018
1.23023
1.23027
1.23031
1.23034
1.23037
1.23041
1.23046
1.23052
1.23058
1.23065
1.23069
1.23072
1.23074
1.23076
1.23078
1.23083
1.23089
1.23097
1.23107
1.23118
1.23127
1.23136
1.23141
1.23146
1.23125
1.23122
1.23118
1.23114
1.2311
1.23106
1.23102
1.23097
1.23092
1.23088
1.23083
1.2308
1.23076
1.2307
1.23065
1.23059
1.23055
1.23052
1.2305
1.23048
1.23043
1.23037
1.23029
1.2302
1.23012
1.23006
1.23003
1.23001
1.23001
1.23003
1.23005
1.23008
1.23011
1.23015
1.23019
1.23023
1.23028
1.23032
1.23036
1.2304
1.23044
1.2305
1.23056
1.23062
1.23067
1.23071
1.23075
1.23078
1.23082
1.23087
1.23093
1.231
1.23107
1.23114
1.2312
1.23125
1.23128
1.2313
1.23129
1.23129
1.23125
1.23121
1.23117
1.23113
1.23109
1.23105
1.23101
1.23096
1.23091
1.23086
1.23082
1.23078
1.23073
1.23067
1.23062
1.23057
1.23053
1.2305
1.23046
1.23041
1.23034
1.23027
1.23021
1.23017
1.23014
1.23014
1.23015
1.23016
1.23019
1.23022
1.23026
1.23029
1.23033
1.23037
1.23041
1.23046
1.23051
1.23055
1.23059
1.23062
1.23066
1.23071
1.23076
1.23081
1.23086
1.2309
1.23094
1.23096
1.23097
1.23098
1.23098
1.23097
1.23096
1.23094
1.23092
1.23088
1.23085
1.23082
1.23079
1.23075
1.23125
1.23121
1.23117
1.23113
1.23109
1.23105
1.23101
1.23097
1.23093
1.23089
1.23085
1.23082
1.23079
1.23074
1.2307
1.23065
1.23063
1.23061
1.2306
1.23059
1.23059
1.23059
1.23059
1.2306
1.23062
1.23063
1.23064
1.23066
1.23067
1.23068
1.23069
1.2307
1.23071
1.23072
1.23073
1.23073
1.23074
1.23075
1.23075
1.23076
1.23076
1.23077
1.23077
1.23077
1.23076
1.23076
1.23075
1.23075
1.23074
1.23073
1.23072
1.23071
1.2307
1.23068
1.23067
1.23066
1.23065
1.23064
1.23064
1.23061
1.22201
1.21242
1.20613
1.20129
1.19715
1.19348
1.19015
1.18707
1.1842
1.1815
1.17893
1.17649
1.17415
1.1719
1.16975
1.16767
1.16568
1.16375
1.16191
1.16013
1.15842
1.15677
1.15519
1.15366
1.15218
1.15076
1.14937
1.14803
1.14674
1.14548
1.14426
1.14308
1.14195
1.14085
1.1398
1.13879
1.13783
1.13691
1.13604
1.13522
1.13445
1.13372
1.13304
1.13239
1.1318
1.13124
1.13072
1.13024
1.12979
1.12936
1.12897
1.12861
1.12827
1.12794
1.12765
1.12737
1.12711
1.12687
1.12664
1.12643
1.12624
1.12607
1.12591
1.12576
1.12563
1.12551
1.12541
1.12532
1.12523
1.12515
1.12508
1.12502
1.12496
1.12491
1.12485
1.1248
1.12475
1.1247
1.12465
1.12461
1.12456
1.12452
1.12448
1.12444
1.12441
1.12438
1.12435
1.12433
1.12432
1.1243
1.12429
1.12429
1.12428
1.12428
1.12428
1.12428
1.12428
1.12428
1.12429
1.12429
1.12429
1.1243
1.12431
1.12431
1.12432
1.12432
1.12433
1.12434
1.12434
1.12435
1.12436
1.12436
1.12437
1.12438
1.12438
1.12439
1.12439
1.1244
1.12441
1.12441
1.12442
1.12442
1.12443
1.12444
1.12445
1.12445
1.12446
1.12446
1.12447
1.12448
1.12449
1.12449
1.1245
1.1245
1.12451
1.12452
1.12452
1.12453
1.12453
1.12454
1.12455
1.12455
1.12456
1.12456
1.12457
1.12457
1.12458
1.12459
1.12459
1.1246
1.1246
1.12461
1.12462
1.12462
1.12463
1.12463
1.12464
1.12464
1.12465
1.12466
1.12466
1.12466
1.12467
1.12468
1.12468
1.12469
1.12469
1.1247
1.1247
1.12471
1.12471
1.12472
1.12472
1.12473
1.12474
1.12474
1.12475
1.12475
1.12475
1.12476
1.12477
1.12478
1.12478
1.12478
1.12479
1.1248
1.1248
1.1248
1.12481
1.12481
1.12482
1.12482
1.12483
1.12483
1.12484
1.12484
1.12485
1.12485
1.12486
1.12486
1.12487
1.12487
1.12488
1.12488
1.12489
1.12489
1.12489
1.1249
1.1249
1.12491
1.12491
1.12491
1.12492
1.12492
1.12492
1.12493
1.12493
1.12494
1.12494
1.12495
1.12495
1.12495
1.12496
1.12496
1.12497
1.12497
1.12497
1.12498
1.12498
1.12499
1.12499
1.12499
1.125
1.125
1.125
1.12501
1.125
1.12501
1.12501
1.12503
1.23023
1.22703
1.22332
1.21974
1.21642
1.21336
1.2105
1.20784
1.20534
1.20296
1.2007
1.19852
1.19643
1.1944
1.19242
1.1905
1.18862
1.18679
1.18501
1.18328
1.18161
1.18
1.17843
1.17693
1.17548
1.17408
1.17273
1.17142
1.17016
1.16893
1.16773
1.16657
1.16544
1.16434
1.16327
1.16223
1.16123
1.16025
1.15932
1.15842
1.15756
1.15674
1.15597
1.15524
1.15455
1.1539
1.1533
1.15274
1.15221
1.15172
1.15126
1.15084
1.15044
1.15007
1.14972
1.14939
1.14908
1.14878
1.1485
1.14823
1.14798
1.14774
1.14752
1.1473
1.14711
1.14693
1.14678
1.14663
1.1465
1.14638
1.14628
1.1462
1.14612
1.14606
1.146
1.14594
1.14589
1.14584
1.14579
1.14574
1.14569
1.14563
1.14558
1.14552
1.14547
1.14541
1.14537
1.14532
1.14528
1.14524
1.14521
1.14519
1.14517
1.14515
1.14514
1.14513
1.14512
1.14512
1.14512
1.14512
1.14512
1.14512
1.14512
1.14512
1.14513
1.14513
1.14513
1.14514
1.14514
1.14515
1.14515
1.14516
1.14516
1.14516
1.14517
1.14517
1.14517
1.14518
1.14518
1.14519
1.14519
1.14519
1.1452
1.1452
1.14521
1.14521
1.14521
1.14522
1.14522
1.14523
1.14523
1.14523
1.14523
1.14524
1.14524
1.14525
1.14525
1.14525
1.14525
1.14525
1.14526
1.14526
1.14526
1.14526
1.14527
1.14527
1.14527
1.14528
1.14528
1.14528
1.14528
1.14528
1.14529
1.14529
1.14529
1.14529
1.14529
1.1453
1.1453
1.1453
1.1453
1.1453
1.14531
1.14531
1.14531
1.14531
1.14531
1.14531
1.14531
1.14532
1.14532
1.14531
1.14531
1.14532
1.14532
1.14532
1.14532
1.14532
1.14532
1.14533
1.14533
1.14533
1.14533
1.14533
1.14533
1.14533
1.14533
1.14533
1.14533
1.14533
1.14533
1.14533
1.14533
1.14533
1.14533
1.14533
1.14533
1.14533
1.14533
1.14533
1.14533
1.14533
1.14533
1.14533
1.14533
1.14533
1.14533
1.14532
1.14532
1.14532
1.14532
1.14532
1.14532
1.14532
1.14532
1.14531
1.14531
1.14531
1.14531
1.14531
1.14531
1.14531
1.14531
1.14531
1.1453
1.1453
1.1453
1.1453
1.1453
1.14529
1.14529
1.14529
1.14529
1.14529
1.14528
1.14528
1.14527
1.14527
1.14526
1.14527
1.23131
1.23084
1.22987
1.22849
1.22686
1.22509
1.22328
1.2215
1.21978
1.2181
1.21646
1.21487
1.2133
1.21177
1.21025
1.20874
1.20721
1.20568
1.20415
1.20263
1.20112
1.19964
1.19818
1.19675
1.19538
1.19406
1.19279
1.19157
1.19039
1.18926
1.18816
1.1871
1.18606
1.18504
1.18404
1.18305
1.18208
1.18111
1.18016
1.17922
1.17831
1.17741
1.17654
1.1757
1.17489
1.17413
1.17341
1.17273
1.17209
1.17149
1.17095
1.17044
1.16997
1.16952
1.16911
1.16873
1.16836
1.16801
1.16767
1.16733
1.16701
1.16669
1.16638
1.16607
1.16577
1.16549
1.16522
1.16497
1.16474
1.16453
1.16435
1.16419
1.16406
1.16395
1.16386
1.16379
1.16373
1.16368
1.16364
1.16359
1.16354
1.16349
1.16342
1.16335
1.16327
1.16319
1.1631
1.16301
1.16292
1.16283
1.16275
1.16268
1.16262
1.16257
1.16252
1.16249
1.16246
1.16244
1.16242
1.1624
1.16239
1.16238
1.16238
1.16237
1.16237
1.16236
1.16236
1.16236
1.16236
1.16236
1.16235
1.16235
1.16235
1.16235
1.16235
1.16235
1.16234
1.16234
1.16234
1.16234
1.16234
1.16234
1.16234
1.16234
1.16234
1.16233
1.16233
1.16233
1.16233
1.16233
1.16233
1.16232
1.16232
1.16232
1.16232
1.16232
1.16231
1.16231
1.16231
1.1623
1.1623
1.1623
1.1623
1.16229
1.16229
1.16229
1.16229
1.16228
1.16228
1.16228
1.16227
1.16227
1.16227
1.16227
1.16226
1.16226
1.16226
1.16226
1.16225
1.16225
1.16224
1.16224
1.16224
1.16224
1.16223
1.16223
1.16222
1.16222
1.16222
1.16221
1.16221
1.1622
1.1622
1.1622
1.16219
1.16219
1.16219
1.16218
1.16218
1.16218
1.16217
1.16217
1.16216
1.16216
1.16215
1.16215
1.16215
1.16214
1.16213
1.16213
1.16213
1.16212
1.16212
1.16211
1.16211
1.1621
1.1621
1.16209
1.16209
1.16209
1.16208
1.16207
1.16207
1.16206
1.16206
1.16205
1.16205
1.16204
1.16204
1.16203
1.16203
1.16202
1.16201
1.16201
1.162
1.162
1.16199
1.16199
1.16198
1.16197
1.16197
1.16196
1.16196
1.16195
1.16194
1.16194
1.16193
1.16193
1.16192
1.16191
1.1619
1.1619
1.16189
1.16189
1.16188
1.16187
1.16186
1.16186
1.16185
1.16185
1.23154
1.23142
1.2312
1.23088
1.23042
1.22977
1.22897
1.2281
1.22725
1.22642
1.2256
1.22476
1.22391
1.22308
1.22226
1.22142
1.22053
1.21957
1.21854
1.21747
1.21636
1.21521
1.21402
1.21282
1.21162
1.21045
1.20932
1.20824
1.20722
1.20624
1.2053
1.20441
1.20356
1.20274
1.20195
1.20116
1.20037
1.19957
1.19875
1.19793
1.19709
1.19624
1.19537
1.1945
1.19362
1.19277
1.19194
1.19115
1.1904
1.18969
1.18903
1.18843
1.18787
1.18737
1.18691
1.1865
1.18612
1.18575
1.1854
1.18505
1.18471
1.18436
1.184
1.18362
1.18324
1.18285
1.18246
1.18207
1.18169
1.18134
1.18102
1.18073
1.18047
1.18026
1.18008
1.17995
1.17985
1.17979
1.17975
1.17972
1.1797
1.17968
1.17965
1.1796
1.17953
1.17944
1.17933
1.1792
1.17905
1.1789
1.17875
1.1786
1.17847
1.17835
1.17824
1.17815
1.17807
1.17801
1.17796
1.17792
1.17788
1.17786
1.17783
1.17782
1.1778
1.17778
1.17777
1.17776
1.17775
1.17774
1.17773
1.17772
1.17771
1.1777
1.17769
1.17768
1.17768
1.17767
1.17766
1.17765
1.17764
1.17763
1.17762
1.17762
1.17761
1.1776
1.17759
1.17758
1.17757
1.17757
1.17756
1.17755
1.17754
1.17753
1.17752
1.17751
1.17751
1.17749
1.17748
1.17748
1.17747
1.17746
1.17745
1.17744
1.17743
1.17742
1.17741
1.1774
1.17739
1.17738
1.17737
1.17737
1.17736
1.17735
1.17734
1.17733
1.17732
1.17731
1.1773
1.17729
1.17728
1.17727
1.17726
1.17726
1.17725
1.17723
1.17722
1.17721
1.17721
1.1772
1.17719
1.17717
1.17716
1.17715
1.17715
1.17714
1.17713
1.17712
1.17711
1.1771
1.17709
1.17708
1.17707
1.17706
1.17705
1.17704
1.17703
1.17702
1.17701
1.177
1.17699
1.17698
1.17697
1.17696
1.17695
1.17694
1.17693
1.17692
1.17691
1.1769
1.17689
1.17688
1.17687
1.17686
1.17685
1.17684
1.17683
1.17682
1.17681
1.1768
1.17678
1.17677
1.17676
1.17675
1.17674
1.17673
1.17672
1.17671
1.1767
1.17669
1.17668
1.17667
1.17666
1.17665
1.17664
1.17663
1.17662
1.17661
1.1766
1.17659
1.17657
1.17656
1.17655
1.17655
1.17653
1.17652
1.17651
1.1765
1.17649
1.17648
1.23158
1.2315
1.23133
1.23119
1.23105
1.23081
1.23044
1.22999
1.22959
1.22928
1.22904
1.22881
1.22855
1.22831
1.22811
1.22796
1.22779
1.22753
1.22717
1.22669
1.22614
1.22552
1.22482
1.22402
1.22315
1.22222
1.22129
1.2204
1.21955
1.21876
1.21801
1.21731
1.21666
1.21609
1.21557
1.21511
1.21465
1.21419
1.21369
1.21316
1.2126
1.212
1.21135
1.21063
1.20985
1.20904
1.2082
1.20737
1.20656
1.20577
1.20503
1.20434
1.20371
1.20314
1.20266
1.20225
1.20189
1.20158
1.2013
1.20103
1.20077
1.2005
1.20021
1.19989
1.19953
1.19912
1.19868
1.1982
1.19771
1.19721
1.19673
1.19627
1.19584
1.19546
1.19514
1.19488
1.19469
1.19456
1.19449
1.19447
1.19449
1.19453
1.19457
1.1946
1.19461
1.19458
1.19451
1.19439
1.19423
1.19403
1.19382
1.19359
1.19337
1.19315
1.19295
1.19277
1.19262
1.1925
1.19239
1.1923
1.19223
1.19217
1.19212
1.19209
1.19205
1.19202
1.192
1.19198
1.19196
1.19194
1.19192
1.19191
1.19189
1.19188
1.19186
1.19185
1.19183
1.19182
1.1918
1.19179
1.19177
1.19176
1.19175
1.19173
1.19172
1.19171
1.19169
1.19168
1.19166
1.19165
1.19164
1.19162
1.19161
1.19159
1.19158
1.19156
1.19155
1.19153
1.19152
1.1915
1.19149
1.19148
1.19146
1.19145
1.19143
1.19142
1.1914
1.19139
1.19137
1.19136
1.19134
1.19133
1.19132
1.1913
1.19129
1.19127
1.19125
1.19124
1.19123
1.19121
1.1912
1.19118
1.19117
1.19116
1.19114
1.19112
1.19111
1.19109
1.19108
1.19107
1.19105
1.19103
1.19102
1.19101
1.19099
1.19098
1.19096
1.19095
1.19093
1.19092
1.19091
1.19089
1.19087
1.19086
1.19084
1.19083
1.19082
1.1908
1.19078
1.19077
1.19075
1.19074
1.19073
1.19071
1.1907
1.19068
1.19066
1.19065
1.19064
1.19062
1.19061
1.19059
1.19058
1.19056
1.19055
1.19054
1.19052
1.1905
1.19049
1.19048
1.19046
1.19045
1.19043
1.19042
1.1904
1.19039
1.19037
1.19036
1.19034
1.19033
1.19031
1.1903
1.19029
1.19027
1.19026
1.19024
1.19023
1.19022
1.1902
1.19019
1.19017
1.19015
1.19014
1.19013
1.19012
1.1901
1.19008
1.19007
1.19005
1.19004
1.23157
1.23149
1.23132
1.23118
1.23107
1.2309
1.23059
1.2302
1.22988
1.2297
1.22966
1.22965
1.22963
1.22963
1.22971
1.22991
1.23018
1.23044
1.2306
1.23063
1.23057
1.23045
1.23028
1.22999
1.22956
1.229
1.22834
1.22767
1.22705
1.22648
1.22595
1.22545
1.225
1.22463
1.22437
1.22422
1.22413
1.22407
1.22399
1.22388
1.22373
1.22353
1.22328
1.22293
1.22246
1.22188
1.22122
1.2205
1.21976
1.21902
1.21831
1.21762
1.21698
1.2164
1.21592
1.21555
1.21528
1.21508
1.21493
1.21483
1.21474
1.21466
1.21456
1.21443
1.21423
1.21396
1.21361
1.21318
1.21269
1.21215
1.2116
1.21103
1.21048
1.20996
1.20949
1.20909
1.20878
1.20855
1.20842
1.20838
1.20841
1.2085
1.20862
1.20876
1.20888
1.20897
1.209
1.20897
1.20886
1.20868
1.20845
1.20817
1.20788
1.20758
1.20729
1.20702
1.20678
1.20658
1.2064
1.20626
1.20614
1.20604
1.20597
1.2059
1.20585
1.20581
1.20577
1.20574
1.20571
1.20569
1.20566
1.20564
1.20562
1.2056
1.20558
1.20557
1.20555
1.20553
1.20551
1.20549
1.20548
1.20546
1.20544
1.20543
1.20541
1.20539
1.20537
1.20535
1.20534
1.20532
1.2053
1.20528
1.20526
1.20525
1.20523
1.20521
1.20519
1.20517
1.20516
1.20514
1.20512
1.20511
1.20509
1.20507
1.20505
1.20503
1.20501
1.205
1.20498
1.20496
1.20494
1.20492
1.20491
1.20489
1.20487
1.20485
1.20483
1.20482
1.2048
1.20478
1.20476
1.20474
1.20472
1.20471
1.20469
1.20467
1.20465
1.20463
1.20462
1.2046
1.20458
1.20456
1.20454
1.20452
1.20451
1.20449
1.20447
1.20445
1.20443
1.20442
1.2044
1.20438
1.20436
1.20434
1.20432
1.20431
1.20429
1.20427
1.20425
1.20423
1.20422
1.2042
1.20418
1.20416
1.20414
1.20412
1.20411
1.20409
1.20407
1.20406
1.20404
1.20402
1.204
1.20398
1.20397
1.20395
1.20393
1.20391
1.20389
1.20388
1.20386
1.20384
1.20382
1.2038
1.20379
1.20377
1.20375
1.20373
1.20372
1.2037
1.20368
1.20366
1.20365
1.20363
1.20361
1.20359
1.20358
1.20356
1.20355
1.20353
1.20351
1.20349
1.20348
1.20346
1.20344
1.20342
1.2034
1.20339
1.20337
1.20335
1.23155
1.23148
1.23131
1.23116
1.23106
1.23088
1.23058
1.23019
1.22987
1.22971
1.22968
1.2297
1.22972
1.22976
1.22991
1.23019
1.23056
1.23092
1.2312
1.23137
1.23146
1.2315
1.2315
1.2314
1.23116
1.2308
1.23035
1.2299
1.2295
1.22916
1.22886
1.2286
1.22839
1.22826
1.22824
1.22833
1.22849
1.22867
1.22884
1.22897
1.22906
1.22911
1.22909
1.22897
1.22874
1.22839
1.22795
1.22745
1.22692
1.2264
1.22589
1.2254
1.22495
1.22457
1.22428
1.22409
1.22399
1.22396
1.22398
1.22403
1.2241
1.22417
1.22421
1.22421
1.22414
1.22399
1.22374
1.22341
1.22301
1.22257
1.22209
1.22161
1.22113
1.22067
1.22027
1.21993
1.21967
1.2195
1.21942
1.21942
1.2195
1.21963
1.21979
1.21995
1.2201
1.22022
1.22027
1.22025
1.22015
1.21998
1.21975
1.21948
1.21919
1.21888
1.21859
1.21832
1.21808
1.21788
1.21771
1.21756
1.21744
1.21734
1.21727
1.2172
1.21715
1.21711
1.21707
1.21704
1.21701
1.21698
1.21696
1.21694
1.21692
1.2169
1.21688
1.21686
1.21684
1.21682
1.2168
1.21678
1.21676
1.21674
1.21673
1.21671
1.21669
1.21667
1.21665
1.21663
1.21662
1.2166
1.21658
1.21656
1.21654
1.21652
1.21651
1.21649
1.21647
1.21645
1.21643
1.21641
1.21639
1.21638
1.21636
1.21634
1.21632
1.2163
1.21628
1.21626
1.21624
1.21622
1.2162
1.21619
1.21617
1.21615
1.21613
1.21611
1.21609
1.21607
1.21606
1.21604
1.21601
1.21599
1.21598
1.21596
1.21594
1.21592
1.2159
1.21588
1.21587
1.21585
1.21583
1.21581
1.21579
1.21577
1.21575
1.21573
1.21571
1.21569
1.21567
1.21565
1.21564
1.21562
1.2156
1.21557
1.21556
1.21554
1.21552
1.2155
1.21548
1.21546
1.21544
1.21543
1.21541
1.21539
1.21537
1.21535
1.21533
1.21531
1.21529
1.21528
1.21526
1.21524
1.21522
1.2152
1.21518
1.21516
1.21514
1.21512
1.21511
1.21509
1.21507
1.21505
1.21503
1.21501
1.21499
1.21498
1.21496
1.21494
1.21492
1.2149
1.21488
1.21487
1.21485
1.21483
1.21481
1.21479
1.21477
1.21476
1.21474
1.21472
1.2147
1.21468
1.21467
1.21465
1.21463
1.21461
1.21459
1.21458
1.21456
1.21454
1.23154
1.23146
1.2313
1.23115
1.23102
1.23082
1.2305
1.23014
1.22987
1.22975
1.22974
1.22979
1.22986
1.22999
1.23021
1.23051
1.23082
1.23107
1.23124
1.23132
1.23134
1.23131
1.23121
1.23103
1.23078
1.23049
1.2302
1.22995
1.22975
1.22961
1.22951
1.22946
1.22946
1.22952
1.22966
1.22983
1.23001
1.23017
1.2303
1.23039
1.23044
1.23044
1.23038
1.23023
1.23002
1.22976
1.22946
1.22914
1.22883
1.22854
1.22827
1.22804
1.22786
1.22773
1.22766
1.22765
1.22769
1.22775
1.22782
1.2279
1.22797
1.22801
1.22801
1.22796
1.22785
1.22768
1.22745
1.22718
1.22688
1.22656
1.22624
1.22593
1.22564
1.22539
1.22519
1.22505
1.22497
1.22494
1.22496
1.22503
1.22513
1.22523
1.22534
1.22542
1.22547
1.22547
1.22543
1.22533
1.22518
1.22499
1.22477
1.22455
1.22432
1.2241
1.2239
1.22371
1.22356
1.22343
1.22332
1.22323
1.22315
1.22309
1.22304
1.223
1.22296
1.22293
1.2229
1.22288
1.22285
1.22283
1.22281
1.22279
1.22277
1.22276
1.22274
1.22272
1.2227
1.22269
1.22267
1.22265
1.22263
1.22261
1.2226
1.22258
1.22256
1.22255
1.22253
1.22251
1.22249
1.22248
1.22246
1.22244
1.22242
1.2224
1.22239
1.22237
1.22235
1.22233
1.22232
1.2223
1.22228
1.22227
1.22225
1.22223
1.22221
1.22219
1.22218
1.22216
1.22214
1.22212
1.2221
1.22209
1.22207
1.22205
1.22203
1.22201
1.222
1.22198
1.22196
1.22194
1.22192
1.22191
1.22189
1.22187
1.22186
1.22183
1.22181
1.2218
1.22178
1.22177
1.22175
1.22173
1.22171
1.22169
1.22167
1.22166
1.22164
1.22161
1.2216
1.22158
1.22156
1.22155
1.22152
1.2215
1.22149
1.22147
1.22146
1.22144
1.22142
1.2214
1.22138
1.22136
1.22135
1.22133
1.22131
1.22129
1.22127
1.22125
1.22124
1.22122
1.2212
1.22118
1.22116
1.22115
1.22113
1.22111
1.22109
1.22108
1.22106
1.22104
1.22102
1.22101
1.22099
1.22097
1.22095
1.22093
1.22092
1.2209
1.22088
1.22086
1.22085
1.22083
1.22081
1.22079
1.22078
1.22076
1.22074
1.22072
1.22071
1.22069
1.22067
1.22065
1.22064
1.22062
1.22061
1.22059
1.22057
1.22055
1.22054
1.22052
1.23149
1.23136
1.23118
1.231
1.23079
1.23053
1.23025
1.23003
1.22992
1.22991
1.22998
1.23009
1.23023
1.23041
1.23061
1.23081
1.23096
1.23104
1.23106
1.23102
1.23094
1.23083
1.23068
1.23051
1.23033
1.23017
1.23005
1.22997
1.22992
1.22992
1.22994
1.22999
1.23007
1.23017
1.23028
1.23039
1.23047
1.23053
1.23055
1.23055
1.23051
1.23044
1.23033
1.23018
1.23002
1.22985
1.22969
1.22953
1.22939
1.22927
1.22918
1.22911
1.22908
1.22908
1.2291
1.22914
1.22918
1.22922
1.22925
1.22927
1.22927
1.22924
1.22917
1.22906
1.22893
1.22878
1.2286
1.22841
1.22822
1.22804
1.22787
1.22773
1.22761
1.22752
1.22747
1.22744
1.22745
1.22747
1.22751
1.22756
1.2276
1.22763
1.22764
1.22762
1.22758
1.2275
1.2274
1.22727
1.22713
1.22697
1.22681
1.22666
1.22652
1.22639
1.22627
1.22617
1.22609
1.22602
1.22596
1.22591
1.22587
1.22583
1.2258
1.22578
1.22575
1.22573
1.22571
1.22569
1.22567
1.22565
1.22563
1.22562
1.2256
1.22559
1.22557
1.22555
1.22554
1.22552
1.22551
1.22549
1.22548
1.22546
1.22544
1.22543
1.22541
1.2254
1.22538
1.22536
1.22535
1.22533
1.22532
1.2253
1.22528
1.22527
1.22525
1.22524
1.22522
1.2252
1.22518
1.22517
1.22515
1.22514
1.22512
1.2251
1.22509
1.22507
1.22506
1.22504
1.22502
1.22501
1.22499
1.22498
1.22496
1.22494
1.22492
1.22491
1.22489
1.22488
1.22486
1.22484
1.22482
1.22481
1.22479
1.22478
1.22476
1.22474
1.22472
1.22471
1.22469
1.22468
1.22466
1.22464
1.22462
1.22461
1.22459
1.22458
1.22456
1.22454
1.22452
1.22451
1.22449
1.22447
1.22445
1.22443
1.22442
1.22441
1.22439
1.22437
1.22435
1.22434
1.22432
1.22431
1.22429
1.22427
1.22425
1.22424
1.22422
1.2242
1.22419
1.22417
1.22415
1.22413
1.22412
1.2241
1.22409
1.22407
1.22405
1.22404
1.22402
1.22401
1.22399
1.22397
1.22396
1.22394
1.22392
1.22391
1.22389
1.22387
1.22386
1.22384
1.22382
1.22381
1.22379
1.22377
1.22376
1.22374
1.22372
1.22371
1.22369
1.22368
1.22366
1.22364
1.22363
1.22361
1.2236
1.22358
1.22356
1.22354
1.22353
1.22352
1.23119
1.23099
1.23079
1.23061
1.23043
1.23027
1.23015
1.23011
1.23013
1.23021
1.23031
1.23042
1.23054
1.23066
1.23075
1.2308
1.23081
1.23078
1.23072
1.23064
1.23054
1.23044
1.23034
1.23026
1.23019
1.23015
1.23014
1.23014
1.23017
1.23021
1.23025
1.23031
1.23036
1.2304
1.23044
1.23046
1.23046
1.23044
1.2304
1.23035
1.23029
1.23021
1.23013
1.23004
1.22995
1.22988
1.22981
1.22976
1.22971
1.22968
1.22967
1.22967
1.22968
1.22969
1.22971
1.22972
1.22973
1.22972
1.2297
1.22966
1.22962
1.22955
1.22947
1.22937
1.22927
1.22917
1.22907
1.22897
1.22888
1.2288
1.22874
1.2287
1.22866
1.22865
1.22864
1.22864
1.22865
1.22865
1.22866
1.22865
1.22864
1.2286
1.22856
1.22849
1.22842
1.22833
1.22824
1.22814
1.22803
1.22793
1.22784
1.22776
1.22769
1.22762
1.22756
1.22751
1.22747
1.22743
1.2274
1.22737
1.22735
1.22733
1.22731
1.22729
1.22727
1.22726
1.22724
1.22723
1.22721
1.22719
1.22718
1.22717
1.22715
1.22714
1.22712
1.22711
1.22709
1.22708
1.22707
1.22705
1.22704
1.22702
1.22701
1.22699
1.22698
1.22696
1.22695
1.22693
1.22692
1.22691
1.22689
1.22688
1.22686
1.22685
1.22683
1.22682
1.2268
1.22679
1.22677
1.22676
1.22675
1.22673
1.22672
1.2267
1.22668
1.22667
1.22666
1.22664
1.22663
1.22661
1.2266
1.22658
1.22657
1.22655
1.22654
1.22652
1.22651
1.22649
1.22648
1.22646
1.22644
1.22643
1.22642
1.2264
1.22639
1.22637
1.22635
1.22634
1.22633
1.22631
1.2263
1.22628
1.22626
1.22625
1.22623
1.22622
1.2262
1.22618
1.22617
1.22615
1.22614
1.22612
1.22611
1.22609
1.22607
1.22606
1.22605
1.22603
1.22602
1.226
1.22599
1.22597
1.22596
1.22594
1.22592
1.22591
1.22589
1.22588
1.22586
1.22585
1.22583
1.22581
1.2258
1.22579
1.22577
1.22576
1.22574
1.22572
1.22571
1.22569
1.22568
1.22566
1.22565
1.22563
1.22562
1.2256
1.22559
1.22557
1.22556
1.22554
1.22553
1.22551
1.2255
1.22548
1.22547
1.22545
1.22543
1.22542
1.22541
1.22539
1.22537
1.22536
1.22534
1.22533
1.22532
1.2253
1.22528
1.22527
1.22526
1.22524
1.23068
1.23059
1.23053
1.23045
1.23038
1.23033
1.23031
1.23034
1.23039
1.23046
1.23053
1.23059
1.23064
1.23066
1.23067
1.23064
1.2306
1.23055
1.23049
1.23043
1.23038
1.23034
1.2303
1.23028
1.23028
1.23028
1.2303
1.23032
1.23034
1.23036
1.23038
1.2304
1.2304
1.2304
1.23039
1.23037
1.23034
1.2303
1.23026
1.23022
1.23017
1.23013
1.23008
1.23004
1.23001
1.22998
1.22996
1.22995
1.22994
1.22993
1.22993
1.22993
1.22993
1.22992
1.22991
1.2299
1.22987
1.22984
1.2298
1.22976
1.22971
1.22966
1.2296
1.22954
1.22948
1.22944
1.22939
1.22935
1.22931
1.22928
1.22926
1.22925
1.22924
1.22923
1.22922
1.22921
1.2292
1.22918
1.22916
1.22912
1.22909
1.22904
1.22899
1.22893
1.22887
1.22881
1.22875
1.22869
1.22863
1.22858
1.22853
1.22849
1.22846
1.22843
1.22839
1.22837
1.22835
1.22833
1.22831
1.22829
1.22828
1.22826
1.22825
1.22824
1.22822
1.22821
1.22819
1.22818
1.22817
1.22815
1.22814
1.22813
1.22811
1.2281
1.22809
1.22808
1.22806
1.22805
1.22804
1.22802
1.22801
1.228
1.22798
1.22797
1.22796
1.22794
1.22793
1.22792
1.2279
1.22789
1.22788
1.22787
1.22785
1.22784
1.22783
1.22781
1.2278
1.22778
1.22777
1.22776
1.22775
1.22773
1.22772
1.2277
1.22769
1.22768
1.22767
1.22765
1.22764
1.22762
1.22761
1.2276
1.22759
1.22757
1.22756
1.22754
1.22753
1.22752
1.2275
1.22749
1.22747
1.22746
1.22744
1.22743
1.22742
1.2274
1.22739
1.22737
1.22736
1.22735
1.22734
1.22732
1.2273
1.22729
1.22728
1.22727
1.22725
1.22723
1.22722
1.2272
1.22719
1.22718
1.22716
1.22714
1.22713
1.22712
1.22711
1.22709
1.22708
1.22706
1.22705
1.22704
1.22702
1.22701
1.22699
1.22698
1.22696
1.22695
1.22694
1.22692
1.22691
1.22689
1.22688
1.22686
1.22685
1.22684
1.22682
1.22681
1.22679
1.22678
1.22677
1.22675
1.22674
1.22672
1.22671
1.2267
1.22668
1.22667
1.22665
1.22664
1.22662
1.22661
1.22659
1.22658
1.22656
1.22655
1.22654
1.22652
1.22651
1.22649
1.22648
1.22646
1.22645
1.22644
1.22642
1.22641
1.22639
1.22638
1.22637
1.22636
1.23074
1.23076
1.23074
1.23071
1.23069
1.23069
1.23069
1.2307
1.23072
1.23074
1.23075
1.23075
1.23075
1.23074
1.23073
1.23071
1.23068
1.23065
1.23063
1.23061
1.23059
1.23058
1.23057
1.23056
1.23056
1.23056
1.23056
1.23056
1.23056
1.23056
1.23055
1.23054
1.23053
1.23051
1.23049
1.23047
1.23045
1.23043
1.2304
1.23038
1.23035
1.23033
1.23031
1.23029
1.23027
1.23026
1.23025
1.23023
1.23022
1.23021
1.2302
1.23018
1.23017
1.23015
1.23013
1.23011
1.23008
1.23006
1.23003
1.23
1.22997
1.22994
1.22991
1.22988
1.22985
1.22983
1.22981
1.22979
1.22977
1.22975
1.22973
1.22972
1.22971
1.22969
1.22967
1.22966
1.22964
1.22962
1.22959
1.22957
1.22954
1.22951
1.22948
1.22945
1.22942
1.22939
1.22937
1.22934
1.22931
1.22929
1.22927
1.22925
1.22923
1.22921
1.22919
1.22918
1.22917
1.22915
1.22914
1.22913
1.22911
1.2291
1.22909
1.22908
1.22906
1.22905
1.22904
1.22902
1.22901
1.229
1.22899
1.22897
1.22896
1.22895
1.22894
1.22892
1.22891
1.2289
1.22889
1.22888
1.22886
1.22885
1.22884
1.22883
1.22881
1.2288
1.22878
1.22877
1.22876
1.22875
1.22874
1.22872
1.22871
1.2287
1.22868
1.22867
1.22866
1.22864
1.22863
1.22862
1.22861
1.22859
1.22858
1.22857
1.22855
1.22854
1.22853
1.22852
1.2285
1.22849
1.22847
1.22846
1.22845
1.22844
1.22842
1.22841
1.22839
1.22838
1.22837
1.22836
1.22834
1.22832
1.22831
1.2283
1.22829
1.22827
1.22826
1.22824
1.22823
1.22822
1.22821
1.22819
1.22818
1.22816
1.22815
1.22814
1.22812
1.2281
1.22809
1.22808
1.22807
1.22805
1.22803
1.22802
1.228
1.22799
1.22798
1.22797
1.22795
1.22794
1.22792
1.22791
1.2279
1.22788
1.22787
1.22785
1.22784
1.22782
1.22781
1.2278
1.22778
1.22776
1.22775
1.22774
1.22773
1.22771
1.2277
1.22768
1.22767
1.22766
1.22764
1.22763
1.22761
1.2276
1.22758
1.22757
1.22756
1.22754
1.22753
1.22751
1.2275
1.22748
1.22747
1.22745
1.22744
1.22742
1.22741
1.2274
1.22738
1.22737
1.22735
1.22733
1.22732
1.22731
1.2273
1.22728
1.22726
1.22725
1.22724
1.22723
)
;

boundaryField
{
    upperWall
    {
        type            calculated;
        value           nonuniform List<scalar> 
300
(
1.23125
1.23125
1.23124
1.23124
1.23124
1.23123
1.23123
1.23122
1.23122
1.23121
1.23121
1.23121
1.2312
1.2312
1.2312
1.2312
1.2312
1.23119
1.23119
1.23119
1.23119
1.23119
1.23119
1.23119
1.23118
1.23118
1.23118
1.23118
1.23118
1.23118
1.23118
1.23118
1.23118
1.23118
1.23117
1.23117
1.23117
1.23117
1.23117
1.23117
1.23117
1.23117
1.23117
1.23117
1.23117
1.23117
1.23117
1.23117
1.23116
1.23116
1.23116
1.23116
1.23116
1.23116
1.23116
1.23116
1.23116
1.23116
1.23116
1.23116
1.23115
1.23114
1.23113
1.23112
1.23112
1.23111
1.2311
1.23109
1.23108
1.23108
1.23107
1.23106
1.23105
1.23105
1.23104
1.23103
1.23102
1.23101
1.231
1.23099
1.23099
1.23098
1.23096
1.23095
1.23094
1.23093
1.23092
1.23091
1.23089
1.23088
1.23087
1.23086
1.23084
1.23082
1.23081