/*--------------------------------*- C++ -*----------------------------------*\
  =========                 |
  \\      /  F ield         | OpenFOAM: The Open Source CFD Toolbox
   \\    /   O peration     | Website:  https://openfoam.org
    \\  /    A nd           | Version:  7
     \\/     M anipulation  |
\*---------------------------------------------------------------------------*/
FoamFile
{
    version     2.0;
    format      ascii;
    class       volScalarField;
    location    "0.12";
    object      pPrime2Mean;
}
// * * * * * * * * * * * * * * * * * * * * * * * * * * * * * * * * * * * * * //

dimensions      [2 -2 -4 0 0 0 0];

internalField   nonuniform List<scalar> 
1440
(
146378
145455
144928
144549
144142
143685
143216
142752
142285
141803
141309
140806
140292
139767
139229
138678
138116
137541
136953
136352
135739
135113
134475
133825
133162
132488
131802
131104
130394
129673
128942
128199
127446
126682
125908
125124
124330
123526
122713
121890
121057
120215
119364
118504
117634
116756
115869
114973
114068
113155
112233
111304
110366
109420
108466
107504
106536
105560
104577
103588
102592
101591
100584
99571.3
98553.7
97531.2
96504.2
95472.9
94437.4
93398.1
92355
91308.4
90258.4
89205.1
88148.8
87089.6
86027.5
84962.9
83895.7
82826.2
81754.5
80680.8
79605.2
78527.9
77449
76368.7
75287.2
74204.6
73121.1
72036.9
70952
69866.7
68781.1
67695.3
66609.4
65523.5
64437.7
63352
62266.5
61181.2
60096.1
59011.3
57926.7
56842.6
55759
54676.1
53594.4
52514.2
51436.1
50360.8
49289.1
48222.1
47160.8
46106.3
45059.9
44022.9
42996.6
41981.9
40980.4
39992.5
146378
145460
144933
144559
144157
143698
143229
142767
142300
141818
141323
140820
140307
139781
139243
138692
138129
137554
136966
136365
135752
135126
134488
133838
133175
132501
131814
131116
130407
129687
128955
128213
127460
126696
125923
125139
124345
123541
122728
121905
121072
120230
119379
118519
117650
116772
115884
114989
114084
113171
112249
111320
110382
109436
108482
107521
106552
105576
104594
103605
102609
101608
100601
99588.1
98570.6
97548.2
96521.2
95489.9
94454.5
93415.2
92372.1
91325.5
90275.5
89222.3
88166
87106.8
86044.7
84980.1
83912.9
82843.4
81771.7
80698
79622.4
78545.1
77466.2
76385.9
75304.4
74221.8
73138.3
72054
70969.1
69883.8
68798.1
67712.3
66626.3
65540.4
64454.6
63368.9
62283.3
61198
60112.8
59027.9
57943.3
56859.1
55775.4
54692.5
53610.6
52530.3
51452.1
50376.6
49304.9
48237.7
47176.1
46121.5
45074.9
44037.6
43010.8
41995.9
40993.2
40005.9
146382
145467
144943
144572
144171
143712
143240
142777
142308
141824
141327
140823
140308
139781
139241
138690
138127
137552
136963
136363
135750
135124
134486
133836
133174
132500
131814
131116
130407
129687
128956
128214
127461
126698
125924
125140
124347
123543
122730
121907
121074
120232
119381
118521
117651
116773
115886
114990
114085
113172
112250
111320
110382
109436
108483
107521
106553
105577
104594
103605
102609
101608
100601
99588.3
98570.7
97548.2
96521.2
95489.8
94454.4
93415
92371.9
91325.2
90275.2
89221.9
88165.6
87106.3
86044.2
84979.5
83912.3
82842.8
81771
80697.3
79621.6
78544.3
77465.4
76385.1
75303.5
74220.9
73137.3
72053
70968.1
69882.8
68797.1
67711.3
66625.3
65539.4
64453.5
63367.8
62282.2
61196.9
60111.7
59026.8
57942.2
56857.9
55774.2
54691.2
53609.4
52529
51450.8
50375.3
49303.5
48236.3
47174.8
46120
45073.4
44036.1
43009.3
41994.6
40992.5
40006.1
146381
145468
144945
144575
144174
143714
143242
142779
142310
141825
141329
140824
140309
139781
139241
138690
138126
137550
136961
136360
135747
135121
134483
133833
133170
132496
131810
131113
130404
129684
128952
128211
127458
126695
125921
125138
124344
123540
122727
121904
121071
120229
119378
118518
117648
116770
115883
114987
114082
113169
112247
111317
110379
109433
108480
107518
106550
105574
104591
103602
102607
101605
100598
99585.8
98568.2
97545.8
96518.9
95487.5
94452.1
93412.7
92369.7
91323
90273
89219.8
88163.4
87104.2
86042.1
84977.4
83910.3
82840.8
81769.1
80695.3
79619.7
78542.4
77463.5
76383.2
75301.7
74219.1
73135.6
72051.3
70966.5
69881.2
68795.5
67709.7
66623.8
65537.8
64452
63366.3
62280.8
61195.4
60110.3
59025.4
57940.8
56856.6
55772.9
54690
53608.1
52527.8
51449.6
50374.1
49302.3
48235.1
47173.6
46118.9
45072.2
44034.9
43008.2
41993.4
40991.1
40004.1
146379
145468
144946
144577
144177
143718
143246
142784
142315
141831
141333
140828
140313
139784
139244
138692
138127
137551
136962
136360
135746
135120
134482
133832
133170
132496
131810
131113
130404
129684
128953
128212
127460
126697
125923
125140
124347
123543
122730
121907
121075
120233
119382
118521
117652
116773
115886
114990
114085
113172
112251
111321
110383
109437
108483
107522
106553
105578
104595
103606
102610
101609
100602
99589.6
98572
97549.6
96522.6
95491.3
94455.8
93416.5
92373.4
91326.7
90276.7
89223.4
88167
87107.7
86045.7
84981
83913.8
82844.2
81772.5
80698.8
79623.1
78545.8
77466.9
76386.6
75305.1
74222.5
73138.9
72054.7
70969.8
69884.4
68798.8
67712.9
66627
65541
64455.2
63369.4
62283.9
61198.5
60113.4
59028.4
57943.8
56859.6
55775.8
54692.9
53611
52530.6
51452.4
50376.9
49305
48237.7
47176.1
46121.4
45074.7
44037.3
43010.5
41995.7
40993.5
40006.9
146376
145465
144944
144576
144177
143719
143248
142786
142318
141834
141337
140832
140316
139787
139247
138694
138130
137553
136963
136361
135747
135121
134482
133832
133169
132495
131810
131112
130404
129684
128953
128212
127460
126697
125924
125141
124347
123544
122731
121908
121075
120233
119382
118522
117652
116774
115886
114990
114085
113172
112250
111320
110382
109436
108483
107522
106553
105577
104595
103606
102610
101609
100602
99589.4
98571.8
97549.4
96522.4
95491.1
94455.6
93416.3
92373.1
91326.5
90276.4
89223.1
88166.7
87107.4
86045.3
84980.6
83913.4
82843.8
81772.1
80698.4
79622.8
78545.4
77466.5
76386.2
75304.7
74222.1
73138.6
72054.3
70969.4
69884.1
68798.4
67712.6
66626.6
65540.7
64454.8
63369.1
62283.5
61198.2
60113
59028.1
57943.4
56859.2
55775.5
54692.5
53610.6
52530.2
51451.9
50376.4
49304.6
48237.3
47175.7
46120.9
45074.2
44036.8
43010
41995.1
40993
40006.1
146371
145461
144941
144574
144176
143719
143249
142788
142321
141837
141340
140835
140320
139791
139250
138697
138132
137555
136964
136362
135748
135121
134482
133831
133169
132495
131809
131112
130403
129684
128953
128212
127460
126697
125925
125141
124348
123545
122732
121909
121076
120234
119383
118522
117653
116774
115887
114991
114086
113172
112251
111321
110383
109437
108483
107522
106553
105578
104595
103606
102611
101610
100603
99590.2
98572.7
97550.3
96523.3
95492
94456.5
93417.1
92374
91327.3
90277.2
89223.9
88167.5
87108.2
86046.1
84981.4
83914.1
82844.6
81772.9
80699.1
79623.5
78546.2
77467.3
76387
75305.5
74222.9
73139.3
72055.1
70970.2
69884.9
68799.2
67713.3
66627.4
65541.5
64455.6
63369.9
62284.3
61198.9
60113.8
59028.8
57944.2
56859.9
55776.2
54693.2
53611.3
52530.9
51452.6
50377.1
49305.2
48237.9
47176.3
46121.4
45074.7
44037.3
43010.5
41995.7
40993.6
40006.8
146365
145455
144935
144569
144172
143716
143248
142788
142322
141839
141343
140839
140323
139795
139254
138701
138135
137557
136967
136364
135749
135122
134483
133832
133169
132495
131809
131112
130404
129684
128954
128213
127461
126698
125926
125143
124349
123546
122733
121910
121078
120236
119384
118524
117654
116775
115888
114991
114087
113173
112251
111321
110383
109438
108484
107523
106554
105578
104596
103607
102612
101610
100603
99591
98573.5
97551.1
96524.1
95492.8
94457.3
93417.9
92374.7
91328
90277.9
89224.6
88168.2
87108.9
86046.7
84982
83914.8
82845.2
81773.5
80699.7
79624.1
78546.8
77467.9
76387.6
75306.1
74223.5
73140
72055.7
70970.8
69885.5
68799.8
67714
66628
65542.1
64456.2
63370.5
62284.9
61199.5
60114.4
59029.4
57944.8
56860.5
55776.8
54693.8
53611.9
52531.5
51453.1
50377.6
49305.7
48238.4
47176.7
46121.9
45075.1
44037.7
43010.9
41996.1
40994
40007.2
146357
145448
144928
144563
144167
143713
143246
142787
142322
141840
141346
140842
140327
139799
139258
138705
138139
137561
136970
136367
135752
135124
134485
133833
133170
132496
131810
131113
130404
129685
128955
128213
127462
126699
125927
125143
124350
123547
122734
121911
121078
120236
119385
118524
117654
116776
115888
114992
114087
113173
112252
111322
110384
109438
108484
107523
106554
105579
104596
103607
102612
101611
100604
99591.4
98573.9
97551.5
96524.6
95493.2
94457.7
93418.3
92375.2
91328.5
90278.4
89225
88168.6
87109.2
86047.1
84982.4
83915.1
82845.6
81773.8
80700.1
79624.5
78547.1
77468.2
76388
75306.5
74223.9
73140.4
72056.1
70971.2
69885.9
68800.2
67714.4
66628.4
65542.5
64456.6
63370.9
62285.3
61199.9
60114.8
59029.8
57945.2
56860.9
55777.1
54694.1
53612.2
52531.8
51453.5
50377.9
49306
48238.7
47177
46122.1
45075.4
44038
43011.2
41996.4
40994.3
40007.5
146348
145439
144919
144554
144159
143707
143242
142785
142322
141841
141348
140845
140331
139803
139263
138709
138144
137565
136974
136370
135754
135126
134487
133835
133172
132497
131811
131114
130405
129686
128955
128214
127463
126700
125928
125145
124351
123548
122735
121912
121079
120237
119386
118525
117655
116776
115889
114992
114087
113174
112252
111322
110384
109438
108484
107523
106555
105579
104597
103608
102613
101611
100604
99592
98574.5
97552.1
96525.1
95493.8
94458.3
93418.9
92375.7
91329
90278.9
89225.5
88169.1
87109.7
86047.5
84982.8
83915.5
82846
81774.2
80700.5
79624.9
78547.5
77468.6
76388.4
75306.9
74224.3
73140.8
72056.5
70971.6
69886.3
68800.6
67714.8
66628.9
65542.9
64457
63371.3
62285.7
61200.3
60115.2
59030.2
57945.6
56861.3
55777.5
54694.5
53612.6
52532.2
51453.8
50378.3
49306.3
48239
47177.3
46122.4
45075.7
44038.3
43011.5
41996.7
40994.7
40008
146339
145430
144910
144544
144149
143700
143238
142783
142320
141841
141349
140848
140335
139809
139269
138716
138150
137571
136980
136375
135759
135131
134490
133838
133175
132499
131813
131115
130407
129687
128956
128215
127463
126701
125928
125145
124352
123549
122735
121912
121080
120238
119386
118525
117655
116776
115889
114992
114087
113174
112252
111322
110384
109438
108484
107523
106555
105579
104597
103608
102613
101611
100604
99592.1
98574.6
97552.3
96525.3
95494
94458.5
93419.1
92375.9
91329.2
90279
89225.7
88169.2
87109.8
86047.7
84982.9
83915.7
82846.1
81774.4
80700.6
79625
78547.7
77468.8
76388.6
75307
74224.5
73141
72056.7
70971.8
69886.5
68800.9
67715
66629.1
65543.1
64457.3
63371.5
62286
61200.6
60115.4
59030.5
57945.8
56861.5
55777.8
54694.8
53612.8
52532.4
51454.1
50378.5
49306.5
48239.2
47177.5
46122.6
45075.9
44038.5
43011.7
41996.9
40994.9
40008.3
146322
145412
144893
144526
144133
143689
143232
142779
142317
141839
141348
140847
140335
139809
139270
138717
138151
137572
136980
136376
135760
135131
134491
133839
133175
132500
131813
131116
130407
129687
128957
128216
127464
126701
125929
125146
124352
123549
122736
121913
121080
120238
119386
118525
117656
116777
115889
114992
114087
113174
112252
111322
110384
109438
108484
107523
106555
105579
104597
103608
102613
101611
100604
99592.1
98574.7
97552.3
96525.3
95494
94458.5
93419.1
92375.9
91329.2
90279.1
89225.7
88169.2
87109.9
86047.7
84983
83915.7
82846.2
81774.4
80700.7
79625.1
78547.7
77468.9
76388.6
75307.1
74224.5
73141
72056.8
70971.9
69886.6
68800.9
67715.1
66629.2
65543.2
64457.4
63371.6
62286.1
61200.7
60115.5
59030.6
57945.9
56861.6
55777.9
54694.9
53612.9
52532.5
51454.2
50378.6
49306.6
48239.3
47177.6
46122.7
45076
44038.6
43011.8
41997.1
40995.1
40008.7
)
;

boundaryField
{
    upperWall
    {
        type            calculated;
        value           nonuniform List<scalar> 
120
(
146322
145412
144893
144526
144133
143689
143232
142779
142317
141839
141348
140847
140335
139809
139270
138717
138151
137572
136980
136376
135760
135131
134491
133839
133175
132500
131813
131116
130407
129687
128957
128216
127464
126701
125929
125146
124352
123549
122736
121913
121080
120238
119386
118525
117656
116777
115889
114992
114087
113174
112252
111322
110384
109438
108484
107523
106555
105579
104597
103608
102613
101611
100604
99592.1
98574.7
97552.3
96525.3
95494
94458.5
93419.1
92375.9
91329.2
90279.1
89225.7
88169.2
87109.9
86047.7
84983
83915.7
82846.2
81774.4
80700.7
79625.1
78547.7
77468.9
76388.6
75307.1
74224.5
73141
72056.8
70971.9
69886.6
68800.9
67715.1
66629.2
65543.2
64457.4
63371.6
62286.1
61200.7
60115.5
59030.6
57945.9
56861.6
55777.9
54694.9
53612.9
52532.5
51454.2
50378.6
49306.6
48239.3
47177.6
46122.7
45076
44038.6
43011.8
41997.1
40995.1
40008.7
)
;
    }
    lowerWall
    {
        type            calculated;
        value           nonuniform List<scalar> 
120
(
146378
145455
144928
144549
144142
143685
143216
142752
142285
141803
141309
140806
140292
139767
139229
138678
138116
137541
136953
136352
135739
135113
134475
133825
133162
132488
131802
131104
130394
129673
128942
128199
127446
126682
125908
125124
124330
123526
122713
121890
121057
120215
119364
118504
117634
116756
115869
114973
114068
113155
112233
111304
110366
109420
108466
107504
106536
105560
104577
103588
102592
101591
100584
99571.3
98553.7
97531.2
96504.2
95472.9
94437.4
93398.1
92355
91308.4
90258.4
89205.1
88148.8
87089.6
86027.5
84962.9
83895.7
82826.2
81754.5
80680.8
79605.2
78527.9
77449
76368.7
75287.2
74204.6
73121.1
72036.9
70952
69866.7
68781.1
67695.3
66609.4
65523.5
64437.7
63352
62266.5
61181.2
60096.1
59011.3
57926.7
56842.6
55759
54676.1
53594.4
52514.2
51436.1
50360.8
49289.1
48222.1
47160.8
46106.3
45059.9
44022.9
42996.6
41981.9
40980.4
39992.5
)
;
    }
    inlet
    {
        type            calculated;
        value           nonuniform List<scalar> 
12
(
146378
146378
146382
146381
146379
146376
146371
146365
146357
146348
146339
146322
)
;
    }
    outlet
    {
        type            calculated;
        value           nonuniform List<scalar> 
12
(
39488.9
39503.8
39504
39502
39504.7
39504
39504.6
39505.1
39505.4
39505.8
39506.1
39506.6
)
;
    }
    frontAndBack
    {
        type            empty;
    }
}


// ************************************************************************* //
