/*--------------------------------*- C++ -*----------------------------------*\
  =========                 |
  \\      /  F ield         | OpenFOAM: The Open Source CFD Toolbox
   \\    /   O peration     | Website:  https://openfoam.org
    \\  /    A nd           | Version:  7
     \\/     M anipulation  |
\*---------------------------------------------------------------------------*/
FoamFile
{
    version     2.0;
    format      ascii;
    class       surfaceScalarField;
    location    "1.0325";
    object      phi_0;
}
// * * * * * * * * * * * * * * * * * * * * * * * * * * * * * * * * * * * * * //

dimensions      [1 0 -1 0 0 0 0];

internalField   nonuniform List<scalar> 
21708
(
0.00128431
0.000995316
1.35071e-05
0.000887404
0.000387697
6.14678e-06
0.000677327
0.00019568
1.15807e-05
0.000585913
8.20189e-05
6.64345e-06
0.000531583
4.06963e-05
1.07143e-05
0.000498358
2.31959e-05
6.83979e-06
0.000472447
1.24999e-05
1.00138e-05
0.000453468
8.53549e-06
6.9758e-06
0.000436398
4.19329e-06
9.45317e-06
0.000423065
2.93351e-06
7.05204e-06
0.000410264
5.36011e-07
8.96934e-06
0.000399981
-5.49138e-08
7.06704e-06
0.00038977
-1.57847e-06
8.53679e-06
0.000381413
-1.89069e-06
7.03121e-06
0.000372948
-2.84402e-06
8.13844e-06
0.000365624
-2.75007e-06
6.95445e-06
0.000356922
-2.14061e-06
7.76086e-06
0.000350637
-3.60252e-06
6.84458e-06
0.000295945
4.41486e-05
7.50428e-06
1.95044e-05
6.40814e-06
0.000267028
0.00223086
0.00105437
2.82955e-06
0.00203926
0.000580055
-3.90858e-06
0.00183358
0.000396809
1.63116e-06
0.00168946
0.000226504
-3.16461e-06
0.0015846
0.00014178
9.96724e-07
0.00151172
9.59729e-05
-2.83574e-06
0.00145297
6.77406e-05
3.7261e-07
0.00140879
5.20619e-05
-2.65717e-06
0.00136917
4.05978e-05
-1.63598e-07
0.0013382
3.30874e-05
-2.563e-06
0.0013088
2.7214e-05
-6.35823e-07
0.00128535
2.2594e-05
-2.53908e-06
0.00126226
1.92366e-05
-1.06351e-06
0.00124346
1.61607e-05
-2.57029e-06
0.00122511
1.36871e-05
-1.46145e-06
0.00120856
1.3214e-05
-2.64247e-06
0.00119739
7.70206e-06
-1.85536e-06
0.00117847
1.49442e-05
-2.73777e-06
0.00121577
6.11394e-06
-2.3466e-06
-2.81835e-05
-3.29143e-06
0.0012637
0.00255488
0.000782889
9.51356e-06
0.00264262
0.000485904
3.24588e-06
0.00263296
0.000395041
8.4135e-06
0.00259461
0.000258428
3.50867e-06
0.00254362
0.000182374
7.58705e-06
0.00249768
0.000135472
3.70858e-06
0.00245222
0.000103569
6.88194e-06
0.00241406
8.35294e-05
3.83436e-06
0.00237713
6.81759e-05
6.31039e-06
0.00234628
5.68365e-05
3.90352e-06
0.0023163
4.80676e-05
5.82036e-06
0.00229119
4.0423e-05
3.91401e-06
0.00226652
3.51143e-05
5.38355e-06
0.00224592
2.94227e-05
3.87507e-06
0.00222473
2.63983e-05
4.98283e-06
0.00220855
2.21247e-05
3.79449e-06
0.00218684
2.13563e-05
4.60993e-06
0.0021762
1.85635e-05
3.66768e-06
0.0021428
3.18709e-05
4.39288e-06
1.66045e-05
3.30206e-06
0.00209153
0.00256129
0.000510208
4.14021e-06
0.00271806
0.000327831
-1.85973e-06
0.00282035
0.000286462
3.2638e-06
0.00287879
0.000198589
-1.58216e-06
0.00290639
0.000149344
2.53871e-06
0.0029226
0.000117801
-1.30204e-06
0.0029263
9.53464e-05
1.90569e-06
0.00292755
8.07901e-05
-1.12465e-06
0.00292263
6.89876e-05
1.36926e-06
0.00291768
5.98785e-05
-1.02875e-06
0.00290934
5.23861e-05
8.98395e-07
0.00290177
4.57392e-05
-1.00275e-06
0.00289252
4.05542e-05
4.73011e-07
0.0028838
3.573e-05
-1.03136e-06
0.0028751
3.14626e-05
7.80089e-08
0.0028652
2.94701e-05
-1.10406e-06
0.0028599
2.32673e-05
-3.13712e-07
0.00284895
2.70689e-05
-1.22469e-06
0.00285977
1.83156e-05
-8.19995e-07
5.41552e-06
-1.69373e-06
0.00286919
0.00255027
0.000245317
7.45127e-06
0.00271459
0.000158703
1.65981e-06
0.00284577
0.000145626
6.64053e-06
0.00293611
0.00010348
1.78184e-06
0.00299672
7.99292e-05
5.87403e-06
0.0030452
6.45274e-05
2.01754e-06
0.00307933
5.33946e-05
5.21038e-06
0.00310925
4.61744e-05
2.17167e-06
0.00313085
4.01411e-05
4.65679e-06
0.00315025
3.54387e-05
2.25448e-06
0.00316403
3.14417e-05
4.17552e-06
0.00317653
2.78188e-05
2.27174e-06
0.00318514
2.49514e-05
3.74339e-06
0.00319319
2.20975e-05
2.23737e-06
0.0031979
1.99145e-05
3.34604e-06
0.00320344
1.8099e-05
2.15901e-06
0.00320386
1.6092e-05
2.97078e-06
0.00320866
1.63831e-05
2.0221e-06
0.00320418
1.63403e-05
2.68014e-06
1.5043e-05
1.67595e-06
0.00318918
0.00253237
1.41023e-10
5.72976e-06
0.0026879
6.22424e-10
2.45193e-08
0.00282553
2.20929e-10
4.98588e-06
0.00292589
1.05355e-09
1.30492e-07
0.00299866
2.2537e-10
4.22304e-06
0.00306003
2.15741e-09
3.70388e-07
0.00310724
8.8012e-10
3.56923e-06
0.00315038
4.4118e-09
5.32968e-07
0.00318494
3.38167e-09
3.0218e-06
0.00321702
9.06647e-09
6.21094e-07
0.00324295
1.26834e-08
2.54436e-06
0.003267
2.38681e-08
6.4184e-07
0.00328659
3.61745e-08
2.11471e-06
0.0033047
8.38878e-08
6.10233e-07
0.0033194
6.93102e-08
1.7185e-06
0.00333302
3.121e-07
5.34603e-07
0.00334388
9.67364e-08
1.3337e-06
0.00335499
9.32122e-07
3.98613e-07
0.00336611
4.31509e-07
9.15822e-07
1.695e-06
1.18712e-08
0.00337562
0.00253237
-0.000245317
5.72976e-06
0.0026879
-0.000158702
2.4518e-08
0.00282553
-0.000145625
4.98588e-06
0.00292589
-0.000103478
1.30487e-07
0.00299866
-7.99285e-05
4.22304e-06
0.00306003
-6.45234e-05
3.70376e-07
0.00310724
-5.33924e-05
3.56925e-06
0.00315038
-4.61664e-05
5.32939e-07
0.00318494
-4.01335e-05
3.02183e-06
0.00321702
-3.5423e-05
6.21023e-07
0.00324295
-3.14144e-05
2.54444e-06
0.00326701
-2.77777e-05
6.4166e-07
0.0032866
-2.48741e-05
2.11492e-06
0.00330472
-2.19474e-05
6.09764e-07
0.0033194
-1.97647e-05
1.71908e-06
0.00333306
-1.75109e-05
5.33427e-07
0.00334391
-1.58815e-05
1.33555e-06
0.00335505
-1.45471e-05
3.96241e-07
0.00336618
-1.54964e-05
9.23211e-07
-1.15024e-05
8.4857e-09
0.00337554
0.00255027
-0.000510207
7.45127e-06
0.00271459
-0.00032783
1.65981e-06
0.00284577
-0.000286461
6.64053e-06
0.00293611
-0.000198587
1.78185e-06
0.00299672
-0.000149343
5.87402e-06
0.0030452
-0.000117797
2.01755e-06
0.00307933
-9.53447e-05
5.21036e-06
0.00310925
-8.0782e-05
2.1717e-06
0.00313085
-6.89817e-05
4.65676e-06
0.00315025
-5.9862e-05
2.25454e-06
0.00316403
-5.23642e-05
4.17544e-06
0.00317653
-4.56965e-05
2.2719e-06
0.00318516
-4.0492e-05
3.74318e-06
0.00319321
-3.55816e-05
2.23781e-06
0.00319795
-3.13492e-05
3.34543e-06
0.00320353
-2.89123e-05
2.16017e-06
0.00320404
-2.31448e-05
2.96892e-06
0.00320898
-2.53752e-05
2.02428e-06
0.00320475
-1.77193e-05
2.67364e-06
-2.57636e-06
1.67789e-06
0.00319045
0.00256129
-0.000782889
4.14021e-06
0.00271806
-0.000485903
-1.85973e-06
0.00282035
-0.00039504
3.26381e-06
0.00287879
-0.000258426
-1.58216e-06
0.00290639
-0.000182373
2.53872e-06
0.0029226
-0.000135469
-1.30205e-06
0.0029263
-0.000103566
1.90571e-06
0.00292755
-8.35237e-05
-1.12468e-06
0.00292264
-6.81697e-05
1.3693e-06
0.00291769
-5.68256e-05
-1.02881e-06
0.00290935
-4.80469e-05
8.98494e-07
0.0029018
-4.03948e-05
-1.00291e-06
0.00289255
-3.50576e-05
4.7324e-07
0.00288387
-2.9318e-05
-1.03173e-06
0.00287518
-2.62956e-05
7.85734e-08
0.00286541
-2.16976e-05
-1.10493e-06
0.00286014
-2.12548e-05
-3.11957e-07
0.00284948
-1.71677e-05
-1.2266e-06
0.00286045
-3.14338e-05
-8.12587e-07
-1.41367e-05
-1.69658e-06
0.00287025
0.00255488
-0.00105437
9.51356e-06
0.00264262
-0.000580054
3.24588e-06
0.00263296
-0.000396808
8.4135e-06
0.00259461
-0.000226503
3.50868e-06
0.00254362
-0.000141779
7.58704e-06
0.00249768
-9.59707e-05
3.70859e-06
0.00245223
-6.77391e-05
6.88192e-06
0.00241406
-5.20582e-05
3.83438e-06
0.00237713
-4.0594e-05
6.31036e-06
0.00234628
-3.30804e-05
3.90356e-06
0.00231632
-2.72016e-05
5.82029e-06
0.00229122
-2.25761e-05
3.91413e-06
0.00226657
-1.92036e-05
5.38337e-06
0.00224601
-1.60938e-05
3.87543e-06
0.00222487
-1.36359e-05
4.9823e-06
0.00220884
-1.29378e-05
3.79548e-06
0.00218725
-7.70958e-06
4.60839e-06
0.00217708
-1.40295e-05
3.66947e-06
0.00214417
-6.16058e-06
4.3883e-06
2.91336e-05
3.30202e-06
0.00209443
0.00223086
-0.000995316
2.82955e-06
0.00203926
-0.000387696
-3.90858e-06
0.00183358
-0.000195679
1.63116e-06
0.00168946
-8.20179e-05
-3.16461e-06
0.0015846
-4.06953e-05
9.96728e-07
0.00151172
-2.31949e-05
-2.83575e-06
0.00145297
-1.24989e-05
3.72623e-07
0.00140879
-8.53447e-06
-2.65719e-06
0.00136917
-4.19134e-06
-1.63563e-07
0.00133821
-2.932e-06
-2.56306e-06
0.00130882
-5.30128e-07
-6.35735e-07
0.00128538
5.83809e-08
-2.53921e-06
0.00126231
1.59394e-06
-1.0633e-06
0.00124356
1.90569e-06
-2.57058e-06
0.00122523
2.87331e-06
-1.46095e-06
0.00120888
2.826e-06
-2.64316e-06
0.00119767
2.17761e-06
-1.85387e-06
0.00117937
3.89187e-06
-2.73968e-06
0.00121634
-4.38602e-05
-2.33993e-06
-1.89356e-05
-3.29632e-06
0.00126466
0.00128431
1.35071e-05
0.000887404
6.14678e-06
0.000677328
1.15806e-05
0.000585914
6.64345e-06
0.000531583
1.07143e-05
0.000498358
6.83979e-06
0.000472448
1.00138e-05
0.00045347
6.97581e-06
0.000436401
9.45315e-06
0.00042307
7.05208e-06
0.000410274
8.96929e-06
0.000399994
7.06714e-06
0.000389798
8.53665e-06
0.000381455
7.0315e-06
0.000373019
8.13802e-06
0.00036577
6.95529e-06
0.000357107
7.75975e-06
0.000351104
6.84638e-06
0.000296711
7.50193e-06
6.40964e-06
0.00026834
0.00188455
0.000418184
3.10804e-06
0.00136943
0.000513211
4.90172e-06
0.00102624
0.00034965
2.22624e-06
0.000844353
0.00018207
3.71386e-06
0.000753765
9.61943e-05
2.23357e-06
0.000697509
5.65595e-05
3.37505e-06
0.000660849
4.08825e-05
2.36947e-06
0.000628231
3.29435e-05
3.12348e-06
0.000604049
2.77396e-05
2.42841e-06
0.000580758
2.40988e-05
2.88478e-06
0.000563075
2.0919e-05
2.44218e-06
0.000545375
1.87846e-05
2.7029e-06
0.000531226
1.69597e-05
2.4556e-06
0.000516951
1.54853e-05
2.58075e-06
0.000504675
1.47513e-05
2.47932e-06
0.000492817
1.31806e-05
2.50226e-06
0.000485564
9.39924e-06
2.52713e-06
0.000465517
2.13869e-05
2.45325e-06
0.000564283
-9.68747e-05
2.55635e-06
-8.35393e-05
2.65196e-06
0.000648545
0.00238666
0.000318591
8.32961e-06
0.00232491
0.000557679
1.01906e-05
0.00220172
0.000463748
7.70426e-06
0.00206589
0.000302847
9.0298e-06
0.00195514
0.000197554
7.61981e-06
0.00186263
0.000134783
8.64295e-06
0.00179205
0.000101099
7.74234e-06
0.0017307
8.00495e-05
8.39188e-06
0.0016825
6.46297e-05
7.799e-06
0.00163853
5.39412e-05
8.1729e-06
0.00160294
4.46548e-05
7.81193e-06
0.00156939
3.83997e-05
7.99928e-06
0.00154122
3.2844e-05
7.81667e-06
0.0015145
2.83702e-05
7.87447e-06
0.00149047
2.61452e-05
7.82975e-06
0.00146991
2.00337e-05
7.78908e-06
0.00144494
2.14339e-05
7.86955e-06
0.00143839
1.43498e-05
7.7255e-06
0.00135196
-2.38445e-05
7.97773e-06
-9.79312e-07
7.96118e-06
0.00125513
0.00240989
0.000206475
4.0974e-06
0.00253588
0.000425632
6.12774e-06
0.00259703
0.00040468
3.28017e-06
0.00259536
0.000300021
5.03891e-06
0.00257329
0.000221088
3.28399e-06
0.00253835
0.000166042
4.67652e-06
0.00250665
0.000133454
3.53324e-06
0.00247254
0.000110725
4.44873e-06
0.00244326
9.35239e-05
3.67759e-06
0.00241305
8.06126e-05
4.23842e-06
0.00238715
6.93158e-05
3.74465e-06
0.00236087
6.11159e-05
4.06826e-06
0.00233824
5.35879e-05
3.7888e-06
0.00231494
4.80443e-05
3.94787e-06
0.00229574
4.29037e-05
3.83336e-06
0.00227321
3.89182e-05
3.87045e-06
0.00226121
3.0651e-05
3.88795e-06
0.00223599
3.6013e-05
3.8346e-06
0.00224292
-3.35402e-05
3.87218e-06
-1.8163e-05
3.99015e-06
0.00225622
0.00236236
0.000133543
7.2072e-06
0.00250158
0.00027229
9.10775e-06
0.00263293
0.000266824
6.72168e-06
0.00271146
0.000208799
8.11225e-06
0.00276346
0.000162072
6.65108e-06
0.00278998
0.00012781
7.69347e-06
0.00280901
0.000106956
6.76343e-06
0.00281689
9.16635e-05
7.43604e-06
0.00282264
7.95331e-05
6.82644e-06
0.00282204
6.99797e-05
7.21769e-06
0.00282098
6.12681e-05
6.84314e-06
0.00281614
5.46306e-05
7.04282e-06
0.00281151
4.84368e-05
6.8504e-06
0.00280466
4.34257e-05
6.91889e-06
0.00279766
3.94417e-05
6.86728e-06
0.0027904
3.44923e-05
6.83711e-06
0.00277886
3.12045e-05
6.90731e-06
0.00277423
2.89436e-05
6.79546e-06
0.00273094
-1.64785e-06
7.02808e-06
2.07397e-05
7.01233e-06
0.00267988
0.00236438
6.38245e-05
5.18897e-06
0.00249399
0.000134024
7.15627e-06
0.00262545
0.00013434
4.61876e-06
0.00271947
0.000107382
6.15936e-06
0.00279417
8.57778e-05
4.55293e-06
0.00284612
6.94035e-05
5.73053e-06
0.00289146
5.95233e-05
4.7056e-06
0.00292513
5.21175e-05
5.48211e-06
0.00295556
4.62614e-05
4.80403e-06
0.0029781
4.15212e-05
5.2712e-06
0.00299851
3.71151e-05
4.84452e-06
0.00301341
3.37013e-05
5.10026e-06
0.00302708
3.03279e-05
4.86883e-06
0.00303647
2.78509e-05
4.97966e-06
0.00304564
2.50847e-05
4.89898e-06
0.00305008
2.35134e-05
4.90258e-06
0.00305643
1.90014e-05
4.94072e-06
0.00305733
2.12925e-05
4.875e-06
0.00305291
-3.26795e-06
4.95721e-06
6.2739e-06
5.04122e-06
0.00306033
0.00235582
-1.62768e-10
6.1821e-06
0.0024786
2.56899e-10
8.11176e-06
0.00260917
-2.70668e-10
5.70483e-06
0.00270651
6.71608e-10
7.15262e-06
0.00278796
-1.37665e-10
5.63013e-06
0.00284826
1.66771e-09
6.7185e-06
0.00290302
4.92973e-10
5.75102e-06
0.00294665
3.73979e-09
6.46415e-06
0.00298742
2.95822e-09
5.83047e-06
0.00302043
1.00427e-08
6.25198e-06
0.00305116
1.1063e-08
5.8586e-06
0.00307622
3.17987e-08
6.08016e-06
0.00309949
3.09947e-08
5.87338e-06
0.00311849
1.03757e-07
5.95846e-06
0.00313573
8.14849e-08
5.89596e-06
0.0031498
3.03946e-07
5.87945e-06
0.00316001
2.70452e-07
5.93524e-06
0.0031711
7.65767e-07
5.85028e-06
0.00315793
9.52312e-07
6.01708e-06
1.83332e-06
6.03994e-06
0.00315256
0.00235582
-6.38248e-05
6.1821e-06
0.0024786
-0.000134024
8.11176e-06
0.00260917
-0.000134341
5.70483e-06
0.00270651
-0.000107381
7.15262e-06
0.00278796
-8.57783e-05
5.63013e-06
0.00284826
-6.93999e-05
6.7185e-06
0.00290302
-5.95228e-05
5.75101e-06
0.00294665
-5.21093e-05
6.46417e-06
0.00298742
-4.62567e-05
5.83045e-06
0.00302043
-4.14992e-05
6.25201e-06
0.00305117
-3.70968e-05
5.85855e-06
0.00307622
-3.36326e-05
6.08025e-06
0.0030995
-3.02769e-05
5.87327e-06
0.00311849
-2.76325e-05
5.9587e-06
0.00313576
-2.4954e-05
5.89562e-06
0.00314982
-2.28928e-05
5.88004e-06
0.00316014
-1.85665e-05
5.93413e-06
0.00317132
-1.986e-05
5.85135e-06
0.00315826
5.07952e-06
6.01216e-06
-3.0213e-06
6.04186e-06
0.00315329
0.00236438
-0.000133543
5.18897e-06
0.00249399
-0.00027229
7.15627e-06
0.00262545
-0.000266825
4.61876e-06
0.00271947
-0.000208798
6.15935e-06
0.00279417
-0.000162073
4.55294e-06
0.00284612
-0.000127807
5.73053e-06
0.00289146
-0.000106956
4.70561e-06
0.00292514
-9.16565e-05
5.4821e-06
0.00295556
-7.95278e-05
4.80405e-06
0.00297811
-6.99608e-05
5.27117e-06
0.00299851
-6.12485e-05
4.84456e-06
0.00301342
-5.45721e-05
5.10017e-06
0.00302709
-4.83828e-05
4.86894e-06
0.00303651
-4.32367e-05
4.97943e-06
0.00304567
-3.93027e-05
4.89929e-06
0.00305019
-3.39441e-05
4.90199e-06
0.0030565
-3.07393e-05
4.94173e-06
0.00305749
-2.76016e-05
4.87387e-06
0.00305316
3.36548e-06
4.9614e-06
-1.74283e-05
5.03947e-06
0.00306053
0.00236236
-0.000206475
7.2072e-06
0.00250158
-0.000425632
9.10775e-06
0.00263293
-0.00040468
6.72168e-06
0.00271146
-0.00030002
8.11225e-06
0.00276346
-0.000221088
6.65108e-06
0.00278998
-0.000166039
7.69347e-06
0.00280901
-0.000133453
6.76342e-06
0.00281689
-0.000110718
7.43606e-06
0.00282264
-9.35198e-05
6.82642e-06
0.00282204
-8.05953e-05
7.21773e-06
0.00282099
-6.93017e-05
6.84308e-06
0.00281615
-6.10631e-05
7.0429e-06
0.00281155
-5.35521e-05
6.85027e-06
0.00280472
-4.78762e-05
6.91907e-06
0.00279777
-4.28189e-05
6.86693e-06
0.00279058
-3.84421e-05
6.83755e-06
0.00277923
-3.03663e-05
6.90618e-06
0.00277486
-3.49459e-05
6.7963e-06
0.00273206
3.47819e-05
7.02339e-06
2.0433e-05
7.0133e-06
0.00268205
0.00240989
-0.000318591
4.0974e-06
0.00253588
-0.000557678
6.12774e-06
0.00259703
-0.000463748
3.28017e-06
0.00259536
-0.000302846
5.03891e-06
0.00257329
-0.000197554
3.284e-06
0.00253835
-0.000134781
4.67651e-06
0.00250665
-0.000101098
3.53324e-06
0.00247254
-8.00455e-05
4.44872e-06
0.00244326
-6.46253e-05
3.67761e-06
0.00241307
-5.39314e-05
4.2384e-06
0.00238716
-4.4642e-05
3.74469e-06
0.00236091
-3.83695e-05
4.0682e-06
0.00233828
-3.28126e-05
3.7889e-06
0.00231505
-2.82698e-05
3.94768e-06
0.00229585
-2.60697e-05
3.83365e-06
0.00227351
-1.97437e-05
3.86992e-06
0.00226154
-2.11766e-05
3.88877e-06
0.00223671
-1.36766e-05
3.83351e-06
0.00224385
2.48712e-05
3.87511e-06
2.77789e-06
3.9891e-06
0.00225763
0.00238666
-0.000418184
8.32961e-06
0.00232491
-0.00051321
1.01906e-05
0.00220172
-0.00034965
7.70426e-06
0.00206589
-0.00018207
9.0298e-06
0.00195514
-9.61944e-05
7.61981e-06
0.00186263
-5.65587e-05
8.64296e-06
0.00179205
-4.08822e-05
7.74233e-06
0.0017307
-3.29417e-05
8.39189e-06
0.00168251
-2.77381e-05
7.79898e-06
0.00163854
-2.40941e-05
8.17293e-06
0.00160297
-2.09147e-05
7.81188e-06
0.00156943
-1.87704e-05
7.99936e-06
0.00154128
-1.69508e-05
7.81655e-06
0.00151461
-1.54383e-05
7.87465e-06
0.00149064
-1.47355e-05
7.82941e-06
0.00147023
-1.30445e-05
7.78954e-06
0.0014455
-9.37091e-06
7.86855e-06
0.00143928
-2.10468e-05
7.72653e-06
0.00135398
9.67848e-05
7.97382e-06
8.33761e-05
7.9633e-06
0.0012591
0.00188455
3.10804e-06
0.00136943
4.90172e-06
0.00102624
2.22624e-06
0.000844354
3.71386e-06
0.000753765
2.23357e-06
0.00069751
3.37505e-06
0.00066085
2.36947e-06
0.000628234
3.12348e-06
0.000604054
2.42842e-06
0.000580767
2.88477e-06
0.000563088
2.4422e-06
0.000545403
2.70286e-06
0.000531263
2.45565e-06
0.000517036
2.58064e-06
0.000504775
2.47945e-06
0.000493054
2.50197e-06
0.00048583
2.52737e-06
0.000466118
2.45266e-06
0.000564805
2.55678e-06
2.65047e-06
0.000648896
0.00212525
0.000170003
-3.46225e-11
0.00188048
0.000246492
-3.48638e-11
0.00161921
0.00026049
-3.47926e-11
0.00138955
0.000230602
-3.48064e-11
0.00120411
0.000185022
-3.41958e-11
0.00106615
0.000138455
-3.45258e-11
0.000965935
9.92109e-05
-3.44566e-11
0.000896311
6.9035e-05
-3.52163e-11
0.000846732
4.83906e-05
-3.53579e-11
0.000812021
3.42919e-05
-3.58717e-11
0.000785751
2.55947e-05
-3.53097e-11
0.000765546
1.97674e-05
-3.49756e-11
0.000748611
1.61662e-05
-3.43987e-11
0.000733975
1.39715e-05
-3.46698e-11
0.000721758
1.15111e-05
-3.49519e-11
0.000708636
1.2515e-05
-3.54631e-11
0.000701764
6.33659e-06
-3.57079e-11
0.000686209
1.49845e-05
-3.58145e-11
0.000690319
-4.6252e-06
-3.58041e-11
-6.37624e-06
-3.57842e-11
0.000696272
0.00234794
0.000122518
-3.46893e-11
0.00239028
0.00021118
-3.4796e-11
0.00239497
0.000260446
-3.45313e-11
0.00236938
0.000262272
-3.48233e-11
0.00232264
0.000236617
-3.4902e-11
0.00226841
0.00019868
-3.55678e-11
0.00221152
0.00016111
-3.49913e-11
0.00215734
0.00012864
-3.47541e-11
0.00210615
0.000104176
-3.44917e-11
0.00205965
8.55915e-05
-3.55593e-11
0.00201694
7.26499e-05
-3.59362e-11
0.00197847
6.27096e-05
-3.60925e-11
0.00194335
5.55511e-05
-3.53083e-11
0.00191167
4.99919e-05
-3.49614e-11
0.00188312
4.44448e-05
-3.4764e-11
0.0018569
4.32056e-05
-3.51057e-11
0.0018346
3.33103e-05
-3.53326e-11
0.00181194
4.22949e-05
-3.55258e-11
0.00179539
1.69303e-05
-3.5279e-11
3.24283e-05
-3.51364e-11
0.00176162
0.00233606
8.26797e-05
-3.47389e-11
0.00240204
0.000148174
-3.48691e-11
0.0024704
0.000192317
-3.45003e-11
0.0025325
0.000202209
-3.46777e-11
0.00257841
0.000191148
-3.48676e-11
0.00261018
0.000168929
-3.58673e-11
0.00262803
0.000144223
-3.57219e-11
0.00263658
0.00012186
-3.5506e-11
0.0026375
0.000104056
-3.45964e-11
0.00263395
9.03168e-05
-3.47476e-11
0.00262699
8.01217e-05
-3.48091e-11
0.002618
7.23842e-05
-3.54538e-11
0.00260781
6.59909e-05
-3.53691e-11
0.00259638
6.16763e-05
-3.51574e-11
0.00258534
5.55323e-05
-3.46051e-11
0.00257295
5.57141e-05
-3.47578e-11
0.00256279
4.37011e-05
-3.52229e-11
0.00255012
5.53075e-05
-3.60124e-11
0.00254118
2.63643e-05
-3.63253e-11
4.95155e-05
-3.54792e-11
0.0025249
0.00232626
5.57452e-05
-3.47854e-11
0.00238249
9.79022e-05
-3.4923e-11
0.00245171
0.000126771
-3.45507e-11
0.00252485
0.000134166
-3.47361e-11
0.00259113
0.000128659
-3.48657e-11
0.00264933
0.000115771
-3.57925e-11
0.00269669
0.000101086
-3.56809e-11
0.0027358
8.75666e-05
-3.56622e-11
0.00276708
7.68085e-05
-3.48688e-11
0.00279309
6.85359e-05
-3.50156e-11
0.00281453
6.24055e-05
-3.50678e-11
0.00283282
5.78993e-05
-3.57116e-11
0.00284832
5.39466e-05
-3.56796e-11
0.0028616
5.17051e-05
-3.53634e-11
0.00287283
4.73461e-05
-3.43028e-11
0.00288289
4.85761e-05
-3.40261e-11
0.00289056
3.90128e-05
-3.4193e-11
0.00289922
4.96514e-05
-3.52056e-11
0.00290225
2.67183e-05
-3.6548e-11
5.11593e-05
-3.63625e-11
0.00290407
0.00232684
2.62153e-05
-3.48369e-11
0.00238129
4.74596e-05
-3.49924e-11
0.00244718
6.24479e-05
-3.47113e-11
0.00251822
6.62678e-05
-3.4864e-11
0.0025849
6.3675e-05
-3.48467e-11
0.00264623
5.75221e-05
-3.55757e-11
0.00269904
5.04405e-05
-3.54757e-11
0.00274547
4.40223e-05
-3.55705e-11
0.0027854
3.88828e-05
-3.49047e-11
0.00282118
3.50545e-05
-3.50922e-11
0.00285316
3.2159e-05
-3.51709e-11
0.00288276
3.0211e-05
-3.57976e-11
0.00290994
2.82959e-05
-3.57352e-11
0.00293551
2.75751e-05
-3.54647e-11
0.00295873
2.52206e-05
-3.43964e-11
0.00298172
2.65324e-05
-3.40943e-11
0.00300058
2.10993e-05
-3.41279e-11
0.00302349
2.76963e-05
-3.49312e-11
0.00303641
1.50181e-05
-3.6253e-11
2.91007e-05
-3.63375e-11
0.00305981
0.00232452
-2.00282e-10
-3.48877e-11
0.00237694
4.51497e-10
-3.50485e-11
0.00244204
-5.09695e-10
-3.48205e-11
0.00251245
1.07904e-09
-3.50601e-11
0.00257889
-6.33622e-10
-3.4931e-11
0.00264048
2.44272e-09
-3.54716e-11
0.00269414
-1.78263e-10
-3.52131e-11
0.00274202
5.30613e-09
-3.54179e-11
0.00278393
1.86783e-09
-3.50004e-11
0.00282224
1.30999e-08
-3.54103e-11
0.00285715
7.89926e-09
-3.54563e-11
0.00289022
3.74295e-08
-3.59275e-11
0.00292105
2.12422e-08
-3.57131e-11
0.00295094
1.11588e-07
-3.55179e-11
0.00297822
5.07944e-08
-3.48759e-11
0.00300636
3.1157e-07
-3.48719e-11
0.00302922
1.61481e-07
-3.49578e-11
0.00305805
7.41855e-07
-3.54983e-11
0.00307465
6.75898e-07
-3.61114e-11
1.48398e-06
-3.58173e-11
0.00310457
0.00232452
-2.62157e-05
-3.49513e-11
0.00237694
-4.74587e-05
-3.50885e-11
0.00244204
-6.24489e-05
-3.49341e-11
0.00251245
-6.62656e-05
-3.52031e-11
0.00257889
-6.36764e-05
-3.50506e-11
0.00264048
-5.75171e-05
-3.54168e-11
0.00269414
-5.04411e-05
-3.50325e-11
0.00274202
-4.40114e-05
-3.51829e-11
0.00278393
-3.88796e-05
-3.48758e-11
0.00282224
-3.50277e-05
-3.53698e-11
0.00285715
-3.21444e-05
-3.53681e-11
0.00289022
-3.01354e-05
-3.56849e-11
0.00292105
-2.82557e-05
-3.54044e-11
0.00295094
-2.73518e-05
-3.53397e-11
0.00297822
-2.51239e-05
-3.5357e-11
0.00300637
-2.59131e-05
-3.57947e-11
0.00302924
-2.079e-05
-3.6048e-11
0.0030581
-2.6235e-05
-3.63784e-11
0.00307475
-1.37198e-05
-3.60734e-11
-2.62391e-05
-3.53644e-11
0.00310478
0.00232684
-5.57456e-05
-3.49936e-11
0.00238129
-9.79014e-05
-3.5144e-11
0.00244718
-0.000126772
-3.50465e-11
0.00251822
-0.000134164
-3.5396e-11
0.0025849
-0.000128661
-3.5112e-11
0.00264623
-0.000115767
-3.52867e-11
0.00269904
-0.000101087
-3.47549e-11
0.00274547
-8.75561e-05
-3.50427e-11
0.0027854
-7.68053e-05
-3.49962e-11
0.00282118
-6.85103e-05
-3.56878e-11
0.00285317
-6.23911e-05
-3.56184e-11
0.00288277
-5.78276e-05
-3.57691e-11
0.00290995
-5.39074e-05
-3.53411e-11
0.00293552
-5.14933e-05
-3.5424e-11
0.00295876
-4.72538e-05
-3.59457e-11
0.00298178
-4.79845e-05
-3.66645e-11
0.00300066
-3.87265e-05
-3.69439e-11
0.00302361
-4.82425e-05
-3.69127e-11
0.00303663
-2.55059e-05
-3.57071e-11
-4.83884e-05
-3.47072e-11
0.00306011
0.00232626
-8.268e-05
-3.50534e-11
0.00238249
-0.000148173
-3.52204e-11
0.00245171
-0.000192318
-3.52254e-11
0.00252485
-0.000202207
-3.5525e-11
0.00259113
-0.00019115
-3.50629e-11
0.00264933
-0.000168924
-3.50218e-11
0.00269669
-0.000144224
-3.45166e-11
0.00273581
-0.00012185
-3.49686e-11
0.00276708
-0.000104054
-3.51039e-11
0.0027931
-9.02922e-05
-3.58341e-11
0.00281454
-8.01107e-05
-3.57298e-11
0.00283283
-7.23169e-05
-3.57994e-11
0.00284834
-6.59608e-05
-3.53168e-11
0.00286164
-6.14811e-05
-3.55898e-11
0.00287289
-5.54635e-05
-3.62659e-11
0.002883
-5.51759e-05
-3.69458e-11
0.00289074
-4.34836e-05
-3.70178e-11
0.00289955
-5.4049e-05
-3.65122e-11
0.00290281
-2.53837e-05
-3.49557e-11
-4.72089e-05
-3.45566e-11
0.0029051
0.00233606
-0.000122518
-3.50835e-11
0.00240204
-0.00021118
-3.52856e-11
0.0024704
-0.000260447
-3.52943e-11
0.0025325
-0.000262271
-3.5565e-11
0.00257841
-0.000236618
-3.49687e-11
0.00261018
-0.000198676
-3.48416e-11
0.00262803
-0.00016111
-3.44216e-11
0.00263658
-0.000128632
-3.51768e-11
0.00263751
-0.000104173
-3.55126e-11
0.00263396
-8.55727e-05
-3.62151e-11
0.002627
-7.26411e-05
-3.59844e-11
0.00261803
-6.26581e-05
-3.59146e-11
0.00260784
-5.553e-05
-3.54778e-11
0.00259646
-4.98413e-05
-3.58356e-11
0.00258545
-4.44021e-05
-3.61778e-11
0.00257318
-4.27911e-05
-3.64097e-11
0.0025631
-3.31734e-05
-3.60304e-11
0.00255072
-4.1332e-05
-3.53924e-11
0.00254208
-1.62371e-05
-3.48067e-11
-3.07538e-05
-3.55834e-11
0.00252643
0.00234794
-0.000170003
-3.51622e-11
0.00239028
-0.000246492
-3.53856e-11
0.00239497
-0.00026049
-3.52665e-11
0.00236938
-0.000230602
-3.53705e-11
0.00232264
-0.000185022
-3.48962e-11
0.00226841
-0.000138453
-3.51934e-11
0.00221152
-9.92104e-05
-3.52535e-11
0.00215735
-6.90318e-05
-3.60327e-11
0.00210616
-4.8388e-05
-3.57257e-11
0.00205967
-3.42841e-05
-3.5508e-11
0.00201696
-2.55879e-05
-3.48486e-11
0.00197852
-1.97442e-05
-3.51678e-11
0.0019434
-1.61537e-05
-3.54751e-11
0.00191181
-1.38982e-05
-3.60899e-11
0.00188328
-1.14941e-05
-3.6135e-11
0.00185726
-1.23039e-05
-3.6081e-11
0.00183505
-6.29274e-06
-3.58658e-11
0.00181287
-1.44927e-05
-3.58209e-11
0.00179671
4.91708e-06
-3.60316e-11
6.86163e-06
-3.62215e-11
0.00176415
0.00212525
-3.52174e-11
0.00188048
-3.53213e-11
0.00161921
-3.49884e-11
0.00138955
-3.53302e-11
0.00120411
-3.55745e-11
0.00106616
-3.63562e-11
0.000965937
-3.58577e-11
0.000896316
-3.54228e-11
0.00084674
-3.46751e-11
0.000812037
-3.52101e-11
0.000785774
-3.56237e-11
0.000765592
-3.63787e-11
0.000748669
-3.6371e-11
0.000734107
-3.63812e-11
0.000721907
-3.60123e-11
0.000708994
-3.58498e-11
0.000702173
-3.56278e-11
0.000687093
-3.55841e-11
0.000691517
-3.55497e-11
-3.55286e-11
0.000697957
0.00212525
0.000170003
-3.10809e-06
0.00188048
0.000246492
-4.90178e-06
0.00161921
0.00026049
-2.22629e-06
0.00138955
0.000230602
-3.71393e-06
0.00120411
0.000185021
-2.23362e-06
0.00106615
0.000138455
-3.37511e-06
0.000965935
9.92108e-05
-2.36953e-06
0.000896311
6.90349e-05
-3.12355e-06
0.000846732
4.83905e-05
-2.42847e-06
0.000812021
3.42918e-05
-2.88484e-06
0.000785751
2.55947e-05
-2.44224e-06
0.000765546
1.97675e-05
-2.70296e-06
0.000748611
1.61664e-05
-2.45566e-06
0.000733974
1.39716e-05
-2.58081e-06
0.000721758
1.1511e-05
-2.47938e-06
0.000708636
1.25149e-05
-2.50232e-06
0.000701764
6.33653e-06
-2.52719e-06
0.000686209
1.49844e-05
-2.45331e-06
0.000690319
-4.62524e-06
-2.5564e-06
-6.37628e-06
-2.65202e-06
0.000696272
0.00234794
0.000122518
-8.32968e-06
0.00239028
0.00021118
-1.01907e-05
0.00239497
0.000260446
-7.70433e-06
0.00236938
0.000262272
-9.02986e-06
0.00232264
0.000236617
-7.61988e-06
0.00226841
0.00019868
-8.64302e-06
0.00221152
0.00016111
-7.74241e-06
0.00215734
0.00012864
-8.39195e-06
0.00210615
0.000104175
-7.79906e-06
0.00205965
8.55914e-05
-8.17296e-06
0.00201694
7.26502e-05
-7.81199e-06
0.00197847
6.271e-05
-7.99935e-06
0.00194335
5.55514e-05
-7.81673e-06
0.00191167
4.9992e-05
-7.87453e-06
0.00188312
4.44448e-05
-7.82982e-06
0.0018569
4.32055e-05
-7.78915e-06
0.0018346
3.33102e-05
-7.86962e-06
0.00181194
4.22948e-05
-7.72556e-06
0.00179539
1.69304e-05
-7.9778e-06
3.24283e-05
-7.96125e-06
0.00176162
0.00233606
8.26797e-05
-4.09746e-06
0.00240204
0.000148174
-6.1278e-06
0.0024704
0.000192317
-3.28023e-06
0.0025325
0.000202209
-5.03897e-06
0.00257841
0.000191148
-3.28406e-06
0.00261018
0.000168929
-4.67658e-06
0.00262803
0.000144223
-3.5333e-06
0.00263658
0.00012186
-4.4488e-06
0.00263751
0.000104056
-3.67766e-06
0.00263395
9.03169e-05
-4.23848e-06
0.00262699
8.0122e-05
-3.74471e-06
0.002618
7.23845e-05
-4.06833e-06
0.00260781
6.59911e-05
-3.78886e-06
0.00259638
6.16763e-05
-3.94793e-06
0.00258534
5.55322e-05
-3.83342e-06
0.00257295
5.57139e-05
-3.87051e-06
0.00256279
4.37009e-05
-3.88801e-06
0.00255012
5.53075e-05
-3.83466e-06
0.00254118
2.63644e-05
-3.87224e-06
4.95157e-05
-3.99021e-06
0.0025249
0.00232626
5.57452e-05
-7.20726e-06
0.00238249
9.79022e-05
-9.10782e-06
0.00245171
0.000126771
-6.72175e-06
0.00252485
0.000134166
-8.11231e-06
0.00259113
0.000128659
-6.65114e-06
0.00264933
0.000115771
-7.69353e-06
0.00269669
0.000101086
-6.76349e-06
0.0027358
8.75666e-05
-7.43611e-06
0.00276708
7.68086e-05
-6.82651e-06
0.00279309
6.85362e-05
-7.21776e-06
0.00281453
6.24059e-05
-6.8432e-06
0.00283282
5.78996e-05
-7.04289e-06
0.00284832
5.39468e-05
-6.85046e-06
0.0028616
5.17051e-05
-6.91895e-06
0.00287283
4.7346e-05
-6.86734e-06
0.00288289
4.85759e-05
-6.83718e-06
0.00289056
3.90126e-05
-6.90738e-06
0.00289922
4.96513e-05
-6.79553e-06
0.00290225
2.67183e-05
-7.02815e-06
5.11595e-05
-7.0124e-06
0.00290407
0.00232684
2.62153e-05
-5.18903e-06
0.00238129
4.74596e-05
-7.15634e-06
0.00244718
6.24478e-05
-4.61882e-06
0.00251822
6.62677e-05
-6.15942e-06
0.0025849
6.36749e-05
-4.553e-06
0.00264623
5.75219e-05
-5.7306e-06
0.00269904
5.04405e-05
-4.70567e-06
0.00274547
4.40223e-05
-5.48218e-06
0.0027854
3.8883e-05
-4.80409e-06
0.00282118
3.50549e-05
-5.27127e-06
0.00285316
3.21595e-05
-4.84458e-06
0.00288276
3.02114e-05
-5.10032e-06
0.00290994
2.82961e-05
-4.8689e-06
0.00293551
2.75752e-05
-4.97972e-06
0.00295873
2.52206e-05
-4.89905e-06
0.00298172
2.65322e-05
-4.90264e-06
0.00300058
2.10991e-05
-4.94078e-06
0.00302349
2.76961e-05
-4.87506e-06
0.00303641
1.50179e-05
-4.95727e-06
2.91007e-05
-5.04128e-06
0.00305981
0.00232452
-2.19098e-10
-6.18217e-06
0.00237694
4.17682e-10
-8.11183e-06
0.00244204
-5.60486e-10
-5.7049e-06
0.00251245
9.89698e-10
-7.15268e-06
0.00257889
-7.7347e-10
-5.6302e-06
0.00264048
2.30925e-09
-6.71856e-06
0.00269414
-2.2004e-10
-5.75108e-06
0.00274202
5.39238e-09
-6.46422e-06
0.00278393
2.12073e-09
-5.83053e-06
0.00282224
1.35168e-08
-6.25204e-06
0.00285715
8.38968e-09
-5.85866e-06
0.00289022
3.78648e-08
-6.08022e-06
0.00292105
2.15114e-08
-5.87345e-06
0.00295094
1.11703e-07
-5.95852e-06
0.00297822
5.0802e-08
-5.89602e-06
0.00300636
3.11443e-07
-5.87952e-06
0.00302922
1.61308e-07
-5.9353e-06
0.00305805
7.4161e-07
-5.85035e-06
0.00307465
6.75624e-07
-6.01715e-06
1.48392e-06
-6.04001e-06
0.00310457
0.00232452
-2.62157e-05
-6.18217e-06
0.00237694
-4.74587e-05