/*--------------------------------*- C++ -*----------------------------------*\
  =========                 |
  \\      /  F ield         | OpenFOAM: The Open Source CFD Toolbox
   \\    /   O peration     | Website:  https://openfoam.org
    \\  /    A nd           | Version:  7
     \\/     M anipulation  |
\*---------------------------------------------------------------------------*/
FoamFile
{
    version     2.0;
    format      ascii;
    class       volScalarField;
    location    "2.2975";
    object      k_0;
}
// * * * * * * * * * * * * * * * * * * * * * * * * * * * * * * * * * * * * * //

dimensions      [0 2 -2 0 0 0 0];

internalField   nonuniform List<scalar> 
4950
(
32.6407
37.048
37.2085
37.2745
37.2354
37.2581
37.2167
37.2266
37.19
37.1973
37.1676
37.1744
37.1507
37.157
37.1392
37.1429
37.1369
37.1257
37.1706
37.3565
9.02791
10.2488
10.1122
9.74045
9.46504
9.32925
9.23319
9.19071
9.14541
9.12629
9.09742
9.086
9.06518
9.05759
9.04293
9.03666
9.03837
9.01589
9.19485
9.24401
5.70446
7.0039
7.30829
7.38557
7.39697
7.41784
7.42167
7.43475
7.43691
7.44606
7.44655
7.4524
7.4518
7.45582
7.45444
7.45757
7.45598
7.45738
7.46269
7.49154
5.45426
6.72068
7.07203
7.21411
7.27881
7.33763
7.36984
7.40926
7.43005
7.45961
7.47403
7.49716
7.5074
7.52583
7.53325
7.54763
7.55398
7.56293
7.56997
7.59731
5.41796
6.69271
7.04561
7.19348
7.2612
7.32467
7.35995
7.40436
7.42882
7.46379
7.4824
7.51097
7.52549
7.54897
7.56047
7.57942
7.5893
7.60323
7.61164
7.64229
5.45426
6.72069
7.07203
7.21411
7.2788
7.33764
7.36983
7.40927
7.43003
7.45964
7.47399
7.49721
7.50733
7.52592
7.53317
7.54778
7.55381
7.56312
7.57
7.59752
5.70446
7.0039
7.30829
7.38557
7.39697
7.41785
7.42166
7.43476
7.43689
7.44609
7.44652
7.45245
7.45172
7.45595
7.45425
7.45788
7.45558
7.45785
7.46231
7.4924
9.02791
10.2488
10.1122
9.74045
9.46504
9.32925
9.23318
9.19072
9.14538
9.12632
9.09734
9.08609
9.06498
9.05771
9.04248
9.03703
9.03722
9.01764
9.18993
9.24687
32.6407
37.048
37.2085
37.2745
37.2354
37.2581
37.2166
37.2266
37.1899
37.1974
37.1675
37.1746
37.1504
37.1576
37.1383
37.1447
37.1337
37.1316
37.1598
37.3795
5.0441
7.29374
7.61281
7.55906
7.5181
7.4491
7.43355
7.39284
7.38653
7.35949
7.35639
7.33665
7.33514
7.31969
7.31966
7.30577
7.30898
7.29107
7.2904
7.34882
3.75017
6.01801
6.52459
6.63191
6.65808
6.67004
6.6771
6.6837
6.68737
6.69119
6.69294
6.69508
6.69577
6.69715
6.69725
6.69842
6.69774
6.69809
6.70338
6.71949
3.56624
5.76394
6.27348
6.3976
6.42333
6.43706
6.44069
6.44887
6.45246
6.45998
6.46349
6.4699
6.47323
6.47824
6.48156
6.48505
6.48846
6.49039
6.49116
6.51947
3.5739
5.76938
6.27368
6.39662
6.42196
6.43303
6.43362
6.43661
6.43676
6.43898
6.43941
6.4415
6.44202
6.44384
6.44444
6.44594
6.44687
6.44781
6.44951
6.47065
3.55737
5.74552
6.25216
6.37762
6.40299
6.41467
6.41466
6.4172
6.41656
6.41834
6.41782
6.41918
6.41874
6.41975
6.41936
6.42012
6.41968
6.42015
6.41946
6.43791
3.5739
5.76938
6.27368
6.39662
6.42196
6.43303
6.43361
6.43662
6.43675
6.43899
6.4394
6.44152
6.442
6.44387
6.4444
6.44602
6.44665
6.44792
6.4494
6.47059
3.56624
5.76394
6.27347
6.39761
6.42333
6.43706
6.44069
6.44888
6.45245
6.46001
6.46342
6.47
6.47307
6.47847
6.48119
6.48557
6.4877
6.49115
6.49057
6.51974
3.75017
6.01801
6.52459
6.63191
6.65808
6.67004
6.67709
6.68371
6.68735
6.69123
6.69288
6.69515
6.69571
6.69727
6.69702
6.69877
6.69698
6.69911
6.70172
6.72197
5.0441
7.29374
7.61281
7.55906
7.5181
7.4491
7.43355
7.39285
7.38652
7.35951
7.35638
7.33669
7.33512
7.31978
7.31959
7.30602
7.30869
7.29213
7.28889
7.35258
0.288495
0.963392
1.21455
1.25624
1.23619
1.19231
1.14905
1.11377
1.08619
1.06351
1.04701
1.03191
1.0218
1.01088
1.00442
0.996206
0.99116
0.986665
0.977254
0.991618
0.0633053
0.361037
0.579679
0.68493
0.729517
0.752162
0.763436
0.773329
0.780323
0.787638
0.792904
0.798246
0.801857
0.805575
0.808015
0.810418
0.812548
0.813392
0.815183
0.820104
0.0541147
0.305453
0.486211
0.584033
0.622884
0.645173
0.651653
0.658698
0.660542
0.664642
0.666347
0.670023
0.672006
0.67549
0.677801
0.680917
0.683277
0.686234
0.687725
0.693403
0.0556691
0.313404
0.495553
0.590661
0.629011
0.649198
0.655387
0.660136
0.660823
0.66224
0.662376
0.662905
0.663083
0.663494
0.663937
0.664259
0.665001
0.665319
0.666137
0.669892
0.0539132
0.304429
0.482031
0.578125
0.61563
0.637087
0.642569
0.647959
0.64831
0.649583
0.649336
0.649729
0.649468
0.649674
0.649504
0.649622
0.649494
0.6496
0.649197
0.652076
0.055669
0.313404
0.495552
0.590661
0.62901
0.649198
0.655386
0.660137
0.660823
0.66224
0.662376
0.662906
0.663082
0.663495
0.663934
0.664257
0.66499
0.665309
0.666124
0.669865
0.0541146
0.305453
0.48621
0.584034
0.622883
0.645174
0.651652
0.658699
0.660542
0.664644
0.666345
0.670034
0.671979
0.675516
0.677757
0.680951
0.683218
0.686225
0.687689
0.693319
0.0633053
0.361037
0.579678
0.684931
0.729515
0.752164
0.763433
0.773333
0.780316
0.787647
0.792887
0.798264
0.801826
0.805608
0.807948
0.810477
0.812425
0.8134
0.815099
0.820017
0.288495
0.963392
1.21455
1.25624
1.23619
1.19232
1.14905
1.11377
1.08619
1.06352
1.047
1.03193
1.0218
1.01094
1.00441
0.996353
0.991146
0.986958
0.977301
0.992392
5.0441
7.29374
7.61281
7.55906
7.5181
7.4491
7.43355
7.39284
7.38653
7.35949
7.35639
7.33665
7.33514
7.31969
7.31966
7.30577
7.30898
7.29107
7.2904
7.34882
3.75017
6.01801
6.52459
6.63191
6.65808
6.67004
6.6771
6.6837
6.68737
6.69119
6.69294
6.69508
6.69577
6.69715
6.69725
6.69842
6.69774
6.69809
6.70338
6.71949
3.56624
5.76394
6.27348
6.3976
6.42333
6.43706
6.44069
6.44887
6.45246
6.45998
6.46349
6.4699
6.47323
6.47824
6.48156
6.48505
6.48846
6.49039
6.49116
6.51947
3.5739
5.76938
6.27368
6.39662
6.42196
6.43303
6.43362
6.43661
6.43676
6.43898
6.43941
6.4415
6.44202
6.44384
6.44444
6.44594
6.44687
6.44781
6.44951
6.47065
3.55737
5.74552
6.25216
6.37762
6.40299
6.41467
6.41466
6.4172
6.41656
6.41834
6.41782
6.41918
6.41874
6.41975
6.41936
6.42012
6.41968
6.42015
6.41946
6.43791
3.5739
5.76938
6.27368
6.39662
6.42196
6.43303
6.43361
6.43662
6.43675
6.43899
6.4394
6.44152
6.442
6.44387
6.4444
6.44602
6.44665
6.44792
6.4494
6.47059
3.56624
5.76394
6.27347
6.39761
6.42333
6.43706
6.44069
6.44888
6.45245
6.46001
6.46342
6.47
6.47307
6.47847
6.48119
6.48557
6.4877
6.49115
6.49057
6.51974
3.75017
6.01801
6.52459
6.63191
6.65808
6.67004
6.67709
6.68371
6.68735
6.69123
6.69288
6.69515
6.69571
6.69727
6.69702
6.69877
6.69698
6.69911
6.70172
6.72197
5.0441
7.29374
7.61281
7.55906
7.5181
7.4491
7.43355
7.39285
7.38652
7.35951
7.35638
7.33669
7.33512
7.31978
7.31959
7.30602
7.30869
7.29213
7.28889
7.35258
32.6407
37.048
37.2085
37.2745
37.2354
37.2581
37.2167
37.2266
37.19
37.1973
37.1676
37.1744
37.1507
37.157
37.1392
37.1429
37.1369
37.1257
37.1706
37.3565
9.02791
10.2488
10.1122
9.74045
9.46504
9.32925
9.23319
9.19071
9.14541
9.12629
9.09742
9.086
9.06518
9.05759
9.04293
9.03666
9.03837
9.01589
9.19485
9.24401
5.70446
7.0039
7.30829
7.38557
7.39697
7.41784
7.42167
7.43475
7.43691
7.44606
7.44655
7.4524
7.4518
7.45582
7.45444
7.45757
7.45598
7.45738
7.46269
7.49154
5.45426
6.72068
7.07203
7.21411
7.27881
7.33763
7.36984
7.40926
7.43005
7.45961
7.47403
7.49716
7.5074
7.52583
7.53325
7.54763
7.55398
7.56293
7.56997
7.59731
5.41796
6.69271
7.04561
7.19348
7.2612
7.32467
7.35995
7.40436
7.42882
7.46379
7.4824
7.51097
7.52549
7.54897
7.56047
7.57942
7.5893
7.60323
7.61164
7.64229
5.45426
6.72069
7.07203
7.21411
7.2788
7.33764
7.36983
7.40927
7.43003
7.45964
7.47399
7.49721
7.50733
7.52592
7.53317
7.54778
7.55381
7.56312
7.57
7.59752
5.70446
7.0039
7.30829
7.38557
7.39697
7.41785
7.42166
7.43476
7.43689
7.44609
7.44652
7.45245
7.45172
7.45595
7.45425
7.45788
7.45558
7.45785
7.46231
7.4924
9.02791
10.2488
10.1122
9.74045
9.46504
9.32925
9.23318
9.19072
9.14538
9.12632
9.09734
9.08609
9.06498
9.05771
9.04248
9.03703
9.03722
9.01764
9.18993
9.24687
32.6407
37.048
37.2085
37.2745
37.2354
37.2581
37.2166
37.2266
37.1899
37.1974
37.1675
37.1746
37.1504
37.1576
37.1383
37.1447
37.1337
37.1316
37.1598
37.3795
96.2436
97.8829
98.4786
98.9761
99.3373
99.7131
100.008
100.321
100.574
100.843
101.068
101.31
101.517
101.738
101.927
102.127
102.301
102.484
102.645
102.813
102.959
103.111
103.241
103.375
103.489
103.605
103.701
103.796
103.872
103.947
104.003
104.059
104.098
104.137
104.161
104.185
104.198
104.212
104.217
104.225
104.226
104.231
104.229
104.233
104.231
104.234
104.232
104.234
104.232
104.235
104.233
104.235
104.234
104.236
104.234
104.236
104.235
104.236
104.235
104.237
104.236
104.237
104.236
104.238
104.237
104.238
104.237
104.238
104.238
104.239
104.238
104.239
104.238
104.239
104.238
104.239
104.238
104.239
104.238
104.239
104.238
104.239
104.237
104.238
104.236
104.237
104.234
104.235
104.201
104.177
32.7386
34.8168
35.0508
35.2422
35.3435
35.4896
35.5729
35.6964
35.768
35.8749
35.939
36.0353
36.095
36.1828
36.2378
36.3176
36.3684
36.4417
36.4889
36.5563
36.5994
36.6603
36.6987
36.7531
36.7864
36.8339
36.8614
36.9015
36.9227
36.9552
36.9702
36.9957
37.005
37.0241
37.0287
37.0423
37.0433
37.0528
37.0516
37.0586
37.0562
37.0618
37.0589
37.0637
37.0609
37.0652
37.0625
37.0666
37.0641
37.068
37.0657
37.0693
37.0673
37.0707
37.0689
37.0721
37.0705
37.0735
37.072
37.075
37.0736
37.0764
37.0752
37.0778
37.0767
37.0792
37.0782
37.0806
37.0797
37.082
37.0812
37.0833
37.0826
37.0846
37.084
37.0859
37.0853
37.0871
37.0866
37.0882
37.0877
37.0891
37.0886
37.0899
37.0893
37.0905
37.0894
37.0916
37.078
37.0745
23.0738
25.5942
25.8127
25.9553
26.0004
26.1078
26.1475
26.242
26.2776
26.3608
26.3928
26.4679
26.4985
26.5681
26.5969
26.6608
26.6874
26.7461
26.7711
26.8255
26.8487
26.8985
26.9191
26.964
26.982
27.022
27.037
27.0716
27.0831
27.1121
27.1199
27.1435
27.1481
27.1667
27.1683
27.1826
27.1818
27.1928
27.1904
27.1991
27.1958
27.2031
27.1995
27.206
27.2025
27.2084
27.2052
27.2108
27.2078
27.2131
27.2105
27.2155
27.2131
27.2179
27.2158
27.2203
27.2184
27.2228
27.2211
27.2253
27.2238
27.2278
27.2265
27.2303
27.2292
27.2328
27.2319
27.2353
27.2346
27.2379
27.2372
27.2404
27.2398
27.2429
27.2424
27.2453
27.245
27.2477
27.2474
27.25
27.2498
27.2522
27.252
27.2542
27.254
27.2561
27.2559
27.2574
27.2584
27.2379
22.0177
25.0098
25.2959
25.4321
25.4557
25.5454
25.5696
25.653
25.6773
25.7528
25.7751
25.8438
25.866
25.9307
25.9526
26.0126
26.0328
26.088
26.1073
26.1589
26.1771
26.2247
26.2411
26.2844
26.2988
26.3379
26.3503
26.3848
26.3944
26.4239
26.4307
26.4552
26.4592
26.4792
26.4807
26.4965
26.4959
26.5083
26.5059
26.5159
26.5126
26.521
26.5173
26.5248
26.5212
26.5281
26.5247
26.5312
26.5281
26.5342
26.5315
26.5374
26.5349
26.5405
26.5384
26.5437
26.5419
26.547
26.5454
26.5503
26.5489
26.5536
26.5524
26.5569
26.556
26.5603
26.5595
26.5636
26.563
26.567
26.5666
26.5704
26.5701
26.5737
26.5735
26.577
26.577
26.5803
26.5803
26.5835
26.5836
26.5866
26.5867
26.5895
26.5897
26.5924
26.5926
26.5945
26.5965
26.577
22.0034
25.0412
25.3251
25.4473
25.4521
25.5237
25.5345
25.6049
25.6194
25.6853
25.6994
25.7601
25.7753
25.8334
25.8494
25.9037
25.9186
25.9687
25.9831
26.0301
26.0442
26.0878
26.1005
26.1403
26.1516
26.1879
26.1978
26.2302
26.238
26.2661
26.2716
26.2954
26.2986
26.3184
26.3195
26.3354
26.3346
26.3474
26.345
26.3554
26.352
26.3609
26.3571
26.365
26.3613
26.3685
26.3651
26.3719
26.3689
26.3753
26.3726
26.3787
26.3763
26.3822
26.3801
26.3857
26.3839
26.3893
26.3877
26.3929
26.3916
26.3965
26.3954
26.4001
26.3993
26.4038
26.4031
26.4075
26.407
26.4112
26.4108
26.4148
26.4147
26.4185
26.4184
26.4221
26.4222
26.4257
26.4259
26.4292
26.4294
26.4326
26.4328
26.4359
26.4361
26.439
26.4395
26.4412
26.4469
26.4238
22.0172
24.9781
25.2229
25.3166
25.306
25.3604
25.3595
25.415
25.4205
25.474
25.4806
25.5306
25.5393
25.5878
25.5978
25.6434
25.6529
25.695
25.7045
25.7442
25.7537
25.7907
25.7992
25.8331
25.8408
25.8718
25.8785
25.9065
25.9117
25.9361
25.9396
25.9605
25.9624
25.98
25.9802
25.9946
25.9932
26.005
26.0023
26.0121
26.0086
26.0169
26.0132
26.0206
26.017
26.0239
26.0205
26.027
26.024
26.0301
26.0274
26.0332
26.0308
26.0364
26.0343
26.0396
26.0378
26.0429
26.0413
26.0462
26.0448
26.0495
26.0484
26.0528
26.0519
26.0562
26.0555
26.0596
26.059
26.063
26.0626
26.0663
26.0661
26.0697
26.0696
26.073
26.073
26.0763
26.0764
26.0795
26.0796
26.0826
26.0828
26.0856
26.0858
26.0884
26.0888
26.0905
26.0931
26.0744
23.0453
25.4655
25.5888
25.6462
25.6241
25.6644
25.6546
25.6972
25.6942
25.7347
25.7342
25.7723
25.7745
25.8114
25.8151
25.8497
25.8534
25.8855
25.8897
25.9199
25.9243
25.9525
25.9564
25.9822
25.9858
26.0095
26.0126
26.034
26.0362
26.055
26.0561
26.0723
26.0723
26.0862
26.0851
26.0967
26.0945
26.1042
26.1011
26.1093
26.1057
26.1128
26.1092
26.1156
26.1121
26.118
26.1148
26.1204
26.1175
26.1228
26.1202
26.1252
26.1228
26.1276
26.1255
26.1301
26.1282
26.1325
26.1309
26.1351
26.1337
26.1376
26.1364
26.1401
26.1391
26.1427
26.1418
26.1452
26.1445
26.1478
26.1472
26.1503
26.1498
26.1528
26.1525
26.1553
26.155
26.1577
26.1575
26.1601
26.1599
26.1623
26.1622
26.1644
26.1643
26.1664
26.1664
26.1675
26.1699
26.1505
32.561
34.375
34.4173
34.4536
34.4303
34.4613
34.4496
34.482
34.4764
34.5067
34.5037
34.5322
34.5319
34.5591
34.5602
34.5854
34.5868
34.6101
34.6121
34.634
34.6362
34.6564
34.6584
34.6769
34.6788
34.6958
34.6974
34.7127
34.7136
34.7271
34.7273
34.739
34.7384
34.7484
34.7471
34.7555
34.7534
34.7605
34.7578
34.7637
34.7608
34.7659
34.763
34.7677
34.7648
34.7692
34.7666
34.7706
34.7682
34.7721
34.7699
34.7735
34.7716
34.775
34.7732
34.7765
34.7749
34.778
34.7765
34.7794
34.7782
34.7809
34.7798
34.7824
34.7814
34.7839
34.783
34.7854
34.7846
34.7869
34.7862
34.7883
34.7877
34.7897
34.7892
34.791
34.7906
34.7923
34.7919
34.7935
34.7931
34.7946
34.7942
34.7955
34.7951
34.7963
34.7956
34.7975
34.7858
34.7831
95.3949
96.2052
96.2314
96.2716
96.2561
96.2944
96.2947
96.336
96.3442
96.3827
96.3932
96.4294
96.4428
96.4777
96.4922
96.5241
96.5378
96.5671
96.5808
96.6083
96.6216
96.6468
96.6588
96.6816
96.6927
96.7135
96.7233
96.7418
96.7499
96.7658
96.772
96.7852
96.7896
96.8005
96.8031
96.8115
96.8124
96.8187
96.8182
96.8229
96.8216
96.8253
96.8235
96.8267
96.8248
96.8276
96.8259
96.8285
96.8268
96.8293
96.8278
96.83
96.8287
96.8308
96.8295
96.8316
96.8304
96.8323
96.8313
96.8331
96.8321
96.8338
96.8329
96.8345
96.8337
96.8352
96.8345
96.8359
96.8352
96.8366
96.8359
96.8372
96.8366
96.8377
96.8371
96.8382
96.8376
96.8385
96.838
96.8388
96.8382
96.8388
96.8381
96.8386
96.8378
96.838
96.8367
96.8374
96.8075
96.7858
23.0272
23.8712
24.0344
24.1489
24.2423
24.3316
24.4049
24.4816
24.5419
24.6098
24.6621
24.7245
24.7715
24.8289
24.8711
24.9238
24.9621
25.011
25.046
25.0911
25.1226
25.1633
25.1911
25.2275
25.2514
25.283
25.3025
25.3289
25.3438
25.3651
25.3755
25.392
25.3984
25.4105
25.4135
25.4221
25.4227
25.4287
25.4278
25.4322
25.4305
25.4341
25.4322
25.4353
25.4334
25.4362
25.4344
25.437
25.4353
25.4378
25.4363
25.4386
25.4372
25.4394
25.4382
25.4403
25.4391
25.4411
25.44
25.4419
25.441
25.4427
25.4419
25.4436
25.4428
25.4444
25.4437
25.4452
25.4446
25.4461
25.4456
25.447
25.4465
25.4478
25.4474
25.4488
25.4484
25.4497
25.4494
25.4508
25.4505
25.4519
25.4518
25.4533
25.4532
25.455
25.4547
25.4582
25.4529
25.4561
20.9653
22.6024
22.8027
22.9163
23.0028
23.0887
23.1586
23.2316
23.2905
23.354
23.4056
23.4633
23.5102
23.5631
23.6056
23.6539
23.6926
23.737
23.7726
23.8135
23.8457
23.8827
23.9113
23.9442
23.9691
23.9977
24.0184
24.0422
24.0585
24.0776
24.0896
24.1041
24.1122
24.1227
24.1274
24.1345
24.1366
24.1412
24.1417
24.1446
24.1443
24.1464
24.1456
24.1473
24.1464
24.1479
24.1471
24.1485
24.1477
24.149
24.1482
24.1495
24.1488
24.15
24.1494
24.1505
24.15
24.151
24.1506
24.1516
24.1512
24.1522
24.1518
24.1527
24.1524
24.1533
24.1531
24.1539
24.1537
24.1545
24.1544
24.1552
24.155
24.1558
24.1557
24.1565
24.1564
24.1572
24.1571
24.158
24.1579
24.1587
24.1587
24.1596
24.1594
24.1605
24.1603
24.1611
24.1624
24.162
19.0228
21.2543
21.5212
21.6269
21.7008
21.7733
21.8351
21.8983
21.9525
22.0077
22.0555
22.1054
22.1495
22.1959
22.2365
22.2788
22.3157
22.3546
22.3888
22.4248
22.4561
22.4888
22.5168
22.546
22.5707
22.5964
22.6175
22.6392
22.6564
22.6739
22.6871
22.7005
22.7101
22.7198
22.7261
22.7326
22.7362
22.7402
22.7419
22.7442
22.7448
22.7461
22.7461
22.747
22.7468
22.7475
22.7473
22.7478
22.7476
22.7482
22.748
22.7485
22.7483
22.7488
22.7486
22.7491
22.749
22.7495
22.7494
22.7498
22.7497
22.7502
22.7501
22.7505
22.7505
22.7509
22.7509
22.7513
22.7513
22.7517
22.7517
22.7521
22.7522
22.7526
22.7526
22.753
22.7531
22.7535
22.7535
22.7539
22.7539
22.7544
22.7544
22.7548
22.7547
22.7553
22.755
22.7557
22.7565
22.7413
18.4935
20.8868
21.1647
21.2495
21.3041
21.3606
21.4107
21.464
21.511
21.5591
21.6012
21.645
21.6845
21.7259
21.763
21.8011
21.8349
21.8698
21.9012
21.9338
21.9629
21.9927
22.0189
22.0457
22.069
22.0929
22.1133
22.1338
22.1508
22.1676
22.181
22.1941
22.2042
22.214
22.221
22.2277
22.232
22.2362
22.2384
22.2408
22.2417
22.243
22.2432
22.244
22.2439
22.2444
22.2443
22.2447
22.2446
22.2449
22.2448
22.2451
22.245
22.2454
22.2453
22.2456
22.2455
22.2458
22.2458
22.246
22.246
22.2463
22.2463
22.2465
22.2465
22.2468
22.2468
22.2471
22.2471
22.2473
22.2473
22.2476
22.2476
22.2479
22.2479
22.2482
22.2482
22.2485
22.2485
22.2487
22.2487
22.249
22.249
22.2493
22.2492
22.2495
22.2493
22.2496
22.2489
22.2375
18.1577
20.6681
20.9447
21.0085
21.0434
21.0826
21.119
21.1603
21.1976
21.2365
21.2706
21.3067
21.3394
21.3744
21.4057
21.4382
21.4667
21.4966
21.5231
21.5512
21.5761
21.6019
21.6244
21.6477
21.6679
21.6888
21.7067
21.725
21.7401
21.7553
21.7674
21.7795
21.7887
21.7979
21.8045
21.811
21.8152
21.8193
21.8215
21.824
21.8248
21.8262
21.8264
21.8272
21.8271
21.8276
21.8275
21.8279
21.8277
21.8281
21.8279
21.8283
21.8281
21.8285
21.8283
21.8287
21.8286
21.8289
21.8288
21.8291
21.829
21.8293
21.8292
21.8295
21.8294
21.8297
21.8297
21.8299
21.8299
21.8302
21.8302
21.8304
21.8304
21.8306
21.8306
21.8309
21.8309
21.8311
21.8311
21.8314
21.8314
21.8316
21.8316
21.8319
21.8317
21.832
21.8318
21.8318
21.8327
21.8167
18.4918
20.8545
21.0932
21.1402
21.1612
21.1878
21.2125
21.2431
21.2704
21.3003
21.326
21.3543
21.3796
21.4076
21.4322
21.4583
21.4808
21.5048
21.5259
21.5486
21.5684
21.5894
21.6073
21.6263
21.6424
21.6596
21.674
21.6891
21.7014
21.714
21.7239
21.734
21.7417
21.7495
21.7551
21.7607
21.7642
21.7679
21.7697
21.7719
21.7726
21.7739
21.7741
21.7748
21.7748
21.7753
21.7751
21.7756
21.7754
21.7758
21.7757
21.776
21.7759
21.7763
21.7762
21.7765
21.7765
21.7768
21.7767
21.777
21.777
21.7773
21.7773
21.7776
21.7775
21.7778
21.7778
21.7781
21.7781
21.7784
21.7784
21.7787
21.7787
21.779
21.779
21.7793
21.7793
21.7796
21.7796
21.7799
21.7799
21.7802
21.7802
21.7805
21.7804
21.7808
21.7806
21.7808
21.7805
21.7698
19.0017
21.1475
21.3313
21.3627
21.3744
21.3921
21.4073
21.4285
21.446
21.4669
21.4836
21.5039
21.5207
21.541
21.5574
21.5763
21.5913
21.6089
21.623
21.6396
21.6529
21.6682
21.6802
21.6941
21.7049
21.7176
21.7272
21.7384
21.7465
21.7559
21.7625
21.7701
21.7751
21.7812
21.7847
21.7891
21.7913
21.7943
21.7953
21.7972
21.7975
21.7987
21.7987
21.7995
21.7993
21.8
21.7998
21.8004
21.8002
21.8008
21.8006
21.8012
21.801
21.8015
21.8014
21.8019
21.8018
21.8023
21.8022
21.8027
21.8026
21.8031
21.803
21.8035
21.8035
21.8039
21.8039
21.8043
21.8043
21.8048
21.8048
21.8052
21.8053
21.8057
21.8057
21.8062
21.8062
21.8067
21.8067
21.8072
21.8072
21.8077
21.8077
21.8082
21.8081
21.8087
21.8086
21.809
21.8105
21.7966
20.8676
22.3384
22.4145
22.4275
22.4311
22.4437
22.4506
22.4661
22.4738
22.4892
22.4965
22.5116
22.5191
22.5341
22.5413
22.5553
22.5617
22.5747
22.5808
22.5932
22.5988
22.6102
22.6151
22.6255
22.6299
22.6395
22.6433
22.6518
22.6549
22.6621
22.6645
22.6706
22.6721
22.6772
22.678
22.6819
22.6821
22.6851
22.6847
22.687
22.6863
22.6882
22.6874
22.689
22.6882
22.6897
22.6889
22.6902
22.6895
22.6908
22.6901
22.6914
22.6908
22.692
22.6914
22.6926
22.6921
22.6932
22.6927
22.6938
22.6934
22.6944
22.6941
22.695
22.6947
22.6957
22.6954
22.6963
22.6961
22.697
22.6968
22.6977
22.6976
22.6984
22.6983
22.6991
22.6991
22.6999
22.6999
22.7007
22.7007
22.7015
22.7015
22.7025
22.7024
22.7035
22.7035
22.7042
22.7059
22.7056
22.7948
23.4251
23.4479
23.4512
23.4522
23.4592
23.4602
23.4703
23.4707
23.4816
23.4812
23.4925
23.4919
23.5033
23.5026
23.5135
23.5124
23.5229
23.5218
23.5318
23.5308
23.5401
23.5389
23.5476
23.5465
23.5545
23.5533
23.5607
23.5593
23.566
23.5644
23.5703
23.5686
23.5739
23.572
23.5766
23.5746
23.5786
23.5765
23.5801
23.578
23.5812
23.5792
23.5822
23.5803
23.5831
23.5813
23.5839
23.5823
23.5848
23.5834
23.5857
23.5844
23.5866
23.5854
23.5875
23.5864
23.5884
23.5874
23.5892
23.5883
23.5901
23.5893
23.591
23.5903
23.5919
23.5913
23.5928
23.5923
23.5937
23.5932
23.5947
23.5942
23.5956
23.5952
23.5966
23.5963
23.5976
23.5974
23.5987
23.5986
23.6
23.5999
23.6014
23.6014
23.6032
23.6031
23.6065
23.6016
23.6046
4.6328
5.0128
5.05902
5.08067
5.10532
5.12728
5.14655
5.16825
5.18275
5.20376
5.21476
5.23504
5.24349
5.26267
5.2692
5.28718
5.29233
5.30915
5.31322
5.3288
5.33191
5.34619
5.34845
5.36138
5.36282
5.37432
5.37492
5.38495
5.38474
5.39337
5.39241
5.39976
5.39816
5.40437
5.40228
5.40755
5.40517
5.40974
5.40725
5.41132
5.40887
5.41257
5.41024
5.41367
5.41149
5.4147
5.41268
5.41569
5.41383
5.41666
5.41495
5.41762
5.41605
5.41857
5.41714
5.41952
5.41822
5.42047
5.41929
5.42143
5.42035
5.42239
5.42142
5.42337
5.4225
5.42436
5.42358
5.42538
5.42468
5.42643
5.42581
5.42751
5.42697
5.42865
5.42817
5.42985
5.42943
5.43111
5.43075
5.43246
5.43215
5.4339
5.43363
5.43539
5.43515
5.43692
5.43655
5.43879
5.43661
5.43831
4.26884
5.20998
5.33093
5.36532
5.38864
5.41062
5.42842
5.4474
5.46179
5.47875
5.49091
5.50651
5.51709
5.53147
5.54071
5.55395
5.56213
5.57438
5.58168
5.59293
5.59936
5.60956
5.61511
5.62422
5.62887
5.63684
5.64051
5.64725
5.64995
5.65545
5.65727
5.66157
5.66261
5.66586
5.66627
5.66865
5.6686
5.67036
5.67004
5.67143
5.67097
5.67216
5.67166
5.67272
5.67225
5.67323
5.67279
5.67372
5.67332
5.6742
5.67385
5.67469
5.67438
5.67519
5.67492
5.67569
5.67546
5.6762
5.67601
5.67673
5.67657
5.67726
5.67714
5.67782
5.67773
5.67838
5.67833
5.67897
5.67895
5.67958
5.67959
5.68022
5.68025
5.68088
5.68094
5.68159
5.68167
5.68233
5.68243
5.68311
5.68324
5.68395
5.68408
5.68483
5.68496
5.68571
5.6859
5.68626
5.68713
5.68862
3.46768
4.6738
4.87564
4.92485
4.94734
4.96631
4.98142
4.99678
5.00952
5.02282
5.03405
5.04609
5.05637
5.06742
5.07679
5.08686
5.09539
5.10464
5.1125
5.12099
5.12814
5.13581
5.14219
5.14903
5.15462
5.16058
5.16531
5.17031
5.17413
5.17814
5.18105
5.18413
5.18621
5.18844
5.1898
5.19131
5.19209
5.19307
5.19345
5.19408
5.19426
5.19467
5.19475
5.19506
5.19512
5.19539
5.19543
5.19568
5.19574
5.19598
5.19603
5.19627
5.19633
5.19657
5.19664
5.19687
5.19694
5.19717
5.19725
5.19748
5.19757
5.1978
5.19789
5.19812
5.19821
5.19844
5.19855
5.19878
5.19888
5.19912
5.19923
5.19946
5.19958
5.19982
5.19995
5.20019
5.20032
5.20057
5.2007
5.20096
5.20109
5.20136
5.20149
5.20177
5.2019
5.2022
5.2023
5.20261
5.20311
5.20062
3.1879
4.43862
4.67007
4.71753
4.73683
4.74902
4.76157
4.77203
4.78312
4.7926
4.80249
4.81139
4.82059
4.82911
4.83758
4.84551
4.85323
4.86063
4.86778
4.87473
4.8813
4.88768
4.89358
4.89934
4.90459
4.90971
4.91426
4.91862
4.92238
4.92592
4.92887
4.93162
4.93382
4.93582
4.93733
4.93867
4.93959
4.94041
4.94089
4.94135
4.94158
4.94183
4.94193
4.94207
4.94213
4.94223
4.94227
4.94236
4.94239
4.94248
4.94252
4.9426
4.94264
4.94273
4.94277
4.94286
4.94291
4.94299
4.94304
4.94313
4.94318
4.94327
4.94333
4.94342
4.94348
4.94357
4.94363
4.94372
4.94379
4.94388
4.94395
4.94405
4.94413
4.94422
4.94431
4.9444
4.94449
4.94459
4.94468
4.94478
4.94487
4.94498
4.94504
4.94516
4.94518
4.94528
4.94524
4.94527
4.94492
4.94275
3.04733
4.31202
4.54668
4.59177
4.60483
4.61401
4.62231
4.63106
4.6392
4.64747
4.65508
4.66296
4.67031
4.67792
4.68484
4.69191
4.69827
4.70485
4.7108
4.71697
4.72248
4.72814
4.73312
4.73824
4.74271
4.74729
4.75122
4.75517
4.75846
4.76171
4.76433
4.7669
4.76888
4.7708
4.77218
4.77351
4.77435
4.77518
4.77561
4.77609
4.77627
4.77654
4.7766
4.77674
4.77676
4.77685
4.77685
4.77693
4.77693
4.777
4.777
4.77707
4.77707
4.77714
4.77714
4.77721
4.77722
4.77728
4.77729
4.77735
4.77737
4.77743
4.77744
4.7775
4.77752
4.77758
4.7776
4.77766
4.77768
4.77774
4.77776
4.77783
4.77785
4.77791
4.77793
4.778
4.77802
4.77809
4.77811
4.77817
4.77819
4.77826
4.77827
4.77834
4.77833
4.77839
4.77836
4.77838
4.77846
4.77588
3.18764
4.43288
4.65652
4.69586
4.70767
4.71315
4.71992
4.72526
4.73185
4.73724
4.74343
4.74888
4.75491
4.76045
4.76614
4.77142
4.77663
4.78165
4.78653
4.79132
4.79585
4.8003
4.8044
4.80847
4.81217
4.81586
4.81913
4.82236
4.82511
4.82779
4.83002
4.83217
4.83388
4.83551
4.83673
4.83787
4.83863
4.83936
4.83978
4.8402
4.8404
4.84065
4.84074
4.84088
4.84093
4.84104
4.84108
4.84118
4.84121
4.84131
4.84135
4.84144
4.84148
4.84157
4.84162
4.84171
4.84176
4.84185
4.8419
4.84199
4.84205
4.84214
4.8422
4.84229
4.84235
4.84245
4.84251
4.84261
4.84267
4.84277
4.84284
4.84294
4.84302
4.84312
4.8432
4.8433
4.84339
4.8435
4.84359
4.8437
4.84378
4.8439
4.84397
4.84409
4.84412
4.84422
4.84419
4.8442
4.84391
4.8419
3.46493
4.65487
4.83956
4.87252
4.88101
4.88764
4.89221
4.89814
4.90258
4.90819
4.91247
4.91793
4.92221
4.92751
4.93157
4.93647
4.9402
4.94477
4.94828
4.95255
4.95579
4.95969
4.96262
4.96616
4.9688
4.972
4.97432
4.97712
4.97906
4.98142
4.98298
4.98491
4.98611
4.98763
4.98847
4.9896
4.99011
4.99092
4.99119
4.99175
4.99189
4.99228
4.99236
4.99268
4.99273
4.99301
4.99306
4.99333
4.99338
4.99364
4.9937
4.99395
4.99401
4.99426
4.99433
4.99458
4.99466
4.9949
4.99498
4.99522
4.99531
4.99555
4.99564
4.99588
4.99598
4.99622
4.99633
4.99657
4.99668
4.99692
4.99704
4.99728
4.9974
4.99765
4.99778
4.99803
4.99816
4.99842
4.99856
4.99882
4.99896
4.99924
4.99938
4.99967
4.9998
5.0001
5.00023
5.00052
5.00112
4.99895
4.25444
5.16194
5.25523
5.26689
5.27142
5.27699
5.28072
5.28697
5.29003
5.29632
5.29885
5.30502
5.30725
5.31321
5.31505
5.3206
5.32211
5.32729
5.32859
5.33342
5.33449
5.33892
5.33978
5.34383
5.34453
5.3482
5.34873
5.352
5.35232
5.35519
5.35532
5.35779
5.35776
5.35986
5.35966
5.36142
5.36107
5.36256
5.36211
5.36339
5.3629
5.36404
5.36355
5.3646
5.36414
5.36512
5.3647
5.36563
5.36525
5.36614
5.36581
5.36665
5.36636
5.36716
5.36691
5.36769
5.36747
5.36822
5.36804
5.36876
5.36862
5.36931
5.36921
5.36988
5.36981
5.37046
5.37042
5.37107
5.37105
5.37169
5.37171
5.37234
5.37238
5.37302
5.37309
5.37373
5.37383
5.37449
5.3746
5.37529
5.37543
5.37614
5.37629
5.37704
5.37719
5.37794
5.37816
5.37851
5.37948
5.38084
4.59021
4.92589
4.94452
4.94479
4.95124
4.95752
4.96296
4.97193
4.9751
4.98501
4.98632
4.99648
4.99641
5.00642
5.00532
5.01499
5.01312
5.02236
5.02
5.02872
5.02605
5.0342
5.03134
5.03893
5.03598
5.04302
5.04003
5.04651
5.04353
5.04948
5.04652
5.05197
5.04908
5.05406
5.05124
5.0558
5.05307
5.05725
5.05464
5.0585
5.05604
5.05963
5.05733
5.06068
5.05855
5.06168
5.05971
5.06266
5.06085
5.06362
5.06195
5.06456
5.06304
5.0655
5.06412
5.06644
5.06518
5.06738
5.06623
5.06833
5.06729
5.06928
5.06834
5.07025
5.0694
5.07123
5.07047
5.07224
5.07156
5.07327
5.07267
5.07435
5.07382
5.07547
5.07501
5.07666
5.07626
5.07792
5.07757
5.07925
5.07896
5.08068
5.08043
5.08216
5.08195
5.08368
5.08335
5.08555
5.08343
5.08496
23.0272
23.8712
24.0344
24.1489
24.2423
24.3316
24.4049
24.4816
24.5419
24.6098
24.6621
24.7245
24.7715
24.8289
24.8711
24.9238
24.9621
25.011
25.046
25.0911
25.1226
25.1633
25.1911
25.2275
25.2514
25.283
25.3025
25.3289
25.3438
25.3651
25.3755
25.392
25.3984
25.4105
25.4135
25.4221
25.4227
25.4287
25.4278
25.4322
25.4305
25.4341
25.4322
25.4353
25.4334
25.4362
25.4344
25.437
25.4353
25.4378
25.4363
25.4386
25.4372
25.4394
25.4382
25.4403
25.4391
25.4411
25.44
25.4419
25.441
25.4427
25.4419
25.4436
25.4428
25.4444
25.4437
25.4452
25.4446
25.4461
25.4456
25.447
25.4465
25.4479
25.4474
25.4488
25.4484
25.4497
25.4494
25.4508
25.4505
25.4519
25.4518
25.4533
25.4532
25.455
25.4547
25.4582
25.4529
25.4561
20.9653
22.6024
22.8027
22.9163
23.0028
23.0887
23.1586
23.2316
23.2905
23.354
23.4056
23.4633
23.5102
23.5631
23.6056
23.6539
23.6926
23.737
23.7726
23.8135
23.8457
23.8827
23.9113
23.9442
23.9691
23.9977
24.0184
24.0422
24.0585
24.0776
24.0896
24.1041
24.1122
24.1227
24.1274
24.1345
24.1366
24.1412
24.1417
24.1446
24.1443
24.1464
24.1456
24.1473
24.1464
24.1479
24.1471
24.1485
24.1477
24.149
24.1482
24.1495
24.1488
24.15
24.1494
24.1505
24.15
24.151
24.1506
24.1516
24.1512
24.1522
24.1518
24.1527
24.1524
24.1533
24.1531
24.1539
24.1537
24.1545
24.1544
24.1552
24.155
24.1558
24.1557
24.1565
24.1564
24.1572
24.1571
24.158
24.1579
24.1587
24.1587
24.1596
24.1594
24.1605
24.1603
24.1611
24.1624
24.162
19.0228
21.2543
21.5212
21.6269
21.7008
21.7733
21.8351
21.8983
21.9525
22.0077
22.0555
22.1054
22.1495
22.1959
22.2365
22.2788
22.3157
22.3546
22.3888
22.4248
22.4561
22.4888
22.5168
22.546
22.5707
22.5964
22.6175
22.6392
22.6564
22.6739
22.6871
22.7005
22.7101
22.7198
22.7261
22.7326
22.7362
22.7402
22.7419
22.7442
22.7448
22.7461
22.7461
22.747
22.7468
22.7475
22.7473
22.7478
22.7476
22.7482
22.748
22.7485
22.7483
22.7488
22.7486
22.7491
22.749
22.7495
22.7494
22.7498
22.7497
22.7502
22.7501
22.7505
22.7505
22.7509
22.7509
22.7513
22.7513
22.7517
22.7517
22.7521
22.7522
22.7526
22.7526
22.753
22.7531
22.7535
22.7535
22.7539
22.7539
22.7544
22.7544
22.7548
22.7547
22.7553
22.755
22.7557
22.7565
22.7413
18.4935
20.8868
21.1647
21.2495
21.3041
21.3606
21.4107
21.464
21.511
21.5591
21.6012
21.645
21.6845
21.7259
21.763
21.8011
21.8349
21.8698
21.9012
21.9338
21.9629
21.9927
22.0189
22.0457
22.069
22.0929
22.1133
22.1338
22.1508
22.1676
22.181
22.1941
22.2042
22.214
22.221
22.2277
22.232
22.2362
22.2384
22.2408
22.2417
22.243
22.2432
22.244
22.2439
22.2444
22.2443
22.2447
22.2446
22.2449
22.2448
22.2451
22.245
22.2454
22.2453
22.2456
22.2455
22.2458
22.2457
22.246
22.246
22.2463
22.2463
22.2465
22.2465
22.2468
22.2468
22.2471
22.2471
22.2473
22.2473
22.2476
22.2476
22.2479
22.2479
22.2482
22.2482
22.2485
22.2485
22.2487
22.2487
22.249
22.249
22.2493
22.2492
22.2495
22.2493
22.2496
22.2489
22.2375
18.1577