/*--------------------------------*- C++ -*----------------------------------*\
  =========                 |
  \\      /  F ield         | OpenFOAM: The Open Source CFD Toolbox
   \\    /   O peration     | Website:  https://openfoam.org
    \\  /    A nd           | Version:  7
     \\/     M anipulation  |
\*---------------------------------------------------------------------------*/
FoamFile
{
    version     2.0;
    format      ascii;
    class       volVectorField;
    location    "2.6";
    object      U;
}
// * * * * * * * * * * * * * * * * * * * * * * * * * * * * * * * * * * * * * //

dimensions      [0 1 -1 0 0 0 0];

internalField   nonuniform List<vector> 
3000
(
(0.453066 -2.10071 -87.7426)
(1.21611 -2.22197 -88.0376)
(0.512902 -2.23878 -87.9729)
(0.831793 -2.22468 -88.03)
(0.656102 -2.22937 -88.0363)
(0.7432 -2.22607 -88.0461)
(0.71528 -2.22521 -88.0677)
(0.776361 -2.22462 -88.0632)
(0.725591 -2.21516 -88.1142)
(0.716237 -2.19055 -88.0593)
(1.90352 2.40753 -88.8518)
(3.37196 1.84503 -89.1334)
(1.78971 1.79029 -89.1106)
(2.49893 1.77871 -89.1609)
(2.10262 1.77913 -89.1722)
(2.29857 1.77369 -89.1803)
(2.22979 1.78137 -89.2013)
(2.395 1.77712 -89.1933)
(2.24754 1.78854 -89.2424)
(2.80365 1.79286 -89.1679)
(2.9305 -0.622115 -88.971)
(5.36087 -1.40936 -89.285)
(3.50828 -1.51849 -89.26)
(4.4325 -1.54493 -89.3268)
(3.94635 -1.54146 -89.344)
(4.20013 -1.55261 -89.3555)
(4.103 -1.54126 -89.3821)
(4.37589 -1.54674 -89.3742)
(4.11771 -1.54216 -89.4342)
(4.73217 -1.54702 -89.3496)
(3.6939 1.43024 -89.1539)
(6.81455 1.42343 -89.3742)
(4.99743 1.34899 -89.4183)
(5.94283 1.30152 -89.4776)
(5.50148 1.3094 -89.5059)
(5.7645 1.29046 -89.5156)
(5.65567 1.30109 -89.5382)
(5.99718 1.29472 -89.5249)
(5.66304 1.2943 -89.5692)
(6.49041 1.32654 -89.4794)
(3.81469 -0.281479 -89.1258)
(7.33284 -1.01699 -89.3389)
(5.87691 -1.16006 -89.3919)
(6.86977 -1.19883 -89.4666)
(6.50269 -1.19727 -89.5031)
(6.77262 -1.2098 -89.5146)
(6.66104 -1.20185 -89.5362)
(7.04367 -1.20556 -89.5228)
(6.67144 -1.20477 -89.5578)
(7.49931 -1.22193 -89.4711)
(3.92842 0.627305 -89.1721)
(7.63624 1.06292 -89.3514)
(6.3055 1.1417 -89.423)
(7.30465 1.12968 -89.4869)
(6.98712 1.13337 -89.5239)
(7.26201 1.12673 -89.537)
(7.15166 1.12851 -89.5577)
(7.55084 1.12688 -89.5465)
(7.16512 1.12494 -89.5749)
(8.01456 1.15405 -89.4944)
(3.92842 -0.627298 -89.1721)
(7.63624 -1.06292 -89.3514)
(6.3055 -1.1417 -89.423)
(7.30466 -1.12966 -89.487)
(6.98711 -1.13333 -89.5236)
(7.26205 -1.12665 -89.5375)
(7.15167 -1.12829 -89.5568)
(7.55098 -1.12649 -89.5482)
(7.16539 -1.12365 -89.5719)
(8.01516 -1.15029 -89.4995)
(3.81469 0.281485 -89.1257)
(7.33285 1.017 -89.339)
(5.87691 1.16007 -89.3917)
(6.8698 1.19884 -89.4669)
(6.50268 1.19731 -89.5024)
(6.77276 1.20986 -89.5158)
(6.66099 1.20206 -89.5337)
(7.04431 1.20585 -89.5275)
(6.67159 1.20583 -89.549)
(7.50049 1.2255 -89.4863)
(3.69389 -1.43024 -89.1538)
(6.81456 -1.42343 -89.3744)
(4.99742 -1.34899 -89.4181)
(5.94286 -1.30151 -89.4781)
(5.50147 -1.30937 -89.505)
(5.76466 -1.29043 -89.5174)
(5.65566 -1.30094 -89.5347)
(5.99792 -1.29454 -89.5316)
(5.66375 -1.29365 -89.5563)
(6.4916 -1.32431 -89.5036)
(2.93049 0.622115 -88.971)
(5.36087 1.40936 -89.2852)
(3.50828 1.51849 -89.2597)
(4.43254 1.54494 -89.3273)
(3.94634 1.54146 -89.3431)
(4.20029 1.55266 -89.3574)
(4.10296 1.54127 -89.3784)
(4.37669 1.54689 -89.3815)
(4.11787 1.54212 -89.4196)
(4.73241 1.54856 -89.379)
(1.90352 -2.40752 -88.8518)
(3.37196 -1.84503 -89.1335)
(1.78971 -1.79028 -89.1104)
(2.49895 -1.77872 -89.1614)
(2.10262 -1.77911 -89.1713)
(2.29866 -1.77371 -89.1821)
(2.2298 -1.78129 -89.1978)
(2.39549 -1.77719 -89.2002)
(2.24792 -1.78837 -89.2284)
(2.80257 -1.79222 -89.1968)
(0.453065 2.1007 -87.7426)
(1.21611 2.22197 -88.0377)
(0.512899 2.23877 -87.9727)
(0.831803 2.2247 -88.0304)
(0.656097 2.22934 -88.0354)
(0.743244 2.22613 -88.0478)
(0.715257 2.2251 -88.0645)
(0.776595 2.2248 -88.0695)
(0.725497 2.21474 -88.1013)
(0.716383 2.19047 -88.0846)
(3.63563 3.50225 0.068824)
(1.03326 3.37745 0.0342621)
(1.22902 3.1733 0.0506543)
(0.940176 3.15304 0.0408776)
(0.934908 3.15201 0.0422156)
(0.918136 3.15323 0.03982)
(0.878049 3.15281 0.0377024)
(0.819091 3.15311 0.036259)
(0.84506 3.12424 0.0329056)
(1.14084 3.0975 0.0328595)
(5.47479 -2.04459 0.0047617)
(2.78996 -2.51253 -0.0323216)
(3.15347 -2.56725 -0.0160676)
(2.71232 -2.58093 -0.0258986)
(2.65354 -2.59686 -0.0246153)
(2.62796 -2.5971 -0.0270019)
(2.5489 -2.60182 -0.0291384)
(2.42559 -2.60593 -0.0305628)
(2.47746 -2.64047 -0.0341031)
(1.78264 -2.64452 -0.034152)
(6.11119 2.47035 0.0292492)
(4.32167 2.60367 -0.00154455)
(4.77532 2.39304 0.0145721)
(4.35602 2.34211 0.00480032)
(4.25367 2.31475 0.00610481)
(4.234 2.31401 0.00372167)
(4.14175 2.31196 0.00157464)
(4.00419 2.30741 0.000125408)
(4.04235 2.30337 -0.00327818)
(3.67178 2.30523 -0.00313592)
(6.19651 -1.10346 0.0107641)
(5.04267 -1.58928 -0.0256332)
(5.8404 -1.82052 -0.00973822)
(5.60951 -1.88448 -0.0194464)
(5.53542 -1.92151 -0.018208)
(5.52688 -1.92722 -0.0205381)
(5.43839 -1.93164 -0.0227021)
(5.29386 -1.93857 -0.0241099)
(5.32763 -1.9636 -0.0276204)
(4.73715 -2.00197 -0.0275323)
(6.29058 1.46536 0.0205503)
(5.59509 1.78053 -0.0105964)
(6.56311 1.83484 0.0054909)
(6.44609 1.8375 -0.00423969)
(6.40841 1.81775 -0.00298085)
(6.42094 1.81453 -0.00532341)
(6.34275 1.81349 -0.00749412)
(6.21093 1.8103 -0.00893418)
(6.23135 1.81409 -0.0123659)
(5.7538 1.84711 -0.0122014)
(6.25345 -0.983708 0.0159984)
(5.71078 -1.37658 -0.0177894)
(6.83635 -1.59621 -0.00195276)
(6.83396 -1.66044 -0.0116857)
(6.83984 -1.68466 -0.0104569)
(6.86908 -1.68824 -0.012764)
(6.79896 -1.69079 -0.0149453)
(6.67164 -1.69455 -0.0163621)
(6.68789 -1.70702 -0.0198356)
(6.1833 -1.74904 -0.0196872)
(6.25344 0.983691 0.0159983)
(5.71078 1.37659 -0.0177896)
(6.83635 1.5962 -0.001952)
(6.83398 1.66047 -0.0116867)
(6.83983 1.68465 -0.0104567)
(6.86915 1.68832 -0.012764)
(6.79887 1.69068 -0.014943)
(6.67185 1.6947 -0.0163604)
(6.68757 1.70699 -0.0198209)
(6.18496 1.75161 -0.0196647)
(6.29058 -1.46537 0.0205503)
(5.5951 -1.78052 -0.0105963)
(6.5631 -1.83484 0.00549181)
(6.44612 -1.83746 -0.00424036)
(6.40837 -1.81776 -0.00298096)
(6.42108 -1.81446 -0.00532367)
(6.34256 -1.81358 -0.00749533)
(6.21161 -1.81018 -0.00893683)
(6.23066 -1.81381 -0.0123737)
(5.75776 -1.84509 -0.0122228)
(6.1965 1.10345 0.0107641)
(5.04268 1.58929 -0.0256334)
(5.84038 1.82052 -0.00973993)
(5.60955 1.8845 -0.0194464)
(5.53537 1.92148 -0.0182075)
(5.52706 1.9273 -0.0205385)
(5.43814 1.93154 -0.0226992)
(5.29474 1.93876 -0.0241101)
(5.32677 1.96373 -0.0276005)
(4.74365 2.00355 -0.0275193)
(6.11118 -2.47037 0.0292492)
(4.32168 -2.60366 -0.00154443)
(4.77531 -2.39305 0.0145701)
(4.35606 -2.34209 0.00480065)
(4.25364 -2.31473 0.00610464)
(4.23412 -2.31401 0.00372176)
(4.14162 -2.31192 0.00157388)
(4.005 -2.30749 0.00012511)
(4.0419 -2.30261 -0.00327863)
(3.67827 -2.30542 -0.00313913)
(5.47478 2.04459 0.00476162)
(2.78996 2.51252 -0.0323217)
(3.15347 2.56724 -0.0160667)
(2.71234 2.58094 -0.0258988)
(2.65354 2.59683 -0.0246148)
(2.62803 2.59717 -0.0270026)
(2.54883 2.60171 -0.0291356)
(2.42621 2.60617 -0.0305649)
(2.47716 2.64012 -0.0340846)
(1.78969 2.64559 -0.0341565)
(3.63563 -3.50226 0.0688239)
(1.03325 -3.37745 0.0342623)
(1.22902 -3.1733 0.0506548)
(0.94017 -3.15306 0.0408782)
(0.934929 -3.15196 0.0422147)
(0.918111 -3.15333 0.0398217)
(0.878129 -3.15264 0.0376996)
(0.819165 -3.15342 0.0362659)
(0.845327 -3.12354 0.0328995)
(1.14138 -3.09878 0.0328943)
(2.78189 0.501572 2.04587e-11)
(1.51374 0.447279 -3.67287e-09)
(1.46318 0.402827 -1.67086e-07)
(1.16374 0.387206 8.366e-10)
(1.23474 0.377643 1.06754e-10)
(1.2132 0.378967 1.69674e-11)
(1.21647 0.37898 1.41935e-11)
(1.24851 0.383808 1.27655e-11)
(1.27185 0.370489 1.18427e-11)
(1.6281 0.380253 1.02076e-09)
(4.53322 0.0235516 9.55749e-12)
(3.47866 -0.359155 -1.26691e-09)
(3.51055 -0.461983 -1.01009e-07)
(3.05624 -0.486165 -5.8676e-09)
(3.08744 -0.498809 1.41237e-10)
(3.06564 -0.499183 2.24238e-11)
(3.054 -0.504872 1.92757e-11)
(3.07488 -0.513805 1.70843e-11)
(3.10671 -0.520799 1.85993e-11)
(3.22399 -0.528348 1.96077e-09)
(5.03711 0.648646 -6.63115e-12)
(4.6806 0.680252 -4.78305e-10)
(4.93537 0.584545 3.34802e-07)
(4.59184 0.533674 -3.23442e-08)
(4.60602 0.498603 -1.50959e-10)
(4.59936 0.495149 1.27599e-11)
(4.58477 0.488819 1.38083e-11)
(4.61784 0.482104 1.36536e-11)
(4.5995 0.475788 1.81512e-11)
(4.93168 0.489421 1.26808e-10)
(5.1217 -0.0239778 3.60779e-11)
(5.2245 -0.294106 5.28353e-09)
(5.81238 -0.421268 2.79438e-07)
(5.69294 -0.483563 -2.09412e-08)
(5.76374 -0.527223 2.56817e-10)
(5.79423 -0.534462 1.48342e-11)
(5.79242 -0.540163 1.94997e-11)
(5.82775 -0.547607 1.70856e-11)
(5.80559 -0.560301 -1.16515e-11)
(5.97969 -0.576027 -6.39111e-09)
(5.10077 0.42497 1.27489e-11)
(5.4921 0.576711 5.19031e-10)
(6.29163 0.574967 -1.87738e-07)
(6.36595 0.565005 1.31168e-07)
(6.51711 0.54651 1.44515e-09)
(6.59658 0.541968 2.61164e-11)
(6.61369 0.538289 1.20972e-11)
(6.67617 0.527126 1.35264e-11)
(6.62345 0.524922 -8.14291e-12)
(6.90469 0.551188 -1.89151e-09)
(5.06618 -0.196656 9.00811e-12)
(5.55096 -0.396821 -9.99765e-10)
(6.47869 -0.47291 -1.53573e-07)
(6.66952 -0.512323 1.34327e-07)
(6.88146 -0.543601 -6.55514e-10)
(6.99774 -0.547794 1.86296e-11)
(7.03146 -0.550063 1.96503e-11)
(7.10411 -0.545689 1.57797e-11)
(7.05 -0.550166 3.86592e-11)
(7.29227 -0.571662 8.51383e-09)
(5.06617 0.196632 1.18732e-11)
(5.55096 0.396829 1.21046e-09)
(6.47868 0.472915 1.49416e-07)
(6.66954 0.512329 -1.38201e-07)
(6.88144 0.543687 -3.13766e-09)
(6.99788 0.547825 -4.71354e-12)
(7.0315 0.550496 1.10345e-11)
(7.10483 0.546061 1.43965e-11)
(7.0513 0.55242 4.41304e-11)
(7.29527 0.58069 2.85071e-09)
(5.10076 -0.424998 2.93011e-11)
(5.49212 -0.576693 4.31588e-09)
(6.29161 -0.574972 1.78054e-07)
(6.36601 -0.564985 -1.36445e-07)
(6.51705 -0.546468 -2.05328e-10)
(6.59677 -0.541937 1.97686e-11)
(6.61337 -0.537971 1.94919e-11)
(6.67736 -0.526753 1.69559e-11)
(6.62162 -0.522749 -1.10721e-11)
(6.91141 -0.541056 -8.04257e-09)
(5.12168 0.0239533 3.92928e-11)
(5.22453 0.294128 1.31967e-09)
(5.81235 0.421257 -2.8196e-07)
(5.69301 0.483581 1.65299e-08)
(5.76368 0.527239 9.78294e-10)
(5.7946 0.53453 1.84653e-11)
(5.79232 0.540518 1.05789e-11)
(5.82997 0.548315 1.20609e-11)
(5.80692 0.56293 -1.67008e-11)
(5.99003 0.586701 -3.49009e-09)
(5.0371 -0.648682 -3.7785e-12)
(4.68063 -0.680215 -5.35774e-09)
(4.93534 -0.584562 -3.31566e-07)
(4.5919 -0.533644 4.01906e-08)
(4.60598 -0.498593 3.4341e-10)
(4.59963 -0.495119 1.85911e-11)
(4.5846 -0.488722 1.84765e-11)
(4.61982 -0.482274 1.79615e-11)
(4.59916 -0.475761 2.69462e-11)
(4.94126 -0.489236 4.77602e-09)
(4.53321 -0.0235651 1.35231e-11)
(3.47868 0.359168 -7.39304e-10)
(3.51053 0.461983 1.12502e-07)
(3.05628 0.486157 1.09815e-08)
(3.08743 0.498809 -9.67679e-11)
(3.0659 0.499234 7.87044e-12)
(3.05409 0.505179 9.5811e-12)
(3.07688 0.514436 1.07663e-11)
(3.10852 0.52251 2.73368e-11)
(3.23246 0.536512 1.60684e-09)
(2.78189 -0.501571 2.08338e-11)
(1.51375 -0.447277 8.31124e-10)
(1.46317 -0.402832 1.53863e-07)
(1.16376 -0.387193 -3.23435e-10)
(1.23475 -0.377637 -6.17673e-11)
(1.2133 -0.378993 1.86922e-11)
(1.21659 -0.379157 1.99899e-11)
(1.24953 -0.384279 2.10366e-11)
(1.27278 -0.371678 2.19191e-11)
(1.63018 -0.385845 -5.76118e-10)
(3.63563 3.50225 -0.068824)
(1.03326 3.37745 -0.0342621)
(1.22902 3.1733 -0.0506551)
(0.940176 3.15304 -0.0408776)
(0.934908 3.15201 -0.0422156)
(0.918136 3.15323 -0.03982)
(0.878049 3.15281 -0.0377024)
(0.819091 3.15311 -0.036259)
(0.84506 3.12424 -0.0329056)
(1.14084 3.0975 -0.0328595)
(5.47479 -2.04459 -0.0047617)
(2.78996 -2.51253 0.0323216)
(3.15347 -2.56725 0.0160668)
(2.71232 -2.58093 0.0258985)
(2.65354 -2.59686 0.0246153)
(2.62796 -2.5971 0.0270019)
(2.5489 -2.60182 0.0291384)
(2.42559 -2.60593 0.0305628)
(2.47746 -2.64047 0.0341031)
(1.78264 -2.64452 0.034152)
(6.11119 2.47035 -0.0292492)
(4.32167 2.60367 0.00154454)
(4.77532 2.39304 -0.0145703)
(4.35602 2.34211 -0.0048005)
(4.25367 2.31475 -0.00610481)
(4.234 2.31401 -0.00372167)
(4.14175 2.31196 -0.00157464)
(4.00419 2.30741 -0.000125408)
(4.04235 2.30337 0.00327818)
(3.67178 2.30523 0.00313592)
(6.19651 -1.10346 -0.0107641)
(5.04267 -1.58928 0.0256333)
(5.8404 -1.82052 0.00973998)
(5.60951 -1.88448 0.0194461)
(5.53542 -1.92151 0.018208)
(5.52688 -1.92722 0.0205381)
(5.43839 -1.93164 0.0227021)
(5.29386 -1.93857 0.0241099)
(5.32763 -1.9636 0.0276204)
(4.73715 -2.00197 0.0275323)
(6.29058 1.46536 -0.0205503)
(5.59509 1.78053 0.0105964)
(6.56311 1.83484 -0.00549189)
(6.44609 1.8375 0.00424041)
(6.40841 1.81775 0.00298086)
(6.42094 1.81453 0.00532341)
(6.34275 1.81349 0.00749412)
(6.21093 1.8103 0.00893418)
(6.23135 1.81409 0.0123659)
(5.7538 1.84711 0.0122014)
(6.25345 -0.983708 -0.0159984)
(5.71078 -1.37658 0.0177894)
(6.83635 -1.59621 0.00195209)
(6.83396 -1.66044 0.0116866)
(6.83984 -1.68466 0.0104569)
(6.86908 -1.68824 0.012764)
(6.79896 -1.69079 0.0149453)
(6.67164 -1.69455 0.0163621)
(6.68789 -1.70702 0.0198356)
(6.1833 -1.74904 0.0196872)
(6.25344 0.983691 -0.0159983)
(5.71078 1.37659 0.0177896)
(6.83635 1.5962 0.00195264)
(6.83398 1.66047 0.0116859)
(6.83983 1.68465 0.0104566)
(6.86915 1.68832 0.012764)
(6.79887 1.69068 0.014943)
(6.67185 1.6947 0.0163604)
(6.68757 1.70699 0.0198209)
(6.18496 1.75161 0.0196647)
(6.29058 -1.46537 -0.0205503)
(5.5951 -1.78052 0.0105963)
(6.5631 -1.83484 -0.0054909)
(6.44612 -1.83746 0.00423959)
(6.40837 -1.81776 0.00298096)
(6.42108 -1.81446 0.00532367)
(6.34256 -1.81358 0.00749533)
(6.21161 -1.81018 0.00893683)
(6.23066 -1.81381 0.0123737)
(5.75776 -1.84509 0.0122228)
(6.1965 1.10345 -0.0107641)
(5.04268 1.58929 0.0256334)
(5.84038 1.82052 0.00973818)
(5.60955 1.8845 0.0194466)
(5.53537 1.92148 0.0182075)
(5.52706 1.9273 0.0205386)
(5.43814 1.93154 0.0226992)
(5.29474 1.93876 0.0241101)
(5.32677 1.96373 0.0276005)
(4.74365 2.00355 0.0275193)
(6.11118 -2.47037 -0.0292492)
(4.32168 -2.60366 0.0015444)
(4.77531 -2.39305 -0.0145719)
(4.35606 -2.34209 -0.00480042)
(4.25364 -2.31473 -0.00610464)
(4.23412 -2.31401 -0.00372176)
(4.14162 -2.31192 -0.00157388)
(4.005 -2.30749 -0.00012511)
(4.0419 -2.30261 0.00327863)
(3.67827 -2.30542 0.00313913)
(5.47478 2.04459 -0.00476162)
(2.78996 2.51252 0.0323217)
(3.15347 2.56724 0.0160676)
(2.71234 2.58094 0.0258988)
(2.65354 2.59683 0.0246148)
(2.62803 2.59717 0.0270026)
(2.54883 2.60171 0.0291356)
(2.42621 2.60617 0.0305649)
(2.47716 2.64012 0.0340846)
(1.78969 2.64559 0.0341565)
(3.63563 -3.50226 -0.0688239)
(1.03325 -3.37745 -0.0342623)
(1.22902 -3.1733 -0.050654)
(0.94017 -3.15306 -0.0408781)
(0.934929 -3.15196 -0.0422147)
(0.918111 -3.15333 -0.0398217)
(0.878129 -3.15264 -0.0376996)
(0.819165 -3.15342 -0.0362659)
(0.845327 -3.12354 -0.0328995)
(1.14138 -3.09878 -0.0328943)
(0.453066 -2.10071 87.7426)
(1.21611 -2.22197 88.0376)
(0.512902 -2.23878 87.9729)
(0.831793 -2.22468 88.03)
(0.656102 -2.22937 88.0363)
(0.7432 -2.22607 88.0461)
(0.71528 -2.22521 88.0677)
(0.776361 -2.22462 88.0632)
(0.725591 -2.21516 88.1142)
(0.716237 -2.19055 88.0593)
(1.90352 2.40753 88.8518)
(3.37196 1.84503 89.1334)
(1.78971 1.79029 89.1106)
(2.49893 1.77871 89.1609)
(2.10262 1.77913 89.1722)
(2.29857 1.77369 89.1803)
(2.22979 1.78137 89.2013)
(2.395 1.77712 89.1933)
(2.24754 1.78854 89.2424)
(2.80365 1.79286 89.1679)
(2.9305 -0.622115 88.971)
(5.36087 -1.40936 89.285)
(3.50828 -1.51849 89.26)
(4.4325 -1.54493 89.3268)
(3.94635 -1.54146 89.344)
(4.20013 -1.55261 89.3555)
(4.103 -1.54126 89.3821)
(4.37589 -1.54674 89.3742)
(4.11771 -1.54216 89.4342)
(4.73217 -1.54702 89.3496)
(3.6939 1.43024 89.1539)
(6.81455 1.42343 89.3742)
(4.99743 1.34899 89.4183)
(5.94283 1.30152 89.4776)
(5.50148 1.3094 89.5059)
(5.7645 1.29046 89.5156)
(5.65567 1.30109 89.5382)
(5.99718 1.29472 89.5249)
(5.66304 1.2943 89.5692)
(6.49041 1.32654 89.4794)
(3.81469 -0.281479 89.1258)
(7.33284 -1.01699 89.3389)
(5.87691 -1.16007 89.3919)
(6.86977 -1.19883 89.4666)
(6.50269 -1.19727 89.5031)
(6.77262 -1.2098 89.5146)
(6.66104 -1.20185 89.5362)
(7.04367 -1.20556 89.5228)
(6.67144 -1.20477 89.5578)
(7.49931 -1.22193 89.4711)
(3.92842 0.627305 89.1721)
(7.63624 1.06292 89.3514)
(6.3055 1.1417 89.4231)
(7.30465 1.12968 89.4869)
(6.98712 1.13337 89.5239)
(7.26201 1.12673 89.537)
(7.15166 1.12851 89.5577)
(7.55084 1.12688 89.5465)
(7.16512 1.12494 89.5749)
(8.01456 1.15405 89.4944)
(3.92842 -0.627298 89.1721)
(7.63624 -1.06292 89.3514)
(6.3055 -1.1417 89.423)
(7.30466 -1.12966 89.487)
(6.98711 -1.13333 89.5236)
(7.26205 -1.12665 89.5375)
(7.15167 -1.12829 89.5568)
(7.55098 -1.12649 89.5482)
(7.16539 -1.12365 89.5719)
(8.01516 -1.15029 89.4995)
(3.81469 0.281485 89.1257)
(7.33285 1.017 89.339)
(5.87691 1.16007 89.3917)
(6.8698 1.19884 89.4669)
(6.50268 1.19731 89.5024)
(6.77276 1.20986 89.5158)
(6.66099 1.20206 89.5337)
(7.04431 1.20585 89.5275)
(6.67159 1.20583 89.549)
(7.50049 1.2255 89.4863)
(3.69389 -1.43024 89.1538)
(6.81456 -1.42343 89.3744)
(4.99742 -1.34899 89.4181)
(5.94286 -1.30151 89.4781)
(5.50147 -1.30937 89.505)
(5.76466 -1.29043 89.5174)
(5.65566 -1.30094 89.5347)
(5.99792 -1.29454 89.5316)
(5.66375 -1.29365 89.5563)
(6.4916 -1.32431 89.5036)
(2.93049 0.622115 88.971)
(5.36087 1.40936 89.2852)
(3.50828 1.51849 89.2597)
(4.43254 1.54494 89.3273)
(3.94634 1.54146 89.3431)
(4.20029 1.55266 89.3574)
(4.10296 1.54127 89.3784)
(4.37669 1.54689 89.3815)
(4.11787 1.54212 89.4196)
(4.73241 1.54856 89.379)
(1.90352 -2.40752 88.8518)
(3.37196 -1.84503 89.1335)
(1.78971 -1.79028 89.1104)
(2.49895 -1.77872 89.1614)
(2.10262 -1.77911 89.1713)
(2.29866 -1.77371 89.1821)
(2.2298 -1.78129 89.1978)
(2.39549 -1.77719 89.2002)
(2.24792 -1.78837 89.2284)
(2.80257 -1.79222 89.1968)
(0.453065 2.1007 87.7426)
(1.21611 2.22197 88.0377)
(0.512899 2.23877 87.9727)
(0.831803 2.2247 88.0304)
(0.656097 2.22934 88.0354)
(0.743244 2.22613 88.0478)
(0.715257 2.2251 88.0645)
(0.776595 2.2248 88.0695)
(0.725497 2.21474 88.1013)
(0.716383 2.19047 88.0846)
(0.763823 -2.55395 -85.2842)
(0.835227 -2.54842 -85.5304)
(0.767211 -2.55373 -85.7195)
(0.79735 -2.55922 -85.8884)
(0.774931 -2.56565 -86.0531)
(0.788829 -2.57166 -86.2162)
(0.783336 -2.578 -86.3783)
(0.789204 -2.58421 -86.5412)
(0.789081 -2.59058 -86.7051)
(0.792269 -2.59685 -86.8681)
(0.793727 -2.60305 -87.0283)
(0.796115 -2.6092 -87.1874)
(0.798002 -2.61551 -87.3502)
(0.800156 -2.62205 -87.519)
(0.802192 -2.62863 -87.689)
(0.804331 -2.6349 -87.8509)
(0.80644 -2.64065 -87.9991)
(0.808549 -2.64608 -88.1392)
(0.810598 -2.65181 -88.2864)
(0.812612 -2.65848 -88.4579)
(0.814608 -2.66645 -88.6623)
(0.816643 -2.67549 -88.8942)
(0.818736 -2.68493 -89.1367)
(0.820912 -2.69392 -89.3676)
(0.823138 -2.70172 -89.5681)
(0.825414 -2.7079 -89.7269)
(0.827668 -2.71237 -89.8421)
(0.829938 -2.71532 -89.9181)
(0.832128 -2.71707 -89.9635)
(0.83436 -2.71797 -89.9869)
(0.836461 -2.71833 -89.9965)
(0.838698 -2.71836 -89.9974)
(0.840693 -2.71822 -89.9942)
(0.843009 -2.71797 -89.9881)
(0.844818 -2.71772 -89.9818)
(0.847214 -2.7174 -89.9737)
(0.848564 -2.71719 -89.9674)
(0.849772 -2.71685 -89.9581)
(0.849826 -2.71707 -89.9516)
(0.954355 -2.72024 -89.9439)
(2.45821 1.49297 -87.7776)
(2.4793 1.50947 -88.0363)
(2.28702 1.51713 -88.2349)
(2.37527 1.52166 -88.4131)
(2.31324 1.52447 -88.5874)
(2.35272 1.52768 -88.7599)
(2.33789 1.53033 -88.9315)
(2.35465 1.53321 -89.104)
(2.35474 1.53596 -89.2775)
(2.36399 1.53877 -89.4501)
(2.36845 1.54148 -89.6197)
(2.37551 1.54419 -89.7882)
(2.3812 1.54694 -89.9606)
(2.38763 1.5498 -90.1393)
(2.39368 1.55269 -90.3195)
(2.39996 1.55547 -90.4912)
(2.40616 1.55801 -90.6485)
(2.41243 1.56039 -90.7969)
(2.41866 1.56285 -90.9526)
(2.42488 1.56569 -91.1338)
(2.43107 1.56908 -91.3498)
(2.43729 1.57296 -91.5952)
(2.44353 1.57706 -91.8523)
(2.44985 1.58101 -92.0976)
(2.4562 1.58448 -92.311)
(2.46263 1.58727 -92.4805)
(2.46901 1.5893 -92.6035)
(2.47549 1.59067 -92.6849)
(2.4818 1.59149 -92.7336)
(2.4883 1.59192 -92.7588)
(2.49446 1.5921 -92.7692)
(2.50108 1.59212 -92.7703)
(2.507 1.59207 -92.7669)
(2.51389 1.59195 -92.7604)
(2.51929 1.59184 -92.7537)
(2.52652 1.59168 -92.7451)
(2.53065 1.5915 -92.7384)
(2.53517 1.59127 -92.7285)
(2.53599 1.58834 -92.7219)
(2.517 1.58596 -92.7089)
(4.06907 -1.17024 -88.1476)
(4.19229 -1.14046 -88.4021)
(3.883 -1.13859 -88.6043)
(4.02646 -1.13749 -88.7844)
(3.92801 -1.13971 -88.9609)
(3.99157 -1.14069 -89.1351)
(3.96864 -1.14277 -89.3086)
(3.99586 -1.14434 -89.4828)
(3.99665 -1.14625 -89.6581)
(4.01195 -1.14799 -89.8326)
(4.01966 -1.14978 -90.0041)
(4.03149 -1.15152 -90.1743)
(4.04116 -1.15333 -90.3483)
(4.052 -1.1552 -90.5287)
(4.06223 -1.15707 -90.7109)
(4.07282 -1.15882 -90.8849)
(4.08328 -1.16042 -91.0444)
(4.09387 -1.16195 -91.1944)
(4.1044 -1.1636 -91.3511)
(4.11494 -1.16556 -91.533)
(4.12543 -1.16788 -91.7499)
(4.13594 -1.17048 -91.9971)
(4.14647 -1.17314 -92.2569)
(4.15711 -1.17563 -92.5059)
(4.16778 -1.17774 -92.7232)
(4.1786 -1.17937 -92.8963)
(4.18933 -1.18052 -93.0225)
(4.20024 -1.18125 -93.1064)
(4.21089 -1.18167 -93.1567)
(4.22188 -1.18187 -93.183)
(4.23231 -1.18193 -93.1939)
(4.24351 -1.18192 -93.1952)
(4.25354 -1.18185 -93.1919)
(4.26522 -1.18178 -93.1853)
(4.2744 -1.18169 -93.1785)
(4.28671 -1.18162 -93.1697)
(4.29384 -1.18162 -93.1629)
(4.30222 -1.18155 -93.1528)
(4.30516 -1.18537 -93.1457)
(4.28381 -1.18738 -93.1279)
(5.49981 0.590808 -88.4303)
(5.6338 0.605984 -88.6709)
(5.23358 0.610057 -88.8693)
(5.41897 0.612285 -89.0492)
(5.29405 0.612395 -89.2266)
(5.37565 0.61319 -89.4017)
(5.34729 0.61329 -89.5762)
(5.38256 0.613703 -89.7513)
(5.38432 0.613907 -89.9277)
(5.40447 0.614215 -90.1033)
(5.41501 0.614457 -90.276)
(5.43077 0.614721 -90.4472)
(5.44381 0.614962 -90.6219)
(5.45832 0.615221 -90.8032)
(5.47205 0.615488 -90.9867)
(5.48623 0.615759 -91.1623)
(5.50026 0.616009 -91.3234)
(5.51446 0.616226 -91.4744)
(5.5286 0.616418 -91.6313)
(5.54277 0.616617 -91.8127)
(5.55685 0.616857 -92.0293)
(5.57096 0.617155 -92.277)
(5.58506 0.617505 -92.5384)
(5.59929 0.617875 -92.7899)
(5.61354 0.618232 -93.0105)
(5.628 0.618539 -93.187)
(5.64235 0.618782 -93.3162)
(5.65696 0.618952 -93.4024)
(5.67123 0.619064 -93.4544)
(5.68598 0.619122 -93.4818)
(5.69999 0.619152 -93.4933)
(5.71504 0.61915 -93.4949)
(5.72854 0.619149 -93.4917)
(5.74425 0.619119 -93.4851)
(5.75663 0.61911 -93.4783)
(5.77323 0.619057 -93.4694)
(5.78296 0.618987 -93.4625)
(5.79497 0.619029 -93.4524)
(5.80063 0.616094 -93.4459)
(5.67036 0.612734 -93.4245)
(6.4349 -0.565684 -88.4142)
(6.60734 -0.547492 -88.6376)
(6.15214 -0.546005 -88.8326)
(6.36278 -0.544025 -89.0117)
(6.22219 -0.544756 -89.1891)
(6.31473 -0.544412 -89.3642)
(6.28344 -0.54496 -89.5389)
(6.32373 -0.545079 -89.7141)
(6.32638 -0.545468 -89.8906)
(6.34968 -0.545714 -90.0664)
(6.36218 -0.54603 -90.2393)
(6.38055 -0.546308 -90.4105)
(6.39587 -0.546623 -90.5852)
(6.41283 -0.546936 -90.7664)
(6.42893 -0.547243 -90.9501)
(6.44553 -0.547513 -91.1263)
(6.46196 -0.547756 -91.288)
(6.47859 -0.547999 -91.4393)
(6.49516 -0.548289 -91.5956)
(6.51175 -0.548652 -91.7759)
(6.52824 -0.549082 -91.9913)
(6.54475 -0.549542 -92.2383)
(6.56125 -0.549979 -92.4998)
(6.5779 -0.550352 -92.7524)
(6.59458 -0.550633 -92.9747)
(6.61149 -0.550824 -93.1532)
(6.62831 -0.550933 -93.2843)
(6.64542 -0.550986 -93.3721)
(6.66216 -0.550997 -93.4253)
(6.67945 -0.550989 -93.4535)
(6.6959 -0.550965 -93.4655)
(6.71356 -0.550942 -93.4674)
(6.7294 -0.550908 -93.4642)
(6.74784 -0.550887 -93.4577)
(6.76239 -0.550853 -93.4508)
(6.78191 -0.550847 -93.4419)
(6.79344 -0.550876 -93.435)
(6.80797 -0.550974 -93.4247)
(6.816 -0.554078 -93.4186)
(6.67325 -0.554319 -93.3949)
(6.91101 0.389782 -88.4246)
(7.09274 0.389611 -88.629)
(6.61119 0.391836 -88.8201)
(6.83359 0.392813 -88.9986)
(6.68592 0.392563 -89.176)
(6.78353 0.39272 -89.3511)
(6.75101 0.392466 -89.5258)
(6.79368 0.392396 -89.701)
(6.79684 0.392201 -89.8776)
(6.82166 0.392068 -90.0535)
(6.83517 0.391902 -90.2265)
(6.85483 0.391751 -90.3978)
(6.87129 0.391582 -90.5725)
(6.88947 0.39141 -90.7537)
(6.90674 0.39124 -90.9375)
(6.92455 0.391087 -91.114)
(6.94218 0.390946 -91.2761)
(6.96002 0.390805 -91.4274)
(6.97779 0.390638 -91.5835)
(6.99558 0.390434 -91.7632)
(7.01326 0.390192 -91.9779)
(7.03096 0.38993 -92.2245)
(7.04864 0.389675 -92.4861)
(7.0665 0.389449 -92.7393)
(7.0844 0.389268 -92.9625)
(7.10255 0.389134 -93.1422)
(7.1206 0.389045 -93.2744)
(7.13897 0.388987 -93.3631)
(7.15694 0.388956 -93.4169)
(7.1755 0.388935 -93.4455)
(7.19316 0.388926 -93.4578)
(7.21212 0.388916 -93.4598)
(7.22914 0.388915 -93.4567)
(7.24894 0.388901 -93.4502)
(7.26457 0.388904 -93.4433)
(7.28555 0.38888 -93.4343)
(7.29797 0.388851 -93.4274)
(7.31379 0.388658 -93.4175)
(7.32311 0.387156 -93.4116)
(7.14984 0.384519 -93.3867)
(6.91108 -0.389534 -88.3993)
(7.09269 -0.389029 -88.5874)
(6.61107 -0.391625 -88.7752)
(6.83341 -0.392567 -88.9531)
(6.68576 -0.392318 -89.1304)
(6.78336 -0.392478 -89.3054)
(6.75085 -0.39222 -89.4802)
(6.79351 -0.392152 -89.6553)
(6.79667 -0.391956 -89.8319)
(6.8215 -0.391823 -90.0078)
(6.835 -0.391657 -90.1808)
(6.85466 -0.391506 -90.352)
(6.87112 -0.391336 -90.5266)
(6.8893 -0.391165 -90.7078)
(6.90657 -0.390995 -90.8916)
(6.92438 -0.390841 -91.0681)
(6.94201 -0.390701 -91.2302)
(6.95985 -0.390559 -91.3815)
(6.97762 -0.390392 -91.5375)
(6.99541 -0.390187 -91.7172)
(7.01309 -0.389944 -91.9319)
(7.03079 -0.389683 -92.1785)
(7.04847 -0.389428 -92.44)
(7.06633 -0.389202 -92.6932)
(7.08423 -0.389021 -92.9164)
(7.10238 -0.388888 -93.096)
(7.12042 -0.388799 -93.2282)
(7.13879 -0.388742 -93.3168)
(7.15676 -0.388711 -93.3707)
(7.17533 -0.38869 -93.3993)
(7.19299 -0.388682 -93.4115)
(7.21195 -0.388671 -93.4135)
(7.22897 -0.38867 -93.4104)
(7.24876 -0.388656 -93.4038)
(7.26439 -0.388658 -93.3969)
(7.28537 -0.388635 -93.3879)
(7.29779 -0.388607 -93.3809)
(7.31361 -0.388414 -93.371)
(7.32293 -0.386925 -93.3651)
(7.14969 -0.384286 -93.3402)
(6.4353 0.565352 -88.3361)
(6.60713 0.547563 -88.5126)
(6.15173 0.545472 -88.6981)
(6.36228 0.543565 -88.8754)
(6.22173 0.544297 -89.0525)
(6.31424 0.543949 -89.2274)
(6.28296 0.544507 -89.402)
(6.32324 0.544625 -89.5771)
(6.32589 0.545019 -89.7535)
(6.34919 0.545267 -89.9293)
(6.3617 0.545585 -90.1021)
(6.38006 0.545866 -90.2733)
(6.39538 0.546184 -90.4479)
(6.41234 0.5465 -90.629)
(6.42844 0.546809 -90.8126)
(6.44504 0.547082 -90.9888)
(6.46147 0.547326 -91.1504)
(6.4781 0.547572 -91.3016)
(6.49467 0.547865 -91.4578)
(6.51125 0.548233 -91.6381)
(6.52774 0.548667 -91.8534)
(6.54425 0.549131 -92.1003)
(6.56075 0.549573 -92.3618)
(6.5774 0.549947 -92.6143)
(6.59408 0.55023 -92.8365)
(6.61099 0.550421 -93.0149)
(6.6278 0.55053 -93.1459)
(6.64492 0.550582 -93.2336)
(6.66165 0.550593 -93.2867)
(6.67894 0.550584 -93.3148)
(6.69539 0.55056 -93.3267)
(6.71304 0.550536 -93.3285)
(6.72889 0.550502 -93.3253)
(6.74733 0.550481 -93.3187)
(6.76187 0.550446 -93.3117)
(6.78139 0.55044 -93.3027)
(6.79291 0.550467 -93.2957)
(6.80744 0.550561 -93.2854)
(6.81548 0.553635 -93.2793)
(6.67276 0.553884 -93.2555)
(5.5001 -0.589756 -88.293)
(5.63338 -0.604851 -88.4612)
(5.23293 -0.608921 -88.6454)
(5.41816 -0.611134 -88.8226)
(5.2933 -0.611245 -88.9994)
(5.37485 -0.61204 -89.1743)
(5.34651 -0.612144 -89.3487)
(5.38176 -0.612559 -89.5237)
(5.38354 -0.612766 -89.7)
(5.40368 -0.613077 -89.8755)
(5.41422 -0.613322 -90.048)
(5.42997 -0.613588 -90.2191)
(5.44302 -0.613833 -90.3937)
(5.45752 -0.614094 -90.5749)
(5.47125 -0.614364 -90.7582)
(5.48543 -0.614637 -90.9337)
(5.49945 -0.61489 -91.0947)
(5.51365 -0.615109 -91.2456)
(5.52779 -0.615304 -91.4023)
(5.54196 -0.615506 -91.5837)
(5.55604 -0.615749 -91.8002)
(5.57015 -0.616051 -92.0478)
(5.58425 -0.616405 -92.309)
(5.59848 -0.61678 -92.5604)
(5.61273 -0.61714 -92.7808)
(5.62718 -0.61745 -92.9572)
(5.64153 -0.617694 -93.0862)
(5.65613 -0.617866 -93.1722)
(5.6704 -0.617978 -93.2241)
(5.68514 -0.618036 -93.2513)
(5.69916 -0.618065 -93.2626)
(5.7142 -0.618063 -93.2642)
(5.7277 -0.618061 -93.2608)
(5.74341 -0.618031 -93.2541)
(5.75578 -0.618021 -93.2471)
(5.77238 -0.617967 -93.238)
(5.78211 -0.617896 -93.231)
(5.79412 -0.617936 -93.2208)
(5.79978 -0.615012 -93.2144)
(5.66956 -0.611659 -93.1929)
(4.06943 1.16792 -87.9453)
(4.19158 1.1372 -88.1108)
(3.88206 1.13498 -88.2959)
(4.02537 1.13387 -88.4726)
(3.92698 1.1361 -88.6484)
(3.99049 1.13707 -88.8223)
(3.96758 1.13916 -88.9957)
(3.99479 1.14073 -89.1697)
(3.99558 1.14265 -89.3448)
(4.01088 1.14438 -89.5192)
(4.01859 1.14617 -89.6905)
(4.03041 1.14791 -89.8605)
(4.04009 1.14973 -90.0344)
(4.05092 1.1516 -90.2146)
(4.06115 1.15347 -90.3966)
(4.07174 1.15522 -90.5705)
(4.0822 1.15682 -90.7298)
(4.09278 1.15835 -90.8796)
(4.10331 1.16001 -91.0362)
(4.11385 1.16196 -91.2179)
(4.12434 1.16429 -91.4347)
(4.13485 1.16689 -91.6818)
(4.14538 1.16956 -91.9415)
(4.15602 1.17205 -92.1902)
(4.16668 1.17416 -92.4073)
(4.1775 1.17579 -92.5802)
(4.18823 1.17694 -92.7062)
(4.19913 1.17767 -92.7898)
(4.20978 1.17809 -92.8399)
(4.22076 1.17828 -92.8659)
(4.23119 1.17834 -92.8766)
(4.24238 1.17832 -92.8778)
(4.25241 1.17826 -92.8742)
(4.26409 1.17818 -92.8675)
(4.27327 1.17809 -92.8605)
(4.28557 1.17802 -92.8515)
(4.29269 1.17802 -92.8445)
(4.30107 1.17794 -92.8342)
(4.30402 1.18174 -92.8272)
(4.28259 1.18374 -92.8092)
(2.45808 -1.48844 -87.5122)
(2.47842 -1.50332 -87.6746)
(2.286 -1.51062 -87.8549)
(2.37413 -1.51508 -88.0294)
(2.31214 -1.51789 -88.2031)
(2.35159 -1.52109 -88.3752)
(2.33677 -1.52374 -88.5467)
(2.35352 -1.52662 -88.7189)
(2.35361 -1.52937 -88.8922)
(2.36287 -1.53217 -89.0646)
(2.36732 -1.53489 -89.2341)
(2.37438 -1.5376 -89.4024)
(2.38007 -1.54035 -89.5746)
(2.3865 -1.54321 -89.7531)
(2.39255 -1.54609 -89.933)
(2.39882 -1.54887 -90.1045)
(2.40502 -1.5514 -90.2616)
(2.41129 -1.55378 -90.4098)
(2.41751 -1.55624 -90.5654)
(2.42374 -1.55908 -90.7464)
(2.42993 -1.56247 -90.9622)
(2.43614 -1.56635 -91.2075)
(2.44238 -1.57046 -91.4644)
(2.4487 -1.57441 -91.7095)
(2.45504 -1.57788 -91.9227)
(2.46147 -1.58066 -92.0918)
(2.46785 -1.58269 -92.2145)
(2.47432 -1.58405 -92.2957)
(2.48063 -1.58487 -92.3441)
(2.48713 -1.58529 -92.3691)
(2.49329 -1.58547 -92.3791)
(2.4999 -1.58549 -92.38)
(2.50581 -1.58543 -92.3764)
(2.5127 -1.58531 -92.3696)