/*--------------------------------*- C++ -*----------------------------------*\
  =========                 |
  \\      /  F ield         | OpenFOAM: The Open Source CFD Toolbox
   \\    /   O peration     | Website:  https://openfoam.org
    \\  /    A nd           | Version:  7
     \\/     M anipulation  |
\*---------------------------------------------------------------------------*/
FoamFile
{
    version     2.0;
    format      ascii;
    class       volVectorField;
    location    "1.38";
    object      U_0;
}
// * * * * * * * * * * * * * * * * * * * * * * * * * * * * * * * * * * * * * //

dimensions      [0 1 -1 0 0 0 0];

internalField   nonuniform List<vector> 
7920
(
(2.92833 0.101036 -32.3683)
(2.10089 -0.462701 -32.4049)
(1.38719 -0.616725 -32.3839)
(1.27638 -0.672455 -32.3838)
(1.04036 -0.688956 -32.3678)
(1.06399 -0.693778 -32.378)
(0.92153 -0.69789 -32.3768)
(0.964633 -0.698179 -32.3908)
(0.85769 -0.700478 -32.3898)
(0.900353 -0.700245 -32.3966)
(0.8148 -0.701782 -32.3926)
(0.853197 -0.701256 -32.3968)
(0.783191 -0.702252 -32.3951)
(0.816673 -0.701689 -32.3976)
(0.758564 -0.702055 -32.3976)
(0.787188 -0.702098 -32.3957)
(0.73746 -0.698165 -32.4002)
(0.75697 -0.704519 -32.3898)
(0.720129 -0.64607 -32.4087)
(0.546461 -0.659365 -32.3722)
(4.40995 0.967301 -32.4298)
(4.32863 0.872733 -32.4669)
(3.67365 0.818306 -32.4548)
(3.52281 0.751039 -32.4544)
(3.1211 0.723152 -32.4399)
(3.11291 0.709673 -32.4416)
(2.84828 0.70312 -32.4387)
(2.88737 0.699746 -32.4474)
(2.68925 0.69773 -32.4497)
(2.73846 0.696107 -32.456)
(2.58089 0.695027 -32.4561)
(2.62955 0.693842 -32.4593)
(2.50089 0.69319 -32.4603)
(2.54564 0.692271 -32.4622)
(2.43859 0.691618 -32.465)
(2.48033 0.691719 -32.4625)
(2.38446 0.68842 -32.4695)
(2.44297 0.693211 -32.4575)
(2.3197 0.683631 -32.4788)
(2.5934 0.674038 -32.4288)
(4.75076 0.192686 -32.4372)
(5.25399 -0.229389 -32.471)
(5.1071 -0.374988 -32.4562)
(5.21564 -0.493131 -32.4603)
(4.96874 -0.557737 -32.4457)
(5.01571 -0.594269 -32.4459)
(4.7993 -0.6187 -32.4342)
(4.83936 -0.632591 -32.4368)
(4.66121 -0.643255 -32.4321)
(4.69937 -0.649974 -32.4383)
(4.55284 -0.65545 -32.4382)
(4.5883 -0.659471 -32.4446)
(4.46687 -0.662628 -32.4467)
(4.49871 -0.66531 -32.4519)
(4.39831 -0.667503 -32.4567)
(4.42311 -0.668278 -32.4588)
(4.34662 -0.671767 -32.4668)
(4.345 -0.667444 -32.4617)
(4.31596 -0.668423 -32.476)
(4.21999 -0.691018 -32.4422)
(4.7517 0.649212 -32.4475)
(5.27995 0.749465 -32.4796)
(5.37825 0.796495 -32.4661)
(5.68051 0.766505 -32.4697)
(5.6196 0.748386 -32.4583)
(5.78876 0.733992 -32.4583)
(5.69303 0.723731 -32.4469)
(5.80305 0.715885 -32.445)
(5.70663 0.70994 -32.4369)
(5.78566 0.704432 -32.4379)
(5.69748 0.700489 -32.436)
(5.75791 0.696304 -32.4402)
(5.67933 0.693809 -32.4426)
(5.72831 0.690367 -32.4477)
(5.65716 0.68945 -32.4534)
(5.70235 0.685569 -32.4587)
(5.63082 0.688333 -32.4667)
(5.69043 0.681268 -32.4699)
(5.59981 0.695715 -32.4784)
(5.74033 0.705259 -32.4562)
(4.74383 -0.0883794 -32.4466)
(5.24377 -0.387293 -32.4784)
(5.39935 -0.47965 -32.4623)
(5.7571 -0.545215 -32.4667)
(5.76556 -0.580791 -32.4541)
(5.99486 -0.600712 -32.4557)
(5.96573 -0.614993 -32.4434)
(6.12835 -0.623061 -32.4417)
(6.09099 -0.630056 -32.431)
(6.21358 -0.634509 -32.4307)
(6.17582 -0.63875 -32.4256)
(6.27117 -0.6418 -32.4291)
(6.23522 -0.644941 -32.4287)
(6.31079 -0.646788 -32.4343)
(6.27798 -0.650443 -32.4372)
(6.33715 -0.648823 -32.445)
(6.31218 -0.658232 -32.4508)
(6.34861 -0.646848 -32.46)
(6.3444 -0.670586 -32.4658)
(6.34103 -0.693058 -32.4511)
(4.73128 0.3521 -32.4503)
(5.18697 0.557145 -32.4827)
(5.35254 0.635317 -32.4664)
(5.72574 0.655184 -32.4709)
(5.7581 0.66514 -32.4581)
(6.0112 0.668342 -32.4599)
(6.00884 0.670499 -32.4476)
(6.19597 0.670704 -32.4461)
(6.1858 0.671125 -32.4349)
(6.33175 0.670466 -32.4342)
(6.31992 0.670379 -32.4281)
(6.43661 0.669512 -32.431)
(6.42414 0.669572 -32.4294)
(6.51887 0.668317 -32.4347)
(6.50583 0.669676 -32.4362)
(6.58402 0.666045 -32.4443)
(6.5714 0.673352 -32.449)
(6.63664 0.66238 -32.4598)
(6.62883 0.685829 -32.4655)
(6.691 0.707961 -32.4516)
(4.73128 -0.3521 -32.4503)
(5.18697 -0.557145 -32.4827)
(5.35254 -0.635317 -32.4664)
(5.72574 -0.655183 -32.4709)
(5.7581 -0.66514 -32.4581)
(6.0112 -0.66834 -32.4599)
(6.00885 -0.670499 -32.4476)
(6.19596 -0.6707 -32.4461)
(6.1858 -0.671121 -32.4349)
(6.33175 -0.670456 -32.4342)
(6.31993 -0.670366 -32.4281)
(6.4366 -0.669486 -32.431)
(6.42417 -0.669534 -32.4294)
(6.51885 -0.668226 -32.4347)
(6.50593 -0.669602 -32.4362)
(6.58394 -0.665709 -32.4444)
(6.57164 -0.673247 -32.449)
(6.63648 -0.661379 -32.4598)
(6.62919 -0.68536 -32.4655)
(6.69078 -0.706136 -32.4516)
(4.74383 0.0883794 -32.4466)
(5.24377 0.387294 -32.4784)
(5.39935 0.47965 -32.4623)
(5.75711 0.545216 -32.4667)
(5.76556 0.580791 -32.4541)
(5.99487 0.600713 -32.4557)
(5.96573 0.614994 -32.4433)
(6.12836 0.623064 -32.4417)
(6.09098 0.63006 -32.431)
(6.2136 0.634515 -32.4308)
(6.17579 0.638766 -32.4256)
(6.27122 0.641819 -32.4292)
(6.23517 0.644985 -32.4285)
(6.31092 0.64686 -32.4345)
(6.27792 0.650528 -32.4369)
(6.33745 0.649123 -32.4454)
(6.31222 0.658348 -32.4504)
(6.34929 0.647824 -32.4605)
(6.34499 0.671009 -32.4654)
(6.34276 0.695037 -32.4515)
(4.7517 -0.649212 -32.4475)
(5.27995 -0.749465 -32.4796)
(5.37824 -0.796495 -32.4661)
(5.68051 -0.766504 -32.4697)
(5.6196 -0.748386 -32.4583)
(5.78876 -0.733989 -32.4584)
(5.69303 -0.723731 -32.4469)
(5.80305 -0.71588 -32.4451)
(5.70662 -0.709938 -32.4368)
(5.78567 -0.704421 -32.4381)
(5.69748 -0.700482 -32.4359)
(5.75795 -0.696276 -32.4405)
(5.67935 -0.693787 -32.4422)
(5.72843 -0.690277 -32.4483)
(5.65728 -0.689415 -32.4525)
(5.70261 -0.685261 -32.4599)
(5.6313 -0.68832 -32.465)
(5.69092 -0.680401 -32.4721)
(5.60123 -0.695487 -32.4755)
(5.74156 -0.703828 -32.4597)
(4.75076 -0.192686 -32.4372)
(5.25399 0.229389 -32.4711)
(5.1071 0.374988 -32.4562)
(5.21564 0.493131 -32.4603)
(4.96874 0.557738 -32.4456)
(5.01572 0.59427 -32.4459)
(4.79929 0.618701 -32.4342)
(4.83937 0.632591 -32.4369)
(4.6612 0.64326 -32.432)
(4.69941 0.649975 -32.4385)
(4.55282 0.655465 -32.4379)
(4.58841 0.659472 -32.445)
(4.46683 0.662667 -32.4461)
(4.499 0.66533 -32.453)
(4.3983 0.667576 -32.4551)
(4.4238 0.668418 -32.4613)
(4.3469 0.671862 -32.463)
(4.34658 0.668025 -32.4674)
(4.31746 0.668674 -32.4673)
(4.22443 0.692136 -32.4548)
(4.40995 -0.967301 -32.4298)
(4.32863 -0.872733 -32.4669)
(3.67365 -0.818306 -32.4548)
(3.52281 -0.751039 -32.4544)
(3.1211 -0.723153 -32.4399)
(3.11291 -0.709672 -32.4417)
(2.84829 -0.70312 -32.4386)
(2.88738 -0.699743 -32.4475)
(2.68926 -0.697731 -32.4496)
(2.73848 -0.6961 -32.4561)
(2.5809 -0.695028 -32.4558)
(2.62961 -0.693825 -32.4598)
(2.50093 -0.693191 -32.4596)
(2.54583 -0.692215 -32.4633)
(2.43875 -0.691629 -32.4632)
(2.48075 -0.691534 -32.4655)
(2.38515 -0.688517 -32.4646)
(2.44361 -0.692731 -32.4659)
(2.32208 -0.683921 -32.464)
(2.59397 -0.67413 -32.455)
(2.92833 -0.101036 -32.3683)
(2.10089 0.462701 -32.4049)
(1.38719 0.616726 -32.3839)
(1.27638 0.672455 -32.3839)
(1.04036 0.688957 -32.3677)
(1.06399 0.693778 -32.378)
(0.92153 0.697891 -32.3767)
(0.964637 0.698177 -32.3909)
(0.857691 0.700481 -32.3897)
(0.900366 0.70024 -32.3968)
(0.814802 0.701789 -32.3924)
(0.853237 0.701242 -32.3971)
(0.783195 0.702268 -32.3945)
(0.816788 0.70165 -32.3986)
(0.7586 0.702096 -32.396)
(0.787458 0.701998 -32.3983)
(0.737716 0.698299 -32.3958)
(0.757515 0.704358 -32.3975)
(0.721274 0.646668 -32.3951)
(0.548551 0.660056 -32.3963)
(4.32405 0.565903 0.0069277)
(3.07582 0.847691 0.00446066)
(2.30927 0.869356 0.00573029)
(1.73935 0.852282 0.00425144)
(1.59892 0.854515 0.00539223)
(1.39249 0.866097 0.00422453)
(1.38341 0.875976 0.00518009)
(1.25846 0.884201 0.00420158)
(1.26261 0.888609 0.00498297)
(1.17312 0.892407 0.00415454)
(1.17827 0.894167 0.00479427)
(1.1122 0.896251 0.00409869)
(1.11589 0.897065 0.00462487)
(1.06479 0.898596 0.00404198)
(1.06727 0.898487 0.00447301)
(1.02426 0.900899 0.00398398)
(1.02829 0.893436 0.00433854)
(1.00292 0.914897 0.00392284)
(0.955815 0.791268 0.00424794)
(1.3953 0.817964 0.00380776)
(4.75761 -0.100137 0.00435102)
(4.6085 -0.277216 0.00232007)
(4.52045 -0.477016 0.003623)
(4.13569 -0.642655 0.00218063)
(3.99056 -0.738661 0.00333119)
(3.70934 -0.793768 0.00216806)
(3.63256 -0.821102 0.00312489)
(3.44262 -0.83825 0.00214782)
(3.40008 -0.848559 0.00293141)
(3.26465 -0.856449 0.00210634)
(3.23642 -0.861803 0.00274835)
(3.13529 -0.866313 0.00205422)
(3.11363 -0.869235 0.00258106)
(3.03454 -0.872529 0.00199909)
(3.01791 -0.873267 0.00243013)
(2.94917 -0.877645 0.00194293)
(2.94632 -0.874755 0.00229154)
(2.8587 -0.881633 0.00188589)
(2.92995 -0.885371 0.0021401)
(2.52741 -0.895087 0.0017579)
(4.63631 0.435156 0.00564923)
(4.82254 0.871146 0.00369404)
(5.13548 0.969005 0.00487821)
(5.07325 0.959547 0.00339543)
(5.13265 0.9411 0.00452066)
(4.99462 0.927928 0.00334474)
(4.9983 0.918684 0.00429546)
(4.87692 0.913059 0.00331408)
(4.86916 0.906776 0.00409507)
(4.77071 0.903257 0.00326805)
(4.75825 0.898729 0.00390868)
(4.6789 0.896618 0.00321368)
(4.66391 0.893689 0.00373982)
(4.60006 0.892258 0.00315734)
(4.582 0.890757 0.00358863)
(4.53452 0.888738 0.00310008)
(4.50322 0.88743 0.00345474)
(4.49611 0.887514 0.00303899)
(4.41315 0.848314 0.00336207)
(4.53013 0.887764 0.00294757)
(4.57455 -0.201707 0.00447063)
(4.69636 -0.398192 0.00273527)
(5.12448 -0.51869 0.00392472)
(5.22169 -0.623153 0.00247149)
(5.43608 -0.690637 0.00359903)
(5.4341 -0.737616 0.00242764)
(5.54305 -0.764117 0.00338172)
(5.51479 -0.783504 0.00240329)
(5.57693 -0.796155 0.00318677)
(5.54381 -0.80678 0.00236215)
(5.58011 -0.814613 0.00300403)
(5.54797 -0.821444 0.00231089)
(5.56881 -0.826757 0.0028377)
(5.53923 -0.831434 0.00225703)
(5.55114 -0.835488 0.00268817)
(5.52217 -0.837998 0.00220219)
(5.53295 -0.845563 0.00255014)
(5.48731 -0.839541 0.00214415)
(5.52497 -0.875576 0.00239645)
(5.32744 -0.89717 0.0020427)
(4.58758 0.341365 0.00512387)
(4.69227 0.688229 0.00342778)
(5.10021 0.802865 0.00456943)
(5.21818 0.844119 0.00310194)
(5.47274 0.860841 0.00421658)
(5.51982 0.870485 0.00303858)
(5.67954 0.874238 0.00398961)
(5.70362 0.876906 0.00300911)
(5.81411 0.876334 0.00379167)
(5.82877 0.876594 0.00296583)
(5.90726 0.875012 0.0036069)
(5.91639 0.874684 0.00291282)
(5.9726 0.873327 0.00343896)
(5.97876 0.872564 0.00285767)
(6.01797 0.872424 0.00328875)
(6.0251 0.869464 0.00280183)
(6.04579 0.873692 0.00315434)
(6.06154 0.865349 0.00274199)
(6.06053 0.869278 0.00304635)
(6.05535 0.915292 0.0026675)
(4.58154 -0.269035 0.00475304)
(4.66417 -0.539242 0.00312149)
(5.06706 -0.65347 0.00426257)
(5.1864 -0.724051 0.0028023)
(5.45238 -0.764246 0.00391526)
(5.51447 -0.791768 0.00273728)
(5.69203 -0.806331 0.0036883)
(5.7353 -0.817147 0.00270813)
(5.86569 -0.823007 0.00349118)
(5.90095 -0.828462 0.0026659)
(5.99967 -0.831689 0.0033073)
(6.02883 -0.835085 0.00261367)
(6.10454 -0.837408 0.0031399)
(6.12851 -0.839377 0.00255909)
(6.18719 -0.842211 0.00298983)
(6.20619 -0.841042 0.00250378)
(6.25265 -0.850063 0.002853)
(6.25801 -0.839174 0.00244455)
(6.30793 -0.870105 0.00271967)
(6.21833 -0.904935 0.00236497)
(4.58154 0.269035 0.00475304)
(4.66417 0.539243 0.00312149)
(5.06706 0.653469 0.00426257)
(5.1864 0.724052 0.0028023)
(5.45238 0.764246 0.00391526)
(5.51447 0.79177 0.00273728)
(5.69203 0.806332 0.0036883)
(5.7353 0.817151 0.00270812)
(5.86569 0.823011 0.00349119)
(5.90096 0.828474 0.00266589)
(5.99965 0.831701 0.00330732)
(6.02886 0.835121 0.00261364)
(6.1045 0.837442 0.00313994)
(6.12858 0.839491 0.00255899)
(6.18711 0.842299 0.00298994)
(6.2064 0.841371 0.00250352)
(6.25251 0.850356 0.00285335)
(6.25865 0.840002 0.00244395)
(6.30818 0.871119 0.0027209)
(6.21938 0.90693 0.00236407)
(4.58758 -0.341365 0.00512387)
(4.69227 -0.688229 0.00342778)
(5.10021 -0.802865 0.00456943)
(5.21818 -0.844118 0.00310194)
(5.47274 -0.860842 0.00421657)
(5.51982 -0.870483 0.00303858)
(5.67954 -0.874238 0.00398961)
(5.70362 -0.876901 0.00300911)
(5.81411 -0.876332 0.00379166)
(5.82878 -0.876581 0.00296585)
(5.90727 -0.875004 0.00360688)
(5.91639 -0.874643 0.00291286)
(5.97264 -0.873306 0.00343889)
(5.97877 -0.872439 0.00285778)
(6.01812 -0.872369 0.00328859)
(6.02508 -0.869122 0.00280211)
(6.04621 -0.873502 0.0031539)
(6.06139 -0.864634 0.00274251)
(6.06132 -0.868503 0.00304513)
(6.05547 -0.913537 0.00266788)
(4.57455 0.201706 0.00447062)
(4.69636 0.398192 0.00273527)
(5.12447 0.51869 0.00392472)
(5.22169 0.623153 0.00247149)
(5.43607 0.690638 0.00359903)
(5.43411 0.737617 0.00242764)
(5.54304 0.764118 0.00338172)
(5.5148 0.783507 0.00240329)
(5.57692 0.79616 0.00318677)
(5.54384 0.806787 0.00236214)
(5.58009 0.814627 0.00300404)
(5.54805 0.821466 0.00231087)
(5.56878 0.826795 0.00283772)
(5.53942 0.831512 0.00225699)
(5.55113 0.835585 0.00268821)
(5.52266 0.83824 0.00220207)
(5.53311 0.845878 0.00255032)
(5.48865 0.840248 0.00214377)
(5.52607 0.876641 0.00239758)
(5.33083 0.898915 0.00204177)
(4.6363 -0.435156 0.00564922)
(4.82254 -0.871146 0.00369405)
(5.13548 -0.969006 0.00487821)
(5.07325 -0.959546 0.00339544)
(5.13265 -0.9411 0.00452065)
(4.99463 -0.927926 0.00334474)
(4.9983 -0.918684 0.00429545)
(4.87693 -0.913054 0.00331409)
(4.86916 -0.906776 0.00409505)
(4.77074 -0.903245 0.00326809)
(4.75825 -0.898728 0.00390863)
(4.67897 -0.896582 0.00321375)
(4.66394 -0.893688 0.0037397)
(4.60024 -0.89215 0.00315753)
(4.58216 -0.890764 0.00358832)
(4.53491 -0.888455 0.00310053)
(4.50384 -0.887428 0.00345399)
(4.49699 -0.887045 0.00303984)
(4.41478 -0.84807 0.00336035)
(4.53253 -0.887185 0.00294816)
(4.75761 0.100137 0.00435102)
(4.6085 0.277216 0.00232007)
(4.52045 0.477016 0.003623)
(4.13569 0.642655 0.00218064)
(3.99056 0.738662 0.00333119)
(3.70935 0.793768 0.00216806)
(3.63256 0.821104 0.00312489)
(3.44264 0.838249 0.00214782)
(3.40008 0.848564 0.0029314)
(3.26469 0.856447 0.00210635)
(3.23641 0.861816 0.00274834)
(3.1354 0.866308 0.00205424)
(3.11363 0.869269 0.00258103)
(3.03483 0.872524 0.00199913)
(3.01798 0.873353 0.00243003)
(2.94992 0.877652 0.00194305)
(2.94663 0.875017 0.00229133)
(2.86093 0.881812 0.00188606)
(2.93066 0.886279 0.00214026)
(2.53554 0.896484 0.00175802)
(4.32405 -0.565903 0.0069277)
(3.07582 -0.847691 0.00446066)
(2.30927 -0.869356 0.00573029)
(1.73935 -0.852282 0.00425144)
(1.59892 -0.854516 0.00539223)
(1.39249 -0.866096 0.00422453)
(1.38341 -0.875977 0.00518008)
(1.25846 -0.884199 0.0042016)
(1.26261 -0.888612 0.00498295)
(1.17313 -0.8924 0.00415458)
(1.17828 -0.894175 0.00479421)
(1.11224 -0.896231 0.00409879)
(1.11595 -0.897087 0.0046247)
(1.0649 -0.898538 0.00404225)
(1.06746 -0.898552 0.00447256)
(1.02451 -0.900748 0.0039847)
(1.02888 -0.893654 0.00433728)
(1.00353 -0.914703 0.00392475)
(0.957195 -0.792378 0.00424408)
(1.39646 -0.819312 0.00381291)
(4.37763 0.0970716 0.00138002)
(3.96386 0.14901 0.00192381)
(3.42637 0.162953 0.000969899)
(2.9465 0.156756 0.00151178)
(2.53166 0.145215 0.000987552)
(2.22511 0.136698 0.0014031)
(1.99806 0.131715 0.00105984)
(1.84243 0.13131 0.00132269)
(1.73628 0.133629 0.00109031)
(1.65876 0.138093 0.00124309)
(1.60906 0.143101 0.00109822)
(1.56435 0.148502 0.00117937)
(1.53836 0.153113 0.00110422)
(1.50717 0.158008 0.00113582)
(1.49004 0.160803 0.00111392)
(1.46793 0.166148 0.00110794)
(1.4478 0.164509 0.00113244)
(1.44845 0.174872 0.00109077)
(1.39657 0.160161 0.00114422)
(1.47138 0.16636 0.00115668)
(4.54011 0.0877852 0.00317154)
(4.67428 0.119384 0.00389398)
(4.7141 0.120694 0.00293288)
(4.69999 0.094389 0.00345003)
(4.6202 0.0562587 0.00290085)
(4.52197 0.0139814 0.00330167)
(4.41201 -0.023856 0.00294793)
(4.30457 -0.0563666 0.00320608)
(4.20677 -0.081219 0.00297159)
(4.11289 -0.10105 0.0031249)
(4.03391 -0.115519 0.0029804)
(3.95536 -0.127216 0.0030621)
(3.89284 -0.135732 0.00298691)
(3.82756 -0.142993 0.00301857)
(3.77844 -0.148436 0.00299739)
(3.72457 -0.152824 0.00299037)
(3.68479 -0.157687 0.00301845)
(3.64425 -0.158841 0.00297045)
(3.60445 -0.16545 0.00306618)
(3.58513 -0.17144 0.00306704)
(4.51544 0.0457439 0.00173705)
(4.65234 0.110461 0.00234403)
(4.78189 0.162794 0.00141537)
(4.92743 0.191168 0.00193717)
(5.0322 0.201414 0.00139541)
(5.11354 0.202323 0.00180382)
(5.16154 0.199117 0.00145852)
(5.18803 0.196159 0.00172127)
(5.1998 0.194314 0.00149131)
(5.19787 0.193914 0.00164583)
(5.19294 0.194317 0.00150357)
(5.17906 0.195244 0.00158543)
(5.16676 0.195986 0.00151132)
(5.14933 0.197195 0.00154338)
(5.13267 0.196682 0.00152204)
(5.11728 0.199446 0.00151746)
(5.09486 0.193972 0.00153866)
(5.08767 0.204435 0.00150682)
(5.05435 0.183809 0.00153263)
(5.0612 0.20795 0.00156421)
(4.51148 0.0441593 0.00275513)
(4.61793 0.0508597 0.00347183)
(4.73957 0.0465604 0.00256737)
(4.89626 0.0290125 0.00309415)
(5.03306 0.00678658 0.00253792)
(5.16233 -0.0183092 0.00293472)
(5.26622 -0.042066 0.00257865)
(5.35268 -0.0635427 0.00283648)
(5.42419 -0.0811551 0.002602)
(5.48118 -0.0957459 0.00275471)
(5.53265 -0.107271 0.00261004)
(5.57289 -0.116607 0.00269107)
(5.61238 -0.124336 0.00261574)
(5.643 -0.130245 0.00264751)
(5.67453 -0.136352 0.00262617)
(5.69867 -0.139146 0.00262129)
(5.72536 -0.146323 0.0026468)
(5.74105 -0.144539 0.00261146)
(5.76974 -0.15508 0.00269865)
(5.76389 -0.15305 0.00270106)
(4.51259 0.0165893 0.00205483)
(4.61909 0.0556959 0.00272606)
(4.73375 0.0914171 0.00183159)
(4.88442 0.117042 0.0023497)
(5.01902 0.133309 0.00179162)
(5.15204 0.144374 0.00218874)
(5.26445 0.152102 0.00183561)
(5.36382 0.158809 0.00209577)
(5.45112 0.164667 0.0018641)
(5.52635 0.170239 0.00201806)
(5.59788 0.175082 0.00187501)
(5.6594 0.179528 0.00195643)
(5.7217 0.182934 0.00188188)
(5.77498 0.186402 0.00191378)
(5.83159 0.187818 0.00189244)
(5.87755 0.191781 0.00188843)
(5.93318 0.188868 0.00190935)
(5.96428 0.198387 0.0018826)
(6.03419 0.184189 0.0019179)
(6.02644 0.209291 0.0019486)
(4.51133 0.01192 0.0023877)
(4.61125 -0.00402552 0.0030881)
(4.7245 -0.0234382 0.00220123)
(4.87347 -0.0448917 0.00272514)
(5.00723 -0.0639639 0.00216547)
(5.14013 -0.0817247 0.00256084)
(5.25363 -0.0971759 0.0022052)
(5.3552 -0.110891 0.00246436)
(5.44601 -0.122362 0.00223164)
(5.52553 -0.132107 0.00238531)
(5.60277 -0.140107 0.00224175)
(5.67005 -0.146667 0.002323)
(5.74019 -0.152176 0.0022482)
(5.79984 -0.156434 0.00227991)
(5.86694 -0.160393 0.00225866)
(5.9182 -0.163021 0.00225428)
(5.98868 -0.16586 0.0022774)
(6.02064 -0.168338 0.0022489)
(6.11322 -0.167829 0.00231289)
(6.09727 -0.177336 0.00232618)
(4.51133 -0.0119202 0.0023877)
(4.61125 0.00402603 0.0030881)
(4.7245 0.0234377 0.00220123)
(4.87347 0.0448929 0.00272514)
(5.00723 0.0639633 0.00216547)
(5.14013 0.0817273 0.00256084)
(5.25363 0.0971758 0.0022052)
(5.3552 0.110897 0.00246437)
(5.44601 0.122364 0.00223164)
(5.52553 0.132121 0.00238532)
(5.60276 0.140116 0.00224173)
(5.67005 0.146709 0.00232304)
(5.74019 0.152198 0.00224815)
(5.79986 0.156557 0.00228)
(5.86694 0.160447 0.00225854)
(5.91822 0.163358 0.0022545)
(5.98871 0.166036 0.00227697)
(6.02071 0.169133 0.00224928)
(6.11335 0.168554 0.00231097)
(6.09751 0.178927 0.00232682)
(4.51259 -0.0165895 0.00205483)
(4.61909 -0.0556954 0.00272606)
(4.73375 -0.0914176 0.00183159)
(4.88442 -0.117041 0.0023497)
(5.01902 -0.133309 0.00179162)
(5.15204 -0.144371 0.00218874)
(5.26445 -0.152103 0.00183561)
(5.36383 -0.158803 0.00209576)
(5.45112 -0.164665 0.00186411)
(5.52636 -0.170224 0.00201805)
(5.59789 -0.175074 0.00187503)
(5.6594 -0.179486 0.0019564)
(5.72173 -0.182914 0.00188192)
(5.77498 -0.186279 0.0019137)
(5.83166 -0.187768 0.00189255)
(5.87755 -0.191449 0.00188821)
(5.93338 -0.188705 0.00190973)
(5.96435 -0.197617 0.00188219)
(6.03463 -0.183518 0.00191953)
(6.02679 -0.207814 0.00194797)
(4.51148 -0.0441594 0.00275513)
(4.61793 -0.0508592 0.00347183)
(4.73957 -0.0465608 0.00256737)
(4.89626 -0.0290115 0.00309416)
(5.03306 -0.00678713 0.00253792)
(5.16233 0.0183115 0.00293472)
(5.26621 0.042066 0.00257864)
(5.35269 0.0635479 0.0028365)
(5.42418 0.0811577 0.00260198)
(5.48119 0.0957587 0.00275473)
(5.53264 0.107281 0.00261002)
(5.57293 0.116643 0.00269112)
(5.61238 0.124358 0.00261568)
(5.64308 0.130355 0.00264759)
(5.67459 0.136402 0.00262602)
(5.69884 0.139453 0.00262147)
(5.72564 0.146475 0.00264635)
(5.74146 0.145279 0.00261178)
(5.77066 0.155712 0.00269681)
(5.76509 0.154548 0.00270138)
(4.51544 -0.0457441 0.00173705)
(4.65234 -0.11046 0.00234403)
(4.78189 -0.162794 0.00141537)
(4.92743 -0.191167 0.00193717)
(5.03219 -0.201415 0.0013954)
(5.11354 -0.20232 0.00180383)
(5.16153 -0.199117 0.00145852)
(5.18805 -0.196153 0.00172128)
(5.19978 -0.194314 0.00149131)
(5.19791 -0.1939 0.00164584)
(5.19292 -0.194313 0.00150356)
(5.17915 -0.195206 0.00158543)
(5.16675 -0.195976 0.00151132)
(5.14953 -0.19709 0.00154336)
(5.13274 -0.19666 0.00152207)
(5.11769 -0.199169 0.00151736)
(5.09528 -0.193888 0.00153883)
(5.08855 -0.203823 0.00150658)
(5.05576 -0.183391 0.0015335)
(5.06336 -0.206962 0.00156397)
(4.54011 -0.0877852 0.00317154)
(4.67428 -0.119383 0.00389398)
(4.7141 -0.120694 0.00293287)
(4.7 -0.0943887 0.00345003)
(4.6202 -0.0562585 0.00290084)
(4.52198 -0.0139806 0.00330169)
(4.412 0.0238571 0.00294792)
(4.30459 0.0563685 0.00320611)
(4.20676 0.0812226 0.00297155)
(4.11296 0.101055 0.00312497)
(4.03388 0.115527 0.00298031)
(3.95552 0.127231 0.00306225)
(3.8928 0.13575 0.0029867)
(3.82793 0.143046 0.00301889)
(3.77844 0.14847 0.00299689)
(3.72542 0.152979 0.00299108)
(3.68507 0.157774 0.00301727)
(3.64617 0.159225 0.00297195)
(3.60563 0.165815 0.00306306)
(3.58978 0.172194 0.00306996)
(4.37763 -0.0970716 0.00138002)
(3.96386 -0.14901 0.00192381)
(3.42637 -0.162953 0.000969898)
(2.9465 -0.156755 0.00151178)
(2.53166 -0.145215 0.000987551)
(2.22512 -0.136698 0.00140311)
(1.99806 -0.131715 0.00105983)
(1.84244 -0.131309 0.0013227)
(1.73628 -0.133629 0.00109031)
(1.6588 -0.13809 0.0012431)
(1.60906 -0.143102 0.0010982)
(1.56446 -0.148493 0.0011794)
(1.5384 -0.153116 0.00110417)
(1.50742 -0.157981 0.0011359)
(1.4902 -0.160819 0.00111378)
(1.46851 -0.166073 0.00110815)
(1.44834 -0.164557 0.00113201)
(1.44994 -0.174717 0.00109139)
(1.39774 -0.160263 0.00114289)
(1.47596 -0.166486 0.00115867)
(4.37763 0.0970716 -0.00138005)
(3.96386 0.14901 -0.00192384)
(3.42637 0.162953 -0.000969926)
(2.9465 0.156756 -0.00151181)
(2.53166 0.145215 -0.000987579)
(2.22511 0.136698 -0.00140313)
(1.99806 0.131715 -0.00105986)
(1.84243 0.13131 -0.00132272)
(1.73628 0.133629 -0.00109034)
(1.65876 0.138093 -0.00124312)
(1.60906 0.143101 -0.00109825)
(1.56435 0.148502 -0.00117939)
(1.53836 0.153113 -0.00110425)
(1.50717 0.158008 -0.00113585)
(1.49004 0.160803 -0.00111394)
(1.46793 0.166148 -0.00110797)
(1.4478 0.164509 -0.00113247)
(1.44845 0.174872 -0.0010908)
(1.39657 0.160161 -0.00114425)
(1.47138 0.16636 -0.00115671)
(4.54011 0.0877851 -0.00317156)
(4.67428 0.119384 -0.00389401)
(4.7141 0.120694 -0.0029329)
(4.69999 0.094389 -0.00345006)
(4.6202 0.0562586 -0.00290087)
(4.52197 0.0139814 -0.0033017)
(4.41201 -0.0238561 -0.00294796)
(4.30457 -0.0563667 -0.00320611)
(4.20677 -0.0812191 -0.00297162)
(4.11289 -0.10105 -0.00312493)
(4.03391 -0.115519 -0.00298043)
(3.95536 -0.127215 -0.00306213)
(3.89284 -0.135732 -0.00298694)
(3.82756 -0.142993 -0.00301859)
(3.77844 -0.148436 -0.00299742)
(3.72457 -0.152824 -0.0029904)
(3.68479 -0.157687 -0.00301847)
(3.64425 -0.158841 -0.00297048)
(3.60445 -0.16545 -0.00306621)
(3.58513 -0.17144 -0.00306707)
(4.51544 0.0457439 -0.00173708)
(4.65234 0.110461 -0.00234406)
(4.78189 0.162794 -0.0014154)
(4.92743 0.191168 -0.00193719)
(5.0322 0.201414 -0.00139543)
(5.11354 0.202323 -0.00180385)
(5.16154 0.199117 -0.00145855)
(5.18803 0.196159 -0.0017213)
(5.1998 0.194314 -0.00149134)
(5.19787 0.193914 -0.00164586)
(5.19294 0.194317 -0.0015036)
(5.17906 0.195244 -0.00158546)
(5.16676 0.195986 -0.00151135)
(5.14933 0.197195 -0.0015434)
(5.13267 0.196682 -0.00152207)
(5.11728 0.199446 -0.00151749)
(5.09486 0.193972 -0.00153869)
(5.08767 0.204435 -0.00150685)
(5.05435 0.183809 -0.00153266)
(5.0612 0.20795 -0.00156424)
(4.51148 0.0441593 -0.00275516)
(4.61793 0.0508597 -0.00347185)
(4.73957 0.0465604 -0.0025674)
(4.89626 0.0290125 -0.00309418)
(5.03306 0.00678654 -0.00253795)
(5.16233 -0.0183093 -0.00293474)
(5.26622 -0.042066 -0.00257867)
(5.35268 -0.0635427 -0.00283651)
(5.42419 -0.0811551 -0.00260202)
(5.48118 -0.0957458 -0.00275474)
(5.53265 -0.107271 -0.00261007)
(5.57289 -0.116607 -0.0026911)
(5.61238 -0.124336 -0.00261576)
(5.643 -0.130245 -0.00264753)
(5.67453 -0.136352 -0.00262619)
(5.69867 -0.139146 -0.00262132)
(5.72536 -0.146323 -0.00264683)
(5.74105 -0.144539 -0.00261149)
(5.76974 -0.15508 -0.00269868)
(5.76389 -0.15305 -0.00270109)
(4.51259 0.0165893 -0.00205485)
(4.61909 0.0556959 -0.00272608)
(4.73375 0.091417 -0.00183162)
(4.88442 0.117042 -0.00234973)
(5.01902 0.133309 -0.00179164)
(5.15204 0.144374 -0.00218877)
(5.26445 0.152102 -0.00183563)
(5.36382 0.158809 -0.00209579)
(5.45112 0.164667 -0.00186413)
(5.52635 0.170239 -0.00201809)
(5.59788 0.175082 -0.00187504)
(5.6594 0.179528 -0.00195646)
(5.7217 0.182934 -0.00188191)
(5.77498 0.186402 -0.00191381)
(5.83159 0.187818 -0.00189247)
(5.87755 0.191781 -0.00188846)
(5.93318 0.188868 -0.00190938)
(5.96428 0.198387 -0.00188263)
(6.03419 0.184189 -0.00191793)
(6.02644 0.209291 -0.00194863)
(4.51133 0.01192 -0.00238773)
(4.61125 -0.00402553 -0.00308812)
(4.7245 -0.0234382 -0.00220126)
(4.87347 -0.0448917 -0.00272516)
(5.00723 -0.063964 -0.0021655)
(5.14013 -0.0817248 -0.00256087)
(5.25363 -0.0971759 -0.00220523)
(5.3552 -0.110891 -0.00246439)
(5.44601 -0.122362 -0.00223167)
(5.52553 -0.132107 -0.00238534)
(5.60277 -0.140107 -0.00224178)
(5.67005 -0.146667 -0.00232303)
(5.74019 -0.152176 -0.00224822)
(5.79984 -0.156434 -0.00227994)
(5.86694 -0.160393 -0.00225869)
(5.9182 -0.163021 -0.0022543)
(5.98868 -0.16586 -0.00227742)
(6.02064 -0.168338 -0.00224893)
(6.11322 -0.167829 -0.00231292)
(6.09727 -0.177336 -0.00232621)
(4.51133 -0.0119202 -0.00238773)
(4.61125 0.00402603 -0.00308812)
(4.7245 0.0234377 -0.00220126)
(4.87347 0.0448928 -0.00272517)
(5.00723 0.0639633 -0.0021655)
(5.14013 0.0817273 -0.00256087)
(5.25363 0.0971759 -0.00220523)
(5.3552 0.110897 -0.0024644)
(5.44601 0.122364 -0.00223166)
(5.52553 0.132121 -0.00238535)
(5.60276 0.140116 -0.00224176)
(5.67005 0.146709 -0.00232306)
(5.74019 0.152199 -0.00224818)
(5.79986 0.156557 -0.00228003)
(5.86694 0.160447 -0.00225857)
(5.91822 0.163358 -0.00225452)
(5.9887 0.166036 -0.002277)
(6.02071 0.169133 -0.00224931)
(6.11335 0.168554 -0.002311)
(6.09751 0.178927 -0.00232685)
(4.51259 -0.0165895 -0.00205485)
(4.61909 -0.0556954 -0.00272608)
(4.73375 -0.0914176 -0.00183162)
(4.88442 -0.117041 -0.00234973)
(5.01902 -0.133309 -0.00179165)
(5.15204 -0.144372 -0.00218877)
(5.26445 -0.152103 -0.00183564)
(5.36383 -0.158803 -0.00209579)
(5.45112 -0.164665 -0.00186414)
(5.52635 -0.170224 -0.00201807)
(5.59789 -0.175074 -0.00187506)
(5.6594 -0.179486 -0.00195643)
(5.72173 -0.182914 -0.00188195)
(5.77498 -0.186279 -0.00191373)
(5.83166 -0.187768 -0.00189258)
(5.87755 -0.191449 -0.00188824)
(5.93338 -0.188705 -0.00190976)
(5.96435 -0.197617 -0.00188221)
(6.03463 -0.183518 -0.00191955)
(6.02679 -0.207814 -0.00194799)
(4.51148 -0.0441594 -0.00275515)
(4.61793 -0.0508593 -0.00347185)
(4.73957 -0.0465608 -0.00256739)
(4.89626 -0.0290115 -0.00309418)
(5.03306 -0.00678713 -0.00253795)
(5.16233 0.0183116 -0.00293475)
(5.26621 0.042066 -0.00257867)
(5.35269 0.0635479 -0.00283652)
(5.42418 0.0811577 -0.00260201)
(5.48119 0.0957588 -0.00275476)
(5.53264 0.107281 -0.00261004)
(5.57293 0.116644 -0.00269114)
(5.61238 0.124358 -0.0026157)
(5.64308 0.130355 -0.00264762)
(5.67459 0.136402 -0.00262605)
(5.69884 0.139453 -0.0026215)
(5.72564 0.146475 -0.00264637)
(5.74146 0.145279 -0.0026118)
(5.77066 0.155712 -0.00269684)
(5.76509 0.154548 -0.0027014)
(4.51544 -0.0457441 -0.00173708)
(4.65234 -0.11046 -0.00234406)
(4.78189 -0.162794 -0.00141539)
(4.92743 -0.191167 -0.00193719)
(5.03219 -0.201415 -0.00139543)
(5.11354 -0.20232 -0.00180385)
(5.16153 -0.199117 -0.00145855)
(5.18805 -0.196153 -0.0017213)
(5.19978 -0.194314 -0.00149134)
(5.19791 -0.1939 -0.00164587)
(5.19292 -0.194313 -0.00150359)
(5.17915 -0.195206 -0.00158546)
(5.16675 -0.195976 -0.00151134)
(5.14953 -0.19709 -0.00154339)
(5.13274 -0.19666 -0.0015221)
(5.11769 -0.199169 -0.00151739)
(5.09528 -0.193888 -0.00153886)
(5.08855 -0.203823 -0.00150661)
(5.05576 -0.183391 -0.00153353)
(5.06336 -0.206962 -0.001564)
(4.54011 -0.0877852 -0.00317156)
(4.67428 -0.119383 -0.00389401)
(4.7141 -0.120694 -0.0029329)
(4.7 -0.0943887 -0.00345006)
(4.6202 -0.0562585 -0.00290087)
(4.52198 -0.0139807 -0.00330171)
(4.412 0.0238571 -0.00294794)
(4.30459 0.0563684 -0.00320614)
(4.20675 0.0812226 -0.00297158)
(4.11296 0.101055 -0.00312499)
(4.03388 0.115528 -0.00298033)
(3.95552 0.127231 -0.00306227)
(3.8928 0.13575 -0.00298673)
(3.82793 0.143046 -0.00301892)
(3.77844 0.14847 -0.00299692)
(3.72541 0.152979 -0.00299111)
(3.68507 0.157774 -0.00301729)
(3.64617 0.159225 -0.00297198)
(3.60563 0.165815 -0.00306309)
(3.58978 0.172194 -0.00306999)
(4.37763 -0.0970716 -0.00138005)
(3.96386 -0.14901 -0.00192384)
(3.42637 -0.162953 -0.000969925)
(2.9465 -0.156755 -0.00151181)
(2.53166 -0.145215 -0.000987579)
(2.22512 -0.136698 -0.00140313)
(1.99806 -0.131715 -0.00105986)
(1.84244 -0.131308 -0.00132272)
(1.73628 -0.133629 -0.00109033)
(1.6588 -0.13809 -0.00124313)
(1.60906 -0.143102 -0.00109823)
(1.56446 -0.148493 -0.00117943)
(1.5384 -0.153116 -0.0011042)
(1.50742 -0.157981 -0.00113593)
(1.4902 -0.160819 -0.00111381)
(1.46851 -0.166073 -0.00110818)
(1.44834 -0.164557 -0.00113203)
(1.44994 -0.174717 -0.00109142)
(1.39774 -0.160263 -0.00114292)
(1.47596 -0.166485 -0.0011587)
(4.32405 0.565903 -0.00692772)
(3.07582 0.847691 -0.00446067)
(2.30927 0.869356 -0.00573031)
(1.73935 0.852282 -0.00425145)
(1.59892 0.854515 -0.00539225)
(1.39249 0.866097 -0.00422454)
(1.38341 0.875976 -0.00518011)
(1.25846 0.884201 -0.0042016)
(1.2626 0.888609 -0.00498299)
(1.17312 0.892407 -0.00415456)
(1.17827 0.894167 -0.00479429)
(1.1122 0.896251 -0.00409871)
(1.11589 0.897065 -0.00462488)
(1.06478 0.898597 -0.004042)
(1.06727 0.898487 -0.00447303)