/*--------------------------------*- C++ -*----------------------------------*\
  =========                 |
  \\      /  F ield         | OpenFOAM: The Open Source CFD Toolbox
   \\    /   O peration     | Website:  https://openfoam.org
    \\  /    A nd           | Version:  7
     \\/     M anipulation  |
\*---------------------------------------------------------------------------*/
FoamFile
{
    version     2.0;
    format      ascii;
    class       volVectorField;
    location    "2.765";
    object      UMean;
}
// * * * * * * * * * * * * * * * * * * * * * * * * * * * * * * * * * * * * * //

dimensions      [0 1 -1 0 0 0 0];

internalField   nonuniform List<vector> 
4950
(
(3.51687 0.416329 -27.0289)
(2.82174 0.147492 -27.0659)
(2.08058 0.0434518 -27.0678)
(1.88189 -0.0235825 -27.0751)
(1.61 -0.0439328 -27.0733)
(1.59819 -0.0504203 -27.0775)
(1.44559 -0.0513298 -27.0754)
(1.47318 -0.0501477 -27.0785)
(1.3622 -0.0488168 -27.0767)
(1.39683 -0.0474884 -27.0792)
(1.30899 -0.0458225 -27.0777)
(1.34334 -0.0456584 -27.0796)
(1.27166 -0.042531 -27.0785)
(1.30382 -0.045238 -27.08)
(1.24361 -0.0364973 -27.0793)
(1.27334 -0.0466326 -27.0801)
(1.21931 -0.0156298 -27.0803)
(1.23664 -0.0450231 -27.0796)
(1.21127 0.0921997 -27.0827)
(0.992829 0.122823 -27.0714)
(4.59936 0.543838 -27.0539)
(4.79176 0.371973 -27.0828)
(4.5017 0.283258 -27.0828)
(4.45114 0.184617 -27.0898)
(4.16271 0.128889 -27.0898)
(4.13675 0.0978275 -27.0942)
(3.91593 0.078682 -27.0937)
(3.91991 0.0676456 -27.0966)
(3.74951 0.0593344 -27.0962)
(3.76922 0.0540999 -27.0982)
(3.63412 0.0490231 -27.0979)
(3.66125 0.046786 -27.0993)
(3.55087 0.0416504 -27.0992)
(3.58256 0.0433036 -27.0999)
(3.48726 0.032904 -27.1007)
(3.52905 0.0433112 -27.0999)
(3.43308 0.0145797 -27.103)
(3.51772 0.0357205 -27.0979)
(3.37728 -0.019419 -27.1085)
(3.72033 -0.0705467 -27.0775)
(4.71817 0.285762 -27.0556)
(5.1971 0.207291 -27.079)
(5.30463 0.185321 -27.0717)
(5.54503 0.125174 -27.0759)
(5.48903 0.0883943 -27.0719)
(5.61094 0.0630472 -27.0757)
(5.52215 0.0450281 -27.0727)
(5.60124 0.0326064 -27.0759)
(5.51346 0.0230721 -27.0738)
(5.57164 0.0154118 -27.0764)
(5.4926 0.0101037 -27.075)
(5.53716 0.00440352 -27.0771)
(5.46962 0.00228777 -27.0763)
(5.5016 -0.00325965 -27.0778)
(5.44988 -0.000994889 -27.0779)
(5.46111 -0.00836403 -27.0782)
(5.43782 0.00439538 -27.0799)
(5.39669 -0.00611211 -27.0781)
(5.41926 0.0363749 -27.0826)
(5.26412 0.0573296 -27.0612)
(4.69615 0.167676 -27.0644)
(5.11502 0.129091 -27.088)
(5.32062 0.121432 -27.0822)
(5.66002 0.0916765 -27.0843)
(5.72293 0.0731435 -27.0811)
(5.94364 0.0609525 -27.0828)
(5.955 0.0521477 -27.0808)
(6.11112 0.0462932 -27.0821)
(6.10303 0.0412541 -27.0809)
(6.2203 0.0374525 -27.0819)
(6.20301 0.0337884 -27.0811)
(6.29511 0.0312472 -27.082)
(6.27173 0.0278173 -27.0815)
(6.34914 0.0270038 -27.0821)
(6.31821 0.0218312 -27.0821)
(6.39439 0.0245627 -27.0824)
(6.34936 0.0130603 -27.0829)
(6.454 0.0196449 -27.0827)
(6.38496 0.002002 -27.0838)
(6.60959 -0.00990486 -27.063)
(4.69743 -1.7282e-08 -27.0595)
(5.11161 7.29761e-08 -27.0817)
(5.32691 -3.4539e-08 -27.073)
(5.68093 2.26031e-07 -27.0753)
(5.75812 -1.83129e-09 -27.0699)
(5.99439 6.20458e-07 -27.0723)
(6.02414 3.11829e-07 -27.0684)
(6.19816 1.58767e-06 -27.0705)
(6.21144 1.66818e-06 -27.0677)
(6.34627 4.31998e-06 -27.0696)
(6.35164 5.74038e-06 -27.0675)
(6.45697 1.41127e-05 -27.0692)
(6.45918 1.39704e-05 -27.0677)
(6.5382 5.21251e-05 -27.0692)
(6.54467 2.3501e-05 -27.0681)
(6.59 0.000181723 -27.0694)
(6.61744 4.50414e-05 -27.0688)
(6.59902 0.000520993 -27.07)
(6.66481 0.000180311 -27.0695)
(6.54011 0.000838802 -27.0509)
(4.69615 -0.167676 -27.0643)
(5.11502 -0.129091 -27.088)
(5.32062 -0.121432 -27.0822)
(5.66002 -0.0916762 -27.0843)
(5.72293 -0.0731433 -27.0811)
(5.94364 -0.0609516 -27.0828)
(5.955 -0.0521466 -27.0808)
(6.11112 -0.0462911 -27.0821)
(6.10303 -0.0412497 -27.0808)
(6.22031 -0.0374476 -27.0819)
(6.20301 -0.0337744 -27.0811)
(6.29514 -0.0312324 -27.082)
(6.27174 -0.0277804 -27.0814)
(6.3492 -0.0269493 -27.0823)
(6.31825 -0.0217495 -27.0819)
(6.39452 -0.0243714 -27.0826)
(6.34954 -0.012868 -27.0826)
(6.45428 -0.0191096 -27.0831)
(6.38548 -0.00130991 -27.0833)
(6.61035 0.0112512 -27.0634)
(4.71817 -0.285762 -27.0556)
(5.1971 -0.207291 -27.079)
(5.30463 -0.185321 -27.0717)
(5.54503 -0.125173 -27.0759)
(5.48903 -0.0883942 -27.0719)
(5.61094 -0.0630463 -27.0757)
(5.52215 -0.0450274 -27.0727)
(5.60124 -0.0326041 -27.0759)
(5.51346 -0.0230695 -27.0737)
(5.57166 -0.0154057 -27.0765)
(5.4926 -0.0100956 -27.0749)
(5.53722 -0.0043839 -27.0773)
(5.46962 -0.00227056 -27.0761)
(5.50174 0.00333162 -27.0781)
(5.44992 0.00101226 -27.0773)
(5.46146 0.00861224 -27.0791)
(5.43806 -0.00439695 -27.0786)
(5.39751 0.00680525 -27.0801)
(5.42025 -0.036194 -27.0798)
(5.26643 -0.0558555 -27.0651)
(4.59936 -0.543838 -27.0539)
(4.79176 -0.371973 -27.0828)
(4.5017 -0.283258 -27.0828)
(4.45114 -0.184617 -27.0898)
(4.16271 -0.128888 -27.0898)
(4.13675 -0.0978274 -27.0942)
(3.91593 -0.0786812 -27.0937)
(3.91991 -0.0676452 -27.0966)
(3.74951 -0.0593315 -27.0961)
(3.76924 -0.0540989 -27.0982)
(3.63413 -0.0490145 -27.0978)
(3.66131 -0.0467822 -27.0994)
(3.5509 -0.0416284 -27.099)
(3.5827 -0.0432836 -27.1003)
(3.48741 -0.0328543 -27.1)
(3.52937 -0.043224 -27.1011)
(3.43364 -0.014466 -27.1009)
(3.51842 -0.0354658 -27.1017)
(3.37881 0.0197832 -27.1014)
(3.7224 0.0707791 -27.0905)
(3.51687 -0.416329 -27.0289)
(2.82174 -0.147492 -27.0659)
(2.08058 -0.0434519 -27.0678)
(1.88189 0.0235825 -27.0751)
(1.61 0.0439327 -27.0733)
(1.59819 0.0504205 -27.0775)
(1.44559 0.0513296 -27.0754)
(1.47318 0.0501482 -27.0785)
(1.3622 0.0488163 -27.0767)
(1.39684 0.0474894 -27.0792)
(1.309 0.0458205 -27.0777)
(1.34337 0.0456607 -27.0797)
(1.27169 0.0425245 -27.0784)
(1.3039 0.0452448 -27.0801)
(1.2437 0.0364825 -27.0791)
(1.27353 0.0466489 -27.0805)
(1.21966 0.0155863 -27.0797)
(1.23709 0.0450769 -27.0808)
(1.21235 -0.0921588 -27.08)
(0.994646 -0.12222 -27.0793)
(4.49803 0.189613 0.00522875)
(3.74565 0.276986 0.00361182)
(3.15492 0.238282 0.00439972)
(2.58912 0.162525 0.00335796)
(2.32716 0.113274 0.00411141)
(2.06009 0.080663 0.00328365)
(1.98542 0.0653097 0.00395078)
(1.84839 0.0567858 0.00324368)
(1.83143 0.0530654 0.00381122)
(1.74488 0.0511175 0.00319698)
(1.7427 0.0495934 0.0036757)
(1.68106 0.0498177 0.00314267)
(1.68252 0.0470986 0.00354707)
(1.63635 0.0504218 0.00308617)
(1.63852 0.040946 0.00342899)
(1.60534 0.0543159 0.00303064)
(1.60185 0.0142215 0.00332531)
(1.61613 0.0606022 0.00297541)
(1.5416 -0.125274 0.00326603)
(1.97379 -0.167837 0.00286347)
(4.63032 0.107444 0.0033518)
(4.66478 0.229332 0.00204589)
(4.80145 0.207375 0.00279215)
(4.67334 0.154146 0.00176332)
(4.64912 0.0992807 0.0025105)
(4.48732 0.0567552 0.00168012)
(4.44453 0.0287972 0.00234348)
(4.312 0.0113059 0.00163452)
(4.27916 4.00978e-05 0.00219985)
(4.17734 -0.00712235 0.0015849)
(4.1538 -0.0119754 0.00206194)
(4.07502 -0.0163808 0.0015293)
(4.05874 -0.0172329 0.00193116)
(3.99472 -0.0230163 0.00147278)
(3.98762 -0.0168004 0.00180883)
(3.92455 -0.0296402 0.00141836)
(3.94099 -0.00697997 0.00168934)
(3.8348 -0.0267772 0.00135939)
(3.92974 0.00655697 0.0015449)
(3.529 0.0691535 0.00117598)
(4.56263 0.0606271 0.00465159)
(4.72119 0.183839 0.00343607)
(5.04648 0.213212 0.00414995)
(5.15798 0.190083 0.00310979)
(5.34275 0.159578 0.00384565)
(5.35909 0.128565 0.00300984)
(5.44689 0.107195 0.00367403)
(5.42578 0.0909503 0.00296588)
(5.47159 0.07959 0.00353464)
(5.44305 0.0711329 0.00292125)
(5.46918 0.0639681 0.00340174)
(5.44285 0.0592081 0.00286923)
(5.45638 0.0532067 0.0032756)
(5.43752 0.0515106 0.00281398)
(5.43711 0.0431991 0.00316088)
(5.43736 0.0468736 0.00275908)
(5.40939 0.0242364 0.00306772)
(5.46208 0.0398911 0.0027083)
(5.38676 -0.0394019 0.00304936)
(5.53683 -0.0450973 0.00267012)
(4.52064 0.0285058 0.00318544)
(4.58581 0.0708462 0.00208648)
(4.93319 0.0742728 0.00278965)
(5.09786 0.0661259 0.0017704)
(5.36356 0.053061 0.00250164)
(5.46284 0.0406172 0.00166534)
(5.63056 0.0314178 0.00232487)
(5.68531 0.024728 0.00161482)
(5.7983 0.0198963 0.00218009)
(5.83251 0.0162647 0.00156609)
(5.91438 0.0133742 0.00204356)
(5.93707 0.0106827 0.00151216)
(5.9999 0.00913215 0.00191383)
(6.01229 0.00617463 0.0014567)
(6.06617 0.00686949 0.00179092)
(6.05996 0.00231605 0.00140157)
(6.12132 0.00690741 0.00166494)
(6.05475 0.00318502 0.00133463)
(6.15674 0.00459064 0.00148292)
(5.86738 0.031002 0.00116861)
(4.55249 -1.81219e-08 0.00456283)
(4.6685 6.38168e-08 0.00346536)
(4.98858 -1.85303e-09 0.00415723)
(5.14413 1.78602e-07 0.0031226)
(5.40147 8.57171e-08 0.00384986)
(5.5038 4.49277e-07 0.0030098)
(5.67789 5.11934e-07 0.00367157)
(5.74347 1.08345e-06 0.00296212)
(5.86835 1.98372e-06 0.00353083)
(5.91757 2.74035e-06 0.00291755)
(6.01243 6.22293e-06 0.00339852)
(6.05343 7.65509e-06 0.00286638)
(6.1254 1.70787e-05 0.00327328)
(6.16376 2.22535e-05 0.0028119)
(6.21251 4.57938e-05 0.00315993)
(6.25999 5.90292e-05 0.00275784)
(6.27623 0.00013546 0.00307136)
(6.35653 0.000160363 0.00270882)
(6.34337 0.000453138 0.00306722)
(6.44582 0.000650375 0.00269333)
(4.52064 -0.0285059 0.00318544)
(4.58581 -0.070846 0.00208648)
(4.93319 -0.0742729 0.00278965)
(5.09786 -0.0661254 0.0017704)
(5.36356 -0.0530611 0.00250164)
(5.46284 -0.0406158 0.00166534)
(5.63056 -0.0314175 0.00232487)
(5.68532 -0.0247244 0.00161482)
(5.79829 -0.0198944 0.00218009)
(5.83252 -0.0162548 0.00156609)
(5.91438 -0.0133677 0.00204356)
(5.93709 -0.010653 0.00151216)
(5.9999 -0.0091162 0.00191383)
(6.01233 -0.0060797 0.0014567)
(6.06618 -0.00683643 0.0017909)
(6.06008 -0.00202535 0.00140157)
(6.12142 -0.00681898 0.00166489)
(6.05506 -0.00239717 0.00133457)
(6.15719 -0.00424672 0.00148301)
(5.86825 -0.0292845 0.00116845)
(4.56263 -0.0606271 0.00465159)
(4.72119 -0.183839 0.00343607)
(5.04648 -0.213212 0.00414995)
(5.15798 -0.190083 0.0031098)
(5.34275 -0.159578 0.00384565)
(5.3591 -0.128564 0.00300984)
(5.44689 -0.107194 0.00367403)
(5.42578 -0.0909486 0.00296588)
(5.47159 -0.0795861 0.00353463)
(5.44307 -0.0711283 0.00292126)
(5.46918 -0.0639562 0.00340173)
(5.44289 -0.0591941 0.00286925)
(5.45639 -0.0531746 0.00327556)
(5.43762 -0.051465 0.00281403)
(5.43718 -0.0431148 0.0031608)
(5.43762 -0.046735 0.00275919)
(5.40966 -0.02399 0.00306754)
(5.46271 -0.0395389 0.0027085)
(5.38763 0.0402067 0.00304894)
(5.5385 0.0459818 0.00267018)
(4.63032 -0.107444 0.0033518)
(4.66478 -0.229332 0.00204589)
(4.80145 -0.207375 0.00279215)
(4.67334 -0.154146 0.00176332)
(4.64912 -0.0992807 0.0025105)
(4.48732 -0.0567546 0.00168012)
(4.44453 -0.0287968 0.00234348)
(4.312 -0.0113042 0.00163452)
(4.27916 -3.86691e-05 0.00219985)
(4.17736 0.00712698 0.00158491)
(4.15381 0.0119793 0.00206193)
(4.07508 0.016395 0.00152931)
(4.05875 0.0172403 0.00193114)
(3.9949 0.0230625 0.0014728)
(3.98767 0.0168073 0.00180876)
(3.92503 0.0297848 0.00141842)
(3.94117 0.00697992 0.00168917)
(3.8362 0.0271855 0.00135951)
(3.93027 -0.00641662 0.00154466)
(3.53342 -0.0679858 0.00117609)
(4.49803 -0.189613 0.00522875)
(3.74566 -0.276986 0.00361182)
(3.15492 -0.238282 0.00439972)
(2.58912 -0.162525 0.00335796)
(2.32716 -0.113274 0.00411141)
(2.06009 -0.0806631 0.00328365)
(1.98543 -0.0653092 0.00395078)
(1.84839 -0.056786 0.00324368)
(1.83144 -0.0530639 0.00381122)
(1.7449 -0.0511181 0.00319698)
(1.74271 -0.0495889 0.00367569)
(1.6811 -0.0498188 0.00314268)
(1.68256 -0.0470862 0.00354705)
(1.63644 -0.0504214 0.00308621)
(1.63867 -0.0409137 0.00342891)
(1.60556 -0.0543047 0.00303078)
(1.60235 -0.0141489 0.00332505)
(1.6167 -0.0605944 0.00297588)
(1.5428 0.125325 0.00326479)
(1.97607 0.167176 0.0028659)
(4.45398 0.0650319 -8.27483e-09)
(4.23094 0.118218 -8.31177e-09)
(3.86421 0.128327 -8.33097e-09)
(3.51754 0.113247 -8.32585e-09)
(3.17341 0.0886489 -8.35681e-09)
(2.89784 0.0648814 -8.33942e-09)
(2.66475 0.0426992 -8.37452e-09)
(2.49281 0.0263339 -8.33021e-09)
(2.36068 0.0129807 -8.35339e-09)
(2.26453 0.004775 -8.30529e-09)
(2.19633 -0.00196734 -8.35916e-09)
(2.14302 -0.00475563 -8.33718e-09)
(2.10852 -0.0083819 -8.4055e-09)
(2.07786 -0.00767296 -8.38325e-09)
(2.05767 -0.0115102 -8.45511e-09)
(2.04448 -0.00693212 -8.44545e-09)
(2.01917 -0.0156296 -8.52609e-09)
(2.04136 -0.0061701 -8.52032e-09)
(1.97482 -0.0275327 -8.60242e-09)
(2.09296 -0.0490853 -8.56254e-09)
(4.51281 0.0575328 -8.26032e-09)
(4.64429 0.109631 -8.26852e-09)
(4.73045 0.140346 -8.27291e-09)
(4.80986 0.149742 -8.2655e-09)
(4.82528 0.144873 -8.30138e-09)
(4.82699 0.129552 -8.31392e-09)
(4.79553 0.111363 -8.38453e-09)
(4.76037 0.0918207 -8.35979e-09)
(4.71507 0.0757661 -8.3867e-09)
(4.67021 0.0612657 -8.3408e-09)
(4.62692 0.0512546 -8.40186e-09)
(4.58356 0.0421356 -8.3919e-09)
(4.54765 0.0368354 -8.46604e-09)
(4.50901 0.0311176 -8.43761e-09)
(4.48199 0.0281948 -8.49086e-09)
(4.44792 0.0256716 -8.45769e-09)
(4.42991 0.0210213 -8.53235e-09)
(4.39991 0.027221 -8.52219e-09)
(4.38491 0.0119826 -8.63147e-09)
(4.35919 0.0395346 -8.58594e-09)
(4.50258 0.0216789 -8.27247e-09)
(4.62203 0.0550368 -8.29062e-09)
(4.73353 0.0807128 -8.29555e-09)
(4.89349 0.0936367 -8.28492e-09)
(5.02373 0.0955627 -8.32312e-09)
(5.15818 0.0905151 -8.32209e-09)
(5.25865 0.0806951 -8.37362e-09)
(5.34835 0.0703128 -8.34402e-09)
(5.41332 0.0597926 -8.38975e-09)
(5.46758 0.051261 -8.37341e-09)
(5.50758 0.0435488 -8.46409e-09)
(5.54077 0.038154 -8.48094e-09)
(5.56558 0.0326049 -8.57263e-09)
(5.5885 0.0299814 -8.5447e-09)
(5.6034 0.024425 -8.58101e-09)
(5.62276 0.025558 -8.51644e-09)
(5.63105 0.0154248 -8.56802e-09)
(5.64818 0.0236624 -8.53866e-09)
(5.65935 0.000990805 -8.63516e-09)
(5.66163 0.00974732 -8.61471e-09)
(4.50091 0.0173904 -8.26701e-09)
(4.59657 0.033636 -8.29095e-09)
(4.69588 0.0446869 -8.29984e-09)
(4.85132 0.0498495 -8.29902e-09)
(4.99053 0.0511811 -8.33788e-09)
(5.14501 0.048991 -8.33374e-09)
(5.27419 0.0452884 -8.37472e-09)
(5.39856 0.0404674 -8.33986e-09)
(5.50198 0.0361536 -8.37966e-09)
(5.59589 0.0319562 -8.35922e-09)
(5.67739 0.0288355 -8.44106e-09)
(5.74942 0.025969 -8.45241e-09)
(5.81659 0.0239224 -8.53938e-09)
(5.87334 0.0221922 -8.53651e-09)
(5.933 0.0203074 -8.6006e-09)
(5.97513 0.0203305 -8.52437e-09)
(6.03673 0.0163966 -8.57082e-09)
(6.05275 0.0215225 -8.56507e-09)
(6.13461 0.0113835 -8.63322e-09)
(6.09204 0.0280151 -8.59682e-09)
(4.50159 -3.75761e-08 -8.27318e-09)
(4.60866 1.07453e-07 -8.29569e-09)
(4.70896 -7.49734e-08 -8.3103e-09)
(4.86346 2.73691e-07 -8.3128e-09)
(4.99896 -3.28384e-08 -8.35253e-09)
(5.15188 6.83678e-07 -8.34025e-09)
(5.28119 3.73651e-07 -8.38026e-09)
(5.40842 1.6836e-06 -8.35342e-09)
(5.51588 1.79786e-06 -8.40955e-09)
(5.61609 4.57084e-06 -8.39609e-09)
(5.70366 5.34857e-06 -8.4667e-09)
(5.78461 1.41033e-05 -8.44454e-09)
(5.85827 1.23135e-05 -8.49896e-09)
(5.92678 4.44825e-05 -8.46605e-09)
(5.99166 2.72415e-05 -8.5259e-09)
(6.04951 0.000126104 -8.49529e-09)
(6.11402 8.19464e-05 -8.55215e-09)
(6.15082 0.000301589 -8.54164e-09)
(6.24154 0.000320389 -8.61324e-09)
(6.22269 0.00062261 -8.56923e-09)
(4.50091 -0.0173905 -8.26791e-09)
(4.59657 -0.0336358 -8.29359e-09)
(4.69588 -0.044687 -8.31044e-09)
(4.85132 -0.0498489 -8.31988e-09)
(4.99053 -0.0511813 -8.35666e-09)
(5.14501 -0.0489895 -8.3402e-09)
(5.27419 -0.045288 -8.37682e-09)
(5.39856 -0.0404636 -8.36209e-09)
(5.50198 -0.0361511 -8.4324e-09)
(5.5959 -0.0319459 -8.42521e-09)
(5.67739 -0.0288278 -8.48034e-09)
(5.74943 -0.0259375 -8.42848e-09)
(5.8166 -0.0239059 -8.45502e-09)
(5.87336 -0.0220947 -8.40677e-09)
(5.93303 -0.0202737 -8.47331e-09)
(5.97518 -0.0200582 -8.46725e-09)
(6.03686 -0.0162832 -8.54698e-09)
(6.05287 -0.0208785 -8.53344e-09)
(6.13498 -0.0108601 -8.58855e-09)
(6.09246 -0.0267182 -8.53316e-09)
(4.50258 -0.021679 -8.27368e-09)
(4.62203 -0.0550367 -8.30099e-09)
(4.73353 -0.0807129 -8.32652e-09)
(4.89349 -0.0936363 -8.3405e-09)
(5.02372 -0.0955627 -8.37851e-09)
(5.15818 -0.0905139 -8.35517e-09)
(5.25865 -0.0806944 -8.38904e-09)
(5.34835 -0.0703098 -8.37116e-09)
(5.41331 -0.0597893 -8.43696e-09)
(5.4676 -0.0512529 -8.41736e-09)
(5.50757 -0.0435393 -8.45561e-09)
(5.54081 -0.0381293 -8.38825e-09)
(5.56558 -0.0325838 -8.41007e-09)
(5.58859 -0.0299031 -8.38843e-09)
(5.60345 -0.0243815 -8.48714e-09)
(5.62296 -0.0253357 -8.47193e-09)
(5.6313 -0.0152985 -8.52483e-09)
(5.64864 -0.0231366 -8.52508e-09)
(5.66016 -0.000478851 -8.58223e-09)
(5.66285 -0.0087104 -8.51503e-09)
(4.51281 -0.0575328 -8.27754e-09)
(4.64429 -0.10963 -8.31985e-09)
(4.73045 -0.140346 -8.34398e-09)
(4.80986 -0.149742 -8.3558e-09)
(4.82528 -0.144873 -8.39039e-09)
(4.82699 -0.129551 -8.35532e-09)
(4.79553 -0.111362 -8.3702e-09)
(4.76038 -0.0918187 -8.35072e-09)
(4.71507 -0.0757637 -8.4314e-09)
(4.67024 -0.0612597 -8.43607e-09)
(4.62691 -0.0512487 -8.49745e-09)
(4.58365 -0.0421162 -8.45586e-09)
(4.54764 -0.0368256 -8.50107e-09)
(4.50922 -0.0310546 -8.47598e-09)
(4.48202 -0.028183 -8.55066e-09)
(4.44842 -0.0254924 -8.53102e-09)
(4.43012 -0.0209833 -8.58946e-09)
(4.40111 -0.0268051 -8.53734e-09)
(4.38569 -0.0117248 -8.58851e-09)
(4.3622 -0.0387496 -8.51236e-09)
(4.45398 -0.0650318 -8.27545e-09)
(4.23094 -0.118218 -8.28449e-09)
(3.86421 -0.128327 -8.29608e-09)
(3.51754 -0.113247 -8.30143e-09)
(3.17341 -0.0886487 -8.33632e-09)
(2.89784 -0.0648814 -8.3204e-09)
(2.66475 -0.0426985 -8.37559e-09)
(2.49282 -0.0263339 -8.38669e-09)
(2.36068 -0.0129786 -8.47997e-09)
(2.26455 -0.00477517 -8.48385e-09)
(2.19635 0.00197258 -8.54801e-09)
(2.14308 0.00475666 -8.51613e-09)
(2.10857 0.0083926 -8.56893e-09)
(2.07801 0.00768157 -8.53746e-09)
(2.05785 0.011529 -8.58893e-09)
(2.04483 0.00696604 -8.54791e-09)
(2.01969 0.0156705 -8.59003e-09)
(2.04242 0.00624756 -8.54798e-09)
(1.97566 0.0276782 -8.60291e-09)
(2.09706 0.0490538 -8.56929e-09)
(4.49803 0.189613 -0.00522877)
(3.74565 0.276986 -0.00361183)
(3.15492 0.238282 -0.00439973)
(2.58912 0.162525 -0.00335798)
(2.32716 0.113274 -0.00411142)
(2.06009 0.080663 -0.00328366)
(1.98542 0.0653097 -0.00395079)
(1.84839 0.0567858 -0.00324369)
(1.83143 0.0530654 -0.00381123)
(1.74488 0.0511175 -0.00319699)
(1.7427 0.0495934 -0.00367571)
(1.68106 0.0498177 -0.00314268)
(1.68252 0.0470986 -0.00354708)
(1.63635 0.0504218 -0.00308619)
(1.63852 0.040946 -0.003429)
(1.60534 0.0543159 -0.00303066)
(1.60185 0.0142215 -0.00332533)
(1.61613 0.0606023 -0.00297543)
(1.5416 -0.125274 -0.00326604)
(1.97379 -0.167837 -0.00286348)
(4.63032 0.107444 -0.00335182)
(4.66478 0.229332 -0.0020459)
(4.80145 0.207375 -0.00279217)
(4.67334 0.154146 -0.00176333)
(4.64912 0.0992807 -0.00251051)
(4.48732 0.0567552 -0.00168013)
(4.44453 0.0287972 -0.0023435)
(4.312 0.0113059 -0.00163454)
(4.27916 4.0093e-05 -0.00219986)
(4.17734 -0.00712235 -0.00158492)
(4.1538 -0.0119754 -0.00206195)
(4.07502 -0.0163808 -0.00152931)
(4.05874 -0.0172329 -0.00193117)
(3.99472 -0.0230163 -0.00147279)
(3.98762 -0.0168004 -0.00180885)
(3.92455 -0.0296402 -0.00141837)
(3.94099 -0.00697998 -0.00168936)
(3.8348 -0.0267772 -0.00135941)
(3.92974 0.00655697 -0.00154491)
(3.529 0.0691535 -0.001176)
(4.56263 0.0606271 -0.0046516)
(4.72119 0.183839 -0.00343608)
(5.04648 0.213212 -0.00414996)
(5.15798 0.190083 -0.00310981)
(5.34275 0.159578 -0.00384567)
(5.35909 0.128565 -0.00300986)
(5.44689 0.107195 -0.00367405)
(5.42578 0.0909503 -0.0029659)
(5.47159 0.07959 -0.00353465)
(5.44305 0.0711329 -0.00292127)
(5.46918 0.0639681 -0.00340175)
(5.44285 0.0592081 -0.00286924)
(5.45638 0.0532067 -0.00327561)
(5.43752 0.0515106 -0.002814)
(5.43711 0.0431991 -0.0031609)
(5.43736 0.0468736 -0.0027591)
(5.40939 0.0242364 -0.00306774)
(5.46208 0.0398911 -0.00270832)
(5.38676 -0.0394019 -0.00304937)
(5.53683 -0.0450973 -0.00267013)
(4.52064 0.0285058 -0.00318545)
(4.58581 0.0708462 -0.00208649)
(4.93319 0.0742728 -0.00278967)
(5.09786 0.0661259 -0.00177041)
(5.36356 0.053061 -0.00250166)
(5.46284 0.0406172 -0.00166536)
(5.63056 0.0314178 -0.00232488)
(5.68531 0.024728 -0.00161483)
(5.7983 0.0198963 -0.0021801)
(5.83251 0.0162647 -0.0015661)
(5.91438 0.0133742 -0.00204357)
(5.93707 0.0106827 -0.00151218)
(5.9999 0.00913215 -0.00191385)
(6.01229 0.00617463 -0.00145672)
(6.06617 0.00686949 -0.00179094)
(6.05996 0.00231604 -0.00140159)
(6.12132 0.00690741 -0.00166495)
(6.05475 0.00318501 -0.00133464)
(6.15674 0.00459063 -0.00148293)
(5.86738 0.031002 -0.00116863)
(4.55249 -1.86741e-08 -0.00456284)
(4.6685 6.09652e-08 -0.00346537)
(4.98858 -4.60853e-09 -0.00415724)
(5.14413 1.75922e-07 -0.00312261)
(5.40147 8.48063e-08 -0.00384988)
(5.5038 4.48705e-07 -0.00300981)
(5.67789 5.12651e-07 -0.00367159)
(5.74347 1.08342e-06 -0.00296213)
(5.86835 1.98344e-06 -0.00353085)
(5.91757 2.74017e-06 -0.00291757)
(6.01243 6.22217e-06 -0.00339854)
(6.05343 7.6538e-06 -0.00286639)
(6.1254 1.70726e-05 -0.0032733)
(6.16376 2.225e-05 -0.00281192)
(6.21251 4.57853e-05 -0.00315994)
(6.25999 5.9026e-05 -0.00275786)
(6.27623 0.000135454 -0.00307137)
(6.35653 0.000160358 -0.00270883)
(6.34337 0.000453133 -0.00306724)
(6.44582 0.000650364 -0.00269334)
(4.52064 -0.0285059 -0.00318545)
(4.58581 -0.070846 -0.00208649)
(4.93319 -0.0742729 -0.00278967)
(5.09786 -0.0661254 -0.00177041)
(5.36356 -0.0530611 -0.00250166)
(5.46284 -0.0406158 -0.00166536)
(5.63056 -0.0314175 -0.00232488)
(5.68532 -0.0247244 -0.00161483)
(5.79829 -0.0198944 -0.0021801)
(5.83252 -0.0162548 -0.0015661)
(5.91438 -0.0133677 -0.00204357)
(5.93709 -0.010653 -0.00151218)
(5.9999 -0.0091162 -0.00191384)
(6.01233 -0.0060797 -0.00145672)
(6.06618 -0.00683643 -0.00179091)
(6.06008 -0.00202535 -0.00140158)
(6.12142 -0.00681898 -0.0016649)
(6.05506 -0.00239718 -0.00133459)
(6.15719 -0.00424672 -0.00148302)
(5.86825 -0.0292845 -0.00116846)
(4.56263 -0.0606271 -0.0046516)
(4.72119 -0.183839 -0.00343608)
(5.04648 -0.213212 -0.00414996)
(5.15798 -0.190083 -0.00310981)
(5.34275 -0.159578 -0.00384567)
(5.3591 -0.128564 -0.00300986)
(5.44689 -0.107194 -0.00367404)
(5.42578 -0.0909486 -0.0029659)
(5.47159 -0.0795861 -0.00353465)
(5.44307 -0.0711283 -0.00292127)
(5.46918 -0.0639562 -0.00340174)
(5.44289 -0.0591941 -0.00286926)
(5.45639 -0.0531746 -0.00327558)
(5.43762 -0.051465 -0.00281404)
(5.43717 -0.0431148 -0.00316082)
(5.43762 -0.046735 -0.00275921)
(5.40966 -0.02399 -0.00306756)
(5.46271 -0.0395389 -0.00270852)
(5.38763 0.0402067 -0.00304895)
(5.5385 0.0459818 -0.0026702)
(4.63032 -0.107444 -0.00335182)
(4.66478 -0.229332 -0.0020459)
(4.80145 -0.207375 -0.00279217)
(4.67334 -0.154146 -0.00176333)
(4.64912 -0.0992806 -0.00251051)
(4.48732 -0.0567546 -0.00168013)
(4.44453 -0.0287968 -0.0023435)
(4.312 -0.0113042 -0.00163454)
(4.27916 -3.86623e-05 -0.00219986)
(4.17736 0.00712699 -0.00158492)
(4.15381 0.0119793 -0.00206194)
(4.07508 0.016395 -0.00152932)
(4.05875 0.0172403 -0.00193115)
(3.9949 0.0230625 -0.00147282)
(3.98767 0.0168073 -0.00180878)
(3.92503 0.0297848 -0.00141844)
(3.94117 0.00697992 -0.00168918)
(3.8362 0.0271855 -0.00135953)
(3.93027 -0.00641662 -0.00154468)
(3.53342 -0.0679858 -0.00117611)
(4.49803 -0.189613 -0.00522877)
(3.74565 -0.276986 -0.00361183)
(3.15492 -0.238282 -0.00439973)
(2.58912 -0.162525 -0.00335798)
(2.32716 -0.113274 -0.00411142)
(2.06009 -0.0806631 -0.00328366)
(1.98543 -0.0653092 -0.00395079)
(1.84839 -0.056786 -0.00324369)
(1.83144 -0.0530639 -0.00381123)
(1.7449 -0.0511181 -0.003197)
(1.74271 -0.0495889 -0.0036757)
(1.6811 -0.0498188 -0.0031427)
(1.68256 -0.0470862 -0.00354706)
(1.63644 -0.0504214 -0.00308623)
(1.63867 -0.0409137 -0.00342893)
(1.60556 -0.0543047 -0.00303079)
(1.60235 -0.0141489 -0.00332506)
(1.6167 -0.0605944 -0.00297589)
(1.54279 0.125325 -0.0032648)
(1.97607 0.167176 -0.00286592)
(3.51687 0.416329 27.0289)
(2.82174 0.147492 27.0659)
(2.08058 0.0434519 27.0678)
(1.88189 -0.0235825 27.0751)
(1.61 -0.0439328 27.0733)
(1.59819 -0.0504203 27.0775)
(1.44559 -0.0513298 27.0754)
(1.47318 -0.0501477 27.0785)
(1.3622 -0.0488168 27.0767)
(1.39683 -0.0474884 27.0792)
(1.30899 -0.0458225 27.0777)
(1.34334 -0.0456584 27.0796)
(1.27166 -0.042531 27.0785)
(1.30382 -0.045238 27.08)
(1.24361 -0.0364973 27.0793)
(1.27334 -0.0466326 27.0801)
(1.21931 -0.0156298 27.0803)
(1.23664 -0.0450231 27.0796)
(1.21127 0.0921997 27.0827)
(0.992828 0.122823 27.0714)
(4.59936 0.543838 27.0539)
(4.79176 0.371973 27.0828)
(4.5017 0.283258 27.0828)
(4.45114 0.184617 27.0898)
(4.16271 0.128889 27.0898)
(4.13675 0.0978275 27.0942)
(3.91593 0.078682 27.0937)
(3.91991 0.0676456 27.0966)
(3.74951 0.0593344 27.0962)
(3.76922 0.0540999 27.0982)
(3.63412 0.0490231 27.0979)
(3.66125 0.046786 27.0993)
(3.55087 0.0416504 27.0992)
(3.58256 0.0433036 27.0999)
(3.48726 0.032904 27.1007)
(3.52905 0.0433112 27.0999)
(3.43308 0.0145797 27.103)
(3.51772 0.0357205 27.0979)
(3.37728 -0.019419 27.1085)
(3.72033 -0.0705468 27.0775)
(4.71817 0.285762 27.0556)
(5.1971 0.207291 27.079)
(5.30463 0.185321 27.0717)
(5.54503 0.125174 27.0759)
(5.48903 0.0883943 27.0719)
(5.61094 0.0630472 27.0757)
(5.52215 0.0450281 27.0727)
(5.60124 0.0326064 27.0759)
(5.51346 0.0230721 27.0738)
(5.57164 0.0154118 27.0764)
(5.4926 0.0101037 27.075)
(5.53716 0.00440352 27.0771)
(5.46962 0.00228776 27.0763)
(5.5016 -0.00325965 27.0778)
(5.44988 -0.00099489 27.0779)
(5.46111 -0.00836403 27.0782)
(5.43782 0.00439538 27.0799)
(5.39669 -0.00611212 27.0781)
(5.41926 0.0363749 27.0826)
(5.26412 0.0573296 27.0612)
(4.69615 0.167676 27.0644)
(5.11502 0.129091 27.088)
(5.32062 0.121432 27.0822)
(5.66002 0.0916765 27.0843)
(5.72293 0.0731435 27.0811)
(5.94364 0.0609525 27.0828)
(5.955 0.0521477 27.0808)
(6.11112 0.0462932 27.0821)
(6.10303 0.0412541 27.0809)
(6.2203 0.0374525 27.0819)
(6.20301 0.0337884 27.0811)
(6.29511 0.0312472 27.082)
(6.27173 0.0278173 27.0815)
(6.34914 0.0270038 27.0821)
(6.31821 0.0218312 27.0821)
(6.39439 0.0245627 27.0824)
(6.34936 0.0130603 27.0829)
(6.454 0.0196449 27.0827)
(6.38496 0.00200199 27.0838)
(6.60959 -0.00990487 27.063)
(4.69743 -8.108e-09 27.0595)
(5.11161 8.20819e-08 27.0817)
(5.32691 -1.51658e-08 27.073)
(5.68093 2.41332e-07 27.0753)
(5.75812 1.81929e-08 27.0699)
(5.99439 6.37402e-07 27.0723)
(6.02414 3.32498e-07 27.0684)
(6.19816 1.6058e-06 27.0705)
(6.21144 1.68513e-06 27.0677)
(6.34627 4.33314e-06 27.0696)
(6.35164 5.75081e-06 27.0675)
(6.45697 1.4121e-05 27.0692)
(6.45918 1.39744e-05 27.0677)
(6.5382 5.21284e-05 27.0692)
(6.54467 2.35028e-05 27.0681)
(6.59 0.000181727 27.0694)
(6.61744 4.50501e-05 27.0688)
(6.59902 0.000520998 27.07)
(6.66481 0.000180314 27.0695)
(6.54011 0.000838793 27.0509)
(4.69615 -0.167676 27.0643)
(5.11502 -0.129091 27.088)
(5.32062 -0.121432 27.0822)
(5.66002 -0.0916762 27.0843)
(5.72293 -0.0731433 27.0811)
(5.94364 -0.0609516 27.0828)
(5.955 -0.0521466 27.0808)
(6.11112 -0.0462911 27.0821)
(6.10303 -0.0412497 27.0808)
(6.22031 -0.0374476 27.0819)
(6.20301 -0.0337744 27.0811)
(6.29514 -0.0312324 27.082)
(6.27174 -0.0277804 27.0814)
(6.3492 -0.0269493 27.0823)
(6.31825 -0.0217495 27.0819)
(6.39452 -0.0243714 27.0826)
(6.34954 -0.012868 27.0826)
(6.45428 -0.0191096 27.0831)
(6.38548 -0.00130991 27.0833)
(6.61035 0.0112512 27.0634)
(4.71817 -0.285762 27.0556)
(5.1971 -0.207291 27.079)
(5.30463 -0.185321 27.0717)
(5.54503 -0.125173 27.0759)
(5.48903 -0.0883942 27.0719)
(5.61094 -0.0630463 27.0757)
(5.52215 -0.0450274 27.0727)
(5.60124 -0.0326041 27.0759)
(5.51346 -0.0230694 27.0737)
(5.57166 -0.0154057 27.0765)
(5.4926 -0.0100956 27.0749)
(5.53721 -0.00438389 27.0773)
(5.46962 -0.00227055 27.0761)
(5.50174 0.00333163 27.0781)
(5.44992 0.00101227 27.0773)
(5.46146 0.00861225 27.0791)
(5.43806 -0.00439695 27.0786)
(5.39751 0.00680526 27.0801)
(5.42025 -0.036194 27.0798)
(5.26643 -0.0558555 27.0651)
(4.59936 -0.543838 27.0539)
(4.79176 -0.371973 27.0828)
(4.5017 -0.283258 27.0828)
(4.45114 -0.184617 27.0898)
(4.16271 -0.128888 27.0898)
(4.13675 -0.0978273 27.0942)
(3.91593 -0.0786812 27.0937)
(3.91991 -0.0676452 27.0966)
(3.74951 -0.0593315 27.0961)
(3.76924 -0.0540989 27.0982)
(3.63413 -0.0490145 27.0978)
(3.66131 -0.0467822 27.0994)
(3.5509 -0.0416284 27.099)
(3.5827 -0.0432836 27.1003)
(3.48741 -0.0328543 27.1)
(3.52937 -0.0432239 27.1011)
(3.43364 -0.014466 27.1009)
(3.51842 -0.0354658 27.1017)
(3.37881 0.0197832 27.1014)
(3.7224 0.0707792 27.0905)
(3.51687 -0.416329 27.0289)
(2.82174 -0.147492 27.0659)
(2.08058 -0.0434519 27.0678)
(1.88189 0.0235826 27.0751)
(1.61 0.0439327 27.0733)
(1.59819 0.0504205 27.0775)
(1.44559 0.0513296 27.0754)
(1.47318 0.0501482 27.0785)
(1.3622 0.0488163 27.0767)
(1.39684 0.0474894 27.0792)
(1.309 0.0458205 27.0777)
(1.34337 0.0456607 27.0797)
(1.27169 0.0425245 27.0784)
(1.3039 0.0452448 27.0801)
(1.2437 0.0364825 27.0791)
(1.27353 0.0466489 27.0805)
(1.21966 0.0155863 27.0797)
(1.23709 0.0450769 27.0808)
(1.21235 -0.0921588 27.08)
(0.994646 -0.12222 27.0793)
(1.08481 -0.156209 -27.1282)
(1.18096 -0.145022 -27.2472)
(1.13833 -0.114149 -27.3219)
(1.15791 -0.110685 -27.3811)
(1.12797 -0.110432 -27.4267)
(1.14444 -0.110551 -27.4672)
(1.12147 -0.111137 -27.5008)
(1.13537 -0.111368 -27.5317)
(1.11696 -0.11185 -27.5583)
(1.12883 -0.112051 -27.5832)
(1.11369 -0.112438 -27.605)
(1.12403 -0.112612 -27.6255)
(1.11132 -0.112929 -27.6438)
(1.1205 -0.11308 -27.6608)
(1.10966 -0.113344 -27.6762)
(1.11794 -0.113474 -27.6904)
(1.10857 -0.113694 -27.7033)
(1.11612 -0.113805 -27.7152)
(1.10792 -0.113989 -27.7259)
(1.11487 -0.114081 -27.7358)
(1.10763 -0.114235 -27.7447)
(1.11406 -0.114309 -27.7528)
(1.10761 -0.114436 -27.7601)
(1.11359 -0.114495 -27.7666)
(1.10781 -0.114599 -27.7725)
(1.11339 -0.114642 -27.7777)
(1.10819 -0.114726 -27.7823)
(1.1134 -0.114757 -27.7864)
(1.1087 -0.114824 -27.7899)
(1.11358 -0.114843 -27.793)
(1.10931 -0.114895 -27.7956)
(1.11389 -0.114905 -27.7978)
(1.11001 -0.114946 -27.7997)
(1.11431 -0.114948 -27.8012)
(1.11077 -0.114979 -27.8025)
(1.11481 -0.114975 -27.8035)
(1.11158 -0.114998 -27.8043)
(1.11538 -0.114991 -27.8049)
(1.11243 -0.115009 -27.8054)
(1.11601 -0.114999 -27.8057)
(1.11331 -0.115013 -27.8059)
(1.11668 -0.115002 -27.8061)
(1.11421 -0.115013 -27.8062)
(1.11739 -0.115001 -27.8062)
(1.11514 -0.11501 -27.8062)
(1.11814 -0.114999 -27.8061)
(1.11608 -0.115007 -27.806)
(1.11892 -0.114997 -27.806)
(1.11703 -0.115004 -27.8059)
(1.11971 -0.114994 -27.8058)
(1.11799 -0.115 -27.8057)
(1.12053 -0.114991 -27.8056)