/*--------------------------------*- C++ -*----------------------------------*\
  =========                 |
  \\      /  F ield         | OpenFOAM: The Open Source CFD Toolbox
   \\    /   O peration     | Website:  https://openfoam.org
    \\  /    A nd           | Version:  7
     \\/     M anipulation  |
\*---------------------------------------------------------------------------*/
FoamFile
{
    version     2.0;
    format      ascii;
    class       volScalarField;
    location    "0.5475";
    object      k;
}
// * * * * * * * * * * * * * * * * * * * * * * * * * * * * * * * * * * * * * //

dimensions      [0 2 -2 0 0 0 0];

internalField   nonuniform List<scalar> 
7920
(
51.9425
56.2576
56.2333
56.355
56.3868
56.5155
56.5016
56.5204
56.4382
56.4114
56.3359
56.3207
56.2755
56.2719
56.2519
56.247
56.2597
56.2229
56.3525
56.4316
13.8172
13.9809
13.4038
12.8688
12.6278
12.5543
12.4846
12.4679
12.4214
12.4068
12.3699
12.3607
12.3359
12.3311
12.3156
12.3124
12.3095
12.2979
12.4739
12.5099
8.07131
9.20661
9.32344
9.31157
9.28012
9.2812
9.273
9.28271
9.28016
9.28703
9.28001
9.27996
9.26989
9.26706
9.25678
9.25214
9.2422
9.23469
9.23731
9.26088
7.47013
8.73898
8.98964
9.08571
9.11472
9.1553
9.16846
9.20133
9.2175
9.25038
9.26243
9.28357
9.2874
9.29784
9.29812
9.30156
9.29781
9.29277
9.28527
9.29971
7.40529
8.68501
8.94892
9.06167
9.10436
9.15751
9.17906
9.22303
9.24784
9.29332
9.31764
9.3532
9.36802
9.39197
9.40168
9.4179
9.42195
9.42491
9.42101
9.43507
7.41214
8.68137
8.94372
9.05825
9.1049
9.16266
9.18868
9.23737
9.26685
9.31804
9.34859
9.39105
9.41222
9.44272
9.45852
9.48185
9.49223
9.50181
9.50266
9.51696
7.41214
8.68137
8.94372
9.05825
9.10489
9.16266
9.18868
9.23738
9.26684
9.31806
9.34857
9.39107
9.4122
9.44275
9.45849
9.4819
9.4922
9.50189
9.50272
9.51704
7.40529
8.68501
8.94892
9.06167
9.10435
9.15752
9.17905
9.22304
9.24781
9.29336
9.31758
9.35328
9.36792
9.39211
9.40152
9.4181
9.42181
9.42515
9.4211
9.43534
7.47013
8.73899
8.98963
9.08571
9.11471
9.15531
9.16845
9.20135
9.21745
9.25045
9.26232
9.28372
9.28729
9.29802
9.29781
9.30199
9.29705
9.294
9.28464
9.30049
8.0713
9.20661
9.32344
9.31158
9.28011
9.28122
9.27299
9.28274
9.28011
9.28709
9.27988
9.28009
9.26961
9.26739
9.25612
9.253
9.24056
9.23775
9.23468
9.26383
13.8172
13.9809
13.4038
12.8688
12.6278
12.5544
12.4846
12.4679
12.4214
12.4069
12.3698
12.361
12.3355
12.3316
12.3144
12.314
12.3064
12.3025
12.4622
12.5214
51.9425
56.2576
56.2333
56.355
56.3867
56.5155
56.5015
56.5206
56.4378
56.4119
56.3351
56.3219
56.2736
56.2752
56.2467
56.2561
56.2443
56.2503
56.3027
56.5151
7.66201
9.64102
9.72519
9.61555
9.60303
9.55386
9.55463
9.51161
9.50411
9.46857
9.46542
9.44273
9.44434
9.42983
9.43474
9.42382
9.43453
9.41947
9.43439
9.48006
6.00929
8.22133
8.55587
8.60706
8.62587
8.64349
8.65304
8.65639
8.65278
8.6452
8.63668
8.62896
8.62318
8.61716
8.61441
8.60898
8.60885
8.60462
8.61372
8.61906
5.6927
7.8804
8.22677
8.29852
8.31407
8.33837
8.35308
8.37698
8.39058
8.40587
8.41072
8.41548
8.4153
8.41491
8.4129
8.408
8.40521
8.39619
8.39363
8.41675
5.6841
7.87171
8.2159
8.28465
8.29056
8.30246
8.3062
8.32141
8.33469
8.3548
8.3659
8.37723
8.3815
8.38542
8.38653
8.38489
8.38183
8.371
8.36406
8.37312
5.6723
7.85584
8.20042
8.27141
8.27666
8.2863
8.28588
8.29549
8.30539
8.32509
8.33675
8.35025
8.35562
8.36178
8.36462
8.36617
8.36485
8.35844
8.3454
8.35585
5.67859
7.86374
8.20751
8.27831
8.28356
8.29298
8.29181
8.30022
8.30896
8.32828
8.34002
8.35412
8.35977
8.36657
8.37014
8.37341
8.37328
8.36926
8.35555
8.36479
5.67859
7.86374
8.20751
8.27831
8.28356
8.29299
8.29181
8.30022
8.30896
8.32829
8.34
8.35414
8.35975
8.3666
8.37011
8.37343
8.37327
8.36926
8.35556
8.36472
5.67229
7.85584
8.20042
8.27141
8.27665
8.28631
8.28588
8.2955
8.30536
8.32513
8.3367
8.35032
8.35552
8.36189
8.3645
8.36628
8.36476
8.35861
8.34523
8.35589
5.6841
7.87172
8.21589
8.28465
8.29056
8.30247
8.30619
8.32144
8.33463
8.35487
8.36579
8.37738
8.38128
8.38566
8.38626
8.38531
8.38137
8.37179
8.36304
8.37355
5.6927
7.88041
8.22677
8.29853
8.31406
8.33839
8.35305
8.37702
8.39051
8.40596
8.41058
8.41564
8.415
8.41522
8.41223
8.40944
8.40338
8.39904
8.39023
8.41886
6.00929
8.22133
8.55587
8.60707
8.62586
8.6435
8.65301
8.65641
8.65273
8.64529
8.63653
8.6292
8.6228
8.61778
8.6134
8.61061
8.60658
8.60799
8.60802
8.6264
7.66201
9.64102
9.72518
9.61555
9.60302
9.55386
9.55461
9.51164
9.50406
9.46865
9.46531
9.44292
9.44405
9.43036
9.43396
9.42526
9.43225
9.42393
9.42744
9.49213
0.476815
1.03916
1.14213
1.11678
1.04821
0.984877
0.934882
0.899716
0.873791
0.8553
0.84311
0.833685
0.828267
0.82355
0.821543
0.820661
0.820538
0.823653
0.820912
0.836486
0.0855891
0.38114
0.525297
0.588182
0.611138
0.62577
0.633177
0.640946
0.644559
0.647595
0.647885
0.647922
0.647002
0.64611
0.644735
0.643918
0.642955
0.642371
0.64217
0.645052
0.0640635
0.299007
0.415342
0.474004
0.492991
0.507192
0.510966
0.518081
0.520616
0.52569
0.527836
0.531537
0.533465
0.535837
0.5374
0.538314
0.539551
0.539559
0.540053
0.542502
0.0679697
0.302744
0.416701
0.472816
0.491217
0.503002
0.505254
0.509042
0.509666
0.511344
0.511751
0.512746
0.513168
0.513828
0.514253
0.514335
0.514599
0.51428
0.514576
0.516643
0.0661216
0.298748
0.411602
0.467698
0.485616
0.4973
0.499193
0.502696
0.502993
0.504164
0.504183
0.504608
0.504552
0.504625
0.504502
0.50403
0.50374
0.502943
0.502305
0.503854
0.0671537
0.300983
0.414238
0.470132
0.488194
0.499751
0.501777
0.505184
0.505523
0.506694
0.506733
0.507118
0.507063
0.507089
0.506935
0.506399
0.506034
0.505096
0.504267
0.505649
0.0671536
0.300983
0.414238
0.470132
0.488194
0.499752
0.501777
0.505185
0.505522
0.506694
0.506733
0.507118
0.507062
0.507089
0.506935
0.506402
0.506034
0.505098
0.504262
0.505646
0.0661214
0.298748
0.411601
0.467698
0.485616
0.497301
0.499193
0.502696
0.502993
0.504165
0.504182
0.504608
0.504549
0.504625
0.504501
0.504033
0.503739
0.502939
0.502304
0.503846
0.0679694
0.302744
0.416701
0.472816
0.491216
0.503002
0.505253
0.509043
0.509666
0.511345
0.511749
0.512749
0.513158
0.513834
0.514246
0.51434
0.514584
0.514282
0.514556
0.516604
0.0640633
0.299008
0.415341
0.474005
0.49299
0.507194
0.510964
0.518083
0.520615
0.525693
0.527826
0.531547
0.533441
0.535863
0.537359
0.538354
0.539491
0.539566
0.540014
0.54242
0.085589
0.38114
0.525297
0.588183
0.611136
0.625772
0.633173
0.640951
0.644553
0.647601
0.647876
0.647926
0.64697
0.64617
0.644644
0.644024
0.642792
0.64251
0.641972
0.644975
0.476815
1.03916
1.14213
1.11678
1.04821
0.984879
0.934879
0.899723
0.873783
0.855318
0.84309
0.833731
0.828221
0.82366
0.821451
0.820901
0.820426
0.824193
0.820643
0.837569
0.476815
1.03916
1.14213
1.11678
1.04821
0.984877
0.934882
0.899716
0.873791
0.8553
0.843111
0.833686
0.828268
0.82355
0.821543
0.820661
0.820538
0.823653
0.820912
0.836486
0.0855891
0.38114
0.525297
0.588182
0.611138
0.62577
0.633177
0.640946
0.644559
0.647595
0.647885
0.647922
0.647003
0.64611
0.644736
0.643919
0.642955
0.642371
0.64217
0.645052
0.0640635
0.299007
0.415342
0.474004
0.492991
0.507192
0.510966
0.518081
0.520616
0.52569
0.527836
0.531537
0.533465
0.535837
0.5374
0.538315
0.539551
0.53956
0.540053
0.542502
0.0679697
0.302744
0.416701
0.472816
0.491217
0.503002
0.505254
0.509042
0.509666
0.511344
0.511751
0.512746
0.513168
0.513828
0.514253
0.514335
0.514599
0.514281
0.514577
0.516643
0.0661216
0.298748
0.411602
0.467698
0.485616
0.4973
0.499193
0.502696
0.502993
0.504164
0.504183
0.504608
0.504552
0.504625
0.504502
0.50403
0.50374
0.502943
0.502305
0.503854
0.0671537
0.300983
0.414238
0.470132
0.488194
0.499751
0.501777
0.505184
0.505523
0.506694
0.506733
0.507118
0.507063
0.507089
0.506935
0.506399
0.506034
0.505096
0.504267
0.505649
0.0671536
0.300983
0.414238
0.470132
0.488194
0.499752
0.501777
0.505185
0.505523
0.506694
0.506733
0.507118
0.507062
0.507089
0.506935
0.506402
0.506034
0.505098
0.504262
0.505646
0.0661214
0.298748
0.411601
0.467698
0.485616
0.497301
0.499193
0.502696
0.502993
0.504165
0.504182
0.504608
0.50455
0.504626
0.504501
0.504033
0.503739
0.502939
0.502304
0.503846
0.0679694
0.302744
0.416701
0.472816
0.491216
0.503003
0.505253
0.509043
0.509666
0.511345
0.511749
0.512749
0.513158
0.513834
0.514246
0.514339
0.514583
0.514281
0.514556
0.516604
0.0640632
0.299008
0.415341
0.474005
0.49299
0.507194
0.510964
0.518083
0.520615
0.525694
0.527827
0.531547
0.533441
0.535863
0.537359
0.538354
0.539491
0.539566
0.540013
0.54242
0.085589
0.38114
0.525297
0.588183
0.611136
0.625772
0.633173
0.640951
0.644553
0.647601
0.647876
0.647926
0.64697
0.646169
0.644643
0.644024
0.642791
0.642509
0.641972
0.644975
0.476815
1.03916
1.14213
1.11678
1.04821
0.98488
0.93488
0.899723
0.873783
0.855318
0.84309
0.833731
0.828221
0.82366
0.821451
0.820901
0.820425
0.824193
0.820643
0.83757
7.66201
9.64102
9.72519
9.61555
9.60303
9.55385
9.55462
9.51161
9.50411
9.46857
9.46542
9.44273
9.44435
9.42983
9.43475
9.42382
9.43453
9.41947
9.43439
9.48005
6.00929
8.22132
8.55587
8.60706
8.62587
8.64349
8.65303
8.65639
8.65278
8.6452
8.63668
8.62896
8.62318
8.61716
8.61441
8.60899
8.60885
8.60462
8.61372
8.61906
5.6927
7.8804
8.22677
8.29852
8.31407
8.33837
8.35308
8.37698
8.39057
8.40587
8.41072
8.41548
8.4153
8.41491
8.4129
8.40801
8.40522
8.3962
8.39363
8.41675
5.6841
7.87171
8.2159
8.28465
8.29056
8.30246
8.3062
8.32141
8.33469
8.3548
8.3659
8.37723
8.38149
8.38541
8.38652
8.38489
8.38184
8.37101
8.36407
8.37313
5.6723
7.85584
8.20042
8.27141
8.27666
8.2863
8.28588
8.29549
8.30539
8.32509
8.33675
8.35025
8.35562
8.36178
8.36462
8.36617
8.36485
8.35844
8.3454
8.35585
5.67859
7.86374
8.20751
8.27831
8.28356
8.29298
8.29181
8.30022
8.30896
8.32828
8.34002
8.35412
8.35977
8.36657
8.37014
8.37341
8.37328
8.36926
8.35555
8.36479
5.67859
7.86374
8.20751
8.27831
8.28356
8.29299
8.29181
8.30022
8.30896
8.32829
8.34
8.35414
8.35975
8.3666
8.37011
8.37343
8.37327
8.36926
8.35556
8.36472
5.67229
7.85584
8.20042
8.27141
8.27665
8.28631
8.28588
8.2955
8.30536
8.32513
8.3367
8.35032
8.35552
8.36189
8.36451
8.36628
8.36476
8.35861
8.34523
8.35589
5.6841
7.87172
8.21589
8.28465
8.29056
8.30247
8.30619
8.32144
8.33463
8.35487
8.36579
8.37738
8.38128
8.38567
8.38626
8.38532
8.38137
8.37179
8.36303
8.37354
5.6927
7.88041
8.22677
8.29853
8.31406
8.33839
8.35305
8.37702
8.39051
8.40597
8.41058
8.41564
8.415
8.41522
8.41223
8.40944
8.40338
8.39903
8.39022
8.41885
6.00929
8.22133
8.55587
8.60707
8.62586
8.6435
8.65302
8.65642
8.65273
8.64529
8.63653
8.6292
8.62279
8.61777
8.6134
8.6106
8.60658
8.60799
8.60802
8.6264
7.66201
9.64102
9.72519
9.61556
9.60303
9.55387
9.55462
9.51164
9.50407
9.46865
9.4653
9.44292
9.44404
9.43035
9.43395
9.42526
9.43225
9.42393
9.42745
9.49214
51.9425
56.2576
56.2333
56.355
56.3868
56.5155
56.5016
56.5204
56.4381
56.4114
56.3359
56.3207
56.2755
56.2719
56.2519
56.247
56.2597
56.2229
56.3525
56.4316
13.8172
13.9809
13.4038
12.8688
12.6278
12.5543
12.4846
12.4679
12.4214
12.4069
12.3699
12.3608
12.3359
12.3311
12.3156
12.3124
12.3095
12.2979
12.4739
12.5099
8.07131
9.20661
9.32344
9.31157
9.28012
9.2812
9.273
9.28271
9.28015
9.28702
9.28
9.27996
9.26988
9.26706
9.25678
9.25214
9.24221
9.2347
9.23732
9.26089
7.47013
8.73898
8.98964
9.08571
9.11472
9.1553
9.16846
9.20133
9.2175
9.25038
9.26242
9.28356
9.28739
9.29783
9.29811
9.30156
9.29781
9.29278
9.28527
9.29972
7.40529
8.68501
8.94892
9.06167
9.10436
9.15751
9.17906
9.22303
9.24784
9.29332
9.31764
9.35319
9.36802
9.39196
9.40168
9.41789
9.42195
9.42491
9.42102
9.43508
7.41214
8.68137
8.94372
9.05825
9.1049
9.16266
9.18868
9.23737
9.26685
9.31804
9.34859
9.39105
9.41222
9.44272
9.45852
9.48185
9.49223
9.50181
9.50266
9.51696
7.41214
8.68137
8.94372
9.05825
9.10489
9.16266
9.18868
9.23738
9.26684
9.31806
9.34857
9.39107
9.4122
9.44275
9.45849
9.4819
9.4922
9.50189
9.50272
9.51704
7.40529
8.68501
8.94892
9.06167
9.10435
9.15752
9.17905
9.22304
9.24781
9.29336
9.31758
9.35328
9.36792
9.39211
9.40152
9.4181
9.42181
9.42515
9.42109
9.43533
7.47013
8.73899
8.98963
9.08571
9.11471
9.15531
9.16845
9.20135
9.21745
9.25045
9.26232
9.28372
9.28729
9.29802
9.29781
9.30199
9.29704
9.29399
9.28463
9.30048
8.0713
9.20661
9.32344
9.31158
9.28011
9.28121
9.27298
9.28274
9.28011
9.28709
9.27988
9.2801
9.26962
9.26739
9.25611
9.25299
9.24055
9.23774
9.23467
9.26382
13.8172
13.9809
13.4038
12.8688
12.6278
12.5544
12.4846
12.4679
12.4214
12.4069
12.3698
12.361
12.3355
12.3316
12.3144
12.314
12.3064
12.3025
12.4622
12.5213
51.9425
56.2576
56.2333
56.3551
56.3868
56.5156
56.5015
56.5206
56.4378
56.4119
56.3351
56.3219
56.2736
56.2752
56.2466
56.256
56.2443
56.2503
56.3027
56.5151
143.749
146.115
147.34
148.18
148.626
148.905
149.014
149.1
149.12
149.157
149.162
149.188
149.192
149.216
149.222
149.245
149.253
149.277
149.287
149.312
149.326
149.354
149.371
149.4
149.421
149.452
149.475
149.508
149.532
149.565
149.589
149.621
149.645
149.675
149.697
149.724
149.743
149.768
149.783
149.804
149.816
149.833
149.842
149.855
149.861
149.871
149.874
149.882
149.883
149.889
149.888
149.892
149.89
149.893
149.89
149.892
149.889
149.89
149.886
149.887
149.883
149.883
149.879
149.879
149.874
149.874
149.87
149.869
149.865
149.864
149.859
149.858
149.854
149.853
149.848
149.847
149.842
149.841
149.836
149.835
149.83
149.828
149.823
149.821
149.816
149.812
149.815
149.774
149.862
149.615
47.2552
49.2166
49.6318
49.949
50.0943
50.2263
50.2669
50.3342
50.3496
50.3994
50.4123
50.4578
50.4729
50.5173
50.5348
50.5788
50.5986
50.6426
50.6643
50.7083
50.7318
50.7757
50.8005
50.8441
50.8696
50.9123
50.9378
50.979
51.0036
51.0426
51.0658
51.1021
51.1233
51.1565
51.1753
51.2052
51.2213
51.2478
51.2613
51.2844
51.2954
51.3155
51.3242
51.3416
51.3484
51.3636
51.3689
51.3821
51.3862
51.398
51.4011
51.4116
51.4141
51.4237
51.4257
51.4346
51.4363
51.4446
51.446
51.4537
51.4549
51.4622
51.4633
51.4702
51.471
51.4777
51.4783
51.4846
51.4851
51.491
51.4913
51.4969
51.497
51.5023
51.5021
51.5072
51.5068
51.5116
51.511
51.5154
51.5145
51.5186
51.5174
51.5211
51.5197
51.5225
51.5232
51.5144
51.5356
51.4577
30.5549
32.7893
33.0861
33.3428
33.4503
33.5885
33.6289
33.7171
33.7401
33.8114
33.8332
33.8996
33.9238
33.9886
34.0153
34.0792
34.1082
34.1715
34.2023
34.265
34.2975
34.3594
34.393
34.4538
34.4879
34.547
34.5808
34.6376
34.6702
34.724
34.7548
34.8051
34.8335
34.88
34.9057
34.9482
34.9709
35.0093
35.029
35.0634
35.0804
35.1112
35.1257
35.1534
35.1658
35.1908
35.2015
35.2241
35.2334
35.2541
35.2623
35.2814
35.2888
35.3067
35.3134
35.3303
35.3365
35.3525
35.3582
35.3734
35.3788
35.3933
35.3984
35.4122
35.4169
35.4302
35.4346
35.4473
35.4513
35.4634
35.467
35.4786
35.4818
35.4929
35.4957
35.5062
35.5086
35.5186
35.5206
35.5299
35.5315
35.5403
35.5413
35.5495
35.5501
35.5571
35.5596
35.5578
35.5772
35.5258
28.3536
30.9602
31.2723
31.5398
31.6551
31.8157
31.8659
31.9717
32.0006
32.0845
32.1108
32.1884
32.217
32.293
32.3246
32.3999
32.4342
32.5092
32.5458
32.6204
32.6591
32.7329
32.7732
32.8459
32.8869
32.9578
32.9986
33.0669
33.1064
33.1713
33.2088
33.2696
33.3044
33.3608
33.3924
33.444
33.4722
33.5191
33.5438
33.5861
33.6076
33.6456
33.6642
33.6986
33.7147
33.7459
33.76
33.7885
33.801
33.8272
33.8383
33.8627
33.8729
33.8959
33.9053
33.927
33.9358
33.9565
33.9648
33.9845
33.9924
34.0113
34.0187
34.0368
34.0438
34.0612
34.0678
34.0844
34.0906
34.1065
34.1122
34.1274
34.1326
34.1472
34.1519
34.1658
34.17
34.1832
34.1869
34.1994
34.2024
34.2142
34.2167
34.2277
34.2297
34.2394
34.2434
34.245
34.2627
34.2228
28.2111
31.0252
31.3523
31.6326
31.7536
31.9311
31.9878
32.1063
32.1389
32.2313
32.26
32.3446
32.3756
32.4583
32.4926
32.5747
32.6121
32.6938
32.7339
32.8153
32.8577
32.9384
32.9826
33.0621
33.1071
33.1847
33.2295
33.3043
33.3477
33.4187
33.4599
33.5265
33.5647
33.6264
33.6611
33.7176
33.7486
33.7999
33.8271
33.8733
33.8969
33.9386
33.959
33.9966
34.0145
34.0487
34.0643
34.0955
34.1094
34.1382
34.1506
34.1775
34.1889
34.2142
34.2248
34.2488
34.2588
34.2817
34.2912
34.3131
34.3221
34.3431
34.3516
34.3718
34.3799
34.3994
34.4071
34.4258
34.433
34.4509
34.4576
34.4748
34.481
34.4975
34.5032
34.519
34.5241
34.5392
34.5438
34.558
34.562
34.5754
34.5788
34.5915
34.5943
34.6055
34.61
34.6143
34.6302
34.5943
28.3114
31.2503
31.5795
31.858
31.9751
32.1558
32.2135
32.3358
32.3698
32.4654
32.495
32.5822
32.6142
32.6994
32.7348
32.8195
32.8581
32.9426
32.984
33.0683
33.1121
33.1957
33.2414
33.3237
33.3703
33.4507
33.4971
33.5744
33.6194
33.6929
33.7355
33.8044
33.8439
33.9077
33.9436
34.002
34.034
34.0869
34.115
34.1627
34.187
34.2299
34.251
34.2898
34.3081
34.3433
34.3594
34.3916
34.4058
34.4355
34.4483
34.476
34.4877
34.5138
34.5248
34.5496
34.5599
34.5836
34.5934
34.616
34.6254
34.6471
34.6561
34.677
34.6855
34.7057
34.7138
34.7332
34.7408
34.7595
34.7666
34.7846
34.7912
34.8084
34.8145
34.831
34.8366
34.8524
34.8574
34.8724
34.8768
34.8909
34.8948
34.9081
34.9114
34.9234
34.9277
34.9345
34.9477
34.9153
28.3136
31.241
31.5505
31.8078
31.908
32.0769
32.1286
32.247
32.2801
32.3749
32.4043
32.4912
32.523
32.6081
32.6434
32.7279
32.7664
32.8507
32.8919
32.976
33.0197
33.1031
33.1486
33.2308
33.2773
33.3574
33.4037
33.4809
33.5257
33.599
33.6415
33.7102
33.7496
33.8132
33.849
33.9073
33.9391
33.992
34.0199
34.0675
34.0917
34.1346
34.1556
34.1942
34.2125
34.2476
34.2637
34.2958
34.31
34.3396
34.3523
34.3799
34.3917
34.4177
34.4286
34.4534
34.4637
34.4873
34.497
34.5196
34.529
34.5507
34.5596
34.5805
34.5889
34.6091
34.6171
34.6365
34.6441
34.6628
34.6699
34.6878
34.6944
34.7116
34.7177
34.7341
34.7397
34.7555
34.7605
34.7754
34.7798
34.7939
34.7977
34.8111
34.8142
34.8265
34.8301
34.8385
34.8491
34.8198
28.2146
30.987
31.2483
31.4643
31.5366
31.6812
31.7222
31.8299
31.86
31.9503
31.9785
32.0623
32.093
32.1751
32.2091
32.2906
32.3276
32.4088
32.4485
32.5294
32.5714
32.6516
32.6953
32.7743
32.8189
32.896
32.9404
33.0146
33.0576
33.1281
33.1689
33.235
33.2729
33.3341
33.3685
33.4246
33.4553
33.5062
33.5332
33.5791
33.6025
33.6438
33.6641
33.7014
33.7191
33.753
33.7685
33.7995
33.8132
33.8419
33.8542
33.8809
33.8922
33.9173
33.9279
33.9517
33.9616
33.9844
33.9937
34.0155
34.0244
34.0453
34.0538
34.0739
34.0819
34.1012
34.1089
34.1274
34.1346
34.1524
34.1591
34.1762
34.1824
34.1987
34.2044
34.2201
34.2252
34.2402
34.2447
34.2589
34.2628
34.2762
34.2795
34.2922
34.2948
34.3066
34.3091
34.3183
34.3256
34.2987
28.3387
30.838
31.0294
31.1928
31.2367
31.3496
31.3797
31.4722
31.498
31.5793
31.6049
31.6815
31.7096
31.7847
31.8158
31.8903
31.9241
31.9982
32.0344
32.1081
32.1463
32.2193
32.259
32.3309
32.3713
32.4414
32.4816
32.5491
32.5881
32.6522
32.6891
32.7493
32.7836
32.8393
32.8704
32.9215
32.9493
32.9957
33.02
33.0619
33.083
33.1207
33.139
33.173
33.1889
33.2198
33.2337
33.2619
33.2742
33.3002
33.3112
33.3354
33.3455
33.3682
33.3776
33.3991
33.4078
33.4283
33.4365
33.4561
33.4638
33.4826
33.4899
33.5079
33.5148
33.5321
33.5386
33.5551
33.5612
33.577
33.5826
33.5977
33.6029
33.6173
33.622
33.6358
33.6399
33.6531
33.6567
33.6691
33.6721
33.6838
33.6862
33.6972
33.6991
33.7094
33.7107
33.7194
33.723
33.7006
30.4558
32.4624
32.5693
32.6852
32.7059
32.7912
32.8112
32.8871
32.9072
32.976
32.9972
33.0624
33.0861
33.1499
33.1761
33.2391
33.2675
33.3299
33.3602
33.422
33.4539
33.5149
33.5479
33.6078
33.6413
33.6995
33.7327
33.7886
33.8206
33.8737
33.9039
33.9535
33.9814
34.0272
34.0524
34.0943
34.1166
34.1545
34.1739
34.2079
34.2246
34.2551
34.2693
34.2967
34.3089
34.3336
34.3441
34.3665
34.3757
34.3962
34.4042
34.4232
34.4305
34.4482
34.4548
34.4716
34.4777
34.4935
34.4992
34.5143
34.5196
34.534
34.539
34.5528
34.5574
34.5706
34.5749
34.5875
34.5915
34.6035
34.6071
34.6185
34.6217
34.6326
34.6354
34.6458
34.6482
34.6581
34.66
34.6693
34.6708
34.6795
34.6805
34.6887
34.6891
34.6967
34.6965
34.7035
34.7018
34.6816
46.8523
48.3184
48.3931
48.4825
48.4961
48.5595
48.5722
48.6267
48.6385
48.686
48.6985
48.743
48.7578
48.8014
48.8185
48.8618
48.8811
48.9244
48.9456
48.9889
49.0118
49.0549
49.0791
49.1219
49.1467
49.1886
49.2134
49.2538
49.2777
49.3159
49.3384
49.374
49.3945
49.427
49.4452
49.4744
49.49
49.5159
49.5289
49.5516
49.5621
49.5817
49.5902
49.6072
49.6138
49.6287
49.6338
49.6468
49.6508
49.6623
49.6653
49.6757
49.6781
49.6875
49.6895
49.6982
49.6998
49.7079
49.7093
49.7169
49.718
49.7252
49.7262
49.733
49.7338
49.7403
49.7409
49.7471
49.7475
49.7533
49.7535
49.7591
49.759
49.7643
49.764
49.769
49.7685
49.7732
49.7725
49.7769
49.7759
49.7799
49.7786
49.7823
49.7806
49.7839
49.7816
49.7854
49.7687
49.7567
142.09
142.911
143.101
143.257
143.309
143.39
143.416
143.468
143.477
143.51
143.513
143.538
143.541
143.564
143.569
143.592
143.599
143.622
143.633
143.657
143.671
143.697
143.714
143.742
143.762
143.792
143.814
143.846
143.869
143.901
143.924
143.956
143.978
144.007
144.028
144.055
144.073
144.096
144.111
144.13
144.142
144.158
144.166
144.179
144.184
144.194
144.197
144.204
144.205
144.209
144.209
144.212
144.21
144.212
144.21
144.211
144.208
144.208
144.204
144.205
144.201
144.2
144.196
144.195
144.191
144.19
144.186
144.185
144.18
144.179
144.174
144.173
144.168
144.167
144.162
144.161
144.156
144.154
144.149
144.148
144.142
144.14
144.135
144.133
144.127
144.125
144.118
144.116
144.085
144.048
30.1663
31.0412
31.3095
31.4792
31.5766
31.6387
31.6692
31.6989
31.7128
31.7364
31.7475
31.7709
31.7822
31.8066
31.8188
31.8441
31.8575
31.8839
31.8987
31.9263
31.9426
31.9714
31.9892
32.0189
32.0378
32.068
32.0875
32.1176
32.1371
32.1663
32.1851
32.2129
32.2305
32.2562
32.2721
32.2955
32.3093
32.3301
32.3416
32.3596
32.3689
32.3843
32.3915
32.4046
32.4101
32.4211
32.4251
32.4345
32.4373
32.4453
32.4472
32.4541
32.4553
32.4614
32.4622
32.4677
32.4682
32.4732
32.4734
32.4781
32.4781
32.4824
32.4823
32.4864
32.4862
32.4901
32.4897
32.4934
32.493
32.4965
32.4959
32.4992
32.4986
32.5018
32.501
32.5041
32.5033
32.5063
32.5054
32.5083
32.5073
32.5102
32.5091
32.5122
32.511
32.5142
32.5144
32.5119
32.5315
32.4818
27.948
29.4565
29.7363
29.9153
30.0183
30.0884
30.1234
30.1561
30.1723
30.1957
30.2078
30.2293
30.2408
30.2617
30.2731
30.2936
30.3049
30.3249
30.336
30.3555
30.3663
30.3851
30.3956
30.4137
30.4238
30.441
30.4507
30.467
30.476
30.4913
30.4996
30.5137
30.5213
30.5343
30.5411
30.553
30.559
30.5698
30.5751
30.5849
30.5895
30.5984
30.6023
30.6104
30.6138
30.6212
30.6242
30.6309
30.6336
30.6398
30.6421
30.6479
30.65
30.6554
30.6573
30.6624
30.6641
30.6689
30.6706
30.6751
30.6766
30.6809
30.6823
30.6864
30.6877
30.6916
30.6928
30.6965
30.6976
30.7011
30.702
30.7054
30.7062
30.7094
30.71
30.7131
30.7136
30.7165
30.7168
30.7195
30.7197
30.7223
30.7222
30.7248
30.7246
30.7269
30.728
30.7236
30.7456
30.7104
25.6808
27.6644
27.9695
28.1471
28.2552
28.3253
28.362
28.3881
28.4008
28.414
28.4205
28.4306
28.436
28.4455
28.4506
28.4598
28.4647
28.4737
28.4785
28.4871
28.4918
28.5002
28.5048
28.513
28.5175
28.5254
28.5299
28.5376
28.542
28.5493
28.5536
28.5606
28.5645
28.5712
28.5749
28.5811
28.5845
28.5903
28.5935
28.5988
28.6017
28.6066
28.6091
28.6137
28.6159
28.6201
28.6222
28.6261
28.6279
28.6315
28.6332
28.6365
28.638
28.6412
28.6426
28.6455
28.6468
28.6496
28.6508
28.6535
28.6546
28.6571
28.6581
28.6605
28.6615
28.6637
28.6646
28.6668
28.6676
28.6696
28.6704
28.6723
28.6729
28.6747
28.6753
28.677
28.6774
28.679
28.6794
28.6809
28.6811
28.6825
28.6825
28.6838
28.6838
28.6845
28.6863
28.6802
28.6971
28.6501
24.941
27.1269
27.4302
27.602
27.7118
27.7859
27.8265
27.8538
27.8666
27.8774
27.8822
27.8887
27.8917
27.8974
27.9002
27.9056
27.9084
27.9137
27.9164
27.9215
27.9242
27.9292
27.932
27.9369
27.9397
27.9445
27.9473
27.9521
27.9549
27.9595
27.9622
27.9666
27.9692
27.9733
27.9757
27.9796
27.9818
27.9854
27.9873
27.9905
27.9922
27.9951
27.9966
27.9992
28.0004
28.0027
28.0037
28.0058
28.0067
28.0086
28.0093
28.0111
28.0117
28.0132
28.0138
28.0152
28.0157
28.0171
28.0175
28.0188
28.0191
28.0203
28.0207
28.0218
28.0221
28.0231
28.0234
28.0244
28.0246
28.0256
28.0258
28.0266
28.0268
28.0276
28.0277
28.0284
28.0284
28.0291
28.0291
28.0297
28.0296
28.0302
28.03
28.0305
28.0303
28.0302
28.0318
28.0261
28.0377
28.0056
24.5175
26.8244
27.1091
27.265
27.3682
27.4427
27.4852
27.515
27.5298
27.5416
27.5467
27.5533
27.5563
27.5617
27.5644
27.5695
27.5721
27.577
27.5796
27.5843
27.5868
27.5912
27.5937
27.5982
27.6007
27.6051
27.6076
27.6119
27.6144
27.6186
27.621
27.6249
27.6272
27.6308
27.6329
27.6363
27.6382
27.6412
27.6428
27.6456
27.6469
27.6493
27.6504
27.6525
27.6534
27.6552
27.6559
27.6575
27.6581
27.6595
27.6599
27.6612
27.6615
27.6626
27.6628
27.6638
27.664
27.6649
27.6651
27.6659
27.666
27.6668
27.6669
27.6676
27.6676
27.6683
27.6683
27.669
27.669
27.6696
27.6695
27.6701
27.67
27.6705
27.6704
27.6709
27.6707
27.6711
27.6709
27.6713
27.671
27.6714
27.671
27.6713
27.6709
27.6706
27.6717
27.6672
27.6742
27.6407
24.4445
26.7728
27.0316
27.1652
27.2537
27.3209
27.3606
27.39
27.4053
27.4176
27.4231
27.4298
27.433
27.4385
27.4414
27.4466
27.4494
27.4544
27.4571
27.4621
27.4647
27.4695
27.4722
27.4768
27.4795
27.4841
27.4868
27.4913
27.4939
27.4982
27.5007
27.5047
27.5071
27.5108
27.513
27.5164
27.5183
27.5215
27.5231
27.5259
27.5273
27.5297
27.5308
27.5329
27.5338
27.5357
27.5364
27.538
27.5385
27.5399
27.5403
27.5416
27.5418
27.5429
27.5431
27.5441
27.5443
27.5452
27.5453
27.5461
27.5461
27.5469
27.5469
27.5476
27.5476
27.5482
27.5482
27.5488
27.5488
27.5493
27.5492
27.5497
27.5496
27.5501
27.5499
27.5503
27.5501
27.5505
27.5502
27.5505
27.5502
27.5505
27.5501
27.5503
27.5499
27.5497
27.5503
27.5473
27.5512
27.5223
24.4452
26.7622
27.0016
27.1152
27.1875
27.244
27.2778
27.3044
27.3186
27.3304
27.3358
27.3424
27.3456
27.3511
27.3539
27.3591
27.3619
27.3669
27.3696
27.3745
27.3772
27.382
27.3846
27.3893
27.392
27.3966
27.3992
27.4037
27.4063
27.4106
27.4131
27.4172
27.4195
27.4232
27.4254
27.4288
27.4307
27.4338
27.4355
27.4383
27.4397
27.4421
27.4432
27.4453
27.4462
27.448
27.4487
27.4503
27.4509
27.4522
27.4526
27.4539
27.4542
27.4552
27.4554
27.4564
27.4566
27.4574
27.4575
27.4584
27.4584
27.4592
27.4592
27.4599
27.4599
27.4605
27.4605
27.4611
27.461
27.4616
27.4615
27.462
27.4618
27.4623
27.4621
27.4625
27.4623
27.4627
27.4624
27.4628
27.4624
27.4627
27.4623
27.4625
27.4621
27.4621
27.4621
27.4603
27.4622
27.435
24.5187
26.7834
27.007
27.1036
27.1615
27.2068
27.2338
27.2561
27.2678
27.2784
27.2832
27.2895
27.2924
27.2977
27.3004
27.3055
27.3081
27.313
27.3155
27.3202
27.3227
27.3272
27.3297
27.3341
27.3366
27.3409
27.3434
27.3477
27.3502
27.3543
27.3567
27.3606
27.3628
27.3665
27.3685
27.3719
27.3737
27.3767
27.3783
27.381
27.3824
27.3847
27.3858
27.3879
27.3888
27.3906
27.3913
27.3928
27.3934
27.3948
27.3952
27.3964
27.3967
27.3978
27.398
27.399
27.3992
27.4001
27.4002
27.401
27.4011
27.4019
27.402
27.4027
27.4027
27.4034
27.4034
27.404
27.404
27.4046
27.4045
27.4051
27.405
27.4055
27.4053
27.4058
27.4056
27.406
27.4058
27.4062
27.4059
27.4062
27.4059
27.4061
27.4056
27.4058
27.4055
27.4044
27.4054
27.3774
24.925
27.0098
27.1998
27.275
27.3176
27.3513
27.3714
27.3891
27.3984
27.4077
27.4119
27.4181
27.4211
27.4266
27.4294
27.4347
27.4374
27.4426
27.4453
27.4503
27.453
27.4579
27.4606
27.4655
27.4682
27.473
27.4758
27.4805
27.4833
27.4879
27.4906
27.4949
27.4975
27.5016
27.5039
27.5077
27.5099
27.5134
27.5153
27.5185
27.5202
27.5231
27.5245
27.527
27.5282
27.5305
27.5315
27.5336
27.5344
27.5363
27.537
27.5387
27.5393
27.5408
27.5413
27.5427
27.5432
27.5445
27.5449
27.5462
27.5465
27.5477
27.548
27.5491
27.5494
27.5504
27.5507
27.5516
27.5518
27.5528
27.5529
27.5538
27.5539
27.5547
27.5548
27.5555
27.5555
27.5562
27.5561
27.5568
27.5566
27.5572
27.557
27.5575
27.5571
27.5575
27.5572
27.5571
27.5571
27.537
25.6077
27.401
27.5416
27.5973
27.6279
27.655
27.6717
27.689
27.6985
27.7102
27.7163
27.726
27.7311
27.7403
27.7453
27.7542
27.759
27.7677
27.7724
27.7809
27.7854
27.7936
27.7981
27.8061
27.8106
27.8183
27.8227
27.8302
27.8345
27.8418
27.8459
27.8528
27.8566
27.8631
27.8668
27.8729
27.8762
27.8819
27.885
27.8902
27.893
27.8979
27.9003
27.9048
27.907
27.9111
27.9131
27.9169
27.9187
27.9222
27.9238
27.9271
27.9286
27.9316
27.933
27.9359
27.9371
27.9399
27.941
27.9436
27.9447
27.9472
27.9482
27.9505
27.9514
27.9536
27.9545
27.9566
27.9574
27.9593
27.96
27.9619
27.9625
27.9643
27.9648
27.9664
27.9668
27.9684
27.9687
27.9701
27.9703
27.9717
27.9717
27.9729
27.9728
27.974
27.9736
27.9745
27.9752
27.951
27.7362
28.9531
29.0292
29.0711
29.0941
29.1234
29.1408
29.1661
29.1797
29.2018
29.2134
29.2343
29.2454
29.2658
29.2769
29.2969
29.3079
29.3275
29.3382
29.3572
29.3677
29.3861
29.3963
29.414
29.4238
29.4407
29.45
29.466
29.4748
29.4897
29.4978
29.5116
29.519
29.5317
29.5383
29.55
29.5558
29.5664
29.5716
29.5812
29.5857
29.5944
29.5983
29.6061
29.6095
29.6167
29.6196
29.6263
29.6288
29.6349
29.6372
29.6429
29.645
29.6502
29.6521
29.6571
29.6588
29.6635
29.6651
29.6696
29.671
29.6753
29.6766
29.6807
29.6819
29.6857
29.6868
29.6905
29.6915
29.695
29.6958
29.6991
29.6999
29.703
29.7036
29.7065
29.707
29.7098
29.7101
29.7128
29.7129
29.7154
29.7153
29.7178
29.7175
29.7201
29.7194
29.7222
29.7222
29.7248
29.7846
30.3182
30.3671
30.3954
30.4132
30.4369
30.4514
30.4749
30.4867
30.5094
30.5201
30.5432
30.5542
30.5783
30.5902
30.6152
30.6283
30.6543
30.6688
30.6959
30.7118
30.74
30.7573
30.7864
30.8048
30.8343
30.8533
30.8826
30.9015
30.93
30.9482
30.9752
30.9922
31.0173
31.0326
31.0553
31.0687
31.0888
31.0999
31.1174
31.1263
31.1413
31.1482
31.1609
31.1661
31.1769
31.1807
31.1899
31.1925
31.2003
31.2021
31.2088
31.2099
31.2159
31.2166
31.222
31.2224
31.2273
31.2274
31.232
31.2319
31.2362
31.236
31.24
31.2397
31.2435
31.2431
31.2467
31.2462
31.2496
31.249
31.2523
31.2515
31.2547
31.2538
31.2569
31.256
31.2589
31.2579
31.2608
31.2596
31.2625
31.2613
31.2643
31.263
31.2664
31.2649
31.2698
31.2637
31.2635
3.77378
4.02482
4.06395
4.08747
4.11503
4.14341
4.17131
4.20578
4.23362
4.27106
4.29754
4.33628
4.36153
4.40099
4.42542
4.46524
4.48912
4.52905
4.55259
4.59241
4.61573
4.6552
4.67827
4.71709
4.73972
4.77751
4.7994
4.83574
4.85655
4.89105
4.91048
4.94282
4.9606
4.99056
5.00654
5.03399
5.04807
5.07297
5.08516
5.10759
5.118
5.13814
5.14698
5.16512
5.17263
5.18902
5.19542
5.2103
5.21578
5.2294
5.23414
5.24672
5.25091