/*--------------------------------*- C++ -*----------------------------------*\
  =========                 |
  \\      /  F ield         | OpenFOAM: The Open Source CFD Toolbox
   \\    /   O peration     | Website:  https://openfoam.org
    \\  /    A nd           | Version:  7
     \\/     M anipulation  |
\*---------------------------------------------------------------------------*/
FoamFile
{
    version     2.0;
    format      ascii;
    class       volScalarField;
    location    "0.01";
    object      rho;
}
// * * * * * * * * * * * * * * * * * * * * * * * * * * * * * * * * * * * * * //

dimensions      [1 -3 0 0 0 0 0];

internalField   nonuniform List<scalar> 
1440
(
1.16253
1.16131
1.16109
1.16189
1.16297
1.16387
1.16532
1.16813
1.17156
1.17412
1.17548
1.1765
1.17778
1.17893
1.17902
1.1776
1.17504
1.1722
1.16987
1.16845
1.16791
1.16795
1.16826
1.16861
1.16889
1.16907
1.16918
1.16924
1.16927
1.16929
1.16932
1.16935
1.16937
1.1694
1.16943
1.16947
1.1695
1.16953
1.16957
1.16961
1.16965
1.16971
1.16974
1.1698
1.16984
1.1699
1.16994
1.17002
1.17003
1.17017
1.17012
1.1703
1.1702
1.17059
1.17004
1.17111
1.16968
1.17229
1.16747
1.17776
1.16251
1.16132
1.16096
1.16166
1.16298
1.16419
1.16521
1.16697
1.17026
1.17456
1.17828
1.18028
1.181
1.1818
1.18345
1.18529
1.18593
1.18444
1.18107
1.17688
1.1731
1.17044
1.16906
1.16866
1.16882
1.16919
1.16956
1.16983
1.17002
1.17013
1.1702
1.17025
1.17029
1.17033
1.17037
1.17041
1.17046
1.1705
1.17055
1.17059
1.17064
1.17069
1.17074
1.1708
1.17085
1.17091
1.17097
1.17103
1.17107
1.17117
1.17121
1.17127
1.17133
1.17147
1.17142
1.17159
1.17163
1.1718
1.17162
1.17199
1.16251
1.16132
1.16095
1.16162
1.16299
1.16424
1.16518
1.16677
1.17007
1.1746
1.17857
1.1806
1.18115
1.18179
1.1835
1.18566
1.18669
1.18548
1.18212
1.17771
1.17358
1.1706
1.16898
1.16846
1.1686
1.16899
1.16939
1.1697
1.16991
1.17003
1.17011
1.17017
1.17021
1.17025
1.17029
1.17033
1.17038
1.17042
1.17047
1.17052
1.17057
1.17062
1.17067
1.17073
1.17078
1.17084
1.1709
1.17096
1.17102
1.17109
1.17115
1.17122
1.17129
1.17136
1.17143
1.17151
1.17159
1.17166
1.17174
1.17184
1.1625
1.16131
1.16093
1.16162
1.163
1.16424
1.16516
1.16681
1.17022
1.17481
1.17871
1.18063
1.18114
1.18185
1.18364
1.18578
1.18672
1.18537
1.18192
1.17748
1.17337
1.17043
1.16887
1.1684
1.16857
1.16898
1.1694
1.16971
1.16991
1.17003
1.17011
1.17016
1.17021
1.17025
1.17029
1.17033
1.17037
1.17042
1.17047
1.17052
1.17057
1.17062
1.17067
1.17072
1.17078
1.17084
1.1709
1.17096
1.17102
1.17108
1.17115
1.17122
1.17129
1.17136
1.17143
1.1715
1.17158
1.17165
1.17174
1.17182
1.16249
1.1613
1.16093
1.16162
1.16301
1.16424
1.16515
1.16683
1.17027
1.17488
1.17875
1.18064
1.18114
1.18187
1.18367
1.18581
1.18671
1.18533
1.18185
1.1774
1.1733
1.17038
1.16883
1.16838
1.16856
1.16898
1.1694
1.16971
1.16991
1.17004
1.17011
1.17016
1.17021
1.17025
1.17029
1.17033
1.17037
1.17042
1.17047
1.17051
1.17056
1.17062
1.17067
1.17072
1.17078
1.17084
1.1709
1.17096
1.17102
1.17108
1.17115
1.17121
1.17128
1.17135
1.17142
1.1715
1.17157
1.17165
1.17173
1.17181
1.16249
1.1613
1.16092
1.16162
1.16301
1.16424
1.16515
1.16684
1.17031
1.17492
1.17878
1.18064
1.18115
1.18189
1.18371
1.18583
1.18671
1.1853
1.1818
1.17735
1.17325
1.17034
1.16881
1.16837
1.16856
1.16898
1.1694
1.16971
1.16991
1.17004
1.17011
1.17016
1.17021
1.17025
1.17029
1.17033
1.17037
1.17042
1.17046
1.17051
1.17056
1.17061
1.17067
1.17072
1.17078
1.17084
1.17089
1.17096
1.17102
1.17108
1.17115
1.17121
1.17128
1.17135
1.17142
1.1715
1.17157
1.17165
1.17173
1.17181
1.16249
1.1613
1.16092
1.16162
1.16301
1.16424
1.16515
1.16684
1.17031
1.17492
1.17878
1.18064
1.18115
1.18189
1.18371
1.18583
1.18671
1.1853
1.1818
1.17735
1.17325
1.17034
1.16881
1.16837
1.16856
1.16898
1.1694
1.16971
1.16991
1.17004
1.17011
1.17016
1.17021
1.17025
1.17029
1.17033
1.17037
1.17042
1.17046
1.17051
1.17056
1.17061
1.17067
1.17072
1.17078
1.17084
1.17089
1.17096
1.17102
1.17108
1.17115
1.17121
1.17128
1.17135
1.17142
1.1715
1.17157
1.17165
1.17173
1.17181
1.16249
1.1613
1.16093
1.16162
1.16301
1.16424
1.16515
1.16683
1.17027
1.17488
1.17875
1.18064
1.18114
1.18187
1.18367
1.18581
1.18671
1.18533
1.18185
1.1774
1.1733
1.17038
1.16883
1.16838
1.16856
1.16898
1.1694
1.16971
1.16991
1.17004
1.17011
1.17016
1.17021
1.17025
1.17029
1.17033
1.17037
1.17042
1.17047
1.17051
1.17056
1.17062
1.17067
1.17072
1.17078
1.17084
1.1709
1.17096
1.17102
1.17108
1.17115
1.17121
1.17128
1.17135
1.17142
1.1715
1.17157
1.17165
1.17173
1.17181
1.1625
1.16131
1.16093
1.16162
1.163
1.16424
1.16516
1.16681
1.17022
1.17481
1.17871
1.18063
1.18114
1.18185
1.18364
1.18578
1.18672
1.18537
1.18192
1.17748
1.17337
1.17043
1.16887
1.1684
1.16857
1.16899
1.1694
1.16971
1.16991
1.17003
1.17011
1.17016
1.17021
1.17025
1.17029
1.17033
1.17037
1.17042
1.17047
1.17052
1.17057
1.17062
1.17067
1.17072
1.17078
1.17084
1.1709
1.17096
1.17102
1.17108
1.17115
1.17122
1.17128
1.17135
1.17143
1.1715
1.17157
1.17165
1.17173
1.17181
1.16251
1.16132
1.16095
1.16162
1.16299
1.16424
1.16518
1.16677
1.17007
1.1746
1.17857
1.1806
1.18115
1.18179
1.1835
1.18566
1.18669
1.18548
1.18212
1.17771
1.17358
1.1706
1.16898
1.16846
1.1686
1.16899
1.16939
1.1697
1.16991
1.17003
1.17011
1.17017
1.17021
1.17025
1.17029
1.17033
1.17038
1.17042
1.17047
1.17052
1.17057
1.17062
1.17067
1.17073
1.17078
1.17084
1.1709
1.17096
1.17102
1.17109
1.17115
1.17122
1.17129
1.17136
1.17143
1.1715
1.17158
1.17165
1.17173
1.17181
1.16251
1.16132
1.16096
1.16166
1.16298
1.16419
1.16521
1.16697
1.17026
1.17456
1.17828
1.18028
1.181
1.1818
1.18345
1.18529
1.18593
1.18444
1.18107
1.17688
1.1731
1.17044
1.16906
1.16866
1.16883
1.16919
1.16956
1.16983
1.17002
1.17013
1.1702
1.17025
1.17029
1.17033
1.17037
1.17041
1.17046
1.1705
1.17055
1.17059
1.17064
1.17069
1.17074
1.1708
1.17085
1.17091
1.17097
1.17103
1.17109
1.17115
1.17121
1.17128
1.17135
1.17141
1.17149
1.17156
1.17163
1.17171
1.17178
1.17186
1.16253
1.16131
1.16109
1.16189
1.16297
1.16387
1.16532
1.16813
1.17156
1.17412
1.17548
1.1765
1.17778
1.17893
1.17902
1.1776
1.17504
1.1722
1.16987
1.16845
1.16791
1.16795
1.16826
1.16861
1.16889
1.16907
1.16918
1.16924
1.16927
1.16929
1.16932
1.16935
1.16937
1.1694
1.16943
1.16947
1.1695
1.16953
1.16957
1.16962
1.16966
1.1697
1.16975
1.1698
1.16985
1.1699
1.16995
1.17001
1.17006
1.17012
1.17018
1.17024
1.17031
1.17037
1.17044
1.17051
1.17058
1.17065
1.17072
1.1708
1.1555
1.13698
1.12261
1.11096
1.10004
1.08916
1.07953
1.07229
1.06654
1.06001
1.0518
1.0433
1.03658
1.03215
1.02849
1.02329
1.01494
1.00338
0.989993
0.976712
0.965187
0.956365
0.950299
0.946424
0.944126
0.942781
0.941979
0.941533
0.941293
0.941193
0.941086
0.940949
0.940812
0.940697
0.940544
0.940418
0.940353
0.940302
0.940305
0.940326
0.940377
0.940391
0.940339
0.940186
0.94006
0.94004
0.940008
0.940037
0.940019
0.939961
0.939991
0.940022
0.939947
0.939931
0.939968
0.939983
0.939619
0.939689
0.939148
0.938139
1.17221
1.17186
1.17132
1.17101
1.17066
1.16968
1.16833
1.16749
1.16736
1.16701
1.1655
1.1633
1.16182
1.16184
1.16259
1.16239
1.1601
1.15597
1.15135
1.14782
1.14636
1.14715
1.14974
1.15322
1.15674
1.15987
1.16237
1.16424
1.16564
1.16674
1.16766
1.16839
1.16891
1.1693
1.16963
1.16992
1.17023
1.17059
1.17089
1.17125
1.17159
1.172
1.17242
1.17267
1.17289
1.17315
1.17331
1.1736
1.17386
1.17408
1.17445
1.17484
1.17499
1.17538
1.17558
1.17596
1.17583
1.17636
1.17627
1.17564
1.17195
1.17205
1.17217
1.17233
1.17247
1.17257
1.17267
1.17284
1.17305
1.17318
1.17319
1.1732
1.17333
1.17358
1.17379
1.17379
1.17352
1.17313
1.17287
1.17299
1.17356
1.17449
1.17558
1.17664
1.17755
1.17827
1.17881
1.17922
1.17952
1.17977
1.17998
1.18017
1.18035
1.18052
1.1807
1.18089
1.18107
1.18126
1.18145
1.18164
1.18183
1.18202
1.18222
1.1824
1.1826
1.18281
1.18301
1.18323
1.18345
1.18364
1.18388
1.18408
1.18431
1.18451
1.18478
1.18496
1.18522
1.18545
1.1857
1.18595
1.17191
1.17201
1.17211
1.17222
1.17232
1.17242
1.17254
1.17266
1.17279
1.17289
1.17298
1.17308
1.17321
1.17334
1.17344
1.17346
1.17346
1.17347
1.17358
1.1738
1.17412
1.17451
1.1749
1.17525
1.17554
1.17578
1.17596
1.17611
1.17625
1.17637
1.1765
1.17663
1.17676
1.1769
1.17704
1.17719
1.17734
1.1775
1.17766
1.17782
1.17798
1.17815
1.17832
1.17849
1.17866
1.17883
1.17901
1.17919
1.17938
1.17955
1.17975
1.17992
1.18013
1.1803
1.18051
1.18068
1.18091
1.18107
1.1813
1.18145
1.1719
1.17199
1.17208
1.17217
1.17227
1.17236
1.17246
1.17257
1.17267
1.17277
1.17287
1.17297
1.17308
1.17319
1.17329
1.17335
1.17342
1.1735
1.17362
1.17379
1.17401
1.17425
1.17449
1.17471
1.17491
1.17507
1.17522
1.17536
1.17548
1.17561
1.17574
1.17588
1.17602
1.17616
1.17631
1.17646
1.17661
1.17677
1.17693
1.17709
1.17726
1.17742
1.17759
1.17776
1.17793
1.17811
1.17829
1.17846
1.17865
1.17882
1.17902
1.17919
1.1794
1.17957
1.17977
1.17995
1.18016
1.18032
1.18055
1.1807
1.17189
1.17198
1.17206
1.17215
1.17224
1.17233
1.17243
1.17253
1.17262
1.17272
1.17282
1.17292
1.17302
1.17313
1.17322
1.17331
1.17341
1.17351
1.17364
1.17379
1.17395
1.17413
1.1743
1.17446
1.17461
1.17475
1.17488
1.17501
1.17514
1.17527
1.17541
1.17555
1.17569
1.17583
1.17598
1.17613
1.17629
1.17645
1.17661
1.17677
1.17693
1.1771
1.17727
1.17744
1.17761
1.17779
1.17797
1.17814
1.17833
1.1785
1.1787
1.17887
1.17908
1.17925
1.17945
1.17963
1.17984
1.18001
1.18023
1.18039
1.17189
1.17197
1.17206
1.17214
1.17223
1.17232
1.17241
1.17251
1.1726
1.1727
1.1728
1.1729
1.173
1.1731
1.1732
1.1733
1.17341
1.17352
1.17364
1.17377
1.17391
1.17405
1.17419
1.17433
1.17446
1.17459
1.17472
1.17485
1.17498
1.17512
1.17526
1.1754
1.17554
1.17569
1.17584
1.17599
1.17615
1.1763
1.17646
1.17663
1.17679
1.17696
1.17713
1.1773
1.17747
1.17765
1.17782
1.178
1.17819
1.17836
1.17856
1.17873
1.17893
1.1791
1.17931
1.17948
1.1797
1.17986
1.18008
1.18025
1.17189
1.17197
1.17205
1.17214
1.17223
1.17232
1.17241
1.1725
1.17259
1.17269
1.17279
1.17289
1.17299
1.17309
1.17319
1.1733
1.17341
1.17352
1.17364
1.17376
1.17389
1.17401
1.17414
1.17427
1.1744
1.17452
1.17465
1.17478
1.17492
1.17506
1.17519
1.17534
1.17548
1.17563
1.17578
1.17593
1.17609
1.17625
1.17641
1.17657
1.17673
1.1769
1.17707
1.17724
1.17741
1.17759
1.17777
1.17794
1.17813
1.1783
1.1785
1.17867
1.17888
1.17905
1.17925
1.17943
1.17964
1.1798
1.18002
1.18019
1.17189
1.17197
1.17205
1.17214
1.17223
1.17232
1.17241
1.1725
1.17259
1.17269
1.17279
1.17289
1.17299
1.17309
1.17319
1.1733
1.17341
1.17352
1.17364
1.17376
1.17388
1.174
1.17412
1.17425
1.17437
1.1745
1.17463
1.17476
1.1749
1.17503
1.17517
1.17532
1.17546
1.17561
1.17576
1.17591
1.17607
1.17623
1.17639
1.17655
1.17671
1.17688
1.17705
1.17722
1.17739
1.17757
1.17775
1.17792
1.17811
1.17828
1.17848
1.17865
1.17886
1.17902
1.17923
1.17941
1.17962
1.17978
1.18
1.18017
1.17189
1.17197
1.17206
1.17214
1.17223
1.17232
1.17241
1.1725
1.1726
1.17269
1.17279
1.17289
1.17299
1.17309
1.1732
1.1733
1.17341
1.17352
1.17364
1.17376
1.17387
1.17399
1.17412
1.17424
1.17437
1.17449
1.17462
1.17476
1.17489
1.17503
1.17517
1.17531
1.17546
1.17561
1.17576
1.17591
1.17607
1.17622
1.17638
1.17655
1.17671
1.17688
1.17705
1.17722
1.17739
1.17757
1.17774
1.17792
1.17811
1.17828
1.17848
1.17865
1.17885
1.17902
1.17923
1.1794
1.17961
1.17978
1.18
1.18017
1.17194
1.17202
1.1721
1.17219
1.17227
1.17236
1.17245
1.17254
1.17263
1.17273
1.17283
1.17292
1.17302
1.17313
1.17323
1.17334
1.17344
1.17355
1.17367
1.17378
1.1739
1.17402
1.17414
1.17426
1.17439
1.17451
1.17464
1.17478
1.17491
1.17505
1.17519
1.17533
1.17548
1.17562
1.17577
1.17593
1.17608
1.17624
1.1764
1.17656
1.17673
1.17689
1.17706
1.17723
1.1774
1.17758
1.17776
1.17793
1.17812
1.17829
1.17849
1.17866
1.17886
1.17903
1.17924
1.17941
1.17962
1.17979
1.18001
1.18018
1.17088
1.17096
1.17104
1.17112
1.1712
1.17129
1.17138
1.17147
1.17156
1.17166
1.17175
1.17185
1.17195
1.17206
1.17216
1.17227
1.17237
1.17249
1.1726
1.17271
1.17283
1.17295
1.17307
1.1732
1.17333
1.17346
1.1736
1.17373
1.17387
1.17402
1.17416
1.17431
1.17446
1.17461
1.17476
1.17492
1.17508
1.17525
1.17541
1.17558
1.17575
1.17593
1.17611
1.17628
1.17646
1.17665
1.17683
1.17701
1.1772
1.17739
1.17759
1.17778
1.17798
1.17817
1.17838
1.17857
1.17878
1.17897
1.17919
1.17937
)
;

boundaryField
{
    upperWall
    {
        type            calculated;
        value           nonuniform List<scalar> 
120
(
1.16337
1.16338
1.16339
1.1634
1.1634
1.1634
1.16341
1.16342
1.16342
1.16342
1.16342
1.16343
1.16344
1.16345
1.16345
1.16346
1.16347
1.16349
1.16351
1.16354
1.16357
1.16361
1.16365
1.16369
1.16373
1.16377
1.16381
1.16385
1.16389
1.16393
1.16398
1.16403
1.16408
1.16413
1.16418
1.16423
1.16429
1.16434
1.1644
1.16447
1.16453
1.16459
1.16466
1.16473
1.1648
1.16487
1.16494
1.16502
1.16509
1.16517
1.16526
1.16534
1.16542
1.16551
1.1656
1.16569
1.16578
1.16587
1.16597
1.16607
1.16617
1.16627
1.16637
1.16648
1.16659
1.16669
1.16681
1.16692
1.16704
1.16715
1.16727
1.1674
1.16752
1.16765
1.16778
1.16791
1.16804
1.16818
1.16832
1.16846
1.1686
1.16875
1.1689
1.16905
1.1692
1.16936
1.16952
1.16969
1.16985
1.17002
1.1702
1.17037
1.17055
1.17073
1.17092
1.1711
1.17129
1.17149
1.17168
1.17188
1.17208
1.17229
1.1725
1.17271
1.17292
1.17313
1.17335
1.17357
1.17379
1.17401
1.17424
1.17446
1.17469
1.17492
1.17515
1.17538
1.17562
1.17585
1.17609
1.17632
)
;
    }
    lowerWall
    {
        type            calculated;
        value           nonuniform List<scalar> 
60
(
1.16337
1.16338
1.16339
1.1634
1.1634
1.1634
1.16341
1.16342
1.16342
1.16342
1.16342
1.16343
1.16344
1.16345
1.16345
1.16346
1.16347
1.16349
1.16351
1.16354
1.16357
1.16361
1.16365
1.16369
1.16373
1.16377
1.16381
1.16385
1.16389
1.16393
1.16398
1.16403
1.16408
1.16413
1.16418
1.16423
1.16429
1.16434
1.1644
1.16446
1.16453
1.16459
1.16466
1.16473
1.1648
1.16487
1.16494
1.16502
1.1651
1.16518
1.16526
1.16534
1.16542
1.16551
1.1656
1.16569
1.16578
1.16588
1.16598
1.16609
)
;
    }
    heatedWall
    {
        type            calculated;
        value           nonuniform List<scalar> 
60
(
0.930517
0.916207
0.90523
0.897086
0.889129
0.881613
0.874764
0.869301
0.865038
0.860708
0.855187
0.848894
0.844627
0.842089
0.839549
0.835761
0.829766
0.820698
0.810009
0.799736
0.790993
0.784017
0.779321
0.776774
0.775514
0.774713
0.774611
0.774732
0.774626
0.774568
0.774595
0.774945
0.775135
0.775559
0.775705
0.775684
0.775783
0.776129
0.776623
0.776782
0.776916
0.777123
0.777633
0.778026
0.778111
0.778354
0.778887
0.779222
0.779265
0.779303
0.779515
0.780062
0.780414
0.780559
0.78085
0.781141
0.780953
0.781156
0.781157
0.780535
)
;
    }
    inlet
    {
        type            calculated;
        value           nonuniform List<scalar> 
12
(
1.16337
1.16334
1.16334
1.16332
1.16332
1.16332
1.16332
1.16332
1.16332
1.16334
1.16334
1.16337
)
;
    }
    outlet
    {
        type            calculated;
        value           nonuniform List<scalar> 
12
(
0.938427
1.1759
1.18608
1.18158
1.18083
1.18052
1.18038
1.18032
1.1803
1.1803
1.1803
1.1795
)
;
    }
    frontAndBack
    {
        type            empty;
    }
}


// ************************************************************************* //
