/*--------------------------------*- C++ -*----------------------------------*\
  =========                 |
  \\      /  F ield         | OpenFOAM: The Open Source CFD Toolbox
   \\    /   O peration     | Website:  https://openfoam.org
    \\  /    A nd           | Version:  7
     \\/     M anipulation  |
\*---------------------------------------------------------------------------*/
FoamFile
{
    version     2.0;
    format      ascii;
    class       volVectorField;
    location    "2.6525";
    object      U_0;
}
// * * * * * * * * * * * * * * * * * * * * * * * * * * * * * * * * * * * * * //

dimensions      [0 1 -1 0 0 0 0];

internalField   nonuniform List<vector> 
7920
(
(2.9301 0.101941 -32.3842)
(2.10518 -0.462144 -32.4384)
(1.39311 -0.616719 -32.44)
(1.2848 -0.672989 -32.4498)
(1.05084 -0.689833 -32.4464)
(1.07698 -0.694807 -32.4524)
(0.936611 -0.698932 -32.4491)
(0.982127 -0.699152 -32.4534)
(0.877364 -0.70139 -32.4507)
(0.922521 -0.701149 -32.4539)
(0.839278 -0.702714 -32.4518)
(0.8802 -0.702206 -32.4542)
(0.81247 -0.703176 -32.4526)
(0.848451 -0.702597 -32.4544)
(0.792631 -0.702952 -32.4534)
(0.823665 -0.703032 -32.4544)
(0.776383 -0.699084 -32.4546)
(0.798077 -0.705596 -32.4539)
(0.763695 -0.64706 -32.4574)
(0.59275 -0.659645 -32.4472)
(4.41135 0.967674 -32.431)
(4.33412 0.873006 -32.476)
(3.68203 0.818745 -32.4801)
(3.53462 0.751723 -32.4934)
(3.13542 0.724076 -32.4934)
(3.1304 0.71074 -32.5008)
(2.8684 0.704242 -32.4998)
(2.91086 0.700813 -32.5044)
(2.71578 0.698762 -32.5036)
(2.76854 0.697081 -32.5065)
(2.61415 0.696 -32.5056)
(2.66629 0.694824 -32.5074)
(2.54072 0.694145 -32.5068)
(2.58893 0.69318 -32.5078)
(2.48506 0.692539 -32.5081)
(2.53006 0.692586 -32.5075)
(2.4377 0.68937 -32.5106)
(2.49896 0.694226 -32.505)
(2.37891 0.684542 -32.5185)
(2.65545 0.676642 -32.4793)
(4.75187 0.193197 -32.4354)
(5.25841 -0.229083 -32.4705)
(5.11408 -0.375204 -32.4627)
(5.22612 -0.493799 -32.4751)
(4.98197 -0.558845 -32.4707)
(5.03242 -0.59561 -32.4805)
(4.81865 -0.620123 -32.4772)
(4.86182 -0.633993 -32.4848)
(4.68599 -0.644609 -32.4823)
(4.72693 -0.651298 -32.4881)
(4.58256 -0.656755 -32.4862)
(4.62075 -0.660788 -32.4902)
(4.50144 -0.663918 -32.4889)
(4.53596 -0.666647 -32.4911)
(4.43762 -0.668732 -32.4912)
(4.46501 -0.669718 -32.4909)
(4.39086 -0.672947 -32.4945)
(4.39138 -0.668832 -32.489)
(4.36567 -0.6697 -32.5009)
(4.27084 -0.690807 -32.4683)
(4.75291 0.649439 -32.4454)
(5.28472 0.749746 -32.4775)
(5.38563 0.797078 -32.4677)
(5.69123 0.76744 -32.4762)
(5.6329 0.74959 -32.4713)
(5.80518 0.735284 -32.4786)
(5.71201 0.724977 -32.4757)
(5.82503 0.716968 -32.4818)
(5.73099 0.710918 -32.48)
(5.81271 0.705321 -32.4847)
(5.72659 0.701375 -32.4839)
(5.78939 0.697205 -32.487)
(5.71264 0.694719 -32.4868)
(5.7638 0.691249 -32.4882)
(5.69433 0.690397 -32.4889)
(5.74165 0.686416 -32.4885)
(5.67159 0.689386 -32.4908)
(5.73351 0.682159 -32.488)
(5.64449 0.696772 -32.493)
(5.78686 0.707238 -32.4665)
(4.74499 -0.0881688 -32.4444)
(5.24822 -0.387217 -32.4763)
(5.40633 -0.479971 -32.4633)
(5.76747 -0.545911 -32.4718)
(5.77866 -0.581861 -32.4641)
(6.0113 -0.601964 -32.4715)
(5.98498 -0.616316 -32.4664)
(6.15081 -0.624337 -32.4726)
(6.11605 -0.63128 -32.4692)
(6.24147 -0.635678 -32.4743)
(6.20591 -0.63989 -32.472)
(6.30371 -0.642937 -32.4758)
(6.2697 -0.646042 -32.4742)
(6.34747 -0.647933 -32.4768)
(6.31631 -0.651493 -32.4758)
(6.37758 -0.650058 -32.4772)
(6.35379 -0.659257 -32.4768)
(6.39259 -0.648082 -32.4773)
(6.38941 -0.671589 -32.4776)
(6.38883 -0.693534 -32.4552)
(4.73247 0.352128 -32.4481)
(5.19155 0.55726 -32.4806)
(5.35968 0.635768 -32.4674)
(5.73627 0.655994 -32.4759)
(5.77132 0.666277 -32.4676)
(6.02771 0.669632 -32.475)
(6.02817 0.671822 -32.4693)
(6.21855 0.671936 -32.4753)
(6.21113 0.672277 -32.4714)
(6.36006 0.671535 -32.4763)
(6.35062 0.671417 -32.4735)
(6.46987 0.670538 -32.4773)
(6.45952 0.67058 -32.4752)
(6.55653 0.669315 -32.478)
(6.54528 0.670676 -32.4763)
(6.62562 0.667051 -32.4782)
(6.61416 0.674423 -32.477)
(6.68192 0.663404 -32.4782)
(6.67477 0.686913 -32.4773)
(6.74005 0.70909 -32.4546)
(4.73247 -0.352128 -32.4481)
(5.19155 -0.55726 -32.4806)
(5.35968 -0.635768 -32.4674)
(5.73627 -0.655994 -32.4759)
(5.77132 -0.666277 -32.4676)
(6.02771 -0.669631 -32.475)
(6.02817 -0.671821 -32.4693)
(6.21855 -0.671932 -32.4753)
(6.21113 -0.672273 -32.4714)
(6.36006 -0.671527 -32.4763)
(6.35063 -0.671401 -32.4735)
(6.46987 -0.670516 -32.4774)
(6.45954 -0.670535 -32.4752)
(6.55652 -0.669235 -32.478)
(6.54537 -0.670585 -32.4763)
(6.62557 -0.666743 -32.4782)
(6.61437 -0.674279 -32.4769)
(6.68177 -0.66246 -32.4783)
(6.67508 -0.686399 -32.4773)
(6.73975 -0.707304 -32.4546)
(4.74499 0.0881687 -32.4444)
(5.24822 0.387217 -32.4763)
(5.40633 0.479971 -32.4633)
(5.76747 0.545911 -32.4718)
(5.77866 0.581861 -32.4641)
(6.0113 0.601965 -32.4715)
(5.98498 0.616317 -32.4664)
(6.15082 0.62434 -32.4727)
(6.11605 0.631284 -32.4692)
(6.24148 0.635684 -32.4743)
(6.2059 0.639907 -32.4719)
(6.30375 0.642953 -32.4759)
(6.26967 0.646091 -32.4741)
(6.34758 0.647997 -32.477)
(6.31628 0.651594 -32.4755)
(6.37785 0.65033 -32.4775)
(6.35386 0.659418 -32.4764)
(6.39327 0.648997 -32.4778)
(6.39004 0.672088 -32.4772)
(6.39064 0.695467 -32.4556)
(4.75291 -0.649439 -32.4454)
(5.28472 -0.749746 -32.4775)
(5.38563 -0.797078 -32.4677)
(5.69123 -0.767439 -32.4762)
(5.6329 -0.74959 -32.4713)
(5.80518 -0.735283 -32.4787)
(5.71201 -0.724977 -32.4757)
(5.82503 -0.716964 -32.4818)
(5.73099 -0.710915 -32.48)
(5.81272 -0.705313 -32.4848)
(5.72659 -0.701364 -32.4837)
(5.78943 -0.697182 -32.4872)
(5.71266 -0.694688 -32.4865)
(5.76392 -0.691172 -32.4886)
(5.69444 -0.690343 -32.4882)
(5.74192 -0.686137 -32.4895)
(5.67206 -0.689339 -32.4893)
(5.73403 -0.681345 -32.4901)
(5.64584 -0.69652 -32.4902)
(5.78804 -0.705904 -32.4699)
(4.75187 -0.193197 -32.4354)
(5.25841 0.229083 -32.4705)
(5.11408 0.375204 -32.4627)
(5.22612 0.493799 -32.4751)
(4.98197 0.558845 -32.4707)
(5.03242 0.595611 -32.4805)
(4.81865 0.620124 -32.4772)
(4.86183 0.633994 -32.4849)
(4.68599 0.644614 -32.4823)
(4.72696 0.651299 -32.4882)
(4.58256 0.65677 -32.486)
(4.62083 0.660789 -32.4904)
(4.50144 0.663959 -32.4885)
(4.53619 0.666663 -32.4917)
(4.43767 0.668816 -32.4902)
(4.46562 0.669838 -32.4927)
(4.39121 0.673082 -32.4917)
(4.39291 0.669363 -32.4938)
(4.36719 0.67005 -32.4932)
(4.27535 0.692029 -32.4802)
(4.41135 -0.967674 -32.431)
(4.33412 -0.873006 -32.476)
(3.68203 -0.818745 -32.4801)
(3.53462 -0.751723 -32.4934)
(3.13542 -0.724076 -32.4934)
(3.1304 -0.71074 -32.5008)
(2.8684 -0.704243 -32.4998)
(2.91087 -0.700811 -32.5044)
(2.71578 -0.698762 -32.5036)
(2.76855 -0.697077 -32.5066)
(2.61417 -0.695998 -32.5055)
(2.66635 -0.694811 -32.5076)
(2.54077 -0.694139 -32.5066)
(2.58911 -0.693134 -32.5082)
(2.48523 -0.692537 -32.5074)
(2.53045 -0.692422 -32.5087)
(2.4384 -0.689449 -32.5083)
(2.49956 -0.693785 -32.5095)
(2.3813 -0.684828 -32.5089)
(2.65596 -0.676797 -32.5004)
(2.9301 -0.101941 -32.3842)
(2.10518 0.462144 -32.4384)
(1.39311 0.616719 -32.44)
(1.2848 0.672989 -32.4498)
(1.05084 0.689834 -32.4464)
(1.07698 0.694806 -32.4524)
(0.936612 0.698932 -32.4491)
(0.98213 0.699151 -32.4534)
(0.877368 0.701392 -32.4507)
(0.92253 0.701146 -32.454)
(0.839286 0.702718 -32.4518)
(0.880231 0.702196 -32.4543)
(0.812489 0.703186 -32.4525)
(0.848546 0.702566 -32.4545)
(0.792697 0.702984 -32.4532)
(0.82389 0.702944 -32.4548)
(0.776702 0.699215 -32.4539)
(0.798524 0.705441 -32.4552)
(0.764972 0.64772 -32.4545)
(0.594834 0.660436 -32.4549)
(4.32477 0.566025 0.00693252)
(3.07942 0.847749 0.00446503)
(2.31547 0.869673 0.00573782)
(1.74874 0.852921 0.00426178)
(1.61065 0.855675 0.00540744)
(1.40699 0.867538 0.00423949)
(1.40044 0.877555 0.00519531)
(1.27889 0.885666 0.00421498)
(1.28615 0.889958 0.00499721)
(1.20035 0.893637 0.00417021)
(1.20855 0.895384 0.00481169)
(1.14596 0.897432 0.00411752)
(1.15255 0.898202 0.00464455)
(1.10492 0.899662 0.0040638)
(1.11037 0.8995 0.004496)
(1.07069 0.901896 0.0040103)
(1.07798 0.894388 0.00436526)
(1.05523 0.916177 0.00395454)
(1.01066 0.792462 0.00427717)
(1.45315 0.820009 0.00384492)
(4.75887 -0.100032 0.00435612)
(4.61229 -0.277185 0.00232331)
(4.52661 -0.477329 0.00362714)
(4.1447 -0.643386 0.00218475)
(4.00246 -0.739846 0.00333862)
(3.72455 -0.795238 0.00217613)
(3.65077 -0.822781 0.00313586)
(3.46397 -0.839907 0.00215811)
(3.42414 -0.850172 0.0029431)
(3.2918 -0.857963 0.00211779)
(3.26635 -0.863287 0.00276116)
(3.16851 -0.867762 0.0020679)
(3.14962 -0.870662 0.00259623)
(3.07386 -0.87395 0.00201602)
(3.05993 -0.874585 0.0024487)
(2.99449 -0.879105 0.001964)
(2.99468 -0.875913 0.0023143)
(2.90957 -0.883031 0.00191182)
(2.98522 -0.886519 0.002167)
(2.58323 -0.894654 0.00178918)
(4.6376 0.435288 0.00565453)
(4.82679 0.871424 0.00369861)
(5.14264 0.969651 0.00488452)
(5.08335 0.9605 0.00340197)
(5.14544 0.942385 0.00453015)
(5.01021 0.929234 0.00335509)
(5.01638 0.919912 0.00430898)
(4.89762 0.914101 0.00332776)
(4.89216 0.9077 0.004111)
(4.79622 0.904121 0.00328383)
(4.7859 0.899605 0.00392599)
(4.70898 0.897495 0.00323133)
(4.69602 0.894549 0.00375855)
(4.63457 0.893068 0.00317711)
(4.61852 0.891576 0.00360939)
(4.57342 0.889442 0.0031229)
(4.54432 0.888328 0.00347872)
(4.53949 0.888281 0.00306626)
(4.4592 0.849344 0.00339008)
(4.57736 0.890012 0.00298014)
(4.57576 -0.201727 0.00447565)
(4.70025 -0.39826 0.00273903)
(5.13123 -0.518977 0.00392942)
(5.23155 -0.62375 0.00247583)
(5.44896 -0.691606 0.00360545)
(5.45027 -0.738841 0.00243455)
(5.5621 -0.765539 0.00339123)
(5.53681 -0.784934 0.00241321)
(5.60132 -0.797556 0.0031991)
(5.57069 -0.808086 0.00237491)
(5.60899 -0.815879 0.00301894)
(5.57912 -0.822674 0.0023265)
(5.60178 -0.827964 0.00285485)
(5.5743 -0.832679 0.00227515)
(5.58785 -0.836606 0.00270746)
(5.56089 -0.839371 0.00222315)
(5.57321 -0.846536 0.00257237)
(5.52985 -0.840905 0.00216906)
(5.5693 -0.876377 0.00242218)
(5.37457 -0.897581 0.00207202)
(4.58883 0.341476 0.00512903)
(4.69629 0.688447 0.00343213)
(5.10722 0.803402 0.00457523)
(5.22837 0.844976 0.00310772)
(5.486 0.862073 0.00422467)
(5.53636 0.871846 0.00304716)
(5.69901 0.875638 0.0040006)
(5.72619 0.878183 0.00302037)
(5.83931 0.8775 0.00380528)
(5.85674 0.877647 0.00297997)
(5.93752 0.876022 0.00362338)
(5.9491 0.875652 0.00293016)
(6.00735 0.874268 0.00345797)
(6.01568 0.873465 0.00287763)
(6.05665 0.873335 0.00330983)
(6.0658 0.870333 0.00282452)
(6.08778 0.874696 0.00317803)
(6.10614 0.866296 0.00276839)
(6.10598 0.870346 0.00307307)
(6.10448 0.916951 0.00269756)
(4.58278 -0.269111 0.00475811)
(4.66809 -0.539403 0.00312556)
(5.0739 -0.653884 0.00426784)
(5.19638 -0.72476 0.00280737)
(5.46547 -0.765302 0.0039225)
(5.53097 -0.793004 0.00274493)
(5.71162 -0.80768 0.00369828)
(5.75816 -0.818449 0.00271831)
(5.89134 -0.824244 0.00350362)
(5.92951 -0.829599 0.00267887)
(6.03066 -0.832775 0.00332267)
(6.06242 -0.836133 0.00262997)
(6.1403 -0.838415 0.00315804)
(6.16657 -0.840403 0.00257819)
(6.22708 -0.843143 0.00301027)
(6.24819 -0.842131 0.00252576)
(6.29588 -0.85097 0.00287634)
(6.30391 -0.840301 0.00247035)
(6.35454 -0.871009 0.00274615)
(6.26904 -0.905894 0.00239438)
(4.58278 0.269111 0.00475811)
(4.66809 0.539404 0.00312556)
(5.0739 0.653884 0.00426784)
(5.19638 0.72476 0.00280736)
(5.46547 0.765302 0.0039225)
(5.53097 0.793005 0.00274493)
(5.71162 0.807681 0.00369828)
(5.75817 0.818453 0.0027183)
(5.89134 0.824249 0.00350362)
(5.92951 0.829609 0.00267886)
(6.03065 0.832791 0.00332268)
(6.06244 0.836163 0.00262995)
(6.14027 0.83846 0.00315806)
(6.16663 0.840497 0.00257813)
(6.22701 0.843262 0.00301033)
(6.24838 0.842416 0.0025256)
(6.29575 0.851309 0.00287658)
(6.30453 0.841102 0.00246997)
(6.35478 0.871979 0.00274726)
(6.27015 0.907989 0.002394)
(4.58883 -0.341476 0.00512903)
(4.69629 -0.688447 0.00343213)
(5.10722 -0.803402 0.00457523)
(5.22837 -0.844976 0.00310772)
(5.486 -0.862073 0.00422467)
(5.53636 -0.871844 0.00304716)
(5.69901 -0.875637 0.0040006)
(5.72619 -0.878179 0.00302038)
(5.83931 -0.877496 0.00380527)
(5.85675 -0.877635 0.00297998)
(5.93753 -0.876009 0.00362337)
(5.94911 -0.875618 0.00293018)
(6.00738 -0.874234 0.00345794)
(6.0157 -0.87336 0.0028777)
(6.05677 -0.873251 0.00330973)
(6.06581 -0.870032 0.0028247)
(6.08817 -0.874466 0.0031777)
(6.10602 -0.865594 0.0027687)
(6.10675 -0.869646 0.00307194)
(6.10462 -0.915101 0.00269752)
(4.57576 0.201727 0.00447565)
(4.70025 0.39826 0.00273903)
(5.13123 0.518977 0.00392942)
(5.23155 0.62375 0.00247583)
(5.44896 0.691607 0.00360545)
(5.45028 0.738842 0.00243455)
(5.5621 0.76554 0.00339123)
(5.53682 0.784936 0.00241321)
(5.60132 0.797562 0.0031991)
(5.57071 0.808092 0.00237491)
(5.60898 0.815896 0.00301894)
(5.57919 0.822692 0.0023265)
(5.60177 0.828011 0.00285485)
(5.57447 0.83274 0.00227514)
(5.58786 0.836732 0.00270745)
(5.56136 0.839568 0.0022231)
(5.57339 0.8469 0.00257246)
(5.53119 0.841574 0.00216888)
(5.57034 0.877414 0.00242313)
(5.37813 0.899442 0.00207169)
(4.6376 -0.435288 0.00565453)
(4.82679 -0.871424 0.00369861)
(5.14264 -0.969651 0.00488452)
(5.08335 -0.9605 0.00340197)
(5.14544 -0.942385 0.00453014)
(5.01021 -0.929232 0.00335509)
(5.01638 -0.919912 0.00430898)
(4.89763 -0.914098 0.00332777)
(4.89217 -0.907699 0.00411098)
(4.79624 -0.904111 0.00328385)
(4.78591 -0.899598 0.00392597)
(4.70905 -0.897468 0.00323138)
(4.69606 -0.894534 0.00375848)
(4.63474 -0.892981 0.00317723)
(4.61869 -0.891552 0.00360918)
(4.57383 -0.8892 0.00312321)
(4.54491 -0.888289 0.00347812)
(4.54043 -0.887813 0.00306689)
(4.46073 -0.849211 0.00338846)
(4.57992 -0.889352 0.00298052)
(4.75887 0.100032 0.00435612)
(4.61229 0.277185 0.00232331)
(4.5266 0.477329 0.00362714)
(4.1447 0.643386 0.00218475)
(4.00246 0.739846 0.00333862)
(3.72456 0.795238 0.00217613)
(3.65077 0.822782 0.00313586)
(3.46398 0.839907 0.00215812)
(3.42414 0.850176 0.00294309)
(3.29183 0.857962 0.00211779)
(3.26636 0.863299 0.00276116)
(3.1686 0.867759 0.00206791)
(3.14965 0.870695 0.00259621)
(3.07411 0.87394 0.00201605)
(3.06006 0.874683 0.00244864)
(2.99517 0.879088 0.00196408)
(2.99506 0.876206 0.00231415)
(2.91171 0.883166 0.00191202)
(2.98596 0.887399 0.00216707)
(2.59143 0.896178 0.00178982)
(4.32477 -0.566025 0.00693252)
(3.07942 -0.847749 0.00446503)
(2.31548 -0.869673 0.00573782)
(1.74874 -0.85292 0.00426178)
(1.61065 -0.855675 0.00540743)
(1.40699 -0.867537 0.00423949)
(1.40044 -0.877555 0.00519531)
(1.27889 -0.885665 0.00421498)
(1.28615 -0.889959 0.00499721)
(1.20037 -0.893633 0.00417022)
(1.20857 -0.895388 0.00481167)
(1.146 -0.897418 0.00411755)
(1.1526 -0.898214 0.00464452)
(1.10504 -0.899616 0.00406388)
(1.11054 -0.89955 0.00449588)
(1.07098 -0.90176 0.00401054)
(1.0785 -0.8946 0.00436483)
(1.05587 -0.91595 0.00395519)
(1.01226 -0.793567 0.00427545)
(1.45364 -0.821444 0.00384806)
(4.37834 0.0972622 0.00137743)
(3.96673 0.149133 0.00192127)
(3.43121 0.163056 0.000966565)
(2.95373 0.156804 0.00150952)
(2.54123 0.14519 0.000986259)
(2.23747 0.136587 0.00140305)
(2.01322 0.131589 0.00105917)
(1.86088 0.131222 0.00132175)
(1.75835 0.133607 0.00108979)
(1.68488 0.138095 0.00124395)
(1.63905 0.143119 0.00110043)
(1.59807 0.148514 0.00118276)
(1.57535 0.153121 0.00110826)
(1.54771 0.157984 0.00114136)
(1.53369 0.160734 0.00112048)
(1.51537 0.166007 0.00111675)
(1.49867 0.164429 0.001142)
(1.50203 0.174624 0.00110324)
(1.45527 0.160073 0.00115627)
(1.53064 0.167141 0.00117274)
(4.54135 0.0879683 0.0031697)
(4.6783 0.119588 0.00389287)
(4.72064 0.120962 0.00293228)
(4.70916 0.0946703 0.0034509)
(4.6317 0.0564338 0.00290348)
(4.5359 0.0139204 0.00330636)
(4.42808 -0.0241722 0.00295395)
(4.32276 -0.0568894 0.00321292)
(4.22676 -0.0818345 0.00297849)
(4.13483 -0.101674 0.00313196)
(4.05771 -0.116098 0.00298751)
(3.98137 -0.127731 0.00306973)
(3.92091 -0.136212 0.00299487)
(3.85818 -0.143447 0.0030277)
(3.81128 -0.148818 0.00300726)
(3.76016 -0.15335 0.00300235)
(3.72322 -0.157818 0.00303152)
(3.68463 -0.159472 0.00298664)
(3.64938 -0.165544 0.00308306)
(3.62973 -0.171101 0.00308855)
(4.51664 0.0458437 0.0017346)
(4.65639 0.110588 0.00234186)
(4.7888 0.163031 0.00141282)
(4.93747 0.191512 0.00193506)
(5.04524 0.201833 0.00139377)
(5.12961 0.202715 0.00180337)
(5.1803 0.199452 0.00145922)
(5.20933 0.19641 0.00172332)
(5.22323 0.194515 0.00149425)
(5.22338 0.194073 0.00164973)
(5.22023 0.19446 0.00150803)
(5.20826 0.195365 0.0015907)
(5.19762 0.196059 0.00151711)
(5.18209 0.197216 0.00155013)
(5.16703 0.196677 0.00152947)
(5.1537 0.199268 0.00152631)
(5.13303 0.194106 0.00154854)
(5.12831 0.204029 0.00151884)
(5.09696 0.184056 0.00154552)
(5.10637 0.208086 0.00157988)
(4.51267 0.0442507 0.00275316)
(4.62189 0.0509549 0.00347046)
(4.74637 0.0466987 0.00256642)
(4.90623 0.0291823 0.0030943)
(5.04622 0.00694048 0.00253908)
(5.17888 -0.0182459 0.00293711)
(5.28593 -0.0421246 0.00258217)
(5.37552 -0.0637135 0.00284121)
(5.44975 -0.0813852 0.00260772)
(5.50938 -0.0959876 0.00276157)
(5.56317 -0.107499 0.00261778)
(5.60575 -0.116802 0.00269982)
(5.6473 -0.124534 0.00262503)
(5.67993 -0.130438 0.00265762)
(5.71326 -0.136507 0.00263659)
(5.73919 -0.139455 0.0026328)
(5.76745 -0.146304 0.00265871)
(5.78557 -0.144999 0.00262526)
(5.81524 -0.155007 0.00271266)
(5.8132 -0.153183 0.00271795)
(4.51379 0.0166259 0.00205254)
(4.62306 0.0557464 0.00272415)
(4.74054 0.0915234 0.00182964)
(4.89437 0.117207 0.00234847)
(5.03214 0.133541 0.00179099)
(5.16858 0.144644 0.00218914)
(5.28424 0.152405 0.0018369)
(5.38689 0.159119 0.00209815)
(5.4771 0.164982 0.00186736)
(5.55523 0.170538 0.00202249)
(5.62936 0.175368 0.00188041)
(5.6935 0.17978 0.00196299)
(5.7582 0.183141 0.00188924)
(5.81372 0.18655 0.00192217)
(5.87243 0.187932 0.00190148)
(5.92026 0.191797 0.00189869)
(5.97759 0.189013 0.00192041)
(6.01119 0.198303 0.00189539)
(6.0819 0.184372 0.00193117)
(6.07812 0.209368 0.00196379)
(4.51253 0.0119438 0.00238558)
(4.6152 -0.00400699 0.00308646)
(4.73127 -0.0234265 0.00219978)
(4.88338 -0.0448959 0.00272461)
(5.02028 -0.0640092 0.00216575)
(5.15659 -0.0818296 0.00256225)
(5.27335 -0.0973499 0.00220754)
(5.37823 -0.111118 0.00246776)
(5.47202 -0.122615 0.00223589)
(5.5545 -0.132356 0.00239071)
(5.63444 -0.140338 0.00224811)
(5.70443 -0.146867 0.00233054)
(5.77711 -0.152347 0.00225649)
(5.83908 -0.156586 0.00228924)
(5.90842 -0.160494 0.00226853)
(5.9616 -0.163172 0.00226546)
(6.03387 -0.165898 0.00228916)
(6.06834 -0.168509 0.00226265)
(6.16177 -0.167884 0.00232672)
(6.14982 -0.177443 0.00234237)
(4.51253 -0.011944 0.00238558)
(4.6152 0.00400732 0.00308646)
(4.73127 0.0234263 0.00219978)
(4.88338 0.0448968 0.00272461)
(5.02028 0.064009 0.00216575)
(5.15659 0.0818316 0.00256225)
(5.27335 0.0973507 0.00220754)
(5.37823 0.111123 0.00246776)
(5.47202 0.122619 0.00223589)
(5.5545 0.132368 0.00239072)
(5.63443 0.140351 0.0022481)
(5.70444 0.146902 0.00233056)
(5.77711 0.152381 0.00225647)
(5.83909 0.156695 0.0022893)
(5.90842 0.160567 0.00226846)
(5.96162 0.16349 0.0022656)
(6.03389 0.166089 0.00228884)
(6.06841 0.169297 0.00226288)
(6.16189 0.168588 0.00232496)
(6.15006 0.179045 0.00234274)
(4.51379 -0.016626 0.00205254)
(4.62306 -0.0557461 0.00272415)
(4.74054 -0.0915237 0.00182964)
(4.89437 -0.117206 0.00234847)
(5.03214 -0.133541 0.00179099)
(5.16858 -0.144642 0.00218914)
(5.28424 -0.152405 0.0018369)
(5.38689 -0.159114 0.00209815)
(5.4771 -0.164979 0.00186736)
(5.55523 -0.170526 0.00202248)
(5.62936 -0.175355 0.00188041)
(5.6935 -0.179744 0.00196297)
(5.75822 -0.183109 0.00188926)
(5.81372 -0.186442 0.00192212)
(5.8725 -0.187864 0.00190154)
(5.92027 -0.191483 0.00189856)
(5.97779 -0.188837 0.00192066)
(6.01126 -0.197539 0.00189515)
(6.08234 -0.183723 0.0019326)
(6.07847 -0.207881 0.00196341)
(4.51267 -0.0442508 0.00275316)
(4.62189 -0.0509546 0.00347046)
(4.74637 -0.0466989 0.00256642)
(4.90623 -0.0291815 0.0030943)
(5.04622 -0.00694058 0.00253908)
(5.17888 0.0182477 0.00293711)
(5.28593 0.0421253 0.00258217)
(5.37553 0.0637177 0.00284122)
(5.44975 0.0813894 0.00260772)
(5.5094 0.0959982 0.00276159)
(5.56316 0.107513 0.00261777)
(5.60578 0.116832 0.00269984)
(5.64731 0.124567 0.00262499)
(5.68001 0.130534 0.00265768)
(5.71333 0.136575 0.00263649)
(5.73936 0.139742 0.00263292)
(5.76773 0.146471 0.00265834)
(5.786 0.14573 0.00262547)
(5.81614 0.15562 0.00271096)
(5.81444 0.154698 0.00271794)
(4.51664 -0.0458437 0.0017346)
(4.65639 -0.110587 0.00234186)
(4.78879 -0.163031 0.00141282)
(4.93747 -0.191512 0.00193506)
(5.04524 -0.201833 0.00139377)
(5.12961 -0.202714 0.00180337)
(5.18029 -0.199451 0.00145921)
(5.20934 -0.196405 0.00172332)
(5.22322 -0.194512 0.00149424)
(5.22341 -0.194062 0.00164974)
(5.22022 -0.194451 0.00150802)
(5.20834 -0.195335 0.00159071)
(5.19761 -0.196037 0.00151709)
(5.18228 -0.197125 0.00155013)
(5.16711 -0.196636 0.00152945)
(5.15412 -0.19901 0.00152629)
(5.13343 -0.19401 0.00154857)
(5.12924 -0.20342 0.00151881)
(5.09831 -0.183662 0.00154612)
(5.10861 -0.207079 0.00157983)
(4.54135 -0.0879682 0.0031697)
(4.6783 -0.119588 0.00389287)
(4.72064 -0.120962 0.00293228)
(4.70916 -0.0946701 0.0034509)
(4.63169 -0.0564334 0.00290348)
(4.5359 -0.0139198 0.00330637)
(4.42808 0.0241735 0.00295394)
(4.32277 0.0568908 0.00321294)
(4.22676 0.0818388 0.00297847)
(4.13488 0.101678 0.00313199)
(4.0577 0.11611 0.00298746)
(3.9815 0.127742 0.00306981)
(3.9209 0.136238 0.00299474)
(3.85851 0.143489 0.00302791)
(3.81133 0.148866 0.00300691)
(3.76096 0.15349 0.00300288)
(3.72353 0.157917 0.00303054)
(3.68656 0.159851 0.00298795)
(3.65047 0.16589 0.00308011)
(3.63458 0.171887 0.00309126)
(4.37834 -0.0972622 0.00137743)
(3.96673 -0.149133 0.00192127)
(3.43121 -0.163056 0.000966565)
(2.95373 -0.156804 0.00150952)
(2.54123 -0.14519 0.000986259)
(2.23747 -0.136587 0.00140305)
(2.01322 -0.131588 0.00105917)
(1.86089 -0.131221 0.00132175)
(1.75837 -0.133606 0.00108979)
(1.68491 -0.138093 0.00124396)
(1.63908 -0.143117 0.00110042)
(1.59815 -0.148509 0.00118276)
(1.57542 -0.153118 0.00110826)
(1.54792 -0.157967 0.00114136)
(1.53393 -0.160736 0.00112045)
(1.51583 -0.165952 0.0011168)
(1.49942 -0.164454 0.00114181)
(1.50318 -0.174496 0.00110355)
(1.4569 -0.160156 0.00115537)
(1.5349 -0.167272 0.00117433)
(4.37834 0.0972622 -0.00137743)
(3.96673 0.149133 -0.00192127)
(3.43121 0.163056 -0.000966571)
(2.95373 0.156804 -0.00150953)
(2.54123 0.14519 -0.000986264)
(2.23747 0.136587 -0.00140305)
(2.01322 0.131589 -0.00105917)
(1.86088 0.131222 -0.00132175)
(1.75835 0.133607 -0.00108979)
(1.68488 0.138095 -0.00124396)
(1.63905 0.143119 -0.00110043)
(1.59807 0.148514 -0.00118277)
(1.57535 0.153121 -0.00110827)
(1.54771 0.157984 -0.00114136)
(1.53369 0.160734 -0.00112048)
(1.51537 0.166007 -0.00111676)
(1.49867 0.164429 -0.00114201)
(1.50203 0.174624 -0.00110324)
(1.45527 0.160073 -0.00115628)
(1.53064 0.167141 -0.00117274)
(4.54135 0.0879683 -0.0031697)
(4.6783 0.119588 -0.00389288)
(4.72064 0.120962 -0.00293229)
(4.70916 0.0946703 -0.0034509)
(4.6317 0.0564338 -0.00290349)
(4.5359 0.0139204 -0.00330637)
(4.42808 -0.0241722 -0.00295396)
(4.32276 -0.0568894 -0.00321293)
(4.22676 -0.0818345 -0.00297849)
(4.13483 -0.101674 -0.00313196)
(4.05771 -0.116098 -0.00298752)
(3.98137 -0.127731 -0.00306973)
(3.92091 -0.136212 -0.00299487)
(3.85818 -0.143447 -0.00302771)
(3.81128 -0.148818 -0.00300726)
(3.76016 -0.15335 -0.00300236)
(3.72322 -0.157818 -0.00303152)
(3.68463 -0.159472 -0.00298665)
(3.64938 -0.165544 -0.00308306)
(3.62973 -0.171101 -0.00308855)
(4.51664 0.0458437 -0.00173461)
(4.65639 0.110588 -0.00234187)
(4.7888 0.163031 -0.00141282)
(4.93747 0.191512 -0.00193506)
(5.04524 0.201833 -0.00139378)
(5.12961 0.202715 -0.00180337)
(5.1803 0.199452 -0.00145922)
(5.20933 0.19641 -0.00172332)
(5.22323 0.194515 -0.00149426)
(5.22338 0.194073 -0.00164973)
(5.22023 0.19446 -0.00150803)
(5.20826 0.195365 -0.0015907)
(5.19762 0.196059 -0.00151711)
(5.18209 0.197216 -0.00155013)
(5.16703 0.196677 -0.00152948)
(5.1537 0.199268 -0.00152632)
(5.13303 0.194106 -0.00154855)
(5.12831 0.204029 -0.00151884)
(5.09696 0.184056 -0.00154552)
(5.10636 0.208086 -0.00157988)
(4.51267 0.0442507 -0.00275317)
(4.62189 0.0509549 -0.00347046)
(4.74637 0.0466987 -0.00256643)
(4.90623 0.0291822 -0.0030943)
(5.04622 0.00694048 -0.00253909)
(5.17887 -0.0182459 -0.00293711)
(5.28593 -0.0421246 -0.00258218)
(5.37552 -0.0637135 -0.00284122)
(5.44975 -0.0813852 -0.00260773)
(5.50938 -0.0959876 -0.00276158)
(5.56317 -0.107499 -0.00261779)
(5.60575 -0.116802 -0.00269982)
(5.6473 -0.124534 -0.00262503)
(5.67993 -0.130438 -0.00265763)
(5.71326 -0.136507 -0.0026366)
(5.73919 -0.139455 -0.00263281)
(5.76745 -0.146304 -0.00265872)
(5.78557 -0.144999 -0.00262526)
(5.81524 -0.155007 -0.00271267)
(5.8132 -0.153183 -0.00271795)
(4.51379 0.0166259 -0.00205255)
(4.62306 0.0557464 -0.00272416)
(4.74054 0.0915234 -0.00182965)
(4.89437 0.117207 -0.00234847)
(5.03214 0.133541 -0.001791)
(5.16858 0.144644 -0.00218915)
(5.28424 0.152405 -0.0018369)
(5.38689 0.159119 -0.00209815)
(5.4771 0.164982 -0.00186737)
(5.55523 0.170538 -0.00202249)
(5.62936 0.175368 -0.00188041)
(5.6935 0.17978 -0.001963)
(5.7582 0.183141 -0.00188925)
(5.81372 0.18655 -0.00192218)
(5.87243 0.187932 -0.00190148)
(5.92026 0.191797 -0.0018987)
(5.97759 0.189013 -0.00192041)
(6.01119 0.198303 -0.00189539)
(6.0819 0.184372 -0.00193117)
(6.07812 0.209368 -0.0019638)
(4.51253 0.0119438 -0.00238559)
(4.6152 -0.00400699 -0.00308646)
(4.73127 -0.0234265 -0.00219978)
(4.88338 -0.0448959 -0.00272461)
(5.02028 -0.0640092 -0.00216575)
(5.15659 -0.0818296 -0.00256226)
(5.27335 -0.0973499 -0.00220755)
(5.37823 -0.111118 -0.00246777)
(5.47202 -0.122615 -0.0022359)
(5.5545 -0.132356 -0.00239071)
(5.63444 -0.140338 -0.00224811)
(5.70443 -0.146867 -0.00233055)
(5.77711 -0.152347 -0.0022565)
(5.83908 -0.156586 -0.00228925)
(5.90842 -0.160494 -0.00226854)
(5.9616 -0.163172 -0.00226547)
(6.03387 -0.165898 -0.00228916)
(6.06834 -0.168509 -0.00226265)
(6.16177 -0.167884 -0.00232672)
(6.14982 -0.177443 -0.00234237)
(4.51253 -0.011944 -0.00238559)
(4.6152 0.00400732 -0.00308646)
(4.73127 0.0234263 -0.00219978)
(4.88338 0.0448968 -0.00272461)
(5.02028 0.064009 -0.00216575)
(5.15659 0.0818316 -0.00256226)
(5.27335 0.0973507 -0.00220755)
(5.37823 0.111123 -0.00246777)
(5.47202 0.122619 -0.00223589)
(5.5545 0.132368 -0.00239072)
(5.63443 0.140351 -0.00224811)
(5.70444 0.146902 -0.00233057)
(5.77711 0.152381 -0.00225648)
(5.83909 0.156695 -0.0022893)
(5.90842 0.160567 -0.00226847)
(5.96162 0.16349 -0.0022656)
(6.03389 0.166089 -0.00228884)
(6.06841 0.169297 -0.00226289)
(6.16189 0.168588 -0.00232496)
(6.15006 0.179045 -0.00234274)
(4.51379 -0.016626 -0.00205255)
(4.62306 -0.0557461 -0.00272416)
(4.74054 -0.0915237 -0.00182965)
(4.89437 -0.117206 -0.00234847)
(5.03214 -0.133541 -0.001791)
(5.16858 -0.144642 -0.00218915)
(5.28424 -0.152405 -0.0018369)
(5.38689 -0.159114 -0.00209815)
(5.4771 -0.164979 -0.00186737)
(5.55523 -0.170526 -0.00202249)
(5.62936 -0.175355 -0.00188042)
(5.6935 -0.179744 -0.00196298)
(5.75822 -0.183109 -0.00188927)
(5.81372 -0.186442 -0.00192213)
(5.8725 -0.187864 -0.00190154)
(5.92027 -0.191483 -0.00189856)
(5.97779 -0.188837 -0.00192067)
(6.01126 -0.197539 -0.00189515)
(6.08234 -0.183723 -0.00193261)
(6.07847 -0.207881 -0.00196341)
(4.51267 -0.0442508 -0.00275317)
(4.62189 -0.0509546 -0.00347046)
(4.74637 -0.0466989 -0.00256643)
(4.90623 -0.0291815 -0.0030943)
(5.04622 -0.00694058 -0.00253909)
(5.17888 0.0182477 -0.00293712)
(5.28593 0.0421253 -0.00258217)
(5.37553 0.0637177 -0.00284122)
(5.44975 0.0813894 -0.00260772)
(5.5094 0.0959982 -0.00276159)
(5.56316 0.107513 -0.00261777)
(5.60578 0.116832 -0.00269985)
(5.64731 0.124567 -0.00262499)
(5.68001 0.130534 -0.00265768)
(5.71333 0.136575 -0.0026365)
(5.73936 0.139742 -0.00263292)
(5.76773 0.146471 -0.00265835)
(5.786 0.14573 -0.00262548)
(5.81614 0.15562 -0.00271096)
(5.81444 0.154698 -0.00271794)
(4.51664 -0.0458437 -0.00173461)
(4.65639 -0.110587 -0.00234187)
(4.78879 -0.163031 -0.00141282)
(4.93747 -0.191512 -0.00193506)
(5.04524 -0.201833 -0.00139378)
(5.12961 -0.202714 -0.00180338)
(5.18029 -0.199451 -0.00145922)
(5.20934 -0.196406 -0.00172333)
(5.22322 -0.194512 -0.00149425)
(5.22341 -0.194062 -0.00164974)
(5.22022 -0.194451 -0.00150802)
(5.20834 -0.195335 -0.00159072)
(5.19761 -0.196037 -0.0015171)
(5.18228 -0.197125 -0.00155014)
(5.16711 -0.196636 -0.00152946)
(5.15412 -0.19901 -0.0015263)
(5.13343 -0.19401 -0.00154858)
(5.12924 -0.20342 -0.00151882)
(5.09831 -0.183662 -0.00154613)
(5.10861 -0.207079 -0.00157984)
(4.54135 -0.0879682 -0.0031697)
(4.6783 -0.119588 -0.00389288)
(4.72064 -0.120962 -0.00293229)
(4.70916 -0.0946701 -0.0034509)
(4.63169 -0.0564334 -0.00290349)
(4.5359 -0.0139198 -0.00330638)
(4.42808 0.0241735 -0.00295395)
(4.32277 0.0568908 -0.00321295)
(4.22676 0.0818388 -0.00297847)
(4.13488 0.101678 -0.003132)
(4.0577 0.11611 -0.00298746)
(3.9815 0.127742 -0.00306982)
(3.9209 0.136238 -0.00299474)
(3.85851 0.143489 -0.00302792)
(3.81133 0.148866 -0.00300692)
(3.76096 0.15349 -0.00300288)
(3.72353 0.157917 -0.00303055)
(3.68656 0.159851 -0.00298795)
(3.65047 0.16589 -0.00308011)
(3.63458 0.171887 -0.00309126)
(4.37834 -0.0972622 -0.00137743)
(3.96673 -0.149133 -0.00192127)
(3.43121 -0.163056 -0.000966571)
(2.95373 -0.156804 -0.00150953)
(2.54123 -0.14519 -0.000986264)
(2.23747 -0.136587 -0.00140305)
(2.01322 -0.131588 -0.00105917)
(1.86089 -0.131221 -0.00132176)
(1.75837 -0.133606 -0.00108979)
(1.68491 -0.138093 -0.00124396)
(1.63908 -0.143117 -0.00110043)
(1.59815 -0.148509 -0.00118277)
(1.57542 -0.153118 -0.00110826)
(1.54792 -0.157967 -0.00114137)
(1.53393 -0.160736 -0.00112045)
(1.51583 -0.165952 -0.0011168)
(1.49942 -0.164454 -0.00114182)
(1.50318 -0.174496 -0.00110355)
(1.4569 -0.160156 -0.00115537)
(1.5349 -0.167272 -0.00117433)
(4.32477 0.566025 -0.00693253)
(3.07942 0.847749 -0.00446504)
(2.31547 0.869673 -0.00573783)
(1.74874 0.852921 -0.00426178)
(1.61065 0.855675 -0.00540744)
(1.40699 0.867538 -0.00423949)
(1.40044 0.877555 -0.00519531)
(1.27889 0.885666 -0.00421498)
(1.28615 0.889958 -0.00499721)
(1.20035 0.893637 -0.00417021)
(1.20855 0.895384 -0.00481169)
(1.14596 0.897432 -0.00411753)
(1.15255 0.898202 -0.00464456)