/*--------------------------------*- C++ -*----------------------------------*\
  =========                 |
  \\      /  F ield         | OpenFOAM: The Open Source CFD Toolbox
   \\    /   O peration     | Website:  https://openfoam.org
    \\  /    A nd           | Version:  7
     \\/     M anipulation  |
\*---------------------------------------------------------------------------*/
FoamFile
{
    version     2.0;
    format      ascii;
    class       volScalarField;
    location    "0.0425";
    object      alphat;
}
// * * * * * * * * * * * * * * * * * * * * * * * * * * * * * * * * * * * * * //

dimensions      [1 -1 -1 0 0 0 0];

internalField   nonuniform List<scalar> 
1440
(
6.58509e-05
0.000150566
0.000237388
0.00030839
0.000362399
0.000400765
0.000425765
0.000440099
0.000446078
0.000445834
0.000441089
0.000432926
0.000423558
0.000412498
0.000400605
0.000388513
0.000376465
0.000364569
0.000352971
0.000341861
0.000331297
0.000321213
0.000311575
0.000302417
0.000293782
0.000285678
0.000278079
0.000270923
0.000264127
0.000257662
0.000251624
0.000246225
0.000241695
0.00023817
0.00023563
0.000233921
0.000232816
0.000232097
0.000231595
0.000231186
0.0002308
0.000230412
0.000230026
0.000229661
0.00022934
0.000229086
0.000228913
0.000228824
0.000228811
0.000228847
0.000228935
0.000229054
0.000229172
0.000229287
0.000229399
0.00022951
0.000229622
0.000229731
0.000229835
0.000229936
0.000230041
0.000230153
0.000230275
0.000230408
0.000230549
0.000230697
0.00023085
0.000231005
0.000231162
0.00023132
0.000231479
0.000231637
0.000231795
0.000231953
0.00023211
0.000232267
0.000232423
0.00023258
0.000232735
0.000232891
0.000233046
0.000233201
0.000233356
0.00023351
0.000233664
0.000233818
0.000233972
0.000234126
0.000234279
0.000234432
0.000234585
0.000234738
0.000234891
0.000235044
0.000235197
0.000235349
0.000235502
0.000235654
0.000235806
0.000235959
0.000236111
0.000236263
0.000236415
0.000236568
0.000236719
0.000236872
0.000237022
0.000237176
0.000237325
0.000237481
0.000237626
0.000237788
0.000237926
0.000238097
0.000238224
0.00023841
0.000238526
0.000238729
0.00023885
0.000239055
4.44462e-06
1.80471e-05
3.84986e-05
6.38763e-05
9.62817e-05
0.000127308
0.000156539
0.000181355
0.000202105
0.000218675
0.000231439
0.000240714
0.000247205
0.000251545
0.000253963
0.000255073
0.000254902
0.000254044
0.00025224
0.000250223
0.000247926
0.000245368
0.000242669
0.00023988
0.000237052
0.000234226
0.000231435
0.000228696
0.000226012
0.00022338
0.000220793
0.000218268
0.000215844
0.000213576
0.000211509
0.000209657
0.000208014
0.000206554
0.000205255
0.000204084
0.000203021
0.000202051
0.00020116
0.000200354
0.000199653
0.000199078
0.000198633
0.00019831
0.000198106
0.000198034
0.000198101
0.000198277
0.000198477
0.000198657
0.000198908
0.000199201
0.000199426
0.000199588
0.000199697
0.000199768
0.000199812
0.000199844
0.000199877
0.000199916
0.000199973
0.000200072
0.000200195
0.000200335
0.000200491
0.000200658
0.000200832
0.000201013
0.000201196
0.000201382
0.000201569
0.000201757
0.000201945
0.000202134
0.000202323
0.000202512
0.000202701
0.000202889
0.000203078
0.000203267
0.000203456
0.000203645
0.000203833
0.000204022
0.00020421
0.000204399
0.000204587
0.000204775
0.000204964
0.000205152
0.00020534
0.000205528
0.000205716
0.000205905
0.000206092
0.000206282
0.000206468
0.000206659
0.000206844
0.000207036
0.00020722
0.000207414
0.000207595
0.000207793
0.000207968
0.000208174
0.000208342
0.000208554
0.000208716
0.000208934
0.000209089
0.000209315
0.000209462
0.000209694
0.00020984
0.000210097
1.89573e-06
2.19742e-06
3.6795e-06
6.78362e-06
1.17555e-05
1.833e-05
2.69879e-05
3.6545e-05
4.64347e-05
5.62583e-05
6.55717e-05
7.44169e-05
8.23104e-05
8.93848e-05
9.56492e-05
0.000101216
0.000106012
0.000110147
0.000113597
0.000116415
0.000118714
0.000120592
0.000122124
0.000123384
0.000124397
0.000125153
0.000125714
0.000126163
0.00012646
0.000126548
0.000126534
0.000126541
0.000126539
0.000126446
0.000126274
0.000126089
0.000125909
0.000125672
0.000125366
0.000125023
0.000124697
0.000124394
0.000124068
0.00012368
0.000123297
0.000122913
0.000122507
0.000122044
0.000121497
0.000120875
0.000120219
0.000119593
0.000119069
0.000118702
0.000118505
0.000118437
0.000118457
0.000118536
0.0001186
0.000118636
0.000118634
0.000118562
0.000118402
0.000118228
0.000118069
0.000117961
0.000117912
0.000117908
0.000117918
0.000117939
0.000117991
0.000118111
0.00011825
0.000118402
0.000118562
0.000118724
0.000118893
0.00011906
0.000119233
0.000119404
0.000119576
0.000119752
0.000119922
0.000120101
0.000120271
0.000120449
0.000120623
0.000120799
0.000120976
0.000121151
0.000121328
0.000121507
0.00012168
0.000121865
0.000122032
0.000122223
0.000122387
0.000122578
0.000122746
0.000122935
0.000123104
0.000123295
0.000123461
0.000123657
0.000123819
0.000124022
0.000124175
0.000124386
0.000124536
0.000124749
0.000124898
0.000125114
0.00012526
0.000125479
0.00012562
0.000125848
0.000125979
0.000126214
0.00012634
0.000126626
1.89055e-06
1.89359e-06
1.90779e-06
1.97047e-06
2.18228e-06
2.69464e-06
3.65888e-06
5.10459e-06
7.26773e-06
9.49636e-06
1.19993e-05
1.51605e-05
1.80604e-05
2.08208e-05
2.37621e-05
2.66531e-05
2.9385e-05
3.21475e-05
3.48333e-05
3.72062e-05
3.92796e-05
4.12486e-05
4.32518e-05
4.51769e-05
4.68788e-05
4.82932e-05
4.96824e-05
5.12017e-05
5.26892e-05
5.38997e-05
5.47907e-05
5.55322e-05
5.63485e-05
5.73208e-05
5.83532e-05
5.92562e-05
5.98723e-05
6.02056e-05
6.04506e-05
6.08176e-05
6.13181e-05
6.17708e-05
6.20206e-05
6.21049e-05
6.21518e-05
6.21402e-05
6.19298e-05
6.15338e-05
6.11639e-05
6.08136e-05
6.04167e-05
5.99107e-05
5.9281e-05
5.85691e-05
5.78567e-05
5.72351e-05
5.67681e-05
5.64609e-05
5.6258e-05
5.6073e-05
5.58239e-05
5.546e-05
5.49752e-05
5.44024e-05
5.37953e-05
5.32064e-05
5.26728e-05
5.22146e-05
5.18431e-05
5.15667e-05
5.13872e-05
5.12931e-05
5.12591e-05
5.12539e-05
5.12569e-05
5.12728e-05
5.13276e-05
5.14092e-05
5.15008e-05
5.15969e-05
5.16786e-05
5.17865e-05
5.18651e-05
5.19731e-05
5.20603e-05
5.21605e-05
5.22568e-05
5.23534e-05
5.24518e-05
5.25514e-05
5.26449e-05
5.27538e-05
5.28376e-05
5.29565e-05
5.30343e-05
5.31554e-05
5.32363e-05
5.33521e-05
5.34391e-05
5.35525e-05
5.36381e-05
5.37557e-05
5.38389e-05
5.39585e-05
5.40378e-05
5.41656e-05
5.42386e-05
5.4367e-05
5.44446e-05
5.4571e-05
5.46476e-05
5.47751e-05
5.48536e-05
5.49808e-05
5.50563e-05
5.51877e-05
5.52601e-05
5.53937e-05
5.54621e-05
5.56292e-05
1.89002e-06
1.89116e-06
1.89464e-06
1.90174e-06
1.91561e-06
1.93718e-06
1.96712e-06
2.01892e-06
2.13316e-06
2.29991e-06
2.51626e-06
2.96987e-06
3.41263e-06
3.87463e-06
4.58309e-06
5.22241e-06
5.81722e-06
6.67142e-06
7.64366e-06
8.41441e-06
8.99657e-06
9.67744e-06
1.06089e-05
1.15786e-05
1.23352e-05
1.28719e-05
1.34864e-05
1.43797e-05
1.54144e-05
1.62997e-05
1.68812e-05
1.72593e-05
1.77018e-05
1.84187e-05
1.93761e-05
2.0323e-05
2.09998e-05
2.13384e-05
2.15144e-05
2.1811e-05
2.23974e-05
2.3106e-05
2.37455e-05
2.41844e-05
2.43939e-05
2.445e-05
2.44426e-05
2.43708e-05
2.43007e-05
2.42353e-05
2.41723e-05
2.4108e-05
2.4023e-05
2.38407e-05
2.33482e-05
2.28084e-05
2.23872e-05
2.21172e-05
2.19622e-05
2.18435e-05
2.16784e-05
2.1411e-05
2.1024e-05
2.05343e-05
1.99802e-05
1.94067e-05
1.88556e-05
1.83597e-05
1.79397e-05
1.76048e-05
1.73526e-05
1.71727e-05
1.7051e-05
1.69744e-05
1.69326e-05
1.69157e-05
1.69128e-05
1.69142e-05
1.6923e-05
1.69563e-05
1.69868e-05
1.70392e-05
1.70659e-05
1.7115e-05
1.7149e-05
1.7192e-05
1.72321e-05
1.72737e-05
1.73143e-05
1.73588e-05
1.73955e-05
1.74463e-05
1.74773e-05
1.75328e-05
1.7562e-05
1.76174e-05
1.76489e-05
1.77011e-05
1.77356e-05
1.77872e-05
1.78202e-05
1.78735e-05
1.79069e-05
1.79603e-05
1.79909e-05
1.8049e-05
1.80783e-05
1.81342e-05
1.81659e-05
1.82225e-05
1.82533e-05
1.83093e-05
1.83421e-05
1.8398e-05
1.84292e-05
1.84868e-05
1.85172e-05
1.85755e-05
1.86049e-05
1.86776e-05
1.88946e-06
1.89004e-06
1.89244e-06
1.89784e-06
1.90727e-06
1.92463e-06
1.94045e-06
1.95596e-06
1.9863e-06
2.01552e-06
2.03797e-06
2.06987e-06
2.10239e-06
2.14435e-06
2.19389e-06
2.22831e-06
2.26474e-06
2.3418e-06
2.45239e-06
2.54215e-06
2.59768e-06
2.65945e-06
2.79189e-06
2.98637e-06
3.14199e-06
3.23341e-06
3.31945e-06
3.49215e-06
3.77203e-06
4.04783e-06
4.24681e-06
4.36123e-06
4.45102e-06
4.6103e-06
4.94903e-06
5.33291e-06
5.62842e-06
5.79396e-06
5.8726e-06
5.9542e-06
6.13463e-06
6.50893e-06
6.86969e-06
7.12199e-06
7.25009e-06
7.29003e-06
7.29241e-06
7.28582e-06
7.29087e-06
7.3648e-06
7.43158e-06
7.44682e-06
7.44388e-06
7.41837e-06
7.28601e-06
7.02682e-06
6.8391e-06
6.74174e-06
6.71183e-06
6.71028e-06
6.71095e-06
6.70525e-06
6.67547e-06
6.56342e-06
6.25173e-06
5.89929e-06
5.56232e-06
5.25594e-06
4.99193e-06
4.77608e-06
4.60802e-06
4.48316e-06
4.39448e-06
4.33443e-06
4.29609e-06
4.27337e-06
4.26168e-06
4.25715e-06
4.25646e-06
4.25742e-06
4.26143e-06
4.2755e-06
4.28479e-06
4.29982e-06
4.31006e-06
4.32377e-06
4.33555e-06
4.34865e-06
4.36103e-06
4.37509e-06
4.38589e-06
4.40239e-06
4.41138e-06
4.42896e-06
4.43777e-06
4.45518e-06
4.46461e-06
4.48111e-06
4.4913e-06
4.50786e-06
4.51749e-06
4.53428e-06
4.54448e-06
4.56119e-06
4.57036e-06
4.58854e-06
4.59769e-06
4.61513e-06
4.62457e-06
4.6427e-06
4.65197e-06
4.66969e-06
4.67967e-06
4.69745e-06
4.70706e-06
4.72528e-06
4.73479e-06
4.75317e-06
4.76257e-06
4.78572e-06
1.88931e-06
1.88981e-06
1.89207e-06
1.89793e-06
1.90605e-06
1.92254e-06
1.94053e-06
1.9607e-06
1.98591e-06
2.01338e-06
2.03891e-06
2.06305e-06
2.09877e-06
2.13561e-06
2.15669e-06
2.17481e-06
2.21134e-06
2.25903e-06
2.29287e-06
2.30699e-06
2.31724e-06
2.34195e-06
2.38483e-06
2.41388e-06
2.42792e-06
2.43433e-06
2.4431e-06
2.46554e-06
2.50241e-06
2.53341e-06
2.55263e-06
2.56212e-06
2.5693e-06
2.58238e-06
2.61657e-06
2.66604e-06
2.70534e-06
2.72796e-06
2.73686e-06
2.74158e-06
2.7523e-06
2.78656e-06
2.84117e-06
2.88152e-06
2.90159e-06
2.90732e-06
2.90618e-06
2.89658e-06
2.88888e-06
2.88366e-06
2.87985e-06
2.87651e-06
2.86995e-06
2.84187e-06
2.79174e-06
2.75821e-06
2.74582e-06
2.74738e-06
2.76134e-06
2.80692e-06
2.83796e-06
2.84747e-06
2.84572e-06
2.83022e-06
2.76065e-06
2.52411e-06
2.22875e-06
1.95405e-06
1.70808e-06
1.49712e-06
1.32403e-06
1.18862e-06
1.08775e-06
1.01629e-06
9.68088e-07
9.3712e-07
9.18299e-07
9.07698e-07
9.02472e-07
9.00598e-07
9.00304e-07
9.00629e-07
9.01742e-07
9.04951e-07
9.07669e-07
9.11253e-07
9.14051e-07
9.17362e-07
9.20351e-07
9.23846e-07
9.26441e-07
9.3054e-07
9.32715e-07
9.37029e-07
9.39186e-07
9.43456e-07
9.45747e-07
9.49776e-07
9.52309e-07
9.56288e-07
9.58712e-07
9.62764e-07
9.65313e-07
9.69333e-07
9.71681e-07
9.76069e-07
9.78343e-07
9.82585e-07
9.85065e-07
9.89349e-07
9.91818e-07
9.96069e-07
9.98696e-07
1.00294e-06
1.00554e-06
1.00992e-06
1.01246e-06
1.01699e-06
1.01936e-06
1.02523e-06
1.88963e-06
1.89031e-06
1.89293e-06
1.89939e-06
1.90879e-06
1.92686e-06
1.95567e-06
1.99052e-06
2.05484e-06
2.19574e-06
2.33574e-06
2.52298e-06
2.89983e-06
3.32639e-06
3.62049e-06
3.93229e-06
4.46396e-06
5.11712e-06
5.59622e-06
5.83271e-06
6.0612e-06
6.53638e-06
7.11324e-06
7.49373e-06
7.64595e-06
7.74981e-06
7.96794e-06
8.28214e-06
8.5164e-06
8.58836e-06
8.58588e-06
8.57145e-06
8.57211e-06
8.5969e-06
8.68896e-06
8.74728e-06
8.76086e-06
8.7568e-06
8.73338e-06
8.65031e-06
8.52015e-06
8.41699e-06
8.35192e-06
8.32339e-06
8.31584e-06
8.30506e-06
8.26675e-06
8.15473e-06
7.91189e-06
7.65904e-06
7.43937e-06
7.26594e-06
7.12709e-06
6.99602e-06
6.84336e-06
6.64735e-06
6.39918e-06
6.10348e-06
5.77432e-06
5.42974e-06
5.08575e-06
4.7537e-06
4.4389e-06
4.14461e-06
3.87446e-06
3.63563e-06
3.43398e-06
3.27102e-06
3.14416e-06
3.05099e-06
2.98852e-06
2.95296e-06
2.93687e-06
2.93263e-06
2.93245e-06
2.93406e-06
2.93858e-06
2.95102e-06
2.96048e-06
2.97618e-06
2.98534e-06
3.00104e-06
3.00992e-06
3.02593e-06
3.0346e-06
3.05088e-06
3.05951e-06
3.07603e-06
3.08466e-06
3.10145e-06
3.11012e-06
3.12715e-06
3.13592e-06
3.15317e-06
3.16201e-06
3.17952e-06
3.18842e-06
3.20614e-06
3.21513e-06
3.23305e-06
3.24213e-06
3.26023e-06
3.26939e-06
3.28767e-06
3.29691e-06
3.31534e-06
3.32466e-06
3.34326e-06
3.35265e-06
3.3714e-06
3.38086e-06
3.39973e-06
3.40931e-06
3.42826e-06
3.43798e-06
3.45698e-06
3.46677e-06
3.48588e-06
3.49561e-06
3.51974e-06
1.89013e-06
1.89171e-06
1.89985e-06
1.93689e-06
2.071e-06
2.42875e-06
3.15925e-06
4.32299e-06
6.03198e-06
8.31e-06
1.01218e-05
1.25406e-05
1.54641e-05
1.77881e-05
1.99449e-05
2.22723e-05
2.47364e-05
2.71016e-05
2.89522e-05
3.03778e-05
3.18103e-05
3.34371e-05
3.50323e-05
3.62469e-05
3.70543e-05
3.77333e-05
3.85509e-05
3.94397e-05
4.00775e-05
4.03325e-05
4.04168e-05
4.05839e-05
4.08733e-05
4.09741e-05
4.09674e-05
4.0919e-05
4.08081e-05
4.05642e-05
4.02129e-05
3.9784e-05
3.93263e-05
3.89251e-05
3.86568e-05
3.85257e-05
3.8444e-05
3.82725e-05
3.78934e-05
3.72746e-05
3.64879e-05
3.56741e-05
3.49752e-05
3.44684e-05
3.4134e-05
3.38703e-05
3.35421e-05
3.30338e-05
3.22837e-05
3.12957e-05
3.0132e-05
2.88959e-05
2.77034e-05
2.66494e-05
2.57824e-05
2.51095e-05
2.46202e-05
2.4302e-05
2.41319e-05
2.40676e-05
2.40549e-05
2.40561e-05
2.40741e-05
2.41403e-05
2.42255e-05
2.43262e-05
2.44042e-05
2.45001e-05
2.45723e-05
2.46641e-05
2.47333e-05
2.48228e-05
2.48906e-05
2.49797e-05
2.50461e-05
2.51367e-05
2.52016e-05
2.52938e-05
2.53581e-05
2.54517e-05
2.55156e-05
2.56109e-05
2.56745e-05
2.57711e-05
2.58349e-05
2.59327e-05
2.59962e-05
2.60959e-05
2.61587e-05
2.62601e-05
2.63224e-05
2.64257e-05
2.6487e-05
2.6592e-05
2.66529e-05
2.67591e-05
2.68196e-05
2.69272e-05
2.69873e-05
2.7096e-05
2.71556e-05
2.72656e-05
2.73246e-05
2.74357e-05
2.74944e-05
2.76064e-05
2.76646e-05
2.77773e-05
2.78351e-05
2.79481e-05
2.80049e-05
2.81454e-05
1.89292e-06
2.06744e-06
3.12592e-06
5.68454e-06
1.00034e-05
1.5928e-05
2.37588e-05
3.26178e-05
4.20972e-05
5.13585e-05
6.0146e-05
6.836e-05
7.59676e-05
8.25992e-05
8.86336e-05
9.39764e-05
9.85445e-05
0.00010248
0.000105707
0.000108344
0.000110597
0.000112543
0.000114225
0.000115565
0.000116508
0.000117303
0.000118003
0.000118395
0.000118638
0.000118881
0.000118964
0.000118964
0.000118914
0.00011878
0.000118538
0.000118218
0.000117828
0.000117391
0.000116908
0.00011636
0.000115795
0.00011531
0.000114977
0.000114781
0.000114627
0.000114404
0.000114017
0.000113425
0.000112692
0.000111956
0.00011136
0.000110987
0.000110829
0.000110799
0.000110777
0.000110657
0.00011038
0.000109937
0.00010936
0.000108724
0.000108136
0.000107708
0.000107484
0.000107405
0.000107375
0.000107388
0.000107493
0.000107713
0.000107955
0.000108211
0.000108463
0.000108716
0.000108958
0.000109201
0.000109429
0.000109664
0.000109884
0.000110114
0.000110331
0.000110558
0.000110774
0.000111001
0.000111216
0.000111444
0.000111658
0.000111888
0.000112101
0.000112333
0.000112546
0.00011278
0.000112992
0.000113229
0.000113441
0.00011368
0.000113891
0.000114133
0.000114342
0.000114587
0.000114793
0.000115043
0.000115246
0.000115499
0.0001157
0.000115957
0.000116154
0.000116416
0.000116608
0.000116875
0.000117062
0.000117336
0.000117517
0.000117797
0.000117971
0.000118258
0.000118424
0.000118717
0.000118875
0.000119173
0.000119323
0.000119686
3.77227e-06
1.54107e-05
3.41425e-05
5.81788e-05
8.872e-05
0.000119911
0.000148882
0.000174695
0.000196291
0.000214048
0.00022786
0.00023864
0.000246896
0.000252998
0.000257421
0.000260428
0.000262415
0.000263608
0.000264256
0.000264543
0.000264515
0.000264391
0.000264122
0.000263759
0.00026333
0.000262864
0.00026241
0.000261981
0.000261569
0.000261189
0.000260804
0.000260346
0.000259847
0.000259324
0.000258777
0.000258254
0.000257797
0.000257438
0.0002572
0.000257016
0.000256982
0.000256996
0.000256984
0.000257031
0.000257099
0.000257178
0.000257287
0.000257433
0.000257662
0.000257999
0.000258425
0.000258892
0.000259343
0.000259729
0.000260025
0.000260234
0.000260378
0.000260493
0.000260616
0.000260773
0.000260981
0.000261241
0.000261545
0.00026188
0.000262233
0.000262593
0.000262951
0.000263304
0.000263648
0.000263983
0.000264311
0.000264633
0.000264951
0.000265266
0.000265578
0.00026589
0.0002662
0.00026651
0.00026682
0.00026713
0.000267439
0.000267749
0.000268059
0.000268369
0.000268678
0.000268989
0.000269298
0.000269609
0.000269919
0.00027023
0.000270539
0.00027085
0.00027116
0.000271471
0.00027178
0.000272092
0.0002724
0.000272712
0.000273019
0.000273333
0.000273638
0.000273953
0.000274256
0.000274573
0.000274873
0.000275193
0.000275488
0.000275814
0.000276102
0.000276436
0.000276713
0.000277058
0.00027732
0.000277681
0.000277924
0.000278303
0.000278522
0.000278918
0.000279115
0.00027959
6.60306e-05
0.000153255
0.000245393
0.000322387
0.000382987
0.000428119
0.000459696
0.000480066
0.000491583
0.000496517
0.000495924
0.000493419
0.000488061
0.000481034
0.000473276
0.000465196
0.000457084
0.000449189
0.000441666
0.000434571
0.000427938
0.000421832
0.00041628
0.000411251
0.000406708
0.000402639
0.000399052
0.000395934
0.000393246
0.000390949
0.00038901
0.00038741
0.000386137
0.000385161
0.000384431
0.000383897
0.000383533
0.000383318
0.000383208
0.000383161
0.000383148
0.000383152
0.000383165
0.000383181
0.000383223
0.00038331
0.000383451
0.000383645
0.000383883
0.000384153
0.000384436
0.000384713
0.000384973
0.000385212
0.000385433
0.000385645
0.000385857
0.000386076
0.000386307
0.00038655
0.000386803
0.000387065
0.00038733
0.000387597
0.000387863
0.000388127
0.00038839
0.000388651
0.000388911
0.000389171
0.00038943
0.00038969
0.00038995
0.00039021
0.000390471
0.000390731
0.000390992
0.000391253
0.000391514
0.000391774
0.000392035
0.000392296
0.000392556
0.000392816
0.000393076
0.000393336
0.000393596
0.000393855
0.000394115
0.000394374
0.000394632
0.000394891
0.000395149
0.000395407
0.000395665
0.000395923
0.00039618
0.000396437
0.000396694
0.000396951
0.000397208
0.000397465
0.00039772
0.000397978
0.000398233
0.000398491
0.000398744
0.000399004
0.000399255
0.000399519
0.000399765
0.000400036
0.000400272
0.000400559
0.000400774
0.000401091
0.000401273
0.00040163
0.000401792
0.000402217
)
;

boundaryField
{
    upperWall
    {
        type            zeroGradient;
    }
    lowerWall
    {
        type            zeroGradient;
    }
    inlet
    {
        type            zeroGradient;
    }
    outlet
    {
        type            zeroGradient;
    }
    frontAndBack
    {
        type            empty;
    }
}


// ************************************************************************* //
