/*--------------------------------*- C++ -*----------------------------------*\
  =========                 |
  \\      /  F ield         | OpenFOAM: The Open Source CFD Toolbox
   \\    /   O peration     | Website:  https://openfoam.org
    \\  /    A nd           | Version:  7
     \\/     M anipulation  |
\*---------------------------------------------------------------------------*/
FoamFile
{
    version     2.0;
    format      ascii;
    class       volScalarField;
    location    "1.25";
    object      k_0;
}
// * * * * * * * * * * * * * * * * * * * * * * * * * * * * * * * * * * * * * //

dimensions      [0 2 -2 0 0 0 0];

internalField   nonuniform List<scalar> 
1200
(
1.46597
2.24345
2.0455
1.6849
1.45807
1.31869
1.22518
1.15772
1.10582
1.06407
1.02933
0.999991
0.974467
0.952554
0.93244
0.915823
0.898362
0.886872
0.868758
0.876448
0.170866
0.758115
1.02769
1.10169
1.10043
1.08621
1.05714
1.02846
1.00225
0.978802
0.957869
0.939401
0.922621
0.908247
0.894163
0.883673
0.870461
0.864051
0.848117
0.84707
0.00764933
0.0792045
0.213603
0.30891
0.367139
0.415066
0.450959
0.478541
0.499726
0.516685
0.529441
0.540285
0.547606
0.555033
0.558572
0.564132
0.565545
0.569683
0.568815
0.571761
0.000225228
0.00465359
0.0172773
0.0412848
0.0625292
0.0825796
0.100634
0.118343
0.134339
0.150627
0.165006
0.180212
0.193136
0.207389
0.219024
0.232091
0.24284
0.254025
0.264824
0.272351
2.63729e-05
0.000195215
0.000762048
0.00223015
0.00427262
0.00715677
0.0100616
0.0136856
0.0173229
0.0215507
0.0257676
0.0304003
0.0350953
0.0399956
0.045236
0.05026
0.0561981
0.0610761
0.0679693
0.072287
2.23196e-05
3.58144e-05
6.47538e-05
0.000100269
0.000175603
0.000250936
0.000409185
0.000544144
0.000828104
0.0010446
0.00149344
0.00181412
0.00242792
0.00290392
0.00369556
0.00433764
0.0053472
0.00615021
0.0074469
0.00834488
2.23197e-05
3.58194e-05
6.67224e-05
9.90356e-05
0.000178593
0.00025018
0.000412466
0.000543311
0.00083248
0.00104376
0.00150085
0.00180724
0.00245877
0.00287166
0.0037401
0.00427044
0.00537062
0.00602036
0.00733119
0.00809941
2.63779e-05
0.000195344
0.000763594
0.00200539
0.0045653
0.0068453
0.0103772
0.0133502
0.0176743
0.0211755
0.0261578
0.0299781
0.035512
0.0395249
0.0456208
0.0497298
0.0563782
0.0604217
0.0674924
0.0712547
0.000225396
0.00465538
0.0173223
0.0412448
0.0626083
0.0825003
0.100761
0.118202
0.134534
0.150388
0.165301
0.179821
0.193557
0.206765
0.219524
0.231136
0.243132
0.252618
0.263931
0.270299
0.00765186
0.0792171
0.213613
0.308926
0.367152
0.415086
0.450962
0.478565
0.499715
0.516708
0.529407
0.540283
0.547536
0.554933
0.558431
0.563786
0.565105
0.568577
0.567569
0.569725
0.170886
0.758142
1.02771
1.1017
1.10043
1.08621
1.0571
1.02852
1.00216
0.978929
0.957685
0.939682
0.922251
0.908818
0.893538
0.884637
0.869971
0.864636
0.848562
0.849447
1.46596
2.24343
2.04548
1.68489
1.45805
1.31869
1.22515
1.15777
1.10577
1.06419
1.02925
1.00031
0.974354
0.953315
0.932388
0.917586
0.898901
0.890337
0.87173
0.882212
1.47948
1.6419
1.62599
1.62606
1.63392
1.6427
1.65055
1.65745
1.6633
1.66818
1.67234
1.676
1.67938
1.68259
1.68563
1.68849
1.69113
1.69359
1.69591
1.69813
1.70027
1.70234
1.70434
1.70624
1.70807
1.70983
1.71154
1.71325
1.71494
1.71665
1.71838
1.72013
1.7219
1.72369
1.7255
1.72732
1.72916
1.73101
1.73287
1.73475
1.73664
1.73855
1.74047
1.74241
1.74436
1.74632
1.7483
1.75029
1.7523
1.75432
1.75636
1.75841
1.76047
1.76255
1.76465
1.76676
1.76889
1.77105
1.77322
1.77542
1.77764
1.77988
1.78215
1.78444
1.78675
1.7891
1.79146
1.79387
1.79628
1.79876
1.80119
1.80376
1.80618
1.80891
1.81121
1.81426
1.81621
1.81988
1.82118
1.82594
1.69422
2.01878
2.07142
2.08826
2.10439
2.11851
2.12972
2.13888
2.14665
2.15342
2.15951
2.16516
2.17057
2.17579
2.18082
2.18565
2.19027
2.1947
2.19897
2.2031
2.20712
2.21103
2.21481
2.21846
2.22201
2.22548
2.22889
2.23227
2.23563
2.23898
2.24233
2.24567
2.24901
2.25236
2.25572
2.25908
2.26244
2.26581
2.26918
2.27257
2.27595
2.27934
2.28274
2.28614
2.28956
2.29298
2.29642
2.29986
2.30331
2.30677
2.31024
2.31371
2.31719
2.32068
2.32418
2.32768
2.3312
2.33473
2.33826
2.3418
2.34535
2.3489
2.35245
2.35601
2.35957
2.36316
2.36673
2.37033
2.37389
2.37752
2.38105
2.38475
2.38819
2.39205
2.39525
2.39948
2.40214
2.40715
2.40904
2.41518
1.19955
1.60204
1.72669
1.77229
1.79744
1.81336
1.82368
1.83104
1.83703
1.84242
1.84758
1.85265
1.85769
1.86267
1.86754
1.87229
1.87691
1.88145
1.88591
1.89029
1.89455
1.89869
1.90272
1.90664
1.91048
1.91426
1.91798
1.92165
1.92527
1.92885
1.93239
1.9359
1.93939
1.94287
1.94633
1.94979
1.95324
1.95668
1.96012
1.96356
1.96699
1.97042
1.97385
1.97728
1.9807
1.98411
1.98752
1.99093
1.99433
1.99773
2.00112
2.00451
2.0079
2.01127
2.01465
2.01801
2.02137
2.02472
2.02807
2.03141
2.03475
2.03808
2.0414
2.04472
2.04802
2.05133
2.05461
2.05791
2.06116
2.06447
2.06767
2.07102
2.07411
2.07759
2.08044
2.08424
2.08657
2.09099
2.09278
2.09803
0.613674
1.02808
1.21941
1.30314
1.34242
1.36124
1.37033
1.37514
1.37842
1.38139
1.38453
1.38795
1.39158
1.39531
1.39904
1.40273
1.40642
1.41012
1.41383
1.41753
1.42116
1.42469
1.42813
1.43149
1.43481
1.4381
1.44135
1.44457
1.44774
1.45085
1.45391
1.45692
1.4599
1.46284
1.46576
1.46867
1.47156
1.47444
1.47731
1.48017
1.48303
1.48588
1.48872
1.49155
1.49437
1.49719
1.5
1.5028
1.50559
1.50838
1.51115
1.51392
1.51668
1.51942
1.52216
1.52489
1.52761
1.53032
1.53301
1.5357
1.53838
1.54104
1.5437
1.54634
1.54897
1.5516
1.5542
1.55682
1.55939
1.562
1.56452
1.56716
1.56957
1.57231
1.57451
1.57751
1.57931
1.58274
1.58421
1.58822
0.162976
0.467943
0.690383
0.809096
0.867144
0.893552
0.904753
0.909186
0.911011
0.912142
0.913374
0.914952
0.916851
0.918952
0.921135
0.923357
0.925642
0.928017
0.930474
0.932969
0.935448
0.937878
0.940242
0.942563
0.944871
0.947181
0.949495
0.951798
0.954076
0.956312
0.958497
0.960631
0.962723
0.964787
0.96683
0.968856
0.970868
0.972867
0.974855
0.976832
0.978801
0.980764
0.98272
0.984671
0.986617
0.98856
0.990501
0.992441
0.994378
0.996307
0.998228
1.00014
1.00204
1.00394
1.00583
1.00772
1.0096
1.01148
1.01336
1.01522
1.01706
1.01889
1.02071
1.02252
1.02433
1.02614
1.02793
1.02973
1.03149
1.03329
1.03501
1.03683
1.03846
1.04036
1.04183
1.04392
1.04513
1.04748
1.04856
1.05132
0.0208158
0.0955194
0.256781
0.397197
0.483255
0.528873
0.550968
0.560887
0.565051
0.566801
0.567743
0.568573
0.569524
0.570607
0.571775
0.572993
0.574264
0.57561
0.577038
0.57852
0.58001
0.581478
0.582933
0.584378
0.585821
0.587264
0.588702
0.590122
0.591512
0.592869
0.594194
0.59549
0.596759
0.598001
0.599224
0.600435
0.601644
0.602854
0.604068
0.605286
0.606507
0.607727
0.608947
0.610165
0.611379
0.612587
0.613786
0.614974
0.616155
0.617334
0.618511
0.619691
0.62087
0.622049
0.623225
0.624394
0.625553
0.626701
0.62784
0.62898
0.630127
0.631283
0.632439
0.633594
0.634736
0.635879
0.637002
0.63814
0.639244
0.640397
0.641471
0.64266
0.643672
0.644938
0.645829
0.647213
0.647938
0.649392
0.650062
0.651742
0.0206572
0.0942319
0.255906
0.399181
0.486484
0.53291
0.555689
0.566245
0.571006
0.573303
0.574748
0.576048
0.577442
0.578936
0.580476
0.582013
0.583553
0.585124
0.58674
0.588382
0.590007
0.591588
0.593126
0.594626
0.596103
0.597566
0.599015
0.600441
0.601838
0.603201
0.604534
0.605838
0.607116
0.608369
0.609602
0.610825
0.612044
0.613266
0.614491
0.61572
0.616951
0.618182
0.619411
0.620639
0.621864
0.623083
0.624293
0.625493
0.626687
0.627877
0.629068
0.630258
0.631449
0.632639
0.633826
0.635007
0.636179
0.63734
0.638493
0.639647
0.640807
0.641975
0.643143
0.644309
0.645463
0.646617
0.647752
0.648902
0.650018
0.651182
0.652268
0.653469
0.65449
0.655769
0.656669
0.658067
0.658798
0.660271
0.660946
0.662648
0.162594
0.465618
0.694058
0.816604
0.875562
0.90272
0.914629
0.919705
0.922122
0.923797
0.925517
0.927538
0.929849
0.932326
0.934834
0.937327
0.939827
0.942372
0.944965
0.94757
0.950139
0.95263
0.955034
0.957379
0.959696
0.962006
0.964313
0.966607
0.968874
0.9711
0.973277
0.975407
0.977498
0.979563
0.981609
0.983641
0.985658
0.987661
0.989651
0.991631
0.993603
0.995568
0.997529
0.999484
1.00144
1.00339
1.00534
1.00729
1.00923
1.01117
1.0131
1.01503
1.01694
1.01885
1.02075
1.02264
1.02454
1.02643
1.02833
1.03021
1.03207
1.03391
1.03575
1.03757
1.03939
1.04122
1.04302
1.04484
1.04661
1.04843
1.05016
1.05199
1.05363
1.05555
1.05703
1.05914
1.06035
1.06272
1.06381
1.0666
0.614911
1.0306
1.22862
1.31378
1.35236
1.37044
1.37872
1.38268
1.38516
1.38741
1.38987
1.39267
1.39571
1.3989
1.40213
1.40538
1.40868
1.41205
1.41546
1.41888
1.42227
1.42561
1.42889
1.43215
1.43539
1.43863
1.44185
1.44504
1.44818
1.45127
1.4543
1.45729
1.46024
1.46316
1.46606
1.46895
1.47182
1.47469
1.47754
1.48038
1.48322
1.48605
1.48887
1.49169
1.4945
1.4973
1.50009
1.50288
1.50566
1.50843
1.5112
1.51395
1.5167
1.51943
1.52216
1.52487
1.52758
1.53028
1.53297
1.53566
1.53833
1.54099
1.54364
1.54627
1.5489
1.55152
1.55412
1.55673
1.55929
1.5619
1.56441
1.56705
1.56946
1.5722
1.57439
1.57739
1.57918
1.58261
1.58408
1.5881
1.2034
1.60955
1.7361
1.77888
1.80122
1.81455
1.82228
1.8271
1.83071
1.83394
1.83712
1.84037
1.84371
1.84712
1.85059
1.85413
1.85774
1.86141
1.86512
1.86884
1.87255
1.87626
1.87996
1.88367
1.88738
1.89109
1.89477
1.89842
1.90202
1.90558
1.9091
1.91258
1.91604
1.91949
1.92292
1.92634
1.92975
1.93316
1.93657
1.93998
1.94338
1.94678
1.95018
1.95357
1.95696
1.96034
1.96372
1.96709
1.97046
1.97383
1.97719
1.98055
1.9839
1.98724
1.99058
1.99392
1.99725
2.00057
2.00388
2.00719
2.0105
2.0138
2.01709
2.02038
2.02366
2.02693
2.03018
2.03346
2.03668
2.03996
2.04313
2.04645
2.04952
2.05296
2.05579
2.05955
2.06188
2.06625
2.06802
2.07322
1.6972
2.02418
2.07137
2.08208
2.09383
2.1039
2.11121
2.11663
2.12089
2.12445
2.12762
2.13059
2.13349
2.1364
2.13939
2.14246
2.14561
2.14881
2.15204
2.1553
2.15859
2.16191
2.16527
2.16865
2.17205
2.17545
2.17884
2.18222
2.18559
2.18895
2.19229
2.19563
2.19896
2.2023
2.20563
2.20897
2.21231
2.21566
2.21901
2.22236
2.22571
2.22908
2.23244
2.23582
2.2392
2.2426
2.246
2.24941
2.25282
2.25624
2.25967
2.2631
2.26654
2.26999
2.27345
2.27692
2.28039
2.28388
2.28737
2.29086
2.29436
2.29785
2.30135
2.30487
2.30838
2.31191
2.31543
2.31898
2.3225
2.32608
2.32956
2.3332
2.33659
2.34039
2.34355
2.34771
2.35035
2.35527
2.35716
2.3632
1.47115
1.63211
1.60921
1.60408
1.60812
1.6133
1.61786
1.62159
1.62443
1.62655
1.62816
1.62946
1.63064
1.63184
1.63309
1.63439
1.63571
1.63705
1.63841
1.63983
1.64132
1.64287
1.64447
1.6461
1.64774
1.6494
1.65106
1.65274
1.65444
1.65616
1.6579
1.65967
1.66144
1.66324
1.66505
1.66688
1.66871
1.67057
1.67244
1.67432
1.67621
1.67812
1.68004
1.68198
1.68392
1.68588
1.68785
1.68983
1.69182
1.69383
1.69585
1.69789
1.69993
1.702
1.70408
1.70617
1.70828
1.71041
1.71255
1.71472
1.71691
1.71912
1.72135
1.72361
1.72589
1.7282
1.73052
1.73289
1.73525
1.73769
1.74007
1.7426
1.74497
1.74765
1.7499
1.75288
1.75479
1.75837
1.75965
1.76427
)
;

boundaryField
{
    upperWall
    {
        type            fixedValue;
        value           uniform 0;
    }
    lowerWall
    {
        type            fixedValue;
        value           uniform 0;
    }
    heatedWall
    {
        type            fixedValue;
        value           uniform 0;
    }
    inlet
    {
        type            fixedValue;
        value           uniform 2e-05;
    }
    outlet
    {
        type            inletOutlet;
        inletValue      uniform 0;
        value           nonuniform List<scalar> 
12
(
1.82594
2.41518
2.09803
1.58822
1.05132
0.651742
0.662648
1.0666
1.5881
2.07322
2.3632
1.76427
)
;
    }
    frontAndBack
    {
        type            empty;
    }
}


// ************************************************************************* //
