/*--------------------------------*- C++ -*----------------------------------*\
  =========                 |
  \\      /  F ield         | OpenFOAM: The Open Source CFD Toolbox
   \\    /   O peration     | Website:  https://openfoam.org
    \\  /    A nd           | Version:  7
     \\/     M anipulation  |
\*---------------------------------------------------------------------------*/
FoamFile
{
    version     2.0;
    format      ascii;
    class       volVectorField;
    location    "0.215";
    object      UMean;
}
// * * * * * * * * * * * * * * * * * * * * * * * * * * * * * * * * * * * * * //

dimensions      [0 1 -1 0 0 0 0];

internalField   nonuniform List<vector> 
1440
(
(11.9738 0.0362219 0)
(11.8833 0.13536 0)
(11.6968 0.226022 0)
(11.4239 0.29795 0)
(11.0883 0.349524 0)
(10.7107 0.380546 0)
(10.3078 0.392908 0)
(9.89099 0.389565 0)
(9.47183 0.374702 0)
(9.05715 0.351451 0)
(8.65608 0.32309 0)
(8.27137 0.292846 0)
(7.90668 0.261723 0)
(7.56492 0.23118 0)
(7.24696 0.202095 0)
(6.95294 0.174811 0)
(6.68253 0.149552 0)
(6.43515 0.126473 0)
(6.20985 0.105633 0)
(6.00554 0.0870079 0)
(5.82088 0.0705029 0)
(5.65451 0.0559855 0)
(5.505 0.0433058 0)
(5.37093 0.0323095 0)
(5.25093 0.0228411 0)
(5.14367 0.0147488 0)
(5.04788 0.00788596 0)
(4.96238 0.00211563 0)
(4.88606 -0.00268778 0)
(4.81792 -0.00663967 0)
(4.75701 -0.00984456 0)
(4.7025 -0.0123973 0)
(4.65362 -0.0143839 0)
(4.6097 -0.0158828 0)
(4.57013 -0.0169663 0)
(4.53435 -0.0176995 0)
(4.5019 -0.0181396 0)
(4.47235 -0.0183361 0)
(4.44534 -0.0183322 0)
(4.42053 -0.0181651 0)
(4.39764 -0.0178672 0)
(4.37644 -0.0174659 0)
(4.3567 -0.0169842 0)
(4.33825 -0.0164411 0)
(4.32091 -0.0158518 0)
(4.30455 -0.0152278 0)
(4.28904 -0.0145783 0)
(4.27429 -0.0139118 0)
(4.26019 -0.0132369 0)
(4.24666 -0.0125613 0)
(4.23364 -0.011891 0)
(4.22106 -0.0112305 0)
(4.20889 -0.010583 0)
(4.19706 -0.00995098 0)
(4.18556 -0.0093362 0)
(4.17434 -0.00873991 0)
(4.16337 -0.00816285 0)
(4.15265 -0.00760554 0)
(4.14215 -0.00706826 0)
(4.13185 -0.00655112 0)
(4.12173 -0.00605425 0)
(4.1118 -0.0055776 0)
(4.10204 -0.00512107 0)
(4.09244 -0.00468452 0)
(4.08299 -0.00426768 0)
(4.07369 -0.00387019 0)
(4.06454 -0.00349155 0)
(4.05553 -0.00313128 0)
(4.04665 -0.00278883 0)
(4.03791 -0.00246363 0)
(4.0293 -0.00215506 0)
(4.02082 -0.00186253 0)
(4.01246 -0.0015854 0)
(4.00423 -0.0013231 0)
(3.99612 -0.00107499 0)
(3.98813 -0.00084058 0)
(3.98027 -0.000619301 0)
(3.97252 -0.000410599 0)
(3.96489 -0.000213846 0)
(3.95737 -2.85038e-05 0)
(3.94997 0.000146009 0)
(3.94268 0.000310098 0)
(3.9355 0.000464239 0)
(3.92843 0.000608773 0)
(3.92146 0.000744238 0)
(3.9146 0.000871078 0)
(3.90785 0.000989913 0)
(3.9012 0.00110108 0)
(3.89465 0.00120494 0)
(3.8882 0.00130162 0)
(3.88184 0.00139142 0)
(3.87559 0.00147456 0)
(3.86942 0.00155167 0)
(3.86335 0.00162313 0)
(3.85737 0.00168947 0)
(3.85148 0.00175079 0)
(3.84568 0.00180719 0)
(3.83997 0.00185857 0)
(3.83435 0.00190496 0)
(3.82881 0.00194685 0)
(3.82335 0.00198437 0)
(3.81797 0.0020189 0)
(3.81267 0.00204962 0)
(3.80745 0.00207895 0)
(3.80232 0.00210334 0)
(3.79726 0.00212798 0)
(3.7923 0.00214372 0)
(3.78739 0.0021637 0)
(3.78259 0.00216656 0)
(3.77781 0.00218478 0)
(3.77318 0.00216819 0)
(3.76849 0.00219376 0)
(3.76406 0.00214374 0)
(3.75941 0.00219584 0)
(3.75527 0.00207969 0)
(3.75055 0.00219653 0)
(3.747 0.00195186 0)
(3.74182 0.00222534 0)
(3.73961 0.00179069 0)
(3.7325 0.00246702 0)
(11.9958 0.0496145 0)
(12.038 0.137859 0)
(12.106 0.214006 0)
(12.1888 0.280475 0)
(12.2779 0.338026 0)
(12.3651 0.385621 0)
(12.4436 0.422584 0)
(12.5078 0.44922 0)
(12.5549 0.466653 0)
(12.5837 0.476077 0)
(12.595 0.478605 0)
(12.5899 0.475366 0)
(12.5704 0.467274 0)
(12.5385 0.455158 0)
(12.4958 0.439748 0)
(12.4443 0.421741 0)
(12.3858 0.401839 0)
(12.3221 0.380695 0)
(12.2545 0.358898 0)
(12.1841 0.336938 0)
(12.1121 0.315205 0)
(12.0392 0.294026 0)
(11.966 0.273624 0)
(11.893 0.254169 0)
(11.8208 0.235782 0)
(11.7495 0.218535 0)
(11.6795 0.202458 0)
(11.6108 0.187552 0)
(11.5437 0.173795 0)
(11.4781 0.161146 0)
(11.4141 0.149552 0)
(11.3517 0.138954 0)
(11.291 0.129287 0)
(11.2319 0.120483 0)
(11.1743 0.112476 0)
(11.1183 0.105199 0)
(11.0637 0.0985886 0)
(11.0107 0.092585 0)
(10.959 0.0871315 0)
(10.9087 0.0821756 0)
(10.8598 0.0776687 0)
(10.8121 0.0735665 0)
(10.7657 0.0698282 0)
(10.7205 0.0664164 0)
(10.6765 0.0632973 0)
(10.6336 0.0604401 0)
(10.5918 0.0578187 0)
(10.5511 0.0554099 0)
(10.5115 0.0531921 0)
(10.4728 0.0511457 0)
(10.4352 0.0492526 0)
(10.3985 0.0474969 0)
(10.3627 0.045864 0)
(10.3278 0.044341 0)
(10.2938 0.0429163 0)
(10.2606 0.0415793 0)
(10.2283 0.0403208 0)
(10.1967 0.039132 0)
(10.166 0.0380059 0)
(10.136 0.0369364 0)
(10.1067 0.0359185 0)
(10.0782 0.0349479 0)
(10.0503 0.034021 0)
(10.0232 0.0331344 0)
(9.99664 0.0322852 0)
(9.97077 0.0314707 0)
(9.94553 0.0306887 0)
(9.9209 0.0299371 0)
(9.89685 0.0292139 0)
(9.87338 0.0285174 0)
(9.85047 0.0278461 0)
(9.82811 0.0271986 0)
(9.80627 0.0265739 0)
(9.78495 0.0259707 0)
(9.76414 0.0253882 0)
(9.74381 0.0248255 0)
(9.72395 0.0242819 0)
(9.70456 0.0237567 0)
(9.68561 0.0232492 0)
(9.66711 0.0227589 0)
(9.64902 0.0222853 0)
(9.63135 0.0218278 0)
(9.61408 0.021386 0)
(9.59719 0.020959 0)
(9.58068 0.0205466 0)
(9.56454 0.0201483 0)
(9.54876 0.0197636 0)
(9.53332 0.0193923 0)
(9.51821 0.0190337 0)
(9.50343 0.0186873 0)
(9.48896 0.0183525 0)
(9.4748 0.0180287 0)
(9.46094 0.0177158 0)
(9.44737 0.0174135 0)
(9.43407 0.0171215 0)
(9.42105 0.0168395 0)
(9.40829 0.0165667 0)
(9.39579 0.0163028 0)
(9.38354 0.0160467 0)
(9.37153 0.0157987 0)
(9.35976 0.015558 0)
(9.34821 0.0153258 0)
(9.33689 0.0151004 0)
(9.32578 0.014884 0)
(9.31489 0.0146723 0)
(9.3042 0.0144702 0)
(9.29372 0.0142681 0)
(9.28341 0.0140776 0)
(9.27334 0.0138793 0)
(9.26338 0.0136996 0)
(9.25372 0.0134979 0)
(9.24403 0.013331 0)
(9.23487 0.0131138 0)
(9.2253 0.012963 0)
(9.21683 0.0127073 0)
(9.20706 0.0125701 0)
(9.19984 0.0122385 0)
(9.18905 0.0120915 0)
(9.1846 0.0116852 0)
(9.17057 0.0115125 0)
(11.9945 0.0299608 0)
(12.0184 0.0876314 0)
(12.0594 0.140896 0)
(12.1156 0.188838 0)
(12.1867 0.231166 0)
(12.2712 0.267422 0)
(12.3668 0.297094 0)
(12.4702 0.319973 0)
(12.5783 0.336259 0)
(12.6879 0.346396 0)
(12.7967 0.350889 0)
(12.9026 0.350358 0)
(13.004 0.345421 0)
(13.0999 0.33672 0)
(13.1895 0.325076 0)
(13.2723 0.31132 0)
(13.3483 0.29618 0)
(13.4175 0.280249 0)
(13.48 0.264017 0)
(13.5362 0.247884 0)
(13.5864 0.232161 0)
(13.6308 0.217082 0)
(13.67 0.20281 0)
(13.7043 0.189445 0)
(13.7343 0.177045 0)
(13.7601 0.165633 0)
(13.7824 0.155204 0)
(13.8014 0.14573 0)
(13.8175 0.13717 0)
(13.8309 0.129468 0)
(13.8419 0.122563 0)
(13.8509 0.11639 0)
(13.858 0.110883 0)
(13.8634 0.105976 0)
(13.8673 0.101608 0)
(13.8698 0.0977187 0)
(13.8712 0.0942539 0)
(13.8714 0.0911627 0)
(13.8707 0.0883993 0)
(13.8692 0.0859225 0)
(13.8668 0.0836956 0)
(13.8637 0.081686 0)
(13.86 0.0798648 0)
(13.8556 0.0782064 0)
(13.8507 0.0766874 0)
(13.8453 0.0752865 0)
(13.8395 0.0739828 0)
(13.8332 0.072758 0)
(13.8265 0.0715979 0)
(13.8194 0.0704912 0)
(13.8121 0.0694293 0)
(13.8044 0.0684049 0)
(13.7964 0.0674119 0)
(13.7881 0.0664455 0)
(13.7796 0.0655017 0)
(13.7708 0.0645771 0)
(13.7618 0.0636688 0)
(13.7526 0.0627741 0)
(13.7432 0.0618906 0)
(13.7337 0.0610167 0)
(13.7239 0.0601514 0)
(13.7141 0.0592938 0)
(13.7041 0.0584437 0)
(13.6939 0.0576008 0)
(13.6837 0.056765 0)
(13.6733 0.0559364 0)
(13.6628 0.0551152 0)
(13.6523 0.0543016 0)
(13.6416 0.0534958 0)
(13.6309 0.0526979 0)
(13.6202 0.051908 0)
(13.6093 0.0511264 0)
(13.5985 0.0503534 0)
(13.5875 0.0495891 0)
(13.5766 0.0488341 0)
(13.5656 0.0480883 0)
(13.5546 0.0473524 0)
(13.5436 0.0466264 0)
(13.5326 0.0459109 0)
(13.5215 0.045206 0)
(13.5105 0.0445121 0)
(13.4995 0.0438292 0)
(13.4885 0.0431577 0)
(13.4775 0.0424976 0)
(13.4665 0.041849 0)
(13.4556 0.0412119 0)
(13.4447 0.0405866 0)
(13.4338 0.0399728 0)
(13.423 0.0393708 0)
(13.4122 0.0387799 0)
(13.4014 0.0382004 0)
(13.3907 0.0376318 0)
(13.3801 0.0370744 0)
(13.3695 0.0365275 0)
(13.3589 0.0359919 0)
(13.3485 0.0354662 0)
(13.3381 0.0349514 0)
(13.3277 0.0344456 0)
(13.3174 0.0339503 0)
(13.3072 0.0334631 0)
(13.2971 0.0329867 0)
(13.287 0.0325176 0)
(13.277 0.0320602 0)
(13.2671 0.0316082 0)
(13.2572 0.0311694 0)
(13.2475 0.0307314 0)
(13.2378 0.03031 0)
(13.2282 0.0298805 0)
(13.2187 0.0294767 0)
(13.2092 0.0290476 0)
(13.2 0.0286657 0)
(13.1906 0.0282218 0)
(13.1816 0.0278732 0)
(13.1722 0.0273819 0)
(13.1637 0.0270909 0)
(13.1539 0.0264787 0)
(13.1466 0.0262943 0)
(13.1355 0.0253973 0)
(13.1309 0.0254029 0)
(13.1163 0.0238366 0)
(11.9944 0.0207932 0)
(12.0163 0.0615081 0)
(12.0532 0.0998277 0)
(12.1033 0.134452 0)
(12.1665 0.164685 0)
(12.2415 0.190205 0)
(12.3262 0.210826 0)
(12.4184 0.226503 0)
(12.5159 0.237424 0)
(12.6166 0.244007 0)
(12.7189 0.246808 0)
(12.8214 0.246431 0)
(12.9231 0.243473 0)
(13.0228 0.238503 0)
(13.12 0.232073 0)
(13.2138 0.224659 0)
(13.3039 0.216629 0)
(13.3898 0.208247 0)
(13.4714 0.199694 0)
(13.5485 0.191104 0)
(13.6212 0.18259 0)
(13.6895 0.174253 0)
(13.7536 0.166177 0)
(13.8135 0.158418 0)
(13.8697 0.151016 0)
(13.9222 0.143999 0)
(13.9714 0.137386 0)
(14.0176 0.131183 0)
(14.061 0.125392 0)
(14.1018 0.120005 0)
(14.1402 0.115014 0)
(14.1765 0.110401 0)
(14.2109 0.106151 0)
(14.2436 0.10224 0)
(14.2747 0.0986489 0)
(14.3044 0.0953517 0)
(14.3328 0.0923256 0)
(14.3601 0.0895466 0)
(14.3863 0.0869925 0)
(14.4115 0.0846415 0)
(14.4359 0.0824744 0)
(14.4594 0.0804724 0)
(14.4822 0.0786191 0)
(14.5043 0.0768988 0)
(14.5258 0.075298 0)
(14.5467 0.0738029 0)
(14.567 0.0724005 0)
(14.5868 0.0710781 0)
(14.606 0.0698267 0)
(14.6248 0.0686383 0)
(14.6432 0.0675073 0)
(14.6611 0.0664282 0)
(14.6785 0.065397 0)
(14.6956 0.0644094 0)
(14.7123 0.0634624 0)
(14.7286 0.0625528 0)
(14.7445 0.0616787 0)
(14.7601 0.0608384 0)
(14.7753 0.0600308 0)
(14.7901 0.0592535 0)
(14.8046 0.0585048 0)
(14.8188 0.057782 0)
(14.8327 0.0570836 0)
(14.8462 0.0564069 0)
(14.8595 0.0557509 0)
(14.8724 0.0551134 0)
(14.885 0.0544935 0)
(14.8973 0.0538898 0)
(14.9094 0.0533015 0)
(14.9211 0.0527272 0)
(14.9326 0.0521666 0)
(14.9438 0.0516182 0)
(14.9547 0.0510819 0)
(14.9654 0.0505564 0)
(14.9757 0.0500419 0)
(14.9859 0.049537 0)
(14.9957 0.0490421 0)
(15.0053 0.0485561 0)
(15.0147 0.0480793 0)
(15.0238 0.0476107 0)
(15.0327 0.0471508 0)
(15.0414 0.0466986 0)
(15.0498 0.0462545 0)
(15.058 0.0458175 0)
(15.066 0.0453883 0)
(15.0738 0.0449657 0)
(15.0813 0.0445505 0)
(15.0887 0.0441415 0)
(15.0958 0.0437394 0)
(15.1027 0.043343 0)
(15.1095 0.0429531 0)
(15.116 0.0425683 0)
(15.1224 0.0421897 0)
(15.1286 0.0418157 0)
(15.1346 0.0414477 0)
(15.1404 0.0410837 0)
(15.1461 0.0407255 0)
(15.1515 0.0403704 0)
(15.1569 0.040021 0)
(15.162 0.0396737 0)
(15.167 0.0393326 0)
(15.1719 0.038992 0)
(15.1765 0.0386596 0)
(15.1811 0.0383243 0)
(15.1855 0.038001 0)
(15.1897 0.0376674 0)
(15.1938 0.0373541 0)
(15.1978 0.0370155 0)
(15.2016 0.0367159 0)
(15.2054 0.0363605 0)
(15.2089 0.0360849 0)
(15.2125 0.0356907 0)
(15.2156 0.0354617 0)
(15.2191 0.0349844 0)
(15.2218 0.0348446 0)
(15.2252 0.0341959 0)
(15.2274 0.0342169 0)
(15.2311 0.033222 0)
(15.2322 0.0334773 0)
(15.2367 0.0317514 0)
(11.9943 0.0122617 0)
(12.0151 0.0363292 0)
(12.0495 0.0590309 0)
(12.0964 0.0795387 0)
(12.1558 0.097383 0)
(12.2268 0.112403 0)
(12.3074 0.124563 0)
(12.3954 0.133885 0)
(12.4887 0.140494 0)
(12.5854 0.144643 0)
(12.6841 0.146669 0)
(12.7832 0.146928 0)
(12.8817 0.145739 0)
(12.9786 0.143375 0)
(13.0732 0.140056 0)
(13.1648 0.135973 0)
(13.2529 0.131291 0)
(13.3371 0.126155 0)
(13.4174 0.120681 0)
(13.4935 0.114973 0)
(13.5655 0.109137 0)
(13.6335 0.103277 0)
(13.6975 0.0974977 0)
(13.7579 0.0918913 0)
(13.8147 0.08653 0)
(13.8683 0.0814658 0)
(13.9188 0.07673 0)
(13.9665 0.0723362 0)
(14.0115 0.068285 0)
(14.0543 0.0645688 0)
(14.0948 0.061174 0)
(14.1335 0.0580841 0)
(14.1704 0.0552799 0)
(14.2056 0.0527413 0)
(14.2395 0.0504473 0)
(14.2721 0.0483772 0)
(14.3035 0.0465107 0)
(14.3339 0.0448283 0)
(14.3633 0.0433117 0)
(14.3919 0.0419439 0)
(14.4197 0.0407092 0)
(14.4468 0.0395933 0)
(14.4733 0.0385834 0)
(14.4993 0.0376676 0)
(14.5247 0.0368355 0)
(14.5496 0.0360782 0)
(14.574 0.0353889 0)
(14.5981 0.034762 0)
(14.6217 0.0341917 0)
(14.645 0.033672 0)
(14.6679 0.0331971 0)
(14.6905 0.0327618 0)
(14.7128 0.0323611 0)
(14.7348 0.0319905 0)
(14.7565 0.0316462 0)
(14.778 0.0313249 0)
(14.7992 0.0310239 0)
(14.8201 0.0307417 0)
(14.8408 0.0304767 0)
(14.8612 0.0302272 0)
(14.8814 0.0299911 0)
(14.9014 0.0297666 0)
(14.9211 0.0295516 0)
(14.9407 0.0293449 0)
(14.96 0.0291449 0)
(14.9791 0.0289505 0)
(14.998 0.0287602 0)
(15.0167 0.0285732 0)
(15.0351 0.0283885 0)
(15.0534 0.0282057 0)
(15.0715 0.0280243 0)
(15.0894 0.0278441 0)
(15.1071 0.0276647 0)
(15.1247 0.0274863 0)
(15.142 0.0273085 0)
(15.1591 0.0271316 0)
(15.1761 0.0269554 0)
(15.1929 0.02678 0)
(15.2095 0.0266055 0)
(15.226 0.0264321 0)
(15.2422 0.0262597 0)
(15.2583 0.0260885 0)
(15.2743 0.0259185 0)
(15.29 0.02575 0)
(15.3057 0.0255828 0)
(15.3211 0.0254171 0)
(15.3364 0.025253 0)
(15.3515 0.0250906 0)
(15.3665 0.0249297 0)
(15.3814 0.0247705 0)
(15.396 0.024613 0)
(15.4106 0.0244572 0)
(15.425 0.024303 0)
(15.4392 0.0241504 0)
(15.4533 0.0239997 0)
(15.4673 0.0238504 0)
(15.4811 0.023703 0)
(15.4948 0.0235567 0)
(15.5084 0.0234124 0)
(15.5219 0.0232686 0)
(15.5352 0.0231274 0)
(15.5483 0.0229857 0)
(15.5614 0.022848 0)
(15.5743 0.0227076 0)
(15.5871 0.0225739 0)
(15.5998 0.0224325 0)
(15.6123 0.0223033 0)
(15.6248 0.0221567 0)
(15.6371 0.0220343 0)
(15.6494 0.0218749 0)
(15.6613 0.0217658 0)
(15.6736 0.0215801 0)
(15.6849 0.0214978 0)
(15.6974 0.0212596 0)
(15.7079 0.0212281 0)
(15.7211 0.0208848 0)
(15.7298 0.0209394 0)
(15.7449 0.0203828 0)
(15.7499 0.0205452 0)
(15.7695 0.0195453 0)
(11.9943 0.00409236 0)
(12.0144 0.012111 0)
(12.0477 0.0196732 0)
(12.0929 0.0265108 0)
(12.1505 0.0324677 0)
(12.2195 0.0374967 0)
(12.2982 0.0416005 0)
(12.3844 0.0447988 0)
(12.4759 0.0471394 0)
(12.5711 0.0487075 0)
(12.6684 0.0496067 0)
(12.7663 0.0499403 0)
(12.8638 0.0497923 0)
(12.9598 0.0492333 0)
(13.0535 0.0483215 0)
(13.1443 0.0471196 0)
(13.2318 0.0456875 0)
(13.3155 0.0440842 0)
(13.3954 0.0423728 0)
(13.4711 0.0406166 0)
(13.5429 0.0388639 0)
(13.6107 0.0371515 0)
(13.6747 0.0355113 0)
(13.7351 0.0339753 0)
(13.792 0.0325684 0)
(13.8456 0.0313004 0)
(13.8962 0.0301673 0)
(13.9439 0.0291604 0)
(13.9891 0.0282683 0)
(14.0318 0.0274791 0)
(14.0724 0.0267794 0)
(14.111 0.0261565 0)
(14.1478 0.0255979 0)
(14.183 0.0250932 0)
(14.2168 0.0246331 0)
(14.2493 0.0242104 0)
(14.2806 0.0238187 0)
(14.3109 0.0234533 0)
(14.3402 0.0231101 0)
(14.3687 0.0227862 0)
(14.3965 0.0224792 0)
(14.4235 0.022188 0)
(14.4499 0.0219115 0)
(14.4758 0.0216491 0)
(14.5011 0.0214003 0)
(14.526 0.0211648 0)
(14.5504 0.0209429 0)
(14.5744 0.0207345 0)
(14.5981 0.0205385 0)
(14.6213 0.0203539 0)
(14.6443 0.0201789 0)
(14.6669 0.0200123 0)
(14.6892 0.019853 0)
(14.7113 0.0196998 0)
(14.7331 0.019552 0)
(14.7546 0.0194085 0)
(14.7759 0.0192687 0)
(14.7969 0.0191315 0)
(14.8177 0.0189961 0)
(14.8383 0.0188618 0)
(14.8587 0.018728 0)
(14.8788 0.0185945 0)
(14.8987 0.018461 0)
(14.9185 0.0183274 0)
(14.938 0.0181937 0)
(14.9574 0.0180597 0)
(14.9765 0.0179253 0)
(14.9955 0.0177904 0)
(15.0143 0.0176549 0)
(15.0329 0.0175191 0)
(15.0513 0.017383 0)
(15.0696 0.0172467 0)
(15.0876 0.0171105 0)
(15.1055 0.0169746 0)
(15.1233 0.0168391 0)
(15.1409 0.0167042 0)
(15.1583 0.0165702 0)
(15.1756 0.0164372 0)
(15.1927 0.0163053 0)
(15.2097 0.0161748 0)
(15.2265 0.0160457 0)
(15.2431 0.0159183 0)
(15.2597 0.0157925 0)
(15.276 0.0156685 0)
(15.2923 0.0155464 0)
(15.3084 0.0154261 0)
(15.3243 0.0153078 0)
(15.3402 0.0151915 0)
(15.3559 0.0150772 0)
(15.3714 0.0149648 0)
(15.3869 0.0148544 0)
(15.4022 0.0147458 0)
(15.4174 0.0146392 0)
(15.4325 0.0145344 0)
(15.4474 0.0144314 0)
(15.4623 0.0143301 0)
(15.477 0.0142305 0)
(15.4916 0.0141324 0)
(15.5061 0.0140359 0)
(15.5206 0.0139405 0)
(15.5348 0.0138467 0)
(15.549 0.0137536 0)
(15.5631 0.0136624 0)
(15.5771 0.0135709 0)
(15.591 0.013482 0)
(15.6048 0.0133909 0)
(15.6184 0.0133038 0)
(15.6321 0.013211 0)
(15.6455 0.0131259 0)
(15.659 0.0130285 0)
(15.6721 0.0129472 0)
(15.6857 0.0128406 0)
(15.6982 0.012768 0)
(15.7121 0.012643 0)
(15.7237 0.0125886 0)
(15.7385 0.0124253 0)
(15.7482 0.0124056 0)
(15.7652 0.0121567 0)
(15.7707 0.0121879 0)
(15.7928 0.011722 0)
(11.9943 -0.00394645 0)
(12.0144 -0.0116782 0)
(12.0477 -0.0189662 0)
(12.0929 -0.0255475 0)
(12.1504 -0.0312644 0)
(12.2195 -0.0360625 0)
(12.2982 -0.0399316 0)
(12.3844 -0.0428769 0)
(12.4759 -0.0449327 0)
(12.5712 -0.0461733 0)
(12.6684 -0.0466966 0)
(12.7664 -0.0466076 0)
(12.8638 -0.0459982 0)
(12.9598 -0.0449502 0)
(13.0536 -0.0435305 0)
(13.1444 -0.0418061 0)
(13.2319 -0.0398362 0)
(13.3157 -0.0376785 0)
(13.3955 -0.0353803 0)
(13.4713 -0.0329923 0)
(13.5431 -0.0305723 0)
(13.6109 -0.0281812 0)
(13.6749 -0.0258737 0)
(13.7352 -0.0237001 0)
(13.792 -0.0216991 0)
(13.8456 -0.0199019 0)
(13.8961 -0.018324 0)
(13.9437 -0.0169658 0)
(13.9888 -0.0158145 0)
(14.0315 -0.0148518 0)
(14.072 -0.0140563 0)
(14.1105 -0.0134069 0)
(14.1473 -0.0128826 0)
(14.1825 -0.0124642 0)
(14.2162 -0.0121341 0)
(14.2487 -0.011877 0)
(14.28 -0.0116793 0)
(14.3102 -0.0115296 0)
(14.3396 -0.011418 0)
(14.3681 -0.0113363 0)
(14.3958 -0.0112766 0)
(14.4229 -0.0112324 0)
(14.4493 -0.0111977 0)
(14.4751 -0.0111679 0)
(14.5005 -0.0111391 0)
(14.5254 -0.0111083 0)
(14.5498 -0.0110734 0)
(14.5738 -0.0110328 0)
(14.5974 -0.0109855 0)
(14.6207 -0.0109312 0)
(14.6437 -0.0108697 0)
(14.6663 -0.0108011 0)
(14.6887 -0.0107253 0)
(14.7107 -0.0106428 0)
(14.7325 -0.0105535 0)
(14.754 -0.0104579 0)
(14.7753 -0.0103567 0)
(14.7963 -0.0102508 0)
(14.8171 -0.0101408 0)
(14.8377 -0.0100271 0)
(14.8581 -0.0099102 0)
(14.8782 -0.00979035 0)
(14.8981 -0.00966791 0)
(14.9179 -0.00954327 0)
(14.9374 -0.00941678 0)
(14.9567 -0.00928877 0)
(14.9759 -0.0091594 0)
(14.9948 -0.00902887 0)
(15.0136 -0.00889747 0)
(15.0322 -0.00876557 0)
(15.0506 -0.00863351 0)
(15.0689 -0.00850168 0)
(15.0869 -0.00837032 0)
(15.1049 -0.00823973 0)
(15.1226 -0.00811009 0)
(15.1402 -0.00798164 0)
(15.1576 -0.00785452 0)
(15.1748 -0.00772893 0)
(15.192 -0.00760495 0)
(15.2089 -0.00748274 0)
(15.2257 -0.00736234 0)
(15.2424 -0.00724387 0)
(15.2589 -0.00712736 0)
(15.2752 -0.00701288 0)
(15.2915 -0.00690045 0)
(15.3076 -0.00679011 0)
(15.3235 -0.00668185 0)
(15.3393 -0.00657569 0)
(15.355 -0.00647162 0)
(15.3706 -0.00636965 0)
(15.386 -0.00626978 0)
(15.4013 -0.006172 0)
(15.4165 -0.00607631 0)
(15.4316 -0.00598269 0)
(15.4465 -0.00589113 0)
(15.4614 -0.00580157 0)
(15.4761 -0.00571408 0)
(15.4907 -0.00562853 0)
(15.5052 -0.00554514 0)
(15.5196 -0.00546363 0)
(15.5339 -0.00538443 0)
(15.5481 -0.00530687 0)
(15.5621 -0.00523195 0)
(15.5761 -0.00515822 0)
(15.59 -0.00508793 0)
(15.6038 -0.00501794 0)
(15.6174 -0.00495309 0)
(15.6311 -0.00488644 0)
(15.6445 -0.00482817 0)
(15.658 -0.00476321 0)
(15.6711 -0.00471305 0)
(15.6847 -0.00464563 0)
(15.6972 -0.00460625 0)
(15.7111 -0.00452777 0)
(15.7227 -0.00450461 0)
(15.7374 -0.00439738 0)
(15.7471 -0.00439927 0)
(15.7641 -0.00422269 0)
(15.7696 -0.00425486 0)
(15.7917 -0.00390931 0)
(11.9943 -0.0121119 0)
(12.015 -0.0358832 0)
(12.0495 -0.0583028 0)
(12.0963 -0.0785498 0)
(12.1557 -0.0961547 0)
(12.2267 -0.110949 0)
(12.3073 -0.122885 0)
(12.3953 -0.131973 0)
(12.4887 -0.138323 0)
(12.5855 -0.142177 0)
(12.6842 -0.143857 0)
(12.7834 -0.143703 0)
(12.882 -0.142026 0)
(12.9789 -0.139095 0)
(13.0735 -0.135145 0)
(13.1651 -0.13039 0)
(13.2532 -0.125022 0)
(13.3375 -0.119212 0)
(13.4177 -0.113112 0)
(13.4939 -0.106858 0)
(13.5659 -0.100563 0)
(13.6338 -0.0943244 0)
(13.6979 -0.0882317 0)
(13.7582 -0.082364 0)
(13.8149 -0.0767909 0)
(13.8683 -0.0715602 0)
(13.9187 -0.0666989 0)
(13.9662 -0.0622181 0)
(14.0112 -0.0581179 0)
(14.0538 -0.0543896 0)
(14.0942 -0.0510187 0)
(14.1327 -0.0479858 0)
(14.1695 -0.0452688 0)
(14.2046 -0.042843 0)
(14.2384 -0.0406833 0)
(14.2709 -0.0387649 0)
(14.3022 -0.0370636 0)
(14.3325 -0.0355564 0)
(14.3619 -0.0342214 0)
(14.3904 -0.0330373 0)
(14.4182 -0.031984 0)
(14.4453 -0.0310433 0)
(14.4718 -0.0301993 0)
(14.4977 -0.0294382 0)
(14.523 -0.0287478 0)
(14.5479 -0.0281175 0)
(14.5724 -0.027538 0)
(14.5964 -0.027002 0)
(14.62 -0.0265033 0)
(14.6433 -0.0260371 0)
(14.6663 -0.0255994 0)
(14.6889 -0.0251868 0)
(14.7112 -0.0247961 0)
(14.7332 -0.0244246 0)
(14.7549 -0.0240698 0)
(14.7763 -0.0237297 0)
(14.7975 -0.0234026 0)
(14.8184 -0.0230875 0)
(14.8391 -0.0227837 0)
(14.8596 -0.0224904 0)
(14.8798 -0.0222068 0)
(14.8998 -0.0219321 0)
(14.9195 -0.0216655 0)
(14.9391 -0.0214063 0)
(14.9584 -0.0211537 0)
(14.9775 -0.020907 0)
(14.9964 -0.0206655 0)
(15.0151 -0.020429 0)
(15.0336 -0.0201973 0)
(15.0519 -0.0199704 0)
(15.07 -0.0197484 0)
(15.0879 -0.0195312 0)
(15.1057 -0.0193187 0)
(15.1232 -0.0191108 0)
(15.1406 -0.0189073 0)
(15.1577 -0.0187082 0)
(15.1747 -0.0185133 0)
(15.1916 -0.0183225 0)
(15.2082 -0.0181355 0)
(15.2247 -0.0179525 0)
(15.241 -0.0177731 0)
(15.2571 -0.0175974 0)
(15.2731 -0.0174252 0)
(15.2889 -0.0172565 0)
(15.3046 -0.0170912 0)
(15.3201 -0.0169293 0)
(15.3354 -0.0167705 0)
(15.3506 -0.0166149 0)
(15.3656 -0.0164624 0)
(15.3805 -0.0163129 0)
(15.3953 -0.0161663 0)
(15.4099 -0.0160226 0)
(15.4243 -0.0158817 0)
(15.4386 -0.0157435 0)
(15.4528 -0.0156081 0)
(15.4669 -0.0154751 0)
(15.4808 -0.015345 0)
(15.4945 -0.0152171 0)
(15.5082 -0.0150922 0)
(15.5217 -0.0149691 0)
(15.535 -0.0148496 0)
(15.5483 -0.0147311 0)
(15.5614 -0.0146173 0)
(15.5744 -0.0145028 0)
(15.5873 -0.0143956 0)
(15.6001 -0.0142839 0)
(15.6127 -0.014185 0)
(15.6253 -0.0140733 0)
(15.6376 -0.0139859 0)
(15.65 -0.0138682 0)
(15.6619 -0.0137983 0)
(15.6743 -0.0136614 0)
(15.6858 -0.0136204 0)
(15.6983 -0.013438 0)
(15.7089 -0.0134468 0)
(15.7222 -0.0131673 0)
(15.731 -0.0132583 0)
(15.7462 -0.0127752 0)
(15.7512 -0.0129621 0)
(15.771 -0.0120279 0)
(11.9944 -0.0206395 0)
(12.0163 -0.0610525 0)
(12.0531 -0.0990853 0)
(12.1032 -0.133446 0)
(12.1664 -0.163437 0)
(12.2413 -0.188727 0)
(12.326 -0.20912 0)
(12.4183 -0.224565 0)
(12.5158 -0.235251 0)
(12.6166 -0.241598 0)
(12.7191 -0.244152 0)
(12.8218 -0.243493 0)
(12.9236 -0.240177 0)
(13.0235 -0.234715 0)
(13.1207 -0.227598 0)
(13.2146 -0.219274 0)
(13.3047 -0.210144 0)
(13.3905 -0.200537 0)
(13.472 -0.190725 0)
(13.5489 -0.180915 0)
(13.6214 -0.171264 0)
(13.6895 -0.16189 0)
(13.7533 -0.152886 0)
(13.8131 -0.144323 0)
(13.869 -0.136246 0)
(13.9213 -0.128681 0)
(13.9704 -0.121641 0)
(14.0163 -0.115125 0)
(14.0595 -0.109129 0)
(14.1002 -0.103638 0)
(14.1385 -0.0986326 0)
(14.1747 -0.0940862 0)
(14.209 -0.0899707 0)
(14.2417 -0.0862534 0)
(14.2727 -0.0829016 0)
(14.3024 -0.0798819 0)
(14.3309 -0.0771636 0)
(14.3582 -0.0747191 0)
(14.3844 -0.0725216 0)
(14.4098 -0.0705414 0)
(14.4342 -0.0687501 0)
(14.4579 -0.0671212 0)
(14.4808 -0.0656326 0)
(14.5031 -0.0642651 0)
(14.5247 -0.0630022 0)
(14.5458 -0.0618285 0)
(14.5662 -0.0607297 0)
(14.5862 -0.0596933 0)
(14.6056 -0.0587099 0)
(14.6246 -0.0577718 0)
(14.6431 -0.0568736 0)
(14.6611 -0.05601 0)
(14.6787 -0.0551779 0)
(14.696 -0.0543737 0)
(14.7128 -0.0535954 0)
(14.7292 -0.0528407 0)
(14.7453 -0.0521085 0)
(14.761 -0.0513973 0)
(14.7763 -0.0507065 0)
(14.7913 -0.0500348 0)
(14.806 -0.0493816 0)
(14.8203 -0.0487457 0)
(14.8343 -0.0481264 0)
(14.848 -0.0475223 0)
(14.8613 -0.0469326 0)
(14.8744 -0.0463554 0)
(14.8871 -0.0457898 0)
(14.8996 -0.0452345 0)
(14.9117 -0.0446897 0)
(14.9236 -0.0441545 0)
(14.9352 -0.0436293 0)
(14.9465 -0.0431133 0)
(14.9575 -0.0426068 0)
(14.9683 -0.0421089 0)
(14.9788 -0.0416202 0)
(14.989 -0.0411397 0)
(14.999 -0.0406678 0)
(15.0087 -0.0402036 0)
(15.0182 -0.0397476 0)
(15.0274 -0.0392989 0)
(15.0364 -0.0388581 0)
(15.0451 -0.0384242 0)
(15.0537 -0.0379979 0)
(15.062 -0.0375782 0)
(15.07 -0.0371657 0)
(15.0779 -0.0367594 0)
(15.0855 -0.03636 0)
(15.093 -0.0359665 0)
(15.1002 -0.0355795 0)
(15.1072 -0.035198 0)
(15.114 -0.0348227 0)
(15.1207 -0.0344524 0)
(15.1271 -0.0340882 0)
(15.1333 -0.0337285 0)
(15.1394 -0.0333747 0)
(15.1453 -0.033025 0)
(15.151 -0.0326813 0)
(15.1565 -0.0323411 0)
(15.1619 -0.0320071 0)
(15.1671 -0.0316759 0)
(15.1721 -0.0313514 0)
(15.177 -0.0310285 0)
(15.1817 -0.0307139 0)
(15.1863 -0.0303981 0)
(15.1907 -0.0300944 0)
(15.195 -0.0297836 0)
(15.1991 -0.029493 0)
(15.2031 -0.0291829 0)
(15.2069 -0.0289102 0)
(15.2107 -0.0285909 0)
(15.2142 -0.0283457 0)
(15.2177 -0.0279966 0)
(15.2209 -0.0277983 0)
(15.2243 -0.0273771 0)
(15.227 -0.0272629 0)
(15.2304 -0.026686 0)
(15.2325 -0.0267205 0)
(15.2361 -0.025825 0)
(15.2372 -0.026078 0)
(15.2416 -0.0245067 0)
(11.9945 -0.0298077 0)
(12.0184 -0.0872115 0)
(12.0593 -0.140271 0)
(12.1155 -0.188061 0)
(12.1865 -0.230255 0)
(12.2709 -0.266359 0)
(12.3665 -0.295844 0)
(12.4699 -0.318507 0)
(12.578 -0.334582 0)
(12.6875 -0.34455 0)
(12.7962 -0.348977 0)
(12.9019 -0.34852 0)
(13.0033 -0.343807 0)
(13.0991 -0.335479 0)
(13.1887 -0.324232 0)
(13.2714 -0.310768 0)
(13.3471 -0.295747 0)
(13.4159 -0.279755 0)
(13.4779 -0.263292 0)
(13.5335 -0.246777 0)
(13.5829 -0.230559 0)
(13.6267 -0.214912 0)
(13.6652 -0.200041 0)
(13.6989 -0.186084 0)
(13.7283 -0.173124 0)
(13.7536 -0.161202 0)
(13.7754 -0.15032 0)
(13.794 -0.140458 0)
(13.8097 -0.131575 0)
(13.8229 -0.123615 0)
(13.8337 -0.116512 0)
(13.8425 -0.110194 0)
(13.8495 -0.104588 0)
(13.8549 -0.0996186 0)
(13.8587 -0.0952125 0)
(13.8613 -0.0913005 0)
(13.8627 -0.0878169 0)
(13.8629 -0.0847142 0)
(13.8622 -0.0819487 0)
(13.8607 -0.0794754 0)
(13.8583 -0.0772505 0)
(13.8552 -0.0752354 0)
(13.8514 -0.0733971 0)
(13.8471 -0.0717078 0)
(13.8421 -0.0701437 0)
(13.8366 -0.0686848 0)
(13.8306 -0.0673147 0)
(13.8242 -0.0660192 0)
(13.8174 -0.0647862 0)
(13.8101 -0.0636052 0)
(13.8025 -0.0624677 0)
(13.7946 -0.0613668 0)
(13.7863 -0.0602968 0)
(13.7777 -0.0592535 0)
(13.7689 -0.0582335 0)
(13.7598 -0.0572344 0)
(13.7504 -0.056254 0)
(13.7409 -0.0552906 0)
(13.7311 -0.0543429 0)
(13.7212 -0.0534097 0)
(13.7111 -0.0524904 0)
(13.7008 -0.0515844 0)
(13.6903 -0.0506916 0)
(13.6798 -0.049812 0)
(13.6691 -0.0489456 0)
(13.6583 -0.0480913 0)
(13.6473 -0.0472482 0)
(13.6363 -0.0464158 0)
(13.6252 -0.0455942 0)
(13.6141 -0.0447833 0)
(13.6028 -0.0439833 0)
(13.5915 -0.043194 0)
(13.5802 -0.0424155 0)
(13.5688 -0.0416478 0)
(13.5573 -0.0408911 0)
(13.5459 -0.0401455 0)
(13.5344 -0.0394113 0)
(13.5229 -0.0386886 0)
(13.5114 -0.0379777 0)
(13.4999 -0.0372786 0)
(13.4883 -0.0365917 0)
(13.4768 -0.0359169 0)
(13.4653 -0.0352545 0)
(13.4539 -0.0346044 0)
(13.4424 -0.0339669 0)
(13.431 -0.0333417 0)
(13.4196 -0.032729 0)
(13.4082 -0.0321285 0)
(13.3969 -0.0315404 0)
(13.3856 -0.0309643 0)
(13.3744 -0.0304003 0)
(13.3632 -0.0298479 0)
(13.352 -0.0293075 0)
(13.341 -0.0287782 0)
(13.3299 -0.0282606 0)
(13.319 -0.0277536 0)
(13.3081 -0.0272582 0)
(13.2973 -0.0267728 0)
(13.2865 -0.0262989 0)
(13.2758 -0.0258344 0)
(13.2652 -0.0253814 0)
(13.2546 -0.0249367 0)
(13.2441 -0.0245043 0)
(13.2337 -0.0240782 0)
(13.2234 -0.0236664 0)
(13.2131 -0.0232573 0)
(13.203 -0.0228667 0)
(13.1929 -0.0224712 0)
(13.1829 -0.0221035 0)
(13.1729 -0.021715 0)
(13.1632 -0.0213741 0)
(13.1533 -0.020978 0)
(13.1438 -0.0206732 0)
(13.1339 -0.0202382 0)
(13.125 -0.0199898 0)
(13.1146 -0.0194485 0)
(13.1069 -0.0192989 0)
(13.095 -0.0185049 0)
(13.0902 -0.018528 0)
(13.0746 -0.0171515 0)
(11.9958 -0.0492185 0)
(12.0377 -0.136749 0)
(12.1053 -0.212356 0)
(12.1875 -0.278481 0)
(12.2757 -0.335805 0)
(12.3617 -0.383198 0)
(12.4385 -0.419859 0)
(12.5007 -0.446018 0)
(12.5452 -0.462724 0)
(12.5709 -0.471122 0)
(12.5788 -0.472347 0)
(12.5701 -0.467541 0)
(12.5467 -0.457687 0)
(12.5108 -0.443711 0)
(12.4645 -0.426527 0)
(12.4095 -0.406974 0)
(12.3477 -0.385794 0)
(12.2808 -0.363617 0)
(12.2103 -0.340985 0)
(12.1372 -0.318357 0)
(12.0626 -0.296109 0)
(11.9873 -0.274556 0)
(11.9121 -0.253925 0)
(11.8374 -0.234375 0)
(11.7635 -0.216014 0)
(11.6909 -0.198901 0)
(11.6197 -0.183055 0)
(11.5501 -0.168464 0)
(11.4821 -0.155094 0)
(11.4158 -0.142892 0)
(11.3512 -0.131796 0)
(11.2883 -0.121731 0)
(11.2271 -0.112626 0)
(11.1675 -0.104401 0)
(11.1095 -0.0969804 0)
(11.0531 -0.0902889 0)
(10.9981 -0.0842543 0)
(10.9446 -0.0788002 0)
(10.8924 -0.0738571 0)
(10.8416 -0.0693675 0)
(10.7921 -0.0652848 0)
(10.7438 -0.0615676 0)
(10.6968 -0.0581779 0)
(10.6509 -0.0550807 0)
(10.6061 -0.0522437 0)
(10.5624 -0.0496409 0)
(10.5198 -0.0472496 0)
(10.4783 -0.0450491 0)
(10.4377 -0.0430206 0)
(10.3982 -0.0411463 0)
(10.3596 -0.0394102 0)
(10.3219 -0.0377978 0)
(10.2852 -0.0362966 0)
(10.2494 -0.0348955 0)
(10.2144 -0.0335844 0)
(10.1804 -0.0323548 0)
(10.1471 -0.0311987 0)
(10.1147 -0.0301091 0)
(10.083 -0.02908 0)
(10.0521 -0.0281056 0)
(10.022 -0.0271813 0)
(9.99264 -0.0263027 0)
(9.96397 -0.0254661 0)
(9.93601 -0.0246682 0)
(9.90872 -0.0239066 0)
(9.8821 -0.0231803 0)
(9.85612 -0.0224883 0)
(9.83078 -0.0218287 0)
(9.80604 -0.0211993 0)
(9.7819 -0.0205979 0)
(9.75834 -0.0200223 0)
(9.73535 -0.0194707 0)
(9.7129 -0.0189413 0)
(9.69099 -0.0184329 0)
(9.66959 -0.0179441 0)
(9.6487 -0.017474 0)
(9.6283 -0.0170218 0)
(9.60838 -0.0165865 0)
(9.58892 -0.0161675 0)
(9.56991 -0.015764 0)
(9.55134 -0.0153756 0)
(9.53319 -0.0150017 0)
(9.51545 -0.0146416 0)
(9.49812 -0.0142949 0)
(9.48116 -0.013961 0)
(9.46459 -0.0136396 0)
(9.44838 -0.01333 0)
(9.43252 -0.0130319 0)
(9.417 -0.0127448 0)
(9.40182 -0.0124682 0)
(9.38696 -0.0122018 0)
(9.37241 -0.011945 0)
(9.35816 -0.0116977 0)
(9.34421 -0.0114592 0)
(9.33054 -0.0112294 0)
(9.31716 -0.0110077 0)
(9.30403 -0.0107939 0)
(9.29118 -0.0105877 0)
(9.27857 -0.0103888 0)
(9.26621 -0.0101969 0)
(9.25408 -0.0100116 0)
(9.24219 -0.00983318 0)
(9.23052 -0.0096605 0)
(9.21906 -0.0094946 0)
(9.20782 -0.00933341 0)
(9.19678 -0.00917945 0)
(9.18595 -0.0090282 0)
(9.17529 -0.00888573 0)
(9.16486 -0.00874177 0)
(9.15454 -0.00861063 0)
(9.14452 -0.00846878 0)
(9.13447 -0.00834922 0)
(9.12492 -0.00819913 0)
(9.11499 -0.00809099 0)
(9.10614 -0.00791263 0)
(9.09597 -0.0078109 0)
(9.0884 -0.00757133 0)
(9.07712 -0.00745299 0)