/*--------------------------------*- C++ -*----------------------------------*\
  =========                 |
  \\      /  F ield         | OpenFOAM: The Open Source CFD Toolbox
   \\    /   O peration     | Website:  https://openfoam.org
    \\  /    A nd           | Version:  7
     \\/     M anipulation  |
\*---------------------------------------------------------------------------*/
FoamFile
{
    version     2.0;
    format      ascii;
    class       surfaceScalarField;
    location    "2.01";
    object      phi;
}
// * * * * * * * * * * * * * * * * * * * * * * * * * * * * * * * * * * * * * //

dimensions      [1 0 -1 0 0 0 0];

internalField   nonuniform List<scalar> 
21708
(
0.00129502
0.00100131
1.37178e-05
0.000898572
0.000390908
6.31678e-06
0.000689768
0.000197746
1.1783e-05
0.000600321
8.32642e-05
6.82187e-06
0.0005484
4.15827e-05
1.09206e-05
0.000517866
2.40815e-05
7.0285e-06
0.000494746
1.3508e-05
1.02209e-05
0.000478602
9.62446e-06
7.16775e-06
0.00046434
5.28078e-06
9.65844e-06
0.00045382
3.95669e-06
7.24806e-06
0.000443825
1.50376e-06
9.17596e-06
0.000436361
8.79668e-07
7.2684e-06
0.000428948
-6.44265e-07
8.74564e-06
0.0004234
-9.99493e-07
7.2374e-06
0.000417667
-1.92768e-06
8.34999e-06
0.000413125
-1.94088e-06
7.16552e-06
0.000407133
-1.30502e-06
7.97526e-06
0.000403551
-2.80684e-06
7.06051e-06
0.000351705
4.47876e-05
7.72348e-06
2.52632e-05
6.62104e-06
0.000320485
0.0022477
0.00106028
2.98301e-06
0.00205928
0.000583906
-3.79198e-06
0.00185632
0.000399698
1.77672e-06
0.00171487
0.000228464
-3.04817e-06
0.00161284
0.000143103
1.13635e-06
0.00154326
9.6967e-05
-2.71508e-06
0.00148831
6.85272e-05
5.12924e-07
0.00144839
5.26849e-05
-2.52961e-06
0.00141316
4.11699e-05
-2.16369e-08
0.00138661
3.35835e-05
-2.42977e-06
0.00136155
2.77166e-05
-4.91799e-07
0.00134242
2.30798e-05
-2.40002e-06
0.00132362
1.9752e-05
-9.16451e-07
0.00130916
1.65674e-05
-2.42517e-06
0.00129503
1.42109e-05
-1.31047e-06
0.00128275
1.35207e-05
-2.49161e-06
0.00127574
8.09754e-06
-1.70124e-06
0.0012604
1.58079e-05
-2.58222e-06
0.00130153
6.5326e-06
-2.18995e-06
-2.10709e-05
-3.13776e-06
0.00135168
0.00257319
0.000787237
9.7032e-06
0.00266548
0.000489002
3.40161e-06
0.00265965
0.000397707
8.59871e-06
0.00262478
0.000260423
3.66816e-06
0.00257703
0.000183789
7.77277e-06
0.0025343
0.000136484
3.87592e-06
0.00249211
0.000104254
7.06779e-06
0.00245743
8.39477e-05
4.00527e-06
0.0024242
6.84813e-05
6.4942e-06
0.00239725
5.70382e-05
4.07754e-06
0.00237127
4.82832e-05
6.00465e-06
0.00235024
4.06158e-05
4.09293e-06
0.00232967
3.53742e-05
5.56994e-06
0.00231326
2.95638e-05
4.05868e-06
0.0022962
2.67711e-05
5.17186e-06
0.00228425
2.21721e-05
3.98319e-06
0.00226653
2.17297e-05
4.80253e-06
0.00226004
1.91576e-05
3.86163e-06
0.00223061
3.20899e-05
4.59088e-06
2.2653e-05
3.49857e-06
0.00218412
0.00257957
0.000513038
4.3008e-06
0.00274122
0.000329865
-1.73146e-06
0.002848
0.000288287
3.41941e-06
0.00291061
0.000200041
-1.45482e-06
0.00294197
0.000150484
2.68951e-06
0.00296158
0.00011874
-1.17069e-06
0.00296838
9.6049e-05
2.05592e-06
0.00297266
8.12568e-05
-9.87865e-07
0.0029709
6.92929e-05
1.51989e-06
0.00296933
6.00559e-05
-8.86612e-07
0.00296457
5.25412e-05
1.05133e-06
0.0029607
4.58775e-05
-8.54406e-07
0.00295526
4.07463e-05
6.2892e-07
0.00295045
3.58242e-05
-8.77758e-07
0.00294585
3.1752e-05
2.36736e-07
0.0029401
2.95125e-05
-9.45295e-07
0.00293905
2.36091e-05
-1.51337e-07
0.00293237
2.76162e-05
-1.0604e-06
0.00294703
1.88128e-05
-6.54767e-07
9.55245e-06
-1.52968e-06
0.00296243
0.00256849
0.000246692
7.62982e-06
0.00273762
0.000159704
1.80712e-06
0.00287331
0.000146558
6.81553e-06
0.00296797
0.000104226
1.93051e-06
0.00303264
8.05137e-05
6.04819e-06
0.00308491
6.50142e-05
2.17301e-06
0.00312246
5.37763e-05
5.38432e-06
0.00315555
4.64546e-05
2.33066e-06
0.00318024
4.0345e-05
4.82855e-06
0.00320286
3.55754e-05
2.41679e-06
0.00322004
3.15587e-05
4.34846e-06
0.00323608
2.79149e-05
2.43995e-06
0.00324836
2.50697e-05
3.91918e-06
0.00326016
2.21516e-05
2.41026e-06
0.00326886
2.00824e-05
3.52375e-06
0.00327852
1.81187e-05
2.33633e-06
0.00328331
1.63018e-05
3.15221e-06
0.00329274
1.66782e-05
2.20525e-06
0.0032928
1.6598e-05
2.86707e-06
1.71694e-05
1.8606e-06
0.00328409
0.00255051
-3.70644e-11
5.89896e-06
0.00271083
2.31674e-10
1.62855e-07
0.00285301
-2.08704e-10
5.15128e-06
0.00295774
6.22593e-10
2.68589e-07
0.00303462
-2.2585e-10
4.38576e-06
0.00309984
1.54197e-09
5.13918e-07
0.00315054
2.30884e-10
3.73144e-06
0.00319693
3.6021e-09
6.8053e-07
0.00323468
2.95109e-09
3.18248e-06
0.00327003
8.52839e-09
7.72582e-07
0.0032994
1.26081e-08
2.70674e-06
0.00332702
2.37259e-08
7.99699e-07
0.00335028
3.53083e-08
2.28033e-06
0.00337209
8.47852e-08
7.73074e-07
0.00339076
6.58259e-08
1.88605e-06
0.00340844
3.1142e-07
7.01733e-07
0.00342376
9.14073e-08
1.50464e-06
0.00343962
9.19196e-07
5.71511e-07
0.00345541
4.13835e-07
1.09091e-06
1.69038e-06
1.86332e-07
0.00347146
0.00255051
-0.000246692
5.89896e-06
0.00271083
-0.000159704
1.62853e-07
0.00285301
-0.000146558
5.15128e-06
0.00295774
-0.000104225
2.68584e-07
0.00303462
-8.0514e-05
4.38577e-06
0.00309984
-6.50115e-05
5.13906e-07
0.00315054
-5.37754e-05
3.73145e-06
0.00319693
-4.64483e-05
6.80501e-07
0.00323468
-4.03383e-05
3.18252e-06
0.00327003
-3.55607e-05
7.7251e-07
0.0032994
-3.15315e-05
2.70683e-06
0.00332702
-2.7874e-05
7.99515e-07
0.00335028
-2.49941e-05
2.28055e-06
0.00337211
-2.1999e-05
7.72605e-07
0.00339076
-1.9939e-05
1.88665e-06
0.00340848
-1.75276e-05
7.00581e-07
0.00342377
-1.60972e-05
1.50665e-06
0.00343965
-1.48507e-05
5.69298e-07
0.00345542
-1.57563e-05
1.09918e-06
-1.36298e-05
1.83614e-07
0.00347131
0.00256849
-0.000513038
7.62982e-06
0.00273762
-0.000329865
1.80713e-06
0.00287331
-0.000288288
6.81552e-06
0.00296797
-0.000200039
1.93051e-06
0.00303264
-0.000150484
6.04818e-06
0.00308491
-0.000118737
2.17302e-06
0.00312246
-9.60486e-05
5.38431e-06
0.00315555
-8.12503e-05
2.33068e-06
0.00318025
-6.92878e-05
4.82852e-06
0.00320286
-6.00405e-05
2.41685e-06
0.00322004
-5.25193e-05
4.34838e-06
0.00323609
-4.58355e-05
2.44012e-06
0.00324838
-4.06854e-05
3.91897e-06
0.00326018
-3.56742e-05
2.4107e-06
0.00326892
-3.16448e-05
3.52313e-06
0.00327861
-2.89559e-05
2.33745e-06
0.0032835
-2.34962e-05
3.1502e-06
0.00329308
-2.59491e-05
2.20725e-06
0.00329343
-1.82505e-05
2.8597e-06
-6.71126e-06
1.86187e-06
0.00328541
0.00257957
-0.000787237
4.3008e-06
0.00274122
-0.000489002
-1.73146e-06
0.002848
-0.000397707
3.41941e-06
0.00291061
-0.000260422
-1.45482e-06
0.00294197
-0.000183789
2.68952e-06
0.00296159
-0.000136482
-1.1707e-06
0.00296838
-0.000104253
2.05593e-06
0.00297266
-8.39433e-05
-9.87891e-07
0.00297091
-6.8476e-05
1.51993e-06
0.00296934
-5.70282e-05
-8.86678e-07
0.00296457
-4.82626e-05
1.05144e-06
0.00296073
-4.05882e-05
-8.54567e-07
0.00295529
-3.53184e-05
6.29153e-07
0.00295053
-2.94576e-05
-8.78128e-07
0.00294593
-2.66726e-05
2.3731e-07
0.00294031
-2.17433e-05
-9.46147e-07
0.00293927
-2.16312e-05
-1.4946e-07
0.00293287
-1.77681e-05
-1.06224e-06
0.00294765
-3.16545e-05
-6.46666e-07
-2.01673e-05
-1.53221e-06
0.0029634
0.00257319
-0.00106028
9.7032e-06
0.00266548
-0.000583906
3.40162e-06
0.00265965
-0.000399698
8.59871e-06
0.00262478
-0.000228463
3.66816e-06
0.00257703
-0.000143103
7.77276e-06
0.0025343
-9.69659e-05
3.87593e-06
0.00249211
-6.85268e-05
7.06778e-06
0.00245743
-5.26821e-05
4.00528e-06
0.0024242
-4.11669e-05
6.49418e-06
0.00239726
-3.35772e-05
4.07758e-06
0.00237128
-2.77045e-05
6.00459e-06
0.00235027
-2.30625e-05
4.09305e-06
0.00232972
-1.97197e-05
5.56977e-06
0.00231335
-1.65e-05
4.05902e-06
0.00229634
-1.41625e-05
5.17133e-06
0.00228455
-1.32468e-05
3.98412e-06
0.00226693
-8.10791e-06
4.80091e-06
0.00226093
-1.49098e-05
3.86326e-06
0.00223201
-6.59231e-06
4.58575e-06
2.2059e-05
3.49804e-06
0.00218701
0.0022477
-0.00100131
2.98301e-06
0.00205928
-0.000390908
-3.79198e-06
0.00185632
-0.000197746
1.77672e-06
0.00171487
-8.32642e-05
-3.04817e-06
0.00161284
-4.15828e-05
1.13636e-06
0.00154326
-2.40814e-05
-2.71509e-06
0.00148832
-1.35077e-05
5.12938e-07
0.00144839
-9.624e-06
-2.52963e-06
0.00141316
-5.27932e-06
-2.16016e-08
0.00138662
-3.95558e-06
-2.42982e-06
0.00136157
-1.49832e-06
-4.91712e-07
0.00134245
-8.76579e-07
-2.40014e-06
0.00132367
6.5893e-07
-9.16245e-07
0.00130926
1.01468e-06
-2.42546e-06
0.00129515
1.95571e-06
-1.30998e-06
0.00128307
2.01639e-06
-2.49228e-06
0.00127601
1.34317e-06
-1.69971e-06
0.00126128
3.0922e-06
-2.58411e-06
0.00130206
-4.44992e-05
-2.18299e-06
-2.46566e-05
-3.14237e-06
0.0013526
0.00129502
1.37178e-05
0.000898572
6.31679e-06
0.000689768
1.1783e-05
0.000600321
6.82188e-06
0.0005484
1.09206e-05
0.000517867
7.02851e-06
0.000494747
1.02208e-05
0.000478604
7.16776e-06
0.000464343
9.65842e-06
0.000453824
7.2481e-06
0.000443835
9.17592e-06
0.000436374
7.2685e-06
0.000428976
8.7455e-06
0.000423443
7.23769e-06
0.000417738
8.34957e-06
0.000413272
7.16634e-06
0.000407319
7.97414e-06
0.000404021
7.06218e-06
0.000352466
7.72105e-06
6.62227e-06
0.000321849
0.0018994
0.000420337
3.21997e-06
0.0013854
0.000516064
5.041e-06
0.00104381
0.000351798
2.32679e-06
0.000864014
0.000183435
3.84724e-06
0.000775926
9.72549e-05
2.34163e-06
0.000722616
5.73939e-05
3.5142e-06
0.000689453
4.1498e-05
2.48622e-06
0.000660655
3.33545e-05
3.26084e-06
0.000640438
2.80081e-05
2.55264e-06
0.00062101
2.43383e-05
3.03112e-06
0.000607101
2.11908e-05
2.58091e-06
0.000593111
1.90826e-05
2.85957e-06
0.000582691
1.72476e-05
2.60607e-06
0.000572179
1.5694e-05
2.74742e-06
0.000563586
1.49887e-05
2.64496e-06
0.000555496
1.32551e-05
2.68446e-06
0.000551881
9.55484e-06
2.71173e-06
0.000534575
2.23813e-05
2.65426e-06
0.000636642
-9.64365e-05
2.75671e-06
-7.86266e-05
2.88176e-06
0.000719673
0.00240425
0.000320077
8.48806e-06
0.00234641
0.000560526
1.03645e-05
0.00222646
0.000466448
7.86205e-06
0.00209343
0.000304945
9.20021e-06
0.0019856
0.000199104
7.78502e-06
0.00189638
0.000135694
8.82045e-06
0.00182956
0.000101487
7.91819e-06
0.00177228
8.01176e-05
8.57503e-06
0.00172835
6.45451e-05
7.9811e-06
0.00168866
5.38757e-05
8.36097e-06
0.00165739
4.46104e-05
8.00131e-06
0.00162816
3.83805e-05
8.19523e-06
0.00160434
3.28062e-05
8.01608e-06
0.001582
2.82239e-05
8.08229e-06
0.0015622
2.61382e-05
8.04336e-06
0.00154601
1.96389e-05
8.01333e-06
0.00152495
2.15272e-05
8.10086e-06
0.00152281
1.46669e-05
7.97052e-06
0.00144069
-2.40381e-05
8.22693e-06
4.75603e-06
8.23432e-06
0.00134663
0.00242742
0.000207414
4.23151e-06
0.00255819
0.000427667
6.27555e-06
0.00262378
0.000406827
3.4094e-06
0.00262603
0.000301946
5.18024e-06
0.00260742
0.000222792
3.41648e-06
0.00257554
0.000167303
4.81889e-06
0.00254683
0.0001342
3.67617e-06
0.00251591
0.00011103
4.59826e-06
0.00249016
9.3522e-05
3.83037e-06
0.00246374
8.05449e-05
4.39687e-06
0.00244178
6.924e-05
3.90724e-06
0.00241952
6.1089e-05
4.23604e-06
0.002401
5.35577e-05
3.96122e-06
0.00238188
4.79168e-05
4.12655e-06
0.0023669
4.29512e-05
4.01812e-06
0.00234857
3.85849e-05
4.06417e-06
0.00234069
3.08468e-05
4.08866e-06
0.00231951
3.63957e-05
4.04809e-06
0.00232986
-3.31381e-05
4.08853e-06
-1.36247e-05
4.22537e-06
0.00234826
0.00237961
0.00013417
7.35893e-06
0.00252345
0.000273604
9.27473e-06
0.00265935
0.00026825
6.8735e-06
0.00274222
0.000210116
8.277e-06
0.00279836
0.000163275
6.80874e-06
0.00282859
0.000128733
7.86173e-06
0.00285099
0.000107564
6.9283e-06
0.00286204
9.19854e-05
7.60822e-06
0.002871
7.96498e-05
6.99842e-06
0.00287379
7.00298e-05
7.39727e-06
0.0028763
6.12919e-05
7.02576e-06
0.00287518
5.46574e-05
7.23316e-06
0.00287442
4.84591e-05
7.04424e-06
0.00287157
4.33531e-05
7.1202e-06
0.00286876
3.95489e-05
7.07313e-06
0.00286574
3.42664e-05
7.05291e-06
0.00285852
3.14833e-05
7.12923e-06
0.0028583
2.92582e-05
7.03107e-06
0.0028193
-1.30152e-06
7.26788e-06
2.38628e-05
7.27153e-06
0.00277379
0.00238167
6.41238e-05
5.32898e-06
0.0025159
0.000134658
7.31051e-06
0.00265196
0.000135029
4.75745e-06
0.00275043
0.000108031
6.30965e-06
0.0028294
8.64078e-05
4.69485e-06
0.00288519
6.99327e-05
5.8824e-06
0.00293401
5.99164e-05
4.85358e-06
0.00297094
5.23638e-05
5.63744e-06
0.00300464
4.63898e-05
4.95918e-06
0.0030306
4.1602e-05
5.43426e-06
0.00305459
3.7175e-05
5.01115e-06
0.00307317
3.37603e-05
5.27482e-06
0.00309065
3.03781e-05
5.0474e-06
0.00310395
2.78432e-05
5.16565e-06
0.00311734
2.5164e-05
5.08984e-06
0.00312605
2.34204e-05
5.10357e-06
0.00313703
1.91722e-05
5.14814e-06
0.00314262
2.14882e-05
5.09634e-06
0.0031427
-2.94842e-06
5.18153e-06
7.84624e-06
5.28215e-06
0.00315608
0.00237307
-1.61854e-10
6.32754e-06
0.0025004
2.85413e-10
8.27227e-06
0.00263551
-2.08118e-10
5.8498e-06
0.00273727
6.7781e-10
7.31039e-06
0.00282302
-1.59514e-10
5.77997e-06
0.00288729
1.56583e-09
6.87893e-06
0.00294568
6.10137e-10
5.90726e-06
0.0029927
3.83094e-09
6.62746e-06
0.00303686
3.55658e-09
5.99298e-06
0.00307335
1.04752e-08
6.42237e-06
0.00310772
1.17501e-08
6.0323e-06
0.0031365
3.29687e-08
6.262e-06
0.00316359
3.04653e-08
6.05888e-06
0.00318648
1.05353e-07
6.15143e-06
0.00320791
8.09924e-08
6.09353e-06
0.00322625
3.00485e-07
6.0876e-06
0.00324115
2.75861e-07
6.15013e-06
0.00325707
7.52951e-07
6.07976e-06
0.00324875
9.47797e-07
6.25091e-06
1.83516e-06
6.29039e-06
0.00324944
0.00237307
-6.41241e-05
6.32754e-06
0.0025004
-0.000134657
8.27227e-06
0.00263551
-0.00013503
5.8498e-06
0.00273727
-0.000108029
7.31039e-06
0.00282302
-8.64082e-05
5.77997e-06
0.00288729
-6.99293e-05
6.87894e-06
0.00294568
-5.99157e-05
5.90725e-06
0.0029927
-5.23554e-05
6.62748e-06
0.00303686
-4.6384e-05
5.99296e-06
0.00307335
-4.15791e-05
6.4224e-06
0.00310772
-3.71553e-05
6.03225e-06
0.0031365
-3.36894e-05
6.26209e-06
0.0031636
-3.03283e-05
6.05876e-06
0.00318647
-2.76216e-05
6.15168e-06
0.00320794
-2.50356e-05
6.09318e-06
0.00322627
-2.28077e-05
6.08818e-06
0.00324128
-1.87312e-05
6.14893e-06
0.00325731
-2.00912e-05
6.08071e-06
0.0032491
4.74649e-06
6.24553e-06
-4.58528e-06
6.29175e-06
0.00325019
0.00238167
-0.000134171
5.32898e-06
0.0025159
-0.000273603
7.31051e-06
0.00265195
-0.00026825
4.75745e-06
0.00275043
-0.000210114
6.30964e-06
0.0028294
-0.000163275
4.69485e-06
0.00288519
-0.00012873
5.8824e-06
0.00293401
-0.000107563
4.85359e-06
0.00297094
-9.19782e-05
5.63743e-06
0.00300464
-7.96434e-05
4.9592e-06
0.00303061
-7.00104e-05
5.43423e-06
0.00305459
-6.1271e-05
5.0112e-06
0.00307319
-5.45971e-05
5.27473e-06
0.00309066
-4.84059e-05
5.04751e-06
0.00310399
-4.31618e-05
5.16542e-06
0.00311738
-3.94109e-05
5.09016e-06
0.00312615
-3.37251e-05
5.10299e-06
0.00313709
-3.10076e-05
5.14921e-06
0.00314277
-2.79409e-05
5.09531e-06
0.00314292
3.01169e-06
5.18617e-06
-2.05373e-05
5.28088e-06
0.00315624
0.00237961
-0.000207414
7.35893e-06
0.00252345
-0.000427667
9.27473e-06
0.00265935
-0.000406827
6.8735e-06
0.00274222
-0.000301945
8.27701e-06
0.00279836
-0.000222792
6.80874e-06
0.00282859
-0.0001673
7.86174e-06
0.002851
-0.000134199
6.92829e-06
0.00286204
-0.000111024
7.60824e-06
0.00287101
-9.35174e-05
6.9984e-06
0.00287379
-8.05273e-05
7.3973e-06
0.00287631
-6.9225e-05
7.0257e-06
0.0028752
-6.10351e-05
7.23324e-06
0.00287446
-5.35223e-05
7.0441e-06
0.00287163
-4.77469e-05
7.12039e-06
0.00286887
-4.2868e-05
7.07277e-06
0.00286592
-3.81163e-05
7.05335e-06
0.00285889
-3.05553e-05
7.12801e-06
0.00285895
-3.5357e-05
7.03184e-06
0.00282043
3.43698e-05
7.26285e-06
1.59178e-05
7.27206e-06
0.00277596
0.00242742
-0.000320077
4.23151e-06
0.00255819
-0.000560526
6.27555e-06
0.00262378
-0.000466448
3.40941e-06
0.00262603
-0.000304944
5.18024e-06
0.00260742
-0.000199104
3.41648e-06
0.00257554
-0.000135692
4.81889e-06
0.00254683
-0.000101485
3.67617e-06
0.00251591
-8.01138e-05
4.59825e-06
0.00249017
-6.45407e-05
3.83038e-06
0.00246375
-5.38659e-05
4.39684e-06
0.0024418
-4.45971e-05
3.90728e-06
0.00241956
-3.83495e-05
4.23598e-06
0.00240104
-3.27746e-05
3.96131e-06
0.00238199
-2.81228e-05
4.12637e-06
0.00236701
-2.6062e-05
4.01839e-06
0.00234888
-1.93556e-05
4.06367e-06
0.00234101
-2.126e-05
4.08946e-06
0.00232022
-1.4013e-05
4.04711e-06
0.00233077
2.50556e-05
4.09167e-06
-2.91761e-06
4.22442e-06
0.00234963
0.00240425
-0.000420337
8.48806e-06
0.00234641
-0.000516064
1.03645e-05
0.00222646
-0.000351798
7.86205e-06
0.00209343
-0.000183435
9.20021e-06
0.0019856
-9.72549e-05
7.78502e-06
0.00189638
-5.73931e-05
8.82046e-06
0.00182957
-4.14977e-05
7.91818e-06
0.00177229
-3.33526e-05
8.57504e-06
0.00172836
-2.80066e-05
7.98108e-06
0.00168867
-2.43337e-05
8.361e-06
0.00165741
-2.11864e-05
8.00126e-06
0.0016282
-1.90683e-05
8.1953e-06
0.0016044
-1.72385e-05
8.01596e-06
0.00158211
-1.56468e-05
8.08246e-06
0.00156237
-1.49731e-05
8.04303e-06
0.00154634
-1.31216e-05
8.01376e-06
0.00152551
-9.5256e-06
8.09979e-06
0.00152369
-2.20475e-05
7.97154e-06
0.00144269
9.63456e-05
8.22274e-06
7.84988e-05
8.23618e-06
0.00135059
0.0018994
3.21997e-06
0.0013854
5.041e-06
0.00104381
2.32679e-06
0.000864015
3.84724e-06
0.000775927
2.34163e-06
0.000722617
3.51419e-06
0.000689454
2.48622e-06
0.000660658
3.26083e-06
0.000640443
2.55264e-06
0.00062102
3.0311e-06
0.000607115
2.58093e-06
0.000593139
2.85953e-06
0.000582728
2.60613e-06
0.000572264
2.74731e-06
0.000563686
2.64509e-06
0.00055573
2.68413e-06
0.000552143
2.71203e-06
0.000535174
2.65352e-06
0.000637147
2.75728e-06
2.88051e-06
0.000720049
0.00214146
0.000170806
-2.26907e-12
0.00189959
0.000247699
-2.28599e-12
0.00164086
0.000261831
-2.24761e-12
0.00141346
0.000231972
-2.26603e-12
0.00123028
0.000186146
-2.29513e-12
0.00109517
0.000139165
-2.41298e-12
0.000998728
9.94685e-05
-2.46443e-12
0.00093365
6.89733e-05
-2.51578e-12
0.000888827
4.81015e-05
-2.4355e-12
0.000858712
3.38843e-05
-2.35656e-12
0.000836855
2.51315e-05
-2.25582e-12
0.000821018
1.93573e-05
-2.32865e-12
0.000808535
1.5754e-05
-2.42268e-12
0.00079838
1.35866e-05
-2.56425e-12
0.000790562
1.11492e-05
-2.57313e-12
0.000782066
1.1855e-05
-2.60141e-12
0.000779251
6.18977e-06
-2.5562e-12
0.000768249
1.43098e-05
-2.57629e-12
0.000776717
-5.06122e-06
-2.54656e-12
-2.77328e-06
-2.52923e-12
0.000783037
0.00236526
0.000123072
-2.26895e-12
0.00241199
0.000212118
-2.29439e-12
0.00242081
0.000261652
-2.34564e-12
0.00239898
0.000263759
-2.4319e-12
0.00235546
0.000238166
-2.36712e-12
0.00230409
0.000199997
-2.28291e-12
0.00225009
0.000161976
-2.25555e-12
0.00219913
0.000129067
-2.44122e-12
0.00215151
0.000104263
-2.54999e-12
0.00210882
8.55103e-05
-2.53071e-12
0.00207008
7.24816e-05
-2.34187e-12
0.0020357
6.25781e-05
-2.27991e-12
0.00200478
5.53643e-05
-2.29084e-12
0.00197737
4.97779e-05
-2.42243e-12
0.00195298
4.43052e-05
-2.45393e-12
0.00193105
4.25402e-05
-2.50437e-12
0.00191254
3.35262e-05
-2.48092e-12
0.00189401
4.15394e-05
-2.53705e-12
0.00188096
1.6917e-05
-2.54929e-12
3.54554e-05
-2.6256e-12
0.00185165
0.00235328
8.30574e-05
-2.27067e-12
0.00242364
0.000148821
-2.2931e-12
0.00249631
0.000193167
-2.34091e-12
0.00256273
0.000203293
-2.44516e-12
0.00261267
0.000192373
-2.41788e-12
0.00264805
0.000170109
-2.3366e-12
0.00266915
0.000145174
-2.23156e-12
0.00268087
0.000122532
-2.30476e-12
0.00268504
0.00010447
-2.37565e-12
0.00268491
9.05782e-05
-2.432e-12
0.00268156
8.02674e-05
-2.3499e-12
0.00267639
7.25273e-05
-2.34269e-12
0.00267027
6.60242e-05
-2.35607e-12
0.00266313
6.16647e-05
-2.4986e-12
0.00265654
5.55781e-05
-2.54971e-12
0.0026486
5.52499e-05
-2.59685e-12
0.00264284
4.41165e-05
-2.51858e-12
0.00263445
5.47497e-05
-2.49139e-12
0.00262955
2.66883e-05
-2.44538e-12
5.17204e-05
-2.52452e-12
0.0026183
0.00234345
5.6002e-05
-2.27419e-12
0.00240399
9.83365e-05
-2.29802e-12
0.00247747
0.000127336
-2.33693e-12
0.00255493
0.000134878
-2.42907e-12
0.00262538
0.000129466
-2.4109e-12
0.00268746
0.000116571
-2.3689e-12
0.00273843
0.000101768
-2.29717e-12
0.00278106
8.80977e-05
-2.36097e-12
0.00281589
7.71967e-05
-2.38885e-12
0.00284556
6.88433e-05
-2.39981e-12
0.00287073
6.26432e-05
-2.28629e-12
0.00289286
5.8138e-05
-2.26259e-12
0.00291237
5.40899e-05
-2.26978e-12
0.00292991
5.18062e-05
-2.42701e-12
0.00294569
4.74748e-05
-2.5421e-12
0.00296033
4.83286e-05
-2.64493e-12
0.00297288
3.93934e-05
-2.6352e-12
0.00298605
4.93642e-05
-2.61308e-12
0.00299377
2.70126e-05
-2.5263e-12
5.2583e-05
-2.60731e-12
0.00300101
0.00234403
2.63359e-05
-2.27284e-12
0.00240279
4.76684e-05
-2.29721e-12
0.00247294
6.27242e-05
-2.30955e-12
0.00254828
6.66128e-05
-2.37686e-12
0.00261911
6.40656e-05
-2.37562e-12
0.00268433
5.79122e-05
-2.38996e-12
0.0027408
5.07804e-05
-2.3461e-12
0.00279083
4.42965e-05
-2.38627e-12
0.00283446
3.90937e-05
-2.37564e-12
0.00287404
3.52319e-05
-2.38662e-12
0.00290991
3.2305e-05
-2.30348e-12
0.00294346
3.03629e-05
-2.29795e-12
0.00297472
2.83942e-05
-2.29283e-12
0.00300459
2.76517e-05
-2.41522e-12
0.00303244
2.5304e-05
-2.51343e-12
0.00306009
2.64198e-05
-2.61777e-12
0.00308401
2.13028e-05
-2.62326e-12
0.00311164
2.75629e-05
-2.64018e-12
0.00312942
1.51738e-05
-2.55271e-12
2.97794e-05
-2.65756e-12
0.00315832
0.00234169
-1.9703e-10
-2.27542e-12
0.00239841
4.63962e-10
-2.30291e-12
0.00246777
-4.46897e-10
-2.30823e-12
0.00254246
1.07118e-09
-2.35393e-12
0.00261304
-5.67141e-10
-2.34345e-12
0.00267851
2.33553e-09
-2.36982e-12
0.00273583
1.25202e-11
-2.35419e-12
0.00278734
5.28458e-09
-2.40629e-12
0.00283298
2.46013e-09
-2.39711e-12
0.00287516
1.33833e-08
-2.41507e-12
0.00291401
8.60661e-09
-2.35536e-12
0.0029511
3.87995e-08
-2.37038e-12
0.00298604
2.05334e-08
-2.36159e-12
0.00302028
1.14442e-07
-2.4507e-12
0.00305221
4.85282e-08
-2.48499e-12
0.00308504
3.09425e-07
-2.55225e-12
0.003113
1.62637e-07
-2.53801e-12
0.00314665
7.20929e-07
-2.57099e-12
0.00316817
6.64588e-07
-2.53045e-12
1.44629e-06
-2.64224e-12
0.0032036
0.00234169
-2.63363e-05
-2.27327e-12
0.00239841
-4.76674e-05
-2.30177e-12
0.00246777
-6.27251e-05
-2.29832e-12
0.00254246
-6.66106e-05
-2.32955e-12
0.00261304
-6.40668e-05
-2.3093e-12
0.00267851
-5.79074e-05
-2.33898e-12
0.00273583
-5.07806e-05
-2.32603e-12
0.00278734
-4.42856e-05
-2.38338e-12
0.00283298
-3.90893e-05
-2.38655e-12
0.00287516
-3.52046e-05
-2.44105e-12
0.00291401
-3.22889e-05
-2.43045e-12
0.0029511
-3.02846e-05
-2.48221e-12
0.00298605
-2.83554e-05
-2.47504e-12
0.00302028
-2.74227e-05
-2.53422e-12
0.00305222
-2.52121e-05
-2.49697e-12
0.00308505
-2.58043e-05
-2.51398e-12
0.00311303
-2.09916e-05
-2.46668e-12
0.0031467
-2.61433e-05
-2.48469e-12
0.00316826
-1.38968e-05
-2.49691e-12
-2.69915e-05
-2.56898e-12
0.0032038
0.00234403
-5.60023e-05
-2.27555e-12
0.00240279
-9.83356e-05
-2.30703e-12
0.00247294
-0.000127337
-2.29539e-12
0.00254828
-0.000134876
-2.30472e-12
0.00261911
-0.000129467
-2.27644e-12
0.00268433
-0.000116567
-2.31779e-12
0.0027408
-0.000101768
-2.33294e-12
0.00279083
-8.80873e-05
-2.40206e-12
0.00283446
-7.71923e-05
-2.40762e-12
0.00287404
-6.88175e-05
-2.47194e-12
0.00290991
-6.26272e-05
-2.48817e-12
0.00294347
-5.80642e-05
-2.56156e-12
0.00297473
-5.40517e-05
-2.55026e-12
0.00300461
-5.15889e-05
-2.56898e-12
0.00303246
-4.73874e-05
-2.46024e-12
0.00306014
-4.77401e-05
-2.43946e-12
0.00308408
-3.9105e-05
-2.3707e-12
0.00311176
-4.79955e-05
-2.41437e-12
0.00312963
-2.58178e-05
-2.47999e-12
-4.98746e-05
-2.55005e-12
0.00315861
0.00234345
-8.30577e-05
-2.27524e-12
0.00240399
-0.00014882
-2.30571e-12
0.00247747
-0.000193168
-2.26543e-12
0.00255493
-0.000203291
-2.25087e-12
0.00262538
-0.000192374
-2.24229e-12
0.00268746
-0.000170105
-2.34257e-12
0.00273843
-0.000145175
-2.38572e-12
0.00278106
-0.000122522
-2.4325e-12
0.00281589
-0.000104467
-2.40292e-12
0.00284556
-9.05537e-05
-2.47098e-12
0.00287073
-8.02546e-05
-2.51856e-12
0.00289287
-7.24585e-05
-2.60634e-12
0.00291239
-6.59944e-05
-2.57721e-12
0.00292995
-6.14649e-05
-2.54509e-12
0.00294575
-5.55139e-05
-2.40901e-12
0.00296044
-5.47142e-05
-2.39092e-12
0.00297307
-4.38972e-05
-2.34538e-12
0.00298638
-5.35296e-05
-2.45106e-12
0.00299432
-2.57185e-05
-2.52674e-12
-4.94593e-05
-2.59695e-12
0.00300201
0.00235328
-0.000123072
-2.27845e-12
0.00242364
-0.000212117
-2.30698e-12
0.00249631
-0.000261653
-2.25027e-12
0.00256273
-0.000263758
-2.2255e-12
0.00261267
-0.000238167
-2.23848e-12
0.00264805
-0.000199994
-2.38718e-12
0.00266915
-0.000161976
-2.45981e-12
0.00268087
-0.000129059
-2.487e-12
0.00268505
-0.00010426
-2.40908e-12
0.00268492
-8.54918e-05
-2.43715e-12
0.00268157
-7.24711e-05
-2.46068e-12
0.00267642
-6.25259e-05
-2.53503e-12
0.0026703
-5.53422e-05
-2.49077e-12
0.00266321
-4.96252e-05
-2.45522e-12
0.00265664
-4.42649e-05
-2.37931e-12
0.00264883
-4.21293e-05
-2.42506e-12
0.00264315
-3.33864e-05
-2.4703e-12
0.00263505
-4.06113e-05
-2.6025e-12
0.00263044
-1.62278e-05
-2.62787e-12
-3.37979e-05
-2.66439e-12
0.00261979
0.00236526
-0.000170806
-2.2783e-12
0.00241199
-0.000247698
-2.29561e-12
0.00242081
-0.000261831
-2.23068e-12
0.00239898
-0.000231971
-2.23915e-12
0.00235546
-0.000186147
-2.31463e-12
0.00230409
-0.000139164
-2.46633e-12
0.00225009
-9.9468e-05
-2.43274e-12
0.00219913
-6.89701e-05
-2.32627e-12
0.00215151
-4.80986e-05
-2.21733e-12
0.00210884
-3.38765e-05
-2.3395e-12
0.0020701
-2.5124e-05
-2.4743e-12
0.00203575
-1.93338e-05
-2.59397e-12
0.00200484
-1.57405e-05
-2.54134e-12
0.00197751
-1.35131e-05
-2.52338e-12
0.00195314
-1.1133e-05
-2.48186e-12
0.00193141
-1.16477e-05
-2.53854e-12
0.001913
-6.14226e-06
-2.53541e-12
0.00189493
-1.38453e-05
-2.56241e-12
0.00188227
5.35981e-06
-2.51154e-12
3.27813e-06
-2.52101e-12
0.00185411
0.00214146
-2.27592e-12
0.00189959
-2.29535e-12
0.00164086
-2.31179e-12
0.00141346
-2.40383e-12
0.00123028
-2.41091e-12
0.00109517
-2.33773e-12
0.000998731
-2.17398e-12
0.000933656
-2.21908e-12
0.000888836
-2.37114e-12
0.000858728
-2.57088e-12
0.000836878
-2.56713e-12
0.000821065
-2.51529e-12
0.000808596
-2.39766e-12
0.000798514
-2.40222e-12
0.000790713
-2.38033e-12
0.000782424
-2.43497e-12
0.000779655
-2.42184e-12
0.000769118
-2.48812e-12
0.000777888
-2.48986e-12
-2.60092e-12
0.000784704
0.00214146
0.000170806
-3.21997e-06
0.00189959
0.000247699
-5.041e-06
0.00164086
0.000261831
-2.32679e-06
0.00141346
0.000231972
-3.84725e-06
0.00123028
0.000186146
-2.34163e-06
0.00109517
0.000139165
-3.5142e-06
0.000998728
9.94685e-05
-2.48622e-06
0.00093365
6.89733e-05
-3.26084e-06
0.000888827
4.81015e-05
-2.55264e-06
0.000858712
3.38843e-05
-3.03112e-06
0.000836855
2.51315e-05
-2.58091e-06
0.000821018
1.93573e-05
-2.85958e-06
0.000808535
1.5754e-05
-2.60608e-06
0.00079838
1.35866e-05
-2.74742e-06
0.000790562
1.11492e-05
-2.64496e-06
0.000782066
1.1855e-05
-2.68446e-06
0.000779251
6.18977e-06
-2.71173e-06
0.000768249
1.43098e-05
-2.65426e-06
0.000776717
-5.06122e-06
-2.75671e-06
-2.77328e-06
-2.88176e-06
0.000783037
0.00236526
0.000123072
-8.48806e-06
0.00241199
0.000212118
-1.03645e-05
0.00242081
0.000261652
-7.86205e-06
0.00239898
0.000263759
-9.20021e-06
0.00235546
0.000238166
-7.78502e-06
0.00230409
0.000199997
-8.82046e-06
0.00225009
0.000161976
-7.91819e-06
0.00219913
0.000129067
-8.57503e-06
0.00215151
0.000104263
-7.9811e-06
0.00210882
8.55104e-05
-8.36097e-06
0.00207008
7.24817e-05
-8.00131e-06
0.0020357
6.25781e-05
-8.19523e-06
0.00200478
5.53643e-05
-8.01608e-06
0.00197737
4.97779e-05
-8.08229e-06
0.00195298
4.43052e-05
-8.04336e-06
0.00193105
4.25402e-05
-8.01333e-06
0.00191254
3.35262e-05
-8.10086e-06
0.00189401
4.15394e-05
-7.97052e-06
0.00188096
1.6917e-05
-8.22694e-06
3.54554e-05
-8.23432e-06
0.00185165
0.00235328
8.30574e-05
-4.23151e-06
0.00242364
0.000148821
-6.27555e-06
0.00249631
0.000193167
-3.40941e-06
0.00256273
0.000203293
-5.18024e-06
0.00261267
0.000192373
-3.41648e-06
0.00264805
0.000170109
-4.81889e-06
0.00266915
0.000145174
-3.67617e-06
0.00268087
0.000122532
-4.59826e-06
0.00268504
0.000104471
-3.83037e-06
0.00268491
9.05783e-05
-4.39687e-06
0.00268156
8.02675e-05
-3.90724e-06
0.00267639
7.25273e-05
-4.23604e-06
0.00267027
6.60242e-05
-3.96122e-06
0.00266313
6.16647e-05
-4.12655e-06
0.00265654
5.55781e-05
-4.01812e-06
0.0026486
5.52499e-05
-4.06417e-06
0.00264284
4.41165e-05
-4.08866e-06
0.00263445
5.47498e-05
-4.04809e-06
0.00262955
2.66883e-05
-4.08853e-06
5.17204e-05
-4.22537e-06
0.0026183
0.00234345
5.6002e-05
-7.35894e-06
0.00240399
9.83365e-05
-9.27474e-06
0.00247747
0.000127337
-6.8735e-06
0.00255493
0.000134878
-8.27701e-06
0.00262538
0.000129466
-6.80874e-06
0.00268746
0.000116571
-7.86173e-06
0.00273843
0.000101768
-6.9283e-06
0.00278106
8.80977e-05
-7.60823e-06
0.00281589
7.71967e-05
-6.99842e-06
0.00284556
6.88434e-05
-7.39727e-06
0.00287073
6.26432e-05
-7.02576e-06
0.00289286
5.8138e-05
-7.23316e-06
0.00291237
5.40898e-05
-7.04424e-06
0.00292991
5.18061e-05
-7.1202e-06
0.00294569
4.74747e-05
-7.07314e-06
0.00296033
4.83286e-05
-7.05292e-06
0.00297288
3.93934e-05
-7.12924e-06
0.00298605
4.93642e-05
-7.03107e-06
0.00299377
2.70127e-05
-7.26788e-06
5.2583e-05
-7.27153e-06
0.00300101
0.00234403
2.63359e-05
-5.32898e-06
0.00240279
4.76684e-05
-7.31052e-06
0.00247294
6.27242e-05
-4.75745e-06
0.00254828
6.66128e-05
-6.30965e-06
0.00261911
6.40656e-05
-4.69485e-06
0.00268433
5.79122e-05
-5.88241e-06
0.0027408
5.07805e-05
-4.85358e-06
0.00279083
4.42965e-05
-5.63745e-06
0.00283446
3.90938e-05
-4.95919e-06
0.00287404
3.52319e-05
-5.43426e-06
0.00290991
3.2305e-05
-5.01115e-06
0.00294346
3.03628e-05
-5.27482e-06
0.00297472
2.83941e-05
-5.0474e-06
0.00300459
2.76516e-05
-5.16566e-06
0.00303244
2.53039e-05
-5.08984e-06
0.00306009
2.64197e-05
-5.10357e-06
0.00308401
2.13028e-05
-5.14814e-06
0.00311164
2.75629e-05
-5.09634e-06
0.00312942
1.51739e-05
-5.18154e-06
2.97794e-05
-5.28215e-06
0.00315832
0.00234169
-1.96918e-10
-6.32754e-06
0.00239841
4.64405e-10
-8.27227e-06
0.00246777
-4.36862e-10
-5.8498e-06
0.00254246
1.10012e-09
-7.31039e-06
0.00261304
-5.19152e-10
-5.77998e-06
0.00267851
2.39015e-09
-6.87894e-06
0.00273583
6.21631e-11
-5.90726e-06
0.00278734
5.33561e-09
-6.62747e-06
0.00283298
2.52279e-09
-5.99298e-06
0.00287516
1.3442e-08
-6.42237e-06
0.00291401
8.62504e-09
-6.0323e-06
0.0029511
3.87525e-08
-6.262e-06
0.00298604
2.04325e-08
-6.05888e-06
0.00302028
1.14321e-07
-6.15144e-06
0.00305221
4.84238e-08
-6.09353e-06
0.00308504
3.09365e-07
-6.0876e-06
0.003113
1.62619e-07
-6.15013e-06
0.00314665
7.20946e-07
-6.07977e-06
0.00316817
6.6462e-07
-6.25091e-06
1.4463e-06
-6.29039e-06
0.0032036
0.00234169
-2.63363e-05
-6.32754e-06
0.00239841
-4.76674e-05