/*--------------------------------*- C++ -*----------------------------------*\
  =========                 |
  \\      /  F ield         | OpenFOAM: The Open Source CFD Toolbox
   \\    /   O peration     | Website:  https://openfoam.org
    \\  /    A nd           | Version:  7
     \\/     M anipulation  |
\*---------------------------------------------------------------------------*/
FoamFile
{
    version     2.0;
    format      ascii;
    class       surfaceScalarField;
    location    "0.035";
    object      phi;
}
// * * * * * * * * * * * * * * * * * * * * * * * * * * * * * * * * * * * * * //

dimensions      [1 0 -1 0 0 0 0];

internalField   nonuniform List<scalar> 
2748
(
0.0119987
6.16725e-05
0.0118354
0.000163438
0.0115882
0.000247261
0.0112718
0.00031652
0.0109016
0.000370243
0.0104943
0.000407397
0.0100652
0.000429215
0.00962737
0.000437903
0.00919092
0.000436521
0.0087637
0.000427289
0.00835157
0.000412178
0.0079581
0.000393515
0.00758606
0.000372074
0.00723736
0.000348731
0.00691265
0.000324724
0.00661195
0.000300699
0.00633487
0.000277078
0.00608064
0.000254222
0.00584823
0.000232392
0.00563645
0.000211766
0.00544398
0.00019245
0.00526946
0.000174508
0.0051115
0.000157954
0.00496874
0.000142779
0.00483982
0.000128943
0.00472348
0.000116389
0.0046185
0.000105045
0.00452377
9.48325e-05
0.00443822
8.56695e-05
0.0043609
7.7472e-05
0.00429091
7.01568e-05
0.00422745
6.36437e-05
0.00416979
5.78555e-05
0.00411727
5.27196e-05
0.0040693
4.81682e-05
0.00402535
4.41386e-05
0.00398493
4.05735e-05
0.00394764
3.74209e-05
0.0039131
3.46338e-05
0.00388099
3.21702e-05
0.003851
2.99926e-05
0.00382291
2.80677e-05
0.00379648
2.63662e-05
0.00377153
2.48619e-05
0.00374789
2.3532e-05
0.00372541
2.23563e-05
0.00370399
2.13167e-05
0.0036835
2.03973e-05
0.00366386
1.95838e-05
0.00364499
1.88636e-05
0.0036268
1.8225e-05
0.00360924
1.76573e-05
0.00359223
1.71505e-05
0.00357573
1.66953e-05
0.00355967
1.62833e-05
0.00354402
1.59069e-05
0.00352871
1.55594e-05
0.00351372
1.52352e-05
0.00349899
1.49295e-05
0.00348451
1.46383e-05
0.00347025
1.43588e-05
0.00345617
1.4089e-05
0.00344228
1.3828e-05
0.00342856
1.35755e-05
0.00341501
1.33318e-05
0.00340164
1.30981e-05
0.00338845
1.28754e-05
0.00337546
1.26654e-05
0.00336268
1.24692e-05
0.00335012
1.22879e-05
0.00333781
1.21219e-05
0.00332573
1.19709e-05
0.0033139
1.18337e-05
0.0033023
1.17085e-05
0.00329094
1.15929e-05
0.00327978
1.14837e-05
0.0032688
1.13776e-05
0.00325798
1.12705e-05
0.00324729
1.11587e-05
0.00323668
1.10391e-05
0.00322614
1.09094e-05
0.00321564
1.0768e-05
0.00320517
1.06145e-05
0.0031947
1.04491e-05
0.00318424
1.02731e-05
0.00317379
1.0089e-05
0.00316336
9.901e-06
0.00315301
9.71485e-06
0.00314277
9.53727e-06
0.0031327
9.37475e-06
0.00312286
9.23281e-06
0.00311328
9.11473e-06
0.00310397
9.02154e-06
0.00309494
8.9518e-06
0.00308616
8.90226e-06
0.0030776
8.86851e-06
0.00306924
8.84541e-06
0.00306103
8.82836e-06
0.00305294
8.8123e-06
0.00304495
8.79457e-06
0.00303704
8.77092e-06
0.00302919
8.74213e-06
0.0030214
8.70387e-06
0.00301367
8.66189e-06
0.00300601
8.60882e-06
0.00299843
8.55814e-06
0.00299095
8.49333e-06
0.00298355
8.44224e-06
0.00297628
8.36739e-06
0.00296911
8.32609e-06
0.0029621
8.23665e-06
0.00295518
8.2178e-06
0.00294845
8.097e-06
0.00294178
8.11839e-06
0.00293538
7.92816e-06
0.00292899
8.01649e-06
0.002923
7.69303e-06
0.00291691
7.90409e-06
0.00291137
7.43193e-06
8.10033e-06
0.0120854
3.54858e-05
0.0121422
0.000106742
0.0122181
0.000171466
0.0123061
0.00022859
0.0123969
0.000279534
0.0124811
0.000323243
0.0125522
0.000358295
0.0126059
0.000384222
0.0126409
0.000401605
0.0126569
0.000411363
0.0126547
0.000414468
0.0126362
0.00041209
0.0126031
0.000405145
0.0125574
0.000394495
0.0125011
0.000381069
0.0124362
0.000365656
0.0123644
0.000348904
0.0122873
0.000331357
0.0122062
0.000313475
0.0121224
0.00029563
0.0120367
0.000278119
0.01195
0.000261178
0.011863
0.000244971
0.0117762
0.000229616
0.0116899
0.000215188
0.0116046
0.000201721
0.0115204
0.000189223
0.0114376
0.000177678
0.0113562
0.000167055
0.0112764
0.000157312
0.0111981
0.000148398
0.0111216
0.000140258
0.0110466
0.000132834
0.0109734
0.000126069
0.0109017
0.000119905
0.0108316
0.000114288
0.0107631
0.000109165
0.0106962
0.00010449
0.0106307
0.000100216
0.0105667
9.63041e-05
0.0105041
9.27164e-05
0.0104429
8.94198e-05
0.010383
8.63846e-05
0.0103245
8.35841e-05
0.0102671
8.09946e-05
0.0102111
7.85947e-05
0.0101562
7.63652e-05
0.0101024
7.42889e-05
0.0100498
7.23502e-05
0.00999826
7.05356e-05
0.00994779
6.88331e-05
0.00989835
6.72302e-05
0.00984993
6.57154e-05
0.00980248
6.42779e-05
0.00975599
6.29085e-05
0.00971044
6.15986e-05
0.00966579
6.03406e-05
0.00962204
5.91281e-05
0.00957914
5.79558e-05
0.00953709
5.68193e-05
0.00949585
5.57154e-05
0.00945541
5.46417e-05
0.00941574
5.35969e-05
0.00937682
5.25802e-05
0.00933862
5.15919e-05
0.00930113
5.06324e-05
0.00926433
4.97027e-05
0.00922819
4.88034e-05
0.0091927
4.79353e-05
0.00915785
4.70987e-05
0.00912362
4.62933e-05
0.00908999
4.55179e-05
0.00905697
4.4771e-05
0.00902453
4.405e-05
0.00899267
4.33521e-05
0.00896137
4.26736e-05
0.00893064
4.2011e-05
0.00890047
4.13601e-05
0.00887083
4.07177e-05
0.00884172
4.00806e-05
0.00881313
3.94466e-05
0.00878505
3.88144e-05
0.00875745
3.81839e-05
0.00873032
3.75556e-05
0.00870365
3.69315e-05
0.00867741
3.63147e-05
0.00865158
3.57094e-05
0.00862615
3.51207e-05
0.00860111
3.45541e-05
0.00857643
3.40145e-05
0.0085521
3.35064e-05
0.00852813
3.30318e-05
0.00850451
3.25918e-05
0.00848123
3.21848e-05
0.00845828
3.18085e-05
0.00843566
3.14584e-05
0.00841337
3.11304e-05
0.0083914
3.08191e-05
0.00836974
3.05204e-05
0.00834837
3.02296e-05
0.0083273
2.99436e-05
0.00830651
2.96596e-05
0.00828599
2.9376e-05
0.00826574
2.90921e-05
0.00824575
2.88072e-05
0.00822601
2.85225e-05
0.00820652
2.82371e-05
0.00818728
2.7954e-05
0.00816826
2.76706e-05
0.00814951
2.73914e-05
0.00813097
2.71114e-05
0.00811271
2.68347e-05
0.00809463
2.65563e-05
0.00807688
2.62705e-05
0.00805924
2.59871e-05
0.00804206
2.56537e-05
0.00802487
2.53515e-05
0.00800843
2.48554e-05
0.00799187
2.45493e-05
2.42623e-05
0.0120689
2.5035e-05
0.0121002
7.55003e-05
0.0121488
0.00012298
0.0122129
0.00016462
0.0122915
0.00020102
0.0123825
0.000232301
0.012483
0.000257917
0.0125897
0.000277598
0.0126997
0.000291634
0.0128105
0.000300667
0.0129197
0.00030534
0.0130256
0.000306265
0.0131267
0.000304074
0.013222
0.000299308
0.0133107
0.000292411
0.0133925
0.000283856
0.0134673
0.000274081
0.0135353
0.000263458
0.0135965
0.000252309
0.0136512
0.000240907
0.0136999
0.000229485
0.0137428
0.000218242
0.0137804
0.000207334
0.0138132
0.000196872
0.0138414
0.000186934
0.0138656
0.000177568
0.013886
0.000168802
0.013903
0.000160642
0.013917
0.000153082
0.0139282
0.000146104
0.0139369
0.000139686
0.0139434
0.000133797
0.0139478
0.000128405
0.0139504
0.000123474
0.0139514
0.000118967
0.0139508
0.00011485
0.013949
0.000111088
0.0139458
0.000107648
0.0139416
0.000104499
0.0139363
0.000101615
0.0139302
9.89685e-05
0.0139231
9.65363e-05
0.0139153
9.42976e-05
0.0139067
9.2233e-05
0.0138975
9.03257e-05
0.0138877
8.85597e-05
0.0138772
8.69213e-05
0.0138663
8.5397e-05
0.0138548
8.39745e-05
0.0138428
8.26441e-05
0.0138304
8.13981e-05
0.0138176
8.02254e-05
0.0138044
7.91167e-05
0.0137908
7.80633e-05
0.0137768
7.70574e-05
0.0137626
7.60917e-05
0.0137479
7.51599e-05
0.013733
7.42566e-05
0.0137178
7.33773e-05
0.0137023
7.25184e-05
0.0136866
7.16775e-05
0.0136706
7.08528e-05
0.0136543
7.00436e-05
0.0136379
6.92492e-05
0.0136212
6.84706e-05
0.0136043
6.77084e-05
0.0135872
6.69642e-05
0.01357
6.62389e-05
0.0135526
6.55338e-05
0.013535
6.48491e-05
0.0135172
6.41853e-05
0.0134993
6.35412e-05
0.0134813
6.29159e-05
0.0134631
6.23068e-05
0.0134448
6.17117e-05
0.0134264
6.1127e-05
0.0134079
6.05497e-05
0.0133893
5.99761e-05
0.0133706
5.94033e-05
0.0133518
5.88282e-05
0.013333
5.82494e-05
0.0133141
5.76656e-05
0.0132951
5.70775e-05
0.0132761
5.64858e-05
0.013257
5.58934e-05
0.0132379
5.53035e-05
0.0132187
5.47209e-05
0.0131995
5.41503e-05
0.0131803
5.3598e-05
0.0131611
5.30683e-05
0.0131418
5.25664e-05
0.0131226
5.20943e-05
0.0131033
5.16541e-05
0.013084
5.12441e-05
0.0130648
5.08632e-05
0.0130455
5.05064e-05
0.0130262
5.01712e-05
0.013007
4.98504e-05
0.0129878
4.95423e-05
0.0129685
4.92385e-05
0.0129493
4.89406e-05
0.0129301
4.86386e-05
0.012911
4.83398e-05
0.0128919
4.80299e-05
0.0128728
4.77266e-05
0.0128537
4.74041e-05
0.0128348
4.70992e-05
0.0128158
4.67605e-05
0.012797
4.6463e-05
0.0127782
4.60994e-05
0.0127594
4.58248e-05
0.0127408
4.5414e-05
0.0127222
4.51888e-05
0.0127038
4.46788e-05
0.0126853
4.45516e-05
0.0126672
4.38324e-05
0.0126488
4.38938e-05
0.0126311
4.27231e-05
0.0126128
4.30072e-05
4.12542e-05
0.0120667
1.62009e-05
0.0120937
4.85923e-05
0.0121372
7.96025e-05
0.0121946
0.000107289
0.0122644
0.000131341
0.0123449
0.000151906
0.012434
0.000168887
0.0125296
0.00018213
0.0126296
0.000191725
0.0127323
0.000198018
0.0128363
0.000201437
0.0129402
0.000202399
0.013043
0.000201318
0.0131438
0.000198546
0.0132419
0.000194378
0.0133367
0.000189116
0.0134277
0.000183053
0.0135148
0.000176441
0.0135976
0.000169489
0.0136762
0.000162368
0.0137504
0.000155212
0.0138205
0.000148155
0.0138866
0.000141312
0.0139487
0.000134744
0.0140071
0.0001285
0.0140621
0.000122608
0.0141138
0.000117086
0.0141625
0.000111932
0.0142085
0.000107142
0.0142519
0.000102707
0.0142929
9.86141e-05
0.0143319
9.48476e-05
0.0143689
9.13886e-05
0.0144042
8.82163e-05
0.0144378
8.53104e-05
0.01447
8.26498e-05
0.0145009
8.02149e-05
0.0145306
7.79863e-05
0.0145592
7.59464e-05
0.0145868
7.40782e-05
0.0146134
7.23666e-05
0.0146392
7.07976e-05
0.0146642
6.93587e-05
0.0146885
6.80381e-05
0.0147121
6.68258e-05
0.014735
6.57119e-05
0.0147574
6.46876e-05
0.0147792
6.37442e-05
0.0148004
6.28744e-05
0.0148211
6.20714e-05
0.0148413
6.1329e-05
0.0148611
6.06401e-05
0.0148803
5.9998e-05
0.0148992
5.93962e-05
0.0149176
5.8829e-05
0.0149356
5.82909e-05
0.0149532
5.77774e-05
0.0149704
5.7284e-05
0.0149872
5.68078e-05
0.0150036
5.63457e-05
0.0150196
5.58959e-05
0.0150352
5.54572e-05
0.0150505
5.50293e-05
0.0150654
5.46112e-05
0.0150799
5.42036e-05
0.015094
5.38074e-05
0.0151078
5.34237e-05
0.0151213
5.30532e-05
0.0151343
5.2697e-05
0.0151471
5.23552e-05
0.0151595
5.20281e-05
0.0151715
5.17146e-05
0.0151832
5.1414e-05
0.0151946
5.1124e-05
0.0152057
5.08427e-05
0.0152164
5.05673e-05
0.0152268
5.02953e-05
0.0152369
5.00235e-05
0.0152467
4.97498e-05
0.0152562
4.94715e-05
0.0152653
4.91878e-05
0.0152742
4.88976e-05
0.0152827
4.86018e-05
0.0152909
4.83012e-05
0.0152988
4.79987e-05
0.0153064
4.76967e-05
0.0153137
4.73998e-05
0.0153207
4.71118e-05
0.0153273
4.68382e-05
0.0153337
4.65825e-05
0.0153398
4.63493e-05
0.0153456
4.61402e-05
0.0153511
4.59572e-05
0.0153564
4.57988e-05
0.0153614
4.56645e-05
0.0153661
4.55497e-05
0.0153705
4.54529e-05
0.0153748
4.53673e-05
0.0153787
4.52921e-05
0.0153824
4.5219e-05
0.0153859
4.51502e-05
0.0153892
4.50753e-05
0.0153922
4.50025e-05
0.0153949
4.49157e-05
0.0153975
4.48346e-05
0.0153998
4.47299e-05
0.0154019
4.46425e-05
0.0154038
4.45146e-05
0.0154055
4.44291e-05
0.015407
4.42682e-05
0.0154084
4.41997e-05
0.0154095
4.39837e-05
0.0154104
4.39582e-05
0.0154112
4.36401e-05
0.0154118
4.37017e-05
0.0154123
4.31876e-05
0.0154126
4.34022e-05
0.0154127
4.25156e-05
0.0154125
4.29874e-05
4.12995e-05
0.0120657
8.00699e-06
0.0120905
2.39348e-05
0.0121309
3.92691e-05
0.0121852
5.3135e-05
0.0122514
6.51835e-05
0.012328
7.5448e-05
0.012413
8.39802e-05
0.0125045
9.07474e-05
0.0126005
9.57646e-05
0.0126994
9.91652e-05
0.0127998
0.00010115
0.0129003
0.000101933
0.013
0.000101711
0.0130979
0.000100657
0.0131934
9.89224e-05
0.0132859
9.66494e-05
0.013375
9.39831e-05
0.0134604
9.105e-05
0.013542
8.79467e-05
0.0136196
8.47518e-05
0.0136933
8.15287e-05
0.0137631
7.83396e-05
0.0138292
7.52336e-05
0.0138917
7.22401e-05
0.0139509
6.93771e-05
0.0140068
6.66582e-05
0.0140598
6.40951e-05
0.0141101
6.16757e-05
0.0141578
5.93989e-05
0.0142032
5.72646e-05
0.0142466
5.52695e-05
0.014288
5.34089e-05
0.0143277
5.16763e-05
0.0143659
5.00653e-05
0.0144027
4.85688e-05
0.0144381
4.71801e-05
0.0144725
4.58926e-05
0.0145058
4.46997e-05
0.0145382
4.3595e-05
0.0145697
4.2573e-05
0.0146005
4.1628e-05
0.0146306
4.07552e-05
0.0146601
3.99503e-05
0.014689
3.92091e-05
0.0147174
3.85276e-05
0.0147453
3.79022e-05
0.0147727
3.73288e-05
0.0147998
3.68039e-05
0.0148265
3.63237e-05
0.0148528
3.58848e-05
0.0148788
3.54833e-05
0.0149045
3.51156e-05
0.0149299
3.47776e-05
0.014955
3.44654e-05
0.0149798
3.41753e-05
0.0150044
3.39038e-05
0.0150287
3.36479e-05
0.0150528
3.34048e-05
0.0150767
3.31723e-05
0.0151003
3.29486e-05
0.0151237
3.27326e-05
0.0151469
3.25235e-05
0.0151699
3.2321e-05
0.0151926
3.2125e-05
0.0152151
3.19359e-05
0.0152374
3.17545e-05
0.0152595
3.15817e-05
0.0152814
3.14182e-05
0.0153031
3.12645e-05
0.0153246
3.11208e-05
0.0153459
3.09871e-05
0.015367
3.08628e-05
0.0153879
3.07468e-05
0.0154086
3.06377e-05
0.0154291
3.05338e-05
0.0154494
3.0433e-05
0.0154696
3.03333e-05
0.0154895
3.02325e-05
0.0155093
3.01288e-05
0.0155289
3.00207e-05
0.0155483
2.99074e-05
0.0155675
2.97886e-05
0.0155865
2.96648e-05
0.0156053
2.95374e-05
0.015624
2.94084e-05
0.0156424
2.92805e-05
0.0156606
2.91571e-05
0.0156787
2.90417e-05
0.0156965
2.8938e-05
0.0157142
2.88495e-05
0.0157317
2.87792e-05
0.0157489
2.87287e-05
0.0157661
2.86991e-05
0.015783
2.86899e-05
0.0157998
2.87e-05
0.0158164
2.87267e-05
0.0158328
2.87677e-05
0.0158491
2.88187e-05
0.0158653
2.88776e-05
0.0158813
2.89393e-05
0.0158971
2.90032e-05
0.0159128
2.90634e-05
0.0159283
2.91225e-05
0.0159437
2.91725e-05
0.015959
2.92218e-05
0.0159741
2.92564e-05
0.0159891
2.92952e-05
0.0160039
2.93113e-05
0.0160186
2.93431e-05
0.0160332
2.93366e-05
0.0160476
2.93679e-05
0.0160619
2.933e-05
0.0160762
2.93713e-05
0.0160902
2.92836e-05
0.0161043
2.93494e-05
0.016118
2.91755e-05
0.0161318
2.92777e-05
0.0161452
2.89392e-05
0.0161589
2.9026e-05
2.84028e-05
0.0120653
1.00626e-07
0.012089
2.9573e-07
0.0121279
4.75334e-07
0.0121805
6.23825e-07
0.0122451
7.28839e-07
0.0123198
8.21842e-07
0.0124029
9.51942e-07
0.0124926
1.14887e-06
0.012587
1.41571e-06
0.0126845
1.74501e-06
0.0127836
2.13213e-06
0.012883
2.57626e-06
0.0129817
3.0754e-06
0.0130788
3.62771e-06
0.0131735
4.22572e-06
0.0132654
4.8592e-06
0.0133539
5.51928e-06
0.0134387
6.19546e-06
0.0135198
6.87511e-06
0.0135971
7.54625e-06
0.0136704
8.19642e-06
0.0137399
8.81761e-06
0.0138058
9.40245e-06
0.0138681
9.9429e-06
0.013927
1.04304e-05
0.0139828
1.08589e-05
0.0140357
1.12239e-05
0.0140858
1.15182e-05
0.0141335
1.17424e-05
0.0141789
1.19028e-05
0.0142221
1.20043e-05
0.0142635
1.20529e-05
0.0143031
1.2053e-05
0.0143412
1.20102e-05
0.0143778
1.19305e-05
0.0144132
1.18201e-05
0.0144474
1.16848e-05
0.0144806
1.15305e-05
0.0145129
1.13622e-05
0.0145443
1.11851e-05
0.014575
1.10035e-05
0.014605
1.0822e-05
0.0146344
1.06446e-05
0.0146632
1.04748e-05
0.0146915
1.03154e-05
0.0147193
1.01685e-05
0.0147467
1.00355e-05
0.0147737
9.91729e-06
0.0148003
9.81416e-06
0.0148266
9.726e-06
0.0148526
9.6522e-06
0.0148783
9.59184e-06
0.0149037
9.54356e-06
0.0149288
9.50583e-06
0.0149537
9.47697e-06
0.0149784
9.45536e-06
0.0150028
9.43943e-06
0.015027
9.42784e-06
0.015051
9.41945e-06
0.0150747
9.41349e-06
0.0150983
9.4095e-06
0.0151217
9.40728e-06
0.0151448
9.40681e-06
0.0151678
9.40845e-06
0.0151906
9.41284e-06
0.0152132
9.42078e-06
0.0152356
9.43298e-06
0.0152578
9.4501e-06
0.0152798
9.47251e-06
0.0153017
9.50039e-06
0.0153234
9.53359e-06
0.0153449
9.57164e-06
0.0153663
9.61369e-06
0.0153875
9.65862e-06
0.0154085
9.705e-06
0.0154294
9.75131e-06
0.0154501
9.79596e-06
0.0154707
9.83742e-06
0.0154911
9.87434e-06
0.0155113
9.90581e-06
0.0155314
9.93132e-06
0.0155514
9.95101e-06
0.0155712
9.96556e-06
0.0155908
9.97631e-06
0.0156102
9.98516e-06
0.0156295
9.99454e-06
0.0156487
1.00073e-05
0.0156677
1.00263e-05
0.0156865
1.00547e-05
0.0157052
1.00953e-05
0.0157237
1.01502e-05
0.0157421
1.02209e-05
0.0157603
1.03081e-05
0.0157784
1.04116e-05
0.0157964
1.05301e-05
0.0158143
1.06618e-05
0.015832
1.08042e-05
0.0158496
1.09546e-05
0.0158671
1.111e-05
0.0158845
1.12675e-05
0.0159017
1.14246e-05
0.0159189
1.15787e-05
0.015936
1.17284e-05
0.0159529
1.18717e-05
0.0159698
1.20085e-05
0.0159865
1.21369e-05
0.0160032
1.22585e-05
0.0160198
1.2371e-05
0.0160363
1.24775e-05
0.0160527
1.25748e-05
0.016069
1.26675e-05
0.0160852
1.27507e-05
0.0161014
1.28309e-05
0.0161175
1.29011e-05
0.0161335
1.29696e-05
0.0161494
1.30286e-05
0.0161653
1.30818e-05
0.0161809
1.31226e-05
0.0161966
1.31358e-05
1.31903e-05
0.0120653
-7.7953e-06
0.012089
-2.33096e-05
0.0121278
-3.82691e-05
0.0121804
-5.18629e-05
0.012245
-6.37458e-05
0.0123198
-7.38548e-05
0.0124029
-8.21343e-05
0.0124927
-8.85057e-05
0.0125871
-9.29902e-05
0.0126847
-9.57348e-05
0.0127838
-9.69456e-05
0.0128833
-9.68352e-05
0.012982
-9.56023e-05
0.0130792
-9.34299e-05
0.0131739
-9.04878e-05
0.0132657
-8.69416e-05
0.0133542
-8.29467e-05
0.0134391
-7.86516e-05
0.0135202
-7.41787e-05
0.0135974
-6.96336e-05
0.0136707
-6.51058e-05
0.0137402
-6.06692e-05
0.013806
-5.63826e-05
0.0138682
-5.22966e-05
0.0139271
-4.84508e-05
0.0139829
-4.48694e-05
0.0140356
-4.15673e-05
0.0140857
-3.85552e-05
0.0141333
-3.58299e-05
0.0141786
-3.33736e-05
0.0142217
-3.11761e-05
0.014263
-2.92219e-05
0.0143026
-2.74939e-05
0.0143406
-2.59738e-05
0.0143771
-2.46425e-05
0.0144125
-2.34809e-05
0.0144466
-2.247e-05
0.0144798
-2.15917e-05
0.014512
-2.0829e-05
0.0145434
-2.01666e-05
0.0145741
-1.95898e-05
0.014604
-1.90849e-05
0.0146334
-1.8639e-05
0.0146622
-1.82409e-05
0.0146904
-1.78811e-05
0.0147183
-1.75516e-05
0.0147457
-1.72459e-05
0.0147726
-1.69585e-05
0.0147993
-1.6685e-05
0.0148256
-1.64222e-05
0.0148515
-1.61676e-05
0.0148772
-1.59193e-05
0.0149026
-1.56763e-05
0.0149277
-1.54379e-05
0.0149526
-1.52038e-05
0.0149772
-1.4974e-05
0.0150016
-1.47485e-05
0.0150258
-1.45274e-05
0.0150497
-1.43107e-05
0.0150735
-1.40983e-05
0.015097
-1.38899e-05
0.0151204
-1.36848e-05
0.0151435
-1.34832e-05
0.0151664
-1.3284e-05
0.0151892
-1.30865e-05
0.0152118
-1.28896e-05
0.0152341
-1.26926e-05
0.0152563
-1.24949e-05
0.0152784
-1.22962e-05
0.0153002
-1.20962e-05
0.0153219
-1.18952e-05
0.0153434
-1.16935e-05
0.0153647
-1.14918e-05
0.0153859
-1.12911e-05
0.0154069
-1.10924e-05
0.0154277
-1.08971e-05
0.0154484
-1.07063e-05
0.0154689
-1.05212e-05
0.0154893
-1.03426e-05
0.0155095
-1.01711e-05
0.0155296
-1.00068e-05
0.0155495
-9.84941e-06
0.0155692
-9.69796e-06
0.0155888
-9.55107e-06
0.0156082
-9.40688e-06
0.0156275
-9.26312e-06
0.0156466
-9.11727e-06
0.0156656
-8.96669e-06
0.0156844
-8.80883e-06
0.0157031
-8.64135e-06
0.0157216
-8.46247e-06
0.0157399
-8.27094e-06
0.0157582
-8.06637e-06
0.0157763
-7.84898e-06
0.0157942
-7.61996e-06
0.015812
-7.38079e-06
0.0158297
-7.13393e-06
0.0158473
-6.88146e-06
0.0158648
-6.62659e-06
0.0158821
-6.37103e-06
0.0158994
-6.11845e-06
0.0159165
-5.86905e-06
0.0159335
-5.62735e-06
0.0159504
-5.39058e-06
0.0159672
-5.16566e-06
0.015984
-4.94432e-06
0.0160006
-4.73968e-06
0.0160171
-4.53277e-06
0.0160336
-4.35074e-06
0.01605
-4.15311e-06
0.0160663
-3.99696e-06
0.0160825
-3.79809e-06
0.0160986
-3.67469e-06
0.0161146
-3.45488e-06
0.0161307
-3.37722e-06
0.0161465
-3.09792e-06
0.0161624
-3.08139e-06
0.016178
-2.657e-06
0.0161936
-2.69807e-06
-2.02373e-06
0.0120657
-1.59687e-05
0.0120904
-4.78557e-05
0.0121306
-7.84267e-05
0.0121848
-0.000105937
0.0122511
-0.000129968
0.0123278
-0.000150457
0.012413
-0.000167203
0.0125046
-0.000180053
0.0126008
-0.000189128
0.0126999
-0.000194777
0.0128005
-0.000197421
0.0129012
-0.000197481
0.013001
-0.000195363
0.013099
-0.000191425
0.0131946
-0.000186008
0.0132871
-0.000179433
0.0133762
-0.000172004
0.0134616
-0.000163993
0.0135431
-0.000155635
0.0136206
-0.000147129
0.0136941
-0.000138646
0.0137638
-0.000130325
0.0138297
-0.000122273
0.013892
-0.000114585
0.0139509
-0.000107337
0.0140066
-0.000100568
0.0140593
-9.43037e-05
0.0141093
-8.85526e-05
0.0141568
-8.33089e-05
0.014202
-7.85542e-05
0.0142451
-7.42665e-05
0.0142862
-7.04183e-05
0.0143257
-6.69789e-05
0.0143637
-6.39149e-05
0.0144002
-6.11927e-05
0.0144356
-5.87783e-05
0.0144698
-5.66394e-05
0.0145029
-5.47444e-05
0.0145352
-5.30647e-05
0.0145667
-5.15741e-05
0.0145974
-5.02483e-05
0.0146274
-4.90633e-05
0.0146568
-4.7998e-05
0.0146857
-4.70335e-05
0.0147141
-4.6154e-05
0.0147419
-4.53457e-05
0.0147694
-4.45972e-05
0.0147965
-4.38982e-05
0.0148231
-4.32409e-05
0.0148495
-4.26183e-05
0.0148755
-4.20255e-05
0.0149012
-4.14579e-05
0.0149266
-4.09122e-05
0.0149517
-4.03855e-05
0.0149766
-3.9876e-05
0.0150012
-3.93817e-05
0.0150255
-3.89015e-05
0.0150497
-3.8434e-05
0.0150735
-3.79785e-05
0.0150972
-3.75337e-05
0.0151207
-3.7099e-05
0.0151439
-3.66729e-05
0.0151669
-3.6255e-05
0.0151897
-3.58438e-05
0.0152123
-3.54382e-05
0.0152347
-3.5037e-05
0.0152569
-3.46396e-05
0.0152789
-3.42451e-05
0.0153007
-3.38535e-05
0.0153224
-3.34642e-05
0.0153438
-3.30776e-05
0.015365
-3.26939e-05
0.0153861
-3.23139e-05
0.0154069
-3.19381e-05
0.0154276
-3.15678e-05
0.0154481
-3.12037e-05
0.0154685
-3.08471e-05
0.0154886
-3.04983e-05
0.0155086
-3.01583e-05
0.0155284
-2.98271e-05
0.015548
-2.95048e-05
0.0155674
-2.91904e-05
0.0155867
-2.88833e-05
0.0156058
-2.85815e-05
0.0156247
-2.82836e-05
0.0156435
-2.79868e-05
0.015662
-2.76893e-05
0.0156804
-2.73881e-05
0.0156986
-2.70816e-05
0.0157167
-2.67671e-05
0.0157346
-2.64437e-05
0.0157523
-2.61098e-05
0.0157698
-2.5766e-05
0.0157872
-2.54117e-05
0.0158045
-2.5049e-05
0.0158216
-2.46785e-05
0.0158385
-2.43035e-05
0.0158553
-2.39247e-05
0.0158719
-2.35466e-05
0.0158884
-2.3169e-05
0.0159048
-2.27976e-05
0.0159211
-2.24295e-05
0.0159372
-2.20732e-05
0.0159532
-2.17202e-05
0.015969
-2.13849e-05
0.0159848
-2.10484e-05
0.0160004
-2.07391e-05
0.0160159
-2.04155e-05
0.0160313
-2.01372e-05
0.0160466
-1.98159e-05
0.0160619
-1.95779e-05
0.0160769
-1.92367e-05
0.016092
-1.9058e-05
0.0161069
-1.86527e-05
0.0161217
-1.85712e-05
0.0161364
-1.80145e-05
0.0161511
-1.80926e-05
0.0161654
-1.7204e-05
0.01618
-1.74923e-05
-1.59376e-05
0.0120667
-2.47882e-05
0.0120935
-7.4537e-05
0.0121366
-0.000121473
0.012194
-0.000163173
0.0122639
-0.000199783
0.0123446
-0.000231073
0.0124339
-0.000256471
0.0125297
-0.000275774
0.01263
-0.000289318
0.012733
-0.000297725
0.0128373
-0.000301621
0.0129415
-0.000301635
0.0130446
-0.000298377
0.0131456
-0.000292372
0.0132438
-0.000284144
0.0133386
-0.000274192
0.0134295
-0.000262962
0.0135164
-0.00025086
0.0135991
-0.000238239
0.0136774
-0.0002254
0.0137513
-0.000212599
0.0138211
-0.000200049
0.0138867
-0.00018792
0.0139485
-0.000176345
0.0140066
-0.000165423
0.0140612
-0.000155216
0.0141127
-0.000145757
0.0141612
-0.000137055
0.014207
-0.000129102
0.0142503
-0.000121873
0.0142913
-0.000115333
0.0143304
-0.000109439
0.0143675
-0.000104146
0.014403
-9.9403e-05
0.014437
-9.51593e-05
0.0144696
-9.13645e-05
0.014501
-8.79714e-05
0.0145312
-8.49352e-05
0.0145604
-8.22159e-05
0.0145886
-7.97762e-05
0.014616
-7.758e-05
0.0146426
-7.55921e-05
0.0146684
-7.37827e-05
0.0146936
-7.21256e-05
0.0147181
-7.0599e-05
0.0147421
-6.91832e-05
0.0147654
-6.7862e-05
0.0147883
-6.66209e-05
0.0148106
-6.5448e-05
0.0148325
-6.43332e-05
0.0148538
-6.32696e-05
0.0148748
-6.22498e-05
0.0148953
-6.12686e-05
0.0149154
-6.03213e-05
0.0149352
-5.94044e-05
0.0149545
-5.85145e-05
0.0149734
-5.76492e-05
0.014992
-5.68061e-05
0.0150103
-5.59834e-05
0.0150281
-5.51792e-05
0.0150457
-5.43923e-05
0.0150629
-5.36209e-05
0.0150797
-5.28637e-05
0.0150962
-5.21186e-05
0.0151124
-5.13843e-05
0.0151283
-5.06593e-05
0.0151439
-4.99435e-05
0.0151591
-4.92359e-05
0.015174
-4.85364e-05
0.0151887
-4.78445e-05
0.015203
-4.71607e-05
0.015217
-4.64849e-05
0.0152307
-4.58181e-05
0.0152442
-4.51605e-05
0.0152573
-4.45132e-05
0.0152702
-4.38768e-05
0.0152827
-4.32523e-05
0.015295
-4.26398e-05
0.0153071
-4.204e-05
0.0153188
-4.14526e-05
0.0153303
-4.08775e-05
0.0153415
-4.03135e-05
0.0153524
-3.97599e-05
0.0153631
-3.92147e-05
0.0153735
-3.86764e-05
0.0153837
-3.81424e-05
0.0153936
-3.76112e-05
0.0154032
-3.70801e-05
0.0154126
-3.65477e-05
0.0154218
-3.60117e-05
0.0154307
-3.54718e-05
0.0154394
-3.49264e-05
0.0154478
-3.43765e-05
0.015456
-3.38217e-05
0.015464
-3.32641e-05
0.0154718
-3.27042e-05
0.0154794
-3.21455e-05
0.0154868
-3.15881e-05
0.0154941
-3.10366e-05
0.0155011
-3.04902e-05
0.0155079
-2.99548e-05
0.0155146
-2.94267e-05
0.0155212
-2.89145e-05
0.0155275
-2.84093e-05
0.0155337
-2.79254e-05
0.0155398
-2.74435e-05
0.0155457
-2.69919e-05
0.0155515
-2.6529e-05
0.0155572
-2.61141e-05
0.0155627
-2.56584e-05
0.0155681
-2.52892e-05
0.0155734
-2.48163e-05
0.0155786
-2.45127e-05
0.0155837
-2.39722e-05
0.0155887
-2.37763e-05
0.0155936
-2.30647e-05
0.0155984
-2.30576e-05
0.015603
-2.1956e-05
0.0156076
-2.22046e-05
-2.03716e-05
0.0120687
-3.51379e-05
0.0120995
-0.000105228
0.0121477
-0.000169533
0.0122117
-0.00022706
0.0122904
-0.000278363
0.0123815
-0.000322065
0.0124819
-0.000356838
0.0125886
-0.000382365
0.0126986
-0.00039925
0.0128093
-0.000408368
0.0129185
-0.000410738
0.0130244
-0.000407488
0.0131256
-0.000399544
0.0132211
-0.000387815
0.0133102
-0.000373199
0.0133926
-0.0003565
0.0134681
-0.000338411
0.0135367
-0.000319514
0.0135988
-0.000300299
0.0136546
-0.000281169
0.0137045
-0.000262444
0.0137488
-0.000244379
0.0137881
-0.000227164
0.0138226
-0.000210926
0.013853
-0.000195752
0.0138794
-0.000181687
0.0139024
-0.00016874
0.0139223
-0.000156893
0.0139393
-0.000146109
0.0139537
-0.000136336
0.0139659
-0.000127509
0.013976
-0.00011956
0.0139843
-0.000112416
0.0139909
-0.000106004
0.013996
-0.000100253
0.0139998
-9.50906e-05
0.0140023
-9.04509e-05
0.0140037
-8.62742e-05
0.014004
-8.25181e-05
0.0140034
-7.91331e-05
0.014002
-7.60676e-05
0.0139997
-7.32773e-05
0.0139967
-7.07252e-05
0.0139931
-6.83794e-05
0.0139888
-6.62125e-05
0.0139839
-6.42006e-05
0.0139785
-6.23232e-05
0.0139726
-6.05632e-05
0.0139662
-5.89056e-05
0.0139593
-5.73378e-05
0.0139521
-5.58498e-05
0.0139444
-5.44327e-05
0.0139364
-5.30795e-05
0.0139281
-5.17837e-05
0.0139194
-5.05401e-05
0.0139104
-4.9344e-05
0.0139012
-4.81916e-05
0.0138917
-4.70793e-05
0.0138819
-4.60042e-05
0.0138719
-4.49635e-05
0.0138617
-4.39552e-05
0.0138513
-4.29773e-05
0.0138407
-4.20283e-05
0.0138299
-4.11036e-05
0.013819
-4.02013e-05
0.0138078
-3.93204e-05
0.0137966
-3.84604e-05
0.0137852
-3.76204e-05
0.0137736
-3.67997e-05
0.0137619
-3.59976e-05
0.0137502
-3.52142e-05
0.0137383
-3.44491e-05
0.0137263
-3.37027e-05
0.0137143
-3.29749e-05
0.0137021
-3.22661e-05
0.0136899
-3.15764e-05
0.0136777
-3.09061e-05
0.0136653
-3.02551e-05
0.0136529
-2.96233e-05
0.0136405
-2.901e-05
0.0136281
-2.84147e-05
0.0136156
-2.78361e-05
0.013603
-2.72732e-05
0.0135905
-2.6724e-05
0.0135779
-2.61872e-05
0.0135653
-2.56606e-05
0.0135527
-2.51427e-05
0.0135401
-2.46314e-05
0.0135276
-2.41256e-05
0.013515
-2.36235e-05
0.0135025
-2.31248e-05
0.01349
-2.26286e-05
0.0134776
-2.21356e-05
0.0134652
-2.16456e-05
0.0134529
-2.11602e-05
0.0134407
-2.06798e-05
0.0134285
-2.02069e-05
0.0134165
-1.97418e-05
0.0134045
-1.92873e-05
0.0133927
-1.88434e-05
0.013381
-1.8413e-05
0.0133694
-1.79949e-05
0.0133579
-1.75925e-05
0.0133466
-1.72025e-05
0.0133353
-1.68301e-05
0.0133243
-1.64679e-05
0.0133133
-1.61253e-05
0.0133025
-1.5788e-05
0.0132919
-1.54742e-05
0.0132813
-1.51558e-05
0.0132709
-1.48694e-05
0.0132607
-1.45593e-05
0.0132506
-1.42993e-05
0.0132407
-1.39773e-05
0.0132308
-1.37425e-05
0.0132213
-1.33664e-05
0.0132115
-1.31503e-05
0.0132024
-1.26208e-05
0.0131929
-1.24307e-05
-1.17451e-05
0.0120821
-5.80654e-05
0.012135
-0.000158085
0.0122084
-0.000242833
0.0122948
-0.00031334
0.0123844
-0.000367837
0.0124679
-0.000405439
0.0125386
-0.000427475
0.0125927
-0.000436359
0.0126285
-0.000435037
0.0126459
-0.00042569
0.0126458
-0.000410553
0.01263
-0.00039163
0.0126003
-0.000369808
0.0125588
-0.000346217
0.0125074
-0.000321794
0.0124481
-0.000297199
0.0123827
-0.000272937
0.0123126
-0.00024939
0.0122392
-0.000226841
0.0121635
-0.000205497
0.0120866
-0.000185492
0.0120091
-0.000166907
0.0119318
-0.00014978
0.0118549
-0.000134108
0.0117791
-0.000119865
0.0117044
-0.000106999
0.0116311
-9.54422e-05
0.0115593
-8.51137e-05
0.0114892
-7.5926e-05
0.0114206
-6.77879e-05
0.0113537
-6.06062e-05
0.0112885
-5.4291e-05
0.0112249
-4.87535e-05
0.0111628
-4.3911e-05
0.0111023
-3.96852e-05
0.0110433
-3.60031e-05
0.0109857
-3.27921e-05
0.0109294
-2.99745e-05
0.0108746
-2.75459e-05
0.010821
-2.54481e-05
0.0107686
-2.36266e-05
0.0107175
-2.20415e-05
0.0106675
-2.06596e-05
0.0106187
-1.94514e-05
0.0105711
-1.83918e-05
0.0105245
-1.74591e-05
0.0104789
-1.66351e-05
0.0104344
-1.59046e-05
0.0103909
-1.5254e-05
0.0103484
-1.46722e-05
0.0103069
-1.41499e-05
0.0102663
-1.36788e-05
0.0102267
-1.32523e-05
0.0101879
-1.28643e-05
0.0101501
-1.25098e-05
0.0101131
-1.21842e-05
0.0100769
-1.18836e-05
0.0100416
-1.16047e-05
0.0100071
-1.13445e-05
0.0099734
-1.11005e-05
0.00994046
-1.08703e-05
0.00990826
-1.06531e-05
0.0098768
-1.04504e-05
0.00984606
-1.0254e-05
0.00981601
-1.00625e-05
0.00978664
-9.87643e-06
0.00975794
-9.69539e-06
0.00972989
-9.51876e-06
0.00970247
-9.34624e-06
0.00967567
-9.17765e-06
0.00964947
-9.01299e-06
0.00962386
-8.85229e-06
0.00959884
-8.6957e-06
0.00957437
-8.54335e-06
0.00955045
-8.39545e-06
0.00952707
-8.25209e-06
0.00950422
-8.11339e-06
0.00948187
-7.97928e-06
0.00946002
-7.84963e-06
0.00943865
-7.72409e-06
0.00941776
-7.60225e-06
0.00939732
-7.48345e-06
0.00937734
-7.36703e-06
0.00935779
-7.25211e-06
0.00933867
-7.13793e-06
0.00931998
-7.02354e-06
0.00930169
-6.90827e-06
0.00928381
-6.79134e-06
0.00926633
-6.67239e-06
0.00924924
-6.551e-06
0.00923255
-6.42726e-06
0.00921624
-6.30121e-06
0.00920031
-6.17346e-06
0.00918476
-6.04448e-06
0.00916958
-5.91526e-06
0.00915478
-5.78652e-06
0.00914033
-5.6594e-06
0.00912625
-5.5346e-06
0.00911251
-5.41315e-06
0.00909911
-5.29554e-06
0.00908604
-5.18245e-06
0.00907329
-5.07412e-06
0.00906085
-4.97063e-06
0.00904871
-4.87227e-06
0.00903685
-4.77805e-06
0.00902527
-4.68926e-06
0.00901395
-4.60252e-06
0.00900288
-4.52246e-06
0.00899204
-4.43981e-06
0.00898145
-4.36826e-06
0.00897104
-4.28367e-06
0.00896088
-4.22232e-06