/*--------------------------------*- C++ -*----------------------------------*\
  =========                 |
  \\      /  F ield         | OpenFOAM: The Open Source CFD Toolbox
   \\    /   O peration     | Website:  https://openfoam.org
    \\  /    A nd           | Version:  7
     \\/     M anipulation  |
\*---------------------------------------------------------------------------*/
FoamFile
{
    version     2.0;
    format      ascii;
    class       volScalarField;
    location    "0.15";
    object      pPrime2Mean;
}
// * * * * * * * * * * * * * * * * * * * * * * * * * * * * * * * * * * * * * //

dimensions      [2 -2 -4 0 0 0 0];

internalField   nonuniform List<scalar> 
1440
(
100624
99898.4
99483.1
99185.2
98869.2
98517.6
98158.8
97804.6
97446.5
97078.9
96704.4
96324.9
95939.1
95545.7
95144.3
94735.1
94318.2
93893.5
93461.2
93021.5
92574.3
92119.8
91658
91189
90712.9
90229.8
89739.9
89243.4
88740.2
88230.7
87714.8
87192.7
86664.5
86130.3
85590.2
85044.3
84492.7
83935.5
83372.8
82804.8
82231.4
81652.7
81069
80480.2
79886.4
79287.8
78684.3
78076.2
77463.4
76846
76224.2
75598.1
74967.6
74333
73694.2
73051.4
72404.6
71754
71099.7
70441.6
69780
69114.9
68446.4
67774.5
67099.5
66421.3
65740.1
65055.9
64368.9
63679
62986.5
62291.4
61593.7
60893.7
60191.2
59486.5
58779.6
58070.5
57359.5
56646.5
55931.6
55215
54496.7
53776.8
53055.4
52332.6
51608.4
50883
50156.4
49428.8
48700.1
47970.6
47240.3
46509.2
45777.4
45044.9
44311.7
43578
42843.5
42108.5
41372.7
40636.2
39899.1
39161.3
38422.9
37684.2
36945.2
36206.4
35468.2
34731.1
33995.7
33262.8
32533.3
31808
31087.9
30374
29667.4
28968.9
28279.5
27600.7
100636
99910.6
99494.6
99197.4
98880.7
98525.4
98163.3
97808
97449.7
97081.5
96706.4
96326.7
95940.8
95546.9
95145
94735.5
94318.4
93893.7
93461.3
93021.5
92574.3
92119.7
91657.8
91188.7
90712.6
90229.5
89739.6
89243.1
88740
88230.4
87714.5
87192.4
86664.3
86130.1
85590
85044.1
84492.5
83935.4
83372.7
82804.7
82231.3
81652.7
81069
80480.2
79886.4
79287.8
78684.3
78076.2
77463.4
76846.1
76224.3
75598.1
74967.7
74333
73694.3
73051.5
72404.7
71754.1
71099.7
70441.7
69780.1
69115
68446.4
67774.6
67099.6
66421.4
65740.2
65056
64369
63679.1
62986.6
62291.5
61593.9
60893.8
60191.3
59486.6
58779.7
58070.6
57359.6
56646.6
55931.8
55215.1
54496.8
53776.9
53055.5
52332.7
51608.5
50883.1
50156.5
49428.9
48700.2
47970.7
47240.4
46509.3
45777.5
45045
44311.8
43578.1
42843.6
42108.5
41372.8
40636.3
39899.2
39161.4
38423
37684.2
36945.3
36206.5
35468.3
34731.1
33995.8
33262.9
32533.3
31808
31087.9
30374.1
29667.4
28969
28279.4
27600.6
100641
99916
99500.5
99204.2
98887.4
98530.3
98166.4
97810.4
97451.8
97082.8
96706.5
96325.7
95938.6
95543.7
95141.2
94731.5
94314.4
93889.7
93457.4
93017.8
92570.7
92116.4
91654.7
91186
90710.1
90227.4
89737.8
89241.5
88738.6
88229.3
87713.6
87191.7
86663.7
86129.6
85589.7
85043.9
84492.4
83935.3
83372.8
82804.7
82231.4
81652.8
81069.1
80480.4
79886.6
79288
78684.6
78076.4
77463.6
76846.3
76224.5
75598.4
74967.9
74333.3
73694.5
73051.7
72404.9
71754.3
71100
70441.9
69780.3
69115.2
68446.7
67774.8
67099.8
66421.6
65740.4
65056.2
64369.1
63679.3
62986.8
62291.7
61594
60893.9
60191.5
59486.7
58779.8
58070.8
57359.7
56646.7
55931.9
55215.3
54497
53777
53055.6
52332.8
51608.6
50883.2
50156.6
49429
48700.3
47970.8
47240.5
46509.4
45777.6
45045.1
44311.9
43578.2
42843.7
42108.6
41372.9
40636.4
39899.2
39161.4
38423.1
37684.3
36945.4
36206.6
35468.3
34731.2
33995.8
33262.9
32533.4
31808.1
31088
30374.1
29667.5
28969
28279.5
27600.6
100646
99921.3
99506.1
99209.9
98892.5
98534.4
98169.3
97812.5
97453.2
97083.5
96706.5
96325.2
95937.8
95542.6
95139.9
94730.1
94313.1
93888.3
93456.1
93016.5
92569.5
92115.2
91653.7
91185
90709.2
90226.5
89737
89240.8
88738
88228.7
87713.1
87191.3
86663.3
86129.3
85589.3
85043.6
84492.2
83935.1
83372.5
82804.6
82231.2
81652.7
81069
80480.2
79886.5
79287.8
78684.4
78076.3
77463.5
76846.2
76224.4
75598.3
74967.8
74333.2
73694.4
73051.6
72404.8
71754.2
71099.9
70441.8
69780.2
69115.1
68446.6
67774.8
67099.7
66421.5
65740.3
65056.1
64369.1
63679.3
62986.8
62291.6
61594
60893.9
60191.4
59486.7
58779.8
58070.8
57359.7
56646.7
55931.9
55215.2
54496.9
53777
53055.6
52332.8
51608.6
50883.2
50156.6
49428.9
48700.3
47970.8
47240.5
46509.4
45777.5
45045.1
44311.9
43578.1
42843.7
42108.6
41372.8
40636.4
39899.2
39161.4
38423.1
37684.3
36945.3
36206.5
35468.3
34731.2
33995.8
33262.9
32533.4
31808.1
31088
30374.1
29667.4
28968.9
28279.4
27600.5
100650
99924.5
99509.3
99213
98895.4
98536.7
98171
97813.8
97454.2
97084.1
96706.8
96325.1
95937.4
95541.9
95138.9
94728.9
94311.7
93887
93454.6
93015
92568
92113.7
91652.2
91183.5
90707.8
90225.2
89735.8
89239.7
88737
88227.9
87712.3
87190.6
86662.7
86128.8
85588.9
85043.2
84491.9
83934.9
83372.3
82804.4
82231.1
81652.6
81068.9
80480.1
79886.4
79287.8
78684.4
78076.2
77463.5
76846.2
76224.4
75598.3
74967.8
74333.2
73694.4
73051.6
72404.9
71754.3
71099.9
70441.9
69780.3
69115.1
68446.6
67774.8
67099.8
66421.6
65740.4
65056.2
64369.1
63679.3
62986.8
62291.7
61594
60893.9
60191.5
59486.7
58779.8
58070.8
57359.7
56646.7
55931.9
55215.3
54497
53777
53055.6
52332.8
51608.6
50883.2
50156.6
49429
48700.3
47970.8
47240.5
46509.4
45777.6
45045.1
44311.9
43578.2
42843.7
42108.6
41372.9
40636.4
39899.2
39161.4
38423.1
37684.3
36945.4
36206.6
35468.3
34731.2
33995.8
33262.9
32533.4
31808.1
31088
30374.1
29667.4
28968.9
28279.4
27600.5
100651
99926
99510.8
99214.5
98896.9
98538
98172
97814.5
97454.8
97084.6
96707
96325.2
95937.3
95541.7
95138.5
94728.5
94311.2
93886.4
93454.1
93014.4
92567.5
92113.3
91651.8
91183.2
90707.6
90225
89735.6
89239.6
88736.9
88227.8
87712.3
87190.5
86662.7
86128.7
85588.9
85043.2
84491.9
83934.9
83372.3
82804.4
82231.1
81652.6
81068.9
80480.1
79886.4
79287.8
78684.4
78076.3
77463.5
76846.2
76224.4
75598.3
74967.8
74333.2
73694.4
73051.6
72404.9
71754.3
71099.9
70441.9
69780.3
69115.1
68446.6
67774.8
67099.8
66421.6
65740.4
65056.2
64369.1
63679.3
62986.8
62291.7
61594
60893.9
60191.5
59486.7
58779.8
58070.8
57359.7
56646.7
55931.9
55215.3
54497
53777.1
53055.6
52332.8
51608.6
50883.2
50156.6
49429
48700.4
47970.8
47240.5
46509.4
45777.6
45045.1
44311.9
43578.2
42843.7
42108.6
41372.9
40636.4
39899.2
39161.4
38423.1
37684.3
36945.4
36206.6
35468.3
34731.2
33995.8
33262.9
32533.4
31808.1
31088
30374.1
29667.4
28968.9
28279.4
27600.4
100651
99925.8
99510.6
99214.4
98896.8
98538
98172
97814.6
97454.9
97084.7
96707.1
96325.3
95937.5
95541.8
95138.7
94728.6
94311.3
93886.5
93454.2
93014.5
92567.5
92113.2
91651.7
91183.1
90707.5
90224.9
89735.5
89239.5
88736.8
88227.7
87712.2
87190.5
86662.6
86128.7
85588.9
85043.2
84491.8
83934.9
83372.3
82804.4
82231.1
81652.6
81068.9
80480.1
79886.4
79287.8
78684.4
78076.2
77463.5
76846.2
76224.4
75598.2
74967.8
74333.2
73694.4
73051.6
72404.9
71754.3
71099.9
70441.9
69780.3
69115.2
68446.6
67774.8
67099.8
66421.6
65740.4
65056.2
64369.2
63679.3
62986.8
62291.7
61594
60893.9
60191.5
59486.7
58779.8
58070.8
57359.7
56646.7
55931.9
55215.3
54497
53777.1
53055.6
52332.8
51608.6
50883.2
50156.6
49429
48700.4
47970.8
47240.5
46509.4
45777.6
45045.1
44312
43578.2
42843.7
42108.7
41372.9
40636.4
39899.3
39161.5
38423.1
37684.3
36945.4
36206.6
35468.3
34731.2
33995.8
33262.9
32533.4
31808.1
31088
30374.1
29667.4
28968.9
28279.4
27600.4
100649
99924
99508.8
99212.7
98895.2
98536.7
98171.1
97813.9
97454.4
97084.4
96707.1
96325.5
95937.8
95542.3
95139.3
94729.3
94312
93887.2
93454.9
93015.2
92568.1
92113.8
91652.2
91183.5
90707.9
90225.2
89735.8
89239.7
88737
88227.9
87712.4
87190.6
86662.8
86128.8
85589
85043.3
84492
83935
83372.4
82804.5
82231.2
81652.6
81069
80480.2
79886.5
79287.8
78684.4
78076.3
77463.5
76846.2
76224.4
75598.3
74967.8
74333.2
73694.4
73051.6
72404.9
71754.3
71099.9
70441.9
69780.3
69115.2
68446.7
67774.9
67099.8
66421.6
65740.4
65056.2
64369.2
63679.4
62986.8
62291.7
61594.1
60894
60191.5
59486.8
58779.8
58070.8
57359.8
56646.8
55931.9
55215.3
54497
53777.1
53055.7
52332.8
51608.6
50883.2
50156.6
49429
48700.4
47970.9
47240.5
46509.4
45777.6
45045.1
44312
43578.2
42843.8
42108.7
41372.9
40636.4
39899.3
39161.5
38423.1
37684.3
36945.4
36206.6
35468.4
34731.2
33995.8
33262.9
32533.4
31808.1
31088
30374.1
29667.4
28968.9
28279.4
27600.5
100645
99920.4
99505.3
99209.4
98892.2
98534.3
98169.4
97812.8
97453.7
97084.1
96707.2
96325.9
95938.5
95543.3
95140.5
94730.6
94313.5
93888.6
93456.3
93016.6
92569.6
92115.2
91653.6
91184.8
90709.1
90226.4
89736.8
89240.6
88737.9
88228.6
87713
87191.2
86663.3
86129.3
85589.4
85043.7
84492.2
83935.2
83372.6
82804.7
82231.3
81652.8
81069.1
80480.3
79886.5
79287.9
78684.5
78076.3
77463.5
76846.2
76224.4
75598.3
74967.8
74333.2
73694.4
73051.6
72404.9
71754.3
71099.9
70441.9
69780.3
69115.2
68446.7
67774.8
67099.8
66421.6
65740.4
65056.2
64369.2
63679.4
62986.8
62291.7
61594
60893.9
60191.5
59486.8
58779.8
58070.8
57359.7
56646.8
55931.9
55215.3
54497
53777.1
53055.7
52332.8
51608.6
50883.2
50156.6
49429
48700.4
47970.9
47240.5
46509.4
45777.6
45045.1
44312
43578.2
42843.8
42108.7
41372.9
40636.4
39899.3
39161.5
38423.1
37684.4
36945.4
36206.6
35468.4
34731.2
33995.9
33263
32533.4
31808.1
31088
30374.1
29667.5
28969
28279.4
27600.5
100640
99914.9
99499.6
99203.6
98886.9
98530.2
98166.6
97810.8
97452.3
97083.5
96707.3
96326.6
95939.6
95544.7
95142.2
94732.4
94315.3
93890.4
93458
93018.2
92571
92116.6
91654.8
91186
90710.1
90227.3
89737.7
89241.4
88738.5
88229.2
87713.6
87191.7
86663.7
86129.7
85589.7
85044
84492.5
83935.5
83372.9
82804.9
82231.5
81652.9
81069.2
80480.4
79886.7
79288
78684.6
78076.4
77463.6
76846.3
76224.5
75598.3
74967.9
74333.2
73694.5
73051.7
72404.9
71754.3
71100
70441.9
69780.3
69115.2
68446.7
67774.9
67099.8
66421.7
65740.4
65056.3
64369.2
63679.4
62986.9
62291.7
61594.1
60894
60191.5
59486.8
58779.9
58070.8
57359.8
56646.8
55931.9
55215.3
54497
53777.1
53055.7
52332.8
51608.6
50883.2
50156.7
49429
48700.4
47970.9
47240.5
46509.4
45777.6
45045.1
44312
43578.2
42843.8
42108.7
41372.9
40636.4
39899.3
39161.5
38423.1
37684.4
36945.4
36206.6
35468.4
34731.3
33995.9
33263
32533.4
31808.1
31088
30374.1
29667.5
28969
28279.5
27600.6
100634
99909.2
99493.6
99196.8
98880.4
98525.5
98163.6
97808.6
97450.4
97082.3
96707.2
96327.4
95941.5
95547.6
95145.7
94736.2
94319
93894.2
93461.7
93021.8
92574.5
92119.8
91657.8
91188.7
90712.5
90229.4
89739.5
89243
88739.9
88230.4
87714.5
87192.5
86664.4
86130.2
85590.2
85044.3
84492.8
83935.6
83373
82804.9
82231.6
81653
81069.2
80480.4
79886.6
79288
78684.5
78076.3
77463.5
76846.2
76224.4
75598.2
74967.8
74333.1
73694.4
73051.6
72404.8
71754.2
71099.9
70441.9
69780.2
69115.1
68446.6
67774.8
67099.8
66421.6
65740.4
65056.2
64369.2
63679.3
62986.8
62291.7
61594
60893.9
60191.5
59486.7
58779.8
58070.8
57359.7
56646.7
55931.9
55215.3
54497
53777
53055.6
52332.8
51608.6
50883.2
50156.6
49429
48700.4
47970.9
47240.5
46509.4
45777.6
45045.1
44312
43578.2
42843.8
42108.7
41372.9
40636.4
39899.3
39161.5
38423.1
37684.4
36945.4
36206.6
35468.4
34731.3
33995.9
33263
32533.4
31808.1
31088
30374.2
29667.5
28969
28279.5
27600.7
100622
99896.6
99481.6
99184.2
98868.6
98517.4
98159.1
97805.3
97447.4
97080.1
96705.8
96326.3
95940.6
95547
95145.6
94736.3
94319.1
93894.3
93461.8
93021.9
92574.6
92120
91658
91188.9
90712.8
90229.7
89739.8
89243.2
88740.1
88230.6
87714.7
87192.7
86664.5
86130.3
85590.3
85044.4
84492.8
83935.7
83373
82805
82231.6
81652.9
81069.2
80480.3
79886.5
79287.9
78684.4
78076.2
77463.4
76846.1
76224.3
75598.1
74967.7
74333
73694.2
73051.4
72404.7
71754.1
71099.7
70441.7
69780.1
69115
68446.5
67774.7
67099.6
66421.4
65740.2
65056
64369
63679.2
62986.7
62291.5
61593.9
60893.8
60191.3
59486.6
58779.7
58070.6
57359.6
56646.6
55931.8
55215.1
54496.8
53776.9
53055.5
52332.7
51608.5
50883.1
50156.5
49428.9
48700.3
47970.8
47240.4
46509.3
45777.5
45045
44311.9
43578.1
42843.7
42108.6
41372.8
40636.4
39899.2
39161.4
38423.1
37684.3
36945.4
36206.6
35468.3
34731.2
33995.8
33262.9
32533.4
31808.1
31088
30374.1
29667.5
28969
28279.5
27600.8
)
;

boundaryField
{
    upperWall
    {
        type            calculated;
        value           nonuniform List<scalar> 
120
(
100622
99896.6
99481.6
99184.2
98868.6
98517.4
98159.1
97805.3
97447.4
97080.1
96705.8
96326.3
95940.6
95547
95145.6
94736.3
94319.1
93894.3
93461.8
93021.9
92574.6
92120
91658
91188.9
90712.8
90229.7
89739.8
89243.2
88740.1
88230.6
87714.7
87192.7
86664.5
86130.3
85590.3
85044.4
84492.8
83935.7
83373
82805
82231.6
81652.9
81069.2
80480.3
79886.5
79287.9
78684.4
78076.2
77463.4
76846.1
76224.3
75598.1
74967.7
74333
73694.2
73051.4
72404.7
71754.1
71099.7
70441.7
69780.1
69115
68446.5
67774.7
67099.6
66421.4
65740.2
65056
64369
63679.2
62986.7
62291.5
61593.9
60893.8
60191.3
59486.6
58779.7
58070.6
57359.6
56646.6
55931.8
55215.1
54496.8
53776.9
53055.5
52332.7
51608.5
50883.1
50156.5
49428.9
48700.3
47970.8
47240.4
46509.3
45777.5
45045
44311.9
43578.1
42843.7
42108.6
41372.8
40636.4
39899.2
39161.4
38423.1
37684.3
36945.4
36206.6
35468.3
34731.2
33995.8
33262.9
32533.4
31808.1
31088
30374.1
29667.5
28969
28279.5
27600.8
)
;
    }
    lowerWall
    {
        type            calculated;
        value           nonuniform List<scalar> 
120
(
100624
99898.4
99483.1
99185.2
98869.2
98517.6
98158.8
97804.6
97446.5
97078.9
96704.4
96324.9
95939.1
95545.7
95144.3
94735.1
94318.2
93893.5
93461.2
93021.5
92574.3
92119.8
91658
91189
90712.9
90229.8
89739.9
89243.4
88740.2
88230.7
87714.8
87192.7
86664.5
86130.3
85590.2
85044.3
84492.7
83935.5
83372.8
82804.8
82231.4
81652.7
81069
80480.2
79886.4
79287.8
78684.3
78076.2
77463.4
76846
76224.2
75598.1
74967.6
74333
73694.2
73051.4
72404.6
71754
71099.7
70441.6
69780
69114.9
68446.4
67774.5
67099.5
66421.3
65740.1
65055.9
64368.9
63679
62986.5
62291.4
61593.7
60893.7
60191.2
59486.5
58779.6
58070.5
57359.5
56646.5
55931.6
55215
54496.7
53776.8
53055.4
52332.6
51608.4
50883
50156.4
49428.8
48700.1
47970.6
47240.3
46509.2
45777.4
45044.9
44311.7
43578
42843.5
42108.5
41372.7
40636.2
39899.1
39161.3
38422.9
37684.2
36945.2
36206.4
35468.2
34731.1
33995.7
33262.8
32533.3
31808
31087.9
30374
29667.4
28968.9
28279.5
27600.7
)
;
    }
    inlet
    {
        type            calculated;
        value           nonuniform List<scalar> 
12
(
100624
100636
100641
100646
100650
100651
100651
100649
100645
100640
100634
100622
)
;
    }
    outlet
    {
        type            calculated;
        value           nonuniform List<scalar> 
12
(
27253.8
27253.7
27253.7
27253.6
27253.6
27253.6
27253.6
27253.6
27253.7
27253.8
27253.9
27254
)
;
    }
    frontAndBack
    {
        type            empty;
    }
}


// ************************************************************************* //
