/*--------------------------------*- C++ -*----------------------------------*\
  =========                 |
  \\      /  F ield         | OpenFOAM: The Open Source CFD Toolbox
   \\    /   O peration     | Website:  https://openfoam.org
    \\  /    A nd           | Version:  7
     \\/     M anipulation  |
\*---------------------------------------------------------------------------*/
FoamFile
{
    version     2.0;
    format      ascii;
    class       surfaceScalarField;
    location    "2.15";
    object      phi_0;
}
// * * * * * * * * * * * * * * * * * * * * * * * * * * * * * * * * * * * * * //

dimensions      [1 0 -1 0 0 0 0];

internalField   nonuniform List<scalar> 
3438
(
0.0128012
0.00101647
0.0108058
0.00197856
0.00884153
0.00194742
0.00728927
0.00153547
0.00620715
0.00106538
0.00551335
0.000677131
0.00508206
0.000414682
0.00481459
0.00025096
0.00464385
0.000154319
0.00452625
0.000101303
0.00443751
7.26039e-05
0.00436457
5.69682e-05
0.00430063
4.81613e-05
0.00424239
4.26589e-05
0.00418847
3.85363e-05
0.00413838
3.49212e-05
0.00409178
3.1665e-05
0.00404841
2.86647e-05
0.00400811
2.58556e-05
0.00397057
2.33367e-05
0.00393566
2.09746e-05
0.00390299
1.89992e-05
0.00387256
1.70442e-05
0.00384376
1.56944e-05
0.00381711
1.38469e-05
0.003791
1.3598e-05
0.00376964
9.17046e-06
0.00374499
1.2776e-05
0.00377307
-3.96163e-05
2.40539e-05
0.00373779
0.0141777
0.000657509
0.0145266
0.00161392
0.0145171
0.00194126
0.0142147
0.00182227
0.0137698
0.00149465
0.0133022
0.0011293
0.0128674
0.000833967
0.0124816
0.000621382
0.0121461
0.000474538
0.0118561
0.000376033
0.0116042
0.000309461
0.0113845
0.000261752
0.0111913
0.000226673
0.0110201
0.000199271
0.0108676
0.000176664
0.0107308
0.000157502
0.0106076
0.000140893
0.010496
0.000126599
0.0103944
0.000113915
0.0103013
0.0001032
0.010216
9.32693e-05
0.0101367
8.5579e-05
0.010064
7.72646e-05
0.00999462
7.28392e-05
0.00993264
6.39091e-05
0.00986958
6.50131e-05
0.0098198
4.76037e-05
0.00975764
6.38914e-05
0.00970447
2.79469e-06
7.96362e-05
0.00963846
0.0140691
0.0004094
0.0145674
0.00110208
0.0151139
0.0013814
0.0155549
0.00136781
0.0158425
0.00119369
0.0159953
0.000963224
0.0160543
0.000761766
0.0160521
0.000610371
0.016013
0.000500571
0.0159508
0.000425134
0.0158755
0.000371859
0.0157918
0.000332683
0.0157033
0.000302516
0.0156122
0.000277895
0.0155199
0.000256568
0.0154276
0.000237601
0.0153362
0.000220256
0.0152463
0.000204714
0.0151585
0.000190087
0.0150729
0.000177417
0.0149904
0.000164663
0.01491
0.00015501
0.0148336
0.000142939
0.0147585
0.000137509
0.014689
0.000123165
0.0146185
0.00012558
0.014556
0.000100349
0.01449
0.000120461
0.014421
6.26128e-05
0.00013822
0.0143535
0.0140034
0.000230077
0.0144151
0.000680102
0.0149212
0.000865059
0.0154177
0.000861122
0.0158434
0.000757785
0.0161787
0.000617737
0.0164392
0.000491162
0.0166434
0.000396153
0.0168057
0.000328227
0.0169398
0.000281158
0.0170525
0.000249247
0.0171492
0.000226249
0.0172328
0.000209243
0.0173051
0.00019598
0.0173675
0.000184737
0.0174208
0.000174929
0.017466
0.000165876
0.0175037
0.000157979
0.0175347
0.000150187
0.0175594
0.000143935
0.0175789
0.000136704
0.017593
0.000132482
0.017603
0.000124773
0.0176086
0.000123908
0.0176106
0.000113278
0.01761
0.000118622
0.0176035
9.93907e-05
0.0176
0.000116767
0.0175706
8.49248e-05
0.000135241
0.0175668
0.0139849
7.31875e-05
0.0143629
0.000295693
0.014832
0.00038966
0.0152964
0.0003903
0.0157064
0.00034149
0.016045
0.000272843
0.01632
0.000209962
0.0165467
0.000163225
0.0167389
0.000129823
0.0169072
0.000106666
0.0170593
9.09654e-05
0.0171994
8.01449e-05
0.0173302
7.23716e-05
0.0174537
6.65356e-05
0.0175707
6.17531e-05
0.017682
5.78145e-05
0.0177879
5.42545e-05
0.0178889
5.14195e-05
0.0179849
4.85463e-05
0.0180767
4.67097e-05
0.018164
4.41176e-05
0.0182477
4.35699e-05
0.0183268
4.06607e-05
0.0184035
4.22437e-05
0.0184741
3.77582e-05
0.018545
4.30584e-05
0.0186052
3.45117e-05
0.0186713
4.61772e-05
0.0187177
3.41985e-05
6.12942e-05
0.0187875
0.0139717
-6.61621e-05
0.0143315
-6.60699e-05
0.0147851
-6.59642e-05
0.0152392
-6.577e-05
0.0156442
-6.55389e-05
0.0159803
-6.5228e-05
0.0162532
-6.48986e-05
0.0164789
-6.44957e-05
0.0166708
-6.40549e-05
0.0168391
-6.35524e-05
0.016991
-6.29883e-05
0.0171316
-6.23803e-05
0.0172638
-6.17338e-05
0.0173893
-6.09628e-05
0.0175093
-6.01694e-05
0.0176245
-5.92868e-05
0.0177352
-5.83746e-05
0.0178421
-5.73425e-05
0.0179452
-5.63466e-05
0.0180453
-5.51391e-05
0.0181418
-5.40863e-05
0.0182362
-5.2552e-05
0.0183267
-5.14691e-05
0.0184167
-4.92959e-05
0.0185012
-4.82544e-05
0.0185875
-4.46897e-05
0.0186645
-4.40101e-05
0.0187469
-3.76385e-05
0.0188184
-3.86513e-05
-2.76438e-05
0.018906
0.0139717
-0.00020099
0.0143315
-0.000423379
0.0147851
-0.000517097
0.0152392
-0.000517361
0.0156442
-0.000468092
0.0159803
-0.000398862
0.0162532
-0.00033533
0.016479
-0.000287825
0.0166709
-0.000253569
0.0168391
-0.000229439
0.0169912
-0.000212661
0.0171317
-0.000200656
0.0172639
-0.0001916
0.0173894
-0.000184305
0.0175094
-0.00017799
0.0176246
-0.000172345
0.0177354
-0.000167015
0.0178423
-0.000162188
0.0179454
-0.000157377
0.0180455
-0.000153208
0.018142
-0.000148557
0.0182365
-0.000145055
0.018327
-0.000140026
0.018417
-0.000137377
0.0185015
-0.000130873
0.0185879
-0.000129176
0.0186651
-0.000119352
0.0187474
-0.000118256
0.0188189
-0.000108319
-0.000113099
0.018906
0.0139849
-0.000344653
0.014363
-0.000794593
0.0148321
-0.000979304
0.0152966
-0.000975044
0.0157066
-0.000871276
0.0160452
-0.000730732
0.0163202
-0.000603554
0.0165469
-0.000507868
0.0167391
-0.000439163
0.0169074
-0.000391229
0.0170596
-0.000358344
0.0171997
-0.000334276
0.0173305
-0.000316107
0.017454
-0.000301557
0.0175711
-0.000288939
0.0176825
-0.000277602
0.0177884
-0.000266955
0.0178893
-0.000257266
0.0179855
-0.000247727
0.0180773
-0.000239368
0.0181647
-0.00023028
0.0182485
-0.000223378
0.0183277
-0.000213747
0.0184046
-0.000209003
0.0184756
-0.000196605
0.0185469
-0.000195421
0.0186078
-0.00017526
0.0186748
-0.000180305
0.018722
-0.000150808
-0.000176796
0.0187903
0.0140035
-0.000502926
0.0144153
-0.00119558
0.0149214
-0.00147467
0.0154179
-0.00146082
0.0158436
-0.00128634
0.016179
-0.00105547
0.0164395
-0.000853521
0.0166437
-0.000701577
0.0168061
-0.000591136
0.0169402
-0.000514994
0.017053
-0.000460919
0.0171497
-0.00042086
0.0172333
-0.000389742
0.0173057
-0.000364065
0.0173681
-0.000341631
0.0174215
-0.000321403
0.0174668
-0.000302777
0.0175045
-0.000285736
0.0175356
-0.000269723
0.0175605
-0.000255261
0.0175801
-0.000241081
0.0175945
-0.00022909
0.017605
-0.000215655
0.0176111
-0.000206732
0.0176141
-0.000191421
0.0176145
-0.000187761
0.0176099
-0.000162871
0.0176081
-0.000170859
0.0175818
-0.000117041
-0.000163925
0.0175762
0.0140692
-0.000723641
0.0145676
-0.00168003
0.0151141
-0.00200721
0.0155552
-0.00188803
0.0158429
-0.00156014
0.0159957
-0.0011945
0.0160547
-0.000898835
0.0160525
-0.000685857
0.0160134
-0.000538565
0.0159514
-0.000439555
0.0158761
-0.00037242
0.0157924
-0.00032408
0.015704
-0.000288332
0.0156129
-0.000260178
0.0155208
-0.000236798
0.0154286
-0.000216743
0.0153373
-0.000199243
0.0152475
-0.000183877
0.0151599
-0.000170244
0.0150746
-0.00015823
0.0149923
-0.000147363
0.0149124
-0.00013794
0.0148367
-0.000128836
0.0147626
-0.000121739
0.0146944
-0.000112568
0.0146259
-0.000108845
0.0145661
-9.28734e-05
0.014504
-9.88211e-05
0.0144394
-4.28122e-05
-9.0199e-05
0.0143751
0.0141778
-0.0010507
0.0145268
-0.0020128
0.0145174
-0.00198156
0.014215
-0.0015695
0.0137702
-0.00109927
0.0133026
-0.000710874
0.0128679
-0.00044825
0.0124821
-0.000284325
0.0121466
-0.000187455
0.0118568
-0.000134181
0.0116049
-0.000105189
0.0113853
-8.92276e-05
0.0111921
-8.00708e-05
0.011021
-7.41846e-05
0.0108686
-6.96564e-05
0.010732
-6.55927e-05
0.0106089
-6.18689e-05
0.0104975
-5.83355e-05
0.0103961
-5.50224e-05
0.0103033
-5.18733e-05
0.0102183
-4.89964e-05
0.0101397
-4.62147e-05
0.0100675
-4.37782e-05
0.00999966
-4.1263e-05
0.00993857
-3.91053e-05
0.00987876
-3.6938e-05
0.00983039
-3.26948e-05
0.00977578
-3.27077e-05
0.00972701
1.71515e-05
-3.66074e-05
0.0096843
0.0128014
0.010806
0.00884177
0.00728957
0.00620752
0.00551379
0.00508258
0.00481517
0.0046445
0.00452698
0.00443831
0.00436545
0.00430159
0.00424344
0.00418964
0.00413967
0.00409319
0.00404998
0.00400982
0.00397255
0.0039379
0.00390576
0.00387579
0.00384806
0.00382221
0.00379822
0.00377818
0.00375779
0.00378694
0.003762
0.00362328
7.54792e-05
0.00357176
1.73221e-05
0.00350632
3.6231e-05
0.00346871
1.33398e-05
0.00344016
8.63833e-06
0.00341631
7.97207e-06
0.00339817
5.61308e-06
0.00338552
3.04052e-06
0.00337712
1.2298e-06
0.00337184
-1.46659e-08
0.00336881
-6.83542e-07
0.00336725
-7.70965e-07
0.00336651
-6.14064e-07
0.00336635
-4.0073e-08
0.00336638
3.97918e-07
0.00336651
1.07064e-06
0.0033667
1.74757e-06
0.00336682
2.18294e-06
0.00336693
2.62083e-06
0.003367
2.90982e-06
0.00336698
2.95437e-06
0.00336693
2.95463e-06
0.00336688
2.87997e-06
0.00336677
2.56968e-06
0.00336664
2.25674e-06
0.00336654
1.94132e-06
0.00336641
1.48527e-06
0.00336628
1.1455e-06
0.00336619
9.12726e-07
0.00336609
6.66218e-07
0.00336599
4.70399e-07
0.00336591
4.09705e-07
0.00336583
3.60279e-07
0.00336576
3.52777e-07
0.00336573
4.08397e-07
0.00336569
4.17078e-07
0.00336569
4.5838e-07
0.00336572
4.5323e-07
0.00336574
3.67291e-07
0.00336579
3.16502e-07
0.00336586
2.7091e-07
0.00336592
2.29524e-07
0.003366
2.96758e-07
0.0033661
4.11331e-07
0.00336621
5.73791e-07
0.00336636
8.41781e-07
0.00336653
1.14498e-06
0.00336672
1.46221e-06
0.00336696
1.81523e-06
0.00336722
2.14665e-06
0.00336749
2.44259e-06
0.0033678
2.72046e-06
0.00336812
2.94645e-06
0.00336845
3.13592e-06
0.00336881
3.2787e-06
0.00336919
3.34859e-06
0.00336959
3.37091e-06
0.00337002
3.3361e-06
0.00337047
3.22856e-06
0.00337093
3.09936e-06
0.00337141
2.97509e-06
0.0033719
2.85576e-06
0.0033724
2.79793e-06
0.00337293
2.79699e-06
0.00337345
2.80391e-06
0.003374
2.86592e-06
0.00337457
2.95926e-06
0.00337515
3.01681e-06
0.00337575
3.06342e-06
0.00337637
3.08179e-06
0.003377
3.04712e-06
0.00337763
3.0102e-06
0.00337826
2.9802e-06
0.0033789
2.9451e-06
0.00337954
2.93055e-06
0.00338018
2.9425e-06
0.00338083
2.97934e-06
0.00338149
3.04337e-06
0.00338215
3.11271e-06
0.00338283
3.18145e-06
0.00338351
3.24728e-06
0.0033842
3.30184e-06
0.00338488
3.36011e-06
0.00338558
3.43538e-06
0.00338628
3.51987e-06
0.00338698
3.61673e-06
0.00338768
3.71794e-06
0.00338839
3.80591e-06
0.0033891
3.87564e-06
0.00338981
3.92121e-06
0.00339052
3.92508e-06
0.00339122
3.87121e-06
0.00339193
3.74902e-06
0.00339263
3.55893e-06
0.00339332
3.33624e-06
0.003394
3.11483e-06
0.00339468
2.92112e-06
0.00339535
2.77586e-06
0.00339602
2.69506e-06
0.00339668
2.69049e-06
0.00339734
2.75701e-06
0.00339801
2.88513e-06
0.00339867
3.05616e-06
0.00339934
3.2434e-06
0.00340001
3.41591e-06
0.00340068
3.55779e-06
0.00340134
3.67852e-06
0.003402
3.7745e-06
0.00340265
3.87065e-06
0.00340331
3.96092e-06
0.00340395
4.0735e-06
0.0034046
4.16763e-06
0.00340523
4.31083e-06
0.0034059
4.37313e-06
0.00340651
4.48837e-06
0.00340721
4.41236e-06
0.00340778
4.49717e-06
0.00340855
4.14192e-06
0.003409
4.23059e-06
3.58737e-06
0.00932931
0.000348261
0.00916237
0.000152195
0.0090233
0.00014793
0.0089295
8.43167e-05
0.00886456
5.48564e-05
0.00881508
4.25811e-05
0.00877841
3.0568e-05
0.00875309
1.94035e-05
0.00873659
1.10694e-05
0.00872646
5.22531e-06
0.00872069
1.67731e-06
0.00871773
6.91744e-08
0.00871636
-4.61335e-07
0.00871595
1.88925e-07
0.00871592
8.48631e-07
0.00871606
2.06425e-06
0.00871625
3.39901e-06
0.00871636
4.29366e-06
0.00871641
5.21024e-06
0.00871637
5.84445e-06
0.00871621
5.99148e-06
0.00871596
6.03219e-06
0.00871566
5.90382e-06
0.00871528
5.30087e-06
0.00871489
4.68371e-06
0.00871451
4.05668e-06
0.00871414
3.1715e-06
0.00871379
2.50151e-06
0.00871351
2.04217e-06
0.00871324
1.56236e-06
0.00871297
1.17673e-06
0.00871274
1.04592e-06
0.0087125
9.28778e-07
0.00871227
8.87577e-07
0.00871209
9.68117e-07
0.00871193
9.5247e-07
0.00871183
1.00195e-06
0.00871179
9.68279e-07
0.0087118
7.82078e-07
0.00871185
6.66577e-07
0.00871195
5.60066e-07
0.00871206
4.58756e-07
0.00871221
5.60908e-07
0.00871239
7.46866e-07
0.00871259
1.02092e-06
0.00871286
1.49976e-06
0.0087132
2.04974e-06
0.00871361
2.63087e-06
0.0087141
3.28564e-06
0.00871466
3.90184e-06
0.00871528
4.45099e-06
0.00871596
4.96334e-06
0.00871668
5.37135e-06
0.00871744
5.70372e-06
0.00871825
5.94227e-06
0.00871911
6.03849e-06
0.00872003
6.04325e-06
0.00872103
5.94197e-06
0.00872209
5.70656e-06
0.00872321
5.43337e-06
0.00872439
5.17366e-06
0.0087256
4.92387e-06
0.00872686
4.79212e-06
0.00872815
4.76797e-06
0.00872947
4.75708e-06
0.00873082
4.85175e-06
0.00873223
5.00928e-06
0.00873368
5.10034e-06
0.00873518
5.1749e-06
0.00873673
5.19946e-06
0.0087383
5.12517e-06
0.00873991
5.04861e-06
0.00874154
4.9857e-06
0.00874317
4.91145e-06
0.00874482
4.87545e-06
0.00874647
4.88889e-06
0.00874813
4.94906e-06
0.00874981
5.06123e-06
0.00875152
5.18365e-06
0.00875324
5.30619e-06
0.00875498
5.42542e-06
0.00875675
5.52483e-06
0.00875853
5.63329e-06
0.00876033
5.77667e-06
0.00876214
5.94063e-06
0.00876396
6.12928e-06
0.00876579
6.32727e-06
0.00876763
6.50044e-06
0.00876946
6.63841e-06
0.0087713
6.72958e-06
0.00877314
6.7398e-06
0.00877497
6.63902e-06
0.0087768
6.4046e-06
0.00877862
6.03891e-06
0.00878043
5.60973e-06
0.00878222
5.18314e-06
0.00878401
4.81024e-06
0.00878579
4.53151e-06
0.00878756
4.37764e-06
0.00878932
4.37209e-06
0.00879108
4.50499e-06
0.00879284
4.75755e-06
0.0087946
5.0933e-06
0.00879635
5.46076e-06
0.0087981
5.79915e-06
0.00879985
6.07912e-06
0.00880158
6.31656e-06
0.00880331
6.50802e-06
0.00880503
6.69651e-06
0.00880674
6.87838e-06
0.00880844
7.09619e-06
0.00881015
7.28924e-06
0.00881184
7.56145e-06
0.00881354
7.70053e-06
0.00881521
7.90647e-06
0.00881693
7.79319e-06
0.00881855
7.91659e-06
0.00882031
7.2981e-06
0.00882185
7.3776e-06
6.20275e-06
0.0138672
0.00080366
0.0135651
0.000426877
0.0133714
0.000318196
0.0132453
0.000190803
0.0131644
0.000119621
0.0131085
8.57028e-05
0.0130698
5.9212e-05
0.0130443
3.73388e-05
0.0130284
2.12951e-05
0.0130193
1.03727e-05
0.0130144
3.84766e-06
0.013012
7.4702e-07
0.013011
-4.39102e-07
0.0130108
3.32457e-07
0.0130108
1.30203e-06
0.0130108
3.03992e-06
0.0130108
5.02286e-06
0.0130107
6.38059e-06
0.0130105
7.76991e-06
0.0130102
8.75611e-06
0.0130098
9.03486e-06
0.0130094
9.13064e-06
0.0130088
8.95307e-06
0.0130082
8.08269e-06
0.0130075
7.17602e-06
0.0130068
6.2541e-06
0.0130062
4.99519e-06
0.0130056
4.02753e-06
0.0130051
3.36032e-06
0.0130046
2.67607e-06
0.0130042
2.12648e-06
0.0130039
1.92678e-06
0.0130035
1.73063e-06
0.0130031
1.64404e-06
0.0130027
1.72132e-06
0.0130024
1.65959e-06
0.0130021
1.6862e-06
0.0130019
1.60979e-06
0.0130018
1.32391e-06
0.0130017
1.14119e-06
0.0130018
9.74123e-07
0.0130019
8.09285e-07
0.013002
9.23178e-07
0.0130021
1.14197e-06
0.0130023
1.47734e-06
0.0130025
2.10389e-06
0.0130028
2.83657e-06
0.0130032
3.61926e-06
0.0130038
4.51266e-06
0.0130044
5.35662e-06
0.0130052
6.10913e-06
0.013006
6.80686e-06
0.0130069
7.3509e-06
0.0130079
7.77971e-06
0.0130089
8.06946e-06
0.01301
8.1548e-06
0.0130112
8.11039e-06
0.0130124
7.92204e-06
0.0130138
7.55317e-06
0.0130153
7.1374e-06
0.0130169
6.74732e-06
0.0130186
6.37187e-06
0.0130203
6.16227e-06
0.0130221
6.10069e-06
0.0130239
6.05389e-06
0.0130258
6.15417e-06
0.0130277
6.34572e-06
0.0130297
6.44664e-06
0.0130318
6.531e-06
0.013034
6.55143e-06
0.0130362
6.43765e-06
0.0130385
6.32417e-06
0.0130408
6.23052e-06
0.0130432
6.1182e-06
0.0130456
6.05764e-06
0.013048
6.06408e-06
0.0130504
6.13426e-06
0.0130528
6.27687e-06
0.0130552
6.43348e-06
0.0130577
6.59203e-06
0.0130602
6.74916e-06
0.0130628
6.88075e-06
0.0130653
7.02792e-06
0.013068
7.22724e-06
0.0130706
7.45979e-06
0.0130733
7.7283e-06
0.013076
8.01097e-06
0.0130787
8.25969e-06
0.0130814
8.45845e-06
0.0130841
8.59052e-06
0.0130868
8.60747e-06
0.0130895
8.46865e-06
0.0130922
8.1378e-06
0.0130949
7.62156e-06
0.0130976
7.01461e-06
0.0131003
6.41159e-06
0.0131029
5.88501e-06
0.0131056
5.49232e-06
0.0131082
5.27669e-06
0.0131109
5.27172e-06
0.0131135
5.46449e-06
0.0131161
5.82746e-06
0.0131187
6.30837e-06
0.0131213
6.83469e-06
0.0131239
7.31892e-06
0.0131265
7.72212e-06
0.0131291
8.06219e-06
0.0131317
8.34049e-06
0.0131343
8.60893e-06
0.0131368
8.87658e-06
0.0131394
9.18167e-06
0.0131419
9.47222e-06
0.0131445
9.84489e-06
0.013147
1.00739e-05
0.0131495
1.03279e-05
0.0131521
1.02341e-05
0.0131546
1.03147e-05
0.0131571
9.59137e-06
0.0131596
9.48539e-06
8.01726e-06
0.0173809
0.000966116
0.0171123
0.000674781
0.0169249
0.000488052
0.0168055
0.000295316
0.0167377
0.000175112
0.0166997
0.000114093
0.016679
7.23052e-05
0.0166686
4.20381e-05
0.0166641
2.16516e-05
0.0166628
8.82635e-06
0.0166631
1.83629e-06
0.0166638
-1.0126e-06
0.0166645
-1.62749e-06
0.016665
-5.05367e-08
0.0166651
1.64003e-06
0.0166649
4.037e-06
0.0166645
6.64778e-06
0.016664
8.4415e-06
0.0166635
1.02303e-05
0.016663
1.15e-05
0.0166624
1.18916e-05
0.0166618
1.20229e-05
0.0166612
1.1789e-05
0.0166604
1.06836e-05
0.0166596
9.52448e-06
0.0166587
8.3371e-06
0.0166579
6.78381e-06
0.0166571
5.5556e-06
0.0166565
4.72e-06
0.0166559
3.86471e-06
0.0166555
3.1904e-06
0.0166551
2.93679e-06
0.0166547
2.67346e-06
0.0166543
2.54104e-06
0.0166538
2.60395e-06
0.0166533
2.48461e-06
0.0166528
2.46935e-06
0.0166525
2.34244e-06
0.0166522
1.96491e-06
0.0166521
1.71812e-06
0.0166521
1.4987e-06
0.0166521
1.28297e-06
0.0166522
1.39636e-06
0.0166523
1.62249e-06
0.0166524
1.97981e-06
0.0166525
2.69426e-06
0.0166527
3.54188e-06
0.016653
4.45525e-06
0.0166535
5.50979e-06
0.0166541
6.5103e-06
0.0166548
7.40503e-06
0.0166557
8.2318e-06
0.0166567
8.86513e-06
0.0166578
9.34821e-06
0.0166589
9.65267e-06
0.01666
9.70061e-06
0.0166612
9.58616e-06
0.0166626
9.29969e-06
0.016664
8.79957e-06
0.0166656
8.25034e-06
0.0166674
7.74196e-06
0.0166694
7.2547e-06
0.0166714
6.97165e-06
0.0166735
6.86652e-06
0.0166757
6.77424e-06
0.0166778
6.85837e-06
0.0166801
7.05419e-06
0.0166824
7.14095e-06
0.0166848
7.21383e-06
0.0166874
7.21591e-06
0.01669
7.06057e-06
0.0166928
6.91161e-06
0.0166957
6.7898e-06
0.0166986
6.64355e-06
0.0167015
6.55882e-06
0.0167044
6.55304e-06
0.0167074
6.6221e-06
0.0167104
6.77771e-06
0.0167133
6.94873e-06
0.0167163
7.12323e-06
0.0167194
7.29868e-06
0.0167225
7.4452e-06
0.0167257
7.61432e-06
0.0167289
7.85059e-06
0.0167322
8.1325e-06
0.0167355
8.46037e-06
0.0167388
8.80675e-06
0.0167422
9.11344e-06
0.0167456
9.35912e-06
0.016749
9.52233e-06
0.0167525
9.54416e-06
0.0167559
9.37658e-06
0.0167593
8.97029e-06
0.0167627
8.3377e-06
0.0167661
7.59238e-06
0.0167695
6.85236e-06
0.0167729
6.20706e-06
0.0167763
5.72647e-06
0.0167796
5.46358e-06
0.016783
5.45903e-06
0.0167863
5.69941e-06
0.0167897
6.14956e-06
0.016793
6.74448e-06
0.0167963
7.39528e-06
0.0167997
7.99399e-06
0.016803
8.49538e-06
0.0168063
8.91613e-06
0.0168096
9.26392e-06
0.0168129
9.59466e-06
0.0168161
9.93273e-06
0.0168194
1.0303e-05
0.0168226
1.06768e-05
0.0168259
1.11202e-05
0.0168291
1.14336e-05
0.0168324
1.17046e-05
0.0168356
1.16613e-05
0.0168388
1.16534e-05
0.016842
1.09342e-05
0.0168453
1.05536e-05
8.99783e-06
0.0192292
0.00050991
0.0194231
0.000468474
0.0194996
0.000400997
0.0195134
0.000272552
0.0195201
0.000160951
0.0195362
9.21524e-05
0.0195569
4.72603e-05
0.0195762
1.93608e-05
0.0195915
3.92882e-06
0.0196025
-3.5377e-06
0.0196096
-5.94571e-06
0.0196136
-5.31007e-06
0.0196156
-3.49765e-06
0.0196161
-2.05731e-07
0.0196157
2.55985e-06
0.0196148
5.59269e-06
0.0196136
8.61928e-06
0.0196125
1.06266e-05
0.0196115
1.25675e-05
0.0196108
1.38977e-05
0.0196102
1.42681e-05
0.0196097
1.43425e-05
0.0196093
1.4008e-05
0.0196088
1.27053e-05
0.0196081
1.13409e-05
0.0196074
9.94746e-06
0.0196067
8.18816e-06
0.019606
6.76843e-06
0.0196055
5.80629e-06
0.0196051
4.83598e-06
0.0196049
4.07482e-06
0.0196047
3.79347e-06
0.0196046
3.48548e-06
0.0196044
3.33387e-06
0.0196041
3.38595e-06
0.0196037
3.22248e-06
0.0196033
3.16729e-06
0.0196029
2.99559e-06
0.0196027
2.54397e-06
0.0196026
2.24231e-06
0.0196026
1.98345e-06
0.0196028
1.73347e-06
0.0196031
1.84491e-06
0.0196033
2.06702e-06
0.0196035
2.42404e-06
0.0196037
3.17893e-06
0.0196038
4.0828e-06
0.019604
5.05859e-06
0.0196044
6.1919e-06
0.0196049
7.26942e-06
0.0196057
8.23572e-06
0.0196067
9.12829e-06
0.0196077
9.80366e-06
0.0196089
1.03057e-05
0.0196101
1.06019e-05
0.0196113
1.06042e-05
0.0196125
1.04182e-05
0.0196138
1.00397e-05
0.0196153
9.42414e-06
0.0196169
8.76015e-06
0.0196188
8.15058e-06
0.0196208
7.57076e-06
0.019623
7.22355e-06
0.0196254
7.07548e-06
0.0196277
6.93835e-06
0.0196302
6.99474e-06
0.0196326
7.17267e-06
0.0196351
7.22796e-06
0.0196377
7.27051e-06
0.0196404
7.23918e-06
0.0196433
7.03813e-06
0.0196463
6.85171e-06
0.0196495
6.70146e-06
0.0196528
6.52571e-06
0.0196562
6.41943e-06
0.0196595
6.39977e-06
0.0196629
6.46098e-06
0.0196662
6.61613e-06
0.0196696
6.78524e-06
0.019673
6.95774e-06
0.0196764
7.13175e-06
0.0196799
7.27457e-06
0.0196834
7.4459e-06
0.019687
7.69532e-06
0.0196907
8.00043e-06
0.0196945
8.35967e-06
0.0196983
8.74111e-06
0.0197022
9.08116e-06
0.0197061
9.35422e-06
0.0197101
9.53482e-06
0.019714
9.55819e-06
0.019718
9.37121e-06
0.019722
8.9148e-06
0.0197259
8.207e-06
0.0197299
7.37149e-06
0.0197338
6.54313e-06
0.0197378
5.82136e-06
0.0197417
5.28425e-06
0.0197456
4.99126e-06
0.0197496
4.98623e-06
0.0197535
5.25739e-06
0.0197574
5.76431e-06
0.0197613
6.43322e-06
0.0197652
7.16427e-06
0.0197691
7.83754e-06
0.0197729
8.40381e-06
0.0197768
8.8771e-06
0.0197807
9.26992e-06
0.0197845
9.64155e-06
0.0197883
1.00271e-05
0.0197922
1.04379e-05
0.019796
1.08704e-05
0.0197998
1.13549e-05
0.0198036
1.17321e-05
0.0198074
1.19997e-05
0.0198112
1.20142e-05
0.019815
1.19081e-05
0.0198187
1.12527e-05
0.0198226
1.05848e-05
9.10947e-06
0.0195869
-0.000175266
0.0201527
-0.000100933
0.0206491
-9.81004e-05
0.021009
-8.97553e-05
0.0212433
-7.53919e-05
0.0213911
-5.71867e-05
0.021479
-4.15916e-05
0.0215272
-2.95957e-05
0.0215509
-2.01513e-05
0.0215601
-1.26719e-05
0.0215613
-6.73583e-06
0.0215586
-1.87223e-06
0.021554
1.77605e-06
0.0215491
5.4865e-06
0.0215443
7.94449e-06
0.02154
1.0282e-05
0.0215365
1.256e-05
0.0215337
1.3875e-05
0.0215318
1.52133e-05
0.0215307
1.60298e-05
0.0215301
1.59944e-05
0.02153
1.57567e-05
0.0215301
1.51809e-05
0.0215303
1.36727e-05
0.0215303
1.21452e-05
0.0215302
1.06131e-05
0.02153
8.75091e-06
0.0215299
7.22392e-06
0.0215299
6.19956e-06
0.0215301
5.18466e-06
0.0215305
4.38132e-06
0.021531
4.09996e-06
0.0215315
3.79094e-06
0.021532
3.65148e-06
0.0215322
3.71379e-06
0.0215323
3.54137e-06
0.0215323
3.47161e-06
0.0215323
3.27776e-06
0.0215323
2.78615e-06
0.0215325
2.44985e-06
0.021533
2.1643e-06
0.0215336
1.90105e-06
0.0215342
2.01038e-06
0.0215349
2.22524e-06
0.0215355
2.57184e-06
0.021536
3.33208e-06
0.0215364
4.24381e-06
0.0215368
5.22234e-06
0.0215373
6.35667e-06
0.021538
7.43233e-06
0.0215389
8.39659e-06
0.0215401
9.28862e-06
0.0215414
9.95863e-06
0.0215429
1.04489e-05
0.0215443
1.07248e-05
0.0215457
1.06894e-05
0.021547
1.04508e-05
0.0215484
1.00071e-05
0.0215499
9.31264e-06
0.0215516
8.56891e-06
0.0215536
7.88615e-06
0.0215557
7.24183e-06
0.0215581
6.84573e-06
0.0215607
6.66123e-06
0.0215633
6.48889e-06
0.0215659
6.51605e-06
0.0215685
6.66541e-06
0.0215711
6.68408e-06
0.0215738
6.6876e-06
0.0215766
6.61516e-06
0.0215796
6.36923e-06
0.0215828
6.14512e-06
0.0215862
5.96589e-06
0.0215898
5.76547e-06
0.0215934
5.64184e-06
0.021597
5.60941e-06
0.0216007
5.66033e-06
0.0216043
5.80673e-06
0.0216079
5.96375e-06
0.0216115
6.12218e-06
0.0216151
6.28022e-06
0.0216188
6.40518e-06
0.0216225
6.56181e-06
0.0216264
6.80151e-06
0.0216303
7.10274e-06
0.0216343
7.46281e-06
0.0216385
7.84794e-06
0.0216426
8.19329e-06
0.0216468
8.47146e-06
0.0216511
8.65425e-06
0.0216554
8.6755e-06
0.0216597
8.47911e-06
0.021664
8.0018e-06
0.0216683
7.26494e-06
0.0216726
6.39439e-06
0.0216769
5.53347e-06
0.0216812
4.78265e-06
0.0216855
4.22424e-06
0.0216898
3.92068e-06
0.0216941
3.91495e-06
0.0216983
4.19778e-06
0.0217026
4.72621e-06
0.0217068
5.42328e-06
0.0217111
6.18383e-06
0.0217153
6.88636e-06
0.0217196
7.47858e-06
0.0217238
7.97273e-06
0.021728
8.38191e-06
0.0217322
8.77086e-06
0.0217364
9.17604e-06
0.0217406
9.60182e-06
0.0217448
1.00616e-05
0.021749
1.05559e-05
0.0217531
1.09689e-05
0.0217573
1.12166e-05
0.0217614
1.12842e-05
0.0217656
1.10911e-05
0.0217697
1.0532e-05
0.0217739
9.61896e-06
8.34886e-06
0.0195873
-0.000850323
0.0201539
-0.000661844
0.0206513
-0.000590309
0.0210112
-0.000445427
0.0212461
-0.000306834
0.0213951
-0.000203329
0.0214849
-0.000129042
0.0215351
-7.77425e-05
0.0215606
-4.3951e-05
0.0215715
-2.1893e-05
0.0215743
-7.88831e-06
0.0215729
9.77831e-07
0.0215697
6.27182e-06
0.021566
1.01978e-05
0.0215623
1.21874e-05
0.0215592
1.37082e-05
0.0215567
1.50762e-05
0.021555
1.56413e-05
0.0215541
1.63132e-05
0.0215539
1.65588e-05
0.0215543
1.61299e-05
0.0215552
1.56037e-05
0.0215561
1.48457e-05
0.0215571
1.32548e-05
0.021558
1.16893e-05
0.0215587
1.01448e-05
0.0215594
8.30683e-06
0.02156
6.78966e-06
0.0215607
5.77658e-06
0.0215617
4.79778e-06
0.0215628
4.01046e-06
0.0215641
3.75711e-06
0.0215653
3.47675e-06
0.0215664
3.3697e-06
0.0215674
3.44644e-06
0.0215681
3.28544e-06
0.0215688
3.21666e-06
0.0215693
3.01879e-06
0.02157
2.52335e-06
0.0215709
2.17898e-06
0.0215719
1.88843e-06
0.0215731
1.62703e-06
0.0215744
1.73072e-06
0.0215756
1.92908e-06
0.0215768
2.24684e-06
0.0215778
2.96579e-06
0.0215787
3.82807e-06
0.0215796
4.74624e-06
0.0215807
5.80715e-06
0.0215818
6.80975e-06
0.0215832
7.70816e-06
0.0215849
8.54191e-06
0.0215866
9.16522e-06
0.0215884
9.61667e-06
0.0215903
9.86153e-06
0.021592
9.80012e-06
0.0215937
9.53448e-06
0.0215954
9.06371e-06
0.0215972
8.34566e-06
0.0215992
7.5788e-06
0.0216014
6.87384e-06
0.0216038
6.21408e-06
0.0216065
5.80116e-06
0.0216092
5.59864e-06
0.021612
5.40947e-06
0.0216148
5.41223e-06
0.0216175
5.52979e-06
0.0216203
5.51627e-06
0.0216231
5.48496e-06
0.0216261
5.37932e-06
0.0216292
5.10675e-06
0.0216326
4.86093e-06
0.0216361
4.66529e-06
0.0216397
4.45452e-06
0.0216434
4.32391e-06
0.0216472
4.28369e-06
0.0216509
4.32453e-06
0.0216546
4.45637e-06
0.0216582
4.5955e-06
0.0216619
4.73357e-06
0.0216655
4.86931e-06
0.0216692
4.97165e-06
0.021673
5.10647e-06
0.0216769
5.32274e-06
0.0216808
5.60122e-06
0.0216848
5.9381e-06
0.0216889
6.30188e-06
0.0216931
6.62885e-06
0.0216973
6.89356e-06
0.0217016
7.06691e-06
0.0217059
7.08532e-06
0.0217102
6.89301e-06
0.0217145
6.42855e-06
0.0217188
5.71275e-06
0.0217231
4.8673e-06
0.0217274
4.03382e-06
0.0217317
3.30527e-06
0.021736
2.76448e-06
0.0217403
2.47113e-06
0.0217446
2.46542e-06
0.0217489
2.74032e-06
0.0217531
3.25383e-06
0.0217574
3.93104e-06
0.0217616
4.66881e-06
0.0217659
5.35234e-06
0.0217701
5.93007e-06
0.0217743
6.4103e-06
0.0217786
6.80809e-06
0.0217828
7.18711e-06
0.021787
7.58445e-06
0.0217912
7.99593e-06
0.0217953
8.45117e-06
0.0217995
8.92113e-06
0.0218037
9.34146e-06
0.0218079
9.55115e-06
0.021812
9.66778e-06
0.0218162
9.39972e-06
0.0218202
8.97768e-06
0.0218245
7.87964e-06
6.90747e-06
0.0192325
-0.0012761
0.01943
-0.000844763
0.0195121
-0.000659725
0.0195281
-0.000450939
0.0195363
-0.000306406
0.0195548
-0.000214781
0.0195789
-0.000147415
0.0196025
-9.66936e-05
0.0196224
-6.01002e-05
0.0196378
-3.41006e-05
0.0196492
-1.66103e-05
0.0196574
-5.07629e-06
0.0196632
2.13147e-06
0.0196674
7.1397e-06
0.0196704
9.77089e-06
0.0196727
1.15655e-05
0.0196746
1.29332e-05
0.0196764
1.3575e-05
0.0196783
1.41851e-05
0.0196803
1.43625e-05
0.0196824
1.39477e-05
0.0196845
1.34473e-05
0.0196866
1.2749e-05
0.0196884
1.13183e-05
0.0196901
9.91073e-06
0.0196917
8.51921e-06
0.0196932
6.86068e-06
0.0196947
5.48532e-06
0.0196963
4.5762e-06
0.019698
3.7108e-06
0.0196998
3.01243e-06
0.0197017
2.80894e-06
0.0197035
2.57915e-06
0.0197052
2.50676e-06
0.0197068
2.58364e-06
0.0197082
2.4414e-06
0.0197095
2.37852e-06
0.0197109
2.19122e-06
0.0197123
1.73641e-06
0.0197139
1.4235e-06
0.0197156
1.1594e-06
0.0197174
9.23505e-07
0.0197192
1.01868e-06
0.019721
1.19139e-06
0.0197227
1.45862e-06
0.0197242
2.08631e-06
0.0197258
2.84178e-06
0.0197273
3.64445e-06
0.019729
4.57303e-06
0.0197308
5.45118e-06
0.0197327
6.24101e-06
0.0197348
6.97626e-06
0.019737
7.52363e-06
0.0197392
7.91582e-06
0.0197413
8.12132e-06
0.0197434
8.04553e-06
0.0197454
7.78156e-06
0.0197475
7.32895e-06
0.0197497
6.65592e-06
0.019752
5.94055e-06
0.0197546
5.28508e-06
0.0197572
4.67625e-06
0.01976
4.29258e-06
0.0197629
4.09921e-06
0.0197657
3.91582e-06
0.0197686
3.90172e-06
0.0197714
3.98776e-06
0.0197742
3.95305e-06
0.0197772
3.90244e-06
0.0197802
3.78642e-06
0.0197834
3.52275e-06
0.0197867
3.28787e-06
0.0197902
3.10276e-06
0.0197937
2.90622e-06
0.0197973
2.78459e-06
0.0198008
2.74408e-06
0.0198043
2.77545e-06
0.0198078
2.88704e-06
0.0198113
3.00346e-06
0.0198148
3.11754e-06
0.0198183
3.22915e-06
0.0198218
3.31032e-06
0.0198254
3.42341e-06
0.019829
3.60984e-06
0.0198328
3.85425e-06
0.0198366
4.15134e-06
0.0198404
4.4757e-06
0.0198443
4.76674e-06
0.0198482
5.00395e-06
0.0198522
5.15957e-06
0.0198561
5.17653e-06
0.0198601
5.00404e-06
0.0198641
4.58736e-06
0.019868
3.94401e-06
0.019872
3.1839e-06
0.019876
2.43754e-06
0.0198799
1.78337e-06
0.0198839
1.29827e-06
0.0198878
1.03692e-06
0.0198918
1.03246e-06
0.0198957
1.28133e-06
0.0198996
1.74451e-06
0.0199035
2.35522e-06
0.0199074
3.01957e-06
0.0199113
3.63641e-06
0.0199152
4.16042e-06
0.019919
4.59218e-06
0.0199229
4.95388e-06
0.0199267
5.29448e-06
0.0199306
5.6581e-06
0.0199344
6.02493e-06
0.0199382
6.44664e-06
0.0199421
6.85724e-06
0.0199459
7.25865e-06
0.0199497
7.41303e-06
0.0199534
7.57562e-06
0.0199573
7.24543e-06
0.019961
7.00329e-06
0.0199649
5.79716e-06
5.17022e-06
0.0173905
-0.0010649
0.0171345
-0.000566195
0.0169563
-0.000462236
0.0168399
-0.000318516
0.0167735
-0.000226701
0.0167384
-0.00016905
0.016722
-0.000122426
0.0167166
-8.42936e-05
0.0167174
-5.53809e-05
0.0167215
-3.37081e-05
0.0167271
-1.85702e-05
0.016733
-8.24781e-06
0.0167386
-1.50148e-06
0.0167436
3.2268e-06
0.0167481
5.8562e-06
0.0167521
7.67453e-06
0.0167556
8.99557e-06
0.016759
9.78051e-06
0.0167621
1.04261e-05
0.0167651
1.06655e-05
0.0167679
1.04059e-05
0.0167706
1.00463e-05
0.0167731
9.52038e-06