/*--------------------------------*- C++ -*----------------------------------*\
  =========                 |
  \\      /  F ield         | OpenFOAM: The Open Source CFD Toolbox
   \\    /   O peration     | Website:  https://openfoam.org
    \\  /    A nd           | Version:  7
     \\/     M anipulation  |
\*---------------------------------------------------------------------------*/
FoamFile
{
    version     2.0;
    format      ascii;
    class       volVectorField;
    location    "0.9225";
    object      U;
}
// * * * * * * * * * * * * * * * * * * * * * * * * * * * * * * * * * * * * * //

dimensions      [0 1 -1 0 0 0 0];

internalField   nonuniform List<vector> 
1600
(
(0.0775539 0.0568911 0)
(0.0341443 0.0148314 0)
(0.0177561 0.00424781 0)
(0.0100332 0.00131041 0)
(0.00600116 0.000379393 0)
(0.00386506 7.93626e-05 0)
(0.00267475 -2.24466e-05 0)
(0.00197907 -5.24447e-05 0)
(0.0015659 -5.75562e-05 0)
(0.001318 -5.51536e-05 0)
(0.0011741 -5.00571e-05 0)
(0.00109509 -4.7271e-05 0)
(0.00105815 -4.20672e-05 0)
(0.00105283 -3.76631e-05 0)
(0.0010688 -3.44573e-05 0)
(0.00110055 -3.17764e-05 0)
(0.00114455 -3.00664e-05 0)
(0.00119853 -2.87745e-05 0)
(0.00126132 -2.76019e-05 0)
(0.00133176 -2.669e-05 0)
(0.00140883 -2.5853e-05 0)
(0.00149186 -2.50226e-05 0)
(0.00157988 -2.45195e-05 0)
(0.00167188 -2.40726e-05 0)
(0.00176714 -2.34825e-05 0)
(0.00186492 -2.27703e-05 0)
(0.00196431 -2.19348e-05 0)
(0.00206442 -2.09773e-05 0)
(0.00216429 -1.98564e-05 0)
(0.00226291 -1.85098e-05 0)
(0.00235906 -1.68509e-05 0)
(0.00245139 -1.47407e-05 0)
(0.00253834 -1.23186e-05 0)
(0.00261724 -8.33294e-06 0)
(0.00268532 -1.53093e-06 0)
(0.00272593 1.22437e-05 0)
(0.00277739 4.87458e-05 0)
(0.00283737 7.76117e-05 0)
(0.00258018 0.00013882 0)
(0.00302832 0.000517308 0)
(0.0919349 0.0728618 0)
(0.0655517 0.0416068 0)
(0.0447469 0.0216138 0)
(0.0302155 0.011168 0)
(0.0206442 0.00603034 0)
(0.0143978 0.0034332 0)
(0.0102535 0.00203535 0)
(0.00746175 0.00124398 0)
(0.0055595 0.000774293 0)
(0.00424907 0.000483859 0)
(0.00333796 0.000299043 0)
(0.00270313 0.000175988 0)
(0.00226118 9.45348e-05 0)
(0.00195511 3.78877e-05 0)
(0.00175071 -3.32307e-06 0)
(0.00162401 -3.43183e-05 0)
(0.00155834 -5.9137e-05 0)
(0.00154269 -7.97576e-05 0)
(0.0015687 -9.76193e-05 0)
(0.00163007 -0.000113309 0)
(0.00172183 -0.00012713 0)
(0.00183953 -0.000139191 0)
(0.00197959 -0.000149711 0)
(0.00213889 -0.000158625 0)
(0.00231426 -0.000165771 0)
(0.00250293 -0.000171276 0)
(0.0027022 -0.0001751 0)
(0.00290956 -0.000177226 0)
(0.00312258 -0.000177618 0)
(0.00333883 -0.000176187 0)
(0.00355583 -0.000172786 0)
(0.00377082 -0.000167114 0)
(0.00398198 -0.000158752 0)
(0.00418644 -0.00014651 0)
(0.00438139 -0.000127666 0)
(0.00456467 -9.84441e-05 0)
(0.00474386 -3.66016e-05 0)
(0.0049226 2.35372e-05 0)
(0.00513076 0.000109333 0)
(0.00567819 0.000504419 0)
(0.100544 0.0857386 0)
(0.0865472 0.0615189 0)
(0.0683033 0.0400263 0)
(0.051394 0.0253541 0)
(0.038218 0.0161559 0)
(0.0285297 0.010482 0)
(0.0214972 0.00692756 0)
(0.0164059 0.00465367 0)
(0.0127155 0.00316848 0)
(0.0100278 0.00217955 0)
(0.00805746 0.0015091 0)
(0.00660401 0.00104659 0)
(0.0055269 0.00071933 0)
(0.00472804 0.000482479 0)
(0.00414067 0.000306081 0)
(0.00371758 0.000169898 0)
(0.0034247 6.12793e-05 0)
(0.00323767 -2.80462e-05 0)
(0.00313882 -0.000102543 0)
(0.00311442 -0.00016598 0)
(0.00315296 -0.000221318 0)
(0.00324511 -0.000269088 0)
(0.00338281 -0.00030979 0)
(0.00355914 -0.000344245 0)
(0.00376791 -0.000372909 0)
(0.00400375 -0.000396172 0)
(0.00426183 -0.000414293 0)
(0.00453766 -0.00042744 0)
(0.00482709 -0.000435774 0)
(0.00512626 -0.000439366 0)
(0.00543149 -0.000438195 0)
(0.00573926 -0.000432077 0)
(0.00604642 -0.000420329 0)
(0.00634982 -0.000402778 0)
(0.00664701 -0.000377251 0)
(0.00693727 -0.000341112 0)
(0.00722312 -0.00028777 0)
(0.00750308 -0.00021803 0)
(0.00781537 -0.000126898 0)
(0.00842035 -2.78902e-05 0)
(0.101357 0.0915995 0)
(0.0966926 0.0742549 0)
(0.0834446 0.0567721 0)
(0.068369 0.0409317 0)
(0.0547458 0.0287606 0)
(0.0435184 0.0201501 0)
(0.0345876 0.0141957 0)
(0.0276266 0.0100736 0)
(0.022268 0.00720168 0)
(0.0181658 0.00518725 0)
(0.0150263 0.00376234 0)
(0.0126177 0.00274262 0)
(0.0107647 0.00200072 0)
(0.00933788 0.00144983 0)
(0.00824315 0.00103058 0)
(0.00741167 0.000702287 0)
(0.00679249 0.000438395 0)
(0.00634811 0.00022142 0)
(0.00604855 4.04088e-05 0)
(0.00586893 -0.000112725 0)
(0.00579167 -0.00024236 0)
(0.00580213 -0.00035368 0)
(0.00588614 -0.00044865 0)
(0.00603212 -0.000529018 0)
(0.00623024 -0.000596286 0)
(0.00647201 -0.00065162 0)
(0.00674994 -0.000696039 0)
(0.00705734 -0.000730309 0)
(0.00738822 -0.000755042 0)
(0.00773715 -0.000770706 0)
(0.00809916 -0.000777627 0)
(0.00846971 -0.000775967 0)
(0.00884467 -0.000765648 0)
(0.00922026 -0.000746504 0)
(0.00959353 -0.000717586 0)
(0.00996278 -0.000677549 0)
(0.0103271 -0.000624127 0)
(0.0106868 -0.000557159 0)
(0.0110821 -0.000471645 0)
(0.0117057 -0.000379527 0)
(0.100981 0.0820135 0)
(0.0994016 0.0800408 0)
(0.0909505 0.0686229 0)
(0.0798616 0.0540293 0)
(0.0683355 0.0409065 0)
(0.0575026 0.0305956 0)
(0.0479415 0.0228154 0)
(0.0398739 0.0169941 0)
(0.0332723 0.0126619 0)
(0.0279686 0.00945749 0)
(0.0237454 0.00709317 0)
(0.020393 0.00534174 0)
(0.0177341 0.00403066 0)
(0.0156278 0.00303352 0)
(0.0139647 0.00226004 0)
(0.012661 0.00164679 0)
(0.0116523 0.00115031 0)
(0.0108883 0.000741013 0)
(0.0103289 0.000398271 0)
(0.00994248 0.000108898 0)
(0.00970086 -0.000135584 0)
(0.0095816 -0.000342788 0)
(0.0095674 -0.000519124 0)
(0.00964143 -0.000668556 0)
(0.00978951 -0.000793884 0)
(0.00999961 -0.00089774 0)
(0.0102614 -0.000982356 0)
(0.0105658 -0.00104952 0)
(0.0109049 -0.00110066 0)
(0.0112716 -0.00113696 0)
(0.0116596 -0.00115933 0)
(0.0120631 -0.00116848 0)
(0.012477 -0.00116491 0)
(0.0128966 -0.00114892 0)
(0.0133181 -0.00112048 0)
(0.0137384 -0.00107941 0)
(0.014154 -0.00102545 0)
(0.014563 -0.000959533 0)
(0.0150007 -0.000883743 0)
(0.015632 -0.0008156 0)
(0.103993 0.0890703 0)
(0.100722 0.0854346 0)
(0.0956509 0.0762841 0)
(0.0884063 0.0636049 0)
(0.0795399 0.0511515 0)
(0.0699732 0.0405471 0)
(0.0606378 0.0318365 0)
(0.0521713 0.0247687 0)
(0.0448516 0.0191396 0)
(0.0387058 0.0147496 0)
(0.0336281 0.0113743 0)
(0.0294675 0.00878949 0)
(0.0260744 0.00680039 0)
(0.0233175 0.00525231 0)
(0.0210879 0.0040289 0)
(0.019297 0.0030454 0)
(0.0178732 0.00224152 0)
(0.0167585 0.00157498 0)
(0.0159053 0.00101612 0)
(0.0152742 0.000544278 0)
(0.014832 0.000143697 0)
(0.0145492 -0.000195275 0)
(0.0144013 -0.00048225 0)
(0.0143688 -0.000725206 0)
(0.0144335 -0.000929529 0)
(0.0145796 -0.00109967 0)
(0.0147936 -0.00123956 0)
(0.0150643 -0.00135246 0)
(0.0153815 -0.00144103 0)
(0.0157367 -0.00150743 0)
(0.0161219 -0.00155345 0)
(0.0165304 -0.00158047 0)
(0.0169559 -0.00158964 0)
(0.0173928 -0.0015818 0)
(0.0178363 -0.00155763 0)
(0.0182818 -0.00151777 0)
(0.018724 -0.00146321 0)
(0.0191582 -0.00139603 0)
(0.0196147 -0.00132125 0)
(0.0202472 -0.00125815 0)
(0.109918 0.103862 0)
(0.105674 0.0913311 0)
(0.101215 0.081416 0)
(0.0958037 0.0702943 0)
(0.0888189 0.0594356 0)
(0.0805805 0.0495385 0)
(0.0719543 0.040645 0)
(0.0636885 0.0328112 0)
(0.056205 0.0261582 0)
(0.049663 0.0207125 0)
(0.0440623 0.0163645 0)
(0.0393275 0.0129296 0)
(0.0353585 0.0102154 0)
(0.032054 0.00805464 0)
(0.0293209 0.00631498 0)
(0.0270772 0.00489582 0)
(0.0252527 0.00372308 0)
(0.0237878 0.00274316 0)
(0.0226317 0.00191751 0)
(0.0217406 0.00121817 0)
(0.021077 0.000624136 0)
(0.0206078 0.000119196 0)
(0.0203033 -0.000308424 0)
(0.0201392 -0.000669361 0)
(0.0200948 -0.000973601 0)
(0.020151 -0.00122809 0)
(0.0202915 -0.00143873 0)
(0.0205026 -0.00161064 0)
(0.0207724 -0.00174809 0)
(0.0210906 -0.00185455 0)
(0.0214481 -0.00193287 0)
(0.0218369 -0.00198533 0)
(0.0222498 -0.00201375 0)
(0.0226803 -0.00201958 0)
(0.0231227 -0.002004 0)
(0.0235716 -0.0019682 0)
(0.02402 -0.00191379 0)
(0.0244613 -0.00184354 0)
(0.0249216 -0.00176368 0)
(0.0255498 -0.00169632 0)
(0.112476 0.0942301 0)
(0.109872 0.0948961 0)
(0.105833 0.0862126 0)
(0.10133 0.0759597 0)
(0.0956369 0.0664502 0)
(0.0887266 0.05747 0)
(0.0812243 0.0487681 0)
(0.0737308 0.0405519 0)
(0.0666489 0.0331939 0)
(0.0601974 0.02692 0)
(0.0544635 0.0217391 0)
(0.0494545 0.0175247 0)
(0.0451346 0.0141071 0)
(0.0414474 0.0113246 0)
(0.0383287 0.00904154 0)
(0.0357142 0.00715025 0)
(0.0335436 0.00556837 0)
(0.0317624 0.00423423 0)
(0.0303217 0.00310223 0)
(0.0291779 0.00213841 0)
(0.0282918 0.00131685 0)
(0.0276285 0.000616958 0)
(0.0271567 2.21903e-05 0)
(0.0268477 -0.000480554 0)
(0.0266776 -0.000904722 0)
(0.0266261 -0.00126082 0)
(0.0266743 -0.00155718 0)
(0.0268064 -0.00180108 0)
(0.0270087 -0.0019987 0)
(0.0272696 -0.00215514 0)
(0.0275788 -0.00227452 0)
(0.0279274 -0.00236017 0)
(0.0283075 -0.00241474 0)
(0.0287118 -0.00244031 0)
(0.029134 -0.00243853 0)
(0.0295679 -0.00241093 0)
(0.030006 -0.00235942 0)
(0.0304407 -0.00228701 0)
(0.0308938 -0.00220052 0)
(0.0315123 -0.00212554 0)
(0.111909 0.104685 0)
(0.106887 0.099866 0)
(0.105482 0.0899349 0)
(0.10298 0.0803108 0)
(0.0990578 0.0719723 0)
(0.0939288 0.0639195 0)
(0.0880667 0.0556455 0)
(0.0818875 0.0474078 0)
(0.0757213 0.0397161 0)
(0.0698163 0.0329236 0)
(0.0643372 0.0271351 0)
(0.0593749 0.0222886 0)
(0.0549641 0.0182547 0)
(0.0511007 0.0148948 0)
(0.0477572 0.0120842 0)
(0.0448945 0.0097186 0)
(0.0424692 0.00771422 0)
(0.0404379 0.00600592 0)
(0.038759 0.00454409 0)
(0.0373932 0.00329094 0)
(0.0363038 0.00221706 0)
(0.0354565 0.00129859 0)
(0.03482 0.000515342 0)
(0.0343644 -0.000150008 0)
(0.0340636 -0.000711373 0)
(0.0338959 -0.00118428 0)
(0.0338414 -0.00157976 0)
(0.0338823 -0.00190749 0)
(0.0340038 -0.00217576 0)
(0.034193 -0.00239148 0)
(0.0344388 -0.0025603 0)
(0.0347318 -0.00268675 0)
(0.0350633 -0.00277442 0)
(0.0354257 -0.00282614 0)
(0.0358123 -0.00284409 0)
(0.0362167 -0.00283011 0)
(0.0366314 -0.00278626 0)
(0.0370484 -0.00271555 0)
(0.0374854 -0.00262484 0)
(0.0380889 -0.00254259 0)
(0.0982873 0.0931402 0)
(0.101551 0.0978901 0)
(0.103108 0.0903508 0)
(0.102581 0.0824925 0)
(0.10023 0.0755717 0)
(0.096864 0.0685036 0)
(0.0928024 0.0608558 0)
(0.0881988 0.0529413 0)
(0.083261 0.0453024 0)
(0.0782309 0.0383368 0)
(0.0733253 0.0322116 0)
(0.068703 0.0269293 0)
(0.0644603 0.0224141 0)
(0.0606422 0.0185659 0)
(0.0572585 0.0152839 0)
(0.0542978 0.0124764 0)
(0.0517376 0.0100653 0)
(0.0495497 0.00798691 0)
(0.047704 0.00619115 0)
(0.0461698 0.00463918 0)
(0.044916 0.00330015 0)
(0.043912 0.00214851 0)
(0.0431286 0.00116202 0)
(0.0425383 0.000320482 0)
(0.0421135 -0.000393055 0)
(0.0418311 -0.000994415 0)
(0.0416722 -0.00149975 0)
(0.041618 -0.00192116 0)
(0.0416525 -0.00226901 0)
(0.0417624 -0.00255215 0)
(0.0419361 -0.00277786 0)
(0.0421634 -0.00295206 0)
(0.0424357 -0.00307944 0)
(0.0427452 -0.00316367 0)
(0.043085 -0.00320756 0)
(0.043449 -0.0032134 0)
(0.04383 -0.00318338 0)
(0.0442202 -0.0031204 0)
(0.0446337 -0.00303085 0)
(0.0452166 -0.00294435 0)
(0.104749 0.0984939 0)
(0.106685 0.0982295 0)
(0.104381 0.0909641 0)
(0.102422 0.0841557 0)
(0.100496 0.0779203 0)
(0.0984609 0.0714258 0)
(0.0960113 0.0643767 0)
(0.0929493 0.0570043 0)
(0.0893256 0.0497299 0)
(0.0853387 0.0428991 0)
(0.0812208 0.0366991 0)
(0.0771688 0.0311883 0)
(0.07332 0.0263502 0)
(0.069756 0.022132 0)
(0.0665178 0.0184654 0)
(0.0636194 0.0152783 0)
(0.0610593 0.0125034 0)
(0.0588265 0.0100828 0)
(0.0569048 0.00796943 0)
(0.0552744 0.00612625 0)
(0.0539128 0.00452333 0)
(0.052796 0.00313544 0)
(0.0518989 0.00193996 0)
(0.0511967 0.000915779 0)
(0.050666 4.24432e-05 0)
(0.0502828 -0.000696507 0)
(0.050027 -0.00131945 0)
(0.0498819 -0.00184162 0)
(0.0498313 -0.00227573 0)
(0.0498615 -0.00263259 0)
(0.0499606 -0.00292122 0)
(0.0501186 -0.00314898 0)
(0.0503267 -0.00332178 0)
(0.0505772 -0.00344426 0)
(0.0508637 -0.00352004 0)
(0.0511801 -0.00355196 0)
(0.05152 -0.00354251 0)
(0.0518768 -0.00349449 0)
(0.0522604 -0.00341335 0)
(0.0528177 -0.00332782 0)
(0.106062 0.101947 0)
(0.107072 0.0997499 0)
(0.103595 0.0927823 0)
(0.101488 0.0858806 0)
(0.100231 0.079353 0)
(0.0993476 0.0729522 0)
(0.0982317 0.0663951 0)
(0.0965051 0.0596685 0)
(0.0941106 0.0529569 0)
(0.091192 0.0464839 0)
(0.0879651 0.0404211 0)
(0.0846321 0.0348681 0)
(0.0813456 0.0298643 0)
(0.0782073 0.0254056 0)
(0.0752785 0.0214587 0)
(0.0725933 0.0179746 0)
(0.070168 0.0148999 0)
(0.068008 0.0121853 0)
(0.0661109 0.0097894 0)
(0.0644689 0.00767929 0)
(0.0630695 0.00582823 0)
(0.0618967 0.00421325 0)
(0.0609318 0.00281303 0)
(0.0601548 0.00160677 0)
(0.0595455 0.00057385 0)
(0.059083 -0.000306044 0)
(0.0587485 -0.00105011 0)
(0.0585257 -0.00167675 0)
(0.0583996 -0.00220098 0)
(0.058357 -0.00263552 0)
(0.0583862 -0.0029911 0)
(0.0584774 -0.00327658 0)
(0.0586222 -0.00349913 0)
(0.0588133 -0.0036645 0)
(0.0590445 -0.0037772 0)
(0.0593105 -0.00384082 0)
(0.0596056 -0.00385833 0)
(0.0599248 -0.00383262 0)
(0.0602741 -0.003768 0)
(0.0608012 -0.00369022 0)
(0.0992991 0.105446 0)
(0.0994274 0.101943 0)
(0.10017 0.0945199 0)
(0.100255 0.0869329 0)
(0.100163 0.0798348 0)
(0.100209 0.0733707 0)
(0.100034 0.0672319 0)
(0.0993048 0.0611588 0)
(0.0979221 0.0550846 0)
(0.0959743 0.0490878 0)
(0.0936342 0.0433014 0)
(0.0910784 0.0378491 0)
(0.0884504 0.0328154 0)
(0.0858537 0.0282391 0)
(0.0833585 0.0241195 0)
(0.0810105 0.0204298 0)
(0.0788391 0.0171312 0)
(0.0768625 0.0141843 0)
(0.0750902 0.011555 0)
(0.0735252 0.00921607 0)
(0.0721649 0.00714565 0)
(0.0710015 0.00532456 0)
(0.0700238 0.00373426 0)
(0.0692175 0.00235561 0)
(0.068567 0.00116857 0)
(0.0680564 0.000152556 0)
(0.0676688 -0.000711336 0)
(0.0673891 -0.00144236 0)
(0.0672047 -0.00205736 0)
(0.0671032 -0.00257079 0)
(0.0670738 -0.00299501 0)
(0.0671072 -0.00334031 0)
(0.0671957 -0.00361516 0)
(0.0673324 -0.00382642 0)
(0.0675117 -0.00397963 0)
(0.0677289 -0.00407925 0)
(0.0679796 -0.00412899 0)
(0.0682599 -0.00413207 0)
(0.0685729 -0.00409183 0)
(0.0690665 -0.00402945 0)
(0.0971957 0.109747 0)
(0.0980697 0.10083 0)
(0.0992317 0.0942633 0)
(0.10035 0.0868851 0)
(0.101028 0.0796452 0)
(0.10157 0.0731749 0)
(0.101879 0.0673594 0)
(0.101751 0.0618313 0)
(0.10109 0.0563355 0)
(0.0999318 0.0508183 0)
(0.098388 0.0453624 0)
(0.0965861 0.0400961 0)
(0.0946401 0.0351321 0)
(0.0926399 0.0305399 0)
(0.090653 0.0263441 0)
(0.0887288 0.0225365 0)
(0.0869033 0.0190914 0)
(0.0852027 0.0159791 0)
(0.0836448 0.0131732 0)
(0.0822408 0.010653 0)
(0.0809959 0.00840189 0)
(0.0799102 0.00640559 0)
(0.0789791 0.00464925 0)
(0.0781951 0.00311638 0)
(0.0775479 0.00178861 0)
(0.0770262 0.000646151 0)
(0.076617 -0.000331271 0)
(0.0763081 -0.00116189 0)
(0.0760889 -0.00186451 0)
(0.0759489 -0.00245498 0)
(0.0758783 -0.00294688 0)
(0.0758689 -0.00335178 0)
(0.0759136 -0.00367934 0)
(0.0760064 -0.00393752 0)
(0.0761422 -0.00413294 0)
(0.0763173 -0.00427106 0)
(0.0765277 -0.00435647 0)
(0.0767717 -0.0043931 0)
(0.077049 -0.00438376 0)
(0.0775077 -0.00434437 0)
(0.0858129 0.0937279 0)
(0.090659 0.0936559 0)
(0.0963348 0.0912385 0)
(0.0999671 0.0853497 0)
(0.101932 0.0786942 0)
(0.103063 0.0725533 0)
(0.103718 0.0670912 0)
(0.103967 0.0619936 0)
(0.103807 0.0569494 0)
(0.103263 0.0518352 0)
(0.102393 0.0466929 0)
(0.101272 0.0416425 0)
(0.0999777 0.0368064 0)
(0.0985766 0.0322703 0)
(0.0971262 0.0280743 0)
(0.0956726 0.0242231 0)
(0.0942531 0.0207014 0)
(0.0928965 0.017488 0)
(0.0916246 0.0145633 0)
(0.0904534 0.0119128 0)
(0.089393 0.00952563 0)
(0.0884493 0.0073919 0)
(0.0876237 0.00550078 0)
(0.0869147 0.00383895 0)
(0.0863174 0.00239029 0)
(0.0858256 0.00113647 0)
(0.0854315 5.78445e-05 0)
(0.085126 -0.000863934 0)
(0.0849002 -0.00164769 0)
(0.0847466 -0.00231025 0)
(0.0846572 -0.00286621 0)
(0.0846248 -0.00332806 0)
(0.0846434 -0.00370647 0)
(0.0847076 -0.00401044 0)
(0.0848131 -0.00424761 0)
(0.0849568 -0.00442452 0)
(0.0851356 -0.0045468 0)
(0.0853492 -0.00461936 0)
(0.0855946 -0.00464516 0)
(0.0860195 -0.00463521 0)
(0.0944356 0.0950459 0)
(0.0958636 0.0905336 0)
(0.0981327 0.0872351 0)
(0.101072 0.0823 0)
(0.103263 0.076787 0)
(0.104608 0.0714472 0)
(0.105442 0.0665021 0)
(0.105936 0.0617902 0)
(0.106144 0.0570848 0)
(0.106085 0.0522772 0)
(0.105778 0.0473982 0)
(0.105252 0.0425568 0)
(0.10455 0.0378731 0)
(0.103717 0.033436 0)
(0.102796 0.0292922 0)
(0.101826 0.0254535 0)
(0.100842 0.0219119 0)
(0.099871 0.0186526 0)
(0.0989351 0.0156624 0)
(0.098051 0.0129317 0)
(0.0972312 0.0104543 0)
(0.0964848 0.00822415 0)
(0.0958177 0.00623398 0)
(0.095233 0.00447339 0)
(0.0947315 0.00292875 0)
(0.0943114 0.00158375 0)
(0.0939698 0.00042033 0)
(0.0937015 -0.000580191 0)
(0.0935009 -0.00143574 0)
(0.0933623 -0.00216286 0)
(0.0932801 -0.00277675 0)
(0.0932484 -0.00329058 0)
(0.0932622 -0.00371577 0)
(0.0933171 -0.00406219 0)
(0.0934094 -0.00433842 0)
(0.0935364 -0.00455205 0)
(0.0936959 -0.00470983 0)
(0.0938886 -0.00481792 0)
(0.094109 -0.00488007 0)
(0.0945039 -0.00490378 0)
(0.101449 0.0920927 0)
(0.101183 0.0894711 0)
(0.101876 0.0846506 0)
(0.10359 0.079935 0)
(0.105064 0.0751064 0)
(0.106127 0.0703567 0)
(0.106941 0.0657931 0)
(0.107594 0.0613343 0)
(0.108104 0.0568423 0)
(0.108456 0.0522445 0)
(0.10863 0.0475698 0)
(0.108623 0.0429142 0)
(0.10845 0.0383861 0)
(0.108137 0.034069 0)
(0.107717 0.0300088 0)
(0.107221 0.0262203 0)
(0.106678 0.0227002 0)
(0.106111 0.0194391 0)
(0.105539 0.0164284 0)
(0.104977 0.0136627 0)
(0.104438 0.0111387 0)
(0.103931 0.00885312 0)
(0.103465 0.00680094 0)
(0.103047 0.00497406 0)
(0.102682 0.00336113 0)
(0.102372 0.00194787 0)
(0.10212 0.000718038 0)
(0.101923 -0.000345799 0)
(0.101779 -0.00126029 0)
(0.101686 -0.00204178 0)
(0.101639 -0.0027052 0)
(0.101634 -0.00326389 0)
(0.101667 -0.0037297 0)
(0.101734 -0.0041131 0)
(0.101833 -0.0044235 0)
(0.101961 -0.00466942 0)
(0.102117 -0.00485873 0)
(0.102301 -0.00499896 0)
(0.102506 -0.0050952 0)
(0.102877 -0.00515354 0)
(0.0964288 0.0970082 0)
(0.0989216 0.0886001 0)
(0.102742 0.0827937 0)
(0.104895 0.0784576 0)
(0.106072 0.0740056 0)
(0.107029 0.0694813 0)
(0.107938 0.0650313 0)
(0.108822 0.0606503 0)
(0.109658 0.056255 0)
(0.110402 0.051789 0)
(0.111012 0.0472713 0)
(0.111468 0.0427784 0)
(0.111767 0.038401 0)
(0.111927 0.0342114 0)
(0.111972 0.0302511 0)
(0.111926 0.0265354 0)
(0.111813 0.0230649 0)
(0.11165 0.0198346 0)
(0.111451 0.0168397 0)
(0.111229 0.0140774 0)
(0.110992 0.0115459 0)
(0.110751 0.00924286 0)
(0.110517 0.00716422 0)
(0.110298 0.0053032 0)
(0.110102 0.00365015 0)
(0.109937 0.00219273 0)
(0.109806 0.000916663 0)
(0.109713 -0.000193665 0)
(0.109658 -0.00115276 0)
(0.109639 -0.00197661 0)
(0.109655 -0.00267938 0)
(0.109703 -0.00327407 0)
(0.109781 -0.00377253 0)
(0.109884 -0.0041856 0)
(0.110011 -0.00452323 0)
(0.11016 -0.00479478 0)
(0.110328 -0.00500913 0)
(0.110519 -0.00517515 0)
(0.11072 -0.00529962 0)
(0.111077 -0.00538949 0)
(0.105069 0.0813425 0)
(0.1048 0.0824363 0)
(0.105077 0.0812579 0)
(0.10553 0.0777129 0)
(0.106245 0.0732461 0)
(0.107273 0.0686055 0)
(0.108438 0.0640673 0)
(0.109648 0.0596585 0)
(0.110847 0.0553004 0)
(0.111977 0.0509286 0)
(0.112991 0.0465435 0)
(0.113865 0.0421991 0)
(0.114592 0.0379666 0)
(0.115183 0.0339051 0)
(0.115657 0.030051 0)
(0.116035 0.0264205 0)
(0.116333 0.0230178 0)
(0.116562 0.0198421 0)
(0.116732 0.0168916 0)
(0.11685 0.0141646 0)
(0.116923 0.011659 0)
(0.116961 0.00937185 0)
(0.116975 0.00729865 0)
(0.116976 0.00543298 0)
(0.116974 0.00376628 0)
(0.116979 0.00228802 0)
(0.116998 0.000986056 0)
(0.117037 -0.000152874 0)
(0.117098 -0.0011423 0)
(0.117181 -0.00199588 0)
(0.117287 -0.00272675 0)
(0.117415 -0.00334727 0)
(0.117561 -0.003869 0)
(0.117724 -0.00430282 0)
(0.117902 -0.00465901 0)
(0.118091 -0.00494753 0)
(0.118291 -0.00517809 0)
(0.118503 -0.00536077 0)
(0.118713 -0.00550407 0)
(0.119066 -0.00561782 0)
(0.116496 0.0870967 0)
(0.10737 0.0856746 0)
(0.104497 0.0825845 0)
(0.104227 0.0775291 0)
(0.105362 0.0722848 0)
(0.106936 0.0673282 0)
(0.108568 0.0626874 0)
(0.110184 0.0582695 0)
(0.111757 0.0539585 0)
(0.113253 0.0496794 0)
(0.11464 0.0454199 0)
(0.115895 0.0412159 0)
(0.117014 0.0371212 0)
(0.118005 0.0331843 0)
(0.118883 0.0294375 0)
(0.119661 0.025899 0)
(0.120348 0.0225772 0)
(0.120952 0.019475 0)
(0.121475 0.0165925 0)
(0.121923 0.0139272 0)
(0.1223 0.0114754 0)
(0.122617 0.00923199 0)
(0.122885 0.00719112 0)
(0.123116 0.0053459 0)
(0.123323 0.00368852 0)
(0.123517 0.00221009 0)
(0.123707 0.000900623 0)
(0.1239 -0.000250721 0)
(0.124102 -0.00125583 0)
(0.124312 -0.00212607 0)
(0.124533 -0.00287314 0)
(0.124764 -0.00350845 0)
(0.125003 -0.00404299 0)
(0.125248 -0.00448737 0)
(0.125496 -0.00485195 0)
(0.125746 -0.00514703 0)
(0.125994 -0.00538292 0)
(0.126244 -0.00557066 0)
(0.126476 -0.00572019 0)
(0.126837 -0.00584531 0)
(0.102923 0.0939813 0)
(0.0986778 0.0899244 0)
(0.0993718 0.0827366 0)
(0.10182 0.076 0)
(0.104364 0.0703292 0)
(0.106637 0.0653857 0)
(0.108698 0.0608377 0)
(0.110648 0.0564995 0)
(0.112528 0.0522655 0)
(0.114336 0.0480811 0)
(0.116052 0.0439375 0)
(0.117656 0.0398609 0)
(0.119142 0.0358927 0)
(0.120512 0.032073 0)
(0.121773 0.0284326 0)
(0.122931 0.0249921 0)
(0.123987 0.0217637 0)
(0.124944 0.0187528 0)
(0.125799 0.0159591 0)
(0.126558 0.0133783 0)
(0.127225 0.0110033 0)
(0.127811 0.00882605 0)
(0.128329 0.00683871 0)
(0.128792 0.00503375 0)
(0.129215 0.00340403 0)
(0.12961 0.0019423 0)
(0.129987 0.000640854 0)
(0.130353 -0.000508777 0)
(0.130714 -0.00151591 0)
(0.131072 -0.00239013 0)
(0.131429 -0.00314148 0)
(0.131784 -0.00378015 0)
(0.132136 -0.00431631 0)
(0.132482 -0.0047601 0)
(0.13282 -0.0051217 0)
(0.133148 -0.00541147 0)
(0.13346 -0.00564004 0)
(0.133762 -0.00581905 0)
(0.134028 -0.0059595 0)
(0.134408 -0.00607864 0)
(0.0975623 0.0998664 0)
(0.0938413 0.0887841 0)
(0.0978873 0.0795923 0)
(0.101636 0.0729053 0)
(0.10452 0.0677005 0)
(0.106919 0.0631078 0)
(0.109103 0.0587427 0)
(0.111214 0.0544883 0)
(0.113298 0.0503099 0)
(0.115352 0.0461918 0)
(0.117352 0.0421351 0)
(0.119277 0.0381604 0)
(0.12111 0.0343 0)
(0.122843 0.0305878 0)
(0.124472 0.0270536 0)
(0.12599 0.0237197 0)
(0.127393 0.0205997 0)
(0.128677 0.0176988 0)
(0.12984 0.0150143 0)
(0.130886 0.0125377 0)
(0.131823 0.0102581 0)
(0.132664 0.00816415 0)
(0.133423 0.00624587 0)
(0.134115 0.00449546 0)
(0.134756 0.00290676 0)
(0.135357 0.00147447 0)
(0.135929 0.000193283 0)
(0.13648 -0.000942587 0)
(0.137015 -0.00194005 0)
(0.137537 -0.00280667 0)
(0.138046 -0.00355079 0)
(0.138542 -0.00418131 0)
(0.139022 -0.00470749 0)
(0.139486 -0.00513883 0)
(0.139929 -0.00548511 0)
(0.140348 -0.00575651 0)
(0.140739 -0.00596364 0)
(0.141104 -0.0061183 0)
(0.141414 -0.00623215 0)
(0.14182 -0.00632338 0)
(0.0938158 0.089198 0)
(0.0961945 0.084909 0)
(0.100117 0.0766048 0)
(0.103225 0.070148 0)
(0.105574 0.0653078 0)
(0.107701 0.0609193 0)
(0.109817 0.0566125 0)
(0.111978 0.0523543 0)
(0.114194 0.0481667 0)
(0.116446 0.0440609 0)
(0.118701 0.040045 0)
(0.120925 0.0361359 0)
(0.123088 0.0323594 0)
(0.125167 0.0287449 0)
(0.127142 0.0253196 0)
(0.128996 0.0221045 0)
(0.130718 0.0191109 0)
(0.1323 0.01634 0)
(0.133743 0.0137838 0)
(0.135052 0.0114287 0)
(0.136238 0.00925884 0)
(0.137317 0.00726003 0)
(0.138306 0.00542109 0)
(0.139221 0.00373452 0)
(0.140076 0.00219571 0)
(0.140885 0.000801715 0)
(0.141657 -0.000450012 0)
(0.1424 -0.0015626 0)
(0.143118 -0.00254041 0)
(0.143812 -0.00338897 0)
(0.144484 -0.00411494 0)
(0.145131 -0.00472595 0)
(0.145752 -0.00523029 0)
(0.146343 -0.00563677 0)
(0.1469 -0.00595464 0)
(0.147421 -0.00619364 0)
(0.147897 -0.00636407 0)
(0.148331 -0.00647735 0)
(0.148691 -0.00654554 0)
(0.149127 -0.00658289 0)
(0.0926883 0.0809501 0)
(0.101165 0.0782474 0)
(0.10369 0.0729585 0)
(0.105558 0.0677617 0)
(0.107139 0.0632511 0)
(0.108872 0.0588852 0)
(0.110845 0.054501 0)
(0.113011 0.0501452 0)
(0.115332 0.0458745 0)
(0.117767 0.0417167 0)
(0.120266 0.0376876 0)
(0.122778 0.0338044 0)
(0.125257 0.0300892 0)
(0.12766 0.0265659 0)
(0.129953 0.0232566 0)
(0.132112 0.020176 0)
(0.134119 0.0173282 0)
(0.135968 0.0147064 0)
(0.137662 0.012295 0)
(0.13921 0.0100742 0)
(0.140626 0.00802391 0)
(0.14193 0.00612765 0)
(0.143137 0.004374 0)
(0.144267 0.00275665 0)
(0.145332 0.00127324 0)
(0.146347 -7.63762e-05 0)
(0.147318 -0.00129177 0)
(0.148253 -0.00237333 0)
(0.149155 -0.00332282 0)
(0.150025 -0.00414372 0)
(0.150862 -0.00484108 0)
(0.151663 -0.00542128 0)
(0.152426 -0.00589172 0)
(0.153147 -0.00626049 0)
(0.153821 -0.00653623 0)
(0.154442 -0.00672806 0)
(0.155005 -0.00684574 0)
(0.155508 -0.00689967 0)
(0.155917 -0.00690242 0)
(0.15638 -0.00685685 0)
(0.115083 0.0967094 0)
(0.114635 0.0805468 0)
(0.110971 0.0731044 0)
(0.109292 0.067392 0)
(0.109322 0.0622302 0)
(0.110421 0.0573125 0)
(0.112174 0.0525377 0)
(0.114344 0.0479087 0)
(0.116799 0.043444 0)
(0.119447 0.0391581 0)
(0.122209 0.035064 0)
(0.125012 0.0311759 0)
(0.12779 0.0275093 0)
(0.130489 0.0240799 0)
(0.133065 0.0208991 0)
(0.13549 0.0179702 0)
(0.137747 0.0152856 0)
(0.139832 0.0128279 0)
(0.141753 0.0105727 0)
(0.143521 0.00849409 0)
(0.145154 0.00656858 0)
(0.14667 0.00477852 0)
(0.148089 0.00311325 0)
(0.149426 0.00156842 0)
(0.150695 0.00014438 0)
(0.151908 -0.00115591 0)
(0.153072 -0.00232899 0)
(0.154193 -0.00337232 0)
(0.155272 -0.00428517 0)
(0.156309 -0.00506895 0)
(0.157303 -0.00572717 0)
(0.15825 -0.00626505 0)
(0.159146 -0.00668914 0)
(0.159987 -0.00700686 0)
(0.160767 -0.00722626 0)
(0.16148 -0.00735574 0)
(0.162118 -0.0074043 0)
(0.16268 -0.0073807 0)
(0.16313 -0.00729859 0)
(0.163605 -0.00713958 0)
(0.106709 0.0962638 0)
(0.110014 0.0850223 0)
(0.10936 0.0752279 0)
(0.109145 0.0678376 0)
(0.109927 0.0615287 0)
(0.111435 0.0558187 0)
(0.113479 0.0505061 0)
(0.115924 0.0455052 0)
(0.118666 0.0407815 0)
(0.121615 0.0363279 0)
(0.12468 0.0321494 0)
(0.127778 0.0282526 0)
(0.130837 0.0246427 0)
(0.133797 0.0213218 0)
(0.136617 0.0182865 0)
(0.139269 0.015525 0)
(0.141744 0.0130159 0)
(0.144041 0.0107303 0)
(0.146171 0.00863599 0)
(0.148148 0.00670193 0)
(0.14999 0.00490272 0)
(0.151713 0.00322047 0)
(0.153336 0.00164604 0)
(0.154872 0.000177363 0)
(0.156335 -0.0011824 0)
(0.157734 -0.00242732 0)
(0.159076 -0.0035509 0)
(0.160364 -0.00454771 0)
(0.161601 -0.00541455 0)
(0.162785 -0.00615083 0)
(0.163913 -0.00675851 0)
(0.164982 -0.00724175 0)
(0.165987 -0.00760634 0)
(0.166922 -0.00785915 0)
(0.167781 -0.00800768 0)
(0.16856 -0.00805961 0)
(0.169248 -0.00802312 0)
(0.169844 -0.00790462 0)
(0.170314 -0.00772003 0)
(0.170773 -0.00741821 0)
(0.10912 0.100578 0)
(0.108988 0.0860899 0)
(0.107838 0.0755065 0)
(0.108754 0.0670327 0)
(0.110507 0.0599773 0)
(0.112679 0.0537537 0)
(0.11521 0.0480452 0)
(0.118059 0.0427298 0)
(0.121168 0.0377715 0)
(0.124454 0.0331695 0)
(0.127828 0.028929 0)
(0.131204 0.0250492 0)
(0.134511 0.0215214 0)
(0.137695 0.0183311 0)
(0.140721 0.0154577 0)
(0.143572 0.0128732 0)
(0.146244 0.0105433 0)
(0.14874 0.00842979 0)
(0.151072 0.00649456 0)
(0.153254 0.00470362 0)
(0.1553 0.00303113 0)
(0.157225 0.00145909 0)
(0.159043 -1.96123e-05 0)
(0.160765 -0.00140518 0)
(0.162403 -0.00269215 0)
(0.163964 -0.00387199 0)
(0.165455 -0.00493538 0)
(0.166878 -0.00587425 0)
(0.168236 -0.006683 0)
(0.169526 -0.00735905 0)
(0.170747 -0.00790292 0)
(0.171892 -0.00831773 0)
(0.172959 -0.00860867 0)
(0.173942 -0.0087822 0)
(0.174835 -0.00884544 0)
(0.175633 -0.00880538 0)
(0.176328 -0.00866947 0)
(0.176917 -0.00844113 0)
(0.177373 -0.00814012 0)
(0.177772 -0.007671 0)
(0.0985633 0.106664 0)
(0.101084 0.0870437 0)
(0.104882 0.0740876 0)
(0.108619 0.0647459 0)
(0.111734 0.057453 0)
(0.114668 0.0510566 0)
(0.117724 0.0451198 0)
(0.120996 0.0395644 0)
(0.124471 0.0344131 0)
(0.128081 0.0296981 0)
(0.131739 0.0254318 0)
(0.135361 0.021603 0)
(0.138882 0.0181851 0)
(0.142261 0.0151439 0)
(0.145474 0.0124406 0)
(0.148511 0.0100334 0)
(0.151373 0.00787797 0)
(0.154068 0.00593038 0)
(0.156603 0.00414979 0)
(0.158988 0.00250039 0)
(0.161232 0.00095674 0)
(0.163346 -0.000496849 0)
(0.165338 -0.00186869 0)
(0.167218 -0.00315777 0)
(0.168995 -0.00435701 0)
(0.170675 -0.00545584 0)
(0.172265 -0.00644271 0)
(0.173768 -0.00730717 0)
(0.175185 -0.0080414 0)
(0.176517 -0.00864097 0)
(0.17776 -0.00910499 0)
(0.178913 -0.00943572 0)
(0.17997 -0.00963789 0)
(0.180928 -0.00971773 0)
(0.181784 -0.0096822 0)
(0.182533 -0.00953777 0)
(0.183171 -0.0092913 0)
(0.183691 -0.00894282 0)
(0.184085 -0.00851745 0)
(0.184362 -0.00786645 0)
(0.0948868 0.0934773 0)
(0.100472 0.0792769 0)
(0.106301 0.0689037 0)
(0.110724 0.0609508 0)
(0.114223 0.0542076 0)
(0.117543 0.0478899 0)
(0.121005 0.0418068 0)
(0.124676 0.0360484 0)
(0.128521 0.0307364 0)
(0.132457 0.0259447 0)
(0.136394 0.0216894 0)
(0.140254 0.0179429 0)
(0.143987 0.0146562 0)
(0.147562 0.0117737 0)
(0.150967 0.00924059 0)
(0.154198 0.00700448 0)
(0.157259 0.00501587 0)
(0.160155 0.00322852 0)
(0.162887 0.00160077 0)
(0.165459 9.96847e-05 0)
(0.167878 -0.00130263 0)
(0.170145 -0.00262203 0)
(0.172265 -0.00386731 0)
(0.174246 -0.00503769 0)
(0.176096 -0.00612572 0)
(0.177822 -0.00711978 0)
(0.17943 -0.00800674 0)
(0.180925 -0.00877419 0)
(0.182309 -0.00941238 0)
(0.183586 -0.00991522 0)
(0.184753 -0.0102806 0)
(0.185811 -0.0105101 0)
(0.186759 -0.0106083 0)
(0.187594 -0.0105812 0)
(0.188318 -0.0104361 0)
(0.188927 -0.010179 0)
(0.189423 -0.00981644 0)
(0.189798 -0.009345 0)
(0.190066 -0.00879596 0)
(0.190149 -0.00796417 0)
(0.113806 0.0956018 0)
(0.112455 0.0776847 0)
(0.112757 0.0665053 0)
(0.114308 0.0581847 0)
(0.11713 0.0511149 0)
(0.120669 0.0444793 0)
(0.124614 0.0381083 0)
(0.128809 0.0321294 0)
(0.133133 0.0266924 0)
(0.137477 0.0218755 0)
(0.141752 0.0176786 0)
(0.1459 0.0140494 0)
(0.149884 0.0109144 0)
(0.15369 0.0081992 0)
(0.157312 0.00583772 0)
(0.160752 0.00377171 0)
(0.164011 0.00195082 0)
(0.167088 0.000330078 0)
(0.169983 -0.00113061 0)
(0.172692 -0.00246462 0)
(0.175215 -0.00370051 0)
(0.177552 -0.00485796 0)
(0.179708 -0.00594596 0)
(0.181688 -0.00696549 0)
(0.183501 -0.00791006 0)
(0.185156 -0.00876797 0)
(0.18666 -0.00952506 0)
(0.188021 -0.0101675 0)
(0.189244 -0.0106841 0)
(0.190335 -0.0110672 0)
(0.191296 -0.0113141 0)
(0.192131 -0.0114257 0)
(0.192843 -0.0114066 0)
(0.193435 -0.0112633 0)
(0.193912 -0.011003 0)