/*--------------------------------*- C++ -*----------------------------------*\
  =========                 |
  \\      /  F ield         | OpenFOAM: The Open Source CFD Toolbox
   \\    /   O peration     | Website:  https://openfoam.org
    \\  /    A nd           | Version:  7
     \\/     M anipulation  |
\*---------------------------------------------------------------------------*/
FoamFile
{
    version     2.0;
    format      ascii;
    class       volScalarField;
    location    "0.17";
    object      pPrime2Mean;
}
// * * * * * * * * * * * * * * * * * * * * * * * * * * * * * * * * * * * * * //

dimensions      [2 -2 -4 0 0 0 0];

internalField   nonuniform List<scalar> 
1440
(
1.53756e+06
1.52928e+06
1.52967e+06
1.52286e+06
1.52066e+06
1.51534e+06
1.51191e+06
1.50729e+06
1.5034e+06
1.49896e+06
1.49468e+06
1.49005e+06
1.48536e+06
1.4804e+06
1.47528e+06
1.46994e+06
1.46441e+06
1.45868e+06
1.45278e+06
1.44671e+06
1.4405e+06
1.43416e+06
1.4277e+06
1.42113e+06
1.41446e+06
1.40768e+06
1.40081e+06
1.39384e+06
1.38677e+06
1.3796e+06
1.37235e+06
1.365e+06
1.35756e+06
1.35004e+06
1.34242e+06
1.33471e+06
1.32691e+06
1.31902e+06
1.31102e+06
1.30293e+06
1.29475e+06
1.28647e+06
1.27809e+06
1.26963e+06
1.26107e+06
1.25243e+06
1.2437e+06
1.2349e+06
1.22601e+06
1.21705e+06
1.20801e+06
1.1989e+06
1.18973e+06
1.18048e+06
1.17118e+06
1.16181e+06
1.15239e+06
1.1429e+06
1.13335e+06
1.12374e+06
1.53782e+06
1.5296e+06
1.53007e+06
1.52319e+06
1.52091e+06
1.51549e+06
1.512e+06
1.50732e+06
1.50339e+06
1.49894e+06
1.49466e+06
1.49004e+06
1.48537e+06
1.48044e+06
1.47538e+06
1.47009e+06
1.46462e+06
1.45895e+06
1.45309e+06
1.44704e+06
1.44083e+06
1.43447e+06
1.42796e+06
1.42133e+06
1.41459e+06
1.40775e+06
1.40081e+06
1.39379e+06
1.38669e+06
1.3795e+06
1.37223e+06
1.36489e+06
1.35746e+06
1.34995e+06
1.34235e+06
1.33467e+06
1.3269e+06
1.31903e+06
1.31106e+06
1.303e+06
1.29484e+06
1.28657e+06
1.27821e+06
1.26975e+06
1.2612e+06
1.25256e+06
1.24382e+06
1.23501e+06
1.22611e+06
1.21713e+06
1.20808e+06
1.19895e+06
1.18977e+06
1.18051e+06
1.1712e+06
1.16183e+06
1.1524e+06
1.14291e+06
1.13336e+06
1.12375e+06
1.53789e+06
1.5297e+06
1.53021e+06
1.52333e+06
1.52102e+06
1.51557e+06
1.51204e+06
1.50732e+06
1.50337e+06
1.49889e+06
1.49459e+06
1.48997e+06
1.4853e+06
1.48038e+06
1.47534e+06
1.47008e+06
1.46465e+06
1.45901e+06
1.45317e+06
1.44715e+06
1.44095e+06
1.43459e+06
1.42807e+06
1.42142e+06
1.41466e+06
1.40778e+06
1.40081e+06
1.39376e+06
1.38663e+06
1.37942e+06
1.37213e+06
1.36478e+06
1.35735e+06
1.34984e+06
1.34225e+06
1.33458e+06
1.32682e+06
1.31897e+06
1.31103e+06
1.30299e+06
1.29485e+06
1.28661e+06
1.27828e+06
1.26984e+06
1.26131e+06
1.25267e+06
1.24395e+06
1.23513e+06
1.22623e+06
1.21725e+06
1.20818e+06
1.19905e+06
1.18984e+06
1.18057e+06
1.17124e+06
1.16185e+06
1.1524e+06
1.1429e+06
1.13334e+06
1.12372e+06
1.53806e+06
1.52987e+06
1.5304e+06
1.52349e+06
1.52115e+06
1.51567e+06
1.51211e+06
1.50736e+06
1.50339e+06
1.49889e+06
1.49459e+06
1.48997e+06
1.4853e+06
1.48039e+06
1.47536e+06
1.47011e+06
1.46469e+06
1.45906e+06
1.45324e+06
1.44721e+06
1.44101e+06
1.43464e+06
1.42812e+06
1.42146e+06
1.41467e+06
1.40778e+06
1.40079e+06
1.39372e+06
1.38658e+06
1.37936e+06
1.37207e+06
1.36471e+06
1.35727e+06
1.34976e+06
1.34218e+06
1.33451e+06
1.32676e+06
1.31893e+06
1.31099e+06
1.30297e+06
1.29485e+06
1.28662e+06
1.2783e+06
1.26987e+06
1.26135e+06
1.25272e+06
1.244e+06
1.23519e+06
1.22629e+06
1.2173e+06
1.20823e+06
1.19909e+06
1.18987e+06
1.18059e+06
1.17125e+06
1.16185e+06
1.1524e+06
1.14288e+06
1.13332e+06
1.1237e+06
1.53811e+06
1.52993e+06
1.53046e+06
1.52355e+06
1.5212e+06
1.51571e+06
1.51213e+06
1.50738e+06
1.50339e+06
1.49889e+06
1.49458e+06
1.48995e+06
1.48528e+06
1.48037e+06
1.47534e+06
1.4701e+06
1.46468e+06
1.45905e+06
1.45323e+06
1.44722e+06
1.44102e+06
1.43464e+06
1.42812e+06
1.42145e+06
1.41466e+06
1.40776e+06
1.40077e+06
1.3937e+06
1.38655e+06
1.37932e+06
1.37203e+06
1.36467e+06
1.35724e+06
1.34974e+06
1.34215e+06
1.33449e+06
1.32675e+06
1.31892e+06
1.31099e+06
1.30297e+06
1.29486e+06
1.28664e+06
1.27832e+06
1.2699e+06
1.26138e+06
1.25276e+06
1.24404e+06
1.23522e+06
1.22632e+06
1.21733e+06
1.20826e+06
1.19911e+06
1.18989e+06
1.18061e+06
1.17126e+06
1.16185e+06
1.15239e+06
1.14288e+06
1.13331e+06
1.12369e+06
1.53816e+06
1.52998e+06
1.53052e+06
1.5236e+06
1.52125e+06
1.51574e+06
1.51216e+06
1.5074e+06
1.5034e+06
1.49889e+06
1.49458e+06
1.48995e+06
1.48528e+06
1.48038e+06
1.47535e+06
1.4701e+06
1.46469e+06
1.45906e+06
1.45324e+06
1.44722e+06
1.44102e+06
1.43465e+06
1.42812e+06
1.42145e+06
1.41466e+06
1.40776e+06
1.40076e+06
1.39368e+06
1.38653e+06
1.37931e+06
1.37201e+06
1.36465e+06
1.35722e+06
1.34972e+06
1.34214e+06
1.33448e+06
1.32674e+06
1.31891e+06
1.31099e+06
1.30297e+06
1.29486e+06
1.28664e+06
1.27833e+06
1.26991e+06
1.26139e+06
1.25277e+06
1.24405e+06
1.23523e+06
1.22633e+06
1.21733e+06
1.20826e+06
1.19911e+06
1.18989e+06
1.18061e+06
1.17126e+06
1.16185e+06
1.15239e+06
1.14287e+06
1.1333e+06
1.12368e+06
1.53816e+06
1.52998e+06
1.53052e+06
1.5236e+06
1.52125e+06
1.51574e+06
1.51216e+06
1.5074e+06
1.5034e+06
1.49889e+06
1.49458e+06
1.48995e+06
1.48528e+06
1.48038e+06
1.47535e+06
1.4701e+06
1.46469e+06
1.45906e+06
1.45324e+06
1.44722e+06
1.44102e+06
1.43465e+06
1.42812e+06
1.42145e+06
1.41466e+06
1.40776e+06
1.40076e+06
1.39368e+06
1.38653e+06
1.37931e+06
1.37201e+06
1.36465e+06
1.35722e+06
1.34972e+06
1.34214e+06
1.33448e+06
1.32674e+06
1.31891e+06
1.31099e+06
1.30297e+06
1.29486e+06
1.28664e+06
1.27833e+06
1.26991e+06
1.26139e+06
1.25277e+06
1.24405e+06
1.23523e+06
1.22633e+06
1.21733e+06
1.20826e+06
1.19911e+06
1.18989e+06
1.18061e+06
1.17126e+06
1.16185e+06
1.15239e+06
1.14287e+06
1.1333e+06
1.12368e+06
1.53811e+06
1.52993e+06
1.53046e+06
1.52355e+06
1.5212e+06
1.51571e+06
1.51213e+06
1.50738e+06
1.50339e+06
1.49889e+06
1.49458e+06
1.48995e+06
1.48528e+06
1.48037e+06
1.47534e+06
1.4701e+06
1.46468e+06
1.45905e+06
1.45323e+06
1.44722e+06
1.44102e+06
1.43464e+06
1.42812e+06
1.42145e+06
1.41466e+06
1.40776e+06
1.40077e+06
1.3937e+06
1.38655e+06
1.37932e+06
1.37203e+06
1.36467e+06
1.35724e+06
1.34974e+06
1.34215e+06
1.33449e+06
1.32675e+06
1.31892e+06
1.31099e+06
1.30297e+06
1.29486e+06
1.28664e+06
1.27832e+06
1.2699e+06
1.26138e+06
1.25276e+06
1.24404e+06
1.23522e+06
1.22632e+06
1.21733e+06
1.20826e+06
1.19911e+06
1.18989e+06
1.18061e+06
1.17126e+06
1.16185e+06
1.15239e+06
1.14288e+06
1.13331e+06
1.12369e+06
1.53806e+06
1.52987e+06
1.5304e+06
1.52349e+06
1.52115e+06
1.51567e+06
1.51211e+06
1.50736e+06
1.50339e+06
1.49889e+06
1.49459e+06
1.48997e+06
1.4853e+06
1.48039e+06
1.47536e+06
1.47011e+06
1.46469e+06
1.45906e+06
1.45324e+06
1.44721e+06
1.44101e+06
1.43464e+06
1.42812e+06
1.42146e+06
1.41467e+06
1.40778e+06
1.40079e+06
1.39372e+06
1.38658e+06
1.37936e+06
1.37207e+06
1.36471e+06
1.35727e+06
1.34976e+06
1.34218e+06
1.33451e+06
1.32676e+06
1.31893e+06
1.31099e+06
1.30297e+06
1.29485e+06
1.28662e+06
1.2783e+06
1.26987e+06
1.26135e+06
1.25272e+06
1.244e+06
1.23519e+06
1.22629e+06
1.2173e+06
1.20823e+06
1.19909e+06
1.18987e+06
1.1806e+06
1.17125e+06
1.16185e+06
1.15239e+06
1.14288e+06
1.13332e+06
1.1237e+06
1.53789e+06
1.5297e+06
1.53021e+06
1.52333e+06
1.52102e+06
1.51557e+06
1.51204e+06
1.50732e+06
1.50337e+06
1.49889e+06
1.49459e+06
1.48997e+06
1.4853e+06
1.48038e+06
1.47534e+06
1.47008e+06
1.46465e+06
1.45901e+06
1.45317e+06
1.44715e+06
1.44095e+06
1.43459e+06
1.42807e+06
1.42142e+06
1.41466e+06
1.40778e+06
1.40081e+06
1.39376e+06
1.38663e+06
1.37942e+06
1.37213e+06
1.36478e+06
1.35735e+06
1.34984e+06
1.34225e+06
1.33458e+06
1.32682e+06
1.31897e+06
1.31103e+06
1.30299e+06
1.29485e+06
1.28661e+06
1.27828e+06
1.26984e+06
1.26131e+06
1.25267e+06
1.24395e+06
1.23513e+06
1.22623e+06
1.21725e+06
1.20818e+06
1.19905e+06
1.18984e+06
1.18057e+06
1.17124e+06
1.16185e+06
1.1524e+06
1.1429e+06
1.13334e+06
1.12372e+06
1.53782e+06
1.5296e+06
1.53007e+06
1.52319e+06
1.52091e+06
1.51549e+06
1.512e+06
1.50732e+06
1.50339e+06
1.49894e+06
1.49466e+06
1.49004e+06
1.48537e+06
1.48044e+06
1.47538e+06
1.47009e+06
1.46462e+06
1.45895e+06
1.45309e+06
1.44704e+06
1.44083e+06
1.43447e+06
1.42796e+06
1.42133e+06
1.41459e+06
1.40775e+06
1.40081e+06
1.39379e+06
1.38669e+06
1.3795e+06
1.37223e+06
1.36489e+06
1.35746e+06
1.34995e+06
1.34235e+06
1.33467e+06
1.3269e+06
1.31903e+06
1.31106e+06
1.303e+06
1.29484e+06
1.28657e+06
1.27821e+06
1.26975e+06
1.2612e+06
1.25256e+06
1.24382e+06
1.23501e+06
1.22611e+06
1.21713e+06
1.20808e+06
1.19896e+06
1.18977e+06
1.18051e+06
1.1712e+06
1.16183e+06
1.1524e+06
1.14291e+06
1.13336e+06
1.12376e+06
1.53756e+06
1.52928e+06
1.52967e+06
1.52286e+06
1.52066e+06
1.51534e+06
1.51191e+06
1.50729e+06
1.5034e+06
1.49896e+06
1.49468e+06
1.49005e+06
1.48536e+06
1.4804e+06
1.47528e+06
1.46994e+06
1.46441e+06
1.45868e+06
1.45278e+06
1.44671e+06
1.4405e+06
1.43416e+06
1.4277e+06
1.42113e+06
1.41446e+06
1.40768e+06
1.40081e+06
1.39384e+06
1.38677e+06
1.3796e+06
1.37235e+06
1.365e+06
1.35756e+06
1.35004e+06
1.34242e+06
1.33471e+06
1.32691e+06
1.31902e+06
1.31102e+06
1.30293e+06
1.29475e+06
1.28647e+06
1.27809e+06
1.26963e+06
1.26107e+06
1.25243e+06
1.2437e+06
1.2349e+06
1.22601e+06
1.21705e+06
1.20801e+06
1.1989e+06
1.18972e+06
1.18048e+06
1.17118e+06
1.16181e+06
1.15238e+06
1.1429e+06
1.13335e+06
1.12374e+06
1.11407e+06
1.10435e+06
1.09459e+06
1.08478e+06
1.07491e+06
1.06499e+06
1.05502e+06
1.04498e+06
1.03489e+06
1.02474e+06
1.01454e+06
1.0043e+06
994007
983674
973297
962880
952422
941925
931396
920831
910234
899609
888955
878271
867564
856829
846066
835282
824474
813645
802795
791923
781039
770138
759221
748293
737354
726398
715437
704465
693488
682501
671518
660524
649539
638540
627559
616555
605578
594566
583596
572565
561588
550520
539527
528397
517358
506177
494975
483980
1.11409e+06
1.10437e+06
1.09461e+06
1.08479e+06
1.07491e+06
1.06499e+06
1.05501e+06
1.04497e+06
1.03487e+06
1.02473e+06
1.01453e+06
1.00429e+06
993996
983663
973285
962867
952408
941911
931381
920816
910219
899593
888937
878252
867542
856805
846042
835258
824450
813622
802772
791902
781019
770119
759204
748277
737338
726383
715423
704451
693475
682489
671506
660512
649527
638528
627547
616542
605563
594552
583581
572550
561573
550505
539514
528383
517349
506166
494988
483981
1.11406e+06
1.10434e+06
1.09457e+06
1.08475e+06
1.07487e+06
1.06495e+06
1.05497e+06
1.04494e+06
1.03485e+06
1.02472e+06
1.01453e+06
1.0043e+06
994014
983685
973311
962894
952436
941938
931404
920835
910233
899600
888937
878247
867530
856788
846022
835235
824426
813596
802748
791882
781000
770102
759191
748266
737329
726379
715421
704452
693478
682494
671511
660517
649531
638530
627547
616542
605564
594550
583577
572546
561569
550499
539507
528376
517342
506161
494989
483974
1.11403e+06
1.10431e+06
1.09453e+06
1.08471e+06
1.07484e+06
1.06492e+06
1.05494e+06
1.04492e+06
1.03484e+06
1.02471e+06
1.01453e+06
1.0043e+06
994022
983698
973327
962912
952455
941957
931422
920850
910245
899608
888941
878246
867525
856779
846010
835219
824408
813577
802729
791862
780982
770085
759176
748253
737319
726371
715416
704449
693478
682495
671515
660521
649537
638536
627553
616547
605568
594553
583579
572545
561567
550496
539504
528371
517340
506155
494991
483969
1.11402e+06
1.10429e+06
1.09452e+06
1.0847e+06
1.07483e+06
1.06491e+06
1.05493e+06
1.04491e+06
1.03484e+06
1.02471e+06
1.01453e+06
1.00431e+06
994031
983708
973339
962924
952467
941969
931432
920859
910252
899613
888943
878246
867522
856774
846003
835211
824399
813568
802720
791854
780974
770079
759171
748248
737316
726370
715417
704450
693481
682499
671519
660526
649541
638540
627557
616550
605571
594556
583580
572546
561567
550495
539502
528369
517337
506152
494989
483963
1.11401e+06
1.10429e+06
1.09452e+06
1.08469e+06
1.07482e+06
1.0649e+06
1.05493e+06
1.04491e+06
1.03483e+06
1.02471e+06
1.01453e+06
1.00431e+06
994034
983711
973342
962928
952470
941972
931435
920861
910252
899612
888941
878243
867518
856770
845998
835205
824393
813562
802714
791849
780970
770075
759167
748246
737314
726368
715416
704450
693481
682500
671520
660527
649542
638541
627557
616550
605571
594555
583579
572544
561566
550493
539500
528366
517336
506149
494989
483960
1.11401e+06
1.10429e+06
1.09452e+06
1.08469e+06
1.07482e+06
1.0649e+06
1.05493e+06
1.04491e+06
1.03483e+06
1.02471e+06
1.01453e+06
1.00431e+06
994033
983711
973341
962927
952470
941972
931435
920861
910253
899612
888941
878243
867518
856769
845998
835205
824393
813561
802714
791849
780969
770074
759167
748245
737314
726368
715416
704450
693481
682500
671520
660527
649542
638541
627557
616550
605570
594555
583579
572544
561565
550493
539499
528366
517335
506149
494988
483960
1.11402e+06
1.10429e+06
1.09452e+06
1.0847e+06
1.07483e+06
1.0649e+06
1.05493e+06
1.04491e+06
1.03483e+06
1.0247e+06
1.01453e+06
1.0043e+06
994027
983704
973334
962920
952463
941966
931430
920857
910250
899610
888940
878243
867519
856770
845999
835207
824395
813564
802715
791850
780970
770075
759167
748245
737312
726366
715413
704447
693478
682496
671516
660523
649539
638538
627554
616548
605568
594553
583577
572543
561564
550492
539498
528365
517334
506148
494985
483959
1.11403e+06
1.10431e+06
1.09453e+06
1.08471e+06
1.07483e+06
1.06491e+06
1.05493e+06
1.0449e+06
1.03483e+06
1.0247e+06
1.01452e+06
1.00429e+06
994012
983687
973316
962902
952446
941950
931416
920846
910240
899603
888935
878239
867517
856771
846001
835210
824398
813568
802720
791854
780974
770077
759168
748245
737311
726364
715409
704442
693472
682489
671509
660516
649531
638530
627547
616541
605563
594548
583573
572540
561561
550490
539497
528365
517333
506149
494984
483963
1.11406e+06
1.10434e+06
1.09456e+06
1.08474e+06
1.07486e+06
1.06493e+06
1.05495e+06
1.04491e+06
1.03483e+06
1.02469e+06
1.01451e+06
1.00427e+06
993988
983658
973285
962869
952413
941918
931387
920820
910218
899585
888922
878230
867512
856770
846004
835215
824405
813576
802729
791862
780981
770084
759173
748247
737311
726361
715404
704435
693462
682478
671497
660503
649517
638517
627534
616529
605551
594538
583564
572533
561555
550486
539493
528363
517328
506147
494974
483961
1.11409e+06
1.10437e+06
1.0946e+06
1.08477e+06
1.07488e+06
1.06494e+06
1.05495e+06
1.04491e+06
1.03481e+06
1.02467e+06
1.01447e+06
1.00423e+06
993938
983601
973225
962809
952355
941864
931340
920780
910185
899559
888900
878213
867502
856764
846003
835216
824406
813578
802731
791863
780980
770080
759166
748238
737300
726345
715387
704416
693441
682456
671474
660481
649496
638496
627516
616513
605536
594523
583552
572522
561544
550475
539485
528356
517321
506140
494959
483957
1.11408e+06
1.10435e+06
1.09457e+06
1.08474e+06
1.07485e+06
1.0649e+06
1.0549e+06
1.04486e+06
1.03476e+06
1.02461e+06
1.01442e+06
1.00417e+06
993882
983547
973173
962759
952307
941819
931296
920739
910146
899523
888867
878181
867471
856735
845974
835189
824379
813552
802705
791835
780953
770053
759138
748210
737271
726316
715357
704386
693411
682426
671444
660452
649468
638469
627489
616488
605512
594500
583530
572501
561524
550455
539463
528335
517296
506117
494913
483925
)
;

boundaryField
{
    upperWall
    {
        type            calculated;
        value           nonuniform List<scalar> 
120
(
1.53756e+06
1.52928e+06
1.52967e+06
1.52286e+06
1.52066e+06
1.51534e+06
1.51191e+06
1.50729e+06
1.5034e+06
1.49896e+06
1.49468e+06
1.49005e+06
1.48536e+06
1.4804e+06
1.47528e+06
1.46994e+06
1.46441e+06
1.45868e+06
1.45278e+06
1.44671e+06
1.4405e+06
1.43416e+06
1.4277e+06
1.42113e+06
1.41446e+06
1.40768e+06
1.40081e+06
1.39384e+06
1.38677e+06
1.3796e+06
1.37235e+06
1.365e+06
1.35756e+06
1.35004e+06
1.34242e+06
1.33471e+06
1.32691e+06
1.31902e+06
1.31102e+06
1.30293e+06
1.29475e+06
1.28647e+06
1.27809e+06
1.26963e+06
1.26107e+06
1.25243e+06
1.2437e+06
1.2349e+06
1.22601e+06
1.21705e+06
1.20801e+06
1.1989e+06
1.18972e+06
1.18048e+06
1.17118e+06
1.16181e+06
1.15238e+06
1.1429e+06
1.13335e+06
1.12374e+06
1.11408e+06
1.10435e+06
1.09457e+06
1.08474e+06
1.07485e+06
1.0649e+06
1.0549e+06
1.04486e+06
1.03476e+06
1.02461e+06
1.01442e+06
1.00417e+06
993882
983547
973173
962759
952307
941819
931296
920739
910146
899523
888867
878181
867471
856735
845974
835189
824379
813552
802705
791835
780953
770053
759138
748210
737271
726316
715357
704386
693411
682426
671444
660452
649468
638469
627489
616488
605512
594500
583530
572501
561524
550455
539463
528335
517296
506117
494913
483925
)
;
    }
    lowerWall
    {
        type            calculated;
        value           nonuniform List<scalar> 
60
(
1.53756e+06
1.52928e+06
1.52967e+06
1.52286e+06
1.52066e+06
1.51534e+06
1.51191e+06
1.50729e+06
1.5034e+06
1.49896e+06
1.49468e+06
1.49005e+06
1.48536e+06
1.4804e+06
1.47528e+06
1.46994e+06
1.46441e+06
1.45868e+06
1.45278e+06
1.44671e+06
1.4405e+06
1.43416e+06
1.4277e+06
1.42113e+06
1.41446e+06
1.40768e+06
1.40081e+06
1.39384e+06
1.38677e+06
1.3796e+06
1.37235e+06
1.365e+06
1.35756e+06
1.35004e+06
1.34242e+06
1.33471e+06
1.32691e+06
1.31902e+06
1.31102e+06
1.30293e+06
1.29475e+06
1.28647e+06
1.27809e+06
1.26963e+06
1.26107e+06
1.25243e+06
1.2437e+06
1.2349e+06
1.22601e+06
1.21705e+06
1.20801e+06
1.1989e+06
1.18973e+06
1.18048e+06
1.17118e+06
1.16181e+06
1.15239e+06
1.1429e+06
1.13335e+06
1.12374e+06
)
;
    }
    heatedWall
    {
        type            calculated;
        value           nonuniform List<scalar> 
60
(
1.11407e+06
1.10435e+06
1.09459e+06
1.08478e+06
1.07491e+06
1.06499e+06
1.05502e+06
1.04498e+06
1.03489e+06
1.02474e+06
1.01454e+06
1.0043e+06
994007
983674
973297
962880
952422
941925
931396
920831
910234
899609
888955
878271
867564
856829
846066
835282
824474
813645
802795
791923
781039
770138
759221
748293
737354
726398
715437
704465
693488
682501
671518
660524
649539
638540
627559
616555
605578
594566
583596
572565
561588
550520
539527
528397
517358
506177
494975
483980
)
;
    }
    inlet
    {
        type            calculated;
        value           nonuniform List<scalar> 
12
(
1.53756e+06
1.53782e+06
1.53789e+06
1.53806e+06
1.53811e+06
1.53816e+06
1.53816e+06
1.53811e+06
1.53806e+06
1.53789e+06
1.53782e+06
1.53756e+06
)
;
    }
    outlet
    {
        type            calculated;
        value           nonuniform List<scalar> 
12
(
477930
477929
477922
477918
477911
477909
477909
477908
477912
477910
477906
477877
)
;
    }
    frontAndBack
    {
        type            empty;
    }
}


// ************************************************************************* //
