/*--------------------------------*- C++ -*----------------------------------*\
  =========                 |
  \\      /  F ield         | OpenFOAM: The Open Source CFD Toolbox
   \\    /   O peration     | Website:  https://openfoam.org
    \\  /    A nd           | Version:  7
     \\/     M anipulation  |
\*---------------------------------------------------------------------------*/
FoamFile
{
    version     2.0;
    format      ascii;
    class       surfaceScalarField;
    location    "0.38";
    object      phi;
}
// * * * * * * * * * * * * * * * * * * * * * * * * * * * * * * * * * * * * * //

dimensions      [1 0 -1 0 0 0 0];

internalField   nonuniform List<scalar> 
11256
(
0.00282006
0.00402489
0.00167599
0.00116617
0.00140538
0.00028357
0.00125012
0.000159682
0.00114587
0.000106028
0.00108226
6.6857e-05
0.00103658
5.23722e-05
0.000994316
5.33997e-05
0.000954212
5.63207e-05
0.000918834
5.70042e-05
0.000888565
5.71096e-05
0.000862231
5.77467e-05
0.000838745
5.86464e-05
0.000817183
5.95632e-05
0.000796568
6.04687e-05
0.000776165
6.11749e-05
0.00075614
6.10291e-05
0.000737507
5.95848e-05
0.000721165
5.71547e-05
0.000707356
5.4553e-05
0.000695685
5.24296e-05
0.000685468
5.10285e-05
0.000676052
5.02712e-05
0.000666978
4.99459e-05
0.00065799
4.98515e-05
0.00064899
4.98459e-05
0.000639976
4.98464e-05
0.000630987
4.98186e-05
0.000622074
4.97528e-05
0.000613273
4.96608e-05
0.000604601
4.95601e-05
0.000596066
4.94602e-05
0.000587664
4.93685e-05
0.000579389
4.92859e-05
0.000571237
4.92111e-05
0.000563204
4.91437e-05
0.000555287
4.90819e-05
0.000547487
4.90224e-05
0.000539805
4.89631e-05
0.000532242
4.89054e-05
0.0005248
4.88483e-05
0.00051748
4.87908e-05
0.000510284
4.87329e-05
0.000503215
4.86749e-05
0.000496272
4.86193e-05
0.000489459
4.85625e-05
0.000482776
4.85057e-05
0.000476224
4.84492e-05
0.000469808
4.83928e-05
0.000463524
4.8338e-05
0.000457376
4.82822e-05
0.000451365
4.82262e-05
0.000445494
4.81709e-05
0.00043976
4.8117e-05
0.000434169
4.8061e-05
0.000428717
4.8007e-05
0.00042341
4.79528e-05
0.000418246
4.78974e-05
0.000413225
4.78451e-05
0.00040835
4.77916e-05
0.000403621
4.77365e-05
0.000399039
4.76827e-05
0.000394605
4.76302e-05
0.000390318
4.75772e-05
0.00038618
4.75235e-05
0.000382191
4.74703e-05
0.000378352
4.74177e-05
0.000374662
4.73654e-05
0.000371122
4.73128e-05
0.000367733
4.72596e-05
0.000364494
4.72067e-05
0.000361406
4.71551e-05
0.000358469
4.71023e-05
0.000355682
4.70502e-05
0.000353046
4.69972e-05
0.000350559
4.69448e-05
0.000348223
4.68937e-05
0.000346039
4.6838e-05
0.000344005
4.67848e-05
0.000342117
4.67359e-05
0.000340376
4.66845e-05
0.000338783
4.66313e-05
0.000337339
4.65783e-05
0.000336041
4.65262e-05
0.000334888
4.64738e-05
0.00033388
4.6421e-05
0.000333016
4.63681e-05
0.000332295
4.63149e-05
0.000331716
4.62619e-05
0.000331278
4.6209e-05
0.00033098
4.61556e-05
0.00033082
4.61019e-05
0.000330798
4.60479e-05
0.000330913
4.59934e-05
0.000331162
4.59385e-05
0.000331546
4.58833e-05
0.000332063
4.58282e-05
0.000332709
4.57735e-05
0.000333484
4.57184e-05
0.000334388
4.56622e-05
0.000335418
4.56055e-05
0.000336573
4.55483e-05
0.000337851
4.54908e-05
0.00033925
4.5433e-05
0.000340768
4.53747e-05
0.000342404
4.53158e-05
0.000344157
4.52566e-05
0.000346023
4.51972e-05
0.000348001
4.51367e-05
0.00035009
4.50755e-05
0.000352288
4.50139e-05
0.000354591
4.49516e-05
0.000357001
4.4887e-05
0.000359513
4.48226e-05
0.000362123
4.47611e-05
0.000364831
4.46968e-05
0.000367636
4.46293e-05
0.000370536
4.45616e-05
0.000373529
4.44933e-05
0.000376611
4.44244e-05
0.000379781
4.43556e-05
0.000383035
4.42857e-05
0.000386374
4.42139e-05
0.000389793
4.41418e-05
0.000393291
4.40689e-05
0.000396865
4.39942e-05
0.000400515
4.39178e-05
0.000404238
4.3841e-05
0.000408029
4.37645e-05
0.000411887
4.36865e-05
0.00041581
4.36071e-05
0.000419796
4.3526e-05
0.000423844
4.34433e-05
0.00042795
4.33595e-05
0.000432112
4.32748e-05
0.000436327
4.31893e-05
0.000440594
4.31024e-05
0.00044491
4.30145e-05
0.000449273
4.29247e-05
0.00045368
4.28335e-05
0.000458129
4.27417e-05
0.000462618
4.26481e-05
0.000467145
4.25527e-05
0.000471706
4.24566e-05
0.000476299
4.23593e-05
0.000480923
4.22594e-05
0.000485577
4.21576e-05
0.000490257
4.20552e-05
0.000494961
4.19512e-05
0.000499686
4.18462e-05
0.000504431
4.17395e-05
0.000509192
4.16311e-05
0.000513969
4.15213e-05
0.00051876
4.14095e-05
0.000523562
4.12951e-05
0.000528372
4.11815e-05
0.000533186
4.10669e-05
0.000538006
4.0949e-05
0.000542828
4.08288e-05
0.000547651
4.07078e-05
0.000552472
4.0585e-05
0.000557288
4.04619e-05
0.000562098
4.03363e-05
0.0005669
4.0209e-05
0.000571694
4.00799e-05
0.000576477
3.99482e-05
0.000581245
3.98166e-05
0.000585997
3.96841e-05
0.000590731
3.95502e-05
0.000595446
3.9414e-05
0.000600139
3.92752e-05
0.00060481
3.91341e-05
0.000609457
3.89922e-05
0.000614078
3.88499e-05
0.00061867
3.87066e-05
0.000623232
3.85608e-05
0.000627762
3.84127e-05
0.000632259
3.82636e-05
0.000636722
3.81137e-05
0.000641149
3.79618e-05
0.000645538
3.78085e-05
0.000649887
3.76547e-05
0.000654196
3.74977e-05
0.000658464
3.73391e-05
0.000662687
3.71822e-05
0.000666866
3.70222e-05
0.000670999
3.68595e-05
0.000675084
3.66971e-05
0.000679121
3.65339e-05
0.000683107
3.63693e-05
0.000687042
3.62023e-05
0.000690925
3.60341e-05
0.000694755
3.58652e-05
0.000698529
3.56958e-05
0.000702249
3.55252e-05
0.000705911
3.53533e-05
0.000709516
3.51801e-05
0.000713061
3.50061e-05
0.000716548
3.48313e-05
0.000719974
3.46552e-05
0.000723339
3.44782e-05
0.000726642
3.43006e-05
0.000729881
3.41228e-05
0.000733056
3.39439e-05
0.000736167
3.37636e-05
0.000739213
3.3583e-05
0.000742193
3.34027e-05
0.000745106
3.32204e-05
0.000747953
3.30367e-05
0.000750731
3.2854e-05
0.000753441
3.26712e-05
0.000756082
3.24863e-05
0.000758654
3.23024e-05
0.000761155
3.21189e-05
0.000763587
3.19331e-05
0.000765947
3.17474e-05
0.000768237
3.15633e-05
0.000770456
3.13766e-05
0.000772602
3.11915e-05
0.000774678
3.10045e-05
0.000776679
3.08218e-05
0.000778611
3.06318e-05
0.000780464
3.04527e-05
0.000782254
3.02562e-05
0.000783956
3.00893e-05
0.000785608
2.98754e-05
0.000787151
2.97394e-05
0.000788669
2.94761e-05
0.000790057
2.94145e-05
0.000791405
2.90622e-05
0.000792733
2.9088e-05
0.000793714
2.87059e-05
0.000795254
2.86602e-05
0.000795709
2.84445e-05
0.000797036
2.82345e-05
0.000797879
2.89346e-05
0.00079781
2.52082e-05
0.000800003
3.40989e-05
0.000798472
2.01811e-05
2.74344e-05
0.00544075
0.00542863
0.00429789
0.00233154
0.00380281
0.000794378
0.00344932
0.000519686
0.00319698
0.000359413
0.00303543
0.000228164
0.00292356
0.000165609
0.00283026
0.000151429
0.00274699
0.000148768
0.0026753
0.000142906
0.00261576
0.000135964
0.00256634
0.000131191
0.00252431
0.000128812
0.00248733
0.000128134
0.00245366
0.000128245
0.00242268
0.00012755
0.00239492
0.000124221
0.00237154
0.00011759
0.00235332
0.000108935
0.00233985
0.000100645
0.00232999
9.43021e-05
0.00232243
9.02154e-05
0.00231613
8.79388e-05
0.00231039
8.68064e-05
0.00230481
8.62725e-05
0.0022992
8.59829e-05
0.0022935
8.57413e-05
0.00228773
8.54585e-05
0.00228193
8.51073e-05
0.00227614
8.47055e-05
0.00227039
8.4278e-05
0.00226471
8.38475e-05
0.0022591
8.34314e-05
0.00225356
8.30318e-05
0.00224811
8.26496e-05
0.00224272
8.2286e-05
0.00223741
8.19366e-05
0.00223218
8.15945e-05
0.00222703
8.12564e-05
0.00222195
8.09244e-05
0.00221697
8.05945e-05
0.00221207
8.02675e-05
0.00220728
7.99404e-05
0.00220258
7.96152e-05
0.00219798
7.92983e-05
0.00219349
7.89796e-05
0.00218911
7.86634e-05
0.00218484
7.83489e-05
0.0021807
7.80362e-05
0.00217668
7.77305e-05
0.00217278
7.74241e-05
0.00216901
7.71182e-05
0.00216538
7.68168e-05
0.00216188
7.65198e-05
0.00215852
7.62215e-05
0.0021553
7.59282e-05
0.00215223
7.56365e-05
0.0021493
7.53449e-05
0.00214653
7.50621e-05
0.00214391
7.47788e-05
0.00214145
7.44939e-05
0.00213915
7.42134e-05
0.00213701
7.3938e-05
0.00213503
7.36648e-05
0.00213322
7.33921e-05
0.00213157
7.31219e-05
0.0021301
7.28552e-05
0.0021288
7.25916e-05
0.00212767
7.23296e-05
0.00212672
7.20686e-05
0.00212595
7.1812e-05
0.00212535
7.15594e-05
0.00212493
7.13056e-05
0.0021247
7.10559e-05
0.00212465
7.08075e-05
0.00212478
7.05631e-05
0.00212509
7.03223e-05
0.00212559
7.00755e-05
0.00212628
6.98386e-05
0.00212715
6.96118e-05
0.0021282
6.9381e-05
0.00212945
6.91488e-05
0.00213088
6.89203e-05
0.0021325
6.86967e-05
0.0021343
6.84749e-05
0.00213629
6.82549e-05
0.00213847
6.80371e-05
0.00214083
6.78216e-05
0.00214338
6.76096e-05
0.00214612
6.74001e-05
0.00214904
6.71923e-05
0.00215214
6.69867e-05
0.00215543
6.67829e-05
0.0021589
6.65805e-05
0.00216256
6.63804e-05
0.00216639
6.61831e-05
0.00217041
6.59894e-05
0.0021746
6.57995e-05
0.00217897
6.56107e-05
0.00218352
6.54223e-05
0.00218824
6.52357e-05
0.00219313
6.50508e-05
0.0021982
6.48684e-05
0.00220343
6.46887e-05
0.00220884
6.45108e-05
0.00221441
6.43346e-05
0.00222015
6.41608e-05
0.00222605
6.39897e-05
0.00223211
6.38189e-05
0.00223833
6.36493e-05
0.0022447
6.34828e-05
0.00225123
6.33176e-05
0.00225792
6.31486e-05
0.00226475
6.29865e-05
0.00227173
6.28345e-05
0.00227886
6.26759e-05
0.00228613
6.2514e-05
0.00229354
6.23557e-05
0.00230109
6.2199e-05
0.00230877
6.20447e-05
0.00231659
6.18938e-05
0.00232453
6.17431e-05
0.00233261
6.15917e-05
0.0023408
6.14431e-05
0.00234912
6.12952e-05
0.00235756
6.11467e-05
0.00236612
6.09981e-05
0.00237479
6.08521e-05
0.00238356
6.07095e-05
0.00239245
6.05673e-05
0.00240143
6.04248e-05
0.00241052
6.02812e-05
0.00241971
6.01372e-05
0.00242899
5.99944e-05
0.00243836
5.98531e-05
0.00244782
5.97131e-05
0.00245736
5.95731e-05
0.00246699
5.94342e-05
0.0024767
5.92939e-05
0.00248647
5.91539e-05
0.00249632
5.90163e-05
0.00250624
5.88766e-05
0.00251623
5.87367e-05
0.00252627
5.85992e-05
0.00253637
5.84612e-05
0.00254653
5.83203e-05
0.00255673
5.81786e-05
0.00256699
5.80381e-05
0.00257729
5.78978e-05
0.00258763
5.77588e-05
0.002598
5.76181e-05
0.00260841
5.74764e-05
0.00261885
5.73349e-05
0.00262932
5.71904e-05
0.00263981
5.70451e-05
0.00265032
5.69048e-05
0.00266084
5.67641e-05
0.00267138
5.66184e-05
0.00268193
5.64706e-05
0.00269248
5.63229e-05
0.00270303
5.61759e-05
0.00271358
5.60304e-05
0.00272413
5.58808e-05
0.00273466
5.57304e-05
0.00274519
5.55778e-05
0.0027557
5.5423e-05
0.00276619
5.52711e-05
0.00277666
5.51197e-05
0.0027871
5.49666e-05
0.00279751
5.48103e-05
0.00280789
5.46502e-05
0.00281824
5.44887e-05
0.00282854
5.43283e-05
0.00283881
5.41676e-05
0.00284902
5.40061e-05
0.00285919
5.38416e-05
0.0028693
5.36747e-05
0.00287936
5.35073e-05
0.00288935
5.33391e-05
0.00289929
5.31687e-05
0.00290916
5.29967e-05
0.00291896
5.28244e-05
0.00292869
5.26486e-05
0.00293834
5.24704e-05
0.00294792
5.22949e-05
0.00295742
5.2116e-05
0.00296683
5.1933e-05
0.00297616
5.17502e-05
0.0029854
5.15676e-05
0.00299454
5.13825e-05
0.00300359
5.11935e-05
0.00301254
5.10023e-05
0.0030214
5.08114e-05
0.00303015
5.06198e-05
0.00303879
5.04256e-05
0.00304733
5.02296e-05
0.00305575
5.0032e-05
0.00306406
4.98322e-05
0.00307226
4.96306e-05
0.00308034
4.94271e-05
0.0030883
4.92224e-05
0.00309614
4.90167e-05
0.00310385
4.881e-05
0.00311143
4.86008e-05
0.00311889
4.83894e-05
0.00312622
4.8177e-05
0.00313341
4.79632e-05
0.00314047
4.77461e-05
0.00314739
4.75274e-05
0.00315418
4.73091e-05
0.00316082
4.70892e-05
0.00316732
4.6866e-05
0.00317368
4.66433e-05
0.00317989
4.64202e-05
0.00318595
4.61932e-05
0.00319187
4.59643e-05
0.00319764
4.57376e-05
0.00320325
4.55065e-05
0.00320872
4.52759e-05
0.00321402
4.50415e-05
0.00321918
4.48139e-05
0.00322417
4.45724e-05
0.00322901
4.43481e-05
0.00323369
4.40942e-05
0.0032382
4.38873e-05
0.00324256
4.36059e-05
0.00324675
4.34441e-05
0.00325077
4.30763e-05
0.00325464
4.30512e-05
0.00325828
4.25081e-05
0.00326194
4.2642e-05
0.00326493
4.21638e-05
0.00326879
4.1689e-05
0.00327073
4.26782e-05
0.00327444
4.00295e-05
0.00327671
4.45909e-05
0.00327725
3.59581e-05
0.00328231
5.07904e-05
0.00328112
3.11543e-05
3.99e-05
0.00680282
0.00546973
0.00615317
0.00300411
0.00571436
0.0012527
0.00530335
0.000942481
0.00497248
0.000695231
0.00474694
0.000454722
0.00458867
0.000324231
0.00446035
0.000282126
0.00434843
0.000266967
0.00425246
0.000250179
0.00417294
0.000232269
0.00410771
0.000218486
0.0040533
0.000210219
0.0040067
0.000206437
0.00396615
0.000204793
0.00393143
0.000201368
0.00390342
0.000192665
0.00388286
0.00017819
0.00386959
0.000160903
0.00386238
0.000145145
0.0038595
0.000133545
0.0038593
0.000126408
0.00386058
0.000122641
0.00386261
0.000120894
0.00386492
0.000120159
0.00386728
0.000119831
0.00386955
0.000119597
0.00387169
0.000119306
0.00387372
0.000118925
0.00387564
0.000118474
0.00387749
0.000117972
0.00387931
0.000117456
0.0038811
0.00011695
0.00388288
0.000116458
0.00388465
0.000115984
0.00388641
0.000115529
0.00388817
0.000115089
0.00388993
0.000114652
0.00389169
0.000114215
0.00389346
0.000113781
0.00389525
0.000113342
0.00389705
0.000112902
0.00389888
0.000112453
0.00390074
0.000112001
0.00390263
0.000111556
0.00390456
0.000111101
0.00390653
0.000110644
0.00390855
0.000110182
0.00391063
0.000109718
0.00391276
0.000109259
0.00391496
0.000108792
0.00391722
0.000108321
0.00391956
0.000107852
0.00392197
0.000107384
0.00392446
0.000106909
0.00392704
0.000106437
0.0039297
0.000105963
0.00393247
0.000105484
0.00393532
0.000105016
0.00393827
0.000104541
0.00394134
0.00010406
0.00394451
0.000103582
0.00394779
0.000103109
0.00395119
0.000102635
0.0039547
0.00010216
0.00395834
0.000101684
0.0039621
0.000101211
0.00396599
0.00010074
0.00397
0.000100268
0.00397416
9.97957e-05
0.00397844
9.93288e-05
0.00398287
9.88647e-05
0.00398743
9.83963e-05
0.00399214
9.79322e-05
0.00399699
9.74683e-05
0.00400199
9.70099e-05
0.00400714
9.65541e-05
0.00401244
9.6091e-05
0.00401789
9.56425e-05
0.00402349
9.52038e-05
0.00402924
9.47578e-05
0.00403515
9.43097e-05
0.00404122
9.38675e-05
0.00404744
9.34323e-05
0.00405382
9.29995e-05
0.00406036
9.25688e-05
0.00406706
9.21409e-05
0.00407392
9.17167e-05
0.00408094
9.1298e-05
0.00408812
9.08826e-05
0.00409546
9.047e-05
0.00410296
9.00612e-05
0.00411062
8.96549e-05
0.00411844
8.92507e-05
0.00412642
8.8851e-05
0.00413456
8.84564e-05
0.00414286
8.80686e-05
0.00415132
8.76872e-05
0.00415994
8.73076e-05
0.00416871
8.6929e-05
0.00417764
8.65539e-05
0.00418673
8.61826e-05
0.00419597
8.58162e-05
0.00420537
8.54549e-05
0.00421492
8.50977e-05
0.00422462
8.47446e-05
0.00423447
8.43961e-05
0.00424446
8.40534e-05
0.00425461
8.37115e-05
0.0042649
8.33732e-05
0.00427534
8.30416e-05
0.00428591
8.27129e-05
0.00429663
8.23791e-05
0.00430749
8.20609e-05
0.00431848
8.17596e-05
0.0043296
8.1446e-05
0.00434086
8.11297e-05
0.00435225
8.08217e-05
0.00436377
8.05181e-05
0.00437541
8.02208e-05
0.00438718
7.99303e-05
0.00439907
7.96413e-05
0.00441107
7.93539e-05
0.00442319
7.90723e-05
0.00443543
7.87929e-05
0.00444777
7.85147e-05
0.00446023
7.824e-05
0.00447279
7.7971e-05
0.00448545
7.77083e-05
0.0044982
7.74488e-05
0.00451106
7.71907e-05
0.00452401
7.69326e-05
0.00453705
7.66762e-05
0.00455018
7.6424e-05
0.0045634
7.61767e-05
0.00457669
7.59335e-05
0.00459007
7.56922e-05
0.00460351
7.54551e-05
0.00461703
7.52176e-05
0.00463062
7.49832e-05
0.00464428
7.47552e-05
0.00465799
7.45251e-05
0.00467177
7.42977e-05
0.00468559
7.40772e-05
0.00469947
7.38573e-05
0.00471339
7.36348e-05
0.00472736
7.34138e-05
0.00474138
7.31962e-05
0.00475543
7.2982e-05
0.00476951
7.2773e-05
0.00478362
7.25628e-05
0.00479775
7.2353e-05
0.00481191
7.21456e-05
0.00482609
7.19349e-05
0.00484029
7.17274e-05
0.00485449
7.15306e-05
0.0048687
7.13337e-05
0.00488291
7.11313e-05
0.00489713
7.0928e-05
0.00491134
7.07264e-05
0.00492555
7.05304e-05
0.00493973
7.03385e-05
0.00495391
7.0141e-05
0.00496807
6.99443e-05
0.0049822
6.97472e-05
0.00499631
6.95492e-05
0.00501039
6.93578e-05
0.00502443
6.91696e-05
0.00503844
6.89804e-05
0.0050524
6.87878e-05
0.00506631
6.85912e-05
0.00508018
6.83956e-05
0.00509399
6.82043e-05
0.00510775
6.80137e-05
0.00512145
6.78234e-05
0.00513508
6.7631e-05
0.00514864
6.74372e-05
0.00516213
6.72444e-05
0.00517554
6.70519e-05
0.00518887
6.68579e-05
0.00520212
6.66635e-05
0.00521529
6.64699e-05
0.00522836
6.62733e-05
0.00524134
6.60751e-05
0.00525422
6.58813e-05
0.005267
6.56852e-05
0.00527968
6.54843e-05
0.00529225
6.52848e-05
0.0053047
6.50876e-05
0.00531705
6.4888e-05
0.00532927
6.46833e-05
0.00534137
6.44768e-05
0.00535335
6.42733e-05
0.0053652
6.40691e-05
0.00537692
6.3862e-05
0.00538851
6.36538e-05
0.00539996
6.34448e-05
0.00541127
6.3233e-05
0.00542244
6.30188e-05
0.00543346
6.28037e-05
0.00544433
6.2588e-05
0.00545505
6.23721e-05
0.00546561
6.21552e-05
0.00547602
6.19351e-05
0.00548627
6.17128e-05
0.00549636
6.14895e-05
0.00550628
6.12638e-05
0.00551603
6.10351e-05
0.00552562
6.08053e-05
0.00553503
6.05756e-05
0.00554427
6.03439e-05
0.00555333
6.01087e-05
0.00556221
5.98743e-05
0.00557091
5.96395e-05
0.00557943
5.93997e-05
0.00558776
5.9157e-05
0.0055959
5.8917e-05
0.00560386
5.86724e-05
0.00561162
5.84272e-05
0.00561919
5.81781e-05
0.00562656
5.79368e-05
0.00563374
5.76796e-05
0.00564072
5.74401e-05
0.00564749
5.71709e-05
0.00565408
5.6947e-05
0.00566043
5.66551e-05
0.00566663
5.64688e-05
0.00567252
5.60898e-05
0.00567837
5.60563e-05
0.00568373
5.5483e-05
0.00568931
5.55792e-05
0.00569396
5.53564e-05
0.00569944
5.39833e-05
0.00570329
5.70808e-05
0.00570809
5.09069e-05
0.00571271
5.98816e-05
0.00571364
4.84227e-05
0.00571994
6.42238e-05
0.00572167
4.44532e-05
5.37981e-05
0.00742226
0.00489091
0.0072933
0.00315576
0.00711484
0.00145295
0.00681322
0.00126063
0.00650064
0.00101772
0.00626162
0.000697786
0.00608397
0.000502359
0.00593775
0.000428321
0.00580994
0.000397058
0.00569933
0.000367402
0.00560641
0.000337216
0.00552941
0.000313032
0.0054648
0.000297558
0.00540964
0.000289658
0.00536294
0.000285345
0.00532541
0.000278138
0.00529835
0.000262472
0.00528201
0.000238102
0.00527493
0.000210219
0.0052747
0.000185487
0.00527894
0.000167728
0.00528588
0.000157177
0.00529445
0.000151923
0.00530405
0.000149764
0.00531428
0.000149093
0.00532486
0.000149006
0.00533558
0.000149054
0.00534628
0.000149037
0.00535687
0.000148929
0.00536733
0.000148742
0.00537768
0.000148494
0.00538792
0.000148232
0.00539808
0.000147977
0.00540817
0.000147733
0.00541822
0.000147511
0.00542822
0.000147304
0.00543819
0.000147107
0.00544813
0.00014691
0.00545804
0.000146709
0.00546793
0.000146501
0.00547781
0.000146281
0.00548766
0.000146055
0.00549751
0.000145807
0.00550735
0.00014555
0.00551719
0.00014529
0.00552702
0.000145011
0.00553686
0.000144724
0.00554671
0.000144422
0.00555657
0.000144109
0.00556644
0.000143791
0.00557633
0.000143455
0.00558625
0.000143109
0.00559619
0.000142758
0.00560615
0.000142398
0.00561615
0.000142021
0.00562619
0.000141638
0.00563627
0.000141246
0.00564639
0.000140842
0.00565655
0.000140439
0.00566677
0.000140021
0.00567704
0.000139588
0.00568736
0.000139151
0.00569775
0.000138713
0.00570819
0.000138267
0.0057187
0.00013781
0.00572928
0.000137344
0.00573993
0.000136876
0.00575065
0.000136402
0.00576145
0.00013592
0.00577232
0.000135431
0.00578328
0.000134943
0.00579431
0.00013445
0.00580544
0.000133945
0.00581665
0.000133439
0.00582795
0.000132925
0.00583935
0.000132414
0.00585083
0.000131899
0.00586241
0.000131373
0.00587408
0.000130858
0.00588585
0.000130346
0.00589772
0.000129819
0.00590969
0.000129285
0.00592176
0.000128755
0.00593393
0.000128228
0.00594621
0.000127698
0.00595859
0.000127167
0.00597107
0.000126633
0.00598366
0.000126101
0.00599636
0.00012557
0.00600916
0.000125039
0.00602207
0.000124508
0.00603508
0.000123978
0.0060482
0.000123445
0.00606143
0.000122911
0.00607477
0.00012238
0.00608822
0.000121852
0.00610177
0.00012133
0.00611543
0.000120812
0.0061292
0.000120293
0.00614307
0.000119771
0.00615705
0.00011925
0.00617113
0.000118732
0.00618532
0.000118217
0.00619962
0.000117706
0.00621402
0.000117197
0.00622852
0.000116692
0.00624313
0.00011619
0.00625783
0.000115693
0.00627263
0.000115195
0.00628754
0.000114699
0.00630254
0.00011421
0.00631764
0.000113721
0.00633284
0.000113226
0.00634813
0.000112753
0.0063635
0.000112296
0.00637897
0.000111819
0.00639453
0.000111339
0.00641018
0.000110869
0.00642592
0.000110403
0.00644174
0.000109947
0.00645764
0.000109497
0.00647362
0.000109048
0.00648967
0.0001086
0.00650581
0.000108159
0.00652202
0.000107718
0.0065383
0.000107279
0.00655465
0.000106846
0.00657107
0.000106419
0.00658755
0.000105999
0.0066041
0.000105584
0.0066207
0.000105169
0.00663737
0.000104754
0.00665409
0.000104342
0.00667086
0.000103935
0.00668769
0.000103535
0.00670456
0.00010314
0.00672148
0.000102748
0.00673844
0.000102361
0.00675543
0.000101974
0.00677247
0.000101592
0.00678954
0.000101218
0.00680664
0.000100842
0.00682376
0.000100471
0.00684091
0.000100109
0.00685808
9.97481e-05
0.00687527
9.93843e-05
0.00689248
9.90237e-05
0.00690969
9.86675e-05
0.00692692
9.83173e-05
0.00694415
9.79754e-05
0.00696138
9.76322e-05
0.00697861
9.72906e-05
0.00699584
9.69518e-05
0.00701307
9.66088e-05
0.00703028
9.62744e-05
0.00704747
9.59554e-05
0.00706465
9.56348e-05
0.0070818
9.53083e-05
0.00709894
9.49818e-05
0.00711604
9.46587e-05
0.00713311
9.43464e-05
0.00715015
9.40403e-05
0.00716714
9.37266e-05
0.0071841
9.34144e-05
0.00720101
9.31045e-05
0.00721788
9.27958e-05
0.00723469
9.24964e-05
0.00725144
9.22028e-05
0.00726813
9.1909e-05
0.00728475
9.16116e-05
0.00730131
9.13104e-05
0.00731781
9.10124e-05
0.00733422
9.07222e-05
0.00735056
9.04342e-05
0.00736682
9.01478e-05
0.00738299
8.98606e-05
0.00739908
8.95734e-05
0.00741507
8.92889e-05
0.00743097
8.90059e-05
0.00744676
8.8723e-05
0.00746246
8.84412e-05
0.00747805
8.81618e-05
0.00749353
8.78801e-05
0.0075089
8.7598e-05
0.00752415
8.73233e-05
0.00753928
8.70477e-05
0.00755429
8.67672e-05
0.00756918
8.64895e-05
0.00758393
8.62173e-05
0.00759855
8.59434e-05
0.00761304
8.56636e-05
0.00762739
8.53837e-05
0.00764159
8.51102e-05
0.00765565
8.48367e-05
0.00766957
8.45603e-05
0.00768333
8.42848e-05
0.00769693
8.40106e-05
0.00771038
8.37333e-05
0.00772367
8.3454e-05
0.0077368
8.31754e-05
0.00774976
8.28982e-05
0.00776255
8.26227e-05
0.00777517
8.23473e-05
0.00778762
8.20686e-05
0.00779989
8.1789e-05
0.00781198
8.1509e-05
0.00782389
8.12268e-05
0.00783562
8.09432e-05
0.00784715
8.06602e-05
0.0078585
8.03779e-05
0.00786966
8.00941e-05
0.00788063
7.9808e-05
0.0078914
7.95246e-05
0.00790197
7.9242e-05
0.00791234
7.89544e-05
0.00792251
7.86638e-05
0.00793247
7.83772e-05
0.00794223
7.80876e-05
0.00795178
7.77972e-05
0.00796112
7.75049e-05
0.00797025
7.72209e-05
0.00797917
7.69231e-05
0.00798787
7.66403e-05
0.00799634
7.63376e-05
0.00800462
7.6063e-05
0.00801262
7.57595e-05
0.00802051
7.54915e-05
0.00802797
7.51477e-05
0.00803554
7.49806e-05
0.00804239
7.45284e-05
0.00804959
7.4343e-05
0.00805599
7.46305e-05
0.00806246
7.21526e-05
0.00806875
7.72697e-05
0.00807404
6.83226e-05
0.00808076
7.96355e-05
0.00808364
6.87531e-05
0.00808947
8.24475e-05
0.00809402
6.37241e-05
7.49213e-05
0.00758119
0.00415297
0.00779703
0.00296207
0.00790949
0.00136267
0.00784178
0.00134745
0.00766138
0.00121219
0.00748313
0.000883854
0.0073314
0.000655974
0.0071964
0.000561612
0.00707314
0.00051819
0.006963
0.000477908
0.00686782
0.0004373
0.00678701
0.000403957
0.00671779
0.000381796
0.00665764
0.000369869
0.0066065
0.000362778
0.00656653
0.000351499
0.00654005
0.000328353
0.00652714
0.00029324
0.00652516
0.000253641
0.0065303
0.000218779
0.00653933
0.000193923
0.00655041
0.000179295
0.00656288
0.000172177
0.00657659
0.000169423
0.00659148
0.000168729
0.00660734
0.000168808
0.00662387
0.000169065
0.00664075
0.000169276
0.00665771
0.00016941
0.00667462
0.000169477
0.0066914
0.000169504
0.00670806
0.000169536
0.00672461
0.000169586
0.00674109
0.000169654
0.00675752
0.000169748
0.00677394
0.000169863
0.00679034
0.000169992
0.00680674
0.00017012
0.00682315
0.000170243
0.00683957
0.000170359
0.006856
0.000170461
0.00687245
0.00017055
0.00688892
0.000170618
0.00690541
0.000170676
0.00692193
0.000170721
0.00693847
0.000170745
0.00695504
0.000170761
0.00697164
0.000170758
0.00698826
0.000170741
0.00700492
0.000170711
0.00702162
0.000170657
0.00703836
0.000170593
0.00705513
0.000170522
0.00707194
0.000170435
0.00708879
0.000170326
0.0071057
0.000170206
0.00712264
0.000170073
0.00713964
0.000169928
0.00715668
0.000169775
0.00717378
0.0001696
0.00719093
0.000169408
0.00720814
0.00016921
0.0072254
0.000169006
0.00724271
0.000168789
0.00726009
0.000168555
0.00727753
0.000168307
0.00729503
0.000168053
0.0073126
0.000167789
0.00733022
0.000167511
0.00734792
0.000167225
0.00736568
0.000166934
0.0073835
0.000166632
0.0074014
0.000166315
0.00741936
0.000165989
0.0074374
0.000165653
0.00745551
0.000165314
0.00747369
0.000164968
0.00749193
0.00016461
0.00751025
0.000164259
0.00752864
0.000163902
0.0075471
0.000163525
0.00756564
0.000163137
0.00758424
0.00016275
0.00760292
0.000162364
0.00762167
0.00016197
0.0076405
0.000161568
0.00765939
0.00016116
0.00767836
0.000160749
0.0076974
0.000160337
0.00771651
0.00015992
0.00773569
0.000159499
0.00775493
0.000159074
0.00777425
0.000158641
0.00779364
0.000158203
0.0078131
0.000157764
0.00783262
0.000157324
0.00785221
0.000156888
0.00787186
0.000156452
0.00789158
0.000156009
0.00791136
0.000155558
0.00793121
0.000155105
0.00795112
0.00015465
0.00797109
0.000154194
0.00799112
0.000153739
0.0080112
0.000153282
0.00803135
0.000152825
0.00805155
0.000152367
0.00807181
0.000151912
0.00809211
0.00015145
0.00811248
0.000150986
0.00813289
0.000150526
0.00815335
0.000150058
0.00817386
0.000149586
0.00819441
0.000149137
0.008215
0.000148694
0.00823564
0.000148223
0.00825632
0.000147746
0.00827705
0.000147278
0.00829781
0.000146812
0.00831861
0.000146355
0.00833943
0.000145901
0.00836029
0.000145441
0.00838118
0.000144981
0.00840209
0.000144522
0.00842303
0.000144059
0.008444
0.000143595
0.00846499
0.000143136
0.00848599
0.000142681
0.00850701
0.00014223
0.00852805
0.000141779
0.0085491
0.000141326
0.00857016
0.000140869
0.00859123
0.000140413
0.00861231
0.000139959
0.00863339
0.000139511
0.00865447
0.000139065
0.00867555
0.000138619
0.00869662
0.000138175
0.00871769
0.000137729
0.00873875
0.000137286
0.0087598
0.000136848
0.00878084
0.000136406
0.00880186
0.000135968
0.00882285
0.000135538
0.00884383
0.000135106
0.00886478
0.000134668
0.00888571
0.000134232
0.0089066
0.000133798
0.00892746
0.000133369
0.00894829
0.000132949
0.00896907
0.000132524
0.00898981
0.000132099
0.00901051
0.000131674
0.00903117
0.000131241
0.00905177
0.000130821
0.00907232
0.000130417
0.00909281
0.000130006
0.00911324
0.000129587
0.00913362
0.000129166
0.00915393
0.000128749
0.00917417
0.000128344
0.00919433
0.000127945
0.00921443
0.000127535
0.00923444
0.000127125
0.00925438
0.000126717
0.00927424
0.000126311
0.00929401
0.000125915
0.00931368
0.000125524
0.00933326
0.000125132
0.00935275
0.000124734
0.00937214
0.000124332
0.00939143
0.000123932
0.00941062
0.000123541
0.00942969
0.000123154
0.00944866
0.000122767
0.00946751
0.000122379
0.00948624
0.000121992
0.00950485
0.000121607
0.00952334
0.000121223
0.00954171
0.00012084
0.00955994
0.000120458
0.00957804
0.000120079
0.00959601
0.000119696
0.00961384
0.000119314
0.00963152
0.000118941
0.00964906
0.000118568
0.00966646
0.000118188
0.0096837
0.000117812
0.0097008
0.000117444
0.00971773
0.000117073
0.00973451
0.000116696
0.00975112
0.000116319
0.00976758
0.000115952
0.00978386
0.000115584
0.00979998
0.000115213
0.00981592
0.000114845
0.00983169
0.00011448
0.00984728
0.000114111
0.00986269
0.00011374
0.00987792
0.00011337
0.00989297
0.000113004
0.00990782
0.000112641
0.00992249
0.00011228
0.00993696
0.000111915
0.00995124
0.00011155
0.00996532
0.000111185
0.00997921
0.000110819
0.00999289
0.000110453
0.0100064
0.000110089
0.0100196
0.000109726
0.0100327
0.000109362
0.0100456
0.000108998
0.0100582
0.000108638
0.0100707
0.000108282
0.0100829
0.00010792
0.0100949
0.000107556
0.0101066
0.000107196
0.0101182
0.000106836
0.0101295
0.000106475
0.0101407
0.000106115
0.0101516
0.000105763
0.0101622
0.000105403
0.0101727
0.00010505
0.0101828
0.000104697
0.0101928
0.000104338
0.0102025
0.000104024
0.0102121
0.000103611
0.0102212
0.00010335
0.0102305
0.000102936
0.010239
0.000102673
0.0102476
0.000102191
0.0102562
0.000102706
0.0102634
9.9845e-05
0.0102722
0.000105583
0.0102789
9.57817e-05
0.0102861
0.000107539
0.0102926
9.80438e-05
0.0102986
0.000110244
0.0103041
9.19356e-05
0.000105659
0.00755162
0.00344467
0.00790102
0.00263451
0.00815527
0.00112995
0.0083127
0.00120952
0.00833432
0.00120697
0.0082939
0.000935494
0.00823014
0.000724157
0.00815201
0.000638149
0.00806653
0.000598769
0.0079815
0.000557991
0.00790275
0.000513962
0.00783277
0.000476251
0.00777093
0.000450363
0.0077156
0.000436253
0.00766726
0.000427845
0.00762939
0.000413849
0.00760578
0.000384592
0.00759708
0.000339994
0.00760013
0.000289439
0.00760993
0.000244544
0.0076222
0.000212229
0.00763484
0.000193032
0.00764766
0.000183598
0.0076614
0.000179875
0.00767674
0.000178832
0.00769388
0.000178762
0.00771257
0.000178915
0.0077323
0.000179048
0.00775256
0.000179132
0.00777297
0.000179193
0.0077933
0.000179267
0.00781349
0.000179382
0.00783352
0.000179544
0.00785345
0.000179738
0.00787332
0.000179966
0.00789318
0.000180227
0.00791305
0.000180507
0.00793296
0.000180788
0.00795293
0.000181066
0.00797295
0.00018134
0.00799304
0.000181599
0.0080132
0.00018184
0.00803343
0.000182065
0.00805373
0.000182283
0.00807411
0.000182482
0.00809457
0.000182663
0.0081151
0.000182834
0.00813571
0.000182987
0.0081564
0.000183128
0.00817716
0.000183252
0.00819802
0.000183352
0.00821895
0.000183443
0.00823997
0.00018353
0.00826107
0.000183597
0.00828225
0.000183643
0.00830353
0.000183676
0.00832489
0.000183699
0.00834633
0.000183712
0.00836786
0.000183712
0.00838949
0.000183688
0.00841121
0.00018365
0.00843301
0.000183608
0.0084549
0.00018356
0.00847689
0.000183498
0.00849896
0.000183418
0.00852113
0.000183323
0.0085434
0.000183223
0.00856575
0.000183115
0.0085882
0.000182992
0.00861073
0.000182861
0.00863336
0.000182726
0.00865609
0.000182579
0.0086789
0.000182418
0.00870181
0.000182246
0.00872481
0.000182065
0.0087479
0.000181882
0.00877108
0.000181692
0.00879435
0.000181492
0.00881771
0.000181299
0.00884116
0.000181099
0.0088647