/*--------------------------------*- C++ -*----------------------------------*\
  =========                 |
  \\      /  F ield         | OpenFOAM: The Open Source CFD Toolbox
   \\    /   O peration     | Website:  https://openfoam.org
    \\  /    A nd           | Version:  7
     \\/     M anipulation  |
\*---------------------------------------------------------------------------*/
FoamFile
{
    version     2.0;
    format      ascii;
    class       volScalarField;
    location    "1.8425";
    object      alphat;
}
// * * * * * * * * * * * * * * * * * * * * * * * * * * * * * * * * * * * * * //

dimensions      [1 -1 -1 0 0 0 0];

internalField   nonuniform List<scalar> 
7920
(
0.0108148
0.011265
0.0112703
0.0112718
0.0112668
0.0112652
0.0112612
0.0112601
0.0112575
0.011257
0.0112552
0.0112551
0.0112535
0.0112534
0.0112522
0.0112522
0.0112518
0.0112505
0.0112566
0.0112749
0.00557666
0.00560912
0.00549319
0.00537765
0.00532309
0.00530048
0.00528233
0.00527603
0.00526661
0.00526395
0.00525796
0.00525649
0.00525321
0.00525261
0.0052501
0.00524968
0.00524772
0.00524728
0.00528058
0.0052872
0.00426401
0.00455314
0.00458373
0.00457851
0.00456976
0.00456598
0.00456057
0.0045585
0.00455472
0.00455315
0.00455008
0.00454885
0.0045463
0.0045454
0.00454312
0.00454259
0.00454027
0.00454025
0.0045392
0.00454793
0.00410168
0.00443549
0.00450027
0.00452189
0.00452867
0.00453587
0.00453776
0.00454125
0.00454192
0.00454376
0.00454381
0.00454501
0.00454463
0.00454549
0.00454482
0.00454555
0.00454459
0.00454536
0.00454452
0.00455086
0.00408433
0.00442228
0.00449079
0.00451637
0.00452672
0.00453725
0.00454184
0.0045488
0.00455175
0.00455665
0.00455875
0.00456244
0.00456393
0.00456678
0.00456784
0.00457011
0.00457077
0.00457246
0.00457309
0.00457911
0.00408606
0.00442106
0.00448916
0.00451507
0.00452636
0.00453806
0.0045439
0.00455232
0.00455647
0.00456303
0.00456624
0.00457147
0.004574
0.00457822
0.00458023
0.0045837
0.00458524
0.00458784
0.00458952
0.00459555
0.00408606
0.00442106
0.00448916
0.00451507
0.00452636
0.00453806
0.0045439
0.00455232
0.00455647
0.00456303
0.00456624
0.00457146
0.004574
0.00457822
0.00458024
0.00458369
0.00458525
0.00458784
0.00458953
0.00459557
0.00408433
0.00442228
0.00449079
0.00451637
0.00452672
0.00453725
0.00454184
0.00454879
0.00455175
0.00455665
0.00455876
0.00456243
0.00456394
0.00456677
0.00456786
0.0045701
0.00457082
0.00457245
0.00457316
0.00457913
0.00410168
0.00443549
0.00450027
0.00452189
0.00452866
0.00453587
0.00453777
0.00454125
0.00454192
0.00454375
0.00454382
0.004545
0.00454465
0.00454546
0.00454487
0.0045455
0.0045447
0.00454529
0.00454478
0.00455056
0.00426401
0.00455314
0.00458373
0.0045785
0.00456976
0.00456598
0.00456057
0.00455849
0.00455473
0.00455314
0.00455009
0.00454883
0.00454632
0.00454535
0.00454319
0.00454245
0.00454043
0.0045401
0.00453985
0.00454696
0.00557666
0.00560912
0.00549319
0.00537765
0.00532309
0.00530048
0.00528233
0.00527603
0.0052666
0.00526394
0.00525796
0.00525647
0.00525323
0.00525257
0.00525014
0.00524959
0.00524784
0.00524708
0.00528057
0.0052854
0.0108148
0.011265
0.0112703
0.0112718
0.0112668
0.0112652
0.0112612
0.0112601
0.0112575
0.011257
0.0112552
0.0112551
0.0112535
0.0112534
0.0112522
0.0112522
0.0112518
0.0112505
0.0112566
0.0112744
0.00414429
0.00465251
0.00466961
0.00463995
0.00462934
0.00461344
0.00461147
0.00460271
0.00460199
0.00459607
0.00459578
0.00459167
0.00459153
0.00458848
0.00458824
0.00458591
0.00458577
0.00458349
0.00458125
0.00459946
0.00367253
0.00429984
0.00438626
0.00439804
0.00439788
0.00439812
0.00439684
0.00439687
0.00439598
0.00439585
0.00439497
0.00439465
0.00439388
0.00439357
0.00439276
0.00439274
0.00439141
0.00439239
0.00439078
0.00439751
0.0035738
0.00420897
0.00430015
0.00431952
0.00432127
0.00432612
0.00432644
0.00432987
0.0043303
0.00433297
0.00433334
0.00433539
0.00433565
0.00433726
0.00433745
0.00433868
0.00433873
0.00433991
0.00433868
0.00434928
0.0035718
0.00420745
0.00429823
0.00431678
0.00431712
0.0043201
0.0043193
0.00432117
0.004321
0.00432267
0.00432285
0.00432428
0.00432467
0.00432588
0.0043264
0.00432732
0.00432798
0.00432849
0.00432886
0.00433475
0.00356765
0.00420294
0.00429349
0.00431279
0.00431274
0.00431572
0.00431422
0.0043158
0.00431484
0.00431616
0.0043156
0.00431673
0.00431647
0.00431745
0.00431739
0.00431821
0.00431826
0.00431899
0.00431915
0.0043249
0.0035698
0.00420547
0.00429574
0.00431501
0.0043149
0.00431795
0.0043164
0.00431799
0.00431693
0.00431819
0.00431746
0.00431847
0.00431801
0.00431884
0.00431858
0.00431924
0.00431912
0.00431963
0.0043196
0.00432485
0.0035698
0.00420547
0.00429574
0.00431501
0.0043149
0.00431795
0.0043164
0.00431799
0.00431693
0.00431819
0.00431746
0.00431847
0.00431801
0.00431884
0.00431858
0.00431924
0.00431912
0.00431963
0.0043196
0.00432485
0.00356765
0.00420294
0.00429349
0.00431279
0.00431274
0.00431572
0.00431422
0.0043158
0.00431484
0.00431616
0.0043156
0.00431672
0.00431647
0.00431744
0.0043174
0.00431822
0.00431828
0.00431898
0.00431915
0.00432488
0.0035718
0.00420745
0.00429823
0.00431678
0.00431712
0.0043201
0.0043193
0.00432116
0.004321
0.00432267
0.00432286
0.00432427
0.00432469
0.00432587
0.00432638
0.00432734
0.00432792
0.00432842
0.00432901
0.00433453
0.0035738
0.00420897
0.00430015
0.00431952
0.00432127
0.00432612
0.00432644
0.00432986
0.00433031
0.00433296
0.00433336
0.00433537
0.00433569
0.00433722
0.00433746
0.00433867
0.00433873
0.00433976
0.00433911
0.00434844
0.00367253
0.00429984
0.00438626
0.00439804
0.00439788
0.00439812
0.00439685
0.00439687
0.00439599
0.00439585
0.00439498
0.00439463
0.0043939
0.00439353
0.00439288
0.00439257
0.00439168
0.00439191
0.00439146
0.00439596
0.00414429
0.00465251
0.00466961
0.00463995
0.00462935
0.00461344
0.00461147
0.00460271
0.004602
0.00459606
0.0045958
0.00459164
0.00459158
0.00458841
0.00458837
0.00458572
0.00458613
0.00458294
0.00458284
0.00459613
0.00103362
0.00152254
0.0015921
0.00157078
0.00151658
0.00146631
0.0014263
0.00139725
0.0013752
0.00135778
0.00134486
0.00133329
0.001325
0.00131638
0.00131028
0.00130389
0.00129831
0.00129565
0.00128592
0.00129684
0.000438508
0.000925309
0.00108559
0.00114763
0.00116856
0.00118159
0.00118799
0.00119519
0.00119878
0.00120272
0.00120399
0.00120565
0.00120563
0.00120604
0.00120544
0.00120557
0.00120446
0.00120472
0.0012029
0.00120702
0.000379045
0.000819484
0.000965485
0.0010308
0.00105042
0.00106465
0.00106785
0.00107451
0.00107686
0.00108201
0.00108455
0.00108921
0.00109194
0.0010958
0.00109856
0.00110166
0.00110434
0.00110691
0.00110849
0.00111324
0.000390264
0.000824451
0.000966974
0.00102953
0.00104881
0.00106071
0.00106238
0.00106548
0.0010656
0.00106662
0.00106693
0.00106795
0.00106859
0.00106975
0.00107094
0.00107183
0.0010735
0.00107429
0.00107569
0.00107917
0.000384932
0.00081899
0.00096099
0.00102392
0.00104284
0.0010548
0.00105619
0.001059
0.00105872
0.00105923
0.00105891
0.00105916
0.00105902
0.00105921
0.00105929
0.00105941
0.00105975
0.00105988
0.00106022
0.00106253
0.000387931
0.000822046
0.000964076
0.00102657
0.00104561
0.00105742
0.00105898
0.00106171
0.00106149
0.00106194
0.00106162
0.00106177
0.00106158
0.00106162
0.00106154
0.0010615
0.00106157
0.00106152
0.00106166
0.00106368
0.000387931
0.000822046
0.000964075
0.00102657
0.00104561
0.00105742
0.00105898
0.00106171
0.00106149
0.00106194
0.00106162
0.00106177
0.00106158
0.00106162
0.00106154
0.0010615
0.00106157
0.00106153
0.00106165
0.00106368
0.000384931
0.000818991
0.00096099
0.00102392
0.00104284
0.0010548
0.00105619
0.001059
0.00105872
0.00105923
0.00105891
0.00105916
0.00105902
0.00105921
0.00105929
0.00105942
0.00105974
0.00105988
0.0010602
0.00106254
0.000390263
0.000824452
0.000966974
0.00102953
0.00104881
0.00106071
0.00106238
0.00106548
0.00106561
0.00106662
0.00106693
0.00106795
0.00106859
0.00106976
0.00107091
0.00107185
0.00107347
0.00107428
0.00107566
0.00107913
0.000379043
0.000819484
0.000965485
0.0010308
0.00105042
0.00106464
0.00106786
0.00107451
0.00107687
0.00108201
0.00108455
0.0010892
0.00109194
0.0010958
0.00109855
0.00110165
0.00110432
0.00110682
0.00110855
0.001113
0.000438507
0.000925309
0.00108559
0.00114763
0.00116856
0.00118159
0.00118799
0.00119519
0.00119878
0.00120271
0.001204
0.00120562
0.00120568
0.00120595
0.00120553
0.00120537
0.00120467
0.00120434
0.00120337
0.00120615
0.00103362
0.00152254
0.0015921
0.00157078
0.00151658
0.00146631
0.0014263
0.00139725
0.0013752
0.00135777
0.00134488
0.00133328
0.00132505
0.00131635
0.00131043
0.00130378
0.00129875
0.0012952
0.00128742
0.00129503
0.00103362
0.00152254
0.0015921
0.00157078
0.00151658
0.00146631
0.0014263
0.00139725
0.0013752
0.00135778
0.00134486
0.00133329
0.001325
0.00131638
0.00131028
0.00130389
0.00129831
0.00129565
0.00128592
0.00129684
0.000438508
0.000925309
0.00108559
0.00114763
0.00116856
0.00118159
0.00118799
0.00119519
0.00119878
0.00120272
0.00120399
0.00120565
0.00120563
0.00120604
0.00120544
0.00120557
0.00120446
0.00120472
0.0012029
0.00120702
0.000379045
0.000819484
0.000965485
0.0010308
0.00105042
0.00106465
0.00106785
0.00107451
0.00107686
0.00108201
0.00108455
0.00108921
0.00109194
0.0010958
0.00109856
0.00110166
0.00110434
0.00110691
0.00110849
0.00111324
0.000390264
0.000824451
0.000966974
0.00102953
0.00104881
0.00106071
0.00106238
0.00106548
0.0010656
0.00106662
0.00106693
0.00106795
0.00106859
0.00106975
0.00107094
0.00107183
0.0010735
0.00107429
0.00107569
0.00107917
0.000384932
0.00081899
0.00096099
0.00102392
0.00104284
0.0010548
0.00105619
0.001059
0.00105872
0.00105923
0.00105891
0.00105916
0.00105902
0.00105921
0.00105929
0.00105941
0.00105975
0.00105988
0.00106022
0.00106253
0.000387931
0.000822046
0.000964076
0.00102657
0.00104561
0.00105742
0.00105898
0.00106171
0.00106149
0.00106194
0.00106162
0.00106177
0.00106158
0.00106162
0.00106154
0.0010615
0.00106157
0.00106152
0.00106166
0.00106368
0.000387931
0.000822046
0.000964076
0.00102657
0.00104561
0.00105742
0.00105898
0.00106171
0.00106149
0.00106194
0.00106162
0.00106177
0.00106158
0.00106162
0.00106154
0.0010615
0.00106157
0.00106153
0.00106165
0.00106368
0.000384931
0.000818991
0.00096099
0.00102392
0.00104284
0.0010548
0.00105619
0.001059
0.00105872
0.00105923
0.00105891
0.00105916
0.00105902
0.00105921
0.00105929
0.00105942
0.00105974
0.00105988
0.0010602
0.00106254
0.000390263
0.000824452
0.000966974
0.00102953
0.00104881
0.00106071
0.00106238
0.00106548
0.00106561
0.00106662
0.00106693
0.00106795
0.00106859
0.00106976
0.00107091
0.00107185
0.00107347
0.00107428
0.00107566
0.00107913
0.000379044
0.000819484
0.000965485
0.0010308
0.00105042
0.00106464
0.00106786
0.00107451
0.00107687
0.00108201
0.00108455
0.0010892
0.00109194
0.0010958
0.00109855
0.00110165
0.00110432
0.00110682
0.00110855
0.001113
0.000438507
0.000925309
0.00108559
0.00114763
0.00116856
0.00118159
0.00118799
0.00119519
0.00119878
0.00120271
0.001204
0.00120562
0.00120568
0.00120595
0.00120553
0.00120537
0.00120467
0.00120434
0.00120337
0.00120615
0.00103362
0.00152254
0.0015921
0.00157078
0.00151658
0.00146631
0.0014263
0.00139725
0.0013752
0.00135777
0.00134488
0.00133328
0.00132505
0.00131635
0.00131043
0.00130378
0.00129875
0.0012952
0.00128742
0.00129503
0.00414429
0.00465251
0.00466961
0.00463995
0.00462934
0.00461344
0.00461147
0.00460271
0.00460199
0.00459607
0.00459578
0.00459167
0.00459153
0.00458848
0.00458824
0.00458591
0.00458577
0.00458349
0.00458125
0.00459946
0.00367253
0.00429984
0.00438626
0.00439804
0.00439788
0.00439812
0.00439684
0.00439687
0.00439598
0.00439585
0.00439497
0.00439465
0.00439388
0.00439357
0.00439276
0.00439274
0.00439141
0.00439239
0.00439078
0.00439751
0.0035738
0.00420897
0.00430015
0.00431952
0.00432127
0.00432612
0.00432644
0.00432987
0.0043303
0.00433297
0.00433334
0.00433539
0.00433565
0.00433726
0.00433745
0.00433868
0.00433873
0.00433991
0.00433868
0.00434928
0.0035718
0.00420745
0.00429823
0.00431678
0.00431712
0.0043201
0.0043193
0.00432117
0.004321
0.00432267
0.00432285
0.00432428
0.00432467
0.00432588
0.0043264
0.00432732
0.00432798
0.00432849
0.00432886
0.00433475
0.00356765
0.00420294
0.00429349
0.00431279
0.00431274
0.00431572
0.00431422
0.0043158
0.00431484
0.00431616
0.0043156
0.00431673
0.00431647
0.00431745
0.00431739
0.00431821
0.00431826
0.00431899
0.00431915
0.0043249
0.0035698
0.00420547
0.00429574
0.00431501
0.0043149
0.00431795
0.0043164
0.00431799
0.00431693
0.00431819
0.00431746
0.00431847
0.00431801
0.00431884
0.00431858
0.00431924
0.00431912
0.00431963
0.0043196
0.00432485
0.0035698
0.00420547
0.00429574
0.00431501
0.0043149
0.00431795
0.0043164
0.00431799
0.00431693
0.00431819
0.00431746
0.00431847
0.00431801
0.00431884
0.00431858
0.00431924
0.00431912
0.00431963
0.0043196
0.00432485
0.00356765
0.00420294
0.00429349
0.00431279
0.00431274
0.00431572
0.00431422
0.0043158
0.00431484
0.00431616
0.0043156
0.00431672
0.00431647
0.00431744
0.0043174
0.00431822
0.00431828
0.00431898
0.00431915
0.00432488
0.0035718
0.00420745
0.00429823
0.00431678
0.00431712
0.0043201
0.0043193
0.00432116
0.004321
0.00432267
0.00432286
0.00432427
0.00432469
0.00432587
0.00432638
0.00432734
0.00432792
0.00432842
0.00432901
0.00433453
0.0035738
0.00420897
0.00430015
0.00431952
0.00432127
0.00432612
0.00432644
0.00432986
0.00433031
0.00433296
0.00433336
0.00433537
0.00433569
0.00433722
0.00433746
0.00433867
0.00433873
0.00433976
0.00433911
0.00434844
0.00367253
0.00429984
0.00438626
0.00439804
0.00439788
0.00439812
0.00439685
0.00439687
0.00439599
0.00439585
0.00439498
0.00439463
0.0043939
0.00439353
0.00439288
0.00439257
0.00439168
0.00439191
0.00439146
0.00439596
0.00414429
0.00465251
0.00466961
0.00463995
0.00462935
0.00461344
0.00461147
0.00460271
0.004602
0.00459606
0.0045958
0.00459164
0.00459158
0.00458841
0.00458837
0.00458572
0.00458613
0.00458294
0.00458284
0.00459613
0.0108148
0.011265
0.0112703
0.0112718
0.0112668
0.0112652
0.0112612
0.0112601
0.0112575
0.011257
0.0112552
0.0112551
0.0112535
0.0112534
0.0112522
0.0112522
0.0112518
0.0112505
0.0112566
0.0112749
0.00557666
0.00560912
0.00549319
0.00537765
0.00532309
0.00530048
0.00528233
0.00527603
0.00526661
0.00526395
0.00525796
0.00525649
0.00525321
0.00525261
0.0052501
0.00524968
0.00524772
0.00524728
0.00528058
0.0052872
0.00426401
0.00455314
0.00458373
0.00457851
0.00456976
0.00456598
0.00456057
0.0045585
0.00455472
0.00455315
0.00455008
0.00454885
0.0045463
0.0045454
0.00454312
0.00454259
0.00454027
0.00454025
0.0045392
0.00454793
0.00410168
0.00443549
0.00450027
0.00452189
0.00452867
0.00453587
0.00453776
0.00454125
0.00454192
0.00454376
0.00454381
0.00454501
0.00454463
0.00454549
0.00454482
0.00454555
0.00454459
0.00454536
0.00454452
0.00455086
0.00408433
0.00442228
0.00449079
0.00451637
0.00452672
0.00453725
0.00454184
0.0045488
0.00455175
0.00455665
0.00455875
0.00456244
0.00456393
0.00456678
0.00456784
0.00457011
0.00457077
0.00457246
0.00457309
0.00457911
0.00408606
0.00442106
0.00448916
0.00451507
0.00452636
0.00453806
0.0045439
0.00455232
0.00455647
0.00456303
0.00456624
0.00457147
0.004574
0.00457822
0.00458023
0.0045837
0.00458524
0.00458784
0.00458952
0.00459555
0.00408606
0.00442106
0.00448916
0.00451507
0.00452636
0.00453806
0.0045439
0.00455232
0.00455647
0.00456303
0.00456624
0.00457146
0.004574
0.00457822
0.00458024
0.00458369
0.00458525
0.00458784
0.00458953
0.00459557
0.00408433
0.00442228
0.00449079
0.00451637
0.00452672
0.00453725
0.00454184
0.00454879
0.00455175
0.00455665
0.00455876
0.00456243
0.00456394
0.00456677
0.00456786
0.0045701
0.00457082
0.00457245
0.00457316
0.00457913
0.00410168
0.00443549
0.00450027
0.00452189
0.00452866
0.00453587
0.00453777
0.00454125
0.00454192
0.00454375
0.00454382
0.004545
0.00454465
0.00454546
0.00454487
0.0045455
0.0045447
0.00454529
0.00454478
0.00455056
0.00426401
0.00455314
0.00458373
0.0045785
0.00456976
0.00456598
0.00456057
0.00455849
0.00455473
0.00455314
0.00455009
0.00454883
0.00454632
0.00454535
0.00454319
0.00454245
0.00454043
0.0045401
0.00453985
0.00454696
0.00557666
0.00560912
0.00549319
0.00537765
0.00532309
0.00530048
0.00528233
0.00527603
0.00526661
0.00526394
0.00525796
0.00525647
0.00525323
0.00525257
0.00525014
0.00524959
0.00524784
0.00524708
0.00528057
0.0052854
0.0108148
0.011265
0.0112703
0.0112718
0.0112668
0.0112652
0.0112612
0.0112601
0.0112575
0.011257
0.0112552
0.0112551
0.0112535
0.0112534
0.0112522
0.0112522
0.0112518
0.0112505
0.0112566
0.0112744
0.0326132
0.0326696
0.0326686
0.0326651
0.0326618
0.0326592
0.032657
0.0326547
0.0326527
0.0326504
0.0326486
0.0326464
0.0326449
0.0326428
0.0326413
0.0326393
0.0326379
0.0326359
0.0326346
0.0326328
0.0326315
0.0326297
0.0326285
0.0326267
0.0326255
0.0326239
0.0326227
0.032621
0.0326198
0.0326182
0.0326169
0.0326152
0.0326139
0.0326122
0.0326109
0.0326091
0.0326078
0.032606
0.0326046
0.0326029
0.0326015
0.0325997
0.0325982
0.0325965
0.032595
0.0325933
0.0325917
0.03259
0.0325884
0.0325867
0.0325851
0.0325833
0.0325817
0.03258
0.0325783
0.0325766
0.0325749
0.0325731
0.0325715
0.0325697
0.032568
0.0325662
0.0325645
0.0325627
0.032561
0.0325592
0.0325574
0.0325557
0.0325539
0.0325521
0.0325503
0.0325485
0.0325467
0.0325449
0.0325431
0.0325413
0.0325395
0.0325376
0.0325358
0.032534
0.0325321
0.0325303
0.0325285
0.0325266
0.0325247
0.0325229
0.032521
0.0325192
0.0325144
0.032511
0.0187281
0.018974
0.018971
0.0189716
0.018965
0.0189654
0.0189601
0.0189602
0.018956
0.0189562
0.0189526
0.0189525
0.0189492
0.0189489
0.0189459
0.0189456
0.0189429
0.0189424
0.0189399
0.0189393
0.0189368
0.0189362
0.0189339
0.0189333
0.0189311
0.0189304
0.0189284
0.0189277
0.0189258
0.0189251
0.0189234
0.0189228
0.0189212
0.0189206
0.0189191
0.0189185
0.0189171
0.0189164
0.018915
0.0189144
0.018913
0.0189124
0.018911
0.0189103
0.018909
0.0189083
0.018907
0.0189063
0.018905
0.0189043
0.018903
0.0189023
0.018901
0.0189003
0.018899
0.0188983
0.018897
0.0188963
0.0188951
0.0188943
0.0188931
0.0188923
0.0188911
0.0188903
0.0188892
0.0188884
0.0188872
0.0188864
0.0188852
0.0188845
0.0188833
0.0188825
0.0188814
0.0188806
0.0188794
0.0188786
0.0188775
0.0188767
0.0188755
0.0188747
0.0188736
0.0188728
0.0188716
0.0188708
0.0188697
0.0188689
0.0188677
0.018867
0.018863
0.0188609
0.0150854
0.0155136
0.0155143
0.015517
0.0155058
0.0155078
0.0154983
0.0154997
0.0154918
0.0154933
0.0154866
0.0154877
0.0154816
0.0154823
0.0154769
0.0154775
0.0154727
0.0154731
0.0154686
0.0154689
0.0154647
0.0154648
0.015461
0.0154611
0.0154576
0.0154576
0.0154543
0.0154543
0.0154514
0.0154513
0.0154487
0.0154487
0.0154464
0.0154463
0.0154441
0.0154441
0.015442
0.015442
0.01544
0.0154399
0.015438
0.0154379
0.0154361
0.0154359
0.0154342
0.015434
0.0154323
0.0154321
0.0154305
0.0154303
0.0154287
0.0154285
0.015427
0.0154267
0.0154253
0.015425
0.0154236
0.0154233
0.015422
0.0154216
0.0154204
0.01542
0.0154188
0.0154185
0.0154173
0.0154169
0.0154158
0.0154155
0.0154143
0.015414
0.0154129
0.0154126
0.0154115
0.0154112
0.0154102
0.0154099
0.0154089
0.0154086
0.0154076
0.0154073
0.0154063
0.015406
0.0154051
0.0154048
0.0154039
0.0154036
0.0154026
0.0154024
0.0154008
0.0153962
0.0145363
0.015107
0.0151207
0.015127
0.0151142
0.0151172
0.0151057
0.0151078
0.0150976
0.0150993
0.0150908
0.0150922
0.0150845
0.0150856
0.0150785
0.0150795
0.0150732
0.0150741
0.0150684
0.015069
0.0150637
0.0150643
0.0150595
0.01506
0.0150556
0.015056
0.015052
0.0150524
0.0150488
0.015049
0.0150459
0.0150461
0.0150433
0.0150436
0.015041
0.0150412
0.0150388
0.015039
0.0150367
0.0150368
0.0150346
0.0150348
0.0150327
0.0150328
0.0150308
0.0150308
0.0150289
0.0150289
0.0150272
0.0150271
0.0150254
0.0150254
0.0150238
0.0150237
0.0150221
0.0150221
0.0150206
0.0150205
0.0150191
0.015019
0.0150176
0.0150176
0.0150163
0.0150162
0.0150149
0.0150148
0.0150137
0.0150136
0.0150124
0.0150124
0.0150113
0.0150112
0.0150102
0.0150101
0.0150091
0.0150091
0.0150081
0.0150081
0.0150071
0.0150071
0.0150062
0.0150062
0.0150053
0.0150053
0.0150045
0.0150045
0.0150037
0.0150037
0.0150032
0.0149977
0.0145022
0.0151501
0.0151773
0.0151885
0.0151764
0.01518
0.015168
0.0151703
0.0151592
0.0151608
0.0151514
0.0151527
0.0151441
0.0151453
0.0151373
0.0151383
0.0151313
0.0151322
0.0151257
0.0151265
0.0151205
0.0151212
0.0151157
0.0151164
0.0151114
0.015112
0.0151075
0.015108
0.0151041
0.0151044
0.015101
0.0151013
0.0150983
0.0150986
0.0150959
0.0150962
0.0150936
0.015094
0.0150915
0.0150918
0.0150895
0.0150897
0.0150876
0.0150878
0.0150857
0.0150859
0.0150839
0.0150841
0.0150822
0.0150823
0.0150806
0.0150807
0.015079
0.0150791
0.0150775
0.0150776
0.0150761
0.0150761
0.0150747
0.0150748
0.0150734
0.0150735
0.0150722
0.0150722
0.015071
0.0150711
0.0150699
0.01507
0.0150689
0.015069
0.0150679
0.015068
0.015067
0.0150671
0.0150662
0.0150663
0.0150654
0.0150655
0.0150647
0.0150648
0.015064
0.0150642
0.0150634
0.0150635
0.0150628
0.015063
0.0150623
0.0150624
0.0150623
0.0150563
0.014523
0.0152147
0.0152511
0.0152659
0.0152552
0.0152594
0.0152479
0.0152502
0.0152391
0.0152406
0.0152311
0.0152323
0.0152235
0.0152246
0.0152164
0.0152173
0.01521
0.0152109
0.0152042
0.015205
0.0151987
0.0151994
0.0151937
0.0151943
0.0151892
0.0151898
0.0151851
0.0151856
0.0151815
0.0151819
0.0151783
0.0151787
0.0151756
0.015176
0.0151732
0.0151736
0.0151709
0.0151713
0.0151688
0.0151692
0.0151668
0.0151672
0.015165
0.0151652
0.0151631
0.0151634
0.0151614
0.0151616
0.0151598
0.01516
0.0151582
0.0151584
0.0151567
0.0151568
0.0151552
0.0151554
0.0151539
0.0151541
0.0151526
0.0151528
0.0151514
0.0151516
0.0151503
0.0151504
0.0151492
0.0151494
0.0151482
0.0151484
0.0151473
0.0151475
0.0151465
0.0151467
0.0151457
0.0151459
0.015145
0.0151452
0.0151443
0.0151446
0.0151438
0.015144
0.0151432
0.0151435
0.0151427
0.015143
0.0151423
0.0151426
0.015142
0.0151421
0.0151422
0.0151358
0.0145232
0.0152156
0.0152528
0.0152681
0.0152582
0.0152626
0.0152516
0.0152539
0.0152432
0.0152446
0.0152355
0.0152367
0.0152282
0.0152292
0.0152212
0.0152221
0.015215
0.0152158
0.0152092
0.01521
0.0152037
0.0152044
0.0151987
0.0151994
0.0151942
0.0151948
0.0151901
0.0151907
0.0151866
0.015187
0.0151834
0.0151838
0.0151806
0.0151811
0.0151782
0.0151787
0.015176
0.0151764
0.0151739
0.0151743
0.0151719
0.0151722
0.01517
0.0151703
0.0151682
0.0151685
0.0151665
0.0151667
0.0151648
0.015165
0.0151633
0.0151635
0.0151618
0.0151619
0.0151603
0.0151605
0.015159
0.0151592
0.0151577
0.0151579
0.0151565
0.0151567
0.0151554
0.0151556
0.0151543
0.0151545
0.0151534
0.0151535
0.0151525
0.0151526
0.0151516
0.0151518
0.0151509
0.0151511
0.0151501
0.0151504
0.0151495
0.0151497
0.0151489
0.0151492
0.0151484
0.0151487
0.0151479
0.0151482
0.0151475
0.0151478
0.0151472
0.0151473
0.0151474
0.0151409
0.0145033
0.0151535
0.0151825
0.0151947
0.0151844
0.0151884
0.0151778
0.0151797
0.0151699
0.0151714
0.0151629
0.0151641
0.0151562
0.0151572
0.0151497
0.0151506
0.0151439
0.0151447
0.0151384
0.0151392
0.0151333
0.015134
0.0151285
0.0151292
0.0151243
0.0151248
0.0151204
0.0151209
0.0151169
0.0151173
0.0151138
0.0151142
0.0151111
0.0151115
0.0151087
0.0151091
0.0151065
0.0151068
0.0151044
0.0151047
0.0151024
0.0151026
0.0151004
0.0151007
0.0150986
0.0150988
0.0150968
0.015097
0.0150951
0.0150953
0.0150935
0.0150936
0.0150919
0.015092
0.0150904
0.0150905
0.015089
0.0150891
0.0150876
0.0150877
0.0150864
0.0150864
0.0150851
0.0150852
0.015084
0.0150841
0.0150829
0.015083
0.0150819
0.015082
0.015081
0.0150811
0.0150801
0.0150802
0.0150793
0.0150794
0.0150785
0.0150787
0.0150778
0.015078
0.0150772
0.0150773
0.0150766
0.0150767
0.015076
0.0150762
0.0150755
0.0150756
0.0150755
0.0150695
0.0145373
0.0151113
0.0151274
0.015135
0.0151244
0.0151275
0.0151178
0.0151196
0.0151109
0.0151124
0.015105
0.0151061
0.0150992
0.0151002
0.0150937
0.0150946
0.0150887
0.0150895
0.0150839
0.0150847
0.0150793
0.01508
0.0150751
0.0150757
0.0150713
0.0150718
0.0150677
0.0150681
0.0150645
0.0150648
0.0150617
0.0150619
0.0150591
0.0150594
0.0150567
0.015057
0.0150545
0.0150547
0.0150524
0.0150526
0.0150504
0.0150505
0.0150484
0.0150485
0.0150465
0.0150466
0.0150447
0.0150447
0.0150429
0.0150429
0.0150412
0.0150412
0.0150395
0.0150395
0.0150379
0.0150379
0.0150364
0.0150363
0.0150349
0.0150348
0.0150335
0.0150334
0.0150321
0.015032
0.0150308
0.0150307
0.0150295
0.0150295
0.0150283
0.0150283
0.0150272
0.0150272
0.0150261
0.0150261
0.0150251
0.0150251
0.0150241
0.0150241
0.0150232
0.0150232
0.0150223
0.0150223
0.0150214
0.0150214
0.0150206
0.0150206
0.0150198
0.0150198
0.0150193
0.0150137
0.0150832
0.015514
0.0155162
0.0155194
0.0155099
0.0155118
0.0155036
0.0155049
0.015498
0.0154992
0.0154933
0.0154943
0.0154886
0.0154894
0.0154842
0.0154849
0.0154802
0.0154808
0.0154763
0.0154767
0.0154725
0.0154728
0.0154689
0.0154691
0.0154654
0.0154656
0.0154622
0.0154623
0.0154593
0.0154593
0.0154566
0.0154566
0.0154542
0.0154542
0.015452
0.015452
0.0154499
0.0154499
0.0154479
0.0154478
0.0154459
0.0154458
0.0154439
0.0154438
0.015442
0.0154419
0.0154402
0.01544
0.0154383
0.0154381
0.0154365
0.0154363
0.0154348
0.0154345
0.0154331
0.0154328
0.0154314
0.0154311
0.0154298
0.0154295
0.0154282
0.0154279
0.0154266
0.0154263
0.0154251
0.0154248
0.0154236
0.0154233
0.0154222
0.0154219
0.0154208
0.0154205
0.0154194
0.0154192
0.0154181
0.0154178
0.0154168
0.0154165
0.0154155
0.0154153
0.0154143
0.015414
0.0154131
0.0154128
0.0154119
0.0154117
0.0154107
0.0154105
0.015409
0.0154044
0.0187235
0.0189717
0.0189697
0.0189707
0.0189648
0.0189654
0.0189605
0.0189608
0.0189569
0.0189573
0.0189539
0.018954
0.0189508
0.0189507
0.0189478
0.0189477
0.018945
0.0189447
0.0189421
0.0189417
0.0189392
0.0189386
0.0189363
0.0189357
0.0189335
0.0189329
0.0189308
0.0189301
0.0189282
0.0189276
0.0189258
0.0189252
0.0189236
0.018923
0.0189215
0.0189209
0.0189194
0.0189188
0.0189174
0.0189168
0.0189153
0.0189147
0.0189133
0.0189127
0.0189113
0.0189106
0.0189093
0.0189086
0.0189073
0.0189066
0.0189053
0.0189046
0.0189033
0.0189026
0.0189013
0.0189006
0.0188993
0.0188986
0.0188974
0.0188966
0.0188954
0.0188946
0.0188934
0.0188927
0.0188915
0.0188907
0.0188895
0.0188887
0.0188876
0.0188868
0.0188856
0.0188849
0.0188837
0.0188829
0.0188818
0.018881
0.0188798
0.0188791
0.0188779
0.0188771
0.018876
0.0188752
0.018874
0.0188733
0.0188721
0.0188713
0.0188701
0.0188694
0.0188654
0.0188631
0.0326571
0.0327219
0.0327243
0.0327225
0.0327203
0.0327186
0.032717
0.0327154
0.0327139
0.0327121
0.0327107
0.0327089
0.0327077
0.0327058
0.0327045
0.0327026
0.0327012
0.0326993
0.032698
0.0326962
0.0326949
0.0326931
0.0326918
0.0326901
0.0326889
0.0326872
0.032686
0.0326843
0.0326831
0.0326815
0.0326802
0.0326785
0.0326772
0.0326755
0.0326741
0.0326724
0.032671
0.0326693
0.0326679
0.0326662
0.0326647
0.032663
0.0326615
0.0326598
0.0326583
0.0326565
0.032655
0.0326533
0.0326517
0.0326499
0.0326484
0.0326466
0.032645
0.0326432
0.0326416
0.0326398
0.0326382
0.0326364
0.0326347
0.032633
0.0326313
0.0326295
0.0326278
0.032626
0.0326243
0.0326225
0.0326207
0.0326189
0.0326172
0.0326154
0.0326136
0.0326118
0.03261
0.0326082
0.0326064
0.0326046
0.0326027
0.0326009
0.0325991
0.0325973
0.0325954
0.0325936
0.0325917
0.0325899
0.032588
0.0325862
0.0325843
0.0325825
0.0325775
0.0325742
0.0148807
0.014976
0.0149728
0.0149686
0.0149656
0.0149634
0.0149611
0.0149596
0.0149574
0.0149564
0.0149543
0.0149535
0.0149515
0.0149508
0.0149489
0.0149483
0.0149465
0.014946
0.0149443
0.0149438
0.0149422
0.0149418
0.0149403
0.0149399
0.0149385
0.0149381
0.0149367
0.0149363
0.014935
0.0149347
0.0149334
0.014933
0.0149318
0.0149314
0.0149303
0.0149298
0.0149287
0.0149282
0.0149271
0.0149267
0.0149256
0.0149251
0.014924
0.0149235
0.0149225
0.014922
0.014921
0.0149204
0.0149194
0.0149189
0.0149179
0.0149173
0.0149163
0.0149158
0.0149148
0.0149142
0.0149133
0.0149127
0.0149117
0.0149111
0.0149102
0.0149096
0.0149087
0.0149081
0.0149071
0.0149065
0.0149056
0.014905
0.0149041
0.0149035
0.0149026
0.0149019
0.014901
0.0149004
0.0148995
0.0148989
0.014898
0.0148974
0.0148965
0.0148959
0.014895
0.0148944
0.0148935
0.014893
0.0148921
0.0148917
0.0148907
0.0148905
0.0148885
0.0148879
0.0144214
0.0146801
0.0146827
0.0146814
0.014679
0.0146781
0.0146759
0.014675
0.0146732
0.0146726
0.014671
0.0146704
0.0146687
0.014668
0.0146664
0.0146657
0.0146642
0.0146636
0.014662
0.0146614
0.0146598
0.0146591
0.0146577
0.014657
0.0146556
0.0146549
0.0146535
0.0146528
0.0146515
0.0146509
0.0146497
0.0146491
0.0146479
0.0146473
0.0146463
0.0146457
0.0146447
0.0146441
0.0146431
0.0146425
0.0146415
0.0146408
0.0146398
0.0146392
0.0146382
0.0146376
0.0146366
0.014636
0.014635
0.0146343
0.0146334
0.0146327
0.0146318
0.0146311
0.0146301
0.0146295
0.0146285
0.0146278
0.0146269
0.0146262
0.0146253
0.0146246
0.0146237
0.014623
0.0146221
0.0146214
0.0146205
0.0146199
0.014619
0.0146183
0.0146174
0.0146167
0.0146158
0.0146152
0.0146143
0.0146136
0.0146128
0.0146121
0.0146112
0.0146106
0.0146097
0.0146091
0.0146082
0.0146076
0.0146067
0.0146062
0.0146052
0.0146048
0.0146034
0.0146031
0.0138788
0.0143097
0.0143285
0.0143306
0.0143303
0.0143302
0.014329
0.0143281
0.0143269
0.0143262
0.0143253
0.0143245
0.0143234
0.0143224
0.0143212
0.0143204
0.0143193
0.0143185
0.0143174
0.0143164
0.0143153
0.0143144
0.0143132
0.0143123
0.0143112
0.0143102
0.0143091
0.0143082
0.0143071
0.0143062
0.0143053
0.0143045
0.0143036
0.0143029
0.0143021
0.0143014
0.0143006
0.0142999
0.0142992
0.0142985
0.0142977
0.014297
0.0142962
0.0142955
0.0142947
0.014294
0.0142932
0.0142925
0.0142917
0.014291
0.0142902
0.0142895
0.0142887
0.014288
0.0142872
0.0142865
0.0142857
0.014285
0.0142842
0.0142834
0.0142826
0.0142819
0.0142811
0.0142804
0.0142796
0.0142789
0.0142781
0.0142774
0.0142766
0.0142758
0.0142751
0.0142743
0.0142735
0.0142728
0.014272
0.0142713
0.0142705
0.0142699
0.0142691
0.0142684
0.0142676
0.0142669
0.0142661
0.0142654
0.0142645
0.0142639
0.0142629
0.0142623
0.014261
0.0142559
0.0137021
0.014229
0.0142605
0.0142651
0.0142662
0.0142671
0.0142666
0.0142659
0.014265
0.0142644
0.0142639
0.0142633
0.0142626
0.0142616
0.0142607
0.0142598
0.0142591
0.0142582
0.0142575
0.0142565
0.0142556
0.0142546
0.0142537
0.0142527
0.0142518
0.0142508
0.0142498
0.0142488
0.0142479
0.0142469
0.014246
0.0142451
0.0142444
0.0142436