/*--------------------------------*- C++ -*----------------------------------*\
  =========                 |
  \\      /  F ield         | OpenFOAM: The Open Source CFD Toolbox
   \\    /   O peration     | Website:  https://openfoam.org
    \\  /    A nd           | Version:  7
     \\/     M anipulation  |
\*---------------------------------------------------------------------------*/
FoamFile
{
    version     2.0;
    format      ascii;
    class       volVectorField;
    location    "0.255";
    object      UMean;
}
// * * * * * * * * * * * * * * * * * * * * * * * * * * * * * * * * * * * * * //

dimensions      [0 1 -1 0 0 0 0];

internalField   nonuniform List<vector> 
7920
(
(3.01077 0.0874212 -32.3863)
(2.35044 -0.440134 -32.436)
(1.74983 -0.574903 -32.4368)
(1.72954 -0.622696 -32.4462)
(1.54952 -0.63689 -32.4442)
(1.62643 -0.641364 -32.4508)
(1.51998 -0.645221 -32.449)
(1.59892 -0.645116 -32.454)
(1.51723 -0.64689 -32.4527)
(1.58464 -0.646105 -32.4563)
(1.51693 -0.647182 -32.4551)
(1.57289 -0.646314 -32.4576)
(1.516 -0.647037 -32.4564)
(1.56282 -0.646329 -32.4581)
(1.51449 -0.646651 -32.4573)
(1.55486 -0.646731 -32.4582)
(1.50954 -0.643871 -32.4583)
(1.5461 -0.649826 -32.4576)
(1.49516 -0.6029 -32.4609)
(1.3807 -0.59489 -32.4462)
(4.40853 0.892132 -32.4321)
(4.40644 0.775182 -32.4725)
(3.87973 0.722369 -32.4719)
(3.87425 0.663728 -32.4853)
(3.60305 0.643696 -32.4868)
(3.707 0.63543 -32.4985)
(3.54517 0.6326 -32.5005)
(3.6631 0.632009 -32.5098)
(3.54221 0.631862 -32.5118)
(3.64467 0.632216 -32.5187)
(3.54455 0.632328 -32.5201)
(3.62991 0.632541 -32.5242)
(3.54565 0.632488 -32.5247)
(3.61769 0.632745 -32.5265)
(3.54541 0.632227 -32.5268)
(3.61074 0.634224 -32.5268)
(3.53602 0.630407 -32.529)
(3.62798 0.640166 -32.5244)
(3.47714 0.630796 -32.5354)
(3.79846 0.644852 -32.4971)
(4.72573 0.157938 -32.4375)
(5.19422 -0.264404 -32.4678)
(5.0309 -0.40952 -32.4573)
(5.16973 -0.521233 -32.4681)
(4.95772 -0.575102 -32.4674)
(5.06402 -0.603205 -32.4815)
(4.90113 -0.617823 -32.4847)
(5.00492 -0.623998 -32.4979)
(4.88165 -0.626904 -32.5023)
(4.97605 -0.627258 -32.514)
(4.87705 -0.627579 -32.5184)
(4.95783 -0.627226 -32.527)
(4.87525 -0.627439 -32.5294)
(4.94359 -0.626864 -32.534)
(4.874 -0.627899 -32.5352)
(4.93126 -0.62452 -32.5363)
(4.8749 -0.630891 -32.5389)
(4.9116 -0.612585 -32.5357)
(4.87798 -0.629265 -32.5437)
(4.85252 -0.583692 -32.5142)
(4.72523 0.599561 -32.4468)
(5.20112 0.668727 -32.4757)
(5.21489 0.699449 -32.4634)
(5.46846 0.665508 -32.472)
(5.34649 0.647754 -32.4704)
(5.4943 0.633949 -32.4837)
(5.36276 0.625848 -32.4872)
(5.47262 0.621047 -32.5003)
(5.35897 0.618946 -32.5053)
(5.4499 0.617761 -32.5179)
(5.35528 0.61748 -32.5241)
(5.43205 0.617123 -32.5347)
(5.3523 0.617169 -32.5394)
(5.41766 0.6171 -32.5457)
(5.34861 0.616987 -32.5481)
(5.40727 0.618013 -32.5504)
(5.3432 0.61718 -32.5524)
(5.40773 0.621588 -32.5516)
(5.3426 0.627967 -32.5552)
(5.46651 0.66834 -32.5312)
(4.71673 -0.093512 -32.4462)
(5.17336 -0.383912 -32.4731)
(5.23305 -0.476923 -32.4588)
(5.52094 -0.542705 -32.4664)
(5.43316 -0.575883 -32.4635)
(5.60235 -0.594193 -32.4764)
(5.48728 -0.604865 -32.4793)
(5.60313 -0.610285 -32.4922)
(5.49468 -0.613392 -32.4968)
(5.58533 -0.614445 -32.5094)
(5.49256 -0.615008 -32.5157)
(5.56792 -0.614893 -32.5272)
(5.48971 -0.615283 -32.5326)
(5.5527 -0.614487 -32.5402)
(5.48759 -0.616253 -32.5427)
(5.53724 -0.611626 -32.5464)
(5.49246 -0.621133 -32.5474)
(5.51146 -0.599341 -32.5489)
(5.52399 -0.634288 -32.5499)
(5.46685 -0.608352 -32.5304)
(4.70353 0.330902 -32.4498)
(5.12304 0.516737 -32.4766)
(5.19523 0.585876 -32.4623)
(5.49702 0.602744 -32.4696)
(5.42579 0.610665 -32.4666)
(5.60809 0.612368 -32.4793)
(5.50378 0.612922 -32.482)
(5.62658 0.612547 -32.4948)
(5.52315 0.612499 -32.4992)
(5.61613 0.612131 -32.5116)
(5.52521 0.61206 -32.5179)
(5.60102 0.611727 -32.5296)
(5.52358 0.611846 -32.5351)
(5.58641 0.611388 -32.5431)
(5.52159 0.612215 -32.5457)
(5.57166 0.610178 -32.5498)
(5.52496 0.615332 -32.5506)
(5.55318 0.60541 -32.5527)
(5.55571 0.631389 -32.5531)
(5.54707 0.644167 -32.5342)
(4.70353 -0.330903 -32.4498)
(5.12304 -0.516737 -32.4766)
(5.19523 -0.585877 -32.4623)
(5.49702 -0.602745 -32.4696)
(5.42579 -0.610666 -32.4666)
(5.60809 -0.612369 -32.4793)
(5.50378 -0.612922 -32.482)
(5.62658 -0.612547 -32.4948)
(5.52315 -0.612499 -32.4992)
(5.61612 -0.61213 -32.5116)
(5.52521 -0.612059 -32.5179)
(5.60101 -0.61172 -32.5296)
(5.52359 -0.611844 -32.5351)
(5.58638 -0.611353 -32.5431)
(5.52166 -0.612217 -32.5456)
(5.57156 -0.610024 -32.5499)
(5.52513 -0.615358 -32.5505)
(5.55291 -0.604877 -32.5528)
(5.55582 -0.631237 -32.5529)
(5.54645 -0.642955 -32.5343)
(4.71673 0.0935118 -32.4462)
(5.17336 0.383911 -32.4731)
(5.23305 0.476922 -32.4588)
(5.52094 0.542704 -32.4664)
(5.43316 0.575882 -32.4635)
(5.60235 0.594192 -32.4764)
(5.48728 0.604865 -32.4793)
(5.60313 0.610285 -32.4922)
(5.49468 0.613393 -32.4968)
(5.58534 0.614445 -32.5094)
(5.49256 0.615011 -32.5157)
(5.56793 0.614896 -32.5273)
(5.4897 0.615293 -32.5326)
(5.55274 0.61451 -32.5403)
(5.48754 0.616272 -32.5426)
(5.53735 0.611744 -32.5467)
(5.49241 0.621149 -32.547)
(5.51181 0.599868 -32.5494)
(5.52416 0.6345 -32.5493)
(5.46807 0.609794 -32.5312)
(4.72523 -0.599561 -32.4468)
(5.20112 -0.668727 -32.4757)
(5.21489 -0.69945 -32.4634)
(5.46846 -0.665509 -32.472)
(5.34649 -0.647755 -32.4704)
(5.49429 -0.63395 -32.4837)
(5.36276 -0.625849 -32.4872)
(5.47262 -0.621047 -32.5003)
(5.35897 -0.618947 -32.5053)
(5.4499 -0.61776 -32.5179)
(5.35528 -0.617481 -32.524)
(5.43205 -0.617117 -32.5348)
(5.35231 -0.617173 -32.5393)
(5.41766 -0.617067 -32.546)
(5.34867 -0.617004 -32.5477)
(5.40724 -0.617845 -32.5511)
(5.34343 -0.617249 -32.5513)
(5.40762 -0.621082 -32.5533)
(5.34307 -0.62802 -32.5529)
(5.4664 -0.667479 -32.5344)
(4.72573 -0.157938 -32.4375)
(5.19423 0.264403 -32.4678)
(5.0309 0.409519 -32.4573)
(5.16973 0.521232 -32.4681)
(4.95772 0.575102 -32.4674)
(5.06402 0.603205 -32.4815)
(4.90113 0.617823 -32.4847)
(5.00492 0.623997 -32.4979)
(4.88164 0.626905 -32.5023)
(4.97605 0.627258 -32.514)
(4.87705 0.627585 -32.5183)
(4.95785 0.627225 -32.527)
(4.87524 0.627459 -32.5293)
(4.94366 0.626866 -32.5343)
(4.87396 0.627944 -32.5345)
(4.93148 0.624553 -32.5375)
(4.87489 0.630964 -32.5368)
(4.91228 0.612929 -32.5393)
(4.87837 0.629514 -32.5378)
(4.85501 0.585093 -32.5233)
(4.40853 -0.892133 -32.4321)
(4.40644 -0.775183 -32.4725)
(3.87973 -0.722369 -32.4719)
(3.87425 -0.663729 -32.4853)
(3.60304 -0.643696 -32.4868)
(3.707 -0.635431 -32.4985)
(3.54517 -0.632601 -32.5005)
(3.6631 -0.632009 -32.5098)
(3.54221 -0.631864 -32.5118)
(3.64467 -0.632216 -32.5187)
(3.54455 -0.632332 -32.5201)
(3.62992 -0.632536 -32.5242)
(3.54566 -0.632499 -32.5246)
(3.61772 -0.632724 -32.5267)
(3.54547 -0.632255 -32.5264)
(3.61083 -0.634112 -32.5277)
(3.53631 -0.630512 -32.5271)
(3.62809 -0.639843 -32.5284)
(3.47833 -0.631099 -32.5267)
(3.79877 -0.644861 -32.5149)
(3.01077 -0.0874213 -32.3863)
(2.35044 0.440134 -32.436)
(1.74983 0.574903 -32.4368)
(1.72954 0.622695 -32.4462)
(1.54952 0.636889 -32.4442)
(1.62643 0.641364 -32.4508)
(1.51998 0.645221 -32.449)
(1.59892 0.645115 -32.454)
(1.51723 0.646891 -32.4526)
(1.58464 0.646104 -32.4563)
(1.51693 0.647187 -32.4551)
(1.5729 0.64631 -32.4576)
(1.516 0.647054 -32.4564)
(1.56285 0.646312 -32.4581)
(1.51451 0.646697 -32.4572)
(1.55496 0.646659 -32.4585)
(1.50968 0.644015 -32.4578)
(1.54635 0.649708 -32.4588)
(1.49596 0.603432 -32.4579)
(1.38222 0.595737 -32.4558)
(4.35357 0.513865 0.00762304)
(3.32469 0.773711 0.00529737)
(2.73649 0.792795 0.00646638)
(2.38116 0.782325 0.0050762)
(2.31918 0.786152 0.00608182)
(2.24228 0.795423 0.00496657)
(2.26259 0.802256 0.00578303)
(2.23192 0.807282 0.00485439)
(2.2488 0.809059 0.0055139)
(2.23155 0.810554 0.00474035)
(2.23999 0.810609 0.00526933)
(2.23006 0.8112 0.00462499)
(2.23238 0.810914 0.00504485)
(2.22678 0.811382 0.00450914)
(2.22554 0.810562 0.0048379)
(2.22239 0.812753 0.00439392)
(2.21532 0.804529 0.00464737)
(2.24063 0.828231 0.00427992)
(2.1355 0.726513 0.00449637)
(2.60275 0.740232 0.00411083)
(4.70493 -0.123026 0.0051168)
(4.61765 -0.309941 0.00321515)
(4.56013 -0.507601 0.00440695)
(4.34011 -0.651224 0.00304875)
(4.27843 -0.727166 0.00406401)
(4.16831 -0.765538 0.00295518)
(4.16667 -0.781195 0.00377697)
(4.12334 -0.789158 0.00284993)
(4.13587 -0.791726 0.00351244)
(4.11773 -0.793509 0.00273865)
(4.12607 -0.793634 0.00326918)
(4.11758 -0.794297 0.00262379)
(4.11989 -0.79402 0.00304454)
(4.11575 -0.794649 0.00250778)
(4.11467 -0.793933 0.00283717)
(4.11075 -0.79511 0.00239269)
(4.11185 -0.795089 0.0026437)
(4.09449 -0.789873 0.0022808)
(4.12519 -0.809972 0.00244049)
(3.90435 -0.759975 0.0021123)
(4.60074 0.399178 0.00636672)
(4.78471 0.777256 0.00452599)
(4.99993 0.842833 0.00560519)
(4.96754 0.827651 0.00421019)
(4.99811 0.808618 0.00520099)
(4.9335 0.797873 0.00408172)
(4.94391 0.791136 0.0048983)
(4.90856 0.78903 0.00396986)
(4.9194 0.786973 0.00463132)
(4.90356 0.787307 0.00385767)
(4.90976 0.7866 0.00438815)
(4.90284 0.787178 0.00374309)
(4.90306 0.786761 0.00416405)
(4.90122 0.787131 0.00362729)
(4.89491 0.786737 0.00395699)
(4.90114 0.787776 0.00351177)
(4.87793 0.783488 0.00376615)
(4.91805 0.796236 0.00339785)
(4.84085 0.746896 0.00361422)
(4.9944 0.818298 0.00327287)
(4.54821 -0.202524 0.00522636)
(4.68641 -0.400191 0.00360339)
(4.98821 -0.529607 0.0046873)
(5.05632 -0.629887 0.00332152)
(5.16731 -0.691865 0.00431647)
(5.15513 -0.731442 0.00320331)
(5.1924 -0.751908 0.00402353)
(5.17077 -0.764422 0.00309708)
(5.18503 -0.769965 0.00375999)
(5.17072 -0.773467 0.00298691)
(5.176 -0.774391 0.00351798)
(5.16895 -0.775266 0.00287298)
(5.16868 -0.775357 0.00329432)
(5.16566 -0.775283 0.00275762)
(5.16191 -0.776487 0.00308743)
(5.15893 -0.773262 0.00264262)
(5.15868 -0.782687 0.00289356)
(5.13334 -0.760333 0.00252825)
(5.1803 -0.809184 0.00268573)
(4.96778 -0.770279 0.00238047)
(4.55873 0.319035 0.00585609)
(4.68695 0.629956 0.00426679)
(4.97381 0.723591 0.00530449)
(5.05576 0.754815 0.00392526)
(5.18741 0.764916 0.00490724)
(5.19516 0.770537 0.00378751)
(5.24733 0.771401 0.00460381)
(5.23654 0.772588 0.00367565)
(5.25691 0.771714 0.00433736)
(5.24654 0.77227 0.00356392)
(5.25335 0.77161 0.00409453)
(5.24741 0.772047 0.00344968)
(5.24721 0.771655 0.00387093)
(5.24466 0.771786 0.00333447)
(5.23996 0.77205 0.00366421)
(5.2393 0.771062 0.00321945)
(5.23223 0.772898 0.00347202)
(5.22838 0.770249 0.00310438)
(5.24155 0.770948 0.00330274)
(5.19217 0.820983 0.00297713)
(4.55293 -0.257975 0.00549632)
(4.66297 -0.510382 0.00396975)
(4.94839 -0.618829 0.00500632)
(5.03456 -0.68317 0.00363445)
(5.17578 -0.718731 0.004616)
(5.19275 -0.741941 0.00349757)
(5.25277 -0.753401 0.00431475)
(5.24741 -0.761095 0.00338708)
(5.27126 -0.764045 0.00404923)
(5.26288 -0.766533 0.00327592)
(5.27081 -0.766979 0.0038067)
(5.2653 -0.767783 0.00316182)
(5.26561 -0.76783 0.00358313)
(5.26248 -0.76766 0.0030467)
(5.25946 -0.768967 0.00337641)
(5.25469 -0.765519 0.00293192)
(5.25713 -0.773736 0.00318307)
(5.22968 -0.756359 0.00281688)
(5.28118 -0.791601 0.00299103)
(5.12786 -0.797688 0.00267958)
(4.55293 0.257975 0.00549632)
(4.66297 0.510382 0.00396975)
(4.94839 0.618829 0.00500632)
(5.03456 0.68317 0.00363445)
(5.17578 0.718732 0.004616)
(5.19275 0.741942 0.00349757)
(5.25277 0.753401 0.00431475)
(5.24742 0.761096 0.00338708)
(5.27126 0.764046 0.00404923)
(5.26289 0.766535 0.00327592)
(5.2708 0.766982 0.00380671)
(5.26531 0.767789 0.00316182)
(5.26559 0.767837 0.00358315)
(5.26251 0.767688 0.00304667)
(5.2594 0.768986 0.00337647)
(5.25482 0.765635 0.0029318)
(5.257 0.773808 0.00318331)
(5.23006 0.75681 0.00281657)
(5.28114 0.791974 0.0029922)
(5.12871 0.799112 0.00267941)
(4.55873 -0.319035 0.00585609)
(4.68695 -0.629956 0.00426679)
(4.97381 -0.723591 0.00530449)
(5.05576 -0.754815 0.00392526)
(5.18741 -0.764916 0.00490724)
(5.19516 -0.770536 0.00378751)
(5.24733 -0.771401 0.00460381)
(5.23654 -0.772587 0.00367565)
(5.25691 -0.771713 0.00433736)
(5.24654 -0.772267 0.00356392)
(5.25336 -0.771609 0.00409452)
(5.2474 -0.772037 0.00344969)
(5.24723 -0.771655 0.00387089)
(5.24464 -0.771744 0.00333451)
(5.24004 -0.772054 0.00366411)
(5.2392 -0.770913 0.00321961)
(5.23245 -0.772888 0.00347169)
(5.22812 -0.769819 0.00310468)
(5.24188 -0.770669 0.00330155)
(5.1918 -0.819829 0.0029771)
(4.54821 0.202524 0.00522636)
(4.68641 0.400191 0.00360339)
(4.98821 0.529607 0.0046873)
(5.05632 0.629887 0.00332152)
(5.16731 0.691865 0.00431647)
(5.15513 0.731442 0.00320331)
(5.1924 0.751908 0.00402354)
(5.17077 0.764422 0.00309708)
(5.18503 0.769966 0.00375999)
(5.17072 0.773467 0.00298691)
(5.17599 0.774395 0.00351798)
(5.16896 0.775265 0.00287298)
(5.16867 0.77537 0.00329433)
(5.16571 0.775289 0.00275762)
(5.16186 0.776528 0.00308743)
(5.1591 0.773305 0.00264258)
(5.15861 0.782816 0.00289364)
(5.13391 0.760697 0.00252812)
(5.18043 0.809583 0.00268659)
(4.9696 0.771861 0.00238039)
(4.60074 -0.399178 0.00636672)
(4.78471 -0.777256 0.00452599)
(4.99993 -0.842833 0.00560519)
(4.96754 -0.827651 0.00421019)
(4.99811 -0.808618 0.00520099)
(4.9335 -0.797873 0.00408172)
(4.94391 -0.791136 0.0048983)
(4.90856 -0.789029 0.00396986)
(4.9194 -0.786972 0.00463132)
(4.90356 -0.787303 0.00385767)
(4.90977 -0.7866 0.00438814)
(4.90285 -0.787166 0.0037431)
(4.90307 -0.786766 0.004164)
(4.90124 -0.787087 0.00362735)
(4.89496 -0.786758 0.00395683)
(4.90119 -0.78762 0.003512)
(4.87811 -0.783558 0.00376562)
(4.91821 -0.795846 0.00339842)
(4.84134 -0.746931 0.00361267)
(4.99516 -0.817623 0.00327341)
(4.70493 0.123026 0.0051168)
(4.61765 0.309941 0.00321515)
(4.56013 0.507601 0.00440695)
(4.34011 0.651224 0.00304875)
(4.27843 0.727166 0.00406401)
(4.16831 0.765538 0.00295518)
(4.16667 0.781196 0.00377697)
(4.12334 0.789157 0.00284993)
(4.13587 0.791727 0.00351244)
(4.11773 0.793507 0.00273865)
(4.12607 0.793638 0.00326918)
(4.1176 0.794288 0.00262377)
(4.11988 0.794037 0.00304455)
(4.11582 0.794625 0.00250777)
(4.11464 0.793993 0.00283716)
(4.11102 0.795059 0.00239269)
(4.11175 0.795262 0.00264361)
(4.09559 0.789955 0.00228092)
(4.12491 0.810404 0.00244046)
(3.90914 0.761265 0.00211301)
(4.35357 -0.513865 0.00762304)
(3.32469 -0.773711 0.00529738)
(2.73649 -0.792795 0.00646639)
(2.38116 -0.782325 0.0050762)
(2.31918 -0.786153 0.00608182)
(2.24228 -0.795423 0.00496657)
(2.26259 -0.802256 0.00578302)
(2.23192 -0.807281 0.00485439)
(2.2488 -0.80906 0.0055139)
(2.23155 -0.810551 0.00474035)
(2.23999 -0.810612 0.00526933)
(2.23007 -0.811189 0.00462499)
(2.23239 -0.810926 0.00504484)
(2.22681 -0.811346 0.00450915)
(2.22559 -0.810609 0.00483785)
(2.22247 -0.812639 0.00439401)
(2.21555 -0.804698 0.00464708)
(2.24084 -0.827977 0.00428038)
(2.13655 -0.727153 0.00449482)
(2.60352 -0.740952 0.00411397)
(4.37764 0.0757162 0.00170909)
(4.12233 0.103796 0.00222012)
(3.76164 0.103762 0.00134606)
(3.56431 0.0928879 0.00183387)
(3.38956 0.0834153 0.00133527)
(3.35628 0.0810385 0.00167726)
(3.31014 0.082555 0.00134045)
(3.33678 0.0865793 0.00154787)
(3.32376 0.0896797 0.00132678)
(3.35405 0.0921388 0.00144512)
(3.34624 0.0931713 0.00131045)
(3.3724 0.0938343 0.00136798)
(3.36693 0.0939611 0.00129608)
(3.39044 0.0940661 0.00131241)
(3.38526 0.0938285 0.00128738)
(3.4122 0.0947644 0.00127506)
(3.39234 0.0918922 0.00128888)
(3.4549 0.0991018 0.00125267)
(3.34784 0.0841726 0.00127662)
(3.55679 0.106418 0.00129303)
(4.51852 0.0684385 0.0034415)
(4.66255 0.0756763 0.00410958)
(4.6581 0.0558479 0.00323018)
(4.69959 0.0177287 0.00369619)
(4.64782 -0.0210167 0.00317875)
(4.66688 -0.0524072 0.00351297)
(4.6331 -0.0726346 0.00317194)
(4.66289 -0.0843946 0.00337983)
(4.64838 -0.0900613 0.00315874)
(4.68204 -0.0928234 0.00327883)
(4.67611 -0.0938679 0.00314426)
(4.70822 -0.0942787 0.00320283)
(4.70605 -0.0945609 0.00313069)
(4.73622 -0.0940157 0.00314735)
(4.73476 -0.0954703 0.00312241)
(4.76677 -0.0916362 0.00310948)
(4.75799 -0.0994476 0.00312579)
(4.80516 -0.0814152 0.00308652)
(4.76407 -0.108726 0.00315227)
(4.84877 -0.0500694 0.00317469)
(4.49919 0.0367332 0.00205854)
(4.64911 0.0786348 0.00262398)
(4.69902 0.103716 0.00177904)
(4.81724 0.108401 0.00225013)
(4.82984 0.102923 0.00174035)
(4.89088 0.0973897 0.00207961)
(4.87809 0.0942001 0.0017445)
(4.91718 0.0941926 0.00195395)
(4.90574 0.0948558 0.00173476)
(4.94114 0.0958622 0.00185405)
(4.93596 0.0962228 0.00172009)
(4.96944 0.0965396 0.00177793)
(4.9678 0.0963406 0.00170624)
(4.99926 0.0968519 0.00172262)
(4.99877 0.0954057 0.00169755)
(5.0295 0.0989525 0.00168606)
(5.02938 0.09124 0.00169719)
(5.05784 0.108017 0.00167051)
(5.06777 0.082099 0.00167606)
(5.0721 0.133717 0.00170702)
(4.49507 0.033661 0.00304188)
(4.62289 0.0296111 0.00370339)
(4.67155 0.0148806 0.00287605)
(4.79936 -0.0101046 0.00334778)
(4.82871 -0.0354905 0.00282515)
(4.90671 -0.0577148 0.00315611)
(4.90742 -0.0737638 0.00281374)
(4.95582 -0.0843532 0.00302102)
(4.94994 -0.090473 0.00279998)
(4.98822 -0.0938568 0.00291971)
(4.98433 -0.0955518 0.00278546)
(5.01797 -0.0961389 0.00284398)
(5.01687 -0.096797 0.00277226)
(5.04696 -0.0959271 0.00278907)
(5.04922 -0.0978946 0.00276414)
(5.07395 -0.0936096 0.00275246)
(5.08543 -0.101339 0.00276585)
(5.09247 -0.0855985 0.00273696)
(5.13896 -0.106733 0.00279554)
(5.08771 -0.065069 0.00281146)
(4.49583 0.0139329 0.00236609)
(4.62302 0.0420916 0.00298492)
(4.66709 0.0638979 0.00216824)
(4.79258 0.0763964 0.00263383)
(4.82269 0.082455 0.00211167)
(4.90386 0.0867277 0.00244354)
(4.9081 0.0900155 0.00210396)
(4.95965 0.0932168 0.00231228)
(4.956 0.0953697 0.00209245)
(4.99588 0.0968337 0.00221181)
(4.99297 0.0974155 0.0020778)
(5.02725 0.0976705 0.00213586)
(5.02656 0.0976017 0.00206431)
(5.05665 0.0977286 0.00208095)
(5.05952 0.0971235 0.00205598)
(5.08322 0.0985661 0.00204529)
(5.09699 0.095307 0.00205557)
(5.10071 0.102712 0.0020336)
(5.15527 0.0927393 0.00204902)
(5.10285 0.116661 0.00207108)
(4.49468 0.00828949 0.00268787)
(4.61691 -0.00748939 0.00333328)
(4.66047 -0.0251796 0.00252315)
(4.78564 -0.0436918 0.00299288)
(4.81658 -0.0592027 0.00246912)
(4.89923 -0.072267 0.00279976)
(4.90535 -0.0819266 0.00245832)
(4.95864 -0.088862 0.00266609)
(4.95638 -0.0931401 0.00244562)
(4.99715 -0.0956607 0.00256509)
(4.9948 -0.0969189 0.00243093)
(5.02924 -0.0973617 0.00248916)
(5.02882 -0.0977475 0.00241758)
(5.05856 -0.0972791 0.00243432)
(5.06216 -0.0981408 0.00240942)
(5.08446 -0.0963953 0.00239849)
(5.10069 -0.0990611 0.00240989)
(5.10049 -0.0942333 0.00238627)
(5.1607 -0.100172 0.00242447)
(5.10256 -0.0913467 0.00243627)
(4.49468 -0.0082895 0.00268787)
(4.61691 0.00748941 0.00333328)
(4.66047 0.0251796 0.00252315)
(4.78564 0.0436918 0.00299288)
(4.81658 0.0592027 0.00246912)
(4.89923 0.0722672 0.00279976)
(4.90535 0.0819267 0.00245832)
(4.95864 0.0888624 0.0026661)
(4.95638 0.09314 0.00244562)
(4.99715 0.0956628 0.00256509)
(4.9948 0.0969175 0.00243092)
(5.02925 0.0973707 0.00248917)
(5.02882 0.0977407 0.00241756)
(5.05857 0.0973149 0.00243436)
(5.06215 0.0981205 0.00240936)
(5.08448 0.0965212 0.00239862)
(5.10069 0.0990443 0.00240958)
(5.10055 0.0946185 0.00238661)
(5.16076 0.100417 0.00242327)
(5.10273 0.0923727 0.0024367)
(4.49583 -0.013933 0.00236609)
(4.62302 -0.0420916 0.00298492)
(4.66709 -0.063898 0.00216824)
(4.79258 -0.0763964 0.00263383)
(4.82269 -0.082455 0.00211167)
(4.90386 -0.0867275 0.00244354)
(4.90811 -0.0900155 0.00210396)
(4.95965 -0.0932163 0.00231228)
(4.956 -0.09537 0.00209245)
(4.99588 -0.0968314 0.00221181)
(4.99297 -0.0974175 0.0020778)
(5.02724 -0.097661 0.00213585)
(5.02657 -0.0976099 0.00206432)
(5.05664 -0.0976917 0.00208092)
(5.05955 -0.0971474 0.00205601)
(5.0832 -0.0984407 0.00204518)
(5.09707 -0.0953349 0.0020558)
(5.10072 -0.102341 0.0020333)
(5.1554 -0.0925289 0.00205003)
(5.10309 -0.115688 0.0020706)
(4.49507 -0.033661 0.00304188)
(4.62289 -0.0296111 0.00370339)
(4.67155 -0.0148806 0.00287605)
(4.79936 0.0101046 0.00334778)
(4.82871 0.0354905 0.00282515)
(4.90671 0.0577149 0.00315611)
(4.90742 0.073764 0.00281373)
(4.95582 0.0843534 0.00302102)
(4.94994 0.0904732 0.00279998)
(4.98822 0.0938582 0.00291972)
(4.98433 0.0955513 0.00278545)
(5.01798 0.0961454 0.002844)
(5.01688 0.0967925 0.00277224)
(5.04696 0.0959562 0.00278911)
(5.04924 0.097878 0.00276405)
(5.07397 0.0937213 0.0027526)
(5.08549 0.101316 0.0027655)
(5.0926 0.0859654 0.00273729)
(5.13919 0.106914 0.00279428)
(5.08832 0.0660992 0.00281174)
(4.49919 -0.0367332 0.00205854)
(4.64911 -0.0786348 0.00262398)
(4.69902 -0.103716 0.00177904)
(4.81724 -0.108401 0.00225013)
(4.82984 -0.102923 0.00174035)
(4.89088 -0.0973895 0.00207961)
(4.87809 -0.0942001 0.0017445)
(4.91718 -0.0941922 0.00195394)
(4.90574 -0.0948561 0.00173476)
(4.94114 -0.0958603 0.00185405)
(4.93596 -0.0962247 0.00172009)
(4.96944 -0.0965318 0.00177792)
(4.9678 -0.0963486 0.00170623)
(4.99926 -0.0968209 0.00172261)
(4.99879 -0.0954319 0.00169754)
(5.02953 -0.0988443 0.00168603)
(5.02948 -0.0912934 0.0016972)
(5.05799 -0.107694 0.00167043)
(5.06807 -0.0820225 0.00167651)
(5.07287 -0.132877 0.00170683)
(4.51852 -0.0684385 0.0034415)
(4.66255 -0.0756763 0.00410958)
(4.6581 -0.0558479 0.00323018)
(4.69959 -0.0177287 0.00369619)
(4.64782 0.0210168 0.00317875)
(4.66688 0.0524073 0.00351297)
(4.6331 0.0726348 0.00317194)
(4.66289 0.0843945 0.00337983)
(4.64838 0.0900618 0.00315874)
(4.68204 0.0928233 0.00327883)
(4.67611 0.0938691 0.00314425)
(4.70823 0.0942799 0.00320285)
(4.70604 0.0945624 0.00313065)
(4.73628 0.0940272 0.00314743)
(4.73471 0.0954665 0.00312223)
(4.76697 0.0917002 0.00310978)
(4.75788 0.0994301 0.00312515)
(4.80582 0.0816731 0.00308738)
(4.76399 0.108803 0.00315029)
(4.85089 0.0509102 0.00317646)
(4.37764 -0.0757162 0.00170909)
(4.12233 -0.103796 0.00222012)
(3.76164 -0.103762 0.00134606)
(3.56431 -0.092888 0.00183387)
(3.38956 -0.0834154 0.00133527)
(3.35628 -0.0810385 0.00167726)
(3.31014 -0.0825552 0.00134045)
(3.33678 -0.0865793 0.00154787)
(3.32376 -0.08968 0.00132678)
(3.35405 -0.0921383 0.00144512)
(3.34624 -0.0931723 0.00131045)
(3.37241 -0.0938319 0.00136797)
(3.36694 -0.0939648 0.00129608)
(3.39047 -0.0940556 0.00131241)
(3.38527 -0.0938436 0.00128735)
(3.41232 -0.094723 0.00127509)
(3.39238 -0.0919437 0.00128871)
(3.45552 -0.0989708 0.00125291)
(3.34771 -0.0842657 0.00127597)
(3.56034 -0.10615 0.0012941)
(4.37764 0.0757162 -0.0017092)
(4.12233 0.103796 -0.00222024)
(3.76164 0.103762 -0.00134618)
(3.56431 0.092888 -0.00183399)
(3.38956 0.0834154 -0.00133539)
(3.35628 0.0810386 -0.00167738)
(3.31014 0.0825552 -0.00134057)
(3.33678 0.0865795 -0.00154799)
(3.32376 0.0896798 -0.0013269)
(3.35405 0.092139 -0.00144524)
(3.34624 0.0931715 -0.00131057)
(3.3724 0.0938345 -0.0013681)
(3.36693 0.0939613 -0.0012962)
(3.39044 0.0940663 -0.00131253)
(3.38526 0.0938287 -0.0012875)
(3.4122 0.0947645 -0.00127518)
(3.39234 0.0918923 -0.001289)
(3.4549 0.099102 -0.00125279)
(3.34784 0.0841727 -0.00127674)
(3.55679 0.106418 -0.00129315)
(4.51852 0.0684385 -0.00344162)
(4.66255 0.0756763 -0.0041097)
(4.6581 0.0558479 -0.00323029)
(4.69959 0.0177286 -0.00369631)
(4.64782 -0.0210167 -0.00317887)
(4.66688 -0.0524073 -0.00351308)
(4.6331 -0.0726346 -0.00317206)
(4.66289 -0.0843947 -0.00337995)
(4.64838 -0.0900614 -0.00315886)
(4.68204 -0.0928235 -0.00327895)
(4.67611 -0.093868 -0.00314438)
(4.70822 -0.0942788 -0.00320295)
(4.70605 -0.0945611 -0.00313081)
(4.73622 -0.0940158 -0.00314747)
(4.73476 -0.0954704 -0.00312253)
(4.76677 -0.0916363 -0.0031096)
(4.75799 -0.0994478 -0.00312591)
(4.80516 -0.0814154 -0.00308664)
(4.76407 -0.108726 -0.00315239)
(4.84877 -0.0500696 -0.00317481)
(4.49919 0.0367332 -0.00205866)
(4.64911 0.0786348 -0.00262409)
(4.69902 0.103716 -0.00177915)
(4.81724 0.108402 -0.00225025)
(4.82984 0.102923 -0.00174047)
(4.89088 0.0973897 -0.00207973)
(4.87809 0.0942002 -0.00174461)
(4.91718 0.0941927 -0.00195406)
(4.90574 0.0948559 -0.00173487)
(4.94114 0.0958622 -0.00185417)
(4.93596 0.0962229 -0.00172021)
(4.96944 0.0965396 -0.00177804)
(4.9678 0.0963406 -0.00170636)
(4.99926 0.0968519 -0.00172273)
(4.99877 0.0954057 -0.00169767)
(5.0295 0.0989525 -0.00168617)
(5.02938 0.0912401 -0.00169731)
(5.05784 0.108017 -0.00167062)
(5.06777 0.0820991 -0.00167618)
(5.0721 0.133717 -0.00170714)
(4.49507 0.033661 -0.003042)
(4.62289 0.0296111 -0.00370351)
(4.67155 0.0148806 -0.00287616)
(4.79936 -0.0101046 -0.0033479)
(4.82871 -0.0354905 -0.00282527)
(4.90671 -0.0577149 -0.00315622)
(4.90742 -0.0737639 -0.00281385)
(4.95582 -0.0843533 -0.00302114)
(4.94994 -0.0904732 -0.0028001)
(4.98822 -0.0938569 -0.00291983)
(4.98433 -0.095552 -0.00278557)
(5.01797 -0.0961391 -0.0028441)
(5.01687 -0.0967972 -0.00277238)
(5.04696 -0.0959273 -0.00278918)
(5.04922 -0.0978948 -0.00276426)
(5.07394 -0.0936098 -0.00275258)
(5.08543 -0.10134 -0.00276597)
(5.09247 -0.0855987 -0.00273708)
(5.13896 -0.106733 -0.00279566)
(5.08771 -0.0650692 -0.00281158)
(4.49583 0.013933 -0.00236621)
(4.62302 0.0420916 -0.00298503)
(4.66709 0.063898 -0.00216836)
(4.79258 0.0763965 -0.00263394)
(4.82268 0.0824551 -0.00211179)
(4.90386 0.0867277 -0.00244365)
(4.9081 0.0900156 -0.00210408)
(4.95965 0.0932168 -0.0023124)
(4.956 0.0953697 -0.00209257)
(4.99588 0.0968337 -0.00221192)
(4.99297 0.0974155 -0.00207792)
(5.02725 0.0976704 -0.00213597)
(5.02656 0.0976016 -0.00206443)
(5.05665 0.0977286 -0.00208107)
(5.05952 0.0971234 -0.0020561)
(5.08322 0.0985661 -0.00204541)
(5.09699 0.095307 -0.00205569)
(5.10071 0.102712 -0.00203372)
(5.15527 0.0927394 -0.00204914)
(5.10284 0.116661 -0.0020712)
(4.49468 0.0082895 -0.00268798)
(4.61691 -0.00748942 -0.00333339)
(4.66047 -0.0251796 -0.00252326)
(4.78564 -0.0436919 -0.00299299)
(4.81658 -0.0592028 -0.00246924)
(4.89923 -0.0722672 -0.00279988)
(4.90535 -0.0819267 -0.00245844)
(4.95864 -0.0888621 -0.00266621)
(4.95638 -0.0931402 -0.00244574)
(4.99715 -0.0956608 -0.0025652)
(4.9948 -0.0969192 -0.00243104)
(5.02924 -0.097362 -0.00248928)
(5.02882 -0.0977478 -0.0024177)
(5.05856 -0.0972794 -0.00243443)
(5.06215 -0.098141 -0.00240954)
(5.08446 -0.0963955 -0.00239861)
(5.10069 -0.0990612 -0.00241)
(5.10049 -0.0942335 -0.00238639)
(5.1607 -0.100172 -0.00242459)
(5.10256 -0.0913469 -0.00243639)
(4.49468 -0.00828948 -0.00268798)
(4.61691 0.00748942 -0.00333339)
(4.66047 0.0251796 -0.00252326)
(4.78564 0.0436919 -0.00299299)
(4.81658 0.0592028 -0.00246924)
(4.89923 0.0722672 -0.00279988)
(4.90535 0.0819267 -0.00245844)
(4.95864 0.0888625 -0.00266621)
(4.95638 0.09314 -0.00244574)
(4.99715 0.0956628 -0.00256521)
(4.9948 0.0969175 -0.00243104)
(5.02925 0.0973706 -0.00248929)
(5.02881 0.0977406 -0.00241768)
(5.05857 0.0973149 -0.00243447)
(5.06215 0.0981205 -0.00240947)
(5.08448 0.0965212 -0.00239874)
(5.10069 0.0990443 -0.0024097)
(5.10055 0.0946185 -0.00238673)
(5.16076 0.100417 -0.00242339)
(5.10273 0.0923728 -0.00243682)
(4.49583 -0.013933 -0.00236621)
(4.62302 -0.0420916 -0.00298503)
(4.66709 -0.063898 -0.00216836)
(4.79258 -0.0763965 -0.00263394)
(4.82268 -0.082455 -0.00211179)
(4.90386 -0.0867276 -0.00244365)
(4.9081 -0.0900156 -0.00210408)
(4.95965 -0.0932164 -0.0023124)
(4.956 -0.0953701 -0.00209257)
(4.99588 -0.0968315 -0.00221192)
(4.99297 -0.0974177 -0.00207792)
(5.02724 -0.0976612 -0.00213596)
(5.02657 -0.0976101 -0.00206443)
(5.05664 -0.097692 -0.00208104)
(5.05955 -0.0971476 -0.00205613)
(5.0832 -0.0984409 -0.0020453)
(5.09707 -0.095335 -0.00205592)
(5.10072 -0.102341 -0.00203342)
(5.1554 -0.0925291 -0.00205015)
(5.10309 -0.115688 -0.00207072)
(4.49507 -0.033661 -0.003042)
(4.62289 -0.0296111 -0.00370351)
(4.67155 -0.0148806 -0.00287616)
(4.79936 0.0101046 -0.0033479)
(4.82871 0.0354906 -0.00282527)
(4.90671 0.057715 -0.00315623)
(4.90742 0.073764 -0.00281385)
(4.95582 0.0843535 -0.00302114)
(4.94994 0.0904732 -0.0028001)
(4.98822 0.0938582 -0.00291983)
(4.98433 0.0955513 -0.00278557)
(5.01798 0.0961454 -0.00284412)
(5.01688 0.0967925 -0.00277235)
(5.04696 0.0959562 -0.00278923)
(5.04924 0.097878 -0.00276416)
(5.07397 0.0937213 -0.00275272)
(5.08549 0.101316 -0.00276562)
(5.09259 0.0859654 -0.00273742)
(5.13919 0.106914 -0.0027944)
(5.08832 0.0660993 -0.00281186)
(4.49919 -0.0367332 -0.00205866)
(4.64911 -0.0786348 -0.00262409)
(4.69902 -0.103716 -0.00177916)
(4.81724 -0.108402 -0.00225025)
(4.82984 -0.102923 -0.00174047)
(4.89088 -0.0973896 -0.00207973)
(4.87809 -0.0942002 -0.00174461)
(4.91718 -0.0941923 -0.00195406)
(4.90574 -0.0948562 -0.00173487)
(4.94114 -0.0958604 -0.00185416)
(4.93596 -0.0962248 -0.00172021)
(4.96944 -0.0965319 -0.00177804)
(4.9678 -0.0963487 -0.00170635)
(4.99926 -0.0968211 -0.00172272)
(4.99879 -0.0954321 -0.00169766)
(5.02953 -0.0988445 -0.00168615)
(5.02948 -0.0912935 -0.00169733)
(5.05799 -0.107694 -0.00167055)
(5.06807 -0.0820226 -0.00167663)
(5.07287 -0.132877 -0.00170695)
(4.51852 -0.0684385 -0.00344162)
(4.66255 -0.0756763 -0.0041097)
(4.6581 -0.0558479 -0.00323029)
(4.69959 -0.0177286 -0.00369631)
(4.64782 0.0210168 -0.00317887)
(4.66688 0.0524074 -0.00351308)
(4.6331 0.0726349 -0.00317206)
(4.66289 0.0843947 -0.00337995)
(4.64838 0.0900619 -0.00315885)
(4.68204 0.0928235 -0.00327895)
(4.67611 0.0938692 -0.00314437)
(4.70823 0.09428 -0.00320296)
(4.70604 0.0945625 -0.00313076)
(4.73628 0.0940273 -0.00314755)
(4.73471 0.0954666 -0.00312235)
(4.76697 0.0917003 -0.0031099)
(4.75788 0.0994302 -0.00312527)
(4.80581 0.0816732 -0.0030875)
(4.76399 0.108803 -0.00315041)
(4.85089 0.0509103 -0.00317658)
(4.37764 -0.0757162 -0.0017092)
(4.12233 -0.103796 -0.00222024)
(3.76164 -0.103762 -0.00134618)
(3.56431 -0.092888 -0.00183398)
(3.38956 -0.0834154 -0.00133539)
(3.35628 -0.0810385 -0.00167738)
(3.31014 -0.0825551 -0.00134057)
(3.33678 -0.0865792 -0.00154799)
(3.32376 -0.08968 -0.0013269)
(3.35405 -0.0921382 -0.00144524)
(3.34624 -0.0931723 -0.00131057)
(3.37241 -0.0938319 -0.00136809)
(3.36694 -0.0939648 -0.0012962)
(3.39047 -0.0940556 -0.00131252)
(3.38527 -0.0938436 -0.00128747)
(3.41232 -0.094723 -0.00127521)
(3.39238 -0.0919436 -0.00128882)
(3.45552 -0.0989708 -0.00125303)
(3.34771 -0.0842657 -0.00127609)
(3.56034 -0.10615 -0.00129421)
(4.35357 0.513865 -0.00762312)
(3.32469 0.773711 -0.00529746)
(2.73649 0.792795 -0.00646647)
(2.38116 0.782325 -0.00507629)