/*--------------------------------*- C++ -*----------------------------------*\
  =========                 |
  \\      /  F ield         | OpenFOAM: The Open Source CFD Toolbox
   \\    /   O peration     | Website:  https://openfoam.org
    \\  /    A nd           | Version:  7
     \\/     M anipulation  |
\*---------------------------------------------------------------------------*/
FoamFile
{
    version     2.0;
    format      ascii;
    class       surfaceScalarField;
    location    "0.16";
    object      phi_0;
}
// * * * * * * * * * * * * * * * * * * * * * * * * * * * * * * * * * * * * * //

dimensions      [1 0 -1 0 0 0 0];

internalField   nonuniform List<scalar> 
13265
(
0.00266682
0.0011152
1.44404e-05
0.00205015
0.000614716
7.70341e-06
0.00165611
0.000387315
1.26053e-05
0.00147491
0.000179186
7.96959e-06
0.00139647
7.24958e-05
1.19296e-05
0.00137708
1.72936e-05
8.20482e-06
0.00137786
-5.68073e-06
1.1377e-05
0.00138734
-1.07875e-05
8.31589e-06
0.00139512
-1.10416e-05
1.08635e-05
0.00140473
-9.74515e-06
8.35052e-06
0.00141259
-9.40348e-06
1.03968e-05
0.00142253
-8.74501e-06
8.33563e-06
0.00143171
-8.89451e-06
9.97483e-06
0.00144238
-7.93566e-06
8.28549e-06
0.00145378
-9.11365e-06
9.59235e-06
0.00146323
-4.91153e-06
8.21257e-06
0.00147354
-5.83652e-06
9.25952e-06
0.00148604
-5.90235e-06
8.12041e-06
0.00141515
7.75293e-05
9.19597e-06
9.24363e-05
7.76948e-06
0.00133179
0.00396736
0.00093975
3.96837e-06
0.00392243
0.000667436
-2.1757e-06
0.00377523
0.000537915
2.50568e-06
0.00364436
0.000318373
-2.144e-06
0.00356139
0.000159642
1.78339e-06
0.00352935
5.6761e-05
-1.97354e-06
0.00351909
8.74904e-06
1.17987e-06
0.00352284
-6.79084e-06
-1.89739e-06
0.00352633
-8.42546e-06
6.4493e-07
0.00353312
-6.99071e-06
-1.87541e-06
0.00353785
-5.78099e-06
1.68901e-07
0.00354511
-4.84662e-06
-1.89218e-06
0.0035522
-5.69804e-06
-2.6014e-07
0.0035595
-2.50624e-06
-1.93751e-06
0.00357251
-9.81083e-06
-6.61975e-07
0.00357554
6.54046e-06
-1.99751e-06
0.00360679
-2.25142e-05
-1.07992e-06
0.00359689
2.05356e-05
-2.1099e-06
0.0037026
-1.08984e-05
-1.70564e-06
2.92627e-05
-2.95663e-06
0.00378532
0.00419171
0.000531777
1.25147e-05
0.00444811
0.000409512
7.05348e-06
0.00460244
0.000377887
1.15573e-05
0.00467662
0.000243745
6.94079e-06
0.00469951
0.000132406
1.08744e-05
0.00470357
5.11849e-05
7.1629e-06
0.00469738
9.3501e-06
1.03504e-05
0.00469377
-5.70179e-06
7.29357e-06
0.00468913
-7.90033e-06
9.8422e-06
0.00468989
-8.0496e-06
7.32894e-06
0.00468995
-6.96213e-06
9.37682e-06
0.00469446
-7.42579e-06
7.31457e-06
0.00469651
-6.58974e-06
8.95852e-06
0.0047042
-6.53945e-06
7.26264e-06
0.00470524
-7.65668e-06
8.58958e-06
0.0047177
-4.78317e-07
7.18351e-06
0.00470957
-9.07878e-06
8.31939e-06
0.00472055
1.70405e-05
7.09946e-06
0.00469154
2.5276e-05
8.51782e-06
0.000105579
7.05597e-06
0.00462496
0.00414433
0.000179749
3.52943e-06
0.00442093
0.00014031
-1.91958e-06
0.00466923
0.000132936
2.50182e-06
0.00483375
8.79479e-05
-2.1477e-06
0.00492222
4.88681e-05
1.74335e-06
0.00496001
2.10613e-05
-2.02196e-06
0.00496518
7.56087e-06
1.12836e-06
0.00496347
2.27625e-06
-1.95273e-06
0.00495956
6.88161e-07
5.86241e-07
0.00495957
5.79178e-07
-1.93159e-06
0.00496025
3.53043e-07
1.12471e-07
0.00496315
8.54378e-07
-1.94582e-06
0.00496724
-2.11369e-07
-3.16628e-07
0.00497169
1.98515e-06
-1.9909e-06
0.00497952
-2.91467e-06
-7.26385e-07
0.0049882
5.61206e-06
-2.05996e-06
0.00500581
-1.18162e-05
-1.18847e-06
0.00503134
8.42482e-06
-2.23684e-06
0.00509746
-2.30112e-05
-2.08181e-06
-9.12492e-06
-3.04498e-06
0.00523209
0.00414347
-0.000179749
1.22474e-05
0.0044224
-0.00014031
7.15793e-06
0.0046826
-0.000132936
1.1534e-05
0.0048582
-8.79482e-05
6.93816e-06
0.00495183
-4.8869e-05
1.08502e-05
0.00499252
-2.10627e-05
7.13607e-06
0.00500184
-7.56232e-06
1.03245e-05
0.00500341
-2.2773e-06
7.26338e-06
0.00500019
-6.87235e-07
9.81267e-06
0.00500072
-5.7612e-07
7.3007e-06
0.00500018
-3.46502e-07
9.34945e-06
0.00500384
-8.36303e-07
7.28813e-06
0.00500465
2.25331e-07
8.9332e-06
0.00501232
-1.8856e-06
7.23659e-06
0.00500981
2.91103e-06
8.56916e-06
0.00502618
-5.1534e-06
7.15755e-06
0.00500805
1.17115e-05
8.32428e-06
0.00503098
-6.86113e-06
7.07735e-06
0.00499182
2.33391e-05
8.59374e-06
1.29152e-05
7.10181e-06
0.0049796
0.00414433
-0.000531778
3.52943e-06
0.00442093
-0.000409513
-1.91958e-06
0.00466923
-0.000377887
2.50182e-06
0.00483375
-0.000243745
-2.1477e-06
0.00492222
-0.000132407
1.74335e-06
0.00496001
-5.11864e-05
-2.02196e-06
0.00496518
-9.35166e-06
1.12837e-06
0.00496347
5.70072e-06
-1.95273e-06
0.00495956
7.90124e-06
5.86248e-07
0.00495957
8.05201e-06
-1.93159e-06
0.00496025
6.9687e-06
1.12473e-07
0.00496315
7.44024e-06
-1.94581e-06
0.00496724
6.60656e-06
-3.1663e-07
0.00497171
6.62083e-06
-1.9909e-06
0.00497952
7.66643e-06
-7.26396e-07
0.00498828
8.68712e-07
-2.06003e-06
0.00500585
9.01147e-06
-1.18837e-06
0.00503148
-1.55743e-05
-2.2372e-06
0.00509762
-2.49753e-05
-2.08054e-06
-0.000101976
-3.04566e-06
0.00523243
0.00419171
-0.00093975
1.25147e-05
0.00444811
-0.000667436
7.05349e-06
0.00460244
-0.000537915
1.15573e-05
0.00467662
-0.000318373
6.94079e-06
0.00469951
-0.000159643
1.08744e-05
0.00470357
-5.67624e-05
7.16291e-06
0.00469738
-8.75014e-06
1.03504e-05
0.00469377
6.7898e-06
7.2936e-06
0.00468913
8.42594e-06
9.84222e-06
0.00468989
6.99214e-06
7.32895e-06
0.00468995
5.78592e-06
9.37683e-06
0.00469447
4.8564e-06
7.31458e-06
0.00469652
5.7125e-06
8.95852e-06
0.00470424
2.56366e-06
7.26265e-06
0.00470526
9.82649e-06
8.58959e-06
0.00471784
-6.24299e-06
7.18358e-06
0.00470966
2.24667e-05
8.31945e-06
0.00472103
-1.94359e-05
7.09975e-06
0.00469216
1.10466e-05
8.51725e-06
-2.666e-05
7.05594e-06
0.00462657
0.00396736
-0.0011152
3.96837e-06
0.00392243
-0.000614717
-2.17569e-06
0.00377523
-0.000387315
2.50568e-06
0.00364436
-0.000179186
-2.144e-06
0.00356139
-7.24968e-05
1.78339e-06
0.00352935
-1.72949e-05
-1.97353e-06
0.00351909
5.67958e-06
1.17991e-06
0.00352284
1.07866e-05
-1.89737e-06
0.00352633
1.10415e-05
6.4495e-07
0.00353312
9.74518e-06
-1.8754e-06
0.00353785
9.40584e-06
1.68913e-07
0.00354513
8.74743e-06
-1.89219e-06
0.00355222
8.9053e-06
-2.60106e-07
0.00355957
7.94949e-06
-1.93758e-06
0.00357254
9.14483e-06
-6.61825e-07
0.00357582
4.991e-06
-1.99783e-06
0.00360691
5.90577e-06
-1.07934e-06
0.00359777
6.28059e-06
-2.11101e-06
0.00370334
-7.72787e-05
-1.70268e-06
-9.10761e-05
-2.95975e-06
0.00378734
0.00266682
1.44403e-05
0.00205015
7.70334e-06
0.00165611
1.26052e-05
0.00147491
7.96951e-06
0.00139647
1.19295e-05
0.00137708
8.20474e-06
0.00137786
1.13769e-05
0.00138734
8.31581e-06
0.00139512
1.08635e-05
0.00140473
8.35042e-06
0.0014126
1.03967e-05
0.00142254
8.3355e-06
0.00143173
9.97471e-06
0.00144242
8.28534e-06
0.00145384
9.59219e-06
0.00146338
8.21251e-06
0.00147375
9.25914e-06
0.00148665
8.12093e-06
0.00141599
9.19506e-06
7.77086e-06
0.00133409
0.00346929
0.000335946
4.4061e-06
0.00289968
0.000576737
6.26538e-06
0.00242337
0.00049137
3.37712e-06
0.00212292
0.00030922
4.9862e-06
0.00197906
0.000158362
3.04473e-06
0.00192587
6.26837e-05
4.39261e-06
0.0019199
2.04027e-05
3.04336e-06
0.00192432
6.55386e-06
4.03999e-06
0.00193535
4.14258e-06
3.05147e-06
0.00194342
4.55706e-06
3.73771e-06
0.00195436
5.08319e-06
3.02785e-06
0.00196324
5.31226e-06
3.47639e-06
0.00197501
5.27323e-06
2.98678e-06
0.00198523
5.64527e-06
3.25466e-06
0.00200053
3.05124e-06
2.93934e-06
0.0020076
1.06296e-05
3.07019e-06
0.00204567
-1.81153e-05
2.88577e-06
0.00202775
3.76548e-05
2.92665e-06
0.00219444
-0.000144463
2.67172e-06
-7.75559e-05
2.88907e-06
0.00229357
0.00392318
0.000202973
9.26035e-06
0.00400044
0.000492008
1.0879e-05
0.00400275
0.000488723
8.75907e-06
0.00394976
0.000356419
9.78858e-06
0.00390424
0.000202881
8.44201e-06
0.00387441
8.6253e-05
9.25868e-06
0.00386822
2.41647e-05
8.4095e-06
0.00386926
1.53766e-07
8.95262e-06
0.00387804
-5.82694e-06
8.37974e-06
0.003885
-5.3319e-06
8.68622e-06
0.00389472
-4.24658e-06
8.31532e-06
0.00390301
-3.98349e-06
8.45309e-06
0.00391252
-2.63552e-06
8.23719e-06
0.00392309
-4.24388e-06
8.25245e-06
0.00393172
-2.66115e-06
8.16106e-06
0.0039454
-5.48644e-07
8.08023e-06
0.00394655
-1.48463e-05
8.11213e-06
0.0039622
2.64814e-05
7.96167e-06
0.00389194
-6.84068e-05
8.19461e-06
8.90779e-05
8.19997e-06
0.00373091
0.00391556
9.05082e-05
4.57246e-06
0.00412972
0.000284106
6.32423e-06
0.00431522
0.000317004
3.70271e-06
0.00442905
0.000250663
5.20432e-06
0.00448748
0.00015791
3.29686e-06
0.00450241
7.87576e-05
4.56179e-06
0.0045043
3.35933e-05
3.2469e-06
0.00449898
1.329e-05
4.18604e-06
0.0044995
6.18199e-06
3.25904e-06
0.00450054
4.39832e-06
3.89415e-06
0.00450718
3.75419e-06
3.24756e-06
0.00451234
3.98199e-06
3.64466e-06
0.00452258
3.14547e-06
3.20932e-06
0.00452856
4.66655e-06
3.43327e-06
0.00454383
-5.62525e-07
3.15475e-06
0.00454937
1.06191e-05
3.26195e-06
0.00457636
-2.2788e-05
3.06048e-06
0.00459275
2.88348e-05
3.13286e-06
0.00464143
-9.53772e-05
2.66756e-06
2.42606e-06
3.05741e-06
0.00474909
0.00383865
4.1742e-05
9.11775e-06
0.00402213
9.34798e-05
1.07578e-05
0.00424198
9.68797e-05
8.75042e-06
0.00440901
7.8085e-05
9.81853e-06
0.00451847
4.76589e-05
8.45796e-06
0.00456932
2.14245e-05
9.25861e-06
0.00459464
5.10156e-06
8.39236e-06
0.0046037
-2.10125e-06
8.92687e-06
0.00461231
-4.37386e-06
8.35339e-06
0.00461791
-4.4972e-06
8.66099e-06
0.00462608
-4.052e-06
8.29261e-06
0.00463336
-4.14247e-06
8.43128e-06
0.00464143
-3.08193e-06
8.21726e-06
0.00465137
-4.31071e-06
8.23144e-06
0.00465581
-1.84597e-06
8.14508e-06
0.00467238
-3.1581e-06
8.06302e-06
0.00465441
-2.34769e-07
8.11765e-06
0.00467947
8.44988e-06
7.97881e-06
0.00458653
3.10579e-06
8.33623e-06
5.82772e-05
8.24383e-06
0.0045365
0.00388632
-4.17418e-05
4.55515e-06
0.00407963
-9.34793e-05
6.31503e-06
0.00428712
-9.6879e-05
3.76817e-06
0.00445137
-7.80847e-05
5.25838e-06
0.0045601
-4.7659e-05
3.35343e-06
0.00461026
-2.14243e-05
4.59559e-06
0.00463154
-5.10046e-06
3.27305e-06
0.00463487
2.1031e-06
4.20349e-06
0.0046384
4.37716e-06
3.27988e-06
0.00464004
4.50242e-06
3.91005e-06
0.00464653
4.05817e-06
3.26857e-06
0.00465137
4.16178e-06
3.66232e-06
0.00466127
3.09249e-06
3.23001e-06
0.00466752
4.40473e-06
3.45186e-06
0.00468124
1.85643e-06
3.1718e-06
0.00469135
3.5297e-06
3.28125e-06
0.00470996
2.98901e-07
3.06004e-06
0.00474439
-7.16145e-06
3.15319e-06
0.00477175
-2.32373e-06
2.62232e-06
-5.46332e-05
3.05211e-06
0.00490582
0.00383865
-9.0508e-05
9.11775e-06
0.00402213
-0.000284105
1.07578e-05
0.00424198
-0.000317003
8.75042e-06
0.00440901
-0.000250663
9.81853e-06
0.00451847
-0.00015791
8.45797e-06
0.00456932
-7.87574e-05
9.25861e-06
0.00459464
-3.35924e-05
8.39236e-06
0.0046037
-1.32884e-05
8.92686e-06
0.00461231
-6.17898e-06
8.35338e-06
0.00461791
-4.39368e-06
8.66099e-06
0.00462608
-3.74839e-06
8.2926e-06
0.00463336
-3.96441e-06
8.43128e-06
0.00464143
-3.13536e-06
8.21724e-06
0.00465138
-4.57732e-06
8.23146e-06
0.00465582
5.70132e-07
8.14503e-06
0.00467243
-1.02754e-05
8.06312e-06
0.00465446
2.28347e-05
8.11746e-06
0.00467961
-2.76294e-05
7.979e-06
0.00458677
9.60598e-05
8.33578e-06
9.78656e-07
8.2442e-06
0.00453697
0.00391556
-0.000202973
4.57245e-06
0.00412972
-0.000492008
6.32423e-06
0.00431522
-0.000488722
3.70271e-06
0.00442905
-0.000356418
5.20432e-06
0.00448748
-0.000202881
3.29686e-06
0.00450241
-8.62529e-05
4.56179e-06
0.0045043
-2.41642e-05
3.24689e-06
0.00449898
-1.52733e-07
4.18602e-06
0.0044995
5.82928e-06
3.25902e-06
0.00450055
5.33483e-06
3.89413e-06
0.00450718
4.25233e-06
3.24754e-06
0.00451235
3.99419e-06
3.64466e-06
0.00452258
2.65013e-06
3.20929e-06
0.00452861
4.29934e-06
3.43329e-06
0.00454384
2.68629e-06
3.15464e-06
0.00454951
7.96736e-07
3.26194e-06
0.00457644
1.49148e-05
3.06046e-06
0.00459309
-2.55125e-05
3.13256e-06
0.00464183
6.90122e-05
2.66822e-06
-8.60301e-05
3.05721e-06
0.00474984
0.00392318
-0.000335946
9.26035e-06
0.00400044
-0.000576737
1.0879e-05
0.00400275
-0.00049137
8.75907e-06
0.00394976
-0.00030922
9.78858e-06
0.00390424
-0.000158362
8.44201e-06
0.00387441
-6.26837e-05
9.25868e-06
0.00386822
-2.04026e-05
8.4095e-06
0.00386926
-6.55353e-06
8.95261e-06
0.00387804
-4.14157e-06
8.37973e-06
0.003885
-4.55576e-06
8.68621e-06
0.00389473
-5.08022e-06
8.31531e-06
0.00390302
-5.30638e-06
8.45306e-06
0.00391253
-5.26602e-06
8.23721e-06
0.00392313
-5.61091e-06
8.25236e-06
0.00393176
-3.04773e-06
8.16111e-06
0.00394557
-1.04716e-05
8.08011e-06
0.00394677
1.80919e-05
8.11201e-06
0.00396282
-3.70448e-05
7.96196e-06
0.00389303
0.000144561
8.19328e-06
7.85683e-05
8.20175e-06
0.00373407
0.00346929
4.40611e-06
0.00289968
6.26538e-06
0.00242337
3.37712e-06
0.00212292
4.9862e-06
0.00197906
3.04473e-06
0.00192587
4.39262e-06
0.0019199
3.04337e-06
0.00192432
4.03999e-06
0.00193535
3.05147e-06
0.00194342
3.7377e-06
0.00195436
3.02787e-06
0.00196325
3.47634e-06
0.00197503
2.98686e-06
0.00198529
3.25447e-06
0.00200057
2.9396e-06
0.00200783
3.06978e-06
0.00204584
2.88611e-06
0.00202856
2.92625e-06
0.00219531
2.67257e-06
2.88923e-06
0.00229554
0.00365242
0.000151172
-4.4062e-06
0.00341565
0.000254952
-6.26548e-06
0.00315895
0.000269453
-3.37721e-06
0.00296532
0.000209534
-4.98629e-06
0.00285188
0.000124988
-3.04482e-06
0.00280789
5.79959e-05
-4.39271e-06
0.00280049
1.90616e-05
-3.04346e-06
0.00281149
3.37775e-06
-4.04008e-06
0.00282659
-1.92061e-06
-3.05155e-06
0.00284438
-2.51645e-06
-3.73779e-06
0.00286181
-2.90274e-06
-3.02794e-06
0.0028803
-2.3834e-06
-3.47647e-06
0.00289936
-3.20007e-06
-2.98685e-06
0.00291766
-1.15818e-06
-3.25473e-06
0.00294181
-6.74938e-06
-2.93941e-06
0.00295271
7.58658e-06
-3.07026e-06
0.00299484
-2.29644e-05
-2.88584e-06
0.00297854
3.65012e-05
-2.92672e-06
0.00304746
-4.80673e-05
-2.67179e-06
7.36554e-05
-2.88913e-06
0.00299605
0.00386806
9.63888e-05
-9.26045e-06
0.00396492
0.000185383
-1.08791e-05
0.00403343
0.000224527
-8.75917e-06
0.00407259
0.000196312
-9.78869e-06
0.00408816
0.000131991
-8.44211e-06
0.00409877
7.05932e-05
-9.25878e-06
0.00410843
3.06623e-05
-8.4096e-06
0.00412372
1.1199e-05
-8.95271e-06
0.00414098
4.02435e-06
-8.37983e-06
0.0041614
2.11825e-06
-8.68631e-06
0.00418171
2.07005e-06
-8.3154e-06
0.00420363
2.08787e-06
-8.45317e-06
0.00422509
2.07433e-06
-8.23728e-06
0.00424799
3.45129e-06
-8.25253e-06
0.00427124
-1.76287e-06
-8.16114e-06
0.00429375
1.39393e-05
-8.0803e-06
0.00432131
-2.05105e-05
-8.1122e-06
0.00433821
5.02041e-05
-7.96174e-06
0.00436646
-4.40787e-05
-8.19467e-06
0.000121391
-8.20002e-06
0.00435206
0.00385302
4.72679e-05
-4.57255e-06
0.00395785
9.87195e-05
-6.32433e-06
0.00406821
0.00012766
-3.7028e-06
0.00416444
0.000116938
-5.20442e-06
0.00422678
8.19782e-05
-3.29695e-06
0.00426497
4.6102e-05
-4.56188e-06
0.00428601
2.02978e-05
-3.24698e-06
0.00430372
6.79335e-06
-4.18612e-06
0.00432017
3.86455e-07
-3.25911e-06
0.00433927
-1.51674e-06
-3.89422e-06
0.0043591
-2.49827e-06
-3.24763e-06
0.00438034
-2.21893e-06
-3.64474e-06
0.00440241
-3.15165e-06
-3.20939e-06
0.00442504
-1.09093e-06
-3.43335e-06
0.00444814
-6.49205e-06
-3.15482e-06
0.00447526
6.27406e-06
-3.26202e-06
0.00449519
-2.03836e-05
-3.06055e-06
0.00453703
2.95329e-05
-3.13292e-06
0.00455291
-3.86193e-05
-2.66762e-06
6.7603e-05
-3.05747e-06
0.00462996
0.00383941
2.08394e-05
-9.11785e-06
0.00392762
3.75479e-05
-1.07579e-05
0.00403289
4.59971e-05
-8.75052e-06
0.00413383
4.20794e-05
-9.81864e-06
0.00420778
3.06634e-05
-8.45807e-06
0.00425877
1.81828e-05
-9.25871e-06
0.0042905
9.50963e-06
-8.39245e-06
0.00431542
4.62895e-06
-8.92696e-06
0.00433593
2.86748e-06
-8.35348e-06
0.00435723
2.15635e-06
-8.66109e-06
0.00437776
2.32053e-06
-8.2927e-06
0.00439988
2.15946e-06
-8.43137e-06
0.00442115
2.45186e-06
-8.21735e-06
0.00444518
2.56391e-06
-8.23153e-06
0.00446536
1.68149e-06
-8.14516e-06
0.0044953
5.40862e-06
-8.0631e-06
0.00450736
-2.2902e-06
-8.11772e-06
0.0045522
1.55693e-05
-7.97888e-06
0.0045507
-4.43925e-06
-8.3363e-06
3.89769e-05
-8.24389e-06
0.00461296
0.00384554
-2.08393e-05
-4.55524e-06
0.00393878
-3.75475e-05
-6.31513e-06
0.00404441
-4.59965e-05
-3.76826e-06
0.00414553
-4.2079e-05
-5.25848e-06
0.00421929
-3.0663e-05
-3.35352e-06
0.0042694
-1.81821e-05
-4.59568e-06
0.00429911
-9.50909e-06
-3.27313e-06
0.00432167
-4.62804e-06
-4.20358e-06
0.00434025
-2.86725e-06
-3.27997e-06
0.00436005
-2.15092e-06
-3.91014e-06
0.00438001
-2.32434e-06
-3.26866e-06
0.0044013
-2.13357e-06
-3.6624e-06
0.00442315
-2.47665e-06
-3.23009e-06
0.00444631
-2.4461e-06
-3.45193e-06
0.0044682
-1.76823e-06
-3.17187e-06
0.00449814
-4.99236e-06
-3.28132e-06
0.00451376
2.14831e-06
-3.0601e-06
0.00456491
-1.43231e-05
-3.15326e-06
0.00457682
4.92369e-06
-2.62239e-06
-3.58842e-05
-3.05217e-06
0.00467497
0.00383941
-4.72678e-05
-9.11785e-06
0.00392762
-9.87191e-05
-1.07579e-05
0.00403289
-0.000127659
-8.75052e-06
0.00413383
-0.000116938
-9.81864e-06
0.00420778
-8.19779e-05
-8.45807e-06
0.00425877
-4.61014e-05
-9.25872e-06
0.0042905
-2.02973e-05
-8.39246e-06
0.00431542
-6.79251e-06
-8.92697e-06
0.00433593
-3.86102e-07
-8.35348e-06
0.00435723
1.5215e-06
-8.66109e-06
0.00437776
2.495e-06
-8.2927e-06
0.00439988
2.24233e-06
-8.43137e-06
0.00442115
3.12858e-06
-8.21733e-06
0.00444519
1.2008e-06
-8.23155e-06
0.00446536
6.40595e-06
-8.14511e-06
0.00449533
-5.87716e-06
-8.0632e-06
0.0045074
2.02215e-05
-8.11754e-06
0.00455229
-2.83306e-05
-7.97908e-06
0.0045509
3.8991e-05
-8.33585e-06
-6.45959e-05
-8.24427e-06
0.00461325
0.00385302
-9.63887e-05
-4.57255e-06
0.00395785
-0.000185383
-6.32433e-06
0.00406821
-0.000224526
-3.7028e-06
0.00416444
-0.000196312
-5.20441e-06
0.00422678
-0.000131991
-3.29695e-06
0.00426497
-7.05929e-05
-4.56188e-06
0.00428601
-3.0662e-05
-3.24699e-06
0.00430372
-1.11983e-05
-4.18612e-06
0.00432017
-4.02368e-06
-3.25912e-06
0.00433927
-2.115e-06
-3.89423e-06
0.0043591
-2.07179e-06
-3.24763e-06
0.00438034
-2.07026e-06
-3.64474e-06
0.00440241
-2.09195e-06
-3.20937e-06
0.00442506
-3.36146e-06
-3.43337e-06
0.00444815
1.68642e-06
-3.15471e-06
0.00447534
-1.35957e-05
-3.26201e-06
0.00449524
2.03366e-05
-3.06053e-06
0.00453724
-4.91285e-05
-3.13262e-06
0.00455326
4.42987e-05
-2.66828e-06
-0.000118616
-3.05727e-06
0.00463055
0.00386806
-0.000151172
-9.26045e-06
0.00396492
-0.000254952
-1.08791e-05
0.00403343
-0.000269453
-8.75917e-06
0.00407259
-0.000209534
-9.78869e-06
0.00408816
-0.000124988
-8.44211e-06
0.00409877
-5.79958e-05
-9.25878e-06
0.00410843
-1.90614e-05
-8.4096e-06
0.00412372
-3.37734e-06
-8.95271e-06
0.00414098
1.92104e-06
-8.37983e-06
0.0041614
2.51824e-06
-8.68631e-06
0.00418171
2.90148e-06
-8.31541e-06
0.00420364
2.39417e-06
-8.45316e-06
0.00422508
3.1878e-06
-8.23731e-06
0.00424804
1.21456e-06
-8.25246e-06
0.00427122
6.69422e-06
-8.1612e-06
0.00429392
-7.35285e-06
-8.0802e-06
0.00432136
2.28199e-05
-8.11209e-06
0.00433868
-3.57701e-05
-7.96204e-06
0.00436701
4.81487e-05
-8.19336e-06
-7.17666e-05
-8.20183e-06
0.00435354
0.00365242
-4.4062e-06
0.00341565
-6.26548e-06
0.00315895
-3.37721e-06
0.00296532
-4.9863e-06
0.00285188
-3.04482e-06
0.00280789
-4.3927e-06
0.00280049
-3.04345e-06
0.00281149
-4.04007e-06
0.00282659
-3.05155e-06
0.00284438
-3.73778e-06
0.00286181
-3.02795e-06
0.00288031
-3.47642e-06
0.00289935
-2.98693e-06
0.00291773
-3.25454e-06
0.00294179
-2.93966e-06
0.00295297
-3.06984e-06
0.00299491
-2.88617e-06
0.00297937
-2.92631e-06
0.00304833
-2.67263e-06
-2.88927e-06
0.00299891
0.00346929
0.000335946
-1.44403e-05
0.00289968
0.000576737
-7.70342e-06
0.00242337
0.00049137
-1.26053e-05
0.00212292
0.00030922
-7.96959e-06
0.00197906
0.000158362
-1.19296e-05
0.00192587
6.2684e-05
-8.20482e-06
0.0019199
2.0403e-05
-1.1377e-05
0.00192432
6.55402e-06
-8.31588e-06
0.00193535
4.14258e-06
-1.08635e-05
0.00194342
4.55694e-06
-8.35049e-06
0.00195436
5.08301e-06
-1.03968e-05
0.00196324
5.31204e-06
-8.33557e-06
0.00197501
5.27301e-06
-9.97477e-06
0.00198523
5.64505e-06
-8.28541e-06
0.00200053
3.051e-06
-9.59226e-06
0.0020076
1.06294e-05
-8.21246e-06
0.00204567
-1.81155e-05
-9.25939e-06
0.00202775
3.76546e-05
-8.12027e-06
0.00219444
-0.000144463
-9.19581e-06
-7.75562e-05
-7.76931e-06
0.00229356
0.00392318
0.000202973
-3.96844e-06
0.00400044
0.000492008
2.17562e-06
0.00400275
0.000488723
-2.50575e-06
0.00394976
0.000356419
2.14392e-06
0.00390424
0.000202882
-1.78347e-06
0.00387441
8.62534e-05
1.97345e-06
0.00386822
2.41649e-05
-1.17999e-06
0.00386926
1.53546e-07
1.8973e-06
0.00387804
-5.82745e-06
-6.45019e-07
0.003885
-5.33251e-06
1.87533e-06
0.00389472
-4.24717e-06
-1.68978e-07
0.00390301
-3.98405e-06
1.8921e-06
0.00391252
-2.63602e-06
2.6007e-07
0.00392309
-4.24437e-06
1.93745e-06
0.00393172
-2.66162e-06
6.61911e-07
0.0039454
-5.49141e-07
1.99745e-06
0.00394655
-1.48468e-05
1.07986e-06
0.0039622
2.64808e-05
2.10985e-06
0.00389194
-6.84073e-05
1.70559e-06
8.90774e-05
2.95658e-06
0.00373091
0.00391556
9.05082e-05
-1.25148e-05
0.00412972
0.000284105
-7.05357e-06
0.00431522
0.000317003
-1.15574e-05
0.00442905
0.000250663
-6.94086e-06
0.00448748
0.000157911
-1.08745e-05
0.00450241
7.8758e-05
-7.16299e-06
0.0045043
3.35932e-05
-1.03504e-05
0.00449898
1.32894e-05
-7.29366e-06
0.0044995
6.18104e-06
-9.84229e-06
0.00450054
4.39737e-06
-7.32902e-06
0.00450718
3.75341e-06
-9.37689e-06
0.00451234
3.98136e-06
-7.31464e-06
0.00452258
3.14496e-06
-8.95859e-06
0.00452856
4.66607e-06
-7.2627e-06
0.00454383
-5.62945e-07
-8.58964e-06
0.00454937
1.06186e-05
-7.18357e-06
0.00457636
-2.27885e-05
-8.31945e-06
0.00459275
2.88343e-05
-7.09951e-06
0.00464143
-9.53777e-05
-8.51788e-06
2.42555e-06
-7.05602e-06
0.00474909
0.00383865
4.1742e-05
-3.5295e-06
0.00402213
9.34797e-05
1.9195e-06
0.00424198
9.68796e-05
-2.50189e-06
0.00440901
7.80852e-05
2.14763e-06
0.00451847
4.76595e-05
-1.74343e-06
0.00456932
2.14249e-05
2.02189e-06
0.00459464
5.10138e-06
-1.12844e-06
0.0046037
-2.10206e-06
1.95266e-06
0.00461231
-4.37498e-06
-5.86314e-07
0.00461791
-4.49826e-06
1.93152e-06
0.00462608
-4.05283e-06
-1.12538e-07
0.00463336
-4.14311e-06
1.94575e-06
0.00464143
-3.08242e-06
3.16565e-07
0.00465137
-4.31115e-06
1.99084e-06
0.00465581
-1.84635e-06
7.26328e-07
0.00467238
-3.1585e-06
2.05991e-06
0.00465441
-2.35154e-07
1.18842e-06
0.00467947
8.44944e-06
2.23679e-06
0.00458653
3.10538e-06
2.08176e-06
5.82768e-05
3.04494e-06
0.0045365
0.00388632
-4.17418e-05
-1.22475e-05
0.00407963
-9.34794e-05
-7.158e-06
0.00428712
-9.68791e-05
-1.15341e-05
0.00445137
-7.80845e-05
-6.93823e-06
0.0045601
-4.76585e-05
-1.08503e-05
0.00461026
-2.14239e-05
-7.13614e-06
0.00463154
-5.10065e-06
-1.03246e-05
0.00463486
2.1023e-06
-7.26345e-06
0.0046384
4.37608e-06
-9.81274e-06
0.00464004
4.5014e-06
-7.30076e-06
0.00464653
4.05738e-06
-9.34951e-06
0.00465137
4.16118e-06
-7.28819e-06
0.00466127
3.09202e-06
-8.93326e-06
0.00466752
4.40431e-06
-7.23665e-06
0.00468124
1.85606e-06
-8.56922e-06
0.00469135
3.52933e-06
-7.1576e-06
0.00470995
2.98524e-07
-8.32433e-06
0.00474439
-7.16186e-06
-7.0774e-06
0.00477175
-2.32414e-06
-8.59379e-06
-5.46336e-05
-7.10185e-06
0.00490582
0.00383865
-9.05081e-05
-3.5295e-06
0.00402213
-0.000284105
1.91951e-06
0.00424198
-0.000317003
-2.50189e-06
0.00440901
-0.000250663
2.14763e-06
0.00451847
-0.00015791
-1.74342e-06
0.00456932
-7.87571e-05
2.02189e-06
0.00459464
-3.35925e-05
-1.12843e-06
0.0046037
-1.3289e-05
1.95267e-06
0.00461231
-6.17986e-06
-5.86306e-07
0.00461791
-4.39453e-06
1.93153e-06
0.00462608
-3.74909e-06
-1.12533e-07
0.00463336
-3.96496e-06
1.94575e-06
0.00464143
-3.13583e-06
3.16571e-07
0.00465138
-4.57774e-06
1.99084e-06
0.00465582
5.69728e-07
7.2634e-07
0.00467243
-1.02758e-05
2.05998e-06
0.00465446
2.28343e-05
1.18832e-06
0.00467961
-2.76298e-05
2.23717e-06
0.00458677
9.60594e-05
2.0805e-06
9.78204e-07
3.04562e-06
0.00453697
0.00391556
-0.000202973
-1.25148e-05
0.00412972
-0.000492008
-7.05356e-06
0.00431522
-0.000488722
-1.15574e-05
0.00442905
-0.000356418
-6.94086e-06
0.00448748
-0.000202881
-1.08745e-05
0.00450241
-8.62527e-05
-7.16298e-06
0.0045043
-2.41641e-05
-1.03504e-05
0.00449898
-1.52892e-07
-7.29364e-06
0.0044995
5.82891e-06
-9.84227e-06
0.00450055
5.33437e-06
-7.329e-06
0.00450718
4.25187e-06
-9.37688e-06
0.00451235
3.99374e-06
-7.31463e-06
0.00452258
2.6497e-06
-8.95857e-06
0.00452861
4.29893e-06
-7.2627e-06
0.00454384
2.68586e-06
-8.58964e-06
0.00454951
7.96317e-07
-7.18362e-06
0.00457644
1.49144e-05
-8.31949e-06
0.00459309
-2.5513e-05
-7.09979e-06
0.00464183
6.90118e-05
-8.51729e-06
-8.60306e-05
-7.05597e-06
0.00474984
0.00392318
-0.000335946
-3.96844e-06
0.00400044
-0.000576737
2.17562e-06
0.00400275
-0.00049137
-2.50575e-06
0.00394976
-0.00030922
2.14393e-06
0.00390424
-0.000158362
-1.78346e-06
0.00387441
-6.26835e-05
1.97347e-06
0.00386822
-2.04024e-05
-1.17994e-06
0.00386926
-6.55332e-06
1.89732e-06
0.00387804
-4.1415e-06
-6.44998e-07
0.003885
-4.55581e-06
1.87535e-06
0.00389473
-5.08034e-06
-1.6897e-07
0.00390302
-5.30653e-06
1.89213e-06
0.00391253
-5.26619e-06
2.60047e-07
0.00392313
-5.61108e-06
1.93753e-06
0.00393176
-3.04791e-06
6.6177e-07
0.00394557
-1.04718e-05
1.99778e-06
0.00394677
1.80917e-05
1.07929e-06
0.00396282
-3.7045e-05
2.11097e-06
0.00389303
0.000144561
1.70264e-06
7.8568e-05
2.95971e-06
0.00373407
0.00346929
-1.44404e-05
0.00289968
-7.70348e-06
0.00242337
-1.26053e-05
0.00212292
-7.96966e-06
0.00197906
-1.19296e-05
0.00192587
-8.20488e-06
0.0019199
-1.1377e-05
0.00192432
-8.31595e-06
0.00193535
-1.08636e-05
0.00194342
-8.35058e-06
0.00195436
-1.03969e-05
0.00196325
-8.33568e-06
0.00197503
-9.97489e-06
0.00198529
-8.28553e-06
0.00200057
-9.59239e-06
0.00200783
-8.21271e-06
0.00204584
-9.25936e-06
0.00202856
-8.12115e-06
0.00219531
-9.19529e-06
-7.77112e-06
0.00229554
0.00266682
0.0011152
0.00205015
0.000614717
0.00165611
0.000387315
0.00147491
0.000179186
0.00139647
7.24969e-05
0.00137708
1.7295e-05
0.00137786
-5.67928e-06
0.00138734
-1.07862e-05
0.00139512
-1.10405e-05
0.00140473
-9.74419e-06
0.00141259
-9.40259e-06
0.00142253
-8.74411e-06
0.00143171
-8.89357e-06
0.00144238
-7.93467e-06
0.00145378
-9.11259e-06
0.00146323
-4.91036e-06
0.00147354
-5.83532e-06
0.00148604
-5.90102e-06
0.00141515
7.75307e-05
9.24378e-05
0.00133179
0.00396736
0.00093975
0.00392243
0.000667437
0.00377523
0.000537916
0.00364436
0.000318374
0.00356139
0.000159644
0.00352935
5.67627e-05
0.00351909
8.75053e-06
0.00352284
-6.78904e-06
0.00352633
-8.42407e-06
0.00353312
-6.98966e-06
0.00353785
-5.78013e-06
0.00354511
-4.84583e-06
0.0035522
-5.69724e-06
0.0035595
-2.50537e-06
0.00357251
-9.80988e-06
0.00357554
6.54148e-06
0.00360679
-2.25131e-05
0.00359689
2.05367e-05
0.00370259
-1.08971e-05
2.9264e-05
0.00378532
0.00419171
0.000531778
0.00444811
0.000409513
0.00460244
0.000377887
0.00467662
0.000243746
0.00469951
0.000132408
0.00470357
5.11869e-05
0.00469738
9.35239e-06
0.00469377
-5.69978e-06
0.00468913
-7.89882e-06
0.00468989
-8.04849e-06
0.00468995
-6.9613e-06
0.00469446
-7.42508e-06
0.00469651
-6.58902e-06
0.0047042
-6.53871e-06
0.00470524
-7.65583e-06
0.0047177
-4.77425e-07
0.00470957
-9.07781e-06
0.00472055
1.70416e-05
0.00469154
2.52772e-05
0.00010558
0.00462496
0.00414433
0.000179749
0.00442093
0.000140311
0.00466923
0.000132937
0.00483375
8.79487e-05
0.00492222
4.88695e-05
0.00496001
2.10632e-05
0.00496518
7.56319e-06
0.00496347
2.27837e-06
0.00495956
6.89799e-07
0.00495957
5.80368e-07
0.00496025
3.53917e-07
0.00496315
8.55103e-07
0.00496724
-2.10663e-07
0.00497169
1.98588e-06
0.00497952
-2.91384e-06
0.0049882
5.61293e-06
0.00500581
-1.18152e-05
0.00503134
8.42585e-06
0.00509746
-2.301e-05
-9.12371e-06
0.00523209
0.00414347
-0.000179749
0.0044224
-0.00014031
0.0046826
-0.000132936
0.0048582
-8.79473e-05
0.00495183
-4.88676e-05
0.00499252
-2.10607e-05
0.00500184
-7.55997e-06
0.00500341
-2.27513e-06
0.00500019
-6.85558e-07
0.00500072
-5.7489e-07
0.00500018
-3.45589e-07
0.00500383
-8.35538e-07
0.00500465
2.26071e-07
0.00501232
-1.88483e-06
0.00500981
2.91189e-06
0.00502618
-5.15249e-06
0.00500805
1.17125e-05
0.00503097
-6.86009e-06
0.00499182
2.33404e-05
1.29164e-05
0.0049796
0.00414433
-0.000531777
0.00442093
-0.000409512
0.00466923
-0.000377886
0.00483375
-0.000243744
0.00492222
-0.000132406
0.00496001
-5.11844e-05
0.00496518
-9.34925e-06
0.00496347
5.70287e-06
0.00495956
7.90288e-06
0.00495957
8.05325e-06
0.00496025
6.96964e-06
0.00496315
7.44105e-06
0.00496724
6.60737e-06
0.00497171
6.62167e-06
0.00497952
7.66736e-06
0.00498828
8.69697e-07
0.00500584
9.01253e-06
0.00503147
-1.55732e-05
0.00509762
-2.4974e-05
-0.000101975
0.00523243
0.00419171
-0.00093975
0.00444811
-0.000667436
0.00460244
-0.000537915
0.00467662
-0.000318373
0.00469951
-0.000159642
0.00470357
-5.67606e-05
0.00469738
-8.74853e-06
0.00469377
6.79179e-06
0.00468913
8.42751e-06
0.00468989
6.99335e-06
0.00468995
5.78693e-06
0.00469447
4.85733e-06
0.00469652
5.71344e-06
0.00470424
2.56466e-06
0.00470526
9.82758e-06
0.00471784
-6.24185e-06
0.00470966
2.24679e-05
0.00472102
-1.94346e-05
0.00469216
1.10481e-05
-2.66585e-05
0.00462657
0.00396736
-0.0011152
0.00392243
-0.000614716
0.00377523
-0.000387315
0.00364436
-0.000179186
0.00356139
-7.24957e-05
0.00352935
-1.72934e-05
0.00351909
5.68115e-06
0.00352284
1.0788e-05
0.00352633
1.10426e-05
0.00353312
9.7462e-06
0.00353785
9.4068e-06
0.00354513
8.7484e-06
0.00355222
8.9063e-06
0.00355957
7.95054e-06
0.00357254
9.14595e-06
0.00357582
4.9922e-06
0.00360691
5.90705e-06
0.00359777
6.28191e-06
0.00370334
-7.72773e-05
-9.10746e-05
0.00378734
0.00266682
0.00205015
0.00165611
0.00147491
0.00139647
0.00137708
0.00137787
0.00138734
0.00139512
0.00140473
0.0014126
0.00142254
0.00143173
0.00144242
0.00145384
0.00146338
0.00147375
0.00148665
0.001416
0.00133409
0.00129356
3.02297e-05
7.2305e-05
0.00133442
-2.12345e-05
6.43187e-05
0.00140388
-3.40551e-05
6.7765e-05
0.00150267
-3.79389e-05
6.14543e-05
0.00161665
-3.60585e-05
6.33485e-05
0.00174465
-2.84684e-05
5.9213e-05
0.00188281
-2.45276e-05
6.04451e-05
0.00202797
-1.72576e-05
5.776e-05
0.00217466
-1.27137e-05
5.86043e-05
0.00231575
-5.92981e-06
5.68361e-05
0.00244393
-1.57382e-06
5.73802e-05
0.00255206
3.97821e-06
5.61452e-05
0.0026337
6.99218e-06
5.63877e-05
0.00268264
1.02382e-05
5.53805e-05
0.00269511
1.08361e-05
5.5288e-05
0.00267264
1.12295e-05
5.4333e-05
0.00261996
8.98683e-06
5.39288e-05
0.00254526
6.45499e-06
5.29462e-05
0.00245914
1.87637e-06