/*--------------------------------*- C++ -*----------------------------------*\
  =========                 |
  \\      /  F ield         | OpenFOAM: The Open Source CFD Toolbox
   \\    /   O peration     | Website:  https://openfoam.org
    \\  /    A nd           | Version:  7
     \\/     M anipulation  |
\*---------------------------------------------------------------------------*/
FoamFile
{
    version     2.0;
    format      ascii;
    class       volVectorField;
    location    "0.16";
    object      UMean;
}
// * * * * * * * * * * * * * * * * * * * * * * * * * * * * * * * * * * * * * //

dimensions      [0 1 -1 0 0 0 0];

internalField   nonuniform List<vector> 
4950
(
(3.59763 0.349711 -27.0413)
(3.1422 0.0966528 -27.0871)
(2.6088 0.0179287 -27.0961)
(2.59079 -0.0259416 -27.1072)
(2.42711 -0.0342057 -27.1096)
(2.5074 -0.0358071 -27.1152)
(2.4049 -0.0366051 -27.1149)
(2.47885 -0.0364737 -27.1178)
(2.39163 -0.0370204 -27.1167)
(2.45209 -0.036939 -27.1184)
(2.37663 -0.036972 -27.1173)
(2.42633 -0.0374432 -27.1187)
(2.36121 -0.0359275 -27.1178)
(2.4019 -0.0384499 -27.1188)
(2.34544 -0.0316607 -27.1182)
(2.37834 -0.0406357 -27.119)
(2.32659 -0.014225 -27.1188)
(2.34819 -0.0418003 -27.1185)
(2.29984 0.0656071 -27.1209)
(2.17957 0.119136 -27.1042)
(4.56404 0.454789 -27.0657)
(4.76246 0.249897 -27.1087)
(4.51903 0.156743 -27.1201)
(4.5908 0.0730572 -27.1376)
(4.41155 0.0377892 -27.1473)
(4.50989 0.0243439 -27.1604)
(4.37912 0.0209403 -27.1657)
(4.46861 0.0214231 -27.1723)
(4.35701 0.0216164 -27.1731)
(4.43058 0.0225618 -27.1757)
(4.33301 0.022069 -27.1751)
(4.39396 0.023257 -27.1765)
(4.30812 0.0212912 -27.176)
(4.36035 0.0245127 -27.1769)
(4.28171 0.017406 -27.1767)
(4.33431 0.0281606 -27.177)
(4.24738 0.00332773 -27.1778)
(4.33954 0.0326602 -27.1756)
(4.17968 -0.0275601 -27.1811)
(4.49612 -0.0100837 -27.1542)
(4.67189 0.233388 -27.0678)
(5.06247 0.127403 -27.1051)
(5.03051 0.0866902 -27.1121)
(5.20088 0.0261065 -27.1277)
(5.05964 -0.00126487 -27.1369)
(5.16102 -0.0145513 -27.1522)
(5.0276 -0.0187007 -27.1605)
(5.1107 -0.0196364 -27.1707)
(4.99647 -0.0197067 -27.1735)
(5.06576 -0.0196978 -27.1778)
(4.9675 -0.0194759 -27.1775)
(5.02374 -0.0199116 -27.1795)
(4.93971 -0.0188334 -27.1788)
(4.98232 -0.0203302 -27.1802)
(4.91423 -0.0166395 -27.1797)
(4.93602 -0.0196629 -27.1807)
(4.89476 -0.00940603 -27.1808)
(4.8651 -0.00714319 -27.1807)
(4.8758 0.0183569 -27.1822)
(4.72966 0.0968581 -27.1646)
(4.64883 0.139901 -27.0751)
(4.99426 0.08647 -27.1138)
(5.03092 0.0668015 -27.1216)
(5.24361 0.0340539 -27.1367)
(5.13589 0.0181797 -27.1463)
(5.25078 0.010472 -27.1616)
(5.1242 0.00784449 -27.1709)
(5.2091 0.00730266 -27.1814)
(5.09642 0.007132 -27.1852)
(5.16623 0.00734231 -27.1895)
(5.06755 0.00714647 -27.1898)
(5.12569 0.00754165 -27.1915)
(5.03784 0.00683371 -27.1912)
(5.08884 0.00802597 -27.1921)
(5.00709 0.00529434 -27.192)
(5.06005 0.00961243 -27.1926)
(4.97826 -0.00036195 -27.1926)
(5.05455 0.0120542 -27.1926)
(4.98577 -0.0103589 -27.193)
(5.13788 0.00737836 -27.176)
(4.64938 -8.92314e-08 -27.0711)
(4.99423 -8.26794e-08 -27.1071)
(5.03611 -1.01645e-07 -27.113)
(5.25439 -1.05697e-07 -27.1273)
(5.14727 -1.09771e-07 -27.1359)
(5.26268 4.07087e-08 -27.1512)
(5.13626 1.48303e-07 -27.16)
(5.22062 2.09007e-07 -27.1709)
(5.10767 3.83355e-07 -27.1745)
(5.17621 6.29511e-07 -27.1792)
(5.07835 8.33686e-07 -27.1792)
(5.13355 2.30902e-06 -27.1814)
(5.04989 1.75824e-06 -27.1807)
(5.09101 1.14416e-05 -27.1821)
(5.02422 1.49188e-06 -27.1816)
(5.04167 6.1546e-05 -27.1828)
(5.00735 -5.47345e-06 -27.1822)
(4.96069 0.000296928 -27.1834)
(5.00318 6.80068e-05 -27.1826)
(4.81363 0.00073046 -27.1689)
(4.64883 -0.139901 -27.0751)
(4.99426 -0.0864702 -27.1138)
(5.03092 -0.0668018 -27.1216)
(5.24361 -0.034054 -27.1367)
(5.13589 -0.0181799 -27.1463)
(5.25078 -0.0104719 -27.1616)
(5.1242 -0.00784422 -27.1709)
(5.2091 -0.00730227 -27.1814)
(5.09642 -0.00713136 -27.1852)
(5.16623 -0.00734109 -27.1895)
(5.06755 -0.00714448 -27.1898)
(5.12569 -0.00753828 -27.1915)
(5.03784 -0.00682779 -27.1912)
(5.08885 -0.00800881 -27.1922)
(5.00711 -0.00527498 -27.192)
(5.06006 -0.00953666 -27.1926)
(4.97835 0.000427504 -27.1925)
(5.05459 -0.0117705 -27.1929)
(4.98596 0.0107015 -27.1925)
(5.13822 -0.00631404 -27.1768)
(4.67189 -0.233388 -27.0678)
(5.06247 -0.127403 -27.1051)
(5.03051 -0.0866905 -27.1121)
(5.20088 -0.0261067 -27.1277)
(5.05964 0.00126474 -27.1369)
(5.16102 0.0145514 -27.1522)
(5.0276 0.018701 -27.1605)
(5.1107 0.0196368 -27.1707)
(4.99647 0.0197074 -27.1735)
(5.06576 0.0196989 -27.1778)
(4.9675 0.0194774 -27.1775)
(5.02374 0.0199148 -27.1795)
(4.93971 0.0188373 -27.1788)
(4.98233 0.0203475 -27.1803)
(4.91424 0.0166441 -27.1796)
(4.93607 0.0197555 -27.181)
(4.89482 0.00939536 -27.1803)
(4.86528 0.0075602 -27.1817)
(4.87613 -0.0183112 -27.1803)
(4.73058 -0.0954748 -27.1679)
(4.56404 -0.454789 -27.0657)
(4.76246 -0.249897 -27.1087)
(4.51903 -0.156743 -27.1201)
(4.5908 -0.0730573 -27.1376)
(4.41155 -0.0377893 -27.1473)
(4.50989 -0.0243438 -27.1604)
(4.37912 -0.0209401 -27.1657)
(4.46861 -0.0214229 -27.1723)
(4.35701 -0.021616 -27.1731)
(4.43059 -0.0225612 -27.1757)
(4.33301 -0.0220679 -27.1751)
(4.39397 -0.023255 -27.1765)
(4.30813 -0.0212873 -27.176)
(4.36036 -0.024505 -27.1769)
(4.28175 -0.017392 -27.1766)
(4.33437 -0.0281212 -27.1773)
(4.24757 -0.00327603 -27.1769)
(4.33978 -0.0324491 -27.1779)
(4.1803 0.027763 -27.176)
(4.49767 0.010723 -27.1647)
(3.59763 -0.349711 -27.0413)
(3.1422 -0.0966531 -27.0871)
(2.6088 -0.0179289 -27.0961)
(2.59079 0.0259417 -27.1072)
(2.42711 0.0342057 -27.1096)
(2.5074 0.0358073 -27.1152)
(2.4049 0.0366053 -27.1149)
(2.47885 0.036474 -27.1178)
(2.39164 0.0370208 -27.1167)
(2.4521 0.0369394 -27.1184)
(2.37663 0.0369727 -27.1173)
(2.42633 0.0374439 -27.1187)
(2.36122 0.0359294 -27.1178)
(2.40191 0.0384529 -27.1188)
(2.34547 0.0316671 -27.1182)
(2.37841 0.0406445 -27.1191)
(2.32673 0.0142309 -27.1185)
(2.34844 0.0418328 -27.1194)
(2.3005 -0.065637 -27.1181)
(2.18089 -0.118629 -27.1146)
(4.50096 0.135249 0.00565243)
(3.979 0.197895 0.00422817)
(3.59771 0.151009 0.00490433)
(3.36598 0.0945503 0.00399649)
(3.27559 0.0649068 0.00459249)
(3.23703 0.0496858 0.00384823)
(3.22281 0.0439886 0.0043423)
(3.21768 0.0410392 0.00370454)
(3.20469 0.0400501 0.00410889)
(3.20393 0.0392385 0.00356402)
(3.18732 0.0386242 0.00389355)
(3.18864 0.0388832 0.00342956)
(3.17004 0.0371058 0.0036962)
(3.17273 0.0398232 0.00330189)
(3.15259 0.0319265 0.00351629)
(3.15921 0.0442184 0.00318155)
(3.12805 0.00857411 0.00335526)
(3.18008 0.0541473 0.00306938)
(3.04387 -0.0981016 0.00323755)
(3.44448 -0.113418 0.00293111)
(4.56258 0.0675284 0.00389828)
(4.62046 0.140677 0.00275764)
(4.67056 0.0850685 0.00338693)
(4.63984 0.0289078 0.00248648)
(4.62411 -0.0098785 0.00307655)
(4.60464 -0.0266499 0.00233072)
(4.59282 -0.0315329 0.00282503)
(4.58837 -0.0314129 0.00218658)
(4.57362 -0.0305058 0.00259181)
(4.57295 -0.0297017 0.00204623)
(4.55409 -0.0289887 0.00237625)
(4.55465 -0.029301 0.00191213)
(4.53428 -0.0276641 0.00217792)
(4.5335 -0.0301847 0.00178517)
(4.51573 -0.0237503 0.00199434)
(4.50579 -0.0317017 0.00166588)
(4.50186 -0.0127374 0.00181801)
(4.45087 -0.0183693 0.00155067)
(4.49489 0.00531812 0.00161695)
(4.23566 0.109867 0.00137329)
(4.51289 0.0439329 0.0050972)
(4.66941 0.126643 0.00403181)
(4.81231 0.117578 0.00463513)
(4.86502 0.0816429 0.00373176)
(4.88757 0.0520077 0.00431713)
(4.88062 0.0335411 0.0035708)
(4.86629 0.0254416 0.0040658)
(4.85805 0.0218746 0.00342754)
(4.83902 0.0207083 0.00383349)
(4.83692 0.0202006 0.00328767)
(4.8158 0.0198062 0.00361838)
(4.81719 0.0199953 0.00315311)
(4.79341 0.0189213 0.00342121)
(4.79858 0.0204789 0.00302501)
(4.76923 0.015736 0.00324313)
(4.78617 0.0227988 0.00290428)
(4.74065 0.000868963 0.00309123)
(4.79727 0.0277299 0.00279531)
(4.73299 -0.0514477 0.00301044)
(4.85938 -0.0145965 0.00271845)
(4.47942 0.0182413 0.00374272)
(4.57284 0.0448049 0.00278593)
(4.73471 0.0320727 0.00337265)
(4.81695 0.0158334 0.00248142)
(4.87176 0.00176292 0.00305907)
(4.88554 -0.00581515 0.00231072)
(4.88517 -0.0091299 0.0028031)
(4.88446 -0.00999793 0.00216486)
(4.86979 -0.0100316 0.00257033)
(4.86927 -0.00987363 0.00202513)
(4.84984 -0.00964628 0.00235524)
(4.85003 -0.00976905 0.00189129)
(4.82937 -0.00917684 0.00215668)
(4.82719 -0.0100174 0.00176424)
(4.81019 -0.00788305 0.0019716)
(4.79448 -0.00994296 0.00164382)
(4.7969 -0.00458972 0.00178827)
(4.71728 -0.002119 0.00152127)
(4.79266 -1.11559e-05 0.00155015)
(4.48451 0.040893 0.00133132)
(4.50476 5.58484e-08 0.00501351)
(4.63901 3.75559e-08 0.00405505)
(4.78387 9.97458e-08 0.00463655)
(4.85994 3.25177e-08 0.0037383)
(4.90397 3.35591e-08 0.00431703)
(4.91098 6.96793e-08 0.00356874)
(4.90336 1.04633e-07 0.00406264)
(4.89792 6.23847e-08 0.00342412)
(4.87956 1.46e-07 0.00383026)
(4.87766 4.12992e-07 0.00328449)
(4.85632 5.40692e-07 0.00361541)
(4.85781 1.49495e-06 0.00315005)
(4.83366 1.95356e-06 0.00341843)
(4.83933 7.48185e-06 0.00302201)
(4.80953 8.8553e-06 0.00324097)
(4.82703 2.59321e-05 0.00290154)
(4.78532 4.9758e-05 0.00309212)
(4.83297 9.21678e-05 0.00279397)
(4.80255 0.000252635 0.00302063)
(4.8723 0.000400737 0.00272302)
(4.47942 -0.0182414 0.00374272)
(4.57284 -0.0448048 0.00278593)
(4.73471 -0.0320727 0.00337265)
(4.81695 -0.0158334 0.00248142)
(4.87176 -0.00176289 0.00305907)
(4.88554 0.0058154 0.00231072)
(4.88517 0.00913021 0.0028031)
(4.88446 0.00999823 0.00216486)
(4.86979 0.0100319 0.00257033)
(4.86927 0.00987447 0.00202513)
(4.84984 0.00964718 0.00235524)
(4.85003 0.0097728 0.00189129)
(4.82938 0.00917867 0.00215667)
(4.82719 0.0100389 0.00176424)
(4.81019 0.00788434 0.00197159)
(4.7945 0.0100531 0.00164382)
(4.79692 0.00459404 0.00178823)
(4.71736 0.00255216 0.00152124)
(4.79277 0.000219446 0.00155014)
(4.48481 -0.0395775 0.00133115)
(4.51289 -0.0439328 0.0050972)
(4.66941 -0.126643 0.00403181)
(4.81231 -0.117578 0.00463513)
(4.86502 -0.0816428 0.00373176)
(4.88757 -0.0520076 0.00431713)
(4.88062 -0.0335409 0.0035708)
(4.86629 -0.0254414 0.0040658)
(4.85805 -0.0218745 0.00342754)
(4.83902 -0.0207081 0.00383349)
(4.83692 -0.0201999 0.00328767)
(4.8158 -0.0198053 0.00361838)
(4.81719 -0.019993 0.00315311)
(4.79342 -0.018918 0.00342121)
(4.79858 -0.0204663 0.00302502)
(4.76926 -0.0157217 0.0032431)
(4.78619 -0.0227435 0.00290432)
(4.74075 -0.000792015 0.00309112)
(4.7974 -0.0275208 0.00279546)
(4.73327 0.0519102 0.00301006)
(4.86011 0.0154515 0.00271864)
(4.56258 -0.0675284 0.00389828)
(4.62046 -0.140677 0.00275764)
(4.67056 -0.0850684 0.00338693)
(4.63984 -0.0289078 0.00248648)
(4.62411 0.00987851 0.00307655)
(4.60464 0.02665 0.00233072)
(4.59282 0.031533 0.00282503)
(4.58837 0.0314131 0.00218658)
(4.57362 0.0305061 0.00259181)
(4.57295 0.0297022 0.00204623)
(4.55409 0.0289895 0.00237625)
(4.55465 0.0293028 0.00191213)
(4.53429 0.0276661 0.00217792)
(4.53351 0.0301952 0.00178516)
(4.51574 0.0237524 0.00199432)
(4.50588 0.0317587 0.00166587)
(4.50188 0.0127338 0.00181792)
(4.45134 0.0186306 0.00155067)
(4.49491 -0.00523729 0.00161668)
(4.23786 -0.108871 0.00137312)
(4.50096 -0.135249 0.00565244)
(3.979 -0.197895 0.00422817)
(3.59771 -0.151009 0.00490433)
(3.36598 -0.0945503 0.00399649)
(3.27559 -0.0649068 0.00459249)
(3.23703 -0.0496857 0.00384823)
(3.22281 -0.0439886 0.0043423)
(3.21768 -0.0410391 0.00370454)
(3.20469 -0.0400501 0.00410889)
(3.20393 -0.0392386 0.00356402)
(3.18732 -0.038624 0.00389355)
(3.18865 -0.0388825 0.00342956)
(3.17005 -0.0371049 0.0036962)
(3.17274 -0.0398194 0.00330187)
(3.15263 -0.0319232 0.0035163)
(3.15925 -0.044191 0.00318151)
(3.12823 -0.00856081 0.00335521)
(3.18033 -0.0540716 0.00306948)
(3.04436 0.0982126 0.00323675)
(3.44692 0.113444 0.0029329)
(4.42431 0.0408223 -5.08344e-08)
(4.35932 0.0496393 -5.09048e-08)
(4.15942 0.0368115 -5.12367e-08)
(4.12517 0.0179978 -5.16209e-08)
(4.02766 0.00328502 -5.18819e-08)
(4.05789 -0.00360684 -5.17143e-08)
(4.01247 -0.00729226 -5.16834e-08)
(4.05328 -0.00779421 -5.14113e-08)
(4.02077 -0.00866267 -5.1587e-08)
(4.05622 -0.00832242 -5.14339e-08)
(4.02917 -0.00889298 -5.17808e-08)
(4.05907 -0.00838985 -5.16394e-08)
(4.0362 -0.00913457 -5.20399e-08)
(4.06191 -0.00810384 -5.18789e-08)
(4.04149 -0.0100729 -5.22937e-08)
(4.06711 -0.00679187 -5.212e-08)
(4.03865 -0.0140114 -5.25653e-08)
(4.08892 -0.00221573 -5.23961e-08)
(3.99306 -0.0269055 -5.29358e-08)
(4.16278 0.0019269 -5.25763e-08)
(4.48405 0.0401119 -5.06015e-08)
(4.61269 0.0535293 -5.08853e-08)
(4.58677 0.0487313 -5.11718e-08)
(4.66546 0.0337012 -5.1158e-08)
(4.61892 0.0197677 -5.09502e-08)
(4.67202 0.0106309 -5.06007e-08)
(4.63084 0.00666433 -5.07021e-08)
(4.6758 0.00506598 -5.07192e-08)
(4.64259 0.00500601 -5.11809e-08)
(4.68078 0.00487164 -5.12264e-08)
(4.65315 0.00517195 -5.16675e-08)
(4.68532 0.0049539 -5.15716e-08)
(4.66232 0.00534832 -5.19873e-08)
(4.68928 0.00495519 -5.1817e-08)
(4.67063 0.00534962 -5.22909e-08)
(4.69254 0.0064656 -5.20292e-08)
(4.67796 0.00297408 -5.2621e-08)
(4.69513 0.0178691 -5.22839e-08)
(4.68138 -0.00416906 -5.30076e-08)
(4.6883 0.0616821 -5.2497e-08)
(4.47595 0.0139019 -5.06226e-08)
(4.60295 0.024247 -5.09137e-08)
(4.58956 0.0248218 -5.12233e-08)
(4.68904 0.017207 -5.12092e-08)
(4.6577 0.00810899 -5.09444e-08)
(4.71948 0.00199201 -5.05296e-08)
(4.68119 -0.00186274 -5.06722e-08)
(4.72689 -0.00321452 -5.08314e-08)
(4.69328 -0.00411584 -5.14329e-08)
(4.73139 -0.00408933 -5.15726e-08)
(4.70338 -0.00442557 -5.20565e-08)
(4.7359 -0.00416279 -5.19861e-08)
(4.71226 -0.00459319 -5.24014e-08)
(4.74055 -0.00393406 -5.2256e-08)
(4.72005 -0.00537005 -5.27104e-08)
(4.74525 -0.00251769 -5.24727e-08)
(4.72926 -0.0090992 -5.30148e-08)
(4.746 0.00337867 -5.2734e-08)
(4.75643 -0.0183175 -5.33704e-08)
(4.73054 0.0171822 -5.3062e-08)
(4.47354 0.0119449 -5.06193e-08)
(4.58711 0.0166798 -5.08932e-08)
(4.57248 0.0163493 -5.10907e-08)
(4.67429 0.0120718 -5.10943e-08)
(4.64879 0.00762008 -5.10395e-08)
(4.71562 0.00434006 -5.09044e-08)
(4.68111 0.00267515 -5.11629e-08)
(4.72896 0.00188924 -5.12562e-08)
(4.69652 0.00172816 -5.17044e-08)
(4.73506 0.0016269 -5.17153e-08)
(4.70743 0.00170752 -5.21135e-08)
(4.73967 0.0016357 -5.20991e-08)
(4.71673 0.00175448 -5.25613e-08)
(4.74345 0.00167903 -5.27305e-08)
(4.7256 0.00169074 -5.34502e-08)
(4.74491 0.00242046 -5.26977e-08)
(4.73748 0.000707641 -5.30235e-08)
(4.73632 0.00704821 -5.31619e-08)
(4.76465 -0.000879042 -5.34827e-08)
(4.70353 0.0231711 -5.30514e-08)
(4.47429 6.10927e-09 -5.06785e-08)
(4.59317 1.99568e-08 -5.09125e-08)
(4.57841 5.00061e-09 -5.10777e-08)
(4.68037 6.11872e-09 -5.1107e-08)
(4.65354 -1.73333e-08 -5.11442e-08)
(4.71937 3.3281e-08 -5.11229e-08)
(4.68363 3.15288e-08 -5.14293e-08)
(4.73061 4.84318e-08 -5.15002e-08)
(4.69749 5.82184e-09 -5.18606e-08)
(4.73575 4.01877e-07 -5.17882e-08)
(4.70775 -8.11387e-08 -5.21232e-08)
(4.74029 1.78618e-06 -5.19822e-08)
(4.71664 -6.75727e-07 -5.23548e-08)
(4.74486 8.80294e-06 -5.22555e-08)
(4.72474 -1.36877e-06 -5.2759e-08)
(4.74897 3.4652e-05 -5.24644e-08)
(4.73604 1.26428e-05 -5.27379e-08)
(4.74749 0.000118335 -5.26899e-08)
(4.77149 0.000148559 -5.32424e-08)
(4.73543 0.000362441 -5.30164e-08)
(4.47354 -0.011945 -5.06716e-08)
(4.58711 -0.0166798 -5.08897e-08)
(4.57248 -0.0163493 -5.1021e-08)
(4.67429 -0.0120718 -5.10964e-08)
(4.64879 -0.00762011 -5.12377e-08)
(4.71562 -0.00433999 -5.13359e-08)
(4.68111 -0.00267509 -5.16757e-08)
(4.72896 -0.00188914 -5.16967e-08)
(4.69652 -0.00172818 -5.19534e-08)
(4.73506 -0.00162608 -5.17832e-08)
(4.70743 -0.00170785 -5.20571e-08)
(4.73967 -0.00163191 -5.18793e-08)
(4.71673 -0.00175678 -5.22475e-08)
(4.74345 -0.00166026 -5.20885e-08)
(4.72561 -0.00169787 -5.25201e-08)
(4.74491 -0.00234469 -5.23188e-08)
(4.73752 -0.00070046 -5.27513e-08)
(4.73637 -0.00678717 -5.25803e-08)
(4.76475 0.00112586 -5.3117e-08)
(4.70378 -0.0223787 -5.28616e-08)
(4.47595 -0.0139019 -5.07271e-08)
(4.60295 -0.024247 -5.08856e-08)
(4.58956 -0.0248218 -5.09218e-08)
(4.68904 -0.017207 -5.10313e-08)
(4.6577 -0.00810901 -5.1403e-08)
(4.71948 -0.00199195 -5.17725e-08)
(4.68119 0.00186281 -5.22041e-08)
(4.72689 0.00321461 -5.21424e-08)
(4.69328 0.00411586 -5.22385e-08)
(4.73139 0.00408993 -5.19549e-08)
(4.70338 0.00442548 -5.21542e-08)
(4.7359 0.00416561 -5.19518e-08)
(4.71227 0.00459199 -5.23118e-08)
(4.74055 0.00394871 -5.23757e-08)
(4.72008 0.00536592 -5.3019e-08)
(4.74525 0.00257796 -5.2364e-08)
(4.72933 0.00910992 -5.22135e-08)
(4.74609 -0.00316666 -5.24639e-08)
(4.75663 0.0185403 -5.3139e-08)
(4.73107 -0.0165086 -5.28824e-08)
(4.48405 -0.0401119 -5.0688e-08)
(4.61269 -0.0535292 -5.08413e-08)
(4.58677 -0.0487313 -5.09089e-08)
(4.66546 -0.0337011 -5.11118e-08)
(4.61892 -0.0197677 -5.15138e-08)
(4.67202 -0.0106309 -5.18029e-08)
(4.63084 -0.00666427 -5.21689e-08)
(4.6758 -0.00506591 -5.21417e-08)
(4.64259 -0.00500598 -5.23413e-08)
(4.68078 -0.00487124 -5.21562e-08)
(4.65315 -0.00517205 -5.24252e-08)
(4.68532 -0.00495176 -5.22551e-08)
(4.66232 -0.00534989 -5.26251e-08)
(4.68928 -0.00494305 -5.24613e-08)
(4.67065 -0.00535765 -5.28883e-08)
(4.69257 -0.00641118 -5.26758e-08)
(4.67801 -0.00299043 -5.31395e-08)
(4.69537 -0.01767 -5.29354e-08)
(4.68149 0.00427393 -5.34805e-08)
(4.68943 -0.0610252 -5.3248e-08)
(4.42431 -0.0408224 -5.0537e-08)
(4.35932 -0.0496393 -5.08383e-08)
(4.15942 -0.0368115 -5.09139e-08)
(4.12517 -0.0179978 -5.07699e-08)
(4.02765 -0.00328502 -5.07121e-08)
(4.05789 0.00360687 -5.07867e-08)
(4.01247 0.00729229 -5.12487e-08)
(4.05328 0.00779423 -5.14936e-08)
(4.02077 0.00866266 -5.19598e-08)
(4.05622 0.00832257 -5.1967e-08)
(4.02917 0.0088929 -5.23262e-08)
(4.05907 0.00839074 -5.22125e-08)
(4.03621 0.00913367 -5.2596e-08)
(4.06191 0.00810896 -5.24379e-08)
(4.0415 0.0100687 -5.28669e-08)
(4.06718 0.00681696 -5.26793e-08)
(4.03864 0.014 -5.31366e-08)
(4.08948 0.00231119 -5.29715e-08)
(3.99265 0.0269486 -5.34814e-08)
(4.16603 -0.0015979 -5.33417e-08)
(4.50096 0.135249 -0.00565252)
(3.979 0.197895 -0.00422825)
(3.59771 0.151009 -0.00490442)
(3.36598 0.0945503 -0.00399658)
(3.27559 0.0649068 -0.00459258)
(3.23703 0.0496858 -0.00384832)
(3.22281 0.0439886 -0.00434239)
(3.21768 0.0410392 -0.00370463)
(3.20469 0.0400501 -0.00410898)
(3.20393 0.0392385 -0.0035641)
(3.18732 0.0386242 -0.00389364)
(3.18864 0.0388833 -0.00342965)
(3.17004 0.0371058 -0.00369629)
(3.17273 0.0398232 -0.00330198)
(3.15259 0.0319265 -0.00351638)
(3.15921 0.0442184 -0.00318164)
(3.12805 0.00857413 -0.00335535)
(3.18007 0.0541473 -0.00306947)
(3.04387 -0.0981016 -0.00323764)
(3.44448 -0.113418 -0.0029312)
(4.56258 0.0675284 -0.00389836)
(4.62046 0.140677 -0.00275772)
(4.67056 0.0850685 -0.00338702)
(4.63983 0.0289078 -0.00248656)
(4.62411 -0.0098785 -0.00307664)
(4.60464 -0.0266499 -0.00233081)
(4.59282 -0.031533 -0.00282511)
(4.58837 -0.031413 -0.00218667)
(4.57362 -0.0305059 -0.0025919)
(4.57294 -0.0297019 -0.00204632)
(4.55409 -0.0289888 -0.00237634)
(4.55464 -0.0293012 -0.00191222)
(4.53428 -0.0276642 -0.00217801)
(4.5335 -0.0301848 -0.00178526)
(4.51573 -0.0237504 -0.00199443)
(4.50579 -0.0317018 -0.00166597)
(4.50186 -0.0127376 -0.0018181)
(4.45087 -0.0183695 -0.00155076)
(4.49488 0.00531803 -0.00161704)
(4.23566 0.109867 -0.00137338)
(4.51289 0.0439329 -0.00509729)
(4.66941 0.126643 -0.0040319)
(4.81231 0.117578 -0.00463522)
(4.86502 0.0816428 -0.00373184)
(4.88757 0.0520076 -0.00431722)
(4.88062 0.033541 -0.00357089)
(4.86629 0.0254415 -0.00406589)
(4.85805 0.0218746 -0.00342762)
(4.83902 0.0207083 -0.00383357)
(4.83692 0.0202006 -0.00328776)
(4.8158 0.0198062 -0.00361847)
(4.81719 0.0199953 -0.0031532)
(4.79341 0.0189214 -0.0034213)
(4.79858 0.020479 -0.0030251)
(4.76923 0.0157361 -0.00324322)
(4.78617 0.0227989 -0.00290437)
(4.74065 0.000869038 -0.00309132)
(4.79727 0.02773 -0.0027954)
(4.73298 -0.0514476 -0.00301053)
(4.85938 -0.0145965 -0.00271854)
(4.47942 0.0182413 -0.00374281)
(4.57284 0.0448048 -0.00278602)
(4.73471 0.0320727 -0.00337273)
(4.81695 0.0158334 -0.0024815)
(4.87176 0.00176285 -0.00305915)
(4.88554 -0.00581528 -0.00231081)
(4.88517 -0.00913007 -0.00280319)
(4.88446 -0.0099981 -0.00216495)
(4.86979 -0.0100317 -0.00257042)
(4.86927 -0.00987375 -0.00202522)
(4.84984 -0.00964637 -0.00235533)
(4.85003 -0.00976912 -0.00189138)
(4.82937 -0.0091769 -0.00215677)
(4.82719 -0.0100175 -0.00176433)
(4.81019 -0.0078831 -0.00197169)
(4.79448 -0.00994302 -0.00164391)
(4.79689 -0.00458974 -0.00178836)
(4.71728 -0.00211906 -0.00152136)
(4.79265 -1.11709e-05 -0.00155025)
(4.48451 0.040893 -0.00133141)
(4.50476 4.47584e-08 -0.00501359)
(4.63901 -1.77207e-08 -0.00405514)
(4.78387 4.30679e-08 -0.00463664)
(4.85994 -3.09788e-08 -0.00373838)
(4.90397 -2.20085e-08 -0.00431711)
(4.91098 -2.64861e-09 -0.00356883)
(4.90336 4.12064e-08 -0.00406273)
(4.89792 4.90136e-09 -0.00342421)
(4.87956 1.16248e-07 -0.00383034)
(4.87766 4.20374e-07 -0.00328457)
(4.85632 5.77712e-07 -0.0036155)
(4.85781 1.549e-06 -0.00315014)
(4.83366 2.02026e-06 -0.00341852)
(4.83933 7.55108e-06 -0.0030221)
(4.80953 8.92938e-06 -0.00324106)
(4.82703 2.60129e-05 -0.00290163)
(4.78531 4.98413e-05 -0.00309221)
(4.83297 9.22546e-05 -0.00279406)
(4.80255 0.000252734 -0.00302072)
(4.8723 0.000400822 -0.00272311)
(4.47942 -0.0182414 -0.00374281)
(4.57284 -0.0448048 -0.00278602)
(4.73471 -0.0320727 -0.00337273)
(4.81695 -0.0158334 -0.0024815)
(4.87176 -0.00176295 -0.00305915)
(4.88554 0.00581528 -0.00231081)
(4.88517 0.00913006 -0.00280319)
(4.88446 0.00999808 -0.00216495)
(4.86979 0.0100318 -0.00257042)
(4.86927 0.00987438 -0.00202522)
(4.84984 0.00964711 -0.00235533)
(4.85003 0.00977276 -0.00189138)
(4.82937 0.00917863 -0.00215676)
(4.82719 0.0100388 -0.00176433)
(4.81019 0.00788432 -0.00197168)
(4.79449 0.010053 -0.00164391)
(4.79692 0.00459402 -0.00178832)
(4.71736 0.00255213 -0.00152133)
(4.79277 0.000219438 -0.00155023)
(4.48481 -0.0395775 -0.00133124)
(4.51289 -0.0439328 -0.00509729)
(4.66941 -0.126643 -0.0040319)
(4.81231 -0.117578 -0.00463522)
(4.86502 -0.0816429 -0.00373184)
(4.88757 -0.0520077 -0.00431722)
(4.88062 -0.033541 -0.00357088)
(4.86629 -0.0254415 -0.00406589)
(4.85805 -0.0218746 -0.00342762)
(4.83902 -0.0207081 -0.00383357)
(4.83692 -0.0201999 -0.00328776)
(4.8158 -0.0198052 -0.00361847)
(4.81719 -0.0199929 -0.0031532)
(4.79342 -0.0189179 -0.0034213)
(4.79858 -0.0204663 -0.00302511)
(4.76926 -0.0157217 -0.00324319)
(4.78619 -0.0227434 -0.00290441)
(4.74075 -0.000791965 -0.00309121)
(4.7974 -0.0275207 -0.00279555)
(4.73327 0.0519102 -0.00301015)
(4.86011 0.0154515 -0.00271874)
(4.56258 -0.0675284 -0.00389836)
(4.62046 -0.140677 -0.00275772)
(4.67056 -0.0850684 -0.00338702)
(4.63983 -0.0289078 -0.00248656)
(4.62411 0.00987855 -0.00307664)
(4.60464 0.02665 -0.00233081)
(4.59282 0.031533 -0.00282511)
(4.58837 0.031413 -0.00218667)
(4.57362 0.030506 -0.0025919)
(4.57294 0.0297021 -0.00204632)
(4.55409 0.0289894 -0.00237634)
(4.55465 0.0293027 -0.00191222)
(4.53429 0.027666 -0.00217801)
(4.53351 0.0301951 -0.00178525)
(4.51574 0.0237523 -0.00199441)
(4.50588 0.0317586 -0.00166596)
(4.50188 0.0127337 -0.00181801)
(4.45134 0.0186305 -0.00155076)
(4.49491 -0.00523735 -0.00161677)
(4.23786 -0.108871 -0.00137321)
(4.50096 -0.135249 -0.00565252)
(3.979 -0.197895 -0.00422825)
(3.59771 -0.151009 -0.00490442)
(3.36598 -0.0945503 -0.00399658)
(3.27559 -0.0649068 -0.00459257)
(3.23703 -0.0496857 -0.00384832)
(3.22281 -0.0439886 -0.00434239)
(3.21768 -0.0410391 -0.00370463)
(3.20469 -0.0400501 -0.00410898)
(3.20393 -0.0392386 -0.0035641)
(3.18732 -0.038624 -0.00389364)
(3.18865 -0.0388825 -0.00342965)
(3.17005 -0.0371049 -0.00369628)
(3.17274 -0.0398195 -0.00330196)
(3.15263 -0.0319233 -0.00351639)
(3.15925 -0.0441911 -0.0031816)
(3.12823 -0.00856082 -0.00335531)
(3.18033 -0.0540716 -0.00306957)
(3.04436 0.0982126 -0.00323685)
(3.44692 0.113444 -0.00293299)
(3.59763 0.349711 27.0413)
(3.1422 0.096653 27.0871)
(2.6088 0.0179289 27.0961)
(2.59079 -0.0259416 27.1072)
(2.42711 -0.0342057 27.1096)
(2.5074 -0.0358073 27.1152)
(2.4049 -0.0366053 27.1149)
(2.47885 -0.036474 27.1178)
(2.39163 -0.0370207 27.1167)
(2.45209 -0.0369393 27.1184)
(2.37663 -0.0369723 27.1173)
(2.42632 -0.0374435 27.1187)
(2.36121 -0.0359278 27.1178)
(2.40189 -0.0384502 27.1188)
(2.34544 -0.031661 27.1182)
(2.37834 -0.040636 27.119)
(2.32659 -0.0142253 27.1188)
(2.34819 -0.0418006 27.1185)
(2.29984 0.0656069 27.1209)
(2.17957 0.119136 27.1042)
(4.56404 0.454789 27.0657)
(4.76246 0.249897 27.1087)
(4.51903 0.156743 27.1201)
(4.5908 0.0730573 27.1376)
(4.41155 0.0377893 27.1473)
(4.50989 0.0243439 27.1604)
(4.37912 0.0209402 27.1657)
(4.4686 0.0214229 27.1723)
(4.35701 0.0216162 27.1731)
(4.43058 0.0225615 27.1757)
(4.33301 0.0220687 27.1751)
(4.39396 0.0232567 27.1765)
(4.30812 0.021291 27.176)
(4.36035 0.0245124 27.1769)
(4.28171 0.0174057 27.1767)
(4.33431 0.0281604 27.177)
(4.24738 0.00332746 27.1778)
(4.33954 0.0326599 27.1756)
(4.17968 -0.0275605 27.1811)
(4.49612 -0.0100841 27.1542)
(4.67189 0.233388 27.0678)
(5.06247 0.127403 27.1051)
(5.03051 0.0866905 27.1121)
(5.20088 0.0261067 27.1277)
(5.05963 -0.00126475 27.1369)
(5.16101 -0.0145513 27.1522)
(5.0276 -0.0187009 27.1605)
(5.1107 -0.0196368 27.1707)
(4.99647 -0.0197072 27.1735)
(5.06576 -0.0196982 27.1778)
(4.9675 -0.0194763 27.1775)
(5.02374 -0.0199121 27.1795)
(4.9397 -0.0188339 27.1788)
(4.98232 -0.0203307 27.1802)
(4.91422 -0.01664 27.1797)
(4.93602 -0.0196634 27.1807)
(4.89475 -0.00940648 27.1808)
(4.86509 -0.00714367 27.1807)
(4.8758 0.0183565 27.1822)
(4.72966 0.0968576 27.1646)
(4.64883 0.139901 27.0751)
(4.99426 0.0864702 27.1138)
(5.03092 0.0668018 27.1216)
(5.24361 0.034054 27.1367)
(5.13589 0.0181798 27.1463)
(5.25078 0.010472 27.1616)
(5.1242 0.00784437 27.1709)
(5.2091 0.00730241 27.1814)
(5.09642 0.00713168 27.1852)
(5.16622 0.00734194 27.1895)
(5.06754 0.0071461 27.1898)
(5.12569 0.00754126 27.1915)
(5.03784 0.00683333 27.1912)
(5.08884 0.00802558 27.1921)
(5.00709 0.00529397 27.192)
(5.06005 0.00961202 27.1926)
(4.97826 -0.000362329 27.1926)
(5.05455 0.0120538 27.1926)
(4.98577 -0.0103593 27.193)
(5.13788 0.00737792 27.176)
(4.64938 6.79708e-08 27.0711)
(4.99423 6.11514e-08 27.1071)
(5.03611 2.0166e-07 27.113)
(5.25439 9.96468e-08 27.1273)
(5.14727 1.04198e-07 27.1359)
(5.26268 8.45961e-08 27.1512)
(5.13626 3.10843e-08 27.16)
(5.22062 -6.62922e-08 27.1709)
(5.10767 3.71679e-08 27.1745)
(5.17621 2.16467e-07 27.1792)
(5.07835 3.99952e-07 27.1792)
(5.13355 1.85753e-06 27.1814)
(5.04989 1.30407e-06 27.1807)
(5.091 1.09855e-05 27.1821)
(5.02421 1.04613e-06 27.1816)
(5.04167 6.11011e-05 27.1828)
(5.00735 -5.85697e-06 27.1822)
(4.96069 0.000296419 27.1834)
(5.00317 6.7579e-05 27.1826)
(4.81363 0.000729923 27.1689)
(4.64883 -0.139901 27.0751)
(4.99426 -0.08647 27.1138)
(5.03092 -0.0668015 27.1216)
(5.24361 -0.0340539 27.1367)
(5.13589 -0.0181797 27.1463)
(5.25078 -0.0104719 27.1616)
(5.1242 -0.00784431 27.1709)
(5.2091 -0.00730249 27.1814)
(5.09642 -0.00713164 27.1852)
(5.16623 -0.00734142 27.1895)
(5.06754 -0.00714483 27.1898)
(5.12569 -0.00753864 27.1915)
(5.03784 -0.00682813 27.1912)
(5.08884 -0.00800917 27.1922)
(5.0071 -0.00527533 27.192)
(5.06005 -0.00953702 27.1926)
(4.97834 0.000427154 27.1925)
(5.05458 -0.0117708 27.1929)
(4.98596 0.0107012 27.1925)
(5.13822 -0.00631438 27.1768)
(4.67189 -0.233388 27.0678)
(5.06247 -0.127403 27.1051)
(5.03051 -0.0866902 27.1121)
(5.20088 -0.0261065 27.1277)
(5.05963 0.00126491 27.1369)
(5.16101 0.0145514 27.1522)
(5.0276 0.0187009 27.1605)
(5.1107 0.0196365 27.1707)
(4.99647 0.0197071 27.1735)
(5.06576 0.0196985 27.1778)
(4.9675 0.019477 27.1775)
(5.02374 0.0199143 27.1795)
(4.93971 0.0188368 27.1788)
(4.98233 0.020347 27.1803)
(4.91424 0.0166437 27.1796)
(4.93607 0.0197551 27.181)
(4.89482 0.00939493 27.1803)
(4.86528 0.00755975 27.1817)
(4.87612 -0.0183116 27.1803)
(4.73058 -0.0954753 27.1679)
(4.56404 -0.454789 27.0657)
(4.76246 -0.249897 27.1087)
(4.51903 -0.156743 27.1201)
(4.5908 -0.0730572 27.1376)
(4.41155 -0.0377892 27.1473)
(4.50989 -0.0243438 27.1604)
(4.37912 -0.0209402 27.1657)
(4.46861 -0.021423 27.1723)
(4.35701 -0.0216162 27.1731)
(4.43058 -0.0225614 27.1757)
(4.33301 -0.0220681 27.1751)
(4.39396 -0.0232552 27.1765)
(4.30813 -0.0212876 27.176)
(4.36036 -0.0245052 27.1769)
(4.28174 -0.0173922 27.1766)
(4.33437 -0.0281214 27.1773)
(4.24757 -0.00327622 27.1769)
(4.33978 -0.0324493 27.1779)
(4.1803 0.0277628 27.176)
(4.49766 0.0107228 27.1647)
(3.59763 -0.349711 27.0413)
(3.1422 -0.0966529 27.0871)
(2.6088 -0.0179287 27.0961)
(2.59079 0.0259417 27.1072)
(2.42711 0.0342058 27.1096)
(2.5074 0.0358072 27.1152)
(2.4049 0.0366052 27.1149)
(2.47885 0.0364738 27.1178)
(2.39163 0.0370205 27.1167)
(2.45209 0.0369392 27.1184)
(2.37663 0.0369725 27.1173)
(2.42633 0.0374437 27.1187)
(2.36122 0.0359292 27.1178)
(2.40191 0.0384527 27.1188)
(2.34547 0.0316669 27.1182)
(2.3784 0.0406443 27.1191)
(2.32673 0.0142307 27.1185)
(2.34844 0.0418326 27.1194)
(2.30049 -0.0656372 27.1181)
(2.18089 -0.118629 27.1146)
(1.69027 -0.132541 -27.1587)
(1.68992 -0.13778 -27.2025)
(1.61732 -0.105843 -27.2065)
(1.6366 -0.10107 -27.2072)
(1.58502 -0.0999543 -27.2067)
(1.60165 -0.0994518 -27.2067)
(1.55941 -0.0995028 -27.2063)
(1.57581 -0.0992603 -27.206)
(1.5418 -0.099336 -27.2056)
(1.55879 -0.0991372 -27.205)
(1.5317 -0.0991938 -27.2045)
(1.54946 -0.0990177 -27.2037)
(1.52799 -0.0990589 -27.2031)
(1.54616 -0.0989 -27.2022)
(1.52882 -0.0989311 -27.2015)
(1.54663 -0.0987888 -27.2005)
(1.53193 -0.098816 -27.1998)
(1.54848 -0.0986915 -27.1988)
(1.53514 -0.0987199 -27.198)
(1.54984 -0.0986134 -27.1969)
(1.53727 -0.098645 -27.1962)
(1.55028 -0.0985538 -27.1951)
(1.53865 -0.0985866 -27.1943)
(1.55072 -0.098505 -27.1933)
(1.54068 -0.0985346 -27.1924)
(1.55264 -0.0984575 -27.1914)
(1.54443 -0.0984807 -27.1905)
(1.55634 -0.0984061 -27.1894)
(1.54949 -0.0984242 -27.1885)
(1.56074 -0.0983549 -27.1874)
(1.55441 -0.0983724 -27.1865)
(1.56435 -0.0983109 -27.1854)
(1.55813 -0.0983295 -27.1845)
(1.56699 -0.0982753 -27.1834)
(1.56135 -0.0982934 -27.1824)
(1.56985 -0.0982425 -27.1813)
(1.56519 -0.0982556 -27.1804)
(1.57364 -0.098205 -27.1793)
(1.56988 -0.0982135 -27.1783)
(1.5779 -0.0981654 -27.1772)
(1.57436 -0.0981727 -27.1762)
(1.5814 -0.0981287 -27.1751)