/*--------------------------------*- C++ -*----------------------------------*\
  =========                 |
  \\      /  F ield         | OpenFOAM: The Open Source CFD Toolbox
   \\    /   O peration     | Website:  https://openfoam.org
    \\  /    A nd           | Version:  7
     \\/     M anipulation  |
\*---------------------------------------------------------------------------*/
FoamFile
{
    version     2.0;
    format      ascii;
    class       surfaceScalarField;
    location    "0.0925";
    object      phi;
}
// * * * * * * * * * * * * * * * * * * * * * * * * * * * * * * * * * * * * * //

dimensions      [1 0 -1 0 0 0 0];

internalField   nonuniform List<scalar> 
2748
(
0.00198769
1.01418e-05
0.00195969
2.79893e-05
0.0019172
4.24906e-05
0.00186316
5.40347e-05
0.00180024
6.29232e-05
0.00173113
6.91067e-05
0.00165843
7.26959e-05
0.00158439
7.40412e-05
0.00151074
7.36453e-05
0.00143884
7.19049e-05
0.00136966
6.91754e-05
0.00130398
6.56731e-05
0.00124213
6.18526e-05
0.00118435
5.77801e-05
0.00113076
5.35823e-05
0.00108138
4.93778e-05
0.00103613
4.52573e-05
0.00099484
4.12837e-05
0.000957338
3.75008e-05
0.000923398
3.39386e-05
0.00089278
3.06162e-05
0.000865233
2.7545e-05
0.000840505
2.47269e-05
0.000818344
2.21593e-05
0.000798508
1.98347e-05
0.000780765
1.77415e-05
0.000764897
1.58659e-05
0.000750702
1.41932e-05
0.000737993
1.27076e-05
0.000726599
1.13927e-05
0.000716363
1.02331e-05
0.000707148
9.21373e-06
0.000698829
8.3194e-06
0.000691291
7.53584e-06
0.000684435
6.85057e-06
0.00067818
6.25267e-06
0.000672453
5.73163e-06
0.000667179
5.27707e-06
0.000662293
4.87979e-06
0.000657748
4.53281e-06
0.000653513
4.23072e-06
0.000649556
3.96885e-06
0.000645838
3.74189e-06
0.000642311
3.54365e-06
0.000638933
3.36873e-06
0.000635688
3.21411e-06
0.00063258
3.07922e-06
0.000629625
2.9645e-06
0.000626832
2.86977e-06
0.000624198
2.79334e-06
0.000621707
2.73206e-06
0.000619335
2.68203e-06
0.000617057
2.63932e-06
0.000614852
2.60062e-06
0.000612706
2.56354e-06
0.000610609
2.52668e-06
0.000608557
2.48941e-06
0.000606549
2.45165e-06
0.000604583
2.41354e-06
0.00060266
2.37543e-06
0.000600782
2.33774e-06
0.000598949
2.30102e-06
0.00059716
2.26587e-06
0.000595413
2.23287e-06
0.000593708
2.20254e-06
0.000592041
2.17526e-06
0.000590409
2.15121e-06
0.00058881
2.13041e-06
0.000587241
2.11268e-06
0.000585697
2.09766e-06
0.000584177
2.08478e-06
0.000582679
2.07314e-06
0.000581201
2.06162e-06
0.000579745
2.04912e-06
0.000578312
2.0349e-06
0.000576902
2.01871e-06
0.000575519
2.00061e-06
0.000574163
1.98064e-06
0.000572835
1.95844e-06
0.000571537
1.93339e-06
0.000570271
1.90495e-06
0.00056904
1.87304e-06
0.000567848
1.83815e-06
0.000566697
1.80105e-06
0.000565588
1.76223e-06
0.000564524
1.72148e-06
0.000563505
1.67793e-06
0.000562533
1.63042e-06
0.000561612
1.57818e-06
0.000560746
1.52118e-06
0.000559939
1.46006e-06
0.000559195
1.3957e-06
0.000558517
1.32891e-06
0.000557907
1.26023e-06
0.000557367
1.18996e-06
0.000556896
1.11839e-06
0.000556496
1.04618e-06
0.000556162
9.74759e-07
0.000555892
9.0651e-07
0.000555679
8.44321e-07
0.000555514
7.90825e-07
0.000555387
7.47363e-07
0.000555289
7.14225e-07
0.000555212
6.90649e-07
0.000555148
6.76029e-07
0.00055509
6.69213e-07
0.000555033
6.69024e-07
0.000554972
6.7365e-07
0.000554906
6.80379e-07
0.000554834
6.87016e-07
0.00055476
6.90318e-07
0.000554688
6.89213e-07
0.000554621
6.8358e-07
0.000554566
6.721e-07
0.000554523
6.6019e-07
0.000554498
6.41458e-07
0.000554486
6.2795e-07
0.000554495
6.06208e-07
0.000554516
5.9382e-07
5.71843e-07
0.00200168
6.28548e-06
0.00201097
1.86921e-05
0.00202371
2.97547e-05
0.00203827
3.94675e-05
0.00205318
4.80129e-05
0.00206698
5.53056e-05
0.00207854
6.11368e-05
0.00208718
6.53933e-05
0.00209268
6.81505e-05
0.002095
6.95782e-05
0.00209431
6.98627e-05
0.00209078
6.92015e-05
0.00208485
6.77854e-05
0.00207687
6.57524e-05
0.00206721
6.32416e-05
0.0020562
6.03909e-05
0.00204413
5.73227e-05
0.00203127
5.41367e-05
0.00201786
5.09139e-05
0.00200408
4.77194e-05
0.00199009
4.46054e-05
0.00197602
4.16133e-05
0.00196197
3.87714e-05
0.00194803
3.60994e-05
0.00193425
3.3609e-05
0.00192069
3.13047e-05
0.00190736
2.91856e-05
0.00189431
2.7247e-05
0.00188153
2.54814e-05
0.00186905
2.38795e-05
0.00185685
2.24303e-05
0.00184494
2.11222e-05
0.00183331
1.9943e-05
0.00182197
1.88802e-05
0.00181089
1.79224e-05
0.00180008
1.70588e-05
0.00178953
1.62794e-05
0.00177924
1.55741e-05
0.00176918
1.49341e-05
0.00175936
1.43513e-05
0.00174977
1.38194e-05
0.0017404
1.33348e-05
0.00173125
1.28927e-05
0.0017223
1.24872e-05
0.00171356
1.21134e-05
0.001705
1.17682e-05
0.00169663
1.14494e-05
0.00168844
1.11553e-05
0.00168042
1.08839e-05
0.00167259
1.0633e-05
0.00166493
1.03998e-05
0.00165744
1.01811e-05
0.00165013
9.97364e-06
0.001643
9.77415e-06
0.00163603
9.57998e-06
0.00162923
9.38938e-06
0.00162259
9.20145e-06
0.00161612
9.01575e-06
0.0016098
8.83203e-06
0.00160363
8.65023e-06
0.00159762
8.47055e-06
0.00159177
8.2934e-06
0.00158607
8.1193e-06
0.00158052
7.94872e-06
0.00157512
7.78206e-06
0.00156987
7.61971e-06
0.00156476
7.46202e-06
0.00155979
7.30922e-06
0.00155497
7.16121e-06
0.00155028
7.01763e-06
0.00154575
6.87776e-06
0.00154136
6.74057e-06
0.00153712
6.60472e-06
0.001533
6.46875e-06
0.00152901
6.33151e-06
0.00152514
6.19255e-06
0.0015214
6.05196e-06
0.00151781
5.90984e-06
0.00151438
5.76566e-06
0.00151111
5.61807e-06
0.00150798
5.4654e-06
0.00150496
5.30659e-06
0.00150206
5.14175e-06
0.00149928
4.97215e-06
0.00149663
4.7992e-06
0.00149416
4.62329e-06
0.00149187
4.44314e-06
0.00148977
4.25643e-06
0.00148784
4.06119e-06
0.00148606
3.857e-06
0.00148442
3.6451e-06
0.00148289
3.42765e-06
0.00148149
3.20693e-06
0.00148024
2.98508e-06
0.00147914
2.7639e-06
0.00147823
2.54487e-06
0.00147749
2.32958e-06
0.00147693
2.12098e-06
0.00147652
1.92445e-06
0.00147625
1.74669e-06
0.00147608
1.59385e-06
0.00147596
1.46822e-06
0.00147588
1.36991e-06
0.0014758
1.29651e-06
0.00147572
1.24789e-06
0.00147562
1.22179e-06
0.00147551
1.21667e-06
0.00147538
1.22751e-06
0.00147525
1.24595e-06
0.00147511
1.26561e-06
0.00147498
1.2727e-06
0.00147486
1.26954e-06
0.00147475
1.25014e-06
0.00147466
1.22204e-06
0.00147457
1.1906e-06
0.00147451
1.14522e-06
0.00147445
1.11901e-06
0.00147442
1.06422e-06
0.00147441
1.03601e-06
9.92869e-07
0.00199957
4.53372e-06
0.00200504
1.3216e-05
0.00201357
2.12247e-05
0.0020247
2.8333e-05
0.00203822
3.44932e-05
0.00205381
3.97178e-05
0.00207097
4.39771e-05
0.00208912
4.72327e-05
0.00210776
4.95154e-05
0.0021264
5.09301e-05
0.00214467
5.15985e-05
0.00216225
5.1613e-05
0.00217898
5.10602e-05
0.00219468
5.00415e-05
0.00220927
4.8654e-05
0.00222267
4.69856e-05
0.00223488
4.51152e-05
0.0022459
4.31116e-05
0.00225578
4.10337e-05
0.00226457
3.89312e-05
0.00227233
3.68456e-05
0.00227913
3.48109e-05
0.00228504
3.2853e-05
0.00229015
3.09909e-05
0.00229452
2.92377e-05
0.00229822
2.76015e-05
0.00230132
2.60856e-05
0.00230387
2.46901e-05
0.00230594
2.34125e-05
0.00230757
2.22483e-05
0.00230881
2.11916e-05
0.00230969
2.02354e-05
0.00231026
1.93719e-05
0.00231055
1.85932e-05
0.00231058
1.78912e-05
0.00231038
1.72583e-05
0.00230997
1.66877e-05
0.00230937
1.61722e-05
0.00230859
1.57054e-05
0.00230766
1.52809e-05
0.00230659
1.48898e-05
0.00230539
1.45354e-05
0.00230406
1.42162e-05
0.00230262
1.39252e-05
0.00230108
1.36587e-05
0.00229943
1.3414e-05
0.00229769
1.31891e-05
0.00229586
1.29828e-05
0.00229395
1.27932e-05
0.00229196
1.26178e-05
0.0022899
1.24548e-05
0.00228778
1.23017e-05
0.0022856
1.21559e-05
0.00228335
1.20143e-05
0.00228106
1.18748e-05
0.00227871
1.17356e-05
0.00227632
1.15958e-05
0.00227389
1.14549e-05
0.00227141
1.13126e-05
0.0022689
1.11688e-05
0.00226635
1.1024e-05
0.00226378
1.08786e-05
0.00226118
1.07329e-05
0.00225855
1.05871e-05
0.00225591
1.04413e-05
0.00225326
1.02958e-05
0.0022506
1.01515e-05
0.00224793
1.00089e-05
0.00224526
9.86816e-06
0.00224259
9.72881e-06
0.00223993
9.58975e-06
0.00223727
9.44987e-06
0.00223462
9.3082e-06
0.00223197
9.16381e-06
0.00222935
9.01583e-06
0.00222675
8.86348e-06
0.00222417
8.70618e-06
0.00222162
8.54348e-06
0.0022191
8.37489e-06
0.00221662
8.19965e-06
0.00221419
8.01674e-06
0.0022118
7.8252e-06
0.00220945
7.62456e-06
0.00220714
7.41512e-06
0.00220487
7.19761e-06
0.00220264
6.97242e-06
0.00220048
6.73887e-06
0.00219839
6.49531e-06
0.00219639
6.24008e-06
0.00219448
5.9726e-06
0.00219265
5.69361e-06
0.00219091
5.40484e-06
0.00218926
5.10867e-06
0.0021877
4.80827e-06
0.00218623
4.50701e-06
0.00218483
4.20748e-06
0.00218348
3.91112e-06
0.00218217
3.61959e-06
0.00218092
3.33746e-06
0.00217978
3.0717e-06
0.00217881
2.83073e-06
0.00217805
2.61798e-06
0.00217749
2.43526e-06
0.00217706
2.27866e-06
0.00217668
2.14885e-06
0.00217624
2.04281e-06
0.00217571
1.96067e-06
0.00217508
1.9016e-06
0.00217446
1.85363e-06
0.00217393
1.82237e-06
0.0021736
1.77535e-06
0.00217352
1.73652e-06
0.00217368
1.66334e-06
0.00217401
1.58985e-06
0.00217439
1.50707e-06
0.00217476
1.39692e-06
0.00217492
1.35681e-06
0.00217501
1.22877e-06
0.0021748
1.24555e-06
1.09933e-06
0.00199949
2.85672e-06
0.00200425
8.4521e-06
0.00201177
1.3708e-05
0.00202168
1.84235e-05
0.00203366
2.25102e-05
0.00204741
2.59593e-05
0.00206261
2.87755e-05
0.00207889
3.09544e-05
0.0020959
3.25089e-05
0.00211333
3.34905e-05
0.00213096
3.39723e-05
0.00214855
3.40181e-05
0.00216593
3.36805e-05
0.00218294
3.30313e-05
0.00219944
3.21482e-05
0.00221533
3.10922e-05
0.00223053
2.99114e-05
0.002245
2.86464e-05
0.0022587
2.73323e-05
0.00227163
2.60004e-05
0.00228379
2.46777e-05
0.00229521
2.33856e-05
0.00230593
2.21406e-05
0.00231596
2.09546e-05
0.00232536
1.9836e-05
0.00233417
1.87903e-05
0.00234243
1.78202e-05
0.0023502
1.69259e-05
0.0023575
1.61062e-05
0.00236439
1.53586e-05
0.0023709
1.46797e-05
0.00237707
1.40655e-05
0.00238293
1.35113e-05
0.00238851
1.30122e-05
0.00239383
1.25631e-05
0.00239893
1.21594e-05
0.00240382
1.17967e-05
0.00240852
1.14706e-05
0.00241305
1.11767e-05
0.00241741
1.0911e-05
0.00242163
1.06706e-05
0.00242571
1.04546e-05
0.00242966
1.02616e-05
0.0024335
1.00888e-05
0.00243722
9.9333e-06
0.00244084
9.793e-06
0.00244436
9.66673e-06
0.00244779
9.55486e-06
0.00245112
9.45631e-06
0.00245437
9.36597e-06
0.00245754
9.28408e-06
0.00246063
9.20888e-06
0.00246365
9.13822e-06
0.00246659
9.07014e-06
0.00246946
9.00314e-06
0.00247226
8.9363e-06
0.00247498
8.86861e-06
0.00247764
8.79918e-06
0.00248022
8.72762e-06
0.00248274
8.65401e-06
0.00248518
8.57877e-06
0.00248756
8.50233e-06
0.00248987
8.42488e-06
0.00249211
8.34633e-06
0.00249428
8.26662e-06
0.00249638
8.18605e-06
0.00249843
8.10519e-06
0.00250041
8.02455e-06
0.00250234
7.94416e-06
0.00250421
7.86354e-06
0.00250602
7.78197e-06
0.00250778
7.69883e-06
0.00250948
7.61364e-06
0.00251113
7.52582e-06
0.00251272
7.4346e-06
0.00251425
7.33904e-06
0.00251572
7.23824e-06
0.00251713
7.13152e-06
0.00251848
7.01846e-06
0.00251978
6.89877e-06
0.00252104
6.77216e-06
0.00252225
6.6382e-06
0.0025234
6.49648e-06
0.0025245
6.34667e-06
0.00252554
6.18863e-06
0.00252653
6.02216e-06
0.00252748
5.84681e-06
0.00252837
5.66196e-06
0.00252918
5.46698e-06
0.0025299
5.26147e-06
0.00253052
5.04529e-06
0.00253106
4.81888e-06
0.00253157
4.58385e-06
0.00253208
4.34332e-06
0.0025326
4.10125e-06
0.00253309
3.86077e-06
0.00253353
3.62321e-06
0.00253386
3.38856e-06
0.00253411
3.15836e-06
0.00253432
2.93619e-06
0.00253454
2.72899e-06
0.00253476
2.5418e-06
0.00253495
2.37926e-06
0.002535
2.24005e-06
0.00253487
2.12234e-06
0.00253461
2.02163e-06
0.00253436
1.93226e-06
0.00253437
1.85825e-06
0.00253477
1.7885e-06
0.00253562
1.73904e-06
0.00253666
1.68225e-06
0.00253762
1.6387e-06
0.00253814
1.57552e-06
0.00253796
1.49814e-06
0.00253727
1.42283e-06
0.00253608
1.29823e-06
0.00253525
1.24098e-06
0.00253469
1.11714e-06
0.00253509
1.0905e-06
1.00501e-06
0.00199928
1.39293e-06
0.00200358
4.15081e-06
0.00201052
6.75823e-06
0.00201982
9.12189e-06
0.00203117
1.11631e-05
0.00204424
1.2883e-05
0.00205873
1.42915e-05
0.00207429
1.53911e-05
0.00209061
1.61868e-05
0.0021074
1.66976e-05
0.00212441
1.69552e-05
0.00214144
1.69938e-05
0.00215827
1.68446e-05
0.00217476
1.65419e-05
0.00219078
1.61231e-05
0.00220625
1.56239e-05
0.00222109
1.50687e-05
0.00223526
1.44715e-05
0.00224875
1.38454e-05
0.00226154
1.32069e-05
0.00227364
1.25693e-05
0.00228509
1.19431e-05
0.00229589
1.1337e-05
0.00230608
1.07577e-05
0.00231571
1.02102e-05
0.0023248
9.69764e-06
0.00233339
9.22162e-06
0.00234154
8.78246e-06
0.00234926
8.37962e-06
0.00235661
8.01196e-06
0.00236361
7.67786e-06
0.00237029
7.37533e-06
0.0023767
7.10216e-06
0.00238286
6.85599e-06
0.00238878
6.63446e-06
0.00239451
6.43524e-06
0.00240005
6.25614e-06
0.00240542
6.09507e-06
0.00241064
5.95008e-06
0.00241573
5.81961e-06
0.0024207
5.70239e-06
0.00242556
5.59759e-06
0.00243031
5.5047e-06
0.00243498
5.42298e-06
0.00243956
5.35136e-06
0.00244406
5.28888e-06
0.00244849
5.2349e-06
0.00245285
5.18902e-06
0.00245716
5.15041e-06
0.00246141
5.11756e-06
0.0024656
5.0896e-06
0.00246974
5.06545e-06
0.00247383
5.04378e-06
0.00247788
5.02305e-06
0.00248188
5.00163e-06
0.00248583
4.98046e-06
0.00248974
4.95832e-06
0.0024936
4.93438e-06
0.00249742
4.90828e-06
0.0025012
4.88001e-06
0.00250493
4.84987e-06
0.00250861
4.81827e-06
0.00251225
4.7854e-06
0.00251584
4.75125e-06
0.00251939
4.71579e-06
0.00252289
4.67926e-06
0.00252635
4.6421e-06
0.00252977
4.60477e-06
0.00253314
4.5674e-06
0.00253647
4.52969e-06
0.00253976
4.49114e-06
0.00254301
4.45134e-06
0.00254622
4.4101e-06
0.00254939
4.3673e-06
0.00255252
4.32266e-06
0.00255558
4.27566e-06
0.00255858
4.22562e-06
0.00256152
4.17195e-06
0.0025644
4.11428e-06
0.00256723
4.05251e-06
0.00257002
3.98662e-06
0.00257275
3.91657e-06
0.00257541
3.84217e-06
0.002578
3.76319e-06
0.00258051
3.67934e-06
0.00258296
3.59042e-06
0.00258534
3.49625e-06
0.00258767
3.39676e-06
0.00258989
3.29182e-06
0.00259198
3.18127e-06
0.00259389
3.0649e-06
0.00259564
2.94276e-06
0.00259728
2.81573e-06
0.00259887
2.68582e-06
0.00260045
2.55572e-06
0.002602
2.42753e-06
0.00260347
2.30195e-06
0.00260477
2.17838e-06
0.00260589
2.05682e-06
0.00260688
1.93875e-06
0.00260782
1.82789e-06
0.00260877
1.72743e-06
0.0026097
1.63989e-06
0.00261047
1.56525e-06
0.00261091
1.50255e-06
0.00261099
1.44988e-06
0.00261082
1.40397e-06
0.00261073
1.36617e-06
0.00261103
1.33022e-06
0.00261202
1.30105e-06
0.00261359
1.26796e-06
0.00261542
1.23703e-06
0.002617
1.19918e-06
0.00261764
1.15316e-06
0.00261739
1.10746e-06
0.0026159
1.04477e-06
0.00261424
9.98333e-07
0.00261263
9.40022e-07
0.00261174
9.05599e-07
8.6435e-07
0.00199919
1.50678e-08
0.00200329
4.48187e-08
0.00200998
7.16996e-08
0.00201901
9.26379e-08
0.00203006
1.07158e-07
0.00204282
1.176e-07
0.00205699
1.28158e-07
0.00207224
1.39785e-07
0.00208827
1.52855e-07
0.0021048
1.66853e-07
0.00212157
1.8132e-07
0.00213836
1.95772e-07
0.002155
2.10119e-07
0.00217131
2.28518e-07
0.00218718
2.49271e-07
0.00220252
2.77484e-07
0.00221728
3.13262e-07
0.00223139
3.52487e-07
0.00224485
3.84326e-07
0.00225764
4.20364e-07
0.00226975
4.58005e-07
0.0022812
4.94177e-07
0.002292
5.28218e-07
0.0023022
5.59986e-07
0.00231182
5.89293e-07
0.0023209
6.15842e-07
0.00232948
6.39403e-07
0.0023376
6.59934e-07
0.0023453
6.77545e-07
0.00235262
6.92418e-07
0.00235959
7.04759e-07
0.00236625
7.14814e-07
0.00237263
7.22881e-07
0.00237875
7.29275e-07
0.00238465
7.34289e-07
0.00239034
7.38176e-07
0.00239586
7.41144e-07
0.00240121
7.43399e-07
0.00240641
7.45208e-07
0.00241148
7.46963e-07
0.00241643
7.49127e-07
0.00242128
7.52281e-07
0.00242602
7.57139e-07
0.00243068
7.64275e-07
0.00243526
7.73935e-07
0.00243976
7.86064e-07
0.00244419
8.00673e-07
0.00244856
8.17811e-07
0.00245287
8.37545e-07
0.00245713
8.59504e-07
0.00246133
8.83011e-07
0.00246549
9.07342e-07
0.0024696
9.31773e-07
0.00247367
9.55598e-07
0.00247769
9.78252e-07
0.00248167
9.99456e-07
0.0024856
1.01882e-06
0.0024895
1.03599e-06
0.00249336
1.0508e-06
0.00249718
1.06323e-06
0.00250095
1.0734e-06
0.00250469
1.08151e-06
0.00250839
1.08783e-06
0.00251204
1.09264e-06
0.00251566
1.09621e-06
0.00251923
1.09877e-06
0.00252277
1.10055e-06
0.00252627
1.10172e-06
0.00252974
1.1024e-06
0.00253316
1.10264e-06
0.00253655
1.10245e-06
0.0025399
1.10179e-06
0.00254322
1.1006e-06
0.0025465
1.09886e-06
0.00254973
1.09649e-06
0.00255292
1.09338e-06
0.00255604
1.08941e-06
0.0025591
1.08448e-06
0.00256211
1.07852e-06
0.00256508
1.07153e-06
0.00256801
1.0635e-06
0.00257088
1.05444e-06
0.00257369
1.04435e-06
0.00257641
1.03331e-06
0.00257907
1.02138e-06
0.00258166
1.00863e-06
0.00258421
9.95058e-07
0.00258669
9.80581e-07
0.00258907
9.65092e-07
0.00259129
9.48598e-07
0.00259334
9.31341e-07
0.00259523
9.13848e-07
0.00259701
8.96882e-07
0.00259875
8.81214e-07
0.00260049
8.67228e-07
0.00260219
8.54615e-07
0.00260379
8.42526e-07
0.00260521
8.30253e-07
0.00260644
8.17894e-07
0.00260755
8.06449e-07
0.00260863
7.97187e-07
0.00260974
7.90852e-07
0.00261079
7.87123e-07
0.00261165
7.84906e-07
0.00261214
7.83932e-07
0.00261223
7.83522e-07
0.00261206
7.85004e-07
0.00261202
7.88802e-07
0.00261244
7.94358e-07
0.00261359
7.99085e-07
0.00261534
7.98856e-07
0.0026173
7.92666e-07
0.00261894
7.77582e-07
0.00261953
7.5977e-07
0.00261917
7.38279e-07
0.00261755
7.23557e-07
0.00261581
7.15736e-07
0.00261416
7.14715e-07
0.00261333
7.2256e-07
7.31633e-07
0.00199919
-1.36146e-06
0.00200329
-4.05738e-06
0.00200997
-6.61022e-06
0.00201899
-8.93085e-06
0.00203004
-1.09467e-05
0.00204281
-1.26466e-05
0.00205697
-1.40351e-05
0.00207222
-1.51116e-05
0.00208825
-1.58806e-05
0.00210478
-1.63623e-05
0.00212155
-1.65903e-05
0.00213834
-1.66014e-05
0.00215498
-1.64281e-05
0.0021713
-1.60983e-05
0.00218719
-1.56394e-05
0.00220254
-1.50776e-05
0.0022173
-1.4443e-05
0.00223141
-1.37637e-05
0.00224485
-1.30608e-05
0.00225762
-1.23465e-05
0.00226971
-1.16346e-05
0.00228114
-1.09378e-05
0.00229193
-1.02657e-05
0.00230212
-9.62556e-06
0.00231173
-9.0223e-06
0.0023208
-8.45931e-06
0.00232937
-7.93838e-06
0.00233749
-7.45992e-06
0.00234519
-7.02324e-06
0.00235251
-6.62693e-06
0.00235948
-6.26902e-06
0.00236614
-5.94705e-06
0.00237252
-5.65821e-06
0.00237865
-5.39954e-06
0.00238455
-5.16812e-06
0.00239025
-4.96119e-06
0.00239576
-4.7762e-06
0.00240112
-4.61068e-06
0.00240632
-4.46225e-06
0.0024114
-4.32847e-06
0.00241635
-4.20711e-06
0.0024212
-4.09624e-06
0.00242595
-3.99381e-06
0.00243061
-3.89774e-06
0.00243518
-3.80637e-06
0.00243969
-3.71945e-06
0.00244412
-3.63616e-06
0.0024485
-3.55545e-06
0.00245281
-3.47621e-06
0.00245707
-3.3985e-06
0.00246127
-3.32261e-06
0.00246542
-3.24875e-06
0.00246953
-3.17701e-06
0.00247359
-3.10757e-06
0.00247761
-3.04074e-06
0.00248158
-2.97679e-06
0.00248552
-2.91574e-06
0.00248941
-2.85744e-06
0.00249326
-2.80174e-06
0.00249707
-2.74861e-06
0.00250085
-2.69817e-06
0.00250458
-2.65041e-06
0.00250827
-2.60502e-06
0.00251192
-2.56142e-06
0.00251553
-2.51901e-06
0.0025191
-2.47748e-06
0.00252263
-2.43687e-06
0.00252613
-2.39726e-06
0.00252959
-2.35856e-06
0.00253301
-2.32036e-06
0.0025364
-2.28218e-06
0.00253975
-2.24367e-06
0.00254306
-2.20474e-06
0.00254633
-2.16535e-06
0.00254957
-2.12543e-06
0.00255275
-2.08465e-06
0.00255587
-2.04255e-06
0.00255892
-1.99869e-06
0.00256193
-1.95283e-06
0.00256489
-1.90497e-06
0.00256781
-1.85522e-06
0.00257068
-1.80357e-06
0.00257348
-1.74976e-06
0.00257621
-1.69328e-06
0.00257886
-1.63355e-06
0.00258145
-1.57019e-06
0.00258399
-1.50313e-06
0.00258647
-1.43257e-06
0.00258885
-1.35873e-06
0.00259107
-1.28141e-06
0.00259312
-1.19988e-06
0.002595
-1.1131e-06
0.00259678
-1.02037e-06
0.00259852
-9.22067e-07
0.00260026
-8.20108e-07
0.00260196
-7.17319e-07
0.00260356
-6.16256e-07
0.00260497
-5.17733e-07
0.00260621
-4.2117e-07
0.00260732
-3.25503e-07
0.0026084
-2.32056e-07
0.0026095
-1.43896e-07
0.00261056
-6.54961e-08
0.00261142
1.83003e-09
0.0026119
6.15976e-08
0.00261199
1.13367e-07
0.00261182
1.65009e-07
0.00261178
2.15084e-07
0.0026122
2.66186e-07
0.00261335
3.06059e-07
0.0026151
3.37235e-07
0.00261706
3.52577e-07
0.00261869
3.57328e-07
0.00261926
3.69306e-07
0.00261889
3.73819e-07
0.00261724
4.13196e-07
0.00261549
4.39364e-07
0.00261384
4.97764e-07
0.00261303
5.35441e-07
5.86384e-07
0.00199927
-2.81989e-06
0.00200356
-8.3438e-06
0.00201049
-1.35431e-05
0.00201978
-1.82221e-05
0.00203112
-2.22882e-05
0.00204419
-2.5722e-05
0.00205867
-2.85207e-05
0.00207424
-3.06776e-05
0.00209056
-3.22058e-05
0.00210735
-3.31553e-05
0.00212436
-3.35997e-05
0.00214137
-3.36157e-05
0.00215821
-3.32652e-05
0.00217471
-3.26025e-05
0.00219075
-3.16848e-05
0.00220624
-3.05641e-05
0.0022211
-2.9305e-05
0.00223529
-2.79573e-05
0.00224879
-2.65608e-05
0.00226159
-2.51485e-05
0.0022737
-2.37476e-05
0.00228514
-2.23806e-05
0.00229594
-2.1065e-05
0.00230612
-1.98138e-05
0.00231574
-1.86359e-05
0.00232481
-1.7537e-05
0.00233339
-1.652e-05
0.00234152
-1.55852e-05
0.00234922
-1.47311e-05
0.00235655
-1.39549e-05
0.00236353
-1.32526e-05
0.0023702
-1.26197e-05
0.00237659
-1.20507e-05
0.00238273
-1.154e-05
0.00238864
-1.1082e-05
0.00239435
-1.06717e-05
0.00239988
-1.03043e-05
0.00240524
-9.97512e-06
0.00241046
-9.67924e-06
0.00241554
-9.4122e-06
0.0024205
-9.17089e-06
0.00242535
-8.95166e-06
0.00243011
-8.75054e-06
0.00243477
-8.56407e-06
0.00243936
-8.38976e-06
0.00244386
-8.22597e-06
0.0024483
-8.0717e-06
0.00245266
-7.92572e-06
0.00245697
-7.78473e-06
0.00246122
-7.64894e-06
0.00246541
-7.51805e-06
0.00246956
-7.39165e-06
0.00247365
-7.26943e-06
0.00247769
-7.15122e-06
0.00248168
-7.03701e-06
0.00248563
-6.92674e-06
0.00248953
-6.82019e-06
0.00249339
-6.717e-06
0.00249721
-6.6169e-06
0.00250098
-6.51986e-06
0.00250471
-6.426e-06
0.00250839
-6.33528e-06
0.00251203
-6.24729e-06
0.00251563
-6.1613e-06
0.00251918
-6.07663e-06
0.00252269
-5.99303e-06
0.00252616
-5.91057e-06
0.00252959
-5.82938e-06
0.00253298
-5.74922e-06
0.00253633
-5.66952e-06
0.00253964
-5.5896e-06
0.0025429
-5.50889e-06
0.00254613
-5.42702e-06
0.00254932
-5.34364e-06
0.00255246
-5.25824e-06
0.00255555
-5.17006e-06
0.00255858
-5.07827e-06
0.00256154
-4.98229e-06
0.00256444
-4.88192e-06
0.0025673
-4.77718e-06
0.00257011
-4.66803e-06
0.00257287
-4.55403e-06
0.00257557
-4.43438e-06
0.00257818
-4.30818e-06
0.00258072
-4.17478e-06
0.0025832
-4.03388e-06
0.00258561
-3.88549e-06
0.00258797
-3.72977e-06
0.00259023
-3.5667e-06
0.00259234
-3.39562e-06
0.00259429
-3.21531e-06
0.00259607
-3.02474e-06
0.00259774
-2.82418e-06
0.00259936
-2.61568e-06
0.00260097
-2.40262e-06
0.00260256
-2.18852e-06
0.00260405
-1.97587e-06
0.00260539
-1.76529e-06
0.00260653
-1.55756e-06
0.00260754
-1.35488e-06
0.00260851
-1.16364e-06
0.00260949
-9.89301e-07
0.00261045
-8.36702e-07
0.00261124
-7.03422e-07
0.0026117
-5.85273e-07
0.00261178
-4.78027e-07
0.0026116
-3.77412e-07
0.0026115
-2.91126e-07
0.00261181
-2.12572e-07
0.00261282
-1.6255e-07
0.00261444
-1.13838e-07
0.00261631
-8.5287e-08
0.00261791
-3.92891e-08
0.00261854
2.014e-08
0.00261826
6.88251e-08
0.00261671
1.7376e-07
0.00261502
2.00542e-07
0.00261337
3.13089e-07
0.00261251
3.05422e-07
3.977e-07
0.00199947
-4.47604e-06
0.0020042
-1.30722e-05
0.00201168
-2.10265e-05
0.00202157
-2.81118e-05
0.00203354
-3.42647e-05
0.0020473
-3.94803e-05
0.0020625
-4.37235e-05
0.00207878
-4.696e-05
0.00209579
-4.92214e-05
0.00211324
-5.06069e-05
0.00213088
-5.12347e-05
0.00214847
-5.12161e-05
0.00216585
-5.06436e-05
0.00218284
-4.95979e-05
0.00219932
-4.81658e-05
0.00221519
-4.64364e-05
0.00223038
-4.44946e-05
0.00224484
-4.24139e-05
0.00225853
-4.02562e-05
0.00227145
-3.80741e-05
0.00228361
-3.59106e-05
0.00229503
-3.3801e-05
0.00230574
-3.17728e-05
0.00231577
-2.98461e-05
0.00232517
-2.80346e-05
0.00233398
-2.63467e-05
0.00234224
-2.47862e-05
0.00235001
-2.33531e-05
0.00235732
-2.20445e-05
0.00236422
-2.08556e-05
0.00237074
-1.97798e-05
0.00237693
-1.88091e-05
0.00238281
-1.7935e-05
0.00238842
-1.71488e-05
0.00239378
-1.64419e-05
0.00239891
-1.58065e-05
0.00240384
-1.52358e-05
0.00240859
-1.47223e-05
0.00241316
-1.42577e-05
0.00241758
-1.38339e-05
0.00242186
-1.34514e-05
0.00242601
-1.31029e-05
0.00243004
-1.27804e-05
0.00243395
-1.24802e-05
0.00243776
-1.21997e-05
0.00244147
-1.19361e-05
0.00244509
-1.16873e-05
0.00244861
-1.14507e-05
0.00245205
-1.12244e-05
0.00245541
-1.1007e-05
0.00245868
-1.07979e-05
0.00246189
-1.05964e-05
0.00246502
-1.04016e-05
0.00246808
-1.02129e-05
0.00247107
-1.00297e-05
0.00247399
-9.85172e-06
0.00247685
-9.67883e-06
0.00247964
-9.5107e-06
0.00248237
-9.34695e-06
0.00248504
-9.18725e-06
0.00248764
-9.03145e-06
0.00249019
-8.87943e-06
0.00249267
-8.73083e-06
0.00249509
-8.58501e-06
0.00249745
-8.44135e-06
0.00249975
-8.2996e-06
0.002502
-8.15991e-06
0.00250419
-8.02253e-06
0.00250633
-7.88732e-06
0.00250841
-7.75364e-06
0.00251044
-7.62056e-06
0.00251242
-7.4871e-06
0.00251435
-7.35244e-06
0.00251623
-7.21592e-06
0.00251806
-7.07685e-06
0.00251982
-6.93451e-06
0.00252152
-6.78838e-06
0.00252316
-6.63819e-06
0.00252474
-6.48379e-06
0.00252628
-6.32483e-06
0.00252777
-6.16056e-06
0.00252921
-5.98984e-06
0.0025306
-5.81157e-06
0.00253192
-5.62519e-06
0.00253319
-5.43085e-06
0.0025344
-5.22894e-06
0.00253556
-5.01948e-06
0.00253666
-4.80191e-06
0.00253768
-4.57534e-06
0.0025386
-4.33897e-06
0.00253941
-4.0924e-06
0.00254013
-3.83579e-06
0.00254081
-3.56984e-06
0.00254147
-3.29614e-06
0.00254214
-3.01746e-06
0.00254279
-2.7375e-06
0.00254336
-2.45984e-06
0.00254383
-2.187e-06
0.00254419
-1.92185e-06
0.00254451
-1.66889e-06
0.00254482
-1.43678e-06
0.00254514
-1.23195e-06
0.00254541
-1.05812e-06
0.00254555
-9.08291e-07
0.00254549
-7.7745e-07
0.00254528
-6.58673e-07
0.00254505
-5.54441e-07
0.00254507
-4.72506e-07
0.00254548
-4.09771e-07
0.00254636
-3.77621e-07
0.00254748
-3.3831e-07
0.00254853
-3.09862e-07
0.00254912
-2.4463e-07
0.00254897
-1.7215e-07
0.00254826
-1.03102e-07
0.00254699
-1.0748e-08
0.00254607
-1.35309e-08
0.00254541
9.92467e-08
0.00254576
1.58284e-08
1.76431e-07
0.00199954
-6.20265e-06
0.00200494
-1.84744e-05
0.0020134
-2.9489e-05
0.0020245
-3.92084e-05
0.00203799
-4.77625e-05
0.00205356
-5.50442e-05
0.00207068
-6.08523e-05
0.00208881
-6.50876e-05
0.00210742
-6.78312e-05
0.00212606
-6.92504e-05
0.00214436
-6.95393e-05
0.00216203
-6.88847e-05
0.00217882
-6.74404e-05
0.00219458
-6.53589e-05
0.00220921
-6.27925e-05
0.00222265
-5.98805e-05
0.0022349
-5.67444e-05
0.00224597
-5.34859e-05
0.0022559
-5.01897e-05
0.00226475
-4.69244e-05
0.00227258
-4.37431e-05
0.00227947
-4.06888e-05
0.00228548
-3.77905e-05
0.0022907
-3.50684e-05
0.0022952
-3.25345e-05
0.00229905
-3.01937e-05
0.0023023
-2.80451e-05
0.00230503
-2.60839e-05
0.00230729
-2.43023e-05
0.00230912
-2.26903e-05
0.00231058
-2.12362e-05
0.00231169
-1.99273e-05
0.00231251
-1.87502e-05
0.00231305
-1.76912e-05
0.00231334
-1.67377e-05
0.00231341
-1.5882e-05
0.00231329
-1.51147e-05
0.00231299
-1.44233e-05
0.00231253
-1.37973e-05
0.00231192
-1.32282e-05
0.00231118
-1.27118e-05
0.00231032
-1.22443e-05
0.00230935
-1.181e-05
0.00230827
-1.14063e-05
0.0023071
-1.10305e-05
0.00230584
-1.06793e-05
0.00230451
-1.03495e-05
0.00230309
-1.00383e-05
0.00230161
-9.74352e-06
0.00230006
-9.46327e-06
0.00229846
-9.19628e-06
0.0022968
-8.94144e-06
0.0022951
-8.69763e-06
0.00229335
-8.46377e-06
0.00229155
-8.239e-06
0.00228972
-8.0228e-06
0.00228786
-7.81476e-06
0.00228596
-7.61442e-06
0.00228404
-7.42114e-06
0.00228208
-7.2343e-06
0.0022801
-7.05347e-06
0.0022781
-6.87842e-06
0.00227608
-6.70896e-06
0.00227403
-6.54482e-06
0.00227197
-6.38569e-06
0.0022699
-6.2313e-06
0.00226783
-6.08149e-06
0.00226574
-5.93611e-06
0.00226365
-5.79489e-06
0.00226156
-5.65744e-06
0.00225946
-5.5229e-06
0.00225736
-5.39037e-06
0.00225527
-5.25933e-06
0.00225317
-5.12876e-06
0.00225109
-4.99743e-06
0.00224901
-4.86453e-06
0.00224695
-4.73001e-06
0.00224491
-4.59419e-06
0.00224288
-4.45717e-06
0.00224088
-4.31831e-06
0.0022389
-4.17635e-06
0.00223696
-4.02986e-06
0.00223504
-3.878e-06
0.00223314
-3.72093e-06
0.00223126
-3.55949e-06
0.00222939
-3.39444e-06
0.00222757
-3.22577e-06
0.0022258
-3.05261e-06
0.0022241
-2.8736e-06
0.00222246
-2.68759e-06
0.00222089
-2.49432e-06
0.00221937
-2.29457e-06
0.00221792
-2.08934e-06
0.00221654
-1.87928e-06
0.00221522
-1.66546e-06
0.00221395
-1.45078e-06
0.00221271
-1.23969e-06
0.00221148
-1.03713e-06
0.00221028
-8.48062e-07
0.00220917
-6.77199e-07
0.00220821
-5.29504e-07
0.00220744
-4.07678e-07
0.00220687
-3.1197e-07
0.00220645
-2.38108e-07
0.00220609
-1.83561e-07
0.0022057
-1.46133e-07
0.00220521
-1.26391e-07
0.00220463
-1.21241e-07
0.00220403
-1.27298e-07
0.00220348
-1.40438e-07
0.00220311
-1.45426e-07
0.00220296
-1.43694e-07
0.00220306
-1.21923e-07
0.00220337
-9.54838e-08
0.00220375
-7.04854e-08
0.00220417
-4.08494e-08
0.00220439
-4.91079e-08
0.00220453
-1.04948e-08
0.00220436
-3.70296e-08
4.01501e-08
0.00200151
-9.89321e-06
0.00201056
-2.75261e-05
0.0020231
-4.2029e-05
0.00203753
-5.36412e-05
0.00205234
-6.25744e-05
0.00206607
-6.87777e-05
0.00207759
-7.23738e-05
0.00208623
-7.37294e-05
0.00209174
-7.33443e-05
0.0020941
-7.16085e-05
0.00209349
-6.89286e-05
0.00209021
-6.56115e-05
0.00208458
-6.18091e-05
0.00207694
-5.77218e-05
0.00206765
-5.35048e-05
0.00205704
-4.92728e-05
0.00204541
-4.51143e-05
0.00203301
-4.10954e-05
0.00202009
-3.72646e-05
0.00200682
-3.36557e-05
0.00199336
-3.02888e-05
0.00197985
-2.71765e-05
0.00196638
-2.43216e-05
0.00195303
-2.17214e-05
0.00193986
-1.93691e-05
0.00192692
-1.72535e-05
0.00191423
-1.5361e-05
0.00190182
-1.36763e-05
0.0018897
-1.21834e-05
0.00187788
-1.08661e-05
0.00186635
-9.70795e-06
0.00185511
-8.69301e-06
0.00184417
-7.80635e-06
0.00183351
-7.03186e-06
0.00182311
-6.34374e-06
0.00181298
-5.7528e-06
0.00180311
-5.24723e-06
0.00179349
-4.80763e-06
0.00178412
-4.42525e-06
0.00177498
-4.09302e-06
0.00176607
-3.80456e-06
0.00175738
-3.55362e-06
0.0017489
-3.33342e-06
0.00174063
-3.13938e-06
0.00173257
-2.96819e-06
0.00172471
-2.81691e-06
0.00171704
-2.68273e-06
0.00170956
-2.56313e-06
0.00170227
-2.45598e-06
0.00169517
-2.35953e-06
0.00168824
-2.27239e-06
0.00168149
-2.19341e-06
0.00167492
-2.12154e-06
0.00166851
-2.05589e-06
0.00166226
-1.9957e-06
0.00165618
-1.94035e-06
0.00165025
-1.88932e-06
0.00164448
-1.84211e-06
0.00163886
-1.79825e-06
0.00163338
-1.7573e-06
0.00162804
-1.71895e-06
0.00162284
-1.68303e-06
0.00161778
-1.64945e-06
0.00161286
-1.61818e-06