/*--------------------------------*- C++ -*----------------------------------*\
  =========                 |
  \\      /  F ield         | OpenFOAM: The Open Source CFD Toolbox
   \\    /   O peration     | Website:  https://openfoam.org
    \\  /    A nd           | Version:  7
     \\/     M anipulation  |
\*---------------------------------------------------------------------------*/
FoamFile
{
    version     2.0;
    format      ascii;
    class       volVectorField;
    location    "0.105";
    object      UMean;
}
// * * * * * * * * * * * * * * * * * * * * * * * * * * * * * * * * * * * * * //

dimensions      [0 1 -1 0 0 0 0];

internalField   nonuniform List<vector> 
1440
(
(29.5728 0.0786256 0)
(29.341 0.307691 0)
(28.8703 0.523684 0)
(28.1871 0.698847 0)
(27.3464 0.82653 0)
(26.3991 0.904907 0)
(25.3865 0.937707 0)
(24.3395 0.9317 0)
(23.2865 0.896384 0)
(22.2457 0.839004 0)
(21.2389 0.76764 0)
(20.2729 0.689713 0)
(19.3573 0.607918 0)
(18.4983 0.526191 0)
(17.6982 0.447686 0)
(16.9577 0.374297 0)
(16.2762 0.307154 0)
(15.6524 0.246809 0)
(15.0841 0.193397 0)
(14.5685 0.146764 0)
(14.1024 0.106561 0)
(13.6823 0.0723093 0)
(13.3047 0.0434687 0)
(12.9662 0.019477 0)
(12.6632 -0.000219303 0)
(12.3925 -0.0161552 0)
(12.1507 -0.0288325 0)
(11.9349 -0.0387126 0)
(11.7423 -0.0462086 0)
(11.5702 -0.0516854 0)
(11.4164 -0.055459 0)
(11.2787 -0.0578018 0)
(11.1552 -0.0589564 0)
(11.0442 -0.0591445 0)
(10.9441 -0.0586625 0)
(10.8535 -0.0577459 0)
(10.7712 -0.0565273 0)
(10.6961 -0.0550727 0)
(10.6273 -0.0534233 0)
(10.5638 -0.0516172 0)
(10.5051 -0.0496914 0)
(10.4506 -0.0476802 0)
(10.3996 -0.0456139 0)
(10.3517 -0.0435188 0)
(10.3066 -0.0414176 0)
(10.2639 -0.0393298 0)
(10.2233 -0.0372712 0)
(10.1845 -0.0352542 0)
(10.1474 -0.0332882 0)
(10.1118 -0.0313806 0)
(10.0774 -0.029536 0)
(10.0442 -0.0277579 0)
(10.012 -0.0260486 0)
(9.98081 -0.024409 0)
(9.95042 -0.0228394 0)
(9.92081 -0.0213398 0)
(9.8919 -0.0199092 0)
(9.86363 -0.0185464 0)
(9.83596 -0.0172497 0)
(9.80884 -0.0160171 0)
(9.78223 -0.0148462 0)
(9.75609 -0.013735 0)
(9.73041 -0.0126819 0)
(9.70514 -0.0116852 0)
(9.68027 -0.0107427 0)
(9.65579 -0.00985268 0)
(9.63167 -0.00901298 0)
(9.60789 -0.00822118 0)
(9.58445 -0.00747511 0)
(9.56133 -0.00677265 0)
(9.53853 -0.00611213 0)
(9.51602 -0.00549157 0)
(9.49382 -0.00490933 0)
(9.4719 -0.00436457 0)
(9.45027 -0.0038554 0)
(9.42891 -0.00338049 0)
(9.40782 -0.00293823 0)
(9.387 -0.00252388 0)
(9.36643 -0.00213212 0)
(9.34613 -0.00175989 0)
(9.32608 -0.00140615 0)
(9.30628 -0.00107055 0)
(9.28674 -0.000752767 0)
(9.26744 -0.00045257 0)
(9.24839 -0.000169667 0)
(9.22958 9.60673e-05 0)
(9.211 0.000345241 0)
(9.19267 0.000578097 0)
(9.17457 0.000795358 0)
(9.1567 0.000997238 0)
(9.13907 0.00118484 0)
(9.12166 0.00135855 0)
(9.10448 0.00151934 0)
(9.08752 0.0016674 0)
(9.07078 0.00180352 0)
(9.05426 0.00192806 0)
(9.03795 0.00204193 0)
(9.02186 0.00214549 0)
(9.00598 0.0022393 0)
(8.99031 0.00232394 0)
(8.97485 0.00239969 0)
(8.95959 0.00246792 0)
(8.94453 0.00252729 0)
(8.92967 0.00258144 0)
(8.91501 0.00262532 0)
(8.90053 0.00266848 0)
(8.88627 0.00269569 0)
(8.87215 0.00273315 0)
(8.8583 0.0027393 0)
(8.8445 0.00278054 0)
(8.83111 0.00275157 0)
(8.81756 0.00281772 0)
(8.80472 0.00271744 0)
(8.79125 0.0028519 0)
(8.77927 0.00259602 0)
(8.76549 0.00289509 0)
(8.75513 0.00230803 0)
(8.73992 0.00302031 0)
(8.73324 0.00179996 0)
(8.71231 0.00369212 0)
(29.6225 0.113566 0)
(29.7228 0.318748 0)
(29.8902 0.500818 0)
(30.0959 0.663593 0)
(30.3163 0.806289 0)
(30.531 0.925004 0)
(30.7233 1.01753 0)
(30.8798 1.08436 0)
(30.9937 1.12792 0)
(31.0618 1.15102 0)
(31.0861 1.1564 0)
(31.0695 1.14691 0)
(31.0168 1.12502 0)
(30.9332 1.093 0)
(30.8235 1.05311 0)
(30.6924 1.0074 0)
(30.5441 0.957696 0)
(30.3826 0.905514 0)
(30.2113 0.852119 0)
(30.0331 0.798568 0)
(29.8506 0.745707 0)
(29.6656 0.694239 0)
(29.4799 0.644702 0)
(29.2948 0.597481 0)
(29.1113 0.552869 0)
(28.9302 0.511044 0)
(28.7521 0.472091 0)
(28.5773 0.436019 0)
(28.4063 0.40278 0)
(28.2391 0.37228 0)
(28.0758 0.344394 0)
(27.9165 0.318972 0)
(27.7613 0.295851 0)
(27.6099 0.27485 0)
(27.4623 0.255776 0)
(27.3185 0.238444 0)
(27.1783 0.222688 0)
(27.0416 0.20837 0)
(26.9084 0.195361 0)
(26.7785 0.18354 0)
(26.6519 0.172792 0)
(26.5284 0.16301 0)
(26.4079 0.154096 0)
(26.2903 0.145959 0)
(26.1756 0.138521 0)
(26.0637 0.131709 0)
(25.9545 0.125456 0)
(25.8479 0.119704 0)
(25.7438 0.1144 0)
(25.6422 0.109498 0)
(25.5431 0.104957 0)
(25.4463 0.10074 0)
(25.3519 0.0968159 0)
(25.2597 0.0931564 0)
(25.1697 0.0897366 0)
(25.0818 0.0865344 0)
(24.996 0.0835304 0)
(24.9123 0.0807072 0)
(24.8306 0.0780492 0)
(24.7509 0.0755425 0)
(24.673 0.0731743 0)
(24.597 0.0709335 0)
(24.5228 0.0688099 0)
(24.4503 0.0667941 0)
(24.3796 0.0648776 0)
(24.3105 0.063053 0)
(24.2431 0.0613137 0)
(24.1773 0.0596539 0)
(24.113 0.058068 0)
(24.0502 0.0565513 0)
(23.9889 0.0550994 0)
(23.9289 0.0537084 0)
(23.8704 0.0523748 0)
(23.8132 0.0510948 0)
(23.7572 0.0498656 0)
(23.7026 0.0486847 0)
(23.6491 0.04755 0)
(23.5969 0.04646 0)
(23.5458 0.0454133 0)
(23.4958 0.0444083 0)
(23.4469 0.0434433 0)
(23.399 0.0425161 0)
(23.3521 0.0416247 0)
(23.3063 0.0407671 0)
(23.2614 0.0399416 0)
(23.2174 0.0391466 0)
(23.1743 0.0383808 0)
(23.1321 0.0376426 0)
(23.0908 0.0369307 0)
(23.0502 0.0362438 0)
(23.0105 0.035581 0)
(22.9715 0.0349411 0)
(22.9333 0.034323 0)
(22.8959 0.0337258 0)
(22.8591 0.0331485 0)
(22.823 0.0325905 0)
(22.7876 0.0320505 0)
(22.7529 0.031528 0)
(22.7187 0.0310219 0)
(22.6852 0.0305322 0)
(22.6523 0.0300572 0)
(22.62 0.0295976 0)
(22.5882 0.0291504 0)
(22.557 0.0287187 0)
(22.5264 0.028296 0)
(22.4962 0.0278904 0)
(22.4666 0.0274875 0)
(22.4374 0.0271072 0)
(22.4088 0.0267169 0)
(22.3805 0.0263634 0)
(22.353 0.0259722 0)
(22.3253 0.0256497 0)
(22.2991 0.0252295 0)
(22.2717 0.0249448 0)
(22.2474 0.0244391 0)
(22.2193 0.024191 0)
(22.1984 0.0235009 0)
(22.1673 0.023254 0)
(22.154 0.0223472 0)
(22.1136 0.0221127 0)
(29.619 0.0757044 0)
(29.6738 0.220759 0)
(29.7748 0.353916 0)
(29.9151 0.473311 0)
(30.0909 0.578288 0)
(30.2988 0.667621 0)
(30.5336 0.740163 0)
(30.7882 0.795712 0)
(31.0546 0.835099 0)
(31.3253 0.859678 0)
(31.5941 0.870935 0)
(31.856 0.870553 0)
(32.1073 0.8601 0)
(32.3454 0.841103 0)
(32.5682 0.815158 0)
(32.7745 0.783876 0)
(32.9638 0.748765 0)
(33.136 0.711166 0)
(33.2917 0.672234 0)
(33.4314 0.632945 0)
(33.5561 0.594109 0)
(33.6666 0.556369 0)
(33.7641 0.52022 0)
(33.8495 0.486021 0)
(33.9239 0.454012 0)
(33.9884 0.424335 0)
(34.0438 0.397042 0)
(34.0911 0.372116 0)
(34.1311 0.349488 0)
(34.1645 0.329044 0)
(34.192 0.310646 0)
(34.2143 0.294133 0)
(34.2318 0.27934 0)
(34.2451 0.266105 0)
(34.2546 0.254292 0)
(34.2607 0.243773 0)
(34.2637 0.23441 0)
(34.264 0.226068 0)
(34.2618 0.218618 0)
(34.2574 0.211942 0)
(34.2509 0.205937 0)
(34.2425 0.200508 0)
(34.2324 0.195572 0)
(34.2207 0.191059 0)
(34.2076 0.186904 0)
(34.1931 0.183054 0)
(34.1774 0.179463 0)
(34.1605 0.17609 0)
(34.1426 0.172903 0)
(34.1236 0.169872 0)
(34.1037 0.166973 0)
(34.0829 0.164187 0)
(34.0614 0.161495 0)
(34.039 0.158885 0)
(34.0159 0.156346 0)
(33.9922 0.153869 0)
(33.9679 0.151446 0)
(33.9429 0.149073 0)
(33.9175 0.146743 0)
(33.8915 0.144453 0)
(33.865 0.142198 0)
(33.8382 0.139977 0)
(33.8109 0.137788 0)
(33.7832 0.135628 0)
(33.7552 0.133496 0)
(33.7269 0.131393 0)
(33.6983 0.129318 0)
(33.6694 0.127271 0)
(33.6403 0.125252 0)
(33.611 0.123261 0)
(33.5814 0.121299 0)
(33.5518 0.119366 0)
(33.5219 0.117462 0)
(33.4919 0.115588 0)
(33.4619 0.113744 0)
(33.4317 0.11193 0)
(33.4014 0.110147 0)
(33.3711 0.108395 0)
(33.3408 0.106671 0)
(33.3104 0.104976 0)
(33.28 0.10331 0)
(33.2496 0.101671 0)
(33.2192 0.100059 0)
(33.1888 0.0984747 0)
(33.1585 0.0969173 0)
(33.1282 0.0953862 0)
(33.0979 0.0938819 0)
(33.0678 0.0924032 0)
(33.0377 0.0909508 0)
(33.0077 0.0895233 0)
(32.9778 0.0881218 0)
(32.948 0.0867446 0)
(32.9183 0.0853928 0)
(32.8887 0.0840643 0)
(32.8593 0.0827611 0)
(32.83 0.0814805 0)
(32.8008 0.0802249 0)
(32.7718 0.0789904 0)
(32.7429 0.0777811 0)
(32.7143 0.0765912 0)
(32.6857 0.0754272 0)
(32.6573 0.0742797 0)
(32.6291 0.0731598 0)
(32.6011 0.0720516 0)
(32.5733 0.0709758 0)
(32.5456 0.0699022 0)
(32.5181 0.0688715 0)
(32.4908 0.067824 0)
(32.4638 0.0668433 0)
(32.4368 0.0658058 0)
(32.4103 0.0648866 0)
(32.3835 0.0638241 0)
(32.3578 0.062992 0)
(32.3308 0.0618291 0)
(32.3066 0.0611388 0)
(32.2783 0.059711 0)
(32.2572 0.059274 0)
(32.2252 0.0572324 0)
(32.2116 0.057258 0)
(32.1695 0.0538331 0)
(29.6187 0.0509651 0)
(29.6676 0.150344 0)
(29.7575 0.243271 0)
(29.8825 0.326878 0)
(30.0389 0.399861 0)
(30.2234 0.461538 0)
(30.4317 0.511394 0)
(30.6589 0.549287 0)
(30.8995 0.575702 0)
(31.1485 0.591668 0)
(31.4016 0.598492 0)
(31.6553 0.59756 0)
(31.9068 0.590189 0)
(32.1537 0.577582 0)
(32.3941 0.560884 0)
(32.6264 0.541156 0)
(32.8493 0.519369 0)
(33.0622 0.496338 0)
(33.2644 0.472744 0)
(33.4558 0.449124 0)
(33.6363 0.425911 0)
(33.806 0.403427 0)
(33.9654 0.381914 0)
(34.1149 0.361526 0)
(34.2549 0.342355 0)
(34.3861 0.324444 0)
(34.5091 0.307807 0)
(34.6245 0.292429 0)
(34.7329 0.278279 0)
(34.8349 0.265304 0)
(34.9311 0.253441 0)
(35.022 0.242617 0)
(35.1081 0.232758 0)
(35.1898 0.223793 0)
(35.2677 0.21566 0)
(35.342 0.208292 0)
(35.4131 0.201618 0)
(35.4814 0.195562 0)
(35.547 0.190055 0)
(35.6102 0.185034 0)
(35.6713 0.180444 0)
(35.7304 0.176233 0)
(35.7876 0.17236 0)
(35.8431 0.168782 0)
(35.897 0.165465 0)
(35.9494 0.162377 0)
(36.0005 0.15949 0)
(36.0502 0.156779 0)
(36.0987 0.154223 0)
(36.1459 0.151802 0)
(36.1921 0.149502 0)
(36.2371 0.147308 0)
(36.2811 0.145209 0)
(36.324 0.143194 0)
(36.366 0.141257 0)
(36.407 0.139389 0)
(36.4471 0.137585 0)
(36.4863 0.13584 0)
(36.5245 0.134149 0)
(36.5619 0.132508 0)
(36.5985 0.130914 0)
(36.6342 0.129363 0)
(36.6691 0.127854 0)
(36.7032 0.126383 0)
(36.7366 0.124951 0)
(36.7691 0.123553 0)
(36.8009 0.122189 0)
(36.832 0.120857 0)
(36.8623 0.119558 0)
(36.8919 0.118287 0)
(36.9208 0.117046 0)
(36.9491 0.115832 0)
(36.9766 0.114645 0)
(37.0035 0.113484 0)
(37.0297 0.112347 0)
(37.0552 0.111234 0)
(37.0801 0.110144 0)
(37.1044 0.109074 0)
(37.1281 0.108025 0)
(37.1512 0.106993 0)
(37.1737 0.105981 0)
(37.1956 0.104984 0)
(37.2169 0.104006 0)
(37.2377 0.103042 0)
(37.2579 0.102095 0)
(37.2776 0.101161 0)
(37.2967 0.100243 0)
(37.3154 0.0993365 0)
(37.3335 0.0984449 0)
(37.351 0.0975643 0)
(37.3681 0.0966972 0)
(37.3847 0.09584 0)
(37.4009 0.0949956 0)
(37.4165 0.0941601 0)
(37.4317 0.0933368 0)
(37.4464 0.0925212 0)
(37.4607 0.0917176 0)
(37.4745 0.0909204 0)
(37.488 0.0901356 0)
(37.5009 0.0893548 0)
(37.5135 0.088588 0)
(37.5257 0.0878215 0)
(37.5375 0.087073 0)
(37.5488 0.0863172 0)
(37.5598 0.0855885 0)
(37.5705 0.0848371 0)
(37.5807 0.0841338 0)
(37.5906 0.0833746 0)
(37.6001 0.0827085 0)
(37.6094 0.0819161 0)
(37.618 0.0813132 0)
(37.6268 0.0804357 0)
(37.6346 0.0799482 0)
(37.6429 0.0788804 0)
(37.6496 0.0786093 0)
(37.658 0.0771458 0)
(37.6631 0.0772668 0)
(37.6722 0.0750141 0)
(37.6745 0.0757124 0)
(37.6857 0.0717785 0)
(29.6186 0.0297097 0)
(29.6644 0.0879085 0)
(29.7484 0.142832 0)
(29.8656 0.192555 0)
(30.0131 0.236011 0)
(30.1881 0.272791 0)
(30.3865 0.302695 0)
(30.6034 0.325669 0)
(30.8339 0.341958 0)
(31.0731 0.352148 0)
(31.317 0.357023 0)
(31.5621 0.3574 0)
(31.8057 0.354044 0)
(32.0453 0.347635 0)
(32.2792 0.338788 0)
(32.5058 0.328061 0)
(32.724 0.315947 0)
(32.9329 0.302867 0)
(33.1321 0.289178 0)
(33.3213 0.275178 0)
(33.5005 0.261126 0)
(33.6698 0.247236 0)
(33.8295 0.233687 0)
(33.98 0.220613 0)
(34.1217 0.208112 0)
(34.2552 0.196252 0)
(34.3811 0.185086 0)
(34.4999 0.174644 0)
(34.6122 0.164945 0)
(34.7185 0.155993 0)
(34.8195 0.147782 0)
(34.9156 0.14029 0)
(35.0073 0.133488 0)
(35.0949 0.127337 0)
(35.179 0.121793 0)
(35.2599 0.116809 0)
(35.3379 0.112333 0)
(35.4133 0.108313 0)
(35.4864 0.104701 0)
(35.5574 0.10145 0)
(35.6265 0.0985201 0)
(35.6939 0.0958745 0)
(35.7597 0.0934801 0)
(35.8242 0.0913068 0)
(35.8873 0.0893276 0)
(35.9493 0.0875186 0)
(36.0101 0.0858583 0)
(36.0699 0.0843281 0)
(36.1288 0.0829115 0)
(36.1868 0.0815945 0)
(36.2439 0.080365 0)
(36.3003 0.0792127 0)
(36.3558 0.0781289 0)
(36.4107 0.0771058 0)
(36.4648 0.0761366 0)
(36.5183 0.0752155 0)
(36.5711 0.0743375 0)
(36.6233 0.0734982 0)
(36.675 0.0726936 0)
(36.726 0.0719204 0)
(36.7764 0.0711757 0)
(36.8263 0.0704569 0)
(36.8757 0.0697619 0)
(36.9245 0.0690886 0)
(36.9728 0.0684355 0)
(37.0206 0.0678012 0)
(37.0679 0.0671842 0)
(37.1147 0.0665836 0)
(37.161 0.0659981 0)
(37.2068 0.0654269 0)
(37.2522 0.0648693 0)
(37.2971 0.0643246 0)
(37.3416 0.063792 0)
(37.3856 0.063271 0)
(37.4292 0.0627611 0)
(37.4724 0.0622617 0)
(37.5152 0.061772 0)
(37.5575 0.0612915 0)
(37.5994 0.0608198 0)
(37.6409 0.0603563 0)
(37.6821 0.0599009 0)
(37.7228 0.0594533 0)
(37.7632 0.0590133 0)
(37.8031 0.0585808 0)
(37.8427 0.0581555 0)
(37.8819 0.057737 0)
(37.9208 0.057325 0)
(37.9593 0.0569194 0)
(37.9974 0.0565201 0)
(38.0352 0.0561267 0)
(38.0727 0.0557391 0)
(38.1098 0.0553568 0)
(38.1465 0.0549801 0)
(38.183 0.0546085 0)
(38.219 0.0542422 0)
(38.2548 0.0538805 0)
(38.2903 0.0535241 0)
(38.3254 0.0531715 0)
(38.3602 0.0528247 0)
(38.3947 0.0524805 0)
(38.4289 0.0521433 0)
(38.4628 0.0518061 0)
(38.4963 0.0514788 0)
(38.5296 0.0511464 0)
(38.5626 0.0508305 0)
(38.5954 0.0504989 0)
(38.6277 0.0501983 0)
(38.6599 0.0498593 0)
(38.6915 0.0495817 0)
(38.7234 0.0492183 0)
(38.7541 0.0489802 0)
(38.786 0.0485584 0)
(38.8154 0.0483927 0)
(38.8478 0.0478453 0)
(38.8749 0.0478142 0)
(38.9093 0.0470113 0)
(38.9318 0.0472137 0)
(38.9714 0.045885 0)
(38.984 0.0463715 0)
(39.0355 0.0438553 0)
(29.6185 0.00977921 0)
(29.6629 0.028954 0)
(29.7442 0.0471056 0)
(29.8575 0.0635932 0)
(30.0007 0.0780206 0)
(30.171 0.0902439 0)
(30.3647 0.100217 0)
(30.577 0.107937 0)
(30.8031 0.113479 0)
(31.0384 0.11703 0)
(31.2787 0.118836 0)
(31.5208 0.119158 0)
(31.7617 0.118232 0)
(31.9991 0.116271 0)
(32.231 0.113458 0)
(32.456 0.10997 0)
(32.6727 0.105956 0)
(32.8804 0.101562 0)
(33.0786 0.0969023 0)
(33.267 0.0920906 0)
(33.4456 0.0872205 0)
(33.6144 0.082382 0)
(33.7737 0.0776454 0)
(33.9239 0.0730744 0)
(34.0655 0.0687162 0)
(34.1989 0.0646108 0)
(34.3247 0.0607829 0)
(34.4435 0.0572507 0)
(34.5559 0.05402 0)
(34.6623 0.0510959 0)
(34.7634 0.0484765 0)
(34.8595 0.046155 0)
(34.9512 0.0441157 0)
(35.039 0.0423402 0)
(35.1231 0.0408045 0)
(35.2039 0.0394851 0)
(35.2819 0.0383564 0)
(35.3572 0.0373941 0)
(35.4302 0.0365737 0)
(35.5011 0.0358738 0)
(35.5701 0.0352745 0)
(35.6374 0.0347593 0)
(35.7031 0.0343131 0)
(35.7674 0.0339242 0)
(35.8304 0.0335812 0)
(35.8922 0.0332755 0)
(35.953 0.032999 0)
(36.0127 0.0327457 0)
(36.0715 0.0325098 0)
(36.1295 0.0322875 0)
(36.1866 0.0320749 0)
(36.2429 0.0318697 0)
(36.2985 0.0316691 0)
(36.3534 0.0314717 0)
(36.4076 0.0312755 0)
(36.4612 0.0310799 0)
(36.5142 0.0308835 0)
(36.5666 0.0306862 0)
(36.6184 0.0304871 0)
(36.6697 0.0302864 0)
(36.7204 0.0300838 0)
(36.7706 0.0298796 0)
(36.8203 0.0296736 0)
(36.8695 0.0294663 0)
(36.9183 0.0292576 0)
(36.9665 0.0290482 0)
(37.0143 0.0288381 0)
(37.0617 0.0286277 0)
(37.1086 0.0284172 0)
(37.1551 0.0282069 0)
(37.2012 0.0279968 0)
(37.2468 0.0277876 0)
(37.2921 0.0275793 0)
(37.3369 0.0273722 0)
(37.3814 0.0271664 0)
(37.4254 0.0269621 0)
(37.4692 0.0267591 0)
(37.5125 0.0265578 0)
(37.5555 0.026358 0)
(37.5981 0.0261599 0)
(37.6404 0.0259636 0)
(37.6823 0.0257692 0)
(37.7239 0.0255767 0)
(37.7652 0.0253862 0)
(37.8061 0.0251975 0)
(37.8467 0.025011 0)
(37.887 0.0248263 0)
(37.927 0.0246436 0)
(37.9667 0.0244628 0)
(38.0061 0.024284 0)
(38.0453 0.024107 0)
(38.0841 0.023932 0)
(38.1226 0.0237588 0)
(38.1609 0.0235874 0)
(38.1988 0.0234179 0)
(38.2365 0.02325 0)
(38.274 0.023084 0)
(38.3112 0.0229196 0)
(38.3481 0.0227572 0)
(38.3848 0.0225958 0)
(38.4212 0.0224368 0)
(38.4574 0.0222781 0)
(38.4933 0.0221225 0)
(38.529 0.0219658 0)
(38.5644 0.0218141 0)
(38.5997 0.021658 0)
(38.6345 0.0215108 0)
(38.6695 0.0213527 0)
(38.7037 0.0212121 0)
(38.7385 0.0210467 0)
(38.7719 0.020917 0)
(38.8068 0.0207338 0)
(38.8389 0.0206239 0)
(38.8746 0.0204017 0)
(38.9043 0.0203304 0)
(38.9424 0.0200264 0)
(38.9672 0.020026 0)
(39.0113 0.019538 0)
(39.0251 0.0196251 0)
(39.0824 0.0186739 0)
(29.6185 -0.00977317 0)
(29.6629 -0.0289345 0)
(29.7442 -0.0470706 0)
(29.8575 -0.0635401 0)
(30.0007 -0.0779459 0)
(30.1711 -0.0901399 0)
(30.3648 -0.100071 0)
(30.5771 -0.107729 0)
(30.8032 -0.113191 0)
(31.0384 -0.11664 0)
(31.2788 -0.118323 0)
(31.5209 -0.118504 0)
(31.7618 -0.117417 0)
(31.9992 -0.115282 0)
(32.2311 -0.112282 0)
(32.456 -0.108602 0)
(32.6728 -0.104394 0)
(32.8805 -0.0998069 0)
(33.0787 -0.0949588 0)
(33.2671 -0.0899653 0)
(33.4456 -0.0849231 0)
(33.6144 -0.0799251 0)
(33.7737 -0.0750438 0)
(33.9239 -0.0703435 0)
(34.0655 -0.0658723 0)
(34.1989 -0.0616712 0)
(34.3247 -0.0577656 0)
(34.4435 -0.0541739 0)
(34.5559 -0.0509013 0)
(34.6623 -0.0479521 0)
(34.7633 -0.0453226 0)
(34.8595 -0.0430034 0)
(34.9512 -0.0409757 0)
(35.0389 -0.0392172 0)
(35.123 -0.0377005 0)
(35.2039 -0.0363987 0)
(35.2818 -0.0352841 0)
(35.3572 -0.0343322 0)
(35.4302 -0.0335199 0)
(35.501 -0.0328278 0)
(35.57 -0.0322368 0)
(35.6373 -0.0317309 0)
(35.703 -0.0312945 0)
(35.7673 -0.0309151 0)
(35.8303 -0.030581 0)
(35.8922 -0.0302837 0)
(35.9529 -0.0300149 0)
(36.0127 -0.0297688 0)
(36.0715 -0.0295396 0)
(36.1294 -0.0293234 0)
(36.1865 -0.0291167 0)
(36.2428 -0.0289171 0)
(36.2984 -0.0287223 0)
(36.3533 -0.0285311 0)
(36.4075 -0.0283419 0)
(36.4611 -0.028154 0)
(36.5141 -0.0279662 0)
(36.5665 -0.0277783 0)
(36.6183 -0.0275894 0)
(36.6696 -0.0273994 0)
(36.7203 -0.0272076 0)
(36.7705 -0.027014 0)
(36.8202 -0.026818 0)
(36.8694 -0.0266198 0)
(36.9181 -0.0264189 0)
(36.9664 -0.0262157 0)
(37.0142 -0.0260103 0)
(37.0615 -0.0258031 0)
(37.1085 -0.0255942 0)
(37.1549 -0.0253842 0)
(37.201 -0.025173 0)
(37.2467 -0.0249611 0)
(37.2919 -0.0247485 0)
(37.3368 -0.0245356 0)
(37.3812 -0.0243223 0)
(37.4253 -0.0241092 0)
(37.469 -0.0238961 0)
(37.5123 -0.0236835 0)
(37.5553 -0.0234715 0)
(37.5979 -0.0232605 0)
(37.6402 -0.0230504 0)
(37.6821 -0.0228418 0)
(37.7237 -0.0226346 0)
(37.765 -0.0224292 0)
(37.8059 -0.0222257 0)
(37.8465 -0.0220244 0)
(37.8869 -0.0218252 0)
(37.9268 -0.0216286 0)
(37.9665 -0.0214345 0)
(38.0059 -0.0212432 0)
(38.045 -0.0210547 0)
(38.0839 -0.0208692 0)
(38.1224 -0.0206866 0)
(38.1606 -0.0205072 0)
(38.1986 -0.020331 0)
(38.2363 -0.020158 0)
(38.2738 -0.0199882 0)
(38.3109 -0.0198215 0)
(38.3478 -0.0196583 0)
(38.3845 -0.0194979 0)
(38.4209 -0.0193414 0)
(38.4571 -0.0191871 0)
(38.493 -0.0190375 0)
(38.5287 -0.0188887 0)
(38.5641 -0.0187464 0)
(38.5994 -0.018602 0)
(38.6343 -0.0184681 0)
(38.6692 -0.018326 0)
(38.7035 -0.0182025 0)
(38.7382 -0.0180581 0)
(38.7716 -0.0179495 0)
(38.8065 -0.0177935 0)
(38.8386 -0.0177087 0)
(38.8743 -0.0175219 0)
(38.904 -0.0174787 0)
(38.9421 -0.0172211 0)
(38.9669 -0.0172473 0)
(39.0109 -0.0168207 0)
(39.0247 -0.016921 0)
(39.0821 -0.0160573 0)
(29.6186 -0.0297055 0)
(29.6644 -0.0878928 0)
(29.7485 -0.1428 0)
(29.8656 -0.192505 0)
(30.0131 -0.23594 0)
(30.1881 -0.272691 0)
(30.3865 -0.302553 0)
(30.6035 -0.325468 0)
(30.834 -0.341679 0)
(31.0733 -0.351772 0)
(31.3172 -0.356528 0)
(31.5623 -0.356767 0)
(31.8059 -0.353251 0)
(32.0456 -0.346663 0)
(32.2795 -0.33762 0)
(32.5061 -0.326687 0)
(32.7243 -0.314362 0)
(32.9332 -0.301074 0)
(33.1324 -0.287185 0)
(33.3216 -0.272997 0)
(33.5007 -0.25877 0)
(33.67 -0.244723 0)
(33.8297 -0.231033 0)
(33.9801 -0.217839 0)
(34.1218 -0.20524 0)
(34.2553 -0.193304 0)
(34.3811 -0.182081 0)
(34.4999 -0.171602 0)
(34.6121 -0.161883 0)
(34.7185 -0.15293 0)
(34.8194 -0.144732 0)
(34.9155 -0.137268 0)
(35.0071 -0.130501 0)
(35.0948 -0.124389 0)
(35.1789 -0.11888 0)
(35.2597 -0.113924 0)
(35.3377 -0.10947 0)
(35.4131 -0.105469 0)
(35.4862 -0.101877 0)
(35.5572 -0.0986512 0)
(35.6263 -0.0957503 0)
(35.6937 -0.0931357 0)
(35.7595 -0.0907712 0)
(35.8239 -0.0886247 0)
(35.8871 -0.0866682 0)
(35.949 -0.0848773 0)
(36.0099 -0.0832312 0)
(36.0697 -0.0817115 0)
(36.1286 -0.0803022 0)
(36.1865 -0.0789897 0)
(36.2437 -0.0777624 0)
(36.3 -0.0766106 0)
(36.3556 -0.0755259 0)
(36.4104 -0.0745012 0)
(36.4645 -0.0735302 0)
(36.518 -0.0726075 0)
(36.5708 -0.0717282 0)
(36.6231 -0.0708879 0)
(36.6747 -0.0700829 0)
(36.7257 -0.0693098 0)
(36.7761 -0.0685653 0)
(36.826 -0.0678466 0)
(36.8754 -0.0671508 0)
(36.9242 -0.0664755 0)
(36.9725 -0.0658185 0)
(37.0203 -0.0651785 0)
(37.0676 -0.0645543 0)
(37.1144 -0.0639453 0)
(37.1607 -0.0633505 0)
(37.2065 -0.0627692 0)
(37.2519 -0.0622007 0)
(37.2969 -0.0616444 0)
(37.3413 -0.0610994 0)
(37.3854 -0.0605653 0)
(37.429 -0.0600413 0)
(37.4722 -0.0595269 0)
(37.5149 -0.0590216 0)
(37.5573 -0.058525 0)
(37.5992 -0.0580366 0)
(37.6408 -0.0575564 0)
(37.6819 -0.057084 0)
(37.7226 -0.0566193 0)
(37.763 -0.0561619 0)
(37.803 -0.0557118 0)
(37.8426 -0.0552688 0)
(37.8818 -0.0548327 0)
(37.9207 -0.0544035 0)
(37.9592 -0.0539812 0)
(37.9974 -0.0535656 0)
(38.0352 -0.0531567 0)
(38.0726 -0.0527545 0)
(38.1097 -0.0523588 0)
(38.1465 -0.0519699 0)
(38.183 -0.0515873 0)
(38.2191 -0.0512115 0)
(38.2549 -0.0508418 0)
(38.2903 -0.050479 0)
(38.3255 -0.0501218 0)
(38.3603 -0.049772 0)
(38.3948 -0.0494266 0)
(38.429 -0.0490898 0)
(38.463 -0.0487551 0)
(38.4965 -0.048432 0)
(38.5299 -0.048106 0)
(38.5629 -0.0477982 0)
(38.5956 -0.0474771 0)
(38.628 -0.0471883 0)
(38.6603 -0.0468642 0)
(38.6919 -0.0466026 0)
(38.7238 -0.0462594 0)
(38.7546 -0.0460415 0)
(38.7864 -0.0456464 0)
(38.8159 -0.0455048 0)
(38.8483 -0.0449925 0)
(38.8754 -0.0449887 0)
(38.9098 -0.0442319 0)
(38.9324 -0.0444622 0)
(38.972 -0.0431942 0)
(38.9847 -0.043702 0)
(39.0362 -0.0412621 0)
(29.6187 -0.0509668 0)
(29.6676 -0.150343 0)
(29.7575 -0.24326 0)
(29.8825 -0.326857 0)
(30.039 -0.399822 0)
(30.2235 -0.46147 0)
(30.4318 -0.511279 0)
(30.659 -0.549107 0)
(30.8997 -0.575441 0)
(31.1487 -0.591309 0)
(31.4019 -0.598021 0)
(31.6557 -0.596957 0)
(31.9072 -0.589435 0)
(32.1542 -0.576656 0)
(32.3946 -0.559766 0)
(32.6269 -0.539828 0)
(32.8498 -0.517815 0)
(33.0627 -0.494549 0)
(33.2648 -0.470717 0)
(33.4562 -0.446865 0)
(33.6366 -0.42343 0)
(33.8063 -0.40074 0)
(33.9656 -0.37904 0)
(34.115 -0.358487 0)
(34.255 -0.339177 0)
(34.3861 -0.32115 0)
(34.5091 -0.30442 0)
(34.6244 -0.288971 0)
(34.7327 -0.274771 0)
(34.8347 -0.261767 0)
(34.9308 -0.249895 0)
(35.0217 -0.239081 0)
(35.1078 -0.229248 0)
(35.1895 -0.220315 0)
(35.2674 -0.212205 0)
(35.3417 -0.204839 0)
(35.4129 -0.198149 0)
(35.4811 -0.192067 0)
(35.5467 -0.186536 0)
(35.61 -0.1815 0)
(35.671 -0.17691 0)
(35.7301 -0.172712 0)
(35.7873 -0.168859 0)
(35.8429 -0.165306 0)
(35.8968 -0.162015 0)
(35.9493 -0.158953 0)
(36.0003 -0.156092 0)
(36.0501 -0.153406 0)
(36.0986 -0.150875 0)
(36.1459 -0.14848 0)
(36.192 -0.146205 0)
(36.2371 -0.144036 0)
(36.2811 -0.141962 0)
(36.3241 -0.139972 0)
(36.3661 -0.138061 0)
(36.4072 -0.13622 0)
(36.4473 -0.134444 0)
(36.4865 -0.132728 0)
(36.5248 -0.131066 0)
(36.5622 -0.129455 0)
(36.5988 -0.127892 0)
(36.6346 -0.126372 0)
(36.6695 -0.124892 0)
(36.7037 -0.123449 0)
(36.7371 -0.122039 0)
(36.7696 -0.120661 0)
(36.8015 -0.119313 0)
(36.8326 -0.117994 0)
(36.863 -0.116704 0)
(36.8926 -0.11544 0)
(36.9215 -0.114203 0)
(36.9498 -0.112991 0)
(36.9774 -0.111804 0)
(37.0042 -0.110641 0)
(37.0305 -0.109501 0)
(37.0561 -0.108382 0)
(37.081 -0.107284 0)
(37.1054 -0.106206 0)
(37.1291 -0.105149 0)
(37.1522 -0.104109 0)
(37.1747 -0.103088 0)
(37.1966 -0.102083 0)
(37.218 -0.101096 0)
(37.2388 -0.100124 0)
(37.259 -0.0991688 0)
(37.2787 -0.098227 0)
(37.2979 -0.0973008 0)
(37.3165 -0.0963871 0)
(37.3346 -0.0954884 0)
(37.3522 -0.0946013 0)
(37.3693 -0.0937284 0)
(37.386 -0.0928664 0)
(37.4021 -0.092018 0)
(37.4178 -0.0911796 0)
(37.433 -0.0903545 0)
(37.4477 -0.0895383 0)
(37.462 -0.0887355 0)
(37.4759 -0.0879403 0)
(37.4893 -0.0871589 0)
(37.5023 -0.0863831 0)
(37.5149 -0.0856226 0)
(37.5271 -0.0848641 0)
(37.5389 -0.0841248 0)
(37.5503 -0.0833803 0)
(37.5613 -0.0826641 0)
(37.5719 -0.0819276 0)
(37.5822 -0.0812398 0)
(37.5921 -0.0804994 0)
(37.6016 -0.0798521 0)
(37.6108 -0.0790833 0)
(37.6195 -0.0785023 0)
(37.6282 -0.0776546 0)
(37.636 -0.077192 0)
(37.6444 -0.0761631 0)
(37.6511 -0.075919 0)
(37.6594 -0.074508 0)
(37.6645 -0.074655 0)
(37.6736 -0.0724745 0)
(37.6759 -0.0731908 0)
(37.687 -0.0693593 0)
(29.619 -0.0757115 0)
(29.6738 -0.220782 0)
(29.7748 -0.353968 0)
(29.9152 -0.4734 0)
(30.091 -0.578399 0)
(30.2989 -0.667725 0)
(30.5338 -0.740229 0)
(30.7884 -0.795714 0)
(31.0549 -0.835019 0)
(31.3256 -0.859501 0)
(31.5943 -0.870654 0)
(31.8562 -0.870162 0)
(32.1074 -0.859592 0)
(32.3454 -0.840471 0)
(32.568 -0.814398 0)
(32.7742 -0.782978 0)
(32.9633 -0.74772 0)
(33.1354 -0.709967 0)
(33.2908 -0.670876 0)
(33.4303 -0.631432 0)
(33.5547 -0.592447 0)
(33.6651 -0.55457 0)
(33.7623 -0.518299 0)
(33.8475 -0.483992 0)
(33.9218 -0.451895 0)
(33.9861 -0.422149 0)
(34.0413 -0.394806 0)
(34.0885 -0.369852 0)
(34.1283 -0.347214 0)
(34.1615 -0.326782 0)
(34.1889 -0.308417 0)
(34.2111 -0.291964 0)
(34.2285 -0.277258 0)
(34.2417 -0.264136 0)
(34.2511 -0.252434 0)
(34.2571 -0.241997 0)
(34.2601 -0.232679 0)
(34.2603 -0.224341 0)
(34.258 -0.216866 0)
(34.2534 -0.210152 0)
(34.2468 -0.204105 0)
(34.2382 -0.198633 0)
(34.228 -0.193656 0)
(34.2162 -0.189102 0)
(34.203 -0.184908 0)
(34.1884 -0.181018 0)
(34.1726 -0.177386 0)
(34.1556 -0.173973 0)
(34.1376 -0.170746 0)
(34.1185 -0.167676 0)
(34.0986 -0.16474 0)
(34.0777 -0.161918 0)
(34.056 -0.159194 0)
(34.0336 -0.156555 0)
(34.0104 -0.15399 0)
(33.9866 -0.15149 0)
(33.9621 -0.149048 0)
(33.937 -0.146658 0)
(33.9114 -0.144315 0)
(33.8853 -0.142016 0)
(33.8588 -0.139756 0)
(33.8317 -0.137534 0)
(33.8043 -0.135347 0)
(33.7765 -0.133193 0)
(33.7483 -0.131068 0)
(33.7198 -0.128972 0)
(33.691 -0.126902 0)
(33.662 -0.124859 0)
(33.6327 -0.122842 0)
(33.6032 -0.120852 0)
(33.5734 -0.118888 0)
(33.5435 -0.116951 0)
(33.5135 -0.115041 0)
(33.4833 -0.113158 0)
(33.453 -0.111302 0)
(33.4226 -0.109475 0)
(33.3921 -0.107675 0)
(33.3616 -0.105902 0)
(33.331 -0.104157 0)
(33.3003 -0.102439 0)
(33.2697 -0.10075 0)
(33.2391 -0.0990878 0)
(33.2084 -0.0974537 0)
(33.1778 -0.0958469 0)
(33.1473 -0.094268 0)
(33.1167 -0.0927161 0)
(33.0863 -0.0911918 0)
(33.0559 -0.0896943 0)
(33.0256 -0.0882243 0)
(32.9954 -0.0867806 0)
(32.9652 -0.0853643 0)
(32.9352 -0.0839738 0)
(32.9053 -0.0826105 0)
(32.8755 -0.0812723 0)
(32.8459 -0.0799611 0)
(32.8164 -0.078674 0)
(32.787 -0.0774137 0)
(32.7578 -0.0761764 0)
(32.7287 -0.074966 0)
(32.6998 -0.0737768 0)
(32.6711 -0.0726153 0)
(32.6425 -0.0714721 0)
(32.6141 -0.0703585 0)
(32.5858 -0.0692585 0)
(32.5578 -0.0681926 0)
(32.5299 -0.0671312 0)
(32.5022 -0.0661143 0)
(32.4747 -0.0650832 0)
(32.4475 -0.0641199 0)
(32.4203 -0.0631032 0)
(32.3936 -0.0622049 0)
(32.3665 -0.0611691 0)
(32.3406 -0.0603612 0)
(32.3133 -0.0592335 0)
(32.2889 -0.0585694 0)
(32.2603 -0.0571928 0)
(32.239 -0.0567825 0)
(32.2067 -0.0548251 0)
(32.1929 -0.0548705 0)
(32.1503 -0.051597 0)
(29.6225 -0.113423 0)
(29.7227 -0.318451 0)
(29.8899 -0.500511 0)
(30.0953 -0.663346 0)
(30.3154 -0.806091 0)
(30.5296 -0.924812 0)
(30.7213 -1.01729 0)
(30.877 -1.08401 0)
(30.99 -1.12742 0)
(31.057 -1.1503 0)
(31.0802 -1.15541 0)
(31.0625 -1.14563 0)
(31.0086 -1.1234 0)
(30.9239 -1.09105 0)
(30.813 -1.05081 0)
(30.6808 -1.00478 0)
(30.5314 -0.954777 0)
(30.3689 -0.902316 0)
(30.1967 -0.848668 0)
(30.0177 -0.79489 0)
(29.8343 -0.741831 0)
(29.6487 -0.69019 0)
(29.4623 -0.640507 0)
(29.2766 -0.593163 0)
(29.0926 -0.548446 0)
(28.9109 -0.506531 0)
(28.7323 -0.467502 0)
(28.5571 -0.431366 0)
(28.3856 -0.398071 0)
(28.218 -0.367519 0)
(28.0543 -0.339581 0)
(27.8946 -0.314108 0)
(27.7389 -0.290939 0)
(27.5871 -0.269901 0)
(27.4391 -0.250828 0)
(27.2949 -0.233553 0)
(27.1544 -0.217912 0)
(27.0174 -0.20375 0)
(26.8838 -0.190917 0)
(26.7536 -0.179266 0)
(26.6265 -0.16867 0)
(26.5026 -0.15902 0)
(26.3818 -0.150221 0)
(26.2639 -0.142187 0)
(26.1488 -0.134838 0)
(26.0366 -0.128105 0)
(25.927 -0.121923 0)
(25.8201 -0.116233 0)
(25.7157 -0.110985 0)
(25.6138 -0.106134 0)
(25.5144 -0.101639 0)
(25.4173 -0.0974648 0)
(25.3225 -0.0935804 0)
(25.23 -0.089957 0)
(25.1396 -0.0865698 0)
(25.0515 -0.0833966 0)
(24.9654 -0.0804176 0)
(24.8813 -0.0776153 0)
(24.7992 -0.0749739 0)
(24.7191 -0.0724795 0)
(24.6409 -0.0701201 0)
(24.5645 -0.0678849 0)
(24.4899 -0.0657651 0)
(24.4171 -0.0637544 0)
(24.346 -0.0618469 0)
(24.2765 -0.0600361 0)
(24.2087 -0.0583154 0)
(24.1425 -0.0566782 0)
(24.0778 -0.0551186 0)
(24.0146 -0.0536315 0)
(23.9529 -0.052212 0)
(23.8926 -0.0508557 0)
(23.8336 -0.0495585 0)
(23.7761 -0.0483168 0)
(23.7198 -0.0471274 0)
(23.6648 -0.0459875 0)
(23.611 -0.0448943 0)
(23.5584 -0.0438453 0)
(23.5069 -0.0428382 0)
(23.4566 -0.0418705 0)
(23.4073 -0.0409402 0)
(23.3592 -0.0400451 0)
(23.312 -0.0391838 0)
(23.2659 -0.0383545 0)
(23.2207 -0.037556 0)
(23.1764 -0.0367867 0)
(23.1331 -0.0360455 0)
(23.0906 -0.0353311 0)
(23.049 -0.0346425 0)
(23.0083 -0.0339783 0)
(22.9683 -0.0333377 0)
(22.9291 -0.0327197 0)
(22.8907 -0.0321232 0)
(22.853 -0.0315474 0)
(22.8161 -0.0309914 0)
(22.7798 -0.0304543 0)
(22.7442 -0.0299353 0)
(22.7092 -0.0294337 0)
(22.6749 -0.0289485 0)
(22.6412 -0.0284795 0)
(22.6081 -0.0280252 0)
(22.5756 -0.0275862 0)
(22.5436 -0.02716 0)
(22.5122 -0.0267491 0)
(22.4813 -0.0263478 0)
(22.4509 -0.0259635 0)
(22.4211 -0.025583 0)
(22.3917 -0.0252248 0)
(22.3629 -0.0248585 0)
(22.3343 -0.0245281 0)
(22.3066 -0.0241632 0)
(22.2787 -0.0238655 0)
(22.2522 -0.023475 0)
(22.2245 -0.0232186 0)
(22.2 -0.0227466 0)
(22.1715 -0.0225353 0)
(22.1504 -0.0218837 0)
(22.1189 -0.021703 0)
(22.1054 -0.0208373 0)
(22.0643 -0.0207447 0)
(29.5712 -0.0784785 0)
(29.3359 -0.307347 0)
(28.8616 -0.523241 0)
(28.175 -0.698328 0)
(27.331 -0.825889 0)
(26.3805 -0.9041 0)
(25.3647 -0.936665 0)
(24.3148 -0.930398 0)
(23.2589 -0.89477 0)
(22.2155 -0.837028 0)
(21.2063 -0.765332 0)
(20.238 -0.687024 0)
(19.3204 -0.604839 0)
(18.4596 -0.522764 0)
(17.6579 -0.443956 0)
(16.9159 -0.370321 0)
(16.2333 -0.302998 0)
(15.6086 -0.242539 0)
(15.0396 -0.18907 0)