/*--------------------------------*- C++ -*----------------------------------*\
  =========                 |
  \\      /  F ield         | OpenFOAM: The Open Source CFD Toolbox
   \\    /   O peration     | Website:  https://openfoam.org
    \\  /    A nd           | Version:  7
     \\/     M anipulation  |
\*---------------------------------------------------------------------------*/
FoamFile
{
    version     2.0;
    format      ascii;
    class       volSymmTensorField;
    location    "0.105";
    object      UPrime2Mean;
}
// * * * * * * * * * * * * * * * * * * * * * * * * * * * * * * * * * * * * * //

dimensions      [0 2 -2 0 0 0 0];

internalField   nonuniform List<symmTensor> 
1440
(
(0.125185 0.00106393 0 1.98846e-05 0 0)
(0.0574939 0.0024735 0 0.000400829 0 0)
(0.113511 0.00122507 0 0.00144941 0 0)
(0.190425 -0.00028876 0 0.00314204 0 0)
(0.259081 -0.00208465 0 0.00527886 0 0)
(0.331167 -0.00616887 0 0.00753214 0 0)
(0.419857 -0.0135628 0 0.00954259 0 0)
(0.530326 -0.0234603 0 0.0109877 0 0)
(0.662307 -0.0341362 0 0.0117104 0 0)
(0.815302 -0.04405 0 0.0116875 0 0)
(0.989418 -0.0524286 0 0.0110771 0 0)
(1.1872 -0.0592891 0 0.0101129 0 0)
(1.40833 -0.0644328 0 0.00890036 0 0)
(1.65101 -0.0678731 0 0.00757353 0 0)
(1.91291 -0.069563 0 0.00624176 0 0)
(2.19177 -0.0694611 0 0.00497761 0 0)
(2.48514 -0.0675518 0 0.00383472 0 0)
(2.78983 -0.0638433 0 0.0028492 0 0)
(3.102 -0.0584505 0 0.00203526 0 0)
(3.41752 -0.0517011 0 0.00139109 0 0)
(3.7325 -0.0440256 0 0.000902965 0 0)
(4.04337 -0.0358499 0 0.000551335 0 0)
(4.34715 -0.0275454 0 0.000313179 0 0)
(4.64146 -0.0194233 0 0.000165356 0 0)
(4.92463 -0.0117151 0 8.67202e-05 0 0)
(5.19552 -0.00458155 0 5.91806e-05 0 0)
(5.45344 0.00186742 0 6.75608e-05 0 0)
(5.69811 0.0075709 0 9.9517e-05 0 0)
(5.92956 0.0124993 0 0.000145363 0 0)
(6.14811 0.0166451 0 0.00019774 0 0)
(6.35431 0.0200205 0 0.000251266 0 0)
(6.54884 0.0226451 0 0.000302087 0 0)
(6.73259 0.024557 0 0.00034764 0 0)
(6.90639 0.025808 0 0.000386434 0 0)
(7.07134 0.0265133 0 0.000418616 0 0)
(7.22852 0.0267792 0 0.000444679 0 0)
(7.37901 0.0266791 0 0.000464808 0 0)
(7.52382 0.0262675 0 0.000478967 0 0)
(7.6639 0.0255957 0 0.000487169 0 0)
(7.8001 0.0247265 0 0.000489622 0 0)
(7.93318 0.0237204 0 0.000486723 0 0)
(8.06379 0.0226373 0 0.000479094 0 0)
(8.19245 0.0215297 0 0.000467523 0 0)
(8.31958 0.0204412 0 0.000452912 0 0)
(8.44549 0.0194075 0 0.000436227 0 0)
(8.5704 0.0184503 0 0.000418412 0 0)
(8.69448 0.0175803 0 0.000400336 0 0)
(8.81782 0.0167949 0 0.000382707 0 0)
(8.94046 0.0160849 0 0.000366051 0 0)
(9.06247 0.0154365 0 0.000350715 0 0)
(9.18386 0.0148313 0 0.000336876 0 0)
(9.30467 0.014254 0 0.000324546 0 0)
(9.42491 0.0136868 0 0.000313629 0 0)
(9.54467 0.0131212 0 0.000303968 0 0)
(9.664 0.0125528 0 0.000295369 0 0)
(9.78299 0.0119718 0 0.00028761 0 0)
(9.90172 0.011379 0 0.000280469 0 0)
(10.0203 0.0107775 0 0.000273764 0 0)
(10.1388 0.0101733 0 0.00026734 0 0)
(10.2573 0.00957056 0 0.00026107 0 0)
(10.3759 0.00898116 0 0.00025488 0 0)
(10.4947 0.00841498 0 0.000248729 0 0)
(10.6137 0.0078804 0 0.000242615 0 0)
(10.7329 0.0073825 0 0.000236547 0 0)
(10.8524 0.00692416 0 0.000230552 0 0)
(10.9722 0.00650784 0 0.000224662 0 0)
(11.0924 0.00613134 0 0.000218909 0 0)
(11.2128 0.00580257 0 0.000213339 0 0)
(11.3336 0.00551447 0 0.000207983 0 0)
(11.4547 0.00526667 0 0.000202844 0 0)
(11.576 0.00504908 0 0.000197941 0 0)
(11.6977 0.00486214 0 0.000193257 0 0)
(11.8197 0.00470468 0 0.000188801 0 0)
(11.9419 0.00456505 0 0.000184585 0 0)
(12.0644 0.00445349 0 0.000180565 0 0)
(12.1871 0.0043632 0 0.000176747 0 0)
(12.31 0.00429061 0 0.000173129 0 0)
(12.4332 0.0042307 0 0.000169674 0 0)
(12.5566 0.00417777 0 0.000166343 0 0)
(12.6802 0.00413001 0 0.000163109 0 0)
(12.8039 0.00408165 0 0.000159957 0 0)
(12.9278 0.00403757 0 0.000156886 0 0)
(13.0518 0.00399853 0 0.000153886 0 0)
(13.1759 0.00396745 0 0.000150945 0 0)
(13.3002 0.00393905 0 0.000148061 0 0)
(13.4246 0.00391256 0 0.000145238 0 0)
(13.549 0.00388968 0 0.000142464 0 0)
(13.6736 0.00387141 0 0.000139731 0 0)
(13.7983 0.00385633 0 0.00013704 0 0)
(13.923 0.00384329 0 0.00013439 0 0)
(14.0478 0.00383706 0 0.000131789 0 0)
(14.1726 0.00383933 0 0.00012923 0 0)
(14.2976 0.00384928 0 0.000126711 0 0)
(14.4226 0.0038662 0 0.000124237 0 0)
(14.5477 0.00388458 0 0.000121815 0 0)
(14.6729 0.00390803 0 0.000119441 0 0)
(14.7981 0.00393501 0 0.00011711 0 0)
(14.9235 0.00396739 0 0.000114816 0 0)
(15.0491 0.00399953 0 0.000112578 0 0)
(15.1747 0.00403635 0 0.000110378 0 0)
(15.3006 0.00407562 0 0.000108251 0 0)
(15.4268 0.00412063 0 0.000106138 0 0)
(15.5532 0.00416934 0 0.000104133 0 0)
(15.6799 0.00421537 0 0.00010211 0 0)
(15.807 0.00427612 0 0.000100261 0 0)
(15.9344 0.0043211 0 9.83328e-05 0 0)
(16.0621 0.00438962 0 9.67255e-05 0 0)
(16.1901 0.00442563 0 9.48523e-05 0 0)
(16.3182 0.00452143 0 9.36327e-05 0 0)
(16.4466 0.00452733 0 9.18494e-05 0 0)
(16.5746 0.00468669 0 9.13178e-05 0 0)
(16.7028 0.00464929 0 8.96827e-05 0 0)
(16.8296 0.00495309 0 9.03621e-05 0 0)
(16.9567 0.00481767 0 8.93533e-05 0 0)
(17.0802 0.00543484 0 9.19652e-05 0 0)
(17.2059 0.0052303 0 9.32685e-05 0 0)
(17.3207 0.00647275 0 9.82964e-05 0 0)
(17.4454 0.00675913 0 0.000111446 0 0)
(17.5357 0.00915889 0 0.000118979 0 0)
(17.6674 0.0157033 0 0.000238765 0 0)
(0.126529 0.00153754 0 3.74786e-05 0 0)
(0.063609 0.00297242 0 0.000408707 0 0)
(0.122061 0.00338871 0 0.00129822 0 0)
(0.209599 0.00626432 0 0.00278373 0 0)
(0.304254 0.0124061 0 0.00485329 0 0)
(0.406268 0.0202717 0 0.00745365 0 0)
(0.512871 0.0282387 0 0.0104869 0 0)
(0.621684 0.0355443 0 0.0137402 0 0)
(0.732508 0.0420428 0 0.0169192 0 0)
(0.844709 0.0476438 0 0.0197636 0 0)
(0.956982 0.052076 0 0.0221382 0 0)
(1.06839 0.0548268 0 0.024023 0 0)
(1.17883 0.0554049 0 0.0254126 0 0)
(1.28859 0.0535802 0 0.0262901 0 0)
(1.39789 0.0493769 0 0.0266424 0 0)
(1.50725 0.0429715 0 0.0264774 0 0)
(1.61769 0.0347424 0 0.0258327 0 0)
(1.73048 0.0253082 0 0.024776 0 0)
(1.84677 0.0153779 0 0.0233972 0 0)
(1.96749 0.00554335 0 0.0217953 0 0)
(2.09348 -0.00377095 0 0.0200627 0 0)
(2.22544 -0.0122647 0 0.0182824 0 0)
(2.36373 -0.0197399 0 0.0165201 0 0)
(2.50848 -0.0261021 0 0.0148221 0 0)
(2.65967 -0.0313493 0 0.013221 0 0)
(2.81713 -0.0355331 0 0.0117368 0 0)
(2.98061 -0.0387284 0 0.0103798 0 0)
(3.14981 -0.0410178 0 0.00915269 0 0)
(3.32437 -0.0424873 0 0.00805244 0 0)
(3.50391 -0.0432318 0 0.00707351 0 0)
(3.68802 -0.0433515 0 0.00620851 0 0)
(3.87631 -0.0429481 0 0.00544895 0 0)
(4.06839 -0.0421229 0 0.00478545 0 0)
(4.26387 -0.0409743 0 0.00420813 0 0)
(4.46245 -0.0395962 0 0.0037067 0 0)
(4.6638 -0.0380756 0 0.00327157 0 0)
(4.86764 -0.0364901 0 0.00289418 0 0)
(5.07374 -0.0349077 0 0.0025671 0 0)
(5.28188 -0.0333819 0 0.0022837 0 0)
(5.49191 -0.0319518 0 0.00203805 0 0)
(5.70371 -0.0306415 0 0.00182492 0 0)
(5.91718 -0.0294603 0 0.00163973 0 0)
(6.13225 -0.0284036 0 0.00147848 0 0)
(6.34888 -0.0274555 0 0.00133768 0 0)
(6.56702 -0.026593 0 0.00121439 0 0)
(6.78666 -0.0257896 0 0.00110616 0 0)
(7.00777 -0.0250177 0 0.00101088 0 0)
(7.2303 -0.0242523 0 0.00092684 0 0)
(7.45423 -0.0234724 0 0.000852576 0 0)
(7.67951 -0.0226633 0 0.000786877 0 0)
(7.90609 -0.0218182 0 0.000728755 0 0)
(8.13391 -0.0209365 0 0.000677333 0 0)
(8.36292 -0.0200246 0 0.000631855 0 0)
(8.59305 -0.0190914 0 0.000591591 0 0)
(8.82424 -0.0181503 0 0.00055592 0 0)
(9.05642 -0.0172152 0 0.000524297 0 0)
(9.28952 -0.0162975 0 0.000496193 0 0)
(9.52347 -0.0154057 0 0.000471107 0 0)
(9.7582 -0.0145472 0 0.000448604 0 0)
(9.99364 -0.013727 0 0.000428314 0 0)
(10.2297 -0.0129469 0 0.000409903 0 0)
(10.4663 -0.0122049 0 0.000393074 0 0)
(10.7035 -0.0114988 0 0.000377576 0 0)
(10.941 -0.0108269 0 0.000363208 0 0)
(11.1789 -0.0101869 0 0.000349814 0 0)
(11.4172 -0.00957471 0 0.000337242 0 0)
(11.6558 -0.00898605 0 0.000325358 0 0)
(11.8946 -0.00841605 0 0.000314039 0 0)
(12.1337 -0.0078619 0 0.000303214 0 0)
(12.373 -0.00732058 0 0.00029283 0 0)
(12.6125 -0.00678794 0 0.000282839 0 0)
(12.8522 -0.0062592 0 0.000273195 0 0)
(13.0921 -0.0057313 0 0.000263877 0 0)
(13.3322 -0.00520146 0 0.000254904 0 0)
(13.5724 -0.00466487 0 0.000246269 0 0)
(13.8127 -0.00411697 0 0.000237967 0 0)
(14.053 -0.00355439 0 0.000229998 0 0)
(14.2935 -0.00297801 0 0.000222387 0 0)
(14.5339 -0.00238962 0 0.000215172 0 0)
(14.7742 -0.00178882 0 0.00020836 0 0)
(15.0145 -0.00117539 0 0.000201945 0 0)
(15.2546 -0.000548248 0 0.000195905 0 0)
(15.4945 9.06452e-05 0 0.000190238 0 0)
(15.7342 0.000738273 0 0.000184948 0 0)
(15.9736 0.0013915 0 0.000180033 0 0)
(16.2127 0.00204846 0 0.000175473 0 0)
(16.4514 0.00270645 0 0.000171247 0 0)
(16.6897 0.0033623 0 0.00016735 0 0)
(16.9276 0.00401324 0 0.000163772 0 0)
(17.1649 0.00465654 0 0.000160495 0 0)
(17.4018 0.00529138 0 0.000157492 0 0)
(17.6381 0.00591502 0 0.000154737 0 0)
(17.8739 0.00652543 0 0.00015223 0 0)
(18.1091 0.00712063 0 0.000149941 0 0)
(18.3437 0.00769913 0 0.000147867 0 0)
(18.5777 0.00825827 0 0.000145958 0 0)
(18.8112 0.00879736 0 0.00014423 0 0)
(19.0441 0.00931249 0 0.000142635 0 0)
(19.2764 0.00980756 0 0.000141203 0 0)
(19.5082 0.0102779 0 0.000139843 0 0)
(19.7396 0.0107323 0 0.000138615 0 0)
(19.9706 0.0111583 0 0.000137411 0 0)
(20.2011 0.0115742 0 0.000136362 0 0)
(20.4313 0.0119561 0 0.000135287 0 0)
(20.6611 0.0123423 0 0.000134396 0 0)
(20.8907 0.0126849 0 0.000133422 0 0)
(21.1197 0.0130541 0 0.000132732 0 0)
(21.3489 0.0133646 0 0.000131949 0 0)
(21.5767 0.0137494 0 0.000131544 0 0)
(21.8055 0.0140594 0 0.000131184 0 0)
(22.0311 0.0145152 0 0.000131195 0 0)
(22.2596 0.0149046 0 0.000131982 0 0)
(22.4805 0.0155154 0 0.000132559 0 0)
(22.71 0.0162362 0 0.000136473 0 0)
(22.9209 0.0170898 0 0.000137554 0 0)
(23.1552 0.0189382 0 0.000150632 0 0)
(23.3445 0.0199944 0 0.000151377 0 0)
(23.5953 0.0257793 0 0.000198359 0 0)
(23.7341 0.0265468 0 0.000194943 0 0)
(24.0615 0.0459665 0 0.000411487 0 0)
(0.12644 0.00102109 0 1.88021e-05 0 0)
(0.0628223 0.00205488 0 0.000207096 0 0)
(0.120778 0.00227581 0 0.000657962 0 0)
(0.206491 0.00408058 0 0.0014124 0 0)
(0.297622 0.00813841 0 0.00247483 0 0)
(0.396353 0.0135519 0 0.00383179 0 0)
(0.502324 0.0194364 0 0.00544538 0 0)
(0.614856 0.025534 0 0.00723243 0 0)
(0.735062 0.0319529 0 0.00906974 0 0)
(0.863703 0.038734 0 0.0108291 0 0)
(1.00043 0.0456398 0 0.0124154 0 0)
(1.1444 0.0521763 0 0.0137781 0 0)
(1.29482 0.0577893 0 0.0148843 0 0)
(1.45064 0.0620684 0 0.0156987 0 0)
(1.61028 0.0647838 0 0.0161926 0 0)
(1.77214 0.0658411 0 0.0163519 0 0)
(1.93512 0.0653325 0 0.0161853 0 0)
(2.09847 0.0635647 0 0.0157298 0 0)
(2.26136 0.0609246 0 0.0150443 0 0)
(2.42315 0.0577436 0 0.0141935 0 0)
(2.58363 0.0542693 0 0.0132392 0 0)
(2.74293 0.0507057 0 0.012235 0 0)
(2.90124 0.047223 0 0.0112247 0 0)
(3.05871 0.0439434 0 0.0102406 0 0)
(3.21551 0.0409371 0 0.00930523 0 0)
(3.37185 0.038248 0 0.00843296 0 0)
(3.52798 0.0359096 0 0.00763127 0 0)
(3.68409 0.0339415 0 0.0069032 0 0)
(3.84037 0.0323436 0 0.00624845 0 0)
(3.997 0.0310971 0 0.00566436 0 0)
(4.15411 0.0301659 0 0.0051468 0 0)
(4.31183 0.0295005 0 0.00469059 0 0)
(4.47024 0.0290427 0 0.00428991 0 0)
(4.62943 0.0287295 0 0.00393874 0 0)
(4.78941 0.0285027 0 0.00363211 0 0)
(4.95022 0.0283104 0 0.00336514 0 0)
(5.11186 0.0281095 0 0.00313289 0 0)
(5.27432 0.0278674 0 0.00293056 0 0)
(5.43757 0.027563 0 0.0027538 0 0)
(5.60162 0.0271873 0 0.00259893 0 0)
(5.76643 0.0267426 0 0.00246279 0 0)
(5.932 0.026239 0 0.00234268 0 0)
(6.09834 0.0256929 0 0.00223627 0 0)
(6.26544 0.0251242 0 0.00214156 0 0)
(6.43333 0.0245545 0 0.00205694 0 0)
(6.60203 0.0240043 0 0.00198105 0 0)
(6.77157 0.0234914 0 0.00191274 0 0)
(6.94197 0.0230284 0 0.00185098 0 0)
(7.11326 0.0226225 0 0.00179489 0 0)
(7.28547 0.0222752 0 0.00174372 0 0)
(7.45862 0.0219814 0 0.00169682 0 0)
(7.63272 0.0217316 0 0.00165359 0 0)
(7.8078 0.0215125 0 0.0016134 0 0)
(7.98384 0.0213089 0 0.00157573 0 0)
(8.16086 0.0211057 0 0.00154012 0 0)
(8.33885 0.0208912 0 0.00150614 0 0)
(8.51781 0.0206564 0 0.00147343 0 0)
(8.69774 0.0203961 0 0.00144162 0 0)
(8.87863 0.0201093 0 0.00141049 0 0)
(9.06048 0.0197988 0 0.00137987 0 0)
(9.2433 0.0194685 0 0.0013497 0 0)
(9.42707 0.0191219 0 0.00131987 0 0)
(9.61182 0.0187635 0 0.00129028 0 0)
(9.79752 0.0183977 0 0.00126088 0 0)
(9.98419 0.018027 0 0.00123161 0 0)
(10.1718 0.0176529 0 0.00120242 0 0)
(10.3604 0.0172739 0 0.00117323 0 0)
(10.5499 0.0168887 0 0.001144 0 0)
(10.7404 0.0164966 0 0.00111468 0 0)
(10.9319 0.0160976 0 0.00108527 0 0)
(11.1242 0.0156922 0 0.00105572 0 0)
(11.3175 0.0152802 0 0.00102602 0 0)
(11.5117 0.0148639 0 0.00099621 0 0)
(11.7069 0.0144468 0 0.000966339 0 0)
(11.9029 0.0140316 0 0.000936504 0 0)
(12.0999 0.0136227 0 0.000906757 0 0)
(12.2978 0.013224 0 0.000877162 0 0)
(12.4966 0.0128404 0 0.000847803 0 0)
(12.6962 0.0124761 0 0.000818758 0 0)
(12.8967 0.0121354 0 0.000790105 0 0)
(13.0981 0.0118218 0 0.000761883 0 0)
(13.3004 0.0115377 0 0.000734178 0 0)
(13.5035 0.011284 0 0.000707073 0 0)
(13.7073 0.0110616 0 0.000680657 0 0)
(13.912 0.0108712 0 0.00065496 0 0)
(14.1174 0.0107131 0 0.000629988 0 0)
(14.3236 0.0105862 0 0.000605791 0 0)
(14.5304 0.0104897 0 0.000582397 0 0)
(14.7379 0.0104215 0 0.000559857 0 0)
(14.9461 0.0103801 0 0.000538147 0 0)
(15.1548 0.0103619 0 0.000517286 0 0)
(15.3641 0.0103653 0 0.000497259 0 0)
(15.5739 0.010387 0 0.0004781 0 0)
(15.7842 0.0104251 0 0.000459785 0 0)
(15.9949 0.0104759 0 0.000442285 0 0)
(16.2061 0.0105375 0 0.000425568 0 0)
(16.4176 0.0106071 0 0.000409653 0 0)
(16.6296 0.0106824 0 0.000394492 0 0)
(16.8419 0.0107612 0 0.0003801 0 0)
(17.0545 0.0108406 0 0.000366363 0 0)
(17.2676 0.0109198 0 0.000353355 0 0)
(17.481 0.0109961 0 0.000340931 0 0)
(17.6947 0.0110712 0 0.00032923 0 0)
(17.909 0.0111404 0 0.000318001 0 0)
(18.1234 0.0112089 0 0.000307501 0 0)
(18.3385 0.0112708 0 0.000297364 0 0)
(18.5535 0.0113375 0 0.000288045 0 0)
(18.7695 0.0114044 0 0.000278959 0 0)
(18.9846 0.0114851 0 0.00027079 0 0)
(19.2015 0.0115938 0 0.000262791 0 0)
(19.4156 0.0117193 0 0.000255839 0 0)
(19.6338 0.0119678 0 0.000249401 0 0)
(19.8444 0.0121899 0 0.000243913 0 0)
(20.0655 0.0128397 0 0.000240481 0 0)
(20.2678 0.0132396 0 0.000236947 0 0)
(20.4967 0.0150141 0 0.00024164 0 0)
(20.6807 0.0157158 0 0.000241315 0 0)
(20.9307 0.0206313 0 0.000276145 0 0)
(21.0731 0.0215829 0 0.000279069 0 0)
(21.4125 0.0340211 0 0.000436676 0 0)
(0.126435 0.000685889 0 9.1536e-06 0 0)
(0.062762 0.00140548 0 9.85546e-05 0 0)
(0.120672 0.00156403 0 0.00030989 0 0)
(0.206018 0.00279086 0 0.000664075 0 0)
(0.296246 0.0055286 0 0.00116317 0 0)
(0.393496 0.00912856 0 0.00179313 0 0)
(0.497388 0.0129603 0 0.00252779 0 0)
(0.607176 0.0168437 0 0.00332751 0 0)
(0.723936 0.0208663 0 0.00414016 0 0)
(0.848476 0.0250682 0 0.00491174 0 0)
(0.980598 0.0293144 0 0.00559989 0 0)
(1.11982 0.0333398 0 0.00618023 0 0)
(1.26596 0.0368823 0 0.00664101 0 0)
(1.41862 0.0397825 0 0.00697489 0 0)
(1.57667 0.0419719 0 0.00717786 0 0)
(1.73881 0.0434176 0 0.00725112 0 0)
(1.90427 0.0441377 0 0.007204 0 0)
(2.07243 0.0442339 0 0.00705355 0 0)
(2.24239 0.0438552 0 0.00682192 0 0)
(2.41324 0.043132 0 0.00653106 0 0)
(2.58453 0.0421699 0 0.00620101 0 0)
(2.75614 0.0410743 0 0.00584899 0 0)
(2.92802 0.0399478 0 0.00548984 0 0)
(3.10006 0.0388655 0 0.00513501 0 0)
(3.2722 0.037875 0 0.00479216 0 0)
(3.44447 0.0370082 0 0.00446579 0 0)
(3.61698 0.0362867 0 0.00415874 0 0)
(3.78979 0.03572 0 0.00387278 0 0)
(3.963 0.0353063 0 0.00360892 0 0)
(4.13672 0.0350336 0 0.00336719 0 0)
(4.31106 0.0348838 0 0.00314694 0 0)
(4.48614 0.0348326 0 0.00294705 0 0)
(4.66204 0.034853 0 0.00276628 0 0)
(4.83886 0.0349176 0 0.0026033 0 0)
(5.01666 0.0350024 0 0.00245696 0 0)
(5.19548 0.0350858 0 0.00232591 0 0)
(5.37535 0.0351496 0 0.00220867 0 0)
(5.55628 0.0351798 0 0.00210362 0 0)
(5.73826 0.0351688 0 0.00200933 0 0)
(5.92127 0.0351139 0 0.00192447 0 0)
(6.10529 0.0350185 0 0.00184797 0 0)
(6.2903 0.0348907 0 0.00177884 0 0)
(6.47627 0.034742 0 0.00171635 0 0)
(6.6632 0.0345856 0 0.00165978 0 0)
(6.85106 0.0344352 0 0.00160857 0 0)
(7.03986 0.0343034 0 0.00156215 0 0)
(7.2296 0.0342008 0 0.00152004 0 0)
(7.42026 0.0341352 0 0.00148177 0 0)
(7.61187 0.0341108 0 0.00144695 0 0)
(7.8044 0.0341266 0 0.00141518 0 0)
(7.99786 0.0341786 0 0.00138609 0 0)
(8.19223 0.0342594 0 0.00135931 0 0)
(8.3875 0.034361 0 0.00133452 0 0)
(8.58363 0.0344741 0 0.00131143 0 0)
(8.78059 0.0345903 0 0.00128974 0 0)
(8.97833 0.0347013 0 0.0012692 0 0)
(9.17681 0.0348013 0 0.00124965 0 0)
(9.37598 0.0348863 0 0.0012309 0 0)
(9.57578 0.0349546 0 0.00121285 0 0)
(9.77617 0.0350053 0 0.00119535 0 0)
(9.97709 0.0350388 0 0.00117835 0 0)
(10.1785 0.0350553 0 0.00116174 0 0)
(10.3804 0.0350559 0 0.00114551 0 0)
(10.5826 0.0350403 0 0.00112951 0 0)
(10.7853 0.0350085 0 0.00111373 0 0)
(10.9882 0.0349594 0 0.00109805 0 0)
(11.1915 0.0348924 0 0.00108246 0 0)
(11.395 0.0348065 0 0.00106687 0 0)
(11.5987 0.0347014 0 0.00105123 0 0)
(11.8026 0.0345771 0 0.00103546 0 0)
(12.0067 0.0344348 0 0.00101957 0 0)
(12.2109 0.0342755 0 0.00100354 0 0)
(12.4152 0.034102 0 0.000987376 0 0)
(12.6196 0.0339158 0 0.000971045 0 0)
(12.824 0.0337207 0 0.000954603 0 0)
(13.0285 0.0335191 0 0.000938056 0 0)
(13.233 0.0333149 0 0.000921496 0 0)
(13.4375 0.0331111 0 0.000904896 0 0)
(13.6421 0.0329109 0 0.0008883 0 0)
(13.8466 0.0327165 0 0.000871704 0 0)
(14.0511 0.0325309 0 0.000855217 0 0)
(14.2557 0.0323553 0 0.000838862 0 0)
(14.4602 0.0321914 0 0.000822717 0 0)
(14.6647 0.0320394 0 0.00080675 0 0)
(14.8692 0.031901 0 0.000791036 0 0)
(15.0737 0.0317758 0 0.00077557 0 0)
(15.2783 0.0316641 0 0.000760435 0 0)
(15.4828 0.031564 0 0.000745584 0 0)
(15.6872 0.0314752 0 0.000731083 0 0)
(15.8917 0.031396 0 0.000716885 0 0)
(16.0961 0.0313265 0 0.000703072 0 0)
(16.3004 0.0312635 0 0.000689581 0 0)
(16.5047 0.0312064 0 0.000676481 0 0)
(16.7089 0.0311521 0 0.000663696 0 0)
(16.913 0.0311009 0 0.000651312 0 0)
(17.1171 0.0310497 0 0.000639242 0 0)
(17.321 0.0309979 0 0.000627573 0 0)
(17.5248 0.0309418 0 0.00061618 0 0)
(17.7285 0.0308823 0 0.0006052 0 0)
(17.9322 0.0308155 0 0.000594458 0 0)
(18.1357 0.0307441 0 0.000584164 0 0)
(18.3392 0.0306614 0 0.000574026 0 0)
(18.5427 0.0305733 0 0.000564403 0 0)
(18.7461 0.0304705 0 0.000554801 0 0)
(18.9495 0.0303659 0 0.000545882 0 0)
(19.1529 0.0302432 0 0.000536721 0 0)
(19.356 0.0301274 0 0.000528558 0 0)
(19.5595 0.0299896 0 0.000519678 0 0)
(19.762 0.0298768 0 0.000512466 0 0)
(19.9655 0.0297429 0 0.000503671 0 0)
(20.1664 0.029666 0 0.000497822 0 0)
(20.3701 0.0295898 0 0.000488756 0 0)
(20.5675 0.0296174 0 0.000485116 0 0)
(20.7726 0.0297503 0 0.000475579 0 0)
(20.9626 0.030021 0 0.000475711 0 0)
(21.1732 0.0307581 0 0.00046691 0 0)
(21.3486 0.0314861 0 0.000473369 0 0)
(21.575 0.0337225 0 0.00047427 0 0)
(21.7177 0.0348144 0 0.000488103 0 0)
(22.0248 0.0398672 0 0.000536328 0 0)
(0.126431 0.000396148 0 3.18975e-06 0 0)
(0.0627271 0.000819876 0 3.40396e-05 0 0)
(0.120614 0.000914685 0 0.000106639 0 0)
(0.205772 0.00162616 0 0.000228553 0 0)
(0.295562 0.00321091 0 0.000400657 0 0)
(0.392173 0.00528624 0 0.00061758 0 0)
(0.495257 0.00748712 0 0.000869849 0 0)
(0.604019 0.00971044 0 0.00114447 0 0)
(0.719433 0.0120002 0 0.00142532 0 0)
(0.842256 0.0143763 0 0.00169535 0 0)
(0.972301 0.0167834 0 0.00194042 0 0)
(1.10909 0.0190995 0 0.00215168 0 0)
(1.25249 0.0211756 0 0.00232503 0 0)
(1.40216 0.0228937 0 0.00245869 0 0)
(1.55708 0.0241894 0 0.00255158 0 0)
(1.71607 0.0250285 0 0.00260342 0 0)
(1.87855 0.0254042 0 0.00261532 0 0)
(2.04408 0.0253621 0 0.00259007 0 0)
(2.21189 0.0249958 0 0.00253225 0 0)
(2.38107 0.0244057 0 0.00244749 0 0)
(2.55112 0.0236758 0 0.00234179 0 0)
(2.7219 0.0228791 0 0.00222117 0 0)
(2.89327 0.0220797 0 0.00209153 0 0)
(3.06506 0.0213245 0 0.00195781 0 0)
(3.23716 0.0206431 0 0.00182369 0 0)
(3.40958 0.0200517 0 0.00169199 0 0)
(3.58239 0.0195603 0 0.0015649 0 0)
(3.75567 0.0191739 0 0.00144404 0 0)
(3.92951 0.0188925 0 0.00133061 0 0)
(4.104 0.0187102 0 0.00122544 0 0)
(4.27928 0.0186167 0 0.00112894 0 0)
(4.45544 0.0185966 0 0.00104114 0 0)
(4.63259 0.0186315 0 0.000961835 0 0)
(4.81083 0.0187019 0 0.000890635 0 0)
(4.99021 0.0187893 0 0.000827 0 0)
(5.1708 0.0188766 0 0.000770311 0 0)
(5.35262 0.0189489 0 0.000719889 0 0)
(5.53571 0.0189943 0 0.000675055 0 0)
(5.72006 0.0190058 0 0.000635173 0 0)
(5.90567 0.0189806 0 0.000599664 0 0)
(6.09251 0.0189206 0 0.00056804 0 0)
(6.28058 0.0188315 0 0.000539858 0 0)
(6.46985 0.018722 0 0.000514753 0 0)
(6.66031 0.0186027 0 0.000492396 0 0)
(6.85195 0.0184842 0 0.000472491 0 0)
(7.04476 0.0183771 0 0.000454762 0 0)
(7.23873 0.0182903 0 0.000438961 0 0)
(7.43388 0.018231 0 0.000424856 0 0)
(7.6302 0.0182038 0 0.000412246 0 0)
(7.82769 0.0182103 0 0.000400941 0 0)
(8.02634 0.01825 0 0.000390778 0 0)
(8.22616 0.0183202 0 0.000381608 0 0)
(8.42712 0.018417 0 0.000373308 0 0)
(8.6292 0.0185349 0 0.000365771 0 0)
(8.83238 0.0186681 0 0.000358901 0 0)
(9.03661 0.0188102 0 0.000352609 0 0)
(9.24184 0.0189561 0 0.000346811 0 0)
(9.44804 0.0191016 0 0.000341443 0 0)
(9.65515 0.0192435 0 0.000336449 0 0)
(9.86312 0.0193793 0 0.000331778 0 0)
(10.0719 0.0195075 0 0.00032738 0 0)
(10.2815 0.0196281 0 0.000323212 0 0)
(10.4918 0.0197407 0 0.000319241 0 0)
(10.7027 0.0198452 0 0.000315437 0 0)
(10.9144 0.0199411 0 0.000311765 0 0)
(11.1266 0.020028 0 0.000308189 0 0)
(11.3394 0.0201061 0 0.000304682 0 0)
(11.5528 0.0201748 0 0.000301218 0 0)
(11.7667 0.0202335 0 0.000297772 0 0)
(11.981 0.0202818 0 0.000294314 0 0)
(12.1958 0.0203198 0 0.000290825 0 0)
(12.4111 0.0203483 0 0.000287294 0 0)
(12.6267 0.0203675 0 0.000283712 0 0)
(12.8427 0.0203783 0 0.000280076 0 0)
(13.059 0.0203815 0 0.000276377 0 0)
(13.2756 0.0203788 0 0.000272623 0 0)
(13.4926 0.0203718 0 0.000268821 0 0)
(13.7098 0.0203623 0 0.000264978 0 0)
(13.9273 0.0203519 0 0.000261099 0 0)
(14.1451 0.0203421 0 0.000257198 0 0)
(14.3631 0.0203344 0 0.000253298 0 0)
(14.5814 0.0203303 0 0.000249418 0 0)
(14.8 0.0203311 0 0.000245568 0 0)
(15.0187 0.0203378 0 0.00024175 0 0)
(15.2378 0.0203512 0 0.00023798 0 0)
(15.4571 0.020372 0 0.000234275 0 0)
(15.6766 0.0204003 0 0.000230646 0 0)
(15.8963 0.0204362 0 0.000227096 0 0)
(16.1162 0.0204797 0 0.00022362 0 0)
(16.3364 0.020531 0 0.000220231 0 0)
(16.5567 0.0205897 0 0.000216939 0 0)
(16.7772 0.0206549 0 0.000213754 0 0)
(16.9979 0.0207256 0 0.000210671 0 0)
(17.2187 0.0208012 0 0.000207686 0 0)
(17.4397 0.0208815 0 0.000204812 0 0)
(17.6608 0.0209653 0 0.000202043 0 0)
(17.882 0.0210518 0 0.000199396 0 0)
(18.1033 0.021139 0 0.000196847 0 0)
(18.3247 0.021227 0 0.000194422 0 0)
(18.5463 0.0213139 0 0.000192086 0 0)
(18.7679 0.0214008 0 0.000189893 0 0)
(18.9897 0.0214835 0 0.000187763 0 0)
(19.2116 0.021566 0 0.000185812 0 0)
(19.4337 0.0216411 0 0.000183873 0 0)
(19.6559 0.0217187 0 0.000182176 0 0)
(19.8784 0.0217851 0 0.000180387 0 0)
(20.1006 0.0218606 0 0.000178978 0 0)
(20.3235 0.0219191 0 0.000177282 0 0)
(20.5453 0.0220014 0 0.000176258 0 0)
(20.7686 0.0220609 0 0.000174572 0 0)
(20.989 0.0221726 0 0.000174117 0 0)
(21.213 0.0222632 0 0.000172285 0 0)
(21.4298 0.0224561 0 0.000172744 0 0)
(21.6563 0.0226673 0 0.000170645 0 0)
(21.8652 0.0230468 0 0.000172702 0 0)
(22.099 0.0235925 0 0.000170792 0 0)
(22.2916 0.0242919 0 0.000175621 0 0)
(22.5449 0.0255554 0 0.000177101 0 0)
(22.6996 0.0264186 0 0.000184929 0 0)
(23.0423 0.0288132 0 0.000200056 0 0)
(0.12643 0.000123505 0 3.22096e-07 0 0)
(0.0627092 0.000259568 0 3.4591e-06 0 0)
(0.120583 0.000288342 0 1.08975e-05 0 0)
(0.205649 0.000511273 0 2.34601e-05 0 0)
(0.295226 0.00100534 0 4.12581e-05 0 0)
(0.391533 0.00164585 0 6.37304e-05 0 0)
(0.494237 0.00232083 0 8.98841e-05 0 0)
(0.602509 0.00299614 0 0.000118447 0 0)
(0.717294 0.00367763 0 0.000147883 0 0)
(0.839375 0.00437004 0 0.000176579 0 0)
(0.968563 0.00506214 0 0.000203082 0 0)
(1.10434 0.00571446 0 0.000226472 0 0)
(1.24655 0.00626555 0 0.000246282 0 0)
(1.39495 0.00666765 0 0.000262379 0 0)
(1.5486 0.0069057 0 0.000274604 0 0)
(1.7064 0.00698406 0 0.000282874 0 0)
(1.8678 0.00691513 0 0.000287048 0 0)
(2.03246 0.00672982 0 0.000287184 0 0)
(2.19963 0.00647585 0 0.000283448 0 0)
(2.36836 0.00620048 0 0.00027631 0 0)
(2.53809 0.00593546 0 0.000266351 0 0)
(2.70864 0.00570034 0 0.000254305 0 0)
(2.87986 0.00550897 0 0.000240844 0 0)
(3.05154 0.00537222 0 0.0002266 0 0)
(3.22356 0.00529487 0 0.000212094 0 0)
(3.3959 0.00527939 0 0.00019773 0 0)
(3.56864 0.005325 0 0.000183794 0 0)
(3.74184 0.00542812 0 0.000170518 0 0)
(3.91559 0.00558159 0 0.00015804 0 0)
(4.08996 0.00577514 0 0.000146488 0 0)
(4.26508 0.00599544 0 0.000135929 0 0)
(4.44104 0.0062275 0 0.000126382 0 0)
(4.61795 0.00645495 0 0.000117808 0 0)
(4.79589 0.00666247 0 0.000110147 0 0)
(4.97494 0.00683603 0 0.000103317 0 0)
(5.15517 0.00696452 0 9.72488e-05 0 0)
(5.33663 0.00703954 0 9.187e-05 0 0)
(5.51933 0.0070563 0 8.71214e-05 0 0)
(5.7033 0.00701362 0 8.29394e-05 0 0)
(5.88854 0.00691447 0 7.92682e-05 0 0)
(6.07503 0.00676503 0 7.60518e-05 0 0)
(6.26276 0.00657448 0 7.32435e-05 0 0)
(6.45172 0.00635374 0 7.07953e-05 0 0)
(6.64188 0.00611497 0 6.86688e-05 0 0)
(6.83324 0.00587019 0 6.68204e-05 0 0)
(7.02578 0.00563095 0 6.5215e-05 0 0)
(7.2195 0.0054073 0 6.38116e-05 0 0)
(7.41438 0.00520756 0 6.25752e-05 0 0)
(7.61043 0.0050381 0 6.14711e-05 0 0)
(7.80762 0.00490342 0 6.04744e-05 0 0)
(8.00597 0.00480575 0 5.9561e-05 0 0)
(8.20545 0.00474574 0 5.87156e-05 0 0)
(8.40605 0.00472191 0 5.79259e-05 0 0)
(8.60774 0.00473186 0 5.71855e-05 0 0)
(8.81049 0.0047719 0 5.64872e-05 0 0)
(9.01427 0.00483819 0 5.58262e-05 0 0)
(9.21904 0.00492668 0 5.51973e-05 0 0)
(9.42474 0.00503384 0 5.45986e-05 0 0)
(9.63135 0.00515654 0 5.40249e-05 0 0)
(9.8388 0.00529231 0 5.34735e-05 0 0)
(10.0471 0.00543888 0 5.29397e-05 0 0)
(10.2561 0.00559441 0 5.2424e-05 0 0)
(10.4659 0.00575716 0 5.1923e-05 0 0)
(10.6763 0.0059255 0 5.14361e-05 0 0)
(10.8874 0.00609751 0 5.09585e-05 0 0)
(11.0992 0.0062714 0 5.04895e-05 0 0)
(11.3115 0.00644534 0 5.00242e-05 0 0)
(11.5244 0.00661742 0 4.956e-05 0 0)
(11.7379 0.00678552 0 4.90913e-05 0 0)
(11.9518 0.00694754 0 4.86168e-05 0 0)
(12.1663 0.00710169 0 4.81319e-05 0 0)
(12.3812 0.00724679 0 4.76354e-05 0 0)
(12.5965 0.00738175 0 4.71229e-05 0 0)
(12.8122 0.00750605 0 4.65933e-05 0 0)
(13.0284 0.0076189 0 4.60451e-05 0 0)
(13.2449 0.00772027 0 4.54799e-05 0 0)
(13.4619 0.00781043 0 4.4897e-05 0 0)
(13.6791 0.0078901 0 4.42987e-05 0 0)
(13.8968 0.00795996 0 4.36865e-05 0 0)
(14.1147 0.00802094 0 4.30635e-05 0 0)
(14.333 0.00807429 0 4.24314e-05 0 0)
(14.5517 0.00812133 0 4.17946e-05 0 0)
(14.7707 0.00816323 0 4.1155e-05 0 0)
(14.99 0.00820102 0 4.05178e-05 0 0)
(15.2096 0.0082357 0 3.98844e-05 0 0)
(15.4296 0.00826861 0 3.92579e-05 0 0)
(15.6499 0.00830084 0 3.86378e-05 0 0)
(15.8705 0.00833339 0 3.80271e-05 0 0)
(16.0913 0.00836677 0 3.74272e-05 0 0)
(16.3125 0.00840173 0 3.6841e-05 0 0)
(16.534 0.00843879 0 3.62685e-05 0 0)
(16.7557 0.0084786 0 3.57104e-05 0 0)
(16.9776 0.00852124 0 3.51658e-05 0 0)
(17.1998 0.00856668 0 3.46371e-05 0 0)
(17.4222 0.00861495 0 3.41255e-05 0 0)
(17.6448 0.00866587 0 3.36314e-05 0 0)
(17.8677 0.00871938 0 3.31549e-05 0 0)
(18.0907 0.00877502 0 3.26946e-05 0 0)
(18.3139 0.00883276 0 3.22537e-05 0 0)
(18.5373 0.00889167 0 3.18303e-05 0 0)
(18.7609 0.00895162 0 3.14307e-05 0 0)
(18.9847 0.00901122 0 3.10463e-05 0 0)
(19.2088 0.00907125 0 3.06898e-05 0 0)
(19.4331 0.00912988 0 3.03432e-05 0 0)
(19.6576 0.00918941 0 3.00345e-05 0 0)
(19.8825 0.00924562 0 2.97246e-05 0 0)
(20.1072 0.00930325 0 2.94719e-05 0 0)
(20.3327 0.00935505 0 2.91954e-05 0 0)
(20.5572 0.0094113 0 2.90132e-05 0 0)
(20.7833 0.00946006 0 2.87612e-05 0 0)
(21.0065 0.00952051 0 2.86732e-05 0 0)
(21.2337 0.00957472 0 2.84251e-05 0 0)
(21.4534 0.0096543 0 2.84779e-05 0 0)
(21.6835 0.00974098 0 2.8204e-05 0 0)
(21.8954 0.00987305 0 2.8482e-05 0 0)
(22.1334 0.0100552 0 2.81642e-05 0 0)
(22.3288 0.0102789 0 2.8797e-05 0 0)
(22.5872 0.0106463 0 2.85606e-05 0 0)
(22.7437 0.0108992 0 2.9504e-05 0 0)
(23.093 0.0115224 0 2.96854e-05 0 0)
(0.12643 -0.000144444 0 4.35832e-07 0 0)
(0.0627086 -0.000293008 0 4.46851e-06 0 0)
(0.12058 -0.000330359 0 1.36819e-05 0 0)
(0.205644 -0.000586416 0 2.89148e-05 0 0)
(0.295215 -0.00115973 0 5.028e-05 0 0)
(0.39151 -0.00192247 0 7.71473e-05 0 0)
(0.4942 -0.0027449 0 0.000108372 0 0)
(0.602454 -0.00359044 0 0.000142549 0 0)
(0.717221 -0.00447984 0 0.000177878 0 0)
(0.83928 -0.00543253 0 0.000212479 0 0)
(0.968445 -0.00644051 0 0.000244672 0 0)
(1.1042 -0.00746005 0 0.000273366 0 0)
(1.24639 -0.00842585 0 0.000297861 0 0)
(1.39478 -0.00928636 0 0.000317672 0 0)
(1.54843 -0.0100161 0 0.00033229 0 0)
(1.70625 -0.0105977 0 0.000341429 0 0)
(1.86769 -0.0110136 0 0.000344904 0 0)
(2.03241 -0.0112609 0 0.000342935 0 0)
(2.19966 -0.0113565 0 0.000336082 0 0)
(2.36849 -0.0113212 0 0.000325247 0 0)
(2.53833 -0.0111678 0 0.000311315 0 0)
(2.70898 -0.0109091 0 0.000295252 0 0)
(2.88029 -0.0105616 0 0.000277953 0 0)
(3.05204 -0.0101456 0 0.000260191 0 0)
(3.22411 -0.00968029 0 0.000242564 0 0)
(3.39649 -0.00918463 0 0.000225523 0 0)
(3.56924 -0.00867839 0 0.000209345 0 0)
(3.74244 -0.00818137 0 0.000194235 0 0)
(3.91615 -0.00771283 0 0.000180271 0 0)
(4.09046 -0.00728956 0 0.000167526 0 0)
(4.2655 -0.00692515 0 0.00015602 0 0)
(4.44136 -0.00662864 0 0.000145759 0 0)
(4.61815 -0.00640574 0 0.000136691 0 0)
(4.79597 -0.00625887 0 0.000128754 0 0)
(4.97489 -0.00618725 0 0.000121867 0 0)
(5.15499 -0.00618799 0 0.000115948 0 0)
(5.33631 -0.00625593 0 0.000110909 0 0)
(5.51888 -0.00638455 0 0.000106666 0 0)
(5.70274 -0.00656556 0 0.000103137 0 0)
(5.88787 -0.00678978 0 0.000100247 0 0)
(6.07428 -0.007047 0 9.79247e-05 0 0)
(6.26195 -0.00732706 0 9.61017e-05 0 0)
(6.45087 -0.00762009 0 9.47095e-05 0 0)
(6.64102 -0.00791727 0 9.36877e-05 0 0)
(6.83238 -0.00821085 0 9.2976e-05 0 0)
(7.02495 -0.00849456 0 9.25223e-05 0 0)
(7.2187 -0.00876324 0 9.22768e-05 0 0)
(7.41364 -0.0090132 0 9.21985e-05 0 0)
(7.60975 -0.00924125 0 9.22462e-05 0 0)
(7.80702 -0.00944524 0 9.23849e-05 0 0)
(8.00544 -0.00962356 0 9.25796e-05 0 0)