/*--------------------------------*- C++ -*----------------------------------*\
  =========                 |
  \\      /  F ield         | OpenFOAM: The Open Source CFD Toolbox
   \\    /   O peration     | Website:  https://openfoam.org
    \\  /    A nd           | Version:  7
     \\/     M anipulation  |
\*---------------------------------------------------------------------------*/
FoamFile
{
    version     2.0;
    format      ascii;
    class       volSymmTensorField;
    location    "1.1475";
    object      UPrime2Mean;
}
// * * * * * * * * * * * * * * * * * * * * * * * * * * * * * * * * * * * * * //

dimensions      [0 2 -2 0 0 0 0];

internalField   nonuniform List<symmTensor> 
7920
(
(0.0204504 -0.00164638 -0.00213059 0.000224787 0.000253046 0.000579438)
(0.0872422 0.0118496 -0.0065915 0.00207359 -0.000837584 0.00240426)
(0.132339 0.0212895 -0.0101206 0.00447711 -0.00141903 0.00542894)
(0.176162 0.0276465 -0.0124684 0.00561725 -0.00146517 0.00764194)
(0.18382 0.0279466 -0.0150312 0.00601237 -0.00162724 0.00855441)
(0.206866 0.0295828 -0.0164017 0.00613626 -0.00155034 0.00783769)
(0.205449 0.0284458 -0.0178101 0.00622197 -0.00167647 0.00673808)
(0.221368 0.029204 -0.0179639 0.00623445 -0.001611 0.00542732)
(0.218232 0.0279966 -0.0184 0.00627446 -0.00169963 0.00462234)
(0.230583 0.0284009 -0.0181062 0.00627601 -0.00162685 0.00401906)
(0.227425 0.0272498 -0.0183026 0.00629773 -0.00167435 0.00378732)
(0.237377 0.0273806 -0.0180264 0.00629411 -0.00160207 0.00358079)
(0.234689 0.0263217 -0.0180818 0.00630464 -0.00162253 0.00352765)
(0.242809 0.0262546 -0.0179162 0.00630158 -0.00156326 0.00349348)
(0.240826 0.0252936 -0.0177562 0.00630214 -0.00155031 0.00348478)
(0.24749 0.0250809 -0.0179531 0.00631239 -0.0015262 0.00363191)
(0.246195 0.0240593 -0.0173387 0.00624974 -0.00143055 0.00353769)
(0.252477 0.0239248 -0.0184301 0.00637883 -0.00152639 0.00392495)
(0.248656 0.0203959 -0.0164357 0.00542766 -0.00105909 0.00357288)
(0.272959 0.0280145 -0.0190808 0.00681231 -0.00179729 0.00404155)
(0.00623322 0.000788458 0.000259709 0.0103201 0.00160008 0.000450623)
(0.0125134 -0.00621972 -0.00108941 0.0115131 0.00236739 0.00169352)
(0.0368164 -0.0112742 -0.00340525 0.00991715 0.00265553 0.00390067)
(0.0715151 -0.0156087 -0.00670264 0.0080197 0.00235831 0.00606579)
(0.10633 -0.0155458 -0.0103343 0.00715847 0.00221306 0.00774805)
(0.139677 -0.0167148 -0.0137653 0.00676337 0.00194018 0.00806774)
(0.168695 -0.0158195 -0.0168112 0.00660593 0.00184968 0.00767582)
(0.194709 -0.0162694 -0.0187739 0.00650716 0.00168119 0.00669735)
(0.217961 -0.0153062 -0.0201964 0.00647603 0.00166163 0.0057861)
(0.238653 -0.0153735 -0.0207922 0.00642713 0.00156342 0.00498429)
(0.257863 -0.0144287 -0.0213245 0.00641928 0.00156685 0.00443271)
(0.274929 -0.0142316 -0.0214332 0.00638368 0.00150189 0.00400214)
(0.291264 -0.0133594 -0.0215702 0.00638465 0.00150337 0.00369191)
(0.305836 -0.0129693 -0.0215655 0.00635834 0.00146524 0.00349201)
(0.320104 -0.0122094 -0.02124 0.00635694 0.00143746 0.00328968)
(0.333437 -0.0115211 -0.0214757 0.00636295 0.00143805 0.00334482)
(0.344622 -0.0109809 -0.0204946 0.00629704 0.0013322 0.00315041)
(0.361095 -0.00912328 -0.0216709 0.0063966 0.00138827 0.00351279)
(0.354752 -0.00908891 -0.0190471 0.00619482 0.00111096 0.00318386)
(0.379941 0.000528868 -0.0211454 0.00568119 0.000956035 0.0037307)
(0.00839973 0.00132195 0.000927357 0.00148483 0.000480243 0.000436048)
(0.0147416 -0.000352388 0.00209395 0.00208277 9.07474e-05 0.00147271)
(0.0278249 -0.00356521 0.00378337 0.00334438 -5.78574e-06 0.00302968)
(0.0294056 -0.00519664 0.00364053 0.00454335 -8.73088e-05 0.00464375)
(0.0371887 -0.00811038 0.00379723 0.00508962 -0.000355435 0.00644948)
(0.0419555 -0.00827428 0.00252024 0.00538452 -0.000542051 0.00777981)
(0.0519566 -0.00996995 0.0014669 0.00554784 -0.000900575 0.00875201)
(0.0621485 -0.00945681 -0.000632576 0.00565185 -0.00107857 0.00895096)
(0.074812 -0.010505 -0.00220842 0.00574171 -0.00130978 0.00874222)
(0.0884096 -0.00992751 -0.00408001 0.00581116 -0.00137312 0.00806979)
(0.102311 -0.0107465 -0.00516564 0.0058711 -0.00147234 0.00731513)
(0.117327 -0.0103419 -0.00631599 0.00592474 -0.00146031 0.00645484)
(0.131284 -0.011086 -0.00682745 0.00596577 -0.00148663 0.00564483)
(0.146686 -0.0109158 -0.00738883 0.00600205 -0.00144417 0.00490959)
(0.16016 -0.0117127 -0.00735152 0.00604329 -0.00143529 0.0042074)
(0.176044 -0.0115003 -0.00732073 0.00602441 -0.00140969 0.00376476)
(0.188462 -0.0128876 -0.00672828 0.00615404 -0.00131878 0.00326121)
(0.206135 -0.0112107 -0.00638342 0.0059734 -0.00153 0.00323459)
(0.215025 -0.0139552 -0.00538835 0.00608021 -0.00104988 0.00291524)
(0.24015 -0.00686306 -0.0045073 0.00829491 -0.00267625 0.00322115)
(0.00860125 0.00369846 0.000918589 0.0046084 0.000991775 0.000411807)
(0.0170613 0.00858415 0.00231394 0.00801788 0.00187285 0.00140361)
(0.0433714 0.01683 0.00535011 0.00950975 0.00253098 0.002799)
(0.0582236 0.0181427 0.00705233 0.00890494 0.00250321 0.00412777)
(0.0822671 0.0213235 0.00970713 0.00833536 0.00252234 0.0057933)
(0.0924061 0.0206488 0.0106861 0.00787145 0.00230531 0.0072775)
(0.1106 0.0224651 0.0121464 0.00753984 0.00221367 0.00881022)
(0.118322 0.0215846 0.0116282 0.00726725 0.00199769 0.00976267)
(0.133656 0.0230484 0.0115219 0.00708615 0.00193019 0.0103492)
(0.141752 0.0223891 0.0100445 0.00690537 0.00177503 0.01027)
(0.155956 0.023691 0.00945104 0.00680024 0.00174351 0.00987171)
(0.16529 0.023312 0.00811747 0.00667374 0.00165182 0.00913381)
(0.178805 0.0244826 0.00760342 0.0066163 0.00163939 0.0082443)
(0.189532 0.0243612 0.00667557 0.00651996 0.0015944 0.00726842)
(0.202213 0.0253738 0.00635453 0.00650319 0.00156946 0.0062381)
(0.214652 0.0255089 0.00624711 0.00640983 0.00154495 0.00528966)
(0.225909 0.0262712 0.00640689 0.00644925 0.0015307 0.00441932)
(0.241249 0.0267198 0.00747505 0.00631654 0.00142783 0.00378174)
(0.24976 0.0269511 0.00772115 0.0063772 0.00144019 0.00326623)
(0.273229 0.029209 0.0107296 0.0068546 0.00113334 0.00312585)
(0.00852254 -0.000249412 0.000910858 0.000174631 -4.47294e-05 0.000411259)
(0.0160085 -0.00241909 0.0021705 0.00184413 -0.000551748 0.00143051)
(0.0447739 -0.00653967 0.00544425 0.00323107 -0.000732858 0.00279483)
(0.0654349 -0.0083246 0.0075236 0.00435812 -0.000698854 0.00407291)
(0.100195 -0.0123265 0.0110633 0.0049687 -0.000838898 0.00561831)
(0.120681 -0.0136483 0.0129103 0.00527222 -0.000888652 0.00710911)
(0.153307 -0.0170138 0.0156423 0.00545081 -0.00112182 0.00870872)
(0.171171 -0.0178256 0.0160626 0.005547 -0.00120818 0.00994474)
(0.200945 -0.0204209 0.017062 0.00563365 -0.00138763 0.0108493)
(0.21737 -0.0209689 0.0161637 0.00568859 -0.00142462 0.0111639)
(0.244748 -0.0230652 0.0162945 0.00574661 -0.0015273 0.0110945)
(0.260592 -0.0235521 0.0152109 0.00578581 -0.00151819 0.0106103)
(0.285895 -0.0253237 0.0151721 0.0058373 -0.00157367 0.00992516)
(0.301597 -0.025804 0.0141803 0.00585426 -0.00152233 0.00897388)
(0.325108 -0.0274823 0.0141213 0.00593074 -0.0015639 0.00798515)
(0.340471 -0.0277981 0.0135615 0.00585596 -0.00148096 0.006798)
(0.362484 -0.0297163 0.0140931 0.00608733 -0.0015032 0.00580123)
(0.377493 -0.0303122 0.0145579 0.0057519 -0.00156282 0.00476779)
(0.394698 -0.0308482 0.0156035 0.00620763 -0.00131923 0.00403359)
(0.416944 -0.0397396 0.018642 0.00748098 -0.00239627 0.00363607)
(0.00839402 0.00182759 0.000875858 0.00115303 0.00048225 0.000401752)
(0.0146516 0.00468835 0.00196609 0.00369505 0.00114447 0.00141733)
(0.0419447 0.0113373 0.00511215 0.00525664 0.00160144 0.00278837)
(0.0628886 0.0136595 0.00720608 0.00579379 0.00158218 0.00405402)
(0.0995982 0.0182192 0.0108861 0.00606606 0.00169762 0.00557627)
(0.123519 0.0193776 0.0129659 0.00614292 0.00161534 0.00704805)
(0.161454 0.022841 0.0160413 0.00619639 0.00170438 0.00864328)
(0.184818 0.0234469 0.0167996 0.00618984 0.00162997 0.00992691)
(0.22229 0.0261604 0.018205 0.00620389 0.00169303 0.0109138)
(0.245258 0.026524 0.0175998 0.00618192 0.00161928 0.0113564)
(0.281571 0.028733 0.0180798 0.00618771 0.00165917 0.0114259)
(0.3042 0.029047 0.0171906 0.00616483 0.00159439 0.0110792)
(0.338809 0.0309113 0.0174428 0.00617509 0.001626 0.0105337)
(0.36123 0.0312053 0.016508 0.00614608 0.0015661 0.00966505)
(0.393638 0.032926 0.0166361 0.00618196 0.00159547 0.00876736)
(0.415928 0.0330024 0.0159234 0.0061027 0.00152259 0.00755241)
(0.444941 0.0349875 0.0166146 0.00624434 0.00155689 0.006541)
(0.468628 0.0349687 0.0168407 0.00601829 0.00151144 0.00539286)
(0.487286 0.0358694 0.0181962 0.0062846 0.00143333 0.00451773)
(0.521138 0.0406811 0.0213253 0.00721864 0.00181037 0.00407309)
(0.00839403 -0.00182761 0.000875864 0.00115302 -0.000482254 0.000401754)
(0.0146516 -0.00468833 0.00196607 0.00369504 -0.00114447 0.00141733)
(0.0419447 -0.0113373 0.0051122 0.00525663 -0.00160146 0.00278837)
(0.0628886 -0.0136594 0.00720598 0.00579378 -0.00158217 0.00405404)
(0.0995983 -0.0182192 0.0108863 0.00606607 -0.00169766 0.00557624)
(0.123519 -0.0193774 0.0129656 0.00614292 -0.00161531 0.00704805)
(0.161454 -0.0228411 0.0160419 0.00619642 -0.00170447 0.00864329)
(0.184818 -0.0234468 0.0167987 0.0061898 -0.00162987 0.00992675)
(0.222291 -0.0261603 0.0182066 0.00620388 -0.00169319 0.010914)
(0.245258 -0.026523 0.0175975 0.00618182 -0.00161904 0.0113558)
(0.281574 -0.0287318 0.0180832 0.00618752 -0.00165945 0.0114268)
(0.304199 -0.0290441 0.0171859 0.00616437 -0.00159378 0.011078)
(0.33882 -0.0309068 0.0174494 0.00617453 -0.00162625 0.0105351)
(0.361225 -0.0311928 0.0165 0.00614438 -0.00156459 0.00966358)
(0.393666 -0.0329172 0.0166463 0.00618104 -0.0015956 0.00876882)
(0.415919 -0.0329563 0.0159125 0.00609607 -0.00151815 0.00755115)
(0.444996 -0.0349795 0.0166249 0.00624426 -0.00155711 0.00654205)
(0.46861 -0.0348339 0.0168337 0.00599868 -0.00150069 0.00539291)
(0.487373 -0.0358311 0.018191 0.00628276 -0.00143034 0.00451601)
(0.52113 -0.0404715 0.0213446 0.00718228 -0.00179625 0.00407883)
(0.00852256 0.000249394 0.000910873 0.000174629 4.4727e-05 0.000411263)
(0.0160085 0.00241911 0.00217046 0.00184413 0.000551741 0.00143051)
(0.0447739 0.00653967 0.00544441 0.00323107 0.000732854 0.00279482)
(0.065435 0.00832461 0.00752328 0.00435811 0.000698842 0.00407296)
(0.100195 0.0123265 0.0110639 0.00496868 0.000838906 0.00561823)
(0.120681 0.0136483 0.0129093 0.00527217 0.000888616 0.00710911)
(0.153307 0.0170137 0.0156441 0.00545077 0.00112185 0.00870869)
(0.171173 0.0178256 0.0160597 0.00554698 0.00120809 0.00994424)
(0.200943 0.020421 0.0170666 0.00563362 0.00138776 0.0108501)
(0.217374 0.0209695 0.0161567 0.00568854 0.00142434 0.0111619)
(0.244743 0.0230664 0.016305 0.0057467 0.00152779 0.0110975)
(0.260604 0.0235538 0.015196 0.00578593 0.00151753 0.0106057)
(0.285883 0.0253277 0.0151935 0.00583768 0.00157509 0.00993089)
(0.301627 0.0258128 0.0141517 0.00585512 0.00152119 0.00896723)
(0.325091 0.0274895 0.0141606 0.00593144 0.00156692 0.007993)
(0.340541 0.0278344 0.0135133 0.00586044 0.00148067 0.00678985)
(0.362493 0.0297221 0.0141528 0.00608746 0.00150843 0.00581069)
(0.377648 0.0304272 0.0145005 0.00576937 0.00156617 0.00475985)
(0.394838 0.0308754 0.0156613 0.00620934 0.00132856 0.00403875)
(0.417291 0.0399405 0.0186357 0.00752716 0.00240308 0.00364145)
(0.00860127 -0.00369848 0.000918607 0.00460838 -0.000991804 0.00041181)
(0.0170613 -0.00858412 0.00231386 0.00801786 -0.00187278 0.00140361)
(0.0433714 -0.01683 0.00535034 0.00950975 -0.00253111 0.002799)
(0.0582236 -0.0181426 0.00705185 0.0089049 -0.00250301 0.00412781)
(0.0822672 -0.0213236 0.00970787 0.00833536 -0.00252263 0.00579312)
(0.0924062 -0.0206487 0.0106847 0.0078714 -0.00230487 0.00727739)
(0.1106 -0.0224653 0.0121486 0.00753986 -0.00221432 0.00881001)
(0.118322 -0.0215847 0.0116249 0.00726717 -0.00199674 0.00976181)
(0.133656 -0.0230485 0.0115273 0.00708615 -0.00193152 0.0103506)
(0.141754 -0.0223888 0.0100367 0.00690511 -0.00177308 0.0102663)
(0.155956 -0.0236909 0.00946355 0.00680008 -0.00174608 0.00987771)
(0.165296 -0.0233113 0.00809949 0.00667313 -0.00164783 0.00912421)
(0.178808 -0.0244818 0.00763301 0.00661578 -0.00164429 0.00825831)
(0.189546 -0.0243564 0.00663279 0.00651779 -0.00158589 0.00725016)
(0.202228 -0.0253744 0.00642305 0.00650277 -0.00157935 0.00626272)
(0.214682 -0.0254916 0.00615084 0.00640283 -0.00152638 0.00525935)
(0.225959 -0.0262809 0.00654828 0.00645047 -0.00155099 0.00445834)
(0.241296 -0.0266734 0.00729492 0.00629849 -0.00139164 0.00373596)
(0.249885 -0.0269697 0.00794976 0.00637974 -0.00147408 0.00331611)
(0.273326 -0.0291429 0.0104888 0.00683535 -0.00108176 0.00308241)
(0.00839977 -0.00132197 0.000927371 0.00148482 -0.000480258 0.000436051)
(0.0147416 0.000352399 0.00209389 0.00208276 -9.07151e-05 0.0014727)
(0.0278249 0.00356519 0.00378347 0.00334437 5.75059e-06 0.00302967)
(0.0294056 0.0051966 0.00364034 0.00454334 8.7382e-05 0.00464371)
(0.0371886 0.00811033 0.00379722 0.00508959 0.000355415 0.00644917)
(0.0419554 0.00827424 0.00252035 0.00538446 0.000542113 0.00777954)
(0.0519564 0.00996981 0.00146634 0.00554779 0.000900624 0.00875164)
(0.0621477 0.00945663 -0.0006305 0.00565181 0.00107846 0.0089501)
(0.0748122 0.0105047 -0.0022119 0.00574168 0.00131014 0.00874375)
(0.0884072 0.00992755 -0.0040722 0.00581098 0.0013723 0.00806596)
(0.102312 0.0107458 -0.005178 0.00587123 0.00147392 0.00732306)
(0.117318 0.010342 -0.00629462 0.00592465 0.00145743 0.00644195)
(0.131286 0.0110847 -0.00685786 0.00596621 0.00149165 0.00566707)
(0.146661 0.0109163 -0.00734429 0.00600205 0.00143585 0.00487726)
(0.160151 0.0117105 -0.00740581 0.00604443 0.00144938 0.00425632)
(0.175985 0.0114963 -0.00725074 0.00602627 0.00138787 0.00369634)
(0.188404 0.0128843 -0.00679583 0.00615511 0.00135583 0.00335516)
(0.206013 0.0112094 -0.00628961 0.00598462 0.00147048 0.00310703)
(0.214826 0.0139555 -0.00545503 0.00608317 0.00113944 0.00306869)
(0.23982 0.00694547 -0.00432799 0.00832804 0.0024645 0.00303354)
(0.00623326 -0.000788491 0.000259713 0.0103201 -0.00160009 0.000450628)
(0.0125134 0.00621974 -0.00108937 0.0115131 -0.00236733 0.00169353)
(0.0368164 0.0112741 -0.00340539 0.00991715 -0.00265561 0.00390068)
(0.071515 0.0156087 -0.00670211 0.00801967 -0.00235816 0.00606571)
(0.10633 0.0155457 -0.0103353 0.00715847 -0.00221324 0.00774782)
(0.139677 0.0167147 -0.0137628 0.00676335 -0.00193987 0.00806754)
(0.168695 0.0158194 -0.016815 0.00660596 -0.00185014 0.00767577)
(0.194708 0.0162689 -0.0187659 0.00650716 -0.00168046 0.00669709)
(0.21796 0.015306 -0.0202098 0.00647608 -0.00166275 0.00578767)
(0.238648 0.0153722 -0.0207689 0.00642695 -0.0015616 0.00498211)
(0.25786 0.0144281 -0.0213645 0.00641932 -0.00156954 0.00443922)
(0.27491 0.0142282 -0.0213676 0.00638335 -0.00149734 0.00399189)
(0.291256 0.0133576 -0.0216784 0.00638469 -0.00151015 0.00371207)
(0.30578 0.0129602 -0.0213935 0.006357 -0.00145324 0.00345927)
(0.320067 0.0122067 -0.0215087 0.0063575 -0.00145608 0.00334437)
(0.333316 0.0114984 -0.0210628 0.00635887 -0.00140429 0.00325782)
(0.344444 0.0109826 -0.0211061 0.00630015 -0.00138737 0.0032811)
(0.360932 0.00907855 -0.0207567 0.00638645 -0.00128897 0.0033165)
(0.354178 0.00910104 -0.0203832 0.00620673 -0.00128264 0.00344028)
(0.380022 -0.00046126 -0.0191077 0.00568739 -0.000714798 0.0033629)
(0.0204504 0.00164633 -0.00213054 0.000224781 -0.000253035 0.000579446)
(0.0872423 -0.0118496 -0.00659133 0.00207359 0.000837587 0.00240432)
(0.132339 -0.0212896 -0.0101207 0.00447712 0.00141906 0.00542911)
(0.176162 -0.0276465 -0.0124676 0.00561726 0.00146508 0.00764215)
(0.18382 -0.0279467 -0.0150317 0.0060124 0.00162731 0.00855467)
(0.206866 -0.0295825 -0.0164001 0.00613618 0.00155019 0.007838)
(0.205449 -0.0284458 -0.0178134 0.00622194 0.00167681 0.0067387)
(0.221368 -0.0292037 -0.0179596 0.00623437 0.00161063 0.00542766)
(0.218233 -0.0279967 -0.0184096 0.00627441 0.00170049 0.00462421)
(0.230581 -0.0283998 -0.0180931 0.00627572 0.00162568 0.00401775)
(0.227425 -0.0272502 -0.0183283 0.00629774 0.00167647 0.0037929)
(0.237369 -0.0273784 -0.0179871 0.00629372 0.00159874 0.00357282)
(0.23469 -0.0263226 -0.0181508 0.00630484 0.00162806 0.00354411)
(0.242785 -0.0262487 -0.0178046 0.00630049 0.00155386 0.00346632)
(0.240821 -0.025296 -0.0179415 0.00630312 0.00156556 0.00353256)
(0.247439 -0.0250693 -0.01765 0.00631004 0.00149919 0.00355161)
(0.246145 -0.0240665 -0.0178258 0.00625305 0.00147581 0.00366784)
(0.252395 -0.0239096 -0.0176393 0.00637486 0.00144239 0.00371841)
(0.24844 -0.0204426 -0.0176295 0.00544161 0.00119366 0.00384768)
(0.272724 -0.0280644 -0.0174239 0.00683379 0.00151607 0.0037281)
(0.00681706 -0.000617773 3.50058e-05 0.00384728 3.11476e-05 9.31437e-07)
(0.0580918 -0.0197172 1.0999e-06 0.00904448 3.25294e-05 7.33645e-07)
(0.124781 -0.0284834 1.92317e-05 0.010399 4.68355e-05 8.4124e-07)
(0.238473 -0.0390398 5.80607e-05 0.0101537 3.4999e-05 7.19296e-07)
(0.254504 -0.0374626 4.08039e-05 0.0103819 4.91505e-05 8.08902e-07)
(0.325691 -0.0440242 7.78428e-05 0.0107847 3.88024e-05 6.93039e-07)
(0.313373 -0.0414724 4.57576e-05 0.0111405 5.22009e-05 7.7277e-07)
(0.367095 -0.0462122 8.06663e-05 0.011409 4.205e-05 6.64907e-07)
(0.350877 -0.0432451 4.63466e-05 0.0115667 5.3952e-05 7.36168e-07)
(0.394922 -0.046563 8.06158e-05 0.0116834 4.40026e-05 6.39464e-07)
(0.378982 -0.0436446 4.64413e-05 0.0117517 5.44582e-05 7.00834e-07)
(0.415385 -0.04598 7.99362e-05 0.0118123 4.50138e-05 6.1395e-07)
(0.401027 -0.0432975 4.65978e-05 0.0118467 5.42392e-05 6.64008e-07)
(0.431417 -0.0449366 7.97777e-05 0.0118892 4.53169e-05 5.85899e-07)
(0.419077 -0.04252 4.79353e-05 0.011894 5.33267e-05 6.25626e-07)
(0.445184 -0.0436527 8.19466e-05 0.011971 4.49775e-05 5.56527e-07)
(0.433224 -0.0412419 5.09695e-05 0.0117643 5.1303e-05 5.87424e-07)
(0.45933 -0.0421259 9.06268e-05 0.0124293 4.48975e-05 5.27186e-07)
(0.436555 -0.0332875 4.92906e-05 0.00933085 4.57952e-05 5.52723e-07)
(0.430724 -0.0310482 0.000120422 0.0101276 3.73162e-05 4.84771e-07)
(0.00969457 0.000422266 4.35316e-05 0.000690657 -1.10052e-05 7.28147e-07)
(0.00774033 -4.71141e-05 2.65769e-05 0.00212631 -2.56722e-05 6.11096e-07)
(0.0161997 -0.00346952 7.93061e-05 0.00437303 -4.03588e-05 6.94887e-07)
(0.0304043 -0.000144731 8.77645e-05 0.00660022 -3.56574e-05 6.00667e-07)
(0.0464613 -0.00152052 0.000119269 0.00836306 -4.52268e-05 6.65279e-07)
(0.082521 0.00500343 0.000133842 0.00954893 -3.48485e-05 5.6968e-07)
(0.100777 0.00326147 0.000149289 0.0101816 -4.6045e-05 6.29728e-07)
(0.14314 0.00855662 0.000164181 0.010599 -3.56862e-05 5.41679e-07)
(0.158861 0.00640737 0.00017035 0.0108494 -4.62779e-05 5.98419e-07)
(0.200003 0.0104598 0.000184138 0.0110539 -3.61956e-05 5.18183e-07)
(0.21243 0.00828101 0.000183681 0.0111917 -4.57917e-05 5.67247e-07)
(0.249902 0.0112945 0.000196018 0.0113166 -3.62934e-05 4.93634e-07)
(0.259771 0.00917029 0.000190801 0.011395 -4.49473e-05 5.33653e-07)
(0.293396 0.0113656 0.000202496 0.0114906 -3.60513e-05 4.66873e-07)
(0.301642 0.0092771 0.000194335 0.0115106 -4.37479e-05 4.98751e-07)
(0.332698 0.011111 0.000206712 0.0116424 -3.52507e-05 4.39678e-07)
(0.338123 0.00830652 0.000196755 0.0115831 -4.23728e-05 4.6438e-07)
(0.371592 0.0121495 0.000211273 0.0118164 -3.3009e-05 4.14038e-07)
(0.362422 0.00542693 0.000199797 0.011917 -4.10141e-05 4.31318e-07)
(0.439433 0.0251473 0.000220197 0.0145089 -2.6744e-05 3.8324e-07)
(0.00778451 0.0021771 4.35132e-05 0.00209649 2.20515e-05 8.21865e-07)
(0.00971513 0.00425663 2.55497e-05 0.0108197 2.5989e-05 6.76713e-07)
(0.0329746 0.0171438 8.06769e-05 0.0151287 3.87336e-05 7.6768e-07)
(0.0302347 0.0128182 5.69927e-05 0.014941 2.31206e-05 6.5369e-07)
(0.0470267 0.0183131 0.000105007 0.0142569 3.91507e-05 7.31669e-07)
(0.0422728 0.0124192 9.01042e-05 0.0136543 2.76036e-05 6.23121e-07)
(0.0562151 0.0163014 0.000132919 0.0132458 4.26732e-05 6.9441e-07)
(0.0573903 0.0117068 0.000123074 0.0129679 3.24742e-05 5.96573e-07)
(0.0720831 0.0151927 0.000160206 0.0127011 4.57817e-05 6.63276e-07)
(0.0788745 0.0118131 0.000153092 0.0125394 3.62595e-05 5.75146e-07)
(0.0940489 0.0149626 0.000184357 0.0123647 4.777e-05 6.33122e-07)
(0.10439 0.0125129 0.00017868 0.012275 3.87289e-05 5.52685e-07)
(0.119227 0.0152803 0.000204145 0.0121684 4.85985e-05 6.00159e-07)
(0.131622 0.0135431 0.000199645 0.0121116 3.9917e-05 5.26987e-07)
(0.145641 0.0158592 0.000219871 0.0120582 4.83133e-05 5.64583e-07)
(0.159873 0.0149433 0.000217458 0.0119919 4.00931e-05 4.99286e-07)
(0.172002 0.0162062 0.000232361 0.0119326 4.67141e-05 5.28495e-07)
(0.190047 0.0175606 0.000234676 0.0120106 4.0118e-05 4.72038e-07)
(0.197952 0.0151926 0.000243064 0.0105125 4.21416e-05 4.96175e-07)
(0.221996 0.0223376 0.000251048 0.0124097 4.05434e-05 4.44758e-07)
(0.00701308 -0.000551913 3.80712e-05 0.000410824 -1.26302e-05 7.33331e-07)
(0.00819434 -0.000335313 2.45892e-05 0.00216751 -2.41466e-05 6.26912e-07)
(0.0330716 -0.0049614 7.13881e-05 0.0043501 -3.93082e-05 7.07075e-07)
(0.0395313 -0.00527688 4.22028e-05 0.00637712 -3.56413e-05 6.08704e-07)
(0.0733931 -0.0122434 8.44876e-05 0.00782346 -4.64548e-05 6.76289e-07)
(0.0756485 -0.0121485 5.69245e-05 0.00885524 -3.79505e-05 5.78755e-07)
(0.104924 -0.0184153 0.000101053 0.00944149 -4.89922e-05 6.39872e-07)
(0.104688 -0.0175159 7.68463e-05 0.00985929 -3.96135e-05 5.50042e-07)
(0.129895 -0.0225444 0.000120336 0.0101184 -4.96169e-05 6.07642e-07)
(0.129879 -0.0213737 9.95518e-05 0.0103438 -3.98929e-05 5.26466e-07)
(0.152412 -0.0254207 0.000141201 0.010507 -4.86557e-05 5.77471e-07)
(0.153864 -0.0243041 0.000123706 0.0106572 -3.91346e-05 5.03344e-07)
(0.174537 -0.0276248 0.000162494 0.0107839 -4.69618e-05 5.45589e-07)
(0.177753 -0.0267398 0.000147881 0.0108802 -3.79233e-05 4.77905e-07)
(0.196993 -0.0295831 0.000183204 0.0110109 -4.51662e-05 5.11416e-07)
(0.201634 -0.0289337 0.000171191 0.01101 -3.62948e-05 4.50962e-07)
(0.220161 -0.0316348 0.000203342 0.0113144 -4.36913e-05 4.76862e-07)
(0.22497 -0.0311064 0.000192301 0.0110164 -3.32374e-05 4.24971e-07)
(0.244918 -0.0337991 0.00022483 0.0118414 -4.20579e-05 4.43173e-07)
(0.245135 -0.0365062 0.000205062 0.0138964 -2.99686e-05 3.98862e-07)
(0.00713542 0.00135082 4.02552e-05 0.00115723 1.78495e-05 7.81317e-07)
(0.00805068 0.00141624 2.6914e-05 0.00617055 2.50033e-05 6.63153e-07)
(0.0315256 0.0125232 7.7546e-05 0.00937896 3.79573e-05 7.4705e-07)
(0.039169 0.0129006 4.72536e-05 0.0107801 2.61153e-05 6.38096e-07)
(0.077453 0.0223817 9.04581e-05 0.0114268 4.00505e-05 7.12653e-07)
(0.0857957 0.0213595 5.82061e-05 0.0117778 2.89987e-05 6.07901e-07)
(0.125199 0.0285448 0.000102955 0.0119273 4.27671e-05 6.75248e-07)
(0.132972 0.02717 7.20425e-05 0.0120077 3.25313e-05 5.79645e-07)
(0.170572 0.0327442 0.000117328 0.011984 4.50035e-05 6.42168e-07)
(0.178244 0.0313852 8.9256e-05 0.0119778 3.53412e-05 5.56086e-07)
(0.213305 0.0358131 0.000134449 0.0119197 4.62986e-05 6.11369e-07)
(0.221314 0.0346854 0.000110232 0.0118989 3.71774e-05 5.33405e-07)
(0.253768 0.0382982 0.000154541 0.0118513 4.67299e-05 5.795e-07)
(0.262571 0.0374441 0.000134279 0.0118199 3.80619e-05 5.08624e-07)
(0.292229 0.0404509 0.000176869 0.0118141 4.63247e-05 5.45322e-07)
(0.302426 0.0397768 0.000159953 0.011718 3.79772e-05 4.81918e-07)
(0.327957 0.0423905 0.000200926 0.011811 4.5005e-05 5.10358e-07)
(0.341499 0.0419514 0.000185196 0.0116392 3.71131e-05 4.5552e-07)
(0.358292 0.0423517 0.000229036 0.0111305 4.23151e-05 4.78024e-07)
(0.373234 0.0456807 0.000207563 0.0135041 3.87518e-05 4.29914e-07)
(0.00707963 -0.000944063 3.88349e-05 0.000656468 -1.49271e-05 7.53847e-07)
(0.00789032 -0.000708198 2.62116e-05 0.00353461 -2.41227e-05 6.45981e-07)
(0.0299598 -0.00840457 7.52332e-05 0.00582573 -3.79774e-05 7.26289e-07)
(0.0372248 -0.00865158 4.64653e-05 0.00762575 -3.05042e-05 6.22148e-07)
(0.0753014 -0.0168311 8.76583e-05 0.00877452 -4.29463e-05 6.93585e-07)
(0.0852212 -0.0165032 5.51525e-05 0.00959644 -3.35246e-05 5.92691e-07)
(0.12733 -0.0234678 9.79137e-05 0.010051 -4.59215e-05 6.571e-07)
(0.138601 -0.022791 6.54474e-05 0.0103747 -3.63844e-05 5.64347e-07)
(0.181284 -0.0285006 0.000109218 0.0105523 -4.75623e-05 6.24095e-07)
(0.193742 -0.0277877 7.87431e-05 0.0107112 -3.80651e-05 5.40306e-07)
(0.235431 -0.0325066 0.000123144 0.0108093 -4.78059e-05 5.93239e-07)
(0.248872 -0.0319353 9.62307e-05 0.0109084 -3.85762e-05 5.17248e-07)
(0.288894 -0.0359015 0.000140765 0.0109852 -4.70953e-05 5.61449e-07)
(0.303269 -0.0355214 0.000118012 0.0110374 -3.82483e-05 4.92313e-07)
(0.341125 -0.0389469 0.000162017 0.011142 -4.58496e-05 5.27511e-07)
(0.356294 -0.0387088 0.000142905 0.0110806 -3.71417e-05 4.65736e-07)
(0.390568 -0.0418706 0.000186527 0.0113596 -4.43378e-05 4.93026e-07)
(0.407512 -0.0422274 0.000168002 0.0110444 -3.48889e-05 4.39891e-07)
(0.432248 -0.043878 0.000215992 0.011392 -4.23034e-05 4.60049e-07)
(0.450927 -0.0504032 0.000190446 0.0135626 -3.48235e-05 4.14524e-07)
(0.00707963 0.000944055 3.8835e-05 0.000656466 1.49271e-05 7.53847e-07)
(0.00789032 0.000708215 2.6212e-05 0.00353461 2.41226e-05 6.45981e-07)
(0.0299598 0.00840457 7.52334e-05 0.00582572 3.79775e-05 7.26289e-07)
(0.0372248 0.00865159 4.64657e-05 0.00762576 3.05041e-05 6.22148e-07)
(0.0753013 0.0168311 8.76588e-05 0.00877451 4.29464e-05 6.93585e-07)
(0.0852214 0.0165033 5.51534e-05 0.00959646 3.35244e-05 5.92691e-07)
(0.12733 0.0234678 9.7915e-05 0.010051 4.59215e-05 6.57099e-07)
(0.138601 0.0227912 6.54468e-05 0.0103748 3.6384e-05 5.64348e-07)
(0.181283 0.028501 0.000109219 0.0105524 4.75621e-05 6.24094e-07)
(0.193744 0.0277891 7.87427e-05 0.0107114 3.80641e-05 5.40306e-07)
(0.235428 0.0325076 0.000123146 0.0108096 4.78055e-05 5.93237e-07)
(0.248878 0.0319397 9.62216e-05 0.0109093 3.8574e-05 5.17252e-07)
(0.288884 0.0359049 0.000140768 0.0109858 4.7094e-05 5.61449e-07)
(0.303287 0.0355373 0.000118 0.0110402 3.82419e-05 4.92312e-07)
(0.341105 0.0389564 0.000162026 0.0111436 4.58474e-05 5.27507e-07)
(0.35634 0.0387538 0.000142863 0.0110897 3.71293e-05 4.65711e-07)
(0.390538 0.041906 0.000186543 0.0113653 4.43337e-05 4.93046e-07)
(0.407668 0.0423362 0.000167927 0.0110687 3.48777e-05 4.39827e-07)
(0.432325 0.043994 0.000216085 0.0114125 4.23106e-05 4.6015e-07)
(0.451145 0.0506453 0.000190348 0.0136298 3.48398e-05 4.14403e-07)
(0.00713543 -0.00135083 4.02555e-05 0.00115723 -1.78495e-05 7.81317e-07)
(0.00805068 -0.00141623 2.69135e-05 0.00617055 -2.50034e-05 6.63153e-07)
(0.0315256 -0.0125232 7.75469e-05 0.00937898 -3.79573e-05 7.4705e-07)
(0.039169 -0.0129006 4.7254e-05 0.0107801 -2.61154e-05 6.38096e-07)
(0.077453 -0.0223817 9.04588e-05 0.0114268 -4.00504e-05 7.12653e-07)
(0.0857958 -0.0213593 5.82067e-05 0.0117778 -2.8999e-05 6.07901e-07)
(0.125199 -0.0285448 0.000102958 0.0119274 -4.2767e-05 6.75251e-07)
(0.132973 -0.0271698 7.20479e-05 0.0120075 -3.25319e-05 5.79644e-07)
(0.170573 -0.032744 0.000117331 0.0119839 -4.50034e-05 6.42169e-07)
(0.178245 -0.0313838 8.92588e-05 0.0119774 -3.53424e-05 5.56087e-07)
(0.213307 -0.0358125 0.000134452 0.0119195 -4.62987e-05 6.11371e-07)
(0.221316 -0.0346814 0.000110244 0.0118976 -3.71798e-05 5.33401e-07)
(0.253777 -0.0382966 0.000154538 0.0118508 -4.67309e-05 5.79498e-07)
(0.262574 -0.0374301 0.000134289 0.0118157 -3.80677e-05 5.0863e-07)
(0.29226 -0.0404472 0.000176857 0.011813 -4.63269e-05 5.45321e-07)
(0.30243 -0.0397407 0.000159991 0.0117069 -3.79879e-05 4.81948e-07)
(0.328047 -0.0423768 0.000200898 0.0118073 -4.50099e-05 5.10325e-07)
(0.341478 -0.0418769 0.00018524 0.0116172 -3.71209e-05 4.55588e-07)
(0.358465 -0.042297 0.000228941 0.0111152 -4.23077e-05 4.77917e-07)
(0.373289 -0.0455031 0.000207551 0.0134549 -3.87346e-05 4.30014e-07)
(0.00701308 0.00055191 3.80716e-05 0.000410822 1.26302e-05 7.33331e-07)
(0.00819434 0.000335326 2.45896e-05 0.00216751 2.41466e-05 6.26912e-07)
(0.0330715 0.0049614 7.13892e-05 0.00435011 3.93082e-05 7.07075e-07)
(0.0395314 0.00527688 4.22038e-05 0.00637713 3.56413e-05 6.08703e-07)
(0.073393 0.0122434 8.44889e-05 0.00782346 4.64548e-05 6.76289e-07)
(0.0756489 0.0121486 5.69264e-05 0.00885524 3.79504e-05 5.78755e-07)
(0.104923 0.0184154 0.000101057 0.00944151 4.89921e-05 6.39872e-07)
(0.104689 0.0175159 7.68497e-05 0.00985932 3.96133e-05 5.50042e-07)
(0.129894 0.0225448 0.00012034 0.0101185 4.96166e-05 6.07641e-07)
(0.129883 0.0213744 9.95531e-05 0.0103439 3.98921e-05 5.26466e-07)
(0.152409 0.0254214 0.000141204 0.0105073 4.86552e-05 5.77469e-07)
(0.153874 0.024306 0.000123701 0.0106575 3.91328e-05 5.03347e-07)
(0.174531 0.0276268 0.000162496 0.0107846 4.69608e-05 5.45584e-07)
(0.17778 0.0267469 0.000147875 0.0108815 3.79176e-05 4.77907e-07)
(0.196986 0.0295883 0.000183199 0.0110129 4.51655e-05 5.11401e-07)
(0.201701 0.0289539 0.000171166 0.0110154 3.62834e-05 4.50947e-07)
(0.220167 0.0316527 0.000203324 0.0113214 4.36909e-05 4.76855e-07)
(0.225142 0.0311675 0.00019225 0.0110369 3.32311e-05 4.24925e-07)
(0.245021 0.0338633 0.000224863 0.0118647 4.2068e-05 4.43229e-07)
(0.245531 0.0366643 0.000204976 0.0139679 2.99922e-05 3.98793e-07)
(0.00778452 -0.0021771 4.35137e-05 0.00209649 -2.20515e-05 8.21865e-07)
(0.00971513 -0.00425662 2.55495e-05 0.0108197 -2.5989e-05 6.76712e-07)
(0.0329746 -0.0171438 8.06789e-05 0.0151287 -3.87336e-05 7.6768e-07)
(0.0302348 -0.0128182 5.6994e-05 0.014941 -2.31206e-05 6.53689e-07)
(0.0470266 -0.0183131 0.000105009 0.0142569 -3.91505e-05 7.31669e-07)
(0.0422729 -0.0124192 9.01067e-05 0.0136542 -2.76039e-05 6.23122e-07)
(0.056215 -0.0163014 0.000132926 0.0132458 -4.2673e-05 6.94414e-07)
(0.0573903 -0.011707 0.000123082 0.0129677 -3.24748e-05 5.96571e-07)
(0.0720833 -0.0151925 0.000160214 0.0127011 -4.57812e-05 6.63279e-07)
(0.0788738 -0.0118135 0.000153094 0.0125389 -3.62608e-05 5.75145e-07)
(0.0940491 -0.0149627 0.000184368 0.0123647 -4.77693e-05 6.33128e-07)
(0.104386 -0.0125146 0.000178685 0.0122737 -3.87314e-05 5.52678e-07)
(0.119226 -0.0152813 0.000204152 0.0121686 -4.85978e-05 6.00158e-07)
(0.131609 -0.013547 0.000199637 0.0121078 -3.99227e-05 5.26992e-07)
(0.145631 -0.0158645 0.000219871 0.012059 -4.83127e-05 5.64568e-07)
(0.159841 -0.0149526 0.000217463 0.011982 -4.0104e-05 4.99327e-07)
(0.171952 -0.016225 0.000232342 0.0119349 -4.67138e-05 5.28413e-07)