/*--------------------------------*- C++ -*----------------------------------*\
  =========                 |
  \\      /  F ield         | OpenFOAM: The Open Source CFD Toolbox
   \\    /   O peration     | Website:  https://openfoam.org
    \\  /    A nd           | Version:  7
     \\/     M anipulation  |
\*---------------------------------------------------------------------------*/
FoamFile
{
    version     2.0;
    format      ascii;
    class       volScalarField;
    location    "2.4025";
    object      pPrime2Mean;
}
// * * * * * * * * * * * * * * * * * * * * * * * * * * * * * * * * * * * * * //

dimensions      [2 -2 -4 0 0 0 0];

internalField   nonuniform List<scalar> 
4950
(
607583
606846
606877
606083
606065
605112
604993
603895
603653
602440
602087
600800
600358
599027
598516
597148
596577
595175
594571
593275
607660
606876
606879
606057
606029
605064
604946
603844
603607
602393
602043
600753
600313
598976
598463
597088
596512
595105
594482
593211
607593
606804
606816
606015
605995
605042
604923
603827
603588
602379
602029
600744
600304
598974
598464
597095
596523
595114
594501
593125
607678
606869
606863
606034
606001
605033
604913
603812
603578
602368
602023
600736
600300
598965
598455
597083
596505
595099
594460
593110
607602
606802
606810
606005
605984
605032
604912
603817
603579
602371
602022
600738
600300
598971
598463
597095
596523
595115
594491
593088
607678
606869
606863
606034
606001
605033
604913
603812
603578
602368
602023
600736
600300
598965
598455
597083
596505
595099
594460
593110
607593
606804
606816
606015
605995
605042
604923
603827
603588
602379
602029
600744
600304
598974
598464
597095
596523
595115
594501
593125
607660
606876
606879
606057
606029
605064
604946
603844
603607
602393
602043
600753
600313
598976
598463
597089
596512
595106
594481
593211
607583
606846
606877
606083
606065
605112
604993
603895
603653
602440
602087
600800
600358
599027
598516
597148
596577
595175
594571
593276
606795
605759
606029
605000
605270
604133
604268
602999
602985
601625
601486
600075
599832
598394
598061
596604
596187
594708
594236
592769
606780
605702
605987
604967
605240
604114
604254
602999
602991
601643
601507
600105
599862
598431
598098
596647
596232
594760
594310
592785
606835
605769
606035
604994
605257
604120
604261
603002
602998
601647
601513
600107
599867
598432
598099
596641
596220
594734
594244
592726
606800
605711
605988
604952
605218
604089
604232
602982
602979
601636
601503
600104
599864
598437
598106
596657
596242
594760
594304
592743
606847
605770
606031
604983
605242
604104
604247
602990
602989
601640
601508
600104
599865
598431
598100
596643
596221
594732
594242
592707
606800
605711
605988
604952
605218
604089
604232
602982
602979
601636
601503
600104
599864
598437
598106
596657
596242
594760
594304
592743
606835
605769
606035
604994
605257
604120
604261
603002
602998
601647
601513
600107
599867
598432
598099
596641
596220
594734
594243
592727
606780
605702
605987
604967
605240
604114
604254
602999
602991
601643
601507
600105
599862
598431
598098
596648
596232
594761
594309
592786
606795
605759
606029
605000
605270
604133
604268
602999
602985
601625
601486
600075
599831
598394
598061
596605
596187
594709
594234
592771
606486
605451
605609
604607
604803
603740
603870
602681
602672
601365
601233
599855
599625
598202
597888
596424
596037
594526
594109
592630
606513
605466
605619
604613
604805
603738
603865
602676
602671
601368
601240
599864
599637
598215
597900
596435
596046
594532
594111
592590
606512
605472
605622
604611
604796
603723
603849
602663
602662
601363
601238
599865
599640
598219
597907
596443
596053
594538
594110
592580
606528
605481
605628
604615
604798
603723
603847
602660
602658
601359
601234
599862
599637
598218
597907
596443
596055
594538
594111
592576
606520
605479
605626
604612
604794
603717
603842
602656
602657
601359
601235
599863
599639
598219
597909
596444
596056
594540
594111
592579
606528
605481
605628
604615
604798
603723
603847
602660
602658
601359
601234
599862
599637
598218
597907
596443
596055
594538
594111
592576
606512
605472
605622
604611
604796
603723
603849
602663
602662
601363
601238
599865
599640
598219
597907
596443
596053
594538
594110
592580
606513
605466
605619
604613
604805
603738
603865
602676
602671
601368
601240
599864
599636
598215
597900
596436
596046
594533
594111
592592
606486
605451
605609
604607
604803
603740
603870
602681
602672
601365
601233
599855
599625
598202
597888
596425
596037
594527
594107
592633
606795
605760
606029
605000
605270
604133
604268
602999
602985
601625
601486
600075
599832
598394
598061
596604
596188
594708
594236
592769
606780
605702
605987
604967
605240
604114
604254
602999
602991
601644
601507
600105
599862
598431
598098
596647
596233
594760
594310
592785
606835
605769
606035
604994
605257
604120
604261
603002
602998
601647
601513
600108
599867
598432
598100
596641
596220
594734
594244
592727
606800
605712
605988
604952
605219
604089
604232
602982
602979
601636
601503
600104
599865
598437
598106
596657
596242
594760
594304
592743
606847
605770
606031
604983
605243
604104
604247
602990
602989
601640
601509
600104
599865
598431
598100
596643
596222
594732
594242
592708
606800
605712
605988
604952
605219
604089
604232
602982
602979
601636
601503
600104
599864
598437
598106
596657
596242
594760
594304
592743
606835
605769
606035
604994
605257
604120
604261
603002
602998
601647
601513
600108
599867
598432
598100
596641
596220
594734
594243
592727
606780
605702
605987
604967
605240
604114
604254
602999
602991
601644
601507
600105
599862
598431
598098
596648
596232
594761
594309
592786
606795
605760
606029
605000
605270
604133
604268
602999
602985
601625
601486
600075
599832
598394
598061
596605
596187
594709
594234
592771
607583
606846
606877
606083
606065
605113
604993
603895
603653
602440
602087
600800
600358
599027
598516
597148
596577
595175
594571
593275
607660
606876
606879
606058
606029
605064
604946
603844
603607
602393
602043
600753
600313
598976
598463
597088
596512
595105
594482
593211
607593
606804
606816
606015
605995
605042
604923
603827
603589
602379
602029
600744
600305
598974
598464
597095
596523
595115
594501
593125
607678
606869
606863
606034
606001
605034
604913
603813
603579
602369
602023
600737
600300
598965
598455
597083
596505
595099
594460
593111
607602
606802
606810
606006
605985
605032
604912
603817
603579
602371
602022
600739
600300
598971
598463
597095
596523
595115
594491
593089
607678
606869
606863
606034
606001
605034
604913
603813
603579
602369
602023
600737
600300
598965
598455
597083
596505
595099
594460
593110
607593
606804
606816
606015
605995
605042
604923
603827
603588
602379
602029
600744
600305
598974
598464
597095
596523
595115
594501
593126
607660
606876
606879
606058
606029
605064
604946
603844
603607
602393
602043
600753
600313
598976
598463
597089
596512
595106
594481
593212
607583
606846
606877
606083
606065
605113
604993
603895
603653
602440
602087
600800
600358
599027
598516
597148
596577
595175
594571
593276
591440
585399
582772
576603
573449
567019
563414
556759
552743
545884
541485
534439
529682
522465
517378
510003
504607
497087
491406
483752
477806
470032
463841
455956
449541
441557
434936
426864
420055
411906
404927
396711
389580
381309
374043
365729
358346
350001
342520
334158
326601
318239
310619
302246
294542
286164
278431
270099
262368
254097
246392
238199
230541
222439
214845
206846
199334
191451
184038
176284
168987
161374
154213
146754
139748
132456
125624
118514
111878
104965
98546.2
91846.4
85670.9
79200.5
73294.1
67074.8
61464.1
55514.4
50236
44583.2
39666.4
34337.5
29832.7
24859.2
20802.4
16279.6
12782.1
8642.31
5687.47
2512.54
591248
585107
582457
576267
573102
566655
563039
556370
552344
545476
541070
534017
529256
522035
516944
509567
504171
496650
490969
483318
477373
469601
463413
455532
449120
441141
434524
426457
419653
411509
404535
396326
389200
380936
373676
365368
357992
349653
342179
333825
326274
317920
310305
301940
294243
285873
278146
269821
262098
253834
246136
237951
230299
222205
214617
206626
199121
191246
183839
176092
168803
161197
154042
146590
139590
132306
125480
118377
111747
104841
98428.9
91735.9
85566.7
79102.8
73202.6
66989.8
61385.2
55441.8
50169.4
44522.7
39611.7
34288.8
29789.5
24821.8
20770.4
16252.9
12760.4
8625.66
5675.4
2504.38
591112
585161
582528
576362
573209
566780
563174
556520
552502
545646
541246
534203
529447
522232
517146
509774
504380
496863
491183
483534
477590
469819
463631
455750
449337
441357
434738
426670
419864
411718
404742
396530
389402
381135
373872
365561
358182
349840
342363
334004
326450
318092
310474
302105
294404
286030
278300
269971
262243
253975
246274
238084
230428
222329
214738
206743
199233
191354
183943
176192
168899
161289
154130
146674
139670
132382
125552
118445
111812
104902
98485.9
91788.9
85616.2
79148.7
73245.1
67028.6
61420.7
55473.8
50198.4
44548.4
39634.5
34308.5
29806.6
24835.9
20782.2
16262.2
12767.7
8630.75
5678.28
2506.46
591131
585001
582333
576140
572975
566526
562907
556236
552208
545338
540930
533877
529114
521892
516800
509422
504025
496504
490822
483171
477226
469454
463266
455386
448974
440996
434378
426313
419509
411366
404393
396185
389060
380797
373538
365233
357857
349520
342048
333695
326146
317793
310181
301817
294122
285754
278029
269706
261985
253723
246028
237844
230195
222102
214517
206529
199025
191152
183748
176004
168716
161113
153961
146511
139514
132232
125409
118308
111681
104778
98368.2
91677.8
85511.3
79050.2
73152.7
66942.7
61340.9
55400.3
50130.8
44487
39578.9
34258.9
29762.6
24797.8
20749.4
16234.9
12745.5
8613.73
5666.52
2498.53
591080
585144
582499
576334
573182
566753
563147
556492
552474
545618
541218
534174
529418
522203
517116
509744
504350
496832
491152
483502
477558
469787
463598
455717
449304
441324
434705
426636
419830
411684
404708
396496
389367
381100
373837
365527
358147
349805
342328
333970
326416
318058
310440
302071
294371
285996
278266
269938
262210
253943
246242
238052
230397
222299
214708
206713
199204
191325
183915
176165
168872
161262
154105
146649
139646
132358
125530
118423
111791
104881
98466.4
91770.2
85598.4
79131.7
73228.9
67013.4
61406.4
55460.4
50185.8
44536.8
39623.8
34298.8
29797.8
24828.1
20775.3
16256.3
12762.8
8626.8
5675.19
2504.4
591131
584998
582327
576133
572966
566517
562897
556226
552197
545327
540919
533865
529102
521880
516788
509411
504013
496492
490811
483159
477214
469443
463255
455374
448962
440984
434367
426302
419498
411356
404382
396175
389050
380787
373528
365223
357847
349511
342038
333686
326137
317784
310172
301809
294114
285745
278021
269699
261977
253715
246020
237837
230188
222095
214510
206522
199019
191146
183742
175998
168711
161107
153956
146506
139509
132227
125404
118304
111677
104774
98364.4
91674.2
85507.9
79047
73149.7
66939.9
61338.2
55397.8
50128.5
44484.9
39577
34257.1
29761.1
24796.4
20748.3
16233.9
12744.7
8613.07
5666.05
2498.17
591110
585157
582524
576359
573208
566780
563174
556520
552503
545647
541248
534205
529449
522235
517148
509776
504382
496865
491186
483536
477592
469821
463633
455752
449340
441360
434741
426673
419866
411721
404745
396533
389405
381137
373875
365564
358184
349842
342365
334007
326453
318094
310477
302107
294407
286032
278302
269973
262245
253977
246276
238086
230430
222331
214740
206745
199235
191356
183945
176194
168901
161291
154132
146676
139672
132384
125554
118447
111814
104903
98487.6
91790.7
85618
79150.3
73246.7
67030.2
61422.3
55475.4
50199.8
44549.8
39635.9
34309.8
29807.8
24837
20783.2
16263.1
12768.5
8631.4
5678.8
2506.73
591245
585091
582433
576240
573074
566625
563007
556337
552310
545441
541034
533982
529220
521998
516908
509531
504134
496614
490933
483281
477337
469565
463378
455497
449085
441107
434490
426423
419619
411476
404503
396294
389168
380905
373645
365338
357962
349624
342151
333797
326246
317892
310279
301914
294217
285848
278122
269797
262074
253811
246114
237928
230278
222184
214597
206606
199101
191227
183821
176074
168785
161180
154026
146574
139575
132291
125466
118363
111734
104829
98417
91724.5
85555.9
79092.6
73193
66980.7
61376.7
55433.9
50162.1
44516
39605.6
34283.2
29784.6
24817.4
20766.7
16249.7
12757.9
8623.63
5673.98
2503.32
591433
585392
582772
576609
573460
567033
563430
556778
552763
545906
541507
534463
529707
522491
517404
510029
504634
497114
491433
483780
477834
470059
463869
455984
449569
441585
434963
426891
420082
411932
404953
396737
389605
381334
374068
365753
358370
350024
342543
334181
326624
318261
310640
302267
294563
286185
278451
270118
262387
254115
246411
238217
230558
222456
214861
206862
199349
191467
184053
176298
169001
161388
154227
146767
139760
132468
125635
118525
111888
104975
98555.8
91855.6
85679.7
79208.8
73302
67082.2
61471.1
55520.9
50242.1
44588.8
39671.6
34342.2
29836.9
24862.9
20805.8
16282.5
12784.6
8644.36
5689.02
2513.53
591496
585250
582885
576588
573608
567080
563591
556859
552922
546002
541658
534560
529842
522581
517521
510107
504731
497178
491510
483829
477893
470093
463910
456004
449594
441592
434975
426888
420082
411920
404945
396718
389590
381310
374048
365726
358347
349996
342519
334152
326599
318234
310617
302241
294541
286161
278431
270097
262371
254098
246398
238204
230550
222448
214858
206860
199351
191470
184060
176307
169015
161403
154246
146788
139786
132495
125668
118558
111927
105014
98600.1
91900
85729
79257.6
73355.3
67134
61526.8
55573.9
50298
44640.6
39724.6
34389.3
29883.1
24901.2
20840.4
16307.3
12803.4
8650.74
5686.35
2503.61
591608
585480
583133
576855
573884
567376
563898
557183
553256
546349
542013
534925
530215
522960
517905
510497
505125
497575
491909
484229
478294
470495
464311
456404
449993
441989
435369
427279
420471
412305
405325
397094
389962
381678
374410
366083
358699
350342
342859
334487
326928
318556
310933
302551
294844
286457
278721
270380
262647
254367
246660
238459
230799
222689
215092
207087
199572
191683
184267
176507
169207
161588
154425
146959
139950
132652
125818
118701
112063
105143
98722.5
92015.5
85837.8
79359.5
73450.6
67222.6
61608.9
55649.4
50367.2
44703.2
39781.2
34439.6
29927.5
24939.5
20873
16334.2
12825.1
8667.01
5697.84
2510.72
591494
585322
582952
576663
573684
567156
563666
556934
552997
546076
541732
534635
529917
522656
517596
510183
504806
497253
491586
483904
477967
470168
463985
456079
449668
441666
435049
426961
420155
411992
405016
396789
389660
381380
374117
365794
358414
350062
342584
334217
326663
318296
310678
302302
294601
286219
278489
270154
262426
254152
246451
238256
230600
222497
214906
206907
199397
191514
184103
176349
169055
161442
154284
146824
139821
132529
125700
118589
111956
105042
98626.7
91925.2
85752.8
79280
73376.3
67153.7
61545.1
55590.9
50313.6
44654.9
39737.6
34401
29893.5
24910.4
20848.3
16314
12808.9
8655.12
5689.83
2505.82
591553
585497
583152
576878
573909
567402
563924
557209
553282
546375
542039
534952
530241
522987
517931
510523
505150
497600
491934
484254
478318
470519
464335
456427
450016
442011
435392
427301
420492
412326
405346
397115
389982
381697
374430
366102
358717
350360
342877
334504
326945
318572
310949
302566
294860
286472
278736
270394
262661
254381
246673
238472
230811
222701
215104
207098
199583
191693
184277
176516
169217
161597
154433
146967
139958
132660
125825
118708
112070
105149
98728.3
92020.9
85842.9
79364.3
73455.2
67226.8
61612.9
55653
50370.6
44706.4
39784
34442.1
29929.8
24941.6
20874.8
16335.8
12826.4
8668.08
5698.85
2511.31
591467
585304
582933
576646
573669
567142
563651
556918
552980
546060
541716
534618
529901
522639
517579
510166
504789
497236
491569
483887
477951
470152
463968
456062
449652
441650
435033
426945
420139
411977
405001
396774
389645
381365
374102
365780
358400
350048
342570
334203
326649
318283
310665
302289
294588
286207
278476
270141
262414
254140
246439
238244
230589
222486
214895
206896
199387
191504
184094
176339
169046
161433
154275
146816
139813
132521
125692
118582
111949
105035
98620
91918.9
85746.7
79274.2
73370.8
67148.5
61540.2
55586.3
50309.4
44650.9
39734
34397.7
29890.5
24907.7
20845.9
16311.9
12807.2
8653.79
5688.95
2505.14
591552
585496
583154
576882
573915
567409
563931
557217
553290
546384
542049
534961
530251
522997
517942
510533
505161
497611
491945
484264
478329
470529
464345
456438
450026
442022
435402
427311
420502
412336
405356
397125
389992
381707
374439
366111
358726
350369
342886
334513
326953
318581
310957
302574
294868
286480
278744
270402
262668
254388
246680
238479
230818
222708
215110
207105
199589
191699
184283
176522
169222
161603
154439
146972
139963
132665
125830
118713
112074
105153
98732.4
92024.9
85846.7
79367.9
73458.6
67230.1
61615.9
55655.9
50373.3
44708.8
39786.3
34444.3
29931.7
24943.3
20876.4
16337.1
12827.5
8668.99
5699.54
2511.76
591495
585314
582942
576652
573673
567145
563654
556922
552984
546064
541719
534622
529904
522642
517582
510169
504793
497240
491572
483891
477954
470155
463972
456066
449656
441654
435036
426949
420143
411981
405004
396778
389649
381369
374106
365784
358404
350052
342574
334207
326653
318287
310669
302293
294592
286211
278480
270145
262418
254144
246443
238248
230593
222490
214899
206900
199390
191508
184097
176343
169050
161436
154279
146819
139816
132524
125695
118585
111952
105038
98622.9
91921.7
85749.4
79276.8
73373.4
67150.9
61542.5
55588.4
50311.4
44652.8
39735.8
34399.3
29892.1
24909.1
20847.2
16313
12808.2
8654.54
5689.49
2505.5
591601
585472
583131
576860
573893
567388
563912
557199
553273
546367
542033
534946
530236
522982
517928
510520
505148
497598
491933
484253
478318
470519
464335
456428
450017
442013
435393
427302
420494
412328
405348
397117
389985
381699
374432
366105
358720
350362
342880
334507
326948
318575
310952
302569
294863
286475
278739
270398
262664
254384
246677
238476
230814
222705
215108
207102
199587
191697
184281
176520
169221
161601
154437
146971
139962
132664
125829
118712
112074
105153
98732.3
92024.9
85846.8
79368.1
73458.9
67230.5
61616.4
55656.4
50373.8
44709.4
39786.9
34444.9
29932.3
24943.9
20876.9
16337.7
12828
8669.42
5699.73
2511.91
591490
585227
582856
576556
573575
567045
563555
556823
552885
545964
541619
534521
529804
522542
517482
510069
504693
497140
491472
483791
477855
470056
463874
455968
449559
441557
434941
426854
420049
411887
404912
396686
389558
381279
374017
365696
358317
349967
342490
334124
326572
318207
310590
302215
294516
286136
278407
270073
262347
254075
246375
238182
230528
222427
214837
206840
199332
191451
184042
176290
168998
161386
154230
146773
139771
132481
125654
118545
111914
105001
98588.1
91888.6
85718.1
79247.3
73345.5
67124.9
61518.2
55565.8
50290.6
44633.7
39718.4
34383.6
29878.1
24896.7
20836.5
16304
12800.7
8648.71
5684.96
2502.55
591457
585545
583190
577020
574069
567597
564152
557442
553551
546633
542329
535223
530539
523264
518229
510799
505442
497871
492217
484517
478589
470772
464594
456671
450263
442244
435628
427524
420718
412540
405562
397321
390190
381896
374629
366294
358910
350545
343064
334684
327126
318748
311126
302738
295031
286639
278903
270557
262823
254539
246832
238627
230966
222852
215255
207246
199730
191838
184421
176658
169358
161735
154571
147102
140092
132791
125955
118835
112195
105271
98849.3
92137.7
85958
79474.6
73563
67329.2
61711.9
55745.8
50459.1
44787.9
39860.7
34510.9
29993.8
24996.7
20925.9
16376.8
12864.5
8693.63
5721.22
2519.97
591388
585527
583174
577006
574056
567584
564139
557429
553538
546621
542317
535212
530527
523253
518218
510789
505432
497861
492207
484508
478580
470764
464586
456663
450255
442237
435621
427517
420711
412534
405556
397315
390184
381890
374624
366289
358905
350541
343060
334681
327122
318745
311122
302734
295028
286636
278900
270555
262821
254537
246830
238625
230964
222851
215253
207245
199729
191837
184420
176656
169357
161734
154570
147101
140091
132790
125954
118834
112195
105271
98848.5
92137
85957.4
79473.9
73562.4
67328.6
61711.4
55745.3
50458.6
44787.4
39860.3
34510.5
29993.5
24996.3
20925.6
16376.5
12864.3
8693.41
5721.01
2519.77
591416
585538
583184
577017
574067
567595
564150
557440
553549
546631
542327
535222
530538
523262
518228
510798
505441
497870
492216
484516
478588
470771
464593
456670
450263
442244
435627
427524
420717
412540
405562
397320
390189
381895
374629
366293
358910
350545
343064
334684
327126
318748
311126
302738
295032
286639
278903
270557
262824
254539
246832
238627
230966
222853
215255
207247
199731
191838
184422
176658
169358
161735
154571
147102
140092
132791
125956
118835
112196
105272
98849.7
92138.1
85958.5
79475
73563.5
67329.7
61712.4
55746.2
50459.5
44788.2
39861.1
34511.2
29994.2
24997
20926.2
16377.1
12864.7
8693.84
5721.42
2519.95
591369
585509
583156
576991
574044
567573
564127
557417
553526
546608
542305
535200
530516
523241
518206
510777
505420
497850
492196
484496
478569
470752
464575
456652
450245
442226
435610
427507
420701
412523
405546
397305
390174
381881
374614
366279
358896
350532
343050
334672
327113
318736
311114
302726
295020
286628
278892
270547
262813
254530
246822
238618
230957
222844
215247
207238
199723
191830
184414
176650
169351
161728
154564
147096
140086
132785
125950
118829
112190
105266
98844.6
92133.2
85953.8
79470.6
73559.2
67325.6
61708.6
55742.6
50456.2
44785.1
39858.2
34508.6
29991.8
24994.8
20924.3
16375.4
12863.4
8692.7
5720.49
2519.34
591415
585534
583181
577016
574069
567598
564153
557442
553551
546633
542329
535224
530540
523264
518230
510800
505443
497872
492217
484518
478590
470773
464595
456672
450264
442245
435629
427525
420719
412541
405563
397322
390191
381897
374630
366295
358911
350546
343065
334685
327127
318749
311126
302739
295032
286640
278904
270558
262824
254540
246833
238628
230966
222853
215256
207247
199731
191839
184422
176658
169359
161736
154572
147103
140093
132791
125956
118836
112196
105272
98850.1
92138.5
85958.8
79475.4
73563.8
67330
61712.7
55746.5
50459.8
44788.5
39861.4
34511.5
29994.4
24997.2
20926.4
16377.2
12864.9
8694
5721.56
2519.99
591370
585508
583154
576991
574044
567573
564128
557417
553526
546608
542305
535200
530516
523241
518207
510778
505420
497850
492196
484497
478569
470753
464575
456652
450245
442227
435611
427508
420701
412524
405546
397305
390175
381881
374615
366280
358897
350532
343051
334672
327114
318737
311114
302727
295021
286629
278893
270547
262814
254530
246823
238618
230957
222844
215247
207239
199723
191831
184414
176651
169351
161729
154565
147096
140086
132785
125950
118830
112191
105267
98845
92133.6
85954.2
79470.9
73559.6
67326
61708.9
55743
50456.5
44785.4
39858.5
34508.9
29992.1
24995
20924.6
16375.6
12863.6
8692.86
5720.64
2519.41
591415
585534
583180
577013
574065
567593
564148
557437
553546
546628
542325
535219
530535
523260
518226
510796
505439
497868
492214
484514
478587
470770
464592
456668
450261
442242
435626
427522
420716
412538
405560
397319
390188
381894
374628
366292
358909
350544
343063
334683
327125
318747
311125
302737
295031
286638
278902
270557
262823
254539
246832
238627
230965
222852
215255
207246
199730
191838
184421
176658
169358
161735
154571
147102
140092
132791
125956
118835
112196
105272
98849.8
92138.2
85958.6
79475.1
73563.6
67329.8
61712.5
55746.4
50459.7
44788.4
39861.3
34511.4
29994.4
24997.2
20926.4
16377.3
12864.9
8694.05
5721.62
2520.02
591385
585516
583162
576994
574045
567573
564129
557419
553528
546610
542307
535202
530518
523243
518209
510779
505422
497852
492198
484499
478571
470755
464577
456654
450247
442229
435612
427509
420703
412526
405548
397307
390176
381883
374617
366282
358898
350534
343053
334674
327115
318738
311116
302728
295022
286630
278894
270549
262815
254532
246824
238620
230959
222846
215248
207240
199724
191832
184416
176652
169353
161730
154566
147097
140088
132787
125951
118831
112192
105268
98846.2
92134.8
85955.4
79472.1
73560.7
67327.1
61710
55744
50457.5
44786.4
39859.4
34509.7
29992.8
24995.8
20925.2
16376.2
12864.1
8693.3
5721
2519.66
591449
585524
583167
576998
574049
567577
564133
557423
553532
546614
542311
535206
530522
523247
518212
510783
505426
497855
492201
484502
478575
470758
464580
456657
450250
442231
435615
427512
420705
412528
405550
397309
390178
381884
374618
366283
358900
350535
343054
334675
327116
318739
311117
302729
295023
286631
278895
270549
262816
254532
246825
238620
230959
222846
215249
207240
199724
191832
184416
176652
169353
161730
154566
147097
140088
132786
125951
118831
112192
105268
98846
92134.6
85955.2
79471.9
73560.6
67326.9
61709.8
55743.9
50457.4
44786.3
39859.4
34509.7
29992.9
24995.8
20925.3
16376.3
12864.2
8693.49
5721.23
2519.82
591497
585250
582886
576588
573608
567080
563591
556859
552923
546002
541658
534560
529843
522581
517521
510107
504731
497178
491511
483829
477893
470093
463910
456004
449594
441593
434975
426888
420083
411920
404945
396718
389590
381310
374048
365726
358347
349996
342519
334152
326599
318234
310617
302241
294541
286161
278431
270097
262371
254098
246398
238204
230550
222448
214858
206860
199351
191470
184061
176307
169015
161403
154246
146788
139786
132495
125668
118558
111927
105014
98600.1
91900
85729
79257.6
73355.3
67134
61526.8
55573.9
50298
44640.6
39724.6
34389.3
29883.2
24901.2
20840.4
16307.3
12803.4
8650.74
5686.35
2503.61
591608
585480
583133
576855
573884
567376
563898
557183
553256
546349
542013
534925
530215
522960
517906
510497
505125
497575
491909
484229
478294
470495
464311
456404
449993
441989
435370
427279
420471
412305
405325
397095
389962
381678
374411
366083
358699
350342
342860
334487
326928
318556
310933
302551
294845
286457
278721
270380
262647
254367
246660
238460
230799
222689
215092
207087
199572
191683
184267
176507
169208
161588
154425
146959
139950
132652
125818
118701
112063
105143
98722.5
92015.5
85837.8
79359.5
73450.6
67222.6
61608.9
55649.4
50367.2
44703.2
39781.2
34439.6
29927.5
24939.5
20873
16334.2
12825.1
8667.01
5697.84
2510.72
591494
585322
582952
576663
573684
567156
563666
556934
552997
546077
541732
534635
529917
522656
517596
510183
504806
497253
491586
483904
477968
470168
463985
456079
449668
441666
435049
426961
420155
411992
405016
396789
389660
381380
374117
365794
358414
350062
342584
334217
326663
318297
310679
302302
294601
286220
278489
270154
262426
254152
246451
238256
230600
222497
214906
206907
199397
191514
184103
176349
169055
161442
154284
146824
139821
132529
125700
118589
111956
105042
98626.7
91925.3
85752.8
79280
73376.3
67153.7
61545.1
55590.9
50313.7
44654.9
39737.6
34401
29893.5
24910.4
20848.3
16314
12808.9
8655.13
5689.83
2505.82
591553
585497
583153
576878
573910
567402
563924
557209
553282
546375
542039
534952
530241
522987
517932
510523
505150
497600
491934
484254
478318
470519
464335
456428
450016
442011
435392
427301
420492
412326
405346
397115
389982
381697
374430
366102
358717
350360
342877
334504
326945
318572
310949
302566
294860
286472
278736
270394
262661
254381
246673
238472
230811
222701
215104
207098
199583
191693
184277
176516
169217
161597
154433
146967
139958
132660
125825
118708
112070
105149
98728.3
92020.9
85842.9
79364.3
73455.2
67226.9
61612.9
55653
50370.6
44706.4
39784
34442.1
29929.8
24941.6
20874.8
16335.8
12826.4
8668.08
5698.85
2511.32
591467
585304
582933
576646
573669
567142
563651
556918
552980
546060
541716
534618
529901
522639
517579
510166
504789
497237
491569
483887
477951
470152
463968
456062
449652
441650
435033
426945
420139
411977
405001
396774
389645
381365
374102
365780
358400
350048
342570
334203
326649
318283
310665
302289
294588
286207
278476
270141
262414
254140
246439
238244
230589
222486
214895
206896
199387
191504
184094
176339
169046
161433
154275
146816
139813
132521
125692
118582
111949
105035
98620
91918.9
85746.7
79274.2
73370.9
67148.5
61540.2
55586.3
50309.4
44650.9
39734
34397.7
29890.6
24907.7
20845.9
16311.9
12807.2
8653.79
5688.95
2505.14
591552
585496
583154
576882
573915
567409
563931
557217
553290
546384
542049
534961
530251
522997
517942
510534
505161
497611
491945
484264
478329
470529
464345
456438
450026
442022
435402
427311
420502
412336
405356
397125
389992
381707
374439
366111
358726
350369
342886
334513
326953
318581
310957
302574
294868
286480
278744
270402
262668
254388
246681
238479
230818
222708
215110
207105
199589
191700
184283
176522
169222
161603
154439
146972
139963
132665
125830
118713
112074
105153
98732.4
92024.9
85846.7
79367.9
73458.6
67230.1
61615.9
55655.9
50373.3
44708.9
39786.3
34444.3
29931.7
24943.3
20876.4
16337.1
12827.5
8668.99
5699.54
2511.76
591495
585314
582942
576652
573673
567145
563654
556922
552984
546064
541719
534622
529904
522643
517582
510169
504793
497240
491572
483891
477954
470155
463972
456066
449656
441654
435036
426949
420143
411981
405004
396778
389649
381369
374106
365784
358404
350052
342574
334207
326653
318287
310669
302293
294592
286211
278480
270145
262418
254144
246443
238248
230593
222490
214899
206900
199390
191508
184097
176343
169050
161436
154279
146819
139816
132524
125695
118585
111952
105038
98622.9
91921.7
85749.4
79276.8
73373.4
67150.9
61542.5
55588.4
50311.4
44652.8
39735.8
34399.3
29892.1
24909.1
20847.2
16313
12808.2
8654.54
5689.49
2505.5
591601
585472
583131
576860
573893
567388
563912
557199
553273
546367
542033
534946
530236
522982
517928
510520
505148
497598
491933
484253
478318
470519
464335
456428
450017
442013
435393
427303
420494
412328
405348
397117
389985
381700
374432
366105
358720
350362
342880
334507
326948
318576
310952
302569
294863
286476
278739
270398
262664
254384
246677
238476
230814
222705
215108
207102
199587
191697
184281
176520
169221
161601
154437
146971
139962
132664
125829
118712
112074
105153
98732.3
92024.9
85846.8
79368.1
73458.9
67230.5
61616.4
55656.4
50373.8
44709.4
39786.9
34444.9
29932.3
24943.9
20876.9
16337.7
12828
8669.42
5699.73
2511.91
591490
585227
582856
576556
573575
567045
563556
556823
552885
545964
541619
534521
529804
522542
517482
510069
504693
497140
491473
483791
477855
470057
463874
455968
449559
441557
434941
426854
420049
411887
404912
396686
389558
381279
374017
365696
358317
349967
342490
334124
326572
318207
310590
302215
294516
286136
278407
270074
262347
254075
246375
238182