/*--------------------------------*- C++ -*----------------------------------*\
  =========                 |
  \\      /  F ield         | OpenFOAM: The Open Source CFD Toolbox
   \\    /   O peration     | Website:  https://openfoam.org
    \\  /    A nd           | Version:  7
     \\/     M anipulation  |
\*---------------------------------------------------------------------------*/
FoamFile
{
    version     2.0;
    format      ascii;
    class       volScalarField;
    location    "0.0875";
    object      alphat;
}
// * * * * * * * * * * * * * * * * * * * * * * * * * * * * * * * * * * * * * //

dimensions      [1 -1 -1 0 0 0 0];

internalField   nonuniform List<scalar> 
1440
(
0.000131646
0.000304003
0.000482499
0.000631072
0.000746389
0.000830879
0.00088792
0.000923466
0.000940998
0.000946977
0.000941272
0.000930613
0.000916312
0.000897854
0.000877802
0.000856993
0.000836026
0.000815307
0.000795125
0.000775657
0.00075702
0.000739275
0.000722445
0.000706528
0.000691504
0.000677339
0.00066399
0.00065141
0.000639551
0.000628369
0.000617819
0.000607859
0.000598447
0.000589543
0.000581107
0.000573103
0.000565498
0.00055826
0.000551361
0.000544774
0.000538476
0.000532449
0.000526677
0.00052114
0.00051582
0.000510696
0.000505753
0.000500977
0.000496357
0.000491881
0.000487541
0.000483329
0.000479235
0.000475255
0.000471381
0.000467609
0.000463931
0.000460345
0.000456844
0.000453426
0.000450087
0.000446822
0.00044363
0.000440506
0.000437449
0.000434454
0.00043152
0.000428645
0.000425826
0.000423062
0.000420351
0.000417691
0.000415079
0.000412514
0.000409994
0.000407518
0.000405085
0.000402695
0.000400345
0.000398035
0.000395761
0.000393522
0.000391315
0.000389142
0.000387001
0.000384892
0.000382815
0.000380768
0.00037875
0.000376756
0.000374785
0.000372833
0.000370899
0.000368983
0.000367084
0.000365206
0.00036335
0.000361521
0.000359721
0.000357954
0.000356223
0.000354527
0.00035287
0.000351246
0.000349662
0.000348105
0.00034659
0.000345093
0.000343645
0.000342198
0.000340819
0.000339411
0.000338113
0.000336728
0.000335536
0.000334139
0.000333116
0.000331614
0.000330943
0.000329043
7.16657e-06
3.20189e-05
7.01597e-05
0.000118674
0.000180184
0.000243184
0.000300986
0.000352483
0.000395233
0.000429986
0.000457137
0.000477687
0.000493055
0.000503811
0.000510968
0.000515192
0.000517301
0.000517635
0.000516878
0.000514969
0.000512731
0.000510025
0.000506993
0.000503813
0.000500568
0.000497315
0.000494098
0.000490939
0.000487852
0.000484844
0.000481916
0.000479066
0.000476291
0.000473583
0.000470937
0.000468346
0.000465806
0.000463308
0.000460849
0.000458422
0.000456025
0.00045365
0.000451298
0.000448967
0.000446655
0.000444361
0.000442083
0.000439822
0.000437576
0.000435344
0.000433127
0.000430925
0.000428736
0.00042656
0.000424399
0.000422252
0.00042012
0.000418001
0.000415898
0.000413809
0.000411735
0.000409677
0.000407634
0.000405606
0.000403594
0.000401598
0.000399619
0.000397655
0.000395707
0.000393776
0.00039186
0.000389962
0.000388079
0.000386213
0.000384363
0.000382529
0.00038071
0.000378909
0.000377123
0.000375353
0.000373599
0.000371861
0.000370137
0.000368429
0.000366736
0.000365058
0.000363393
0.000361745
0.000360109
0.000358489
0.000356881
0.000355287
0.000353704
0.000352134
0.000350573
0.000349027
0.000347488
0.000345964
0.000344447
0.000342949
0.000341456
0.000339987
0.000338521
0.000337082
0.000335646
0.000334238
0.000332834
0.000331457
0.00033009
0.000328734
0.000327417
0.000326063
0.000324816
0.000323438
0.000322298
0.00032084
0.000319889
0.000318242
0.000317645
0.000315566
1.90212e-06
2.57312e-06
5.49567e-06
1.11906e-05
2.01983e-05
3.23693e-05
4.84087e-05
6.65215e-05
8.55273e-05
0.000104317
0.000122529
0.000139501
0.000155158
0.000169225
0.000181774
0.000192739
0.000202302
0.000210493
0.000217518
0.000223447
0.000228446
0.000232635
0.000236123
0.00023901
0.000241392
0.000243344
0.000244945
0.00024625
0.000247314
0.000248178
0.000248882
0.000249457
0.000249932
0.000250326
0.000250663
0.000250955
0.000251218
0.00025146
0.000251692
0.000251918
0.000252146
0.000252373
0.000252606
0.000252849
0.000253103
0.00025337
0.00025365
0.000253943
0.00025425
0.00025457
0.000254902
0.000255244
0.000255595
0.000255954
0.00025632
0.000256691
0.000257065
0.000257443
0.000257821
0.0002582
0.000258575
0.00025895
0.000259318
0.000259684
0.000260041
0.000260394
0.000260735
0.000261071
0.000261393
0.000261709
0.000262008
0.000262301
0.000262575
0.000262843
0.000263089
0.000263331
0.000263548
0.000263761
0.000263947
0.000264132
0.000264286
0.000264441
0.000264562
0.000264687
0.000264775
0.000264871
0.000264925
0.000264992
0.000265012
0.000265052
0.000265037
0.00026505
0.000265001
0.000264988
0.000264905
0.000264869
0.000264751
0.000264694
0.000264542
0.000264466
0.000264282
0.00026419
0.000263973
0.000263869
0.00026362
0.000263506
0.000263228
0.000263104
0.0002628
0.000262664
0.000262343
0.000262185
0.000261863
0.000261662
0.000261374
0.000261091
0.000260883
0.000260455
0.000260415
0.00025978
1.89181e-06
1.89726e-06
1.92637e-06
2.0678e-06
2.54997e-06
3.64405e-06
5.53414e-06
8.22266e-06
1.19402e-05
1.62309e-05
2.10906e-05
2.62225e-05
3.15759e-05
3.6969e-05
4.23364e-05
4.75723e-05
5.26268e-05
5.74553e-05
6.20249e-05
6.63311e-05
7.03523e-05
7.41087e-05
7.75875e-05
8.08218e-05
8.38005e-05
8.65647e-05
8.91019e-05
9.14577e-05
9.36149e-05
9.56216e-05
9.74559e-05
9.91688e-05
0.000100733
0.000102202
0.000103542
0.00010481
0.000105966
0.000107069
0.000108075
0.000109043
0.000109925
0.000110782
0.000111561
0.000112331
0.000113031
0.000113733
0.000114371
0.000115022
0.00011561
0.000116221
0.000116771
0.000117352
0.000117873
0.000118432
0.00011893
0.000119473
0.000119954
0.000120487
0.000120955
0.000121482
0.000121941
0.000122465
0.000122917
0.00012344
0.000123888
0.000124413
0.000124858
0.000125386
0.000125828
0.00012636
0.000126801
0.000127339
0.000127777
0.00012832
0.000128757
0.000129307
0.000129741
0.000130297
0.000130729
0.000131291
0.00013172
0.000132288
0.000132714
0.000133288
0.000133709
0.00013429
0.000134705
0.000135292
0.000135702
0.000136295
0.000136698
0.000137298
0.000137693
0.000138299
0.000138687
0.0001393
0.000139679
0.000140299
0.00014067
0.000141298
0.000141661
0.000142298
0.000142653
0.0001433
0.000143647
0.000144304
0.000144644
0.000145311
0.000145644
0.00014632
0.000146647
0.000147329
0.000147652
0.000148335
0.00014866
0.000149333
0.00014967
0.000150316
0.000150681
0.000151454
1.89117e-06
1.89353e-06
1.89961e-06
1.91263e-06
1.93461e-06
1.97142e-06
2.03318e-06
2.14923e-06
2.35822e-06
2.76438e-06
3.23693e-06
4.09067e-06
4.78902e-06
6.02744e-06
6.85955e-06
8.35158e-06
9.24428e-06
1.08233e-05
1.1818e-05
1.33692e-05
1.44088e-05
1.5897e-05
1.69444e-05
1.83518e-05
1.93737e-05
2.07015e-05
2.1678e-05
2.29254e-05
2.38439e-05
2.5014e-05
2.58776e-05
2.69749e-05
2.7785e-05
2.88138e-05
2.95711e-05
3.05366e-05
3.12427e-05
3.21538e-05
3.2818e-05
3.36778e-05
3.42954e-05
3.51039e-05
3.56825e-05
3.64552e-05
3.70019e-05
3.77343e-05
3.82435e-05
3.89413e-05
3.94264e-05
4.01e-05
4.05593e-05
4.12022e-05
4.1634e-05
4.22527e-05
4.26655e-05
4.32662e-05
4.36599e-05
4.42383e-05
4.46094e-05
4.51676e-05
4.55235e-05
4.60707e-05
4.64148e-05
4.69449e-05
4.72676e-05
4.778e-05
4.80925e-05
4.86004e-05
4.89052e-05
4.93989e-05
4.96839e-05
5.01629e-05
5.04414e-05
5.09207e-05
5.11942e-05
5.16611e-05
5.19172e-05
5.2373e-05
5.26253e-05
5.30828e-05
5.33321e-05
5.37804e-05
5.40158e-05
5.44558e-05
5.46888e-05
5.5131e-05
5.53616e-05
5.57978e-05
5.60201e-05
5.64521e-05
5.66716e-05
5.71035e-05
5.73218e-05
5.77532e-05
5.79692e-05
5.83982e-05
5.8612e-05
5.90414e-05
5.9256e-05
5.96878e-05
5.99039e-05
6.03387e-05
6.05563e-05
6.09946e-05
6.12143e-05
6.16576e-05
6.18804e-05
6.23304e-05
6.25571e-05
6.30148e-05
6.32454e-05
6.37103e-05
6.39448e-05
6.44157e-05
6.46548e-05
6.51306e-05
6.53753e-05
6.58557e-05
6.61046e-05
6.67081e-05
1.89086e-06
1.89236e-06
1.89728e-06
1.90983e-06
1.92528e-06
1.95865e-06
1.98375e-06
2.03568e-06
2.06816e-06
2.13413e-06
2.17264e-06
2.25112e-06
2.29713e-06
2.3924e-06
2.44965e-06
2.56936e-06
2.64148e-06
2.79075e-06
2.88004e-06
3.06147e-06
3.16724e-06
3.37921e-06
3.49978e-06
3.73901e-06
3.87154e-06
4.13262e-06
4.27379e-06
4.55061e-06
4.69752e-06
4.98514e-06
5.13587e-06
5.43087e-06
5.58372e-06
5.88256e-06
6.03599e-06
6.33618e-06
6.48972e-06
6.79079e-06
6.94392e-06
7.24387e-06
7.39523e-06
7.69183e-06
7.84179e-06
8.13686e-06
8.28609e-06
8.5794e-06
8.7269e-06
9.01683e-06
9.163e-06
9.45112e-06
9.5964e-06
9.88214e-06
1.00269e-05
1.03137e-05
1.04572e-05
1.07343e-05
1.08764e-05
1.11606e-05
1.13092e-05
1.15826e-05
1.1719e-05
1.19853e-05
1.21333e-05
1.24147e-05
1.25599e-05
1.28212e-05
1.29521e-05
1.32091e-05
1.33549e-05
1.36326e-05
1.37759e-05
1.40339e-05
1.4162e-05
1.4412e-05
1.45465e-05
1.48175e-05
1.49569e-05
1.52154e-05
1.53429e-05
1.55917e-05
1.57181e-05
1.59731e-05
1.61075e-05
1.63655e-05
1.64929e-05
1.67424e-05
1.68666e-05
1.7113e-05
1.72383e-05
1.74902e-05
1.76177e-05
1.78684e-05
1.79926e-05
1.82388e-05
1.8362e-05
1.86076e-05
1.87322e-05
1.89816e-05
1.91076e-05
1.93583e-05
1.94838e-05
1.97328e-05
1.98585e-05
2.01096e-05
2.02377e-05
2.04938e-05
2.0624e-05
2.08837e-05
2.1015e-05
2.12764e-05
2.14092e-05
2.16742e-05
2.18095e-05
2.20796e-05
2.22171e-05
2.24909e-05
2.263e-05
2.29061e-05
2.30463e-05
2.33953e-05
1.89082e-06
1.89223e-06
1.897e-06
1.90925e-06
1.92462e-06
1.95791e-06
1.98307e-06
2.03523e-06
2.06767e-06
2.13351e-06
2.17093e-06
2.24672e-06
2.28861e-06
2.3739e-06
2.42104e-06
2.51667e-06
2.56946e-06
2.67569e-06
2.73243e-06
2.84562e-06
2.90372e-06
3.0187e-06
3.07562e-06
3.18683e-06
3.24196e-06
3.34832e-06
3.39904e-06
3.49351e-06
3.54247e-06
3.63493e-06
3.68171e-06
3.76272e-06
3.8015e-06
3.87771e-06
3.92016e-06
3.99994e-06
4.03978e-06
4.11218e-06
4.14823e-06
4.21962e-06
4.25919e-06
4.33985e-06
4.38094e-06
4.45809e-06
4.49666e-06
4.5727e-06
4.61309e-06
4.69666e-06
4.74129e-06
4.82477e-06
4.86621e-06
4.94777e-06
4.99035e-06
5.07727e-06
5.12475e-06
5.21713e-06
5.2631e-06
5.35367e-06
5.39978e-06
5.49198e-06
5.54076e-06
5.63991e-06
5.69086e-06
5.79025e-06
5.83997e-06
5.9382e-06
5.9888e-06
6.09096e-06
6.1466e-06
6.253e-06
6.3062e-06
6.40916e-06
6.46229e-06
6.56978e-06
6.62978e-06
6.74078e-06
6.79642e-06
6.90228e-06
6.9576e-06
7.07016e-06
7.13496e-06
7.25207e-06
7.31152e-06
7.42091e-06
7.47708e-06
7.58903e-06
7.65546e-06
7.78062e-06
7.84619e-06
7.96318e-06
8.02165e-06
8.13513e-06
8.19723e-06
8.32529e-06
8.39597e-06
8.52201e-06
8.58517e-06
8.70376e-06
8.76541e-06
8.89014e-06
8.96344e-06
9.09767e-06
9.16686e-06
9.29211e-06
9.35544e-06
9.47991e-06
9.55165e-06
9.69191e-06
9.76732e-06
9.9002e-06
9.96667e-06
1.00933e-05
1.01621e-05
1.03038e-05
1.03838e-05
1.05257e-05
1.05963e-05
1.07292e-05
1.0797e-05
1.09711e-05
1.89106e-06
1.89308e-06
1.89865e-06
1.91178e-06
1.93039e-06
1.96712e-06
2.02113e-06
2.12757e-06
2.30464e-06
2.65932e-06
3.06696e-06
3.81904e-06
4.42415e-06
5.48179e-06
6.23945e-06
7.41042e-06
8.3112e-06
9.47624e-06
1.03962e-05
1.15168e-05
1.23963e-05
1.34332e-05
1.42506e-05
1.51934e-05
1.59309e-05
1.67863e-05
1.74421e-05
1.82121e-05
1.88004e-05
1.94939e-05
2.00198e-05
2.06551e-05
2.11281e-05
2.17134e-05
2.21477e-05
2.2693e-05
2.30962e-05
2.36136e-05
2.39871e-05
2.44816e-05
2.48358e-05
2.53093e-05
2.56517e-05
2.61112e-05
2.64361e-05
2.68824e-05
2.71965e-05
2.76314e-05
2.79397e-05
2.83638e-05
2.86579e-05
2.90752e-05
2.93602e-05
2.97724e-05
3.00533e-05
3.04553e-05
3.07244e-05
3.11211e-05
3.13856e-05
3.1781e-05
3.20424e-05
3.24273e-05
3.26808e-05
3.3063e-05
3.33129e-05
3.3697e-05
3.39439e-05
3.43202e-05
3.45604e-05
3.49362e-05
3.51741e-05
3.55535e-05
3.57886e-05
3.61627e-05
3.63953e-05
3.67684e-05
3.69985e-05
3.7376e-05
3.76051e-05
3.79793e-05
3.82089e-05
3.85808e-05
3.88094e-05
3.91855e-05
3.94103e-05
3.97876e-05
4.00144e-05
4.0391e-05
4.06151e-05
4.09921e-05
4.12126e-05
4.15924e-05
4.18151e-05
4.2194e-05
4.24143e-05
4.27914e-05
4.30038e-05
4.33789e-05
4.35962e-05
4.3971e-05
4.4185e-05
4.45526e-05
4.47566e-05
4.51196e-05
4.5323e-05
4.56829e-05
4.5885e-05
4.62427e-05
4.64331e-05
4.6776e-05
4.696e-05
4.73015e-05
4.74916e-05
4.78348e-05
4.80099e-05
4.8336e-05
4.85065e-05
4.88334e-05
4.89998e-05
4.94163e-05
1.89159e-06
1.89603e-06
1.91946e-06
2.03623e-06
2.45384e-06
3.44434e-06
5.19128e-06
7.76583e-06
1.1153e-05
1.53403e-05
1.98662e-05
2.4775e-05
2.97698e-05
3.48493e-05
3.98094e-05
4.46551e-05
4.92519e-05
5.3627e-05
5.76958e-05
6.1503e-05
6.49957e-05
6.82316e-05
7.11727e-05
7.38856e-05
7.63377e-05
7.8599e-05
8.06379e-05
8.25252e-05
8.42269e-05
8.58141e-05
8.72482e-05
8.86e-05
8.98263e-05
9.09975e-05
9.20651e-05
9.31001e-05
9.40485e-05
9.49828e-05
9.58441e-05
9.67059e-05
9.75047e-05
9.83159e-05
9.90704e-05
9.98475e-05
0.000100573
0.000101328
0.000102034
0.000102778
0.000103473
0.000104211
0.000104902
0.000105642
0.000106333
0.000107078
0.000107773
0.000108527
0.000109229
0.000109995
0.000110707
0.000111487
0.000112209
0.000113004
0.000113739
0.00011455
0.000115297
0.000116126
0.000116886
0.000117732
0.000118504
0.000119369
0.000120153
0.000121035
0.000121831
0.000122731
0.000123537
0.000124454
0.000125269
0.000126203
0.000127027
0.000127977
0.000128807
0.000129773
0.000130609
0.000131588
0.000132428
0.000133421
0.000134263
0.000135269
0.00013611
0.000137127
0.000137966
0.000138994
0.000139827
0.000140865
0.000141691
0.000142736
0.000143553
0.000144605
0.000145408
0.000146466
0.000147253
0.000148316
0.000149084
0.000150151
0.000150898
0.000151969
0.000152692
0.000153767
0.000154465
0.000155545
0.000156214
0.000157299
0.000157939
0.000159031
0.000159641
0.000160741
0.000161319
0.000162423
0.000162973
0.000164318
1.89933e-06
2.44067e-06
5.06381e-06
1.04342e-05
1.90765e-05
3.08528e-05
4.62278e-05
6.41276e-05
8.25114e-05
0.000101062
0.000118812
0.000135488
0.000150747
0.000164537
0.000176752
0.000187505
0.000196826
0.000204891
0.000211783
0.000217676
0.000222675
0.000226916
0.000230511
0.000233565
0.000236163
0.000238392
0.000240314
0.000241996
0.000243484
0.000244828
0.00024606
0.000247214
0.000248316
0.000249386
0.000250441
0.000251495
0.00025256
0.000253644
0.000254754
0.000255894
0.000257067
0.000258275
0.000259519
0.000260799
0.000262113
0.000263462
0.000264841
0.000266251
0.000267688
0.000269152
0.000270637
0.000272144
0.000273668
0.000275209
0.000276762
0.000278329
0.000279903
0.000281486
0.000283073
0.000284665
0.000286257
0.000287849
0.000289439
0.000291027
0.000292608
0.000294184
0.000295751
0.000297311
0.000298859
0.000300399
0.000301923
0.000303438
0.000304936
0.000306423
0.00030789
0.000309347
0.000310782
0.000312205
0.000313605
0.000314994
0.000316357
0.000317709
0.000319033
0.000320349
0.000321633
0.00032291
0.000324154
0.000325392
0.000326593
0.000327793
0.000328951
0.000330112
0.000331226
0.000332349
0.000333418
0.000334502
0.000335526
0.000336573
0.000337549
0.00033856
0.000339488
0.000340465
0.000341344
0.000342289
0.000343117
0.000344034
0.00034481
0.000345704
0.000346425
0.000347302
0.000347966
0.000348832
0.000349437
0.000350299
0.000350842
0.000351707
0.000352186
0.000353052
0.000353476
0.0003545
6.53608e-06
2.98583e-05
6.68441e-05
0.000114589
0.000175272
0.000238036
0.000296005
0.000347655
0.000390915
0.000426824
0.000454896
0.00047696
0.000493753
0.000506197
0.000515118
0.000521391
0.000525537
0.000528238
0.000529715
0.000530544
0.000530661
0.000530548
0.000530269
0.000529838
0.000529369
0.000528929
0.000528526
0.000528205
0.000527939
0.000527777
0.000527655
0.000527643
0.000527666
0.000527731
0.000527855
0.000528012
0.000528195
0.000528399
0.000528617
0.000528843
0.000529072
0.0005293
0.000529523
0.000529738
0.000529943
0.000530135
0.000530312
0.000530475
0.000530619
0.000530747
0.000530856
0.00053095
0.000531023
0.000531082
0.00053112
0.000531147
0.000531151
0.000531144
0.000531126
0.000531091
0.000531042
0.00053098
0.000530907
0.000530823
0.000530727
0.000530622
0.000530508
0.000530384
0.000530253
0.000530113
0.000529966
0.000529812
0.000529652
0.000529487
0.000529315
0.000529139
0.000528957
0.000528772
0.000528582
0.000528389
0.000528192
0.000527992
0.000527788
0.000527583
0.000527374
0.000527164
0.000526951
0.000526737
0.000526521
0.000526304
0.000526086
0.000525867
0.000525647
0.000525427
0.000525206
0.000524986
0.000524765
0.000524546
0.000524326
0.00052411
0.000523892
0.000523679
0.000523466
0.000523258
0.000523051
0.000522849
0.00052265
0.000522457
0.000522269
0.000522085
0.000521911
0.000521736
0.000521581
0.000521412
0.00052128
0.000521113
0.000521007
0.000520841
0.000520758
0.000520565
0.000131909
0.000306501
0.000490328
0.000644834
0.000766848
0.000857738
0.00092125
0.000962323
0.000985618
0.000995751
0.000994587
0.000989579
0.000978812
0.000964583
0.000948745
0.000932173
0.000915478
0.000899092
0.000883297
0.000868278
0.000854136
0.00084092
0.000828641
0.000817279
0.000806795
0.000797139
0.000788253
0.000780078
0.00077255
0.000765609
0.000759197
0.000753259
0.000747744
0.000742607
0.000737804
0.0007333
0.000729058
0.000725048
0.000721243
0.000717623
0.000714168
0.000710862
0.00070769
0.000704638
0.000701695
0.000698851
0.0006961
0.000693434
0.000690848
0.000688337
0.000685898
0.000683526
0.000681218
0.000678972
0.000676784
0.000674653
0.000672575
0.00067055
0.000668575
0.000666649
0.000664771
0.000662938
0.00066115
0.000659405
0.000657702
0.000656041
0.000654419
0.000652836
0.000651292
0.000649784
0.000648313
0.000646877
0.000645475
0.000644108
0.000642774
0.000641472
0.000640201
0.000638962
0.000637752
0.000636573
0.000635422
0.000634299
0.000633205
0.000632138
0.000631098
0.000630085
0.000629097
0.000628136
0.0006272
0.00062629
0.000625404
0.000624543
0.000623707
0.000622895
0.000622108
0.000621345
0.000620607
0.000619893
0.000619203
0.000618537
0.000617895
0.000617278
0.000616684
0.000616115
0.000615568
0.000615045
0.000614543
0.000614065
0.000613607
0.000613171
0.000612754
0.000612356
0.000611981
0.000611615
0.000611284
0.000610936
0.000610665
0.000610311
0.000610127
0.000609724
)
;

boundaryField
{
    upperWall
    {
        type            zeroGradient;
    }
    lowerWall
    {
        type            zeroGradient;
    }
    inlet
    {
        type            zeroGradient;
    }
    outlet
    {
        type            zeroGradient;
    }
    frontAndBack
    {
        type            empty;
    }
}


// ************************************************************************* //
