/*--------------------------------*- C++ -*----------------------------------*\
  =========                 |
  \\      /  F ield         | OpenFOAM: The Open Source CFD Toolbox
   \\    /   O peration     | Website:  https://openfoam.org
    \\  /    A nd           | Version:  7
     \\/     M anipulation  |
\*---------------------------------------------------------------------------*/
FoamFile
{
    version     2.0;
    format      ascii;
    class       surfaceScalarField;
    location    "1.885";
    object      phi;
}
// * * * * * * * * * * * * * * * * * * * * * * * * * * * * * * * * * * * * * //

dimensions      [1 0 -1 0 0 0 0];

internalField   nonuniform List<scalar> 
36620
(
0.000467134
0.00091398
7.72363e-06
0.00026052
0.000202451
4.02197e-06
0.000185602
6.8161e-05
6.61174e-06
0.00016172
1.94796e-05
4.2564e-06
0.000148469
6.88893e-06
6.21897e-06
0.000140443
3.51018e-06
4.37618e-06
0.000134371
1.24076e-09
5.93694e-06
0.000129745
2.87814e-08
4.46677e-06
0.000125899
-1.9872e-06
5.70502e-06
0.000122777
-1.53043e-06
4.5264e-06
0.00012007
-2.92591e-06
5.50624e-06
0.000117789
-2.40626e-06
4.56054e-06
0.000115777
-3.44823e-06
5.33222e-06
0.00011403
-2.95802e-06
4.57404e-06
0.000112449
-3.72858e-06
5.17627e-06
0.000111136
-3.39293e-06
4.57047e-06
0.00010949
-3.52442e-06
5.03441e-06
0.000108772
-3.97276e-06
4.55255e-06
9.67975e-05
6.90381e-06
4.93329e-06
9.3487e-07
4.45875e-06
9.1262e-05
0.00100634
0.00129463
1.62968e-06
0.000745583
0.000464815
-1.78083e-06
0.000592293
0.000220379
8.8065e-07
0.000526686
8.63353e-05
-1.44333e-06
0.000488096
4.47425e-05
5.47522e-07
0.000464364
2.83582e-05
-1.29174e-06
0.000445106
1.88205e-05
2.78921e-07
0.000431274
1.49124e-05
-1.19509e-06
0.000418545
1.05598e-05
4.86459e-08
0.00040913
8.89131e-06
-1.13368e-06
0.000399903
6.32693e-06
-1.49704e-07
0.000392965
5.50442e-06
-1.09901e-06
0.000385902
3.80919e-06
-3.24569e-07
0.000380499
3.39195e-06
-1.08558e-06
0.000374897
2.20794e-06
-4.81858e-07
0.000370676
1.76161e-06
-1.08857e-06
0.000366386
1.23397e-06
-6.30084e-07
0.000363711
-3.62656e-07
-1.10282e-06
0.000376802
-5.53525e-06
-8.1692e-07
-1.57792e-05
-1.23384e-06
0.000394571
0.00139913
0.00127853
5.69044e-06
0.00128632
0.000574957
2.48258e-06
0.00115382
0.000347666
5.00069e-06
0.00106673
0.000170557
2.64567e-06
0.00100544
0.000101208
4.60818e-06
0.000963359
6.74831e-05
2.75612e-06
0.000929559
4.81327e-05
4.31927e-06
0.00090406
3.74343e-05
2.84338e-06
0.000881273
2.91577e-05
4.08478e-06
0.000863398
2.37797e-05
2.90204e-06
0.000846453
1.93162e-05
3.88473e-06
0.000832914
1.60388e-05
2.93613e-06
0.000819688
1.32527e-05
3.71038e-06
0.000808957
1.10885e-05
2.94991e-06
0.000798236
9.27347e-06
3.55446e-06
0.000789612
7.31777e-06
2.94638e-06
0.000779372
7.92051e-06
3.41512e-06
0.000773781
2.14463e-06
2.92672e-06
0.000753567
1.11691e-05
3.3496e-06
-4.41095e-07
2.85772e-06
0.000735191
0.00155347
0.00111178
1.87674e-06
0.00157337
0.000556078
-1.20511e-06
0.00153087
0.000388681
1.28423e-06
0.0014848
0.000217437
-1.03675e-06
0.00144113
0.000143686
9.55899e-07
0.00140562
0.00010365
-8.80247e-07
0.00137364
7.9229e-05
6.94199e-07
0.00134727
6.4436e-05
-7.78275e-07
0.00132277
5.30986e-05
4.67171e-07
0.00130234
4.48648e-05
-7.14585e-07
0.00128298
3.83731e-05
2.70012e-07
0.00126667
3.30256e-05
-6.79151e-07
0.00125104
2.8791e-05
9.54839e-08
0.00123753
2.52575e-05
-6.6555e-07
0.00122484
2.2007e-05
-6.18019e-08
0.0012129
1.98813e-05
-6.68564e-07
0.00120408
1.68774e-05
-2.11162e-07
0.0011917
1.51029e-05
-6.85987e-07
0.00119508
8.07568e-06
-4.14742e-07
1.31628e-07
-8.00563e-07
0.00119515
0.00159265
0.000902965
4.8503e-06
0.00167658
0.000469967
1.9872e-06
0.00169985
0.000360823
4.38778e-06
0.0016986
0.000216403
2.06128e-06
0.00168536
0.000152658
4.02777e-06
0.00167055
0.000116048
2.18061e-06
0.00165323
9.25822e-05
3.74695e-06
0.00163749
7.77313e-05
2.27216e-06
0.00162112
6.58389e-05
3.51481e-06
0.0016067
5.68872e-05
2.33271e-06
0.00159215
4.95872e-05
3.31594e-06
0.0015794
4.34211e-05
2.36763e-06
0.00156672
3.83656e-05
3.142e-06
0.00155555
3.40985e-05
2.38181e-06
0.00154449
3.01313e-05
2.98654e-06
0.00153469
2.73255e-05
2.37877e-06
0.00152426
2.44551e-05
2.8484e-06
0.00151546
2.14933e-05
2.35918e-06
0.00150182
1.88471e-05
2.78593e-06
1.81581e-05
2.29599e-06
0.00148137
0.00158397
0.000705266
2.34087e-06
0.00168297
0.000371272
-4.96556e-07
0.0017403
0.000301437
1.85254e-06
0.00176917
0.000187791
-4.75102e-07
0.00178185
0.000138246
1.49716e-06
0.00178887
0.000109129
-3.45476e-07
0.00178983
9.01695e-05
1.22555e-06
0.00178946
7.81606e-05
-2.48529e-07
0.00178604
6.8128e-05
9.95994e-07
0.00178256
6.04764e-05
-1.85902e-07
0.00177742
5.39017e-05
7.98222e-07
0.00177266
4.83416e-05
-1.50595e-07
0.00176699
4.34491e-05
6.23704e-07
0.00176174
3.95605e-05
-1.3694e-07
0.00175626
3.523e-05
4.66704e-07
0.00175054
3.32608e-05
-1.40113e-07
0.00174651
2.82215e-05
3.18206e-07
0.00173969
2.84842e-05
-1.6076e-07
0.00174001
1.83705e-05
1.21246e-07
1.99998e-05
-2.56088e-07
0.00173834
0.0015732
0.000516499
4.22077e-06
0.00167107
0.000271677
1.5429e-06
0.00173994
0.000228514
3.84841e-06
0.00178177
0.00014421
1.53541e-06
0.001808
0.000108284
3.49819e-06
0.00182811
8.71123e-05
1.65371e-06
0.00184145
7.33666e-05
3.22267e-06
0.00185285
6.48169e-05
1.74913e-06
0.00186037
5.74644e-05
2.99344e-06
0.00186704
5.19058e-05
1.81238e-06
0.00187119
4.69246e-05
2.79651e-06
0.00187495
4.27301e-05
1.84883e-06
0.00187698
3.88335e-05
2.62349e-06
0.00187895
3.57948e-05
1.86372e-06
0.00187958
3.22317e-05
2.46853e-06
0.0018805
3.0583e-05
1.86115e-06
0.00187966
2.68195e-05
2.33018e-06
0.0018796
2.67598e-05
1.84062e-06
0.00187534
2.03794e-05
2.25058e-06
2.57013e-05
1.77925e-06
0.00186782
0.00156263
0.000339698
2.78415e-06
0.00165535
0.00017866
1.08643e-07
0.0017279
0.000153381
2.38027e-06
0.00177443
9.74108e-05
5.69969e-08
0.00180644
7.40253e-05
2.01665e-06
0.00183292
6.02128e-05
1.70467e-07
0.00185294
5.13666e-05
1.7394e-06
0.00187125
4.60323e-05
2.64077e-07
0.00188568
4.13845e-05
1.50796e-06
0.00189923
3.79375e-05
3.25665e-07
0.00191007
3.47385e-05
1.30936e-06
0.00192034
3.2095e-05
3.60556e-07
0.00192858
2.94853e-05
1.13454e-06
0.00193647
2.76017e-05
3.74002e-07
0.00194284
2.49823e-05
9.77598e-07
0.00194885
2.43168e-05
3.7064e-07
0.0019542
2.07515e-05
8.31051e-07
0.00195852
2.21691e-05
3.48726e-07
0.00196338
1.48858e-05
6.57435e-07
1.95718e-05
2.68502e-07
0.00196923
0.00155667
0.000167975
3.68881e-06
0.0016459
8.81485e-05
1.09451e-06
0.0017191
7.66333e-05
3.34714e-06
0.00176663
4.86262e-05
1.03731e-06
0.00180041
3.70133e-05
2.99535e-06
0.00182905
3.01786e-05
1.15066e-06
0.00185161
2.58446e-05
2.72019e-06
0.0018729
2.32849e-05
1.24637e-06
0.0018906
2.10444e-05
2.49121e-06
0.00190772
1.94185e-05
1.31015e-06
0.00192224
1.78854e-05
2.2946e-06
0.00193635
1.66355e-05
1.34693e-06
0.00194836
1.53736e-05
2.12165e-06
0.00196018
1.44833e-05
1.36189e-06
0.00197009
1.32111e-05
1.96659e-06
0.00198022
1.29455e-05
1.35933e-06
0.00198796
1.13031e-05
1.82643e-06
0.00199665
1.22365e-05
1.33764e-06
0.00200082
9.04314e-06
1.7183e-06
1.3114e-05
1.27381e-06
0.002006
0.00155338
-9.92489e-11
3.22381e-06
0.00164071
1.11354e-10
6.2941e-07
0.00171427
-2.29233e-10
2.87071e-06
0.00176212
5.32109e-10
5.55091e-07
0.00179639
-4.82841e-11
2.51065e-06
0.00182565
1.63114e-09
6.64345e-07
0.00184902
7.72019e-10
2.23317e-06
0.00187134
4.06621e-09
7.58211e-07
0.00189023
4.16563e-09
2.00247e-06
0.00190873
9.50764e-09
8.20617e-07
0.00192475
1.64137e-08
1.80459e-06
0.0019405
2.5129e-08
8.56296e-07
0.00195422
4.91887e-08
1.63052e-06
0.00196781
8.65228e-08
8.70432e-07
0.00197954
1.11346e-07
1.47439e-06
0.00199141
3.23325e-07
8.67594e-07
0.00200129
2.18567e-07
1.33096e-06
0.00201175
1.026e-06
8.4605e-07
0.00201898
6.71087e-07
1.18892e-06
2.37355e-06
7.76562e-07
0.00202896
0.00155338
-0.000167975
3.22381e-06
0.00164071
-8.81483e-05
6.2941e-07
0.00171427
-7.66338e-05
2.87071e-06
0.00176212
-4.86252e-05
5.55091e-07
0.00179639
-3.70133e-05
2.51065e-06
0.00182565
-3.01754e-05
6.64342e-07
0.00184902
-2.58431e-05
2.23317e-06
0.00187134
-2.32769e-05
7.58202e-07
0.00189023
-2.10362e-05
2.00247e-06
0.00190873
-1.94002e-05
8.2059e-07
0.00192475
-1.78528e-05
1.80458e-06
0.0019405
-1.65877e-05
8.56217e-07
0.00195423
-1.5275e-05
1.63048e-06
0.00196782
-1.43173e-05
8.70182e-07
0.00197955
-1.29881e-05
1.47429e-06
0.00199144
-1.23159e-05
8.66819e-07
0.00200132
-1.08713e-05
1.33079e-06
0.0020118
-1.01929e-05
8.43859e-07
0.00201905
-7.7238e-06
1.18925e-06
-8.34473e-06
7.72968e-07
0.002029
0.00155667
-0.000339698
3.68881e-06
0.0016459
-0.00017866
1.09451e-06
0.0017191
-0.000153381
3.34714e-06
0.00176663
-9.74098e-05
1.03731e-06
0.00180041
-7.40254e-05
2.99535e-06
0.00182905
-6.02096e-05
1.15067e-06
0.00185161
-5.13652e-05
2.72019e-06
0.0018729
-4.60242e-05
1.24638e-06
0.0018906
-4.13766e-05
2.49121e-06
0.00190772
-3.79186e-05
1.31017e-06
0.00192224
-3.47068e-05
2.29461e-06
0.00193634
-3.20459e-05
1.34701e-06
0.00194837
-2.93894e-05
2.12169e-06
0.00196018
-2.74346e-05
1.36214e-06
0.0019701
-2.47653e-05
1.96666e-06
0.00198023
-2.36912e-05
1.36009e-06
0.00198799
-2.03343e-05
1.82655e-06
0.00199672
-2.01727e-05
1.33973e-06
0.00200096
-1.36389e-05
1.71796e-06
-1.49764e-05
1.27679e-06
0.00200632
0.00156263
-0.000516499
2.78415e-06
0.00165535
-0.000271677
1.08643e-07
0.0017279
-0.000228515
2.38027e-06
0.00177443
-0.00014421
5.69962e-08
0.00180644
-0.000108284
2.01665e-06
0.00183292
-8.71092e-05
1.70465e-07
0.00185294
-7.33652e-05
1.7394e-06
0.00187125
-6.48091e-05
2.6407e-07
0.00188568
-5.74569e-05
1.50796e-06
0.00189923
-5.18879e-05
3.25642e-07
0.00191007
-4.68944e-05
1.30936e-06
0.00192034
-4.26848e-05
3.60487e-07
0.00192859
-3.8741e-05
1.13451e-06
0.00193649
-3.56405e-05
3.7379e-07
0.00194287
-3.20231e-05
9.77519e-07
0.00194892
-2.99976e-05
3.69993e-07
0.0019543
-2.64302e-05
8.30929e-07
0.0019587
-2.48404e-05
3.46827e-07
0.00196367
-1.92442e-05
6.58156e-07
-2.12619e-05
2.65207e-07
0.00196968
0.0015732
-0.000705266
4.22077e-06
0.00167107
-0.000371272
1.5429e-06
0.00173994
-0.000301437
3.84841e-06
0.00178177
-0.00018779
1.53541e-06
0.001808
-0.000138246
3.49819e-06
0.00182811
-0.000109126
1.65371e-06
0.00184145
-9.01681e-05
3.22267e-06
0.00185285
-7.81532e-05
1.74913e-06
0.00186037
-6.8121e-05
2.99345e-06
0.00186705
-6.04592e-05
1.8124e-06
0.00187119
-5.38738e-05
2.79651e-06
0.00187496
-4.8298e-05
1.84889e-06
0.00187699
-4.33641e-05
2.62351e-06
0.00187897
-3.94148e-05
1.86393e-06
0.00187962
-3.50406e-05
2.46856e-06
0.00188058
-3.2711e-05
1.86182e-06
0.00187979
-2.78834e-05
2.33021e-06
0.00187986
-2.6705e-05
1.84242e-06
0.00187581
-1.74404e-05
2.25006e-06
-1.60071e-05
1.78133e-06
0.00186873
0.00158397
-0.000902965
2.34087e-06
0.00168297
-0.000469967
-4.96556e-07
0.0017403
-0.000360823
1.85254e-06
0.00176917
-0.000216402
-4.75103e-07
0.00178185
-0.000152657
1.49716e-06
0.00178887
-0.000116046
-3.45476e-07
0.00178983
-9.25808e-05
1.22555e-06
0.00178946
-7.77251e-05
-2.48534e-07
0.00178604
-6.58325e-05
9.96e-07
0.00178256
-5.6873e-05
-1.85922e-07
0.00177742
-4.95621e-05
7.98225e-07
0.00177267
-4.33858e-05
-1.50655e-07
0.00176702
-3.82895e-05
6.23693e-07
0.00176179
-3.39789e-05
-1.37114e-07
0.00175633
-2.99651e-05
4.66654e-07
0.0017507
-2.68614e-05
-1.40626e-07
0.00174673
-2.41759e-05
3.18148e-07
0.00174012
-1.99266e-05
-1.62315e-07
0.00174064
-1.81179e-05
1.22523e-07
-1.46276e-05
-2.59109e-07
0.00173944
0.00159265
-0.00111178
4.8503e-06
0.00167658
-0.000556078
1.9872e-06
0.00169985
-0.000388681
4.38778e-06
0.0016986
-0.000217437
2.06128e-06
0.00168536
-0.000143685
4.02777e-06
0.00167055
-0.000103649
2.18061e-06
0.00165323
-7.92277e-05
3.74696e-06
0.00163749
-6.44313e-05
2.27216e-06
0.00162112
-5.30929e-05
3.51481e-06
0.00160671
-4.48539e-05
2.33272e-06
0.00159216
-3.83517e-05
3.31595e-06
0.00157942
-3.29986e-05
2.36767e-06
0.00156675
-2.87283e-05
3.14202e-06
0.00155561
-2.51657e-05
2.38197e-06
0.00154458
-2.18736e-05
2.98655e-06
0.00153488
-1.95139e-05
2.37932e-06
0.00152453
-1.66772e-05
2.84838e-06
0.00151605
-1.38544e-05
2.36058e-06
0.00150274
-7.68541e-06
2.78523e-06
2.4964e-06
2.2971e-06
0.00148319
0.00155347
-0.00127853
1.87674e-06
0.00157337
-0.000574957
-1.20511e-06
0.00153087
-0.000347667
1.28423e-06
0.0014848
-0.000170557
-1.03675e-06
0.00144113
-0.000101208
9.55902e-07
0.00140562
-6.74821e-05
-8.80246e-07
0.00137364
-4.81316e-05
6.94203e-07
0.00134727
-3.74316e-05
-7.78278e-07
0.00132277
-2.91534e-05
4.67176e-07
0.00130235
-2.37736e-05
-7.14603e-07
0.001283
-1.93006e-05
2.70015e-07
0.0012667
-1.60246e-05
-6.79202e-07
0.00125108
-1.32072e-05
9.54811e-08
0.00123762
-1.10367e-05
-6.65682e-07
0.00122496
-9.17725e-06
-6.18178e-08
0.00121317
-7.09812e-06
-6.68929e-07
0.0012044
-7.77114e-06
-2.11117e-07
0.00119247
-1.33741e-06
-6.87155e-07
0.00119592
-1.08639e-05
-4.12806e-07
2.30139e-06
-8.03215e-07
0.00119677
0.00139913
-0.00129463
5.69045e-06
0.00128632
-0.000464816
2.48259e-06
0.00115382
-0.000220379
5.00069e-06
0.00106673
-8.63355e-05
2.64567e-06
0.00100544
-4.47425e-05
4.60818e-06
0.00096336
-2.83579e-05
2.75612e-06
0.000929561
-1.88199e-05
4.31927e-06
0.000904064
-1.49111e-05
2.84338e-06
0.000881278
-1.05575e-05
4.08478e-06
0.000863406
-8.8883e-06
2.90204e-06
0.000846468
-6.31877e-06
3.88473e-06
0.000832937
-5.49752e-06
2.93617e-06
0.000819733
-3.78625e-06
3.71038e-06
0.000809029
-3.36793e-06
2.95004e-06
0.000798355
-2.1593e-06
3.55444e-06
0.000789845
-1.65583e-06
2.94679e-06
0.000779685
-1.16705e-06
3.41506e-06
0.000774516
7.51443e-07
2.92764e-06
0.000754612
5.52195e-06
3.3491e-06
1.65184e-05
2.85803e-06
0.000737372
0.00100634
-0.00091398
1.62968e-06
0.000745583
-0.000202451
-1.78082e-06
0.000592293
-6.81612e-05
8.80657e-07
0.000526687
-1.94798e-05
-1.44332e-06
0.000488096
-6.88907e-06
5.47528e-07
0.000464365
-3.51021e-06
-1.29174e-06
0.000445108
-1.14039e-09
2.78926e-07
0.000431276
-2.84754e-08
-1.19509e-06
0.000418548
1.98785e-06
4.86513e-08
0.000409136
1.53113e-06
-1.13369e-06
0.000399915
2.92818e-06
-1.49696e-07
0.000392982
2.40775e-06
-1.09904e-06
0.000385935
3.45481e-06
-3.24558e-07
0.00038055
2.96362e-06
-1.08564e-06
0.000374983
3.74232e-06
-4.81847e-07
0.000370841
3.41917e-06
-1.08873e-06
0.000366595
3.54745e-06
-6.29981e-07
0.000364205
4.07954e-06
-1.10357e-06
0.000377108
-6.73686e-06
-8.15123e-07
-6.38146e-07
-1.23632e-06
0.000395336
0.000467134
7.72364e-06
0.00026052
4.02198e-06
0.000185602
6.61176e-06
0.000161721
4.25642e-06
0.000148469
6.21898e-06
0.000140444
4.37619e-06
0.000134371
5.93695e-06
0.000129745
4.46678e-06
0.0001259
5.70503e-06
0.000122779
4.52642e-06
0.000120075
5.50624e-06
0.000117795
4.56058e-06
0.000115789
5.33222e-06
0.000114048
4.57414e-06
0.000112481
5.17621e-06
0.000111194
4.57079e-06
0.00010957
5.03422e-06
0.000108959
4.55325e-06
9.71511e-05
4.93281e-06
4.46007e-06
9.19163e-05
0.000889043
0.000505443
1.61919e-06
0.000528837
0.000361972
2.09436e-06
0.000376171
0.000157841
1.26553e-06
0.00031817
6.02868e-05
1.798e-06
0.000290486
3.24331e-05
1.30275e-06
0.00027121
2.18863e-05
1.60897e-06
0.000258422
1.72982e-05
1.2811e-06
0.000247136
1.41564e-05
1.45909e-06
0.000239265
1.2177e-05
1.26629e-06
0.000231614
1.06831e-05
1.36375e-06
0.000226141
9.58781e-06
1.26023e-06
0.000220508
8.75556e-06
1.30276e-06
0.00021638
8.061e-06
1.25931e-06
0.00021202
7.52413e-06
1.26478e-06
0.000208701
7.08169e-06
1.26351e-06
0.00020536
6.51491e-06
1.24346e-06
0.000202913
6.05194e-06
1.27452e-06
0.000199182
6.89488e-06
1.23258e-06
0.00024193
-3.92547e-05
1.28731e-06
-2.70507e-05
1.26793e-06
0.000272008
0.0013789
0.000511939
4.76268e-06
0.0011934
0.000540191
5.31309e-06
0.00102318
0.000324264
4.47749e-06
0.000905549
0.00017125
5.00808e-06
0.000830629
0.000103187
4.50606e-06
0.000778071
6.81482e-05
4.81893e-06
0.000741518
4.94975e-05
4.4813e-06
0.000711615
3.8071e-05
4.67051e-06
0.000689205
3.00691e-05
4.46735e-06
0.0006691
2.49966e-05
4.57151e-06
0.000653392
2.05994e-05
4.46292e-06
0.000638571
1.7883e-05
4.50595e-06
0.000626654
1.50884e-05
4.46405e-06
0.000615091
1.34207e-05
4.46413e-06
0.000605394
1.16925e-05
4.47017e-06
0.000596308
9.92443e-06
4.43992e-06
0.000587066
1.00207e-05
4.48557e-06
0.00058289
5.37665e-06
4.42502e-06
0.000543921
-5.7988e-06
4.53585e-06
3.51564e-06
4.49032e-06
0.000507457
0.0014868
0.000417227
1.99219e-06
0.00148589
0.000540745
2.65927e-06
0.00141583
0.000397504
1.61335e-06
0.00133402
0.000253131
2.35896e-06
0.001266
0.000173904
1.6765e-06
0.00120998
0.000124537
2.18002e-06
0.00116689
9.50537e-05
1.68204e-06
0.00113019
7.54729e-05
2.02435e-06
0.00110113
6.14568e-05
1.68601e-06
0.00107507
5.19934e-05
1.91544e-06
0.00105381
4.40263e-05
1.69745e-06
0.00103402
3.87492e-05
1.8417e-06
0.00101746
3.36178e-05
1.71397e-06
0.00100161
3.038e-05
1.79502e-06
0.000988287
2.67663e-05
1.73691e-06
0.000974739
2.4551e-05
1.76967e-06
0.000965688
2.05979e-05
1.76569e-06
0.000950796
2.12888e-05
1.76014e-06
0.000962839
-1.64062e-05
1.76182e-06
-4.40983e-06
1.80099e-06
0.000971652
0.00146692
0.00033634
4.34583e-06
0.00154004
0.000461274
4.95932e-06
0.00156256
0.000371919
4.14632e-06
0.00154772
0.000262035
4.67538e-06
0.00152265
0.000195529
4.16313e-06
0.00149231
0.000149285
4.48351e-06
0.00146453
0.000119198
4.14071e-06
0.00143722
9.75359e-05
4.33416e-06
0.00141385
8.10841e-05
4.12602e-06
0.00139153
6.93242e-05
4.23318e-06
0.00137253
5.91738e-05
4.12064e-06
0.00135433
5.21249e-05
4.16591e-06
0.00133867
4.52834e-05
4.12085e-06
0.00132353
4.07616e-05
4.12284e-06
0.00131015
3.5959e-05
4.12675e-06
0.00129746
3.24393e-05
4.09848e-06
0.00128454
2.90993e-05
4.14322e-06
0.00127535
2.56004e-05
4.08735e-06
0.00124835
5.83242e-06
4.20523e-06
2.33586e-05
4.15395e-06
0.00121546
0.00146121
0.000266004
2.38005e-06
0.00154584
0.000375387
3.06144e-06
0.0015999
0.000319988
2.05393e-06
0.00162273
0.000238304
2.74961e-06
0.0016323
0.000187654
2.09812e-06
0.00163073
0.000150231
2.55982e-06
0.00162605
0.000125308
2.10876e-06
0.00161697
0.000106326
2.40868e-06
0.0016079
9.14472e-05
2.11538e-06
0.00159701
8.01955e-05
2.30421e-06
0.00158712
7.02471e-05
2.1262e-06
0.00157641
6.30063e-05
2.23396e-06
0.00156691
5.58427e-05
2.13914e-06
0.00155685
5.10856e-05
2.18906e-06
0.00154828
4.54259e-05
2.15572e-06
0.0015384
4.25629e-05
2.16428e-06
0.00153231
3.58519e-05
2.17598e-06
0.00152097
3.70792e-05
2.15593e-06
0.00152184
5.49574e-06
2.16407e-06
2.24669e-05
2.20009e-06
0.00152268
0.0014446
0.000208242
3.97493e-06
0.00152384
0.000290852
4.61985e-06
0.00159018
0.000251487
3.80766e-06
0.00163169
0.000191755
4.34478e-06
0.00166197
0.000154821
3.82179e-06
0.00168017
0.000127284
4.15592e-06
0.00169371
0.000108968
3.80676e-06
0.0017009
9.47004e-05
4.0093e-06
0.00170621
8.32318e-05
3.79526e-06
0.00170792
7.43352e-05
3.90883e-06
0.00170898
6.61719e-05
3.79153e-06
0.00170792
6.01082e-05
3.84166e-06
0.00170679
5.38661e-05
3.79283e-06
0.00170435
4.96745e-05
3.79859e-06
0.00170192
4.4615e-05
3.79962e-06
0.00169892
4.17268e-05
3.77447e-06
0.00169459
3.67173e-05
3.81643e-06
0.0016917
3.60315e-05
3.76688e-06
0.00167719
1.61844e-05
3.87791e-06
3.57505e-05
3.83096e-06
0.00165971
0.00144638
0.000151764
2.73827e-06
0.0015203
0.000214875
3.40804e-06
0.00158374
0.000189213
2.48711e-06
0.00162784
0.000145871
3.10442e-06
0.00166412
0.000119298
2.49883e-06
0.0016905
9.94111e-05
2.90789e-06
0.0017134
8.65731e-05
2.4955e-06
0.00173034
7.6576e-05
2.7564e-06
0.00174535
6.86102e-05
2.49291e-06
0.00175643
6.23571e-05
2.65209e-06
0.00176636
5.65176e-05
2.49676e-06
0.0017736
5.21516e-05
2.58234e-06
0.0017802
4.74494e-05
2.50457e-06
0.00178485
4.44369e-05
2.53802e-06
0.00178934
4.01906e-05
2.51726e-06
0.00179186
3.86496e-05
2.51382e-06
0.00179557
3.28678e-05
2.53458e-06
0.00179593
3.50277e-05
2.50753e-06
0.00179844
1.33667e-05
2.53138e-06
2.90458e-05
2.55672e-06
0.00180429
0.00143892
0.000100441
3.64635e-06
0.00150871
0.000140707
4.3077e-06
0.00157262
0.00012399
3.4853e-06
0.0016184
9.59024e-05
4.03078e-06
0.00165739
7.85907e-05
3.49323e-06
0.0016871
6.5788e-05
3.84056e-06
0.00171406
5.76527e-05
3.4819e-06
0.00173563
5.14023e-05
3.69441e-06
0.00175571
4.64452e-05
3.47271e-06
0.00177214
4.26013e-05
3.59382e-06
0.00178753
3.89442e-05
3.47057e-06
0.00180027
3.6252e-05
3.52655e-06
0.00181221
3.32297e-05
3.47321e-06
0.00182228
3.13527e-05
3.48369e-06
0.00183148
2.85991e-05
3.48148e-06
0.00183961
2.7538e-05
3.46023e-06
0.00184567
2.42277e-05
3.4987e-06
0.00185245
2.51765e-05
3.45509e-06
0.00184959
1.3324e-05
3.54896e-06
2.65801e-05
3.51547e-06
0.00184876
0.00144007
4.94371e-05
3.04928e-06
0.00150786
7.01102e-05
3.72048e-06
0.00156973
6.24214e-05
2.84929e-06
0.00161458
4.84442e-05
3.4273e-06
0.00165324
3.98333e-05
2.85042e-06
0.00168329
3.34116e-05
3.23035e-06
0.00171121
2.93939e-05
2.84177e-06
0.00173427
2.63326e-05
3.08015e-06
0.00175631
2.39486e-05
2.83504e-06
0.00177507
2.21154e-05
2.97653e-06
0.00179308
2.03726e-05
2.83523e-06
0.00180867
1.91144e-05
2.90719e-06
0.00182358
1.7652e-05
2.84007e-06
0.00183669
1.6832e-05
2.86318e-06
0.00184912
1.5394e-05
2.85049e-06
0.0018601
1.51943e-05
2.83939e-06
0.00187036
1.30222e-05
2.867e-06
0.00187959
1.44958e-05
2.83485e-06
0.00188484
6.91376e-06
2.88049e-06
1.39633e-05
2.88748e-06
0.0018958
0.00143776
-1.13674e-10
3.34371e-06
0.0015043
2.94527e-10
4.01256e-06
0.00156622
-1.26268e-10
3.17141e-06
0.00161128
7.3989e-10
3.72913e-06
0.00165021
-1.76495e-11
3.17395e-06
0.0016805
1.79353e-09
3.53554e-06
0.00170874
8.10378e-10
3.16402e-06
0.00173227
4.44735e-09
3.38779e-06
0.00175495
4.12008e-09
3.15597e-06
0.00177452
1.15187e-08
3.28587e-06
0.00179351
1.50146e-08
3.1548e-06
0.00181024
3.37866e-08
3.21766e-06
0.00182637
4.42713e-08
3.15837e-06
0.00184088
1.06834e-07
3.1743e-06
0.00185458
1.21672e-07
3.16764e-06
0.00186728
3.23171e-07
3.15076e-06
0.00187819
3.5663e-07
3.1845e-06
0.00188954
9.01148e-07
3.14625e-06
0.00189332
1.10133e-06
3.21749e-06
2.35913e-06
3.20193e-06
0.00190247
0.00143776
-4.94373e-05
3.34371e-06
0.0015043
-7.01097e-05
4.01256e-06
0.00156622
-6.24216e-05
3.17141e-06
0.00161128
-4.84427e-05
3.72913e-06
0.00165021
-3.98333e-05
3.17395e-06
0.0016805
-3.3408e-05
3.53555e-06
0.00170874
-2.93923e-05
3.16402e-06
0.00173227
-2.63235e-05
3.3878e-06
0.00175495
-2.39405e-05
3.15597e-06
0.00177452
-2.20917e-05
3.28588e-06
0.00179351
-2.03428e-05
3.1548e-06
0.00181024
-1.90449e-05
3.2177e-06
0.00182637
-1.75643e-05
3.15839e-06
0.00184087
-1.66123e-05
3.17444e-06
0.00185457
-1.51536e-05
3.1677e-06
0.00186726
-1.45341e-05
3.1512e-06
0.00187818
-1.23184e-05
3.18463e-06
0.00188952
-1.26906e-05
3.14751e-06
0.00189338
-4.78565e-06
3.2174e-06
-9.41835e-06
3.20399e-06
0.00190269
0.00144007
-0.000100441
3.04928e-06
0.00150786
-0.000140706
3.72048e-06
0.00156973
-0.00012399
2.84929e-06
0.00161458
-9.5901e-05
3.4273e-06
0.00165324
-7.85907e-05
2.85042e-06
0.00168329
-6.57844e-05
3.23035e-06
0.00171121
-5.76511e-05
2.84177e-06
0.00173427
-5.13934e-05
3.08014e-06
0.00175631
-4.64373e-05
2.83504e-06
0.00177507
-4.25785e-05
2.97652e-06
0.00179308
-3.8915e-05
2.83523e-06
0.00180867
-3.61857e-05
2.90715e-06
0.00182358
-3.31431e-05
2.84005e-06
0.0018367
-3.1144e-05
2.86304e-06
0.00184915
-2.83617e-05
2.85043e-06
0.00186015
-2.69082e-05
2.83895e-06
0.00187042
-2.35341e-05
2.86684e-06
0.00187971
-2.3425e-05
2.83359e-06
0.00188495
-1.11836e-05
2.88045e-06
-2.19561e-05
2.88544e-06
0.00189584
0.00143892
-0.000151765
3.64635e-06
0.00150871
-0.000214874
4.3077e-06
0.00157262
-0.000189213
3.4853e-06
0.0016184
-0.000145869
4.03078e-06
0.00165739
-0.000119298
3.49323e-06
0.0016871
-9.94076e-05
3.84056e-06
0.00171406
-8.65716e-05
3.4819e-06
0.00173563
-7.65671e-05
3.69442e-06
0.00175571
-6.86026e-05
3.47271e-06
0.00177214
-6.23343e-05
3.59383e-06
0.00178753
-5.64896e-05
3.47057e-06
0.00180028
-5.20856e-05
3.52658e-06
0.00181222
-4.73667e-05
3.47322e-06
0.00182228
-4.42295e-05
3.48379e-06
0.0018315
-3.99655e-05
3.48151e-06
0.00183964
-3.8028e-05
3.46057e-06
0.00184573
-3.22142e-05
3.49872e-06
0.00185258
-3.33375e-05
3.45613e-06
0.00184989
-1.13986e-05
3.54845e-06
-2.47349e-05
3.51707e-06
0.00184937
0.00144638
-0.000208242
2.73827e-06
0.0015203
-0.000290852
3.40804e-06
0.00158374
-0.000251487
2.48711e-06
0.00162784
-0.000191753
3.10442e-06
0.00166412
-0.000154821
2.49883e-06
0.0016905
-0.000127281
2.90789e-06
0.0017134
-0.000108967
2.4955e-06
0.00173034
-9.46922e-05
2.7564e-06
0.00174535
-8.32246e-05
2.49291e-06
0.00175643
-7.43143e-05
2.65207e-06
0.00176636
-6.61452e-05
2.49676e-06
0.00177361
-6.00481e-05
2.5823e-06
0.00178021
-5.3788e-05
2.50456e-06
0.00178489
-4.94867e-05
2.5379e-06
0.00178939
-4.44039e-05
2.51721e-06
0.00179197
-4.11634e-05
2.51341e-06
0.00179572
-3.61038e-05
2.53443e-06
0.00179622
-3.44813e-05
2.50639e-06
0.00179881
-1.42918e-05
2.53137e-06
-3.15283e-05
2.55489e-06
0.00180475
0.0014446
-0.000266004
3.97493e-06
0.00152384
-0.000375386
4.61985e-06
0.00159018
-0.000319988
3.80766e-06
0.00163169
-0.000238302
4.34478e-06
0.00166197
-0.000187654
3.82179e-06
0.00168017
-0.000150228
4.15592e-06
0.00169371
-0.000125307
3.80676e-06
0.00170091
-0.000106319
4.0093e-06
0.00170621
-9.14405e-05
3.79525e-06
0.00170792
-8.01765e-05
3.90884e-06
0.00170899
-7.02228e-05
3.79153e-06
0.00170793
-6.29517e-05
3.84169e-06
0.00170681
-5.57727e-05
3.79283e-06
0.00170438
-5.0914e-05
3.79867e-06
0.00170198
-4.52419e-05
3.79962e-06
0.00169903
-4.20486e-05
3.77473e-06
0.00169479
-3.53315e-05
3.81634e-06
0.00169206
-3.56953e-05
3.7677e-06
0.0016779
-3.93609e-06
3.87687e-06
-1.88695e-05
3.8323e-06
0.00166104
0.00146121
-0.00033634
2.38005e-06
0.00154584
-0.000461274
3.06144e-06
0.0015999
-0.000371919
2.05393e-06
0.00162273
-0.000262034
2.74961e-06
0.0016323
-0.000195529
2.09812e-06
0.00163073
-0.000149282
2.55982e-06
0.00162605
-0.000119196
2.10876e-06
0.00161697
-9.75302e-05
2.40868e-06
0.00160791
-8.10779e-05
2.11538e-06
0.00159702
-6.93095e-05
2.3042e-06
0.00158713
-5.91521e-05
2.1262e-06
0.00157643
-5.20825e-05
2.23393e-06
0.00156694
-4.52224e-05
2.13913e-06
0.00155692
-4.0628e-05
2.18895e-06
0.00154837
-3.58018e-05
2.15568e-06
0.00153861
-3.20369e-05
2.16394e-06
0.00153259
-2.86473e-05
2.17584e-06
0.00152155
-2.45064e-05
2.15507e-06
0.00152259
-4.45536e-06
2.16418e-06
-2.01632e-05
2.19861e-06
0.00152384
0.00146692
-0.000417227
4.34583e-06
0.00154004
-0.000540745
4.95932e-06
0.00156256
-0.000397504
4.14632e-06
0.00154772
-0.00025313
4.67538e-06
0.00152265
-0.000173903
4.16313e-06
0.00149231
-0.000124536
4.48351e-06
0.00146453
-9.50523e-05
4.1407e-06
0.00143722
-7.54689e-05
4.33416e-06
0.00141385
-6.14516e-05
4.12601e-06
0.00139154
-5.19831e-05
4.23318e-06
0.00137254
-4.40088e-05
4.12063e-06
0.00135436
-3.87191e-05
4.16593e-06
0.00133871
-3.35708e-05
4.12084e-06
0.00132361
-3.02832e-05
4.12289e-06
0.00131027
-2.66493e-05
4.12674e-06
0.00129769
-2.42561e-05
4.09866e-06
0.0012849
-2.02876e-05
4.14305e-06
0.00127601
-2.04934e-05
4.08799e-06
0.00124958
1.72158e-05
4.20366e-06
6.44395e-06
4.15512e-06
0.00121786
0.0014868
-0.000511939
1.99219e-06
0.00148589
-0.000540191
2.65927e-06
0.00141583
-0.000324264
1.61335e-06
0.00133402
-0.00017125
2.35896e-06
0.001266
-0.000103187
1.6765e-06
0.00120998
-6.81474e-05
2.18002e-06
0.0011669
-4.94964e-05
1.68204e-06
0.0011302
-3.80689e-05
2.02435e-06
0.00110113
-3.00655e-05
1.68601e-06
0.00107508
-2.49911e-05
1.91543e-06
0.00105382
-2.05879e-05
1.69744e-06
0.00103405
-1.78672e-05
1.84168e-06
0.00101751
-1.50585e-05
1.71397e-06
0.00100171
-1.337e-05
1.79494e-06
0.000988423
-1.16179e-05
1.7369e-06
0.000975019
-9.77256e-06
1.76942e-06
0.000966058
-9.80235e-06
1.7656e-06
0.000951578
-4.98566e-06
1.75962e-06
0.000963785
6.43316e-06
1.76184e-06
-2.18316e-06
1.80012e-06
0.000973314
0.0013789
-0.000505443
4.76268e-06
0.0011934
-0.000361972
5.31308e-06
0.00102318
-0.000157841
4.47749e-06
0.000905549
-6.02868e-05
5.00808e-06
0.000830629
-3.2433e-05
4.50606e-06
0.000778072
-2.1886e-05
4.81893e-06
0.00074152
-1.72977e-05
4.4813e-06
0.000711618
-1.41555e-05
4.67051e-06
0.00068921
-1.21756e-05
4.46735e-06
0.000669108
-1.0681e-05
4.57151e-06
0.000653408
-9.58369e-06
4.46292e-06
0.000638597
-8.75002e-06
4.50596e-06
0.000626699
-8.05052e-06
4.46403e-06
0.000615168
-7.506e-06
4.46416e-06
0.000605521
-7.05637e-06
4.47013e-06
0.000596532
-6.4603e-06
4.44e-06
0.000587446
-5.99166e-06
4.48539e-06
0.00058349
-6.72137e-06
4.42542e-06
0.000545463
3.89415e-05
4.53446e-06
2.70504e-05
4.49142e-06
0.000510346
0.000889043
1.61919e-06
0.000528837
2.09436e-06
0.000376171
1.26553e-06
0.00031817
1.798e-06
0.000290486
1.30275e-06
0.000271211
1.60897e-06
0.000258423
1.2811e-06
0.000247137
1.45909e-06
0.000239268
1.26629e-06
0.000231619
1.36374e-06
0.000226149
1.26023e-06
0.000220522
1.30275e-06
0.000216404
1.25932e-06
0.000212063
1.26474e-06
0.000208769
1.26353e-06
0.000205483
1.24334e-06
0.000203096
1.27451e-06
0.00019954
1.23236e-06
0.000241971
1.28719e-06
1.2668e-06
0.000272065
0.00107556
0.00031434
-1.48391e-11
0.000783674
0.000293801
-1.49366e-11
0.000579366
0.00020538
-1.50549e-11
0.000471337
0.000109636
-1.53184e-11
0.000419954
5.25127e-05
-1.5462e-11
0.000395644
2.57687e-05
-1.52619e-11
0.000380838
1.59544e-05
-1.44303e-11
0.000370115
1.20621e-05
-1.34497e-11
0.000360613
1.06523e-05
-1.24387e-11
0.000352503
9.35462e-06
-1.18344e-11
0.000345106
8.53156e-06
-1.14737e-11
0.000338758
7.515e-06
-1.16634e-11
0.000333109
6.76318e-06
-1.20282e-11
0.000328119
6.10509e-06
-1.27003e-11
0.00032396
5.26891e-06
-1.32612e-11
0.000319745
5.30599e-06
-1.38282e-11
0.000317116
3.75464e-06
-1.4021e-11
0.000312649
5.55305e-06
-1.41728e-11
0.000314131
-3.24713e-07
-1.41065e-11
1.20241e-06
-1.35521e-11
0.000314038
0.00142544
0.000281935
-1.47304e-11
0.00138209
0.000342273
-1.4389e-11
0.00129301
0.000298731
-1.40995e-11
0.00120539
0.000202044
-1.44603e-11
0.00113214
0.000130041
-1.51105e-11
0.00107448
8.80567e-05
-1.57733e-11
0.0010279
6.68828e-05
-1.58292e-11
0.000989978
5.45713e-05
-1.56275e-11
0.000958056
4.7003e-05
-1.50054e-11
0.000931248
4.07214e-05
-1.43444e-11
0.000908212
3.6021e-05
-1.34311e-11
0.000888443
3.1764e-05
-1.27398e-11
0.000871262
2.83538e-05
-1.22925e-11
0.000856058
2.56857e-05
-1.24726e-11
0.00084297
2.27115e-05
-1.29631e-11
0.000830669
2.1911e-05
-1.38776e-11
0.000820719
1.8048e-05
-1.47131e-11
0.000810168
2.03846e-05
-1.54863e-11
0.000802258
1.19936e-05
-1.63861e-11
1.86859e-05