/*--------------------------------*- C++ -*----------------------------------*\
  =========                 |
  \\      /  F ield         | OpenFOAM: The Open Source CFD Toolbox
   \\    /   O peration     | Website:  https://openfoam.org
    \\  /    A nd           | Version:  7
     \\/     M anipulation  |
\*---------------------------------------------------------------------------*/
FoamFile
{
    version     2.0;
    format      ascii;
    class       surfaceScalarField;
    location    "3.15";
    object      phi;
}
// * * * * * * * * * * * * * * * * * * * * * * * * * * * * * * * * * * * * * //

dimensions      [1 0 -1 0 0 0 0];

internalField   nonuniform List<scalar> 
3438
(
0.0128015
0.00108073
0.0108059
0.00204255
0.00884159
0.00201101
0.00728939
0.00159873
0.00620731
0.00112837
0.00551352
0.000739781
0.00508224
0.000476922
0.00481478
0.00031274
0.00464401
0.000215724
0.00452643
0.000162162
0.00443774
0.000132744
0.00436482
0.000116454
0.00430085
0.000106986
0.00424262
0.000100672
0.00418874
9.56281e-05
0.00413866
9.11201e-05
0.00409206
8.68675e-05
0.00404864
8.27953e-05
0.00400823
7.88665e-05
0.0039706
7.51981e-05
0.00393559
7.15975e-05
0.00390271
6.83775e-05
0.00387204
6.5116e-05
0.00384288
6.25844e-05
0.00381591
5.93496e-05
0.0037892
5.80856e-05
0.00376756
5.19607e-05
0.00374133
5.52633e-05
0.00376846
7.74949e-07
6.65768e-05
0.00372879
0.014178
0.000781507
0.0145268
0.00173734
0.0145172
0.00206418
0.0142147
0.00194465
0.0137698
0.00161641
0.0133021
0.00125041
0.0128672
0.000954313
0.0124814
0.00074086
0.0121459
0.000593186
0.0118557
0.000493834
0.0116038
0.000425715
0.011384
0.000376783
0.0111908
0.000340332
0.0110196
0.000311421
0.010867
0.00028712
0.0107302
0.000266183
0.010607
0.000247608
0.0104952
0.000231293
0.0103935
0.000216373
0.0103002
0.000203526
0.0102148
0.000191104
0.010135
0.000181252
0.0100622
0.000170109
0.00999208
0.000163879
0.00993002
0.000151613
0.00986541
0.000151951
0.0098155
0.000130121
0.00974955
0.000148357
0.00969525
8.11349e-05
0.000168036
0.00961887
0.0140697
0.000584158
0.014568
0.00127647
0.0151143
0.00155523
0.0155552
0.001541
0.0158427
0.00136605
0.0159953
0.00113466
0.0160541
0.000932111
0.0160519
0.000779429
0.0160126
0.000668552
0.0159506
0.000591521
0.0158751
0.000536423
0.0157913
0.000495476
0.0157028
0.000463325
0.0156115
0.000436558
0.0155192
0.000412864
0.0154268
0.000391386
0.0153354
0.000371229
0.0152454
0.000352794
0.0151575
0.000334984
0.0150717
0.000319302
0.014989
0.000303078
0.0149083
0.000290384
0.0148317
0.000274416
0.0147561
0.000266283
0.0146862
0.00024754
0.0146148
0.000248396
0.0145514
0.000217784
0.0144841
0.000239017
0.0144133
0.000174535
0.000258612
0.0143443
0.0140031
0.000444473
0.0144149
0.000893293
0.0149209
0.00107795
0.0154172
0.00107323
0.0158428
0.000968932
0.0161781
0.000827776
0.0164385
0.000699907
0.0166425
0.00060342
0.0168048
0.000534004
0.0169385
0.000485307
0.0170513
0.000450728
0.0171479
0.000425596
0.0172315
0.00040611
0.0173039
0.000390169
0.0173662
0.000376063
0.0174195
0.000363165
0.0174647
0.000350671
0.0175024
0.000339188
0.0175333
0.000327556
0.017558
0.000317553
0.0175772
0.000306219
0.0175913
0.000298172
0.0176009
0.000285978
0.0176064
0.000281448
0.0176079
0.00026601
0.0176071
0.000268561
0.0175996
0.000243921
0.0175959
0.000260651
0.0175656
0.000222235
0.00027663
0.017564
0.0139858
0.000311435
0.0143634
0.000533605
0.0148323
0.000627035
0.0152966
0.000626932
0.0157063
0.000577154
0.0160446
0.000507306
0.0163194
0.000442997
0.016546
0.000394511
0.0167384
0.000359209
0.0169066
0.000334447
0.0170585
0.000315899
0.0171983
0.00030262
0.0173291
0.00029181
0.0174525
0.000283041
0.0175694
0.000275097
0.0176806
0.000267674
0.0177864
0.00026023
0.0178873
0.000253374
0.0179833
0.000246238
0.018075
0.000240247
0.0181621
0.000233125
0.0182457
0.000228333
0.0183245
0.000220532
0.018401
0.000217894
0.0184714
0.000208321
0.0185421
0.000210088
0.0186019
0.00019587
0.0186682
0.00020573
0.0187143
0.000186966
0.000215442
0.0187858
0.0139717
0.000180487
0.0143313
0.000179906
0.0147847
0.000179705
0.0152386
0.000179227
0.0156434
0.000178509
0.0159793
0.000177633
0.016252
0.000176483
0.0164775
0.000175247
0.016669
0.000173741
0.0168374
0.000172047
0.0169892
0.000169915
0.0171296
0.00016794
0.0172617
0.000165205
0.0173872
0.000162971
0.0175071
0.000160484
0.0176222
0.000157788
0.0177329
0.000154707
0.0178397
0.000151586
0.0179427
0.000148202
0.0180427
0.000145069
0.018139
0.000141532
0.0182334
0.000138568
0.0183237
0.00013485
0.0184136
0.000132521
0.0184978
0.000128498
0.0185841
0.000128124
0.0186608
0.000123182
0.0187436
0.000126842
0.018815
0.000119324
0.000129417
0.0189044
0.0139716
3.72714e-05
0.0143313
-0.000186038
0.0147846
-0.000279894
0.0152384
-0.000280724
0.0156432
-0.000232311
0.0159791
-0.000164174
0.0162517
-0.000102017
0.0164772
-5.59986e-05
0.0166687
-2.36718e-05
0.016837
-2.0454e-06
0.0169888
1.21334e-05
0.0171292
2.18023e-05
0.0172613
2.74747e-05
0.0173867
3.19888e-05
0.0175065
3.50796e-05
0.0176216
3.72205e-05
0.0177323
3.87226e-05
0.0178391
3.95e-05
0.0179421
4.01149e-05
0.018042
4.01019e-05
0.0181384
4.03778e-05
0.0182327
3.95889e-05
0.0183231
3.99279e-05
0.018413
3.83347e-05
0.0184973
4.00842e-05
0.0185837
3.77468e-05
0.0186605
4.24186e-05
0.0187432
4.04109e-05
0.0188146
4.42107e-05
3.72401e-05
0.0189033
0.0139856
-0.000131808
0.0143631
-0.0005817
0.0148319
-0.000766806
0.0152961
-0.000762896
0.0157057
-0.000659728
0.016044
-0.000520123
0.0163186
-0.000394183
0.0165451
-0.000299975
0.0167373
-0.000233178
0.0169055
-0.000187365
0.0170573
-0.000156332
0.0171971
-0.000134746
0.0173276
-0.000119672
0.0174509
-0.000107681
0.0175678
-9.79294e-05
0.0176789
-8.97394e-05
0.0177847
-8.25398e-05
0.0178855
-7.64706e-05
0.0179814
-7.06889e-05
0.0180731
-6.60704e-05
0.0181602
-6.0852e-05
0.018244
-5.78186e-05
0.0183229
-5.2255e-05
0.0183997
-5.13462e-05
0.0184704
-4.30873e-05
0.0185417
-4.55881e-05
0.0186025
-2.99248e-05
0.01867
-3.83162e-05
0.0187174
-1.39773e-05
-4.25646e-05
0.0187868
0.014003
-0.000328834
0.0144146
-0.00102198
0.0149203
-0.00130123
0.0154165
-0.00128765
0.0158419
-0.00111357
0.016177
-0.000883437
0.0164372
-0.000682471
0.0166411
-0.00053171
0.0168032
-0.000422982
0.0169367
-0.000348293
0.0170494
-0.000295975
0.0171459
-0.000257976
0.0172292
-0.000229203
0.0173014
-0.000205711
0.0173636
-0.000185637
0.0174168
-0.000167975
0.0174619
-0.000152152
0.0174995
-0.000138091
0.0175305
-0.000125149
0.0175552
-0.000113736
0.0175746
-0.000102674
0.0175889
-9.38234e-05
0.0175992
-8.36839e-05
0.0176053
-7.79318e-05
0.0176082
-6.5939e-05
0.0176088
-6.53537e-05
0.0176042
-4.39689e-05
0.0176029
-5.48302e-05
0.0175773
-5.66353e-06
-5.47208e-05
0.017573
0.0140693
-0.000600876
0.0145674
-0.00155744
0.0151135
-0.00188464
0.0155542
-0.00176554
0.0158414
-0.00143787
0.0159938
-0.00107272
0.0160524
-0.000777785
0.01605
-0.000565725
0.0160104
-0.000419572
0.0159482
-0.00032185
0.0158726
-0.000255678
0.0157886
-0.000208833
0.0156998
-0.000174685
0.0156084
-0.000148088
0.0155159
-0.000126359
0.0154234
-0.000108095
0.0153318
-9.25882e-05
0.0152418
-7.93691e-05
0.015154
-6.7943e-05
0.0150684
-5.80767e-05
0.014986
-4.94019e-05
0.0149059
-4.21836e-05
0.0148301
-3.5434e-05
0.014756
-3.06031e-05
0.0146878
-2.38035e-05
0.0146195
-2.22416e-05
0.0145601
-8.8501e-06
0.014499
-1.70994e-05
0.0144349
3.59541e-05
-1.36015e-05
0.0143723
0.0141776
-0.000987259
0.0145262
-0.00194936
0.0145163
-0.00191806
0.0142134
-0.00150604
0.0137682
-0.00103592
0.0133002
-0.00064779
0.0128652
-0.000385551
0.0124791
-0.000222109
0.0121433
-0.000125884
0.0118529
-7.31428e-05
0.0116008
-4.47373e-05
0.0113809
-2.95421e-05
0.0111874
-2.12336e-05
0.011016
-1.61174e-05
0.0108632
-1.23895e-05
0.0107263
-9.28245e-06
0.0106029
-6.58947e-06
0.0104912
-4.17291e-06
0.0103896
-2.01181e-06
0.0102966
1.89484e-08
0.0102114
1.76314e-06
0.0101326
3.39287e-06
0.0100604
4.58769e-06
0.00999256
5.92134e-06
0.00993157
6.78484e-06
0.00987202
7.88908e-06
0.00982406
1.07401e-05
0.00977018
9.52118e-06
0.0097222
5.77496e-05
1.98158e-06
0.00968121
0.012801
0.0108052
0.00884066
0.00728815
0.00620579
0.00551177
0.00508028
0.00481259
0.00464155
0.00452371
0.00443482
0.00436169
0.0042975
0.00423904
0.00418497
0.00413467
0.00408788
0.00404445
0.00400413
0.00396669
0.00393185
0.00389962
0.00386957
0.0038419
0.00381605
0.00379232
0.00377259
0.00375285
0.00378261
0.00375835
0.00362034
0.000198681
0.00355804
0.000133737
0.00348976
0.000124017
0.00344911
8.15211e-05
0.00341824
5.82933e-05
0.00339248
4.41727e-05
0.00337287
2.96515e-05
0.0033586
1.66764e-05
0.0033488
7.22896e-06
0.00334227
8.59422e-08
0.00333803
-5.25812e-06
0.00333514
-8.76576e-06
0.00333335
-1.0427e-05
0.00333202
-1.13862e-05
0.00333108
-1.13411e-05
0.00333027
-1.09264e-05
0.00332953
-1.01313e-05
0.00332884
-9.07159e-06
0.00332813
-7.99504e-06
0.00332741
-6.90157e-06
0.00332666
-5.81607e-06
0.00332597
-4.6856e-06
0.00332523
-3.83075e-06
0.00332449
-3.0444e-06
0.0033238
-2.29453e-06
0.00332309
-1.75564e-06
0.00332242
-1.30751e-06
0.00332174
-1.02412e-06
0.00332107
-7.46022e-07
0.0033204
-5.21085e-07
0.00331979
-2.64704e-07
0.00331918
-5.11852e-08
0.00331858
7.88855e-08
0.00331803
2.33802e-07
0.00331745
2.05797e-07
0.00331688
2.01199e-07
0.00331635
3.04745e-07
0.00331584
3.68193e-07
0.00331533
3.2384e-07
0.00331481
3.19025e-07
0.00331433
3.77717e-07
0.00331386
3.98639e-07
0.00331339
4.04225e-07
0.00331293
3.79683e-07
0.00331247
3.6086e-07
0.00331203
3.95357e-07
0.00331159
4.31346e-07
0.00331117
4.73839e-07
0.00331076
5.24918e-07
0.00331037
5.26735e-07
0.00330997
4.58938e-07
0.00330956
4.25595e-07
0.00330919
4.67046e-07
0.00330882
4.78898e-07
0.00330845
4.57162e-07
0.0033081
4.5679e-07
0.00330774
4.73846e-07
0.00330741
5.19609e-07
0.00330709
5.8363e-07
0.00330678
6.18135e-07
0.00330649
6.25521e-07
0.0033062
6.36429e-07
0.00330593
6.57389e-07
0.00330566
7.19074e-07
0.00330543
8.35868e-07
0.00330523
9.24583e-07
0.00330502
9.37673e-07
0.00330482
9.59801e-07
0.00330466
1.05027e-06
0.00330452
1.15313e-06
0.0033044
1.22097e-06
0.0033043
1.27337e-06
0.00330422
1.33404e-06
0.00330416
1.42517e-06
0.00330413
1.54956e-06
0.00330414
1.66132e-06
0.00330416
1.74192e-06
0.00330421
1.81592e-06
0.00330428
1.89232e-06
0.00330437
1.99154e-06
0.0033045
2.13767e-06
0.00330466
2.28773e-06
0.00330485
2.38635e-06
0.00330506
2.4656e-06
0.0033053
2.58295e-06
0.00330557
2.72333e-06
0.00330588
2.84668e-06
0.00330621
2.94841e-06
0.00330656
3.03955e-06
0.00330694
3.13636e-06
0.00330735
3.24937e-06
0.00330778
3.36901e-06
0.00330824
3.49104e-06
0.00330873
3.61488e-06
0.00330925
3.7196e-06
0.00330978
3.79985e-06
0.00331034
3.88643e-06
0.00331092
3.98758e-06
0.00331153
4.07287e-06
0.00331216
4.13271e-06
0.0033128
4.19223e-06
0.00331347
4.26547e-06
0.00331415
4.35082e-06
0.00331485
4.43761e-06
0.00331558
4.51156e-06
0.00331631
4.55578e-06
0.00331706
4.58712e-06
0.00331783
4.61118e-06
0.0033186
4.66278e-06
0.0033194
4.72195e-06
0.0033202
4.80859e-06
0.00332103
4.82979e-06
0.00332183
4.90008e-06
0.0033227
4.88654e-06
0.00332349
5.01605e-06
0.00332442
4.91468e-06
0.00332515
5.14227e-06
0.00332621
4.86395e-06
0.0033268
5.33832e-06
4.88948e-06
0.00931583
0.000586477
0.00913375
0.00038346
0.00898878
0.000321884
0.00888941
0.000219537
0.00881972
0.00015455
0.00876613
0.00011518
0.00872608
7.94361e-05
0.00869746
4.77287e-05
0.008678
2.43295e-05
0.00866508
6.97727e-06
0.00865648
-5.46243e-06
0.00865056
-1.37959e-05
0.00864657
-1.79442e-05
0.00864354
-2.03675e-05
0.00864116
-2.05785e-05
0.00863904
-1.99089e-05
0.00863703
-1.84185e-05
0.00863508
-1.63671e-05
0.00863311
-1.4263e-05
0.00863114
-1.2118e-05
0.00862913
-1.00059e-05
0.00862718
-7.80406e-06
0.00862521
-6.15261e-06
0.00862326
-4.6499e-06
0.00862138
-3.22167e-06
0.00861951
-2.20945e-06
0.00861772
-1.36646e-06
0.00861595
-8.38243e-07
0.00861422
-3.72715e-07
0.00861253
3.98752e-08
0.00861092
5.31757e-07
0.00860936
9.35813e-07
0.00860782
1.14559e-06
0.00860635
1.38669e-06
0.00860488
1.32638e-06
0.00860345
1.29278e-06
0.00860208
1.47033e-06
0.00860075
1.56954e-06
0.00859944
1.47025e-06
0.00859815
1.43279e-06
0.00859691
1.52558e-06
0.00859569
1.54942e-06
0.0085945
1.54493e-06
0.00859332
1.48167e-06
0.00859216
1.42952e-06
0.00859103
1.48111e-06
0.00858992
1.53628e-06
0.00858883
1.60477e-06
0.00858778
1.69073e-06
0.00858675
1.68131e-06
0.00858573
1.53617e-06
0.00858472
1.4576e-06
0.00858374
1.52462e-06
0.00858279
1.53347e-06
0.00858185
1.47596e-06
0.00858093
1.4593e-06
0.00858003
1.47578e-06
0.00857916
1.54749e-06
0.00857832
1.65433e-06
0.00857752
1.70293e-06
0.00857674
1.69759e-06
0.00857599
1.69789e-06
0.00857527
1.71633e-06
0.00857458
1.81246e-06
0.00857394
2.01464e-06
0.00857335
2.16084e-06
0.00857279
2.15796e-06
0.00857226
2.17109e-06
0.00857179
2.31637e-06
0.00857138
2.48497e-06
0.00857102
2.58427e-06
0.00857071
2.65237e-06
0.00857046
2.73534e-06
0.00857026
2.87653e-06
0.00857013
3.08158e-06
0.00857007
3.26111e-06
0.00857006
3.37893e-06
0.00857012
3.48324e-06
0.00857025
3.59178e-06
0.00857044
3.74443e-06
0.00857071
3.98853e-06
0.00857106
4.24049e-06
0.00857147
4.39215e-06
0.00857195
4.5058e-06
0.00857251
4.69373e-06
0.00857314
4.92676e-06
0.00857385
5.12678e-06
0.00857463
5.28496e-06
0.00857548
5.42301e-06
0.0085764
5.57287e-06
0.00857739
5.75524e-06
0.00857845
5.95144e-06
0.00857959
6.15323e-06
0.00858079
6.35958e-06
0.00858206
6.52961e-06
0.00858339
6.65277e-06
0.00858479
6.78913e-06
0.00858625
6.95504e-06
0.00858777
7.09108e-06
0.00858934
7.17886e-06
0.00859097
7.26723e-06
0.00859266
7.38409e-06
0.00859439
7.52548e-06
0.00859618
7.67169e-06
0.00859802
7.79308e-06
0.0085999
7.85928e-06
0.00860182
7.89925e-06
0.00860378
7.92953e-06
0.00860577
8.00944e-06
0.00860781
8.11301e-06
0.00860988
8.26012e-06
0.00861199
8.29762e-06
0.0086141
8.40763e-06
0.00861628
8.39084e-06
0.00861843
8.60255e-06
0.00862069
8.43859e-06
0.00862283
8.81269e-06
0.0086252
8.35293e-06
0.00862727
9.14388e-06
8.34373e-06
0.0138513
0.00115233
0.0135414
0.000752021
0.0133425
0.000567091
0.0132115
0.000384275
0.0131257
0.00026486
0.0130649
0.000191373
0.0130219
0.000131216
0.0129923
7.98306e-05
0.0129726
4.21116e-05
0.0129595
1.49862e-05
0.0129506
-3.97185e-06
0.0129443
-1.69199e-05
0.0129398
-2.339e-05
0.0129361
-2.71428e-05
0.012933
-2.75837e-05
0.01293
-2.66595e-05
0.0129271
-2.45383e-05
0.0129242
-2.15891e-05
0.0129213
-1.85738e-05
0.0129184
-1.54885e-05
0.0129155
-1.24858e-05
0.0129127
-9.36123e-06
0.0129098
-7.01951e-06
0.012907
-4.92224e-06
0.0129043
-2.93872e-06
0.0129017
-1.54673e-06
0.0128991
-3.81203e-07
0.0128965
3.35269e-07
0.0128941
9.09794e-07
0.0128917
1.45634e-06
0.0128894
2.14835e-06
0.0128872
2.68281e-06
0.012885
2.94087e-06
0.0128829
3.26064e-06
0.0128808
3.12388e-06
0.0128788
3.0514e-06
0.0128768
3.27801e-06
0.0128749
3.38135e-06
0.012873
3.20455e-06
0.0128712
3.12228e-06
0.0128694
3.23505e-06
0.0128676
3.24984e-06
0.0128659
3.22237e-06
0.0128642
3.11215e-06
0.0128626
3.01783e-06
0.0128609
3.07193e-06
0.0128593
3.13187e-06
0.0128578
3.21174e-06
0.0128563
3.31754e-06
0.0128548
3.288e-06
0.0128533
3.06472e-06
0.0128518
2.9361e-06
0.0128504
3.01524e-06
0.012849
3.01056e-06
0.0128477
2.9101e-06
0.0128463
2.86711e-06
0.012845
2.87051e-06
0.0128437
2.95204e-06
0.0128425
3.0833e-06
0.0128413
3.13069e-06
0.0128401
3.09989e-06
0.012839
3.07581e-06
0.0128379
3.07591e-06
0.0128369
3.18494e-06
0.0128359
3.44371e-06
0.012835
3.62083e-06
0.0128341
3.58298e-06
0.0128333
3.5661e-06
0.0128325
3.73677e-06
0.0128319
3.93971e-06
0.0128313
4.04245e-06
0.0128307
4.09927e-06
0.0128303
4.1758e-06
0.0128299
4.33398e-06
0.0128296
4.58211e-06
0.0128294
4.79244e-06
0.0128293
4.91333e-06
0.0128293
5.01405e-06
0.0128294
5.1202e-06
0.0128295
5.28895e-06
0.0128298
5.58832e-06
0.0128302
5.89913e-06
0.0128307
6.06656e-06
0.0128313
6.17936e-06
0.012832
6.3982e-06
0.0128328
6.68155e-06
0.0128337
6.9178e-06
0.0128348
7.09454e-06
0.0128359
7.24311e-06
0.0128371
7.40946e-06
0.0128385
7.62343e-06
0.0128399
7.85832e-06
0.0128415
8.1023e-06
0.0128432
8.35405e-06
0.0128449
8.55503e-06
0.0128468
8.69e-06
0.0128488
8.84477e-06
0.0128508
9.04308e-06
0.012853
9.19992e-06
0.0128552
9.2895e-06
0.0128575
9.38133e-06
0.01286
9.51623e-06
0.0128625
9.68713e-06
0.012865
9.86779e-06
0.0128677
1.00127e-05
0.0128704
1.00831e-05
0.0128732
1.01131e-05
0.0128761
1.01369e-05
0.012879
1.02235e-05
0.012882
1.03594e-05
0.012885
1.05381e-05
0.0128881
1.05933e-05
0.0128912
1.07068e-05
0.0128944
1.07102e-05
0.0128976
1.09379e-05
0.0129009
1.07842e-05
0.0129042
1.11689e-05
0.0129075
1.07141e-05
0.0129108
1.1532e-05
1.06427e-05
0.0173739
0.00139809
0.0170995
0.00107214
0.0169081
0.000794586
0.0167861
0.000533392
0.0167156
0.000355159
0.0166743
0.000244896
0.0166501
0.000162556
0.0166359
9.63453e-05
0.0166273
4.94901e-05
0.0166218
1.66279e-05
0.0166179
-5.72591e-06
0.0166146
-2.08504e-05
0.0166116
-2.81739e-05
0.0166086
-3.22917e-05
0.0166056
-3.25154e-05
0.0166025
-3.11458e-05
0.0165992
-2.83997e-05
0.016596
-2.46825e-05
0.0165927
-2.09284e-05
0.0165894
-1.70984e-05
0.0165861
-1.34209e-05
0.0165829
-9.58193e-06
0.0165797
-6.7255e-06
0.0165766
-4.19825e-06
0.0165736
-1.80175e-06
0.0165706
-1.47035e-07
0.0165678
1.2556e-06
0.016565
2.10676e-06
0.0165623
2.73775e-06
0.0165596
3.33494e-06
0.0165571
4.19506e-06
0.0165546
4.81354e-06
0.0165522
5.09934e-06
0.0165498
5.45435e-06
0.0165475
5.24027e-06
0.0165452
5.15331e-06
0.016543
5.36669e-06
0.0165408
5.46539e-06
0.0165387
5.22532e-06
0.0165366
5.09366e-06
0.0165346
5.21716e-06
0.0165326
5.21353e-06
0.0165306
5.157e-06
0.0165287
5.00025e-06
0.0165268
4.86336e-06
0.016525
4.91055e-06
0.0165231
4.96548e-06
0.0165213
5.04583e-06
0.0165196
5.15934e-06
0.0165178
5.10628e-06
0.0165161
4.81348e-06
0.0165145
4.63764e-06
0.0165128
4.71921e-06
0.0165112
4.69629e-06
0.0165096
4.55367e-06
0.0165081
4.4813e-06
0.0165065
4.46527e-06
0.016505
4.54514e-06
0.0165036
4.68613e-06
0.0165021
4.7226e-06
0.0165008
4.66119e-06
0.0164994
4.60682e-06
0.0164981
4.58067e-06
0.0164969
4.6874e-06
0.0164957
4.97779e-06
0.0164946
5.16515e-06
0.0164935
5.08372e-06
0.0164925
5.02599e-06
0.0164915
5.19911e-06
0.0164907
5.41091e-06
0.0164899
5.49711e-06
0.0164892
5.52491e-06
0.0164886
5.57545e-06
0.016488
5.72537e-06
0.0164876
5.98517e-06
0.0164873
6.19642e-06
0.0164871
6.2951e-06
0.016487
6.36746e-06
0.016487
6.44547e-06
0.0164871
6.60026e-06
0.0164873
6.91671e-06
0.0164877
7.24737e-06
0.0164882
7.40004e-06
0.0164888
7.48456e-06
0.0164896
7.70029e-06
0.0164904
7.99585e-06
0.0164915
8.2328e-06
0.0164926
8.39599e-06
0.0164939
8.52462e-06
0.0164953
8.67602e-06
0.0164969
8.88742e-06
0.0164986
9.12591e-06
0.0165004
9.37688e-06
0.0165024
9.63888e-06
0.0165045
9.83913e-06
0.0165067
9.95857e-06
0.016509
1.01035e-05
0.0165115
1.03038e-05
0.0165141
1.04538e-05
0.0165168
1.05221e-05
0.0165197
1.05948e-05
0.0165226
1.07233e-05
0.0165257
1.08977e-05
0.0165288
1.10873e-05
0.0165321
1.12326e-05
0.0165355
1.129e-05
0.0165389
1.12949e-05
0.0165425
1.12998e-05
0.0165461
1.13744e-05
0.0165498
1.15263e-05
0.0165536
1.17113e-05
0.0165575
1.17773e-05
0.0165614
1.18693e-05
0.0165654
1.18991e-05
0.0165695
1.20982e-05
0.0165736
1.19947e-05
0.0165778
1.2301e-05
0.0165819
1.19612e-05
0.0165863
1.2617e-05
1.18458e-05
0.0192253
0.000993058
0.0194209
0.000906028
0.0194953
0.000742898
0.0195094
0.00053713
0.0195158
0.000361854
0.0195306
0.000237987
0.0195493
0.00014862
0.0195661
8.11758e-05
0.0195788
3.61884e-05
0.0195868
6.07118e-06
0.0195909
-1.36338e-05
0.0195921
-2.6662e-05
0.0195913
-3.24044e-05
0.0195893
-3.55508e-05
0.0195867
-3.50247e-05
0.0195837
-3.31074e-05
0.0195806
-2.98919e-05
0.0195775
-2.57049e-05
0.0195744
-2.15554e-05
0.0195714
-1.732e-05
0.0195686
-1.3283e-05
0.0195659
-9.05819e-06
0.0195632
-5.92009e-06
0.0195606
-3.14741e-06
0.0195582
-5.16389e-07
0.0195558
1.28372e-06
0.0195534
2.83042e-06
0.0195511
3.77103e-06
0.0195489
4.42234e-06
0.0195467
5.04763e-06
0.0195446
6.01123e-06
0.0195425
6.68146e-06
0.0195405
6.98005e-06
0.0195385
7.36691e-06
0.0195365
7.09489e-06
0.0195346
6.96838e-06
0.0195327
7.19952e-06
0.0195308
7.28324e-06
0.019529
7.01142e-06
0.0195272
6.84412e-06
0.0195254
6.97233e-06
0.0195237
6.9521e-06
0.019522
6.87343e-06
0.0195203
6.6841e-06
0.0195186
6.51724e-06
0.0195169
6.55807e-06
0.0195153
6.6074e-06
0.0195137
6.6854e-06
0.0195121
6.80125e-06
0.0195105
6.72971e-06
0.019509
6.38729e-06
0.0195075
6.17668e-06
0.019506
6.25709e-06
0.0195045
6.21895e-06
0.0195031
6.04457e-06
0.0195017
5.94861e-06
0.0195003
5.91498e-06
0.0194989
5.98853e-06
0.0194975
6.13036e-06
0.0194962
6.15327e-06
0.0194949
6.06452e-06
0.0194937
5.98261e-06
0.0194925
5.93103e-06
0.0194913
6.02776e-06
0.0194902
6.3304e-06
0.0194891
6.51479e-06
0.0194881
6.39276e-06
0.0194872
6.29489e-06
0.0194863
6.4561e-06
0.0194854
6.65931e-06
0.0194847
6.71874e-06
0.019484
6.7104e-06
0.0194834
6.72594e-06
0.019483
6.85201e-06
0.0194826
7.10065e-06
0.0194823
7.29247e-06
0.0194821
7.3549e-06
0.019482
7.38576e-06
0.0194821
7.42132e-06
0.0194822
7.54225e-06
0.0194825
7.84525e-06
0.0194829
8.16391e-06
0.0194835
8.28062e-06
0.0194842
8.31954e-06
0.019485
8.50654e-06
0.019486
8.78347e-06
0.0194871
8.99359e-06
0.0194884
9.11986e-06
0.0194898
9.20692e-06
0.0194913
9.31994e-06
0.0194931
9.50153e-06
0.0194949
9.71445e-06
0.0194969
9.94237e-06
0.0194991
1.0184e-05
0.0195015
1.0357e-05
0.0195039
1.04395e-05
0.0195066
1.05519e-05
0.0195093
1.07281e-05
0.0195123
1.08485e-05
0.0195153
1.08778e-05
0.0195185
1.09134e-05
0.0195218
1.10145e-05
0.0195253
1.11687e-05
0.0195289
1.1343e-05
0.0195326
1.1468e-05
0.0195364
1.14974e-05
0.0195404
1.14663e-05
0.0195444
1.14415e-05
0.0195486
1.14898e-05
0.0195529
1.16383e-05
0.0195572
1.18093e-05
0.0195617
1.18734e-05
0.0195662
1.19284e-05
0.0195708
1.19784e-05
0.0195756
1.21221e-05
0.0195803
1.20813e-05
0.0195852
1.22626e-05
0.01959
1.20829e-05
0.0195951
1.24658e-05
1.19703e-05
0.0195836
0.000325105
0.0201528
0.000347615
0.0206495
0.000254299
0.0210115
0.000181906
0.0212474
0.000131368
0.0213961
9.2483e-05
0.0214842
6.23948e-05
0.0215323
3.39021e-05
0.0215555
1.27338e-05
0.0215641
-3.58878e-06
0.0215646
-1.56855e-05
0.021561
-2.47869e-05
0.0215558
-2.8937e-05
0.0215502
-3.18731e-05
0.021545
-3.16866e-05
0.0215405
-3.03824e-05
0.0215367
-2.77953e-05
0.0215335
-2.41363e-05
0.021531
-2.04173e-05
0.021529
-1.64682e-05
0.0215274
-1.26506e-05
0.021526
-8.51076e-06
0.0215249
-5.43559e-06
0.0215239
-2.66179e-06
0.0215229
6.87039e-09
0.021522
1.83118e-06
0.0215212
3.43661e-06
0.0215203
4.41141e-06
0.0215195
5.10834e-06
0.0215186
5.75434e-06
0.0215178
6.78743e-06
0.0215169
7.49711e-06
0.0215161
7.82557e-06
0.0215152
8.25823e-06
0.0215143
7.97531e-06
0.0215134
7.86442e-06
0.0215125
8.12467e-06
0.0215116
8.20883e-06
0.0215106
7.93869e-06
0.0215097
7.76506e-06
0.0215088
7.90355e-06
0.0215079
7.88421e-06
0.021507
7.80385e-06
0.0215061
7.60908e-06
0.0215052
7.43735e-06
0.0215043
7.48233e-06
0.0215034
7.53491e-06
0.0215024
7.61635e-06
0.0215015
7.73671e-06
0.0215006
7.66022e-06
0.0214998
7.29865e-06
0.0214989
7.07461e-06
0.021498
7.15594e-06
0.0214972
7.11227e-06
0.0214964
6.92454e-06
0.0214955
6.81797e-06
0.0214947
6.77523e-06
0.0214939
6.84333e-06
0.0214931
6.98174e-06
0.0214923
6.99395e-06
0.0214915
6.88755e-06
0.0214908
6.78704e-06
0.0214901
6.71689e-06
0.0214895
6.80087e-06
0.0214888
7.0997e-06
0.0214883
7.27271e-06
0.0214877
7.12126e-06
0.0214872
6.99247e-06
0.0214867
7.13371e-06
0.0214863
7.31691e-06
0.021486
7.34686e-06
0.0214857
7.30376e-06
0.0214855
7.28393e-06
0.0214854
7.37841e-06
0.0214854
7.60013e-06
0.0214855
7.76025e-06
0.0214857
7.78225e-06
0.0214859
7.76904e-06
0.0214863
7.75866e-06
0.0214867
7.83612e-06
0.0214873
8.10374e-06
0.021488
8.38687e-06
0.0214888
8.45662e-06
0.0214898
8.44372e-06
0.0214909
8.58616e-06
0.0214922
8.82275e-06
0.0214936
8.9884e-06
0.0214951
9.06528e-06
0.0214968
9.10048e-06
0.0214986
9.16272e-06
0.0215005
9.29696e-06
0.0215027
9.46436e-06
0.0215049
9.64821e-06
0.0215074
9.84747e-06
0.02151
9.97555e-06
0.0215127
1.00093e-05
0.0215156
1.00756e-05
0.0215187
1.02102e-05
0.0215218
1.02869e-05
0.0215252
1.02688e-05
0.0215287
1.02587e-05
0.0215323
1.03187e-05
0.021536
1.04365e-05
0.0215399
1.05769e-05
0.021544
1.06677e-05
0.0215481
1.06597e-05
0.0215524
1.05899e-05
0.0215569
1.05292e-05
0.0215614
1.05451e-05
0.021566
1.06727e-05
0.0215708
1.08162e-05
0.0215756
1.08663e-05
0.0215805
1.08778e-05
0.0215855
1.09388e-05
0.0215907
1.10121e-05
0.0215958
1.10345e-05
0.0216012
1.10718e-05
0.0216064
1.1061e-05
0.0216121
1.11207e-05
1.10002e-05
0.0195831
-0.000367773
0.0201537
-0.000231747
0.0206521
-0.000250813
0.0210142
-0.000184392
0.0212519
-0.000108894
0.0214035
-6.0902e-05
0.0214953
-3.04351e-05
0.0215472
-1.78871e-05
0.0215739
-1.34204e-05
0.0215857
-1.4616e-05
0.0215892
-1.80933e-05
0.0215885
-2.2503e-05
0.021586
-2.47326e-05
0.0215829
-2.71505e-05
0.0215801
-2.7264e-05
0.0215779
-2.66333e-05
0.0215763
-2.4817e-05
0.0215753
-2.19198e-05
0.0215749
-1.8864e-05
0.0215748
-1.54609e-05
0.0215751
-1.20941e-05
0.0215757
-8.31487e-06
0.0215763
-5.50481e-06
0.0215771
-2.88342e-06
0.0215779
-3.31113e-07
0.0215786
1.42038e-06
0.0215794
2.99597e-06
0.0215801
3.96431e-06
0.0215807
4.67157e-06
0.0215813
5.32479e-06
0.0215819
6.38384e-06
0.0215825
7.10545e-06
0.021583
7.4657e-06
0.0215834
7.92435e-06
0.0215838
7.68054e-06
0.0215842
7.6199e-06
0.0215845
7.89886e-06
0.0215848
7.98622e-06
0.021585
7.74251e-06
0.0215853
7.58939e-06
0.0215855
7.74099e-06
0.0215857
7.7379e-06
0.0215859
7.67383e-06
0.021586
7.49862e-06
0.0215862
7.34486e-06
0.0215863
7.40107e-06
0.0215864
7.46277e-06
0.0215865
7.5509e-06
0.0215865
7.67561e-06
0.0215866
7.60696e-06
0.0215867
7.25836e-06
0.0215867
7.04321e-06
0.0215868
7.12611e-06
0.0215869
7.08571e-06
0.0215869
6.90304e-06
0.021587
6.7982e-06
0.021587
6.75383e-06
0.0215871
6.81593e-06
0.0215871
6.94501e-06
0.0215872
6.94893e-06
0.0215873
6.83521e-06
0.0215874
6.72585e-06
0.0215876
6.64465e-06
0.0215877
6.71274e-06
0.0215879
6.98967e-06
0.0215882
7.1417e-06
0.0215884
6.97364e-06
0.0215887
6.82533e-06
0.021589
6.93942e-06
0.0215893
7.09251e-06
0.0215897
7.09349e-06
0.0215902
7.02118e-06
0.0215908
6.9701e-06
0.0215914
7.02965e-06
0.0215921
7.2125e-06
0.0215928
7.33343e-06
0.0215937
7.31727e-06
0.0215946
7.26488e-06
0.0215956
7.21345e-06
0.0215966
7.24652e-06
0.0215978
7.46491e-06
0.0215991
7.69767e-06
0.0216005
7.72038e-06
0.021602
7.66155e-06
0.0216037
7.75487e-06
0.0216054
7.94021e-06
0.0216073
8.05552e-06
0.0216093
8.08342e-06
0.0216114
8.07008e-06
0.0216137
8.08301e-06
0.021616
8.16663e-06
0.0216185
8.28301e-06
0.0216212
8.41605e-06
0.021624
8.56507e-06
0.0216269
8.64524e-06
0.0216299
8.6338e-06
0.0216331
8.65534e-06
0.0216365
8.74479e-06
0.0216399
8.77853e-06
0.0216435
8.71994e-06
0.0216472
8.67038e-06
0.021651
8.69058e-06
0.021655
8.76898e-06
0.0216591
8.87104e-06
0.0216633
8.92628e-06
0.0216676
8.88632e-06
0.021672
8.78703e-06
0.0216766
8.69918e-06
0.0216812
8.68561e-06
0.021686
8.78787e-06
0.0216908
8.89772e-06
0.0216957
8.93448e-06
0.0217008
8.90418e-06
0.0217059
8.97621e-06
0.0217111
8.97515e-06
0.0217163
9.06507e-06
0.0217217
8.95236e-06
0.021727
9.12436e-06
0.0217327
8.842e-06
9.13003e-06
0.0192278
-0.000843924
0.01943
-0.000461619
0.0195147
-0.000356649
0.0195332
-0.000217795
0.0195434
-0.000129526
0.0195639
-8.82285e-05
0.0195901
-6.04381e-05
0.0196158
-4.42596e-05
0.0196375
-3.38775e-05
0.0196545
-2.89859e-05
0.0196673
-2.70922e-05
0.0196768
-2.72515e-05
0.0196839
-2.68566e-05
0.0196894
-2.74861e-05
0.0196937
-2.6625e-05
0.0196974
-2.5563e-05
0.0197006
-2.36683e-05
0.0197036
-2.09368e-05
0.0197064
-1.81336e-05
0.019709
-1.50378e-05
0.0197116
-1.20157e-05
0.0197141
-8.61698e-06
0.0197166
-6.09885e-06
0.0197189
-3.69959e-06
0.0197212
-1.35826e-06
0.0197234
2.43719e-07
0.0197255
1.70572e-06
0.0197276
2.58252e-06
0.0197296
3.27278e-06
0.0197315
3.92241e-06
0.0197334
4.91516e-06
0.0197353
5.60121e-06
0.019737
5.96913e-06
0.0197388
6.42092e-06
0.0197404
6.23277e-06
0.019742
6.21466e-06
0.0197436
6.47906e-06
0.0197451
6.56998e-06
0.0197466
6.36936e-06
0.019748
6.25302e-06
0.0197495
6.4118e-06
0.0197508
6.43095e-06
0.0197522
6.3927e-06
0.0197535
6.25389e-06
0.0197548
6.13326e-06
0.0197561
6.20075e-06
0.0197573
6.27143e-06
0.0197585
6.36454e-06
0.0197597
6.48958e-06
0.0197608
6.43886e-06
0.019762
6.13374e-06
0.0197631
5.94852e-06
0.0197643
6.03222e-06
0.0197654
6.00297e-06
0.0197665
5.84336e-06
0.0197676
5.75261e-06
0.0197687
5.71488e-06
0.0197697
5.77193e-06
0.0197708
5.88819e-06
0.0197719
5.88979e-06
0.0197729
5.78369e-06
0.019774
5.68039e-06
0.0197752
5.60123e-06
0.0197763
5.65588e-06
0.0197774
5.8983e-06
0.0197786
6.02592e-06
0.0197797
5.86152e-06
0.0197809
5.71329e-06
0.0197821
5.80156e-06
0.0197834
5.92371e-06
0.0197846
5.90661e-06
0.019786
5.82207e-06
0.0197874
5.75576e-06
0.0197888
5.78863e-06
0.0197903
5.9322e-06
0.0197918
6.01834e-06
0.0197934
5.97885e-06
0.019795
5.90536e-06
0.0197967
5.83158e-06
0.0197985
5.83356e-06
0.0198003
6.00323e-06
0.0198022
6.18547e-06
0.0198042
6.17663e-06
0.0198063
6.09354e-06
0.0198085
6.14846e-06
0.0198108
6.28662e-06
0.0198132
6.36083e-06
0.0198156
6.3555e-06
0.0198181
6.31266e-06
0.0198208
6.29362e-06
0.0198235
6.33887e-06
0.0198263
6.41426e-06
0.0198293
6.50537e-06
0.0198323
6.61171e-06
0.0198355
6.65616e-06
0.0198387
6.61805e-06
0.0198421
6.61051e-06
0.0198455
6.66539e-06
0.0198491
6.67019e-06
0.0198527
6.59193e-06
0.0198565
6.52244e-06
0.0198603
6.5175e-06
0.0198642
6.56595e-06
0.0198683
6.63782e-06
0.0198724
6.66721e-06
0.0198766
6.61297e-06
0.0198809
6.50309e-06
0.0198853
6.4087e-06
0.0198897
6.37623e-06
0.0198943
6.45973e-06
0.0198989
6.53571e-06
0.0199035
6.56969e-06
0.0199083
6.50706e-06
0.0199131
6.5958e-06
0.019918
6.52877e-06
0.0199228
6.68805e-06
0.0199279
6.43975e-06
0.0199328
6.7951e-06
0.0199381
6.20638e-06
6.83932e-06
0.017386
-0.000712057
0.017135
-0.000255213
0.0169594
-0.000215567
0.0168445
-0.000128021
0.0167791
-8.18849e-05
0.0167454
-6.58929e-05
0.0167305
-5.19142e-05
0.0167267
-4.22115e-05
0.0167292
-3.4765e-05
0.0167349
-3.06239e-05
0.0167419
-2.80637e-05
0.0167493
-2.71402e-05
0.0167564
-2.61285e-05
0.016763
-2.59235e-05
0.0167689
-2.46576e-05
0.0167743
-2.3392e-05
0.0167792
-2.15477e-05
0.0167837
-1.91019e-05
0.0167879
-1.66352e-05