/*--------------------------------*- C++ -*----------------------------------*\
  =========                 |
  \\      /  F ield         | OpenFOAM: The Open Source CFD Toolbox
   \\    /   O peration     | Website:  https://openfoam.org
    \\  /    A nd           | Version:  7
     \\/     M anipulation  |
\*---------------------------------------------------------------------------*/
FoamFile
{
    version     2.0;
    format      ascii;
    class       volScalarField;
    location    "0.245";
    object      rho;
}
// * * * * * * * * * * * * * * * * * * * * * * * * * * * * * * * * * * * * * //

dimensions      [1 -3 0 0 0 0 0];

internalField   nonuniform List<scalar> 
13200
(
1.21071
1.21034
1.21079
1.2108
1.21104
1.21091
1.21105
1.2109
1.21096
1.2108
1.21083
1.21071
1.21075
1.21067
1.2107
1.21066
1.21066
1.21067
1.21056
1.21081
1.21105
1.21103
1.21221
1.21272
1.2133
1.21318
1.21342
1.21319
1.21321
1.21286
1.21279
1.21251
1.21248
1.21234
1.21232
1.21231
1.21221
1.21238
1.21193
1.21294
1.21147
1.21171
1.21367
1.21499
1.21623
1.21626
1.2167
1.21649
1.21656
1.21601
1.21573
1.21513
1.2149
1.21459
1.21447
1.21444
1.2142
1.21457
1.21376
1.21517
1.21133
1.21151
1.2136
1.21542
1.21712
1.21742
1.21791
1.21787
1.21813
1.21769
1.21726
1.21641
1.21581
1.21525
1.21489
1.2148
1.21446
1.21479
1.21409
1.21504
1.21148
1.21164
1.21374
1.21571
1.2177
1.21815
1.21865
1.21867
1.21911
1.21891
1.21858
1.21762
1.21678
1.21594
1.21538
1.21509
1.21478
1.21487
1.2145
1.21487
1.21136
1.21145
1.21351
1.21551
1.21758
1.2181
1.21857
1.21858
1.2191
1.21908
1.21889
1.21795
1.21701
1.21597
1.21529
1.21481
1.21453
1.21444
1.21426
1.21431
1.21144
1.21159
1.21368
1.2157
1.2178
1.21833
1.21878
1.21877
1.21934
1.21941
1.21931
1.2184
1.21743
1.21629
1.21554
1.21496
1.21469
1.2145
1.21441
1.21434
1.21136
1.2115
1.21361
1.21564
1.21772
1.21823
1.21867
1.21865
1.21923
1.21933
1.21928
1.21838
1.2174
1.21622
1.21545
1.21482
1.21455
1.21432
1.21426
1.21414
1.2114
1.21157
1.21372
1.21576
1.21783
1.21833
1.21876
1.21875
1.21933
1.21944
1.21939
1.2185
1.21753
1.21633
1.21556
1.2149
1.21463
1.21439
1.21433
1.21422
1.21137
1.21155
1.21371
1.21574
1.2178
1.21829
1.21872
1.21871
1.21929
1.2194
1.21936
1.21846
1.21749
1.21629
1.21552
1.21486
1.21459
1.21434
1.21428
1.21418
1.21137
1.21155
1.21371
1.21574
1.2178
1.21829
1.21872
1.21871
1.21929
1.2194
1.21936
1.21846
1.21749
1.21629
1.21552
1.21486
1.21459
1.21434
1.21428
1.21418
1.2114
1.21157
1.21372
1.21576
1.21783
1.21833
1.21876
1.21875
1.21933
1.21944
1.21939
1.2185
1.21753
1.21633
1.21556
1.2149
1.21464
1.21439
1.21433
1.21423
1.21136
1.2115
1.21361
1.21564
1.21772
1.21823
1.21867
1.21865
1.21923
1.21933
1.21928
1.21837
1.21741
1.21622
1.21546
1.21481
1.21456
1.21432
1.21425
1.21416
1.21144
1.21159
1.21368
1.2157
1.2178
1.21833
1.21878
1.21877
1.21934
1.2194
1.21932
1.21839
1.21744
1.21628
1.21556
1.21494
1.21471
1.21447
1.21442
1.21434
1.21136
1.21145
1.21351
1.21551
1.21758
1.2181
1.21857
1.21858
1.2191
1.21908
1.2189
1.21794
1.21703
1.21594
1.21532
1.21476
1.21459
1.21437
1.21432
1.21426
1.21148
1.21164
1.21374
1.21571
1.2177
1.21815
1.21865
1.21867
1.21911
1.2189
1.21859
1.2176
1.21681
1.21589
1.21545
1.215
1.2149
1.21472
1.21467
1.21469
1.21133
1.21151
1.2136
1.21542
1.21712
1.21742
1.21791
1.21787
1.21813
1.21768
1.21727
1.21639
1.21584
1.2152
1.21497
1.21467
1.21465
1.21452
1.21445
1.2146
1.21147
1.21171
1.21367
1.21499
1.21623
1.21626
1.2167
1.21649
1.21656
1.21601
1.21573
1.21512
1.21492
1.21455
1.21453
1.21433
1.21439
1.21426
1.21424
1.21444
1.21105
1.21103
1.21221
1.21272
1.2133
1.21318
1.21342
1.21319
1.21322
1.21286
1.21279
1.2125
1.21248
1.21232
1.21235
1.21226
1.2123
1.21222
1.21223
1.21232
1.21071
1.21034
1.21079
1.2108
1.21104
1.21091
1.21105
1.2109
1.21096
1.2108
1.21084
1.21071
1.21075
1.21066
1.21071
1.21064
1.21068
1.21063
1.21065
1.21064
1.20921
1.20969
1.21015
1.21084
1.21082
1.21104
1.21086
1.21092
1.21068
1.21066
1.21047
1.21049
1.21038
1.21045
1.21036
1.21047
1.21033
1.21057
1.21014
1.2113
1.20937
1.21007
1.21137
1.21307
1.21357
1.21401
1.21387
1.2139
1.21346
1.21318
1.21269
1.2125
1.21223
1.21226
1.21209
1.2123
1.21196
1.21257
1.21155
1.21353
1.20902
1.20963
1.21103
1.21327
1.21417
1.21484
1.21481
1.21501
1.2146
1.2142
1.21339
1.21289
1.21231
1.2122
1.21187
1.21213
1.21169
1.21237
1.21138
1.21292
1.20921
1.20982
1.2113
1.21369
1.21481
1.21554
1.2156
1.21594
1.21575
1.21542
1.2145
1.21372
1.21284
1.21248
1.21201
1.21213
1.21177
1.21221
1.21168
1.21242
1.20902
1.2096
1.21104
1.21348
1.21464
1.21537
1.21542
1.21584
1.21582
1.21565
1.21474
1.21383
1.21274
1.21216
1.21158
1.21154
1.21127
1.21148
1.21126
1.21153
1.20915
1.20982
1.2113
1.21376
1.21491
1.21564
1.21567
1.21611
1.2162
1.21614
1.2153
1.21434
1.21316
1.21242
1.21178
1.21161
1.2114
1.21147
1.21142
1.21147
1.20904
1.20966
1.21116
1.21362
1.21476
1.21547
1.21549
1.21594
1.21606
1.21605
1.21525
1.21428
1.21306
1.21225
1.21159
1.21135
1.21116
1.21117
1.21117
1.21115
1.20912
1.20979
1.21131
1.21378
1.21491
1.21561
1.21563
1.21609
1.21622
1.21623
1.21545
1.21447
1.21325
1.2124
1.21173
1.21147
1.21129
1.21127
1.21129
1.21126
1.20907
1.20971
1.21124
1.21371
1.21483
1.21552
1.21554
1.216
1.21614
1.21615
1.21536
1.21438
1.21316
1.21231
1.21164
1.21136
1.21119
1.21117
1.21119
1.21116
1.20909
1.20976
1.21129
1.21376
1.21487
1.21557
1.21559
1.21605
1.21619
1.21619
1.21541
1.21443
1.21321
1.21236
1.21169
1.21141
1.21123
1.21121
1.21123
1.21121
1.20909
1.20976
1.21129
1.21376
1.21487
1.21557
1.21559
1.21605
1.21619
1.21619
1.21541
1.21443
1.21321
1.21236
1.21169
1.21141
1.21123
1.21121
1.21123
1.21122
1.20907
1.20971
1.21124
1.21371
1.21483
1.21552
1.21554
1.216
1.21614
1.21615
1.21537
1.21438
1.21317
1.21231
1.21164
1.21136
1.21119
1.21117
1.21118
1.21117
1.20912
1.20979
1.21131
1.21378
1.21491
1.21561
1.21563
1.21609
1.21622
1.21623
1.21545
1.21447
1.21325
1.2124
1.21174
1.21146
1.21129
1.21127
1.21129
1.21128
1.20904
1.20966
1.21116
1.21362
1.21476
1.21547
1.21549
1.21594
1.21606
1.21605
1.21526
1.21427
1.21307
1.21224
1.2116
1.21133
1.21118
1.21116
1.21118
1.21116
1.20915
1.20982
1.2113
1.21376
1.21491
1.21564
1.21567
1.21611
1.2162
1.21614
1.2153
1.21433
1.21317
1.21239
1.21181
1.21157
1.21145
1.21142
1.21146
1.21144
1.20902
1.2096
1.21104
1.21348
1.21464
1.21537
1.21542
1.21584
1.21582
1.21564
1.21475
1.21382
1.21277
1.21211
1.21164
1.21146
1.21137
1.21136
1.21139
1.21138
1.20921
1.20982
1.2113
1.21369
1.21481
1.21554
1.2156
1.21594
1.21575
1.21542
1.21451
1.2137
1.21287
1.21242
1.2121
1.212
1.21196
1.21196
1.21199
1.21204
1.20902
1.20963
1.21103
1.21327
1.21417
1.21484
1.21481
1.21501
1.2146
1.2142
1.21339
1.21288
1.21234
1.21214
1.21197
1.21196
1.21195
1.21197
1.21196
1.21212
1.20937
1.21007
1.21137
1.21307
1.21357
1.21401
1.21387
1.2139
1.21346
1.21318
1.21269
1.21249
1.21225
1.21222
1.21216
1.21218
1.21219
1.21218
1.21221
1.21239
1.20921
1.20969
1.21015
1.21084
1.21082
1.21104
1.21086
1.21092
1.21068
1.21066
1.21047
1.21049
1.21039
1.21043
1.21039
1.21043
1.21041
1.21043
1.21044
1.21052
1.20932
1.21014
1.21156
1.21255
1.21293
1.21301
1.21292
1.21274
1.21252
1.21233
1.21217
1.21209
1.21202
1.21203
1.21193
1.21209
1.21175
1.21237
1.21102
1.21412
1.2092
1.20983
1.21187
1.21394
1.21507
1.21556
1.21575
1.21567
1.21523
1.21458
1.21388
1.21339
1.21296
1.21296
1.21258
1.21304
1.21227
1.21341
1.21169
1.21425
1.20919
1.20965
1.21168
1.21397
1.21531
1.21585
1.21617
1.21643
1.21634
1.21575
1.21477
1.21383
1.21296
1.21259
1.21211
1.21228
1.21185
1.21235
1.21171
1.21252
1.20918
1.20964
1.21169
1.214
1.21533
1.21584
1.21616
1.21653
1.21663
1.21617
1.21519
1.21408
1.21307
1.21245
1.21199
1.21191
1.21172
1.21183
1.2117
1.21182
1.20917
1.20964
1.21172
1.21402
1.21533
1.21582
1.21614
1.21653
1.21668
1.21626
1.2153
1.21414
1.2131
1.2124
1.21195
1.21178
1.21166
1.21166
1.21165
1.21163
1.20917
1.20965
1.21176
1.21406
1.21535
1.21583
1.21616
1.21655
1.2167
1.2163
1.21534
1.21418
1.21313
1.2124
1.21196
1.21176
1.21167
1.21164
1.21165
1.21162
1.20917
1.20966
1.21177
1.21406
1.21535
1.21583
1.21615
1.21655
1.2167
1.21629
1.21534
1.21417
1.21313
1.21239
1.21195
1.21174
1.21165
1.21162
1.21162
1.21161
1.20916
1.20966
1.21178
1.21408
1.21536
1.21584
1.21617
1.21656
1.21671
1.21629
1.21534
1.21418
1.21313
1.21239
1.21196
1.21175
1.21166
1.21163
1.21162
1.21163
1.20916
1.20966
1.21179
1.21408
1.21536
1.21584
1.21617
1.21656
1.2167
1.21628
1.21533
1.21417
1.21313
1.21239
1.21195
1.21174
1.21165
1.21163
1.21161
1.21162
1.20916
1.20967
1.21179
1.21409
1.21536
1.21584
1.21617
1.21657
1.2167
1.21628
1.21533
1.21417
1.21313
1.21239
1.21195
1.21174
1.21165
1.21163
1.21162
1.21163
1.20916
1.20967
1.21179
1.21409
1.21536
1.21584
1.21617
1.21657
1.2167
1.21628
1.21533
1.21417
1.21313
1.21239
1.21195
1.21174
1.21165
1.21163
1.21162
1.21163
1.20916
1.20966
1.21179
1.21408
1.21536
1.21584
1.21617
1.21656
1.2167
1.21628
1.21533
1.21417
1.21313
1.21239
1.21195
1.21174
1.21165
1.21163
1.21161
1.21163
1.20916
1.20966
1.21178
1.21408
1.21536
1.21584
1.21617
1.21656
1.21671
1.21629
1.21534
1.21418
1.21313
1.21239
1.21196
1.21175
1.21166
1.21163
1.21162
1.21164
1.20917
1.20966
1.21177
1.21406
1.21535
1.21583
1.21615
1.21655
1.2167
1.21629
1.21534
1.21417
1.21313
1.21239
1.21195
1.21174
1.21165
1.21163
1.21161
1.21163
1.20917
1.20965
1.21176
1.21406
1.21535
1.21583
1.21616
1.21655
1.21671
1.2163
1.21534
1.21418
1.21314
1.2124
1.21197
1.21175
1.21167
1.21164
1.21164
1.21164
1.20917
1.20964
1.21172
1.21402
1.21533
1.21582
1.21614
1.21653
1.21668
1.21626
1.2153
1.21414
1.21311
1.21238
1.21197
1.21175
1.21169
1.21165
1.21165
1.21164
1.20918
1.20964
1.21169
1.214
1.21533
1.21584
1.21616
1.21653
1.21663
1.21617
1.2152
1.21406
1.21309
1.21241
1.21204
1.21184
1.2118
1.21174
1.21178
1.21174
1.20919
1.20965
1.21168
1.21397
1.21531
1.21585
1.21617
1.21643
1.21634
1.21574
1.21479
1.21379
1.21301
1.21249
1.21225
1.21209
1.2121
1.21203
1.21208
1.21206
1.2092
1.20983
1.21187
1.21394
1.21507
1.21556
1.21575
1.21567
1.21524
1.21458
1.21389
1.21336
1.21302
1.21284
1.21278
1.21272
1.21276
1.2127
1.21271
1.21284
1.20932
1.21014
1.21156
1.21255
1.21293
1.21301
1.21292
1.21274
1.21252
1.21233
1.21218
1.21208
1.21203
1.212
1.21199
1.21197
1.21198
1.21193
1.21196
1.21204
1.20932
1.21014
1.21156
1.21255
1.21293
1.21301
1.21292
1.21274
1.21252
1.21233
1.21217
1.21209
1.21202
1.21203
1.21193
1.21209
1.21175
1.21237
1.21102
1.21412
1.2092
1.20983
1.21187
1.21394
1.21507
1.21556
1.21575
1.21567
1.21523
1.21458
1.21388
1.21339
1.21296
1.21296
1.21258
1.21304
1.21227
1.21341
1.21169
1.21425
1.20919
1.20965
1.21168
1.21397
1.21531
1.21585
1.21617
1.21643
1.21633
1.21575
1.21477
1.21383
1.21295
1.21259
1.21211
1.21228
1.21185
1.21235
1.21171
1.21252
1.20918
1.20964
1.21169
1.214
1.21533
1.21584
1.21616
1.21653
1.21663
1.21617
1.21519
1.21408
1.21307
1.21245
1.21199
1.21191
1.21172
1.21183
1.2117
1.21182
1.20917
1.20964
1.21172
1.21402
1.21533
1.21582
1.21614
1.21653
1.21668
1.21626
1.2153
1.21414
1.2131
1.21239
1.21195
1.21178
1.21166
1.21166
1.21165
1.21163
1.20917
1.20965
1.21176
1.21406
1.21535
1.21583
1.21616
1.21655
1.2167
1.2163
1.21534
1.21418
1.21313
1.2124
1.21196
1.21176
1.21167
1.21164
1.21165
1.21162
1.20917
1.20966
1.21177
1.21406
1.21535
1.21583
1.21615
1.21655
1.2167
1.21629
1.21534
1.21417
1.21313
1.21239
1.21195
1.21174
1.21165
1.21162
1.21162
1.21161
1.20916
1.20966
1.21178
1.21408
1.21536
1.21584
1.21617
1.21656
1.21671
1.21629
1.21534
1.21418
1.21313
1.21239
1.21196
1.21175
1.21166
1.21163
1.21162
1.21163
1.20916
1.20966
1.21179
1.21408
1.21536
1.21584
1.21617
1.21656
1.2167
1.21628
1.21533
1.21417
1.21313
1.21239
1.21195
1.21174
1.21165
1.21163
1.21161
1.21162
1.20916
1.20967
1.21179
1.21409
1.21536
1.21584
1.21617
1.21657
1.2167
1.21628
1.21533
1.21417
1.21313
1.21239
1.21195
1.21174
1.21165
1.21163
1.21162
1.21163
1.20916
1.20967
1.21179
1.21409
1.21536
1.21584
1.21617
1.21657
1.2167
1.21628
1.21533
1.21417
1.21313
1.21239
1.21195
1.21174
1.21165
1.21163
1.21162
1.21163
1.20916
1.20966
1.21179
1.21408
1.21536
1.21584
1.21617
1.21656
1.2167
1.21628
1.21533
1.21417
1.21313
1.21239
1.21195
1.21174
1.21165
1.21163
1.21161
1.21163
1.20916
1.20966
1.21178
1.21408
1.21536
1.21584
1.21617
1.21656
1.21671
1.21629
1.21534
1.21418
1.21313
1.21239
1.21196
1.21175
1.21166
1.21163
1.21162
1.21164
1.20917
1.20966
1.21177
1.21406
1.21535
1.21583
1.21615
1.21655
1.2167
1.21629
1.21534
1.21417
1.21313
1.21239
1.21195
1.21174
1.21165
1.21163
1.21161
1.21163
1.20917
1.20965
1.21176
1.21406
1.21535
1.21583
1.21616
1.21655
1.21671
1.2163
1.21534
1.21418
1.21314
1.2124
1.21197
1.21175
1.21167
1.21164
1.21164
1.21164
1.20917
1.20964
1.21172
1.21402
1.21533
1.21582
1.21614
1.21653
1.21668
1.21626
1.2153
1.21414
1.21311
1.21238
1.21197
1.21175
1.21169
1.21165
1.21165
1.21164
1.20918
1.20964
1.21169
1.214
1.21533
1.21584
1.21616
1.21653
1.21663
1.21617
1.2152
1.21406
1.21309
1.21241
1.21204
1.21184
1.2118
1.21174
1.21178
1.21174
1.20919
1.20965
1.21168
1.21397
1.21531
1.21585
1.21617
1.21643
1.21634
1.21574
1.21479
1.21379
1.21301
1.21249
1.21225
1.21209
1.2121
1.21203
1.21208
1.21206
1.2092
1.20983
1.21187
1.21394
1.21507
1.21556
1.21575
1.21567
1.21524
1.21458
1.21389
1.21336
1.21302
1.21284
1.21278
1.21272
1.21276
1.2127
1.21271
1.21284
1.20932
1.21014
1.21156
1.21255
1.21293
1.21301
1.21292
1.21274
1.21252
1.21233
1.21218
1.21208
1.21203
1.212
1.21199
1.21197
1.21198
1.21193
1.21196
1.21204
1.20921
1.20969
1.21015
1.21084
1.21082
1.21104
1.21086
1.21092
1.21068
1.21066
1.21047
1.21049
1.21038
1.21045
1.21036
1.21047
1.21033
1.21057
1.21014
1.2113
1.20937
1.21007
1.21137
1.21307
1.21357
1.21401
1.21387
1.2139
1.21346
1.21318
1.21269
1.2125
1.21223
1.21226
1.21209
1.2123
1.21196
1.21256
1.21155
1.21353
1.20902
1.20963
1.21103
1.21327
1.21417
1.21484
1.21481
1.21501
1.2146
1.2142
1.21339
1.21289
1.21231
1.2122
1.21187
1.21213
1.21168
1.21237
1.21138
1.21292
1.20921
1.20982
1.2113
1.21369
1.21481
1.21554
1.2156
1.21594
1.21575
1.21542
1.2145
1.21372
1.21284
1.21247
1.21201
1.21213
1.21177
1.21221
1.21168
1.21242
1.20902
1.2096
1.21104
1.21348
1.21464
1.21537
1.21542
1.21584
1.21582
1.21565
1.21474
1.21383
1.21274
1.21216
1.21158
1.21154
1.21127
1.21148
1.21126
1.21153
1.20915
1.20982
1.2113
1.21376
1.21491
1.21564
1.21567
1.21611
1.2162
1.21614
1.2153
1.21434
1.21315
1.21242
1.21178
1.21161
1.2114
1.21147
1.21142
1.21147
1.20904
1.20966
1.21116
1.21362
1.21476
1.21547
1.21549
1.21594
1.21606
1.21605
1.21525
1.21428
1.21306
1.21225
1.21159
1.21135
1.21116
1.21117
1.21117
1.21115
1.20912
1.20979
1.21131
1.21378
1.21491
1.21561
1.21563
1.21609
1.21622
1.21623
1.21545
1.21447
1.21325
1.2124
1.21173
1.21147
1.21129
1.21127
1.21129
1.21126
1.20907
1.20971
1.21124
1.21371
1.21483
1.21552
1.21554
1.216
1.21614
1.21615
1.21536
1.21438
1.21316
1.21231
1.21164
1.21136
1.21119
1.21117
1.21119
1.21116
1.20909
1.20976
1.21129
1.21376
1.21487
1.21557
1.21559
1.21605
1.21619
1.21619
1.21541
1.21443
1.21321
1.21236
1.21169
1.21141
1.21123
1.21121
1.21123
1.21121
1.20909
1.20976
1.21129
1.21376
1.21487
1.21557
1.21559
1.21605
1.21619
1.21619
1.21541
1.21443
1.21321
1.21236
1.21169
1.21141
1.21123
1.21121
1.21123
1.21122
1.20907
1.20971
1.21124
1.21371
1.21483
1.21552
1.21554
1.216
1.21614
1.21615
1.21537
1.21438
1.21317
1.21231
1.21164
1.21136
1.21119
1.21117
1.21118
1.21117
1.20912
1.20979
1.21131
1.21378
1.21491
1.21561
1.21563
1.21609
1.21622
1.21623
1.21545
1.21447
1.21325
1.2124
1.21174
1.21146
1.21129
1.21127
1.21129
1.21128
1.20904
1.20966
1.21116
1.21362
1.21476
1.21547
1.21549
1.21594
1.21606
1.21605
1.21526
1.21427
1.21307
1.21224
1.2116
1.21133
1.21118
1.21116
1.21118
1.21116
1.20915
1.20982
1.2113
1.21376
1.21491
1.21564
1.21567
1.21611
1.2162
1.21614
1.2153
1.21433
1.21317
1.21239
1.21181
1.21157
1.21145
1.21142
1.21146
1.21144
1.20902
1.2096
1.21104
1.21348
1.21464
1.21537
1.21542
1.21584
1.21582
1.21564
1.21475
1.21382
1.21277
1.21212
1.21164
1.21146
1.21137
1.21136
1.21139
1.21138
1.20921
1.20982
1.2113
1.21369
1.21481
1.21554
1.2156
1.21594
1.21575
1.21542
1.21451
1.2137
1.21287
1.21242
1.2121
1.212
1.21197
1.21196
1.21199
1.21204
1.20902
1.20963
1.21103
1.21327
1.21417
1.21484
1.21481
1.21501
1.2146
1.2142
1.2134
1.21288
1.21234
1.21214
1.21197
1.21196
1.21195
1.21197
1.21196
1.21213
1.20937
1.21007
1.21137
1.21307
1.21357
1.21401
1.21387
1.2139
1.21346
1.21318
1.21269
1.21249
1.21225
1.21222
1.21216
1.21218
1.21219
1.21218
1.21221
1.21239
1.20921
1.20969
1.21015
1.21084
1.21082
1.21104
1.21086
1.21092
1.21068
1.21066
1.21047
1.21049
1.21039
1.21043
1.21039
1.21043
1.21041
1.21043
1.21044
1.21052
1.21071
1.21034
1.21079
1.2108
1.21104
1.21091
1.21105
1.2109
1.21096
1.2108
1.21083
1.21071
1.21075
1.21067
1.2107
1.21066
1.21066
1.21067
1.21056
1.21081
1.21105
1.21103
1.21221
1.21272
1.2133
1.21318
1.21342
1.21319
1.21322
1.21286
1.21279
1.21251
1.21248
1.21234
1.21233
1.21231
1.21221
1.21239
1.21193
1.21294
1.21147
1.21171
1.21367
1.21499
1.21623
1.21626
1.2167
1.21649
1.21656
1.21601
1.21573
1.21513
1.2149
1.21459
1.21447
1.21444
1.2142
1.21457
1.21376
1.21517
1.21133
1.21151
1.2136
1.21542
1.21712
1.21742
1.21791
1.21787
1.21813
1.21769
1.21727
1.21641
1.21581
1.21525
1.21489
1.2148
1.21446
1.21479
1.21409
1.21504
1.21148
1.21164
1.21374
1.21571
1.2177
1.21815
1.21865
1.21867
1.21911
1.21891
1.21858
1.21762
1.21678
1.21594
1.21538
1.21509
1.21478
1.21487
1.2145
1.21487
1.21136
1.21145
1.21351
1.21551
1.21758
1.2181
1.21857
1.21858
1.2191
1.21908
1.21889
1.21795
1.21701
1.21597
1.21529
1.21481
1.21453
1.21444
1.21426
1.21431
1.21144
1.21159
1.21368
1.2157
1.2178
1.21833
1.21878
1.21877
1.21934
1.21941
1.21931
1.2184
1.21743
1.21629
1.21554
1.21496
1.21469
1.2145
1.21441
1.21434
1.21136
1.2115
1.21361
1.21564
1.21772
1.21823
1.21867
1.21865
1.21923
1.21933
1.21928
1.21838
1.2174
1.21622
1.21545
1.21482
1.21455
1.21432
1.21426
1.21414
1.2114
1.21157
1.21373
1.21576
1.21783
1.21833
1.21876
1.21875
1.21933
1.21944
1.21939
1.2185
1.21753
1.21633
1.21556
1.2149
1.21463
1.21439
1.21433
1.21422
1.21137
1.21155
1.21371
1.21574
1.2178
1.21829
1.21872
1.21871
1.21929
1.2194
1.21936
1.21846
1.21749
1.21629
1.21552
1.21486
1.21459
1.21434
1.21428
1.21418
1.21137
1.21155
1.21371
1.21574
1.2178
1.21829
1.21872
1.21871
1.21929
1.2194
1.21936
1.21846
1.21749
1.21629
1.21552
1.21486
1.21459
1.21434
1.21428
1.21418
1.2114
1.21157
1.21373
1.21576
1.21783
1.21833
1.21876
1.21875
1.21933
1.21944
1.21939
1.2185
1.21753
1.21633
1.21556
1.2149
1.21464
1.21439
1.21433
1.21423
1.21136
1.2115
1.21361
1.21564
1.21772
1.21823
1.21867
1.21865
1.21923
1.21933
1.21928
1.21837
1.21741
1.21622
1.21546
1.21481
1.21456
1.21432
1.21425
1.21416
1.21144
1.21159
1.21368
1.2157
1.2178
1.21833
1.21878
1.21877
1.21934
1.2194
1.21932
1.21839
1.21744
1.21628
1.21556
1.21494
1.21471
1.21447
1.21442
1.21434
1.21136
1.21145
1.21351
1.21551
1.21758
1.2181
1.21857
1.21858
1.2191
1.21908
1.2189
1.21794
1.21703
1.21594
1.21532
1.21476
1.21459
1.21437
1.21432
1.21426
1.21148
1.21164
1.21374
1.21571
1.2177
1.21815
1.21865
1.21867
1.21911
1.2189
1.21859
1.2176
1.21681
1.21589
1.21545
1.215
1.2149
1.21472
1.21467
1.21469
1.21133
1.21151
1.2136
1.21542
1.21712
1.21742
1.21791
1.21787
1.21813
1.21768
1.21727
1.21639
1.21584
1.2152
1.21497
1.21467
1.21465
1.21452
1.21445
1.2146
1.21147
1.21171
1.21367
1.21499
1.21623
1.21626
1.2167
1.21649
1.21656
1.21601
1.21573
1.21512
1.21492
1.21455
1.21453
1.21433
1.21439
1.21426
1.21424
1.21444
1.21105
1.21103
1.21221
1.21272
1.2133
1.21318
1.21342
1.21319
1.21322
1.21286
1.21279
1.2125
1.21248
1.21232
1.21235
1.21226
1.2123
1.21222
1.21223
1.21232
1.21071
1.21034
1.21079
1.2108
1.21104
1.21091
1.21105
1.2109
1.21096
1.2108
1.21084
1.21071
1.21075
1.21066
1.21071
1.21064
1.21068
1.21063
1.21065
1.21064
1.20324
1.19655
1.19472
1.19416
1.19419
1.19403
1.19409
1.19395
1.194
1.19386
1.19387
1.19374
1.19375
1.19368
1.19374
1.19371
1.19376
1.1937
1.19369
1.19359
1.19359
1.19357
1.19365
1.19369
1.19378
1.19378
1.19381
1.19375
1.19374
1.1937
1.19373
1.19375
1.19386
1.19395
1.19408
1.19412
1.19416
1.19412
1.1941
1.19406
1.19409
1.19414
1.19428
1.19441
1.1946
1.19473
1.19486
1.19491
1.19492
1.19487
1.19485
1.19484
1.19491
1.19502
1.19521
1.19545
1.19574
1.19602
1.19628
1.19648
1.19663
1.19672
1.19677
1.19678
1.1968
1.19684
1.19696
1.19714
1.19742
1.1978
1.19828
1.19886
1.19952
1.20025
1.20102
1.20183
1.20265
1.20344
1.20422
1.20495
1.20564
1.20626
1.20682
1.20731
1.20772
1.20811
1.20841
1.2087
1.20889
1.20916
1.20548
1.19884
1.19693
1.19633
1.19635
1.19619
1.19625
1.19612
1.19616
1.19602
1.19603
1.1959
1.19591
1.19584
1.1959
1.19587
1.19592
1.19586
1.19585
1.19575
1.19575
1.19573
1.19581
1.19585
1.19594
1.19594
1.19597
1.19591
1.1959
1.19586
1.19589
1.19591
1.19602
1.19611
1.19623
1.19628
1.19632
1.19628
1.19625
1.19621
1.19624
1.1963
1.19643
1.19657
1.19675
1.19689
1.19702
1.19706
1.19707
1.19703
1.197
1.19699
1.19706
1.19717
1.19736
1.1976
1.19789
1.19817
1.19843
1.19863
1.19878
1.19886
1.19891
1.19892
1.19894
1.19898
1.1991
1.19928
1.19956
1.19993
1.20042
1.201
1.20166
1.20239
1.20316
1.20397
1.20479
1.20559
1.20636
1.2071
1.20779
1.20841
1.20897
1.20946
1.20988
1.21027
1.21057
1.21086
1.21105
1.21132
1.20923
1.20298
1.20094
1.20023
1.20023
1.20005
1.20011
1.19997
1.2
1.19987
1.19987
1.19974
1.19975
1.19967
1.19973
1.1997
1.19975
1.19968
1.19967
1.19957
1.19957
1.19955
1.19963
1.19967
1.19976
1.19975
1.19978
1.19972
1.19971
1.19967
1.1997
1.19972
1.19983
1.19991
1.20004
1.20009
1.20013
1.20008
1.20006
1.20002
1.20005
1.2001
1.20023
1.20037
1.20055
1.20069
1.20082
1.20086
1.20087
1.20083
1.2008
1.20079
1.20086
1.20097
1.20116
1.2014
1.20169
1.20197
1.20223
1.20243
1.20258
1.20266
1.20271
1.20272
1.20274
1.20278
1.2029
1.20308
1.20336
1.20374
1.20423
1.2048
1.20547
1.2062
1.20697
1.20778
1.2086
1.2094
1.21018
1.21092
1.21161
1.21223
1.21279
1.21328
1.2137
1.21409
1.2144
1.21469
1.21488
1.21515
1.21173
1.20655
1.20446
1.20365
1.2036
1.20342
1.20347
1.20333
1.20336
1.20323
1.20323
1.2031
1.20311
1.20303
1.20308
1.20305
1.20311
1.20304
1.20303
1.20293
1.20293
1.2029
1.20298
1.20302
1.20311
1.2031
1.20313
1.20307
1.20306
1.20301
1.20304
1.20306
1.20317
1.20326
1.20338
1.20343
1.20347
1.20342
1.2034
1.20335
1.20338
1.20343
1.20357
1.2037
1.20388
1.20402
1.20415
1.20419
1.2042
1.20415
1.20413
1.20411
1.20418
1.20429
1.20448
1.20471
1.20501
1.20528
1.20555
1.20574
1.2059
1.20598
1.20603
1.20604
1.20605
1.20609
1.20621
1.20639
1.20667
1.20705
1.20754
1.20811
1.20879
1.20951
1.21029
1.2111
1.21193
1.21273
1.21351
1.21425
1.21494
1.21557
1.21613
1.21662
1.21704
1.21744
1.21774
1.21803
1.21823
1.2185
1.21351
1.20972
1.20786
1.20697
1.20687
1.20666
1.20671
1.20656
1.20659
1.20645
1.20645
1.20631
1.20631
1.20623
1.20629
1.20625
1.2063
1.20623
1.20622
1.20612
1.20612
1.20609
1.20617
1.2062
1.20629
1.20628
1.20631
1.20624
1.20623
1.20619
1.20622
1.20624
1.20634
1.20643
1.20655
1.2066
1.20663
1.20659
1.20656
1.20651
1.20654
1.20659
1.20673
1.20686
1.20704
1.20718
1.20731
1.20735
1.20736
1.20731
1.20729
1.20727
1.20734
1.20744
1.20764
1.20787
1.20816
1.20844
1.20871
1.2089
1.20906
1.20914
1.20919
1.2092
1.20922
1.20926
1.20937
1.20955
1.20983
1.21021
1.2107
1.21128
1.21195
1.21268
1.21346
1.21427
1.2151
1.2159
1.21668
1.21742
1.21811
1.21874
1.2193
1.2198
1.22022
1.22061
1.22092
1.22121
1.22141
1.22167
1.21387
1.21133
1.20984
1.20898
1.20884
1.20864
1.20867
1.20853
1.20855
1.20841
1.20841
1.20828
1.20828
1.2082
1.20825
1.20822
1.20827
1.2082
1.20819
1.20809
1.20809
1.20806
1.20814
1.20817
1.20826
1.20826
1.20828
1.20822
1.20821
1.20816
1.20819
1.20821
1.20832
1.2084
1.20852
1.20857
1.20861
1.20856
1.20853
1.20849
1.20852
1.20857
1.2087
1.20884
1.20902
1.20915
1.20928
1.20932
1.20933
1.20928
1.20926
1.20924
1.20931
1.20941
1.20961
1.20984
1.21014
1.21041
1.21068
1.21087
1.21103
1.21111
1.21116
1.21117
1.21118
1.21122
1.21134
1.21152
1.2118
1.21218
1.21267
1.21325
1.21392
1.21465
1.21543
1.21625
1.21708
1.21788
1.21866
1.21941
1.2201
1.22073
1.22129
1.22179
1.22221
1.22261
1.22291
1.2232
1.2234
1.22366
1.21423
1.21253
1.21148
1.21068
1.21055
1.21032
1.21035
1.21019
1.21022
1.21007
1.21007
1.20993
1.20993
1.20985
1.2099
1.20987
1.20992
1.20984
1.20983
1.20973
1.20973
1.2097
1.20978
1.20981
1.2099
1.2099
1.20992
1.20986
1.20984
1.2098
1.20983
1.20985
1.20995
1.21004
1.21016
1.21021
1.21025
1.2102
1.21017
1.21013
1.21015
1.21021
1.21034
1.21048
1.21066
1.21079
1.21092
1.21096
1.21097
1.21092
1.2109
1.21089
1.21095
1.21106
1.21125
1.21149
1.21178
1.21206
1.21232
1.21252
1.21268
1.21276
1.21281
1.21282
1.21283
1.21288
1.21299
1.21317
1.21345
1.21383
1.21432
1.2149
1.21558
1.21631
1.21709
1.2179
1.21873
1.21953
1.22032
1.22106
1.22175
1.22238
1.22295
1.22344
1.22387
1.22426
1.22456
1.22486
1.22506
1.22532
1.21411
1.21294
1.21223
1.21154
1.21143
1.2112
1.21122
1.21107
1.21109
1.21095
1.21094
1.21081
1.21081
1.21073
1.21078
1.21075
1.2108
1.21073
1.21071
1.21062
1.21061
1.21059
1.21067
1.2107
1.21079
1.21079
1.21081
1.21075
1.21074
1.21069
1.21072
1.21074
1.21085
1.21093
1.21106
1.21111
1.21114
1.2111
1.21107
1.21102
1.21105
1.2111
1.21124
1.21138
1.21156
1.21169
1.21182
1.21186
1.21188
1.21182
1.2118
1.21179
1.21185
1.21196
1.21215
1.21239
1.21268
1.21296
1.21323
1.21342
1.21358
1.21366
1.21371
1.21372
1.21374
1.21378
1.21389
1.21407
1.21435
1.21473
1.21522
1.2158
1.21648
1.21721
1.21799
1.21881
1.21964
1.22044
1.22123
1.22197
1.22267
1.2233
1.22386
1.22436
1.22478
1.22518
1.22548
1.22578
1.22597
1.22623
1.21416
1.21329
1.21286
1.21228
1.2122
1.21196
1.21198
1.21182
1.21184
1.21169
1.21168
1.21154
1.21154
1.21146
1.21151
1.21147
1.21152
1.21145
1.21144
1.21133
1.21133
1.2113
1.21139
1.21142
1.21151
1.2115
1.21153
1.21147
1.21145
1.21141
1.21144
1.21146
1.21157
1.21165
1.21178
1.21182
1.21186
1.21181
1.21179
1.21174
1.21177
1.21182
1.21196
1.21209
1.21228
1.21241
1.21254
1.21258
1.2126
1.21255
1.21252
1.21251
1.21257
1.21268
1.21288
1.21311
1.21341
1.21369
1.21395
1.21415
1.2143
1.21438
1.21443
1.21444
1.21446
1.2145
1.21462
1.2148
1.21508
1.21546
1.21595
1.21653
1.21721
1.21794
1.21872
1.21954
1.22036
1.22117
1.22195
1.2227
1.22339
1.22402
1.22459
1.22508
1.2255
1.2259
1.2262
1.2265
1.2267
1.22696
1.21408
1.21337
1.21313
1.21265
1.2126
1.21236
1.21238
1.21221
1.21224
1.21208
1.21207
1.21193
1.21193
1.21184
1.21189
1.21185
1.2119
1.21183
1.21182
1.21172
1.21172
1.2117
1.21178
1.21181
1.2119
1.2119
1.21192
1.21186
1.21185
1.2118
1.21183
1.21186
1.21196
1.21205
1.21217
1.21222
1.21226
1.21221
1.21219
1.21214
1.21217
1.21222
1.21235
1.21249
1.21267
1.21281
1.21294
1.21298
1.21299
1.21294
1.21292
1.2129
1.21297
1.21307
1.21327
1.2135
1.2138
1.21408
1.21434
1.21454
1.21469
1.21477
1.21482
1.21483
1.21485
1.21489
1.215
1.21518
1.21546
1.21585
1.21634
1.21692
1.21759
1.21832
1.21911
1.21992
1.22075
1.22156
1.22234
1.22309
1.22378
1.22441
1.22498
1.22547
1.2259
1.2263
1.22659
1.22689
1.22709
1.22734
1.21406
1.21344
1.21333
1.21292
1.2129
1.21267
1.2127
1.21253
1.21255
1.2124
1.21239
1.21224
1.21224
1.21215
1.2122
1.21217
1.21222
1.21215
1.21213
1.21203
1.21203
1.21201
1.21209
1.21212
1.21221
1.21221
1.21223
1.21217
1.21216
1.21211
1.21214
1.21216
1.21227
1.21235
1.21248
1.21252
1.21256
1.21251
1.21249
1.21244
1.21247
1.21252
1.21265
1.21279
1.21297
1.21311
1.21323
1.21328
1.21329
1.21323
1.21321
1.2132
1.21326
1.21337
1.21356
1.21379
1.21409
1.21437
1.21463
1.21482
1.21498
1.21506
1.21511
1.21512
1.21513
1.21517
1.21529
1.21546
1.21575
1.21613
1.21662
1.2172
1.21787
1.2186
1.21938
1.2202
1.22103
1.22183
1.22262
1.22336
1.22405
1.22468
1.22525
1.22574
1.22616
1.22656
1.22686
1.22715
1.22735
1.2276
1.2141
1.21354
1.21352
1.21318
1.21318
1.21296
1.21299
1.21283
1.21285
1.2127
1.21269
1.21255
1.21255
1.21246
1.21251
1.21247
1.21252
1.21245
1.21243
1.21233
1.21233
1.2123
1.21238
1.21241
1.2125
1.21249
1.21251
1.21245
1.21244
1.21239
1.21242
1.21244
1.21255
1.21263
1.21275
1.2128
1.21283
1.21278
1.21276
1.21271
1.21274
1.21278
1.21292
1.21305
1.21323
1.21337
1.21349
1.21353
1.21354
1.21349
1.21346
1.21345
1.21351
1.21362
1.21381
1.21404
1.21433
1.21461
1.21487
1.21507
1.21522
1.2153
1.21535
1.21536
1.21537
1.21541
1.21552
1.2157
1.21598
1.21636
1.21685
1.21742
1.2181
1.21882
1.21961
1.22042
1.22124
1.22205
1.22283
1.22357
1.22426
1.22489
1.22545
1.22595
1.22636
1.22676
1.22706
1.22735
1.22755
1.2278
1.21402
1.21352
1.21356
1.21327
1.21329
1.21309
1.21312
1.21297
1.21299
1.21285
1.21284
1.21271
1.21271
1.21263
1.21268
1.21264
1.21269
1.21262
1.21261
1.2125
1.2125
1.21247
1.21255
1.21258
1.21267
1.21266
1.21268
1.21262
1.2126
1.21255
1.21258
1.2126
1.2127
1.21278
1.21291
1.21295
1.21298
1.21293
1.2129
1.21285
1.21288
1.21293
1.21306
1.21319
1.21337
1.2135
1.21362
1.21366
1.21367
1.21362
1.21359
1.21357
1.21363
1.21373
1.21393
1.21416
1.21444
1.21472
1.21498
1.21517
1.21532
1.2154
1.21544
1.21545
1.21546
1.2155
1.21561
1.21578
1.21606
1.21644
1.21692
1.2175
1.21817
1.2189
1.21968
1.22049
1.22131
1.22211
1.22289
1.22364
1.22432
1.22495
1.22551
1.226
1.22642
1.22681
1.22711
1.2274
1.22759
1.22784
1.21417
1.21373
1.21383
1.21359
1.21362
1.21343
1.21346
1.21332
1.21334
1.2132
1.21319
1.21305
1.21305
1.21297
1.21302
1.21298
1.21303
1.21295
1.21294
1.21283
1.21283
1.2128
1.21287
1.2129
1.21299
1.21298
1.21299
1.21293
1.21291
1.21286
1.21289
1.2129
1.21301
1.21308
1.2132
1.21324
1.21328
1.21322
1.21319
1.21314
1.21316
1.21321
1.21334
1.21347
1.21364
1.21378
1.21389
1.21393
1.21394
1.21388
1.21385
1.21383
1.21389
1.21399
1.21418
1.21441
1.21469
1.21497
1.21522
1.21541
1.21556
1.21564
1.21568
1.21568
1.21569
1.21573
1.21584
1.21601
1.21628
1.21666
1.21714
1.21771
1.21838
1.2191
1.21988
1.22069
1.22151
1.22231
1.22309
1.22382
1.22451
1.22513
1.22569
1.22618
1.2266
1.22699
1.22728
1.22757
1.22776
1.228
1.214
1.21359
1.21372
1.21353
1.21357
1.21341
1.21344
1.21331
1.21333
1.21319
1.21319
1.21306
1.21306
1.21298
1.21303
1.21299
1.21304
1.21297
1.21295
1.21285
1.21284
1.21281
1.21289
1.21292
1.213
1.21299
1.21301
1.21294
1.21293
1.21287
1.2129
1.21291
1.21302
1.21309
1.21321
1.21325
1.21328
1.21323
1.2132
1.21314
1.21316
1.21321
1.21333
1.21346
1.21364
1.21377
1.21388
1.21392
1.21392
1.21386
1.21383