/*--------------------------------*- C++ -*----------------------------------*\
  =========                 |
  \\      /  F ield         | OpenFOAM: The Open Source CFD Toolbox
   \\    /   O peration     | Website:  https://openfoam.org
    \\  /    A nd           | Version:  7
     \\/     M anipulation  |
\*---------------------------------------------------------------------------*/
FoamFile
{
    version     2.0;
    format      ascii;
    class       volSymmTensorField;
    location    "0.1575";
    object      UPrime2Mean;
}
// * * * * * * * * * * * * * * * * * * * * * * * * * * * * * * * * * * * * * //

dimensions      [0 2 -2 0 0 0 0];

internalField   nonuniform List<symmTensor> 
1600
(
(7.14137e-05 2.37138e-05 0 3.24681e-05 0 0)
(8.2361e-05 8.50546e-06 0 5.54626e-06 0 0)
(6.99121e-05 1.79716e-06 0 1.13767e-06 0 0)
(7.48596e-05 7.13491e-07 0 3.00968e-07 0 0)
(8.1583e-05 4.65766e-07 0 1.09652e-07 0 0)
(8.70672e-05 3.5166e-07 0 5.51048e-08 0 0)
(9.14725e-05 2.6811e-07 0 3.35306e-08 0 0)
(9.52089e-05 2.03401e-07 0 2.24594e-08 0 0)
(9.84821e-05 1.5439e-07 0 1.58837e-08 0 0)
(0.000101397 1.20458e-07 0 1.17943e-08 0 0)
(0.000104017 9.90081e-08 0 9.15505e-09 0 0)
(0.000106381 8.72034e-08 0 7.38729e-09 0 0)
(0.000108517 8.24264e-08 0 6.15606e-09 0 0)
(0.000110443 8.23272e-08 0 5.24915e-09 0 0)
(0.000112176 8.60155e-08 0 4.55805e-09 0 0)
(0.00011373 9.21141e-08 0 4.0084e-09 0 0)
(0.000115117 9.96026e-08 0 3.55789e-09 0 0)
(0.000116345 1.08061e-07 0 3.18016e-09 0 0)
(0.000117424 1.17039e-07 0 2.85665e-09 0 0)
(0.000118361 1.26573e-07 0 2.57299e-09 0 0)
(0.000119162 1.36513e-07 0 2.32159e-09 0 0)
(0.000119831 1.4661e-07 0 2.10022e-09 0 0)
(0.000120376 1.56816e-07 0 1.90302e-09 0 0)
(0.000120801 1.66846e-07 0 1.72776e-09 0 0)
(0.000121111 1.76762e-07 0 1.57073e-09 0 0)
(0.000121314 1.86633e-07 0 1.43041e-09 0 0)
(0.000121414 1.96383e-07 0 1.30577e-09 0 0)
(0.000121421 2.05958e-07 0 1.19653e-09 0 0)
(0.000121342 2.15378e-07 0 1.10164e-09 0 0)
(0.000121185 2.24518e-07 0 1.02277e-09 0 0)
(0.00012096 2.33375e-07 0 9.61675e-10 0 0)
(0.000120676 2.42108e-07 0 9.21816e-10 0 0)
(0.000120341 2.51038e-07 0 9.09825e-10 0 0)
(0.000119962 2.60783e-07 0 9.41031e-10 0 0)
(0.000119539 2.72441e-07 0 1.05099e-09 0 0)
(0.000119059 2.88288e-07 0 1.33673e-09 0 0)
(0.000118492 3.12239e-07 0 2.10814e-09 0 0)
(0.000117783 3.48584e-07 0 4.28445e-09 0 0)
(0.000116875 4.17578e-07 0 1.33502e-08 0 0)
(0.000115705 4.52548e-07 0 7.9124e-08 0 0)
(5.36211e-05 1.64872e-05 0 6.93761e-05 0 0)
(5.80769e-05 -3.18425e-06 0 3.371e-05 0 0)
(7.68424e-05 -1.31952e-05 0 1.49309e-05 0 0)
(0.000112769 -1.56281e-05 0 7.02301e-06 0 0)
(0.000154577 -1.46659e-05 0 3.90744e-06 0 0)
(0.000194065 -1.28376e-05 0 2.52731e-06 0 0)
(0.000229384 -1.11623e-05 0 1.79874e-06 0 0)
(0.000260752 -9.81081e-06 0 1.35907e-06 0 0)
(0.000288639 -8.71833e-06 0 1.07344e-06 0 0)
(0.000313481 -7.80346e-06 0 8.80463e-07 0 0)
(0.000335669 -7.01228e-06 0 7.45937e-07 0 0)
(0.00035553 -6.30946e-06 0 6.48408e-07 0 0)
(0.00037333 -5.67199e-06 0 5.7454e-07 0 0)
(0.000389293 -5.0871e-06 0 5.1591e-07 0 0)
(0.000403604 -4.54413e-06 0 4.67194e-07 0 0)
(0.000416412 -4.03583e-06 0 4.25013e-07 0 0)
(0.000427843 -3.55709e-06 0 3.87406e-07 0 0)
(0.000438 -3.10291e-06 0 3.53002e-07 0 0)
(0.000446972 -2.66963e-06 0 3.21083e-07 0 0)
(0.000454833 -2.25451e-06 0 2.9114e-07 0 0)
(0.000461641 -1.85559e-06 0 2.62907e-07 0 0)
(0.000467455 -1.47192e-06 0 2.36276e-07 0 0)
(0.000472323 -1.10293e-06 0 2.11197e-07 0 0)
(0.000476294 -7.49278e-07 0 1.87624e-07 0 0)
(0.000479417 -4.1144e-07 0 1.65578e-07 0 0)
(0.00048174 -9.01833e-08 0 1.45093e-07 0 0)
(0.000483314 2.131e-07 0 1.2619e-07 0 0)
(0.000484194 4.96605e-07 0 1.08907e-07 0 0)
(0.000484437 7.58831e-07 0 9.32679e-08 0 0)
(0.000484107 9.98086e-07 0 7.93001e-08 0 0)
(0.00048327 1.21327e-06 0 6.70276e-08 0 0)
(0.000481995 1.40492e-06 0 5.64771e-08 0 0)
(0.000480352 1.57583e-06 0 4.77071e-08 0 0)
(0.000478405 1.73333e-06 0 4.08683e-08 0 0)
(0.000476206 1.89113e-06 0 3.63492e-08 0 0)
(0.000473778 2.07354e-06 0 3.50947e-08 0 0)
(0.000471111 2.31623e-06 0 3.95821e-08 0 0)
(0.000468373 2.6647e-06 0 5.70067e-08 0 0)
(0.000465258 3.18009e-06 0 1.05828e-07 0 0)
(0.000460796 3.3418e-06 0 3.19389e-07 0 0)
(6.84283e-05 2.33311e-05 0 0.000100437 0 0)
(5.19149e-05 -6.9418e-06 0 7.34165e-05 0 0)
(5.61529e-05 -2.59369e-05 0 4.8604e-05 0 0)
(8.93597e-05 -3.786e-05 0 3.14917e-05 0 0)
(0.000141805 -4.2522e-05 0 2.12203e-05 0 0)
(0.000201825 -4.26167e-05 0 1.51229e-05 0 0)
(0.000263127 -4.06932e-05 0 1.13079e-05 0 0)
(0.000322612 -3.80476e-05 0 8.7851e-06 0 0)
(0.000378716 -3.52266e-05 0 7.05617e-06 0 0)
(0.000430761 -3.24511e-05 0 5.84223e-06 0 0)
(0.000478595 -2.98063e-05 0 4.96918e-06 0 0)
(0.000522318 -2.7319e-05 0 4.32315e-06 0 0)
(0.000562141 -2.49883e-05 0 3.82795e-06 0 0)
(0.000598311 -2.28045e-05 0 3.43323e-06 0 0)
(0.000631082 -2.07529e-05 0 3.10584e-06 0 0)
(0.000660693 -1.88178e-05 0 2.82404e-06 0 0)
(0.000687355 -1.69837e-05 0 2.57404e-06 0 0)
(0.000711259 -1.52365e-05 0 2.34666e-06 0 0)
(0.00073257 -1.35638e-05 0 2.1363e-06 0 0)
(0.000751431 -1.19571e-05 0 1.93953e-06 0 0)
(0.000767969 -1.04105e-05 0 1.75425e-06 0 0)
(0.000782302 -8.91991e-06 0 1.57936e-06 0 0)
(0.000794536 -7.48405e-06 0 1.41426e-06 0 0)
(0.000804774 -6.10393e-06 0 1.25875e-06 0 0)
(0.000813118 -4.78263e-06 0 1.11295e-06 0 0)
(0.000819672 -3.52432e-06 0 9.7699e-07 0 0)
(0.000824543 -2.33485e-06 0 8.51127e-07 0 0)
(0.000827847 -1.22091e-06 0 7.35573e-07 0 0)
(0.000829704 -1.89178e-07 0 6.30493e-07 0 0)
(0.000830247 7.54044e-07 0 5.35984e-07 0 0)
(0.000829614 1.60368e-06 0 4.52099e-07 0 0)
(0.000827956 2.3578e-06 0 3.78862e-07 0 0)
(0.000825428 3.01961e-06 0 3.16365e-07 0 0)
(0.000822189 3.60176e-06 0 2.64894e-07 0 0)
(0.000818396 4.13045e-06 0 2.25265e-07 0 0)
(0.000814196 4.64858e-06 0 1.99397e-07 0 0)
(0.000809765 5.21687e-06 0 1.91582e-07 0 0)
(0.000805487 5.91159e-06 0 2.11093e-07 0 0)
(0.000800998 6.62664e-06 0 2.77543e-07 0 0)
(0.000794696 6.90459e-06 0 4.52054e-07 0 0)
(5.97445e-05 1.57861e-05 0 9.78545e-05 0 0)
(4.25514e-05 -3.47746e-06 0 0.000104979 0 0)
(3.58378e-05 -2.23079e-05 0 9.32453e-05 0 0)
(5.47881e-05 -4.44658e-05 0 7.51289e-05 0 0)
(9.76297e-05 -6.1066e-05 0 5.81708e-05 0 0)
(0.000156783 -7.01653e-05 0 4.47936e-05 0 0)
(0.000225423 -7.36134e-05 0 3.48926e-05 0 0)
(0.000298313 -7.35328e-05 0 2.77174e-05 0 0)
(0.000371683 -7.1404e-05 0 2.25355e-05 0 0)
(0.000443106 -6.81495e-05 0 1.87708e-05 0 0)
(0.000511189 -6.43238e-05 0 1.59987e-05 0 0)
(0.000575206 -6.02518e-05 0 1.39144e-05 0 0)
(0.000634832 -5.61185e-05 0 1.2303e-05 0 0)
(0.000689987 -5.20247e-05 0 1.10155e-05 0 0)
(0.000740728 -4.80217e-05 0 9.95018e-06 0 0)
(0.000787179 -4.41323e-05 0 9.03839e-06 0 0)
(0.000829504 -4.03625e-05 0 8.23469e-06 0 0)
(0.000867873 -3.67088e-05 0 7.50875e-06 0 0)
(0.000902458 -3.31654e-05 0 6.84124e-06 0 0)
(0.000933417 -2.97259e-05 0 6.21968e-06 0 0)
(0.000960903 -2.63863e-05 0 5.63622e-06 0 0)
(0.000985064 -2.31451e-05 0 5.08645e-06 0 0)
(0.00100604 -2.00042e-05 0 4.56774e-06 0 0)
(0.00102397 -1.69691e-05 0 4.07906e-06 0 0)
(0.001039 -1.40484e-05 0 3.62021e-06 0 0)
(0.00105126 -1.12535e-05 0 3.19148e-06 0 0)
(0.00106092 -8.59816e-06 0 2.79339e-06 0 0)
(0.00106814 -6.097e-06 0 2.42643e-06 0 0)
(0.00107308 -3.76583e-06 0 2.09106e-06 0 0)
(0.00107593 -1.62036e-06 0 1.78755e-06 0 0)
(0.0010769 3.25296e-07 0 1.51602e-06 0 0)
(0.0010762 2.0604e-06 0 1.27646e-06 0 0)
(0.00107406 3.58103e-06 0 1.06889e-06 0 0)
(0.00107075 4.89361e-06 0 8.93528e-07 0 0)
(0.00106652 6.02147e-06 0 7.51192e-07 0 0)
(0.00106167 7.00419e-06 0 6.44026e-07 0 0)
(0.00105655 7.90195e-06 0 5.76274e-07 0 0)
(0.00105168 8.77116e-06 0 5.5547e-07 0 0)
(0.00104651 9.52728e-06 0 5.92395e-07 0 0)
(0.00103969 9.76879e-06 0 7.04214e-07 0 0)
(6.53266e-05 1.14142e-05 0 9.78377e-05 0 0)
(4.24546e-05 2.94674e-06 0 0.000133612 0 0)
(2.57597e-05 -1.16953e-05 0 0.000144899 0 0)
(3.13796e-05 -3.84467e-05 0 0.000134203 0 0)
(5.86732e-05 -6.48961e-05 0 0.000114336 0 0)
(0.00010451 -8.46781e-05 0 9.36371e-05 0 0)
(0.000164839 -9.70568e-05 0 7.57604e-05 0 0)
(0.000235099 -0.000103398 0 6.15589e-05 0 0)
(0.000310969 -0.000105361 0 5.07014e-05 0 0)
(0.000388923 -0.000104338 0 4.2517e-05 0 0)
(0.000466408 -0.000101367 0 3.63397e-05 0 0)
(0.000541711 -9.71718e-05 0 3.16191e-05 0 0)
(0.000613736 -9.224e-05 0 2.79355e-05 0 0)
(0.000681826 -8.68893e-05 0 2.49826e-05 0 0)
(0.000745618 -8.13238e-05 0 2.2543e-05 0 0)
(0.000804939 -7.56698e-05 0 2.04645e-05 0 0)
(0.000859746 -7.00051e-05 0 1.86427e-05 0 0)
(0.000910068 -6.43753e-05 0 1.70074e-05 0 0)
(0.00095598 -5.88085e-05 0 1.55117e-05 0 0)
(0.000997581 -5.33231e-05 0 1.4125e-05 0 0)
(0.00103499 -4.79326e-05 0 1.28275e-05 0 0)
(0.00106833 -4.26499e-05 0 1.16071e-05 0 0)
(0.00109774 -3.74901e-05 0 1.04569e-05 0 0)
(0.00112335 -3.24691e-05 0 9.37309e-06 0 0)
(0.00114532 -2.76068e-05 0 8.35415e-06 0 0)
(0.00116379 -2.29266e-05 0 7.40015e-06 0 0)
(0.00117895 -1.84532e-05 0 6.51158e-06 0 0)
(0.00119097 -1.42131e-05 0 5.68921e-06 0 0)
(0.00120005 -1.02347e-05 0 4.93376e-06 0 0)
(0.00120641 -6.54636e-06 0 4.24576e-06 0 0)
(0.00121026 -3.17603e-06 0 3.62538e-06 0 0)
(0.00121188 -1.48879e-07 0 3.07255e-06 0 0)
(0.00121154 2.51567e-06 0 2.58698e-06 0 0)
(0.00120955 4.8073e-06 0 2.16841e-06 0 0)
(0.00120626 6.73078e-06 0 1.81692e-06 0 0)
(0.00120205 8.30852e-06 0 1.53359e-06 0 0)
(0.00119739 9.58673e-06 0 1.32083e-06 0 0)
(0.00119288 1.06214e-05 0 1.18261e-06 0 0)
(0.00118773 1.14161e-05 0 1.12219e-06 0 0)
(0.00118133 1.16599e-05 0 1.14476e-06 0 0)
(5.83323e-05 1.49117e-05 0 9.23632e-05 0 0)
(3.55611e-05 2.98621e-06 0 0.000153023 0 0)
(2.05414e-05 -7.95627e-06 0 0.000187417 0 0)
(2.03647e-05 -3.06099e-05 0 0.000192148 0 0)
(3.49133e-05 -5.87439e-05 0 0.000177717 0 0)
(6.46809e-05 -8.48985e-05 0 0.000154959 0 0)
(0.000109299 -0.000105439 0 0.000131119 0 0)
(0.00016669 -0.000119619 0 0.000109781 0 0)
(0.000233612 -0.000128032 0 9.21217e-05 0 0)
(0.000306609 -0.000131777 0 7.80786e-05 0 0)
(0.000382654 -0.000131997 0 6.70888e-05 0 0)
(0.000459361 -0.000129677 0 5.84892e-05 0 0)
(0.000534961 -0.000125581 0 5.16838e-05 0 0)
(0.000608206 -0.000120276 0 4.61934e-05 0 0)
(0.000678247 -0.000114167 0 4.16543e-05 0 0)
(0.00074453 -0.000107538 0 3.77996e-05 0 0)
(0.000806715 -0.000100582 0 3.44389e-05 0 0)
(0.000864608 -9.34332e-05 0 3.14397e-05 0 0)
(0.000918116 -8.6185e-05 0 2.8711e-05 0 0)
(0.000967219 -7.89037e-05 0 2.61919e-05 0 0)
(0.00101194 -7.16403e-05 0 2.38422e-05 0 0)
(0.00105234 -6.44379e-05 0 2.16367e-05 0 0)
(0.00108851 -5.73351e-05 0 1.95597e-05 0 0)
(0.00112055 -5.03685e-05 0 1.76023e-05 0 0)
(0.00114858 -4.35741e-05 0 1.57597e-05 0 0)
(0.00117274 -3.69909e-05 0 1.40305e-05 0 0)
(0.00119319 -3.06587e-05 0 1.24147e-05 0 0)
(0.0012101 -2.46188e-05 0 1.0913e-05 0 0)
(0.00122367 -1.89132e-05 0 9.52616e-06 0 0)
(0.00123409 -1.35852e-05 0 8.25482e-06 0 0)
(0.0012416 -8.67833e-06 0 7.09922e-06 0 0)
(0.00124646 -4.23508e-06 0 6.05907e-06 0 0)
(0.00124895 -2.95139e-07 0 5.13363e-06 0 0)
(0.00124939 3.10788e-06 0 4.32172e-06 0 0)
(0.00124816 5.9517e-06 0 3.62204e-06 0 0)
(0.00124565 8.23265e-06 0 3.03359e-06 0 0)
(0.00124238 9.9794e-06 0 2.55621e-06 0 0)
(0.001239 1.12583e-05 0 2.19127e-06 0 0)
(0.00123453 1.21705e-05 0 1.94135e-06 0 0)
(0.00122925 1.25434e-05 0 1.82903e-06 0 0)
(6.01098e-05 1.40852e-05 0 0.000103775 0 0)
(3.41517e-05 -1.24556e-06 0 0.000166024 0 0)
(1.87706e-05 -6.90623e-06 0 0.000216118 0 0)
(1.55567e-05 -2.28105e-05 0 0.000239275 0 0)
(2.1972e-05 -4.74414e-05 0 0.000237461 0 0)
(3.88372e-05 -7.46311e-05 0 0.000219593 0 0)
(6.77849e-05 -9.98181e-05 0 0.000194564 0 0)
(0.000109044 -0.000120449 0 0.000168515 0 0)
(0.000161237 -0.000135562 0 0.000144737 0 0)
(0.000221996 -0.000145292 0 0.000124488 0 0)
(0.000288677 -0.000150352 0 0.000107857 0 0)
(0.000358808 -0.000151643 0 9.44047e-05 0 0)
(0.000430304 -0.000150029 0 8.35316e-05 0 0)
(0.000501511 -0.000146244 0 7.46579e-05 0 0)
(0.00057118 -0.000140873 0 6.72914e-05 0 0)
(0.0006384 -0.000134363 0 6.10432e-05 0 0)
(0.00070253 -0.00012705 0 5.56198e-05 0 0)
(0.000763129 -0.000119179 0 5.08077e-05 0 0)
(0.000819911 -0.000110932 0 4.6455e-05 0 0)
(0.000872698 -0.000102444 0 4.24565e-05 0 0)
(0.000921396 -9.38205e-05 0 3.87411e-05 0 0)
(0.000965972 -8.51481e-05 0 3.5262e-05 0 0)
(0.00100644 -7.64995e-05 0 3.19894e-05 0 0)
(0.00104284 -6.794e-05 0 2.89055e-05 0 0)
(0.00107526 -5.95291e-05 0 2.59996e-05 0 0)
(0.00110378 -5.13233e-05 0 2.32663e-05 0 0)
(0.00112854 -4.33797e-05 0 2.07039e-05 0 0)
(0.00114966 -3.57546e-05 0 1.8312e-05 0 0)
(0.00116732 -2.85044e-05 0 1.6091e-05 0 0)
(0.00118169 -2.16861e-05 0 1.40413e-05 0 0)
(0.00119296 -1.53577e-05 0 1.21629e-05 0 0)
(0.00120136 -9.57851e-06 0 1.04553e-05 0 0)
(0.00120714 -4.40782e-06 0 8.91702e-06 0 0)
(0.0012106 9.68584e-08 0 7.54591e-06 0 0)
(0.00121205 3.88502e-06 0 6.33895e-06 0 0)
(0.00121189 6.92354e-06 0 5.29286e-06 0 0)
(0.00121059 9.21922e-06 0 4.40514e-06 0 0)
(0.00120879 1.08428e-05 0 3.67711e-06 0 0)
(0.00120547 1.19695e-05 0 3.11798e-06 0 0)
(0.0012016 1.25729e-05 0 2.78853e-06 0 0)
(5.02919e-05 1.60195e-05 0 0.000107735 0 0)
(3.14488e-05 -7.57675e-06 0 0.000167323 0 0)
(1.90054e-05 -1.10449e-05 0 0.000229433 0 0)
(1.45774e-05 -1.92567e-05 0 0.000271105 0 0)
(1.61467e-05 -3.67454e-05 0 0.000286059 0 0)
(2.41555e-05 -5.99752e-05 0 0.000279031 0 0)
(4.05741e-05 -8.50239e-05 0 0.00025846 0 0)
(6.68935e-05 -0.000108655 0 0.00023187 0 0)
(0.000103335 -0.000128607 0 0.000204435 0 0)
(0.00014893 -0.000143798 0 0.000179046 0 0)
(0.000201968 -0.000154096 0 0.000156911 0 0)
(0.000260452 -0.000159932 0 0.000138223 0 0)
(0.000322417 -0.000161982 0 0.000122668 0 0)
(0.000386112 -0.000160966 0 0.000109739 0 0)
(0.000450084 -0.000157548 0 9.89034e-05 0 0)
(0.000513176 -0.000152293 0 8.96903e-05 0 0)
(0.000574504 -0.000145657 0 8.1712e-05 0 0)
(0.000633411 -0.000137998 0 7.46682e-05 0 0)
(0.000689423 -0.000129597 0 6.83353e-05 0 0)
(0.000742209 -0.000120671 0 6.25518e-05 0 0)
(0.000791546 -0.00011139 0 5.7204e-05 0 0)
(0.000837299 -0.000101894 0 5.22139e-05 0 0)
(0.000879392 -9.22976e-05 0 4.75299e-05 0 0)
(0.000917807 -8.27004e-05 0 4.31191e-05 0 0)
(0.000952558 -7.31903e-05 0 3.89611e-05 0 0)
(0.000983692 -6.38456e-05 0 3.50434e-05 0 0)
(0.00101128 -5.474e-05 0 3.13594e-05 0 0)
(0.00103542 -4.59447e-05 0 2.79062e-05 0 0)
(0.00105622 -3.75283e-05 0 2.46823e-05 0 0)
(0.00107381 -2.95595e-05 0 2.16871e-05 0 0)
(0.00108836 -2.21074e-05 0 1.89199e-05 0 0)
(0.00110001 -1.52438e-05 0 1.63794e-05 0 0)
(0.00110898 -9.04313e-06 0 1.40636e-05 0 0)
(0.00111548 -3.58183e-06 0 1.19693e-05 0 0)
(0.00111977 1.06569e-06 0 1.00918e-05 0 0)
(0.00112215 4.83879e-06 0 8.42613e-06 0 0)
(0.00112303 7.7191e-06 0 6.96854e-06 0 0)
(0.00112297 9.76844e-06 0 5.7232e-06 0 0)
(0.00112099 1.12046e-05 0 4.71348e-06 0 0)
(0.00111851 1.20966e-05 0 4.0561e-06 0 0)
(5.41695e-05 7.54464e-06 0 9.88781e-05 0 0)
(3.40706e-05 -9.93513e-06 0 0.000160539 0 0)
(1.98269e-05 -1.0808e-05 0 0.000229898 0 0)
(1.41793e-05 -1.4788e-05 0 0.000286853 0 0)
(1.32653e-05 -2.62406e-05 0 0.000319122 0 0)
(1.6147e-05 -4.38844e-05 0 0.000326799 0 0)
(2.41784e-05 -6.55667e-05 0 0.000315788 0 0)
(3.90535e-05 -8.86555e-05 0 0.000293421 0 0)
(6.18684e-05 -0.000110534 0 0.000265971 0 0)
(9.28031e-05 -0.000129287 0 0.000237792 0 0)
(0.000131215 -0.000143918 0 0.000211395 0 0)
(0.000175902 -0.000154176 0 0.000187914 0 0)
(0.00022539 -0.000160302 0 0.000167619 0 0)
(0.000278156 -0.000162788 0 0.000150307 0 0)
(0.000332788 -0.000162218 0 0.000135567 0 0)
(0.000388058 -0.00015917 0 0.000122936 0 0)
(0.000442956 -0.000154161 0 0.000111982 0 0)
(0.000496677 -0.000147632 0 0.000102337 0 0)
(0.000548602 -0.000139947 0 9.37096e-05 0 0)
(0.000598267 -0.000131401 0 8.58778e-05 0 0)
(0.000645335 -0.000122234 0 7.86775e-05 0 0)
(0.000689569 -0.000112641 0 7.1991e-05 0 0)
(0.000730813 -0.000102785 0 6.57361e-05 0 0)
(0.000768971 -9.28016e-05 0 5.98571e-05 0 0)
(0.000803999 -8.28104e-05 0 5.43177e-05 0 0)
(0.000835888 -7.29137e-05 0 4.90941e-05 0 0)
(0.000864659 -6.32026e-05 0 4.41707e-05 0 0)
(0.000890355 -5.37617e-05 0 3.95386e-05 0 0)
(0.000913042 -4.46705e-05 0 3.51924e-05 0 0)
(0.000932799 -3.60056e-05 0 3.11285e-05 0 0)
(0.000949721 -2.78432e-05 0 2.73443e-05 0 0)
(0.000963915 -2.02618e-05 0 2.38371e-05 0 0)
(0.000975508 -1.33442e-05 0 2.06037e-05 0 0)
(0.000984643 -7.17791e-06 0 1.764e-05 0 0)
(0.000991486 -1.85308e-06 0 1.49404e-05 0 0)
(0.000996244 2.5485e-06 0 1.24988e-05 0 0)
(0.000999188 5.98365e-06 0 1.03117e-05 0 0)
(0.0010008 8.49259e-06 0 8.38908e-06 0 0)
(0.00100015 1.03018e-05 0 6.77526e-06 0 0)
(0.000998845 1.15001e-05 0 5.66083e-06 0 0)
(7.23322e-05 1.8153e-05 0 0.000110018 0 0)
(4.26451e-05 -1.64904e-06 0 0.000164091 0 0)
(2.30737e-05 -3.75551e-06 0 0.000233987 0 0)
(1.49798e-05 -7.47262e-06 0 0.000298 0 0)
(1.22268e-05 -1.56402e-05 0 0.000342194 0 0)
(1.22123e-05 -2.82283e-05 0 0.000363083 0 0)
(1.52216e-05 -4.51262e-05 0 0.000363302 0 0)
(2.24431e-05 -6.50489e-05 0 0.000348389 0 0)
(3.50822e-05 -8.59084e-05 0 0.000324381 0 0)
(5.39133e-05 -0.000105639 0 0.000296316 0 0)
(7.91123e-05 -0.000122712 0 0.000267726 0 0)
(0.000110287 -0.00013626 0 0.000240711 0 0)
(0.000146618 -0.000145989 0 0.000216293 0 0)
(0.000187043 -0.000152004 0 0.000194773 0 0)
(0.000230417 -0.000154653 0 0.000176036 0 0)
(0.000275636 -0.000154397 0 0.000159758 0 0)
(0.000321708 -0.000151721 0 0.000145546 0 0)
(0.000367785 -0.000147082 0 0.00013302 0 0)
(0.000413176 -0.00014089 0 0.000121845 0 0)
(0.000457329 -0.000133493 0 0.00011175 0 0)
(0.00049982 -0.000125188 0 0.00010252 0 0)
(0.000540331 -0.000116223 0 9.39941e-05 0 0)
(0.000578632 -0.000106804 0 8.60549e-05 0 0)
(0.000614561 -9.71047e-05 0 7.86167e-05 0 0)
(0.000648013 -8.72749e-05 0 7.16197e-05 0 0)
(0.000678927 -7.74419e-05 0 6.50229e-05 0 0)
(0.000707272 -6.77151e-05 0 5.87972e-05 0 0)
(0.000733045 -5.81914e-05 0 5.29232e-05 0 0)
(0.00075626 -4.89591e-05 0 4.73875e-05 0 0)
(0.000776948 -4.01002e-05 0 4.21811e-05 0 0)
(0.000795149 -3.1694e-05 0 3.72969e-05 0 0)
(0.000810911 -2.38207e-05 0 3.27295e-05 0 0)
(0.000824291 -1.65642e-05 0 2.84737e-05 0 0)
(0.000835354 -1.00149e-05 0 2.45241e-05 0 0)
(0.000844175 -4.26882e-06 0 2.08744e-05 0 0)
(0.000850855 5.80077e-07 0 1.75187e-05 0 0)
(0.000855537 4.46866e-06 0 1.44552e-05 0 0)
(0.000858565 7.40814e-06 0 1.17019e-05 0 0)
(0.000859101 9.60454e-06 0 9.32989e-06 0 0)
(0.000858691 1.10849e-05 0 7.62096e-06 0 0)
(6.36953e-05 1.54986e-05 0 0.000102548 0 0)
(4.17105e-05 -3.32585e-06 0 0.000166662 0 0)
(2.40029e-05 -1.94851e-06 0 0.000239516 0 0)
(1.58445e-05 -3.14257e-06 0 0.000306521 0 0)
(1.23109e-05 -7.74263e-06 0 0.000357897 0 0)
(1.08196e-05 -1.54195e-05 0 0.000388948 0 0)
(1.11193e-05 -2.68236e-05 0 0.00039978 0 0)
(1.37946e-05 -4.18498e-05 0 0.000393734 0 0)
(1.9733e-05 -5.92829e-05 0 0.000375668 0 0)
(2.9788e-05 -7.74102e-05 0 0.000350454 0 0)
(4.45397e-05 -9.46003e-05 0 0.000322082 0 0)
(6.41726e-05 -0.000109616 0 0.000293375 0 0)
(8.84707e-05 -0.000121701 0 0.000266076 0 0)
(0.000116897 -0.000130541 0 0.000241084 0 0)
(0.000148711 -0.000136152 0 0.000218703 0 0)
(0.00018308 -0.000138769 0 0.000198879 0 0)
(0.000219172 -0.000138742 0 0.000181363 0 0)
(0.000256217 -0.000136467 0 0.000165832 0 0)
(0.000293538 -0.000132335 0 0.000151963 0 0)
(0.000330564 -0.000126708 0 0.000139459 0 0)
(0.000366832 -0.000119908 0 0.000128076 0 0)
(0.000401974 -0.000112218 0 0.000117613 0 0)
(0.000435706 -0.000103877 0 0.000107916 0 0)
(0.000467815 -9.5092e-05 0 9.88664e-05 0 0)
(0.000498145 -8.60368e-05 0 9.03771e-05 0 0)
(0.000526588 -7.68609e-05 0 8.23834e-05 0 0)
(0.00055307 -6.76913e-05 0 7.48377e-05 0 0)
(0.000577541 -5.86362e-05 0 6.77048e-05 0 0)
(0.000599975 -4.97908e-05 0 6.09591e-05 0 0)
(0.000620356 -4.12407e-05 0 5.4582e-05 0 0)
(0.000638675 -3.30654e-05 0 4.85591e-05 0 0)
(0.00065493 -2.53423e-05 0 4.28798e-05 0 0)
(0.000669118 -1.81515e-05 0 3.75351e-05 0 0)
(0.000681236 -1.15787e-05 0 3.25176e-05 0 0)
(0.000691279 -5.71708e-06 0 2.78204e-05 0 0)
(0.000699251 -6.62719e-07 0 2.34386e-05 0 0)
(0.000705177 3.50952e-06 0 1.93737e-05 0 0)
(0.000709259 6.78159e-06 0 1.56532e-05 0 0)
(0.000710749 9.32074e-06 0 1.23792e-05 0 0)
(0.000710932 1.10215e-05 0 9.93947e-06 0 0)
(7.05739e-05 2.00052e-05 0 0.000109613 0 0)
(4.48738e-05 4.71831e-07 0 0.00017103 0 0)
(2.60494e-05 -2.19146e-07 0 0.00024357 0 0)
(1.67896e-05 -3.0168e-07 0 0.000311638 0 0)
(1.25412e-05 -2.22614e-06 0 0.000367031 0 0)
(1.03824e-05 -5.82224e-06 0 0.000405305 0 0)
(9.52488e-06 -1.20639e-05 0 0.000425125 0 0)
(9.97681e-06 -2.16455e-05 0 0.000427957 0 0)
(1.21578e-05 -3.42469e-05 0 0.00041717 0 0)
(1.66928e-05 -4.87951e-05 0 0.000396877 0 0)
(2.42072e-05 -6.39331e-05 0 0.000370973 0 0)
(3.51558e-05 -7.83755e-05 0 0.00034262 0 0)
(4.97271e-05 -9.11166e-05 0 0.00031409 0 0)
(6.78292e-05 -0.000101507 0 0.00028683 0 0)
(8.91335e-05 -0.000109237 0 0.000261611 0 0)
(0.000113148 -0.000114264 0 0.000238727 0 0)
(0.000139297 -0.000116735 0 0.000218163 0 0)
(0.000166981 -0.000116908 0 0.000199736 0 0)
(0.000195629 -0.000115092 0 0.00018319 0 0)
(0.000224725 -0.000111608 0 0.000168255 0 0)
(0.000253823 -0.000106765 0 0.000154678 0 0)
(0.00028255 -0.000100847 0 0.00014224 0 0)
(0.000310602 -9.41078e-05 0 0.000130759 0 0)
(0.000337738 -8.67696e-05 0 0.000120087 0 0)
(0.000363769 -7.90236e-05 0 0.000110107 0 0)
(0.000388552 -7.10334e-05 0 0.000100728 0 0)
(0.000411979 -6.29388e-05 0 9.18805e-05 0 0)
(0.000433967 -5.48569e-05 0 8.35085e-05 0 0)
(0.000454451 -4.68875e-05 0 7.55699e-05 0 0)
(0.000473379 -3.91177e-05 0 6.8032e-05 0 0)
(0.000490706 -3.16249e-05 0 6.087e-05 0 0)
(0.000506388 -2.44815e-05 0 5.40644e-05 0 0)
(0.000520376 -1.77594e-05 0 4.76006e-05 0 0)
(0.000532615 -1.15348e-05 0 4.14677e-05 0 0)
(0.000543038 -5.8908e-06 0 3.56577e-05 0 0)
(0.000551573 -9.17114e-07 0 3.01673e-05 0 0)
(0.000558153 3.30949e-06 0 2.50026e-05 0 0)
(0.00056284 6.74779e-06 0 2.02021e-05 0 0)
(0.000564985 9.52145e-06 0 1.59006e-05 0 0)
(0.000565479 1.13461e-05 0 1.26023e-05 0 0)
(6.07702e-05 1.17276e-05 0 0.000108959 0 0)
(3.99185e-05 -5.20238e-06 0 0.000164452 0 0)
(2.36183e-05 -2.09701e-06 0 0.000238583 0 0)
(1.56687e-05 1.97909e-07 0 0.000309176 0 0)
(1.19459e-05 5.77332e-07 0 0.000368482 0 0)
(9.98582e-06 3.04344e-07 0 0.000412614 0 0)
(8.996e-06 -1.44523e-06 0 0.000439934 0 0)
(8.72657e-06 -5.79612e-06 0 0.000450904 0 0)
(9.24744e-06 -1.31027e-05 0 0.000447698 0 0)
(1.08797e-05 -2.29489e-05 0 0.000433503 0 0)
(1.40845e-05 -3.44459e-05 0 0.000411759 0 0)
(1.93277e-05 -4.65253e-05 0 0.000385603 0 0)
(2.69663e-05 -5.81721e-05 0 0.000357572 0 0)
(3.71814e-05 -6.85745e-05 0 0.000329506 0 0)
(4.99629e-05 -7.71849e-05 0 0.000302592 0 0)
(6.51329e-05 -8.37141e-05 0 0.000277483 0 0)
(8.23894e-05 -8.80858e-05 0 0.000254446 0 0)
(0.000101357 -9.03784e-05 0 0.000233497 0 0)
(0.00012163 -9.0769e-05 0 0.000214508 0 0)
(0.000142808 -8.94888e-05 0 0.00019728 0 0)
(0.000164518 -8.67897e-05 0 0.000181594 0 0)
(0.00018643 -8.29231e-05 0 0.000167236 0 0)
(0.000208258 -7.81268e-05 0 0.000154014 0 0)
(0.000229763 -7.26176e-05 0 0.000141761 0 0)
(0.000250748 -6.65877e-05 0 0.000130335 0 0)
(0.000271054 -6.02041e-05 0 0.00011962 0 0)
(0.000290552 -5.36101e-05 0 0.000109521 0 0)
(0.00030914 -4.69269e-05 0 9.9962e-05 0 0)
(0.000326728 -4.02551e-05 0 9.08791e-05 0 0)
(0.00034324 -3.36798e-05 0 8.22225e-05 0 0)
(0.000358604 -2.72744e-05 0 7.39528e-05 0 0)
(0.000372749 -2.11039e-05 0 6.60389e-05 0 0)
(0.000385595 -1.523e-05 0 5.84577e-05 0 0)
(0.000397053 -9.71583e-06 0 5.11931e-05 0 0)
(0.000407015 -4.63021e-06 0 4.42355e-05 0 0)
(0.000415361 -4.94952e-08 0 3.75831e-05 0 0)
(0.000421957 3.9565e-06 0 3.12483e-05 0 0)
(0.000426757 7.33305e-06 0 2.52814e-05 0 0)
(0.000429209 1.01675e-05 0 1.98503e-05 0 0)
(0.000429755 1.19827e-05 0 1.55785e-05 0 0)
(6.30059e-05 2.2209e-05 0 0.000113787 0 0)
(3.98523e-05 9.9495e-06 0 0.000172733 0 0)
(2.27011e-05 7.63138e-06 0 0.000244234 0 0)
(1.4767e-05 5.75917e-06 0 0.000311788 0 0)
(1.13247e-05 4.80517e-06 0 0.000369848 0 0)
(9.67549e-06 5.32809e-06 0 0.00041562 0 0)
(8.91843e-06 6.19045e-06 0 0.000447292 0 0)
(8.66475e-06 5.84337e-06 0 0.000464356 0 0)
(8.75997e-06 3.31246e-06 0 0.0004678 0 0)
(9.25989e-06 -1.64782e-06 0 0.000459776 0 0)
(1.03916e-05 -8.71762e-06 0 0.000443026 0 0)
(1.24794e-05 -1.72233e-05 0 0.00042036 0 0)
(1.58582e-05 -2.63482e-05 0 0.000394297 0 0)
(2.08e-05 -3.53063e-05 0 0.000366863 0 0)
(2.74684e-05 -4.3454e-05 0 0.000339528 0 0)
(3.59033e-05 -5.03391e-05 0 0.000313248 0 0)
(4.60312e-05 -5.57011e-05 0 0.000288564 0 0)
(5.76887e-05 -5.94428e-05 0 0.000265714 0 0)
(7.06528e-05 -6.15904e-05 0 0.000244736 0 0)
(8.46695e-05 -6.22541e-05 0 0.000225542 0 0)
(9.94771e-05 -6.15951e-05 0 0.000207983 0 0)
(0.000114823 -5.97998e-05 0 0.000191881 0 0)
(0.000130476 -5.70612e-05 0 0.000177056 0 0)
(0.000146229 -5.35667e-05 0 0.000163336 0 0)
(0.000161903 -4.94901e-05 0 0.000150565 0 0)
(0.000177346 -4.49869e-05 0 0.00013861 0 0)
(0.00019243 -4.01925e-05 0 0.000127351 0 0)
(0.000207043 -3.5223e-05 0 0.000116691 0 0)
(0.00022109 -3.01742e-05 0 0.000106543 0 0)
(0.000234483 -2.51253e-05 0 9.68399e-05 0 0)
(0.000247139 -2.01422e-05 0 8.7523e-05 0 0)
(0.000258973 -1.52804e-05 0 7.85476e-05 0 0)
(0.000269891 -1.05897e-05 0 6.98794e-05 0 0)
(0.000279787 -6.11823e-06 0 6.14953e-05 0 0)
(0.000288537 -1.91779e-06 0 5.3383e-05 0 0)
(0.000295994 1.95262e-06 0 4.55431e-05 0 0)
(0.000301994 5.43702e-06 0 3.79952e-05 0 0)
(0.000306414 8.47724e-06 0 3.0803e-05 0 0)
(0.000308807 1.11391e-05 0 2.41657e-05 0 0)
(0.000309173 1.27707e-05 0 1.88209e-05 0 0)
(6.57982e-05 1.58345e-05 0 0.000116579 0 0)
(4.03278e-05 -1.51204e-06 0 0.000179515 0 0)
(2.18261e-05 -1.22663e-06 0 0.000248178 0 0)
(1.37729e-05 6.72024e-07 0 0.000312815 0 0)
(1.06494e-05 2.63603e-06 0 0.000369103 0 0)
(9.36505e-06 5.85045e-06 0 0.000414994 0 0)
(8.95547e-06 9.71729e-06 0 0.000448962 0 0)
(9.00416e-06 1.29964e-05 0 0.000470139 0 0)
(9.26582e-06 1.47182e-05 0 0.000478783 0 0)
(9.63482e-06 1.43683e-05 0 0.000476225 0 0)
(1.01405e-05 1.18682e-05 0 0.0004645 0 0)
(1.09242e-05 7.50451e-06 0 0.000445944 0 0)
(1.21964e-05 1.80495e-06 0 0.000422846 0 0)
(1.41854e-05 -4.60304e-06 0 0.000397214 0 0)
(1.7091e-05 -1.11133e-05 0 0.000370642 0 0)
(2.10531e-05 -1.72203e-05 0 0.000344285 0 0)
(2.61378e-05 -2.25545e-05 0 0.000318903 0 0)
(3.23382e-05 -2.68847e-05 0 0.000294939 0 0)
(3.9586e-05 -3.01013e-05 0 0.000272602 0 0)
(4.77669e-05 -3.21904e-05 0 0.000251941 0 0)
(5.67385e-05 -3.32075e-05 0 0.000232898 0 0)
(6.63449e-05 -3.32534e-05 0 0.000215359 0 0)
(7.64284e-05 -3.24547e-05 0 0.000199177 0 0)
(8.68383e-05 -3.09484e-05 0 0.000184194 0 0)
(9.74353e-05 -2.8871e-05 0 0.000170254 0 0)
(0.000108094 -2.63507e-05 0 0.000157211 0 0)
(0.000118704 -2.35028e-05 0 0.000144932 0 0)
(0.000129166 -2.04275e-05 0 0.000133296 0 0)
(0.000139391 -1.72085e-05 0 0.0001222 0 0)
(0.000149297 -1.39134e-05 0 0.000111554 0 0)
(0.000158801 -1.05966e-05 0 0.00010128 0 0)
(0.00016782 -7.30154e-06 0 9.1318e-05 0 0)
(0.000176264 -4.06391e-06 0 8.16209e-05 0 0)
(0.000184027 -9.15987e-07 0 7.21569e-05 0 0)
(0.000190987 2.10881e-06 0 6.29103e-05 0 0)
(0.000196996 4.97081e-06 0 5.38844e-05 0 0)
(0.000201887 7.63197e-06 0 4.51079e-05 0 0)
(0.0002055 1.00387e-05 0 3.66595e-05 0 0)
(0.000207496 1.22512e-05 0 2.87671e-05 0 0)
(0.000207498 1.3486e-05 0 2.22668e-05 0 0)
(6.97703e-05 1.59368e-05 0 0.000115778 0 0)
(4.15249e-05 -4.37474e-06 0 0.000178418 0 0)
(2.19311e-05 -3.28328e-06 0 0.000246017 0 0)
(1.34609e-05 -1.42597e-06 0 0.000309243 0 0)
(1.02459e-05 7.70269e-07 0 0.000364675 0 0)
(9.06538e-06 4.97913e-06 0 0.000410575 0 0)
(8.88536e-06 1.0681e-05 0 0.000445781 0 0)
(9.25132e-06 1.6619e-05 0 0.000469585 0 0)
(9.87585e-06 2.17393e-05 0 0.000482009 0 0)
(1.05714e-05 2.53318e-05 0 0.000483888 0 0)
(1.12395e-05 2.70291e-05 0 0.0004767 0 0)
(1.18689e-05 2.67927e-05 0 0.000462298 0 0)
(1.25258e-05 2.48538e-05 0 0.000442645 0 0)
(1.33306e-05 2.16171e-05 0 0.000419589 0 0)
(1.44282e-05 1.75582e-05 0 0.000394708 0 0)
(1.59585e-05 1.31388e-05 0 0.000369241 0 0)
(1.80347e-05 8.75329e-06 0 0.000344086 0 0)
(2.07301e-05 4.70291e-06 0 0.000319844 0 0)
(2.40749e-05 1.19198e-06 0 0.000296875 0 0)
(2.80589e-05 -1.66305e-06 0 0.000275358 0 0)
(3.26395e-05 -3.81841e-06 0 0.000255343 0 0)
(3.77509e-05 -5.28565e-06 0 0.00023679 0 0)
(4.33127e-05 -6.11487e-06 0 0.000219602 0 0)
(4.92381e-05 -6.38e-06 0 0.000203651 0 0)
(5.54393e-05 -6.16668e-06 0 0.000188794 0 0)
(6.18319e-05 -5.5629e-06 0 0.000174883 0 0)
(6.83368e-05 -4.65218e-06 0 0.000161777 0 0)
(7.48809e-05 -3.50919e-06 0 0.00014934 0 0)
(8.13959e-05 -2.19728e-06 0 0.00013745 0 0)
(8.78168e-05 -7.66583e-07 0 0.000125999 0 0)
(9.40785e-05 7.44631e-07 0 0.000114891 0 0)
(0.000100113 2.30835e-06 0 0.000104047 0 0)
(0.000105844 3.90479e-06 0 9.34083e-05 0 0)
(0.000111185 5.51873e-06 0 8.29322e-05 0 0)
(0.000116029 7.13545e-06 0 7.25998e-05 0 0)
(0.000120249 8.73506e-06 0 6.24178e-05 0 0)
(0.000123698 1.0299e-05 0 5.24261e-05 0 0)
(0.00012621 1.1783e-05 0 4.27203e-05 0 0)
(0.00012756 1.32537e-05 0 3.3555e-05 0 0)
(0.000127099 1.3852e-05 0 2.58369e-05 0 0)
(6.33339e-05 1.48116e-06 0 0.000110276 0 0)
(4.25355e-05 -1.72024e-05 0 0.00017728 0 0)
(2.28174e-05 -1.38892e-05 0 0.000244019 0 0)
(1.36202e-05 -9.13278e-06 0 0.000304783 0 0)
(1.01189e-05 -4.63577e-06 0 0.000357992 0 0)
(8.85071e-06 1.49142e-06 0 0.000402832 0 0)
(8.71544e-06 9.14239e-06 0 0.000438303 0 0)
(9.25845e-06 1.7347e-05 0 0.000463635 0 0)
(1.01947e-05 2.51944e-05 0 0.000478681 0 0)
(1.13124e-05 3.19858e-05 0 0.000483972 0 0)
(1.24507e-05 3.7238e-05 0 0.000480594 0 0)
(1.35007e-05 4.0708e-05 0 0.000470006 0 0)
(1.44118e-05 4.23897e-05 0 0.000453841 0 0)
(1.51897e-05 4.24671e-05 0 0.000433725 0 0)
(1.58856e-05 4.12446e-05 0 0.000411128 0 0)
(1.65789e-05 3.90765e-05 0 0.000387279 0 0)
(1.73591e-05 3.63115e-05 0 0.000363131 0 0)
(1.83094e-05 3.32567e-05 0 0.000339382 0 0)
(1.94963e-05 3.01593e-05 0 0.000316504 0 0)
(2.09637e-05 2.72011e-05 0 0.000294785 0 0)
(2.27319e-05 2.45017e-05 0 0.000274372 0 0)
(2.48003e-05 2.21269e-05 0 0.000255304 0 0)