/*--------------------------------*- C++ -*----------------------------------*\
  =========                 |
  \\      /  F ield         | OpenFOAM: The Open Source CFD Toolbox
   \\    /   O peration     | Website:  https://openfoam.org
    \\  /    A nd           | Version:  7
     \\/     M anipulation  |
\*---------------------------------------------------------------------------*/
FoamFile
{
    version     2.0;
    format      ascii;
    class       volScalarField;
    location    "2.6875";
    object      k;
}
// * * * * * * * * * * * * * * * * * * * * * * * * * * * * * * * * * * * * * //

dimensions      [0 2 -2 0 0 0 0];

internalField   nonuniform List<scalar> 
7920
(
52.0593
56.5408
56.5851
56.6411
56.5697
56.5809
56.5252
56.5383
56.5011
56.5152
56.4878
56.5001
56.4773
56.486
56.4696
56.4742
56.4717
56.4522
56.5351
56.6626
13.8495
14.0203
13.4472
12.8978
12.6366
12.5356
12.4487
12.4228
12.3774
12.3676
12.3385
12.3334
12.3159
12.3142
12.3027
12.3008
12.2943
12.2881
12.4566
12.4673
8.08987
9.22855
9.34863
9.3347
9.2963
9.28726
9.26369
9.25995
9.2436
9.24069
9.2274
9.22492
9.21405
9.21189
9.20303
9.20096
9.19397
9.19112
9.19449
9.21945
7.4868
8.75922
9.01274
9.10552
9.13045
9.16499
9.17131
9.1902
9.19197
9.20347
9.20316
9.21048
9.20907
9.21397
9.2119
9.21516
9.21284
9.21497
9.21498
9.23756
7.42177
8.70553
8.97178
9.08069
9.11877
9.16706
9.18344
9.21667
9.22707
9.25136
9.25868
9.27729
9.28243
9.29679
9.30038
9.31151
9.31398
9.32194
9.32516
9.35017
7.42866
8.70208
8.96667
9.07714
9.11891
9.17198
9.19329
9.23246
9.24755
9.27861
9.29034
9.31538
9.3246
9.3449
9.35208
9.36851
9.37412
9.38637
9.39332
9.4191
7.42866
8.70208
8.96667
9.07714
9.11891
9.17198
9.19329
9.23246
9.24755
9.27862
9.29033
9.31539
9.32459
9.34492
9.35207
9.36854
9.37412
9.38643
9.39338
9.41918
7.42177
8.70554
8.97177
9.0807
9.11876
9.16706
9.18343
9.21668
9.22706
9.25138
9.25866
9.27733
9.2824
9.29687
9.30032
9.31165
9.31392
9.32216
9.32519
9.35047
7.4868
8.75923
9.01274
9.10552
9.13045
9.165
9.1713
9.19022
9.19195
9.2035
9.20311
9.21056
9.20897
9.21415
9.21167
9.21557
9.21238
9.21583
9.2143
9.23848
8.08987
9.22855
9.34863
9.3347
9.29629
9.28726
9.26368
9.25997
9.24358
9.24073
9.22734
9.22501
9.21388
9.21211
9.2026
9.20156
9.19282
9.19333
9.19236
9.22271
13.8495
14.0203
13.4472
12.8978
12.6366
12.5356
12.4487
12.4228
12.3774
12.3677
12.3384
12.3335
12.3158
12.3144
12.3023
12.3015
12.2929
12.291
12.4489
12.4758
52.0593
56.5408
56.5851
56.6411
56.5697
56.5809
56.5252
56.5383
56.501
56.5154
56.4876
56.5004
56.4768
56.4868
56.4682
56.4766
56.4671
56.4607
56.516
56.7037
7.6796
9.68175
9.76856
9.64126
9.60619
9.53417
9.53102
9.48967
9.4911
9.46297
9.46556
9.44509
9.4475
9.4318
9.43402
9.42082
9.42473
9.40856
9.41208
9.45835
6.02307
8.25614
8.59991
8.64626
8.65205
8.65194
8.6502
8.64827
8.64571
8.64318
8.64067
8.63785
8.63588
8.63304
8.63175
8.62892
8.62784
8.6253
8.62939
8.63672
5.70484
7.90981
8.26344
8.33611
8.34875
8.36632
8.37167
8.38383
8.38776
8.3965
8.39923
8.40525
8.4073
8.41131
8.41339
8.41545
8.41835
8.41823
8.4202
8.45127
5.69636
7.90031
8.24986
8.31872
8.3239
8.33417
8.33412
8.34006
8.34149
8.34725
8.34894
8.35372
8.35551
8.35917
8.36137
8.36338
8.36666
8.36672
8.36978
8.38961
5.68453
7.88477
8.23394
8.30446
8.30867
8.31763
8.31532
8.3195
8.31834
8.32192
8.32151
8.32448
8.32453
8.32684
8.32718
8.32896
8.32948
8.33088
8.33188
8.35249
5.69086
7.89288
8.24111
8.31115
8.31516
8.32397
8.32144
8.32542
8.3238
8.32698
8.32593
8.32838
8.32768
8.32948
8.32898
8.33022
8.32992
8.33075
8.33062
8.34946
5.69086
7.89288
8.24111
8.31115
8.31516
8.32397
8.32144
8.32542
8.3238
8.32698
8.32592
8.32839
8.32767
8.32949
8.32896
8.33024
8.3299
8.33076
8.33065
8.34942
5.68453
7.88477
8.23394
8.30447
8.30867
8.31763
8.31531
8.3195
8.31833
8.32193
8.32149
8.32451
8.32449
8.32692
8.32712
8.32907
8.32938
8.331
8.33173
8.3525
5.69636
7.90032
8.24985
8.31873
8.3239
8.33418
8.33412
8.34008
8.34148
8.34728
8.34891
8.35379
8.35543
8.35937
8.36094
8.36395
8.36589
8.36718
8.3693
8.39016
5.70484
7.90981
8.26344
8.33611
8.34874
8.36633
8.37167
8.38385
8.38774
8.39654
8.39918
8.40534
8.40718
8.41158
8.41287
8.41634
8.41697
8.41995
8.41798
8.45354
6.02307
8.25614
8.59991
8.64626
8.65205
8.65194
8.6502
8.64828
8.64569
8.64321
8.64061
8.63794
8.63573
8.63329
8.63133
8.62965
8.62656
8.62728
8.6259
8.64315
7.6796
9.68175
9.76856
9.64126
9.60619
9.53417
9.53102
9.48968
9.49109
9.46298
9.46554
9.44513
9.44746
9.43191
9.4339
9.42115
9.42433
9.40972
9.41034
9.46342
0.477455
1.03645
1.13443
1.10503
1.03119
0.964369
0.91273
0.876034
0.849163
0.828301
0.813229
0.799487
0.789984
0.779821
0.773276
0.765582
0.760207
0.755939
0.747476
0.75566
0.0860629
0.382816
0.527193
0.589375
0.611473
0.625323
0.632255
0.639823
0.643594
0.647639
0.648987
0.650607
0.650683
0.650913
0.650566
0.65037
0.64975
0.64934
0.648519
0.651355
0.0642904
0.300136
0.416707
0.475128
0.493612
0.507246
0.510433
0.516924
0.519208
0.524164
0.52659
0.530999
0.533627
0.537273
0.539991
0.542923
0.545644
0.548066
0.549867
0.554396
0.0681525
0.30377
0.417889
0.473794
0.491836
0.503189
0.504887
0.507914
0.508069
0.509089
0.509365
0.510324
0.510875
0.511898
0.512969
0.51375
0.515311
0.51604
0.517379
0.520752
0.0663058
0.299764
0.412732
0.468614
0.486201
0.497514
0.498917
0.501656
0.501433
0.501923
0.50162
0.501824
0.501656
0.501767
0.501785
0.501856
0.502112
0.502198
0.502483
0.504654
0.0673394
0.302003
0.415379
0.471036
0.48878
0.499963
0.50152
0.504181
0.504
0.504433
0.504124
0.504234
0.504005
0.503983
0.503881
0.503752
0.503773
0.503673
0.503797
0.505672
0.0673393
0.302003
0.415379
0.471036
0.48878
0.499963
0.50152
0.504181
0.504
0.504433
0.504124
0.504234
0.504004
0.503983
0.503881
0.503753
0.503773
0.503674
0.503795
0.50567
0.0663057
0.299764
0.412732
0.468614
0.486201
0.497514
0.498917
0.501657
0.501433
0.501924
0.501619
0.501824
0.501656
0.501768
0.501785
0.501856
0.50211
0.502195
0.502479
0.504642
0.0681522
0.30377
0.417888
0.473794
0.491835
0.503189
0.504886
0.507915
0.508069
0.50909
0.509365
0.510329
0.510864
0.511913
0.512943
0.513769
0.515282
0.516026
0.517353
0.520705
0.0642902
0.300136
0.416706
0.475128
0.493611
0.507246
0.510433
0.516925
0.519208
0.524167
0.526581
0.531008
0.533608
0.537294
0.539945
0.542956
0.54557
0.548064
0.549812
0.554294
0.0860628
0.382816
0.527193
0.589376
0.611472
0.625324
0.632253
0.639827
0.643587
0.647647
0.648974
0.650617
0.650674
0.650919
0.650516
0.65038
0.649656
0.649367
0.64839
0.651364
0.477455
1.03645
1.13443
1.10503
1.03119
0.96437
0.912729
0.876037
0.849162
0.82831
0.813227
0.799513
0.789982
0.779886
0.773277
0.765741
0.760225
0.756276
0.747585
0.756629
0.477455
1.03645
1.13443
1.10503
1.03119
0.964369
0.91273
0.876034
0.849163
0.828301
0.813229
0.799487
0.789984
0.779821
0.773276
0.765582
0.760207
0.755939
0.747476
0.75566
0.0860629
0.382816
0.527193
0.589375
0.611473
0.625323
0.632255
0.639823
0.643594
0.647639
0.648987
0.650607
0.650683
0.650914
0.650566
0.65037
0.64975
0.64934
0.648519
0.651355
0.0642904
0.300136
0.416707
0.475128
0.493612
0.507246
0.510433
0.516924
0.519208
0.524164
0.52659
0.530999
0.533627
0.537273
0.539991
0.542923
0.545644
0.548066
0.549867
0.554396
0.0681525
0.30377
0.417889
0.473794
0.491836
0.503189
0.504887
0.507914
0.508069
0.50909
0.509365
0.510324
0.510875
0.511898
0.512969
0.51375
0.515312
0.51604
0.517379
0.520752
0.0663058
0.299764
0.412732
0.468614
0.486201
0.497514
0.498917
0.501656
0.501433
0.501923
0.50162
0.501824
0.501656
0.501767
0.501785
0.501856
0.502112
0.502198
0.502483
0.504654
0.0673394
0.302003
0.415379
0.471036
0.48878
0.499963
0.50152
0.504181
0.504
0.504433
0.504124
0.504234
0.504005
0.503983
0.503881
0.503752
0.503773
0.503673
0.503797
0.505672
0.0673393
0.302003
0.415379
0.471036
0.48878
0.499963
0.50152
0.504181
0.504
0.504433
0.504124
0.504234
0.504004
0.503983
0.503881
0.503753
0.503773
0.503674
0.503795
0.50567
0.0663057
0.299764
0.412732
0.468614
0.486201
0.497514
0.498917
0.501657
0.501433
0.501924
0.501619
0.501824
0.501656
0.501768
0.501785
0.501856
0.50211
0.502195
0.502479
0.504642
0.0681522
0.30377
0.417888
0.473794
0.491835
0.503189
0.504886
0.507915
0.508069
0.50909
0.509365
0.510329
0.510864
0.511913
0.512943
0.513769
0.515283
0.516026
0.517353
0.520705
0.0642902
0.300136
0.416706
0.475128
0.493611
0.507246
0.510433
0.516925
0.519208
0.524167
0.526581
0.531008
0.533608
0.537294
0.539945
0.542956
0.54557
0.548064
0.549812
0.554294
0.0860628
0.382816
0.527193
0.589376
0.611472
0.625324
0.632253
0.639827
0.643587
0.647647
0.648974
0.650617
0.650674
0.650919
0.650516
0.65038
0.649656
0.649367
0.64839
0.651364
0.477455
1.03645
1.13443
1.10503
1.03119
0.96437
0.912729
0.876037
0.849162
0.82831
0.813227
0.799513
0.789982
0.779886
0.773277
0.765741
0.760225
0.756276
0.747585
0.756629
7.6796
9.68175
9.76856
9.64126
9.60619
9.53417
9.53102
9.48967
9.4911
9.46297
9.46556
9.44509
9.4475
9.4318
9.43402
9.42082
9.42473
9.40856
9.41208
9.45835
6.02307
8.25614
8.59991
8.64626
8.65205
8.65194
8.6502
8.64827
8.64571
8.64318
8.64067
8.63785
8.63588
8.63304
8.63175
8.62892
8.62784
8.6253
8.62939
8.63672
5.70484
7.90981
8.26344
8.33611
8.34875
8.36632
8.37167
8.38383
8.38776
8.3965
8.39923
8.40525
8.4073
8.41131
8.41339
8.41545
8.41835
8.41823
8.4202
8.45127
5.69636
7.90031
8.24986
8.31872
8.3239
8.33417
8.33412
8.34006
8.34149
8.34725
8.34894
8.35372
8.35551
8.35917
8.36137
8.36338
8.36666
8.36672
8.36978
8.38961
5.68453
7.88477
8.23394
8.30446
8.30867
8.31763
8.31532
8.3195
8.31834
8.32192
8.32151
8.32448
8.32453
8.32684
8.32718
8.32896
8.32948
8.33088
8.33188
8.35249
5.69086
7.89288
8.24111
8.31115
8.31516
8.32397
8.32144
8.32542
8.3238
8.32698
8.32593
8.32838
8.32768
8.32948
8.32898
8.33022
8.32992
8.33075
8.33062
8.34946
5.69086
7.89288
8.24111
8.31115
8.31516
8.32397
8.32144
8.32542
8.3238
8.32698
8.32592
8.32839
8.32767
8.32949
8.32896
8.33024
8.3299
8.33076
8.33065
8.34942
5.68453
7.88477
8.23394
8.30447
8.30867
8.31763
8.31531
8.3195
8.31833
8.32193
8.32149
8.32451
8.32449
8.32692
8.32712
8.32907
8.32938
8.331
8.33173
8.3525
5.69636
7.90032
8.24985
8.31873
8.3239
8.33418
8.33412
8.34008
8.34148
8.34728
8.34891
8.35379
8.35543
8.35937
8.36094
8.36395
8.36589
8.36718
8.3693
8.39016
5.70484
7.90981
8.26344
8.33611
8.34874
8.36633
8.37167
8.38385
8.38774
8.39654
8.39918
8.40534
8.40718
8.41158
8.41287
8.41634
8.41697
8.41995
8.41798
8.45354
6.02307
8.25614
8.59991
8.64626
8.65205
8.65194
8.6502
8.64828
8.64569
8.64321
8.64061
8.63794
8.63573
8.63329
8.63133
8.62965
8.62656
8.62728
8.6259
8.64315
7.6796
9.68175
9.76856
9.64126
9.60619
9.53417
9.53102
9.48968
9.49109
9.46298
9.46554
9.44513
9.44746
9.43191
9.4339
9.42115
9.42433
9.40972
9.41034
9.46342
52.0593
56.5408
56.5851
56.6411
56.5697
56.5809
56.5252
56.5383
56.5011
56.5152
56.4878
56.5001
56.4773
56.486
56.4696
56.4742
56.4717
56.4522
56.5351
56.6626
13.8495
14.0203
13.4472
12.8978
12.6366
12.5356
12.4487
12.4228
12.3774
12.3676
12.3385
12.3334
12.3159
12.3142
12.3027
12.3008
12.2943
12.2881
12.4566
12.4673
8.08987
9.22855
9.34863
9.3347
9.2963
9.28726
9.26369
9.25995
9.2436
9.24069
9.2274
9.22492
9.21405
9.21189
9.20303
9.20096
9.19397
9.19112
9.19449
9.21945
7.4868
8.75922
9.01274
9.10552
9.13045
9.16499
9.17131
9.1902
9.19197
9.20347
9.20316
9.21048
9.20907
9.21397
9.2119
9.21516
9.21284
9.21497
9.21498
9.23756
7.42177
8.70553
8.97178
9.08069
9.11877
9.16706
9.18344
9.21667
9.22707
9.25136
9.25868
9.27729
9.28243
9.29679
9.30038
9.31151
9.31398
9.32194
9.32516
9.35017
7.42866
8.70208
8.96667
9.07714
9.11891
9.17198
9.19329
9.23246
9.24755
9.27861
9.29034
9.31538
9.3246
9.3449
9.35208
9.36851
9.37412
9.38637
9.39332
9.4191
7.42866
8.70208
8.96667
9.07714
9.11891
9.17198
9.19329
9.23246
9.24755
9.27862
9.29033
9.31539
9.32459
9.34492
9.35207
9.36854
9.37412
9.38643
9.39338
9.41918
7.42177
8.70554
8.97177
9.0807
9.11876
9.16706
9.18343
9.21668
9.22706
9.25138
9.25866
9.27733
9.2824
9.29687
9.30032
9.31165
9.31392
9.32216
9.32519
9.35046
7.4868
8.75923
9.01274
9.10552
9.13045
9.165
9.1713
9.19022
9.19195
9.2035
9.20311
9.21056
9.20897
9.21415
9.21167
9.21557
9.21238
9.21583
9.2143
9.23848
8.08987
9.22855
9.34863
9.3347
9.29629
9.28726
9.26368
9.25997
9.24358
9.24073
9.22734
9.22501
9.21388
9.21211
9.2026
9.20156
9.19282
9.19332
9.19236
9.22271
13.8495
14.0203
13.4472
12.8978
12.6366
12.5356
12.4487
12.4228
12.3774
12.3677
12.3384
12.3335
12.3158
12.3144
12.3023
12.3015
12.2929
12.291
12.4489
12.4758
52.0593
56.5408
56.5851
56.6411
56.5697
56.5809
56.5252
56.5383
56.501
56.5154
56.4876
56.5004
56.4768
56.4868
56.4682
56.4766
56.4671
56.4607
56.516
56.7037
144.296
146.405
147.437
148.289
148.952
149.587
150.121
150.647
151.101
151.551
151.951
152.354
152.721
153.09
153.428
153.767
154.079
154.393
154.686
154.979
155.252
155.523
155.776
156.025
156.256
156.482
156.69
156.891
157.074
157.249
157.405
157.552
157.682
157.803
157.906
158
158.079
158.15
158.207
158.258
158.297
158.331
158.356
158.377
158.39
158.403
158.409
158.415
158.417
158.421
158.421
158.423
158.422
158.424
158.423
158.424
158.423
158.424
158.423
158.424
158.424
158.424
158.424
158.425
158.424
158.425
158.424
158.425
158.424
158.425
158.424
158.425
158.424
158.425
158.424
158.425
158.424
158.425
158.424
158.424
158.423
158.424
158.422
158.423
158.421
158.421
158.417
158.419
158.385
158.365
47.3513
49.1138
49.4376
49.7296
49.9249
50.1472
50.3063
50.492
50.6285
50.7882
50.9093
51.0523
51.1642
51.2951
51.3989
51.5188
51.6152
51.7264
51.8172
51.9211
52.0061
52.1021
52.1807
52.269
52.341
52.4215
52.4864
52.5582
52.6149
52.6775
52.7258
52.7792
52.8189
52.8631
52.8944
52.9296
52.9529
52.9801
52.9965
53.0169
53.0276
53.0422
53.0482
53.0584
53.061
53.0679
53.0684
53.0731
53.0724
53.076
53.0749
53.0779
53.0766
53.0792
53.078
53.0804
53.0793
53.0816
53.0805
53.0827
53.0817
53.0839
53.083
53.085
53.0841
53.086
53.0853
53.0871
53.0864
53.0881
53.0875
53.089
53.0885
53.0899
53.0894
53.0908
53.0902
53.0915
53.091
53.0921
53.0915
53.0925
53.0918
53.0927
53.0918
53.0926
53.091
53.0926
53.0746
53.0653
30.5376
32.5617
32.7611
32.9511
33.0465
33.1959
33.2762
33.4042
33.4753
33.5867
33.6503
33.7501
33.81
33.902
33.9588
34.0434
34.0966
34.175
34.2256
34.2991
34.3471
34.4155
34.4602
34.5233
34.5645
34.6224
34.6599
34.7122
34.7451
34.7914
34.8195
34.8597
34.8828
34.917
34.9351
34.9633
34.9765
34.9992
35.0082
35.0261
35.0316
35.0454
35.0482
35.0585
35.0592
35.067
35.0663
35.0725
35.071
35.0761
35.0744
35.0789
35.0771
35.0813
35.0796
35.0835
35.082
35.0857
35.0844
35.0879
35.0867
35.0901
35.089
35.0922
35.0913
35.0943
35.0935
35.0964
35.0957
35.0984
35.0978
35.1004
35.0999
35.1023
35.1019
35.1041
35.1037
35.1059
35.1055
35.1074
35.107
35.1088
35.1084
35.11
35.1094
35.111
35.1099
35.1118
35.1067
35.0861
28.2979
30.7255
30.9222
31.0881
31.1509
31.2816
31.3372
31.4528
31.5048
31.6075
31.6546
31.7468
31.7922
31.8783
31.9228
32.0028
32.045
32.1191
32.1595
32.2294
32.2686
32.334
32.3709
32.4315
32.4658
32.5219
32.5535
32.6049
32.6331
32.6791
32.7033
32.7439
32.7642
32.7994
32.8155
32.8452
32.8572
32.8816
32.8899
32.9096
32.9149
32.9305
32.9332
32.9454
32.9462
32.9556
32.9549
32.9625
32.961
32.9674
32.9656
32.9712
32.9693
32.9746
32.9728
32.9777
32.9762
32.9808
32.9795
32.9839
32.9827
32.987
32.986
32.99
32.9892
32.993
32.9923
32.996
32.9954
32.9989
32.9985
33.0018
33.0014
33.0046
33.0043
33.0073
33.0071
33.0099
33.0097
33.0123
33.0121
33.0146
33.0144
33.0166
33.0163
33.0185
33.0179
33.0199
33.0201
32.9953
28.1278
30.7997
31.0048
31.1591
31.1993
31.3139
31.3526
31.4567
31.496
31.5909
31.6275
31.7131
31.7494
31.8306
31.8675
31.9442
31.9795
32.0508
32.0849
32.1525
32.1862
32.2501
32.2822
32.3414
32.3715
32.4267
32.4549
32.5059
32.5314
32.5776
32.5997
32.6409
32.6597
32.696
32.7113
32.7423
32.7539
32.7797
32.788
32.8091
32.8146
32.8316
32.8347
32.8483
32.8493
32.86
32.8596
32.8682
32.8669
32.8742
32.8724
32.8789
32.877
32.883
32.8812
32.8868
32.8853
32.8907
32.8893
32.8944
32.8933
32.8982
32.8973
32.902
32.9012
32.9057
32.9051
32.9093
32.9089
32.913
32.9127
32.9165
32.9163
32.92
32.9199
32.9234
32.9233
32.9266
32.9266
32.9297
32.9297
32.9326
32.9326
32.9352
32.9351
32.9376
32.9374
32.9394
32.9412
32.9137
28.2099
31.0322
31.2408
31.3815
31.4023
31.4979
31.5211
31.6103
31.6378
31.7216
31.7486
31.825
31.853
31.9267
31.9568
32.0276
32.0569
32.1229
32.1516
32.2145
32.2434
32.3035
32.3311
32.3872
32.4132
32.4657
32.4904
32.5394
32.5621
32.6066
32.6266
32.6666
32.6838
32.7193
32.7336
32.7644
32.7754
32.8012
32.8092
32.8306
32.836
32.8536
32.8567
32.8709
32.8721
32.8834
32.8831
32.8923
32.891
32.8988
32.897
32.9039
32.9021
32.9084
32.9068
32.9127
32.9112
32.9169
32.9157
32.9211
32.9201
32.9252
32.9244
32.9294
32.9287
32.9335
32.933
32.9376
32.9372
32.9416
32.9414
32.9455
32.9455
32.9494
32.9494
32.9532
32.9533
32.9568
32.9569
32.9602
32.9604
32.9635
32.9637
32.9665
32.9667
32.9693
32.9695
32.9711
32.9745
32.9455
28.2114
31.0225
31.2126
31.3327
31.3352
31.4114
31.4204
31.494
31.5103
31.5814
31.5991
31.6649
31.6849
31.7496
31.7728
31.8355
31.8586
31.9173
31.9403
31.9966
32.0203
32.0743
32.0972
32.1478
32.1695
32.217
32.2378
32.2824
32.3017
32.3425
32.3595
32.3964
32.4113
32.4442
32.4567
32.4855
32.4952
32.5195
32.5265
32.5469
32.5517
32.5686
32.5714
32.5852
32.5862
32.5973
32.5969
32.606
32.6047
32.6124
32.6107
32.6175
32.6157
32.622
32.6204
32.6263
32.6249
32.6305
32.6293
32.6347
32.6337
32.6388
32.638
32.643
32.6423
32.6471
32.6466
32.6512
32.6508
32.6552
32.655
32.6591
32.6591
32.663
32.663
32.6667
32.6669
32.6704
32.6706
32.6738
32.6741
32.6771
32.6773
32.6801
32.6803
32.6829
32.6832
32.6847
32.6884
32.6598
28.1304
30.7599
30.9033
30.9935
30.9789
31.0376
31.0338
31.093
31.0993
31.1575
31.1669
31.2215
31.2342
31.2887
31.3049
31.3581
31.3747
31.4245
31.4416
31.4897
31.5076
31.5538
31.5714
31.6146
31.6314
31.6721
31.6884
31.7268
31.7419
31.7771
31.7906
31.8225
31.8343
31.863
31.8729
31.8981
31.9057
31.9271
31.9326
31.9507
31.9543
31.9694
31.9714
31.9839
31.9844
31.9945
31.9938
32.0022
32.0008
32.0079
32.0061
32.0125
32.0107
32.0166
32.0149
32.0205
32.019
32.0243
32.023
32.0281
32.027
32.0318
32.0309
32.0356
32.0348
32.0393
32.0387
32.043
32.0425
32.0466
32.0463
32.0501
32.05
32.0536
32.0535
32.057
32.057
32.0602
32.0603
32.0633
32.0634
32.0662
32.0663
32.0689
32.0689
32.0713
32.0714
32.0728
32.0758
32.05
28.2805
30.6014
30.684
30.7424
30.7162
30.7588
30.7466
30.7925
30.7908
30.8362
30.8386
30.8816
30.888
30.9314
30.9412
30.9834
30.9939
31.0336
31.0448
31.0832
31.0955
31.1323
31.1444
31.1789
31.1905
31.2232
31.2346
31.2654
31.276
31.3042
31.3137
31.3394
31.3477
31.3709
31.3778
31.3981
31.4033
31.4208
31.4244
31.4392
31.4414
31.4539
31.4549
31.4653
31.4651
31.4736
31.4726
31.4797
31.4781
31.4843
31.4824
31.488
31.4861
31.4913
31.4896
31.4945
31.4929
31.4976
31.4962
31.5006
31.4995
31.5037
31.5027
31.5068
31.5059
31.5098
31.5091
31.5128
31.5122
31.5157
31.5152
31.5186
31.5182
31.5214
31.5211
31.5241
31.5239
31.5267
31.5265
31.5291
31.529
31.5314
31.5313
31.5335
31.5334
31.5354
31.5353
31.5366
31.538
31.5152
30.4325
32.2361
32.2541
32.2895
32.2588
32.2902
32.2741
32.3087
32.302
32.3358
32.333
32.3652
32.3664
32.3985
32.4026
32.4334
32.4383
32.4672
32.4731
32.5011
32.5079
32.5346
32.5413
32.5663
32.573
32.5966
32.6033
32.6255
32.6317
32.6521
32.6576
32.6762
32.681
32.6978
32.7017
32.7164
32.7192
32.7319
32.7336
32.7446
32.7454
32.7547
32.7547
32.7625
32.7617
32.7683
32.7669
32.7725
32.7708
32.7756
32.7738
32.7783
32.7765
32.7806
32.779
32.7829
32.7815
32.7851
32.7839
32.7874
32.7862
32.7896
32.7886
32.7917
32.7909
32.7939
32.7931
32.796
32.7953
32.7981
32.7975
32.8001
32.7996
32.802
32.8016
32.8039
32.8035
32.8056
32.8053
32.8073
32.807
32.8088
32.8085
32.8101
32.8097
32.8111
32.8105
32.8117
32.8095
32.7915
46.9414
48.2291
48.2231
48.2465
48.2216
48.2454
48.2331
48.2594
48.2546
48.2799
48.2783
48.3023
48.304
48.3277
48.3315
48.354
48.3583
48.3793
48.3844
48.4047
48.4104
48.4296
48.4352
48.453
48.4586
48.4754
48.4809
48.4967
48.5018
48.5162
48.5207
48.5338
48.5377
48.5495
48.5527
48.563
48.5653
48.5742
48.5756
48.5832
48.584
48.5904
48.5905
48.5958
48.5953
48.5997
48.5987
48.6024
48.6012
48.6044
48.6031
48.606
48.6047
48.6074
48.6062
48.6087
48.6076
48.6099
48.6089
48.6112
48.6103
48.6124
48.6116
48.6136
48.6129
48.6148
48.6142
48.616
48.6154
48.6171
48.6166
48.6182
48.6177
48.6192
48.6188
48.6202
48.6197
48.621
48.6206
48.6218
48.6214
48.6224
48.622
48.6228
48.6223
48.623
48.6221
48.6231
48.608
48.6007
142.654
143.277
143.3
143.332
143.319
143.349
143.351
143.385
143.397
143.431
143.445
143.477
143.495
143.528
143.548
143.579
143.598
143.628
143.647
143.675
143.695
143.722
143.74
143.765
143.783
143.806
143.823
143.845
143.86
143.88
143.894
143.912
143.924
143.94
143.95
143.964
143.972
143.983
143.99
143.999
144.003
144.01
144.014
144.019
144.021
144.025
144.025
144.028
144.028
144.03
144.03
144.031
144.031
144.032
144.031
144.033
144.032
144.033
144.033
144.034
144.033
144.034
144.034
144.035
144.034
144.035
144.035
144.036
144.036
144.036
144.036
144.037
144.036
144.037
144.037
144.038
144.037
144.038
144.037
144.038
144.037
144.038
144.037
144.038
144.037
144.037
144.035
144.036
144.008
143.993
30.2248
30.9863
31.2084
31.3747
31.5151
31.643
31.7542
31.8623
31.9553
32.0496
32.1308
32.2166
32.2904
32.3697
32.4372
32.5105
32.5727
32.6412
32.6994
32.7637
32.8178
32.8774
32.9273
32.9822
33.0277
33.0778
33.1186
33.1632
33.1987
33.2375
33.2676
33.3007
33.3253
33.3525
33.3717
33.3933
33.4075
33.4241
33.434
33.4464
33.4527
33.4616
33.465
33.4711
33.4725
33.4766
33.4767
33.4796
33.479
33.4813
33.4804
33.4823
33.4814
33.4831
33.4822
33.4838
33.483
33.4845
33.4838
33.4852
33.4845
33.4859
33.4853
33.4866
33.486
33.4872
33.4867
33.4879
33.4875
33.4885
33.4882
33.4892
33.4889
33.4898
33.4896
33.4905
33.4903
33.4912
33.491
33.4919
33.4918
33.4927
33.4926
33.4936
33.4936
33.495
33.4949
33.4973
33.4935
33.4938
28.0941
29.4165
29.6375
29.802
29.9341
30.0594
30.1654
30.2706
30.3601
30.4512
30.5295
30.6118
30.6833
30.7591
30.8247
30.8945
30.9549
31.02
31.0765
31.1375
31.1901
31.2466
31.2951
31.3471
31.3915
31.4389
31.4788
31.5211
31.5559
31.5927
31.6224
31.6537
31.6782
31.704
31.7233
31.7438
31.7582
31.774
31.7842
31.7959
31.8026
31.8109
31.8148
31.8205
31.8223
31.826
31.8265
31.829
31.8288
31.8306
31.8301
31.8316
31.831
31.8323
31.8318
31.8329
31.8324
31.8335
31.8331
31.8341
31.8337
31.8347
31.8344
31.8354
31.835
31.836
31.8357
31.8366
31.8363
31.8372
31.837
31.8378
31.8376
31.8384
31.8382
31.839
31.8389
31.8396
31.8395
31.8402
31.8401
31.8408
31.8407
31.8415
31.8412
31.8423
31.8416
31.8432
31.8422
31.8437
25.8921
27.723
27.961
28.1096
28.2293
28.341
28.4386
28.5334
28.6174
28.6997
28.7732
28.8472
28.9146
28.9832
29.0457
29.1091
29.1666
29.2255
29.2794
29.3348
29.3852
29.4368
29.4834
29.5309
29.5736
29.6172
29.6559
29.695
29.7293
29.7635
29.793
29.8223
29.847
29.8714
29.8913
29.9108
29.9261
29.941
29.9523
29.9634
29.9711
29.979
29.984
29.9892
29.992
29.9952
29.9965
29.9985
29.9989
30.0001
30.0001
30.001
30.0008
30.0015
30.0013
30.0019
30.0018
30.0023
30.0022
30.0027
30.0026
30.0031
30.003
30.0035
30.0034
30.0039
30.0039
30.0044
30.0043
30.0048
30.0048
30.0052
30.0052
30.0057
30.0057
30.0061
30.0061
30.0066
30.0066
30.007
30.007
30.0075
30.0073
30.0079
30.0076
30.0082
30.0076
30.0084
30.007
29.9876
25.153
27.2371
27.4717
27.5979
27.6991
27.7962
27.8827
27.9684
28.0459
28.1218
28.1904
28.2586
28.3219
28.386
28.4457
28.5054
28.5604
28.6157
28.6672
28.7195
28.7682
28.8172
28.8624
28.9075
28.9492
28.9908
29.029
29.0668
29.1009
29.1342
29.1639
29.1928
29.218
29.2424
29.2632
29.2829
29.2993
29.3146
29.3269
29.3384
29.3472
29.3555
29.3615
29.367
29.3706
29.374
29.3759
29.3779
29.3787
29.3798
29.3801
29.3807
29.3807
29.3812
29.3811
29.3815
29.3814
29.3818
29.3817
29.382
29.382
29.3823
29.3823
29.3826
29.3825
29.3828
29.3828
29.3831
29.3831
29.3834
29.3834
29.3837
29.3837
29.384
29.3841
29.3843
29.3844
29.3846
29.3847
29.3849
29.3849
29.3852
29.3852
29.3855
29.3853
29.3857
29.3851
29.3858
29.385
29.3708
24.7012
26.9487
27.1693
27.2692
27.3466
27.4248
27.4959
27.5694
27.6369
27.7043
27.7651
27.826
27.8829
27.9409
27.9954
28.05
28.1006
28.1511
28.1985
28.2466
28.2918
28.3373
28.3794
28.4215
28.4604
28.4994
28.5355
28.5713
28.6038
28.6357
28.6642
28.6921
28.7167
28.7406
28.7612
28.7808
28.7973
28.8128
28.8254
28.8371
28.8464
28.855
28.8615
28.8674
28.8715
28.8752
28.8774
28.8796
28.8806
28.8817
28.8821
28.8828
28.8828
28.8832
28.8832
28.8835
28.8834
28.8837
28.8836
28.8839
28.8838
28.8841
28.884
28.8843
28.8843
28.8845
28.8845
28.8847
28.8847
28.885
28.885
28.8852
28.8852
28.8854
28.8855
28.8857
28.8857
28.8859
28.8859
28.8862
28.8862
28.8864
28.8863
28.8866
28.8864
28.8867
28.8861
28.8865
28.8858
28.8639
24.6075
26.8982
27.0964
27.1687
27.2224
27.2806
27.3355
27.3949
27.4511
27.5082
27.5602
27.6126
27.6619
27.7132
27.7616
27.8107
27.8559
27.9015
27.9439
27.9875
28.0284
28.0699
28.1082
28.1467
28.1821
28.218
28.2511
28.2843
28.3144
28.3441
28.3708
28.397
28.4202
28.4429
28.4626
28.4816
28.4975
28.5125
28.5248
28.5364
28.5457
28.5543
28.5609
28.5669
28.5711
28.575
28.5774
28.5796
28.5807
28.582
28.5824
28.583
28.5831
28.5835
28.5835
28.5838
28.5837
28.584
28.5839
28.5841
28.5841
28.5843
28.5843
28.5845
28.5845
28.5847
28.5846
28.5849
28.5848
28.5851
28.5851
28.5853
28.5853
28.5855
28.5855
28.5857
28.5857
28.5859
28.5859
28.5861
28.5861
28.5863
28.5862
28.5865
28.5863
28.5866
28.5861
28.5865
28.5858
28.5664
24.6077
26.8869
27.0667
27.119
27.1541
27.1955
27.2356
27.2814
27.3258
27.372
27.4141
27.4573
27.4982
27.5415
27.5826
27.6247
27.6633
27.7025
27.7389
27.7767
27.8121
27.8483
27.8815
27.9151
27.9459
27.9774
28.0063
28.0357
28.0622
28.0886
28.1122
28.1356
28.1563
28.1768
28.1945
28.2117
28.2261
28.2399
28.2511
28.2619
28.2704
28.2785
28.2846
28.2903
28.2943
28.298
28.3003
28.3025
28.3035
28.3048
28.3051
28.3058
28.3059
28.3063
28.3062
28.3065
28.3065
28.3067
28.3067
28.3069
28.3069
28.3071
28.3071
28.3073
28.3073
28.3075
28.3075
28.3077
28.3077
28.3079
28.3079
28.3081
28.3081
28.3083
28.3083
28.3085
28.3085
28.3087
28.3087
28.3089
28.3089
28.3091
28.3091
28.3093
28.3091
28.3094
28.3091
28.3093
28.3088
28.2899
24.7009
26.9059
27.0687
27.1087
27.1319
27.1611
27.1894
27.2242
27.2577
27.2937
27.3263
27.3606
27.3931
27.4282
27.4614
27.4956
27.527
27.5589
27.5887
27.6197
27.6488
27.6787
27.7061
27.7339
27.7594
27.7855
27.8096
27.834
27.8561
27.8782
27.8978
27.9175
27.9349
27.9522
27.9672
27.9818
27.9939
28.0057
28.0152
28.0244
28.0317
28.0387
28.0439
28.0489
28.0524
28.0556
28.0575
28.0595
28.0604
28.0615
28.0618
28.0624
28.0625
28.0629
28.0629
28.0632
28.0631
28.0634
28.0634
28.0636
28.0636
28.0639
28.0638
28.0641
28.0641
28.0643
28.0643
28.0646
28.0646
28.0648
28.0648
28.0651
28.0651
28.0653
28.0653
28.0656
28.0656
28.0658
28.0659
28.0661
28.0661
28.0664
28.0663
28.0666
28.0664
28.0667
28.0663
28.0664
28.0663
28.0461
25.1336
27.117
27.2435
27.2706
27.285
27.3046
27.3237
27.3485
27.3721
27.3981
27.4214
27.4468
27.4708
27.4974
27.5222
27.5484
27.5718
27.5964
27.6189
27.6431
27.6651
27.6883
27.709
27.7306
27.75
27.7704
27.7888
27.8079
27.8247
27.842
27.857
27.8725
27.8858
27.8994
27.9109
27.9224
27.9317
27.941
27.9483
27.9556
27.9612
27.9668
27.9708
27.9749
27.9774
27.9801
27.9815
27.9832
27.9838
27.9848
27.985
27.9856
27.9857
27.9861
27.9861
27.9865
27.9864
27.9868
27.9867
27.9871
27.9871
27.9874
27.9874
27.9877
27.9877
27.988
27.988
27.9883
27.9883
27.9886
27.9887
27.989
27.989
27.9893
27.9894
27.9897
27.9897
27.99
27.99
27.9903
27.9904
27.9907
27.9906
27.991
27.9909
27.9912
27.991
27.9911
27.991
27.979
25.8137
27.4579
27.5392
27.5553
27.5626
27.5749
27.586
27.6026
27.6167
27.6342
27.6483
27.6658
27.6808
27.6995
27.715
27.7334
27.7481
27.7655
27.7798
27.797
27.811
27.8275
27.8406
27.856
27.8683
27.8829
27.8946
27.9083
27.919
27.9314
27.9409
27.9521
27.9605
27.9704
27.9776
27.9859
27.9917
27.9986
28.003
28.0086
28.0119
28.0162
28.0185
28.0218
28.0232
28.0254
28.0261
28.0276
28.0278
28.0289
28.0288
28.0297
28.0295
28.0302
28.03
28.0307
28.0305
28.0311
28.031
28.0316
28.0315
28.032
28.0319
28.0325
28.0324
28.0329
28.0329
28.0334
28.0334
28.0339
28.0339
28.0344
28.0344
28.0348
28.0349
28.0353
28.0354
28.0358
28.0359
28.0363
28.0364
28.0368
28.0368
28.0373
28.0372
28.0378
28.0375
28.0379
28.0383
28.0214
27.8756
28.9197
28.9426
28.9472
28.9466
28.9542
28.9574
28.9686
28.9736
28.9856
28.9907
29.0031
29.009
29.022
29.0283
29.0409
29.0469
29.059
29.0649
29.0769
29.0828
29.0942
29.0997
29.1104
29.1156
29.1258
29.1307
29.1403
29.1448
29.1535
29.1575
29.1654
29.1689
29.176
29.1789
29.185
29.1872
29.1924
29.1939
29.1983
29.1993
29.2029
29.2034
29.2063
29.2064
29.2087
29.2085
29.2103
29.2099
29.2114
29.2109
29.2123
29.2117
29.213
29.2125
29.2137
29.2132
29.2144
29.214
29.215
29.2147
29.2157
29.2154
29.2164
29.2161
29.217
29.2168
29.2177
29.2175
29.2184
29.2182
29.219
29.2189
29.2197
29.2196
29.2204
29.2203
29.2211
29.221
29.2218
29.2217
29.2225
29.2224
29.2233
29.2231
29.2241
29.2239
29.2251
29.2254
29.2278
29.8392
30.2752
30.2816
30.2753
30.2721
30.2724
30.2708
30.2753
30.2744
30.2805
30.2796
30.2866
30.2861
30.2938
30.2936
30.3014
30.3012
30.3089
30.3089
30.3166
30.3168
30.3242
30.3244
30.3315
30.3318
30.3386
30.3389
30.3454
30.3456
30.3516
30.3517
30.3573
30.3573
30.3624
30.3623
30.3669
30.3666
30.3706
30.3701
30.3737
30.3731
30.3762
30.3755
30.3782
30.3773
30.3798
30.3788
30.381
30.38
30.3819
30.381
30.3828
30.3819
30.3836
30.3828
30.3844
30.3836
30.3851
30.3845
30.3859
30.3853
30.3866
30.3861
30.3874
30.3869
30.3881
30.3877
30.3889
30.3885
30.3896
30.3892
30.3903
30.39
30.391
30.3908
30.3917
30.3916
30.3925
30.3924
30.3933
30.3932
30.3942
30.3942
30.3952
30.3954
30.3967
30.397
30.3991
30.396
30.3965
3.62824
3.82683
3.84781
3.85786
3.87503
3.89083
3.90629
3.92376
3.93622
3.95379
3.96364
3.98086
3.98865
4.00518
4.01137
4.02703
4.03208
4.0469
4.05109
4.06502
4.06849
4.08149
4.08435
4.0964
4.0987
4.10977
4.11151
4.12154
4.12273
4.13172
4.13238
4.14034
4.14048
4.14745
4.14711
4.15317
4.15241
4.15767
4.15657
4.16114
4.15978
4.16376
4.16225
4.16575
4.16416
4.1673
4.16572
4.16858
4.16706
4.16972
4.16829
4.17077