/*--------------------------------*- C++ -*----------------------------------*\
  =========                 |
  \\      /  F ield         | OpenFOAM: The Open Source CFD Toolbox
   \\    /   O peration     | Website:  https://openfoam.org
    \\  /    A nd           | Version:  7
     \\/     M anipulation  |
\*---------------------------------------------------------------------------*/
FoamFile
{
    version     2.0;
    format      ascii;
    class       volVectorField;
    location    "0.2775";
    object      UMean;
}
// * * * * * * * * * * * * * * * * * * * * * * * * * * * * * * * * * * * * * //

dimensions      [0 1 -1 0 0 0 0];

internalField   nonuniform List<vector> 
8640
(
(4.22156 0.16317 -32.3259)
(4.21182 0.047194 -32.4298)
(3.76468 0.0248422 -32.4325)
(3.601 -0.0675052 -32.4406)
(3.24538 -0.135827 -32.4437)
(3.09848 -0.209411 -32.4504)
(2.8323 -0.270865 -32.4527)
(2.73677 -0.324574 -32.4578)
(2.54901 -0.369353 -32.4595)
(2.50097 -0.405885 -32.4637)
(2.37382 -0.435601 -32.4652)
(2.35881 -0.459335 -32.4687)
(2.27385 -0.478127 -32.4699)
(2.27769 -0.49315 -32.4726)
(2.22019 -0.504843 -32.4735)
(2.23285 -0.514411 -32.4757)
(2.19273 -0.521816 -32.4764)
(2.20831 -0.528093 -32.4782)
(2.17927 -0.532942 -32.4788)
(2.19477 -0.5372 -32.4803)
(2.17302 -0.540483 -32.4809)
(2.18717 -0.543459 -32.4822)
(2.17041 -0.545722 -32.4828)
(2.18277 -0.547821 -32.4839)
(2.16954 -0.549382 -32.4844)
(2.18008 -0.55088 -32.4854)
(2.16943 -0.552007 -32.4859)
(2.17839 -0.55315 -32.4867)
(2.16973 -0.554037 -32.4872)
(2.1773 -0.554979 -32.4879)
(2.16995 -0.555703 -32.4883)
(2.17606 -0.556404 -32.4889)
(2.1694 -0.556862 -32.4893)
(2.17424 -0.557234 -32.4898)
(2.16815 -0.557413 -32.4901)
(2.17221 -0.557559 -32.4905)
(2.16672 -0.55759 -32.4907)
(2.17033 -0.557658 -32.4909)
(2.16534 -0.557648 -32.4911)
(2.1687 -0.557691 -32.4913)
(2.16403 -0.557661 -32.4914)
(2.16728 -0.557705 -32.4916)
(2.16276 -0.557633 -32.4918)
(2.16599 -0.557699 -32.4919)
(2.16145 -0.557541 -32.492)
(2.16475 -0.557682 -32.4922)
(2.15998 -0.557325 -32.4923)
(2.16341 -0.557713 -32.4924)
(2.15809 -0.556839 -32.4926)
(2.16157 -0.557843 -32.4927)
(2.15516 -0.555607 -32.493)
(2.15787 -0.55816 -32.493)
(2.15001 -0.55186 -32.4933)
(2.14803 -0.55854 -32.4933)
(2.14078 -0.540028 -32.4937)
(2.11799 -0.558005 -32.4937)
(2.12404 -0.502716 -32.4944)
(2.02621 -0.543858 -32.4938)
(2.07852 -0.40492 -32.4965)
(1.77974 -0.310635 -32.467)
(4.49237 0.28098 -32.3517)
(4.66148 0.334007 -32.4461)
(4.60799 0.464081 -32.4427)
(4.73039 0.498825 -32.4451)
(4.64809 0.537935 -32.4427)
(4.70822 0.550552 -32.445)
(4.61034 0.557625 -32.4441)
(4.63216 0.556637 -32.4466)
(4.53418 0.552714 -32.4463)
(4.53873 0.547298 -32.4487)
(4.45111 0.542147 -32.4487)
(4.45085 0.537557 -32.4509)
(4.37815 0.534657 -32.4516)
(4.37879 0.53232 -32.4543)
(4.32127 0.531847 -32.456)
(4.3245 0.531406 -32.4594)
(4.28038 0.532502 -32.4617)
(4.2861 0.533174 -32.4652)
(4.25296 0.534969 -32.4677)
(4.26045 0.536098 -32.471)
(4.23594 0.538025 -32.4735)
(4.24455 0.53922 -32.4765)
(4.22676 0.54099 -32.4788)
(4.23598 0.542079 -32.4816)
(4.22328 0.543593 -32.4838)
(4.23255 0.544484 -32.4864)
(4.22346 0.545662 -32.4885)
(4.23235 0.546364 -32.4909)
(4.22574 0.547406 -32.493)
(4.23372 0.548234 -32.4953)
(4.22815 0.549405 -32.4974)
(4.23446 0.550302 -32.4997)
(4.22899 0.551237 -32.5018)
(4.23367 0.55174 -32.504)
(4.22823 0.552166 -32.5058)
(4.23184 0.552263 -32.5075)
(4.22665 0.552385 -32.5089)
(4.22977 0.552349 -32.5102)
(4.22496 0.552387 -32.5111)
(4.22793 0.552355 -32.5119)
(4.22343 0.552379 -32.5125)
(4.22642 0.552385 -32.513)
(4.22204 0.552389 -32.5134)
(4.22516 0.552459 -32.5138)
(4.22064 0.552404 -32.5141)
(4.2241 0.55263 -32.5143)
(4.21906 0.55243 -32.5147)
(4.22327 0.553069 -32.5149)
(4.21695 0.552531 -32.5153)
(4.22279 0.554094 -32.5154)
(4.21344 0.552936 -32.5159)
(4.22304 0.556242 -32.5158)
(4.20658 0.554273 -32.5165)
(4.22499 0.559992 -32.5161)
(4.19189 0.5587 -32.5173)
(4.23231 0.565486 -32.5159)
(4.1599 0.572147 -32.5182)
(4.25938 0.575517 -32.5145)
(4.09912 0.60054 -32.5199)
(4.35593 0.628803 -32.4347)
(4.49486 0.0311336 -32.3545)
(4.66516 -0.0340614 -32.448)
(4.6457 -0.0328534 -32.4439)
(4.81153 -0.0856636 -32.4447)
(4.79583 -0.116388 -32.4402)
(4.92557 -0.164157 -32.4402)
(4.90821 -0.205306 -32.4367)
(5.00309 -0.248684 -32.4369)
(4.98053 -0.288552 -32.4346)
(5.04675 -0.325606 -32.435)
(5.01985 -0.358999 -32.4333)
(5.06496 -0.388492 -32.4337)
(5.03637 -0.414119 -32.4325)
(5.06707 -0.436421 -32.4334)
(5.03933 -0.455211 -32.4335)
(5.06056 -0.471642 -32.4355)
(5.03515 -0.48514 -32.4369)
(5.05014 -0.497074 -32.4397)
(5.02763 -0.506669 -32.4419)
(5.03846 -0.515311 -32.4451)
(5.01899 -0.522182 -32.4477)
(5.02702 -0.528486 -32.4509)
(5.01039 -0.533413 -32.4535)
(5.01644 -0.537922 -32.4566)
(5.00228 -0.541274 -32.4592)
(5.00685 -0.544309 -32.4621)
(4.99477 -0.546518 -32.4647)
(4.99823 -0.548527 -32.4676)
(4.9878 -0.549712 -32.4702)
(4.99039 -0.550548 -32.4732)
(4.98139 -0.550705 -32.4759)
(4.98351 -0.550762 -32.4787)
(4.97575 -0.550503 -32.4814)
(4.97752 -0.550359 -32.4841)
(4.97073 -0.550119 -32.4867)
(4.97236 -0.550071 -32.4895)
(4.96646 -0.550006 -32.4923)
(4.96819 -0.550105 -32.4951)
(4.96307 -0.550163 -32.4979)
(4.96498 -0.550291 -32.5004)
(4.9604 -0.550345 -32.5026)
(4.96247 -0.550408 -32.5044)
(4.9582 -0.550413 -32.5058)
(4.96039 -0.550383 -32.5069)
(4.95628 -0.550367 -32.5077)
(4.95854 -0.550186 -32.5083)
(4.95461 -0.550211 -32.5089)
(4.95674 -0.549687 -32.5092)
(4.95321 -0.549856 -32.5097)
(4.95467 -0.548499 -32.5099)
(4.95221 -0.548933 -32.5104)
(4.95158 -0.545704 -32.5104)
(4.95155 -0.546052 -32.5111)
(4.94592 -0.539113 -32.5108)
(4.95043 -0.53735 -32.5118)
(4.93534 -0.523444 -32.511)
(4.94414 -0.515318 -32.5127)
(4.9181 -0.484381 -32.5104)
(4.91597 -0.473383 -32.514)
(4.89085 -0.390781 -32.4244)
(4.47155 0.118326 -32.3573)
(4.57999 0.202299 -32.4519)
(4.55101 0.320244 -32.4491)
(4.68977 0.368538 -32.4505)
(4.67817 0.423503 -32.4465)
(4.80856 0.45082 -32.4464)
(4.8033 0.475598 -32.4429)
(4.91114 0.489659 -32.4429)
(4.90489 0.500576 -32.4404)
(4.98807 0.507481 -32.4405)
(4.97837 0.512698 -32.4386)
(5.04019 0.516456 -32.4387)
(5.02758 0.519753 -32.4373)
(5.07292 0.522412 -32.438)
(5.05887 0.525197 -32.4379)
(5.09213 0.527461 -32.4397)
(5.07788 0.530024 -32.441)
(5.10239 0.53197 -32.4437)
(5.08875 0.534208 -32.4458)
(5.1069 0.535792 -32.4489)
(5.09422 0.537643 -32.4514)
(5.10763 0.538876 -32.4546)
(5.09598 0.540366 -32.4572)
(5.10583 0.541344 -32.4603)
(5.09525 0.542541 -32.4629)
(5.10252 0.543262 -32.4658)
(5.09306 0.544161 -32.4684)
(5.09847 0.544728 -32.4713)
(5.09008 0.545524 -32.4739)
(5.09433 0.546108 -32.4769)
(5.08719 0.546919 -32.4796)
(5.09088 0.547554 -32.4826)
(5.08489 0.548222 -32.4852)
(5.08816 0.548533 -32.4879)
(5.08299 0.548681 -32.4904)
(5.08596 0.548501 -32.4932)
(5.08141 0.548278 -32.496)
(5.08418 0.547927 -32.499)
(5.08003 0.547656 -32.502)
(5.08266 0.547365 -32.5049)
(5.07867 0.547198 -32.5076)
(5.08121 0.547018 -32.5099)
(5.07719 0.546963 -32.5118)
(5.07977 0.546867 -32.5132)
(5.07556 0.546908 -32.5144)
(5.07842 0.546868 -32.5152)
(5.07383 0.547039 -32.5159)
(5.07734 0.547067 -32.5163)
(5.07212 0.5475 -32.5168)
(5.07691 0.547658 -32.5171)
(5.07066 0.548723 -32.5176)
(5.07806 0.549135 -32.5177)
(5.07007 0.551806 -32.5182)
(5.08334 0.552723 -32.5181)
(5.07195 0.559534 -32.5188)
(5.09923 0.562267 -32.5182)
(5.0817 0.577476 -32.5193)
(5.14017 0.590538 -32.5176)
(5.12074 0.61162 -32.5196)
(5.22615 0.680381 -32.4249)
(4.47016 -0.021667 -32.357)
(4.57556 -0.0902861 -32.4511)
(4.54748 -0.128818 -32.4483)
(4.68282 -0.181384 -32.4494)
(4.66826 -0.218807 -32.4451)
(4.79465 -0.259355 -32.4448)
(4.7865 -0.293026 -32.4411)
(4.8925 -0.325323 -32.4408)
(4.88556 -0.353907 -32.438)
(4.96939 -0.379809 -32.4379)
(4.96102 -0.402948 -32.4356)
(5.02505 -0.42336 -32.4355)
(5.01481 -0.441353 -32.4339)
(5.06286 -0.457071 -32.4344)
(5.05143 -0.470681 -32.4342)
(5.08729 -0.482562 -32.4358)
(5.07549 -0.492692 -32.4369)
(5.10225 -0.501557 -32.4395)
(5.09067 -0.509029 -32.4415)
(5.11062 -0.515608 -32.4446)
(5.09957 -0.521115 -32.447)
(5.11438 -0.525992 -32.4501)
(5.10401 -0.53003 -32.4526)
(5.11494 -0.533559 -32.4556)
(5.10536 -0.536392 -32.4581)
(5.11343 -0.538845 -32.461)
(5.10465 -0.540803 -32.4635)
(5.11059 -0.542494 -32.4664)
(5.10263 -0.543727 -32.469)
(5.10715 -0.544622 -32.4719)
(5.1002 -0.545094 -32.4747)
(5.10404 -0.545357 -32.4775)
(5.09831 -0.545378 -32.4802)
(5.10193 -0.545359 -32.4828)
(5.09719 -0.545287 -32.4853)
(5.10052 -0.545314 -32.488)
(5.09627 -0.545383 -32.4908)
(5.09918 -0.545528 -32.4938)
(5.0951 -0.545663 -32.4969)
(5.09764 -0.545781 -32.4999)
(5.0936 -0.545872 -32.5026)
(5.09595 -0.545881 -32.505)
(5.09191 -0.545937 -32.507)
(5.09423 -0.545816 -32.5085)
(5.09021 -0.545932 -32.5098)
(5.09258 -0.545595 -32.5106)
(5.08867 -0.545939 -32.5114)
(5.09108 -0.545094 -32.5118)
(5.08758 -0.546006 -32.5123)
(5.08978 -0.543964 -32.5126)
(5.08752 -0.546097 -32.5131)
(5.08882 -0.541516 -32.5133)
(5.08958 -0.546009 -32.5137)
(5.0886 -0.536521 -32.5138)
(5.09607 -0.545323 -32.5143)
(5.09083 -0.527051 -32.5141)
(5.11141 -0.543181 -32.5149)
(5.10018 -0.512008 -32.514)
(5.14455 -0.536715 -32.5153)
(5.12545 -0.505631 -32.4241)
(4.4654 0.0585314 -32.3579)
(4.55993 0.136902 -32.4524)
(4.52658 0.215504 -32.4503)
(4.65222 0.267848 -32.4515)
(4.63629 0.316673 -32.4475)
(4.75949 0.351447 -32.4473)
(4.75163 0.381999 -32.4436)
(4.85765 0.405526 -32.4433)
(4.85165 0.425794 -32.4405)
(4.93672 0.44238 -32.4403)
(4.92959 0.456755 -32.438)
(4.99521 0.468959 -32.4378)
(4.98637 0.47968 -32.4362)
(5.0361 0.488938 -32.4367)
(5.02612 0.497156 -32.4365)
(5.06362 0.504258 -32.4382)
(5.05328 0.510596 -32.4394)
(5.0816 0.516014 -32.442)
(5.07144 0.520856 -32.444)
(5.09286 0.52494 -32.4471)
(5.08318 0.528601 -32.4495)
(5.09936 0.53165 -32.4526)
(5.09028 0.534397 -32.4551)
(5.10249 0.536637 -32.4581)
(5.09412 0.538636 -32.4606)
(5.10338 0.540208 -32.4635)
(5.09576 0.541619 -32.466)
(5.10283 0.542722 -32.4688)
(5.09597 0.543711 -32.4714)
(5.10155 0.544422 -32.4744)
(5.09563 0.54502 -32.4771)
(5.10043 0.5454 -32.4799)
(5.09555 0.545665 -32.4825)
(5.09992 0.545734 -32.4852)
(5.09585 0.545712 -32.4877)
(5.09978 0.54559 -32.4904)
(5.09605 0.54547 -32.4932)
(5.09943 0.545321 -32.4962)
(5.09573 0.545212 -32.4992)
(5.09861 0.54508 -32.5022)
(5.09481 0.545014 -32.5049)
(5.09739 0.544888 -32.5073)
(5.09346 0.544888 -32.5093)
(5.09598 0.544737 -32.5108)
(5.09192 0.544859 -32.5121)
(5.09459 0.544601 -32.5129)
(5.09041 0.544988 -32.5137)
(5.09342 0.544421 -32.5141)
(5.08925 0.545406 -32.5146)
(5.09278 0.544112 -32.5149)
(5.08904 0.546415 -32.5154)
(5.09341 0.543632 -32.5156)
(5.09121 0.548745 -32.516)
(5.0972 0.543392 -32.5161)
(5.09904 0.554224 -32.5166)
(5.10856 0.545559 -32.5164)
(5.12067 0.565878 -32.5171)
(5.13664 0.559027 -32.5164)
(5.17627 0.585569 -32.5173)
(5.19623 0.615195 -32.4253)
(4.4654 -0.0585315 -32.3579)
(4.55993 -0.136902 -32.4524)
(4.52658 -0.215504 -32.4503)
(4.65222 -0.267848 -32.4515)
(4.63629 -0.316673 -32.4475)
(4.75949 -0.351448 -32.4473)
(4.75163 -0.382 -32.4436)
(4.85765 -0.405527 -32.4433)
(4.85165 -0.425795 -32.4405)
(4.93672 -0.442381 -32.4403)
(4.92959 -0.456756 -32.438)
(4.99521 -0.468959 -32.4378)
(4.98637 -0.479681 -32.4362)
(5.0361 -0.488939 -32.4367)
(5.02612 -0.497157 -32.4365)
(5.06362 -0.504258 -32.4382)
(5.05328 -0.510596 -32.4394)
(5.0816 -0.516015 -32.442)
(5.07144 -0.520857 -32.444)
(5.09286 -0.52494 -32.4471)
(5.08318 -0.528601 -32.4495)
(5.09936 -0.53165 -32.4526)
(5.09028 -0.534397 -32.4551)
(5.10249 -0.536638 -32.4581)
(5.09412 -0.538636 -32.4606)
(5.10338 -0.540208 -32.4635)
(5.09576 -0.541619 -32.466)
(5.10283 -0.542722 -32.4688)
(5.09597 -0.543711 -32.4714)
(5.10155 -0.544421 -32.4744)
(5.09563 -0.545018 -32.4771)
(5.10043 -0.545398 -32.4799)
(5.09555 -0.545663 -32.4825)
(5.09992 -0.545731 -32.4852)
(5.09585 -0.545708 -32.4877)
(5.09978 -0.545584 -32.4904)
(5.09606 -0.545464 -32.4932)
(5.09943 -0.545311 -32.4962)
(5.09573 -0.545201 -32.4992)
(5.09861 -0.545064 -32.5022)
(5.09481 -0.544997 -32.5049)
(5.09739 -0.544862 -32.5073)
(5.09347 -0.544861 -32.5093)
(5.09598 -0.544693 -32.5108)
(5.09193 -0.544817 -32.5121)
(5.09458 -0.544527 -32.5129)
(5.09044 -0.54492 -32.5137)
(5.09341 -0.544299 -32.5141)
(5.08928 -0.5453 -32.5146)
(5.09276 -0.543913 -32.5149)
(5.08908 -0.546251 -32.5154)
(5.09336 -0.543311 -32.5156)
(5.09124 -0.548492 -32.516)
(5.09707 -0.542883 -32.5161)
(5.09904 -0.553813 -32.5166)
(5.10833 -0.544768 -32.5165)
(5.12059 -0.5652 -32.517)
(5.13622 -0.55784 -32.5165)
(5.17599 -0.584442 -32.5172)
(5.19553 -0.613467 -32.4255)
(4.47016 0.0216669 -32.357)
(4.57556 0.090286 -32.4511)
(4.54748 0.128818 -32.4483)
(4.68282 0.181384 -32.4494)
(4.66826 0.218807 -32.4451)
(4.79465 0.259355 -32.4448)
(4.7865 0.293025 -32.4411)
(4.8925 0.325323 -32.4408)
(4.88556 0.353906 -32.438)
(4.96939 0.379809 -32.4379)
(4.96102 0.402948 -32.4356)
(5.02505 0.42336 -32.4355)
(5.01481 0.441352 -32.4339)
(5.06286 0.45707 -32.4344)
(5.05143 0.47068 -32.4342)
(5.08729 0.482561 -32.4358)
(5.07549 0.492691 -32.4369)
(5.10225 0.501556 -32.4395)
(5.09067 0.509028 -32.4415)
(5.11062 0.515608 -32.4446)
(5.09957 0.521115 -32.447)
(5.11438 0.525992 -32.4501)
(5.10401 0.53003 -32.4526)
(5.11495 0.533559 -32.4556)
(5.10536 0.536392 -32.4581)
(5.11343 0.538845 -32.461)
(5.10465 0.540803 -32.4635)
(5.11059 0.542495 -32.4664)
(5.10263 0.543728 -32.469)
(5.10715 0.544623 -32.4719)
(5.1002 0.545096 -32.4747)
(5.10405 0.545359 -32.4775)
(5.09831 0.545381 -32.4802)
(5.10193 0.545363 -32.4828)
(5.09719 0.545291 -32.4853)
(5.10052 0.54532 -32.488)
(5.09627 0.54539 -32.4908)
(5.09918 0.545538 -32.4938)
(5.0951 0.545675 -32.4969)
(5.09765 0.545797 -32.4999)
(5.09361 0.54589 -32.5026)
(5.09596 0.545906 -32.505)
(5.09192 0.545967 -32.507)
(5.09425 0.545858 -32.5085)
(5.09022 0.545978 -32.5098)
(5.09261 0.545662 -32.5106)
(5.08868 0.546009 -32.5114)
(5.09112 0.545205 -32.5118)
(5.08761 0.546113 -32.5123)
(5.08986 0.544148 -32.5126)
(5.08759 0.546273 -32.513)
(5.08896 0.541827 -32.5133)
(5.08974 0.546302 -32.5137)
(5.08889 0.53704 -32.5138)
(5.09634 0.54581 -32.5142)
(5.09133 0.527899 -32.5143)
(5.11187 0.543992 -32.5146)
(5.10106 0.51335 -32.5144)
(5.14537 0.538036 -32.5148)
(5.12692 0.507654 -32.4248)
(4.47155 -0.118326 -32.3573)
(4.57999 -0.202299 -32.4519)
(4.55101 -0.320244 -32.4491)
(4.68977 -0.368538 -32.4505)
(4.67817 -0.423504 -32.4465)
(4.80856 -0.450821 -32.4464)
(4.8033 -0.475598 -32.4429)
(4.91114 -0.489659 -32.4429)
(4.90489 -0.500576 -32.4404)
(4.98807 -0.507481 -32.4405)
(4.97837 -0.512698 -32.4386)
(5.04019 -0.516457 -32.4387)
(5.02758 -0.519753 -32.4373)
(5.07292 -0.522412 -32.438)
(5.05887 -0.525198 -32.4379)
(5.09213 -0.527461 -32.4397)
(5.07788 -0.530024 -32.441)
(5.10239 -0.531971 -32.4437)
(5.08875 -0.534209 -32.4458)
(5.1069 -0.535793 -32.4489)
(5.09422 -0.537643 -32.4514)
(5.10763 -0.538876 -32.4546)
(5.09598 -0.540366 -32.4572)
(5.10583 -0.541344 -32.4603)
(5.09525 -0.542541 -32.4629)
(5.10252 -0.543262 -32.4658)
(5.09306 -0.544162 -32.4684)
(5.09847 -0.544728 -32.4713)
(5.09008 -0.545524 -32.4739)
(5.09433 -0.546107 -32.4769)
(5.0872 -0.546918 -32.4796)
(5.09088 -0.547553 -32.4826)
(5.08489 -0.54822 -32.4852)
(5.08817 -0.548531 -32.4879)
(5.083 -0.548678 -32.4904)
(5.08596 -0.548497 -32.4932)
(5.08141 -0.548273 -32.496)
(5.08418 -0.547919 -32.499)
(5.08003 -0.547648 -32.502)
(5.08266 -0.547351 -32.5049)
(5.07868 -0.547184 -32.5076)
(5.08122 -0.546994 -32.5099)
(5.07721 -0.546941 -32.5118)
(5.07978 -0.546826 -32.5132)
(5.07559 -0.546872 -32.5144)
(5.07844 -0.5468 -32.5152)
(5.0739 -0.546981 -32.5159)
(5.07738 -0.54695 -32.5164)
(5.07222 -0.54741 -32.5168)
(5.07696 -0.547468 -32.5171)
(5.07079 -0.548592 -32.5175)
(5.0781 -0.548847 -32.5178)
(5.07025 -0.551624 -32.5181)
(5.08337 -0.552299 -32.5183)
(5.07222 -0.559269 -32.5186)
(5.09925 -0.561647 -32.5186)
(5.08203 -0.577054 -32.5188)
(5.14016 -0.589674 -32.5184)
(5.12103 -0.610884 -32.5184)
(5.22606 -0.679236 -32.4267)
(4.49486 -0.0311337 -32.3545)
(4.66516 0.0340614 -32.448)
(4.6457 0.0328532 -32.4439)
(4.81153 0.0856634 -32.4447)
(4.79583 0.116388 -32.4402)
(4.92557 0.164157 -32.4402)
(4.90821 0.205305 -32.4367)
(5.00309 0.248684 -32.4369)
(4.98053 0.288551 -32.4346)
(5.04675 0.325606 -32.435)
(5.01985 0.358999 -32.4333)
(5.06496 0.388492 -32.4337)
(5.03637 0.414118 -32.4325)
(5.06707 0.43642 -32.4334)
(5.03933 0.455211 -32.4335)
(5.06056 0.471641 -32.4355)
(5.03515 0.485139 -32.4369)
(5.05014 0.497074 -32.4397)
(5.02763 0.506669 -32.4419)
(5.03846 0.515311 -32.4451)
(5.01899 0.522181 -32.4477)
(5.02702 0.528486 -32.4509)
(5.01039 0.533413 -32.4535)
(5.01644 0.537922 -32.4566)
(5.00228 0.541275 -32.4592)
(5.00685 0.544309 -32.4621)
(4.99477 0.546519 -32.4647)
(4.99823 0.548528 -32.4676)
(4.9878 0.549713 -32.4702)
(4.99039 0.55055 -32.4732)
(4.98139 0.550707 -32.4759)
(4.98351 0.550764 -32.4787)
(4.97575 0.550506 -32.4814)
(4.97752 0.550362 -32.4841)
(4.97074 0.550123 -32.4867)
(4.97237 0.550076 -32.4895)
(4.96647 0.550012 -32.4923)
(4.9682 0.550113 -32.4951)
(4.96308 0.550174 -32.4979)
(4.965 0.550303 -32.5004)
(4.96042 0.550361 -32.5026)
(4.9625 0.550427 -32.5044)
(4.95823 0.550439 -32.5058)
(4.96043 0.550413 -32.5069)
(4.95633 0.550407 -32.5077)
(4.9586 0.550233 -32.5083)
(4.95468 0.550275 -32.5089)
(4.95683 0.549757 -32.5092)
(4.95334 0.549951 -32.5096)
(4.95483 0.548618 -32.5099)
(4.95243 0.549088 -32.5103)
(4.95187 0.545926 -32.5106)
(4.95193 0.546326 -32.5109)
(4.94644 0.539532 -32.5112)
(4.95103 0.537844 -32.5114)
(4.93623 0.524188 -32.5117)
(4.94508 0.516187 -32.5116)
(4.91965 0.48565 -32.512)
(4.9175 0.47486 -32.5116)
(4.89355 0.392877 -32.4278)
(4.49237 -0.280981 -32.3517)
(4.66148 -0.334007 -32.4461)
(4.60799 -0.464081 -32.4427)
(4.73039 -0.498826 -32.4451)
(4.64809 -0.537935 -32.4427)
(4.70822 -0.550553 -32.445)
(4.61034 -0.557626 -32.4441)
(4.63216 -0.556637 -32.4466)
(4.53418 -0.552715 -32.4463)
(4.53873 -0.547298 -32.4487)
(4.45111 -0.542148 -32.4487)
(4.45085 -0.537557 -32.4509)
(4.37814 -0.534657 -32.4516)
(4.37879 -0.53232 -32.4543)
(4.32127 -0.531848 -32.456)
(4.32449 -0.531407 -32.4594)
(4.28038 -0.532502 -32.4617)
(4.2861 -0.533174 -32.4652)
(4.25296 -0.534969 -32.4677)
(4.26045 -0.536099 -32.471)
(4.23594 -0.538025 -32.4735)
(4.24455 -0.539221 -32.4765)
(4.22676 -0.54099 -32.4788)
(4.23598 -0.542079 -32.4816)
(4.22328 -0.543593 -32.4838)
(4.23255 -0.544485 -32.4864)
(4.22346 -0.545663 -32.4885)
(4.23235 -0.546365 -32.4909)
(4.22574 -0.547407 -32.493)
(4.23372 -0.548234 -32.4953)
(4.22815 -0.549405 -32.4974)
(4.23446 -0.550303 -32.4997)
(4.22899 -0.551237 -32.5018)
(4.23368 -0.55174 -32.504)
(4.22823 -0.552166 -32.5058)
(4.23185 -0.552262 -32.5075)
(4.22666 -0.552383 -32.5089)
(4.22978 -0.552345 -32.5102)
(4.22498 -0.552384 -32.5111)
(4.22795 -0.552348 -32.5119)
(4.22346 -0.552374 -32.5125)
(4.22645 -0.552372 -32.513)
(4.22208 -0.55238 -32.5134)
(4.22521 -0.552436 -32.5138)
(4.22072 -0.552389 -32.5141)
(4.22419 -0.552586 -32.5144)
(4.2192 -0.552405 -32.5147)
(4.22341 -0.552986 -32.5149)
(4.21717 -0.552483 -32.5152)
(4.223 -0.553967 -32.5155)
(4.21379 -0.552876 -32.5157)
(4.22336 -0.556055 -32.516)
(4.20714 -0.554216 -32.5162)
(4.22547 -0.559762 -32.5166)
(4.19279 -0.558675 -32.5166)
(4.23306 -0.565214 -32.517)
(4.1613 -0.572148 -32.5166)
(4.26053 -0.575284 -32.5171)
(4.10113 -0.600493 -32.5158)
(4.3574 -0.628911 -32.4408)
(4.22156 -0.16317 -32.3259)
(4.21182 -0.0471942 -32.4298)
(3.76468 -0.0248424 -32.4325)
(3.601 0.067505 -32.4406)
(3.24538 0.135827 -32.4437)
(3.09848 0.20941 -32.4504)
(2.8323 0.270865 -32.4527)
(2.73677 0.324573 -32.4578)
(2.54901 0.369353 -32.4595)
(2.50097 0.405885 -32.4637)
(2.37382 0.4356 -32.4652)
(2.35881 0.459335 -32.4687)
(2.27385 0.478126 -32.4699)
(2.27769 0.49315 -32.4726)
(2.22019 0.504843 -32.4735)
(2.23285 0.514411 -32.4757)
(2.19273 0.521816 -32.4764)
(2.20831 0.528093 -32.4782)
(2.17927 0.532942 -32.4788)
(2.19477 0.5372 -32.4803)
(2.17302 0.540483 -32.4809)
(2.18717 0.543459 -32.4822)
(2.17041 0.545722 -32.4828)
(2.18277 0.547822 -32.4839)
(2.16954 0.549382 -32.4844)
(2.18008 0.55088 -32.4854)
(2.16943 0.552008 -32.4859)
(2.17839 0.553151 -32.4867)
(2.16973 0.554038 -32.4872)
(2.1773 0.55498 -32.4879)
(2.16995 0.555704 -32.4883)
(2.17606 0.556406 -32.4889)
(2.1694 0.556863 -32.4893)
(2.17424 0.557236 -32.4898)
(2.16816 0.557415 -32.4901)
(2.17221 0.557561 -32.4905)
(2.16673 0.557593 -32.4907)
(2.17034 0.55766 -32.4909)
(2.16535 0.557653 -32.4911)
(2.16872 0.557694 -32.4913)
(2.16406 0.557667 -32.4914)
(2.16731 0.557708 -32.4916)
(2.16281 0.557644 -32.4918)
(2.16605 0.557702 -32.4919)
(2.16153 0.557557 -32.492)
(2.16484 0.557682 -32.4922)
(2.16011 0.557347 -32.4923)
(2.16356 0.557702 -32.4924)
(2.1583 0.556866 -32.4926)
(2.16181 0.55783 -32.4927)
(2.15551 0.555664 -32.4929)
(2.15825 0.558162 -32.493)
(2.15059 0.551992 -32.4933)
(2.14866 0.558609 -32.4934)
(2.14174 0.540341 -32.4936)
(2.11905 0.558204 -32.494)
(2.12557 0.503388 -32.4938)
(2.02813 0.544368 -32.4949)
(2.08084 0.406458 -32.4944)
(1.78383 0.312588 -32.4718)
(4.60801 0.0533672 0.00550774)
(4.4163 0.238594 0.00446707)
(4.38518 0.317563 0.00500445)
(4.18575 0.386709 0.00437677)
(4.10272 0.43056 0.00475055)
(3.91983 0.466605 0.00428236)
(3.83236 0.494176 0.0045682)
(3.67325 0.516073 0.0041989)
(3.59565 0.533707 0.00442858)
(3.46352 0.547698 0.00413456)
(3.40151 0.559103 0.00432373)
(3.29712 0.568512 0.0040893)
(3.25242 0.576224 0.00424583)
(3.17444 0.583177 0.00405736)
(3.1463 0.58897 0.00418536)
(3.09169 0.594713 0.00403204)
(3.07766 0.599576 0.00413531)
(3.04221 0.60479 0.00400949)
(3.03891 0.609287 0.00409178)
(3.01797 0.614233 0.00398785)
(3.02184 0.618604 0.00405263)
(3.01078 0.623493 0.00396633)
(3.01801 0.627892 0.00401654)
(3.0122 0.632616 0.00394444)
(3.01945 0.636684 0.00398258)
(3.0154 0.640755 0.0039222)
(3.02069 0.644011 0.00395058)
(3.01662 0.646961 0.0039)
(3.01969 0.64902 0.00392042)
(3.01555 0.650748 0.00387786)
(3.01715 0.651777 0.0038914)
(3.01331 0.65266 0.00385523)
(3.01408 0.653122 0.00386287)
(3.01067 0.653591 0.00383213)
(3.01095 0.653817 0.003835)
(3.00797 0.654098 0.00380912)
(3.00791 0.654212 0.00380814)
(3.00524 0.654394 0.00378662)
(3.00491 0.654442 0.00378236)
(3.00244 0.654556 0.00376474)
(3.0019 0.654572 0.00375758)
(2.99951 0.654654 0.00374348)
(2.99885 0.654643 0.00373366)
(2.99644 0.654725 0.00372284)
(2.99574 0.654665 0.0037105)
(2.99317 0.654816 0.00370286)
(2.99256 0.654587 0.00368806)
(2.98972 0.655047 0.00368359)
(2.98919 0.654186 0.00366633)
(2.98627 0.655773 0.00366518)
(2.98499 0.652703 0.00364547)
(2.98387 0.658017 0.00364777)
(2.97768 0.647873 0.00362615)
(2.98688 0.663651 0.00363124)
(2.96038 0.632566 0.00361105)
(3.00905 0.672433 0.00361356)
(2.91904 0.588598 0.00361017)
(3.08447 0.658214 0.00358468)
(2.86155 0.488375 0.00365716)
(3.27873 0.394399 0.00350245)
(4.52027 -0.0625042 0.00429392)
(4.47944 -0.0541118 0.00365684)
(4.58054 -0.112582 0.00410306)
(4.55614 -0.151148 0.00355143)
(4.63314 -0.198239 0.00391595)
(4.60794 -0.239886 0.00346804)
(4.65839 -0.279381 0.00375921)
(4.63043 -0.316673 0.00340027)
(4.66063 -0.350705 0.00363738)
(4.63097 -0.38326 0.0033511)
(4.64701 -0.413035 0.00354627)
(4.61751 -0.441274 0.0033175)
(4.62452 -0.467335 0.00347795)
(4.59702 -0.49157 0.00329365)
(4.59893 -0.51397 0.00342439)
(4.57474 -0.534225 0.00327439)
(4.57427 -0.552833 0.00337966)
(4.55405 -0.569161 0.00325647)
(4.55289 -0.584039 0.00334024)
(4.53673 -0.596689 0.00323836)
(4.53573 -0.607967 0.00330422)
(4.5232 -0.617044 0.0032195)
(4.52262 -0.624805 0.00327054)
(4.51315 -0.630641 0.00319979)
(4.51299 -0.63539 0.00323872)
(4.50585 -0.638649 0.00317951)
(4.50584 -0.641281 0.0032085)
(4.50031 -0.643038 0.00315877)
(4.50018 -0.644573 0.00317952)
(4.4956 -0.645594 0.00313755)
(4.49507 -0.646517 0.00315145)
(4.49103 -0.647097 0.00311597)
(4.49016 -0.647676 0.00312419)
(4.48663 -0.648047 0.00309417)
(4.48564 -0.648452 0.00309752)
(4.48258 -0.648702 0.00307208)
(4.48152 -0.64897 0.00307125)
(4.47879 -0.649123 0.00304983)
(4.47765 -0.64928 0.0030455)
(4.47507 -0.649377 0.00302783)
(4.47383 -0.649453 0.00302055)
(4.47128 -0.649543 0.0030064)
(4.46997 -0.64954 0.00299648)
(4.46732 -0.649684 0.00298567)
(4.46605 -0.649552 0.00297322)
(4.46312 -0.649841 0.00296564)
(4.46206 -0.649468 0.00295064)
(4.45853 -0.650024 0.00294635)
(4.45811 -0.649239 0.00292862)
(4.45327 -0.650141 0.00292791)
(4.4544 -0.648866 0.00290694)
(4.44657 -0.649673 0.00291039)
(4.4515 -0.648553 0.00288505)
(4.43587 -0.646598 0.00289343)
(4.45046 -0.648552 0.00286178)
(4.41231 -0.635232 0.00287376)
(4.45239 -0.648361 0.00283266)
(4.34949 -0.607945 0.00283684)
(4.42978 -0.644594 0.00276973)
(4.17303 -0.580299 0.00272753)
(4.51865 0.0458986 0.00483946)
(4.47206 0.170197 0.00419567)
(4.56135 0.246981 0.00462351)
(4.53591 0.324606 0.00406919)
(4.61745 0.379177 0.00442892)
(4.60556 0.428315 0.00398111)
(4.67373 0.466122 0.00426887)
(4.66905 0.497934 0.00390563)
(4.72408 0.523229 0.00413671)
(4.72217 0.543675 0.00384295)
(4.7648 0.559913 0.0040306)
(4.76284 0.572814 0.00379383)
(4.79426 0.582868 0.00394711)
(4.79082 0.590979 0.00375595)
(4.81261 0.597176 0.00388066)
(4.80732 0.602498 0.00372533)
(4.82135 0.606547 0.00382595)
(4.8145 0.610431 0.00369893)
(4.82273 0.613466 0.0037794)
(4.81499 0.616779 0.00367492)
(4.81915 0.619605 0.00373848)
(4.81127 0.622954 0.00365194)
(4.81296 0.625957 0.00370135)
(4.80571 0.629389 0.00362936)
(4.8062 0.632394 0.00366721)
(4.8001 0.635554 0.00360722)
(4.80025 0.638094 0.00363552)
(4.79545 0.640505 0.00358525)
(4.79545 0.64225 0.00360556)
(4.79155 0.643777 0.0035633)
(4.79126 0.644703 0.00357698)
(4.7879 0.645437 0.00354144)
(4.78733 0.645751 0.00354958)
(4.78438 0.646007 0.00351956)
(4.78361 0.64603 0.00352285)
(4.78098 0.646096 0.00349737)
(4.78006 0.646051 0.00349647)
(4.77762 0.646078 0.00347506)
(4.7765 0.646047 0.00347076)
(4.77411 0.646069 0.00345319)
(4.77277 0.646067 0.00344606)
(4.77034 0.646074 0.00343208)
(4.76877 0.646114 0.00342234)
(4.76633 0.646088 0.00341165)
(4.76451 0.646182 0.00339936)
(4.76217 0.646113 0.00339177)
(4.75991 0.646258 0.00337696)
(4.75803 0.646205 0.00337242)
(4.75479 0.646258 0.00335514)
(4.75434 0.646578 0.00335363)
(4.7487 0.645848 0.00333405)
(4.75203 0.647822 0.00333543)
(4.74108 0.64395 0.00331449)
(4.75346 0.650745 0.00331773)
(4.73212 0.637785 0.00329875)
(4.76317 0.655986 0.00329968)
(4.72624 0.625186 0.0032935)
(4.78806 0.661414 0.00327935)
(4.74248 0.616952 0.00331431)
(4.83492 0.681193 0.0032572)
(4.52353 -0.0440259 0.00430661)
(4.47419 -0.087552 0.00376434)
(4.54703 -0.151661 0.00417686)
(4.51809 -0.195324 0.00367748)
(4.59115 -0.243625 0.00403259)
(4.57691 -0.283195 0.00360649)
(4.64257 -0.320877 0.00389589)
(4.63776 -0.354321 0.00354206)
(4.69393 -0.384604 0.00377669)
(4.69429 -0.412423 0.00348813)
(4.74052 -0.437457 0.00367928)
(4.74281 -0.460745 0.00344607)
(4.77938 -0.481899 0.00360213)
(4.78142 -0.50156 0.00341363)
(4.80906 -0.51957 0.00354041)
(4.80965 -0.53611 0.0033872)
(4.82943 -0.551283 0.00348934)
(4.8281 -0.564967 0.00336408)
(4.84133 -0.577456 0.00344566)
(4.83819 -0.588477 0.00334266)
(4.84629 -0.598378 0.00340706)
(4.8419 -0.606798 0.00332177)
(4.84644 -0.614134 0.00337182)
(4.84164 -0.620087 0.00330087)
(4.84405 -0.62508 0.00333918)
(4.83955 -0.628911 0.00327998)
(4.84085 -0.632032 0.00330858)
(4.83697 -0.634318 0.00325887)
(4.83763 -0.636157 0.00327927)
(4.83434 -0.637436 0.00323732)
(4.83453 -0.638491 0.003251)
(4.83162 -0.639237 0.00321568)
(4.83136 -0.639941 0.00322387)
(4.82866 -0.64049 0.00319409)
(4.82799 -0.641036 0.00319742)
(4.8254 -0.641449 0.0031721)
(4.82441 -0.641828 0.00317119)
(4.82188 -0.642076 0.00314984)
(4.82063 -0.642283 0.0031455)
(4.81812 -0.642406 0.00312801)
(4.81669 -0.642497 0.00312088)
(4.81414 -0.642562 0.00310703)
(4.81256 -0.642597 0.00309731)
(4.80993 -0.642645 0.00308678)
(4.80827 -0.642664 0.00307446)
(4.80547 -0.642671 0.00306704)
(4.80385 -0.642772 0.00305201)
(4.80069 -0.642538 0.00304773)
(4.79942 -0.643083 0.00302974)
(4.79532 -0.641924 0.00302878)
(4.7953 -0.644022 0.0030072)
(4.78846 -0.64002 0.00300973)
(4.79203 -0.646556 0.0029831)
(4.77706 -0.635178 0.00298888)
(4.79055 -0.652527 0.00295412)
(4.75344 -0.625859 0.00296197)
(4.78964 -0.66372 0.00291061)
(4.70205 -0.616879 0.00291927)
(4.77147 -0.675255 0.00282285)
(4.60475 -0.641908 0.00283982)
(4.52496 0.0443162 0.004568)
(4.47901 0.136635 0.00402922)
(4.55018 0.207547 0.00443502)
(4.52086 0.273886 0.0039351)
(4.59179 0.325973 0.00428695)
(4.57626 0.372418 0.00386022)
(4.64007 0.410164 0.00414769)
(4.63383 0.442918 0.00379223)
(4.68855 0.470065 0.00402464)
(4.68772 0.493353 0.00373343)
(4.73301 0.512845 0.00392186)
(4.73457 0.529603 0.00368559)
(4.77075 0.543736 0.00383885)
(4.77259 0.556073 0.00364754)
(4.80035 0.566574 0.00377181)
(4.80119 0.575952 0.00361632)
(4.82149 0.584012 0.00371646)
(4.82077 0.5914 0.00358947)
(4.83478 0.597818 0.00366955)
(4.8325 0.603862 0.00356529)
(4.84152 0.609185 0.00362858)
(4.83809 0.614282 0.00354237)
(4.84355 0.618766 0.0035916)
(4.83964 0.623011 0.00351996)
(4.84284 0.626649 0.00355769)
(4.83908 0.629961 0.00349802)
(4.84103 0.632649 0.00352622)
(4.83779 0.63496 0.00347617)
(4.83904 0.636698 0.00349627)
(4.83633 0.6381 0.00345409)
(4.83708 0.639051 0.0034676)
(4.83474 0.639769 0.0034322)
(4.835 0.640199 0.00344034)
(4.83282 0.640518 0.00341053)
(4.83261 0.640676 0.00341383)
(4.83044 0.640798 0.00338847)
(4.82979 0.640842 0.0033875)
(4.82756 0.640878 0.0033661)
(4.82653 0.640885 0.0033617)
(4.82422 0.640887 0.00334415)
(4.82287 0.640901 0.00333699)
(4.82048 0.640881 0.00332311)
(4.81887 0.640935 0.0033134)
(4.81645 0.640875 0.00330285)
(4.81459 0.641018 0.00329058)
(4.81221 0.640864 0.00328309)
(4.81004 0.641189 0.00326819)
(4.80786 0.640823 0.00326368)
(4.80525 0.641526 0.00324607)
(4.80354 0.640751 0.00324446)
(4.80035 0.642177 0.0032241)
(4.79935 0.640724 0.00322506)
(4.79606 0.643415 0.00320211)
(4.79569 0.641385 0.00320462)
(4.79485 0.646487 0.00317976)
(4.79355 0.645605 0.00318119)
(4.80316 0.655829 0.00315677)
(4.79618 0.664851 0.00315247)