/*--------------------------------*- C++ -*----------------------------------*\
  =========                 |
  \\      /  F ield         | OpenFOAM: The Open Source CFD Toolbox
   \\    /   O peration     | Website:  https://openfoam.org
    \\  /    A nd           | Version:  7
     \\/     M anipulation  |
\*---------------------------------------------------------------------------*/
FoamFile
{
    version     2.0;
    format      ascii;
    class       volScalarField;
    location    "0.44";
    object      rho_0;
}
// * * * * * * * * * * * * * * * * * * * * * * * * * * * * * * * * * * * * * //

dimensions      [1 -3 0 0 0 0 0];

internalField   nonuniform List<scalar> 
13200
(
1.2503
1.24951
1.2494
1.24899
1.24902
1.24882
1.24894
1.24886
1.24901
1.24899
1.24914
1.24911
1.24921
1.24917
1.24921
1.24916
1.24915
1.24912
1.24902
1.24922
1.25058
1.24961
1.24898
1.24798
1.24771
1.24734
1.24745
1.2474
1.2477
1.24785
1.2482
1.24835
1.24858
1.24862
1.24869
1.24866
1.24856
1.24858
1.24815
1.24907
1.25109
1.25044
1.24976
1.24804
1.24721
1.24635
1.24638
1.24618
1.24661
1.2469
1.24763
1.24809
1.24869
1.24895
1.2492
1.24928
1.24915
1.24929
1.24844
1.24964
1.25097
1.25066
1.25017
1.24839
1.24706
1.24584
1.24555
1.24522
1.24538
1.2456
1.24639
1.24725
1.24825
1.24901
1.24957
1.24999
1.25
1.25035
1.24954
1.25034
1.25114
1.25097
1.2508
1.24911
1.24771
1.24624
1.24587
1.2454
1.24541
1.24528
1.24586
1.24668
1.24799
1.24913
1.25013
1.25084
1.25122
1.25168
1.25136
1.25178
1.25099
1.25084
1.25075
1.24917
1.24774
1.2462
1.24577
1.24534
1.24528
1.24494
1.24518
1.24577
1.24708
1.24845
1.24977
1.25073
1.25141
1.25202
1.2521
1.25256
1.2511
1.25095
1.25092
1.24934
1.24796
1.24639
1.24599
1.24559
1.24558
1.24512
1.24516
1.24549
1.24673
1.24813
1.24967
1.25077
1.25166
1.25235
1.25269
1.2533
1.25103
1.25084
1.2508
1.24919
1.24781
1.24623
1.24586
1.24549
1.24552
1.24502
1.24496
1.24515
1.24629
1.24768
1.24932
1.25049
1.25148
1.25221
1.25266
1.25342
1.25108
1.25091
1.25086
1.24923
1.24786
1.24629
1.24594
1.24558
1.24563
1.24513
1.24503
1.24515
1.24625
1.24762
1.2493
1.25049
1.25152
1.25228
1.25277
1.25361
1.25106
1.25087
1.25082
1.24917
1.24779
1.24623
1.24589
1.24554
1.24559
1.24509
1.24499
1.24508
1.24617
1.24753
1.24921
1.25042
1.25145
1.25222
1.25271
1.25359
1.25106
1.25087
1.25082
1.24917
1.24779
1.24623
1.24589
1.24554
1.24559
1.24509
1.24499
1.24508
1.24617
1.24753
1.24921
1.25042
1.25145
1.25222
1.25271
1.2536
1.25108
1.25091
1.25086
1.24923
1.24786
1.24629
1.24594
1.24558
1.24563
1.24513
1.24503
1.24515
1.24625
1.24762
1.24929
1.2505
1.25151
1.25229
1.25276
1.25362
1.25103
1.25084
1.2508
1.24919
1.24781
1.24623
1.24586
1.24549
1.24552
1.24502
1.24496
1.24515
1.24629
1.24768
1.24932
1.25049
1.25147
1.25222
1.25266
1.25343
1.2511
1.25095
1.25092
1.24934
1.24796
1.24639
1.24599
1.24558
1.24558
1.24512
1.24516
1.24549
1.24673
1.24812
1.24968
1.25076
1.25167
1.25234
1.25271
1.25329
1.25099
1.25084
1.25075
1.24917
1.24774
1.2462
1.24577
1.24534
1.24529
1.24494
1.24518
1.24577
1.24709
1.24844
1.24979
1.25071
1.25145
1.25197
1.25218
1.25246
1.25114
1.25097
1.2508
1.24911
1.24771
1.24624
1.24587
1.2454
1.24542
1.24528
1.24587
1.24667
1.248
1.24911
1.25016
1.25079
1.25129
1.25155
1.25158
1.25145
1.25097
1.25066
1.25017
1.24839
1.24706
1.24584
1.24556
1.24522
1.24539
1.2456
1.2464
1.24723
1.24826
1.24899
1.24961
1.24993
1.25011
1.25013
1.24997
1.24957
1.25109
1.25044
1.24976
1.24804
1.24721
1.24635
1.24638
1.24618
1.24661
1.24689
1.24763
1.24808
1.2487
1.24893
1.24922
1.24923
1.24924
1.24908
1.24891
1.24848
1.25058
1.24961
1.24898
1.24798
1.24771
1.24734
1.24745
1.2474
1.2477
1.24785
1.24821
1.24834
1.24858
1.24861
1.2487
1.24864
1.24861
1.24849
1.2484
1.24819
1.2503
1.24951
1.2494
1.24899
1.24902
1.24882
1.24894
1.24886
1.24901
1.24899
1.24914
1.24911
1.24921
1.24916
1.24922
1.24915
1.24917
1.2491
1.24909
1.249
1.24879
1.24851
1.24775
1.24745
1.24699
1.24705
1.24692
1.24715
1.2472
1.24747
1.24752
1.24771
1.24769
1.24778
1.24769
1.24773
1.24757
1.24767
1.24723
1.24841
1.24909
1.24885
1.2477
1.24652
1.24539
1.24502
1.24478
1.24502
1.24532
1.24592
1.24638
1.24687
1.24709
1.24733
1.24727
1.24736
1.247
1.24722
1.24615
1.24796
1.2488
1.24877
1.24757
1.24617
1.24446
1.24375
1.24317
1.24323
1.24336
1.24412
1.24487
1.24585
1.24644
1.24707
1.2472
1.24753
1.24716
1.24748
1.24624
1.24754
1.24901
1.24909
1.24808
1.24666
1.24484
1.2439
1.24324
1.24304
1.2429
1.24337
1.24418
1.24541
1.24646
1.24745
1.24799
1.24855
1.24852
1.24883
1.24803
1.24844
1.24879
1.24893
1.24791
1.24657
1.24466
1.24373
1.24301
1.24281
1.2424
1.24257
1.24309
1.24436
1.24563
1.24697
1.24784
1.24865
1.249
1.24942
1.24911
1.24914
1.24895
1.24912
1.24812
1.24679
1.2449
1.24397
1.24333
1.24315
1.24268
1.2426
1.24287
1.24398
1.24535
1.24684
1.24798
1.24892
1.24957
1.25008
1.2502
1.25018
1.24882
1.249
1.24794
1.24663
1.24471
1.24383
1.24319
1.24308
1.24257
1.24239
1.24248
1.24347
1.2448
1.24638
1.24763
1.24866
1.24944
1.25006
1.25039
1.25053
1.2489
1.24913
1.24806
1.24674
1.24482
1.24397
1.24335
1.24327
1.24276
1.24255
1.24256
1.24347
1.24478
1.24638
1.24768
1.24874
1.24958
1.25025
1.25069
1.25096
1.24884
1.24906
1.24796
1.24665
1.24472
1.24388
1.24327
1.24319
1.24269
1.24247
1.24245
1.24334
1.24463
1.24622
1.24754
1.24861
1.24946
1.25015
1.25063
1.25099
1.24887
1.2491
1.248
1.24668
1.24476
1.24393
1.24332
1.24325
1.24274
1.24252
1.2425
1.24338
1.24467
1.24626
1.24759
1.24865
1.2495
1.2502
1.25069
1.25109
1.24887
1.2491
1.248
1.24668
1.24476
1.24393
1.24332
1.24325
1.24274
1.24252
1.2425
1.24338
1.24467
1.24626
1.24758
1.24865
1.2495
1.2502
1.25068
1.25109
1.24884
1.24906
1.24796
1.24665
1.24472
1.24388
1.24327
1.24319
1.24269
1.24247
1.24245
1.24334
1.24463
1.24623
1.24754
1.24861
1.24945
1.25016
1.25062
1.251
1.2489
1.24913
1.24806
1.24674
1.24482
1.24397
1.24335
1.24327
1.24276
1.24255
1.24256
1.24347
1.24478
1.24638
1.24768
1.24874
1.24958
1.25025
1.25068
1.25098
1.24882
1.249
1.24794
1.24663
1.24471
1.24383
1.24319
1.24307
1.24257
1.24239
1.24248
1.24347
1.2448
1.24638
1.24763
1.24866
1.24945
1.25006
1.25039
1.25053
1.24895
1.24912
1.24813
1.24678
1.2449
1.24397
1.24333
1.24315
1.24268
1.24259
1.24288
1.24398
1.24536
1.24684
1.24799
1.2489
1.2496
1.25004
1.25025
1.25013
1.24879
1.24893
1.24791
1.24657
1.24466
1.24372
1.24302
1.24281
1.24241
1.24256
1.2431
1.24435
1.24565
1.24695
1.24787
1.24861
1.24907
1.24931
1.24928
1.24891
1.24901
1.24909
1.24809
1.24665
1.24484
1.2439
1.24324
1.24304
1.24291
1.24337
1.24419
1.24539
1.24648
1.24742
1.24803
1.24847
1.24865
1.24861
1.24841
1.24784
1.2488
1.24877
1.24757
1.24617
1.24446
1.24375
1.24317
1.24323
1.24336
1.24412
1.24488
1.24584
1.24646
1.24703
1.24725
1.24744
1.24732
1.24717
1.24687
1.24634
1.24909
1.24885
1.2477
1.24652
1.24539
1.24502
1.24478
1.24501
1.24533
1.24591
1.24638
1.24686
1.2471
1.2473
1.24731
1.2473
1.24711
1.24698
1.24673
1.24641
1.24879
1.24851
1.24775
1.24745
1.24699
1.24705
1.24692
1.24715
1.2472
1.24746
1.24752
1.2477
1.24769
1.24777
1.2477
1.24771
1.24761
1.24759
1.24747
1.2474
1.24903
1.24857
1.24758
1.24662
1.24612
1.24603
1.24615
1.24643
1.24672
1.24698
1.24712
1.24723
1.24719
1.24719
1.24701
1.24704
1.24667
1.24708
1.24575
1.24933
1.24903
1.24881
1.24776
1.2461
1.24469
1.24388
1.24356
1.24383
1.24457
1.24561
1.24651
1.24728
1.24762
1.24797
1.24773
1.24792
1.24698
1.24773
1.24547
1.24836
1.249
1.24893
1.24807
1.24638
1.24475
1.24376
1.24319
1.24289
1.24295
1.24371
1.24492
1.24635
1.24746
1.24845
1.24887
1.24944
1.24907
1.24935
1.248
1.24848
1.24899
1.24895
1.24813
1.24645
1.24479
1.24383
1.24336
1.24294
1.24258
1.24274
1.24364
1.24511
1.24661
1.24793
1.24888
1.2497
1.25013
1.25036
1.24995
1.2495
1.24898
1.24895
1.24812
1.24641
1.24475
1.24383
1.24343
1.24303
1.24255
1.24245
1.24313
1.2445
1.2461
1.24751
1.24865
1.24954
1.25032
1.25066
1.25072
1.25018
1.24899
1.24896
1.24811
1.24637
1.24472
1.24383
1.24346
1.24307
1.24256
1.24241
1.24302
1.24436
1.24597
1.2474
1.24858
1.24948
1.25034
1.25077
1.25098
1.25054
1.24898
1.24896
1.24809
1.24635
1.2447
1.24383
1.24345
1.24306
1.24255
1.2424
1.24301
1.24435
1.24596
1.24738
1.24855
1.24945
1.25032
1.25079
1.25104
1.25069
1.24898
1.24896
1.24808
1.24633
1.2447
1.24383
1.24346
1.24305
1.24255
1.24241
1.24304
1.24439
1.24599
1.24742
1.24858
1.24947
1.25033
1.25082
1.25107
1.25077
1.24898
1.24896
1.24808
1.24632
1.24469
1.24383
1.24345
1.24304
1.24253
1.24241
1.24306
1.24441
1.24602
1.24744
1.24859
1.24948
1.25033
1.25082
1.25107
1.25078
1.24898
1.24896
1.24807
1.24632
1.24469
1.24383
1.24345
1.24303
1.24253
1.24242
1.24307
1.24443
1.24604
1.24746
1.2486
1.2495
1.25033
1.25083
1.25107
1.25079
1.24898
1.24896
1.24807
1.24632
1.24469
1.24383
1.24345
1.24303
1.24253
1.24242
1.24307
1.24443
1.24604
1.24746
1.2486
1.2495
1.25033
1.25083
1.25107
1.25079
1.24898
1.24896
1.24808
1.24632
1.24469
1.24383
1.24345
1.24304
1.24253
1.24241
1.24306
1.24441
1.24602
1.24744
1.24859
1.24949
1.25032
1.25083
1.25106
1.25079
1.24898
1.24896
1.24808
1.24633
1.2447
1.24383
1.24346
1.24305
1.24255
1.24241
1.24304
1.24439
1.24599
1.24742
1.24857
1.24948
1.25032
1.25083
1.25106
1.25078
1.24898
1.24896
1.24809
1.24635
1.2447
1.24383
1.24345
1.24306
1.24255
1.2424
1.24301
1.24435
1.24595
1.24739
1.24855
1.24946
1.25031
1.25081
1.25102
1.25071
1.24899
1.24896
1.24811
1.24637
1.24472
1.24383
1.24346
1.24307
1.24256
1.24241
1.24302
1.24436
1.24597
1.24741
1.24857
1.24949
1.25032
1.25079
1.25095
1.25058
1.24899
1.24895
1.24812
1.24641
1.24475
1.24383
1.24343
1.24303
1.24255
1.24245
1.24313
1.2445
1.2461
1.24751
1.24865
1.24955
1.25031
1.25067
1.2507
1.25021
1.24899
1.24895
1.24813
1.24644
1.24479
1.24383
1.24336
1.24294
1.24258
1.24274
1.24365
1.2451
1.24662
1.24791
1.24891
1.24967
1.25018
1.25029
1.25005
1.24938
1.249
1.24893
1.24807
1.24638
1.24475
1.24376
1.2432
1.24288
1.24297
1.24369
1.24494
1.24632
1.2475
1.24839
1.24897
1.2493
1.24928
1.24903
1.24848
1.24781
1.24903
1.24881
1.24776
1.2461
1.24469
1.24387
1.24357
1.24382
1.24458
1.24559
1.24653
1.24724
1.24768
1.24788
1.24786
1.24771
1.24735
1.24708
1.24664
1.24632
1.24903
1.24857
1.24758
1.24662
1.24612
1.24603
1.24615
1.24643
1.24672
1.24697
1.24713
1.24721
1.24721
1.24716
1.24706
1.24696
1.24682
1.24676
1.24662
1.24654
1.24903
1.24857
1.24758
1.24662
1.24612
1.24603
1.24615
1.24643
1.24672
1.24698
1.24712
1.24722
1.24719
1.24719
1.24701
1.24704
1.24667
1.24708
1.24575
1.24933
1.24903
1.24881
1.24776
1.2461
1.24469
1.24388
1.24357
1.24383
1.24457
1.24561
1.24651
1.24728
1.24762
1.24797
1.24773
1.24792
1.24698
1.24773
1.24547
1.24836
1.249
1.24893
1.24807
1.24638
1.24475
1.24376
1.24319
1.24289
1.24295
1.24371
1.24492
1.24635
1.24746
1.24845
1.24887
1.24944
1.24907
1.24935
1.248
1.24848
1.24899
1.24895
1.24813
1.24645
1.24479
1.24383
1.24336
1.24294
1.24258
1.24274
1.24364
1.24511
1.24661
1.24793
1.24888
1.2497
1.25013
1.25036
1.24995
1.2495
1.24898
1.24895
1.24812
1.24641
1.24475
1.24383
1.24343
1.24303
1.24255
1.24245
1.24313
1.2445
1.2461
1.24751
1.24865
1.24954
1.25032
1.25066
1.25072
1.25018
1.24899
1.24896
1.24811
1.24637
1.24472
1.24383
1.24346
1.24307
1.24256
1.24241
1.24302
1.24436
1.24597
1.2474
1.24858
1.24948
1.25034
1.25077
1.25098
1.25054
1.24898
1.24896
1.24809
1.24635
1.2447
1.24383
1.24345
1.24306
1.24255
1.2424
1.24301
1.24435
1.24596
1.24738
1.24855
1.24945
1.25032
1.25079
1.25104
1.25069
1.24898
1.24896
1.24808
1.24633
1.2447
1.24383
1.24346
1.24305
1.24255
1.24241
1.24304
1.24439
1.24599
1.24742
1.24858
1.24947
1.25033
1.25082
1.25107
1.25077
1.24898
1.24896
1.24808
1.24632
1.24469
1.24383
1.24345
1.24304
1.24253
1.24241
1.24306
1.24441
1.24602
1.24744
1.24859
1.24948
1.25033
1.25082
1.25107
1.25078
1.24898
1.24896
1.24807
1.24632
1.24469
1.24383
1.24345
1.24303
1.24253
1.24242
1.24307
1.24443
1.24604
1.24746
1.2486
1.2495
1.25033
1.25083
1.25107
1.25079
1.24898
1.24896
1.24807
1.24632
1.24469
1.24383
1.24345
1.24303
1.24253
1.24242
1.24307
1.24443
1.24604
1.24746
1.2486
1.2495
1.25033
1.25083
1.25107
1.25079
1.24898
1.24896
1.24808
1.24632
1.24469
1.24383
1.24345
1.24304
1.24253
1.24241
1.24306
1.24441
1.24602
1.24744
1.24859
1.24949
1.25032
1.25083
1.25106
1.25079
1.24898
1.24896
1.24808
1.24633
1.2447
1.24383
1.24346
1.24305
1.24255
1.24241
1.24304
1.24439
1.24599
1.24742
1.24857
1.24948
1.25032
1.25083
1.25106
1.25078
1.24898
1.24896
1.24809
1.24635
1.2447
1.24383
1.24345
1.24306
1.24255
1.2424
1.24301
1.24435
1.24595
1.24739
1.24855
1.24946
1.25031
1.25081
1.25102
1.25071
1.24899
1.24896
1.24811
1.24637
1.24472
1.24383
1.24346
1.24307
1.24256
1.24241
1.24302
1.24436
1.24597
1.24741
1.24857
1.24949
1.25032
1.25079
1.25095
1.25058
1.24899
1.24895
1.24812
1.24641
1.24475
1.24383
1.24343
1.24303
1.24255
1.24245
1.24313
1.2445
1.2461
1.24751
1.24865
1.24955
1.25031
1.25067
1.2507
1.25021
1.24899
1.24895
1.24813
1.24644
1.24479
1.24383
1.24336
1.24294
1.24258
1.24274
1.24365
1.2451
1.24662
1.24791
1.24891
1.24967
1.25018
1.25029
1.25005
1.24938
1.249
1.24893
1.24807
1.24638
1.24475
1.24376
1.2432
1.24288
1.24296
1.24369
1.24494
1.24632
1.2475
1.24839
1.24897
1.2493
1.24928
1.24903
1.24848
1.24781
1.24903
1.24881
1.24776
1.2461
1.24469
1.24387
1.24357
1.24382
1.24458
1.24559
1.24653
1.24724
1.24768
1.24788
1.24786
1.24771
1.24735
1.24708
1.24664
1.24632
1.24903
1.24857
1.24758
1.24662
1.24612
1.24603
1.24615
1.24643
1.24672
1.24697
1.24713
1.24721
1.24721
1.24716
1.24706
1.24696
1.24682
1.24676
1.24662
1.24654
1.24879
1.24851
1.24775
1.24745
1.24699
1.24705
1.24692
1.24715
1.2472
1.24747
1.24752
1.24771
1.24769
1.24778
1.24769
1.24773
1.24757
1.24767
1.24723
1.24841
1.24909
1.24885
1.2477
1.24652
1.24539
1.24502
1.24478
1.24502
1.24532
1.24592
1.24638
1.24687
1.24709
1.24733
1.24727
1.24736
1.247
1.24722
1.24615
1.24796
1.2488
1.24877
1.24757
1.24617
1.24446
1.24375
1.24317
1.24323
1.24336
1.24412
1.24487
1.24585
1.24644
1.24707
1.2472
1.24753
1.24716
1.24748
1.24624
1.24754
1.24901
1.24909
1.24808
1.24666
1.24484
1.2439
1.24324
1.24304
1.2429
1.24337
1.24418
1.24541
1.24646
1.24745
1.24799
1.24855
1.24852
1.24883
1.24803
1.24844
1.24879
1.24893
1.24791
1.24657
1.24466
1.24373
1.24301
1.24281
1.2424
1.24257
1.24309
1.24436
1.24564
1.24697
1.24784
1.24865
1.249
1.24942
1.24911
1.24914
1.24895
1.24912
1.24812
1.24679
1.2449
1.24397
1.24333
1.24315
1.24268
1.2426
1.24287
1.24398
1.24535
1.24685
1.24798
1.24892
1.24957
1.25008
1.25021
1.25018
1.24882
1.249
1.24794
1.24663
1.24471
1.24383
1.24319
1.24308
1.24257
1.24239
1.24248
1.24347
1.2448
1.24638
1.24763
1.24866
1.24945
1.25006
1.25039
1.25053
1.2489
1.24913
1.24806
1.24674
1.24482
1.24397
1.24335
1.24327
1.24276
1.24255
1.24256
1.24347
1.24478
1.24638
1.24768
1.24874
1.24958
1.25025
1.25069
1.25096
1.24884
1.24906
1.24796
1.24665
1.24472
1.24388
1.24327
1.24319
1.24269
1.24247
1.24245
1.24334
1.24463
1.24623
1.24754
1.24861
1.24946
1.25015
1.25063
1.25099
1.24887
1.2491
1.248
1.24668
1.24476
1.24393
1.24332
1.24325
1.24274
1.24252
1.2425
1.24338
1.24467
1.24626
1.24759
1.24865
1.2495
1.2502
1.25069
1.25109
1.24887
1.2491
1.248
1.24668
1.24476
1.24393
1.24332
1.24325
1.24274
1.24252
1.2425
1.24338
1.24467
1.24627
1.24758
1.24865
1.2495
1.2502
1.25068
1.25109
1.24884
1.24906
1.24796
1.24665
1.24472
1.24388
1.24327
1.24319
1.24269
1.24247
1.24245
1.24334
1.24463
1.24623
1.24754
1.24861
1.24945
1.25016
1.25062
1.251
1.2489
1.24913
1.24806
1.24674
1.24482
1.24397
1.24335
1.24327
1.24276
1.24255
1.24256
1.24347
1.24478
1.24638
1.24768
1.24874
1.24958
1.25025
1.25068
1.25098
1.24882
1.249
1.24794
1.24663
1.24471
1.24383
1.24319
1.24307
1.24257
1.24239
1.24248
1.24347
1.2448
1.24638
1.24763
1.24866
1.24945
1.25006
1.25039
1.25053
1.24895
1.24912
1.24813
1.24678
1.2449
1.24397
1.24333
1.24315
1.24268
1.24259
1.24288
1.24398
1.24536
1.24684
1.24799
1.2489
1.2496
1.25004
1.25025
1.25013
1.24879
1.24893
1.24791
1.24657
1.24466
1.24372
1.24302
1.24281
1.24241
1.24256
1.2431
1.24435
1.24565
1.24695
1.24786
1.24861
1.24907
1.24931
1.24928
1.24891
1.24901
1.24909
1.24809
1.24666
1.24484
1.2439
1.24324
1.24304
1.24291
1.24337
1.24419
1.24539
1.24648
1.24742
1.24803
1.24847
1.24865
1.24861
1.24841
1.24783
1.2488
1.24877
1.24757
1.24617
1.24446
1.24375
1.24317
1.24323
1.24336
1.24412
1.24488
1.24584
1.24646
1.24703
1.24725
1.24744
1.24732
1.24717
1.24687
1.24634
1.24909
1.24885
1.2477
1.24652
1.24539
1.24502
1.24478
1.24501
1.24533
1.24591
1.24638
1.24686
1.2471
1.2473
1.24731
1.2473
1.24711
1.24698
1.24673
1.24641
1.24879
1.24851
1.24775
1.24745
1.24699
1.24705
1.24692
1.24715
1.2472
1.24746
1.24753
1.2477
1.24769
1.24777
1.2477
1.24771
1.24761
1.24759
1.24747
1.2474
1.2503
1.24951
1.2494
1.24899
1.24902
1.24882
1.24894
1.24886
1.24901
1.24899
1.24914
1.24911
1.24921
1.24917
1.24921
1.24916
1.24915
1.24912
1.24902
1.24922
1.25058
1.24961
1.24898
1.24798
1.24771
1.24734
1.24745
1.2474
1.2477
1.24785
1.2482
1.24835
1.24858
1.24862
1.24869
1.24866
1.24856
1.24858
1.24815
1.24907
1.25109
1.25044
1.24976
1.24804
1.24721
1.24635
1.24638
1.24618
1.24661
1.24689
1.24763
1.24809
1.24869
1.24895
1.2492
1.24928
1.24915
1.24929
1.24844
1.24964
1.25097
1.25066
1.25017
1.24839
1.24706
1.24584
1.24555
1.24522
1.24538
1.2456
1.24639
1.24724
1.24825
1.24901
1.24957
1.24999
1.25
1.25035
1.24954
1.25034
1.25114
1.25097
1.2508
1.24911
1.24771
1.24624
1.24587
1.2454
1.24541
1.24528
1.24586
1.24668
1.24799
1.24913
1.25013
1.25084
1.25122
1.25168
1.25136
1.25178
1.25099
1.25084
1.25075
1.24917
1.24774
1.2462
1.24577
1.24534
1.24528
1.24494
1.24518
1.24577
1.24708
1.24845
1.24977
1.25073
1.25141
1.25202
1.2521
1.25256
1.2511
1.25095
1.25092
1.24934
1.24796
1.24639
1.24599
1.24559
1.24558
1.24512
1.24516
1.24549
1.24673
1.24813
1.24967
1.25077
1.25166
1.25235
1.25269
1.2533
1.25103
1.25084
1.2508
1.24919
1.24781
1.24623
1.24586
1.24549
1.24552
1.24502
1.24496
1.24515
1.24629
1.24768
1.24932
1.25049
1.25148
1.25221
1.25266
1.25342
1.25108
1.25091
1.25086
1.24923
1.24786
1.24629
1.24594
1.24558
1.24563
1.24513
1.24503
1.24515
1.24625
1.24762
1.2493
1.25049
1.25152
1.25228
1.25277
1.25361
1.25106
1.25087
1.25082
1.24917
1.24779
1.24623
1.24589
1.24554
1.24559
1.24509
1.24499
1.24508
1.24617
1.24753
1.24921
1.25042
1.25145
1.25222
1.25271
1.25359
1.25106
1.25087
1.25082
1.24917
1.24779
1.24623
1.24589
1.24554
1.24559
1.24509
1.24499
1.24508
1.24617
1.24753
1.24921
1.25042
1.25145
1.25222
1.25271
1.2536
1.25108
1.25091
1.25086
1.24923
1.24786
1.24629
1.24594
1.24558
1.24563
1.24513
1.24503
1.24515
1.24625
1.24762
1.24929
1.2505
1.25151
1.25229
1.25276
1.25362
1.25103
1.25084
1.2508
1.24919
1.24781
1.24623
1.24586
1.24549
1.24552
1.24502
1.24496
1.24515
1.24629
1.24768
1.24932
1.25049
1.25147
1.25222
1.25266
1.25343
1.2511
1.25095
1.25092
1.24934
1.24796
1.24639
1.24599
1.24558
1.24558
1.24512
1.24516
1.24549
1.24673
1.24812
1.24968
1.25076
1.25167
1.25234
1.25271
1.25329
1.25099
1.25084
1.25075
1.24917
1.24774
1.2462
1.24577
1.24534
1.24529
1.24494
1.24518
1.24577
1.24709
1.24844
1.24979
1.25071
1.25145
1.25197
1.25218
1.25246
1.25114
1.25097
1.2508
1.24911
1.24771
1.24624
1.24587
1.2454
1.24542
1.24528
1.24587
1.24667
1.248
1.24911
1.25016
1.2508
1.25129
1.25155
1.25158
1.25145
1.25097
1.25066
1.25017
1.24839
1.24706
1.24584
1.24556
1.24522
1.24539
1.2456
1.2464
1.24724
1.24826
1.24899
1.24961
1.24993
1.25012
1.25013
1.24997
1.24957
1.25109
1.25044
1.24976
1.24804
1.24721
1.24635
1.24638
1.24618
1.24661
1.24689
1.24763
1.24808
1.2487
1.24893
1.24923
1.24923
1.24924
1.24908
1.24891
1.24848
1.25058
1.24961
1.24898
1.24798
1.24771
1.24734
1.24745
1.2474
1.2477
1.24785
1.24821
1.24835
1.24858
1.24861
1.2487
1.24864
1.24861
1.24849
1.2484
1.24819
1.2503
1.24951
1.2494
1.24899
1.24902
1.24882
1.24894
1.24886
1.24901
1.24899
1.24914
1.24911
1.24921
1.24916
1.24922
1.24915
1.24917
1.2491
1.24909
1.249
1.23515
1.22662
1.2222
1.21988
1.21917
1.21874
1.21871
1.21852
1.21853
1.21838
1.21838
1.21824
1.21823
1.21811
1.2181
1.21799
1.21797
1.21787
1.21785
1.21774
1.21771
1.21762
1.21758
1.21749
1.21746
1.21737
1.21734
1.21725
1.21721
1.21712
1.21707
1.21698
1.21693
1.21684
1.21679
1.2167
1.21665
1.21657
1.21651
1.21642
1.21635
1.21626
1.21618
1.21609
1.21602
1.21592
1.21585
1.21576
1.21569
1.2156
1.21551
1.2154
1.21531
1.21518
1.21508
1.21495
1.21484
1.21472
1.21461
1.21447
1.21435
1.21418
1.21403
1.21383
1.21363
1.21338
1.21314
1.21285
1.21257
1.21222
1.21191
1.21151
1.21115
1.21069
1.21026
1.20974
1.20923
1.20865
1.20807
1.20743
1.20679
1.20615
1.20547
1.20487
1.20419
1.20365
1.20299
1.20249
1.20186
1.20518
1.2376
1.22914
1.22466
1.22227
1.22151
1.22106
1.22101
1.22083
1.22083
1.22068
1.22067
1.22054
1.22053
1.22041
1.2204
1.22029
1.22027
1.22017
1.22015
1.22004
1.22002
1.21992
1.21988
1.21979
1.21976
1.21967
1.21964
1.21955
1.21951
1.21942
1.21937
1.21928
1.21923
1.21914
1.21909
1.219
1.21895
1.21887
1.21881
1.21872
1.21866
1.21856
1.21848
1.21839
1.21832
1.21822
1.21816
1.21806
1.21799
1.2179
1.21781
1.2177
1.21761
1.21748
1.21738
1.21725
1.21714
1.21702
1.21691
1.21677
1.21665
1.21648
1.21633
1.21613
1.21593
1.21568
1.21544
1.21514
1.21487
1.21452
1.2142
1.21381
1.21344
1.21299
1.21256
1.21203
1.21153
1.21094
1.21036
1.20973
1.20908
1.20844
1.20776
1.20716
1.20648
1.20593
1.20528
1.20477
1.20411
1.20726
1.24198
1.23397
1.22944
1.22688
1.22599
1.22547
1.2254
1.22519
1.22519
1.22503
1.22503
1.22489
1.22487
1.22475
1.22474
1.22463
1.22461
1.2245
1.22448
1.22437
1.22434
1.22424
1.22421
1.22412
1.22408
1.22399
1.22396
1.22387
1.22383
1.22374
1.22369
1.22359
1.22354
1.22345
1.2234
1.22332
1.22327
1.22318
1.22313
1.22303
1.22297
1.22287
1.22279
1.2227
1.22263
1.22253
1.22246
1.22237
1.2223
1.2222
1.22212
1.22201
1.22191
1.22179
1.22168
1.22155
1.22145
1.22132
1.22121
1.22107
1.22095
1.22078
1.22063
1.22043
1.22023
1.21998
1.21974
1.21944
1.21916
1.21882
1.2185
1.2181
1.21774
1.21728
1.21685
1.21632
1.21581
1.21523
1.21464
1.21401
1.21336
1.21272
1.21204
1.21143
1.21075
1.2102
1.20955
1.20904
1.20835
1.21104
1.24563
1.23863
1.23421
1.23151
1.23044
1.22982
1.2297
1.22948
1.22947
1.22931
1.2293
1.22916
1.22915
1.22903
1.22901
1.2289
1.22889
1.22878
1.22875
1.22865
1.22862
1.22852
1.22849
1.22839
1.22836
1.22827
1.22824
1.22815
1.22811
1.22801
1.22797
1.22787
1.22782
1.22773
1.22768
1.22759
1.22754
1.22746
1.2274
1.22731
1.22724
1.22714
1.22707
1.22697
1.2269
1.2268
1.22674
1.22664
1.22657
1.22647
1.22639
1.22628
1.22618
1.22606
1.22595
1.22582
1.22572
1.22559
1.22548
1.22534
1.22522
1.22505
1.2249
1.22469
1.2245
1.22424
1.22401
1.2237
1.22342
1.22308
1.22276
1.22236
1.22199
1.22153
1.2211
1.22057
1.22006
1.21947
1.21888
1.21825
1.2176
1.21695
1.21627
1.21566
1.21497
1.21442
1.21377
1.21326
1.21256
1.21455
1.2488
1.24298
1.23896
1.23623
1.23504
1.2343
1.23412
1.23387
1.23385
1.23368
1.23367
1.23353
1.23351
1.23339
1.23337
1.23326
1.23324
1.23313
1.2331
1.233
1.23297
1.23287
1.23283
1.23274
1.2327
1.23261
1.23258
1.23249
1.23244
1.23235
1.2323
1.23221
1.23215
1.23206
1.23201
1.23193
1.23188
1.23179
1.23173
1.23164
1.23157
1.23147
1.2314
1.2313
1.23123
1.23113
1.23106
1.23097
1.2309
1.2308
1.23072
1.2306
1.23051
1.23038
1.23027
1.23014
1.23004
1.22991
1.2298
1.22966
1.22953
1.22937
1.22921
1.22901
1.22881
1.22856
1.22832
1.22801
1.22773
1.22738
1.22706
1.22666
1.22629
1.22583
1.2254
1.22487
1.22436
1.22376
1.22317
1.22254
1.22188
1.22124
1.22055
1.21994
1.21925
1.2187
1.21804
1.21754
1.21684
1.21812
1.25039
1.24563
1.24214
1.2396
1.23835
1.23755
1.2373
1.23704
1.237
1.23684
1.23683
1.23669
1.23667
1.23655
1.23653
1.23642
1.2364
1.2363
1.23627
1.23617
1.23613
1.23603
1.236
1.23591
1.23587
1.23578
1.23575
1.23566
1.23562
1.23552
1.23548
1.23538
1.23533
1.23523
1.23518
1.2351
1.23505
1.23496
1.23491
1.23481
1.23474
1.23464
1.23457
1.23447
1.2344
1.2343
1.23423
1.23414
1.23407
1.23397
1.23389
1.23377
1.23368
1.23355
1.23344
1.23331
1.2332
1.23307
1.23296
1.23282
1.2327
1.23253
1.23238
1.23217
1.23197
1.23172
1.23148
1.23117
1.23089
1.23054
1.23022
1.22982
1.22945
1.22898
1.22855
1.22802
1.2275
1.22691
1.22632
1.22568
1.22502
1.22438
1.22369
1.22307
1.22238
1.22183
1.22117
1.22067
1.21998
1.22066
1.25166
1.24763
1.24472
1.24244
1.24125
1.24041
1.24013
1.23984
1.23979
1.23962
1.2396
1.23946
1.23944
1.23932
1.2393
1.23919
1.23917
1.23906
1.23903
1.23893
1.2389
1.2388
1.23876
1.23867
1.23863
1.23854
1.2385
1.23842
1.23837
1.23828
1.23823
1.23813
1.23808
1.23799
1.23794
1.23785
1.2378
1.23771
1.23766
1.23756
1.23749
1.23739
1.23732
1.23722
1.23715
1.23705
1.23698
1.23689
1.23682
1.23672
1.23663
1.23652
1.23642
1.23629
1.23619
1.23606
1.23595
1.23581
1.2357
1.23556
1.23544
1.23527
1.23511
1.23491
1.23471
1.23445
1.23421
1.23391
1.23362
1.23327
1.23295
1.23255
1.23218
1.23171
1.23128
1.23074
1.23023
1.22963
1.22904
1.2284
1.22775
1.2271
1.22641
1.22579
1.2251
1.22455
1.22389
1.22339
1.22272
1.22297
1.25212
1.24856
1.24613
1.24418
1.24312
1.24231
1.24202
1.24172
1.24166
1.24149
1.24147
1.24134
1.24132
1.2412
1.24118
1.24107
1.24105
1.24094
1.24092
1.24081
1.24078
1.24068
1.24065
1.24055
1.24052
1.24043
1.2404
1.24031
1.24026
1.24017
1.24012
1.24003
1.23997
1.23988
1.23983
1.23975
1.2397
1.23961
1.23955
1.23946
1.23939
1.23929
1.23921
1.23911
1.23904
1.23895
1.23888
1.23878
1.23871
1.23861
1.23853
1.23841
1.23831
1.23819
1.23808
1.23795
1.23784
1.23771
1.2376
1.23746
1.23733
1.23716
1.23701
1.2368
1.2366
1.23634
1.2361
1.2358
1.23551
1.23516
1.23484
1.23443
1.23406
1.2336
1.23316
1.23263
1.23211
1.23151
1.23092
1.23028
1.22962
1.22897
1.22828
1.22767
1.22697
1.22642
1.22576
1.22526
1.22461
1.22456
1.2525
1.24922
1.24718
1.24552
1.24465
1.24388
1.24361
1.24329
1.24323
1.24306
1.24303
1.24289
1.24288
1.24275
1.24273
1.24262
1.2426
1.2425
1.24247
1.24236
1.24233
1.24223
1.2422
1.2421
1.24207
1.24198
1.24194
1.24185
1.24181
1.24172
1.24167
1.24157
1.24152
1.24143
1.24138
1.24129
1.24124
1.24115
1.24109
1.241
1.24093
1.24083
1.24076
1.24065
1.24058
1.24049
1.24042
1.24032
1.24025
1.24015
1.24007
1.23995
1.23985
1.23973
1.23962
1.23949
1.23938
1.23925
1.23914
1.23899
1.23887
1.2387
1.23854
1.23834
1.23814
1.23788
1.23764
1.23733
1.23705
1.2367
1.23637
1.23597
1.2356
1.23513
1.23469
1.23416
1.23364
1.23304
1.23245
1.23181
1.23115
1.2305
1.22981
1.22919
1.2285
1.22795
1.22729
1.22679
1.22616
1.22593
1.25257
1.24943
1.24764
1.24623
1.24555
1.24487
1.24463
1.24432
1.24426
1.24409
1.24406
1.24393
1.24391
1.2438
1.24378
1.24367
1.24365
1.24355
1.24352
1.24342
1.24339
1.24329
1.24325
1.24316
1.24313
1.24304
1.243
1.24292
1.24287
1.24278
1.24273
1.24264
1.24258
1.24249
1.24244
1.24236
1.24231
1.24222
1.24216
1.24207
1.242
1.2419
1.24182
1.24172
1.24165
1.24156
1.24149
1.24139
1.24132
1.24122
1.24114
1.24102
1.24092
1.2408
1.24069
1.24056
1.24045
1.24031
1.2402
1.24006
1.23993
1.23977
1.23961
1.2394
1.2392
1.23895
1.2387
1.2384
1.23811
1.23776
1.23744
1.23703
1.23666
1.23619
1.23575
1.23522
1.2347
1.2341
1.23351
1.23287
1.23221
1.23156
1.23087
1.23025
1.22956
1.229
1.22834
1.22784
1.22722
1.22689
1.25255
1.24947
1.24785
1.24666
1.24615
1.24558
1.24539
1.24509
1.24504
1.24487
1.24484
1.24471
1.24469
1.24457
1.24455
1.24445
1.24443
1.24433
1.2443
1.2442
1.24417
1.24407
1.24403
1.24394
1.24391
1.24382
1.24378
1.2437
1.24365
1.24356
1.24351
1.24342
1.24336
1.24327
1.24322
1.24314
1.24309
1.243
1.24294
1.24285
1.24278
1.24268
1.24261
1.24251
1.24243
1.24234
1.24227
1.24217
1.2421
1.242
1.24192
1.2418
1.2417
1.24158
1.24147
1.24134
1.24123
1.2411
1.24099
1.24084
1.24072
1.24055
1.24039
1.24019
1.23999
1.23973
1.23949
1.23918
1.2389
1.23854
1.23822
1.23781
1.23744
1.23698
1.23654
1.236
1.23549
1.23489
1.23429
1.23365
1.23299
1.23234
1.23165
1.23103
1.23034
1.22978
1.22913
1.22862
1.22801
1.22762
1.25246
1.24939
1.24791
1.2469
1.24653
1.24606
1.24592
1.24566
1.24562
1.24545
1.24543
1.24529
1.24527
1.24515
1.24513
1.24502
1.245
1.24489
1.24487
1.24476
1.24473
1.24463
1.2446
1.2445
1.24447
1.24438
1.24434
1.24425
1.24421
1.24412
1.24407
1.24397
1.24392
1.24383
1.24378
1.24369
1.24364
1.24356
1.2435
1.24341
1.24334
1.24324
1.24316
1.24306
1.24299
1.2429
1.24283
1.24273
1.24266
1.24256
1.24248
1.24236
1.24227
1.24214
1.24203
1.2419
1.24179
1.24166
1.24155
1.24141
1.24128
1.24112
1.24096
1.24075
1.24055
1.2403
1.24005
1.23975
1.23946
1.23911
1.23879
1.23838
1.23801
1.23754
1.23711
1.23657
1.23605
1.23546
1.23486
1.23422
1.23356
1.23291
1.23222
1.2316
1.23091
1.23036
1.2297
1.2292
1.2286
1.22818
1.25206
1.24906
1.24769
1.24685
1.24659
1.24624
1.24614
1.24592
1.24588
1.24573
1.24571
1.24557
1.24556
1.24544
1.24542
1.24531
1.24529
1.24519
1.24516
1.24506
1.24503
1.24493
1.2449
1.2448
1.24477
1.24468
1.24464
1.24456
1.24452
1.24442
1.24437
1.24428
1.24423
1.24413
1.24408
1.244
1.24395
1.24386
1.24381
1.24371
1.24365
1.24354
1.24347
1.24337
1.2433
1.2432
1.24314
1.24304
1.24297
1.24287
1.24279
1.24268
1.24258
1.24245
1.24235
1.24222
1.24211
1.24198
1.24186
1.24172
1.2416
1.24143
1.24128
1.24107
1.24087
1.24062
1.24037
1.24007
1.23979
1.23943
1.23911
1.23871
1.23834
1.23787
1.23743
1.2369
1.23638
1.23579
1.23519
1.23455
1.23389
1.23324
1.23255
1.23194
1.23125
1.23069
1.23003
1.22953
1.22893
1.2285
1.2517
1.24885
1.24765
1.24694
1.24679
1.24649
1.24644
1.24624
1.24622
1.24606
1.24604
1.2459
1.24589
1.24577
1.24575
1.24564
1.24562
1.24551
1.24549
1.24538
1.24535
1.24525
1.24522
1.24512
1.24509
1.245
1.24496
1.24488
1.24483
1.24474
1.24469
1.2446
1.24454
1.24445
1.2444
1.24432
1.24427
1.24418
1.24412
1.24403
1.24396
1.24386
1.24379
1.24369
1.24362
1.24352
1.24345
1.24336
1.24329
1.24319
1.24311
1.243
1.2429
1.24277
1.24267
1.24254
1.24243
1.2423
1.24219
1.24205
1.24192
1.24176
1.2416
1.2414
1.2412
1.24095
1.2407
1.2404
1.24012
1.23977
1.23945
1.23904
1.23867
1.23821
1.23777
1.23724
1.23673
1.23613
1.23554
1.2349
1.23424
1.23359
1.2329
1.23229
1.2316
1.23105
1.23039
1.22989
1.22929
1.22886
1.25077
1.24828
1.24728
1.24672
1.24664
1.24641
1.24639
1.24621
1.2462
1.24605
1.24604
1.2459
1.24589
1.24577
1.24576
1.24565
1.24563
1.24553
1.2455
1.2454
1.24537
1.24527
1.24523
1.24514
1.24511
1.24502
1.24498
1.24489
1.24485
1.24476
1.24471
1.24462
1.24456
1.24447
1.24442
1.24433
1.24429
1.2442
1.24414
1.24405
1.24398
1.24388
1.24381
1.24371
1.24364
1.24354
1.24347
1.24338
1.24331
1.24321
1.24313
1.24301
1.24292
1.24279