/*--------------------------------*- C++ -*----------------------------------*\
  =========                 |
  \\      /  F ield         | OpenFOAM: The Open Source CFD Toolbox
   \\    /   O peration     | Website:  https://openfoam.org
    \\  /    A nd           | Version:  7
     \\/     M anipulation  |
\*---------------------------------------------------------------------------*/
FoamFile
{
    version     2.0;
    format      ascii;
    class       surfaceScalarField;
    location    "0.0375";
    object      phi;
}
// * * * * * * * * * * * * * * * * * * * * * * * * * * * * * * * * * * * * * //

dimensions      [1 0 -1 0 0 0 0];

internalField   nonuniform List<scalar> 
2748
(
0.00484624
2.34629e-05
0.0047839
6.03654e-05
0.004685
9.68486e-05
0.00455708
0.000125831
0.0044061
0.000148892
0.00423935
0.000164722
0.00406328
0.000174144
0.00388349
0.000178005
0.00370422
0.000177654
0.00352885
0.000173929
0.00335985
0.000167731
0.00319884
0.000159884
0.00304705
0.000150734
0.00290513
0.000140871
0.00277327
0.000130735
0.00265133
0.000120658
0.00253901
0.000110837
0.00243591
0.000101387
0.00234162
9.239e-05
0.00225573
8.38763e-05
0.0021779
7.5831e-05
0.00210779
6.82508e-05
0.00204497
6.11574e-05
0.00198893
5.46086e-05
0.00193898
4.868e-05
0.00189435
4.34234e-05
0.00185426
3.88382e-05
0.001818
3.48649e-05
0.00178508
3.13909e-05
0.00175523
2.82549e-05
0.00172837
2.52724e-05
0.00170456
2.23094e-05
0.00168387
1.93111e-05
0.00166628
1.62961e-05
0.00165172
1.33243e-05
0.00164003
1.04845e-05
0.00163091
7.90523e-06
0.00162395
5.70367e-06
0.00161869
3.93931e-06
0.00161467
2.61706e-06
0.00161147
1.70788e-06
0.00160874
1.15369e-06
0.00160623
8.70332e-07
0.00160382
7.3912e-07
0.00160147
6.56105e-07
0.00159919
5.90967e-07
0.00159695
5.55217e-07
0.00159477
5.26966e-07
0.00159271
4.59723e-07
0.00159082
3.57017e-07
0.00158915
2.15252e-07
0.0015877
7.2325e-08
0.00158639
-1.73313e-09
0.00158515
1.10701e-09
0.00158396
2.99455e-08
0.00158283
4.86025e-08
0.00158181
1.56943e-08
0.00158083
1.65725e-08
0.00157984
6.20944e-08
8.80531e-08
0.00157876
0.00487697
1.60792e-05
0.00489292
4.24343e-05
0.00491861
6.91075e-05
0.00494988
9.24578e-05
0.0049831
0.000113575
0.0050146
0.00013116
0.00504149
0.000145274
0.00506196
0.000155686
0.00507519
0.000162736
0.00508098
0.000166632
0.00507967
0.000167752
0.0050719
0.000166563
0.0050584
0.000163336
0.00504
0.000158541
0.00501755
0.000152566
0.00499187
0.000145786
0.00496365
0.000138503
0.00493345
0.000130963
0.00490178
0.000123322
0.00486904
0.000115686
0.00483558
0.000108149
0.00480165
0.000100795
0.00476748
9.3703e-05
0.00473327
8.69672e-05
0.00469921
8.0685e-05
0.00466547
7.49334e-05
0.0046322
6.97446e-05
0.00459953
6.50913e-05
0.0045676
6.08788e-05
0.00453652
5.69638e-05
0.00450637
5.31809e-05
0.00447724
4.93882e-05
0.00444927
4.54884e-05
0.00442266
4.14476e-05
0.00439761
3.72977e-05
0.00437425
3.31267e-05
0.00435267
2.90608e-05
0.00433295
2.5206e-05
0.00431524
2.16257e-05
0.00429963
1.83607e-05
0.00428606
1.54535e-05
0.00427429
1.29336e-05
0.00426406
1.0781e-05
0.00425522
8.90843e-06
0.00424766
7.22903e-06
0.00424126
5.73111e-06
0.00423572
4.44503e-06
0.00423068
3.39077e-06
0.00422582
2.55986e-06
0.00422106
1.90509e-06
0.00421653
1.35746e-06
0.00421234
9.11956e-07
0.00420848
6.14531e-07
0.00420476
4.97259e-07
0.00420106
4.93421e-07
0.00419749
4.98532e-07
0.0041944
3.97145e-07
0.00419223
2.24447e-07
0.00419116
1.03728e-07
1.16861e-07
0.00419097
0.00487488
1.07604e-05
0.00488558
2.97567e-05
0.00490382
4.88157e-05
0.00492853
6.5655e-05
0.00495899
8.10083e-05
0.00499417
9.39108e-05
0.00503295
0.000104516
0.00507416
0.000112621
0.00511674
0.000118455
0.00515972
0.000122138
0.00520226
0.000123904
0.00524367
0.000124048
0.00528335
0.000122749
0.00532085
0.000120302
0.00535588
0.000116951
0.00538826
0.000112931
0.0054179
0.000108434
0.00544482
0.000103631
0.00546902
9.86429e-05
0.00549055
9.356e-05
0.00550948
8.8454e-05
0.00552591
8.33855e-05
0.00553996
7.84211e-05
0.00555177
7.36467e-05
0.00556151
6.91482e-05
0.00556937
6.49902e-05
0.00557556
6.11992e-05
0.00558031
5.77494e-05
0.00558384
5.45648e-05
0.00558634
5.15369e-05
0.00558801
4.85408e-05
0.00558898
4.54699e-05
0.00558939
4.22476e-05
0.00558935
3.8842e-05
0.00558898
3.52759e-05
0.00558842
3.16224e-05
0.00558781
2.79828e-05
0.0055873
2.44381e-05
0.00558704
2.10425e-05
0.00558717
1.78478e-05
0.0055878
1.49157e-05
0.00558893
1.22864e-05
0.00559048
9.94165e-06
0.00559231
7.81538e-06
0.00559442
5.8628e-06
0.00559687
4.12552e-06
0.00559963
2.6747e-06
0.00560244
1.52899e-06
0.00560481
6.40586e-07
0.00560635
-7.21293e-08
0.00560706
-6.88301e-07
0.00560729
-1.15563e-06
0.00560738
-1.41466e-06
0.0056073
-1.44383e-06
0.00560656
-1.34626e-06
0.00560463
-1.25467e-06
0.0056014
-1.25429e-06
0.00559733
-1.25907e-06
0.00559313
-1.07603e-06
-5.58783e-07
0.00558915
0.00487338
6.89396e-06
0.0048816
1.95613e-05
0.0048962
3.21589e-05
0.00491656
4.31978e-05
0.00494228
5.31858e-05
0.00497259
6.15347e-05
0.00500673
6.83951e-05
0.00504385
7.36525e-05
0.00508315
7.74607e-05
0.00512387
7.99034e-05
0.00516534
8.11318e-05
0.00520697
8.13177e-05
0.00524824
8.05851e-05
0.0052887
7.9114e-05
0.00532803
7.70502e-05
0.00536595
7.45396e-05
0.00540227
7.17024e-05
0.00543684
6.86461e-05
0.00546957
6.5453e-05
0.00550037
6.21883e-05
0.00552917
5.89067e-05
0.00555595
5.56518e-05
0.00558069
5.24632e-05
0.00560346
4.93877e-05
0.00562436
4.64721e-05
0.00564352
4.37519e-05
0.00566111
4.12433e-05
0.0056773
3.89337e-05
0.00569224
3.67801e-05
0.00570604
3.47208e-05
0.0057188
3.2683e-05
0.00573057
3.06026e-05
0.00574134
2.84351e-05
0.00575113
2.61662e-05
0.00575994
2.3811e-05
0.00576783
2.14031e-05
0.00577487
1.89867e-05
0.00578114
1.66086e-05
0.00578672
1.43223e-05
0.00579174
1.21818e-05
0.0057964
1.02234e-05
0.0058008
8.44765e-06
0.00580486
6.82769e-06
0.00580833
5.34e-06
0.00581114
3.9959e-06
0.00581349
2.8395e-06
0.00581573
1.89428e-06
0.00581791
1.12757e-06
0.00581958
4.84764e-07
0.0058201
-7.08702e-08
0.00581919
-5.10484e-07
0.00581727
-8.07714e-07
0.00581509
-9.37458e-07
0.005813
-9.2506e-07
0.00581055
-8.5842e-07
0.00580684
-8.04031e-07
0.00580132
-7.7208e-07
0.00579438
-6.89925e-07
0.00578715
-4.38246e-07
3.67483e-08
0.00578071
0.00487301
3.3816e-06
0.00488106
9.53401e-06
0.00489554
1.56252e-05
0.00491558
2.10602e-05
0.00494063
2.6029e-05
0.00496987
3.0231e-05
0.00500257
3.37242e-05
0.00503794
3.64286e-05
0.00507529
3.84077e-05
0.005114
3.96934e-05
0.00515347
4.03578e-05
0.0051932
4.04869e-05
0.00523275
4.01464e-05
0.00527172
3.94276e-05
0.00530979
3.84078e-05
0.0053467
3.7163e-05
0.00538224
3.57537e-05
0.00541624
3.42318e-05
0.00544859
3.26382e-05
0.00547919
3.10067e-05
0.00550797
2.93664e-05
0.00553491
2.77406e-05
0.00555999
2.615e-05
0.00558324
2.46173e-05
0.00560474
2.31648e-05
0.00562457
2.18091e-05
0.00564285
2.05576e-05
0.00565971
1.94042e-05
0.00567528
1.83277e-05
0.00568966
1.72973e-05
0.00570295
1.62772e-05
0.00571519
1.52377e-05
0.00572641
1.416e-05
0.00573665
1.30378e-05
0.00574597
1.18757e-05
0.00575441
1.06862e-05
0.00576201
9.49255e-06
0.00576877
8.32298e-06
0.0057748
7.20524e-06
0.00578031
6.15791e-06
0.00578551
5.18824e-06
0.00579041
4.29617e-06
0.00579479
3.48246e-06
0.00579838
2.75255e-06
0.00580123
2.11137e-06
0.00580372
1.55989e-06
0.00580623
1.08793e-06
0.0058086
6.82277e-07
0.00581016
3.39353e-07
0.00581024
6.80371e-08
0.0058088
-1.25501e-07
0.00580652
-2.41335e-07
0.0058042
-3.04681e-07
0.00580202
-3.38767e-07
0.00579929
-3.59367e-07
0.00579503
-3.53206e-07
0.00578887
-2.98232e-07
0.0057815
-1.76262e-07
0.00577427
2.31257e-08
2.69969e-07
0.00576826
0.00487287
7.81054e-13
0.00488042
8.03881e-13
0.00489399
8.90435e-13
0.00491296
-3.55757e-12
0.00493688
8.91525e-12
0.00496505
1.86651e-11
0.00499679
3.62702e-11
0.00503137
5.14572e-11
0.00506808
7.01448e-11
0.00510627
9.33759e-11
0.00514533
1.25935e-10
0.00518472
1.60883e-10
0.00522397
2.03292e-10
0.00526269
2.42589e-10
0.00530053
2.85164e-10
0.00533723
3.2011e-10
0.00537257
3.69827e-10
0.00540639
4.18869e-10
0.00543856
4.98965e-10
0.00546898
5.78915e-10
0.00549759
6.91774e-10
0.00552434
8.03546e-10
0.00554924
9.46666e-10
0.00557232
1.11652e-09
0.00559366
1.31057e-09
0.00561334
1.61361e-09
0.00563147
1.89262e-09
0.00564818
2.37805e-09
0.00566361
2.7341e-09
0.00567785
3.34803e-09
0.005691
3.8527e-09
0.0057031
4.49213e-09
0.0057142
5.25665e-09
0.00572435
6.08424e-09
0.00573364
6.99998e-09
0.00574208
7.39653e-09
0.00574969
7.62002e-09
0.00575652
7.41267e-09
0.00576268
7.02235e-09
0.00576841
6.31694e-09
0.00577387
5.51879e-09
0.00577899
4.84978e-09
0.00578352
4.44048e-09
0.00578725
4.61926e-09
0.00579035
5.22764e-09
0.00579321
6.86404e-09
0.0057961
9.42196e-09
0.00579872
1.21207e-08
0.00580034
1.51684e-08
0.00580039
1.94654e-08
0.00579901
2.37808e-08
0.00579697
3.12453e-08
0.00579497
3.95225e-08
0.00579297
5.02116e-08
0.00579013
6.12848e-08
0.00578556
7.47935e-08
0.00577915
9.12231e-08
0.00577182
1.07874e-07
0.00576495
1.30386e-07
1.47634e-07
0.0057594
0.00487287
-3.38161e-06
0.00488042
-9.53401e-06
0.00489399
-1.56252e-05
0.00491296
-2.10603e-05
0.00493688
-2.60289e-05
0.00496505
-3.02309e-05
0.00499679
-3.37241e-05
0.00503137
-3.64285e-05
0.00506808
-3.84076e-05
0.00510627
-3.96932e-05
0.00514533
-4.03576e-05
0.00518472
-4.04866e-05
0.00522397
-4.0146e-05
0.00526269
-3.94272e-05
0.00530053
-3.84072e-05
0.00533723
-3.71624e-05
0.00537257
-3.5753e-05
0.00540639
-3.4231e-05
0.00543856
-3.26372e-05
0.00546898
-3.10056e-05
0.00549759
-2.93651e-05
0.00552434
-2.7739e-05
0.00554924
-2.61482e-05
0.00557232
-2.46151e-05
0.00559366
-2.31622e-05
0.00561334
-2.18059e-05
0.00563147
-2.05538e-05
0.00564818
-1.93995e-05
0.00566361
-1.83224e-05
0.00567785
-1.72907e-05
0.005691
-1.62696e-05
0.0057031
-1.5229e-05
0.0057142
-1.41498e-05
0.00572436
-1.30257e-05
0.00573364
-1.18613e-05
0.00574208
-1.06709e-05
0.00574969
-9.47688e-06
0.00575652
-8.30779e-06
0.00576268
-7.1909e-06
0.00576841
-6.14519e-06
0.00577387
-5.1774e-06
0.00577899
-4.28699e-06
0.00578352
-3.47427e-06
0.00578725
-2.74384e-06
0.00579035
-2.10156e-06
0.00579322
-1.54712e-06
0.00579611
-1.06945e-06
0.00579872
-6.57878e-07
0.00580034
-3.097e-07
0.00580039
-2.90648e-08
0.00579901
1.72781e-07
0.00579697
3.03148e-07
0.00579498
3.83492e-07
0.00579297
4.38594e-07
0.00579014
4.80351e-07
0.00578557
5.01226e-07
0.00577916
4.78521e-07
0.00577183
3.9331e-07
0.00576495
2.42813e-07
2.42863e-08
0.00575941
0.00487301
-6.89396e-06
0.00488106
-1.95613e-05
0.00489554
-3.21589e-05
0.00491558
-4.31977e-05
0.00494063
-5.31857e-05
0.00496987
-6.15347e-05
0.00500257
-6.8395e-05
0.00503794
-7.36524e-05
0.00507529
-7.74606e-05
0.005114
-7.99032e-05
0.00515347
-8.11316e-05
0.0051932
-8.13175e-05
0.00523275
-8.05847e-05
0.00527172
-7.91136e-05
0.00530979
-7.70497e-05
0.0053467
-7.45391e-05
0.00538224
-7.17017e-05
0.00541624
-6.86453e-05
0.00544859
-6.54521e-05
0.00547919
-6.21873e-05
0.00550798
-5.89054e-05
0.00553491
-5.56503e-05
0.00555999
-5.24613e-05
0.00558324
-4.93855e-05
0.00560474
-4.64695e-05
0.00562457
-4.37487e-05
0.00564285
-4.12397e-05
0.00565971
-3.8929e-05
0.00567528
-3.67749e-05
0.00568967
-3.47143e-05
0.00570295
-3.26755e-05
0.00571519
-3.05939e-05
0.00572641
-2.84248e-05
0.00573665
-2.61537e-05
0.00574597
-2.37959e-05
0.00575441
-2.13871e-05
0.00576201
-1.89703e-05
0.00576877
-1.65927e-05
0.0057748
-1.43074e-05
0.00578031
-1.21688e-05
0.00578551
-1.02127e-05
0.00579041
-8.43928e-06
0.00579479
-6.82087e-06
0.00579838
-5.33345e-06
0.00580123
-3.98896e-06
0.00580373
-2.82873e-06
0.00580624
-1.87685e-06
0.00580861
-1.10523e-06
0.00581018
-4.57075e-07
0.00581026
1.04596e-07
0.00580882
5.51045e-07
0.00580655
8.63457e-07
0.00580423
1.01091e-06
0.00580206
1.0205e-06
0.00579934
9.73312e-07
0.00579508
9.45125e-07
0.00578893
9.45062e-07
0.00578157
8.98358e-07
0.00577435
6.9483e-07
2.56256e-07
0.00576834
0.00487338
-1.07604e-05
0.0048816
-2.97567e-05
0.0048962
-4.88157e-05
0.00491656
-6.5655e-05
0.00494228
-8.10083e-05
0.00497259
-9.39107e-05
0.00500673
-0.000104516
0.00504385
-0.000112621
0.00508315
-0.000118455
0.00512387
-0.000122137
0.00516534
-0.000123904
0.00520697
-0.000124048
0.00524824
-0.000122749
0.0052887
-0.000120302
0.00532803
-0.00011695
0.00536595
-0.00011293
0.00540227
-0.000108434
0.00543685
-0.00010363
0.00546957
-9.8642e-05
0.00550037
-9.35591e-05
0.00552917
-8.84528e-05
0.00555595
-8.33842e-05
0.00558069
-7.84194e-05
0.00560346
-7.36447e-05
0.00562436
-6.91458e-05
0.00564352
-6.49873e-05
0.00566111
-6.11957e-05
0.0056773
-5.7745e-05
0.00569224
-5.45602e-05
0.00570604
-5.15306e-05
0.00571881
-4.85337e-05
0.00573057
-4.54623e-05
0.00574135
-4.22388e-05
0.00575114
-3.88296e-05
0.00575995
-3.52587e-05
0.00576783
-3.16044e-05
0.00577487
-2.7965e-05
0.00578114
-2.4421e-05
0.00578672
-2.10263e-05
0.00579174
-1.78342e-05
0.0057964
-1.49059e-05
0.00580081
-1.22805e-05
0.00580486
-9.9377e-06
0.00580834
-7.81127e-06
0.00581115
-5.86008e-06
0.0058135
-4.11976e-06
0.00581575
-2.65888e-06
0.00581793
-1.50945e-06
0.0058196
-6.18381e-07
0.00582012
1.06216e-07
0.00581922
7.23786e-07
0.00581731
1.20244e-06
0.00581514
1.4798e-06
0.00581306
1.53041e-06
0.00581062
1.44878e-06
0.00580692
1.38394e-06
0.00580142
1.40917e-06
0.00579449
1.45652e-06
0.00578725
1.3349e-06
8.56458e-07
0.00578081
0.00487488
-1.60792e-05
0.00488558
-4.24343e-05
0.00490382
-6.91075e-05
0.00492853
-9.24578e-05
0.00495899
-0.000113575
0.00499417
-0.00013116
0.00503295
-0.000145274
0.00507416
-0.000155686
0.00511674
-0.000162736
0.00515972
-0.000166632
0.00520226
-0.000167752
0.00524367
-0.000166563
0.00528335
-0.000163335
0.00532085
-0.00015854
0.00535588
-0.000152566
0.00538826
-0.000145785
0.00541791
-0.000138503
0.00544482
-0.000130963
0.00546902
-0.000123321
0.00549055
-0.000115686
0.00550948
-0.000108148
0.00552591
-0.000100794
0.00553996
-9.37016e-05
0.00555177
-8.69656e-05
0.00556151
-8.06829e-05
0.00556937
-7.4931e-05
0.00557557
-6.97418e-05
0.00558031
-6.50877e-05
0.00558384
-6.08753e-05
0.00558635
-5.69585e-05
0.00558802
-5.31752e-05
0.00558899
-4.93825e-05
0.0055894
-4.54816e-05
0.00558936
-4.14364e-05
0.00558899
-3.72809e-05
0.00558843
-3.31097e-05
0.00558783
-2.90443e-05
0.00558732
-2.51905e-05
0.00558706
-2.16109e-05
0.00558719
-1.83489e-05
0.00558782
-1.54466e-05
0.00558896
-1.29308e-05
0.00559051
-1.07799e-05
0.00559235
-8.90956e-06
0.00559446
-7.23184e-06
0.00559691
-5.72628e-06
0.00559968
-4.43288e-06
0.0056025
-3.38125e-06
0.00560487
-2.54405e-06
0.00560641
-1.8694e-06
0.00560712
-1.32061e-06
0.00560736
-8.77274e-07
0.00560748
-5.74545e-07
0.00560742
-4.38218e-07
0.00560671
-4.16127e-07
0.0056048
-3.93475e-07
0.0056016
-2.7574e-07
0.00559757
-6.45636e-08
0.00559341
1.12616e-07
1.27876e-07
0.00558948
0.00487697
-2.34629e-05
0.00489292
-6.03654e-05
0.00491861
-9.68486e-05
0.00494988
-0.000125831
0.0049831
-0.000148892
0.0050146
-0.000164722
0.00504149
-0.000174144
0.00506196
-0.000178005
0.00507519
-0.000177654
0.00508098
-0.000173929
0.00507967
-0.000167731
0.0050719
-0.000159884
0.00505841
-0.000150733
0.00504
-0.000140871
0.00501755
-0.000130735
0.00499187
-0.000120658
0.00496365
-0.000110837
0.00493345
-0.000101387
0.00490178
-9.23897e-05
0.00486904
-8.38759e-05
0.00483558
-7.58304e-05
0.00480165
-6.82502e-05
0.00476748
-6.11566e-05
0.00473328
-5.46077e-05
0.00469921
-4.86788e-05
0.00466547
-4.34223e-05
0.00463221
-3.88364e-05
0.00459954
-3.48629e-05
0.00456761
-3.13898e-05
0.00453653
-2.82508e-05
0.00450638
-2.5268e-05
0.00447726
-2.23088e-05
0.0044493
-1.93125e-05
0.00442269
-1.62899e-05
0.00439765
-1.33091e-05
0.00437429
-1.04718e-05
0.00435271
-7.89667e-06
0.004333
-5.69481e-06
0.00431529
-3.92879e-06
0.00429969
-2.60989e-06
0.00428613
-1.70851e-06
0.00427437
-1.16025e-06
0.00426415
-8.73312e-07
0.0042553
-7.39638e-07
0.00424775
-6.66193e-07
0.00424135
-5.94849e-07
0.00423581
-5.38034e-07
0.00423077
-5.1781e-07
0.00422593
-4.58775e-07
0.00422117
-3.23559e-07
0.00421664
-1.79399e-07
0.00421247
-5.56888e-08
0.00420863
2.23265e-08
0.00420494
2.60102e-08
0.00420128
5.22373e-09
0.00419777
9.71376e-10
0.00419476
2.06906e-08
0.00419267
6.53639e-08
0.00419165
9.88359e-08
6.99565e-08
0.00419155
0.00484624
0.0047839
0.004685
0.00455708
0.0044061
0.00423935
0.00406328
0.00388349
0.00370422
0.00352885
0.00335985
0.00319884
0.00304705
0.00290513
0.00277327
0.00265133
0.00253901
0.00243591
0.00234162
0.00225573
0.0021779
0.00210779
0.00204498
0.00198894
0.00193899
0.00189436
0.00185427
0.00181801
0.00178509
0.00175524
0.00172839
0.00170459
0.00168389
0.0016663
0.00165176
0.00164009
0.00163097
0.00162402
0.00161877
0.00161476
0.00161156
0.00160882
0.00160631
0.0016039
0.00160154
0.00159925
0.00159703
0.00159487
0.00159281
0.00159095
0.00158931
0.00158788
0.00158659
0.00158538
0.00158422
0.00158314
0.00158215
0.00158126
0.00158042
0.00157953
0.0015776
2.09083e-07
0.00157634
3.26613e-07
0.00157497
3.86776e-07
0.0015735
3.91154e-07
0.0015719
3.80928e-07
0.00157018
3.20153e-07
0.00156834
2.28871e-07
0.00156634
2.10236e-07
0.00156409
3.52625e-07
0.00156155
6.21699e-07
0.00155879
9.02899e-07
0.0015559
1.1513e-06
0.00155296
1.33554e-06
0.00155007
1.40037e-06
0.00154735
1.34489e-06
0.00154489
1.19428e-06
0.00154272
9.79682e-07
0.0015408
7.56785e-07
0.00153908
5.77035e-07
0.00153749
4.50125e-07
0.00153601
3.69016e-07
0.00153462
3.16515e-07
0.0015333
2.983e-07
0.00153201
3.27794e-07
0.00153074
3.6023e-07
0.00152947
3.86857e-07
0.00152817
4.43355e-07
0.00152679
5.20159e-07
0.00152534
5.79023e-07
0.00152383
6.20371e-07
0.00152227
6.52694e-07
0.00152068
6.67485e-07
0.00151909
6.62614e-07
0.00151748
6.68955e-07
0.00151586
6.74439e-07
0.00151426
6.60001e-07
0.00151265
6.59231e-07
0.00151103
6.53297e-07
0.00150947
5.93375e-07
0.00150794
5.58303e-07
0.00150638
5.92649e-07
0.00150478
6.46122e-07
0.00150317
6.76275e-07
0.00150156
6.98174e-07
0.00149996
7.15513e-07
0.00149839
7.02038e-07
0.00149689
6.62134e-07
0.00149541
6.56938e-07
0.00149392
6.90621e-07
0.00149243
6.9786e-07
0.00149096
6.88429e-07
0.00148955
6.40082e-07
0.00148805
7.33879e-07
0.00148668
6.14432e-07
0.00148521
7.14824e-07
0.00148395
5.27937e-07
0.00148262
5.94687e-07
0.0014813
6.00085e-07
0.00148042
1.65736e-07
3.13664e-07
0.00419129
3.91951e-07
0.00419177
8.02307e-07
0.0041923
1.18327e-06
0.00419299
1.3994e-06
0.00419408
1.41778e-06
0.00419558
1.27689e-06
0.00419719
1.15128e-06
0.00419835
1.24133e-06
0.00419843
1.65645e-06
0.00419691
2.34582e-06
0.00419351
3.14705e-06
0.00418829
3.88666e-06
0.00418168
4.39792e-06
0.00417427
4.56315e-06
0.00416671
4.36183e-06
0.00415959
3.86522e-06
0.0041533
3.1991e-06
0.00414804
2.48862e-06
0.00414387
1.85141e-06
0.00414067
1.36478e-06
0.00413825
1.03812e-06
0.00413637
8.66857e-07
0.00413479
8.37635e-07
0.00413333
9.24162e-07
0.00413182
1.06866e-06
0.00413017
1.22155e-06
0.00412838
1.37315e-06
0.00412644
1.51614e-06
0.00412438
1.64013e-06
0.0041222
1.73991e-06
0.00411993
1.82055e-06
0.00411759
1.88675e-06
0.00411521
1.91565e-06
0.00411283
1.922e-06
0.00411046
1.91707e-06
0.00410811
1.89129e-06
0.00410579
1.87092e-06
0.00410348
1.85901e-06
0.00410112
1.84296e-06
0.00409872
1.86555e-06
0.00409631
1.91774e-06
0.00409391
1.96176e-06
0.00409153
1.98555e-06
0.00408918
1.99888e-06
0.00408686
1.99351e-06
0.00408455
1.98e-06
0.00408224
1.96837e-06
0.00407994
1.96825e-06
0.00407768
1.97127e-06
0.00407547
1.95606e-06
0.00407324
1.97279e-06
0.00407104
1.91251e-06
0.00406884
2.0027e-06
0.00406668
1.86628e-06
0.0040645
1.98115e-06
0.00406229
1.83258e-06
0.00406012
1.86782e-06
0.00405802
1.80098e-06
0.00405579
1.49479e-06
1.18739e-06
0.00558516
3.68957e-07
0.00558055
1.52475e-06
0.00557496
2.65045e-06
0.00556869
3.51771e-06
0.00556267
4.05488e-06
0.00555789
4.31059e-06
0.00555488
4.45226e-06
0.00555355
4.64879e-06
0.0055534
4.97737e-06
0.00555399
5.38252e-06
0.00555524
5.71594e-06
0.00555747
5.82743e-06
0.00556097
5.62108e-06
0.00556571
5.07842e-06
0.00557116
4.26793e-06
0.00557632
3.33049e-06
0.00558004
2.43265e-06
0.0055814
1.6963e-06
0.00557994
1.19326e-06
0.00557579
9.37601e-07
0.00556954
8.96652e-07
0.0055621
1.007e-06
0.00555442
1.19077e-06
0.00554732
1.39705e-06
0.00554129
1.5871e-06
0.00553654
1.73173e-06
0.00553299
1.83948e-06
0.00553041
1.92578e-06
0.00552853
1.98961e-06
0.00552708
2.03195e-06
0.00552584
2.06264e-06
0.00552469
2.08581e-06
0.00552355
2.08078e-06
0.00552239
2.05809e-06
0.00552121
2.02635e-06
0.00552
1.98542e-06
0.00551877
1.96852e-06
0.00551751
1.97405e-06
0.00551622
1.98571e-06
0.0055149
2.02895e-06
0.00551359
2.08822e-06
0.00551227
2.1418e-06
0.00551094
2.17136e-06
0.00550964
2.17335e-06
0.00550836
2.15455e-06
0.00550709
2.12884e-06
0.00550585
2.11101e-06
0.00550461
2.10414e-06
0.00550337
2.12332e-06
0.00550212
2.13418e-06
0.00550085
2.17199e-06
0.00549958
2.13223e-06
0.00549833
2.21261e-06
0.00549706
2.10644e-06
0.00549583
2.19924e-06
0.00549459
2.06484e-06
0.00549335
2.11503e-06
0.00549216
2.00622e-06
0.00549079
1.88602e-06
1.55287e-06
0.00577543
7.49079e-07
0.00577077
1.58773e-06
0.00576596
2.42757e-06
0.00576075
3.16508e-06
0.00575577
3.77407e-06
0.00575218
4.26583e-06
0.00575091
4.68218e-06
0.00575218
5.03781e-06
0.00575544
5.29847e-06
0.0057599
5.39546e-06
0.00576508
5.26992e-06
0.00577103
4.90325e-06
0.00577809
4.32379e-06
0.00578643
3.59845e-06
0.0057956
2.81357e-06
0.00580454
2.0627e-06
0.00581179
1.43451e-06
0.00581606
9.77634e-07
0.00581655
7.09552e-07
0.00581323
6.18759e-07
0.00580677
6.66491e-07
0.00579832
8.02352e-07
0.00578913
9.74838e-07
0.00578036
1.14847e-06
0.00577282
1.29831e-06
0.00576692
1.40832e-06
0.0057627
1.48056e-06
0.00575997
1.52626e-06
0.00575836
1.55093e-06
0.00575748
1.55849e-06
0.00575701
1.5562e-06
0.00575671
1.55165e-06
0.00575643
1.5353e-06
0.00575607
1.51233e-06
0.00575563
1.48875e-06
0.00575509
1.46464e-06
0.0057545
1.45632e-06
0.00575387
1.4615e-06
0.00575323
1.47415e-06
0.00575259
1.50672e-06
0.00575198
1.54437e-06
0.00575139
1.57621e-06
0.00575082
1.59596e-06
0.00575025
1.60105e-06
0.00574967
1.59714e-06
0.00574908
1.58802e-06
0.00574848
1.59201e-06
0.00574787
1.59598e-06
0.00574727
1.62045e-06
0.00574667
1.627e-06
0.00574608
1.66917e-06
0.00574549
1.64371e-06
0.00574491
1.71008e-06
0.00574431
1.64588e-06
0.00574372
1.72473e-06
0.00574308
1.65498e-06
0.00574244
1.71239e-06
0.00574176
1.64847e-06
0.00574099
1.62386e-06
1.45311e-06
0.0057636
5.80935e-07
0.00575961
9.40593e-07
0.00575548
1.34896e-06
0.00575117
1.78057e-06
0.00574761
2.20508e-06
0.00574616
2.57398e-06
0.00574774
2.85648e-06
0.0057523
3.03949e-06
0.00575885
3.13016e-06
0.00576618
3.14253e-06
0.00577351
3.0857e-06
0.00578079
2.95774e-06
0.00578846
2.74957e-06
0.00579683
2.454e-06
0.00580563
2.07729e-06
0.00581383
1.65027e-06
0.00582007
1.22512e-06
0.0058231
8.52525e-07
0.00582227
5.73476e-07
0.00581771
4.11878e-07
0.00581023
3.66391e-07
0.00580107
4.14494e-07
0.00579153
5.18654e-07
0.00578276
6.46272e-07
0.00577551
7.69565e-07
0.0057701
8.6923e-07
0.00576647
9.37207e-07
0.00576433
9.76725e-07
0.00576324
9.91484e-07
0.00576279
9.88966e-07
0.00576264
9.76582e-07
0.00576255
9.61737e-07
0.00576239
9.43825e-07
0.00576211
9.26668e-07
0.00576171
9.13513e-07
0.00576121
9.02989e-07
0.00576064
9.01849e-07
0.00576004
9.08513e-07
0.00575943
9.18824e-07
0.00575883
9.37855e-07
0.00575825
9.61593e-07
0.00575769
9.85412e-07
0.00575713
1.007e-06
0.00575657
1.01968e-06
0.005756
1.0311e-06
0.00575542
1.03576e-06
0.00575484
1.05052e-06
0.00575426
1.05762e-06
0.00575369
1.0837e-06
0.00575313
1.09052e-06
0.00575257
1.12694e-06
0.00575202
1.11567e-06
0.00575147
1.17189e-06
0.0057509
1.14848e-06
0.00575034
1.22261e-06
0.00574973
1.20476e-06
0.00574911
1.27737e-06
0.00574844
1.27445e-06
0.00574771
1.30445e-06
1.28921e-06
0.00575507
1.7306e-07
0.00575113
1.94093e-07
0.00574694
2.1657e-07
0.00574275
2.36718e-07
0.0057397
2.5829e-07
0.00573922
2.78112e-07
0.00574203
3.00766e-07
0.0057478
3.26697e-07
0.00575535
3.54506e-07
0.00576345
3.82695e-07
0.00577144
4.09513e-07
0.00577946
4.31907e-07
0.00578803
4.47968e-07
0.0057974
4.58809e-07
0.00580713
4.63648e-07
0.00581601
4.64258e-07
0.00582251
4.64678e-07
0.00582536
4.65119e-07
0.00582397
4.5708e-07
0.00581862
4.48998e-07
0.00581028
4.40596e-07
0.00580036
4.29219e-07
0.00579028
4.14748e-07
0.00578121
4.00503e-07
0.0057739
3.85521e-07
0.00576863
3.70045e-07
0.00576526
3.54244e-07
0.00576342
3.40624e-07
0.00576262
3.29879e-07
0.0057624
3.2391e-07
0.00576242
3.20312e-07
0.00576243
3.20535e-07
0.00576233
3.23339e-07
0.00576207
3.27267e-07
0.00576167
3.33784e-07
0.00576116
3.39918e-07
0.00576059
3.47232e-07
0.00575998
3.54388e-07
0.00575937
3.61386e-07
0.00575877
3.71233e-07
0.00575818
3.84578e-07
0.00575761
3.99221e-07
0.00575705
4.16799e-07
0.0057565
4.30856e-07
0.00575594
4.50724e-07
0.00575539
4.65423e-07
0.00575482
4.93094e-07
0.00575426
5.09388e-07
0.00575369
5.39997e-07
0.00575313
5.51742e-07
0.00575258
5.8472e-07
0.00575201
5.8874e-07
0.00575147
6.37467e-07
0.00575089
6.4957e-07
0.00575032
7.26289e-07
0.0057497
7.6481e-07
0.00574905
8.6503e-07
0.00574834
9.32904e-07
0.00574759
1.01375e-06
1.12821e-06
0.00575508
-2.35131e-07
0.00575114
-5.53616e-07
0.00574695
-9.18431e-07
0.00574276
-1.31055e-06
0.00573972
-1.69218e-06
0.00573924
-2.02276e-06
0.00574206
-2.2613e-06
0.00574783
-2.39232e-06
0.00575539
-2.42532e-06
0.00576349
-2.37783e-06
0.00577148
-2.26319e-06
0.00577949
-2.08727e-06
0.00578805
-1.84472e-06
0.00579741
-1.52605e-06
0.00580713
-1.1418e-06
0.00581601
-7.16933e-07
0.00582251
-2.92715e-07
0.00582536
7.74889e-08
0.00582397
3.4116e-07
0.00581861
4.86174e-07
0.00581028
5.13926e-07
0.00580035
4.46074e-07
0.00579027
3.12008e-07
0.0057812
1.53719e-07
0.0057739
-1.36208e-09
0.00576862
-1.27163e-07
0.00576525
-2.26321e-07
0.0057634
-2.93882e-07
0.0057626
-3.31896e-07
0.00576239
-3.42792e-07
0.00576241
-3.38136e-07
0.00576243
-3.23868e-07
0.00576233
-3.01963e-07
0.00576208
-2.77568e-07
0.00576168
-2.51405e-07
0.00576118
-2.28362e-07
0.00576061
-2.10924e-07
0.00576
-2.01462e-07
0.00575939
-1.98289e-07
0.00575879
-1.98586e-07
0.00575821
-1.95177e-07
0.00575764
-1.8613e-07
0.00575707
-1.6715e-07
0.00575651
-1.48267e-07
0.00575595
-1.18783e-07
0.00575538
-9.40389e-08
0.00575481
-5.40789e-08
0.00575423
-2.94369e-08
0.00575366
4.11924e-09
0.00575309
1.91367e-08
0.00575253
4.23481e-08
0.00575198
5.47617e-08
0.00575144
9.28938e-08
0.00575088
1.35465e-07
0.00575032
2.15308e-07
0.00574971
3.05933e-07
0.00574908
4.41911e-07
0.00574838
5.77062e-07
0.00574763
7.19448e-07
9.63775e-07
0.00576368
-4.00722e-07
0.00575967
-1.19403e-06
0.00575554
-1.99044e-06
0.00575123
-2.68901e-06
0.00574766
-3.25673e-06
0.00574621
-3.71601e-06
0.0057478
-4.09132e-06
0.00575235
-4.39194e-06
0.00575891
-4.59152e-06
0.00576624
-4.62431e-06
0.00577355
-4.43518e-06
0.00578081
-4.0176e-06
0.00578847
-3.40486e-06
0.00579683
-2.65824e-06
0.00580562
-1.86973e-06
0.00581382
-1.12683e-06
0.00582005
-4.94994e-07
0.00582306
-3.15314e-08
0.00582223
2.09313e-07
0.00581766
2.80996e-07
0.00581017
2.24621e-07
0.005801
6.93737e-08
0.00579146
-1.38038e-07
0.00578268
-3.40865e-07
0.00577542
-5.20302e-07
0.00577
-6.66712e-07
0.00576638
-7.77158e-07
0.00576425
-8.55625e-07
0.00576318
-9.04044e-07
0.00576274
-9.21883e-07
0.00576259
-9.26216e-07
0.00576251
-9.18383e-07
0.00576235
-8.938e-07
0.00576207
-8.61722e-07
0.00576167
-8.22268e-07
0.00576116
-7.85156e-07
0.00576059
-7.61336e-07
0.00575999
-7.54027e-07
0.00575939
-7.59458e-07
0.0057588
-7.7415e-07
0.00575822
-7.83301e-07
0.00575766
-7.80842e-07
0.00575711
-7.63466e-07
0.00575656
-7.41609e-07
0.00575601
-7.02385e-07
0.00575546
-6.64676e-07
0.00575489
-6.07027e-07
0.00575432
-5.73223e-07
0.00575375
-5.34913e-07
0.00575318
-5.16006e-07
0.00575263
-5.04387e-07
0.00575208
-4.88094e-07
0.00575156
-4.65762e-07
0.00575101
-3.97276e-07
0.00575047
-3.12567e-07
0.00574988
-1.69503e-07
0.00574925
1.73377e-08
0.00574857
2.04342e-07
0.00574779
4.45048e-07
8.26686e-07
0.00577552
-1.74768e-08
0.00577086
-1.13077e-06
0.00576606
-2.21627e-06
0.00576085
-3.04628e-06
0.00575588
-3.54249e-06
0.00575231
-3.7772e-06
0.00575107
-3.88848e-06
0.00575236
-4.02932e-06
0.00575564
-4.2898e-06
0.00576011
-4.61545e-06
0.00576528
-4.86822e-06
0.0057712
-4.91756e-06
0.00577823
-4.6698e-06
0.00578652
-4.09846e-06
0.00579566
-3.28985e-06
0.00580458
-2.37487e-06
0.00581183
-1.48649e-06
0.00581612
-7.66292e-07
0.00581662
-2.89219e-07
0.00581332
-5.48339e-08
0.00580688
-1.27596e-08
0.0057984
-1.20417e-07
0.0057892
-3.34082e-07
0.0057804
-5.70059e-07
0.00577283
-7.82455e-07
0.00576691
-9.69791e-07
0.00576268
-1.12762e-06
0.00575995
-1.25699e-06
0.00575835
-1.35533e-06
0.00575748
-1.4091e-06
0.00575702
-1.44494e-06
0.00575674
-1.46573e-06
0.00575646
-1.45224e-06
0.00575611
-1.41774e-06
0.00575568
-1.36671e-06
0.00575515
-1.3115e-06
0.00575455
-1.27526e-06
0.00575393
-1.26644e-06
0.0057533
-1.28096e-06
0.00575268
-1.3168e-06
0.00575209
-1.34827e-06
0.00575151
-1.35379e-06
0.00575094
-1.33303e-06
0.00575036
-1.30612e-06
0.00574978
-1.2574e-06
0.0057492
-1.20666e-06
0.0057486
-1.12429e-06
0.00574798
-1.07473e-06
0.00574737
-1.03022e-06
0.00574676
-1.01432e-06
0.00574619
-1.02349e-06
0.00574563
-1.01914e-06
0.0057451
-1.02349e-06
0.00574456
-9.36653e-07
0.00574405
-8.65796e-07
0.00574348
-6.64403e-07
0.00574285
-4.18524e-07
0.00574221
-2.02115e-07
0.0057414
2.03275e-07
7.20581e-07
0.00558553
-8.23503e-08
0.00558097
-4.48564e-07
0.00557542
-7.94346e-07
0.0055692
-9.73658e-07
0.00556322
-9.57282e-07
0.00555851
-8.18146e-07
0.00555561
-6.84956e-07
0.00555438
-7.25942e-07
0.00555433
-1.06896e-06
0.00555501
-1.67234e-06
0.00555635
-2.3834e-06
0.00555865
-3.0538e-06
0.00556223
-3.51732e-06
0.00556705
-3.65128e-06
0.00557258
-3.45759e-06
0.00557783
-2.98915e-06
0.00558166
-2.33844e-06
0.00558314
-1.65835e-06
0.00558179
-1.05417e-06
0.00557772
-5.6378e-07
0.00557152
-2.0153e-07
0.00556411
-2.8551e-08
0.00555645
-1.76568e-08
0.00554934
-1.12078e-07
0.0055433
-2.67329e-07
0.00553854
-4.70219e-07
0.00553498
-6.74866e-07
0.00553241
-8.72195e-07
0.00553055
-1.03752e-06
0.0055291
-1.14414e-06
0.00552789
-1.23625e-06
0.00552677
-1.30917e-06
0.00552566
-1.32646e-06
0.00552452
-1.3175e-06
0.00552335
-1.28664e-06
0.00552215
-1.23975e-06
0.00552094
-1.21192e-06
0.00551972
-1.20379e-06
0.00551849
-1.20842e-06
0.00551726
-1.24342e-06
0.00551603
-1.27798e-06