/*--------------------------------*- C++ -*----------------------------------*\
  =========                 |
  \\      /  F ield         | OpenFOAM: The Open Source CFD Toolbox
   \\    /   O peration     | Website:  https://openfoam.org
    \\  /    A nd           | Version:  7
     \\/     M anipulation  |
\*---------------------------------------------------------------------------*/
FoamFile
{
    version     2.0;
    format      ascii;
    class       volScalarField;
    location    "5.5";
    object      nut;
}
// * * * * * * * * * * * * * * * * * * * * * * * * * * * * * * * * * * * * * //

dimensions      [0 2 -1 0 0 0 0];

internalField   nonuniform List<scalar> 
5760
(
0.00325134
0.00291809
0.00257021
0.00233995
0.0021788
0.00207352
0.00200988
0.0019664
0.00192911
0.0018951
0.00186548
0.0018404
0.00181888
0.00179995
0.00178307
0.00176797
0.00175441
0.00174219
0.00173111
0.00172102
0.00171181
0.00170338
0.00169563
0.00168851
0.00168193
0.00167586
0.00167024
0.00166504
0.00166021
0.00165572
0.00165155
0.00164767
0.00164406
0.00164069
0.00163756
0.00163463
0.00163191
0.00162937
0.00162701
0.00162481
0.00162275
0.00162085
0.00161907
0.00161742
0.0016159
0.00161448
0.00161317
0.00161196
0.00161085
0.00160984
0.00160891
0.00160806
0.00160729
0.0016066
0.00160598
0.00160544
0.00160496
0.00160455
0.0016042
0.00160391
0.00160368
0.00160351
0.0016034
0.00160333
0.00160333
0.00160336
0.00160345
0.00160359
0.00160376
0.00160399
0.00160425
0.00160455
0.00160489
0.00160527
0.00160569
0.00160614
0.00160662
0.00160713
0.00160767
0.00160824
0.00160883
0.00160945
0.00161009
0.00161076
0.00161145
0.00161216
0.00161288
0.00161363
0.00161439
0.00161517
0.00161596
0.00161677
0.00161759
0.00161842
0.00161926
0.00162012
0.00162098
0.00162185
0.00162274
0.00162363
0.00162452
0.00162543
0.00162634
0.00162725
0.00162818
0.0016291
0.00163003
0.00163097
0.00163191
0.00163285
0.0016338
0.00163474
0.0016357
0.00163665
0.0016376
0.00163856
0.00163952
0.00164048
0.00164144
0.0016424
0.00164336
0.00164433
0.00164529
0.00164626
0.00164722
0.00164819
0.00164915
0.00165011
0.00165108
0.00165204
0.00165301
0.00165397
0.00165493
0.00165589
0.00165686
0.00165782
0.00165878
0.00165974
0.00166069
0.00166165
0.00166261
0.00166356
0.00166451
0.00166547
0.00166642
0.00166737
0.00166832
0.00166926
0.00167021
0.00167116
0.0016721
0.00167304
0.00167398
0.00167492
0.00167586
0.00167679
0.00167773
0.00167866
0.00167959
0.00168052
0.00168145
0.00168237
0.00168329
0.00168421
0.00168513
0.00168605
0.00168697
0.00168788
0.00168879
0.0016897
0.00169061
0.00169151
0.00169242
0.00169332
0.00169421
0.00169511
0.001696
0.0016969
0.00169778
0.00169867
0.00169955
0.00170044
0.00170131
0.00170219
0.00170306
0.00170394
0.0017048
0.00170567
0.00170653
0.00170739
0.00170825
0.0017091
0.00170995
0.0017108
0.00171165
0.00171249
0.00171333
0.00171417
0.001715
0.00171583
0.00171666
0.00171748
0.00171831
0.00171912
0.00171994
0.00172075
0.00172156
0.00172237
0.00172317
0.00172397
0.00172476
0.00172556
0.00172635
0.00172713
0.00172792
0.0017287
0.00172947
0.00173025
0.00173102
0.00173179
0.00173255
0.00173331
0.00173407
0.00173482
0.00173558
0.00173632
0.00173707
0.00173781
0.00173855
0.00173929
0.00174001
0.00174076
0.00174146
0.00174223
0.00174287
0.00174371
0.00174424
0.00174522
0.00174558
0.00174683
0.00234467
0.00273621
0.00270208
0.00258897
0.00245151
0.00233973
0.00226171
0.0022078
0.00216627
0.00213079
0.00209976
0.0020729
0.00204969
0.00202939
0.00201139
0.00199532
0.0019809
0.00196791
0.00195615
0.00194547
0.00193573
0.00192684
0.00191868
0.00191119
0.00190431
0.00189796
0.0018921
0.00188668
0.00188167
0.00187703
0.00187273
0.00186875
0.00186505
0.00186163
0.00185845
0.0018555
0.00185276
0.00185023
0.00184788
0.0018457
0.00184369
0.00184183
0.00184012
0.00183854
0.00183709
0.00183577
0.00183455
0.00183345
0.00183245
0.00183155
0.00183074
0.00183002
0.00182939
0.00182884
0.00182836
0.00182797
0.00182764
0.00182739
0.00182719
0.00182707
0.001827
0.00182701
0.00182705
0.00182716
0.00182733
0.00182754
0.0018278
0.00182811
0.00182847
0.00182887
0.00182931
0.00182979
0.00183031
0.00183087
0.00183146
0.00183209
0.00183275
0.00183344
0.00183416
0.0018349
0.00183568
0.00183647
0.00183729
0.00183813
0.001839
0.00183988
0.00184078
0.0018417
0.00184263
0.00184358
0.00184454
0.00184552
0.00184651
0.00184751
0.00184852
0.00184954
0.00185057
0.00185161
0.00185266
0.00185372
0.00185478
0.00185585
0.00185692
0.001858
0.00185908
0.00186017
0.00186126
0.00186236
0.00186346
0.00186456
0.00186567
0.00186678
0.00186789
0.001869
0.00187011
0.00187123
0.00187234
0.00187346
0.00187458
0.0018757
0.00187681
0.00187793
0.00187905
0.00188017
0.00188129
0.00188241
0.00188353
0.00188465
0.00188577
0.00188688
0.001888
0.00188912
0.00189023
0.00189135
0.00189246
0.00189357
0.00189468
0.00189579
0.0018969
0.00189801
0.00189911
0.00190022
0.00190132
0.00190243
0.00190353
0.00190463
0.00190572
0.00190682
0.00190791
0.00190901
0.0019101
0.00191119
0.00191227
0.00191336
0.00191445
0.00191553
0.00191661
0.00191769
0.00191876
0.00191984
0.00192091
0.00192198
0.00192305
0.00192412
0.00192518
0.00192624
0.0019273
0.00192836
0.00192941
0.00193047
0.00193152
0.00193257
0.00193361
0.00193465
0.0019357
0.00193673
0.00193777
0.0019388
0.00193983
0.00194086
0.00194188
0.00194291
0.00194393
0.00194494
0.00194596
0.00194697
0.00194797
0.00194898
0.00194998
0.00195098
0.00195197
0.00195296
0.00195395
0.00195494
0.00195592
0.0019569
0.00195788
0.00195885
0.00195982
0.00196079
0.00196175
0.00196271
0.00196367
0.00196462
0.00196557
0.00196651
0.00196746
0.0019684
0.00196933
0.00197026
0.00197119
0.00197212
0.00197304
0.00197396
0.00197487
0.00197578
0.00197669
0.00197759
0.00197849
0.00197939
0.00198028
0.00198117
0.00198206
0.00198294
0.00198382
0.0019847
0.00198557
0.00198644
0.0019873
0.00198817
0.00198901
0.00198989
0.0019907
0.00199162
0.00199235
0.00199336
0.00199396
0.00199513
0.00199557
0.00199696
0.00133669
0.00203975
0.00223121
0.00226571
0.00223412
0.0021636
0.00210211
0.00205582
0.00202086
0.00199229
0.0019675
0.00194572
0.00192667
0.00190992
0.00189507
0.0018818
0.00186988
0.00185911
0.00184937
0.00184052
0.00183245
0.00182509
0.00181835
0.00181217
0.00180649
0.00180127
0.00179647
0.00179204
0.00178796
0.0017842
0.00178073
0.00177752
0.00177456
0.00177184
0.00176932
0.00176701
0.00176487
0.00176291
0.00176111
0.00175947
0.00175796
0.00175658
0.00175533
0.0017542
0.00175318
0.00175227
0.00175145
0.00175073
0.0017501
0.00174955
0.00174909
0.00174869
0.00174838
0.00174813
0.00174795
0.00174784
0.00174779
0.0017478
0.00174785
0.00174797
0.00174814
0.00174836
0.00174863
0.00174894
0.0017493
0.0017497
0.00175014
0.00175062
0.00175113
0.00175169
0.00175227
0.00175289
0.00175354
0.00175421
0.00175492
0.00175565
0.0017564
0.00175718
0.00175798
0.0017588
0.00175964
0.0017605
0.00176138
0.00176228
0.00176319
0.00176411
0.00176505
0.001766
0.00176696
0.00176793
0.00176891
0.00176991
0.00177091
0.00177192
0.00177293
0.00177396
0.00177499
0.00177603
0.00177707
0.00177811
0.00177917
0.00178022
0.00178128
0.00178235
0.00178341
0.00178448
0.00178555
0.00178663
0.00178771
0.00178878
0.00178986
0.00179094
0.00179203
0.00179311
0.00179419
0.00179528
0.00179636
0.00179745
0.00179854
0.00179962
0.00180071
0.00180179
0.00180288
0.00180396
0.00180505
0.00180613
0.00180722
0.0018083
0.00180938
0.00181046
0.00181154
0.00181262
0.0018137
0.00181478
0.00181585
0.00181693
0.001818
0.00181908
0.00182015
0.00182122
0.00182229
0.00182336
0.00182442
0.00182549
0.00182655
0.00182761
0.00182867
0.00182973
0.00183079
0.00183185
0.0018329
0.00183395
0.001835
0.00183605
0.0018371
0.00183815
0.00183919
0.00184024
0.00184128
0.00184232
0.00184335
0.00184439
0.00184542
0.00184645
0.00184748
0.00184851
0.00184954
0.00185056
0.00185158
0.0018526
0.00185362
0.00185464
0.00185565
0.00185666
0.00185767
0.00185868
0.00185968
0.00186068
0.00186168
0.00186268
0.00186367
0.00186467
0.00186566
0.00186665
0.00186763
0.00186861
0.00186959
0.00187057
0.00187154
0.00187252
0.00187349
0.00187445
0.00187542
0.00187638
0.00187734
0.00187829
0.00187924
0.00188019
0.00188114
0.00188208
0.00188303
0.00188396
0.0018849
0.00188583
0.00188676
0.00188769
0.00188861
0.00188953
0.00189045
0.00189136
0.00189227
0.00189318
0.00189408
0.00189498
0.00189588
0.00189678
0.00189767
0.00189856
0.00189944
0.00190033
0.0019012
0.00190208
0.00190295
0.00190382
0.00190469
0.00190556
0.00190641
0.00190728
0.00190812
0.00190899
0.00190981
0.0019107
0.00191147
0.00191241
0.0019131
0.00191413
0.0019147
0.00191587
0.00191632
0.00191766
0.00055128
0.00126973
0.00155172
0.0017335
0.0018224
0.00183183
0.00182234
0.00180242
0.00178494
0.00177013
0.00175687
0.00174469
0.0017336
0.00172353
0.00171444
0.0017062
0.00169869
0.00169183
0.00168557
0.00167984
0.0016746
0.0016698
0.0016654
0.00166136
0.00165766
0.00165426
0.00165114
0.00164828
0.00164566
0.00164325
0.00164105
0.00163904
0.00163721
0.00163554
0.00163402
0.00163264
0.0016314
0.00163029
0.00162929
0.0016284
0.00162762
0.00162694
0.00162635
0.00162585
0.00162543
0.00162509
0.00162482
0.00162463
0.0016245
0.00162444
0.00162444
0.00162449
0.0016246
0.00162476
0.00162498
0.00162524
0.00162555
0.0016259
0.00162629
0.00162673
0.0016272
0.00162771
0.00162825
0.00162882
0.00162943
0.00163006
0.00163073
0.00163142
0.00163213
0.00163287
0.00163363
0.00163441
0.00163521
0.00163602
0.00163686
0.00163771
0.00163857
0.00163945
0.00164035
0.00164125
0.00164216
0.00164309
0.00164402
0.00164496
0.00164592
0.00164687
0.00164784
0.00164881
0.00164979
0.00165077
0.00165176
0.00165275
0.00165374
0.00165474
0.00165575
0.00165675
0.00165776
0.00165877
0.00165978
0.0016608
0.00166182
0.00166283
0.00166385
0.00166487
0.00166589
0.00166692
0.00166794
0.00166896
0.00166999
0.00167101
0.00167203
0.00167306
0.00167408
0.00167511
0.00167613
0.00167715
0.00167817
0.0016792
0.00168022
0.00168124
0.00168226
0.00168328
0.0016843
0.00168532
0.00168633
0.00168735
0.00168836
0.00168938
0.00169039
0.0016914
0.00169242
0.00169343
0.00169444
0.00169544
0.00169645
0.00169745
0.00169846
0.00169946
0.00170046
0.00170146
0.00170246
0.00170346
0.00170446
0.00170545
0.00170645
0.00170744
0.00170843
0.00170942
0.00171041
0.0017114
0.00171238
0.00171337
0.00171435
0.00171533
0.00171631
0.00171729
0.00171827
0.00171924
0.00172022
0.00172119
0.00172216
0.00172313
0.0017241
0.00172506
0.00172603
0.00172699
0.00172795
0.00172891
0.00172987
0.00173083
0.00173178
0.00173274
0.00173369
0.00173464
0.00173558
0.00173653
0.00173747
0.00173842
0.00173936
0.00174029
0.00174123
0.00174216
0.0017431
0.00174403
0.00174496
0.00174588
0.00174681
0.00174773
0.00174865
0.00174957
0.00175048
0.0017514
0.00175231
0.00175322
0.00175413
0.00175503
0.00175593
0.00175683
0.00175773
0.00175863
0.00175952
0.00176041
0.0017613
0.00176219
0.00176307
0.00176395
0.00176483
0.00176571
0.00176658
0.00176746
0.00176832
0.00176919
0.00177006
0.00177092
0.00177178
0.00177263
0.00177349
0.00177434
0.00177519
0.00177603
0.00177688
0.00177772
0.00177856
0.0017794
0.00178022
0.00178106
0.00178188
0.00178272
0.00178352
0.00178437
0.00178515
0.00178603
0.00178675
0.00178768
0.00178833
0.00178935
0.00178988
0.00179101
0.00179147
0.00179275
0.000199715
0.000630639
0.000880404
0.00110833
0.00128816
0.00138601
0.00143799
0.0014647
0.00147981
0.00148883
0.00149409
0.00149689
0.00149821
0.00149845
0.00149823
0.00149766
0.00149675
0.00149571
0.0014946
0.00149348
0.00149237
0.00149129
0.00149026
0.0014893
0.0014884
0.00148758
0.00148684
0.00148617
0.00148558
0.00148506
0.00148462
0.00148425
0.00148395
0.00148372
0.00148355
0.00148345
0.00148341
0.00148343
0.00148349
0.00148362
0.0014838
0.00148403
0.00148431
0.00148463
0.00148499
0.0014854
0.00148585
0.00148634
0.00148686
0.00148742
0.00148801
0.00148863
0.00148929
0.00148997
0.00149069
0.00149143
0.00149219
0.00149298
0.00149379
0.00149462
0.00149547
0.00149634
0.00149722
0.00149812
0.00149904
0.00149997
0.00150091
0.00150186
0.00150282
0.00150378
0.00150476
0.00150574
0.00150672
0.00150771
0.0015087
0.0015097
0.0015107
0.00151169
0.00151269
0.00151369
0.0015147
0.0015157
0.0015167
0.00151769
0.00151869
0.00151969
0.00152068
0.00152168
0.00152267
0.00152366
0.00152465
0.00152564
0.00152662
0.0015276
0.00152858
0.00152956
0.00153054
0.00153151
0.00153249
0.00153346
0.00153443
0.00153539
0.00153636
0.00153732
0.00153829
0.00153925
0.0015402
0.00154116
0.00154212
0.00154307
0.00154402
0.00154497
0.00154592
0.00154687
0.00154782
0.00154876
0.0015497
0.00155064
0.00155158
0.00155252
0.00155346
0.0015544
0.00155533
0.00155626
0.0015572
0.00155813
0.00155906
0.00155998
0.00156091
0.00156184
0.00156276
0.00156368
0.00156461
0.00156553
0.00156645
0.00156736
0.00156828
0.0015692
0.00157011
0.00157102
0.00157193
0.00157285
0.00157375
0.00157466
0.00157557
0.00157648
0.00157738
0.00157828
0.00157919
0.00158009
0.00158099
0.00158189
0.00158278
0.00158368
0.00158458
0.00158547
0.00158636
0.00158725
0.00158814
0.00158903
0.00158992
0.00159081
0.00159169
0.00159258
0.00159346
0.00159434
0.00159522
0.0015961
0.00159698
0.00159786
0.00159873
0.00159961
0.00160048
0.00160135
0.00160222
0.00160309
0.00160396
0.00160482
0.00160569
0.00160655
0.00160742
0.00160828
0.00160914
0.00160999
0.00161085
0.00161171
0.00161256
0.00161341
0.00161426
0.00161511
0.00161596
0.00161681
0.00161765
0.0016185
0.00161934
0.00162018
0.00162102
0.00162185
0.00162269
0.00162352
0.00162436
0.00162519
0.00162601
0.00162684
0.00162767
0.00162849
0.00162931
0.00163013
0.00163095
0.00163177
0.00163259
0.0016334
0.00163421
0.00163502
0.00163583
0.00163663
0.00163744
0.00163824
0.00163904
0.00163984
0.00164064
0.00164143
0.00164222
0.00164302
0.0016438
0.0016446
0.00164537
0.00164617
0.00164693
0.00164775
0.00164847
0.00164932
0.00164999
0.0016509
0.00165149
0.00165248
0.00165299
0.00165406
0.00165451
0.00165574
6.54611e-05
0.000259322
0.000395748
0.000551855
0.000736711
0.000875231
0.00097374
0.00104622
0.00110118
0.00114286
0.00117449
0.00119874
0.0012178
0.001233
0.00124538
0.00125562
0.00126417
0.0012714
0.00127759
0.00128294
0.00128762
0.00129175
0.00129543
0.00129873
0.00130173
0.00130446
0.00130698
0.00130932
0.0013115
0.00131356
0.0013155
0.00131735
0.00131912
0.00132083
0.00132247
0.00132407
0.00132563
0.00132715
0.00132864
0.0013301
0.00133155
0.00133298
0.00133439
0.00133579
0.00133718
0.00133856
0.00133993
0.0013413
0.00134267
0.00134403
0.00134539
0.00134674
0.0013481
0.00134945
0.0013508
0.00135214
0.00135349
0.00135483
0.00135617
0.0013575
0.00135883
0.00136015
0.00136146
0.00136277
0.00136407
0.00136536
0.00136665
0.00136792
0.00136918
0.00137043
0.00137166
0.00137288
0.00137409
0.00137529
0.00137647
0.00137764
0.0013788
0.00137994
0.00138107
0.00138219
0.00138329
0.00138438
0.00138545
0.00138651
0.00138757
0.00138861
0.00138963
0.00139065
0.00139166
0.00139265
0.00139364
0.00139462
0.00139558
0.00139654
0.00139749
0.00139844
0.00139937
0.0014003
0.00140122
0.00140214
0.00140305
0.00140395
0.00140485
0.00140575
0.00140663
0.00140752
0.0014084
0.00140927
0.00141015
0.00141101
0.00141188
0.00141274
0.0014136
0.00141445
0.0014153
0.00141615
0.001417
0.00141784
0.00141868
0.00141952
0.00142036
0.00142119
0.00142203
0.00142286
0.00142369
0.00142452
0.00142534
0.00142617
0.00142699
0.00142781
0.00142863
0.00142945
0.00143026
0.00143108
0.00143189
0.00143271
0.00143352
0.00143433
0.00143514
0.00143595
0.00143675
0.00143756
0.00143837
0.00143917
0.00143997
0.00144077
0.00144158
0.00144238
0.00144318
0.00144397
0.00144477
0.00144557
0.00144636
0.00144716
0.00144795
0.00144874
0.00144954
0.00145033
0.00145112
0.00145191
0.00145269
0.00145348
0.00145427
0.00145505
0.00145584
0.00145662
0.00145741
0.00145819
0.00145897
0.00145975
0.00146053
0.00146131
0.00146209
0.00146287
0.00146365
0.00146443
0.0014652
0.00146598
0.00146675
0.00146752
0.0014683
0.00146907
0.00146984
0.00147061
0.00147138
0.00147215
0.00147291
0.00147368
0.00147445
0.00147521
0.00147598
0.00147674
0.00147751
0.00147827
0.00147903
0.00147979
0.00148055
0.00148131
0.00148207
0.00148282
0.00148358
0.00148433
0.00148509
0.00148584
0.00148659
0.00148735
0.0014881
0.00148885
0.0014896
0.00149034
0.00149109
0.00149184
0.00149258
0.00149333
0.00149407
0.00149481
0.00149555
0.00149629
0.00149703
0.00149777
0.0014985
0.00149924
0.00149997
0.00150071
0.00150143
0.00150218
0.00150288
0.00150364
0.00150433
0.00150511
0.00150576
0.00150658
0.00150718
0.00150806
0.00150859
0.00150953
0.00151
0.001511
0.00151143
0.00151259
2.22483e-05
9.61253e-05
0.000144001
0.000212351
0.000314202
0.00042735
0.00052277
0.000606317
0.00068092
0.000746009
0.000801498
0.000848344
0.000887962
0.000921551
0.000950128
0.000974579
0.000995624
0.00101387
0.00102982
0.00104387
0.00105633
0.00106746
0.00107745
0.00108649
0.00109471
0.00110222
0.00110911
0.00111547
0.00112136
0.00112685
0.00113197
0.00113678
0.00114131
0.00114558
0.00114963
0.00115348
0.00115715
0.00116066
0.00116402
0.00116725
0.00117035
0.00117335
0.00117625
0.00117906
0.00118179
0.00118444
0.00118702
0.00118954
0.001192
0.0011944
0.00119675
0.00119905
0.0012013
0.00120351
0.00120567
0.0012078
0.00120988
0.00121192
0.00121393
0.0012159
0.00121783
0.00121972
0.00122157
0.00122338
0.00122516
0.0012269
0.0012286
0.00123026
0.00123189
0.00123347
0.00123502
0.00123654
0.00123802
0.00123946
0.00124086
0.00124224
0.00124357
0.00124488
0.00124615
0.0012474
0.00124861
0.0012498
0.00125095
0.00125209
0.00125319
0.00125427
0.00125533
0.00125637
0.00125738
0.00125838
0.00125936
0.00126031
0.00126126
0.00126218
0.00126309
0.00126399
0.00126487
0.00126574
0.00126659
0.00126744
0.00126827
0.0012691
0.00126991
0.00127072
0.00127152
0.00127231
0.00127309
0.00127387
0.00127464
0.0012754
0.00127616
0.00127691
0.00127766
0.0012784
0.00127914
0.00127987
0.00128061
0.00128133
0.00128205
0.00128277
0.00128349
0.00128421
0.00128492
0.00128563
0.00128633
0.00128704
0.00128774
0.00128844
0.00128914
0.00128984
0.00129053
0.00129123
0.00129192
0.00129261
0.0012933
0.00129399
0.00129467
0.00129536
0.00129605
0.00129673
0.00129741
0.00129809
0.00129878
0.00129946
0.00130014
0.00130081
0.00130149
0.00130217
0.00130285
0.00130352
0.0013042
0.00130487
0.00130555
0.00130622
0.0013069
0.00130757
0.00130824
0.00130891
0.00130959
0.00131026
0.00131093
0.0013116
0.00131227
0.00131294
0.0013136
0.00131427
0.00131494
0.00131561
0.00131628
0.00131695
0.00131761
0.00131828
0.00131895
0.00131961
0.00132028
0.00132095
0.00132161
0.00132228
0.00132294
0.00132361
0.00132427
0.00132494
0.0013256
0.00132626
0.00132693
0.00132759
0.00132826
0.00132892
0.00132958
0.00133025
0.00133091
0.00133157
0.00133224
0.0013329
0.00133356
0.00133423
0.00133489
0.00133555
0.00133621
0.00133688
0.00133754
0.0013382
0.00133886
0.00133952
0.00134019
0.00134085
0.00134151
0.00134217
0.00134283
0.00134349
0.00134415
0.00134481
0.00134547
0.00134614
0.0013468
0.00134746
0.00134811
0.00134878
0.00134943
0.0013501
0.00135075
0.00135141
0.00135206
0.00135273
0.00135337
0.00135405
0.00135468
0.00135538
0.00135598
0.0013567
0.00135728
0.00135804
0.00135856
0.00135938
0.00135984
0.00136071
0.00136114
0.00136204
0.00136244
0.0013635
1.26578e-05
3.71749e-05
4.93242e-05
6.92208e-05
0.000102851
0.000151518
0.000205454
0.000260969
0.000319061
0.000377321
0.000433284
0.000485738
0.000534353
0.000579064
0.000619877
0.000656912
0.000690371
0.000720521
0.000747654
0.000772072
0.000794072
0.000813935
0.00083192
0.00084826
0.000863161
0.0008768
0.000889333
0.00090089
0.000911587
0.00092152
0.000930772
0.000939418
0.000947519
0.00095513
0.000962301
0.000969074
0.000975486
0.000981571
0.000987357
0.000992872
0.000998139
0.00100318
0.00100801
0.00101264
0.0010171
0.0010214
0.00102554
0.00102953
0.0010334
0.00103714
0.00104076
0.00104427
0.00104767
0.00105097
0.00105417
0.00105728
0.0010603
0.00106322
0.00106606
0.00106882
0.00107149
0.00107408
0.00107659
0.00107901
0.00108136
0.00108364
0.00108583
0.00108796
0.00109001
0.00109199
0.0010939
0.00109574
0.00109751
0.00109923
0.00110088
0.00110247
0.001104
0.00110548
0.0011069
0.00110828
0.0011096
0.00111088
0.00111211
0.0011133
0.00111445
0.00111557
0.00111664
0.00111768
0.00111869
0.00111967
0.00112062
0.00112154
0.00112244
0.00112331
0.00112416
0.00112499
0.0011258
0.00112659
0.00112736
0.00112811
0.00112885
0.00112957
0.00113028
0.00113098
0.00113166
0.00113234
0.001133
0.00113366
0.0011343
0.00113494
0.00113557
0.00113619
0.0011368
0.00113741
0.00113801
0.00113861
0.0011392
0.00113979
0.00114037
0.00114095
0.00114152
0.00114209
0.00114266
0.00114322
0.00114378
0.00114434
0.0011449
0.00114545
0.00114601
0.00114656
0.00114711
0.00114765
0.0011482
0.00114874
0.00114928
0.00114983
0.00115037
0.00115091
0.00115144
0.00115198
0.00115252
0.00115306
0.00115359
0.00115413
0.00115466
0.00115519
0.00115573
0.00115626
0.00115679
0.00115733
0.00115786
0.00115839
0.00115892
0.00115946
0.00115999
0.00116052
0.00116105
0.00116158
0.00116211
0.00116264
0.00116318
0.00116371
0.00116424
0.00116477
0.0011653
0.00116583
0.00116637
0.0011669
0.00116743
0.00116796
0.0011685
0.00116903
0.00116956
0.0011701
0.00117063
0.00117117
0.0011717
0.00117224
0.00117277
0.00117331
0.00117384
0.00117438
0.00117492
0.00117545
0.00117599
0.00117653
0.00117707
0.00117761
0.00117815
0.00117869
0.00117923
0.00117977
0.00118032
0.00118086
0.0011814
0.00118195
0.00118249
0.00118304
0.00118358
0.00118413
0.00118468
0.00118522
0.00118577
0.00118632
0.00118687
0.00118742
0.00118797
0.00118852
0.00118908
0.00118963
0.00119018
0.00119074
0.00119129
0.00119185
0.0011924
0.00119296
0.00119352
0.00119408
0.00119463
0.0011952
0.00119575
0.00119632
0.00119687
0.00119745
0.00119799
0.00119858
0.00119911
0.00119972
0.00120022
0.00120086
0.00120134
0.00120201
0.00120245
0.00120317
0.00120356
0.00120432
0.00120469
0.00120548
0.00120583
0.00120676
1.15481e-05
1.93284e-05
2.27951e-05
2.63806e-05
3.33446e-05
4.46402e-05
6.04346e-05
7.98157e-05
0.000104446
0.000133971
0.000166898
0.000201928
0.000238169
0.00027492
0.000311549
0.000347538
0.000382493
0.00041613
0.000448249
0.00047872
0.000507469
0.000534473
0.000559746
0.000583336
0.000605312
0.00062576
0.000644779
0.00066247
0.000678937
0.000694284
0.000708607
0.000722
0.000734546
0.000746324
0.000757403
0.000767847
0.000777711
0.000787047
0.000795899
0.000804306
0.000812305
0.000819927
0.000827202
0.000834155
0.000840809
0.000847184
0.0008533
0.000859171
0.000864813
0.000870239
0.00087546
0.000880485
0.000885323
0.000889982
0.000894467
0.000898784
0.000902938
0.000906935
0.000910777
0.00091447
0.000918015
0.000921418
0.000924681
0.000927808
0.000930803
0.000933669
0.000936409
0.000939029
0.00094153
0.000943918
0.000946197
0.00094837
0.000950442
0.000952416
0.000954297
0.000956089
0.000957795
0.000959421
0.000960969
0.000962443
0.000963848
0.000965187
0.000966463
0.00096768
0.000968841
0.000969949
0.000971007
0.000972019
0.000972987
0.000973913
0.0009748
0.000975651
0.000976468
0.000977252
0.000978006
0.000978732
0.000979432
0.000980106
0.000980758
0.000981388
0.000981998
0.000982589
0.000983163
0.00098372
0.000984262
0.00098479
0.000985304
0.000985807
0.000986298
0.000986779
0.00098725
0.000987711
0.000988165
0.00098861
0.000989049
0.00098948
0.000989905
0.000990325
0.000990739
0.000991148
0.000991553
0.000991953
0.00099235
0.000992743
0.000993133
0.00099352
0.000993904
0.000994286
0.000994666
0.000995044
0.00099542
0.000995794
0.000996167
0.000996539
0.000996909
0.000997279
0.000997647
0.000998015
0.000998382
0.000998748
0.000999114
0.000999479
0.000999843
0.00100021
0.00100057
0.00100094
0.0010013
0.00100166
0.00100203
0.00100239
0.00100276
0.00100312
0.00100349
0.00100385
0.00100422
0.00100458
0.00100495
0.00100532
0.00100568
0.00100605
0.00100642
0.00100679
0.00100716
0.00100753
0.0010079
0.00100827
0.00100864
0.00100901
0.00100938
0.00100976
0.00101013
0.00101051
0.00101088
0.00101126
0.00101164
0.00101202
0.0010124
0.00101278
0.00101316
0.00101354
0.00101393
0.00101431
0.0010147
0.00101508
0.00101547
0.00101586
0.00101625
0.00101664
0.00101703
0.00101742
0.00101782
0.00101822
0.00101861
0.00101901
0.00101941
0.00101981
0.00102022
0.00102062
0.00102102
0.00102143
0.00102184
0.00102225
0.00102266
0.00102307
0.00102348
0.0010239
0.00102431
0.00102473
0.00102515
0.00102557
0.00102599
0.00102641
0.00102684
0.00102727
0.00102769
0.00102812
0.00102855
0.00102899
0.00102942
0.00102986
0.00103029
0.00103074
0.00103116
0.00103162
0.00103204
0.00103251
0.00103292
0.00103341
0.0010338
0.00103432
0.00103469
0.00103524
0.00103558
0.00103616
0.00103647
0.00103709
0.00103739
0.00103802
0.00103831
0.00103906
1.13826e-05
1.5596e-05
1.76983e-05
1.83884e-05
1.93637e-05
2.07799e-05
2.27737e-05
2.55756e-05
2.99654e-05
3.66559e-05
4.58894e-05
5.76522e-05
7.18718e-05
8.84113e-05
0.000107034
0.000127437
0.000149297
0.000172289
0.000196101
0.00022044
0.000245034
0.000269643
0.000294058
0.000318099
0.00034162
0.000364501
0.000386649
0.000407997
0.0004285
0.00044813
0.000466877
0.000484745
0.000501749
0.000517911
0.000533261
0.000547836
0.000561673
0.000574813
0.000587295
0.000599162
0.00061045
0.000621199
0.000631442
0.000641214
0.000650541
0.000659453
0.000667973
0.000676122
0.000683918
0.000691379
0.00069852
0.000705353
0.000711889
0.000718138
0.00072411
0.000729813
0.000735255
0.000740444
0.000745387
0.000750091
0.000754564
0.000758814
0.000762847
0.000766671
0.000770293
0.000773723
0.000776966
0.000780031
0.000782926
0.000785657
0.000788234
0.000790663
0.000792951
0.000795106
0.000797135
0.000799044
0.00080084
0.00080253
0.000804118
0.000805612
0.000807016
0.000808336
0.000809577
0.000810744
0.000811841
0.000812873
0.000813844
0.000814758
0.000815618
0.000816428
0.000817192
0.000817911
0.00081859
0.00081923
0.000819835
0.000820407
0.000820947
0.000821459
0.000821944
0.000822403
0.000822839
0.000823254
0.000823648
0.000824023
0.000824381
0.000824722
0.000825049
0.000825361
0.000825661
0.000825949
0.000826225
0.000826492
0.000826749
0.000826997
0.000827238
0.00082747
0.000827696
0.000827916
0.00082813
0.000828338
0.000828542
0.000828741
0.000828936
0.000829127
0.000829315
0.000829499
0.000829681
0.000829861
0.000830039
0.000830214
0.000830388
0.00083056
0.000830732
0.000830902
0.000831071
0.000831239
0.000831407
0.000831574
0.00083174
0.000831906
0.000832072
0.000832238
0.000832404
0.000832569
0.000832735
0.000832901
0.000833067
0.000833234
0.000833401
0.000833569
0.000833738
0.000833907
0.000834077
0.000834248
0.000834419
0.000834592
0.000834765
0.000834939
0.000835114
0.00083529
0.000835467
0.000835645
0.000835824
0.000836003
0.000836184
0.000836366
0.000836549
0.000836734
0.000836919
0.000837106
0.000837295
0.000837485
0.000837676
0.000837869
0.000838063
0.000838259
0.000838457
0.000838655
0.000838856
0.000839058
0.000839261
0.000839466
0.000839672
0.00083988
0.00084009
0.000840301
0.000840514
0.000840729
0.000840945
0.000841164
0.000841384
0.000841607
0.000841831
0.000842058
0.000842286
0.000842517
0.000842749
0.000842984
0.00084322
0.000843459
0.000843699
0.000843942
0.000844186
0.000844434
0.000844681
0.000844933
0.000845185
0.000845441
0.000845697
0.000845958
0.000846217
0.000846484
0.000846747
0.00084702
0.000847286
0.000847566
0.000847834
0.000848121
0.000848391
0.000848687
0.000848956
0.000849262
0.000849529
0.000849847
0.00085011
0.000850442
0.000850697
0.000851047
0.000851292
0.000851662
0.000851895
0.000852288
0.000852507
0.00085292
0.000853132
0.000853559
0.00085377
0.000854211
0.000854416
0.000854953
1.1311e-05
1.5121e-05
1.67634e-05
1.72468e-05
1.76096e-05
1.79266e-05
1.81867e-05
1.84427e-05
1.87583e-05
1.92219e-05
1.9944e-05
2.10812e-05
2.2834e-05
2.54353e-05
2.90981e-05
3.39831e-05
4.01839e-05
4.77402e-05
5.66445e-05
6.68555e-05
7.83022e-05
9.08938e-05
0.000104521
0.000119062
0.000134388
0.000150364
0.000166857
0.000183735
0.000200873
0.000218152
0.000235465
0.000252712
0.000269808
0.000286676
0.000303252
0.000319482
0.000335322
0.000350738
0.000365702
0.000380195
0.000394204
0.00040772
0.000420739
0.00043326
0.000445283
0.000456816
0.000467861
0.000478426
0.000488518
0.000498148
0.000507325
0.000516058
0.000524357
0.000532235
0.000539703
0.000546773
0.000553459
0.000559772
0.000565727
0.000571337
0.000576615
0.000581577
0.000586236
0.000590606
0.0005947
0.000598533
0.000602119
0.000605469
0.000608597
0.000611517
0.000614238
0.000616774
0.000619134
0.000621331
0.000623373
0.000625271
0.000627034
0.000628669
0.000630186
0.000631592
0.000632895
0.0006341
0.000635215
0.000636246
0.000637198
0.000638077
0.000638888
0.000639635
0.000640323
0.000640955
0.000641537
0.00064207
0.000642559
0.000643007
0.000643417
0.00064379
0.000644131
0.00064444
0.000644721
0.000644975
0.000645204
0.000645411
0.000645596
0.000645761
0.000645907
0.000646037
0.000646151
0.000646251
0.000646337
0.000646411
0.000646473
0.000646525
0.000646568
0.000646601
0.000646627
0.000646644
0.000646656
0.00064666
0.000646658
0.000646653
0.000646642
0.000646626
0.000646607
0.000646584
0.000646557
0.000646528
0.000646496
0.000646463
0.000646427
0.000646389
0.000646351
0.000646311
0.00064627
0.000646229
0.000646187
0.000646144
0.000646102
0.000646059
0.000646016
0.000645973
0.000645931
0.000645889
0.000645847
0.000645805
0.000645764
0.000645724
0.000645685
0.000645646
0.000645608
0.000645572
0.000645537
0.000645502
0.00064547
0.000645438
0.000645408
0.000645379
0.000645352
0.000645326
0.000645302
0.000645279
0.000645257
0.000645238
0.000645219
0.000645202
0.000645187
0.000645174
0.000645162
0.000645152
0.000645143
0.000645137
0.000645132
0.00064513
0.00064513
0.000645132
0.000645135
0.000645141
0.000645149
0.000645159
0.000645171
0.000645186
0.000645202
0.000645221
0.000645242
0.000645265
0.00064529
0.000645317
0.000645346
0.000645378
0.000645412
0.000645449
0.000645488
0.00064553
0.000645574
0.000645622
0.000645671
0.000645724
0.000645778
0.000645837
0.000645896
0.000645961
0.000646025
0.000646095
0.000646164
0.00064624
0.000646314
0.000646395
0.000646474
0.000646562
0.000646645
0.00064674
0.000646827
0.000646929
0.000647021
0.000647131
0.000647226
0.000647345
0.000647443
0.000647572
0.000647672
0.000647811
0.000647912
0.000648062
0.000648163
0.000648325
0.000648425
0.0006486
0.000648699
0.000648885
0.000648984
0.000649181