/*--------------------------------*- C++ -*----------------------------------*\
  =========                 |
  \\      /  F ield         | OpenFOAM: The Open Source CFD Toolbox
   \\    /   O peration     | Website:  https://openfoam.org
    \\  /    A nd           | Version:  7
     \\/     M anipulation  |
\*---------------------------------------------------------------------------*/
FoamFile
{
    version     2.0;
    format      ascii;
    class       volScalarField;
    location    "3.1";
    object      T;
}
// * * * * * * * * * * * * * * * * * * * * * * * * * * * * * * * * * * * * * //

dimensions      [0 0 0 1 0 0 0];

internalField   nonuniform List<scalar> 
4800
(
283.157
283.157
283.157
283.158
283.159
283.159
283.16
283.16
283.159
283.159
283.159
283.158
283.158
283.157
283.157
283.156
283.155
283.155
283.154
283.154
283.154
283.154
283.153
283.153
283.152
283.152
283.151
283.151
283.151
283.151
283.151
283.151
283.151
283.151
283.151
283.151
283.151
283.151
283.151
283.151
283.152
283.152
283.152
283.152
283.152
283.152
283.152
283.152
283.151
283.151
283.151
283.151
283.151
283.151
283.151
283.151
283.151
283.151
283.151
283.15
283.15
283.15
283.15
283.15
283.15
283.149
283.149
283.149
283.149
283.148
283.149
283.146
283.151
283.141
283.159
283.126
283.187
283.074
283.281
282.898
283.157
283.156
283.157
283.157
283.157
283.158
283.158
283.157
283.157
283.156
283.155
283.155
283.154
283.154
283.153
283.153
283.152
283.151
283.151
283.15
283.149
283.149
283.148
283.148
283.148
283.147
283.147
283.147
283.147
283.147
283.147
283.147
283.146
283.146
283.146
283.145
283.145
283.144
283.144
283.144
283.144
283.145
283.145
283.145
283.146
283.146
283.147
283.147
283.148
283.148
283.149
283.149
283.15
283.15
283.151
283.151
283.151
283.152
283.152
283.152
283.152
283.152
283.152
283.152
283.153
283.153
283.153
283.153
283.153
283.152
283.153
283.152
283.153
283.15
283.154
283.147
283.155
283.144
283.157
283.14
283.156
283.156
283.156
283.156
283.157
283.157
283.157
283.157
283.156
283.155
283.154
283.154
283.153
283.152
283.152
283.151
283.15
283.149
283.148
283.148
283.147
283.146
283.146
283.145
283.145
283.144
283.144
283.144
283.143
283.143
283.143
283.143
283.143
283.143
283.143
283.143
283.142
283.142
283.141
283.14
283.139
283.139
283.139
283.139
283.139
283.139
283.139
283.14
283.14
283.141
283.141
283.142
283.143
283.143
283.144
283.144
283.145
283.145
283.146
283.147
283.147
283.148
283.148
283.149
283.149
283.149
283.15
283.15
283.151
283.151
283.151
283.151
283.151
283.151
283.151
283.151
283.151
283.152
283.151
283.153
283.154
283.154
283.155
283.155
283.155
283.156
283.156
283.155
283.155
283.154
283.153
283.152
283.152
283.151
283.15
283.15
283.149
283.148
283.147
283.146
283.146
283.145
283.144
283.144
283.143
283.143
283.142
283.142
283.142
283.141
283.141
283.141
283.141
283.141
283.141
283.141
283.14
283.14
283.139
283.138
283.137
283.137
283.136
283.136
283.136
283.136
283.136
283.137
283.137
283.138
283.138
283.139
283.139
283.14
283.14
283.141
283.141
283.142
283.142
283.143
283.143
283.144
283.144
283.145
283.145
283.146
283.146
283.146
283.147
283.147
283.148
283.148
283.148
283.148
283.148
283.148
283.148
283.148
283.148
283.148
283.153
283.153
283.153
283.154
283.154
283.154
283.154
283.154
283.153
283.152
283.152
283.151
283.15
283.15
283.149
283.148
283.147
283.147
283.146
283.145
283.144
283.144
283.143
283.143
283.142
283.142
283.141
283.141
283.141
283.14
283.14
283.14
283.14
283.14
283.14
283.14
283.139
283.139
283.138
283.138
283.137
283.136
283.136
283.136
283.136
283.136
283.136
283.136
283.137
283.137
283.138
283.138
283.139
283.139
283.14
283.14
283.141
283.141
283.142
283.142
283.143
283.143
283.144
283.144
283.145
283.145
283.145
283.146
283.146
283.147
283.147
283.148
283.148
283.148
283.148
283.148
283.148
283.148
283.148
283.148
283.151
283.151
283.152
283.152
283.152
283.152
283.152
283.152
283.151
283.15
283.15
283.149
283.149
283.148
283.147
283.147
283.146
283.145
283.145
283.144
283.144
283.143
283.142
283.142
283.141
283.141
283.141
283.14
283.14
283.139
283.139
283.139
283.138
283.138
283.138
283.138
283.138
283.138
283.137
283.136
283.136
283.135
283.135
283.135
283.135
283.135
283.135
283.136
283.136
283.136
283.137
283.137
283.138
283.139
283.139
283.14
283.14
283.141
283.141
283.142
283.142
283.143
283.143
283.144
283.144
283.145
283.145
283.146
283.146
283.147
283.147
283.147
283.147
283.147
283.147
283.147
283.147
283.148
283.148
283.148
283.149
283.15
283.15
283.151
283.151
283.151
283.15
283.15
283.149
283.149
283.148
283.147
283.147
283.146
283.145
283.145
283.144
283.144
283.143
283.143
283.142
283.142
283.141
283.14
283.14
283.14
283.139
283.139
283.138
283.138
283.137
283.137
283.137
283.137
283.137
283.137
283.136
283.136
283.136
283.135
283.135
283.134
283.134
283.134
283.134
283.134
283.134
283.134
283.135
283.135
283.136
283.136
283.137
283.137
283.138
283.139
283.139
283.14
283.14
283.141
283.141
283.142
283.142
283.143
283.143
283.144
283.144
283.145
283.145
283.146
283.146
283.146
283.147
283.147
283.147
283.147
283.147
283.147
283.147
283.148
283.147
283.148
283.149
283.149
283.149
283.149
283.148
283.148
283.147
283.147
283.146
283.145
283.145
283.144
283.143
283.143
283.142
283.142
283.141
283.141
283.14
283.14
283.139
283.139
283.138
283.138
283.137
283.137
283.136
283.136
283.136
283.135
283.135
283.135
283.135
283.135
283.135
283.135
283.134
283.134
283.134
283.133
283.133
283.133
283.133
283.133
283.133
283.133
283.134
283.134
283.135
283.135
283.136
283.136
283.137
283.138
283.138
283.139
283.139
283.14
283.14
283.141
283.141
283.141
283.142
283.142
283.143
283.143
283.144
283.144
283.145
283.145
283.146
283.146
283.146
283.146
283.146
283.146
283.146
283.147
283.146
283.147
283.147
283.148
283.148
283.147
283.146
283.146
283.145
283.145
283.144
283.144
283.143
283.142
283.141
283.141
283.14
283.14
283.14
283.139
283.139
283.138
283.138
283.137
283.137
283.136
283.136
283.135
283.135
283.135
283.134
283.134
283.134
283.133
283.133
283.133
283.133
283.133
283.133
283.133
283.132
283.132
283.132
283.132
283.132
283.132
283.132
283.132
283.132
283.133
283.133
283.134
283.135
283.135
283.136
283.136
283.137
283.138
283.138
283.139
283.139
283.14
283.14
283.14
283.141
283.141
283.142
283.142
283.143
283.144
283.144
283.145
283.145
283.145
283.145
283.145
283.145
283.145
283.146
283.146
283.144
283.145
283.146
283.146
283.146
283.146
283.145
283.144
283.144
283.143
283.143
283.142
283.142
283.141
283.14
283.14
283.139
283.139
283.139
283.138
283.138
283.138
283.137
283.137
283.136
283.136
283.135
283.135
283.135
283.134
283.134
283.134
283.133
283.133
283.133
283.133
283.133
283.133
283.133
283.133
283.133
283.133
283.133
283.133
283.133
283.133
283.133
283.133
283.134
283.134
283.135
283.136
283.136
283.137
283.138
283.139
283.139
283.14
283.14
283.141
283.141
283.142
283.142
283.143
283.144
283.144
283.145
283.145
283.146
283.146
283.147
283.147
283.147
283.148
283.148
283.148
283.149
283.149
283.149
283.15
283.143
283.144
283.145
283.145
283.145
283.145
283.144
283.143
283.143
283.142
283.142
283.142
283.141
283.14
283.14
283.14
283.14
283.139
283.139
283.139
283.139
283.138
283.138
283.138
283.137
283.137
283.137
283.136
283.136
283.136
283.136
283.136
283.136
283.136
283.136
283.136
283.136
283.136
283.136
283.136
283.136
283.136
283.137
283.137
283.137
283.138
283.139
283.139
283.14
283.14
283.141
283.142
283.142
283.142
283.143
283.143
283.144
283.144
283.145
283.145
283.145
283.146
283.146
283.146
283.147
283.147
283.147
283.148
283.148
283.148
283.148
283.148
283.148
283.148
283.148
283.148
283.148
283.147
283.147
283.147
283.143
283.144
283.145
283.145
283.146
283.145
283.145
283.145
283.145
283.145
283.144
283.144
283.144
283.144
283.143
283.143
283.143
283.142
283.142
283.141
283.141
283.141
283.14
283.14
283.14
283.139
283.139
283.139
283.139
283.139
283.139
283.139
283.139
283.14
283.14
283.14
283.14
283.14
283.14
283.141
283.141
283.141
283.141
283.141
283.141
283.141
283.142
283.142
283.142
283.142
283.142
283.142
283.142
283.142
283.142
283.142
283.142
283.142
283.143
283.143
283.143
283.143
283.143
283.143
283.143
283.143
283.143
283.143
283.143
283.143
283.143
283.143
283.143
283.143
283.143
283.144
283.144
283.144
283.144
283.143
284.663
286.718
288.233
289.434
290.45
291.351
292.169
292.929
293.643
294.321
294.966
295.584
296.177
296.748
297.298
297.831
298.347
298.847
299.334
299.807
300.268
300.718
301.157
301.586
302.005
302.416
302.818
303.212
303.598
303.977
304.349
304.714
305.073
305.425
305.772
306.112
306.447
306.777
307.102
307.421
307.736
308.046
308.352
308.653
308.95
309.243
309.532
309.817
310.099
310.376
310.651
310.922
311.189
311.454
311.715
311.973
312.229
312.481
312.731
312.978
313.222
313.464
313.703
313.94
314.174
314.406
314.636
314.864
315.089
315.313
315.534
315.754
315.972
316.187
316.401
316.614
316.824
317.033
317.241
317.447
317.651
317.854
318.055
318.255
318.453
318.651
318.847
319.041
319.235
319.427
319.617
319.807
319.995
320.183
320.369
320.554
320.738
320.92
321.102
321.282
321.462
321.64
321.817
321.993
322.168
322.342
322.515
322.687
322.857
323.027
323.195
323.363
323.529
323.694
323.858
324.021
324.183
324.344
324.503
324.662
324.819
324.975
325.129
325.282
325.434
325.585
325.735
325.883
326.03
326.175
326.319
326.462
326.603
326.743
326.882
327.019
327.155
327.289
327.422
327.553
327.683
327.812
327.939
328.064
328.189
328.311
328.432
328.552
328.67
328.787
328.902
329.015
329.127
329.238
329.347
329.454
329.56
329.664
329.767
329.868
329.968
330.066
330.163
330.258
330.352
330.445
330.535
330.625
330.713
330.799
330.884
330.968
331.05
331.131
331.211
331.289
331.366
331.441
331.515
331.588
331.659
331.729
331.798
331.866
331.932
331.997
332.061
332.123
332.184
332.244
332.303
332.361
332.417
332.472
332.526
332.579
332.631
332.682
332.732
332.781
332.828
332.875
332.921
332.965
333.009
333.052
333.093
333.134
333.174
333.213
333.251
333.288
333.324
333.36
333.394
333.428
333.461
333.493
333.524
333.554
333.584
333.613
333.641
333.668
333.695
333.72
333.746
333.77
333.794
333.817
333.84
333.861
333.883
333.903
333.923
333.943
333.962
333.98
333.998
334.015
334.032
334.048
334.064
334.079
334.093
334.107
334.121
334.134
334.147
334.159
334.17
334.182
334.192
334.203
334.213
334.222
334.231
334.24
334.249
334.256
334.264
334.271
334.278
334.285
334.291
334.297
334.303
334.308
334.313
334.318
334.323
334.327
334.331
334.334
334.338
334.341
334.344
334.346
334.349
334.351
334.353
334.354
334.355
334.357
334.358
334.358
334.359
334.359
334.359
334.359
334.359
334.358
334.358
334.357
334.356
334.355
334.354
334.353
334.352
334.35
334.348
334.347
334.345
334.343
334.34
334.338
334.336
334.333
334.331
334.328
334.325
334.322
334.319
334.316
334.313
334.309
334.307
334.301
334.3
334.293
283.18
283.547
284.097
284.722
285.362
285.987
286.589
287.168
287.726
288.264
288.785
289.29
289.78
290.257
290.721
291.173
291.614
292.045
292.466
292.878
293.281
293.676
294.062
294.442
294.814
295.18
295.539
295.892
296.24
296.582
296.918
297.25
297.576
297.898
298.215
298.527
298.835
299.138
299.438
299.733
300.025
300.312
300.596
300.876
301.153
301.426
301.697
301.963
302.227
302.488
302.746
303.001
303.253
303.502
303.749
303.994
304.236
304.476
304.713
304.948
305.181
305.411
305.64
305.866
306.091
306.313
306.534
306.752
306.969
307.184
307.397
307.609
307.819
308.027
308.234
308.439
308.642
308.844
309.045
309.245
309.443
309.639
309.835
310.029
310.222
310.414
310.605
310.794
310.983
311.17
311.356
311.542
311.726
311.909
312.091
312.272
312.452
312.631
312.809
312.987
313.163
313.338
313.512
313.685
313.857
314.028
314.199
314.368
314.536
314.703
314.87
315.035
315.2
315.363
315.526
315.687
315.848
316.008
316.166
316.324
316.481
316.636
316.791
316.944
317.097
317.248
317.398
317.547
317.695
317.842
317.987
318.132
318.275
318.416
318.557
318.696
318.834
318.971
319.106
319.24
319.373
319.504
319.634
319.763
319.891
320.017
320.142
320.265
320.388
320.508
320.628
320.746
320.863
320.978
321.092
321.205
321.316
321.425
321.534
321.641
321.746
321.85
321.952
322.053
322.153
322.251
322.348
322.443
322.537
322.63
322.721
322.811
322.899
322.986
323.072
323.157
323.24
323.322
323.402
323.482
323.56
323.637
323.712
323.786
323.859
323.931
324.002
324.071
324.139
324.206
324.272
324.336
324.399
324.461
324.522
324.582
324.64
324.698
324.754
324.809
324.863
324.916
324.968
325.019
325.069
325.118
325.166
325.214
325.26
325.305
325.349
325.393
325.436
325.477
325.518
325.558
325.597
325.635
325.673
325.709
325.745
325.78
325.814
325.847
325.879
325.911
325.942
325.972
326.001
326.03
326.057
326.085
326.111
326.137
326.162
326.187
326.211
326.234
326.257
326.28
326.301
326.322
326.343
326.363
326.383
326.402
326.42
326.438
326.456
326.473
326.489
326.505
326.52
326.535
326.55
326.564
326.577
326.59
326.603
326.615
326.626
326.638
326.649
326.659
326.669
326.679
326.689
326.698
326.706
326.715
326.723
326.731
326.739
326.746
326.753
326.76
326.766
326.772
326.778
326.784
326.789
326.794
326.799
326.803
326.808
326.812
326.815
326.819
326.822
326.825
326.827
326.83
326.832
326.834
326.836
326.838
326.839
326.841
326.842
326.843
326.844
326.845
326.845
326.846
326.846
326.846
326.847
326.847
326.847
326.846
326.846
326.845
326.845
326.844
326.844
326.842
326.842
326.839
326.84
326.836
283.148
283.158
283.208
283.31
283.464
283.66
283.89
284.146
284.421
284.709
285.006
285.309
285.616
285.925
286.235
286.545
286.854
287.161
287.466
287.77
288.071
288.369
288.664
288.957
289.247
289.534
289.818
290.1
290.379
290.656
290.93
291.202
291.471
291.738
292.002
292.264
292.524
292.781
293.036
293.289
293.539
293.787
294.032
294.275
294.516
294.754
294.99
295.224
295.456
295.686
295.913
296.139
296.362
296.584
296.804
297.022
297.239
297.454
297.667
297.879
298.089
298.298
298.505
298.711
298.916
299.119
299.321
299.521
299.721
299.918
300.115
300.31
300.504
300.697
300.888
301.078
301.267
301.455
301.642
301.828
302.012
302.196
302.378
302.56
302.74
302.92
303.099
303.277
303.454
303.63
303.805
303.98
304.154
304.327
304.5
304.671
304.842
305.013
305.182
305.351
305.519
305.686
305.852
306.017
306.182
306.346
306.509
306.671
306.833
306.993
307.153
307.312
307.47
307.628
307.785
307.941
308.096
308.25
308.404
308.557
308.709
308.861
309.012
309.162
309.312
309.46
309.608
309.755
309.901
310.046
310.191
310.334
310.476
310.618
310.758
310.897
311.035
311.172
311.308
311.443
311.576
311.709
311.841
311.971
312.1
312.229
312.356
312.482
312.607
312.731
312.854
312.975
313.096
313.216
313.334
313.452
313.568
313.683
313.797
313.91
314.021
314.131
314.24
314.348
314.454
314.559
314.662
314.765
314.866
314.965
315.063
315.16
315.256
315.351
315.444
315.536
315.626
315.716
315.804
315.892
315.978
316.063
316.147
316.23
316.311
316.392
316.471
316.549
316.627
316.703
316.777
316.851
316.923
316.995
317.065
317.133
317.201
317.268
317.333
317.397
317.46
317.522
317.582
317.642
317.701
317.758
317.815
317.871
317.925
317.979
318.032
318.084
318.135
318.186
318.235
318.284
318.332
318.379
318.425
318.47
318.514
318.558
318.6
318.642
318.683
318.723
318.762
318.8
318.838
318.874
318.91
318.945
318.979
319.012
319.045
319.077
319.108
319.138
319.168
319.197
319.226
319.254
319.282
319.309
319.335
319.361
319.386
319.411
319.436
319.459
319.483
319.505
319.527
319.549
319.57
319.59
319.61
319.63
319.648
319.666
319.684
319.701
319.717
319.733
319.749
319.764
319.779
319.793
319.807
319.82
319.833
319.846
319.858
319.87
319.882
319.894
319.905
319.916
319.927
319.937
319.947
319.957
319.966
319.976
319.984
319.993
320.001
320.009
320.016
320.023
320.03
320.036
320.043
320.048
320.054
320.059
320.064
320.068
320.073
320.077
320.081
320.085
320.089
320.092
320.095
320.099
320.102
320.105
320.108
320.111
320.113
320.116
320.119
320.121
320.123
320.125
320.127
320.128
320.13
320.131
283.149
283.149
283.149
283.15
283.158
283.176
283.206
283.249
283.307
283.378
283.463
283.56
283.669
283.789
283.919
284.058
284.204
284.357
284.515
284.678
284.846
285.016
285.19
285.366
285.543
285.722
285.903
286.084
286.265
286.448
286.632
286.816
287.001
287.186
287.372
287.558
287.744
287.93
288.117
288.303
288.49
288.676
288.862
289.047
289.232
289.416
289.6
289.782
289.964
290.145
290.325
290.504
290.683
290.86
291.036
291.212
291.387
291.561
291.735
291.908
292.08
292.252
292.423
292.594
292.765
292.934
293.104
293.273
293.442
293.61
293.777
293.944
294.111
294.276
294.441
294.606
294.769
294.932
295.095
295.256
295.417
295.577
295.736
295.894
296.052
296.209
296.366
296.522
296.678
296.833
296.988
297.142
297.296
297.449
297.603
297.756
297.909
298.061
298.213
298.365
298.517
298.668
298.818
298.969
299.118
299.267
299.416
299.564
299.711
299.857
300.003
300.148
300.293
300.437
300.58
300.723
300.865
301.007
301.148
301.289
301.429
301.569
301.709
301.848
301.987
302.125
302.264
302.401
302.539
302.676
302.812
302.948
303.084
303.218
303.353
303.486
303.618
303.75
303.881
304.011
304.14
304.268
304.395
304.521
304.646
304.771
304.894
305.017
305.139
305.26
305.381
305.501
305.62
305.738
305.856
305.973
306.089
306.205
306.32
306.434
306.547
306.66
306.771
306.882
306.991
307.1
307.207
307.313
307.418
307.522
307.625
307.726
307.826
307.925
308.023
308.12
308.215
308.31
308.403
308.495
308.587
308.677
308.767
308.856
308.944
309.031
309.117
309.203
309.287
309.371
309.454
309.536
309.616
309.696
309.775
309.852
309.929
310.004
310.078
310.151
310.223
310.293
310.363
310.431
310.498
310.564
310.629
310.693
310.756
310.818
310.879
310.939
310.998
311.057
311.115
311.172
311.229
311.284
311.339
311.394
311.447
311.5
311.552
311.604
311.654
311.704
311.752
311.8
311.846
311.892
311.937
311.981
312.024
312.065
312.106
312.146
312.186
312.224
312.262
312.299
312.335
312.37
312.405
312.44
312.474
312.507
312.54
312.572
312.604
312.636
312.667
312.698
312.728
312.757
312.786
312.815
312.842
312.869
312.896
312.922
312.947
312.971
312.995
313.017
313.04
313.061
313.082
313.102
313.122
313.141
313.16
313.178
313.196
313.214
313.231
313.248
313.264
313.281
313.297
313.312
313.328
313.343
313.359
313.373
313.388
313.402
313.416
313.429
313.442
313.455
313.467
313.479
313.49
313.5
313.511
313.52
313.53
313.538
313.547
313.555
313.562
313.57
313.577
313.584
313.59
313.597
313.603
313.609
313.615
313.621
313.627
313.633
313.639
313.645
313.65
313.656
313.661
313.667
313.67
313.678
283.149
283.15
283.149
283.147
283.145
283.142
283.14
283.14
283.141
283.145
283.151
283.161
283.174
283.193
283.216
283.245
283.28
283.319
283.363
283.411
283.463
283.52
283.582
283.648
283.718
283.791
283.866
283.944
284.025
284.108
284.194
284.283
284.375
284.469
284.565
284.663
284.764
284.866
284.971
285.078
285.187
285.299
285.412
285.526
285.642
285.759
285.876
285.995
286.114
286.233
286.354
286.474
286.595
286.716
286.836
286.957
287.077
287.197
287.318
287.439
287.56
287.681
287.803
287.924
288.047
288.169
288.292
288.416
288.54
288.665
288.79
288.916
289.042
289.168
289.295
289.421
289.548
289.674
289.8
289.927
290.053
290.178
290.303
290.427
290.551
290.674
290.797
290.92
291.043
291.165
291.288
291.41
291.532
291.654
291.776
291.899
292.021
292.144
292.268
292.392
292.516
292.64
292.764
292.888
293.012
293.136
293.26
293.384
293.508
293.631
293.754
293.876
293.997
294.118
294.238
294.358
294.477
294.596
294.715
294.833
294.951
295.069
295.186
295.304
295.421
295.539
295.657
295.775
295.893
296.011
296.13
296.248
296.366
296.484
296.603
296.721
296.838
296.955
297.072
297.188
297.303
297.418
297.532
297.645
297.757
297.868
297.979
298.089
298.199
298.308
298.416
298.524
298.631
298.738
298.845
298.952
299.058
299.165
299.271
299.377
299.483
299.588
299.694
299.798
299.903
300.007
300.11
300.213
300.314
300.415
300.515
300.613
300.711
300.807
300.903
300.997
301.091
301.183
301.274
301.365
301.454
301.543
301.631
301.719
301.806
301.892
301.978
302.064
302.149
302.234
302.318
302.402
302.486
302.568
302.651
302.732
302.813
302.893
302.971
303.049
303.126
303.201
303.276
303.349
303.421
303.492
303.561
303.63
303.697
303.764
303.829
303.894
303.957
304.02
304.083
304.145
304.206
304.267
304.328
304.388
304.447
304.506
304.565
304.623
304.681
304.738
304.794
304.85
304.904
304.958
305.011
305.063
305.113
305.163
305.212
305.259
305.305
305.351
305.395
305.438
305.481
305.523
305.564
305.604
305.644
305.683
305.722
305.76
305.798
305.836
305.874
305.911
305.948
305.984
306.021
306.056
306.092
306.127
306.161
306.194
306.227
306.259
306.29
306.321
306.35
306.379
306.407
306.433
306.459
306.485
306.509
306.533
306.556
306.578
306.6
306.622
306.643
306.664
306.685
306.706
306.727
306.747
306.767
306.787
306.807
306.827
306.847
306.866
306.885
306.904
306.922
306.939
306.957
306.973
306.989
307.004
307.019
307.032
307.046
307.058
307.07
307.081
307.092
307.102
307.112
307.122
307.131
307.14
307.149
307.158
307.166
307.175
307.184
307.193
307.201
307.211
307.218
307.23
307.234
307.25
283.15
283.151
283.151
283.149
283.146
283.143
283.14
283.138
283.136
283.134
283.132
283.13
283.128
283.127
283.128
283.13
283.134
283.139
283.145
283.151
283.158
283.166
283.176
283.187
283.2
283.214
283.229
283.244
283.26
283.276
283.294
283.313
283.334
283.357
283.381
283.408
283.435
283.464
283.495
283.528
283.564
283.603
283.644
283.688
283.734
283.782
283.831
283.881
283.933
283.987
284.043
284.099
284.157
284.216
284.275
284.334
284.392
284.452
284.511
284.571
284.632
284.694
284.757
284.82
284.883
284.947
285.012
285.078
285.146
285.215
285.286
285.358
285.431
285.505
285.58
285.656
285.733
285.81
285.888
285.967
286.046
286.125
286.204
286.283
286.361
286.439
286.516
286.593
286.671
286.748
286.825
286.903
286.98
287.057
287.135
287.212
287.291
287.371
287.451
287.533
287.615
287.698
287.782
287.866
287.951
288.036
288.122
288.209
288.295
288.382
288.469
288.555
288.641
288.726
288.811
288.895
288.979
289.063
289.146
289.229
289.311
289.393
289.475
289.557
289.64
289.722
289.806
289.889
289.974
290.059
290.145
290.231
290.318
290.405
290.493
290.581
290.67
290.759
290.848
290.936
291.025
291.112
291.2
291.286
291.372
291.457
291.542
291.626
291.71
291.793
291.875
291.957
292.039
292.121
292.202
292.284
292.366
292.449
292.531
292.615
292.698
292.782
292.866
292.951
293.036
293.121
293.206
293.291
293.376
293.461
293.544
293.628
293.71
293.792
293.872
293.952
294.031
294.109
294.186
294.263
294.338
294.413
294.487
294.561
294.635
294.708
294.782
294.855
294.929
295.002
295.076
295.15
295.224
295.298
295.372
295.446
295.52
295.593
295.666
295.739
295.811
295.882
295.952
296.021
296.089
296.156
296.222
296.286
296.35
296.413
296.474
296.535
296.595
296.654
296.713
296.771
296.829
296.887
296.945
297.002
297.06
297.117
297.175
297.232
297.29
297.347
297.404
297.461
297.517
297.573
297.628
297.682
297.735
297.788
297.839
297.889
297.938
297.986
298.033
298.078
298.123
298.167
298.209
298.251
298.293
298.333
298.374
298.414
298.454
298.493
298.533
298.572
298.612
298.651
298.69
298.73
298.769
298.808
298.847
298.885
298.923
298.96
298.996
299.031
299.066
299.1
299.133
299.164
299.195
299.224
299.253
299.281
299.307
299.333
299.359
299.383
299.408
299.432
299.455
299.478
299.502
299.525
299.548
299.571
299.595
299.618
299.642
299.665
299.688
299.711
299.734
299.757
299.779
299.8
299.821
299.841
299.86
299.879
299.896
299.913
299.929
299.944
299.958
299.972
299.985
299.997
300.009
300.02
300.031
300.042
300.052
300.063
300.073
300.085
300.095
300.108
300.116
300.132
300.136
300.158
283.149
283.151
283.15
283.148
283.146
283.143
283.14
283.138
283.137
283.135
283.133
283.131
283.128
283.126
283.126
283.126
283.128
283.131
283.133
283.135
283.137
283.139
283.141
283.144
283.147
283.15
283.153
283.154
283.155
283.155
283.154
283.154
283.154
283.154
283.155
283.157
283.158
283.159
283.161
283.164
283.169
283.175
283.183
283.193
283.204
283.215
283.227
283.24
283.254
283.269
283.285
283.302
283.319
283.337
283.354
283.371
283.388
283.404
283.421
283.438
283.456
283.474
283.493
283.512
283.532
283.551
283.572
283.594
283.617
283.642
283.668
283.696
283.725
283.755
283.786
283.817
283.849
283.883
283.917
283.951
283.987
284.022
284.057
284.092
284.127
284.161
284.195
284.229
284.263
284.297
284.332
284.366
284.401
284.436
284.471
284.507
284.543
284.581
284.62
284.659
284.7
284.742
284.785
284.828
284.872
284.917
284.962
285.008
285.055
285.101
285.148
285.194
285.241
285.286
285.331
285.376
285.421
285.466
285.51
285.555
285.599
285.643
285.687
285.731
285.776
285.821
285.867
285.914
285.962
286.01
286.059
286.109
286.16
286.211
286.263
286.316
286.369
286.422
286.476
286.529
286.583
286.636
286.688
286.741
286.792
286.844
286.895
286.946
286.996
287.046
287.096
287.146
287.195
287.245
287.295
287.345
287.397
287.448
287.5
287.553
287.607
287.661
287.716
287.771
287.827
287.883
287.939
287.996
288.053
288.109
288.165
288.221
288.276
288.331
288.385
288.439
288.492
288.545
288.597
288.648
288.699
288.75
288.8
288.851
288.902
288.952
289.003
289.055
289.107
289.159
289.211
289.264
289.318
289.371
289.425
289.48
289.534
289.589
289.643
289.697
289.75
289.803
289.856
289.907
289.958
290.009
290.058
290.107
290.155
290.202
290.249
290.295
290.34
290.386
290.431
290.476
290.521
290.566
290.611
290.657
290.702
290.748
290.794
290.84
290.887
290.933
290.98
291.026
291.072
291.118
291.163
291.208
291.252
291.295
291.338
291.38
291.42
291.46
291.499
291.537
291.575
291.611
291.647
291.682
291.717
291.752
291.787
291.821
291.855
291.889
291.924
291.958
291.993
292.027
292.062
292.097
292.132
292.166
292.201
292.235
292.268
292.302
292.334
292.366
292.397
292.427
292.457
292.485
292.513
292.54
292.566
292.591
292.615
292.638
292.662
292.684
292.706
292.728
292.75
292.772
292.794
292.815
292.837
292.859
292.881
292.903
292.925
292.947
292.969
292.991
293.013
293.034
293.055
293.075
293.095
293.114
293.133
293.15
293.167
293.183
293.198
293.213
293.226
293.239
293.252
293.264
293.275
293.286
293.297
293.308
293.318
293.329
293.339
293.351
293.36
293.373
293.381
293.397
293.402
293.423
283.148
283.149
283.149
283.147
283.145
283.142
283.14
283.138
283.137
283.136
283.134
283.132
283.13
283.129
283.129
283.131
283.133
283.136
283.138
283.141
283.143
283.144
283.147
283.149
283.151
283.153
283.153
283.153
283.152
283.15
283.148
283.146
283.144
283.143
283.141
283.14
283.138
283.137
283.136
283.137
283.138
283.14
283.142
283.146
283.149
283.153
283.156
283.16
283.165
283.169
283.174
283.178
283.182
283.186
283.19
283.193
283.196
283.199
283.203
283.206
283.21
283.214
283.219
283.224
283.229
283.235
283.242
283.249
283.258
283.267
283.277
283.288
283.299
283.311
283.323
283.336
283.349
283.363
283.377
283.391
283.405
283.419
283.433
283.446
283.46
283.473
283.487
283.501
283.515
283.529
283.543
283.558
283.573
283.589
283.605
283.622
283.639
283.658
283.677
283.697
283.717
283.738
283.76
283.782
283.805
283.827
283.851
283.874
283.898
283.921
283.945
283.968
283.991
284.014
284.037
284.06
284.083
284.106
284.129
284.152
284.175
284.199
284.223
284.247
284.272
284.298
284.324
284.351
284.379
284.407
284.436
284.465
284.494
284.524
284.555
284.585
284.616
284.647
284.678
284.709
284.739
284.77
284.8
284.83
284.86
284.89
284.92
284.95
284.979
285.009
285.039
285.069
285.1
285.131
285.162
285.194
285.226
285.259
285.292
285.326
285.36
285.395
285.43
285.465
285.501
285.537
285.573
285.608
285.644
285.68
285.715
285.75
285.785
285.82
285.854
285.888
285.922
285.956
285.99
286.023
286.057
286.09
286.124
286.158
286.193
286.227
286.262
286.298
286.334
286.37
286.406
286.443
286.48
286.517
286.554
286.591
286.629
286.666
286.703
286.739
286.776
286.812
286.847
286.882
286.917
286.952
286.986
287.019
287.053
287.086
287.119
287.152
287.184
287.217
287.25
287.283
287.316
287.349
287.383
287.417
287.451
287.485
287.519
287.553
287.587
287.621
287.655
287.689
287.722
287.755
287.788
287.82
287.851
287.882
287.913
287.943
287.972
288.001
288.03
288.058
288.086
288.113
288.14
288.167
288.194
288.221
288.247
288.274
288.301
288.328
288.355
288.381
288.408
288.435
288.462
288.489
288.515
288.542
288.568
288.593
288.618
288.643
288.667
288.69
288.713
288.735
288.757
288.778
288.799
288.819
288.838
288.857
288.876
288.894
288.913
288.931
288.948
288.966
288.984
289.002
289.019
289.037
289.054
289.072
289.09
289.107
289.125
289.142
289.159
289.175
289.192
289.208
289.223
289.238
289.253
289.266
289.28
289.292
289.305
289.316
289.328
289.338
289.349
289.359
289.368
289.378
289.387
289.396
289.405
289.414
289.423
289.432
289.441
289.451
289.459
289.47
289.476
289.489
289.493
289.51
283.148
283.149
283.149
283.148
283.146
283.144
283.142
283.141
283.14
283.139
283.138
283.138
283.137
283.138
283.14
283.142
283.144
283.147
283.149
283.151
283.152
283.154
283.155
283.156
283.156
283.156
283.155
283.153
283.152
283.15
283.149
283.148
283.147
283.146
283.145
283.144
283.144
283.144
283.144
283.145
283.146
283.147
283.149
283.15
283.151
283.153
283.154
283.155
283.156
283.157
283.158
283.158
283.159
283.159
283.159
283.159
283.159
283.159
283.16
283.161
283.161
283.163
283.164
283.166
283.168
283.171
283.174
283.177
283.181
283.185
283.189
283.194
283.199
283.204
283.209
283.214
283.22
283.225
283.231
283.236
283.242
283.247
283.253
283.258
283.264
283.27
283.276
283.282
283.289
283.296
283.303
283.31
283.318
283.326
283.335
283.344
283.354
283.364
283.374
283.385
283.396
283.407
283.419
283.431
283.442
283.455
283.467
283.479
283.491
283.503
283.516
283.528
283.54
283.553
283.565
283.578
283.591
283.604
283.617
283.63
283.644
283.659
283.673
283.688
283.704
283.719
283.736
283.752
283.769
283.786
283.804
283.821
283.839
283.857
283.875
283.893
283.912
283.93
283.948
283.966
283.985
284.003
284.021
284.039
284.058
284.076
284.095
284.114
284.132
284.152
284.171
284.191
284.211
284.231
284.252
284.273
284.294
284.316
284.338
284.36
284.383
284.405
284.428
284.451
284.474
284.496
284.519
284.542
284.565
284.588
284.61
284.633
284.655
284.678
284.7
284.723
284.745
284.768
284.79
284.813
284.836
284.859
284.883
284.907
284.931
284.955
284.979
285.004