/*--------------------------------*- C++ -*----------------------------------*\
  =========                 |
  \\      /  F ield         | OpenFOAM: The Open Source CFD Toolbox
   \\    /   O peration     | Website:  https://openfoam.org
    \\  /    A nd           | Version:  7
     \\/     M anipulation  |
\*---------------------------------------------------------------------------*/
FoamFile
{
    version     2.0;
    format      ascii;
    class       volScalarField;
    location    "0.145";
    object      k_0;
}
// * * * * * * * * * * * * * * * * * * * * * * * * * * * * * * * * * * * * * //

dimensions      [0 2 -2 0 0 0 0];

internalField   nonuniform List<scalar> 
1440
(
0.0246134
0.132826
0.338712
0.587681
0.836349
1.05498
1.2289
1.35579
1.43959
1.48774
1.50789
1.50515
1.49423
1.4712
1.44146
1.40874
1.37486
1.34113
1.30837
1.27713
1.24773
1.22031
1.19493
1.17156
1.15013
1.13053
1.11265
1.09636
1.08155
1.06808
1.05584
1.04472
1.03463
1.02548
1.01718
1.00967
1.00284
0.996658
0.991034
0.985947
0.981418
0.977413
0.973855
0.970669
0.967808
0.965244
0.962955
0.960922
0.959127
0.957552
0.956183
0.955007
0.954011
0.953185
0.952516
0.951998
0.951617
0.951372
0.951247
0.951265
0.951353
0.951551
0.951867
0.952277
0.952776
0.953362
0.95403
0.954777
0.955601
0.956497
0.957465
0.9585
0.959601
0.960766
0.961992
0.963278
0.964622
0.966022
0.967475
0.968981
0.970537
0.972142
0.973794
0.975492
0.977235
0.97902
0.980845
0.982709
0.98461
0.986546
0.988515
0.990517
0.992549
0.994613
0.996705
0.998825
1.00097
1.00313
1.00532
1.00751
1.00972
1.01192
1.01413
1.01632
1.01851
1.02067
1.02281
1.02492
1.02701
1.02906
1.03106
1.03307
1.03492
1.03697
1.03854
1.04077
1.04195
1.04445
1.04535
1.04834
0.00011053
0.00182226
0.00825334
0.022675
0.0515357
0.0906042
0.137796
0.185901
0.232164
0.273754
0.30943
0.338237
0.3608
0.378
0.389942
0.398298
0.402867
0.405696
0.405662
0.405005
0.403439
0.400971
0.398089
0.394969
0.391744
0.388508
0.385325
0.382239
0.379278
0.376453
0.373776
0.371239
0.368845
0.366577
0.364443
0.362425
0.360536
0.358745
0.35707
0.355465
0.35394
0.352489
0.351109
0.349795
0.348545
0.347355
0.346221
0.345142
0.344113
0.343132
0.342197
0.341305
0.340456
0.339648
0.338879
0.338148
0.337454
0.336797
0.336173
0.335585
0.33503
0.334506
0.334014
0.333553
0.333121
0.332719
0.332345
0.331998
0.331678
0.331383
0.331114
0.330869
0.330647
0.330447
0.33027
0.330114
0.32998
0.329865
0.32977
0.329696
0.329636
0.329601
0.329575
0.329576
0.329587
0.329612
0.329652
0.329713
0.329781
0.329872
0.329965
0.330084
0.330196
0.330339
0.330465
0.330634
0.330773
0.330973
0.331128
0.331371
0.331548
0.331849
0.332053
0.332427
0.332664
0.333122
0.333396
0.333945
0.334261
0.334903
0.335259
0.335998
0.336386
0.337231
0.337633
0.338596
0.33898
0.340078
0.34039
0.341663
2.01222e-05
2.70489e-05
7.57208e-05
0.000256796
0.000770842
0.00187711
0.00407735
0.00749478
0.0120375
0.0176577
0.0239897
0.03085
0.0378144
0.0447521
0.0513168
0.0574853
0.0630517
0.0680641
0.0724501
0.0762482
0.0795098
0.082265
0.084571
0.0864745
0.0880339
0.0892899
0.0902958
0.0910822
0.0916952
0.0921542
0.0924995
0.0927393
0.0929093
0.0930062
0.0930654
0.0930776
0.0930704
0.0930496
0.0930225
0.0929781
0.0929313
0.0928927
0.0928578
0.0928355
0.0928191
0.0928207
0.0928293
0.0928488
0.0928834
0.0929301
0.092989
0.0930595
0.0931411
0.0932336
0.0933356
0.0934476
0.0935672
0.0936959
0.0938302
0.0939727
0.0941187
0.0942723
0.0944271
0.0945888
0.0947496
0.094917
0.095081
0.0952516
0.0954165
0.0955882
0.095752
0.0959226
0.0960833
0.0962509
0.0964068
0.0965698
0.0967194
0.0968765
0.0970184
0.0971689
0.0973021
0.097445
0.0975688
0.0977035
0.0978174
0.0979437
0.0980471
0.0981649
0.0982577
0.0983669
0.0984491
0.09855
0.0986214
0.0987141
0.0987748
0.0988598
0.0989105
0.0989885
0.0990308
0.099103
0.0991393
0.0992078
0.0992411
0.0993083
0.0993417
0.0994108
0.0994461
0.0995211
0.0995597
0.0996448
0.099688
0.0997878
0.0998359
0.099955
0.100007
0.10015
0.100202
0.100375
0.100416
0.100604
2.00124e-05
2.00767e-05
2.03783e-05
2.17334e-05
2.66405e-05
4.06184e-05
7.49201e-05
0.000149081
0.000283514
0.000508378
0.000825323
0.00125518
0.00178885
0.002428
0.00315478
0.00395711
0.00481602
0.00571376
0.00663522
0.00756311
0.00848693
0.00939414
0.0102783
0.0111312
0.0119499
0.0127295
0.0134702
0.0141693
0.0148285
0.0154469
0.0160267
0.0165685
0.0170742
0.0175442
0.0179811
0.0183878
0.0187651
0.0191164
0.019442
0.0197455
0.0200263
0.0202904
0.0205341
0.0207651
0.0209769
0.0211801
0.0213649
0.0215449
0.021707
0.021868
0.0220113
0.0221567
0.0222846
0.0224173
0.0225326
0.022655
0.0227603
0.0228744
0.0229716
0.0230794
0.0231697
0.0232728
0.0233578
0.0234573
0.0235381
0.0236349
0.023712
0.0238069
0.0238812
0.0239748
0.0240468
0.0241395
0.0242094
0.0243014
0.0243696
0.0244612
0.0245279
0.0246194
0.0246844
0.0247757
0.0248393
0.0249307
0.0249929
0.0250845
0.0251453
0.025237
0.0252963
0.0253883
0.0254464
0.0255388
0.0255955
0.0256883
0.0257435
0.0258369
0.0258909
0.025985
0.0260379
0.0261331
0.026185
0.0262816
0.0263333
0.0264319
0.0264837
0.026585
0.0266376
0.026742
0.026796
0.0269041
0.0269601
0.0270724
0.0271304
0.0272476
0.0273078
0.0274301
0.0274923
0.0276202
0.0276837
0.0278172
0.0278802
0.0280423
2.00012e-05
2.00251e-05
2.00989e-05
2.02491e-05
2.05561e-05
2.09741e-05
2.16727e-05
2.28784e-05
2.52585e-05
2.93109e-05
3.6424e-05
4.73121e-05
6.35415e-05
8.54782e-05
0.000114622
0.000150827
0.000194927
0.000246364
0.000305492
0.000371506
0.000444366
0.00052303
0.000607301
0.00069623
0.000789643
0.000886643
0.000986574
0.00108931
0.00119352
0.00130048
0.00140731
0.00151676
0.00162424
0.00173444
0.00184162
0.00195204
0.00205782
0.00216767
0.00227024
0.0023794
0.00247814
0.00258762
0.00268218
0.00279017
0.00288032
0.00298587
0.00307295
0.00317611
0.00326007
0.00335992
0.00343972
0.00353651
0.00361319
0.00370744
0.00378112
0.00387195
0.00394185
0.00402929
0.00409611
0.0041813
0.00424536
0.00432763
0.00438822
0.00446742
0.00452497
0.0046019
0.00465717
0.00473205
0.00478445
0.0048564
0.00490569
0.00497539
0.0050227
0.005091
0.00513638
0.00520238
0.00524469
0.00530811
0.00534858
0.00541133
0.00545062
0.00551156
0.00554809
0.00560681
0.00564161
0.00569965
0.00573364
0.00579077
0.00582286
0.00587811
0.00590847
0.00596324
0.00599326
0.00604763
0.00607619
0.00612934
0.006157
0.00621027
0.00623778
0.00629087
0.00631763
0.00637053
0.00639729
0.00645083
0.00647799
0.0065323
0.00655989
0.00661509
0.00664322
0.00669957
0.00672843
0.0067863
0.00681607
0.00687581
0.00690656
0.0069682
0.00699985
0.00706321
0.0070956
0.00717606
1.99892e-05
2.00015e-05
2.00524e-05
2.01638e-05
2.04047e-05
2.06746e-05
2.10706e-05
2.15077e-05
2.21057e-05
2.26205e-05
2.33147e-05
2.40143e-05
2.48004e-05
2.56349e-05
2.67066e-05
2.78802e-05
2.91918e-05
3.07734e-05
3.25957e-05
3.47493e-05
3.72727e-05
4.00641e-05
4.32299e-05
4.66844e-05
5.07862e-05
5.52014e-05
6.00476e-05
6.53934e-05
7.06098e-05
7.71195e-05
8.31531e-05
9.11657e-05
9.73572e-05
0.00010605
0.00011261
0.000122983
0.00012998
0.000141822
0.000148115
0.000160944
0.00016784
0.000181841
0.000189355
0.00020408
0.000211631
0.00022676
0.000234681
0.000250701
0.000259307
0.00027619
0.000284826
0.000301717
0.000310427
0.000327944
0.000337579
0.000356041
0.000365569
0.00038362
0.000392923
0.000411638
0.000422124
0.000441722
0.00045192
0.00047084
0.000480622
0.000499979
0.000510984
0.000531469
0.000542537
0.000562059
0.000572083
0.000591568
0.000602758
0.000623795
0.000635623
0.000655838
0.00066606
0.000685397
0.000696363
0.000717581
0.000729935
0.000750858
0.000761444
0.000780704
0.000791132
0.000812171
0.000824561
0.000846167
0.000857333
0.000877117
0.000887296
0.000907818
0.000919815
0.000941874
0.000953403
0.000974163
0.000984584
0.00100527
0.00101662
0.00103921
0.00105106
0.00107318
0.00108426
0.00110606
0.00111729
0.00114009
0.00115246
0.0011766
0.00118883
0.00121273
0.00122484
0.00124902
0.00126159
0.00128716
0.00130094
0.00132764
0.00134121
0.00136779
0.00138137
0.00141576
1.99862e-05
1.99966e-05
2.00446e-05
2.01565e-05
2.03684e-05
2.07195e-05
2.102e-05
2.15358e-05
2.21149e-05
2.26758e-05
2.32246e-05
2.39844e-05
2.46503e-05
2.53054e-05
2.60137e-05
2.68838e-05
2.75949e-05
2.84086e-05
2.91036e-05
2.99252e-05
3.07262e-05
3.16445e-05
3.23218e-05
3.29604e-05
3.36302e-05
3.43844e-05
3.50771e-05
3.5834e-05
3.62246e-05
3.69865e-05
3.7532e-05
3.86294e-05
3.92336e-05
4.0232e-05
4.07569e-05
4.18143e-05
4.24694e-05
4.38347e-05
4.45592e-05
4.59007e-05
4.65883e-05
4.79622e-05
4.87395e-05
5.03882e-05
5.13253e-05
5.30207e-05
5.38765e-05
5.5565e-05
5.6495e-05
5.84672e-05
5.95947e-05
6.16746e-05
6.2717e-05
6.47865e-05
6.58798e-05
6.81428e-05
6.94028e-05
7.18976e-05
7.31511e-05
7.56526e-05
7.69392e-05
7.95486e-05
8.09327e-05
8.37618e-05
8.52294e-05
8.8171e-05
8.96673e-05
9.26787e-05
9.42416e-05
9.74109e-05
9.90587e-05
0.000102388
0.000104096
0.000107528
0.000109287
0.000112834
0.000114666
0.000118367
0.000120272
0.000124107
0.00012607
0.000130018
0.00013206
0.000136102
0.000138178
0.000142376
0.000144686
0.000149032
0.000151232
0.000155514
0.000157876
0.000162628
0.00016527
0.000169952
0.000172325
0.000176863
0.00017944
0.000184686
0.000187821
0.000193166
0.000195945
0.000200847
0.000203447
0.000208712
0.000212157
0.000218431
0.000221996
0.000227873
0.000230842
0.000236382
0.00023948
0.000245961
0.000250156
0.000257396
0.00026129
0.000267917
0.000271252
0.000277903
0.000281589
0.000291567
1.9993e-05
2.00073e-05
2.00627e-05
2.01879e-05
2.04117e-05
2.08476e-05
2.13301e-05
2.21692e-05
2.37463e-05
2.63974e-05
3.03753e-05
3.73279e-05
4.66149e-05
5.89449e-05
7.48639e-05
9.48387e-05
0.000117001
0.000142775
0.000170303
0.000200191
0.000230837
0.00026366
0.000295333
0.000327962
0.0003598
0.000391979
0.000422272
0.000453503
0.000481435
0.000511186
0.000537311
0.000565876
0.000589655
0.000617365
0.000639635
0.000666165
0.000687687
0.000713364
0.000734452
0.000759737
0.000779551
0.000804642
0.000824004
0.000849843
0.000869243
0.00089428
0.000912868
0.000937962
0.000956984
0.000983099
0.00100192
0.00102738
0.0010458
0.00107172
0.00109044
0.00111709
0.00113564
0.00116218
0.00118082
0.00120749
0.00122612
0.00125335
0.00127211
0.00129983
0.00131848
0.00134633
0.00136498
0.00139298
0.00141197
0.00144065
0.00145991
0.00148926
0.00150802
0.00153712
0.00155606
0.00158588
0.00160592
0.00163679
0.00165625
0.00168648
0.00170524
0.0017364
0.00175663
0.00178928
0.00180966
0.00184162
0.00186101
0.00189372
0.00191501
0.00195062
0.0019733
0.00200868
0.00202969
0.00206442
0.00208613
0.00212372
0.00214807
0.00218692
0.00220996
0.00224708
0.00226864
0.00230674
0.00233069
0.00237151
0.00239609
0.00243572
0.00245757
0.00249575
0.00251754
0.00255782
0.00258125
0.00262218
0.00264432
0.00268324
0.00270343
0.00274198
0.00276222
0.00280293
0.00282325
0.00287312
2.00035e-05
2.00368e-05
2.02093e-05
2.10056e-05
2.40264e-05
3.3093e-05
5.60459e-05
0.00010578
0.000202283
0.000363658
0.00059699
0.000911666
0.0013033
0.00176832
0.00229277
0.0028648
0.00346728
0.00408781
0.00471162
0.00532929
0.00593034
0.0065098
0.007061
0.00758334
0.00807337
0.00853326
0.00896085
0.00936093
0.00973119
0.0100786
0.0104
0.0107042
0.0109857
0.0112556
0.0115063
0.0117494
0.0119769
0.012201
0.0124118
0.0126229
0.012822
0.0130245
0.0132156
0.0134139
0.0136004
0.0137965
0.0139817
0.0141778
0.0143637
0.0145626
0.0147504
0.0149532
0.0151444
0.0153525
0.0155479
0.0157622
0.0159633
0.0161839
0.0163911
0.0166196
0.0168326
0.0170691
0.0172892
0.0175336
0.0177608
0.018014
0.0182478
0.01851
0.0187515
0.0190221
0.0192707
0.0195509
0.0198061
0.0200951
0.0203579
0.0206555
0.0209245
0.0212318
0.0215067
0.0218222
0.0221038
0.0224275
0.0227136
0.0230462
0.0233366
0.0236759
0.0239705
0.0243164
0.0246125
0.0249655
0.0252633
0.0256202
0.0259186
0.0262806
0.0265763
0.0269425
0.0272366
0.0276039
0.0278932
0.028263
0.0285445
0.0289143
0.0291899
0.0295583
0.0298224
0.0301912
0.0304432
0.0308079
0.0310494
0.0314136
0.0316387
0.0320027
0.0322188
0.0325872
0.0327941
0.033167
0.0333643
0.0337401
0.0339275
0.034388
2.00625e-05
2.3928e-05
5.46201e-05
0.000180773
0.00056097
0.0014255
0.00316211
0.00601603
0.00988387
0.0147386
0.0202698
0.026251
0.0323814
0.0384568
0.0442551
0.0496794
0.0546179
0.0590643
0.062989
0.0664319
0.069416
0.0719856
0.0741969
0.0760903
0.0777184
0.0791195
0.0803391
0.0814078
0.0823618
0.0832247
0.084023
0.0847756
0.0854995
0.0862077
0.0869128
0.0876227
0.0883468
0.089089
0.0898567
0.0906514
0.0914748
0.0923285
0.093213
0.0941288
0.0950753
0.0960526
0.0970591
0.0980947
0.0991573
0.100246
0.10136
0.102497
0.103655
0.104833
0.10603
0.107244
0.108472
0.109715
0.11097
0.112236
0.11351
0.114793
0.116082
0.117377
0.118675
0.119977
0.121279
0.122584
0.123885
0.125188
0.126486
0.127784
0.129073
0.130362
0.13164
0.132917
0.13418
0.135442
0.136688
0.137933
0.139159
0.140384
0.141587
0.142791
0.143969
0.14515
0.146302
0.147457
0.148579
0.149707
0.150797
0.151897
0.152952
0.154022
0.15504
0.156079
0.157059
0.158066
0.159003
0.159979
0.160871
0.161815
0.16266
0.163573
0.16437
0.165253
0.166
0.166859
0.167551
0.16839
0.169034
0.169858
0.170437
0.171242
0.171754
0.172553
0.173004
0.173803
0.174198
0.175145
7.96897e-05
0.00132969
0.0065115
0.0189266
0.0440622
0.080725
0.124331
0.170922
0.215582
0.25646
0.290821
0.319304
0.341803
0.358931
0.371421
0.380309
0.386199
0.390055
0.392127
0.393306
0.393417
0.393247
0.392831
0.392193
0.391541
0.390908
0.390385
0.389937
0.38965
0.389435
0.389404
0.389449
0.38957
0.389799
0.390105
0.390474
0.390898
0.391365
0.39187
0.392401
0.392949
0.393508
0.394071
0.394633
0.395187
0.395732
0.396264
0.39678
0.397279
0.39776
0.39822
0.39866
0.399079
0.399478
0.399855
0.400212
0.400547
0.400863
0.40116
0.401437
0.401696
0.401937
0.402161
0.402369
0.402562
0.402739
0.402902
0.403052
0.403189
0.403314
0.403428
0.403531
0.403624
0.403707
0.403781
0.403848
0.403906
0.403957
0.404
0.404038
0.40407
0.404097
0.404117
0.404135
0.404147
0.404157
0.404162
0.404165
0.404164
0.404162
0.404158
0.404152
0.404145
0.404138
0.40413
0.404123
0.404116
0.404113
0.404111
0.404112
0.404116
0.404127
0.40414
0.40417
0.404193
0.404244
0.404282
0.404362
0.404419
0.404537
0.404612
0.404763
0.404856
0.405044
0.405159
0.405396
0.405535
0.405824
0.405978
0.406368
0.024406
0.131705
0.336552
0.581304
0.82131
1.0266
1.18343
1.2904
1.35306
1.38023
1.37688
1.3629
1.33326
1.29501
1.25325
1.21044
1.16823
1.1277
1.08947
1.05389
1.02108
0.991048
0.96369
0.938849
0.916345
0.895976
0.877545
0.860852
0.845716
0.831962
0.81943
0.807983
0.797478
0.787812
0.77887
0.770561
0.762812
0.75556
0.748741
0.742299
0.736189
0.730378
0.724839
0.719546
0.714478
0.709614
0.704937
0.700433
0.696089
0.691894
0.687837
0.683911
0.680108
0.676422
0.672848
0.669381
0.666017
0.662751
0.659581
0.656503
0.653515
0.650613
0.647796
0.645061
0.642405
0.639828
0.637326
0.634898
0.632542
0.630256
0.628038
0.625887
0.623801
0.621778
0.619818
0.617918
0.616077
0.614295
0.61257
0.6109
0.609285
0.607725
0.606218
0.604763
0.60336
0.602008
0.600705
0.599453
0.59825
0.597097
0.595995
0.594943
0.59394
0.592989
0.592088
0.591239
0.590441
0.589695
0.589
0.588359
0.587768
0.587233
0.586748
0.586319
0.585937
0.585615
0.585334
0.585114
0.584929
0.58481
0.584719
0.584694
0.584688
0.584748
0.58481
0.584984
0.585083
0.585363
0.58549
0.585927
)
;

boundaryField
{
    upperWall
    {
        type            fixedValue;
        value           uniform 0;
    }
    lowerWall
    {
        type            fixedValue;
        value           uniform 0;
    }
    inlet
    {
        type            fixedValue;
        value           uniform 2e-05;
    }
    outlet
    {
        type            inletOutlet;
        inletValue      uniform 0;
        value           nonuniform List<scalar> 
12
(
1.04834
0.341663
0.100604
0.0280423
0.00717606
0.00141576
0.000291567
0.00287312
0.034388
0.175145
0.406368
0.585927
)
;
    }
    frontAndBack
    {
        type            empty;
    }
}


// ************************************************************************* //
