/*--------------------------------*- C++ -*----------------------------------*\
  =========                 |
  \\      /  F ield         | OpenFOAM: The Open Source CFD Toolbox
   \\    /   O peration     | Website:  https://openfoam.org
    \\  /    A nd           | Version:  7
     \\/     M anipulation  |
\*---------------------------------------------------------------------------*/
FoamFile
{
    version     2.0;
    format      ascii;
    class       volVectorField;
    location    "2.75";
    object      U;
}
// * * * * * * * * * * * * * * * * * * * * * * * * * * * * * * * * * * * * * //

dimensions      [0 1 -1 0 0 0 0];

internalField   nonuniform List<vector> 
600
(
(2.69063 0.189925 0)
(1.78898 0.0334646 0)
(1.31648 -0.00106914 0)
(1.28911 -0.00267518 0)
(1.23964 4.7047e-05 0)
(1.20327 -0.000285257 0)
(1.17602 0.000106085 0)
(1.1629 -0.000132915 0)
(1.14249 3.67738e-06 0)
(1.15459 0.00279695 0)
(4.25703 0.400783 0)
(4.01978 0.17217 0)
(3.42946 0.0589306 0)
(3.27079 0.0149499 0)
(3.16163 0.0111084 0)
(3.08284 0.00785143 0)
(3.01889 0.00599166 0)
(2.98885 0.00446878 0)
(2.93732 0.00343226 0)
(2.95223 0.00106073 0)
(4.69402 0.317053 0)
(5.18855 0.183976 0)
(4.8799 0.0921792 0)
(4.73186 0.0382738 0)
(4.61222 0.025337 0)
(4.52327 0.0184531 0)
(4.44626 0.0131677 0)
(4.41343 0.0116769 0)
(4.34753 0.0073089 0)
(4.36771 0.0102134 0)
(4.70075 0.236588 0)
(5.56088 0.163913 0)
(5.62703 0.10426 0)
(5.66376 0.0575888 0)
(5.63938 0.0404314 0)
(5.60253 0.030696 0)
(5.55074 0.0210596 0)
(5.54032 0.0188173 0)
(5.47961 0.0121342 0)
(5.51604 0.0137878 0)
(4.6712 0.134853 0)
(5.55545 0.0898113 0)
(5.79658 0.0616196 0)
(6.0113 0.0397929 0)
(6.13903 0.0333336 0)
(6.22421 0.0293167 0)
(6.25483 0.0224309 0)
(6.31139 0.0213337 0)
(6.28949 0.0144461 0)
(6.36305 0.0188966 0)
(4.66874 0.0446455 0)
(5.53087 0.0319493 0)
(5.78237 0.022829 0)
(6.03998 0.0144856 0)
(6.22937 0.0127579 0)
(6.40006 0.0119277 0)
(6.50983 0.0104009 0)
(6.65249 0.0114758 0)
(6.69582 0.00954551 0)
(6.83098 0.0131675 0)
(4.66844 -0.0468818 0)
(5.5311 -0.0349917 0)
(5.7819 -0.0257778 0)
(6.04056 -0.0178514 0)
(6.22866 -0.0149754 0)
(6.4012 -0.0125477 0)
(6.50875 -0.0106545 0)
(6.65454 -0.00717563 0)
(6.69484 -0.00522572 0)
(6.83501 0.00140762 0)
(4.67056 -0.136942 0)
(5.55602 -0.092557 0)
(5.79544 -0.0644843 0)
(6.01285 -0.0425288 0)
(6.13734 -0.0359795 0)
(6.22735 -0.0294301 0)
(6.25242 -0.0232441 0)
(6.31697 -0.0167938 0)
(6.2877 -0.0108685 0)
(6.37375 -0.00516326 0)
(4.70028 -0.238388 0)
(5.56129 -0.166172 0)
(5.62625 -0.106819 0)
(5.66555 -0.0596485 0)
(5.63789 -0.0429863 0)
(5.60644 -0.0306949 0)
(5.5482 -0.0220021 0)
(5.54777 -0.0148577 0)
(5.47772 -0.00945841 0)
(5.53022 -0.00243455 0)
(4.69374 -0.318396 0)
(5.18888 -0.185649 0)
(4.87944 -0.0941317 0)
(4.7335 -0.0399489 0)
(4.61138 -0.0271494 0)
(4.52673 -0.0187195 0)
(4.44468 -0.0136476 0)
(4.42054 -0.00904633 0)
(4.34658 -0.00520441 0)
(4.38188 -0.00213776 0)
(4.25686 -0.401631 0)
(4.01995 -0.173196 0)
(3.42924 -0.0601141 0)
(3.27195 -0.0160869 0)
(3.1615 -0.012116 0)
(3.08515 -0.00828294 0)
(3.01876 -0.0060157 0)
(2.99381 -0.00343313 0)
(2.93796 -0.00181592 0)
(2.96266 0.00260712 0)
(2.69051 -0.190251 0)
(1.78885 -0.0338259 0)
(1.31639 0.000659711 0)
(1.28964 0.00226828 0)
(1.23999 -0.000366753 0)
(1.20443 7.15318e-05 0)
(1.17687 -5.80586e-05 0)
(1.16525 0.000289771 0)
(1.14432 0.000582476 0)
(1.15867 -0.00181092 0)
(1.12666 0.00193904 0)
(1.20571 0.00126194 0)
(1.19249 0.00104096 0)
(1.20863 0.00107335 0)
(1.21082 0.000819597 0)
(1.21386 0.000595241 0)
(1.21652 0.00040669 0)
(1.21885 0.000259811 0)
(1.22103 0.000158984 0)
(1.22307 9.47353e-05 0)
(1.22498 5.34484e-05 0)
(1.22676 2.64807e-05 0)
(1.22842 1.33998e-05 0)
(1.22998 9.8564e-06 0)
(1.23143 1.06105e-05 0)
(1.2328 1.08516e-05 0)
(1.23407 9.75739e-06 0)
(1.23526 9.16141e-06 0)
(1.23637 6.67623e-06 0)
(1.23741 4.88735e-06 0)
(1.23838 2.71836e-06 0)
(1.23929 2.00762e-06 0)
(1.24013 4.55149e-06 0)
(1.24092 1.00697e-05 0)
(1.24165 1.63482e-05 0)
(1.24233 2.13102e-05 0)
(1.24297 2.32816e-05 0)
(1.24356 2.29204e-05 0)
(1.24412 2.2752e-05 0)
(1.24466 2.43004e-05 0)
(1.24517 2.75415e-05 0)
(1.24569 3.13699e-05 0)
(1.24618 3.62209e-05 0)
(1.24669 4.13632e-05 0)
(1.24716 4.9626e-05 0)
(1.24771 5.59355e-05 0)
(1.24812 6.23668e-05 0)
(1.24877 5.82358e-05 0)
(1.24904 5.96674e-05 0)
(1.24992 4.79128e-05 0)
(2.8606 -0.000619937 0)
(3.021 0.00265097 0)
(2.99997 0.00286368 0)
(3.03141 0.00294902 0)
(3.03846 0.00240955 0)
(3.04578 0.00174508 0)
(3.05253 0.00119063 0)
(3.0585 0.000767028 0)
(3.06408 0.000467918 0)
(3.06928 0.000278076 0)
(3.07412 0.000157258 0)
(3.07865 8.05636e-05 0)
(3.08287 4.12863e-05 0)
(3.08681 3.16972e-05 0)
(3.09049 3.33037e-05 0)
(3.09393 3.24821e-05 0)
(3.09715 3.00093e-05 0)
(3.10015 2.66653e-05 0)
(3.10296 1.9199e-05 0)
(3.10558 1.37471e-05 0)
(3.10804 6.7257e-06 0)
(3.11033 4.25738e-06 0)
(3.11247 9.6214e-06 0)
(3.11446 2.35281e-05 0)
(3.11631 3.92643e-05 0)
(3.11804 5.06296e-05 0)
(3.11964 5.29062e-05 0)
(3.12114 4.83875e-05 0)
(3.12256 4.46279e-05 0)
(3.12393 4.64541e-05 0)
(3.12523 5.37201e-05 0)
(3.12654 6.35297e-05 0)
(3.12778 7.63836e-05 0)
(3.12909 9.11064e-05 0)
(3.13027 0.000114069 0)
(3.13167 0.00013333 0)
(3.13269 0.000150243 0)
(3.13434 0.000140426 0)
(3.13499 0.000140323 0)
(3.13725 0.000110741 0)
(4.19825 0.00204566 0)
(4.38257 0.00413643 0)
(4.35789 0.00433557 0)
(4.39461 0.00468455 0)
(4.40545 0.003887 0)
(4.41576 0.00282499 0)
(4.42546 0.00194331 0)
(4.43415 0.00126351 0)
(4.44224 0.000783734 0)
(4.44978 0.000477743 0)
(4.45682 0.000282658 0)
(4.46338 0.000157638 0)
(4.4695 9.45682e-05 0)
(4.47521 7.76202e-05 0)
(4.48055 7.78792e-05 0)
(4.48553 7.48814e-05 0)
(4.49019 6.73092e-05 0)
(4.49454 6.04385e-05 0)
(4.49861 4.69179e-05 0)
(4.50241 3.70223e-05 0)
(4.50597 2.45711e-05 0)
(4.5093 1.90267e-05 0)
(4.5124 2.57559e-05 0)
(4.5153 4.48216e-05 0)
(4.51799 6.62155e-05 0)
(4.5205 8.0265e-05 0)
(4.52284 7.95913e-05 0)
(4.52504 6.82389e-05 0)
(4.52712 5.83873e-05 0)
(4.52911 5.81531e-05 0)
(4.53102 6.72373e-05 0)
(4.53293 8.13088e-05 0)
(4.53474 0.000100367 0)
(4.53666 0.000123387 0)
(4.53836 0.00015876 0)
(4.5404 0.000190016 0)
(4.54189 0.000215039 0)
(4.54427 0.000201848 0)
(4.54521 0.000197499 0)
(4.54851 0.000154524 0)
(5.31829 0.0031604 0)
(5.49416 0.00535425 0)
(5.46069 0.00559968 0)
(5.4951 0.00611036 0)
(5.50808 0.00511409 0)
(5.52042 0.00372707 0)
(5.5323 0.00257296 0)
(5.54308 0.00167956 0)
(5.55311 0.00105051 0)
(5.56246 0.000648797 0)
(5.57118 0.000393706 0)
(5.57931 0.000227336 0)
(5.58689 0.000144723 0)
(5.59397 0.000121046 0)
(5.60059 0.0001197 0)
(5.60676 0.00011464 0)
(5.61253 0.000102335 0)
(5.61792 9.2634e-05 0)
(5.62296 7.44105e-05 0)
(5.62768 6.02579e-05 0)
(5.63209 4.2356e-05 0)
(5.63622 3.36686e-05 0)
(5.64008 4.0708e-05 0)
(5.64368 6.30288e-05 0)
(5.64704 8.77193e-05 0)
(5.65018 0.000102467 0)
(5.65311 9.77135e-05 0)
(5.65588 7.90945e-05 0)
(5.65849 6.26673e-05 0)
(5.66101 5.94289e-05 0)
(5.66341 6.87043e-05 0)
(5.66581 8.55622e-05 0)
(5.66809 0.000108805 0)
(5.67049 0.00013876 0)
(5.67263 0.000183217 0)
(5.67518 0.000225465 0)
(5.67704 0.000254837 0)
(5.68003 0.000242533 0)
(5.68117 0.000228602 0)
(5.68534 0.000180426 0)
(6.21365 0.00613267 0)
(6.36142 0.00680662 0)
(6.30592 0.00665259 0)
(6.33058 0.00726713 0)
(6.34311 0.00602075 0)
(6.35628 0.00440339 0)
(6.36943 0.00304345 0)
(6.3815 0.00200094 0)
(6.39276 0.00126191 0)
(6.40326 0.000790093 0)
(6.41305 0.000489517 0)
(6.42218 0.000295532 0)
(6.43071 0.000196747 0)
(6.43866 0.000167373 0)
(6.44609 0.000163781 0)
(6.45303 0.00015522 0)
(6.45951 0.000140217 0)
(6.46557 0.000126293 0)
(6.47124 0.000103952 0)
(6.47654 8.55621e-05 0)
(6.48151 6.30919e-05 0)
(6.48616 5.19591e-05 0)
(6.49051 5.74393e-05 0)
(6.49459 8.06325e-05 0)
(6.4984 0.000106088 0)
(6.50198 0.000119429 0)
(6.50534 0.000109641 0)
(6.50851 8.37657e-05 0)
(6.51152 6.07607e-05 0)
(6.51443 5.3739e-05 0)
(6.51721 6.15748e-05 0)
(6.51998 7.91352e-05 0)
(6.52261 0.00010431 0)
(6.52538 0.000138647 0)
(6.52785 0.000189033 0)
(6.53078 0.000239783 0)
(6.53293 0.000271586 0)
(6.53637 0.000261408 0)
(6.53767 0.000237733 0)
(6.54248 0.000187176 0)
(6.7913 0.00544211 0)
(6.89235 0.00894932 0)
(6.80263 0.0079173 0)
(6.81373 0.0081659 0)
(6.82342 0.00654796 0)
(6.83598 0.00477896 0)
(6.84914 0.00330539 0)
(6.86139 0.00218011 0)
(6.87284 0.00138466 0)
(6.88354 0.000875812 0)
(6.89352 0.00055051 0)
(6.90283 0.000341428 0)
(6.91153 0.000234184 0)
(6.91964 0.00020083 0)
(6.92722 0.000195386 0)
(6.9343 0.000184544 0)
(6.94092 0.000166828 0)
(6.94711 0.000150108 0)
(6.95291 0.000124887 0)
(6.95833 0.00010437 0)
(6.96341 7.91741e-05 0)
(6.96818 6.54622e-05 0)
(6.97265 6.96462e-05 0)
(6.97685 9.20943e-05 0)
(6.98081 0.000116265 0)
(6.98454 0.000126935 0)
(6.98806 0.000112429 0)
(6.99142 8.09241e-05 0)
(6.99462 5.26481e-05 0)
(6.99773 4.18992e-05 0)
(7.00071 4.72835e-05 0)
(7.00368 6.40179e-05 0)
(7.00652 8.93887e-05 0)
(7.00949 0.000125591 0)
(7.01216 0.000178553 0)
(7.0153 0.000233974 0)
(7.01762 0.000266001 0)
(7.02132 0.00025889 0)
(7.02269 0.000227382 0)
(7.02788 0.000177199 0)
(6.78998 0.00288089 0)
(6.89128 0.0115508 0)
(6.79662 0.00924536 0)
(6.8057 0.00869011 0)
(6.81357 0.00664407 0)
(6.82467 0.00482371 0)
(6.8366 0.00333246 0)
(6.84777 0.00220224 0)
(6.85825 0.00140482 0)
(6.86805 0.000895687 0)
(6.87721 0.00056894 0)
(6.88577 0.000358085 0)
(6.89375 0.00024842 0)
(6.90121 0.000214162 0)
(6.90819 0.000207555 0)
(6.9147 0.00019523 0)
(6.9208 0.000178133 0)
(6.9265 0.00016084 0)
(6.93184 0.000134933 0)
(6.93685 0.000113668 0)
(6.94155 8.74167e-05 0)
(6.94596 7.14786e-05 0)
(6.95012 7.35792e-05 0)
(6.95404 9.37896e-05 0)
(6.95776 0.000115467 0)
(6.96129 0.000123218 0)
(6.96467 0.000105485 0)
(6.96791 7.07211e-05 0)
(6.97103 3.92203e-05 0)
(6.97409 2.56609e-05 0)
(6.97703 2.84222e-05 0)
(6.97999 4.35102e-05 0)
(6.98281 6.76403e-05 0)
(6.98578 0.000103307 0)
(6.98845 0.000155344 0)
(6.99159 0.000211187 0)
(6.99391 0.00024143 0)
(6.99762 0.000237544 0)
(6.99899 0.000201249 0)
(7.00418 0.000154484 0)
(6.21073 0.00168633 0)
(6.35755 0.0120241 0)
(6.29028 0.00939994 0)
(6.31001 0.00839372 0)
(6.31809 0.00622443 0)
(6.32772 0.00450717 0)
(6.33787 0.00310795 0)
(6.3473 0.0020543 0)
(6.35617 0.00131188 0)
(6.36448 0.000837825 0)
(6.37226 0.000532354 0)
(6.37953 0.000335075 0)
(6.38632 0.00023236 0)
(6.39266 0.000200506 0)
(6.3986 0.000194156 0)
(6.40414 0.000182276 0)
(6.40934 0.000166805 0)
(6.4142 0.000150997 0)
(6.41876 0.000126706 0)
(6.42304 0.000106673 0)
(6.42706 8.15535e-05 0)
(6.43085 6.58978e-05 0)
(6.43442 6.69428e-05 0)
(6.43782 8.45113e-05 0)
(6.44105 0.000103087 0)
(6.44414 0.000108266 0)
(6.44712 8.93776e-05 0)
(6.45002 5.43338e-05 0)
(6.45283 2.25258e-05 0)
(6.45561 7.84351e-06 0)
(6.45831 8.49472e-06 0)
(6.46103 2.127e-05 0)
(6.46364 4.27489e-05 0)
(6.4664 7.57468e-05 0)
(6.46887 0.000123227 0)
(6.4718 0.000176358 0)
(6.47395 0.00020237 0)
(6.4774 0.000202444 0)
(6.4787 0.000162655 0)
(6.48352 0.000123693 0)
(5.31379 0.00387862 0)
(5.48636 0.0104017 0)
(5.43914 0.00819724 0)
(5.46756 0.00723755 0)
(5.47507 0.00532154 0)
(5.48309 0.00385585 0)
(5.49131 0.00265187 0)
(5.49882 0.00174987 0)
(5.50591 0.00111408 0)
(5.51255 0.000707598 0)
(5.51876 0.000446536 0)
(5.52457 0.00027748 0)
(5.53 0.000190526 0)
(5.53508 0.00016396 0)
(5.53982 0.000159102 0)
(5.54427 0.000149292 0)
(5.54843 0.000136558 0)
(5.55233 0.000123608 0)
(5.55599 0.000103072 0)
(5.55943 8.63659e-05 0)
(5.56266 6.47448e-05 0)
(5.56571 5.13245e-05 0)
(5.5686 5.19647e-05 0)
(5.57136 6.64061e-05 0)
(5.57399 8.13429e-05 0)
(5.57653 8.45097e-05 0)
(5.57899 6.6809e-05 0)
(5.58141 3.53651e-05 0)
(5.58377 6.38982e-06 0)
(5.58613 -7.43675e-06 0)
(5.58843 -8.00486e-06 0)
(5.59078 2.49483e-06 0)
(5.59302 2.0137e-05 0)
(5.59541 4.85095e-05 0)
(5.59755 8.84713e-05 0)
(5.6001 0.000135148 0)
(5.60196 0.000155346 0)
(5.60495 0.000158908 0)
(5.6061 0.0001193 0)
(5.61027 9.06754e-05 0)
(4.1917 0.00387826 0)
(4.37113 0.00751789 0)
(4.33404 0.0062656 0)
(4.36505 0.00544037 0)
(4.37067 0.00403641 0)
(4.37685 0.00292776 0)
(4.38301 0.00200568 0)
(4.38854 0.00131769 0)
(4.39377 0.000831964 0)
(4.39867 0.000521948 0)
(4.40324 0.000322707 0)
(4.40753 0.000193844 0)
(4.41153 0.000128976 0)
(4.41528 0.000109931 0)
(4.41878 0.000107312 0)
(4.42206 0.000100644 0)
(4.42513 9.19767e-05 0)
(4.42802 8.28334e-05 0)
(4.43072 6.80738e-05 0)
(4.43327 5.59943e-05 0)
(4.43567 3.99225e-05 0)
(4.43794 3.00205e-05 0)
(4.44009 3.06549e-05 0)
(4.44215 4.17068e-05 0)
(4.44413 5.28172e-05 0)
(4.44605 5.47718e-05 0)
(4.44793 4.05249e-05 0)
(4.44978 1.57085e-05 0)
(4.45162 -7.27128e-06 0)
(4.45346 -1.84316e-05 0)
(4.45527 -1.95452e-05 0)
(4.45712 -1.16086e-05 0)
(4.4589 1.35964e-06 0)
(4.4608 2.34833e-05 0)
(4.4625 5.32414e-05 0)
(4.46454 9.04559e-05 0)
(4.46602 0.000103709 0)
(4.46841 0.000110073 0)
(4.46934 7.35058e-05 0)
(4.47266 5.74422e-05 0)
(2.85287 0.00466489 0)
(3.00841 0.00422751 0)
(2.97846 0.00381937 0)
(3.00541 0.00330594 0)
(3.00842 0.00249457 0)
(3.01255 0.00181067 0)
(3.01653 0.0012339 0)
(3.02003 0.000803662 0)
(3.02335 0.000500878 0)
(3.02646 0.00030771 0)
(3.02936 0.000184076 0)
(3.03206 0.00010426 0)
(3.0346 6.53269e-05 0)
(3.03697 5.46065e-05 0)
(3.03918 5.40247e-05 0)
(3.04126 5.05636e-05 0)
(3.0432 4.6147e-05 0)
(3.04503 4.13569e-05 0)
(3.04675 3.26615e-05 0)
(3.04836 2.58727e-05 0)
(3.04989 1.63584e-05 0)
(3.05134 1.06796e-05 0)
(3.05272 1.15031e-05 0)
(3.05404 1.8637e-05 0)
(3.05532 2.57975e-05 0)
(3.05656 2.69842e-05 0)
(3.05779 1.79661e-05 0)
(3.05902 2.19586e-06 0)
(3.06024 -1.22016e-05 0)
(3.06148 -1.91939e-05 0)
(3.06271 -1.97152e-05 0)
(3.06397 -1.47441e-05 0)
(3.06518 -6.93863e-06 0)
(3.06649 7.2232e-06 0)
(3.06766 2.57104e-05 0)
(3.06906 4.9539e-05 0)
(3.07008 5.71367e-05 0)
(3.07172 6.23021e-05 0)
(3.07237 3.70239e-05 0)
(3.07464 2.94034e-05 0)
(1.12079 -0.000506107 0)
(1.19715 0.000886091 0)
(1.18019 0.00125563 0)
(1.19408 0.00101586 0)
(1.19439 0.000823368 0)
(1.19596 0.000589647 0)
(1.19738 0.000396235 0)
(1.19858 0.000252305 0)
(1.19973 0.000150495 0)
(1.20079 8.60277e-05 0)
(1.20178 4.52771e-05 0)
(1.2027 1.93606e-05 0)
(1.20356 7.35487e-06 0)
(1.20436 4.81473e-06 0)
(1.20511 5.59379e-06 0)
(1.20581 5.16283e-06 0)
(1.20646 4.6225e-06 0)
(1.20708 3.71646e-06 0)
(1.20766 1.3301e-06 0)
(1.20821 -3.17721e-07 0)
(1.20874 -2.92252e-06 0)
(1.20923 -4.34261e-06 0)
(1.20971 -3.64301e-06 0)
(1.21017 -1.00025e-06 0)
(1.21062 1.72746e-06 0)
(1.21106 2.20615e-06 0)
(1.21151 -8.191e-07 0)
(1.21196 -6.16059e-06 0)
(1.21242 -1.11128e-05 0)
(1.21289 -1.34474e-05 0)
(1.21336 -1.34277e-05 0)
(1.21385 -1.16737e-05 0)
(1.21433 -9.3016e-06 0)
(1.21484 -4.40193e-06 0)
(1.2153 1.83091e-06 0)
(1.21585 1.00662e-05 0)
(1.21625 1.23225e-05 0)
(1.2169 1.45426e-05 0)
(1.21716 5.105e-06 0)
(1.21805 3.67529e-06 0)
)
;

boundaryField
{
    upperWall
    {
        type            noSlip;
    }
    lowerWall
    {
        type            noSlip;
    }
    heatedWall
    {
        type            noSlip;
    }
    inlet
    {
        type            fixedValue;
        value           uniform (4.5 0 0);
    }
    outlet
    {
        type            pressureInletOutletVelocity;
        value           nonuniform List<vector> 
12
(
(1.24992 4.79128e-05 0)
(3.13725 0.000110741 0)
(4.54851 0.000154524 0)
(5.68534 0.000180426 0)
(6.54248 0.000187176 0)
(7.02788 0.000177199 0)
(7.00418 0.000154484 0)
(6.48352 0.000123693 0)
(5.61027 9.06754e-05 0)
(4.47266 5.74422e-05 0)
(3.07464 2.94034e-05 0)
(1.21805 3.67529e-06 0)
)
;
    }
    frontAndBack
    {
        type            empty;
    }
}


// ************************************************************************* //
