/*--------------------------------*- C++ -*----------------------------------*\
  =========                 |
  \\      /  F ield         | OpenFOAM: The Open Source CFD Toolbox
   \\    /   O peration     | Website:  https://openfoam.org
    \\  /    A nd           | Version:  7
     \\/     M anipulation  |
\*---------------------------------------------------------------------------*/
FoamFile
{
    version     2.0;
    format      ascii;
    class       volScalarField;
    location    "3";
    object      k_0;
}
// * * * * * * * * * * * * * * * * * * * * * * * * * * * * * * * * * * * * * //

dimensions      [0 2 -2 0 0 0 0];

internalField   nonuniform List<scalar> 
3000
(
0.0603559
0.335121
0.76475
1.12954
1.35559
1.45856
1.4537
1.42041
1.34845
1.26518
1.18498
1.11234
1.04869
0.994002
0.947468
0.907934
0.874243
0.84533
0.820295
0.798364
0.778923
0.761496
0.745708
0.731285
0.717991
0.70567
0.694168
0.683374
0.673197
0.663577
0.654458
0.645798
0.637554
0.6297
0.622206
0.615047
0.608207
0.601649
0.595391
0.589346
0.583622
0.577985
0.572792
0.567413
0.562823
0.55746
0.553493
0.548056
0.542708
0.548278
0.000408742
0.00894074
0.0390728
0.106088
0.197959
0.290358
0.361826
0.415167
0.45013
0.471058
0.481768
0.486952
0.48765
0.487077
0.485667
0.48365
0.481593
0.479636
0.477814
0.476134
0.474579
0.473113
0.471709
0.470332
0.468971
0.467602
0.466214
0.464804
0.463359
0.461891
0.46038
0.458857
0.457284
0.455719
0.454087
0.4525
0.45081
0.449232
0.447471
0.445945
0.444084
0.442671
0.44066
0.439425
0.437235
0.436131
0.433752
0.432692
0.429331
0.429889
2.0815e-05
9.0931e-05
0.000601521
0.00254007
0.00713167
0.0165225
0.0291491
0.0433996
0.0574881
0.0704445
0.0815532
0.0908464
0.0983682
0.104434
0.109339
0.113359
0.116711
0.11961
0.122182
0.124571
0.12683
0.129059
0.131254
0.13349
0.135727
0.138043
0.140363
0.142775
0.145174
0.147675
0.150131
0.152698
0.155181
0.157788
0.160262
0.162885
0.165317
0.167936
0.170297
0.172893
0.175161
0.177716
0.179879
0.182366
0.184443
0.186807
0.18887
0.190997
0.1932
0.195034
2.00499e-05
2.05727e-05
2.55844e-05
5.33109e-05
0.000148491
0.00039972
0.000932041
0.00184254
0.00309623
0.00457955
0.00622131
0.00788554
0.00954505
0.0111032
0.0125897
0.0139384
0.0152132
0.0163555
0.0174477
0.0184259
0.0193849
0.0202472
0.0211186
0.0219028
0.0227207
0.0234569
0.0242485
0.0249582
0.0257435
0.026442
0.0272366
0.0279349
0.0287511
0.0294568
0.030304
0.0310214
0.0319079
0.0326387
0.0335709
0.0343144
0.0353005
0.0360546
0.0371025
0.0378617
0.0389823
0.0397368
0.0409442
0.0416871
0.0430082
0.0437925
2.00284e-05
2.01677e-05
2.05508e-05
2.14198e-05
2.33928e-05
2.79957e-05
3.85019e-05
5.80607e-05
0.000102724
0.000145311
0.000236819
0.00029873
0.000426595
0.000499265
0.000645478
0.000723955
0.000876201
0.000956905
0.00111066
0.00119151
0.00134627
0.00142722
0.0015839
0.00166524
0.00182427
0.00190669
0.0020685
0.00215213
0.00231696
0.00240181
0.00256978
0.00265583
0.00282716
0.00291475
0.00308981
0.0031793
0.00335832
0.0034499
0.00363312
0.00372707
0.0039152
0.00401203
0.00420596
0.00430612
0.00450718
0.00461144
0.00482145
0.00493149
0.00515676
0.00528176
2.00211e-05
2.01292e-05
2.04461e-05
2.10146e-05
2.22976e-05
2.32458e-05
2.52319e-05
2.63699e-05
2.87642e-05
3.00858e-05
3.29339e-05
3.4501e-05
3.78771e-05
3.97263e-05
4.36701e-05
4.58261e-05
5.03743e-05
5.28505e-05
5.80341e-05
6.08558e-05
6.67287e-05
6.99152e-05
7.65222e-05
8.00924e-05
8.74758e-05
9.14474e-05
9.96303e-05
0.000104005
0.000112998
0.00011778
0.000127588
0.000132775
0.000143394
0.000148989
0.000160428
0.000166432
0.000178693
0.000185114
0.000198203
0.00020503
0.000218923
0.000226171
0.000240912
0.000248608
0.000264276
0.00027247
0.000289183
0.000297972
0.000316103
0.000325908
2.00188e-05
2.01308e-05
2.04482e-05
2.10169e-05
2.23002e-05
2.32472e-05
2.52308e-05
2.63611e-05
2.87386e-05
3.00432e-05
3.28554e-05
3.4398e-05
3.77261e-05
3.95512e-05
4.34517e-05
4.55827e-05
5.00881e-05
5.25458e-05
5.76928e-05
6.04911e-05
6.63214e-05
6.94891e-05
7.60603e-05
7.96139e-05
8.69533e-05
9.09045e-05
9.9046e-05
0.000103403
0.000112356
0.000117117
0.000126879
0.000132044
0.000142609
0.000148165
0.000159509
0.000165447
0.000177549
0.000183855
0.00019669
0.000203359
0.000216942
0.000223976
0.000238283
0.000245635
0.000260594
0.000268215
0.000283828
0.000291703
0.000308158
0.000316574
2.00238e-05
2.01722e-05
2.05556e-05
2.14158e-05
2.3354e-05
2.78613e-05
3.83348e-05
5.74635e-05
0.000101732
0.000143682
0.000234656
0.000295864
0.000423174
0.000495201
0.00064168
0.000718117
0.000871864
0.000949706
0.00110529
0.00118374
0.0013401
0.00141911
0.00157694
0.0016568
0.00181671
0.00189789
0.00206044
0.00214297
0.00230826
0.00239222
0.00256043
0.00264585
0.00281696
0.00290384
0.00307795
0.00316638
0.00334363
0.00343372
0.00361449
0.00370641
0.00389112
0.00398504
0.00417396
0.00426963
0.0044625
0.00455943
0.00475656
0.004855
0.00506115
0.00516777
2.00413e-05
2.05576e-05
2.54107e-05
5.25277e-05
0.000146266
0.000394545
0.000931111
0.00182079
0.0030866
0.00454954
0.00620497
0.00784881
0.0095243
0.0110621
0.0125668
0.0138939
0.0151892
0.0163082
0.0174237
0.0183763
0.0193616
0.0201955
0.021096
0.0218484
0.0226989
0.0233994
0.0242276
0.024897
0.0257235
0.0263768
0.0272172
0.0278642
0.0287303
0.0293771
0.0302787
0.030929
0.0318738
0.032529
0.0335233
0.0341821
0.0352314
0.0358901
0.0369969
0.0376492
0.0388144
0.0394543
0.040672
0.0413018
0.0425679
0.0432596
2.07233e-05
8.89217e-05
0.000592755
0.00251636
0.00708758
0.016459
0.0290689
0.0433092
0.0573911
0.0703445
0.0814522
0.0907446
0.0982683
0.104334
0.109242
0.113261
0.116616
0.119514
0.122091
0.124475
0.126743
0.128966
0.13117
0.133396
0.135647
0.137949
0.140285
0.142679
0.1451
0.147573
0.150058
0.152584
0.155104
0.157655
0.160179
0.162726
0.165225
0.167738
0.170188
0.172639
0.175021
0.177378
0.179685
0.18191
0.184144
0.186184
0.18837
0.190155
0.192305
0.193894
0.000394566
0.00886296
0.0388994
0.105842
0.197675
0.290065
0.361548
0.414909
0.449897
0.470852
0.481584
0.486789
0.487503
0.486944
0.485546
0.48354
0.481491
0.479542
0.477726
0.476053
0.474503
0.473041
0.471641
0.470267
0.468909
0.467543
0.466158
0.464749
0.463305
0.461837
0.460325
0.458802
0.457226
0.455662
0.454024
0.452441
0.450737
0.449166
0.447382
0.445868
0.44397
0.442575
0.440514
0.439294
0.437055
0.435944
0.43352
0.432406
0.428846
0.429284
0.0603429
0.335167
0.764853
1.12969
1.35577
1.45876
1.45389
1.4206
1.34864
1.26535
1.18514
1.1125
1.04883
0.994139
0.947599
0.90806
0.874365
0.845448
0.82041
0.798476
0.779033
0.761604
0.745815
0.731392
0.718099
0.705779
0.694281
0.683492
0.673321
0.66371
0.654603
0.645959
0.637733
0.629908
0.622439
0.615328
0.608521
0.602044
0.595822
0.589918
0.584222
0.57884
0.57363
0.568719
0.563987
0.559471
0.555118
0.551019
0.545374
0.55155
1.02371
1.17017
1.17568
1.15702
1.13472
1.11644
1.10033
1.08597
1.07331
1.06227
1.05267
1.04433
1.03709
1.03082
1.0254
1.02075
1.01678
1.01341
1.0106
1.00829
1.00642
1.00496
1.00386
1.00308
1.00259
1.00235
1.00236
1.00252
1.00287
1.00337
1.00399
1.00471
1.00552
1.00641
1.00736
1.00836
1.0094
1.01048
1.01159
1.01271
1.01386
1.01502
1.01618
1.01735
1.01853
1.01971
1.02089
1.02207
1.02324
1.02442
1.02559
1.02675
1.02791
1.02907
1.03022
1.03137
1.03251
1.03365
1.03478
1.03591
1.03704
1.03815
1.03927
1.04037
1.04147
1.04257
1.04366
1.04474
1.04582
1.0469
1.04797
1.04903
1.05009
1.05114
1.05218
1.05322
1.05426
1.05529
1.05631
1.05733
1.05834
1.05934
1.06034
1.06133
1.06231
1.06329
1.06426
1.06522
1.06618
1.06713
1.06807
1.069
1.06993
1.07085
1.07176
1.07267
1.07357
1.07446
1.07535
1.07622
1.07709
1.07796
1.07881
1.07966
1.0805
1.08133
1.08216
1.08298
1.08379
1.0846
1.0854
1.08619
1.08698
1.08776
1.08854
1.08931
1.09008
1.09084
1.09159
1.09234
1.09308
1.09382
1.09455
1.09528
1.096
1.09672
1.09744
1.09815
1.09885
1.09956
1.10025
1.10095
1.10164
1.10233
1.10302
1.1037
1.10438
1.10506
1.10573
1.10641
1.10707
1.10774
1.1084
1.10907
1.10973
1.11038
1.11104
1.1117
1.11235
1.113
1.11365
1.11431
1.11495
1.1156
1.11625
1.1169
1.11754
1.11819
1.11883
1.11948
1.12012
1.12076
1.1214
1.12204
1.12268
1.12332
1.12396
1.12461
1.12525
1.12589
1.12653
1.12717
1.12781
1.12845
1.1291
1.12974
1.13038
1.13102
1.13166
1.13231
1.13295
1.13359
1.13423
1.13488
1.13552
1.13617
1.13681
1.13746
1.1381
1.13876
1.13938
1.14007
1.14066
1.14139
1.14193
1.14273
1.14317
1.14411
1.1444
1.14553
0.77931
1.06724
1.15805
1.17402
1.16911
1.15739
1.14485
1.13386
1.12437
1.11623
1.10931
1.10345
1.09853
1.09445
1.09108
1.08835
1.08618
1.0845
1.08326
1.0824
1.08187
1.08165
1.0817
1.08191
1.08234
1.08295
1.08368
1.08453
1.08546
1.08648
1.08756
1.0887
1.08987
1.09108
1.09231
1.09357
1.09483
1.09611
1.0974
1.0987
1.09999
1.10129
1.10259
1.10388
1.10518
1.10646
1.10775
1.10903
1.1103
1.11157
1.11284
1.11409
1.11535
1.11659
1.11783
1.11907
1.1203
1.12152
1.12274
1.12396
1.12517
1.12637
1.12757
1.12876
1.12995
1.13114
1.13231
1.13349
1.13466
1.13582
1.13697
1.13813
1.13927
1.14041
1.14155
1.14268
1.14381
1.14493
1.14604
1.14715
1.14825
1.14935
1.15044
1.15153
1.15261
1.15368
1.15475
1.15581
1.15686
1.15791
1.15895
1.15998
1.16101
1.16203
1.16304
1.16405
1.16505
1.16604
1.16703
1.16801
1.16898
1.16995
1.17091
1.17186
1.1728
1.17374
1.17468
1.1756
1.17652
1.17743
1.17834
1.17924
1.18013
1.18102
1.1819
1.18277
1.18364
1.18451
1.18537
1.18622
1.18707
1.18791
1.18875
1.18958
1.19041
1.19123
1.19205
1.19286
1.19367
1.19447
1.19527
1.19607
1.19686
1.19765
1.19843
1.19922
1.2
1.20077
1.20154
1.20231
1.20308
1.20384
1.2046
1.20536
1.20611
1.20687
1.20762
1.20837
1.20911
1.20986
1.2106
1.21134
1.21208
1.21282
1.21355
1.21429
1.21502
1.21576
1.21649
1.21722
1.21795
1.21868
1.2194
1.22013
1.22086
1.22158
1.22231
1.22303
1.22375
1.22448
1.2252
1.22592
1.22665
1.22737
1.22809
1.22881
1.22953
1.23026
1.23098
1.2317
1.23242
1.23314
1.23386
1.23459
1.23531
1.23603
1.23675
1.23748
1.23819
1.23893
1.23963
1.24039
1.24105
1.24187
1.24246
1.24336
1.24386
1.24488
1.24529
1.24647
0.289158
0.509372
0.665278
0.751023
0.791911
0.809927
0.817325
0.820213
0.8213
0.821814
0.822268
0.822855
0.823637
0.824615
0.825775
0.82709
0.828535
0.830085
0.831712
0.833392
0.835102
0.836819
0.83854
0.840223
0.841875
0.843486
0.845052
0.846563
0.848022
0.84943
0.850788
0.852098
0.853366
0.854593
0.855784
0.856941
0.858069
0.85917
0.860249
0.861307
0.862347
0.863372
0.864383
0.865382
0.866371
0.867352
0.868324
0.86929
0.870249
0.871203
0.872152
0.873096
0.874036
0.874972
0.875903
0.876831
0.877755
0.878676
0.879594
0.880509
0.881421
0.88233
0.883236
0.88414
0.885041
0.885939
0.886835
0.887729
0.888619
0.889507
0.890392
0.891274
0.892153
0.893029
0.893901
0.894771
0.895638
0.896502
0.897363
0.898221
0.899076
0.899929
0.900779
0.901626
0.90247
0.903311
0.904149
0.904984
0.905816
0.906645
0.907469
0.908291
0.909108
0.909922
0.910732
0.911539
0.912342
0.913141
0.913937
0.914729
0.915518
0.916304
0.917085
0.917864
0.918638
0.919409
0.920176
0.920939
0.921698
0.922453
0.923203
0.92395
0.924693
0.925431
0.926166
0.926897
0.927624
0.928347
0.929067
0.929784
0.930496
0.931206
0.931912
0.932615
0.933314
0.934009
0.934701
0.93539
0.936075
0.936756
0.937434
0.938108
0.93878
0.939448
0.940113
0.940775
0.941435
0.942092
0.942746
0.943398
0.944047
0.944694
0.945339
0.945981
0.946621
0.947258
0.947893
0.948525
0.949155
0.949783
0.950409
0.951033
0.951654
0.952274
0.952892
0.953509
0.954124
0.954738
0.95535
0.955961
0.956571
0.95718
0.957787
0.958393
0.958997
0.959601
0.960203
0.960803
0.961403
0.962001
0.962599
0.963195
0.96379
0.964385
0.964979
0.965572
0.966165
0.966758
0.96735
0.967941
0.968532
0.969123
0.969712
0.970303
0.97089
0.971481
0.972064
0.972659
0.973234
0.973837
0.974399
0.975019
0.975556
0.97621
0.976699
0.977414
0.977833
0.978621
0.978995
0.979933
0.0564854
0.100643
0.175493
0.256542
0.326998
0.382106
0.423171
0.453301
0.475565
0.492445
0.505695
0.5165
0.525634
0.533597
0.540708
0.547168
0.553099
0.55858
0.563654
0.568349
0.572685
0.57667
0.580325
0.583658
0.586688
0.589434
0.591919
0.59416
0.596181
0.598004
0.599649
0.601138
0.602489
0.60372
0.604846
0.605882
0.606839
0.60773
0.608565
0.609351
0.610097
0.610809
0.611493
0.612154
0.612796
0.613422
0.614036
0.614641
0.615237
0.615827
0.616412
0.616994
0.617572
0.618148
0.618721
0.619293
0.619863
0.620432
0.621
0.621566
0.622132
0.622698
0.623263
0.623827
0.624392
0.624956
0.625521
0.626085
0.62665
0.627215
0.627779
0.628343
0.628907
0.629471
0.630034
0.630596
0.631157
0.631718
0.632278
0.632838
0.633397
0.633956
0.634515
0.635074
0.635632
0.636191
0.63675
0.637309
0.637868
0.638426
0.638985
0.639543
0.6401
0.640657
0.641213
0.641768
0.642322
0.642876
0.643429
0.643981
0.644533
0.645084
0.645635
0.646185
0.646735
0.647285
0.647834
0.648382
0.64893
0.649476
0.650021
0.650565
0.651107
0.651648
0.652187
0.652724
0.65326
0.653794
0.654327
0.654858
0.655388
0.655917
0.656445
0.656971
0.657496
0.658019
0.658542
0.659062
0.65958
0.660097
0.660611
0.661124
0.661634
0.662142
0.662648
0.663152
0.663654
0.664154
0.664652
0.665149
0.665644
0.666138
0.666631
0.667121
0.66761
0.668098
0.668584
0.669068
0.66955
0.67003
0.670508
0.670984
0.671458
0.67193
0.6724
0.672869
0.673336
0.673801
0.674266
0.674729
0.675191
0.675651
0.676111
0.676569
0.677027
0.677482
0.677937
0.67839
0.678841
0.679291
0.67974
0.680187
0.680632
0.681077
0.681519
0.681962
0.682402
0.682843
0.683282
0.683721
0.684159
0.684597
0.685033
0.685471
0.685904
0.686342
0.686771
0.687211
0.687633
0.688078
0.688488
0.688945
0.689335
0.689815
0.690173
0.69069
0.691004
0.691565
0.691846
0.692537
0.00631902
0.00981871
0.0171141
0.0317386
0.0529734
0.0786548
0.106459
0.134298
0.160745
0.185016
0.206852
0.226283
0.243493
0.258722
0.272214
0.284187
0.294825
0.304284
0.312691
0.320152
0.326762
0.332599
0.33774
0.342251
0.346197
0.349637
0.352627
0.355219
0.357462
0.359398
0.361068
0.362508
0.36375
0.364822
0.365749
0.366552
0.36725
0.367861
0.368396
0.36887
0.369291
0.36967
0.370013
0.370328
0.370619
0.370891
0.371149
0.371395
0.371633
0.371864
0.37209
0.372314
0.372535
0.372755
0.372974
0.373192
0.373411
0.37363
0.37385
0.374072
0.374295
0.374519
0.374745
0.374972
0.375201
0.375431
0.375664
0.375899
0.376135
0.376374
0.376615
0.376858
0.377103
0.377349
0.377597
0.377847
0.378098
0.378351
0.378604
0.378859
0.379115
0.379372
0.379631
0.379892
0.380154
0.380418
0.380684
0.380953
0.381223
0.381496
0.381771
0.382048
0.382327
0.382607
0.382889
0.383173
0.383458
0.383744
0.384032
0.384321
0.384612
0.384904
0.385198
0.385494
0.385791
0.386091
0.386392
0.386695
0.387
0.387306
0.387614
0.387923
0.388233
0.388544
0.388855
0.389167
0.389479
0.389792
0.390106
0.390419
0.390734
0.391048
0.391364
0.39168
0.391997
0.392314
0.392632
0.39295
0.393269
0.393587
0.393906
0.394224
0.394541
0.394858
0.395175
0.39549
0.395805
0.396119
0.396432
0.396745
0.397057
0.397369
0.397681
0.397992
0.398302
0.398612
0.398922
0.399231
0.399539
0.399846
0.400153
0.400457
0.400761
0.401063
0.401364
0.401664
0.401963
0.40226
0.402556
0.402852
0.403146
0.40344
0.403733
0.404026
0.404318
0.404609
0.404899
0.405188
0.405476
0.405763
0.406048
0.406333
0.406616
0.406898
0.407178
0.407458
0.407736
0.408014
0.40829
0.408567
0.408841
0.409117
0.40939
0.409666
0.409936
0.410213
0.410479
0.410758
0.411018
0.411301
0.411552
0.411843
0.41208
0.412384
0.412601
0.412924
0.413118
0.413462
0.413638
0.414067
0.00038631
0.00053508
0.000809339
0.00139471
0.00259103
0.00481253
0.00836415
0.0134157
0.0199627
0.0278454
0.0368065
0.0465316
0.0566978
0.067002
0.0771818
0.0870257
0.0963728
0.105112
0.113174
0.120527
0.127166
0.133109
0.138386
0.14304
0.147119
0.150672
0.153752
0.156408
0.15869
0.160642
0.162305
0.163718
0.164914
0.165923
0.166773
0.167485
0.168082
0.16858
0.168995
0.16934
0.169626
0.169864
0.17006
0.170224
0.17036
0.170474
0.17057
0.170653
0.170726
0.17079
0.170848
0.170903
0.170954
0.171005
0.171056
0.171107
0.171158
0.17121
0.171263
0.171317
0.171371
0.171427
0.171483
0.171541
0.171601
0.171661
0.171724
0.171787
0.171853
0.171921
0.17199
0.172061
0.172134
0.172209
0.172286
0.172364
0.172443
0.172524
0.172606
0.17269
0.172774
0.17286
0.172947
0.173036
0.173126
0.173217
0.173311
0.173406
0.173502
0.173601
0.173701
0.173803
0.173906
0.174012
0.174118
0.174227
0.174336
0.174447
0.174559
0.174672
0.174787
0.174903
0.17502
0.175139
0.175259
0.175381
0.175504
0.175629
0.175755
0.175883
0.176013
0.176143
0.176275
0.176408
0.176542
0.176677
0.176812
0.176948
0.177085
0.177222
0.177361
0.177499
0.177639
0.177779
0.177921
0.178063
0.178205
0.178349
0.178493
0.178638
0.178783
0.178928
0.179074
0.17922
0.179365
0.179511
0.179657
0.179802
0.179947
0.180092
0.180237
0.180382
0.180527
0.180672
0.180817
0.180962
0.181107
0.181252
0.181397
0.181542
0.181686
0.18183
0.181974
0.182116
0.182259
0.1824
0.182541
0.182682
0.182821
0.182961
0.1831
0.183238
0.183376
0.183514
0.183652
0.18379
0.183927
0.184063
0.184199
0.184335
0.18447
0.184605
0.184738
0.184872
0.185004
0.185136
0.185266
0.185398
0.185526
0.185658
0.185784
0.185916
0.186041
0.186174
0.186296
0.186431
0.18655
0.186687
0.186802
0.186943
0.187051
0.187197
0.187298
0.187449
0.187543
0.187699
0.187786
0.187947
0.188029
0.18823
0.000379919
0.000513731
0.000755231
0.00128065
0.00236531
0.00445682
0.00786186
0.0127747
0.019215
0.0270437
0.0360132
0.0458132
0.0561159
0.0666097
0.0770222
0.0871306
0.0967636
0.105802
0.11417
0.121832
0.128778
0.135024
0.140601
0.145548
0.149915
0.153751
0.157108
0.160037
0.162586
0.164801
0.166723
0.168392
0.169839
0.171098
0.172193
0.173149
0.173987
0.174723
0.175374
0.175953
0.17647
0.176936
0.177359
0.177747
0.178104
0.178438
0.178751
0.179048
0.179333
0.179607
0.179873
0.180132
0.180387
0.180638
0.180886
0.181133
0.181378
0.181622
0.181864
0.182105
0.182345
0.182584
0.182822
0.183059
0.183295
0.183531
0.183767
0.184002
0.184237
0.184472
0.184707
0.184942
0.185176
0.185411
0.185645
0.185879
0.186112
0.186344
0.186576
0.186806
0.187036
0.187265
0.187493
0.18772
0.187946
0.188172
0.188397
0.188621
0.188845
0.189069
0.189291
0.189513
0.189735
0.189955
0.190175
0.190393
0.19061
0.190826
0.191041
0.191254
0.191466
0.191677
0.191887
0.192096
0.192304
0.192511
0.192717
0.192922
0.193127
0.193331
0.193534
0.193735
0.193936
0.194136
0.194334
0.194531
0.194727
0.194921
0.195114
0.195306
0.195496
0.195685
0.195873
0.196061
0.196247
0.196433
0.196617
0.196801
0.196984
0.197166
0.197347
0.197527
0.197706
0.197884
0.19806
0.198235
0.198408
0.198581
0.198752
0.198922
0.199091
0.199259
0.199426
0.199593
0.199759
0.199924
0.200088
0.200252
0.200415
0.200577
0.200738
0.200898
0.201057
0.201215
0.201372
0.201528
0.201682
0.201836
0.201989
0.202141
0.202292
0.202443
0.202593
0.202743
0.202892
0.20304
0.203189
0.203336
0.203483
0.203629
0.203775
0.20392
0.204063
0.204206
0.204348
0.20449
0.20463
0.204771
0.204909
0.205049
0.205185
0.205326
0.205461
0.205603
0.205735
0.205879
0.206007
0.206154
0.206277
0.206428
0.206544
0.206701
0.206808
0.206972
0.207069
0.20724
0.20733
0.207506
0.207593
0.20781
0.00618916
0.00951874
0.0164594
0.0304329
0.0512157
0.0767275
0.104646
0.13285
0.159838
0.184759
0.20732
0.227512
0.245494
0.261486
0.275718
0.288397
0.299705
0.309793
0.318787
0.326795
0.333912
0.340223
0.345802
0.350722
0.35505
0.358849
0.362176
0.365088
0.367633
0.369859
0.371806
0.373513
0.375013
0.376335
0.377505
0.378546
0.379476
0.380313
0.381071
0.381763
0.382399
0.382988
0.383538
0.384055
0.384547
0.385017
0.385469
0.385907
0.386334
0.386751
0.387163
0.387568
0.38797
0.388367
0.388763
0.389155
0.389546
0.389936
0.390325
0.390713
0.391101
0.391488
0.391876
0.392263
0.39265
0.393037
0.393425
0.393813
0.394202
0.394591
0.394981
0.395371
0.395761
0.396151
0.396542
0.396931
0.397321
0.397709
0.398097
0.398484
0.39887
0.399255
0.39964
0.400024
0.400408
0.400791
0.401175
0.401558
0.40194
0.402323
0.402705
0.403086
0.403467
0.403848
0.404227
0.404605
0.404982
0.405357
0.405732
0.406105
0.406478
0.406849
0.40722
0.407591
0.40796
0.40833
0.408698
0.409067
0.409435
0.409802
0.410168
0.410534
0.410898
0.411261
0.411623
0.411984
0.412343
0.412701
0.413057
0.413413
0.413767
0.414121
0.414473
0.414825
0.415176
0.415527
0.415877
0.416226
0.416574
0.41692
0.417266
0.41761
0.417953
0.418294
0.418634
0.418972
0.419308
0.419643
0.419977
0.420309
0.42064
0.420971
0.4213
0.421629
0.421956
0.422283
0.422608
0.422933
0.423256
0.423578
0.423898
0.424217
0.424534
0.42485
0.425164
0.425476
0.425787
0.426097
0.426406
0.426713
0.427019
0.427325
0.42763
0.427934
0.428237
0.428539
0.42884
0.429141
0.42944
0.429737
0.430034
0.430329
0.430622
0.430915
0.431206
0.431496
0.431784
0.432072
0.432359
0.432646
0.432931
0.433217
0.4335
0.433787
0.434067
0.434355
0.434631
0.434921
0.435191
0.435486
0.435745
0.436049
0.436293
0.436611
0.436834
0.437173
0.437372
0.437732
0.437915
0.438364
0.0559541
0.0991839
0.172995
0.254203
0.325861
0.382604
0.425354
0.457009
0.480581
0.498588
0.512792
0.524404
0.534227
0.542777
0.550387
0.557271
0.563561
0.569339
0.574657
0.579548
0.584034
0.588134
0.591865
0.595245
0.598293
0.601033
0.603485
0.605678
0.607635
0.609378
0.610933
0.612321
0.613563
0.614679
0.615685
0.616596
0.617425
0.618186
0.618888
0.61954
0.620151
0.620727
0.621274
0.621799
0.622305
0.622796
0.623276
0.623746
0.62421
0.624668
0.625124
0.625576
0.626027
0.626477
0.626927
0.627376
0.627826
0.628276
0.628726
0.629178
0.629631
0.630084
0.630539
0.630996
0.631454
0.631914
0.632376
0.632839
0.633304
0.63377
0.634238
0.634706
0.635176
0.635647
0.636119
0.636591
0.637064
0.637537
0.638011
0.638486
0.638961
0.639438
0.639915
0.640393
0.640872
0.641352
0.641834
0.642316
0.642799
0.643283
0.643767
0.644252
0.644738
0.645224
0.64571
0.646196
0.646683
0.64717
0.647657
0.648146
0.648634
0.649124
0.649614
0.650105
0.650597
0.651089
0.651583
0.652076
0.65257
0.653064
0.653559
0.654053
0.654547
0.655042
0.655535
0.656029
0.656523
0.657017
0.65751
0.658004
0.658497
0.658991
0.659485
0.659979
0.660473
0.660966
0.66146
0.661952
0.662445
0.662936
0.663427
0.663917
0.664405
0.664893
0.66538
0.665866
0.666351
0.666835
0.667319
0.667801
0.668283
0.668765
0.669245
0.669725
0.670204
0.670682
0.671159
0.671635
0.672109
0.672582
0.673053
0.673523
0.673991
0.674459
0.674924
0.675389
0.675852
0.676315
0.676776
0.677236
0.677696
0.678154
0.678612
0.679068
0.679524
0.679978
0.680431
0.680882
0.681333
0.681782
0.682229
0.682675
0.68312
0.683564
0.684007
0.684449
0.68489
0.68533
0.685769
0.686209
0.686646
0.687085
0.687521
0.687959
0.688391
0.68883
0.689258
0.689699
0.69012
0.690566
0.690976
0.691434
0.691823
0.692306
0.69266
0.693183
0.693492
0.694058
0.694338
0.695032
0.289793
0.507628
0.666526
0.755136
0.7983
0.817815
0.826153
0.82956
0.830901
0.831498
0.831917
0.832387
0.832989
0.833741
0.834633
0.83565
0.836769
0.837968
0.839224
0.840516
0.84182
0.843119
0.844396
0.845636
0.846829
0.847971
0.84905
0.850078
0.851041
0.851945
0.852798
0.853601
0.854358
0.855074
0.855753
0.856398
0.857016
0.857608
0.85818
0.858734
0.859274
0.859801
0.860319
0.86083
0.861334
0.861835
0.862332
0.862828
0.863322
0.863816
0.864311
0.864805
0.8653
0.865797
0.866295
0.866794
0.867295
0.867798
0.868303
0.86881
0.869319
0.869831
0.870345
0.870861
0.87138
0.871901
0.872423
0.872948
0.873475
0.874003
0.874533
0.875064
0.875598
0.876132
0.876668
0.877206
0.877746
0.878287
0.87883
0.879375
0.879922
0.88047
0.881021
0.881573
0.882127
0.882683
0.883241
0.8838
0.884361
0.884923
0.885487
0.886052
0.886619
0.887188
0.887758
0.88833
0.888903
0.889479
0.890056
0.890636
0.891217
0.891799
0.892384
0.89297
0.893558
0.894147
0.894737
0.895329
0.895922
0.896516
0.897111
0.897707
0.898304
0.898902
0.899502
0.900102
0.900704
0.901306
0.901909
0.902514
0.903119
0.903725
0.904331
0.904938
0.905545
0.906153
0.90676
0.907368
0.907976
0.908583
0.909191
0.909798
0.910405
0.911012
0.91162
0.912227
0.912834
0.91344
0.914047
0.914653
0.915259
0.915865
0.91647
0.917074
0.917678
0.91828
0.918882
0.919484
0.920084
0.920683
0.921282
0.92188
0.922477
0.923073
0.923669
0.924264
0.924859
0.925453
0.926046
0.926638
0.92723
0.927821
0.928411
0.929
0.929588
0.930175
0.930761
0.931347
0.931931
0.932515
0.933097
0.93368
0.934261
0.934842
0.935423
0.936003
0.936583
0.937162
0.937741
0.938319
0.938897
0.939475
0.94005
0.940628
0.941201
0.941779
0.942349
0.94293
0.943492
0.944082
0.944631
0.945238
0.945762
0.946403
0.946879
0.947582
0.947985
0.948763
0.949124
0.950043
0.781774
1.0728
1.16614
1.18199
1.17661
1.16389
1.15021
1.13801
1.12728
1.11793
1.10985
1.10288
1.09689
1.09176
1.08738
1.08366
1.08052
1.07789
1.07572
1.07394
1.0725
1.07137
1.0705
1.06986
1.06941
1.06913
1.06898
1.06897
1.06903
1.06917
1.06939
1.06967
1.06998
1.07034
1.07073
1.07114
1.07157
1.07202
1.07248
1.07295
1.07344
1.07393
1.07443
1.07493
1.07544
1.07596
1.07647
1.07699
1.07752
1.07805
1.07858
1.07911
1.07964
1.08018
1.08072
1.08126
1.0818
1.08234
1.08289
1.08344
1.08399
1.08455
1.08511
1.08566
1.08622
1.08679
1.08735
1.08792
1.08849
1.08906
1.08963
1.0902
1.09077
1.09135
1.09193
1.09251
1.0931
1.09368
1.09427
1.09486
1.09545
1.09605
1.09665
1.09724
1.09785
1.09845
1.09905
1.09966
1.10027
1.10088
1.1015
1.10211
1.10273
1.10335
1.10398
1.10461
1.10524
1.10587
1.1065
1.10714
1.10778
1.10842
1.10907
1.10972
1.11036
1.11101
1.11167
1.11232
1.11298
1.11364
1.1143
1.11496
1.11563
1.11629
1.11696
1.11763
1.11831
1.11898
1.11966
1.12034
1.12101
1.12169
1.12238
1.12306
1.12374
1.12442
1.12511
1.12579
1.12648
1.12717
1.12786
1.12854
1.12923
1.12993
1.13062
1.13131
1.132
1.13269
1.13339
1.13408
1.13478
1.13547
1.13616
1.13686
1.13755
1.13824
1.13894
1.13963
1.14032
1.14102
1.14171
1.14241
1.1431
1.14379
1.14449
1.14518
1.14588
1.14657
1.14727
1.14796
1.14865
1.14935
1.15004
1.15073
1.15143
1.15212
1.15281
1.1535
1.15419
1.15489
1.15558
1.15627
1.15696
1.15766
1.15835
1.15904
1.15974
1.16043
1.16112
1.16182
1.16251
1.1632
1.16389
1.16459
1.16528
1.16597
1.16666
1.16736
1.16804
1.16875
1.16942
1.17016
1.17079
1.17157
1.17215
1.17301
1.17348
1.17446
1.17485
1.17598
1.02034
1.16728
1.16716
1.14684
1.12295
1.10282
1.08474
1.06857
1.05428
1.04177
1.03083
1.02123
1.0128
1.00539
0.998888
0.993185
0.988195
0.983844
0.980067
0.976806
0.974009
0.971628
0.969619
0.967944
0.966563
0.965442
0.964547
0.963856
0.96333
0.962954
0.962708
0.962571
0.962528
0.962561
0.962657
0.962815
0.963019
0.963263
0.96354
0.963845
0.964174
0.964522
0.964887
0.965265
0.965653
0.966051
0.966456
0.966867
0.967283
0.967703
0.968127
0.968554
0.968984
0.969416
0.969851
0.970287
0.970725
0.971165
0.971607
0.97205
0.972495
0.97294
0.973387
0.973834
0.974283
0.974732
0.975181
0.975632
0.976083
0.976536
0.976989
0.977443
0.977899
0.978356
0.978815
0.979275
0.979737
0.9802
0.980664
0.98113
0.981598
0.982067
0.982537
0.983008
0.983481
0.983956
0.984432
0.984909
0.985389
0.985871
0.986354
0.98684
0.987328
0.987818
0.988311
0.988806
0.989303
0.989803
0.990304
0.990807
0.991312
0.991819
0.992328
0.992839
0.993351
0.993866
0.994382
0.9949
0.995421
0.995943
0.996468
0.996995
0.997524
0.998055
0.998588
0.999122
0.999659
1.0002
1.00074
1.00128
1.00182
1.00236
1.00291
1.00345
1.004
1.00455
1.0051
1.00565
1.00621
1.00676
1.00732
1.00787
1.00843
1.00899
1.00956
1.01012
1.01068
1.01125
1.01181
1.01238
1.01295
1.01351
1.01408
1.01465
1.01522
1.01579
1.01636
1.01694
1.01751
1.01809
1.01867
1.01924
1.01982
1.0204
1.02098
1.02156
1.02214
1.02273
1.02331
1.02389
1.02448
1.02506
1.02565
1.02623
1.02682
1.02741
1.028
1.02859
1.02918
1.02977
1.03036
1.03096
1.03155
1.03214
1.03274
1.03334
1.03393
1.03453
1.03513
1.03573
1.03632
1.03692
1.03752
1.03812
1.03872
1.03933
1.03992
1.04053
1.04113
1.04175
1.04233
1.04297
1.04353
1.0442
1.04471
1.04546
1.04587
1.04675
1.04702
1.04808
)
;

boundaryField
{
    upperWall
    {
        type            fixedValue;
        value           uniform 0;
    }
    lowerWall
    {
        type            fixedValue;
        value           uniform 0;
    }
    heatedWall
    {
        type            fixedValue;
        value           uniform 0;
    }
    inlet
    {
        type            fixedValue;
        value           uniform 2e-05;
    }
    outlet
    {
        type            inletOutlet;
        inletValue      uniform 0;
        value           nonuniform List<scalar> 
12
(
1.14553
1.24647
0.979933
0.692537
0.414067
0.18823
0.20781
0.438364
0.695032
0.950043
1.17598
1.04808
)
;
    }
    frontAndBack
    {
        type            empty;
    }
}


// ************************************************************************* //
