/*--------------------------------*- C++ -*----------------------------------*\
  =========                 |
  \\      /  F ield         | OpenFOAM: The Open Source CFD Toolbox
   \\    /   O peration     | Website:  https://openfoam.org
    \\  /    A nd           | Version:  7
     \\/     M anipulation  |
\*---------------------------------------------------------------------------*/
FoamFile
{
    version     2.0;
    format      ascii;
    class       volScalarField;
    location    "1.355";
    object      k;
}
// * * * * * * * * * * * * * * * * * * * * * * * * * * * * * * * * * * * * * //

dimensions      [0 2 -2 0 0 0 0];

internalField   nonuniform List<scalar> 
13200
(
75.5879
79.7873
79.7281
79.7434
79.6783
79.6932
79.6565
79.6785
79.6555
79.6791
79.6638
79.6839
79.6726
79.6862
79.6766
79.6807
79.6794
79.6617
79.7315
79.7648
17.7219
16.1035
15.0342
14.6311
14.4778
14.4436
14.3895
14.3903
14.3635
14.3676
14.353
14.3578
14.3464
14.3502
14.3408
14.3425
14.3364
14.3323
14.3859
14.3859
6.92323
6.88048
6.61715
6.42574
6.33204
6.29896
6.26098
6.25071
6.2284
6.22394
6.2093
6.20715
6.19637
6.19482
6.18604
6.18398
6.17653
6.17289
6.17036
6.18589
4.92977
5.51922
5.57435
5.56956
5.55207
5.54561
5.53019
5.52525
5.51379
5.51069
5.50269
5.50098
5.4956
5.49425
5.49013
5.4875
5.48428
5.47893
5.47764
5.48528
4.51798
5.27383
5.40917
5.45199
5.45532
5.46437
5.45999
5.46291
5.45854
5.46096
5.45773
5.46026
5.45848
5.46118
5.46035
5.46193
5.46103
5.46022
5.45852
5.46532
4.46413
5.24335
5.39676
5.452
5.46215
5.47966
5.47981
5.48811
5.48787
5.4948
5.49481
5.50095
5.50167
5.50801
5.50956
5.51547
5.51649
5.52005
5.52033
5.52816
4.44641
5.2254
5.38055
5.43882
5.45189
5.47307
5.47621
5.48872
5.49129
5.50229
5.50485
5.51462
5.51743
5.52707
5.53067
5.54028
5.54339
5.55089
5.55266
5.56339
4.45522
5.2279
5.38251
5.44128
5.456
5.47913
5.48416
5.4994
5.504
5.51799
5.52255
5.53517
5.53973
5.55199
5.55733
5.56975
5.57488
5.58498
5.58963
5.60093
4.4531
5.22234
5.37556
5.43351
5.44822
5.47172
5.47736
5.49363
5.49919
5.51463
5.52036
5.5347
5.54047
5.55447
5.56108
5.57534
5.58214
5.59385
5.60008
5.6131
4.45717
5.22383
5.37647
5.4342
5.44898
5.47261
5.47846
5.49507
5.501
5.51702
5.52325
5.53833
5.54467
5.55947
5.56677
5.58182
5.58968
5.60177
5.60967
5.62249
4.45717
5.22383
5.37647
5.4342
5.44898
5.47261
5.47846
5.49507
5.501
5.51702
5.52325
5.53833
5.54467
5.55948
5.56678
5.58182
5.5897
5.60177
5.6097
5.62252
4.4531
5.22234
5.37556
5.43351
5.44822
5.47172
5.47736
5.49363
5.49918
5.51464
5.52036
5.5347
5.54047
5.55447
5.56109
5.57532
5.5822
5.59381
5.60018
5.61313
4.45522
5.2279
5.38251
5.44128
5.45599
5.47913
5.48416
5.4994
5.504
5.518
5.52254
5.53518
5.53972
5.55201
5.55733
5.56976
5.57492
5.58497
5.58975
5.601
4.44641
5.2254
5.38055
5.43882
5.45189
5.47308
5.4762
5.48873
5.49127
5.50232
5.50483
5.51467
5.51739
5.52713
5.53062
5.54037
5.54337
5.55099
5.55278
5.56355
4.46413
5.24335
5.39676
5.45201
5.46214
5.47966
5.47981
5.48812
5.48785
5.49484
5.49478
5.50102
5.5016
5.50816
5.50943
5.51573
5.51628
5.52038
5.52012
5.5285
4.51798
5.27383
5.40917
5.45199
5.45532
5.46438
5.45998
5.46293
5.45852
5.461
5.45767
5.46035
5.45834
5.46141
5.46003
5.46246
5.46024
5.46121
5.4577
5.46663
4.92976
5.51923
5.57435
5.56957
5.55207
5.54561
5.53018
5.52527
5.51377
5.51073
5.50263
5.50107
5.49542
5.49449
5.48964
5.4883
5.48288
5.48122
5.47495
5.48823
6.92323
6.88048
6.61715
6.42575
6.33203
6.29897
6.26097
6.25072
6.22838
6.22397
6.20924
6.20722
6.19622
6.19503
6.18562
6.18458
6.17532
6.17493
6.16676
6.19209
17.7219
16.1034
15.0342
14.6311
14.4778
14.4436
14.3895
14.3903
14.3635
14.3676
14.3529
14.3579
14.3462
14.3505
14.3404
14.3433
14.3349
14.3348
14.3795
14.3971
75.5879
79.7873
79.7281
79.7434
79.6783
79.6933
79.6565
79.6786
79.6554
79.6792
79.6636
79.6842
79.6719
79.6872
79.6748
79.6839
79.6738
79.6722
79.7094
79.8186
5.9692
6.7889
6.65809
6.50326
6.4792
6.4182
6.42
6.38446
6.39002
6.36555
6.37108
6.35297
6.35743
6.34346
6.34679
6.3354
6.33841
6.32717
6.32925
6.34325
4.06642
5.4019
5.55651
5.53153
5.50382
5.47564
5.46193
5.44589
5.43873
5.42844
5.42435
5.41711
5.41427
5.40836
5.40618
5.40104
5.39916
5.39527
5.39184
5.39028
3.5062
4.83806
5.06673
5.11978
5.13562
5.1444
5.14595
5.14851
5.14838
5.14949
5.14966
5.15041
5.15071
5.15056
5.15054
5.14875
5.14908
5.14453
5.14634
5.15652
3.44031
4.76746
4.98325
5.02902
5.04063
5.05177
5.05661
5.06439
5.06848
5.07478
5.0788
5.08403
5.0882
5.09194
5.09574
5.09691
5.09998
5.09782
5.10177
5.10125
3.40904
4.732
4.94528
4.98559
4.98818
4.99247
4.99221
4.99583
4.99802
5.00359
5.00706
5.013
5.01773
5.02336
5.0287
5.03239
5.03727
5.03804
5.04161
5.04937
3.42296
4.74944
4.96168
5.00104
5.00158
5.00249
4.99919
4.99978
4.99898
5.00136
5.00269
5.00659
5.00957
5.01461
5.01907
5.0236
5.02796
5.03029
5.03248
5.03964
3.41285
4.73649
4.94836
4.98764
4.98786
4.98821
4.98411
4.98374
4.98165
4.98289
4.98282
4.98506
4.98664
4.99072
4.994
4.99881
5.00211
5.00585
5.00759
5.01546
3.42213
4.7478
4.95897
4.99797
4.99818
4.99854
4.99438
4.99388
4.9915
4.99249
4.99196
4.99364
4.99449
4.99782
5.00032
5.00508
5.0077
5.01178
5.01296
5.02052
3.41751
4.74152
4.95248
4.99118
4.9913
4.99162
4.98748
4.98701
4.98465
4.98565
4.98505
4.98666
4.98727
4.99035
4.99252
4.99729
4.9996
5.00392
5.00496
5.0123
3.42104
4.7456
4.95629
4.99477
4.99482
4.99509
4.99094
4.99049
4.98814
4.98915
4.98853
4.99014
4.99068
4.99369
4.99575
5.00048
5.00273
5.00705
5.00812
5.01533
3.42104
4.7456
4.95629
4.99477
4.99482
4.99509
4.99094
4.99049
4.98814
4.98915
4.98853
4.99014
4.99068
4.99369
4.99575
5.00047
5.00274
5.00704
5.00812
5.01532
3.41751
4.74152
4.95248
4.99118
4.9913
4.99162
4.98747
4.98701
4.98465
4.98566
4.98504
4.98666
4.98726
4.99035
4.99252
4.99727
4.99963
5.00387
5.00504
5.0123
3.42213
4.7478
4.95897
4.99797
4.99818
4.99854
4.99437
4.99388
4.9915
4.9925
4.99195
4.99366
4.99448
4.99784
5.00029
5.0051
5.0077
5.01175
5.01296
5.0204
3.41285
4.73649
4.94836
4.98764
4.98786
4.98821
4.9841
4.98374
4.98164
4.98291
4.9828
4.9851
4.9866
4.99078
4.99387
4.99894
5.00198
5.00592
5.00765
5.01543
3.42296
4.74945
4.96168
5.00105
5.00157
5.0025
4.99918
4.9998
4.99896
5.0014
5.00266
5.00667
5.00939
5.01484
5.01875
5.02398
5.02747
5.03073
5.03221
5.03958
3.40904
4.732
4.94528
4.98559
4.98818
4.99248
4.9922
4.99585
4.998
5.00363
5.00696
5.01316
5.01748
5.02372
5.02815
5.03313
5.03629
5.03893
5.0409
5.05004
3.44031
4.76746
4.98325
5.02902
5.04063
5.05178
5.0566
5.06441
5.06844
5.07484
5.0787
5.08418
5.08794
5.09233
5.0951
5.09774
5.09882
5.09936
5.0993
5.1037
3.5062
4.83806
5.06672
5.11978
5.13562
5.14441
5.14594
5.14852
5.14837
5.14951
5.14962
5.15048
5.15057
5.15077
5.15023
5.14943
5.14808
5.14646
5.14311
5.16077
4.06642
5.4019
5.55651
5.53154
5.50382
5.47564
5.46193
5.44589
5.43872
5.42845
5.42432
5.41715
5.41419
5.40849
5.40599
5.40147
5.39844
5.3966
5.38949
5.39573
5.9692
6.7889
6.65809
6.50326
6.4792
6.4182
6.42
6.38446
6.39002
6.36556
6.37107
6.353
6.35741
6.34354
6.34672
6.33566
6.33816
6.32801
6.32821
6.34704
0.877224
1.12464
0.96906
0.779511
0.671297
0.614951
0.57651
0.550553
0.529032
0.511974
0.497837
0.485621
0.475993
0.467048
0.460274
0.453722
0.448406
0.444662
0.43725
0.441291
0.146565
0.374951
0.452019
0.466594
0.465742
0.462007
0.454394
0.446762
0.439028
0.43198
0.425249
0.419115
0.413343
0.40815
0.403168
0.399085
0.39448
0.391938
0.386916
0.386605
0.0277409
0.143134
0.209646
0.242164
0.256571
0.268792
0.276451
0.284856
0.290442
0.29639
0.300192
0.304061
0.306351
0.308629
0.309726
0.310988
0.311224
0.311817
0.311454
0.312517
0.0234457
0.119288
0.175026
0.204735
0.216454
0.224314
0.227672
0.231818
0.234441
0.238027
0.240865
0.244212
0.247129
0.25011
0.252862
0.255381
0.257805
0.259858
0.261951
0.264079
0.0224433
0.113728
0.164967
0.193827
0.204641
0.211756
0.213437
0.215679
0.216118
0.217259
0.217771
0.218905
0.219742
0.220882
0.222066
0.223102
0.22453
0.225472
0.226845
0.228239
0.0233908
0.117476
0.169202
0.197563
0.208614
0.215337
0.217131
0.218885
0.219081
0.2196
0.219688
0.219988
0.220203
0.220499
0.220903
0.221149
0.221674
0.221885
0.222347
0.223185
0.0227383
0.114944
0.166133
0.194509
0.205293
0.212064
0.213695
0.215465
0.215568
0.215979
0.215946
0.216088
0.216105
0.216222
0.216311
0.216373
0.216486
0.216512
0.216579
0.217074
0.0232764
0.117133
0.168832
0.197054
0.20795
0.214569
0.216308
0.218003
0.218148
0.218562
0.218552
0.218662
0.218685
0.218773
0.218857
0.218887
0.218963
0.218933
0.219008
0.219417
0.0229489
0.115807
0.167217
0.195468
0.206245
0.212912
0.214576
0.216306
0.216431
0.216849
0.21683
0.216954
0.216967
0.21706
0.217129
0.217175
0.21723
0.21723
0.217218
0.217608
0.0231317
0.116566
0.168164
0.196363
0.207166
0.213775
0.215464
0.217164
0.2173
0.217718
0.217708
0.217829
0.217851
0.217947
0.218026
0.218065
0.218135
0.218118
0.218154
0.218533
0.0231317
0.116566
0.168164
0.196363
0.207166
0.213775
0.215464
0.217164
0.2173
0.217718
0.217708
0.217829
0.217852
0.217947
0.218026
0.218066
0.218136
0.218121
0.218156
0.218536
0.0229489
0.115807
0.167217
0.195468
0.206245
0.212912
0.214576
0.216306
0.216431
0.216849
0.21683
0.216954
0.216967
0.21706
0.217129
0.217173
0.21723
0.217228
0.217216
0.217605
0.0232763
0.117133
0.168832
0.197054
0.20795
0.214569
0.216308
0.218003
0.218148
0.218562
0.218552
0.218663
0.218685
0.218773
0.218857
0.218887
0.218964
0.218936
0.21901
0.219419
0.0227382
0.114944
0.166133
0.19451
0.205293
0.212064
0.213695
0.215465
0.215568
0.215979
0.215946
0.216088
0.216104
0.216223
0.216309
0.216372
0.216484
0.216508
0.216576
0.217066
0.0233908
0.117476
0.169201
0.197563
0.208614
0.215337
0.217131
0.218886
0.219081
0.219601
0.219688
0.21999
0.220197
0.220506
0.220896
0.221148
0.221668
0.221882
0.222339
0.223164
0.0224433
0.113728
0.164966
0.193827
0.204641
0.211757
0.213437
0.215679
0.216118
0.21726
0.21777
0.218909
0.219733
0.220891
0.222049
0.223109
0.224506
0.225458
0.226814
0.228176
0.0234457
0.119288
0.175025
0.204735
0.216453
0.224315
0.22767
0.23182
0.234438
0.23803
0.240859
0.244217
0.247118
0.250114
0.252842
0.255372
0.257773
0.259823
0.261864
0.263941
0.0277409
0.143134
0.209645
0.242165
0.25657
0.268794
0.276449
0.284859
0.290437
0.296395
0.300182
0.30407
0.306329
0.308643
0.309686
0.310992
0.311191
0.311762
0.311354
0.312369
0.146565
0.374951
0.452019
0.466594
0.465742
0.462007
0.454392
0.446766
0.439022
0.431989
0.425235
0.419136
0.413312
0.4082
0.403098
0.399201
0.394357
0.392038
0.386784
0.386893
0.877224
1.12464
0.96906
0.779511
0.671297
0.614952
0.576509
0.550557
0.529032
0.511985
0.497836
0.485652
0.475995
0.467126
0.460297
0.453908
0.448503
0.445098
0.437567
0.442547
0.877224
1.12464
0.96906
0.779511
0.671297
0.614951
0.576509
0.550553
0.529032
0.511974
0.497837
0.485621
0.475993
0.467048
0.460274
0.453722
0.448406
0.444662
0.43725
0.441291
0.146565
0.374951
0.452019
0.466594
0.465742
0.462007
0.454395
0.446762
0.439028
0.43198
0.425249
0.419115
0.413343
0.40815
0.403168
0.399085
0.39448
0.391938
0.386916
0.386605
0.0277409
0.143134
0.209646
0.242164
0.256571
0.268792
0.276451
0.284856
0.290442
0.29639
0.300192
0.304061
0.306351
0.308629
0.309726
0.310988
0.311224
0.311817
0.311454
0.312517
0.0234457
0.119288
0.175026
0.204735
0.216454
0.224314
0.227672
0.231818
0.234441
0.238027
0.240865
0.244212
0.247129
0.25011
0.252862
0.255381
0.257805
0.259858
0.261951
0.264079
0.0224433
0.113728
0.164967
0.193827
0.204641
0.211756
0.213437
0.215679
0.216118
0.217259
0.217771
0.218905
0.219742
0.220882
0.222066
0.223102
0.22453
0.225472
0.226845
0.22824
0.0233908
0.117476
0.169202
0.197563
0.208614
0.215337
0.217131
0.218885
0.219081
0.219601
0.219688
0.219988
0.220203
0.220499
0.220903
0.221149
0.221675
0.221885
0.222347
0.223185
0.0227383
0.114944
0.166133
0.19451
0.205293
0.212064
0.213695
0.215465
0.215568
0.215979
0.215946
0.216088
0.216105
0.216222
0.216311
0.216373
0.216486
0.216512
0.216579
0.217074
0.0232764
0.117133
0.168832
0.197054
0.20795
0.214569
0.216308
0.218003
0.218148
0.218562
0.218552
0.218662
0.218685
0.218773
0.218858
0.218887
0.218963
0.218933
0.219008
0.219417
0.0229489
0.115807
0.167217
0.195468
0.206245
0.212912
0.214576
0.216306
0.216431
0.216849
0.21683
0.216954
0.216967
0.21706
0.217129
0.217175
0.21723
0.21723
0.217218
0.217608
0.0231317
0.116566
0.168164
0.196363
0.207166
0.213775
0.215464
0.217164
0.217301
0.217718
0.217708
0.217829
0.217852
0.217947
0.218026
0.218065
0.218135
0.218118
0.218154
0.218533
0.0231317
0.116566
0.168164
0.196363
0.207166
0.213775
0.215464
0.217164
0.217301
0.217718
0.217708
0.217829
0.217852
0.217947
0.218026
0.218066
0.218136
0.218121
0.218156
0.218536
0.0229489
0.115807
0.167217
0.195468
0.206245
0.212912
0.214576
0.216306
0.216431
0.216849
0.21683
0.216954
0.216967
0.21706
0.217129
0.217173
0.21723
0.217228
0.217216
0.217605
0.0232763
0.117133
0.168832
0.197054
0.20795
0.214569
0.216308
0.218003
0.218148
0.218562
0.218552
0.218663
0.218685
0.218773
0.218857
0.218888
0.218964
0.218936
0.21901
0.219419
0.0227382
0.114944
0.166133
0.19451
0.205293
0.212064
0.213695
0.215465
0.215568
0.215979
0.215946
0.216088
0.216104
0.216223
0.216309
0.216372
0.216484
0.216509
0.216576
0.217066
0.0233908
0.117476
0.169201
0.197563
0.208614
0.215337
0.217131
0.218886
0.219081
0.219601
0.219688
0.21999
0.220197
0.220506
0.220896
0.221148
0.221669
0.221882
0.22234
0.223164
0.0224433
0.113728
0.164966
0.193828
0.204641
0.211757
0.213437
0.215679
0.216118
0.21726
0.21777
0.218909
0.219733
0.220891
0.222049
0.223109
0.224507
0.225458
0.226814
0.228176
0.0234457
0.119288
0.175025
0.204735
0.216453
0.224315
0.22767
0.23182
0.234438
0.23803
0.240859
0.244217
0.247118
0.250114
0.252842
0.255372
0.257773
0.259823
0.261864
0.263941
0.0277409
0.143134
0.209645
0.242165
0.25657
0.268794
0.276449
0.284859
0.290437
0.296395
0.300182
0.30407
0.306329
0.308644
0.309686
0.310992
0.311191
0.311762
0.311354
0.312369
0.146565
0.374951
0.452019
0.466594
0.465742
0.462007
0.454392
0.446766
0.439022
0.431989
0.425235
0.419136
0.413312
0.4082
0.403098
0.399201
0.394357
0.392038
0.386784
0.386893
0.877224
1.12464
0.96906
0.779511
0.671297
0.614952
0.57651
0.550557
0.529032
0.511985
0.497837
0.485652
0.475995
0.467126
0.460297
0.453908
0.448502
0.445098
0.437567
0.442547
5.9692
6.7889
6.65809
6.50326
6.4792
6.4182
6.42
6.38446
6.39002
6.36555
6.37108
6.35297
6.35743
6.34346
6.34679
6.3354
6.33841
6.32717
6.32925
6.34325
4.06642
5.4019
5.55651
5.53154
5.50382
5.47564
5.46193
5.44589
5.43873
5.42844
5.42435
5.4171
5.41426
5.40836
5.40618
5.40104
5.39916
5.39527
5.39184
5.39028
3.5062
4.83806
5.06673
5.11978
5.13562
5.1444
5.14595
5.14851
5.14838
5.14948
5.14965
5.15041
5.15071
5.15056
5.15054
5.14875
5.14908
5.14453
5.14634
5.15652
3.44031
4.76746
4.98325
5.02902
5.04063
5.05177
5.05661
5.06439
5.06848
5.07478
5.0788
5.08403
5.08819
5.09193
5.09573
5.09691
5.09998
5.09782
5.10177
5.10125
3.40904
4.732
4.94528
4.98559
4.98818
4.99247
4.99221
4.99583
4.99802
5.00359
5.00706
5.013
5.01772
5.02336
5.0287
5.03239
5.03727
5.03804
5.04161
5.04937
3.42296
4.74944
4.96168
5.00105
5.00158
5.00249
4.99919
4.99978
4.99898
5.00136
5.00269
5.00659
5.00956
5.01461
5.01907
5.0236
5.02796
5.03029
5.03248
5.03964
3.41285
4.73649
4.94836
4.98764
4.98786
4.98821
4.98411
4.98374
4.98165
4.98289
4.98282
4.98506
4.98664
4.99072
4.994
4.99881
5.00211
5.00584
5.00759
5.01546
3.42213
4.7478
4.95897
4.99797
4.99818
4.99854
4.99438
4.99388
4.9915
4.99249
4.99196
4.99364
4.99449
4.99782
5.00032
5.00508
5.0077
5.01178
5.01296
5.02052
3.41751
4.74152
4.95248
4.99118
4.9913
4.99162
4.98748
4.98701
4.98465
4.98565
4.98505
4.98666
4.98727
4.99035
4.99252
4.99729
4.9996
5.00392
5.00496
5.0123
3.42104
4.7456
4.95629
4.99477
4.99482
4.99509
4.99094
4.99049
4.98814
4.98915
4.98853
4.99014
4.99068
4.99369
4.99575
5.00048
5.00273
5.00705
5.00812
5.01533
3.42104
4.7456
4.95629
4.99477
4.99482
4.99509
4.99094
4.99049
4.98814
4.98915
4.98853
4.99014
4.99068
4.99369
4.99575
5.00047
5.00274
5.00704
5.00812
5.01532
3.41751
4.74152
4.95248
4.99118
4.9913
4.99162
4.98747
4.98701
4.98465
4.98566
4.98504
4.98666
4.98726
4.99035
4.99253
4.99727
4.99963
5.00387
5.00504
5.0123
3.42213
4.7478
4.95897
4.99797
4.99818
4.99854
4.99437
4.99388
4.9915
4.9925
4.99195
4.99366
4.99448
4.99784
5.00029
5.0051
5.0077
5.01175
5.01296
5.02041
3.41285
4.73649
4.94836
4.98764
4.98786
4.98821
4.9841
4.98374
4.98164
4.98291
4.9828
4.9851
4.9866
4.99078
4.99387
4.99894
5.00198
5.00592
5.00765
5.01544
3.42296
4.74945
4.96168
5.00105
5.00157
5.0025
4.99918
4.9998
4.99896
5.0014
5.00266
5.00667
5.00939
5.01484
5.01876
5.02399
5.02747
5.03073
5.03221
5.03958
3.40904
4.732
4.94528
4.98559
4.98818
4.99248
4.9922
4.99585
4.998
5.00363
5.00696
5.01316
5.01748
5.02373
5.02815
5.03314
5.03629
5.03893
5.04091
5.05004
3.44031
4.76746
4.98325
5.02902
5.04063
5.05178
5.0566
5.06441
5.06844
5.07484
5.0787
5.08419
5.08794
5.09233
5.0951
5.09774
5.09883
5.09936
5.0993
5.10369
3.5062
4.83806
5.06672
5.11978
5.13562
5.14441
5.14594
5.14852
5.14837
5.14952
5.14962
5.15049
5.15057
5.15077
5.15023
5.14943
5.14808
5.14646
5.1431
5.16077
4.06642
5.4019
5.55651
5.53154
5.50382
5.47564
5.46193
5.44589
5.43872
5.42846
5.42432
5.41716
5.4142
5.40849
5.40599
5.40147
5.39844
5.39659
5.38949
5.39573
5.9692
6.7889
6.65809
6.50326
6.4792
6.4182
6.42
6.38446
6.39002
6.36556
6.37107
6.353
6.35741
6.34354
6.34672
6.33566
6.33816
6.32801
6.32821
6.34704
75.5879
79.7873
79.7281
79.7434
79.6783
79.6932
79.6565
79.6785
79.6554
79.679
79.6638
79.6838
79.6725
79.6862
79.6766
79.6807
79.6794
79.6617
79.7315
79.7648
17.7219
16.1034
15.0342
14.6311
14.4778
14.4436
14.3895
14.3903
14.3635
14.3676
14.353
14.3578
14.3464
14.3502
14.3408
14.3425
14.3364
14.3323
14.3859
14.3859
6.92323
6.88048
6.61715
6.42574
6.33204
6.29896
6.26098
6.25071
6.2284
6.22394
6.20929
6.20715
6.19637
6.19482
6.18604
6.18397
6.17653
6.17289
6.17036
6.18589
4.92977
5.51922
5.57435
5.56956
5.55207
5.54561
5.53019
5.52525
5.51379
5.51069
5.50269
5.50098
5.4956
5.49425
5.49013
5.4875
5.48428
5.47893
5.47764
5.48528
4.51798
5.27383
5.40917
5.45199
5.45532
5.46437
5.45999
5.46291
5.45854
5.46096
5.45773
5.46025
5.45848
5.46118
5.46035
5.46193
5.46103
5.46022
5.45852
5.46532
4.46413
5.24335
5.39676
5.452
5.46215
5.47966
5.47981
5.48811
5.48787
5.4948
5.49481
5.50095
5.50167
5.50801
5.50956
5.51547
5.51649
5.52005
5.52033
5.52816
4.44641
5.2254
5.38055
5.43882
5.45189
5.47307
5.47621
5.48872
5.49129
5.50229
5.50485
5.51463
5.51743
5.52707
5.53067
5.54028
5.54339
5.55089
5.55266
5.56339
4.45522
5.2279
5.38251
5.44128
5.456
5.47913
5.48416
5.4994
5.504
5.51799
5.52255
5.53517
5.53973
5.55199
5.55733
5.56975
5.57488
5.58498
5.58963
5.60093
4.4531
5.22234
5.37556
5.43351
5.44822
5.47172
5.47736
5.49363
5.49919
5.51463
5.52036
5.5347
5.54047
5.55447
5.56109
5.57534
5.58214
5.59385
5.60008
5.6131
4.45717
5.22383
5.37647
5.4342
5.44898
5.47261
5.47846
5.49507
5.501
5.51702
5.52325
5.53833
5.54467
5.55948
5.56677
5.58182
5.58968
5.60177
5.60967
5.62249
4.45717
5.22383
5.37647
5.4342
5.44898
5.47261
5.47846
5.49507
5.501
5.51702
5.52325
5.53833
5.54467
5.55948
5.56678
5.58182
5.5897
5.60177
5.6097
5.62252
4.4531
5.22234
5.37556
5.43351
5.44822
5.47172
5.47736
5.49363
5.49918
5.51464
5.52036
5.5347
5.54047
5.55447
5.56109
5.57533
5.5822
5.59381
5.60018
5.61313
4.45522
5.2279
5.38251
5.44128
5.45599
5.47913
5.48416
5.4994
5.504
5.518
5.52254
5.53518
5.53972
5.55201
5.55733
5.56977
5.57492
5.58497
5.58975
5.601
4.44641
5.2254
5.38055
5.43882
5.45189
5.47308
5.4762
5.48873
5.49127
5.50232
5.50483
5.51466
5.51739
5.52713
5.53062
5.54037
5.54337
5.55099
5.55278
5.56355
4.46413
5.24335
5.39676
5.45201
5.46214
5.47966
5.47981
5.48812
5.48785
5.49484
5.49478
5.50102
5.5016
5.50816
5.50943
5.51573
5.51629
5.52038
5.52012
5.5285
4.51798
5.27383
5.40917
5.45199
5.45532
5.46438
5.45998
5.46293
5.45852
5.461
5.45767
5.46035
5.45834
5.46142
5.46003
5.46246
5.46024
5.46122
5.4577
5.46663
4.92976
5.51923
5.57435
5.56957
5.55207
5.54561
5.53018
5.52527
5.51377
5.51073
5.50263
5.50107
5.49542
5.49449
5.48965
5.4883
5.48288
5.48122
5.47495
5.48823
6.92323
6.88048
6.61715
6.42575
6.33203
6.29897
6.26097
6.25072
6.22838
6.22397
6.20925
6.20722
6.19622
6.19503
6.18563
6.18458
6.17533
6.17493
6.16675
6.19209
17.7219
16.1035
15.0342
14.6311
14.4778
14.4436
14.3895
14.3903
14.3635
14.3676
14.3529
14.3579
14.3463
14.3505
14.3404
14.3433
14.3349
14.3348
14.3795
14.3971
75.5879
79.7873
79.7281
79.7434
79.6783
79.6933
79.6565
79.6786
79.6554
79.6792
79.6636
79.6842
79.672
79.6873
79.6748
79.6839
79.6738
79.6722
79.7094
79.8186
183.309
186.19
188.045
189.571
190.74
191.764
192.622
193.449
194.166
194.81
195.306
195.709
196.007
196.265
196.473
196.664
196.813
196.941
197.029
197.098
197.138
197.17
197.185
197.199
197.205
197.213
197.215
197.221
197.223
197.227
197.229
197.234
197.236
197.24
197.242
197.246
197.248
197.252
197.255
197.259
197.261
197.265
197.268
197.271
197.274
197.278
197.28
197.284
197.287
197.291
197.294
197.297
197.3
197.304
197.307
197.311
197.314
197.317
197.32
197.324
197.327
197.331
197.334
197.338
197.341
197.345
197.348
197.352
197.355
197.359
197.362
197.366
197.369
197.373
197.377
197.38
197.384
197.387
197.392
197.392
197.4
197.396
197.41
197.398
197.422
197.398
197.431
197.404
197.413
197.395
58.5494
59.8942
60.4654
60.9589
61.3164
61.6509
61.9145
62.1865
62.4079
62.6202
62.7721
62.9066
62.996
63.0832
63.1445
63.2095
63.2529
63.2972
63.3211
63.346
63.3551
63.3676
63.3689
63.3755
63.374
63.3782
63.3759
63.3792
63.3769
63.3798
63.3776
63.3802
63.3782
63.3806
63.3787
63.3809
63.3792
63.3813
63.3798
63.3817
63.3803
63.3822
63.3809
63.3827
63.3816
63.3832
63.3822
63.3838
63.383
63.3845
63.3838
63.3853
63.3847
63.3862
63.3857
63.3872
63.3868
63.3882
63.3879
63.3894
63.3892
63.3906
63.3905
63.3919
63.392
63.3934
63.3935
63.3949
63.3951
63.3965
63.3968
63.3982
63.3986
63.3999
63.4004
63.4017
63.4024
63.4035
63.4045
63.405
63.407
63.4061
63.4101
63.4063
63.4137
63.406
63.4161
63.4082
63.4034
63.3972
26.1936
27.2675
27.4914
27.7161
27.8566
28.0149
28.1176
28.2471
28.3357
28.4411
28.5032
28.5736
28.608
28.6552
28.6772
28.7137
28.729
28.756
28.7634
28.781
28.7819
28.7929
28.7905
28.7981
28.7945
28.8006
28.7968
28.8021
28.7984
28.8032
28.7998
28.8042
28.8011
28.8051
28.8022
28.8059
28.8031
28.8066
28.804
28.8072
28.8048
28.8077
28.8054
28.8082
28.8061
28.8086
28.8066
28.809
28.8071
28.8094
28.8076
28.8097
28.8081
28.8101
28.8086
28.8105
28.8091
28.8109
28.8096
28.8113
28.8101
28.8117
28.8107
28.8122
28.8113
28.8128
28.8119
28.8134
28.8127
28.8141
28.8134
28.8148
28.8143
28.8156
28.8152
28.8165
28.8162
28.8174
28.8173
28.8182
28.8185
28.8188
28.8201
28.8191
28.8218
28.8192
28.8229
28.8205
28.8159
28.8041
18.6808
19.8543
19.9994
20.1595
20.2487
20.367
20.428
20.5228
20.5779
20.6621
20.7056
20.7667
20.7898
20.831
20.8442
20.877
20.887
20.914
20.9195
20.9392
20.9398
20.9535
20.9513
20.9616
20.9583
20.967
20.9636
20.9715
20.9683
20.9756
20.9728
20.9796
20.977
20.9835
20.9811
20.9872
20.9851
20.9908
20.9888
20.9942
20.9924
20.9975
20.9959
21.0007
20.9992
21.0037
21.0023
21.0066
21.0054
21.0094
21.0082
21.0121
21.011
21.0146
21.0137
21.0171
21.0162
21.0195
21.0187
21.0218
21.0211
21.024
21.0234
21.0262
21.0256
21.0283
21.0279
21.0304
21.03
21.0325
21.0321
21.0345
21.0342
21.0365
21.0363
21.0384
21.0383
21.0403
21.0404
21.0421
21.0424
21.0437
21.0446
21.045
21.0468
21.0463
21.0485
21.0482
21.0468
21.0337
17.0855
18.3741
18.497
18.638
18.7139
18.8241
18.8715
18.9548
18.9982
19.0789
19.1203
19.184
19.2063
19.2484
19.2597
19.2932
19.3032
19.333
19.34
19.3632
19.3654
19.3819
19.3807
19.3931
19.3905
19.401
19.3981
19.4076
19.4049
19.4138
19.4114
19.4198
19.4177
19.4257
19.4239
19.4314
19.4298
19.437
19.4357
19.4425
19.4413
19.4478
19.4467
19.4529
19.452
19.4578
19.4571
19.4626
19.462
19.4673
19.4667
19.4718
19.4713
19.4761
19.4757
19.4803
19.48
19.4844
19.4841
19.4883
19.4881
19.4921
19.492
19.4958
19.4958
19.4994
19.4994
19.5029
19.503
19.5063
19.5064
19.5096
19.5098
19.5128
19.513
19.5159
19.5162
19.5189
19.5193
19.5217
19.5224
19.5244
19.5254
19.5268
19.5284
19.5292
19.5308
19.5318
19.5329
19.5201
16.8479
18.2732
18.3866
18.5178
18.5883
18.6979
18.7378
18.8137
18.8486
18.9275
18.9693
19.0378
19.0614
19.1057
19.1162
19.1506
19.1612
19.194
19.203
19.2299
19.2338
19.2532
19.2529
19.2672
19.265
19.2768
19.2742
19.2848
19.2823
19.2922
19.29
19.2994
19.2975
19.3065
19.3049
19.3134
19.312
19.3201
19.319
19.3267
19.3258
19.3332
19.3324
19.3394
19.3388
19.3454
19.3449
19.3513
19.3509
19.357
19.3567
19.3625
19.3623
19.3679
19.3678
19.373
19.373
19.3781
19.3781
19.383
19.3831
19.3877
19.3879
19.3923
19.3926
19.3968
19.3971
19.4012
19.4015
19.4054
19.4058
19.4096
19.41
19.4136
19.414
19.4175
19.418
19.4212
19.4218
19.4248
19.4256
19.4282
19.4293
19.4314
19.4329
19.4347
19.4361
19.4379
19.4395
19.4265
16.8082
18.331
18.4437
18.5692
18.6343
18.7442
18.7779
18.8465
18.8727
18.9472
18.9882
19.0601
19.0845
19.1306
19.1398
19.1744
19.1849
19.2198
19.2303
19.2605
19.2659
19.2879
19.2884
19.3044
19.3026
19.3155
19.313
19.3245
19.3221
19.3329
19.3308
19.341
19.3392
19.349
19.3475
19.3568
19.3556
19.3644
19.3635
19.3719
19.3711
19.3792
19.3786
19.3863
19.3858
19.3931
19.3928
19.3998
19.3996
19.4063
19.4062
19.4126
19.4125
19.4187
19.4187
19.4246
19.4247
19.4303
19.4306
19.4359
19.4362
19.4414
19.4417
19.4467
19.4471
19.4518
19.4523
19.4568
19.4574
19.4617
19.4623
19.4665
19.4671
19.4711
19.4718
19.4756
19.4763
19.48
19.4808
19.4842
19.4851
19.4882
19.4894
19.4921
19.4934
19.4959
19.4972
19.4996
19.5019
19.4884
16.8771
18.49
18.6025
18.721
18.7815
18.8913
18.9199
18.9811
18.9986
19.067
19.106
19.1797
19.2043
19.251
19.2588
19.2927
19.3027
19.3388
19.3505
19.3831
19.3898
19.4139
19.4153
19.4326
19.4311
19.4449
19.4426
19.4547
19.4525
19.4638
19.4618
19.4726
19.471
19.4813
19.48
19.4898
19.4887
19.4981
19.4973
19.5063
19.5056
19.5142
19.5138
19.522
19.5217
19.5295
19.5293
19.5368
19.5368
19.5439
19.544
19.5508
19.551
19.5576
19.5578
19.5641
19.5644
19.5705
19.5709
19.5766
19.5771
19.5826
19.5832
19.5885
19.5891
19.5942
19.5949
19.5998
19.6005
19.6052
19.606
19.6105
19.6113
19.6157
19.6165
19.6207
19.6216
19.6256
19.6265
19.6303
19.6314
19.6348
19.6361
19.6392
19.6406
19.6436
19.6449
19.6477
19.6502
19.6366
16.9018
18.5651
18.6821
18.798
18.8546
18.9629
18.9863
19.0402
19.0497
19.1111
19.1468
19.2199
19.2436
19.2895
19.2956
19.328
19.3371
19.3734
19.3857
19.4197
19.4274
19.4528
19.4548
19.4729
19.4718
19.4861
19.4839
19.4965
19.4943
19.5061
19.5042
19.5153
19.5138
19.5245
19.5233
19.5334
19.5325
19.5423
19.5416
19.5509
19.5504
19.5593
19.559
19.5675
19.5674
19.5755
19.5755
19.5833
19.5834
19.5909
19.5911
19.5982
19.5985
19.6054
19.6058
19.6124
19.6128
19.6192
19.6197
19.6258
19.6264
19.6322
19.6329
19.6385
19.6392
19.6446
19.6454
19.6505
19.6514
19.6564
19.6573
19.662
19.663
19.6676
19.6686
19.673
19.674
19.6782
19.6793
19.6833
19.6845
19.6882
19.6895
19.6931
19.6944
19.6978
19.6991
19.702
19.705
19.6909
16.9325
18.6269
18.7452
18.8562
18.9065
19.0104
19.028
19.0744
19.0767
19.131
19.1627
19.2331
19.2547
19.2985
19.3025
19.3328
19.3408
19.3765
19.3888
19.4233
19.4313
19.4573
19.4595
19.4781
19.4771
19.4916
19.4895
19.5022
19.5001
19.512
19.5102
19.5214
19.52
19.5308
19.5296
19.54
19.5391
19.549
19.5484
19.5579
19.5574
19.5665
19.5663
19.575
19.5749
19.5832
19.5832
19.5912
19.5914
19.599
19.5993
19.6066
19.607
19.614
19.6145
19.6212
19.6218
19.6282
19.6288
19.635
19.6357
19.6417
19.6425
19.6482
19.649
19.6545
19.6554
19.6607
19.6616
19.6667
19.6677
19.6726
19.6736
19.6784
19.6794
19.684
19.6851
19.6894
19.6906
19.6947
19.696
19.6999
19.7012
19.7049
19.7063
19.7098
19.7112
19.7143
19.7173
19.7036
16.9334
18.6265
18.7397
18.8437
18.8868
18.9827
18.9935
19.032
19.0284
19.0764
19.1035
19.1693
19.1876
19.2281
19.2299
19.2581
19.2649
19.2994
19.3111
19.3451
19.3529
19.3787
19.3809
19.3993
19.3983
19.4128
19.4107
19.4234
19.4213
19.4331
19.4313
19.4426
19.4412
19.4519
19.4508
19.4611
19.4603
19.4702
19.4696
19.479
19.4786
19.4877
19.4875
19.4962
19.4961
19.5044
19.5045
19.5124
19.5126
19.5203
19.5206
19.5279
19.5283
19.5353
19.5358
19.5425
19.5431
19.5495
19.5502
19.5564
19.5571
19.563
19.5638
19.5696
19.5704
19.5759
19.5768
19.5821
19.583
19.5882
19.5892
19.5941
19.5951
19.5999
19.6009
19.6055
19.6066
19.611
19.6122
19.6163
19.6175
19.6215
19.6228
19.6266
19.6278
19.6315
19.6328
19.6359
19.639
19.6255
16.9049
18.5636
18.6652
18.7595
18.7933
18.8773
18.8802
18.9106
18.9026
18.9454
18.9675
19.027
19.0411
19.077
19.0767
19.1027
19.1083
19.1412
19.1519
19.1845
19.1915
19.2164
19.2181
19.2361
19.2349
19.2491
19.2469
19.2594
19.2573
19.269
19.2671
19.2782
19.2767
19.2873
19.2862
19.2963
19.2955
19.3052
19.3045
19.3138
19.3134
19.3223
19.322
19.3306
19.3304
19.3386
19.3386
19.3464
19.3466
19.3541
19.3543
19.3615
19.3618
19.3687
19.3691
19.3757
19.3763
19.3826
19.3832
19.3893
19.3899
19.3957
19.3965
19.4021
19.4029
19.4083
19.4091
19.4143
19.4152
19.4202
19.4211
19.4259
19.4269
19.4316
19.4326
19.437
19.4381
19.4423
19.4435
19.4475
19.4487
19.4526
19.4537
19.4575
19.4586
19.4622
19.4635
19.4665
19.4694
19.4563
16.8815
18.4802
18.5602
18.6406
18.6634
18.7325
18.7272
18.7508
18.7395
18.778
18.7953
18.8474
18.8569
18.8877
18.8856
18.9095
18.914
18.9448
18.9541
18.9844
18.9902
19.0134
19.0145
19.0314
19.0299
19.0435
19.0412
19.0533
19.0511
19.0623
19.0604
19.0711
19.0696
19.0798
19.0785
19.0883
19.0873
19.0967
19.096
19.1049
19.1044
19.1129
19.1126
19.1208
19.1205
19.1284
19.1283
19.1358
19.1358
19.143
19.1432
19.15
19.1503
19.1569
19.1572
19.1635
19.1639
19.17
19.1705
19.1763
19.1768
19.1824
19.183
19.1884
19.189
19.1942
19.1949
19.1999
19.2007
19.2054
19.2062
19.2108
19.2117
19.2161
19.217
19.2213
19.2222
19.2263
19.2273
19.2311
19.2322
19.2359
19.2369
19.2405
19.2415
19.245
19.2461
19.249
19.2515
19.2394
16.8129
18.3034
18.3627
18.4287
18.4397
18.4926
18.4798
18.4983
18.4855
18.5204
18.5328
18.5769
18.5816
18.6072
18.6037
18.6258
18.6291
18.6574
18.6648
18.6921
18.6963
18.7172
18.7174
18.733
18.7311
18.7438
18.7414
18.7528
18.7505
18.7611
18.7591
18.7693
18.7676
18.7773
18.7759
18.7852
18.7841
18.7929
18.792
18.8005
18.7998
18.8079
18.8074
18.8151