/*--------------------------------*- C++ -*----------------------------------*\
  =========                 |
  \\      /  F ield         | OpenFOAM: The Open Source CFD Toolbox
   \\    /   O peration     | Website:  https://openfoam.org
    \\  /    A nd           | Version:  7
     \\/     M anipulation  |
\*---------------------------------------------------------------------------*/
FoamFile
{
    version     2.0;
    format      ascii;
    class       volScalarField;
    location    "1.355";
    object      pPrime2Mean;
}
// * * * * * * * * * * * * * * * * * * * * * * * * * * * * * * * * * * * * * //

dimensions      [2 -2 -4 0 0 0 0];

internalField   nonuniform List<scalar> 
7920
(
1.25364e+06
1.25219e+06
1.25223e+06
1.25067e+06
1.2506e+06
1.24877e+06
1.24848e+06
1.24637e+06
1.24583e+06
1.24351e+06
1.24275e+06
1.2403e+06
1.23936e+06
1.23682e+06
1.23573e+06
1.23311e+06
1.23189e+06
1.22919e+06
1.22789e+06
1.22531e+06
1.25356e+06
1.25208e+06
1.25207e+06
1.25048e+06
1.2504e+06
1.24854e+06
1.24824e+06
1.24612e+06
1.24557e+06
1.24325e+06
1.24248e+06
1.24002e+06
1.23908e+06
1.23653e+06
1.23543e+06
1.23281e+06
1.23158e+06
1.22887e+06
1.22757e+06
1.22499e+06
1.25356e+06
1.25205e+06
1.25204e+06
1.25046e+06
1.25038e+06
1.24854e+06
1.24825e+06
1.24616e+06
1.24563e+06
1.24332e+06
1.24256e+06
1.24012e+06
1.23918e+06
1.23664e+06
1.23555e+06
1.23292e+06
1.23169e+06
1.22899e+06
1.22766e+06
1.22505e+06
1.25356e+06
1.25205e+06
1.25204e+06
1.25045e+06
1.25037e+06
1.24852e+06
1.24822e+06
1.2461e+06
1.24556e+06
1.24325e+06
1.24249e+06
1.24004e+06
1.2391e+06
1.23655e+06
1.23547e+06
1.23284e+06
1.23161e+06
1.2289e+06
1.22758e+06
1.22489e+06
1.25357e+06
1.25205e+06
1.25204e+06
1.25045e+06
1.25035e+06
1.24851e+06
1.24821e+06
1.24611e+06
1.24558e+06
1.24327e+06
1.24252e+06
1.24007e+06
1.23914e+06
1.2366e+06
1.23552e+06
1.2329e+06
1.23167e+06
1.22896e+06
1.22762e+06
1.22492e+06
1.25356e+06
1.25204e+06
1.25202e+06
1.25043e+06
1.25034e+06
1.2485e+06
1.2482e+06
1.24609e+06
1.24556e+06
1.24325e+06
1.2425e+06
1.24005e+06
1.23912e+06
1.23658e+06
1.23549e+06
1.23287e+06
1.23164e+06
1.22893e+06
1.22759e+06
1.22488e+06
1.25356e+06
1.25204e+06
1.25202e+06
1.25043e+06
1.25034e+06
1.2485e+06
1.2482e+06
1.24609e+06
1.24556e+06
1.24325e+06
1.2425e+06
1.24005e+06
1.23912e+06
1.23658e+06
1.23549e+06
1.23287e+06
1.23164e+06
1.22893e+06
1.22759e+06
1.22488e+06
1.25357e+06
1.25205e+06
1.25204e+06
1.25045e+06
1.25035e+06
1.24851e+06
1.24821e+06
1.24611e+06
1.24558e+06
1.24327e+06
1.24252e+06
1.24007e+06
1.23914e+06
1.2366e+06
1.23552e+06
1.2329e+06
1.23167e+06
1.22896e+06
1.22762e+06
1.22492e+06
1.25356e+06
1.25205e+06
1.25204e+06
1.25045e+06
1.25037e+06
1.24852e+06
1.24822e+06
1.2461e+06
1.24556e+06
1.24325e+06
1.24249e+06
1.24004e+06
1.2391e+06
1.23656e+06
1.23547e+06
1.23284e+06
1.23161e+06
1.2289e+06
1.22758e+06
1.22489e+06
1.25356e+06
1.25205e+06
1.25204e+06
1.25046e+06
1.25038e+06
1.24854e+06
1.24825e+06
1.24616e+06
1.24563e+06
1.24332e+06
1.24256e+06
1.24012e+06
1.23918e+06
1.23664e+06
1.23555e+06
1.23292e+06
1.23169e+06
1.22899e+06
1.22766e+06
1.22505e+06
1.25356e+06
1.25208e+06
1.25207e+06
1.25048e+06
1.2504e+06
1.24854e+06
1.24824e+06
1.24612e+06
1.24557e+06
1.24325e+06
1.24248e+06
1.24002e+06
1.23908e+06
1.23653e+06
1.23543e+06
1.23281e+06
1.23158e+06
1.22887e+06
1.22757e+06
1.22499e+06
1.25364e+06
1.25219e+06
1.25223e+06
1.25067e+06
1.2506e+06
1.24877e+06
1.24848e+06
1.24637e+06
1.24583e+06
1.24351e+06
1.24275e+06
1.2403e+06
1.23936e+06
1.23682e+06
1.23573e+06
1.23311e+06
1.23189e+06
1.22919e+06
1.22788e+06
1.22531e+06
1.25247e+06
1.25064e+06
1.25106e+06
1.24917e+06
1.24947e+06
1.24731e+06
1.24738e+06
1.24501e+06
1.24483e+06
1.2423e+06
1.24189e+06
1.23924e+06
1.23863e+06
1.23592e+06
1.23513e+06
1.23238e+06
1.23142e+06
1.22861e+06
1.22753e+06
1.22475e+06
1.25255e+06
1.25064e+06
1.25107e+06
1.2492e+06
1.24952e+06
1.2474e+06
1.2475e+06
1.24516e+06
1.24501e+06
1.24249e+06
1.24209e+06
1.23946e+06
1.23885e+06
1.23615e+06
1.23536e+06
1.23262e+06
1.23165e+06
1.22886e+06
1.22779e+06
1.22505e+06
1.25254e+06
1.25066e+06
1.2511e+06
1.24921e+06
1.24953e+06
1.24738e+06
1.24746e+06
1.24509e+06
1.24493e+06
1.2424e+06
1.24199e+06
1.23936e+06
1.23875e+06
1.23605e+06
1.23525e+06
1.2325e+06
1.23153e+06
1.22872e+06
1.22764e+06
1.22477e+06
1.25258e+06
1.25066e+06
1.25107e+06
1.24916e+06
1.24948e+06
1.24735e+06
1.24745e+06
1.24511e+06
1.24496e+06
1.24245e+06
1.24206e+06
1.23944e+06
1.23884e+06
1.23614e+06
1.23536e+06
1.23261e+06
1.23164e+06
1.22884e+06
1.22775e+06
1.22491e+06
1.25257e+06
1.25065e+06
1.25106e+06
1.24916e+06
1.24948e+06
1.24734e+06
1.24743e+06
1.24508e+06
1.24493e+06
1.24241e+06
1.24201e+06
1.23938e+06
1.23878e+06
1.23608e+06
1.23529e+06
1.23254e+06
1.23158e+06
1.22876e+06
1.22768e+06
1.22478e+06
1.25258e+06
1.25066e+06
1.25107e+06
1.24916e+06
1.24947e+06
1.24734e+06
1.24743e+06
1.24509e+06
1.24494e+06
1.24243e+06
1.24204e+06
1.23941e+06
1.23881e+06
1.23611e+06
1.23533e+06
1.23258e+06
1.23161e+06
1.2288e+06
1.22771e+06
1.22483e+06
1.25258e+06
1.25066e+06
1.25107e+06
1.24916e+06
1.24947e+06
1.24734e+06
1.24743e+06
1.24509e+06
1.24494e+06
1.24243e+06
1.24204e+06
1.23941e+06
1.23881e+06
1.23611e+06
1.23533e+06
1.23258e+06
1.23161e+06
1.2288e+06
1.22771e+06
1.22483e+06
1.25257e+06
1.25065e+06
1.25106e+06
1.24916e+06
1.24948e+06
1.24734e+06
1.24743e+06
1.24508e+06
1.24493e+06
1.24241e+06
1.24201e+06
1.23938e+06
1.23878e+06
1.23608e+06
1.23529e+06
1.23254e+06
1.23158e+06
1.22876e+06
1.22768e+06
1.22478e+06
1.25258e+06
1.25066e+06
1.25107e+06
1.24916e+06
1.24948e+06
1.24735e+06
1.24745e+06
1.24511e+06
1.24496e+06
1.24245e+06
1.24206e+06
1.23944e+06
1.23884e+06
1.23614e+06
1.23536e+06
1.23261e+06
1.23164e+06
1.22884e+06
1.22775e+06
1.22491e+06
1.25254e+06
1.25066e+06
1.2511e+06
1.24921e+06
1.24953e+06
1.24738e+06
1.24746e+06
1.24509e+06
1.24493e+06
1.2424e+06
1.24199e+06
1.23936e+06
1.23875e+06
1.23605e+06
1.23525e+06
1.2325e+06
1.23153e+06
1.22872e+06
1.22764e+06
1.22477e+06
1.25255e+06
1.25064e+06
1.25107e+06
1.2492e+06
1.24952e+06
1.2474e+06
1.2475e+06
1.24516e+06
1.24501e+06
1.24249e+06
1.24209e+06
1.23946e+06
1.23885e+06
1.23615e+06
1.23536e+06
1.23262e+06
1.23165e+06
1.22887e+06
1.22779e+06
1.22505e+06
1.25247e+06
1.25064e+06
1.25106e+06
1.24917e+06
1.24947e+06
1.24731e+06
1.24738e+06
1.24501e+06
1.24483e+06
1.2423e+06
1.24189e+06
1.23924e+06
1.23863e+06
1.23592e+06
1.23513e+06
1.23238e+06
1.23142e+06
1.22861e+06
1.22753e+06
1.22475e+06
1.25235e+06
1.25053e+06
1.25075e+06
1.24897e+06
1.24924e+06
1.24728e+06
1.24734e+06
1.24509e+06
1.24488e+06
1.24244e+06
1.24201e+06
1.23944e+06
1.23882e+06
1.23615e+06
1.23537e+06
1.23261e+06
1.23168e+06
1.22881e+06
1.2278e+06
1.22497e+06
1.25239e+06
1.25054e+06
1.25076e+06
1.24896e+06
1.24922e+06
1.24725e+06
1.24731e+06
1.24508e+06
1.24488e+06
1.24245e+06
1.24203e+06
1.23946e+06
1.23885e+06
1.23618e+06
1.2354e+06
1.23264e+06
1.2317e+06
1.22883e+06
1.22781e+06
1.22495e+06
1.2524e+06
1.25055e+06
1.25077e+06
1.24897e+06
1.24921e+06
1.24724e+06
1.2473e+06
1.24507e+06
1.24488e+06
1.24245e+06
1.24204e+06
1.23947e+06
1.23886e+06
1.23619e+06
1.23541e+06
1.23265e+06
1.23171e+06
1.22884e+06
1.22781e+06
1.22491e+06
1.25242e+06
1.25056e+06
1.25077e+06
1.24896e+06
1.2492e+06
1.24722e+06
1.24728e+06
1.24505e+06
1.24487e+06
1.24244e+06
1.24203e+06
1.23947e+06
1.23886e+06
1.2362e+06
1.23542e+06
1.23266e+06
1.23172e+06
1.22885e+06
1.22782e+06
1.22492e+06
1.25242e+06
1.25056e+06
1.25078e+06
1.24896e+06
1.2492e+06
1.24722e+06
1.24728e+06
1.24505e+06
1.24487e+06
1.24244e+06
1.24203e+06
1.23946e+06
1.23886e+06
1.2362e+06
1.23542e+06
1.23266e+06
1.23172e+06
1.22885e+06
1.22782e+06
1.22491e+06
1.25243e+06
1.25057e+06
1.25078e+06
1.24896e+06
1.2492e+06
1.24721e+06
1.24727e+06
1.24505e+06
1.24486e+06
1.24244e+06
1.24203e+06
1.23946e+06
1.23886e+06
1.2362e+06
1.23542e+06
1.23266e+06
1.23172e+06
1.22885e+06
1.22782e+06
1.22491e+06
1.25243e+06
1.25057e+06
1.25078e+06
1.24896e+06
1.2492e+06
1.24721e+06
1.24727e+06
1.24505e+06
1.24486e+06
1.24244e+06
1.24203e+06
1.23946e+06
1.23886e+06
1.2362e+06
1.23542e+06
1.23266e+06
1.23172e+06
1.22885e+06
1.22782e+06
1.22491e+06
1.25242e+06
1.25056e+06
1.25078e+06
1.24896e+06
1.2492e+06
1.24722e+06
1.24728e+06
1.24505e+06
1.24487e+06
1.24244e+06
1.24203e+06
1.23946e+06
1.23886e+06
1.2362e+06
1.23542e+06
1.23266e+06
1.23172e+06
1.22885e+06
1.22782e+06
1.22491e+06
1.25242e+06
1.25056e+06
1.25077e+06
1.24896e+06
1.2492e+06
1.24722e+06
1.24728e+06
1.24505e+06
1.24487e+06
1.24244e+06
1.24203e+06
1.23947e+06
1.23886e+06
1.2362e+06
1.23542e+06
1.23266e+06
1.23172e+06
1.22885e+06
1.22782e+06
1.22492e+06
1.2524e+06
1.25055e+06
1.25077e+06
1.24897e+06
1.24921e+06
1.24724e+06
1.2473e+06
1.24507e+06
1.24488e+06
1.24245e+06
1.24204e+06
1.23947e+06
1.23886e+06
1.23619e+06
1.23541e+06
1.23265e+06
1.23171e+06
1.22884e+06
1.22781e+06
1.22491e+06
1.25239e+06
1.25054e+06
1.25076e+06
1.24896e+06
1.24922e+06
1.24725e+06
1.24731e+06
1.24508e+06
1.24488e+06
1.24245e+06
1.24203e+06
1.23946e+06
1.23885e+06
1.23618e+06
1.2354e+06
1.23264e+06
1.2317e+06
1.22883e+06
1.22781e+06
1.22495e+06
1.25235e+06
1.25053e+06
1.25075e+06
1.24897e+06
1.24924e+06
1.24728e+06
1.24734e+06
1.24509e+06
1.24488e+06
1.24244e+06
1.24201e+06
1.23944e+06
1.23882e+06
1.23615e+06
1.23537e+06
1.23261e+06
1.23167e+06
1.22881e+06
1.2278e+06
1.22498e+06
1.25235e+06
1.25053e+06
1.25075e+06
1.24897e+06
1.24924e+06
1.24728e+06
1.24734e+06
1.24509e+06
1.24488e+06
1.24244e+06
1.24201e+06
1.23944e+06
1.23882e+06
1.23615e+06
1.23537e+06
1.23261e+06
1.23168e+06
1.22881e+06
1.2278e+06
1.22497e+06
1.25239e+06
1.25054e+06
1.25076e+06
1.24896e+06
1.24922e+06
1.24725e+06
1.24731e+06
1.24508e+06
1.24488e+06
1.24245e+06
1.24203e+06
1.23946e+06
1.23885e+06
1.23618e+06
1.2354e+06
1.23264e+06
1.2317e+06
1.22883e+06
1.22781e+06
1.22495e+06
1.2524e+06
1.25055e+06
1.25077e+06
1.24897e+06
1.24921e+06
1.24724e+06
1.2473e+06
1.24507e+06
1.24488e+06
1.24245e+06
1.24204e+06
1.23947e+06
1.23886e+06
1.23619e+06
1.23541e+06
1.23265e+06
1.23171e+06
1.22884e+06
1.22781e+06
1.22491e+06
1.25242e+06
1.25056e+06
1.25077e+06
1.24896e+06
1.2492e+06
1.24722e+06
1.24728e+06
1.24505e+06
1.24487e+06
1.24244e+06
1.24203e+06
1.23947e+06
1.23886e+06
1.2362e+06
1.23542e+06
1.23266e+06
1.23172e+06
1.22885e+06
1.22782e+06
1.22492e+06
1.25242e+06
1.25056e+06
1.25078e+06
1.24896e+06
1.2492e+06
1.24722e+06
1.24728e+06
1.24505e+06
1.24487e+06
1.24244e+06
1.24203e+06
1.23946e+06
1.23886e+06
1.2362e+06
1.23542e+06
1.23266e+06
1.23172e+06
1.22885e+06
1.22782e+06
1.22491e+06
1.25243e+06
1.25057e+06
1.25078e+06
1.24896e+06
1.2492e+06
1.24721e+06
1.24727e+06
1.24505e+06
1.24486e+06
1.24244e+06
1.24203e+06
1.23946e+06
1.23886e+06
1.2362e+06
1.23542e+06
1.23266e+06
1.23172e+06
1.22885e+06
1.22782e+06
1.22491e+06
1.25243e+06
1.25057e+06
1.25078e+06
1.24896e+06
1.2492e+06
1.24721e+06
1.24727e+06
1.24505e+06
1.24486e+06
1.24244e+06
1.24203e+06
1.23946e+06
1.23886e+06
1.2362e+06
1.23542e+06
1.23266e+06
1.23172e+06
1.22885e+06
1.22782e+06
1.22491e+06
1.25242e+06
1.25056e+06
1.25078e+06
1.24896e+06
1.2492e+06
1.24722e+06
1.24728e+06
1.24505e+06
1.24487e+06
1.24244e+06
1.24203e+06
1.23946e+06
1.23886e+06
1.2362e+06
1.23542e+06
1.23266e+06
1.23172e+06
1.22885e+06
1.22782e+06
1.22491e+06
1.25242e+06
1.25056e+06
1.25077e+06
1.24896e+06
1.2492e+06
1.24722e+06
1.24728e+06
1.24505e+06
1.24487e+06
1.24244e+06
1.24203e+06
1.23947e+06
1.23886e+06
1.2362e+06
1.23542e+06
1.23266e+06
1.23172e+06
1.22885e+06
1.22782e+06
1.22492e+06
1.2524e+06
1.25055e+06
1.25077e+06
1.24897e+06
1.24921e+06
1.24724e+06
1.2473e+06
1.24507e+06
1.24488e+06
1.24245e+06
1.24204e+06
1.23947e+06
1.23886e+06
1.23619e+06
1.23541e+06
1.23265e+06
1.23171e+06
1.22884e+06
1.22781e+06
1.22491e+06
1.25239e+06
1.25054e+06
1.25076e+06
1.24896e+06
1.24922e+06
1.24725e+06
1.24731e+06
1.24508e+06
1.24488e+06
1.24245e+06
1.24203e+06
1.23946e+06
1.23885e+06
1.23618e+06
1.2354e+06
1.23264e+06
1.2317e+06
1.22883e+06
1.22781e+06
1.22495e+06
1.25235e+06
1.25053e+06
1.25075e+06
1.24897e+06
1.24924e+06
1.24728e+06
1.24734e+06
1.24509e+06
1.24488e+06
1.24244e+06
1.24201e+06
1.23944e+06
1.23882e+06
1.23615e+06
1.23537e+06
1.23261e+06
1.23167e+06
1.22881e+06
1.2278e+06
1.22498e+06
1.25247e+06
1.25064e+06
1.25106e+06
1.24917e+06
1.24947e+06
1.24731e+06
1.24738e+06
1.24501e+06
1.24483e+06
1.2423e+06
1.24189e+06
1.23924e+06
1.23863e+06
1.23592e+06
1.23513e+06
1.23238e+06
1.23142e+06
1.22861e+06
1.22753e+06
1.22475e+06
1.25255e+06
1.25064e+06
1.25107e+06
1.2492e+06
1.24952e+06
1.2474e+06
1.2475e+06
1.24516e+06
1.24501e+06
1.24249e+06
1.24209e+06
1.23946e+06
1.23885e+06
1.23615e+06
1.23536e+06
1.23262e+06
1.23165e+06
1.22886e+06
1.22779e+06
1.22505e+06
1.25254e+06
1.25066e+06
1.2511e+06
1.24921e+06
1.24953e+06
1.24738e+06
1.24746e+06
1.24509e+06
1.24493e+06
1.2424e+06
1.242e+06
1.23936e+06
1.23875e+06
1.23605e+06
1.23525e+06
1.2325e+06
1.23153e+06
1.22872e+06
1.22764e+06
1.22477e+06
1.25258e+06
1.25066e+06
1.25107e+06
1.24916e+06
1.24948e+06
1.24735e+06
1.24745e+06
1.24511e+06
1.24496e+06
1.24245e+06
1.24206e+06
1.23944e+06
1.23884e+06
1.23614e+06
1.23536e+06
1.23261e+06
1.23164e+06
1.22884e+06
1.22775e+06
1.22491e+06
1.25257e+06
1.25065e+06
1.25106e+06
1.24916e+06
1.24948e+06
1.24734e+06
1.24743e+06
1.24508e+06
1.24493e+06
1.24241e+06
1.24201e+06
1.23938e+06
1.23878e+06
1.23608e+06
1.23529e+06
1.23254e+06
1.23158e+06
1.22876e+06
1.22768e+06
1.22478e+06
1.25258e+06
1.25066e+06
1.25107e+06
1.24916e+06
1.24947e+06
1.24734e+06
1.24743e+06
1.24509e+06
1.24494e+06
1.24243e+06
1.24204e+06
1.23941e+06
1.23881e+06
1.23611e+06
1.23533e+06
1.23258e+06
1.23161e+06
1.2288e+06
1.22771e+06
1.22483e+06
1.25258e+06
1.25066e+06
1.25107e+06
1.24916e+06
1.24947e+06
1.24734e+06
1.24743e+06
1.24509e+06
1.24494e+06
1.24243e+06
1.24204e+06
1.23941e+06
1.23881e+06
1.23611e+06
1.23533e+06
1.23258e+06
1.23161e+06
1.2288e+06
1.22771e+06
1.22483e+06
1.25257e+06
1.25065e+06
1.25106e+06
1.24916e+06
1.24948e+06
1.24734e+06
1.24743e+06
1.24508e+06
1.24493e+06
1.24241e+06
1.24201e+06
1.23938e+06
1.23878e+06
1.23608e+06
1.23529e+06
1.23254e+06
1.23158e+06
1.22876e+06
1.22768e+06
1.22478e+06
1.25258e+06
1.25066e+06
1.25107e+06
1.24916e+06
1.24948e+06
1.24735e+06
1.24745e+06
1.24511e+06
1.24496e+06
1.24245e+06
1.24206e+06
1.23944e+06
1.23884e+06
1.23614e+06
1.23536e+06
1.23261e+06
1.23164e+06
1.22884e+06
1.22775e+06
1.22491e+06
1.25254e+06
1.25066e+06
1.2511e+06
1.24921e+06
1.24953e+06
1.24738e+06
1.24746e+06
1.24509e+06
1.24493e+06
1.2424e+06
1.242e+06
1.23936e+06
1.23875e+06
1.23605e+06
1.23525e+06
1.2325e+06
1.23153e+06
1.22872e+06
1.22764e+06
1.22477e+06
1.25255e+06
1.25064e+06
1.25107e+06
1.2492e+06
1.24952e+06
1.2474e+06
1.2475e+06
1.24516e+06
1.24501e+06
1.24249e+06
1.24209e+06
1.23946e+06
1.23885e+06
1.23615e+06
1.23536e+06
1.23262e+06
1.23165e+06
1.22887e+06
1.22779e+06
1.22505e+06
1.25247e+06
1.25064e+06
1.25106e+06
1.24917e+06
1.24947e+06
1.24731e+06
1.24738e+06
1.24501e+06
1.24483e+06
1.2423e+06
1.24189e+06
1.23924e+06
1.23863e+06
1.23592e+06
1.23513e+06
1.23238e+06
1.23142e+06
1.22861e+06
1.22753e+06
1.22476e+06
1.25364e+06
1.2522e+06
1.25223e+06
1.25067e+06
1.2506e+06
1.24877e+06
1.24848e+06
1.24637e+06
1.24583e+06
1.24351e+06
1.24275e+06
1.2403e+06
1.23936e+06
1.23682e+06
1.23573e+06
1.23311e+06
1.23189e+06
1.22919e+06
1.22789e+06
1.22531e+06
1.25356e+06
1.25208e+06
1.25207e+06
1.25048e+06
1.2504e+06
1.24854e+06
1.24824e+06
1.24612e+06
1.24557e+06
1.24325e+06
1.24248e+06
1.24002e+06
1.23908e+06
1.23653e+06
1.23543e+06
1.23281e+06
1.23158e+06
1.22887e+06
1.22758e+06
1.22499e+06
1.25356e+06
1.25205e+06
1.25204e+06
1.25046e+06
1.25038e+06
1.24854e+06
1.24826e+06
1.24616e+06
1.24563e+06
1.24332e+06
1.24256e+06
1.24012e+06
1.23918e+06
1.23664e+06
1.23555e+06
1.23292e+06
1.23169e+06
1.22899e+06
1.22766e+06
1.22505e+06
1.25356e+06
1.25205e+06
1.25204e+06
1.25045e+06
1.25037e+06
1.24852e+06
1.24822e+06
1.2461e+06
1.24556e+06
1.24325e+06
1.24249e+06
1.24004e+06
1.2391e+06
1.23656e+06
1.23547e+06
1.23284e+06
1.23161e+06
1.2289e+06
1.22758e+06
1.22489e+06
1.25357e+06
1.25205e+06
1.25204e+06
1.25045e+06
1.25035e+06
1.24851e+06
1.24821e+06
1.24611e+06
1.24558e+06
1.24327e+06
1.24252e+06
1.24008e+06
1.23914e+06
1.2366e+06
1.23552e+06
1.2329e+06
1.23167e+06
1.22896e+06
1.22762e+06
1.22492e+06
1.25356e+06
1.25204e+06
1.25202e+06
1.25043e+06
1.25034e+06
1.2485e+06
1.2482e+06
1.24609e+06
1.24556e+06
1.24325e+06
1.2425e+06
1.24005e+06
1.23912e+06
1.23658e+06
1.23549e+06
1.23287e+06
1.23164e+06
1.22893e+06
1.22759e+06
1.22488e+06
1.25356e+06
1.25204e+06
1.25202e+06
1.25043e+06
1.25034e+06
1.2485e+06
1.2482e+06
1.24609e+06
1.24556e+06
1.24325e+06
1.2425e+06
1.24005e+06
1.23912e+06
1.23658e+06
1.23549e+06
1.23287e+06
1.23164e+06
1.22893e+06
1.22759e+06
1.22488e+06
1.25357e+06
1.25205e+06
1.25204e+06
1.25045e+06
1.25035e+06
1.24851e+06
1.24821e+06
1.24611e+06
1.24558e+06
1.24327e+06
1.24252e+06
1.24008e+06
1.23914e+06
1.2366e+06
1.23552e+06
1.2329e+06
1.23167e+06
1.22896e+06
1.22762e+06
1.22492e+06
1.25356e+06
1.25205e+06
1.25204e+06
1.25045e+06
1.25037e+06
1.24852e+06
1.24822e+06
1.2461e+06
1.24556e+06
1.24325e+06
1.24249e+06
1.24004e+06
1.2391e+06
1.23656e+06
1.23547e+06
1.23284e+06
1.23161e+06
1.2289e+06
1.22758e+06
1.22489e+06
1.25356e+06
1.25205e+06
1.25204e+06
1.25046e+06
1.25038e+06
1.24854e+06
1.24826e+06
1.24616e+06
1.24563e+06
1.24332e+06
1.24256e+06
1.24012e+06
1.23918e+06
1.23664e+06
1.23555e+06
1.23293e+06
1.23169e+06
1.229e+06
1.22766e+06
1.22505e+06
1.25356e+06
1.25208e+06
1.25207e+06
1.25048e+06
1.2504e+06
1.24854e+06
1.24824e+06
1.24612e+06
1.24557e+06
1.24325e+06
1.24248e+06
1.24002e+06
1.23908e+06
1.23653e+06
1.23543e+06
1.23281e+06
1.23158e+06
1.22887e+06
1.22757e+06
1.22499e+06
1.25364e+06
1.2522e+06
1.25223e+06
1.25067e+06
1.2506e+06
1.24877e+06
1.24848e+06
1.24637e+06
1.24583e+06
1.24351e+06
1.24275e+06
1.2403e+06
1.23936e+06
1.23682e+06
1.23573e+06
1.23311e+06
1.23189e+06
1.22919e+06
1.22788e+06
1.22531e+06
1.22187e+06
1.21014e+06
1.20439e+06
1.19219e+06
1.18529e+06
1.17247e+06
1.16461e+06
1.15126e+06
1.14254e+06
1.12872e+06
1.1192e+06
1.10496e+06
1.09471e+06
1.08008e+06
1.06917e+06
1.05418e+06
1.04265e+06
1.02733e+06
1.01524e+06
999623
987005
971117
958016
941882
928337
911982
898031
881478
867158
850431
835778
818900
803949
786945
771732
754627
739187
722007
706379
689156
673382
656151
640255
622993
606938
589658
573547
556352
540252
523174
507133
490210
474268
457527
441721
425189
409554
393257
377829
361793
346607
330859
315952
300520
285931
270845
256615
241905
228078
213780
200403
186553
173679
160318
148004
135184
123491
111263
100274
88709.3
78501.1
67680.2
58372.9
48394.5
40097.3
31174.4
24126.6
16229.5
10488.4
4660.01
1.22115e+06
1.20944e+06
1.20371e+06
1.19152e+06
1.18463e+06
1.17182e+06
1.16396e+06
1.15062e+06
1.1419e+06
1.12809e+06
1.11858e+06
1.10434e+06
1.0941e+06
1.07947e+06
1.06857e+06
1.05359e+06
1.04207e+06
1.02676e+06
1.01467e+06
999059
986447
970566
957471
941344
927805
911457
897513
880967
866654
849934
835288
818418
803474
786478
771273
754175
738743
721572
705952
688739
672973
655751
639864
622612
606565
589295
573194
556008
539918
522850
506819
489906
473974
457243
441447
424925
409300
393013
377594
361569
346392
330654
315756
300334
285754
270678
256457
241756
227938
213649
200280
186440
173573
160221
147914
135102
123416
111196
100213
88655.3
78453.2
67638.7
58337
48364.4
40072.2
31154.1
24110.6
16217.4
10478.7
4652.49
1.22114e+06
1.20942e+06
1.20365e+06
1.19146e+06
1.18456e+06
1.17175e+06
1.16388e+06
1.15054e+06
1.14182e+06
1.12801e+06
1.11849e+06
1.10426e+06
1.09402e+06
1.0794e+06
1.06849e+06
1.05351e+06
1.042e+06
1.02669e+06
1.01461e+06
999004
986395
970521
957429
941309
927774
911432
897492
880952
866643
849928
835285
818420
803479
786487
771284
754190
738760
721591
705973
688761
672996
655775
639889
622636
606590
589320
573218
556032
539941
522872
506840
489924
473991
457259
441461
424937
409310
393021
377600
361572
346393
330653
315753
300329
285747
270668
256445
241743
227923
213632
200262
186419
173552
160198
147891
135078
123392
111170
100188
88630.1
78428.7
67614.6
58314.2
48342.4
40052
31135.7
24094.7
16204.1
10469
4646.49
1.22097e+06
1.20932e+06
1.20357e+06
1.19139e+06
1.1845e+06
1.17168e+06
1.16382e+06
1.15048e+06
1.14176e+06
1.12795e+06
1.11844e+06
1.1042e+06
1.09396e+06
1.07933e+06
1.06843e+06
1.05345e+06
1.04193e+06
1.02662e+06
1.01454e+06
998931
986321
970443
957350
941227
927690
911345
897403
880861
866550
849834
835190
818323
803382
786389
771185
754091
738661
721492
705874
688663
672899
655679
639794
622543
606499
589230
573130
555946
539857
522791
506761
489849
473918
457188
441393
424872
409248
392962
377544
361519
346343
330606
315710
300288
285709
270634
256414
241714
227897
213609
200241
186401
173536
160185
147879
135069
123385
111165
100184
88628.2
78427.9
67615.1
58315.4
48344.7
40054.6
31138.6
24097.6
16206.7
10470.2
4646.84
1.22101e+06
1.20933e+06
1.20355e+06
1.19135e+06
1.18445e+06
1.17164e+06
1.16377e+06
1.15043e+06
1.1417e+06
1.12789e+06
1.11838e+06
1.10414e+06
1.0939e+06
1.07927e+06
1.06837e+06
1.05339e+06
1.04187e+06
1.02656e+06
1.01448e+06
998872
986262
970387
957294
941173
927637
911294
897353
880812
866502
849787
835144
818279
803338
786346
771143
754050
738620
721453
705835
688624
672861
655641
639756
622505
606461
589192
573092
555908
539819
522752
506722
489809
473878
457148
441353
424832
409207
392921
377503
361478
346302
330564
315668
300246
285667
270592
256372
241672
227856
213568
200200
186361
173497
160146
147842
135032
123349
111131
100151
88596.6
78398.1
67587
58289.5
48320.7
40033.2
31119.7
24081.5
16193.6
10460.7
4640.69
1.22097e+06
1.2093e+06
1.20353e+06
1.19135e+06
1.18446e+06
1.17165e+06
1.16379e+06
1.15044e+06
1.14172e+06
1.12791e+06
1.1184e+06
1.10416e+06
1.09392e+06
1.0793e+06
1.06839e+06
1.05341e+06
1.04189e+06
1.02658e+06
1.0145e+06
998892
986282
970405
957312
941189
927652
911308
897366
880825
866514
849798
835155
818288
803347
786355
771151
754057
738627
721459
705841
688630
672866
655646
639761
622510
606466
589197
573097
555913
539824
522757
506728
489815
473885
457155
441360
424839
409215
392929
377511
361487
346311
330574
315678
300256
285678
270602
256383
241684
227867
213579
200212
186373
173508
160158
147853
135043
123360
111142
100162
88607.2
78408.2
67596.7
58298.5
48329.2
40040.8
31126.5
24087.2
16198.3
10463.8
4642.67
1.22098e+06
1.2093e+06
1.20352e+06
1.19133e+06
1.18443e+06
1.17161e+06
1.16375e+06
1.1504e+06
1.14168e+06
1.12786e+06
1.11835e+06
1.10411e+06
1.09388e+06
1.07925e+06
1.06835e+06
1.05336e+06
1.04185e+06
1.02654e+06
1.01445e+06
998848
986238
970362
957269
941147
927611
911268
897327
880785
866475
849760
835117
818251
803311
786319
771116
754022
738593
721425
705808
688597
672834
655615
639730
622480
606436
589168
573069
555885
539797
522730
506701
489790
473859
457130
441336
424815
409192
392907
377489
361465
346290
330553
315658
300237
285659
270584
256365
241666
227851
213563
200197
186358
173494
160145
147840
135031
123349
111131
100152
88597.6
78399.4
67588.6
58291.1
48322.5
40035
31121.5
24083.2
16195
10461.5
4640.98
1.221e+06
1.20933e+06
1.20355e+06
1.19137e+06
1.18447e+06
1.17166e+06
1.1638e+06
1.15046e+06
1.14173e+06
1.12792e+06
1.11841e+06
1.10417e+06
1.09394e+06
1.07931e+06
1.06841e+06
1.05343e+06
1.04191e+06
1.0266e+06
1.01451e+06
998908
986297
970421
957328
941206
927669
911326
897384
880843
866533
849817
835174
818308
803367
786375
771171
754077
738647
721479
705861
688650
672886
655666
639780
622529
606484
589215
573115
555930
539841
522774
506743
489830
473899
457168
441373
424851
409227
392940
377521
361496
346319
330582
315685
300263
285683
270607
256387
241687
227870
213582
200214
186374
173509
160158
147853
135043
123360
111141
100161
88605.4
78406.3
67594.7
58296.5
48327.1
40038.8
31124.5
24085.5
16196.8
10462.9
4642.26
1.22098e+06
1.20931e+06
1.20355e+06
1.19135e+06
1.18445e+06
1.17163e+06
1.16377e+06
1.15042e+06
1.1417e+06
1.12788e+06
1.11837e+06
1.10413e+06
1.0939e+06
1.07927e+06
1.06837e+06
1.05339e+06
1.04187e+06
1.02656e+06
1.01448e+06
998871
986261
970385
957292
941170
927634
911290
897349
880807
866498
849782
835139
818273
803332
786340
771137
754044
738614
721447
705829
688619
672856
655637
639752
622502
606458
589191
573092
555908
539820
522754
506725
489814
473884
457155
441361
424841
409217
392932
377515
361491
346316
330580
315684
300263
285685
270610
256391
241692
227876
213589
200222
186383
173518
160168
147863
135054
123371
111152
100172
88616.6
78417.4
67605.4
58306.7
48336.8
40047.9
31132.9
24092.9
16202.9
10467.6
4644.79
1.22112e+06
1.2094e+06
1.20364e+06
1.19146e+06
1.18457e+06
1.17176e+06
1.1639e+06
1.15056e+06
1.14184e+06
1.12803e+06
1.11852e+06
1.10428e+06
1.09405e+06
1.07942e+06
1.06852e+06
1.05354e+06
1.04202e+06
1.02672e+06
1.01463e+06
999029
986419
970545
957453
941333
927797
911455
897514
880973
866664
849949
835306
818440
803499
786507
771303
754209
738778
721610
705991
688779
673014
655792
639906
622653
606607
589336
573234
556048
539956
522887
506855
489939
474006
457273
441475
424951
409324
393034
377613
361585
346406
330666
315766
300341
285759
270680
256457
241754
227934
213643
200272
186430
173562
160208
147900
135087
123401
111179
100196
88637.8
78436
67621.4
58320.5
48348.3
40057.3
31140.3
24098.6
16207.3
10471.3
4647.95
1.22115e+06
1.20941e+06
1.20366e+06
1.19146e+06
1.18457e+06
1.17175e+06
1.16389e+06
1.15054e+06
1.14182e+06
1.128e+06
1.1185e+06
1.10426e+06
1.09402e+06
1.07939e+06
1.06849e+06
1.05351e+06
1.04199e+06
1.02668e+06
1.01459e+06
998982
986371
970491
957397
941271
927734
911386
897443
880898
866586
849867
835222
818353
803411
786416
771211
754115
738683
721514
705894
688682
672917
655696
639810
622559
606513
589244
573144
555959
539870
522803
506773
489860
473930
457200
441405
424884
409260
392974
377556
361531
346355
330619
315722
300301
285722
270647
256426
241727
227911
213622
200254
186415
173549
160198
147893
135082
123398
111178
100197
88640
78439.3
67625.9
58325.6
48354.2
40063.4
31146.6
24104.6
16212.6
10475.3
4649.89
1.22184e+06
1.21012e+06
1.20439e+06
1.19221e+06
1.18533e+06
1.17251e+06
1.16466e+06
1.15132e+06
1.1426e+06
1.12878e+06
1.11927e+06
1.10502e+06
1.09478e+06
1.08014e+06
1.06924e+06
1.05424e+06
1.04272e+06
1.0274e+06
1.0153e+06
999688
987068
971180
958078
941943
928397
912041
898090
881536
867215
850487
835833
818955
804003
786998
771784
754678
739237
722057
706428
689204
673430
656197
640301
623038
606982
589701
573590
556393
540293
523214
507173
490248
474306
457564
441757
425225
409589
393291
377862
361825
346638
330889
315982
300549
285959
270872
256641
241930
228103
213803
200425
186575
173699
160338
148022
135201
123508
111279
100289
88722.8
78513.6
67691.6
58383.3
48403.8
40105.5
31181.4
24132.5
16234.4
10492.1
4662.37
1.22163e+06
1.20963e+06
1.20435e+06
1.19198e+06
1.18535e+06
1.17241e+06
1.16472e+06
1.15128e+06
1.14267e+06
1.12877e+06
1.11933e+06
1.10502e+06
1.09483e+06
1.08014e+06
1.06927e+06
1.05423e+06
1.04273e+06
1.02736e+06
1.01529e+06
999631
987025
971103
958010
941846
928308
911926
897981
881406
867092
850346
835699
818806
803861
786846
771638
754524
739091
721905
706284
689058
673292
656058
640171
622908
606861
589581
573479
556284
540193
523116
507085
490164
474231
457493
441696
425168
409542
393249
377829
361797
346620
330876
315977
300549
285968
270885
256663
241956
228137
213840
200470
186622
173754
160393
148084
135263
123575
111343
100357
88786.4
78579.2
67749.5
58439.9
48449.5
40144.9
31206.8
24145.9
16228.9
10465.4
4630.7
1.22237e+06
1.21032e+06
1.20503e+06
1.19267e+06
1.18604e+06
1.17311e+06
1.16543e+06
1.152e+06
1.14339e+06
1.1295e+06
1.12006e+06
1.10575e+06
1.09556e+06
1.08086e+06
1.06999e+06
1.05494e+06
1.04344e+06
1.02807e+06
1.01599e+06
1.00033e+06
987713
971783
958683
942510
928964
912574
898620
882036
867713
850957
836301
819398
804444
787418
772201
755076
739633
722436
706805
689567
673791
656546
640649
623374
607317
590025
573912
556705
540603
523515
507473
490540
474597
457847
442039
425499
409862
393557
378127
362083
346895
331139
316230
300791
286199
271105
256873
242155
228326
214019
200638
186780
173902
160531
148213
135381
123684
111443
100448
88868.2
78652.5
67814.1
58496.4
48497.6
40185.4
31239.8
24171.8
16248.1
10478.9
4640.11
1.2218e+06
1.20995e+06
1.20467e+06
1.19231e+06
1.18569e+06
1.17275e+06
1.16506e+06
1.15163e+06
1.14302e+06
1.12912e+06
1.11969e+06
1.10537e+06
1.09519e+06
1.08049e+06
1.06962e+06
1.05457e+06
1.04307e+06
1.0277e+06
1.01563e+06
999966
987357
971430
958334
942165
928622
912236
898286
881706
867387
850636
835983
819086
804135
787114
771902
754782
739344
722152
706526
689294
673523
656284
640392
623123
607071
589785
573678
556478
540382
523300
507263
490337
474400
457656
441855
425321
409691
393392
377968
361931
346749
331000
316097
300663
286078
270990
256764
242052
228228
213927
200552
186700
173827
160462
148149
135323
123630
111394
100404
88829.1
78617.7
67783.9
58470.3
48475.8
40167.4
31225.6
24161
16240.4
10473.8
4636.26
1.22216e+06
1.21024e+06
1.20496e+06
1.19259e+06
1.18597e+06
1.17303e+06
1.16535e+06
1.15191e+06
1.1433e+06
1.12941e+06
1.11997e+06
1.10566e+06
1.09547e+06
1.08078e+06
1.0699e+06
1.05485e+06
1.04335e+06
1.02798e+06
1.0159e+06
1.00024e+06
987629
971699
958600
942429
928883
912494
898541
881958
867635
850881
836225
819324
804370
787345
772130
755006
739564
722368
706738
689502
673727
656483
640587
623314
607257
589967
573855
556650
540549
523463
507422
490490
474548
457800
441994
425455
409820
393516
378087
362045
346858
331104
316197
300758
286168
271076
256845
242128
228300
213995
200616
186758
173882
160512
148195
135365
123669
111429
100436
88856.8
78642.3
67805
58488.4
48490.8
40179.6
31235.1
24168
16245.3
10477.6
4638.81
1.22186e+06
1.21004e+06
1.20476e+06
1.19241e+06
1.18579e+06
1.17286e+06
1.16517e+06
1.15173e+06
1.14312e+06
1.12923e+06
1.11979e+06
1.10548e+06
1.09529e+06
1.0806e+06
1.06972e+06
1.05468e+06
1.04317e+06
1.02781e+06
1.01573e+06
1.00007e+06
987456
971528
958430
942260
928717
912329
898378
881797
867476
850724
836070
819171
804219
787197
771983
754862
739422
722229
706601
689367
673595
656354
640460
623190
607136
589848