/*--------------------------------*- C++ -*----------------------------------*\
  =========                 |
  \\      /  F ield         | OpenFOAM: The Open Source CFD Toolbox
   \\    /   O peration     | Website:  https://openfoam.org
    \\  /    A nd           | Version:  7
     \\/     M anipulation  |
\*---------------------------------------------------------------------------*/
FoamFile
{
    version     2.0;
    format      ascii;
    class       volScalarField;
    location    "1.4375";
    object      k_0;
}
// * * * * * * * * * * * * * * * * * * * * * * * * * * * * * * * * * * * * * //

dimensions      [0 2 -2 0 0 0 0];

internalField   nonuniform List<scalar> 
4950
(
32.6446
37.0549
37.2157
37.2792
37.2364
37.2548
37.2091
37.2151
37.1757
37.1812
37.151
37.1584
37.1363
37.1445
37.1289
37.1347
37.1304
37.1205
37.1661
37.3543
9.02938
10.2498
10.1127
9.73979
9.46304
9.32568
9.22803
9.18398
9.13745
9.11744
9.08822
9.07683
9.05643
9.04946
9.0355
9.03009
9.03225
9.01062
9.19047
9.23626
5.70549
7.00478
7.30909
7.38568
7.39596
7.41528
7.41773
7.42871
7.42948
7.43663
7.43613
7.44107
7.44027
7.44449
7.44365
7.44765
7.44703
7.44933
7.45574
7.48587
5.45523
6.72157
7.07289
7.21432
7.27792
7.33525
7.3659
7.40355
7.42257
7.45027
7.463
7.48478
7.49411
7.51225
7.5197
7.53469
7.54175
7.55198
7.56002
7.58883
5.41892
6.6936
7.04646
7.1937
7.26032
7.32232
7.35603
7.39871
7.42141
7.45452
7.47135
7.49846
7.51188
7.53491
7.54625
7.56564
7.57612
7.59117
7.6006
7.63269
5.45523
6.72157
7.07288
7.21433
7.27791
7.33526
7.36589
7.40356
7.42255
7.4503
7.46296
7.48484
7.49405
7.51234
7.51965
7.53479
7.54161
7.55214
7.56006
7.58902
5.70548
7.00478
7.30909
7.38568
7.39595
7.41529
7.41772
7.42872
7.42947
7.43665
7.4361
7.44113
7.44019
7.44462
7.44347
7.44794
7.44666
7.44988
7.45537
7.48663
9.02938
10.2498
10.1127
9.73979
9.46304
9.32568
9.22802
9.18399
9.13742
9.11747
9.08814
9.07692
9.05623
9.04954
9.03509
9.03046
9.03115
9.01226
9.18586
9.2389
32.6446
37.0549
37.2157
37.2792
37.2364
37.2548
37.2091
37.2152
37.1757
37.1812
37.1509
37.1586
37.1359
37.1451
37.128
37.1364
37.1273
37.1261
37.1561
37.3758
5.04481
7.29477
7.61314
7.55863
7.5167
7.44684
7.43057
7.38917
7.38245
7.3551
7.35188
7.33212
7.33065
7.31527
7.31528
7.30142
7.3045
7.28657
7.28563
7.34401
3.75098
6.0197
6.52625
6.63299
6.65818
6.66898
6.67485
6.68036
6.68322
6.68657
6.68827
6.69072
6.69199
6.69415
6.69495
6.69716
6.69704
6.69786
6.70345
6.71989
3.56701
5.76565
6.2753
6.39898
6.42384
6.43639
6.43897
6.44549
6.44802
6.45406
6.45685
6.46279
6.46622
6.47177
6.47587
6.48056
6.48509
6.48854
6.49026
6.51994
3.57467
5.77109
6.27551
6.39802
6.42256
6.43238
6.43196
6.43346
6.4324
6.43333
6.43264
6.43375
6.43393
6.4358
6.43687
6.43943
6.44131
6.44396
6.44688
6.46978
3.55814
5.74723
6.254
6.37903
6.40363
6.41396
6.41293
6.41427
6.41233
6.4128
6.41106
6.41151
6.41055
6.41154
6.41146
6.41303
6.41353
6.41561
6.41626
6.43628
3.57467
5.77109
6.27551
6.39802
6.42256
6.43239
6.43195
6.43346
6.43239
6.43335
6.43263
6.43378
6.43391
6.43584
6.43682
6.43949
6.44112
6.44404
6.44678
6.46972
3.56701
5.76565
6.2753
6.39898
6.42384
6.4364
6.43896
6.4455
6.44801
6.45408
6.45683
6.46286
6.46605
6.472
6.47552
6.48104
6.48439
6.48931
6.48981
6.52012
3.75098
6.0197
6.52625
6.63299
6.65818
6.66899
6.67485
6.68037
6.6832
6.68661
6.68821
6.69081
6.69186
6.69433
6.69476
6.69745
6.6963
6.69884
6.7019
6.72221
5.04481
7.29477
7.61314
7.55863
7.5167
7.44684
7.43057
7.38917
7.38245
7.35511
7.35187
7.33216
7.33062
7.31537
7.3152
7.30168
7.30421
7.2876
7.28421
7.34755
0.288495
0.963262
1.2141
1.25553
1.23527
1.19117
1.14783
1.11246
1.08479
1.06203
1.04544
1.03027
1.02009
1.0091
1.00256
0.994274
0.989074
0.984519
0.974927
0.989251
0.0633251
0.361162
0.579742
0.684915
0.729387
0.751928
0.763111
0.772939
0.779911
0.787244
0.792578
0.798015
0.801745
0.805589
0.808148
0.810665
0.812909
0.813785
0.815629
0.820579
0.0541324
0.305569
0.486281
0.584011
0.622749
0.644921
0.65131
0.658231
0.660018
0.664031
0.665726
0.669415
0.671464
0.675029
0.677441
0.680672
0.683145
0.686214
0.68777
0.693526
0.055687
0.313518
0.495624
0.590636
0.628878
0.64894
0.65503
0.659663
0.660281
0.661604
0.661714
0.662232
0.66244
0.66293
0.663472
0.66389
0.664791
0.665218
0.666162
0.670051
0.0539309
0.304542
0.482104
0.578103
0.615504
0.636835
0.642215
0.647507
0.647791
0.648973
0.648703
0.649096
0.648859
0.649125
0.649033
0.649264
0.649251
0.649501
0.649222
0.652192
0.0556869
0.313518
0.495624
0.590637
0.628877
0.64894
0.655029
0.659663
0.660281
0.661605
0.661714
0.662233
0.66244
0.662932
0.663468
0.663886
0.664781
0.665209
0.66615
0.670025
0.0541324
0.305569
0.48628
0.584012
0.622748
0.644922
0.651309
0.658232
0.660018
0.664033
0.665725
0.669427
0.671435
0.675056
0.677397
0.680702
0.683091
0.686204
0.687737
0.693443
0.0633251
0.361162
0.579742
0.684916
0.729386
0.751929
0.763108
0.772944
0.779903
0.787254
0.79256
0.798037
0.801705
0.805627
0.808083
0.810722
0.812792
0.813781
0.815543
0.820493
0.288495
0.963262
1.2141
1.25553
1.23527
1.19117
1.14783
1.11246
1.08479
1.06204
1.04544
1.03029
1.02008
1.00916
1.00255
0.994424
0.989053
0.984807
0.974978
0.989999
5.04481
7.29477
7.61314
7.55863
7.5167
7.44684
7.43057
7.38917
7.38245
7.3551
7.35188
7.33212
7.33065
7.31527
7.31528
7.30142
7.3045
7.28657
7.28563
7.34401
3.75098
6.0197
6.52625
6.63299
6.65818
6.66898
6.67485
6.68036
6.68322
6.68657
6.68827
6.69072
6.69199
6.69414
6.69494
6.69716
6.69704
6.69786
6.70345
6.71989
3.56701
5.76565
6.2753
6.39898
6.42384
6.43639
6.43897
6.44549
6.44802
6.45406
6.45685
6.46279
6.46622
6.47177
6.47587
6.48056
6.48509
6.48854
6.49026
6.51994
3.57467
5.77109
6.27551
6.39802
6.42256
6.43238
6.43196
6.43346
6.4324
6.43333
6.43264
6.43375
6.43393
6.4358
6.43686
6.43943
6.44131
6.44396
6.44688
6.46978
3.55814
5.74723
6.254
6.37903
6.40363
6.41396
6.41293
6.41427
6.41233
6.4128
6.41106
6.41151
6.41055
6.41154
6.41146
6.41303
6.41353
6.41561
6.41626
6.43628
3.57467
5.77109
6.27551
6.39802
6.42256
6.43239
6.43195
6.43346
6.43239
6.43335
6.43263
6.43378
6.43391
6.43584
6.43682
6.43949
6.44112
6.44404
6.44678
6.46972
3.56701
5.76565
6.2753
6.39898
6.42384
6.4364
6.43896
6.4455
6.44801
6.45408
6.45683
6.46286
6.46605
6.472
6.47552
6.48104
6.48439
6.48931
6.48981
6.52012
3.75098
6.0197
6.52625
6.63299
6.65818
6.66899
6.67485
6.68037
6.6832
6.68661
6.68821
6.69081
6.69186
6.69433
6.69476
6.69745
6.6963
6.69884
6.7019
6.72221
5.04481
7.29477
7.61314
7.55863
7.51669
7.44684
7.43057
7.38917
7.38245
7.35511
7.35187
7.33216
7.33062
7.31537
7.3152
7.30168
7.30421
7.2876
7.28421
7.34755
32.6446
37.0549
37.2157
37.2792
37.2364
37.2548
37.2091
37.2151
37.1757
37.1812
37.151
37.1584
37.1363
37.1445
37.1289
37.1347
37.1304
37.1205
37.1661
37.3543
9.02938
10.2498
10.1127
9.73979
9.46304
9.32568
9.22803
9.18398
9.13745
9.11744
9.08822
9.07683
9.05643
9.04946
9.03549
9.03009
9.03225
9.01062
9.19047
9.23626
5.70549
7.00478
7.30909
7.38568
7.39596
7.41528
7.41773
7.42871
7.42948
7.43663
7.43613
7.44107
7.44027
7.44449
7.44365
7.44765
7.44703
7.44933
7.45574
7.48587
5.45523
6.72157
7.07289
7.21432
7.27792
7.33525
7.3659
7.40355
7.42257
7.45027
7.463
7.48478
7.49411
7.51225
7.5197
7.53469
7.54175
7.55198
7.56002
7.58883
5.41892
6.6936
7.04646
7.1937
7.26032
7.32232
7.35603
7.39871
7.42141
7.45452
7.47135
7.49846
7.51188
7.53491
7.54625
7.56564
7.57612
7.59117
7.6006
7.63269
5.45523
6.72157
7.07288
7.21433
7.27791
7.33526
7.36589
7.40356
7.42255
7.4503
7.46296
7.48484
7.49405
7.51234
7.51965
7.53479
7.54161
7.55214
7.56006
7.58902
5.70548
7.00478
7.30909
7.38568
7.39595
7.41529
7.41772
7.42872
7.42947
7.43665
7.4361
7.44113
7.44019
7.44462
7.44347
7.44794
7.44666
7.44988
7.45538
7.48663
9.02938
10.2498
10.1127
9.73979
9.46304
9.32568
9.22802
9.18399
9.13742
9.11747
9.08814
9.07692
9.05623
9.04954
9.03509
9.03046
9.03115
9.01226
9.18586
9.23891
32.6446
37.0549
37.2157
37.2792
37.2364
37.2548
37.2091
37.2152
37.1757
37.1812
37.1509
37.1586
37.1359
37.1451
37.128
37.1364
37.1273
37.1261
37.1561
37.3758
96.2259
97.8137
98.3931
98.9004
99.2805
99.6615
99.9435
100.234
100.47
100.731
100.951
101.181
101.365
101.55
101.696
101.845
101.962
102.078
102.159
102.235
102.28
102.321
102.337
102.357
102.359
102.367
102.364
102.368
102.363
102.365
102.36
102.362
102.357
102.358
102.354
102.355
102.351
102.352
102.348
102.349
102.345
102.346
102.342
102.343
102.339
102.34
102.337
102.338
102.334
102.335
102.332
102.333
102.33
102.331
102.328
102.328
102.326
102.326
102.324
102.325
102.322
102.323
102.321
102.321
102.319
102.32
102.318
102.319
102.317
102.317
102.316
102.316
102.315
102.315
102.314
102.315
102.314
102.314
102.313
102.313
102.312
102.313
102.312
102.312
102.311
102.311
102.309
102.31
102.277
102.257
32.7264
34.7754
34.9987
35.1895
35.2955
35.4419
35.5191
35.6321
35.6952
35.7962
35.8567
35.9467
35.9966
36.0699
36.1081
36.1681
36.1975
36.2454
36.2638
36.2974
36.304
36.3243
36.3223
36.3338
36.3273
36.3345
36.3264
36.3318
36.3235
36.328
36.3202
36.3242
36.3168
36.3205
36.3136
36.317
36.3106
36.3137
36.3077
36.3106
36.305
36.3077
36.3025
36.305
36.3001
36.3024
36.2979
36.3001
36.2959
36.2979
36.294
36.2959
36.2924
36.2941
36.2908
36.2925
36.2895
36.2911
36.2883
36.2899
36.2873
36.2889
36.2865
36.288
36.2859
36.2874
36.2854
36.2869
36.2852
36.2866
36.2851
36.2865
36.2852
36.2866
36.2854
36.2868
36.2858
36.2872
36.2863
36.2877
36.2869
36.2883
36.2876
36.289
36.2882
36.2896
36.2887
36.291
36.2781
36.2753
23.0648
25.5628
25.7656
25.9005
25.947
26.0578
26.0959
26.1827
26.2094
26.284
26.3126
26.384
26.4093
26.4694
26.487
26.5361
26.5492
26.5907
26.599
26.6312
26.6326
26.6542
26.6494
26.6635
26.6549
26.6648
26.6549
26.6627
26.6528
26.6596
26.6502
26.6564
26.6477
26.6535
26.6454
26.6508
26.6433
26.6484
26.6414
26.6462
26.6398
26.6442
26.6383
26.6425
26.6371
26.6411
26.636
26.6398
26.6352
26.6388
26.6346
26.638
26.6342
26.6375
26.6339
26.6371
26.6339
26.637
26.6341
26.6371
26.6345
26.6375
26.6351
26.638
26.636
26.6388
26.637
26.6398
26.6382
26.6409
26.6396
26.6423
26.6412
26.6439
26.643
26.6457
26.6449
26.6476
26.647
26.6496
26.6492
26.6518
26.6515
26.6541
26.6539
26.6564
26.6563
26.6583
26.6598
26.641
22.0094
24.9849
25.2513
25.3731
25.3958
25.4913
25.518
25.5967
25.6108
25.6751
25.6935
25.76
25.7796
25.838
25.8505
25.8976
25.9067
25.9481
25.9551
25.9899
25.9915
26.0165
26.0122
26.029
26.0205
26.0324
26.0221
26.0316
26.0211
26.0294
26.0194
26.027
26.0177
26.0248
26.0163
26.023
26.0151
26.0214
26.0142
26.0201
26.0135
26.0191
26.013
26.0183
26.0128
26.0178
26.0128
26.0176
26.0129
26.0176
26.0134
26.0178
26.014
26.0183
26.0148
26.019
26.0159
26.0199
26.0172
26.0211
26.0187
26.0225
26.0204
26.0242
26.0223
26.026
26.0245
26.0281
26.0269
26.0305
26.0294
26.033
26.0322
26.0357
26.0351
26.0387
26.0383
26.0418
26.0416
26.0451
26.0451
26.0485
26.0486
26.0521
26.0523
26.0557
26.0562
26.059
26.0613
26.0441
21.9949
25.0189
25.2819
25.3869
25.3895
25.4675
25.4828
25.5504
25.5542
25.608
25.6181
25.6772
25.6913
25.7449
25.7528
25.7957
25.8012
25.8399
25.8451
25.8793
25.8805
25.9061
25.9018
25.9194
25.911
25.9236
25.9133
25.9234
25.9128
25.9216
25.9115
25.9196
25.9103
25.9178
25.9093
25.9164
25.9085
25.9152
25.908
25.9144
25.9078
25.9138
25.9078
25.9135
25.908
25.9134
25.9084
25.9136
25.909
25.914
25.9099
25.9147
25.911
25.9157
25.9123
25.9168
25.9139
25.9182
25.9156
25.9199
25.9176
25.9218
25.9198
25.9239
25.9222
25.9262
25.9248
25.9288
25.9277
25.9316
25.9307
25.9346
25.934
25.9378
25.9374
25.9413
25.941
25.9449
25.9448
25.9486
25.9487
25.9525
25.9528
25.9566
25.957
25.9606
25.9614
25.9641
25.9702
25.9497
22.0094
24.9553
25.1798
25.2579
25.2458
25.3061
25.3092
25.3611
25.3565
25.3996
25.4024
25.4513
25.4591
25.5036
25.5064
25.542
25.5437
25.5768
25.5791
25.6091
25.6085
25.6312
25.6261
25.6421
25.6334
25.6451
25.6348
25.6442
25.6339
25.6422
25.6323
25.6399
25.6308
25.638
25.6296
25.6363
25.6286
25.6349
25.6278
25.6337
25.6272
25.6329
25.6269
25.6323
25.6268
25.632
25.627
25.6318
25.6273
25.632
25.6279
25.6324
25.6286
25.633
25.6296
25.6338
25.6308
25.6349
25.6322
25.6362
25.6339
25.6377
25.6357
25.6395
25.6377
25.6415
25.64
25.6437
25.6425
25.6461
25.6451
25.6487
25.648
25.6516
25.651
25.6546
25.6543
25.6578
25.6577
25.6612
25.6612
25.6647
25.6649
25.6684
25.6687
25.6721
25.6726
25.6753
25.678
25.6616
23.0391
25.4404
25.5467
25.5934
25.5716
25.6162
25.6078
25.6447
25.6332
25.6663
25.6629
25.7
25.7006
25.733
25.7305
25.7572
25.7548
25.7802
25.7787
25.8014
25.798
25.8154
25.8087
25.8213
25.8122
25.8216
25.8117
25.8195
25.8097
25.8166
25.8073
25.8136
25.8051
25.811
25.803
25.8085
25.8012
25.8064
25.7996
25.8045
25.7982
25.8028
25.797
25.8013
25.796
25.8001
25.7952
25.7991
25.7946
25.7983
25.7942
25.7977
25.794
25.7974
25.794
25.7972
25.7942
25.7973
25.7945
25.7976
25.7951
25.7981
25.7959
25.7988
25.7969
25.7998
25.798
25.8009
25.7994
25.8022
25.8009
25.8037
25.8027
25.8054
25.8046
25.8073
25.8066
25.8093
25.8088
25.8115
25.8111
25.8138
25.8135
25.8162
25.816
25.8186
25.8187
25.8205
25.8229
25.8053
32.5568
34.3512
34.3803
34.41
34.3882
34.4218
34.4094
34.4357
34.4232
34.4483
34.4435
34.4707
34.4684
34.4912
34.487
34.5061
34.5026
34.5209
34.5183
34.5343
34.5301
34.5421
34.5357
34.5442
34.5363
34.5426
34.5342
34.5394
34.5312
34.5357
34.528
34.5321
34.5249
34.5287
34.522
34.5254
34.5192
34.5224
34.5166
34.5195
34.5141
34.5168
34.5117
34.5143
34.5096
34.5119
34.5075
34.5097
34.5057
34.5077
34.504
34.5059
34.5024
34.5043
34.501
34.5028
34.4998
34.5015
34.4987
34.5003
34.4978
34.4994
34.4971
34.4986
34.4965
34.498
34.4961
34.4976
34.4959
34.4974
34.4958
34.4973
34.4959
34.4974
34.4962
34.4976
34.4966
34.498
34.4971
34.4985
34.4977
34.4991
34.4984
34.4998
34.4992
34.5005
34.4997
34.5019
34.4902
34.4882
95.4038
96.1927
96.2005
96.2318
96.222
96.2687
96.2712
96.3053
96.3042
96.3364
96.3469
96.3843
96.3974
96.4278
96.4358
96.4604
96.4684
96.4921
96.5006
96.521
96.5259
96.54
96.5398
96.5483
96.5447
96.5497
96.5446
96.548
96.5425
96.5451
96.5398
96.542
96.537
96.5389
96.5342
96.5359
96.5315
96.533
96.5289
96.5302
96.5263
96.5275
96.5238
96.5248
96.5213
96.5223
96.519
96.5198
96.5167
96.5174
96.5144
96.5151
96.5123
96.5129
96.5103
96.5108
96.5083
96.5088
96.5064
96.5068
96.5046
96.505
96.503
96.5033
96.5014
96.5017
96.4999
96.5002
96.4985
96.4988
96.4973
96.4976
96.4961
96.4964
96.4951
96.4954
96.4941
96.4944
96.4932
96.4935
96.4924
96.4927
96.4916
96.4918
96.4907
96.4908
96.4893
96.49
96.4599
96.4414
23.0158
23.8406
23.9996
24.1159
24.2118
24.2993
24.3667
24.4361
24.4914
24.5558
24.6052
24.662
24.701
24.7474
24.7773
24.8157
24.8381
24.8681
24.8816
24.9017
24.9064
24.9181
24.9168
24.9233
24.919
24.9231
24.9178
24.9208
24.9154
24.9179
24.9127
24.9149
24.91
24.912
24.9074
24.9092
24.9048
24.9065
24.9024
24.9039
24.9
24.9014
24.8977
24.899
24.8955
24.8967
24.8935
24.8945
24.8915
24.8924
24.8896
24.8904
24.8878
24.8886
24.8861
24.8869
24.8846
24.8853
24.8831
24.8838
24.8818
24.8825
24.8806
24.8813
24.8796
24.8802
24.8786
24.8793
24.8779
24.8785
24.8772
24.8779
24.8768
24.8775
24.8765
24.8772
24.8764
24.8772
24.8765
24.8774
24.8768
24.8779
24.8774
24.8787
24.8784
24.8801
24.8797
24.8829
24.878
24.8811
20.9694
22.5874
22.7819
22.897
22.988
23.0759
23.1431
23.2107
23.2652
23.3265
23.377
23.4323
23.4741
23.5191
23.5518
23.5887
23.6147
23.6441
23.6621
23.6825
23.6919
23.704
23.707
23.7136
23.7133
23.7169
23.7153
23.7179
23.7159
23.718
23.716
23.7178
23.716
23.7177
23.716
23.7176
23.716
23.7176
23.7161
23.7175
23.7162
23.7176
23.7163
23.7177
23.7165
23.7178
23.7168
23.718
23.717
23.7182
23.7174
23.7185
23.7178
23.7188
23.7182
23.7193
23.7187
23.7197
23.7192
23.7202
23.7198
23.7208
23.7204
23.7214
23.7211
23.7221
23.7219
23.7228
23.7227
23.7236
23.7235
23.7245
23.7244
23.7254
23.7253
23.7263
23.7263
23.7273
23.7274
23.7284
23.7285
23.7296
23.7296
23.7308
23.7308
23.7321
23.7321
23.7331
23.7346
23.735
19.0355
21.2522
21.508
21.6107
21.6895
21.7686
21.8323
21.8919
21.9409
21.9929
22.0406
22.091
22.1335
22.1752
22.2085
22.242
22.2695
22.2975
22.3191
22.34
22.3539
22.3667
22.3735
22.3803
22.3828
22.3863
22.3868
22.3888
22.3887
22.3902
22.3899
22.3912
22.391
22.3921
22.3919
22.393
22.3929
22.394
22.3939
22.3949
22.3949
22.3959
22.3958
22.3968
22.3968
22.3978
22.3978
22.3988
22.3988
22.3998
22.3999
22.4008
22.4009
22.4018
22.4019
22.4028
22.403
22.4038
22.404
22.4049
22.4051
22.4059
22.4061
22.407
22.4072
22.408
22.4083
22.4091
22.4094
22.4102
22.4105
22.4112
22.4115
22.4123
22.4126
22.4134
22.4137
22.4145
22.4148
22.4155
22.4158
22.4166
22.4168
22.4177
22.4178
22.4186
22.4187
22.4195
22.4206
22.4067
18.5101
20.8918
21.1542
21.2299
21.2877
21.3536
21.4094
21.4608
21.5014
21.5443
21.5857
21.6314
21.6718
21.7107
21.7421
21.7728
21.7988
21.8257
21.8481
21.8697
21.8856
21.8996
21.9083
21.9157
21.9193
21.923
21.924
21.9259
21.926
21.9271
21.9271
21.928
21.9279
21.9287
21.9286
21.9294
21.9294
21.9301
21.9301
21.9308
21.9308
21.9315
21.9316
21.9323
21.9323
21.933
21.9331
21.9337
21.9338
21.9345
21.9346
21.9352
21.9353
21.936
21.9361
21.9368
21.9369
21.9375
21.9377
21.9383
21.9385
21.9391
21.9393
21.9399
21.9401
21.9407
21.9409
21.9415
21.9418
21.9423
21.9426
21.9432
21.9434
21.944
21.9442
21.9448
21.945
21.9456
21.9458
21.9464
21.9466
21.9472
21.9474
21.948
21.9481
21.9487
21.9487
21.9493
21.9488
21.9387
18.175
20.676
20.9353
20.9873
21.024
21.0734
21.1174
21.1578
21.1882
21.2212
21.2543
21.293
21.3278
21.3616
21.3884
21.4147
21.437
21.461
21.4814
21.5019
21.5172
21.5311
21.5397
21.5473
21.5509
21.5546
21.5556
21.5574
21.5575
21.5585
21.5584
21.5591
21.5589
21.5597
21.5595
21.5602
21.56
21.5607
21.5605
21.5612
21.5611
21.5617
21.5616
21.5622
21.5622
21.5628
21.5628
21.5634
21.5634
21.5639
21.564
21.5645
21.5646
21.5651
21.5652
21.5657
21.5658
21.5664
21.5665
21.567
21.5671
21.5677
21.5678
21.5683
21.5685
21.569
21.5691
21.5697
21.5698
21.5704
21.5705
21.5711
21.5712
21.5718
21.5719
21.5725
21.5726
21.5732
21.5734
21.5739
21.574
21.5746
21.5747
21.5753
21.5753
21.5758
21.5759
21.5761
21.5772
21.5621
18.5089
20.8614
21.084
21.1206
21.144
21.1806
21.2122
21.2416
21.2626
21.2874
21.3128
21.344
21.3718
21.3991
21.4201
21.4412
21.4592
21.4792
21.4964
21.5141
21.5272
21.5394
21.5469
21.5537
21.5569
21.5603
21.5613
21.5631
21.5633
21.5644
21.5643
21.5653
21.5652
21.566
21.566
21.5668
21.5668
21.5675
21.5675
21.5683
21.5683
21.5691
21.5691
21.5698
21.5699
21.5706
21.5707
21.5714
21.5715
21.5722
21.5723
21.573
21.5731
21.5738
21.5739
21.5746
21.5748
21.5754
21.5756
21.5762
21.5764
21.5771
21.5773
21.5779
21.5781
21.5788
21.579
21.5796
21.5799
21.5805
21.5807
21.5813
21.5816
21.5822
21.5824
21.583
21.5833
21.5839
21.5841
21.5848
21.585
21.5856
21.5858
21.5864
21.5865
21.5872
21.5872
21.5877
21.5876
21.578
19.0163
21.1505
21.3219
21.3475
21.363
21.3886
21.408
21.4271
21.4397
21.4575
21.4749
21.4978
21.5164
21.5359
21.5495
21.565
21.5772
21.5925
21.6043
21.6178
21.6266
21.636
21.6408
21.6463
21.6482
21.6513
21.6517
21.6536
21.6535
21.655
21.6548
21.6561
21.6559
21.6571
21.657
21.6581
21.658
21.6591
21.6591
21.6602
21.6601
21.6612
21.6612
21.6622
21.6623
21.6633
21.6634
21.6643
21.6644
21.6654
21.6655
21.6665
21.6666
21.6676
21.6677
21.6686
21.6688
21.6697
21.6699
21.6708
21.6711
21.6719
21.6722
21.673
21.6733
21.6741
21.6744
21.6753
21.6756
21.6764
21.6767
21.6775
21.6778
21.6786
21.6789
21.6798
21.6801
21.6809
21.6812
21.682
21.6823
21.6831
21.6834
21.6842
21.6844
21.6852
21.6854
21.6861
21.6877
21.6747
20.8769
22.334
22.4023
22.4128
22.4192
22.4358
22.4433
22.456
22.4602
22.4734
22.4812
22.4972
22.5047
22.5181
22.5228
22.5341
22.5385
22.5496
22.5538
22.5636
22.566
22.573
22.5732
22.5778
22.5766
22.5798
22.578
22.5804
22.5784
22.5805
22.5786
22.5806
22.5788
22.5806
22.5789
22.5806
22.5791
22.5807
22.5793
22.5808
22.5795
22.5809
22.5798
22.5811
22.58
22.5813
22.5804
22.5816
22.5807
22.5819
22.5811
22.5823
22.5816
22.5827
22.5821
22.5832
22.5826
22.5837
22.5832
22.5842
22.5838
22.5848
22.5845
22.5855
22.5852
22.5862
22.586
22.587
22.5868
22.5878
22.5876
22.5886
22.5885
22.5895
22.5895
22.5905
22.5905
22.5915
22.5915
22.5925
22.5926
22.5937
22.5937
22.5949
22.5949
22.5962
22.5963
22.5972
22.5989
22.5994
22.7918
23.4098
23.4271
23.4275
23.4282
23.4348
23.4339
23.4404
23.4374
23.4454
23.4436
23.4531
23.4507
23.4591
23.4554
23.463
23.4593
23.4668
23.4632
23.4698
23.4655
23.4708
23.4657
23.4698
23.4643
23.4676
23.4621
23.4649
23.4595
23.4621
23.457
23.4593
23.4545
23.4565
23.452
23.4539
23.4496
23.4513
23.4473
23.4489
23.4451
23.4465
23.4429
23.4442
23.4409
23.442
23.4389
23.44
23.437
23.438
23.4352
23.4361
23.4335
23.4343
23.4319
23.4326
23.4304
23.4311
23.4289
23.4296
23.4277
23.4283
23.4265
23.4271
23.4254
23.426
23.4245
23.4251
23.4237
23.4243
23.423
23.4237
23.4225
23.4232
23.4222
23.4229
23.422
23.4228
23.4221
23.4229
23.4223
23.4234
23.4229
23.4241
23.4238
23.4254
23.4251
23.4282
23.4234
23.4265
4.62285
4.995
5.03865
5.05911
5.08214
5.10162
5.11774
5.13629
5.14815
5.16666
5.17516
5.19225
5.19725
5.21217
5.21463
5.22767
5.22804
5.23888
5.23708
5.24555
5.24188
5.24841
5.24358
5.24882
5.24351
5.24797
5.24258
5.24653
5.24125
5.24482
5.23973
5.24297
5.23811
5.24106
5.23643
5.23912
5.23473
5.23719
5.23303
5.23528
5.23136
5.23341
5.22972
5.23161
5.22814
5.22987
5.22662
5.22823
5.22518
5.22667
5.22382
5.22522
5.22256
5.22387
5.22139
5.22263
5.22033
5.22151
5.21938
5.22052
5.21854
5.21965
5.21783
5.21891
5.21724
5.21831
5.21678
5.21785
5.21646
5.21755
5.21629
5.21741
5.21627
5.21744
5.21642
5.21765
5.21675
5.21805
5.21727
5.21866
5.21799
5.21948
5.21891
5.22049
5.22001
5.22166
5.22113
5.22325
5.22111
5.2226
4.27092
5.20802
5.32845
5.36394
5.3885
5.41096
5.42819
5.4463
5.46014
5.47706
5.48924
5.50449
5.51408
5.5269
5.53421
5.54517
5.55073
5.55979
5.56333
5.57014
5.57176
5.57642
5.57676
5.58
5.57973
5.58221
5.58171
5.58386
5.5833
5.58527
5.58474
5.58659
5.5861
5.58785
5.58741
5.58908
5.5887
5.59029
5.58996
5.59148
5.5912
5.59266
5.59243
5.59383
5.59364
5.59499
5.59485
5.59615
5.59606
5.59731
5.59726
5.59847
5.59846
5.59963
5.59965
5.6008
5.60085
5.60197
5.60205
5.60314
5.60324
5.60431
5.60444
5.60548
5.60564
5.60666
5.60684
5.60785
5.60805
5.60904
5.60926
5.61024
5.61048
5.61146
5.61171
5.61268
5.61295
5.61393
5.61421
5.6152
5.61549
5.6165
5.61679
5.61782
5.61809
5.61912
5.61944
5.62
5.6211
5.62299
3.47123
4.67454
4.87495
4.92462
4.9489
4.96961
4.98519
4.99997
5.01203
5.02526
5.03699
5.04951
5.05973
5.07001
5.07813
5.08664
5.09346
5.10066
5.10606
5.11149
5.11506
5.1186
5.1206
5.12277
5.12383
5.12526
5.1259
5.127
5.1275
5.12846
5.12892
5.12982
5.13027
5.13113
5.13158
5.13242
5.13287
5.13369
5.13414
5.13493
5.13538
5.13616
5.13661
5.13737
5.13781
5.13855
5.139
5.13972
5.14017
5.14087
5.14132
5.14201
5.14245
5.14312
5.14356
5.14422
5.14466
5.1453
5.14573
5.14636
5.14679
5.1474
5.14782
5.14842
5.14884
5.14943
5.14983
5.15041
5.15081
5.15137
5.15177
5.15232
5.1527
5.15324
5.15362
5.15415
5.15452
5.15504
5.1554
5.15591
5.15626
5.15676
5.15709
5.1576
5.1579
5.15842
5.15868
5.15919
5.15987
5.1577
3.19189
4.43934
4.66777
4.71434
4.73513
4.74958
4.76312
4.77292
4.78274
4.79153
4.80166
4.8112
4.8206
4.82856
4.83585
4.8423
4.84849
4.85429
4.85958
4.8642
4.86792
4.87086
4.87293
4.87449
4.87547
4.87625
4.8767
4.87715
4.87741
4.87773
4.87794
4.87824
4.87845
4.87875
4.87895
4.87926
4.87947
4.87977
4.87998
4.88029
4.88051
4.88081
4.88103
4.88133
4.88155
4.88185
4.88207
4.88237
4.88259
4.88289
4.88311
4.8834
4.88362
4.88391
4.88412
4.88441
4.88462
4.88491
4.88512
4.8854
4.88561
4.88588
4.88609
4.88636
4.88657
4.88684
4.88704
4.8873
4.88751
4.88776
4.88797
4.88822
4.88843
4.88867
4.88888
4.88912
4.88933
4.88956
4.88977
4.89
4.89019
4.89043
4.89059
4.89083
4.89094
4.89117
4.89121
4.89134
4.89107
4.88918
3.05159
4.313
4.54402
4.58756
4.60187
4.61347
4.62301
4.63115
4.63782
4.64516
4.65291
4.66152
4.66925
4.6765
4.68239
4.68817
4.6933
4.69869
4.70336
4.70789
4.71131
4.71432
4.71623
4.71787
4.71871
4.71953
4.71982
4.72027
4.72038
4.72065
4.72072
4.72095
4.72101
4.72122
4.72129
4.7215
4.72157
4.72178
4.72185
4.72205
4.72212
4.72233
4.7224
4.72261
4.72268
4.72288
4.72296
4.72316
4.72323
4.72343
4.72351
4.7237
4.72378
4.72397
4.72405
4.72424
4.72432
4.72451
4.72459
4.72477
4.72486
4.72504
4.72512
4.7253
4.72538
4.72556
4.72564
4.72581
4.7259
4.72606
4.72615
4.72631
4.7264
4.72656
4.72665
4.72681
4.72689
4.72705
4.72713
4.72728
4.72736
4.72751
4.72758
4.72773
4.72777
4.72791
4.72794
4.72801
4.72817
4.7257
3.19175
4.43389
4.65428
4.69245
4.70568
4.71358
4.72157
4.72636
4.73167
4.73637
4.74292
4.74926
4.75584
4.76121
4.76616
4.77051
4.77492
4.77927
4.78343
4.78724
4.79037
4.79295
4.79478
4.79622
4.79711
4.79786
4.79827
4.79872
4.79897
4.7993
4.79951
4.79982
4.80002
4.80033
4.80052
4.80084
4.80104
4.80136
4.80156
4.80188
4.80209
4.8024
4.80262
4.80293
4.80314
4.80345
4.80367
4.80398
4.80419
4.8045
4.80471
4.80501
4.80523
4.80552
4.80574
4.80603
4.80624
4.80653
4.80674
4.80703
4.80724
4.80752
4.80773
4.80801
4.80821
4.80849
4.80869
4.80896
4.80917
4.80943
4.80963
4.80989
4.8101
4.81035
4.81056
4.81081
4.81101
4.81126
4.81146
4.8117
4.8119
4.81214
4.81231
4.81256
4.81268
4.8129
4.81296
4.81309
4.81287
4.81106
3.46885
4.65632
4.8391
4.87197
4.8822
4.89093
4.89641
4.90195
4.90571
4.9113
4.91634
4.92283
4.92774
4.93311
4.93686
4.94142
4.94496
4.94944
4.95281
4.95673
4.9593
4.96216
4.96376
4.96569
4.96662
4.96799
4.96859
4.96968
4.97017
4.97114
4.97159
4.9725
4.97295
4.97383
4.97428
4.97513
4.97558
4.97641
4.97685
4.97766
4.97811
4.9789
4.97935
4.98011
4.98056
4.98131
4.98176
4.98249
4.98294
4.98365
4.9841
4.9848
4.98524
4.98592
4.98636
4.98703
4.98747
4.98812
4.98855
4.98919
4.98962
4.99025
4.99067
4.99128
4.9917
4.9923
4.99271
4.99329
4.99369
4.99427
4.99466
4.99523
4.99562
4.99617
4.99655
4.99709
4.99746
4.99799
4.99836
4.99888
4.99924
4.99976
5.00009
5.00062
5.00093
5.00145
5.00175
5.00223
5.00299
5.00104
4.25755
5.1616
5.25366
5.2657
5.27146
5.27817
5.28199
5.28774
5.29039
5.29672
5.29974
5.30656
5.30887
5.31474
5.31624
5.3215
5.32286
5.32797
5.32906
5.33359
5.33411
5.33774
5.3377
5.34057
5.34022
5.34262
5.34213
5.34429
5.34377
5.34577
5.34527
5.34716
5.34671
5.34849
5.34809
5.34979
5.34945
5.35106
5.35077
5.35232
5.35207
5.35355
5.35336
5.35478
5.35463
5.356
5.35589
5.35721
5.35714
5.35842
5.35839
5.35963
5.35964
5.36083
5.36088
5.36204
5.36211
5.36325
5.36335
5.36445
5.36458
5.36566
5.36581
5.36687
5.36704
5.36808
5.36827
5.3693
5.36951
5.37052
5.37075
5.37174
5.37199
5.37298
5.37324
5.37423
5.37451
5.37551
5.37579
5.3768
5.3771
5.37812
5.37841
5.37946
5.37974
5.38078
5.38113
5.3817
5.38286
5.38469
4.58222
4.91093
4.92641
4.92484
4.92968
4.93411
4.93727
4.94371
4.94459
4.95223
4.95166
4.95964
4.9575
4.96509
4.96175
4.969
4.96502
4.97189
4.96742
4.97366
4.96874
4.97426
4.96903
4.9739
4.96857
4.97293
4.96766
4.9716
4.96647
4.97005
4.96513
4.96839
4.96368
4.96665
4.96217
4.96489
4.96064
4.96312
4.9591
4.96137
4.95758
4.95966
4.95609
4.958
4.95465
4.95641
4.95327
4.9549
4.95196
4.95348
4.95073
4.95215
4.94958
4.95092
4.94853
4.94979
4.94757
4.94878
4.94672
4.94788
4.94598
4.9471
4.94535
4.94645
4.94484
4.94593
4.94445
4.94554
4.9442
4.9453
4.94408
4.94522
4.94412
4.94529
4.94431
4.94555
4.94468
4.94599
4.94523
4.94662
4.94597
4.94746
4.94691
4.94848
4.94802
4.94965
4.94914
4.95127
4.94912
4.95078
23.0158
23.8406
23.9996
24.1159
24.2118
24.2993
24.3667
24.4361
24.4914
24.5558
24.6052
24.662
24.701
24.7474
24.7773
24.8157
24.8381
24.8681
24.8816
24.9017
24.9064
24.9181
24.9168
24.9233
24.919
24.9231
24.9178
24.9208
24.9154
24.9179
24.9127
24.9149
24.91
24.912
24.9074
24.9092
24.9048
24.9065
24.9024
24.9039
24.9
24.9014
24.8977
24.899
24.8955
24.8967
24.8935
24.8945
24.8915
24.8924
24.8896
24.8905
24.8878
24.8886
24.8861
24.8869
24.8846
24.8853
24.8831
24.8838
24.8818
24.8825
24.8806
24.8813
24.8796
24.8802
24.8786
24.8793
24.8779
24.8785
24.8772
24.8779
24.8768
24.8775
24.8765
24.8772
24.8764
24.8772
24.8765
24.8774
24.8768
24.8779
24.8774
24.8787
24.8784
24.8801
24.8798
24.8829
24.878
24.8811
20.9694
22.5874
22.7819
22.897
22.988
23.0759
23.1431
23.2107
23.2652
23.3265
23.377
23.4323
23.4741
23.5191
23.5518
23.5887
23.6147
23.6441
23.6621
23.6825
23.6919
23.704
23.707
23.7136
23.7133
23.7169
23.7153
23.7179
23.7159
23.718
23.716
23.7178
23.716
23.7177
23.716
23.7176
23.716
23.7176
23.7161
23.7175
23.7162
23.7176
23.7163
23.7177
23.7165
23.7178
23.7168
23.718
23.717
23.7182
23.7174
23.7185
23.7178
23.7188
23.7182
23.7193
23.7187
23.7197
23.7192
23.7202
23.7198
23.7208
23.7204
23.7214
23.7211
23.7221
23.7219
23.7228
23.7227
23.7236
23.7235
23.7245
23.7244
23.7254
23.7253
23.7263
23.7263
23.7273
23.7274
23.7284
23.7285
23.7296
23.7296
23.7308
23.7308
23.7321
23.7321
23.7331
23.7346
23.735
19.0355
21.2522
21.508
21.6107
21.6895
21.7686
21.8323
21.8919
21.9409
21.9929
22.0405
22.091
22.1335
22.1752
22.2085
22.242
22.2695
22.2975
22.3191
22.34
22.3539
22.3667
22.3735
22.3803
22.3828
22.3863
22.3868
22.3888
22.3887
22.3902
22.3899
22.3912
22.391
22.3921
22.3919
22.393
22.3929
22.394
22.3939
22.3949
22.3949
22.3959
22.3958
22.3968
22.3968
22.3978
22.3978
22.3988
22.3988
22.3998
22.3999
22.4008
22.4009
22.4018
22.4019
22.4028
22.403
22.4038
22.404
22.4049
22.4051
22.4059
22.4061
22.407
22.4072
22.408
22.4083
22.4091
22.4094
22.4102
22.4105
22.4112
22.4115
22.4123
22.4126
22.4134
22.4137
22.4145
22.4148
22.4155
22.4158
22.4166
22.4168
22.4177
22.4178
22.4186
22.4187
22.4195
22.4206
22.4067
18.5101
20.8918
21.1542
21.2299
21.2877
21.3536
21.4094
21.4608
21.5014
21.5443
21.5857
21.6314
21.6718
21.7107
21.7421
21.7728
21.7988
21.8257
21.8481
21.8697
21.8856
21.8996
21.9083
21.9157
21.9193
21.923
21.924
21.9259
21.926
21.9271
21.9271
21.928
21.9279
21.9287
21.9286
21.9294
21.9294
21.9301
21.9301
21.9308
21.9308
21.9315
21.9316
21.9323
21.9323
21.933
21.9331
21.9337
21.9338
21.9345
21.9346
21.9352
21.9353
21.936
21.9361
21.9368
21.9369
21.9375
21.9377
21.9383
21.9385
21.9391
21.9393
21.9399
21.9401
21.9407
21.9409
21.9415
21.9417
21.9423
21.9426
21.9432
21.9434
21.944
21.9442
21.9448
21.945
21.9456
21.9458
21.9464
21.9466
21.9472
21.9474
21.948
21.9481
21.9487
21.9487
21.9493
21.9488
21.9387
18.175
20.676
20.9353
20.9873
21.024
21.0734