/*--------------------------------*- C++ -*----------------------------------*\
  =========                 |
  \\      /  F ield         | OpenFOAM: The Open Source CFD Toolbox
   \\    /   O peration     | Website:  https://openfoam.org
    \\  /    A nd           | Version:  7
     \\/     M anipulation  |
\*---------------------------------------------------------------------------*/
FoamFile
{
    version     2.0;
    format      ascii;
    class       volVectorField;
    location    "0.3225";
    object      U_0;
}
// * * * * * * * * * * * * * * * * * * * * * * * * * * * * * * * * * * * * * //

dimensions      [0 1 -1 0 0 0 0];

internalField   nonuniform List<vector> 
4950
(
(3.51204 0.42034 -27.0271)
(2.80249 0.150541 -27.0613)
(2.04901 0.0449721 -27.0607)
(1.83927 -0.0232668 -27.0636)
(1.56004 -0.044117 -27.0546)
(1.54127 -0.0508455 -27.0512)
(1.38339 -0.051858 -27.0428)
(1.40575 -0.0503486 -27.0422)
(1.2906 -0.0480931 -27.0384)
(1.32364 -0.0454811 -27.0402)
(1.23769 -0.0423654 -27.0391)
(1.27853 -0.0413222 -27.0423)
(1.21495 -0.0375532 -27.0431)
(1.25791 -0.0401462 -27.0469)
(1.20519 -0.0323154 -27.0485)
(1.24622 -0.0425247 -27.0511)
(1.19448 -0.0133479 -27.0529)
(1.22386 -0.043204 -27.0528)
(1.19793 0.0901504 -27.0568)
(0.987385 0.119845 -27.0477)
(4.60153 0.549287 -27.0521)
(4.79354 0.379451 -27.0768)
(4.50093 0.29113 -27.0739)
(4.44294 0.191882 -27.0781)
(4.14782 0.135289 -27.0667)
(4.1138 0.10368 -27.0505)
(3.88566 0.083996 -27.0265)
(3.88086 0.0720376 -27.0113)
(3.70387 0.0614017 -26.9994)
(3.72289 0.0526064 -26.9951)
(3.59628 0.0434876 -26.9921)
(3.64076 0.0379616 -26.9936)
(3.55273 0.0301964 -26.9972)
(3.60969 0.0316628 -27.0041)
(3.53635 0.0219182 -27.0131)
(3.60322 0.0342111 -27.0204)
(3.51944 0.00710339 -27.0304)
(3.62922 0.0293028 -27.0306)
(3.48587 -0.0202711 -27.0436)
(3.84942 -0.0721128 -27.0182)
(4.72107 0.288918 -27.054)
(5.20527 0.212022 -27.0723)
(5.32152 0.191165 -27.0612)
(5.56653 0.131115 -27.0659)
(5.51611 0.0939069 -27.0577)
(5.63919 0.0684404 -27.0447)
(5.5528 0.0508484 -27.0127)
(5.63042 0.0386585 -26.9845)
(5.5421 0.0272615 -26.9579)
(5.59642 0.01517 -26.9453)
(5.51566 0.00406987 -26.9348)
(5.55842 -0.0063725 -26.9306)
(5.49388 -0.0113625 -26.9263)
(5.53163 -0.0170507 -26.9293)
(5.48886 -0.0154517 -26.9372)
(5.50905 -0.0195149 -26.9512)
(5.49493 -0.00787421 -26.9682)
(5.46381 -0.013727 -26.982)
(5.4913 0.0271808 -26.9971)
(5.35396 0.0536086 -26.9854)
(4.69909 0.169379 -27.0629)
(5.1222 0.131661 -27.0811)
(5.3378 0.124814 -27.0711)
(5.68501 0.095375 -27.0745)
(5.75815 0.0766387 -27.07)
(5.9843 0.0641922 -27.0585)
(6.00301 0.055482 -27.0283)
(6.16402 0.0498586 -26.9955)
(6.16346 0.0439072 -26.9649)
(6.28188 0.0374147 -26.9469)
(6.26107 0.0295601 -26.9353)
(6.33871 0.0228075 -26.9284)
(6.29715 0.015855 -26.921)
(6.34889 0.0140147 -26.9176)
(6.29776 0.00829949 -26.9203)
(6.34895 0.0127525 -26.9323)
(6.29383 0.00163726 -26.9503)
(6.37373 0.0110069 -26.9709)
(6.30573 -0.0060536 -26.9889)
(6.50765 -0.0141165 -26.9843)
(4.70048 4.01486e-08 -27.0582)
(5.11868 4.85e-08 -27.0746)
(5.34448 -2.04017e-08 -27.0616)
(5.70747 3.47726e-07 -27.0653)
(5.79658 2.42985e-07 -27.0592)
(6.03932 1.03269e-06 -27.0491)
(6.07688 1.88537e-08 -27.0176)
(6.25602 1.77915e-06 -26.9853)
(6.2777 -6.604e-07 -26.9521)
(6.41411 4.2157e-06 -26.9342)
(6.415 -8.33736e-07 -26.921)
(6.50135 1.27445e-05 -26.9149)
(6.47811 2.41432e-07 -26.9056)
(6.52304 3.50289e-05 -26.9014)
(6.49995 -4.47688e-06 -26.9011)
(6.50818 0.000103211 -26.9126)
(6.51749 1.28093e-06 -26.9295)
(6.45922 0.000269123 -26.9526)
(6.52535 0.000128079 -26.9713)
(6.35501 0.000518038 -26.9711)
(4.69909 -0.169379 -27.0629)
(5.1222 -0.131661 -27.0811)
(5.3378 -0.124814 -27.0711)
(5.68501 -0.0953745 -27.0745)
(5.75815 -0.0766383 -27.07)
(5.9843 -0.0641908 -27.0585)
(6.003 -0.0554813 -27.0282)
(6.16402 -0.0498567 -26.9955)
(6.16346 -0.0439059 -26.9649)
(6.28189 -0.037412 -26.947)
(6.26106 -0.0295538 -26.9353)
(6.33872 -0.0228009 -26.9285)
(6.29714 -0.0158363 -26.9208)
(6.34892 -0.0139867 -26.9177)
(6.29777 -0.00825092 -26.9202)
(6.34901 -0.0126387 -26.9324)
(6.29392 -0.00151045 -26.9502)
(6.37384 -0.0106761 -26.9709)
(6.30604 0.0065136 -26.989)
(6.50809 0.0149794 -26.9841)
(4.72107 -0.288918 -27.054)
(5.20527 -0.212022 -27.0723)
(5.32152 -0.191164 -27.0612)
(5.56653 -0.131114 -27.0659)
(5.51611 -0.0939062 -27.0577)
(5.63919 -0.0684391 -27.0448)
(5.5528 -0.0508478 -27.0126)
(5.63043 -0.0386564 -26.9846)
(5.5421 -0.0272618 -26.9578)
(5.59644 -0.0151642 -26.9454)
(5.51564 -0.00407133 -26.9346)
(5.55846 0.00639046 -26.9309)
(5.49385 0.0113568 -26.926)
(5.53173 0.0171106 -26.9297)
(5.48884 0.0154347 -26.9367)
(5.50925 0.0196913 -26.9518)
(5.49504 0.00784932 -26.9675)
(5.46423 0.0141972 -26.9829)
(5.49188 -0.0270106 -26.9959)
(5.35516 -0.052689 -26.9868)
(4.60153 -0.549287 -27.0521)
(4.79354 -0.379451 -27.0768)
(4.50093 -0.29113 -27.0739)
(4.44294 -0.191882 -27.0782)
(4.14782 -0.135288 -27.0667)
(4.1138 -0.103679 -27.0506)
(3.88566 -0.083995 -27.0265)
(3.88086 -0.0720375 -27.0113)
(3.70387 -0.0613992 -26.9994)
(3.7229 -0.0526073 -26.9952)
(3.59628 -0.0434804 -26.992)
(3.64079 -0.0379623 -26.9938)
(3.55273 -0.0301785 -26.9968)
(3.60977 -0.0316598 -27.0047)
(3.53639 -0.0218824 -27.0123)
(3.60341 -0.0341726 -27.0215)
(3.51972 -0.00703439 -27.0288)
(3.62967 -0.0291207 -27.033)
(3.48678 0.0205136 -27.0395)
(3.85093 0.0723608 -27.0254)
(3.51204 -0.42034 -27.0271)
(2.80249 -0.150541 -27.0613)
(2.04901 -0.0449721 -27.0607)
(1.83927 0.023267 -27.0636)
(1.56004 0.0441174 -27.0546)
(1.54127 0.0508461 -27.0512)
(1.38339 0.0518581 -27.0428)
(1.40575 0.0503493 -27.0422)
(1.2906 0.0480923 -27.0384)
(1.32364 0.0454828 -27.0402)
(1.23769 0.0423618 -27.039)
(1.27855 0.041327 -27.0423)
(1.21496 0.0375443 -27.043)
(1.25796 0.040162 -27.047)
(1.20524 0.032297 -27.0482)
(1.24634 0.0425609 -27.0515)
(1.19469 0.0133229 -27.0522)
(1.22415 0.0432747 -27.0539)
(1.19863 -0.0901288 -27.0548)
(0.988594 -0.119508 -27.0529)
(4.49777 0.193044 0.00531442)
(3.73191 0.282041 0.00368768)
(3.12778 0.2441 0.00448234)
(2.54204 0.167641 0.00343032)
(2.26767 0.117346 0.00418958)
(1.98586 0.0829205 0.00335414)
(1.90609 0.0656539 0.0040286)
(1.76478 0.0557517 0.00330992)
(1.75344 0.0516369 0.00387633)
(1.67422 0.049961 0.00324421)
(1.68624 0.0485648 0.00372244)
(1.63934 0.0485878 0.00317728)
(1.65694 0.0448278 0.00358842)
(1.6271 0.0480601 0.00312023)
(1.6404 0.0371386 0.00347206)
(1.62389 0.0524056 0.00306602)
(1.62189 0.0116968 0.00336826)
(1.65772 0.0589953 0.0030082)
(1.57069 -0.119609 0.00330543)
(2.02248 -0.168316 0.00288354)
(4.63427 0.109872 0.00343059)
(4.66843 0.2348 0.00211617)
(4.81002 0.214632 0.0028704)
(4.67765 0.161618 0.00183373)
(4.65292 0.106285 0.00258857)
(4.48343 0.0628144 0.00175063)
(4.4365 0.0330864 0.00242055)
(4.29532 0.0127333 0.00170051)
(4.26091 -0.00240077 0.00226294)
(4.16081 -0.0133628 0.00163032)
(4.15107 -0.0211869 0.00210481)
(4.09277 -0.0264989 0.00156096)
(4.1044 -0.0270538 0.0019692)
(4.07125 -0.0310708 0.00150443)
(4.09259 -0.0237413 0.00184978)
(4.06111 -0.0346266 0.00145201)
(4.09513 -0.0125675 0.00173079)
(4.02431 -0.0285215 0.00139058)
(4.11652 -0.00147104 0.00158474)
(3.77815 0.0664086 0.00119655)
(4.56532 0.0616588 0.00473628)
(4.72517 0.187501 0.00351287)
(5.06108 0.219268 0.00423377)
(5.17693 0.196933 0.00318466)
(5.37056 0.166267 0.00392684)
(5.3888 0.134335 0.00308116)
(5.4814 0.111651 0.0037501)
(5.45829 0.0932943 0.00302916)
(5.50342 0.0782081 0.00359423)
(5.4684 0.0645914 0.00296327)
(5.49076 0.0512217 0.00344077)
(5.45898 0.0415505 0.002898)
(5.47224 0.0316958 0.00331017)
(5.45359 0.030296 0.00284481)
(5.45808 0.0204723 0.00319996)
(5.46244 0.0291029 0.00279272)
(5.44263 0.00394954 0.00310839)
(5.499 0.027752 0.00274093)
(5.43297 -0.0567199 0.00308834)
(5.58246 -0.0513733 0.00269993)
(4.52284 0.0291069 0.0032638)
(4.58738 0.0724398 0.00215767)
(4.94601 0.0768562 0.00286844)
(5.11729 0.0691964 0.00184072)
(5.39535 0.0561045 0.00257925)
(5.49936 0.0433262 0.00173546)
(5.67431 0.0336688 0.00240296)
(5.72947 0.0262226 0.00168275)
(5.84403 0.0197159 0.00224539)
(5.8703 0.0135021 0.00161329)
(5.94095 0.00726505 0.0020866)
(5.94084 0.00188141 0.00154317)
(5.9813 -0.00215032 0.00195011)
(5.96351 -0.00608206 0.00148674)
(5.99687 -0.00632014 0.00182956)
(5.96075 -0.00927654 0.00143268)
(6.0122 -0.00524014 0.00170349)
(5.91058 -0.00554354 0.00136253)
(6.02131 -0.0050781 0.00152097)
(5.67987 0.026227 0.00119585)
(4.55509 8.9268e-09 0.0046473)
(4.67087 4.99657e-09 0.00354259)
(5.00128 -6.87647e-08 0.00424127)
(5.16296 1.70913e-07 0.00319732)
(5.43241 -7.03257e-10 0.00393054)
(5.53954 4.44872e-07 0.00308074)
(5.72128 -2.7623e-07 0.00374811)
(5.78835 5.71135e-07 0.0030267)
(5.91655 8.06487e-08 0.00359219)
(5.95941 1.02736e-06 0.00296116)
(6.0435 2.98027e-06 0.00343852)
(6.05915 1.01113e-06 0.00289579)
(6.1025 1.00751e-05 0.00330799)
(6.10119 9.85589e-06 0.00284262)
(6.11802 2.62185e-05 0.00319781)
(6.12236 3.88729e-05 0.00278956)
(6.1182 8.28533e-05 0.0031089)
(6.15075 0.000120809 0.00273853)
(6.13738 0.000293918 0.00310298)
(6.18462 0.000377123 0.00272206)
(4.52284 -0.0291068 0.0032638)
(4.58738 -0.0724398 0.00215767)
(4.94601 -0.0768563 0.00286844)
(5.11729 -0.0691959 0.00184072)
(5.39535 -0.0561044 0.00257925)
(5.49936 -0.0433248 0.00173546)
(5.67431 -0.0336701 0.00240296)
(5.72947 -0.0262197 0.00168275)
(5.84402 -0.0197191 0.00224539)
(5.87031 -0.0134932 0.00161329)
(5.94094 -0.00727032 0.0020866)
(5.94086 -0.00185541 0.00154317)
(5.98129 0.00214059 0.0019501)
(5.96354 0.00616076 0.00148675)
(5.99686 0.00629703 0.00182956)
(5.96082 0.0095059 0.00143268)
(6.01225 0.00522451 0.00170349)
(5.9107 0.00606261 0.00136255)
(6.02155 0.00535063 0.00152101)
(5.68018 -0.0252063 0.00119568)
(4.56532 -0.0616588 0.00473628)
(4.72517 -0.187501 0.00351287)
(5.06108 -0.219268 0.00423377)
(5.17693 -0.196933 0.00318467)
(5.37056 -0.166267 0.00392684)
(5.3888 -0.134334 0.00308116)
(5.48139 -0.111651 0.00375009)
(5.4583 -0.0932938 0.00302916)
(5.50342 -0.078207 0.00359421)
(5.46841 -0.06459 0.00296328)
(5.49075 -0.0512153 0.00344075)
(5.45901 -0.0415453 0.00289803)
(5.47222 -0.0316775 0.00331012)
(5.45366 -0.0302733 0.00284485)
(5.45808 -0.0204291 0.00319989)
(5.46259 -0.029007 0.00279278)
(5.44274 -0.00383389 0.00310828)
(5.49932 -0.0274901 0.00274094)
(5.43344 0.0572082 0.00308814)
(5.58331 0.0519774 0.00269999)
(4.63427 -0.109872 0.00343059)
(4.66843 -0.2348 0.00211617)
(4.81002 -0.214632 0.0028704)
(4.67765 -0.161618 0.00183373)
(4.65292 -0.106284 0.00258857)
(4.48343 -0.062814 0.00175062)
(4.4365 -0.0330864 0.00242054)
(4.29532 -0.0127322 0.0017005)
(4.26091 0.00240016 0.00226294)
(4.16083 0.0133668 0.00163032)
(4.15105 0.0211844 0.00210479)
(4.09283 0.0265119 0.00156098)
(4.10436 0.0270439 0.00196915)
(4.07139 0.0311157 0.00150448)
(4.09254 0.0237134 0.00184969)
(4.06144 0.0347547 0.00145211)
(4.09516 0.0125345 0.00173066)
(4.0251 0.0288081 0.00139082)
(4.1168 0.00158388 0.00158459)
(3.78064 -0.0656774 0.00119665)
(4.49777 -0.193044 0.00531441)
(3.73191 -0.282041 0.00368768)
(3.12778 -0.2441 0.00448233)
(2.54204 -0.167641 0.00343031)
(2.26767 -0.117346 0.00418958)
(1.98586 -0.0829206 0.00335413)
(1.90609 -0.0656535 0.00402859)
(1.76478 -0.0557521 0.00330992)
(1.75345 -0.0516353 0.00387632)
(1.67422 -0.0499629 0.00324421)
(1.68625 -0.0485588 0.00372242)
(1.63936 -0.0485926 0.0031773)
(1.65696 -0.0448111 0.00358837)
(1.62715 -0.0480688 0.0031203)
(1.64048 -0.0371045 0.00347192)
(1.62401 -0.0524076 0.00306625)
(1.62219 -0.0116438 0.00336789)
(1.65807 -0.0589892 0.00300876)
(1.5714 0.119723 0.00330444)
(2.02436 0.168004 0.00288531)
(4.45512 0.0672117 -1.21567e-08)
(4.22213 0.123111 -1.25724e-08)
(3.84309 0.134091 -1.29795e-08)
(3.47884 0.119271 -1.23917e-08)
(3.11855 0.0945408 -1.16001e-08)
(2.82485 0.0690102 -1.11115e-08)
(2.585 0.0420221 -1.15185e-08)
(2.4232 0.0200833 -1.22426e-08)
(2.32289 0.00338133 -1.29867e-08)
(2.26989 -0.00429261 -1.32768e-08)
(2.24855 -0.00795911 -1.37574e-08)
(2.23869 -0.00672529 -1.44836e-08)
(2.23865 -0.00737373 -1.54553e-08)
(2.24051 -0.00425178 -1.60842e-08)
(2.23676 -0.00777227 -1.62832e-08)
(2.25245 -0.00230413 -1.60705e-08)
(2.22407 -0.0119068 -1.56569e-08)
(2.28297 -0.00268906 -1.54627e-08)
(2.18629 -0.0236759 -1.52432e-08)
(2.35278 -0.0445721 -1.53139e-08)
(4.51459 0.0590335 -1.23991e-08)
(4.64903 0.113929 -1.25488e-08)
(4.74163 0.14644 -1.27238e-08)
(4.82253 0.156681 -1.27891e-08)
(4.84126 0.152187 -1.27451e-08)
(4.84155 0.135417 -1.29453e-08)
(4.81001 0.111839 -1.38919e-08)
(4.77216 0.0836767 -1.45561e-08)
(4.73019 0.0587615 -1.448e-08)
(4.69416 0.0380082 -1.3798e-08)
(4.67094 0.0246972 -1.35906e-08)
(4.65682 0.0159156 -1.40735e-08)
(4.65639 0.0115767 -1.50783e-08)
(4.66 0.00994437 -1.57928e-08)
(4.67005 0.00800144 -1.58746e-08)
(4.68238 0.0116938 -1.55036e-08)
(4.68877 0.00501568 -1.48744e-08)
(4.71241 0.0213239 -1.45301e-08)
(4.69383 0.00141296 -1.4326e-08)
(4.73863 0.0466499 -1.42357e-08)
(4.504 0.0223061 -1.24495e-08)
(4.62566 0.0573577 -1.27347e-08)
(4.74549 0.0845995 -1.23031e-08)
(4.91109 0.098427 -1.13289e-08)
(5.04987 0.100621 -1.13193e-08)
(5.18886 0.0944491 -1.28567e-08)
(5.29357 0.0803913 -1.50347e-08)
(5.37789 0.063399 -1.5958e-08)
(5.43242 0.0456555 -1.54525e-08)
(5.46783 0.0315666 -1.42212e-08)
(5.48888 0.0196509 -1.35554e-08)
(5.50191 0.012733 -1.37068e-08)
(5.51311 0.00565838 -1.43662e-08)
(5.52387 0.00485729 -1.47e-08)
(5.53673 -0.00188046 -1.43457e-08)
(5.55019 0.00446995 -1.35338e-08)
(5.56727 -0.00938035 -1.26343e-08)
(5.57687 0.0084943 -1.22296e-08)
(5.6106 -0.02011 -1.22918e-08)
(5.59631 0.00515926 -1.24467e-08)
(4.50243 0.0178312 -1.24409e-08)
(4.59905 0.0348817 -1.26445e-08)
(4.70605 0.0466468 -1.22479e-08)
(4.86729 0.0522165 -1.16447e-08)
(5.01555 0.0535744 -1.19209e-08)
(5.17465 0.0507436 -1.30936e-08)
(5.3076 0.045155 -1.44721e-08)
(5.4248 0.0373584 -1.48552e-08)
(5.51451 0.0295967 -1.43681e-08)
(5.58285 0.0224014 -1.35242e-08)
(5.63575 0.0166139 -1.33119e-08)
(5.67116 0.0122016 -1.36973e-08)
(5.70566 0.00859076 -1.43331e-08)
(5.72285 0.00696085 -1.44552e-08)
(5.75571 0.00409551 -1.40112e-08)
(5.7564 0.00618354 -1.31671e-08)
(5.80528 0.000719554 -1.2543e-08)
(5.7698 0.0103136 -1.2254e-08)
(5.86368 -0.00130596 -1.24137e-08)
(5.75299 0.0229743 -1.29255e-08)
(4.50316 3.61612e-09 -1.24189e-08)
(4.61167 2.65972e-08 -1.25347e-08)
(4.71956 -9.14427e-08 -1.22809e-08)
(4.87989 2.05991e-07 -1.2063e-08)
(5.02421 -2.09113e-07 -1.25896e-08)
(5.18107 6.46411e-07 -1.33753e-08)
(5.31362 -6.5975e-07 -1.38265e-08)
(5.43417 1.5474e-06 -1.34671e-08)
(5.52932 -1.15871e-06 -1.30259e-08)
(5.60537 3.52552e-06 -1.28715e-08)
(5.66464 -1.15535e-06 -1.3333e-08)
(5.70727 9.02789e-06 -1.37856e-08)
(5.74426 -6.47593e-07 -1.39555e-08)
(5.76707 2.6811e-05 -1.36361e-08)
(5.79673 5.8916e-07 -1.3272e-08)
(5.80487 8.27507e-05 -1.30973e-08)
(5.84548 2.42989e-05 -1.32533e-08)
(5.82422 0.000198812 -1.36478e-08)
(5.91436 0.000214182 -1.40499e-08)
(5.82863 0.000429473 -1.45181e-08)
(4.50243 -0.0178311 -1.23813e-08)
(4.59905 -0.0348817 -1.2422e-08)
(4.70605 -0.0466469 -1.23486e-08)
(4.86729 -0.0522161 -1.25426e-08)
(5.01555 -0.0535748 -1.3259e-08)
(5.17465 -0.0507423 -1.35447e-08)
(5.3076 -0.0451566 -1.29977e-08)
(5.4248 -0.0373547 -1.19472e-08)
(5.51451 -0.0296004 -1.16711e-08)
(5.58285 -0.0223918 -1.22689e-08)
(5.63575 -0.0166211 -1.33572e-08)
(5.67117 -0.0121765 -1.37734e-08)
(5.70566 -0.0086043 -1.34314e-08)
(5.72286 -0.00689248 -1.27504e-08)
(5.75573 -0.00411681 -1.26025e-08)
(5.75642 -0.0059998 -1.31994e-08)
(5.80534 -0.000702157 -1.4181e-08)
(5.76985 -0.009905 -1.51645e-08)
(5.86387 0.0016769 -1.57175e-08)
(5.75319 -0.0221329 -1.59954e-08)
(4.504 -0.0223061 -1.23507e-08)
(4.62566 -0.0573577 -1.23453e-08)
(4.74549 -0.0845997 -1.2426e-08)
(4.91109 -0.0984268 -1.30244e-08)
(5.04987 -0.100621 -1.38454e-08)
(5.18886 -0.0944481 -1.34466e-08)
(5.29357 -0.0803922 -1.19848e-08)
(5.3779 -0.0633967 -1.06543e-08)
(5.43241 -0.0456571 -1.08157e-08)
(5.46784 -0.0315607 -1.19818e-08)
(5.48886 -0.0196529 -1.33118e-08)
(5.50193 -0.0127167 -1.3614e-08)
(5.51309 -0.00566145 -1.30915e-08)
(5.52392 -0.00480728 -1.24235e-08)
(5.53673 0.0018743 -1.24816e-08)
(5.55028 -0.00431309 -1.33112e-08)
(5.56738 0.00940065 -1.45223e-08)
(5.57704 -0.00811746 -1.54771e-08)
(5.61102 0.0204437 -1.59404e-08)
(5.59686 -0.00436176 -1.61938e-08)
(4.51459 -0.0590335 -1.23628e-08)
(4.64903 -0.113929 -1.25156e-08)
(4.74163 -0.14644 -1.21777e-08)
(4.82253 -0.156681 -1.1872e-08)
(4.84126 -0.152187 -1.23913e-08)
(4.84155 -0.135417 -1.27894e-08)
(4.81 -0.111839 -1.24545e-08)
(4.77217 -0.0836754 -1.1844e-08)
(4.73018 -0.0587626 -1.20589e-08)
(4.69419 -0.0380032 -1.2752e-08)
(4.67091 -0.0247014 -1.33372e-08)
(4.6569 -0.0158982 -1.29941e-08)
(4.65631 -0.0115898 -1.21373e-08)
(4.66017 -0.00989152 -1.13485e-08)
(4.66995 -0.00803029 -1.1275e-08)
(4.68271 -0.0115507 -1.18378e-08)
(4.68876 -0.00503702 -1.26353e-08)
(4.71307 -0.0210122 -1.34906e-08)
(4.6942 -0.00121555 -1.39109e-08)
(4.74042 -0.0460278 -1.41258e-08)
(4.45512 -0.0672117 -1.25255e-08)
(4.22213 -0.123111 -1.23343e-08)
(3.84309 -0.13409 -1.16337e-08)
(3.47884 -0.119271 -1.20193e-08)
(3.11855 -0.0945406 -1.34631e-08)
(2.82485 -0.0690104 -1.4554e-08)
(2.585 -0.0420216 -1.4652e-08)
(2.4232 -0.020084 -1.40265e-08)
(2.32289 -0.00337964 -1.35499e-08)
(2.2699 0.00429099 -1.32672e-08)
(2.24855 0.00796277 -1.30122e-08)
(2.23872 0.00672415 -1.23346e-08)
(2.23865 0.00737932 -1.16366e-08)
(2.2406 0.00425707 -1.11231e-08)
(2.2368 0.00777752 -1.11905e-08)
(2.25267 0.00233976 -1.15628e-08)
(2.22425 0.0119138 -1.2248e-08)
(2.28368 0.00277966 -1.27197e-08)
(2.18664 0.0237765 -1.31918e-08)
(2.35594 0.044692 -1.33355e-08)
(4.49777 0.193044 -0.00531443)
(3.73191 0.282041 -0.0036877)
(3.12778 0.2441 -0.00448235)
(2.54204 0.167641 -0.00343033)
(2.26767 0.117346 -0.0041896)
(1.98586 0.0829205 -0.00335415)
(1.90609 0.0656538 -0.00402862)
(1.76478 0.0557516 -0.00330994)
(1.75344 0.0516369 -0.00387635)
(1.67422 0.0499609 -0.00324423)
(1.68624 0.0485647 -0.00372246)
(1.63934 0.0485877 -0.0031773)
(1.65694 0.0448277 -0.00358844)
(1.6271 0.04806 -0.00312025)
(1.6404 0.0371384 -0.00347209)
(1.62389 0.0524055 -0.00306605)
(1.62189 0.0116967 -0.00336829)
(1.65771 0.0589952 -0.00300823)
(1.57069 -0.119609 -0.00330546)
(2.02248 -0.168316 -0.00288357)
(4.63427 0.109872 -0.00343061)
(4.66843 0.2348 -0.00211619)
(4.81002 0.214632 -0.00287042)
(4.67765 0.161618 -0.00183375)
(4.65292 0.106284 -0.00258859)
(4.48343 0.0628143 -0.00175065)
(4.4365 0.0330862 -0.00242056)
(4.29532 0.0127333 -0.00170053)
(4.26091 -0.00240072 -0.00226296)
(4.16081 -0.0133628 -0.00163034)
(4.15107 -0.0211867 -0.00210483)
(4.09277 -0.0264986 -0.00156098)
(4.1044 -0.0270535 -0.00196922)
(4.07125 -0.0310704 -0.00150445)
(4.09259 -0.0237409 -0.0018498)
(4.06111 -0.0346262 -0.00145203)
(4.09513 -0.0125672 -0.00173082)
(4.02431 -0.0285213 -0.00139061)
(4.11652 -0.00147087 -0.00158477)
(3.77815 0.0664088 -0.00119658)
(4.56532 0.0616588 -0.0047363)
(4.72517 0.187501 -0.00351289)
(5.06108 0.219268 -0.00423379)
(5.17693 0.196933 -0.00318469)
(5.37056 0.166267 -0.00392686)
(5.3888 0.134335 -0.00308118)
(5.4814 0.111651 -0.00375012)
(5.45829 0.0932946 -0.00302918)
(5.50342 0.0782084 -0.00359425)
(5.4684 0.0645916 -0.00296329)
(5.49076 0.0512219 -0.0034408)
(5.45898 0.0415505 -0.00289802)
(5.47224 0.0316959 -0.00331019)
(5.45359 0.0302961 -0.00284483)
(5.45808 0.0204724 -0.00319998)
(5.46244 0.0291029 -0.00279274)
(5.44262 0.00394953 -0.00310842)
(5.499 0.0277519 -0.00274096)
(5.43297 -0.05672 -0.00308836)
(5.58246 -0.0513734 -0.00269996)
(4.52284 0.0291069 -0.00326382)
(4.58738 0.0724398 -0.00215769)
(4.94601 0.0768562 -0.00286846)
(5.11729 0.0691963 -0.00184074)
(5.39535 0.0561042 -0.00257927)
(5.49936 0.043326 -0.00173548)
(5.67431 0.033669 -0.00240298)
(5.72947 0.026223 -0.00168277)
(5.84403 0.0197165 -0.00224541)
(5.8703 0.0135026 -0.00161331)
(5.94095 0.00726542 -0.00208663)
(5.94084 0.00188179 -0.00154319)
(5.9813 -0.0021498 -0.00195013)
(5.96351 -0.00608148 -0.00148677)
(5.99687 -0.00631966 -0.00182959)
(5.96075 -0.00927624 -0.0014327)
(6.01219 -0.0052401 -0.00170352)
(5.91058 -0.00554368 -0.00136255)
(6.02131 -0.0050783 -0.00152099)
(5.67987 0.0262268 -0.00119588)
(4.55509 7.73702e-09 -0.00464732)
(4.67087 2.96991e-08 -0.00354261)
(5.00128 -4.46482e-08 -0.00424129)
(5.16296 1.04327e-07 -0.00319734)
(5.43241 -1.42476e-07 -0.00393056)
(5.53954 4.11712e-07 -0.00308076)
(5.72128 -1.5814e-08 -0.00374813)
(5.78835 1.08529e-06 -0.00302672)
(5.91655 6.22239e-07 -0.00359221)
(5.95941 1.38664e-06 -0.00296119)
(6.0435 3.13878e-06 -0.00343855)
(6.05915 1.06416e-06 -0.00289581)
(6.1025 1.02111e-05 -0.00330801)
(6.10119 1.00411e-05 -0.00284264)
(6.11802 2.63906e-05 -0.00319783)
(6.12236 3.88593e-05 -0.00278959)
(6.1182 8.26866e-05 -0.00310892)
(6.15075 0.000120486 -0.00273855)
(6.13738 0.00029353 -0.003103)
(6.18462 0.000376728 -0.00272208)
(4.52284 -0.0291069 -0.00326382)
(4.58738 -0.0724398 -0.00215769)
(4.94601 -0.0768563 -0.00286846)
(5.11729 -0.069196 -0.00184074)
(5.39535 -0.0561047 -0.00257927)
(5.49936 -0.043325 -0.00173548)
(5.67431 -0.03367 -0.00240298)
(5.72947 -0.0262192 -0.00168277)
(5.84402 -0.0197186 -0.00224541)
(5.87031 -0.0134928 -0.00161331)
(5.94094 -0.00726997 -0.00208662)
(5.94086 -0.00185502 -0.0015432)
(5.98129 0.00214111 -0.00195012)
(5.96354 0.00616133 -0.00148677)
(5.99686 0.00629751 -0.00182958)
(5.96082 0.00950619 -0.0014327)
(6.01225 0.00522456 -0.00170351)
(5.9107 0.00606247 -0.00136257)
(6.02155 0.00535044 -0.00152103)
(5.68018 -0.0252065 -0.00119571)
(4.56532 -0.0616588 -0.0047363)
(4.72517 -0.187501 -0.00351289)
(5.06108 -0.219268 -0.00423379)
(5.17693 -0.196933 -0.00318468)
(5.37056 -0.166267 -0.00392685)
(5.3888 -0.134334 -0.00308118)
(5.48139 -0.111651 -0.00375012)
(5.4583 -0.0932935 -0.00302919)
(5.50342 -0.0782067 -0.00359424)
(5.46841 -0.0645898 -0.00296331)
(5.49075 -0.0512151 -0.00344077)
(5.45902 -0.0415452 -0.00289805)
(5.47222 -0.0316775 -0.00331015)
(5.45366 -0.0302732 -0.00284488)
(5.45808 -0.0204291 -0.00319991)
(5.46259 -0.029007 -0.0027928)
(5.44274 -0.00383391 -0.0031083)
(5.49932 -0.0274902 -0.00274096)
(5.43344 0.0572082 -0.00308816)
(5.58331 0.0519773 -0.00270001)
(4.63427 -0.109872 -0.00343061)
(4.66843 -0.2348 -0.00211619)
(4.81002 -0.214631 -0.00287042)
(4.67765 -0.161618 -0.00183375)
(4.65292 -0.106284 -0.00258859)
(4.48343 -0.0628141 -0.00175065)
(4.4365 -0.0330865 -0.00242057)
(4.29532 -0.0127323 -0.00170053)
(4.26091 0.0024002 -0.00226296)
(4.16083 0.0133669 -0.00163035)
(4.15105 0.0211845 -0.00210482)
(4.09283 0.0265122 -0.00156101)
(4.10436 0.0270442 -0.00196917)
(4.0714 0.0311161 -0.0015045)
(4.09254 0.0237139 -0.00184971)
(4.06144 0.0347551 -0.00145213)
(4.09516 0.0125348 -0.00173068)
(4.0251 0.0288084 -0.00139084)
(4.1168 0.00158407 -0.00158461)
(3.78064 -0.0656772 -0.00119667)
(4.49777 -0.193044 -0.00531444)
(3.73191 -0.282041 -0.0036877)
(3.12778 -0.2441 -0.00448236)
(2.54204 -0.167641 -0.00343034)
(2.26767 -0.117346 -0.0041896)
(1.98586 -0.0829206 -0.00335416)
(1.90609 -0.0656535 -0.00402862)
(1.76478 -0.0557522 -0.00330994)
(1.75345 -0.0516353 -0.00387635)
(1.67423 -0.049963 -0.00324424)
(1.68625 -0.0485588 -0.00372245)
(1.63936 -0.0485927 -0.00317732)
(1.65696 -0.0448112 -0.00358839)
(1.62715 -0.048069 -0.00312032)
(1.64048 -0.0371046 -0.00347194)
(1.62401 -0.0524077 -0.00306627)
(1.62219 -0.011644 -0.00336791)
(1.65807 -0.0589893 -0.00300878)
(1.5714 0.119723 -0.00330446)
(2.02436 0.168004 -0.00288534)
(3.51204 0.42034 27.0271)
(2.80249 0.150541 27.0613)
(2.04901 0.0449721 27.0607)
(1.83927 -0.023267 27.0636)
(1.56004 -0.0441174 27.0546)
(1.54127 -0.0508459 27.0512)
(1.38339 -0.0518584 27.0428)
(1.40575 -0.0503488 27.0422)
(1.2906 -0.0480932 27.0384)
(1.32364 -0.0454811 27.0402)
(1.23769 -0.0423654 27.0391)
(1.27853 -0.0413221 27.0423)
(1.21495 -0.037553 27.0431)
(1.25791 -0.040146 27.0469)
(1.20519 -0.0323152 27.0485)
(1.24622 -0.0425246 27.0511)
(1.19447 -0.0133478 27.0529)
(1.22386 -0.043204 27.0528)
(1.19793 0.0901504 27.0568)
(0.987384 0.119845 27.0477)
(4.60153 0.549287 27.0521)
(4.79354 0.379451 27.0768)
(4.50093 0.29113 27.0739)
(4.44294 0.191882 27.0781)
(4.14782 0.135288 27.0667)
(4.1138 0.103679 27.0505)
(3.88566 0.0839956 27.0265)
(3.88086 0.0720372 27.0113)
(3.70387 0.0614014 26.9994)
(3.72289 0.0526062 26.9951)
(3.59628 0.0434874 26.9921)
(3.64076 0.0379615 26.9936)
(3.55273 0.0301964 26.9972)
(3.60968 0.0316628 27.0041)
(3.53634 0.0219182 27.0131)
(3.60321 0.0342111 27.0204)
(3.51944 0.00710331 27.0304)
(3.62922 0.0293028 27.0306)
(3.48587 -0.0202712 27.0436)
(3.84942 -0.0721129 27.0182)
(4.72107 0.288918 27.054)
(5.20527 0.212022 27.0723)
(5.32152 0.191165 27.0612)
(5.56653 0.131114 27.0659)
(5.51611 0.0939063 27.0577)
(5.63919 0.0684396 27.0447)
(5.5528 0.0508477 27.0127)
(5.63042 0.0386581 26.9845)
(5.5421 0.0272614 26.9579)
(5.59642 0.01517 26.9453)
(5.51565 0.00407006 26.9348)
(5.55841 -0.0063722 26.9306)
(5.49388 -0.011362 26.9263)
(5.53163 -0.0170501 26.9293)
(5.48885 -0.015451 26.9372)
(5.50905 -0.0195143 26.9512)
(5.49493 -0.00787363 26.9682)
(5.46381 -0.0137265 26.982)
(5.49129 0.0271812 26.9971)
(5.35396 0.0536088 26.9854)
(4.69909 0.169379 27.0629)
(5.1222 0.131661 27.0811)
(5.3378 0.124814 27.0711)
(5.68501 0.0953747 27.0745)
(5.75815 0.0766382 27.07)
(5.9843 0.0641916 27.0585)
(6.00301 0.0554814 27.0283)
(6.16402 0.0498582 26.9955)
(6.16346 0.0439072 26.9649)
(6.28188 0.0374148 26.9469)
(6.26107 0.0295603 26.9353)
(6.3387 0.0228076 26.9284)
(6.29715 0.0158551 26.921)
(6.34888 0.0140148 26.9176)
(6.29775 0.00829971 26.9203)
(6.34895 0.0127528 26.9323)
(6.29383 0.00163774 26.9503)
(6.37372 0.0110073 26.9709)
(6.30573 -0.00605329 26.9889)
(6.50765 -0.0141163 26.9843)
(4.70048 -1.77029e-08 27.0582)
(5.11868 1.87384e-08 27.0746)
(5.34448 -5.94102e-08 27.0616)
(5.70747 3.85154e-08 27.0653)
(5.79657 -4.32341e-07 27.0592)
(6.03932 1.7783e-07 27.0491)
(6.07687 -7.26466e-07 27.0176)
(6.25602 1.36576e-06 26.9853)
(6.2777 -6.97968e-07 26.9521)
(6.41411 4.46559e-06 26.9342)
(6.415 -4.33814e-07 26.921)
(6.50135 1.3217e-05 26.9149)
(6.47811 8.61662e-07 26.9056)
(6.52304 3.56246e-05 26.9014)
(6.49995 -3.77581e-06 26.9011)
(6.50818 0.000103999 26.9126)
(6.51749 2.0714e-06 26.9295)
(6.45922 0.000269862 26.9526)
(6.52535 0.000128646 26.9713)
(6.35501 0.000518426 26.9711)
(4.69909 -0.169379 27.0629)
(5.1222 -0.131661 27.0811)
(5.3378 -0.124814 27.0711)
(5.68501 -0.0953747 27.0745)
(5.75815 -0.0766388 27.07)
(5.9843 -0.0641914 27.0585)
(6.003 -0.0554819 27.0282)
(6.16402 -0.049857 26.9955)
(6.16346 -0.043906 26.9649)
(6.28189 -0.0374119 26.947)
(6.26106 -0.0295536 26.9353)
(6.33872 -0.0228008 26.9285)
(6.29714 -0.0158362 26.9208)
(6.34892 -0.0139866 26.9177)
(6.29777 -0.00825067 26.9202)
(6.34901 -0.0126383 26.9324)
(6.29392 -0.00150994 26.9502)
(6.37385 -0.0106757 26.9709)
(6.30604 0.00651393 26.989)
(6.50809 0.0149796 26.9841)
(4.72107 -0.288918 27.054)
(5.20527 -0.212022 27.0723)
(5.32152 -0.191165 27.0612)
(5.56653 -0.131115 27.0659)
(5.51611 -0.0939068 27.0577)
(5.63919 -0.0684398 27.0447)
(5.5528 -0.0508485 27.0126)
(5.63043 -0.0386567 26.9846)
(5.5421 -0.0272619 26.9578)
(5.59644 -0.0151641 26.9454)
(5.51564 -0.00407114 26.9346)
(5.55846 0.00639073 26.9309)
(5.49385 0.0113572 26.926)
(5.53173 0.0171112 26.9297)
(5.48884 0.0154354 26.9367)
(5.50925 0.0196921 26.9518)
(5.49505 0.00784997 26.9675)
(5.46423 0.0141977 26.9829)
(5.49189 -0.0270102 26.9959)
(5.35516 -0.0526887 26.9868)
(4.60153 -0.549287 27.0521)
(4.79354 -0.379451 27.0768)
(4.50093 -0.29113 27.0739)
(4.44294 -0.191882 27.0782)
(4.14782 -0.135288 27.0667)
(4.1138 -0.10368 27.0505)
(3.88566 -0.0839954 27.0265)
(3.88086 -0.0720378 27.0113)
(3.70387 -0.0613994 26.9994)
(3.7229 -0.0526074 26.9952)
(3.59628 -0.0434805 26.992)
(3.64079 -0.0379624 26.9938)
(3.55273 -0.0301785 26.9968)
(3.60977 -0.0316598 27.0047)
(3.5364 -0.0218824 27.0123)
(3.60341 -0.0341725 27.0215)
(3.51972 -0.00703445 27.0288)
(3.62967 -0.0291208 27.0331)
(3.48678 0.0205135 27.0395)
(3.85093 0.0723607 27.0254)
(3.51204 -0.42034 27.0271)
(2.80249 -0.150541 27.0613)
(2.04901 -0.044972 27.0607)
(1.83927 0.0232669 27.0636)
(1.56004 0.0441171 27.0546)
(1.54127 0.0508457 27.0512)
(1.38339 0.0518578 27.0428)
(1.40575 0.0503491 27.0422)
(1.2906 0.0480921 27.0384)
(1.32364 0.0454828 27.0402)
(1.23769 0.0423618 27.039)
(1.27855 0.0413271 27.0423)
(1.21496 0.0375445 27.043)
(1.25796 0.0401623 27.047)
(1.20524 0.0322972 27.0482)
(1.24634 0.0425611 27.0515)
(1.19469 0.0133231 27.0522)
(1.22415 0.0432747 27.0539)
(1.19863 -0.0901287 27.0549)
(0.988594 -0.119508 27.0529)
(1.0856 -0.161475 -27.0534)
(1.14421 -0.146081 -27.1709)
(1.06831 -0.113342 -27.2377)
(1.06121 -0.109517 -27.2695)
(1.00687 -0.108704 -27.279)
(0.998183 -0.10834 -27.2836)
(0.945998 -0.1085 -27.2845)
(0.926544 -0.108401 -27.2864)
(0.868564 -0.108617 -27.2872)
(0.835144 -0.108628 -27.289)
(0.767618 -0.108871 -27.2901)
(0.72066 -0.108956 -27.292)
(0.644333 -0.109223 -27.2935)
(0.586325 -0.109374 -27.2955)
(0.503807 -0.109667 -27.2973)
(0.438462 -0.109857 -27.2995)
(0.353352 -0.110144 -27.3015)
(0.286324 -0.110327 -27.3037)
(0.205489 -0.110582 -27.3057)
(0.145434 -0.110732 -27.3077)
(0.0785713 -0.110926 -27.3096)
(0.0344014 -0.111012 -27.3114)
(-0.012832 -0.111159 -27.3129)
(-0.0381201 -0.111131 -27.3142)
(-0.0651008 -0.111116 -27.3153)
(-0.0708894 -0.110948 -27.3162)
(-0.0770562 -0.110808 -27.3169)
(-0.0647075 -0.110548 -27.3175)
(-0.0566854 -0.110365 -27.3179)
(-0.0367609 -0.110127 -27.3183)
(-0.0275196 -0.109935 -27.3186)
(-0.0108957 -0.109718 -27.3189)
(-0.00726361 -0.109566 -27.3193)
(0.00205743 -0.10942 -27.3198)
(-0.00271978 -0.109348 -27.3203)
(-0.00345633 -0.109283 -27.321)
(-0.0177464 -0.109273 -27.3217)
(-0.027176 -0.10924 -27.3224)
(-0.0442101 -0.109238 -27.3231)
(-0.0522491 -0.109197 -27.3237)
(-0.0606863 -0.10918 -27.3243)
(-0.0579345 -0.109111 -27.3248)
(-0.054509 -0.109056 -27.3252)
(-0.043126 -0.108944 -27.3255)
(-0.0359636 -0.108846 -27.3258)
(-0.0240337 -0.108721 -27.326)
(-0.0200902 -0.108629 -27.3262)
(-0.0114803 -0.108552 -27.3265)