/*--------------------------------*- C++ -*----------------------------------*\
  =========                 |
  \\      /  F ield         | OpenFOAM: The Open Source CFD Toolbox
   \\    /   O peration     | Website:  https://openfoam.org
    \\  /    A nd           | Version:  7
     \\/     M anipulation  |
\*---------------------------------------------------------------------------*/
FoamFile
{
    version     2.0;
    format      ascii;
    class       volScalarField;
    location    "4.4";
    object      T;
}
// * * * * * * * * * * * * * * * * * * * * * * * * * * * * * * * * * * * * * //

dimensions      [0 0 0 1 0 0 0];

internalField   nonuniform List<scalar> 
6000
(
283.147
283.146
283.146
283.147
283.147
283.146
283.146
283.146
283.146
283.146
283.147
283.147
283.147
283.147
283.147
283.147
283.147
283.147
283.147
283.147
283.147
283.147
283.148
283.148
283.148
283.147
283.147
283.147
283.147
283.147
283.146
283.146
283.146
283.146
283.146
283.146
283.145
283.145
283.145
283.145
283.144
283.144
283.144
283.144
283.144
283.143
283.143
283.143
283.143
283.143
283.142
283.142
283.142
283.142
283.141
283.141
283.141
283.141
283.141
283.141
283.14
283.14
283.14
283.14
283.14
283.14
283.14
283.14
283.139
283.139
283.139
283.139
283.139
283.139
283.139
283.139
283.139
283.138
283.138
283.138
283.138
283.138
283.138
283.138
283.138
283.138
283.138
283.138
283.138
283.137
283.139
283.136
283.141
283.131
283.148
283.118
283.172
283.074
283.25
282.933
283.147
283.147
283.147
283.147
283.147
283.146
283.145
283.145
283.144
283.144
283.145
283.145
283.145
283.145
283.145
283.145
283.145
283.145
283.145
283.144
283.144
283.144
283.144
283.144
283.144
283.144
283.145
283.145
283.145
283.145
283.145
283.145
283.145
283.145
283.145
283.145
283.144
283.144
283.144
283.144
283.144
283.144
283.144
283.144
283.143
283.143
283.143
283.143
283.143
283.143
283.143
283.143
283.143
283.143
283.143
283.143
283.142
283.142
283.142
283.141
283.141
283.141
283.14
283.14
283.14
283.139
283.139
283.139
283.138
283.138
283.138
283.138
283.137
283.137
283.137
283.136
283.136
283.136
283.135
283.135
283.135
283.134
283.134
283.134
283.133
283.133
283.133
283.132
283.132
283.132
283.132
283.131
283.131
283.13
283.132
283.129
283.132
283.127
283.133
283.127
283.148
283.147
283.147
283.147
283.147
283.147
283.146
283.145
283.145
283.145
283.145
283.145
283.145
283.145
283.145
283.145
283.145
283.145
283.145
283.144
283.144
283.144
283.144
283.144
283.144
283.144
283.144
283.144
283.144
283.144
283.144
283.144
283.144
283.144
283.144
283.143
283.143
283.143
283.143
283.143
283.143
283.143
283.142
283.142
283.142
283.142
283.142
283.141
283.141
283.141
283.141
283.141
283.141
283.141
283.142
283.141
283.141
283.141
283.141
283.141
283.141
283.14
283.14
283.14
283.14
283.139
283.139
283.138
283.138
283.138
283.137
283.137
283.137
283.136
283.136
283.136
283.135
283.135
283.135
283.134
283.134
283.134
283.134
283.133
283.133
283.133
283.133
283.132
283.132
283.131
283.131
283.131
283.13
283.13
283.13
283.129
283.129
283.129
283.129
283.129
283.148
283.148
283.148
283.148
283.147
283.147
283.147
283.146
283.146
283.146
283.146
283.146
283.146
283.146
283.146
283.146
283.146
283.146
283.145
283.145
283.145
283.145
283.145
283.145
283.145
283.145
283.145
283.145
283.145
283.145
283.145
283.145
283.145
283.145
283.144
283.144
283.144
283.144
283.144
283.144
283.143
283.143
283.143
283.143
283.143
283.143
283.142
283.142
283.142
283.142
283.142
283.142
283.142
283.142
283.142
283.142
283.142
283.142
283.142
283.142
283.142
283.142
283.142
283.141
283.141
283.141
283.141
283.14
283.14
283.14
283.139
283.139
283.139
283.139
283.138
283.138
283.138
283.138
283.138
283.137
283.137
283.137
283.137
283.136
283.136
283.136
283.136
283.136
283.135
283.135
283.135
283.135
283.134
283.134
283.134
283.134
283.133
283.133
283.133
283.132
283.149
283.148
283.148
283.148
283.148
283.148
283.148
283.147
283.147
283.147
283.147
283.147
283.147
283.147
283.147
283.147
283.147
283.147
283.147
283.147
283.147
283.147
283.147
283.147
283.147
283.147
283.147
283.147
283.147
283.147
283.147
283.147
283.147
283.147
283.147
283.147
283.147
283.147
283.147
283.147
283.147
283.147
283.147
283.146
283.146
283.146
283.146
283.146
283.146
283.146
283.146
283.146
283.146
283.146
283.146
283.146
283.146
283.146
283.146
283.146
283.146
283.146
283.145
283.145
283.145
283.145
283.145
283.144
283.144
283.144
283.144
283.143
283.143
283.143
283.143
283.142
283.142
283.142
283.142
283.142
283.141
283.141
283.141
283.141
283.141
283.141
283.141
283.14
283.14
283.14
283.14
283.139
283.139
283.139
283.139
283.139
283.138
283.138
283.138
283.138
283.15
283.15
283.15
283.15
283.15
283.149
283.149
283.149
283.149
283.149
283.149
283.149
283.149
283.149
283.149
283.149
283.149
283.149
283.149
283.149
283.149
283.149
283.149
283.149
283.149
283.149
283.149
283.149
283.149
283.149
283.149
283.149
283.149
283.149
283.149
283.149
283.148
283.148
283.148
283.148
283.148
283.148
283.148
283.148
283.148
283.148
283.148
283.148
283.148
283.148
283.148
283.148
283.148
283.148
283.148
283.148
283.148
283.148
283.148
283.148
283.148
283.148
283.148
283.148
283.148
283.148
283.147
283.147
283.147
283.147
283.147
283.147
283.147
283.146
283.146
283.146
283.146
283.146
283.146
283.145
283.145
283.145
283.145
283.145
283.145
283.144
283.144
283.144
283.144
283.144
283.144
283.144
283.143
283.143
283.143
283.143
283.143
283.143
283.143
283.143
283.15
283.151
283.151
283.151
283.15
283.15
283.15
283.15
283.15
283.15
283.15
283.15
283.15
283.15
283.15
283.15
283.15
283.15
283.15
283.15
283.15
283.15
283.15
283.15
283.15
283.15
283.15
283.15
283.15
283.15
283.15
283.15
283.15
283.15
283.15
283.15
283.15
283.15
283.15
283.15
283.15
283.15
283.15
283.15
283.15
283.15
283.15
283.15
283.15
283.151
283.151
283.151
283.151
283.151
283.151
283.151
283.151
283.151
283.151
283.151
283.151
283.151
283.151
283.151
283.151
283.151
283.151
283.151
283.151
283.15
283.15
283.15
283.15
283.15
283.15
283.15
283.15
283.15
283.15
283.15
283.15
283.149
283.149
283.149
283.149
283.149
283.149
283.149
283.149
283.149
283.149
283.149
283.149
283.149
283.149
283.149
283.149
283.149
283.149
283.149
283.151
283.151
283.151
283.151
283.151
283.151
283.151
283.151
283.151
283.151
283.151
283.151
283.151
283.151
283.151
283.151
283.151
283.151
283.151
283.151
283.152
283.152
283.152
283.152
283.152
283.152
283.152
283.152
283.152
283.152
283.152
283.152
283.152
283.152
283.152
283.153
283.153
283.153
283.153
283.153
283.153
283.153
283.154
283.154
283.154
283.154
283.154
283.154
283.154
283.154
283.154
283.154
283.154
283.154
283.154
283.154
283.154
283.155
283.155
283.155
283.155
283.155
283.154
283.154
283.154
283.154
283.154
283.154
283.154
283.154
283.154
283.155
283.155
283.154
283.154
283.154
283.154
283.154
283.154
283.154
283.154
283.154
283.154
283.154
283.154
283.154
283.154
283.154
283.154
283.154
283.154
283.154
283.154
283.154
283.155
283.155
283.155
283.155
283.155
283.155
283.152
283.152
283.152
283.152
283.152
283.152
283.152
283.152
283.152
283.152
283.152
283.152
283.152
283.152
283.152
283.152
283.152
283.152
283.152
283.152
283.152
283.152
283.153
283.153
283.153
283.153
283.153
283.153
283.153
283.153
283.153
283.152
283.153
283.153
283.153
283.153
283.154
283.154
283.154
283.154
283.154
283.154
283.154
283.154
283.154
283.154
283.154
283.155
283.155
283.155
283.155
283.155
283.155
283.155
283.155
283.155
283.155
283.156
283.156
283.156
283.156
283.156
283.156
283.156
283.156
283.156
283.156
283.156
283.156
283.156
283.157
283.157
283.157
283.157
283.157
283.157
283.157
283.157
283.157
283.157
283.157
283.157
283.157
283.157
283.157
283.157
283.157
283.158
283.158
283.158
283.158
283.158
283.158
283.159
283.159
283.159
283.159
283.16
283.16
283.16
283.152
283.153
283.153
283.153
283.152
283.152
283.153
283.153
283.153
283.153
283.153
283.153
283.153
283.152
283.152
283.152
283.153
283.153
283.153
283.153
283.154
283.154
283.154
283.154
283.154
283.154
283.154
283.154
283.154
283.154
283.154
283.154
283.154
283.154
283.155
283.155
283.155
283.156
283.156
283.156
283.156
283.156
283.157
283.157
283.157
283.157
283.157
283.157
283.158
283.158
283.158
283.158
283.158
283.158
283.158
283.158
283.158
283.159
283.159
283.159
283.159
283.159
283.159
283.159
283.159
283.159
283.16
283.16
283.16
283.16
283.16
283.16
283.16
283.16
283.16
283.16
283.16
283.16
283.161
283.161
283.161
283.161
283.161
283.161
283.161
283.161
283.161
283.162
283.162
283.162
283.162
283.162
283.163
283.163
283.163
283.163
283.164
283.164
283.164
283.164
283.153
283.154
283.153
283.153
283.153
283.153
283.153
283.154
283.154
283.154
283.153
283.153
283.153
283.153
283.153
283.154
283.154
283.154
283.155
283.155
283.155
283.156
283.156
283.156
283.156
283.156
283.157
283.157
283.157
283.157
283.157
283.157
283.158
283.158
283.158
283.159
283.159
283.159
283.159
283.16
283.16
283.16
283.16
283.161
283.161
283.161
283.161
283.162
283.162
283.162
283.162
283.162
283.162
283.162
283.163
283.163
283.163
283.163
283.163
283.163
283.164
283.164
283.164
283.164
283.164
283.164
283.165
283.165
283.165
283.165
283.165
283.165
283.165
283.166
283.166
283.166
283.166
283.166
283.166
283.167
283.167
283.167
283.167
283.168
283.168
283.168
283.168
283.168
283.168
283.169
283.169
283.169
283.169
283.17
283.17
283.17
283.17
283.17
283.171
283.171
283.153
283.154
283.153
283.153
283.154
283.154
283.155
283.155
283.156
283.156
283.156
283.156
283.156
283.156
283.157
283.157
283.157
283.158
283.158
283.158
283.158
283.158
283.158
283.158
283.158
283.159
283.159
283.159
283.159
283.159
283.159
283.159
283.159
283.159
283.159
283.159
283.159
283.159
283.159
283.16
283.16
283.16
283.16
283.16
283.16
283.16
283.16
283.16
283.16
283.16
283.16
283.161
283.161
283.161
283.161
283.161
283.161
283.161
283.161
283.161
283.161
283.162
283.162
283.162
283.162
283.162
283.162
283.162
283.162
283.163
283.163
283.163
283.163
283.163
283.163
283.163
283.163
283.164
283.164
283.164
283.164
283.164
283.164
283.164
283.164
283.165
283.165
283.165
283.165
283.165
283.165
283.165
283.165
283.165
283.165
283.166
283.166
283.166
283.165
283.166
284.341
286.175
287.639
288.837
289.857
290.758
291.576
292.332
293.042
293.714
294.354
294.967
295.557
296.127
296.677
297.211
297.73
298.234
298.724
299.203
299.67
300.126
300.572
301.009
301.437
301.857
302.268
302.672
303.069
303.459
303.842
304.218
304.589
304.954
305.313
305.667
306.015
306.359
306.697
307.031
307.361
307.686
308.007
308.324
308.637
308.947
309.252
309.554
309.852
310.147
310.439
310.727
311.012
311.294
311.573
311.849
312.122
312.393
312.66
312.925
313.187
313.447
313.704
313.959
314.211
314.461
314.709
314.954
315.197
315.438
315.677
315.913
316.148
316.381
316.611
316.84
317.067
317.292
317.515
317.736
317.955
318.173
318.389
318.603
318.816
319.027
319.237
319.445
319.651
319.856
320.06
320.262
320.462
320.661
320.859
321.056
321.251
321.445
321.637
321.829
322.019
322.208
322.395
322.582
322.767
322.952
323.135
323.317
323.498
323.678
323.858
324.036
324.213
324.389
324.564
324.738
324.912
325.084
325.256
325.426
325.596
325.765
325.933
326.101
326.267
326.433
326.598
326.762
326.926
327.088
327.25
327.412
327.572
327.732
327.891
328.05
328.208
328.365
328.522
328.678
328.833
328.988
329.142
329.296
329.449
329.601
329.753
329.904
330.055
330.205
330.355
330.504
330.653
330.801
330.949
331.096
331.242
331.389
331.534
331.679
331.824
331.968
332.112
332.256
332.399
332.541
332.683
332.825
332.966
333.107
333.247
333.387
333.526
333.665
333.804
333.942
334.08
334.217
334.354
334.491
334.627
334.763
334.899
335.034
335.168
335.303
335.437
335.57
335.703
335.836
335.969
336.101
336.232
336.363
336.494
336.625
336.755
336.885
337.014
337.143
337.272
337.4
337.528
337.655
337.782
337.909
338.035
338.161
338.286
338.411
338.536
338.66
338.784
338.908
339.031
339.153
339.275
339.397
339.519
339.639
339.76
339.88
340
340.119
340.238
340.356
340.474
340.591
340.708
340.825
340.941
341.056
341.171
341.286
341.4
341.514
341.627
341.74
341.852
341.963
342.075
342.185
342.295
342.405
342.514
342.623
342.731
342.839
342.946
343.052
343.158
343.264
343.368
343.473
343.577
343.68
343.783
343.885
343.986
344.087
344.188
344.288
344.387
344.486
344.584
344.681
344.778
344.875
344.97
345.066
345.16
345.254
345.348
345.441
345.533
345.624
345.716
345.806
345.896
345.985
346.074
346.162
346.249
346.336
346.422
346.508
346.592
346.677
346.76
346.844
346.926
347.008
347.089
347.17
347.25
347.329
347.408
347.486
347.564
347.64
347.717
347.792
347.868
347.942
348.016
348.089
348.162
348.234
348.305
348.376
348.446
348.516
348.585
348.653
348.721
348.788
348.854
348.92
348.986
349.05
349.115
349.178
349.241
349.304
349.365
349.427
349.487
349.547
349.607
349.666
349.724
349.782
349.839
349.895
349.952
350.007
350.062
350.116
350.17
350.223
350.276
350.328
350.38
350.431
350.481
350.531
350.581
350.63
350.678
350.726
350.773
350.82
350.867
350.912
350.958
351.003
351.047
351.091
351.134
351.177
351.219
351.261
351.302
351.343
351.383
351.423
351.462
351.501
351.54
351.578
351.615
351.652
351.689
351.725
351.761
351.796
351.831
351.865
351.899
351.933
351.966
351.998
352.031
352.062
352.094
352.125
352.155
352.185
352.215
352.245
352.273
352.302
352.33
352.358
352.384
352.414
352.436
352.469
352.484
352.528
283.14
283.342
283.685
284.119
284.603
285.107
285.616
286.12
286.615
287.1
287.574
288.037
288.489
288.931
289.363
289.787
290.202
290.609
291.009
291.402
291.787
292.167
292.54
292.907
293.268
293.624
293.975
294.321
294.661
294.997
295.329
295.656
295.979
296.298
296.612
296.923
297.23
297.534
297.834
298.13
298.423
298.713
299
299.283
299.564
299.841
300.116
300.388
300.657
300.924
301.188
301.45
301.709
301.965
302.22
302.472
302.721
302.969
303.214
303.457
303.698
303.937
304.174
304.409
304.642
304.873
305.102
305.33
305.555
305.779
306.001
306.221
306.44
306.657
306.872
307.086
307.298
307.508
307.717
307.925
308.131
308.336
308.539
308.741
308.941
309.14
309.338
309.535
309.73
309.924
310.117
310.308
310.499
310.688
310.876
311.063
311.248
311.433
311.617
311.799
311.981
312.161
312.341
312.519
312.697
312.873
313.049
313.224
313.398
313.57
313.742
313.914
314.084
314.253
314.422
314.59
314.757
314.923
315.088
315.253
315.417
315.58
315.743
315.905
316.066
316.226
316.386
316.545
316.703
316.861
317.018
317.174
317.33
317.485
317.64
317.794
317.948
318.1
318.253
318.405
318.556
318.706
318.856
319.006
319.155
319.304
319.452
319.599
319.746
319.893
320.039
320.184
320.329
320.474
320.618
320.762
320.905
321.048
321.19
321.332
321.473
321.614
321.755
321.895
322.035
322.175
322.314
322.452
322.591
322.728
322.866
323.003
323.14
323.276
323.412
323.548
323.683
323.818
323.952
324.086
324.22
324.353
324.486
324.619
324.751
324.883
325.015
325.146
325.277
325.407
325.538
325.668
325.797
325.926
326.055
326.184
326.312
326.44
326.567
326.694
326.821
326.947
327.073
327.199
327.325
327.45
327.574
327.699
327.823
327.947
328.07
328.193
328.315
328.438
328.56
328.681
328.802
328.923
329.043
329.163
329.283
329.402
329.521
329.64
329.758
329.875
329.993
330.11
330.226
330.342
330.458
330.573
330.688
330.803
330.917
331.03
331.143
331.256
331.369
331.48
331.592
331.703
331.814
331.924
332.033
332.143
332.251
332.36
332.468
332.575
332.682
332.788
332.894
333
333.105
333.209
333.313
333.417
333.519
333.622
333.724
333.825
333.926
334.027
334.126
334.226
334.325
334.423
334.521
334.618
334.715
334.811
334.906
335.002
335.096
335.19
335.284
335.376
335.469
335.561
335.652
335.743
335.833
335.922
336.011
336.1
336.188
336.275
336.362
336.448
336.534
336.619
336.703
336.787
336.87
336.953
337.035
337.117
337.198
337.278
337.358
337.437
337.516
337.594
337.671
337.748
337.825
337.901
337.976
338.05
338.124
338.198
338.271
338.343
338.415
338.486
338.557
338.627
338.696
338.765
338.834
338.901
338.969
339.035
339.101
339.167
339.232
339.296
339.36
339.423
339.486
339.548
339.61
339.671
339.731
339.791
339.851
339.909
339.968
340.025
340.083
340.139
340.195
340.251
340.306
340.361
340.415
340.468
340.521
340.574
340.626
340.677
340.728
340.778
340.828
340.878
340.927
340.975
341.023
341.07
341.117
341.164
341.21
341.255
341.3
341.345
341.389
341.432
341.476
341.518
341.56
341.602
341.643
341.684
341.724
341.764
341.804
341.843
341.881
341.919
341.957
341.994
342.031
342.067
342.103
342.139
342.174
342.208
342.242
342.277
342.31
342.343
342.375
342.409
342.438
342.474
342.498
342.539
342.554
342.607
283.127
283.127
283.143
283.183
283.251
283.347
283.468
283.612
283.777
283.958
284.154
284.362
284.58
284.805
285.037
285.274
285.514
285.758
286.004
286.251
286.5
286.749
286.998
287.247
287.496
287.744
287.991
288.238
288.484
288.729
288.973
289.216
289.458
289.699
289.938
290.176
290.413
290.648
290.882
291.115
291.346
291.576
291.804
292.031
292.257
292.481
292.704
292.925
293.146
293.364
293.582
293.798
294.012
294.226
294.438
294.649
294.859
295.067
295.274
295.48
295.685
295.888
296.09
296.291
296.491
296.69
296.887
297.083
297.278
297.472
297.665
297.857
298.047
298.237
298.425
298.613
298.799
298.984
299.169
299.352
299.534
299.715
299.895
300.075
300.253
300.431
300.607
300.783
300.958
301.132
301.305
301.477
301.649
301.819
301.989
302.158
302.326
302.493
302.66
302.826
302.991
303.156
303.32
303.483
303.645
303.806
303.967
304.127
304.287
304.446
304.604
304.761
304.918
305.074
305.23
305.385
305.539
305.693
305.846
305.999
306.151
306.302
306.453
306.604
306.754
306.903
307.052
307.2
307.348
307.495
307.642
307.788
307.934
308.08
308.225
308.369
308.513
308.657
308.8
308.943
309.085
309.227
309.368
309.509
309.65
309.79
309.93
310.069
310.208
310.346
310.485
310.622
310.76
310.897
311.033
311.169
311.305
311.44
311.576
311.71
311.845
311.979
312.112
312.246
312.379
312.511
312.644
312.776
312.907
313.039
313.17
313.301
313.431
313.561
313.691
313.821
313.95
314.079
314.208
314.336
314.464
314.592
314.719
314.846
314.973
315.1
315.226
315.352
315.477
315.603
315.728
315.852
315.977
316.101
316.225
316.348
316.472
316.595
316.717
316.84
316.962
317.084
317.206
317.327
317.448
317.569
317.69
317.81
317.93
318.05
318.169
318.288
318.407
318.526
318.644
318.762
318.88
318.997
319.114
319.231
319.348
319.464
319.58
319.695
319.811
319.926
320.04
320.155
320.269
320.382
320.496
320.609
320.721
320.834
320.946
321.057
321.169
321.28
321.39
321.501
321.611
321.72
321.829
321.938
322.047
322.155
322.263
322.371
322.478
322.585
322.691
322.797
322.903
323.008
323.113
323.217
323.321
323.425
323.528
323.631
323.734
323.836
323.937
324.038
324.139
324.239
324.339
324.438
324.537
324.636
324.734
324.831
324.929
325.025
325.122
325.217
325.313
325.408
325.502
325.596
325.69
325.783
325.875
325.967
326.059
326.15
326.241
326.331
326.421
326.51
326.599
326.687
326.775
326.862
326.949
327.035
327.121
327.207
327.291
327.376
327.459
327.542
327.625
327.707
327.789
327.87
327.951
328.031
328.11
328.19
328.268
328.346
328.424
328.501
328.577
328.653
328.729
328.803
328.878
328.952
329.025
329.098
329.171
329.243
329.314
329.385
329.455
329.525
329.594
329.663
329.731
329.799
329.866
329.933
329.999
330.065
330.13
330.195
330.259
330.323
330.386
330.448
330.51
330.572
330.633
330.694
330.754
330.813
330.872
330.931
330.989
331.046
331.103
331.16
331.216
331.271
331.326
331.381
331.435
331.489
331.542
331.595
331.647
331.699
331.75
331.801
331.852
331.901
331.951
332
332.049
332.097
332.144
332.191
332.238
332.284
332.33
332.375
332.42
332.465
332.509
332.552
332.595
332.638
332.68
332.722
332.763
332.804
332.844
332.885
332.924
332.964
333.001
333.043
333.077
333.12
333.149
333.199
333.215
333.281
283.132
283.13
283.128
283.127
283.128
283.133
283.141
283.154
283.173
283.198
283.23
283.268
283.314
283.366
283.425
283.491
283.564
283.643
283.728
283.818
283.914
284.014
284.119
284.228
284.342
284.459
284.579
284.703
284.829
284.958
285.089
285.223
285.359
285.497
285.636
285.777
285.92
286.063
286.208
286.354
286.501
286.648
286.795
286.944
287.093
287.242
287.391
287.541
287.691
287.841
287.991
288.141
288.292
288.442
288.593
288.743
288.894
289.044
289.194
289.345
289.495
289.645
289.795
289.945
290.094
290.243
290.392
290.541
290.69
290.839
290.987
291.134
291.282
291.429
291.576
291.722
291.869
292.014
292.16
292.305
292.45
292.594
292.738
292.882
293.025
293.168
293.311
293.453
293.595
293.736
293.877
294.018
294.159
294.299
294.439
294.578
294.717
294.856
294.995
295.133
295.271
295.408
295.545
295.682
295.819
295.955
296.091
296.227
296.362
296.497
296.631
296.766
296.9
297.033
297.167
297.3
297.432
297.564
297.696
297.828
297.959
298.09
298.221
298.352
298.482
298.611
298.741
298.87
298.999
299.128
299.256
299.384
299.512
299.64
299.767
299.895
300.021
300.148
300.275
300.401
300.527
300.652
300.778
300.903
301.028
301.153
301.277
301.402
301.526
301.649
301.773
301.896
302.019
302.141
302.264
302.386
302.508
302.629
302.751
302.872
302.993
303.113
303.234
303.354
303.474
303.594
303.713
303.833
303.952
304.071
304.189
304.308
304.426
304.544
304.662
304.78
304.898
305.015
305.132
305.249
305.366
305.483
305.599
305.716
305.832
305.947
306.063
306.178
306.294
306.409
306.523
306.638
306.752
306.866
306.98
307.094
307.207
307.32
307.433
307.546
307.658
307.771
307.883
307.995
308.107
308.219
308.33
308.441
308.552
308.663
308.774
308.885
308.995
309.105
309.215
309.325
309.435
309.545
309.654
309.763
309.872
309.981
310.089
310.197
310.305
310.413
310.521
310.628
310.735
310.842
310.948
311.055
311.161
311.267
311.372
311.478
311.583
311.688
311.792
311.897
312.001
312.105
312.209
312.312
312.415
312.518
312.621
312.724
312.826
312.928
313.03
313.132
313.233
313.334
313.435
313.535
313.636
313.736
313.835
313.935
314.034
314.133
314.231
314.33
314.427
314.525
314.622
314.719
314.816
314.912
315.008
315.103
315.198
315.293
315.388
315.482
315.576
315.669
315.762
315.855
315.947
316.039
316.131
316.223
316.314
316.404
316.495
316.585
316.675
316.764
316.853
316.942
317.03
317.118
317.205
317.293
317.379
317.466
317.552
317.637
317.722
317.807
317.891
317.975
318.059
318.142
318.224
318.307
318.388
318.47
318.55
318.631
318.711
318.79
318.869
318.948
319.026
319.104
319.182
319.259
319.335
319.411
319.487
319.562
319.637
319.712
319.786
319.86
319.933
320.006
320.078
320.15
320.222
320.293
320.363
320.434
320.503
320.573
320.642
320.71
320.778
320.845
320.912
320.979
321.045
321.111
321.176
321.24
321.305
321.368
321.432
321.494
321.557
321.619
321.68
321.741
321.802
321.862
321.921
321.981
322.04
322.098
322.156
322.214
322.271
322.328
322.384
322.44
322.495
322.551
322.605
322.659
322.713
322.767
322.82
322.872
322.924
322.976
323.027
323.078
323.129
323.179
323.228
323.277
323.326
323.374
323.421
323.469
323.515
323.563
323.608
323.655
323.698
323.746
323.785
323.837
323.869
323.929
323.948
324.025
283.137
283.136
283.135
283.134
283.133
283.133
283.133
283.133
283.134
283.134
283.135
283.137
283.139
283.143
283.148
283.155
283.162
283.172
283.183
283.197
283.212
283.229
283.248
283.27
283.294
283.32
283.348
283.379
283.412
283.448
283.486
283.526
283.569
283.614
283.661
283.71
283.763
283.817
283.874
283.932
283.993
284.055
284.119
284.185
284.253
284.322
284.392
284.464
284.538
284.613
284.688
284.766
284.844
284.923
285.003
285.084
285.167
285.25
285.335
285.42
285.506
285.593
285.681
285.77
285.859
285.949
286.04
286.132
286.224
286.316
286.41
286.503
286.598
286.692
286.787
286.883
286.979
287.075
287.171
287.268
287.365
287.463
287.56
287.658
287.756
287.854
287.953
288.051
288.149
288.248
288.347
288.446
288.545
288.644
288.744
288.843
288.943
289.043
289.143
289.243
289.343
289.443
289.543
289.644
289.745
289.845
289.946
290.047
290.148
290.249
290.351
290.452
290.553
290.654
290.755
290.856
290.958
291.059
291.16
291.261
291.362
291.463
291.564
291.665
291.766
291.866
291.967
292.068
292.168
292.269
292.369
292.47
292.57
292.671
292.771
292.872
292.972
293.072
293.173
293.273
293.374
293.474
293.575
293.675
293.776
293.876
293.977
294.077
294.177
294.278
294.378
294.478
294.578
294.678
294.778
294.878
294.977
295.077
295.176
295.276
295.375
295.474
295.573
295.672
295.77
295.869
295.968
296.066
296.165
296.263
296.361
296.459
296.558
296.656
296.754
296.852
296.95
297.048
297.146
297.244
297.342
297.44
297.538
297.635
297.733
297.831
297.928
298.026
298.123
298.221
298.318
298.415
298.512
298.609
298.706
298.802
298.899
298.995
299.091
299.187
299.283
299.379
299.474
299.57
299.665
299.76
299.856
299.951
300.046
300.141
300.236
300.331
300.426
300.52
300.615
300.71
300.804
300.899
300.994
301.088
301.183
301.277
301.371
301.465
301.56
301.654
301.747
301.841
301.935
302.028
302.121
302.215
302.308
302.4
302.493
302.585
302.678
302.77
302.862
302.954
303.045
303.137
303.228
303.319
303.41
303.501
303.592
303.683
303.774
303.864
303.955
304.045
304.135
304.225
304.316
304.406
304.495
304.585
304.675
304.764
304.854
304.943
305.032
305.121
305.209
305.298
305.386
305.474
305.562
305.65
305.737
305.824
305.911
305.998
306.084
306.17
306.256
306.342
306.428
306.513
306.598
306.683
306.767
306.851
306.936
307.02
307.103
307.187
307.27
307.353
307.436
307.519
307.602
307.684
307.767
307.849
307.931
308.012
308.093
308.175
308.255
308.336
308.416
308.496
308.576
308.656
308.735
308.814
308.892
308.97
309.048
309.125
309.202
309.279
309.356
309.432
309.508
309.583
309.658
309.733
309.807
309.882
309.956
310.029
310.103
310.176
310.248
310.321
310.393
310.465
310.537
310.608
310.679
310.75
310.82
310.891
310.961
311.03
311.099
311.168
311.237
311.305
311.373
311.441
311.508
311.574
311.641
311.707
311.772
311.838
311.902
311.967
312.031
312.094
312.157
312.22
312.282
312.344
312.406
312.467
312.528
312.589
312.649
312.709
312.769
312.828
312.887
312.946
313.004
313.062
313.12
313.177
313.234
313.291
313.347
313.403
313.459
313.514
313.569
313.624
313.678
313.732
313.786
313.839
313.892
313.944
313.996
314.048
314.098
314.15
314.198
314.251
314.297
314.35
314.393
314.45
314.485
314.551
314.571
314.657
283.143
283.142
283.142
283.141
283.141
283.141
283.142
283.142
283.142
283.143
283.143
283.143
283.143
283.143
283.143
283.143
283.143
283.143
283.144
283.144
283.145
283.145
283.146
283.146
283.147
283.149
283.15
283.153
283.155
283.158
283.161
283.165
283.169
283.174
283.179
283.185
283.192
283.201
283.21
283.219
283.23
283.242
283.254
283.267
283.28
283.295
283.311
283.327
283.345
283.363
283.382
283.402
283.423
283.445
283.467
283.49
283.513
283.538
283.564
283.591
283.618
283.647
283.676
283.706
283.737
283.769
283.802
283.836
283.87
283.906
283.943
283.98
284.018
284.057
284.097
284.138
284.179
284.221
284.264
284.307
284.351
284.396
284.441
284.487
284.534
284.581
284.628
284.676
284.724
284.772
284.821
284.871
284.92
284.971
285.021
285.073
285.124
285.177
285.229
285.282
285.335
285.389
285.443
285.498
285.553
285.608
285.664
285.721
285.778
285.836
285.893
285.951
286.01
286.068
286.127
286.187
286.246
286.306
286.366
286.427
286.487
286.548
286.609
286.67
286.731
286.792
286.853
286.915
286.976
287.038
287.1
287.162
287.224
287.287
287.349
287.412
287.475
287.538
287.601
287.664
287.728
287.792
287.856
287.921
287.986
288.051
288.116
288.181
288.247
288.312
288.378
288.444
288.51
288.576
288.643
288.709
288.776
288.842
288.909
288.976
289.042
289.109
289.175
289.242
289.308
289.375
289.441
289.508
289.575
289.641
289.708
289.775
289.842
289.909
289.976
290.043
290.11
290.178
290.245
290.313
290.381
290.449
290.517
290.585
290.654
290.722
290.791
290.86
290.928
290.997
291.066
291.135
291.204
291.273
291.342
291.411
291.48
291.549
291.617
291.686
291.755
291.823
291.891
291.96
292.028
292.097
292.165
292.234
292.302
292.371
292.439
292.507
292.576
292.645
292.713
292.782
292.851
292.92
292.989
293.058
293.128
293.197
293.266
293.336
293.405
293.475
293.545
293.614
293.684
293.754
293.823
293.893
293.962
294.032
294.101
294.171
294.24
294.309
294.378
294.447
294.516
294.584
294.653
294.722
294.79
294.859
294.927
294.996
295.064
295.133
295.201
295.27
295.338
295.407
295.476
295.544
295.613
295.682
295.751
295.82
295.889
295.958
296.027
296.096
296.165
296.234
296.303
296.372
296.441
296.51
296.579
296.647
296.716
296.784
296.852
296.92
296.988
297.055
297.123
297.19
297.258
297.325
297.392
297.459
297.526
297.593
297.66
297.726
297.793
297.859
297.926
297.993
298.059
298.126
298.192
298.259
298.326
298.392
298.459
298.525
298.592
298.658
298.724
298.79
298.856
298.922
298.988
299.054
299.119
299.185
299.25
299.315
299.379
299.444
299.508
299.572
299.636
299.699
299.763
299.826
299.889
299.952
300.014
300.077
300.139
300.201
300.263
300.325
300.387
300.449
300.511
300.572
300.634
300.695
300.756
300.818
300.879
300.94
301
301.061
301.122
301.182
301.242
301.302
301.362
301.422
301.481
301.54
301.599
301.657
301.716
301.774
301.831
301.889
301.946
302.002
302.059
302.115
302.171
302.227
302.283
302.338
302.393
302.448
302.502
302.556
302.611
302.665
302.718
302.772
302.826
302.879
302.932
302.985
303.038
303.091
303.143
303.196
303.248
303.3
303.351
303.403
303.454
303.505
303.556
303.606
303.656
303.706
303.755
303.805
303.852
303.903
303.948
304
304.041
304.098
304.131
304.197
304.216
304.3
283.149
283.148
283.148
283.148
283.149
283.149
283.149
283.149
283.15
283.15
283.15
283.15
283.151
283.151
283.151
283.151
283.151
283.152
283.151
283.151
283.151
283.15
283.149
283.149
283.148
283.147
283.147
283.147
283.146
283.146
283.145
283.145
283.145
283.144
283.144
283.145
283.145
283.146
283.146
283.147
283.148
283.149
283.15
283.151
283.153
283.154
283.156
283.157
283.159
283.161
283.164
283.166
283.168
283.171
283.173
283.176
283.179
283.182
283.185
283.188
283.192
283.196
283.201
283.205
283.21
283.215
283.221
283.226
283.233
283.239
283.247
283.255
283.263
283.271
283.281
283.29
283.3
283.31
283.321
283.332
283.343
283.355
283.367
283.379
283.392
283.405
283.418
283.431
283.445
283.459
283.473
283.487
283.502
283.517
283.532
283.548
283.564
283.58
283.597
283.613
283.631
283.648
283.666
283.685
283.704
283.723
283.743
283.763
283.784
283.805
283.826
283.848
283.87