/*--------------------------------*- C++ -*----------------------------------*\
  =========                 |
  \\      /  F ield         | OpenFOAM: The Open Source CFD Toolbox
   \\    /   O peration     | Website:  https://openfoam.org
    \\  /    A nd           | Version:  7
     \\/     M anipulation  |
\*---------------------------------------------------------------------------*/
FoamFile
{
    version     2.0;
    format      ascii;
    class       volScalarField;
    location    "0.015";
    object      rho_0;
}
// * * * * * * * * * * * * * * * * * * * * * * * * * * * * * * * * * * * * * //

dimensions      [1 -3 0 0 0 0 0];

internalField   nonuniform List<scalar> 
1440
(
1.1929
1.18564
1.17838
1.17114
1.16389
1.1566
1.1493
1.14202
1.1347
1.12742
1.12019
1.11284
1.10517
1.09711
1.08857
1.07935
1.06924
1.05834
1.04687
1.03511
1.02369
1.01371
1.00608
1.00078
0.996963
0.993714
0.990711
0.988168
0.986406
0.985515
0.985318
0.985511
0.985809
0.986017
0.986048
0.985894
0.985595
0.9852
0.984756
0.984293
0.983831
0.983385
0.982968
0.982593
0.98227
0.982003
0.98179
0.981625
0.9815
0.981405
0.98133
0.98127
0.981217
0.981169
0.981124
0.98108
0.981037
0.980994
0.980951
0.980908
0.980866
0.980823
0.980781
0.980738
0.980696
0.980655
0.980613
0.980572
0.980531
0.98049
0.98045
0.980411
0.980372
0.980333
0.980295
0.980258
0.980221
0.980185
0.98015
0.980115
0.980081
0.980048
0.980015
0.979983
0.979952
0.979922
0.979893
0.979864
0.979837
0.979811
0.979785
0.979761
0.979738
0.979715
0.979694
0.979674
0.979656
0.979638
0.979622
0.979607
0.979593
0.97958
0.979569
0.979559
0.97955
0.979544
0.979537
0.979534
0.979531
0.97953
0.979532
0.979534
0.979541
0.979552
0.97955
0.979607
0.979552
0.979702
0.979582
0.979863
1.19643
1.19663
1.19668
1.19655
1.19622
1.19566
1.19489
1.19392
1.19277
1.19146
1.19002
1.18843
1.18666
1.18468
1.18247
1.17999
1.17715
1.1739
1.17023
1.16619
1.16179
1.15703
1.152
1.1469
1.14201
1.13754
1.13355
1.13002
1.12693
1.12439
1.12262
1.12179
1.12187
1.12266
1.12393
1.1255
1.12732
1.1294
1.13168
1.13395
1.13592
1.13731
1.13793
1.13775
1.1369
1.13559
1.1341
1.13263
1.13132
1.13025
1.12943
1.12883
1.1284
1.12811
1.12791
1.12777
1.12768
1.12762
1.12758
1.12755
1.12753
1.12752
1.12751
1.12751
1.1275
1.1275
1.1275
1.12749
1.12749
1.12749
1.12748
1.12748
1.12748
1.12747
1.12747
1.12747
1.12747
1.12747
1.12747
1.12747
1.12747
1.12747
1.12747
1.12747
1.12747
1.12747
1.12748
1.12748
1.12749
1.12749
1.1275
1.1275
1.12751
1.12752
1.12752
1.12753
1.12754
1.12755
1.12756
1.12757
1.12758
1.1276
1.12761
1.12762
1.12764
1.12766
1.12768
1.12769
1.12771
1.12774
1.12775
1.12779
1.1278
1.12786
1.12785
1.12796
1.12791
1.12807
1.12799
1.12823
1.19621
1.19589
1.19563
1.19548
1.19546
1.19557
1.19582
1.19619
1.19666
1.19723
1.19786
1.19847
1.19902
1.1995
1.19991
1.20021
1.2003
1.20009
1.19957
1.19878
1.1978
1.19661
1.19513
1.19325
1.191
1.18856
1.18617
1.18402
1.18211
1.18038
1.17875
1.17732
1.17633
1.17604
1.1766
1.17795
1.17985
1.18205
1.18443
1.18703
1.18999
1.19334
1.19688
1.20027
1.20303
1.20482
1.20545
1.20499
1.20367
1.20182
1.19976
1.19773
1.19591
1.19438
1.19315
1.1922
1.1915
1.19098
1.19062
1.19036
1.19019
1.19008
1.19001
1.18997
1.18994
1.18993
1.18993
1.18993
1.18993
1.18994
1.18994
1.18995
1.18995
1.18995
1.18996
1.18996
1.18996
1.18996
1.18997
1.18997
1.18997
1.18997
1.18998
1.18998
1.18998
1.18999
1.18999
1.18999
1.19
1.19
1.19
1.19001
1.19001
1.19002
1.19002
1.19003
1.19003
1.19004
1.19005
1.19005
1.19006
1.19006
1.19007
1.19008
1.19009
1.19009
1.1901
1.19011
1.19012
1.19013
1.19014
1.19016
1.19017
1.19019
1.19019
1.19023
1.19022
1.19028
1.19026
1.19034
1.1962
1.19587
1.19561
1.19543
1.19536
1.19542
1.19563
1.19596
1.19643
1.19704
1.19775
1.19851
1.19924
1.19994
1.20063
1.20128
1.20177
1.202
1.20191
1.2016
1.20117
1.20063
1.19988
1.19875
1.19721
1.19543
1.19371
1.19225
1.19107
1.19
1.18888
1.18772
1.18679
1.18646
1.18701
1.18842
1.19042
1.19267
1.195
1.19746
1.20028
1.20362
1.20742
1.21133
1.21484
1.21746
1.21885
1.21896
1.21794
1.21611
1.21384
1.21144
1.20917
1.20717
1.20551
1.20419
1.20318
1.20243
1.20188
1.2015
1.20124
1.20107
1.20096
1.20089
1.20085
1.20083
1.20082
1.20082
1.20082
1.20083
1.20084
1.20084
1.20085
1.20086
1.20086
1.20087
1.20087
1.20088
1.20088
1.20089
1.20089
1.20089
1.2009
1.2009
1.2009
1.20091
1.20091
1.20091
1.20092
1.20092
1.20093
1.20093
1.20093
1.20094
1.20094
1.20094
1.20095
1.20095
1.20096
1.20096
1.20097
1.20097
1.20098
1.20098
1.20099
1.20099
1.201
1.201
1.20101
1.20101
1.20102
1.20102
1.20103
1.20104
1.20104
1.20105
1.20106
1.20106
1.20107
1.20108
1.1962
1.19587
1.1956
1.19542
1.19535
1.19542
1.19562
1.19595
1.19642
1.19702
1.19773
1.19847
1.1992
1.19989
1.20058
1.20122
1.20172
1.20193
1.20183
1.20151
1.20109
1.20058
1.19984
1.1987
1.19715
1.19538
1.19372
1.19237
1.1913
1.1903
1.1892
1.18807
1.18721
1.18703
1.18776
1.18933
1.19142
1.1937
1.19604
1.19853
1.20142
1.20485
1.20871
1.21262
1.21606
1.21855
1.2198
1.21977
1.21864
1.21674
1.21442
1.212
1.20971
1.20771
1.20604
1.20471
1.20369
1.20293
1.20238
1.202
1.20173
1.20156
1.20145
1.20138
1.20134
1.20132
1.20131
1.20131
1.20131
1.20132
1.20133
1.20134
1.20134
1.20135
1.20136
1.20136
1.20137
1.20137
1.20138
1.20138
1.20138
1.20139
1.20139
1.2014
1.2014
1.2014
1.20141
1.20141
1.20141
1.20142
1.20142
1.20142
1.20143
1.20143
1.20144
1.20144
1.20144
1.20145
1.20145
1.20146
1.20146
1.20146
1.20147
1.20147
1.20148
1.20148
1.20149
1.20149
1.2015
1.2015
1.20151
1.20151
1.20152
1.20152
1.20153
1.20153
1.20154
1.20154
1.20155
1.20155
1.19619
1.19587
1.1956
1.19542
1.19535
1.19542
1.19562
1.19595
1.19642
1.19703
1.19773
1.19848
1.1992
1.1999
1.20058
1.20123
1.20172
1.20192
1.20181
1.20149
1.20107
1.20055
1.1998
1.19863
1.19705
1.19528
1.19363
1.19229
1.19123
1.19022
1.1891
1.18795
1.18713
1.18701
1.18781
1.18944
1.19155
1.19384
1.19619
1.19872
1.20166
1.20514
1.20902
1.21291
1.2163
1.2187
1.21985
1.21973
1.21853
1.21659
1.21426
1.21185
1.20958
1.2076
1.20595
1.20464
1.20364
1.20289
1.20235
1.20197
1.20171
1.20153
1.20142
1.20135
1.20131
1.20129
1.20129
1.20129
1.20129
1.2013
1.20131
1.20131
1.20132
1.20133
1.20133
1.20134
1.20134
1.20135
1.20135
1.20136
1.20136
1.20137
1.20137
1.20137
1.20138
1.20138
1.20138
1.20139
1.20139
1.20139
1.2014
1.2014
1.20141
1.20141
1.20141
1.20142
1.20142
1.20143
1.20143
1.20143
1.20144
1.20144
1.20145
1.20145
1.20146
1.20146
1.20147
1.20147
1.20148
1.20148
1.20149
1.20149
1.2015
1.2015
1.20151
1.20151
1.20152
1.20152
1.20153
1.20153
1.19619
1.19587
1.1956
1.19542
1.19535
1.19542
1.19562
1.19595
1.19642
1.19703
1.19773
1.19848
1.1992
1.1999
1.20058
1.20123
1.20172
1.20192
1.20181
1.20149
1.20107
1.20055
1.1998
1.19863
1.19705
1.19528
1.19363
1.19229
1.19123
1.19022
1.18909
1.18795
1.18712
1.18701
1.18782
1.18945
1.19157
1.19386
1.1962
1.19874
1.20168
1.20517
1.20906
1.21295
1.21633
1.21872
1.21985
1.21971
1.2185
1.21654
1.21421
1.2118
1.20954
1.20756
1.20592
1.20462
1.20362
1.20287
1.20234
1.20196
1.2017
1.20152
1.20141
1.20135
1.20131
1.20129
1.20128
1.20128
1.20129
1.20129
1.2013
1.20131
1.20131
1.20132
1.20133
1.20133
1.20134
1.20134
1.20135
1.20135
1.20136
1.20136
1.20136
1.20137
1.20137
1.20137
1.20138
1.20138
1.20138
1.20139
1.20139
1.2014
1.2014
1.2014
1.20141
1.20141
1.20141
1.20142
1.20142
1.20143
1.20143
1.20144
1.20144
1.20144
1.20145
1.20145
1.20146
1.20146
1.20147
1.20147
1.20148
1.20148
1.20149
1.20149
1.2015
1.2015
1.20151
1.20151
1.20152
1.20153
1.1962
1.19587
1.1956
1.19542
1.19535
1.19542
1.19562
1.19596
1.19642
1.19702
1.19773
1.19847
1.1992
1.19989
1.20057
1.20122
1.20171
1.20192
1.20182
1.2015
1.20107
1.20056
1.19982
1.19868
1.19712
1.19535
1.19369
1.19234
1.19127
1.19027
1.18916
1.18802
1.18716
1.187
1.18776
1.18935
1.19145
1.19374
1.19608
1.19859
1.2015
1.20496
1.20883
1.21274
1.21617
1.21861
1.21981
1.21971
1.21853
1.21659
1.21425
1.21183
1.20956
1.20758
1.20593
1.20463
1.20362
1.20288
1.20234
1.20196
1.2017
1.20152
1.20141
1.20134
1.2013
1.20128
1.20128
1.20128
1.20128
1.20129
1.2013
1.2013
1.20131
1.20132
1.20132
1.20133
1.20134
1.20134
1.20134
1.20135
1.20135
1.20136
1.20136
1.20136
1.20137
1.20137
1.20137
1.20138
1.20138
1.20138
1.20139
1.20139
1.2014
1.2014
1.2014
1.20141
1.20141
1.20142
1.20142
1.20142
1.20143
1.20143
1.20144
1.20144
1.20145
1.20145
1.20146
1.20146
1.20147
1.20147
1.20148
1.20148
1.20149
1.20149
1.2015
1.2015
1.20151
1.20151
1.20152
1.20152
1.1962
1.19587
1.19561
1.19543
1.19536
1.19542
1.19562
1.19596
1.19642
1.19702
1.19772
1.19846
1.19918
1.19988
1.20056
1.2012
1.20169
1.20192
1.20184
1.20153
1.20111
1.20059
1.19986
1.19876
1.19726
1.19552
1.19384
1.19244
1.19134
1.19034
1.18928
1.18817
1.18729
1.18704
1.18767
1.18916
1.19122
1.1935
1.19583
1.19829
1.20111
1.20448
1.2083
1.21223
1.21573
1.2183
1.21962
1.21963
1.21852
1.21662
1.21429
1.21187
1.20959
1.2076
1.20595
1.20463
1.20363
1.20288
1.20234
1.20196
1.2017
1.20152
1.20141
1.20134
1.2013
1.20128
1.20127
1.20127
1.20128
1.20128
1.20129
1.2013
1.20131
1.20131
1.20132
1.20133
1.20133
1.20134
1.20134
1.20134
1.20135
1.20135
1.20136
1.20136
1.20136
1.20137
1.20137
1.20137
1.20138
1.20138
1.20138
1.20139
1.20139
1.20139
1.2014
1.2014
1.20141
1.20141
1.20141
1.20142
1.20142
1.20143
1.20143
1.20144
1.20144
1.20144
1.20145
1.20145
1.20146
1.20146
1.20147
1.20147
1.20148
1.20148
1.20149
1.20149
1.2015
1.2015
1.20151
1.20152
1.19621
1.19588
1.19561
1.19543
1.19537
1.19543
1.19563
1.19596
1.19642
1.19702
1.19771
1.19844
1.19916
1.19987
1.20055
1.20117
1.20164
1.20185
1.20179
1.20149
1.20104
1.20045
1.19963
1.19848
1.197
1.19535
1.19376
1.1924
1.19127
1.19028
1.18933
1.18847
1.18793
1.18802
1.18889
1.1905
1.19258
1.19487
1.19725
1.19979
1.20265
1.20591
1.20944
1.21288
1.21575
1.21765
1.21838
1.21795
1.21659
1.21463
1.21239
1.21016
1.20812
1.20638
1.20497
1.20387
1.20304
1.20243
1.202
1.20169
1.20149
1.20136
1.20127
1.20122
1.2012
1.20118
1.20118
1.20118
1.20118
1.20119
1.2012
1.2012
1.20121
1.20121
1.20122
1.20122
1.20122
1.20123
1.20123
1.20123
1.20123
1.20124
1.20124
1.20124
1.20124
1.20124
1.20125
1.20125
1.20125
1.20125
1.20126
1.20126
1.20126
1.20126
1.20127
1.20127
1.20127
1.20127
1.20128
1.20128
1.20128
1.20129
1.20129
1.20129
1.2013
1.2013
1.2013
1.20131
1.20131
1.20131
1.20132
1.20132
1.20133
1.20133
1.20134
1.20134
1.20134
1.20135
1.20135
1.20136
1.19622
1.19589
1.19562
1.19544
1.19538
1.19544
1.19563
1.19596
1.19644
1.19704
1.19773
1.19846
1.19919
1.19988
1.20049
1.20095
1.20117
1.20111
1.20077
1.20022
1.19949
1.19856
1.19742
1.19617
1.19494
1.19388
1.19301
1.19228
1.19169
1.19136
1.19146
1.19211
1.19327
1.19482
1.19661
1.19857
1.20072
1.20304
1.20547
1.20782
1.20984
1.21127
1.21196
1.21188
1.21113
1.20992
1.20845
1.20694
1.20551
1.20427
1.20324
1.20243
1.20182
1.20136
1.20103
1.20081
1.20065
1.20055
1.20048
1.20044
1.20042
1.2004
1.2004
1.20039
1.20039
1.20039
1.20039
1.20039
1.20039
1.20039
1.20038
1.20038
1.20038
1.20038
1.20038
1.20038
1.20037
1.20037
1.20037
1.20037
1.20037
1.20036
1.20036
1.20036
1.20036
1.20036
1.20036
1.20036
1.20036
1.20036
1.20036
1.20035
1.20035
1.20035
1.20035
1.20035
1.20036
1.20036
1.20036
1.20036
1.20036
1.20036
1.20036
1.20036
1.20036
1.20037
1.20037
1.20037
1.20037
1.20037
1.20038
1.20038
1.20038
1.20038
1.20039
1.20039
1.2004
1.2004
1.2004
1.20041
1.19624
1.1959
1.19563
1.19545
1.1954
1.19548
1.19572
1.1961
1.19661
1.19721
1.19783
1.19841
1.19884
1.19904
1.19894
1.1985
1.19774
1.19678
1.19579
1.19504
1.19476
1.19507
1.19587
1.19687
1.19777
1.19839
1.19873
1.19888
1.19895
1.19904
1.19917
1.19934
1.19953
1.19972
1.19989
1.20003
1.20013
1.20018
1.20018
1.20012
1.19999
1.19982
1.19961
1.19939
1.19916
1.19895
1.19876
1.19861
1.19848
1.19838
1.19831
1.19825
1.19821
1.19819
1.19817
1.19815
1.19815
1.19814
1.19813
1.19813
1.19813
1.19812
1.19812
1.19812
1.19811
1.19811
1.19811
1.19811
1.1981
1.1981
1.1981
1.1981
1.1981
1.19809
1.19809
1.19809
1.19809
1.19809
1.19809
1.19809
1.19809
1.19809
1.19809
1.19809
1.19809
1.19809
1.19809
1.19809
1.19809
1.19809
1.1981
1.1981
1.1981
1.1981
1.19811
1.19811
1.19811
1.19812
1.19812
1.19812
1.19813
1.19813
1.19813
1.19814
1.19814
1.19815
1.19815
1.19816
1.19817
1.19817
1.19818
1.19818
1.19819
1.1982
1.1982
1.19821
1.19822
1.19822
1.19824
1.19824
)
;

boundaryField
{
    upperWall
    {
        type            calculated;
        value           nonuniform List<scalar> 
120
(
1.19644
1.19643
1.19642
1.19641
1.1964
1.19638
1.19636
1.19635
1.19633
1.19631
1.19629
1.19627
1.19625
1.19623
1.19622
1.1962
1.19619
1.19617
1.19616
1.19615
1.19614
1.19613
1.19612
1.19611
1.1961
1.19609
1.19609
1.19608
1.19608
1.19608
1.19607
1.19607
1.19607
1.19607
1.19607
1.19607
1.19607
1.19606
1.19606
1.19606
1.19606
1.19606
1.19606
1.19606
1.19606
1.19606
1.19606
1.19606
1.19606
1.19606
1.19606
1.19606
1.19606
1.19606
1.19607
1.19607
1.19607
1.19607
1.19607
1.19607
1.19607
1.19607
1.19608
1.19608
1.19608
1.19608
1.19608
1.19609
1.19609
1.19609
1.19609
1.1961
1.1961
1.1961
1.1961
1.19611
1.19611
1.19611
1.19612
1.19612
1.19612
1.19613
1.19613
1.19614
1.19614
1.19614
1.19615
1.19615
1.19616
1.19616
1.19617
1.19617
1.19618
1.19618
1.19619
1.19619
1.1962
1.1962
1.19621
1.19621
1.19622
1.19622
1.19623
1.19624
1.19624
1.19625
1.19625
1.19626
1.19627
1.19627
1.19628
1.19629
1.1963
1.1963
1.19631
1.19632
1.19632
1.19633
1.19634
1.19635
)
;
    }
    lowerWall
    {
        type            calculated;
        value           nonuniform List<scalar> 
120
(
0.675698
0.873055
0.958892
0.996134
1.01346
1.02096
1.02286
1.0214
1.01761
1.01252
1.0062
0.999343
0.991768
0.983378
0.974377
0.96466
0.954122
0.942881
0.931173
0.919267
0.907739
0.897554
0.889503
0.883562
0.87898
0.874976
0.871276
0.868081
0.865683
0.864167
0.863378
0.863044
0.862899
0.862757
0.862525
0.862186
0.861763
0.861294
0.860813
0.860343
0.859893
0.859465
0.859063
0.858691
0.858353
0.858051
0.857786
0.857557
0.857361
0.857192
0.857046
0.856919
0.856805
0.856701
0.856604
0.856511
0.85642
0.856331
0.856242
0.856154
0.856066
0.855977
0.855888
0.8558
0.855711
0.855622
0.855534
0.855446
0.855357
0.85527
0.855182
0.855095
0.855008
0.854922
0.854836
0.854751
0.854666
0.854582
0.854498
0.854416
0.854333
0.854252
0.854171
0.854091
0.854012
0.853933
0.853856
0.85378
0.853705
0.853631
0.853558
0.853486
0.853416
0.853347
0.853279
0.853212
0.853148
0.853084
0.853023
0.852962
0.852904
0.852847
0.852792
0.85274
0.852688
0.85264
0.852593
0.852549
0.852507
0.852468
0.852433
0.852401
0.852373
0.852358
0.852321
0.852359
0.852282
0.852416
0.852286
0.852533
)
;
    }
    inlet
    {
        type            calculated;
        value           nonuniform List<scalar> 
12
(
1.19644
1.19642
1.19641
1.1964
1.19639
1.19639
1.19639
1.19639
1.19639
1.1964
1.19641
1.19644
)
;
    }
    outlet
    {
        type            calculated;
        value           nonuniform List<scalar> 
12
(
0.979861
1.12822
1.19034
1.20108
1.20156
1.20153
1.20153
1.20153
1.20152
1.20136
1.20041
1.19825
)
;
    }
    frontAndBack
    {
        type            empty;
    }
}


// ************************************************************************* //
