/*--------------------------------*- C++ -*----------------------------------*\
  =========                 |
  \\      /  F ield         | OpenFOAM: The Open Source CFD Toolbox
   \\    /   O peration     | Website:  https://openfoam.org
    \\  /    A nd           | Version:  7
     \\/     M anipulation  |
\*---------------------------------------------------------------------------*/
FoamFile
{
    version     2.0;
    format      ascii;
    class       volScalarField;
    location    "0.6825";
    object      nut;
}
// * * * * * * * * * * * * * * * * * * * * * * * * * * * * * * * * * * * * * //

dimensions      [0 2 -1 0 0 0 0];

internalField   nonuniform List<scalar> 
1600
(
1.25271e-07
1.02966e-07
7.98898e-08
6.51604e-08
5.53455e-08
4.81964e-08
4.26435e-08
3.8196e-08
3.45629e-08
3.15365e-08
2.89724e-08
2.67769e-08
2.48883e-08
2.32606e-08
2.18568e-08
2.06449e-08
1.95976e-08
1.86914e-08
1.79064e-08
1.72258e-08
1.66353e-08
1.61228e-08
1.56777e-08
1.52911e-08
1.4955e-08
1.46625e-08
1.44077e-08
1.41854e-08
1.3991e-08
1.38207e-08
1.36712e-08
1.35397e-08
1.34237e-08
1.3321e-08
1.32287e-08
1.3142e-08
1.30468e-08
1.28996e-08
1.25862e-08
1.20224e-08
1.24523e-07
1.27393e-07
1.18693e-07
1.04983e-07
9.25133e-08
8.19075e-08
7.30216e-08
6.56425e-08
5.95105e-08
5.43582e-08
4.99718e-08
4.62052e-08
4.29592e-08
4.0159e-08
3.77428e-08
3.56564e-08
3.38532e-08
3.22927e-08
3.09408e-08
2.97684e-08
2.87509e-08
2.78674e-08
2.70999e-08
2.64328e-08
2.58525e-08
2.53472e-08
2.49066e-08
2.45218e-08
2.41849e-08
2.38895e-08
2.36298e-08
2.34009e-08
2.31989e-08
2.302e-08
2.28604e-08
2.27146e-08
2.25698e-08
2.23895e-08
2.20853e-08
2.16225e-08
1.19672e-07
1.28043e-07
1.27018e-07
1.20724e-07
1.11385e-07
1.01547e-07
9.20943e-08
8.35957e-08
7.62118e-08
6.98462e-08
6.43413e-08
5.95672e-08
5.54276e-08
5.18433e-08
4.87437e-08
4.60641e-08
4.37463e-08
4.17396e-08
4.00004e-08
3.84915e-08
3.71814e-08
3.60432e-08
3.50539e-08
3.41935e-08
3.34447e-08
3.27923e-08
3.2223e-08
3.17254e-08
3.12895e-08
3.09066e-08
3.05694e-08
3.02717e-08
3.00082e-08
2.97745e-08
2.95665e-08
2.93802e-08
2.92099e-08
2.90446e-08
2.88605e-08
2.86531e-08
1.12333e-07
1.22271e-07
1.25175e-07
1.23729e-07
1.19534e-07
1.12672e-07
1.04568e-07
9.63744e-08
8.87388e-08
8.18581e-08
7.57311e-08
7.03124e-08
6.5552e-08
6.1395e-08
5.77799e-08
5.46425e-08
5.19214e-08
4.95606e-08
4.75109e-08
4.57298e-08
4.4181e-08
4.28334e-08
4.16603e-08
4.06386e-08
3.9748e-08
3.8971e-08
3.82921e-08
3.76978e-08
3.71762e-08
3.67173e-08
3.63122e-08
3.59535e-08
3.56351e-08
3.53517e-08
3.50994e-08
3.48751e-08
3.46774e-08
3.45065e-08
3.43644e-08
3.42564e-08
1.08691e-07
1.15122e-07
1.1979e-07
1.21676e-07
1.20788e-07
1.17594e-07
1.1176e-07
1.04883e-07
9.78641e-08
9.11393e-08
8.48886e-08
7.91922e-08
7.40829e-08
6.95567e-08
6.55806e-08
6.21048e-08
5.90736e-08
5.64322e-08
5.41305e-08
5.21239e-08
5.03739e-08
4.88468e-08
4.75138e-08
4.63497e-08
4.53326e-08
4.4443e-08
4.3664e-08
4.29806e-08
4.23795e-08
4.18495e-08
4.13804e-08
4.09638e-08
4.05927e-08
4.02614e-08
3.99655e-08
3.97027e-08
3.94729e-08
3.92803e-08
3.91335e-08
3.90412e-08
1.07295e-07
1.10597e-07
1.14779e-07
1.17992e-07
1.19212e-07
1.18068e-07
1.14762e-07
1.09656e-07
1.03856e-07
9.78547e-08
9.19539e-08
8.63548e-08
8.11872e-08
7.65149e-08
7.23491e-08
6.86666e-08
6.54269e-08
6.25837e-08
6.00914e-08
5.79074e-08
5.59937e-08
5.43165e-08
5.28463e-08
5.15573e-08
5.04269e-08
4.94348e-08
4.85633e-08
4.77965e-08
4.71204e-08
4.65225e-08
4.59921e-08
4.55198e-08
4.50978e-08
4.47197e-08
4.43809e-08
4.40789e-08
4.38141e-08
4.35917e-08
4.34225e-08
4.33195e-08
1.06961e-07
1.08806e-07
1.11572e-07
1.14321e-07
1.16083e-07
1.16164e-07
1.14615e-07
1.11315e-07
1.07024e-07
1.02122e-07
9.69464e-08
9.17811e-08
8.68393e-08
8.22532e-08
7.80835e-08
7.43414e-08
7.10092e-08
6.80556e-08
6.54445e-08
6.31396e-08
6.11066e-08
5.93142e-08
5.77342e-08
5.63415e-08
5.51139e-08
5.40317e-08
5.3077e-08
5.22338e-08
5.14879e-08
5.08264e-08
5.02379e-08
4.97126e-08
4.9242e-08
4.88192e-08
4.84391e-08
4.80987e-08
4.77983e-08
4.75431e-08
4.73451e-08
4.72229e-08
1.06815e-07
1.07941e-07
1.0936e-07
1.10962e-07
1.12298e-07
1.12845e-07
1.1248e-07
1.10808e-07
1.07892e-07
1.04207e-07
9.99646e-08
9.54729e-08
9.09924e-08
8.67046e-08
8.27131e-08
7.90631e-08
7.57626e-08
7.27995e-08
7.01513e-08
6.77914e-08
6.56922e-08
6.38272e-08
6.21715e-08
6.07024e-08
5.93993e-08
5.82437e-08
5.72189e-08
5.63095e-08
5.55017e-08
5.47829e-08
5.41415e-08
5.35676e-08
5.30523e-08
5.25883e-08
5.217e-08
5.17938e-08
5.14595e-08
5.11717e-08
5.09432e-08
5.0798e-08
1.0678e-07
1.07171e-07
1.07712e-07
1.08149e-07
1.08673e-07
1.09219e-07
1.09307e-07
1.08785e-07
1.07208e-07
1.04536e-07
1.01249e-07
9.75402e-08
9.36716e-08
8.98425e-08
8.6182e-08
8.27611e-08
7.96113e-08
7.67397e-08
7.41394e-08
7.17956e-08
6.96895e-08
6.78011e-08
6.61104e-08
6.45984e-08
6.32471e-08
6.20404e-08
6.09632e-08
6.0002e-08
5.91439e-08
5.8377e-08
5.76905e-08
5.70745e-08
5.65203e-08
5.60203e-08
5.55685e-08
5.51609e-08
5.47963e-08
5.44786e-08
5.42206e-08
5.40514e-08
1.07021e-07
1.0694e-07
1.06638e-07
1.0595e-07
1.05754e-07
1.05934e-07
1.06202e-07
1.06069e-07
1.05374e-07
1.03724e-07
1.01174e-07
9.82129e-08
9.50099e-08
9.17273e-08
8.84994e-08
8.54105e-08
8.25084e-08
7.98166e-08
7.73427e-08
7.50837e-08
7.30305e-08
7.11702e-08
6.94887e-08
6.79713e-08
6.66039e-08
6.53729e-08
6.42658e-08
6.32712e-08
6.2378e-08
6.15757e-08
6.08546e-08
6.02055e-08
5.962e-08
5.90909e-08
5.8612e-08
5.81788e-08
5.77893e-08
5.74463e-08
5.7162e-08
5.69692e-08
1.07811e-07
1.06503e-07
1.05523e-07
1.04212e-07
1.03511e-07
1.03404e-07
1.035e-07
1.03446e-07
1.03052e-07
1.01994e-07
1.00207e-07
9.78695e-08
9.52444e-08
9.2516e-08
8.97597e-08
8.70579e-08
8.44657e-08
8.20172e-08
7.9731e-08
7.76143e-08
7.56666e-08
7.38823e-08
7.22527e-08
7.0768e-08
6.94178e-08
6.81919e-08
6.70803e-08
6.60738e-08
6.51638e-08
6.43416e-08
6.3599e-08
6.29279e-08
6.2321e-08
6.17712e-08
6.12728e-08
6.0821e-08
6.04131e-08
6.00508e-08
5.9745e-08
5.95307e-08
1.06634e-07
1.06073e-07
1.04607e-07
1.03069e-07
1.02046e-07
1.01571e-07
1.01382e-07
1.01175e-07
1.00749e-07
9.98888e-08
9.85373e-08
9.67863e-08
9.47269e-08
9.2452e-08
9.01361e-08
8.78267e-08
8.55646e-08
8.33901e-08
8.13278e-08
7.93919e-08
7.75884e-08
7.59177e-08
7.4376e-08
7.29577e-08
7.16558e-08
7.04632e-08
6.93726e-08
6.83771e-08
6.74701e-08
6.66452e-08
6.58959e-08
6.52157e-08
6.45982e-08
6.40376e-08
6.35283e-08
6.30656e-08
6.26467e-08
6.2272e-08
6.19505e-08
6.17182e-08
1.06164e-07
1.05515e-07
1.04302e-07
1.02607e-07
1.01232e-07
1.00349e-07
9.97699e-08
9.92657e-08
9.86669e-08
9.78317e-08
9.66989e-08
9.52854e-08
9.36388e-08
9.18314e-08
8.98889e-08
8.79034e-08
8.59497e-08
8.40464e-08
8.22158e-08
8.04761e-08
7.88368e-08
7.73022e-08
7.58725e-08
7.45451e-08
7.3316e-08
7.21803e-08
7.11332e-08
7.01696e-08
6.92849e-08
6.84746e-08
6.77338e-08
6.70578e-08
6.64416e-08
6.58803e-08
6.53692e-08
6.49039e-08
6.44815e-08
6.41015e-08
6.37712e-08
6.35252e-08
1.05983e-07
1.05448e-07
1.04253e-07
1.02411e-07
1.0078e-07
9.9544e-08
9.85825e-08
9.77494e-08
9.69271e-08
9.6018e-08
9.49612e-08
9.37356e-08
9.23473e-08
9.08253e-08
8.92068e-08
8.75308e-08
8.58237e-08
8.41465e-08
8.25288e-08
8.09779e-08
7.95027e-08
7.81097e-08
7.68014e-08
7.55774e-08
7.44355e-08
7.33726e-08
7.23853e-08
7.14701e-08
7.06236e-08
6.98428e-08
6.91245e-08
6.84654e-08
6.78617e-08
6.73098e-08
6.68058e-08
6.6346e-08
6.59276e-08
6.55494e-08
6.52168e-08
6.49624e-08
1.05799e-07
1.05267e-07
1.03933e-07
1.02127e-07
1.00438e-07
9.89751e-08
9.77183e-08
9.66098e-08
9.55806e-08
9.45608e-08
9.34938e-08
9.23425e-08
9.10904e-08
8.97421e-08
8.8318e-08
8.6847e-08
8.53643e-08
8.38898e-08
8.24406e-08
8.10455e-08
7.97168e-08
7.84554e-08
7.72634e-08
7.61422e-08
7.50906e-08
7.41065e-08
7.31871e-08
7.23298e-08
7.15321e-08
7.07919e-08
7.01068e-08
6.94749e-08
6.88934e-08
6.83598e-08
6.7871e-08
6.74241e-08
6.70164e-08
6.66466e-08
6.63182e-08
6.60606e-08
1.05969e-07
1.05439e-07
1.0392e-07
1.02054e-07
1.00242e-07
9.85838e-08
9.71153e-08
9.5812e-08
9.46235e-08
9.34933e-08
9.23714e-08
9.12194e-08
9.0014e-08
8.87492e-08
8.74351e-08
8.60921e-08
8.47442e-08
8.34107e-08
8.21103e-08
8.085e-08
7.96362e-08
7.84797e-08
7.73874e-08
7.63576e-08
7.5389e-08
7.44799e-08
7.3628e-08
7.28307e-08
7.20859e-08
7.13916e-08
7.07463e-08
7.01483e-08
6.9596e-08
6.90875e-08
6.86204e-08
6.81926e-08
6.78016e-08
6.74458e-08
6.71274e-08
6.6872e-08
1.08283e-07
1.05907e-07
1.03842e-07
1.01972e-07
1.00123e-07
9.83537e-08
9.67532e-08
9.53211e-08
9.4015e-08
9.27856e-08
9.1591e-08
9.03986e-08
8.91862e-08
8.79456e-08
8.66813e-08
8.54075e-08
8.41413e-08
8.28974e-08
8.16879e-08
8.05196e-08
7.93993e-08
7.83307e-08
7.73154e-08
7.63562e-08
7.54557e-08
7.46108e-08
7.38186e-08
7.30766e-08
7.23825e-08
7.17342e-08
7.11302e-08
7.05691e-08
7.00497e-08
6.95704e-08
6.91296e-08
6.87254e-08
6.83557e-08
6.80188e-08
6.77155e-08
6.74672e-08
1.0678e-07
1.0574e-07
1.03788e-07
1.01983e-07
1.00142e-07
9.83252e-08
9.66289e-08
9.50933e-08
9.36878e-08
9.23687e-08
9.11004e-08
8.98556e-08
8.86149e-08
8.73697e-08
8.61217e-08
8.48804e-08
8.36583e-08
8.24662e-08
8.13124e-08
8.02021e-08
7.91396e-08
7.81279e-08
7.71693e-08
7.62661e-08
7.54169e-08
7.46212e-08
7.38769e-08
7.3181e-08
7.25309e-08
7.19243e-08
7.13593e-08
7.08346e-08
7.03487e-08
6.99005e-08
6.94884e-08
6.91108e-08
6.87659e-08
6.84517e-08
6.81679e-08
6.79313e-08
1.07553e-07
1.06082e-07
1.04015e-07
1.02173e-07
1.00289e-07
9.84047e-08
9.66465e-08
9.5035e-08
9.35482e-08
9.21552e-08
9.08268e-08
8.95384e-08
8.82719e-08
8.70175e-08
8.57745e-08
8.45492e-08
8.33507e-08
8.21873e-08
8.10654e-08
7.99891e-08
7.89617e-08
7.79856e-08
7.7063e-08
7.61953e-08
7.53822e-08
7.46224e-08
7.39138e-08
7.32538e-08
7.26396e-08
7.20685e-08
7.15383e-08
7.10471e-08
7.05936e-08
7.01763e-08
6.97939e-08
6.94448e-08
6.91271e-08
6.88387e-08
6.8578e-08
6.83575e-08
1.06369e-07
1.05954e-07
1.04303e-07
1.02333e-07
1.00377e-07
9.84798e-08
9.66982e-08
9.50482e-08
9.3512e-08
9.20709e-08
9.07059e-08
8.93945e-08
8.81176e-08
8.68637e-08
8.56293e-08
8.44178e-08
8.32363e-08
8.20917e-08
8.09897e-08
7.99344e-08
7.89286e-08
7.79747e-08
7.70745e-08
7.62293e-08
7.54398e-08
7.47052e-08
7.40235e-08
7.33917e-08
7.28067e-08
7.22656e-08
7.17658e-08
7.13054e-08
7.08826e-08
7.04958e-08
7.01436e-08
6.98243e-08
6.95358e-08
6.92757e-08
6.90417e-08
6.88411e-08
1.05968e-07
1.05792e-07
1.04411e-07
1.02409e-07
1.00425e-07
9.85335e-08
9.67575e-08
9.50918e-08
9.35349e-08
9.20768e-08
9.07008e-08
8.93882e-08
8.81185e-08
8.68761e-08
8.56564e-08
8.44615e-08
8.3297e-08
8.21695e-08
8.10847e-08
8.00468e-08
7.90589e-08
7.81237e-08
7.72434e-08
7.64194e-08
7.56517e-08
7.49397e-08
7.42814e-08
7.36742e-08
7.3115e-08
7.26011e-08
7.21298e-08
7.16988e-08
7.13063e-08
7.09503e-08
7.06292e-08
7.03412e-08
7.0084e-08
6.98548e-08
6.96505e-08
6.94736e-08
1.0633e-07
1.0591e-07
1.04441e-07
1.02458e-07
1.00469e-07
9.85988e-08
9.68433e-08
9.51792e-08
9.36103e-08
9.2143e-08
9.07694e-08
8.94694e-08
8.82202e-08
8.70052e-08
8.58159e-08
8.46522e-08
8.35178e-08
8.24185e-08
8.13602e-08
8.03475e-08
7.9384e-08
7.84726e-08
7.76156e-08
7.68144e-08
7.60698e-08
7.5381e-08
7.47468e-08
7.4165e-08
7.36327e-08
7.31472e-08
7.27057e-08
7.23056e-08
7.1945e-08
7.16217e-08
7.13339e-08
7.10794e-08
7.08557e-08
7.06598e-08
7.04879e-08
7.03376e-08
1.07217e-07
1.06253e-07
1.04434e-07
1.02413e-07
1.00473e-07
9.86844e-08
9.69835e-08
9.53375e-08
9.37678e-08
9.23015e-08
9.09414e-08
8.96679e-08
8.8455e-08
8.72816e-08
8.61352e-08
8.50122e-08
8.39161e-08
8.2853e-08
8.1829e-08
8.08493e-08
7.9918e-08
7.90382e-08
7.82123e-08
7.74421e-08
7.67282e-08
7.60705e-08
7.54678e-08
7.4918e-08
7.44186e-08
7.39668e-08
7.35597e-08
7.31948e-08
7.28697e-08
7.25824e-08
7.23307e-08
7.21122e-08
7.19242e-08
7.17632e-08
7.16255e-08
7.15031e-08
1.07055e-07
1.05996e-07
1.04112e-07
1.02205e-07
1.00466e-07
9.88303e-08
9.72114e-08
9.55915e-08
9.40271e-08
9.25698e-08
9.12308e-08
8.99906e-08
8.88196e-08
8.76928e-08
8.65956e-08
8.5523e-08
8.44773e-08
8.34641e-08
8.24892e-08
8.15579e-08
8.06742e-08
7.98414e-08
7.90618e-08
7.83371e-08
7.7668e-08
7.70543e-08
7.64949e-08
7.59878e-08
7.55306e-08
7.51204e-08
7.47544e-08
7.44301e-08
7.4145e-08
7.38969e-08
7.36836e-08
7.35026e-08
7.33511e-08
7.32248e-08
7.31213e-08
7.30254e-08
1.05904e-07
1.05266e-07
1.03748e-07
1.02113e-07
1.00586e-07
9.911e-08
9.7553e-08
9.59434e-08
9.438e-08
9.29354e-08
9.16256e-08
9.04279e-08
8.93084e-08
8.82391e-08
8.72036e-08
8.61962e-08
8.52182e-08
8.42741e-08
8.33689e-08
8.25071e-08
8.16924e-08
8.09274e-08
8.02141e-08
7.95538e-08
7.89469e-08
7.83931e-08
7.7891e-08
7.74387e-08
7.70335e-08
7.66729e-08
7.63539e-08
7.60741e-08
7.58312e-08
7.56232e-08
7.5448e-08
7.53031e-08
7.51858e-08
7.50913e-08
7.50188e-08
7.49449e-08
1.06274e-07
1.0549e-07
1.04069e-07
1.02431e-07
1.00984e-07
9.95401e-08
9.79793e-08
9.63588e-08
9.48e-08
9.3383e-08
9.21203e-08
9.09833e-08
8.99335e-08
8.89408e-08
8.79881e-08
8.70692e-08
8.61843e-08
8.53364e-08
8.45288e-08
8.37644e-08
8.30454e-08
8.23734e-08
8.17494e-08
8.11742e-08
8.06476e-08
8.01688e-08
7.97365e-08
7.93484e-08
7.9002e-08
7.86948e-08
7.84243e-08
7.81885e-08
7.79855e-08
7.78138e-08
7.76718e-08
7.75574e-08
7.74681e-08
7.7399e-08
7.73509e-08
7.72913e-08
1.06927e-07
1.06065e-07
1.04778e-07
1.03119e-07
1.01595e-07
1.00083e-07
9.84695e-08
9.6829e-08
9.52906e-08
9.39279e-08
9.27418e-08
9.1695e-08
9.07445e-08
8.98593e-08
8.9022e-08
8.82259e-08
8.74696e-08
8.67534e-08
8.60779e-08
8.54433e-08
8.48494e-08
8.42961e-08
8.37831e-08
8.33103e-08
8.28772e-08
8.2483e-08
8.21262e-08
8.18048e-08
8.15167e-08
8.12599e-08
8.10325e-08
8.08336e-08
8.06621e-08
8.05177e-08
8.03996e-08
8.03064e-08
8.02362e-08
8.01838e-08
8.01514e-08
8.00979e-08
1.07795e-07
1.0721e-07
1.05547e-07
1.0385e-07
1.02292e-07
1.00697e-07
9.90237e-08
9.73851e-08
9.59074e-08
9.4644e-08
9.3579e-08
9.26658e-08
9.18586e-08
9.11255e-08
9.04488e-08
8.98202e-08
8.92354e-08
8.8691e-08
8.81835e-08
8.77093e-08
8.72652e-08
8.68489e-08
8.64591e-08
8.60955e-08
8.5758e-08
8.54464e-08
8.51599e-08
8.48975e-08
8.46582e-08
8.44409e-08
8.42451e-08
8.40712e-08
8.39197e-08
8.37916e-08
8.36873e-08
8.36063e-08
8.3547e-08
8.35046e-08
8.34793e-08
8.34282e-08
1.07276e-07
1.06847e-07
1.05363e-07
1.04011e-07
1.02645e-07
1.01137e-07
9.95543e-08
9.80521e-08
9.6746e-08
9.56706e-08
9.48006e-08
9.40876e-08
9.3486e-08
9.29638e-08
9.25021e-08
9.20899e-08
9.17186e-08
9.13799e-08
9.10656e-08
9.07688e-08
9.0483e-08
9.02043e-08
8.99318e-08
8.96667e-08
8.94108e-08
8.91661e-08
8.89339e-08
8.87148e-08
8.85094e-08
8.83184e-08
8.81427e-08
8.79842e-08
8.7845e-08
8.77276e-08
8.76335e-08
8.75623e-08
8.75127e-08
8.74796e-08
8.74589e-08
8.74122e-08
1.06794e-07
1.06254e-07
1.05097e-07
1.04132e-07
1.02984e-07
1.01648e-07
1.00285e-07
9.90587e-08
9.80521e-08
9.72754e-08
9.66982e-08
9.62727e-08
9.59525e-08
9.57038e-08
9.55069e-08
9.53471e-08
9.5212e-08
9.50888e-08
9.49655e-08
9.48356e-08
9.46912e-08
9.45266e-08
9.43447e-08
9.41508e-08
9.39512e-08
9.37513e-08
9.35551e-08
9.33659e-08
9.31856e-08
9.30165e-08
9.28607e-08
9.27206e-08
9.25996e-08
9.2501e-08
9.24265e-08
9.23748e-08
9.23438e-08
9.23277e-08
9.23148e-08
9.22776e-08
1.07348e-07
1.06827e-07
1.05865e-07
1.04934e-07
1.0387e-07
1.0273e-07
1.01687e-07
1.00851e-07
1.00266e-07
9.98996e-08
9.97211e-08
9.96752e-08
9.96974e-08
9.97576e-08
9.9842e-08
9.993e-08
1.00011e-07
1.00072e-07
1.00098e-07
1.00092e-07
1.00053e-07
9.99638e-08
9.98378e-08
9.96879e-08
9.95257e-08
9.93603e-08
9.91982e-08
9.90438e-08
9.89e-08
9.8769e-08
9.86529e-08
9.85539e-08
9.84738e-08
9.84156e-08
9.83817e-08
9.83683e-08
9.83676e-08
9.83767e-08
9.8373e-08
9.83421e-08
1.07145e-07
1.07501e-07
1.07323e-07
1.06568e-07
1.05656e-07
1.04871e-07
1.04291e-07
1.03993e-07
1.03993e-07
1.0413e-07
1.04447e-07
1.04824e-07
1.05201e-07
1.05549e-07
1.05857e-07
1.06125e-07
1.06351e-07
1.0653e-07
1.06656e-07
1.06721e-07
1.06727e-07
1.06701e-07
1.06626e-07
1.0652e-07
1.06407e-07
1.06298e-07
1.06197e-07
1.06108e-07
1.06035e-07
1.05975e-07
1.05931e-07
1.05903e-07
1.0589e-07
1.0589e-07
1.05905e-07
1.05937e-07
1.05969e-07
1.05987e-07
1.05974e-07
1.05917e-07
1.07624e-07
1.09561e-07
1.09474e-07
1.08793e-07
1.08396e-07
1.08394e-07
1.08588e-07
1.09083e-07
1.09833e-07
1.10655e-07
1.1147e-07
1.1221e-07
1.1284e-07
1.13359e-07
1.13782e-07
1.14134e-07
1.14431e-07
1.14678e-07
1.14873e-07
1.15009e-07
1.1509e-07
1.15124e-07
1.15126e-07
1.15114e-07
1.15094e-07
1.15084e-07
1.15084e-07
1.15092e-07
1.15113e-07
1.15143e-07
1.15177e-07
1.15214e-07
1.15255e-07
1.15296e-07
1.15336e-07
1.15367e-07
1.15371e-07
1.15345e-07
1.15268e-07
1.15104e-07
1.0822e-07
1.1098e-07
1.11691e-07
1.12086e-07
1.12926e-07
1.14178e-07
1.15607e-07
1.17127e-07
1.18626e-07
1.19985e-07
1.21139e-07
1.2207e-07
1.228e-07
1.23373e-07
1.23845e-07
1.24259e-07
1.24639e-07
1.24991e-07
1.25304e-07
1.25566e-07
1.2577e-07
1.25924e-07
1.26042e-07
1.26139e-07
1.26227e-07
1.26312e-07
1.26393e-07
1.26468e-07
1.26534e-07
1.26587e-07
1.26622e-07
1.26641e-07
1.26638e-07
1.26617e-07
1.26569e-07
1.26485e-07
1.26355e-07
1.26163e-07
1.25902e-07
1.25523e-07
1.11529e-07
1.14399e-07
1.16162e-07
1.18517e-07
1.21367e-07
1.24214e-07
1.26798e-07
1.29043e-07
1.30926e-07
1.32458e-07
1.33676e-07
1.34638e-07
1.35416e-07
1.3608e-07
1.36689e-07
1.37278e-07
1.37844e-07
1.38378e-07
1.38855e-07
1.39248e-07
1.39541e-07
1.39755e-07
1.39906e-07
1.40005e-07
1.40068e-07
1.40099e-07
1.40093e-07
1.40061e-07
1.39989e-07
1.39873e-07
1.39719e-07
1.39526e-07
1.39291e-07
1.39014e-07
1.38691e-07
1.38314e-07
1.37878e-07
1.37369e-07
1.36793e-07
1.36103e-07
1.14443e-07
1.1993e-07
1.25302e-07
1.30824e-07
1.35846e-07
1.39909e-07
1.42991e-07
1.45307e-07
1.47095e-07
1.48542e-07
1.49751e-07
1.50812e-07
1.51783e-07
1.52684e-07
1.53531e-07
1.54313e-07
1.5498e-07
1.55536e-07
1.5595e-07
1.56189e-07
1.56241e-07
1.56192e-07
1.56044e-07
1.55806e-07
1.55509e-07
1.55156e-07
1.54748e-07
1.54286e-07
1.53771e-07
1.53208e-07
1.52598e-07
1.51938e-07
1.51232e-07
1.5048e-07
1.49683e-07
1.48835e-07
1.47938e-07
1.46984e-07
1.45996e-07
1.44954e-07
1.16642e-07
1.31888e-07
1.43471e-07
1.5159e-07
1.57249e-07
1.6127e-07
1.64123e-07
1.66263e-07
1.67999e-07
1.69498e-07
1.70778e-07
1.71937e-07
1.7297e-07
1.73795e-07
1.74415e-07
1.74789e-07
1.74849e-07
1.74736e-07
1.74405e-07
1.738e-07
1.73014e-07
1.72102e-07
1.71095e-07
1.70007e-07
1.68867e-07
1.67689e-07
1.6648e-07
1.65244e-07
1.63984e-07
1.62704e-07
1.61408e-07
1.60104e-07
1.5879e-07
1.57461e-07
1.5611e-07
1.54738e-07
1.53349e-07
1.51944e-07
1.5057e-07
1.49257e-07
1.2983e-07
1.59927e-07
1.75479e-07
1.82249e-07
1.86089e-07
1.8903e-07
1.91236e-07
1.9296e-07
1.94223e-07
1.95026e-07
1.95312e-07
1.95178e-07
1.947e-07
1.93807e-07
1.92663e-07
1.91335e-07
1.89814e-07
1.88117e-07
1.86257e-07
1.84256e-07
1.82167e-07
1.8004e-07
1.77907e-07
1.75785e-07
1.73682e-07
1.71601e-07
1.69545e-07
1.67515e-07
1.65511e-07
1.63534e-07
1.61582e-07
1.59652e-07
1.57745e-07
1.55858e-07
1.53991e-07
1.52148e-07
1.50337e-07
1.48573e-07
1.46923e-07
1.45477e-07
1.71077e-07
2.09265e-07
2.20343e-07
2.21909e-07
2.21033e-07
2.19307e-07
2.17749e-07
2.15897e-07
2.13565e-07
2.10778e-07
2.0763e-07
2.04257e-07
2.00765e-07
1.97197e-07
1.93601e-07
1.8999e-07
1.86378e-07
1.8279e-07
1.79252e-07
1.75791e-07
1.72433e-07
1.69199e-07
1.66097e-07
1.63122e-07
1.60267e-07
1.5752e-07
1.54874e-07
1.52322e-07
1.49855e-07
1.4747e-07
1.45158e-07
1.42914e-07
1.40732e-07
1.38611e-07
1.3655e-07
1.34553e-07
1.32632e-07
1.30806e-07
1.2915e-07
1.27791e-07
2.65859e-07
2.79139e-07
2.66846e-07
2.4722e-07
2.29133e-07
2.13225e-07
1.99674e-07
1.88369e-07
1.789e-07
1.70833e-07
1.63818e-07
1.57616e-07
1.52051e-07
1.46985e-07
1.42314e-07
1.37957e-07
1.33862e-07
1.30001e-07
1.26362e-07
1.22936e-07
1.19719e-07
1.16701e-07
1.1387e-07
1.11208e-07
1.08699e-07
1.06326e-07
1.04077e-07
1.01941e-07
9.99073e-08
9.79677e-08
9.61141e-08
9.43394e-08
9.26383e-08
9.10071e-08
8.94446e-08
8.79519e-08
8.65345e-08
8.52053e-08
8.40093e-08
8.30286e-08
)
;

boundaryField
{
    upperWall
    {
        type            zeroGradient;
    }
    lowerWall
    {
        type            zeroGradient;
    }
    inlet
    {
        type            zeroGradient;
    }
    outlet
    {
        type            zeroGradient;
    }
    frontAndBack
    {
        type            empty;
    }
}


// ************************************************************************* //
