/*--------------------------------*- C++ -*----------------------------------*\
  =========                 |
  \\      /  F ield         | OpenFOAM: The Open Source CFD Toolbox
   \\    /   O peration     | Website:  https://openfoam.org
    \\  /    A nd           | Version:  7
     \\/     M anipulation  |
\*---------------------------------------------------------------------------*/
FoamFile
{
    version     2.0;
    format      ascii;
    class       volScalarField;
    location    "0.425";
    object      pPrime2Mean;
}
// * * * * * * * * * * * * * * * * * * * * * * * * * * * * * * * * * * * * * //

dimensions      [2 -2 -4 0 0 0 0];

internalField   nonuniform List<scalar> 
2400
(
2.63383
2.6192
2.60992
2.60041
2.59153
2.58292
2.57489
2.56699
2.5593
2.5519
2.54472
2.53751
2.53041
2.52382
2.51669
2.51003
2.5034
2.49668
2.49019
2.48364
2.47707
2.47054
2.46407
2.45758
2.45113
2.44468
2.43818
2.43162
2.42527
2.4189
2.41245
2.4059
2.39979
2.39308
2.38674
2.38035
2.37398
2.36754
2.36125
2.35486
2.34835
2.34198
2.33558
2.32907
2.32263
2.31609
2.3097
2.30335
2.29686
2.29053
2.2839
2.27769
2.27111
2.26456
2.25813
2.25168
2.24515
2.23865
2.23229
2.22571
2.21916
2.21285
2.20618
2.1996
2.1933
2.1866
2.18019
2.17366
2.16715
2.16057
2.15405
2.14746
2.14099
2.13437
2.12776
2.12117
2.11476
2.10814
2.10149
2.09485
2.08847
2.0819
2.07507
2.06856
2.06191
2.05539
2.04887
2.04228
2.03573
2.02883
2.02249
2.01593
2.00923
2.0027
1.99615
1.98955
1.98297
1.97652
1.96985
1.96331
1.95679
1.95027
1.94373
1.93723
1.93075
1.92425
1.91776
1.91136
1.90481
1.89838
1.89202
1.88559
1.87931
1.87301
1.86653
1.8603
1.85378
1.84761
1.84138
1.83512
2.63411
2.61921
2.60971
2.60045
2.59143
2.58298
2.57495
2.56712
2.55949
2.55206
2.54481
2.53766
2.53062
2.52366
2.51686
2.51008
2.50344
2.49681
2.49014
2.48362
2.47707
2.47052
2.4641
2.45749
2.45103
2.44463
2.43807
2.43184
2.42522
2.41901
2.41253
2.40618
2.39972
2.39332
2.38681
2.3803
2.37399
2.36776
2.36106
2.35476
2.34834
2.34193
2.33554
2.32911
2.32264
2.31615
2.30981
2.30344
2.29688
2.29049
2.28395
2.27772
2.27103
2.26458
2.25818
2.25186
2.24526
2.23862
2.23218
2.22582
2.21939
2.21282
2.20624
2.19988
2.19337
2.18684
2.1802
2.17361
2.16701
2.16048
2.15414
2.14742
2.14072
2.13449
2.12782
2.12122
2.11477
2.10809
2.10152
2.09484
2.08836
2.08189
2.07504
2.06864
2.06192
2.05536
2.0489
2.04225
2.03568
2.02888
2.02243
2.01591
2.00934
2.00273
1.99614
1.9896
1.98294
1.97655
1.96989
1.96334
1.95678
1.95025
1.9437
1.93725
1.93074
1.92426
1.91776
1.91136
1.90482
1.89839
1.89202
1.8856
1.87933
1.873
1.86652
1.86029
1.85378
1.84759
1.8414
1.83515
2.63413
2.61915
2.60956
2.60026
2.5915
2.58289
2.5749
2.56677
2.55934
2.55185
2.54453
2.5377
2.53045
2.52354
2.51679
2.51003
2.50348
2.49673
2.49021
2.48366
2.47706
2.47055
2.4639
2.45756
2.45107
2.44452
2.43818
2.43167
2.42521
2.41899
2.41243
2.40594
2.39971
2.3932
2.38685
2.38033
2.37404
2.3675
2.36102
2.3548
2.34836
2.34189
2.33546
2.32905
2.32261
2.31619
2.30977
2.30339
2.29696
2.29039
2.28396
2.27752
2.27098
2.26451
2.25822
2.25158
2.24531
2.2388
2.23228
2.22569
2.21929
2.2128
2.20627
2.19973
2.19316
2.1867
2.18013
2.17358
2.1671
2.16061
2.15401
2.14753
2.14078
2.13431
2.12771
2.12123
2.11475
2.10802
2.10143
2.09476
2.08846
2.08175
2.07507
2.06854
2.06186
2.05543
2.04894
2.04221
2.03564
2.02893
2.02241
2.01591
2.00929
2.00274
1.99612
1.9896
1.98296
1.97653
1.9699
1.96337
1.95678
1.95022
1.94369
1.93724
1.93076
1.92428
1.91779
1.91137
1.90485
1.89837
1.892
1.88558
1.87933
1.873
1.86655
1.8603
1.85377
1.84761
1.8414
1.83514
2.63413
2.6191
2.60946
2.60027
2.59132
2.58282
2.57477
2.56676
2.55924
2.55202
2.54476
2.53761
2.53045
2.52352
2.51684
2.51011
2.50349
2.49666
2.49021
2.48364
2.47701
2.47066
2.46387
2.45757
2.45106
2.44467
2.43831
2.43182
2.4252
2.4189
2.41251
2.40609
2.39957
2.39323
2.38688
2.38043
2.37393
2.36757
2.36127
2.35469
2.34833
2.3419
2.33549
2.3291
2.3226
2.31624
2.30973
2.30333
2.29685
2.29049
2.2841
2.27744
2.27107
2.26466
2.25811
2.25183
2.24515
2.23873
2.23229
2.22572
2.2193
2.21286
2.20621
2.19976
2.1931
2.18664
2.18008
2.17356
2.16715
2.16054
2.15402
2.14747
2.14085
2.13438
2.12781
2.12127
2.11472
2.10821
2.10148
2.09489
2.08836
2.08189
2.07514
2.06858
2.06187
2.0554
2.04886
2.0422
2.03564
2.02892
2.02233
2.01601
2.00929
2.00277
1.99607
1.9896
1.98294
1.97652
1.96996
1.96335
1.95677
1.9502
1.94373
1.93721
1.93074
1.92428
1.91778
1.91137
1.90484
1.89836
1.89198
1.8856
1.87932
1.87298
1.86652
1.8603
1.85378
1.84757
1.84139
1.83514
2.63388
2.61888
2.60954
2.60027
2.59133
2.58292
2.57472
2.56671
2.55935
2.55183
2.54456
2.53761
2.5306
2.52366
2.51679
2.51006
2.5034
2.49687
2.49022
2.48364
2.47712
2.47055
2.46408
2.45786
2.45101
2.44468
2.43821
2.43173
2.42529
2.41881
2.41247
2.40608
2.39979
2.39322
2.38681
2.38033
2.37406
2.36749
2.36123
2.35472
2.34839
2.34199
2.3356
2.329
2.32268
2.31613
2.30982
2.30328
2.29679
2.29062
2.28398
2.27762
2.27105
2.26471
2.2583
2.25172
2.24525
2.23875
2.23221
2.22566
2.21914
2.21275
2.20625
2.19979
2.19334
2.18672
2.18024
2.1737
2.16702
2.16047
2.15414
2.14746
2.1409
2.13436
2.12766
2.12124
2.11478
2.10826
2.10144
2.09499
2.08842
2.08198
2.07504
2.06862
2.0618
2.05529
2.04885
2.04216
2.03566
2.0289
2.02236
2.01596
2.00921
2.00279
1.99606
1.98956
1.98284
1.97651
1.96995
1.96334
1.95676
1.95017
1.94371
1.93715
1.93076
1.92426
1.91779
1.91137
1.9048
1.89838
1.89199
1.88562
1.87933
1.87297
1.86652
1.86028
1.85378
1.84755
1.84139
1.83515
2.63405
2.61897
2.60951
2.60012
2.59114
2.58274
2.57463
2.56671
2.55915
2.55188
2.54456
2.53745
2.53062
2.52365
2.51684
2.51023
2.50341
2.49672
2.49013
2.48353
2.47689
2.47044
2.46418
2.45752
2.45111
2.44475
2.43809
2.43167
2.42542
2.41894
2.41256
2.40615
2.39963
2.39331
2.38687
2.38026
2.37401
2.36752
2.36124
2.35482
2.34817
2.34199
2.33539
2.32911
2.32266
2.31632
2.30978
2.30345
2.29717
2.29051
2.28391
2.27758
2.27104
2.26466
2.25817
2.25154
2.24505
2.23863
2.23213
2.22576
2.21917
2.21276
2.20629
2.19974
2.19326
2.18673
2.18015
2.17376
2.16705
2.16049
2.15403
2.14746
2.14087
2.13427
2.1277
2.12122
2.11472
2.10802
2.10154
2.09481
2.08838
2.08193
2.07512
2.06865
2.06183
2.05533
2.04895
2.04227
2.03562
2.02897
2.02232
2.01604
2.0092
2.00279
1.99614
1.98954
1.98289
1.97657
1.96997
1.96335
1.9568
1.95025
1.9437
1.93714
1.93076
1.92426
1.91777
1.9114
1.90479
1.89836
1.89195
1.88565
1.87931
1.87299
1.86649
1.86029
1.85377
1.84753
1.84143
1.83509
2.63386
2.61906
2.60935
2.6002
2.59125
2.58265
2.57456
2.56692
2.55914
2.55169
2.54451
2.53756
2.53044
2.52357
2.51681
2.51007
2.5033
2.49687
2.4902
2.48351
2.47691
2.47053
2.4641
2.45752
2.4511
2.44454
2.43816
2.43166
2.42534
2.41905
2.41258
2.40602
2.39966
2.39313
2.38695
2.38038
2.37399
2.36757
2.36128
2.35483
2.34839
2.34194
2.33541
2.3289
2.32258
2.31627
2.31
2.30336
2.29692
2.29055
2.28407
2.27765
2.27109
2.26469
2.25821
2.25166
2.24523
2.2388
2.23219
2.22559
2.21933
2.21268
2.2063
2.19964
2.19323
2.18675
2.18006
2.17361
2.16702
2.16055
2.15402
2.1474
2.14098
2.13437
2.12778
2.12133
2.11471
2.1081
2.10158
2.09492
2.08842
2.08182
2.07513
2.06875
2.06189
2.05536
2.04895
2.04218
2.03569
2.02901
2.02243
2.01598
2.00936
2.00279
1.99619
1.9895
1.98298
1.9766
1.96987
1.96336
1.95674
1.95019
1.9437
1.93715
1.93078
1.92431
1.9178
1.91139
1.90481
1.89836
1.89198
1.88563
1.87931
1.873
1.86646
1.86029
1.85378
1.8475
1.84145
1.83508
2.63392
2.61895
2.60941
2.60007
2.59124
2.5828
2.57453
2.56669
2.55916
2.55172
2.54453
2.53742
2.53038
2.52357
2.51669
2.50998
2.5034
2.49677
2.49016
2.48362
2.47709
2.47059
2.46399
2.4576
2.45118
2.44463
2.43814
2.43176
2.42528
2.41905
2.41242
2.40606
2.39974
2.39318
2.3868
2.38041
2.37406
2.36749
2.3613
2.35485
2.34839
2.34191
2.33538
2.32896
2.32259
2.31626
2.30979
2.30326
2.29683
2.29037
2.28399
2.27757
2.27107
2.26466
2.25822
2.25176
2.24519
2.23894
2.23223
2.2257
2.21925
2.2127
2.20619
2.19979
2.19322
2.18666
2.18006
2.17358
2.16708
2.16065
2.1541
2.14751
2.1409
2.13423
2.12791
2.12135
2.11458
2.10815
2.1015
2.09487
2.08842
2.08175
2.07512
2.06872
2.06193
2.05537
2.04885
2.04221
2.0356
2.02905
2.02238
2.01601
2.00933
2.00274
1.99619
1.9895
1.98294
1.97657
1.96991
1.96329
1.95668
1.95016
1.94375
1.93717
1.93074
1.92432
1.9178
1.91139
1.90487
1.89834
1.89199
1.88567
1.8793
1.873
1.86648
1.86032
1.85378
1.84751
1.84146
1.83507
2.63387
2.61886
2.60933
2.60002
2.59121
2.5826
2.57451
2.56688
2.55919
2.55168
2.54459
2.53739
2.53045
2.52367
2.51674
2.50996
2.50333
2.49674
2.49023
2.48349
2.47692
2.47035
2.46398
2.45758
2.45109
2.44464
2.43815
2.43171
2.42537
2.41887
2.4126
2.40601
2.39975
2.3933
2.38681
2.38039
2.37397
2.36765
2.36118
2.35467
2.34845
2.34198
2.33543
2.32899
2.32254
2.31626
2.30989
2.30327
2.29697
2.29036
2.28398
2.27763
2.2712
2.26462
2.25824
2.25175
2.24521
2.23864
2.23217
2.22562
2.2192
2.21268
2.2063
2.19987
2.19327
2.18666
2.18028
2.1736
2.16712
2.16067
2.15404
2.1475
2.14088
2.13433
2.12781
2.12125
2.11459
2.10816
2.10142
2.09498
2.08825
2.08174
2.0751
2.06862
2.06196
2.05542
2.04873
2.0423
2.03569
2.02902
2.02232
2.01586
2.00931
2.00275
1.99614
1.98952
1.98294
1.97658
1.96993
1.96331
1.95667
1.95023
1.94375
1.93717
1.93075
1.9243
1.9178
1.9114
1.90484
1.89833
1.89199
1.88561
1.87928
1.87302
1.86649
1.86032
1.85377
1.8475
1.84147
1.83507
2.63381
2.61895
2.6095
2.59998
2.59118
2.58277
2.57454
2.56674
2.55919
2.55173
2.54446
2.53747
2.53036
2.52355
2.51682
2.51005
2.50343
2.49659
2.49016
2.4836
2.47707
2.4706
2.46421
2.45753
2.45119
2.4446
2.43821
2.43176
2.42519
2.41897
2.41246
2.40604
2.39961
2.3933
2.38692
2.38044
2.37407
2.36775
2.36109
2.35483
2.34831
2.34187
2.3354
2.32915
2.32264
2.31614
2.30974
2.3034
2.29691
2.29043
2.28407
2.2776
2.27102
2.26456
2.25818
2.25185
2.24513
2.23869
2.23224
2.22569
2.2192
2.21265
2.20623
2.19975
2.19317
2.18671
2.17999
2.17363
2.16709
2.16061
2.15407
2.14726
2.14084
2.13431
2.12767
2.1212
2.11475
2.10814
2.1015
2.09493
2.08839
2.08171
2.07508
2.06865
2.06196
2.05527
2.0487
2.04227
2.03564
2.02903
2.0223
2.01597
2.0093
2.0027
1.99619
1.98944
1.98302
1.97658
1.96989
1.96333
1.9567
1.9502
1.94375
1.93717
1.93078
1.92432
1.9178
1.91139
1.90484
1.89834
1.89198
1.88562
1.8793
1.87301
1.86648
1.8603
1.85378
1.8475
1.84149
1.83506
2.6338
2.61895
2.60951
2.59999
2.59117
2.58278
2.57454
2.56674
2.55919
2.55174
2.54446
2.53748
2.53036
2.52354
2.51682
2.51004
2.50344
2.4966
2.49016
2.48361
2.47706
2.4706
2.46421
2.45755
2.4512
2.4446
2.43822
2.43176
2.4252
2.41897
2.41247
2.40603
2.39961
2.3933
2.38691
2.38044
2.37409
2.36775
2.3611
2.35483
2.3483
2.34187
2.33538
2.32914
2.32264
2.31614
2.30974
2.3034
2.29691
2.29043
2.28407
2.27759
2.27102
2.26456
2.25819
2.25185
2.24513
2.23868
2.23224
2.22569
2.2192
2.21264
2.20622
2.19975
2.19317
2.18671
2.17999
2.17363
2.16708
2.16062
2.15407
2.14728
2.14084
2.13431
2.12767
2.1212
2.11476
2.10815
2.10151
2.09493
2.08839
2.08171
2.07507
2.06865
2.06196
2.05527
2.0487
2.04227
2.03564
2.02902
2.0223
2.01597
2.00931
2.00271
1.99619
1.98944
1.98302
1.97659
1.96989
1.96334
1.95669
1.9502
1.94376
1.93718
1.93078
1.92432
1.91781
1.91138
1.90483
1.89834
1.89198
1.88562
1.87929
1.87304
1.86648
1.8603
1.85378
1.8475
1.8415
1.83506
2.63384
2.61887
2.60933
2.60002
2.59119
2.58259
2.57452
2.56689
2.55919
2.55168
2.54459
2.5374
2.53044
2.52366
2.51674
2.50997
2.50333
2.49674
2.49023
2.4835
2.47694
2.47035
2.46399
2.45758
2.45109
2.44465
2.43816
2.43171
2.42537
2.41887
2.41261
2.40601
2.39975
2.3933
2.38682
2.38039
2.37396
2.36766
2.36118
2.35467
2.34843
2.34199
2.33542
2.32899
2.32253
2.31627
2.30989
2.30328
2.29698
2.29036
2.28399
2.27765
2.2712
2.26462
2.25824
2.25174
2.24521
2.23863
2.23216
2.22563
2.2192
2.21267
2.20629
2.19987
2.19327
2.18666
2.18028
2.1736
2.16711
2.16066
2.15404
2.14748
2.14087
2.13432
2.12781
2.12123
2.11459
2.10817
2.10142
2.09498
2.08826
2.08175
2.07511
2.06862
2.06195
2.05543
2.04874
2.0423
2.03569
2.02902
2.02232
2.01586
2.00931
2.00276
1.99613
1.98951
1.98293
1.97659
1.96993
1.96331
1.95667
1.95021
1.94375
1.93717
1.93075
1.92431
1.9178
1.9114
1.90484
1.89834
1.89198
1.88562
1.87928
1.87302
1.86649
1.86032
1.85378
1.84751
1.84148
1.83506
2.63391
2.61893
2.60941
2.60007
2.59123
2.58278
2.57453
2.5667
2.55915
2.55171
2.54453
2.53743
2.53038
2.52357
2.51668
2.50999
2.5034
2.49677
2.49014
2.4836
2.4771
2.4706
2.464
2.45761
2.45118
2.44463
2.43814
2.43176
2.42528
2.41905
2.41241
2.40606
2.39974
2.39318
2.3868
2.38039
2.37406
2.36748
2.3613
2.35485
2.34839
2.34191
2.33537
2.32895
2.32258
2.31626
2.30979
2.30324
2.29684
2.29036
2.28399
2.27757
2.27106
2.26467
2.25822
2.25176
2.24518
2.23893
2.23224
2.22571
2.21926
2.2127
2.20619
2.1998
2.1932
2.18668
2.18006
2.17359
2.16708
2.16066
2.1541
2.1475
2.14091
2.13423
2.12792
2.12132
2.11458
2.10816
2.1015
2.09486
2.08842
2.08176
2.07511
2.06873
2.06193
2.05538
2.04886
2.04219
2.03559
2.02905
2.02236
2.01604
2.00934
2.00275
1.9962
1.9895
1.98294
1.97655
1.9699
1.9633
1.95669
1.95016
1.94374
1.93716
1.93074
1.92431
1.91781
1.9114
1.90487
1.89834
1.89198
1.88567
1.8793
1.87301
1.86648
1.86032
1.85377
1.84752
1.84146
1.83507
2.63386
2.61906
2.60936
2.6002
2.59126
2.58264
2.57454
2.56693
2.55914
2.55168
2.54452
2.53758
2.53044
2.52357
2.5168
2.51008
2.5033
2.49686
2.49021
2.48351
2.47691
2.47052
2.4641
2.45753
2.4511
2.44453
2.43817
2.43168
2.42533
2.41906
2.41256
2.40603
2.39967
2.39314
2.38694
2.38039
2.37399
2.36758
2.36128
2.35483
2.3484
2.34195
2.33541
2.3289
2.32257
2.31627
2.31001
2.30338
2.29691
2.29054
2.28407
2.27764
2.27107
2.26468
2.25819
2.25166
2.24521
2.23879
2.23219
2.22561
2.21932
2.21267
2.2063
2.19962
2.19323
2.18676
2.18006
2.17363
2.16702
2.16055
2.15401
2.1474
2.14097
2.13438
2.12779
2.12132
2.11471
2.1081
2.10156
2.09492
2.0884
2.08183
2.07512
2.06874
2.0619
2.05536
2.04895
2.04218
2.03569
2.02901
2.02241
2.01597
2.00935
2.00282
1.99619
1.98953
1.98298
1.97657
1.96987
1.96336
1.95674
1.9502
1.94371
1.93713
1.93079
1.92431
1.91779
1.91138
1.9048
1.89835
1.89198
1.88563
1.87931
1.87299
1.86646
1.86029
1.85377
1.84751
1.84142
1.83507
2.63405
2.61898
2.60952
2.60011
2.59113
2.58272
2.57464
2.56671
2.55915
2.55191
2.54457
2.53744
2.53061
2.52366
2.51685
2.51023
2.50342
2.49675
2.49014
2.48353
2.47689
2.47043
2.46418
2.45752
2.45112
2.44476
2.43812
2.43167
2.4254
2.41891
2.41255
2.40617
2.39963
2.39329
2.38687
2.38025
2.374
2.36752
2.36124
2.35481
2.34817
2.342
2.3354
2.3291
2.32267
2.31631
2.3098
2.30345
2.29718
2.2905
2.2839
2.2776
2.27104
2.26466
2.25819
2.25156
2.24504
2.23863
2.23215
2.22576
2.21916
2.21276
2.20629
2.19974
2.19327
2.18673
2.18015
2.17376
2.16705
2.16048
2.15403
2.14746
2.14088
2.13427
2.12772
2.12124
2.11474
2.108
2.10153
2.09481
2.08839
2.08191
2.07513
2.06863
2.06183
2.05534
2.04896
2.04227
2.03563
2.02895
2.02233
2.01604
2.0092
2.00281
1.99615
1.98955
1.98291
1.97658
1.96996
1.96334
1.9568
1.95025
1.94369
1.93714
1.93077
1.92425
1.91776
1.91139
1.90479
1.89836
1.89196
1.88564
1.87932
1.873
1.8665
1.86029
1.85379
1.84753
1.84143
1.83507
2.6339
2.61887
2.60953
2.60026
2.59132
2.58293
2.57473
2.56672
2.55936
2.55182
2.54458
2.53761
2.5306
2.52367
2.51678
2.51006
2.50341
2.49685
2.49019
2.48365
2.47712
2.47055
2.46407
2.45784
2.45101
2.44467
2.43821
2.43173
2.42527
2.41882
2.41248
2.40606
2.39977
2.39322
2.38681
2.38031
2.37406
2.36747
2.36122
2.35471
2.34838
2.342
2.3356
2.329
2.32271
2.31611
2.30983
2.30328
2.29678
2.29062
2.28397
2.27762
2.27106
2.26472
2.25827
2.25174
2.24526
2.23874
2.23221
2.22566
2.21917
2.21273
2.20626
2.19982
2.19334
2.18671
2.18023
2.17368
2.16702
2.16048
2.15416
2.14747
2.1409
2.13435
2.12765
2.12124
2.11477
2.10825
2.10145
2.09499
2.08843
2.08197
2.07507
2.06862
2.0618
2.05528
2.04886
2.04215
2.03566
2.02892
2.02236
2.01597
2.00921
2.00279
1.99606
1.98955
1.98285
1.97649
1.96993
1.96333
1.95677
1.95016
1.94372
1.93713
1.93077
1.92427
1.91779
1.91138
1.90481
1.89838
1.892
1.88562
1.87933
1.87299
1.86653
1.86031
1.85377
1.84755
1.84139
1.83516
2.63412
2.61912
2.60944
2.60028
2.5913
2.58281
2.57478
2.56673
2.55924
2.55201
2.54476
2.53761
2.53046
2.52352
2.51685
2.51012
2.50349
2.49665
2.49022
2.48366
2.47701
2.47063
2.46388
2.45757
2.45105
2.44469
2.4383
2.4318
2.42519
2.41892
2.41252
2.40608
2.39957
2.39323
2.3869
2.38043
2.37393
2.36758
2.36127
2.35468
2.34835
2.34187
2.33548
2.32909
2.32257
2.31623
2.30973
2.30332
2.29684
2.29049
2.2841
2.27745
2.27107
2.26465
2.25811
2.25184
2.24514
2.23872
2.23229
2.22571
2.21932
2.21285
2.20622
2.19978
2.19311
2.18664
2.18009
2.17357
2.16716
2.16055
2.15401
2.14749
2.14086
2.13437
2.12782
2.12127
2.11473
2.1082
2.10148
2.09488
2.08838
2.08189
2.07514
2.06858
2.06188
2.05542
2.04885
2.04222
2.03566
2.02893
2.02232
2.016
2.0093
2.00277
1.99609
1.9896
1.98293
1.97651
1.96996
1.96335
1.95677
1.9502
1.94371
1.93717
1.93075
1.92428
1.91779
1.91136
1.90483
1.89837
1.89198
1.88561
1.87931
1.873
1.86653
1.8603
1.8538
1.84758
1.84139
1.83514
2.63414
2.61914
2.60954
2.60024
2.5915
2.58292
2.5749
2.56678
2.55933
2.55187
2.54452
2.53768
2.53045
2.52354
2.51678
2.50998
2.50348
2.49673
2.49017
2.48364
2.47704
2.47056
2.46388
2.45757
2.45107
2.44453
2.43819
2.43166
2.42523
2.41899
2.41241
2.40593
2.39972
2.39319
2.38684
2.38033
2.37405
2.36751
2.36103
2.3548
2.34838
2.3419
2.33546
2.32905
2.32263
2.31618
2.30979
2.30338
2.29695
2.29039
2.28396
2.27752
2.27096
2.26452
2.2582
2.25162
2.24532
2.2388
2.23231
2.22569
2.21929
2.21281
2.20628
2.19972
2.19316
2.18672
2.18013
2.1736
2.16709
2.1606
2.15401
2.14753
2.14079
2.13432
2.12772
2.12121
2.11476
2.10799
2.10143
2.09477
2.08846
2.08177
2.07508
2.06856
2.06186
2.05542
2.04893
2.04221
2.03564
2.02893
2.02243
2.01592
2.00931
2.00277
1.99614
1.9896
1.98297
1.97654
1.96991
1.96335
1.95678
1.95021
1.9437
1.93722
1.93074
1.92429
1.9178
1.91134
1.90485
1.89838
1.89201
1.88558
1.8793
1.87302
1.86656
1.8603
1.85378
1.84761
1.8414
1.83514
2.6341
2.61917
2.60973
2.60046
2.59144
2.58299
2.57493
2.56712
2.55947
2.55208
2.54483
2.53767
2.53063
2.52368
2.51687
2.51006
2.50344
2.49682
2.49014
2.48361
2.47709
2.47052
2.4641
2.45749
2.45103
2.44463
2.43807
2.43182
2.42521
2.41902
2.41256
2.40621
2.39974
2.39333
2.3868
2.38031
2.37398
2.36774
2.36104
2.35476
2.34835
2.34193
2.33555
2.32912
2.32264
2.31618
2.30983
2.30343
2.29686
2.29049
2.28398
2.27771
2.27103
2.26457
2.25816
2.25187
2.24525
2.23862
2.23216
2.22583
2.2194
2.21284
2.20627
2.19986
2.19336
2.18683
2.1802
2.17361
2.16701
2.16048
2.15416
2.14742
2.14071
2.13449
2.12782
2.12122
2.11477
2.10809
2.10152
2.09484
2.08836
2.08189
2.07505
2.06864
2.06194
2.05537
2.0489
2.04224
2.03568
2.02888
2.02242
2.0159
2.00934
2.00273
1.99612
1.98957
1.98295
1.97656
1.96987
1.96334
1.95677
1.95027
1.9437
1.93724
1.93073
1.92428
1.91778
1.91136
1.90483
1.89841
1.89203
1.8856
1.87931
1.87301
1.86654
1.8603
1.85379
1.8476
1.8414
1.83516
2.63385
2.61918
2.60994
2.60042
2.59152
2.58294
2.57491
2.56699
2.55931
2.55189
2.54472
2.53749
2.53041
2.52381
2.5167
2.51003
2.50342
2.49668
2.49021
2.48365
2.47707
2.47057
2.46408
2.45759
2.45113
2.44468
2.43818
2.43163
2.42527
2.4189
2.41245
2.4059
2.39977
2.39309
2.38673
2.38034
2.37398
2.36754
2.36127
2.35487
2.34832
2.342
2.33558
2.32909
2.32264
2.31608
2.3097
2.30334
2.29688
2.29053
2.28392
2.27773
2.27111
2.26456
2.25813
2.25166
2.24516
2.23863
2.23229
2.22572
2.21918
2.21281
2.20616
2.19958
2.1933
2.18659
2.18017
2.17366
2.16713
2.16056
2.15406
2.14746
2.14099
2.13436
2.12776
2.12115
2.11477
2.10812
2.10149
2.09486
2.08846
2.08189
2.07507
2.06857
2.0619
2.05542
2.04887
2.04228
2.03573
2.02882
2.02249
2.01593
2.00924
2.0027
1.99614
1.98957
1.98294
1.97654
1.96986
1.96333
1.95678
1.95028
1.94371
1.93724
1.93073
1.92426
1.91778
1.91136
1.90482
1.8984
1.89202
1.88559
1.87931
1.873
1.86654
1.86029
1.8538
1.84762
1.84136
1.83513
)
;

boundaryField
{
    upperWall
    {
        type            calculated;
        value           nonuniform List<scalar> 
120
(
2.63385
2.61918
2.60994
2.60042
2.59152
2.58294
2.57491
2.56699
2.55931
2.55189
2.54472
2.53749
2.53041
2.52381
2.5167
2.51003
2.50342
2.49668
2.49021
2.48365
2.47707
2.47057
2.46408
2.45759
2.45113
2.44468
2.43818
2.43163
2.42527
2.4189
2.41245
2.4059
2.39977
2.39309
2.38673
2.38034
2.37398
2.36754
2.36127
2.35487
2.34832
2.342
2.33558
2.32909
2.32264
2.31608
2.3097
2.30334
2.29688
2.29053
2.28392
2.27773
2.27111
2.26456
2.25813
2.25166
2.24516
2.23863
2.23229
2.22572
2.21918
2.21281
2.20616
2.19958
2.1933
2.18659
2.18017
2.17366
2.16713
2.16056
2.15406
2.14746
2.14099
2.13436
2.12776
2.12115
2.11477
2.10812
2.10149
2.09486
2.08846
2.08189
2.07507
2.06857
2.0619
2.05542
2.04887
2.04228
2.03573
2.02882
2.02249
2.01593
2.00924
2.0027
1.99614
1.98957
1.98294
1.97654
1.96986
1.96333
1.95678
1.95028
1.94371
1.93724
1.93073
1.92426
1.91778
1.91136
1.90482
1.8984
1.89202
1.88559
1.87931
1.873
1.86654
1.86029
1.8538
1.84762
1.84136
1.83513
)
;
    }
    lowerWall
    {
        type            calculated;
        value           nonuniform List<scalar> 
120
(
2.63383
2.6192
2.60992
2.60041
2.59153
2.58292
2.57489
2.56699
2.5593
2.5519
2.54472
2.53751
2.53041
2.52382
2.51669
2.51003
2.5034
2.49668
2.49019
2.48364
2.47707
2.47054
2.46407
2.45758
2.45113
2.44468
2.43818
2.43162
2.42527
2.4189
2.41245
2.4059
2.39979
2.39308
2.38674
2.38035
2.37398
2.36754
2.36125
2.35486
2.34835
2.34198
2.33558
2.32907
2.32263
2.31609
2.3097
2.30335
2.29686
2.29053
2.2839
2.27769
2.27111
2.26456
2.25813
2.25168
2.24515
2.23865
2.23229
2.22571
2.21916
2.21285
2.20618
2.1996
2.1933
2.1866
2.18019
2.17366
2.16715
2.16057
2.15405
2.14746
2.14099
2.13437
2.12776
2.12117
2.11476
2.10814
2.10149
2.09485
2.08847
2.0819
2.07507
2.06856
2.06191
2.05539
2.04887
2.04228
2.03573
2.02883
2.02249
2.01593
2.00923
2.0027
1.99615
1.98955
1.98297
1.97652
1.96985
1.96331
1.95679
1.95027
1.94373
1.93723
1.93075
1.92425
1.91776
1.91136
1.90481
1.89838
1.89202
1.88559
1.87931
1.87301
1.86653
1.8603
1.85378
1.84761
1.84138
1.83512
)
;
    }
    inlet
    {
        type            calculated;
        value           nonuniform List<scalar> 
20
(
2.63383
2.63411
2.63413
2.63413
2.63388
2.63405
2.63386
2.63392
2.63387
2.63381
2.6338
2.63384
2.63391
2.63386
2.63405
2.6339
2.63412
2.63414
2.6341
2.63385
)
;
    }
    outlet
    {
        type            calculated;
        value           nonuniform List<scalar> 
20
(
1.83194
1.83198
1.832
1.83194
1.83195
1.83197
1.83204
1.83207
1.83203
1.83204
1.83205
1.83204
1.83206
1.83206
1.83197
1.83196
1.83195
1.832
1.83198
1.83193
)
;
    }
    frontAndBack
    {
        type            empty;
    }
}


// ************************************************************************* //
