/*--------------------------------*- C++ -*----------------------------------*\
  =========                 |
  \\      /  F ield         | OpenFOAM: The Open Source CFD Toolbox
   \\    /   O peration     | Website:  https://openfoam.org
    \\  /    A nd           | Version:  7
     \\/     M anipulation  |
\*---------------------------------------------------------------------------*/
FoamFile
{
    version     2.0;
    format      ascii;
    class       volVectorField;
    location    "0.275";
    object      UMean;
}
// * * * * * * * * * * * * * * * * * * * * * * * * * * * * * * * * * * * * * //

dimensions      [0 1 -1 0 0 0 0];

internalField   nonuniform List<vector> 
4950
(
(-2.46543 -6.77307 -219.614)
(3.24369 -8.27717 -226.314)
(0.0526921 -8.58689 -225.689)
(1.74698 -8.43715 -226.187)
(0.777372 -8.54248 -225.94)
(1.39416 -8.47838 -226.076)
(1.05673 -8.51975 -225.987)
(1.29039 -8.49617 -226.03)
(1.1728 -8.51054 -225.997)
(1.27384 -8.50061 -226.012)
(1.23721 -8.50292 -225.999)
(1.30266 -8.49814 -226.001)
(1.29628 -8.49301 -225.999)
(1.37653 -8.4902 -225.994)
(1.3791 -8.47711 -226.001)
(1.52341 -8.47495 -225.986)
(1.51995 -8.44522 -226.014)
(1.78623 -8.44323 -225.977)
(1.75665 -8.32989 -226.048)
(1.82366 -8.27405 -226.246)
(-0.889998 4.78174 -235.448)
(6.26755 4.64424 -241.419)
(1.47797 4.62322 -242.899)
(4.20555 4.66806 -243.155)
(2.54965 4.53956 -243.319)
(3.59127 4.59251 -243.319)
(3.00926 4.55555 -243.354)
(3.41644 4.57477 -243.34)
(3.2158 4.56294 -243.341)
(3.39688 4.56893 -243.323)
(3.33559 4.56706 -243.301)
(3.45783 4.56801 -243.273)
(3.44585 4.5725 -243.226)
(3.59944 4.5696 -243.185)
(3.59501 4.5829 -243.099)
(3.87135 4.57174 -243.034)
(3.8358 4.61104 -242.875)
(4.40602 4.57758 -242.758)
(4.25227 4.71052 -242.363)
(5.70654 4.77582 -241.175)
(-1.35237 -1.83698 -234.999)
(7.80874 -2.61779 -242.74)
(2.47199 -3.0934 -243.427)
(5.98604 -3.01375 -244.732)
(4.05597 -3.15063 -244.511)
(5.32034 -3.11856 -244.802)
(4.65453 -3.15833 -244.686)
(5.14363 -3.14466 -244.762)
(4.92034 -3.15564 -244.707)
(5.14296 -3.14968 -244.72)
(5.07822 -3.15 -244.68)
(5.23869 -3.14727 -244.661)
(5.22837 -3.14084 -244.616)
(5.44209 -3.1404 -244.574)
(5.43399 -3.12469 -244.515)
(5.83027 -3.12901 -244.438)
(5.76005 -3.09315 -244.368)
(6.60141 -3.10612 -244.178)
(6.30431 -3.05906 -244.128)
(8.2468 -3.0059 -241.984)
(-0.924671 1.17091 -236.126)
(8.22376 1.21939 -241.218)
(3.49383 1.20528 -242.738)
(6.70689 1.17042 -243.068)
(5.08613 1.11866 -243.466)
(6.23157 1.11321 -243.505)
(5.65352 1.10305 -243.608)
(6.08866 1.10311 -243.597)
(5.88832 1.10148 -243.614)
(6.08584 1.1018 -243.593)
(6.02565 1.10228 -243.562)
(6.17066 1.10206 -243.525)
(6.15942 1.10417 -243.445)
(6.35453 1.10291 -243.392)
(6.34461 1.10767 -243.243)
(6.70251 1.10343 -243.167)
(6.63567 1.11647 -242.908)
(7.37036 1.10511 -242.725)
(7.13365 1.1217 -242.383)
(8.54509 1.17552 -239.853)
(-1.36738 9.06715e-08 -235.027)
(8.07869 4.41645e-07 -241.247)
(3.27222 8.69002e-07 -242.225)
(6.94903 4.69046e-06 -243.216)
(5.22818 9.92874e-06 -243.358)
(6.49154 1.12485e-05 -243.692)
(5.88019 -3.66436e-05 -243.656)
(6.35265 -3.075e-05 -243.734)
(6.14399 3.20391e-05 -243.699)
(6.35947 -5.57415e-05 -243.709)
(6.29864 -4.50288e-05 -243.669)
(6.45943 -4.40626e-06 -243.648)
(6.44958 -4.06413e-05 -243.585)
(6.67029 -4.18413e-06 -243.542)
(6.65946 1.88277e-05 -243.444)
(7.07371 -0.000126464 -243.377)
(6.98939 0.000227448 -243.211)
(7.87212 -0.000414988 -243.036)
(7.53935 0.00136506 -242.712)
(9.39452 0.000192023 -239.826)
(-0.924672 -1.17091 -236.126)
(8.22376 -1.21939 -241.218)
(3.49383 -1.20528 -242.738)
(6.7069 -1.17042 -243.068)
(5.08613 -1.11866 -243.466)
(6.23155 -1.11322 -243.506)
(5.6535 -1.10299 -243.608)
(6.08868 -1.10305 -243.597)
(5.88831 -1.10146 -243.614)
(6.08582 -1.10165 -243.592)
(6.02569 -1.10223 -243.562)
(6.17066 -1.10209 -243.525)
(6.15943 -1.1041 -243.445)
(6.35455 -1.10298 -243.392)
(6.34457 -1.10765 -243.243)
(6.70252 -1.10346 -243.167)
(6.63556 -1.11603 -242.909)
(7.37073 -1.10588 -242.721)
(7.13315 -1.11943 -242.394)
(8.54588 -1.17595 -239.829)
(-1.35238 1.83698 -234.999)
(7.80873 2.61779 -242.74)
(2.47199 3.0934 -243.427)
(5.98603 3.01376 -244.732)
(4.05596 3.15065 -244.511)
(5.32035 3.11858 -244.802)
(4.65456 3.15828 -244.685)
(5.14361 3.1446 -244.762)
(4.92037 3.15567 -244.707)
(5.14299 3.14957 -244.719)
(5.07818 3.14992 -244.679)
(5.23871 3.14728 -244.661)
(5.22836 3.14081 -244.616)
(5.44206 3.14039 -244.574)
(5.43399 3.12471 -244.515)
(5.83041 3.12882 -244.437)
(5.75965 3.09338 -244.369)
(6.60259 3.10545 -244.173)
(6.30306 3.06164 -244.146)
(8.25014 3.0057 -241.927)
(-0.889999 -4.78174 -235.448)
(6.26755 -4.64424 -241.419)
(1.47797 -4.62323 -242.899)
(4.20555 -4.66807 -243.155)
(2.54964 -4.53957 -243.319)
(3.59127 -4.59251 -243.319)
(3.00927 -4.55562 -243.354)
(3.41641 -4.57474 -243.34)
(3.21577 -4.56278 -243.341)
(3.39695 -4.56884 -243.323)
(3.33565 -4.56707 -243.301)
(3.45784 -4.56804 -243.273)
(3.44584 -4.57254 -243.226)
(3.5994 -4.56958 -243.185)
(3.59498 -4.58289 -243.099)
(3.87139 -4.57168 -243.034)
(3.83557 -4.61086 -242.876)
(4.40673 -4.57781 -242.755)
(4.25073 -4.70922 -242.375)
(5.71545 -4.77635 -241.117)
(-2.46543 6.77307 -219.614)
(3.24369 8.27717 -226.314)
(0.0526868 8.5869 -225.689)
(1.74697 8.43718 -226.187)
(0.777365 8.54252 -225.94)
(1.39417 8.4784 -226.076)
(1.05674 8.51982 -225.987)
(1.29037 8.49611 -226.031)
(1.17283 8.51036 -225.997)
(1.27392 8.50046 -226.012)
(1.23722 8.5029 -225.999)
(1.30264 8.49818 -226.001)
(1.29629 8.49307 -225.999)
(1.37653 8.49014 -225.994)
(1.37909 8.47709 -226.001)
(1.52343 8.47482 -225.986)
(1.5199 8.44512 -226.014)
(1.78665 8.44294 -225.976)
(1.75558 8.32996 -226.05)
(1.82841 8.27286 -226.261)
(9.69593 9.65514 0.647498)
(1.62952 11.4451 0.221033)
(2.80762 11.1498 0.508871)
(1.09812 10.8943 0.322065)
(1.74956 10.8994 0.444434)
(1.31102 10.8863 0.363181)
(1.5005 10.8896 0.413577)
(1.34612 10.8902 0.378677)
(1.40403 10.8908 0.397259)
(1.33278 10.8918 0.381575)
(1.35078 10.8912 0.38539)
(1.29876 10.8916 0.377235)
(1.30232 10.888 0.372519)
(1.23739 10.8885 0.367143)
(1.23845 10.8781 0.354981)
(1.1151 10.8793 0.350907)
(1.1378 10.8507 0.329472)
(0.852424 10.8532 0.327032)
(0.973494 10.5579 0.296107)
(1.9829 10.6117 0.292316)
(11.1188 -3.99115 0.00441611)
(2.41555 -5.16943 -0.432565)
(6.03952 -5.25646 -0.154122)
(3.18709 -5.7869 -0.344044)
(4.13708 -5.74073 -0.221168)
(3.31557 -5.77058 -0.302897)
(3.58855 -5.73552 -0.252396)
(3.30671 -5.73816 -0.287226)
(3.38311 -5.72807 -0.268649)
(3.25117 -5.72774 -0.284176)
(3.26821 -5.7263 -0.280334)
(3.167 -5.72564 -0.288331)
(3.16405 -5.73161 -0.292982)
(3.02298 -5.73106 -0.298156)
(3.01902 -5.75053 -0.310293)
(2.72997 -5.74895 -0.314023)
(2.76405 -5.80444 -0.33585)
(2.06645 -5.79188 -0.337654)
(2.29482 -6.38975 -0.374223)
(0.201671 -6.26352 -0.375026)
(10.9681 3.42448 0.323883)
(3.78342 4.83595 -0.101047)
(7.41572 4.64009 0.183738)
(5.12685 4.33552 -0.00973152)
(5.80633 4.20622 0.116691)
(5.10785 4.18165 0.0323369)
(5.28722 4.15268 0.0842399)
(5.04013 4.1588 0.0482158)
(5.08337 4.15337 0.067284)
(4.96053 4.15786 0.0511954)
(4.9636 4.15643 0.0550955)
(4.86546 4.1588 0.0468007)
(4.85472 4.15678 0.0419635)
(4.71826 4.15833 0.0365692)
(4.7063 4.15212 0.0241521)
(4.42975 4.15276 0.0201722)
(4.44547 4.1329 -0.00178313)
(3.78759 4.12057 -0.00375758)
(3.95544 4.07348 -0.0394983)
(1.513 4.13192 -0.0382196)
(10.5201 -0.851932 0.0780222)
(2.87572 -1.02219 -0.370974)
(7.87373 -0.98314 -0.0976698)
(5.76612 -1.30442 -0.286569)
(6.80565 -1.35355 -0.16495)
(6.12075 -1.38799 -0.245316)
(6.32133 -1.38844 -0.195751)
(6.04887 -1.38824 -0.229781)
(6.07893 -1.38596 -0.211664)
(5.93645 -1.38428 -0.226799)
(5.92778 -1.38398 -0.22308)
(5.81096 -1.38288 -0.230881)
(5.79286 -1.38572 -0.23545)
(5.62586 -1.38503 -0.24051)
(5.61246 -1.39435 -0.25239)
(5.26426 -1.39372 -0.25609)
(5.28829 -1.42489 -0.277439)
(4.42208 -1.42381 -0.279418)
(4.57653 -1.64517 -0.314893)
(2.39351 -1.59057 -0.3128)
(10.738 -1.50967e-06 0.283953)
(3.51259 3.87135e-07 -0.132087)
(8.02824 1.81161e-07 0.152714)
(6.29505 -4.96102e-06 -0.0400853)
(7.11527 -1.32715e-05 0.0864345)
(6.50902 -7.71402e-06 0.00251686)
(6.65245 -4.53318e-06 0.054107)
(6.40762 1.57853e-05 0.0184165)
(6.42371 3.48855e-06 0.0372645)
(6.29515 -1.56312e-05 0.0213751)
(6.28287 1.2142e-05 0.02519)
(6.17851 9.74153e-06 0.0169857)
(6.15877 -5.62325e-05 0.0121618)
(6.01297 -3.18092e-06 0.00682595)
(5.99576 -3.02332e-05 -0.0055251)
(5.69693 -6.81563e-05 -0.0094136)
(5.71176 -0.000339297 -0.0313272)
(4.95156 -0.000103826 -0.0332082)
(5.10908 -0.00270985 -0.0700238)
(2.34587 -0.00025059 -0.0670245)
(10.5201 0.851933 0.0780225)
(2.87572 1.02219 -0.370973)
(7.87373 0.983147 -0.0976693)
(5.76611 1.30443 -0.286569)
(6.80565 1.35356 -0.16495)
(6.12075 1.388 -0.245315)
(6.32134 1.38847 -0.195749)
(6.04887 1.38827 -0.22978)
(6.07892 1.38599 -0.211663)
(5.93646 1.38425 -0.226797)
(5.92779 1.38388 -0.223079)
(5.81094 1.38286 -0.230882)
(5.79286 1.38573 -0.235449)
(5.62586 1.38488 -0.24051)
(5.61239 1.39426 -0.252389)
(5.26411 1.39349 -0.256087)
(5.28806 1.42416 -0.277436)
(4.42106 1.42357 -0.279415)
(4.57578 1.6402 -0.31492)
(2.38706 1.59168 -0.312767)
(10.9681 -3.42447 0.323884)
(3.78342 -4.83594 -0.101047)
(7.41572 -4.64009 0.183739)
(5.12686 -4.33554 -0.00973082)
(5.80634 -4.20626 0.116691)
(5.10786 -4.18167 0.0323371)
(5.28722 -4.15269 0.0842504)
(5.04012 -4.15875 0.0482202)
(5.08338 -4.15337 0.0672774)
(4.96053 -4.15789 0.0512063)
(4.9636 -4.15636 0.0551029)
(4.86552 -4.15878 0.0468006)
(4.8547 -4.15693 0.0419734)
(4.71819 -4.15829 0.0365647)
(4.7062 -4.15213 0.0241512)
(4.42959 -4.1528 0.0201847)
(4.44504 -4.13334 -0.0017856)
(3.78677 -4.12057 -0.00375804)
(3.95483 -4.07778 -0.0395393)
(1.4996 -4.13199 -0.0381397)
(11.1188 3.99115 0.00441626)
(2.41555 5.16943 -0.432565)
(6.03952 5.25647 -0.154122)
(3.18708 5.78691 -0.344043)
(4.13709 5.74076 -0.221167)
(3.31557 5.77059 -0.302897)
(3.58857 5.73559 -0.252402)
(3.30672 5.73819 -0.287224)
(3.38311 5.72807 -0.268635)
(3.25129 5.72774 -0.284172)
(3.26825 5.72614 -0.280336)
(3.16691 5.72563 -0.288331)
(3.16409 5.73174 -0.292982)
(3.02297 5.73087 -0.298155)
(3.01887 5.75045 -0.310294)
(2.72958 5.7488 -0.314018)
(2.76362 5.80398 -0.335844)
(2.06378 5.79171 -0.337647)
(2.29363 6.39003 -0.37429)
(0.179562 6.26615 -0.374954)
(9.69593 -9.65514 0.647498)
(1.62952 -11.4451 0.221033)
(2.80763 -11.1498 0.508872)
(1.09815 -10.8943 0.322068)
(1.74957 -10.8995 0.444438)
(1.31099 -10.8863 0.363185)
(1.50046 -10.8896 0.413578)
(1.34616 -10.8901 0.378675)
(1.40418 -10.8908 0.397259)
(1.33283 -10.8918 0.381572)
(1.35071 -10.891 0.385389)
(1.29887 -10.8916 0.377237)
(1.30232 -10.8882 0.372522)
(1.23719 -10.8883 0.36714)
(1.23838 -10.878 0.354979)
(1.11495 -10.8791 0.350903)
(1.13749 -10.8506 0.32947)
(0.851532 -10.8529 0.327027)
(0.973243 -10.5562 0.29609)
(1.98666 -10.608 0.292385)
(2.71101 -0.780609 2.87869e-07)
(2.3655 -0.733928 1.60137e-06)
(3.16933 -0.652847 5.35999e-07)
(1.50895 -0.988161 9.99122e-06)
(3.00162 -0.917367 1.60903e-06)
(1.9222 -0.984754 -7.46901e-06)
(2.77083 -0.962498 8.0578e-06)
(2.19175 -0.980081 8.40858e-06)
(2.58665 -0.974168 8.91316e-07)
(2.27626 -0.979979 6.03702e-06)
(2.44029 -0.980418 -1.61383e-07)
(2.24063 -0.982834 -7.15727e-06)
(2.29888 -0.988854 3.82208e-06)
(2.14028 -0.989925 5.24411e-06)
(2.15985 -1.00505 9.96493e-07)
(2.05265 -1.00301 -7.58357e-07)
(2.06602 -1.03952 -1.50754e-06)
(2.19419 -1.01434 -2.02079e-06)
(2.02662 -1.19619 4.12998e-07)
(3.93591 -1.16122 -7.69291e-07)
(4.68097 0.0641899 2.93872e-08)
(3.25048 -0.442138 -1.61265e-06)
(5.66772 -0.421566 -9.54134e-07)
(3.50915 -0.56524 -5.32699e-06)
(5.03823 -0.620745 2.1788e-06)
(3.86692 -0.600999 -5.32164e-07)
(4.64936 -0.631033 -6.02006e-06)
(4.07686 -0.610298 3.26416e-06)
(4.4254 -0.629128 3.65607e-06)
(4.11627 -0.617876 -1.19568e-06)
(4.25139 -0.626453 9.38551e-07)
(4.03328 -0.621123 3.4233e-06)
(4.07161 -0.623846 -2.03393e-07)
(3.86207 -0.623215 5.64114e-06)
(3.86387 -0.621309 2.53777e-06)
(3.63523 -0.626332 2.33328e-06)
(3.64001 -0.624436 -2.1667e-07)
(3.44389 -0.601273 -5.85189e-06)
(3.50896 -0.834526 -2.78577e-06)
(3.37943 -0.759979 4.05545e-07)
(4.28879 -0.0673946 -1.27113e-08)
(4.02778 0.4212 1.02822e-06)
(6.24514 0.472556 -1.19198e-07)
(4.65431 0.187308 1.91273e-06)
(6.10442 0.140407 -4.97375e-07)
(5.10939 0.0680717 9.52825e-08)
(5.87381 0.0415589 -2.36156e-11)
(5.36208 0.030937 -2.28558e-06)
(5.70205 0.0203236 8.43064e-07)
(5.41218 0.0206868 2.11177e-06)
(5.53833 0.0152634 5.07325e-07)
(5.32605 0.0162011 -1.57301e-06)
(5.35166 0.0105139 -1.01958e-06)
(5.15492 0.0100491 -3.18745e-06)
(5.13303 0.00113815 -2.59723e-06)
(4.9639 -0.00209362 -2.84833e-06)
(4.90556 -0.0199043 -2.53524e-06)
(4.9321 -0.024685 8.76623e-07)
(4.80881 -0.101188 1.98901e-06)
(5.36189 -0.0627866 -5.49262e-08)
(3.9713 -0.0973349 9.9529e-08)
(3.13305 -0.261449 -1.02549e-06)
(6.39821 -0.166976 -4.828e-07)
(5.02647 -0.259265 -2.11535e-06)
(6.72738 -0.294975 6.0602e-07)
(5.88519 -0.304667 -4.78998e-07)
(6.60284 -0.327279 -1.81907e-06)
(6.14455 -0.320908 1.65188e-06)
(6.42778 -0.330603 1.52016e-07)
(6.15582 -0.32554 -4.05714e-07)
(6.25007 -0.329069 1.04038e-06)
(6.04108 -0.326433 1.00762e-06)
(6.05321 -0.327328 9.7283e-07)
(5.83981 -0.326647 2.5858e-06)
(5.81841 -0.326237 1.43032e-06)
(5.57607 -0.326211 6.13719e-07)
(5.54047 -0.332491 1.86979e-06)
(5.31803 -0.316533 1.29581e-06)
(5.25607 -0.443538 6.45398e-07)
(5.20947 -0.410359 1.07434e-06)
(4.30322 4.97625e-06 1.28303e-07)
(3.85678 7.04013e-07 4.11327e-07)
(6.44825 -2.04264e-06 6.08655e-08)
(5.30565 7.91316e-06 6.90776e-07)
(6.87007 -3.6996e-06 -9.0486e-09)
(6.07855 -1.66824e-05 8.71303e-07)
(6.79941 5.82824e-06 -6.11596e-07)
(6.35704 8.82641e-06 -1.24174e-06)
(6.65413 4.5233e-06 4.4654e-07)
(6.38962 -2.06218e-05 -5.32784e-07)
(6.49042 -3.45351e-05 4.59063e-07)
(6.28925 -7.87759e-06 1.93967e-07)
(6.29963 -1.23247e-05 -9.23683e-07)
(6.10889 -3.34794e-05 -7.47665e-07)
(6.07474 -6.06389e-05 -3.34909e-07)
(5.90422 2.66587e-05 4.70213e-07)
(5.83724 -0.000360454 -1.15303e-07)
(5.79624 0.000341482 1.76107e-07)
(5.73634 -0.00136772 5.72406e-07)
(5.78196 3.23186e-05 6.90075e-07)
(3.9713 0.097343 -1.32735e-07)
(3.13305 0.261445 -1.13318e-06)
(6.39821 0.166977 -2.39488e-07)
(5.02647 0.259262 -4.3311e-07)
(6.72737 0.294969 8.73854e-07)
(5.88519 0.304681 -1.99888e-07)
(6.60285 0.327283 2.02468e-07)
(6.14455 0.320907 2.3964e-06)
(6.42778 0.330598 1.85118e-07)
(6.15581 0.325479 1.07735e-06)
(6.25008 0.329046 1.49106e-06)
(6.04109 0.326464 3.00585e-07)
(6.05321 0.327318 2.81765e-06)
(5.8398 0.326619 2.00743e-06)
(5.8184 0.326214 2.24468e-06)
(5.57596 0.326186 1.43006e-06)
(5.54047 0.332197 2.04271e-06)
(5.31746 0.316921 7.85829e-07)
(5.25621 0.442642 6.54283e-07)
(5.20771 0.411266 1.19027e-06)
(4.28879 0.0674026 2.69509e-07)
(4.02778 -0.4212 7.75858e-07)
(6.24514 -0.47256 4.9457e-07)
(4.6543 -0.187295 3.15361e-07)
(6.10444 -0.140417 -1.66157e-07)
(5.10939 -0.0681117 1.72888e-06)
(5.8738 -0.041549 -1.59405e-06)
(5.36207 -0.0309176 -2.3119e-06)
(5.70204 -0.0203091 1.51207e-06)
(5.4122 -0.0207323 -1.55349e-06)
(5.53838 -0.0153461 -2.77036e-08)
(5.32606 -0.0162096 1.55403e-06)
(5.35164 -0.0105249 -2.33607e-06)
(5.15493 -0.0101119 -1.4723e-07)
(5.13297 -0.0012236 1.65625e-07)
(4.96389 0.00214753 1.82518e-06)
(4.90547 0.019412 1.31272e-06)
(4.93192 0.0252749 1.45624e-06)
(4.81002 0.0991713 7.61769e-07)
(5.35958 0.0628793 1.03607e-06)
(4.68097 -0.0641799 3.38782e-07)
(3.25048 0.442131 -1.42929e-06)
(5.66772 0.421568 -5.86038e-07)
(3.50914 0.565232 2.63478e-07)
(5.0382 0.620726 8.72498e-07)
(3.86693 0.601024 -1.78491e-06)
(4.64939 0.631045 1.88116e-06)
(4.07687 0.610295 3.82467e-06)
(4.42541 0.629092 -8.79471e-06)
(4.11627 0.617772 -1.77152e-06)
(4.25139 0.626452 2.34971e-06)
(4.0333 0.621184 -3.24535e-06)
(4.07159 0.623827 6.4949e-06)
(3.86202 0.623205 1.62937e-06)
(3.86383 0.621282 2.85498e-06)
(3.63496 0.626357 5.48155e-07)
(3.64005 0.624098 6.09789e-06)
(3.44202 0.601452 6.22024e-06)
(3.51055 0.83437 2.14508e-06)
(3.36903 0.761039 1.71788e-06)
(2.71104 0.780617 -7.69415e-08)
(2.36552 0.733924 1.0184e-06)
(3.16932 0.652842 5.68021e-07)
(1.50894 0.988174 -1.60685e-06)
(3.00168 0.917363 2.79108e-06)
(1.92208 0.984692 -3.16963e-06)
(2.77075 0.962495 -5.24599e-06)
(2.19175 0.980106 4.28925e-06)
(2.58669 0.97422 5.47727e-08)
(2.27635 0.979943 2.20196e-06)
(2.44012 0.980288 1.32044e-06)
(2.24044 0.982847 -2.63797e-06)
(2.29886 0.988883 -9.38616e-07)
(2.14016 0.989855 -2.11247e-07)
(2.15969 1.00505 -2.91475e-06)
(2.05255 1.00303 -6.22843e-07)
(2.06607 1.03973 -4.26556e-06)
(2.19399 1.01428 4.37513e-06)
(2.02716 1.19793 3.83509e-06)
(3.94262 1.16314 4.97974e-07)
(9.69595 9.65511 -0.647498)
(1.62954 11.4452 -0.221037)
(2.80771 11.1499 -0.508873)
(1.09806 10.8947 -0.322078)
(1.74935 10.8993 -0.444432)
(1.31119 10.8862 -0.363178)
(1.5005 10.8899 -0.413588)
(1.34592 10.8901 -0.378678)
(1.40416 10.8907 -0.397261)
(1.33279 10.8921 -0.381584)
(1.35058 10.8912 -0.385388)
(1.29876 10.8913 -0.377226)
(1.30231 10.888 -0.372521)
(1.23727 10.8883 -0.36714)
(1.23847 10.878 -0.35498)
(1.11505 10.8793 -0.350903)
(1.13771 10.8506 -0.329468)
(0.852454 10.8532 -0.327029)
(0.973532 10.5579 -0.296106)
(1.98293 10.6117 -0.292314)
(11.1188 -3.99114 -0.00441587)
(2.41554 -5.16948 0.432566)
(6.03948 -5.25647 0.154123)
(3.18712 -5.78699 0.344045)
(4.13716 -5.7407 0.221167)
(3.31548 -5.77063 0.302898)
(3.58855 -5.7356 0.252402)
(3.30676 -5.73805 0.287224)
(3.38299 -5.72801 0.268638)
(3.25116 -5.72779 0.28418)
(3.26833 -5.72632 0.28034)
(3.16699 -5.72558 0.288334)
(3.16405 -5.73161 0.292991)
(3.02298 -5.73085 0.29815)
(3.01897 -5.75047 0.310291)
(2.72996 -5.74892 0.314031)
(2.76404 -5.80438 0.335843)
(2.06638 -5.79193 0.337652)
(2.29481 -6.38981 0.37423)
(0.201669 -6.2635 0.375028)
(10.9681 3.42447 -0.323883)
(3.78342 4.83598 0.101047)
(7.41572 4.6401 -0.183739)
(5.12686 4.33569 0.00973023)
(5.80633 4.20618 -0.116686)
(5.10785 4.18159 -0.0323333)
(5.28716 4.15283 -0.0842507)
(5.0401 4.15876 -0.0482152)
(5.08339 4.15331 -0.0672829)
(4.96056 4.15797 -0.05121)
(4.96361 4.15644 -0.0550964)
(4.86543 4.15869 -0.0467963)
(4.85468 4.15681 -0.0419713)
(4.71825 4.15823 -0.0365719)
(4.70634 4.15207 -0.0241526)
(4.42975 4.15275 -0.0201766)
(4.44546 4.13284 0.0017819)
(3.7876 4.12049 0.00375774)
(3.95545 4.07346 0.0394985)
(1.51302 4.13189 0.0382201)
(10.5201 -0.851926 -0.0780221)
(2.87571 -1.02221 0.370974)
(7.87371 -0.983147 0.0976702)
(5.76614 -1.30443 0.28657)
(6.80571 -1.35356 0.164951)
(6.1207 -1.38804 0.245316)
(6.32132 -1.38843 0.19575)
(6.04893 -1.3882 0.229781)
(6.07889 -1.38593 0.211664)
(5.93645 -1.38425 0.226797)
(5.92784 -1.38399 0.22308)
(5.81096 -1.38287 0.230881)
(5.79287 -1.38572 0.235449)
(5.62588 -1.38493 0.240509)
(5.61245 -1.39435 0.252389)
(5.26426 -1.39371 0.256088)
(5.2883 -1.42487 0.277435)
(4.42206 -1.42384 0.279417)
(4.57653 -1.6452 0.314896)
(2.39351 -1.59057 0.312799)
(10.738 1.64972e-06 -0.283953)
(3.51259 3.89695e-06 0.132087)
(8.02823 -9.83174e-06 -0.152714)
(6.29505 6.59857e-05 0.0400854)
(7.1153 -1.76533e-05 -0.0864342)
(6.50901 -5.06858e-05 -0.00251639)
(6.65239 7.52917e-05 -0.0541052)
(6.40765 4.10565e-05 -0.0184158)
(6.42373 -3.16621e-05 -0.0372637)
(6.29516 4.93478e-05 -0.0213736)
(6.28291 4.26229e-05 -0.0251897)
(6.17849 -6.06167e-05 -0.0169847)
(6.15875 -4.31738e-06 -0.0121604)
(6.01299 -2.415e-05 -0.00682465)
(5.99579 -3.09024e-05 0.00552583)
(5.69695 -5.56098e-05 0.00941444)
(5.71176 -0.000335228 0.0313278)
(4.95156 -0.000163413 0.0332089)
(5.1091 -0.00275319 0.0700244)
(2.34589 -0.000269489 0.0670252)
(10.5201 0.85194 -0.078022)
(2.87571 1.02219 0.370975)
(7.87373 0.98314 0.0976705)
(5.76613 1.30444 0.28657)
(6.80568 1.35354 0.164951)
(6.12074 1.388 0.245315)
(6.32134 1.38846 0.195749)
(6.04889 1.38823 0.229781)
(6.07891 1.38603 0.211664)
(5.93648 1.38426 0.226797)
(5.92781 1.38387 0.22308)
(5.81096 1.38289 0.230881)
(5.79289 1.38568 0.235448)
(5.62587 1.38493 0.240511)
(5.6124 1.39423 0.252389)
(5.26413 1.3935 0.256087)
(5.28806 1.42416 0.277437)
(4.42103 1.42353 0.279416)
(4.57581 1.64017 0.314922)
(2.38707 1.59168 0.312769)
(10.9681 -3.42446 -0.323883)
(3.78343 -4.83598 0.101047)
(7.41571 -4.64012 -0.183738)
(5.12684 -4.3355 0.00973178)
(5.80638 -4.20624 -0.11669)
(5.10785 -4.18172 -0.032336)
(5.28713 -4.15261 -0.0842482)
(5.04017 -4.15867 -0.0482188)
(5.08343 -4.15343 -0.0672766)
(4.9605 -4.15781 -0.0512048)
(4.96366 -4.15631 -0.0551017)
(4.8655 -4.15886 -0.0468023)
(4.85467 -4.1568 -0.0419748)
(4.71822 -4.15827 -0.0365625)
(4.70622 -4.1521 -0.0241491)
(4.42961 -4.15278 -0.020186)
(4.44505 -4.13329 0.00178421)
(3.7868 -4.12063 0.00375657)
(3.95486 -4.07784 0.0395402)
(1.4996 -4.132 0.0381426)
(11.1188 3.99116 -0.00441571)
(2.41555 5.16946 0.432566)
(6.03953 5.25648 0.154123)
(3.1871 5.7869 0.344044)
(4.13707 5.74072 0.221168)
(3.31559 5.77067 0.302898)
(3.58862 5.73551 0.252402)
(3.30667 5.73803 0.287225)
(3.38311 5.72822 0.268638)
(3.25129 5.72771 0.284179)
(3.26819 5.72611 0.280336)
(3.16696 5.72572 0.288331)
(3.16411 5.73158 0.292988)
(3.02295 5.73087 0.298152)
(3.01888 5.75038 0.310291)
(2.72959 5.74883 0.314025)
(2.76361 5.80395 0.335851)
(2.06376 5.79165 0.337653)
(2.29369 6.39001 0.37429)
(0.179584 6.26615 0.374955)
(9.69596 -9.65511 -0.647498)
(1.62957 -11.4452 -0.221036)
(2.80759 -11.1499 -0.508872)
(1.09811 -10.8943 -0.322065)
(1.74958 -10.8995 -0.444437)
(1.31099 -10.8864 -0.363184)
(1.50037 -10.8894 -0.413571)
(1.34617 -10.89 -0.378672)
(1.40416 -10.891 -0.39726)
(1.33271 -10.8917 -0.381566)
(1.35081 -10.8909 -0.385387)
(1.29883 -10.8918 -0.377237)
(1.30222 -10.888 -0.372513)
(1.23727 -10.8882 -0.367138)
(1.2384 -10.8779 -0.354975)
(1.11496 -10.8791 -0.3509)
(1.13761 -10.8504 -0.329464)
(0.851632 -10.853 -0.32703)
(0.973182 -10.5563 -0.296093)
(1.98661 -10.608 -0.292383)
(-2.46543 -6.77306 219.614)
(3.24367 -8.27721 226.314)
(0.0526783 -8.5869 225.689)
(1.74695 -8.43736 226.187)
(0.777393 -8.54244 225.94)
(1.39418 -8.47825 226.077)
(1.05669 -8.51997 225.986)
(1.29035 -8.49619 226.03)
(1.17281 -8.51041 225.997)
(1.27384 -8.5008 226.011)
(1.23723 -8.50298 225.999)
(1.30268 -8.49805 226.002)
(1.29625 -8.49318 225.999)
(1.3765 -8.49013 225.994)
(1.37911 -8.47708 226.001)
(1.52341 -8.47502 225.986)
(1.51994 -8.44511 226.014)
(1.78626 -8.44316 225.977)
(1.75666 -8.32997 226.048)
(1.82365 -8.27402 226.246)
(-0.889985 4.78175 235.448)
(6.26754 4.64426 241.419)
(1.478 4.62325 242.899)
(4.20553 4.66814 243.155)
(2.54954 4.53952 243.319)
(3.59131 4.59246 243.319)
(3.00933 4.55568 243.354)
(3.41638 4.57476 243.34)
(3.21579 4.56283 243.341)
(3.39688 4.56901 243.323)
(3.33553 4.5671 243.301)
(3.45784 4.568 243.273)
(3.4459 4.57263 243.227)
(3.59941 4.56953 243.185)
(3.59499 4.58287 243.099)
(3.87136 4.57181 243.035)
(3.83578 4.61097 242.875)
(4.40601 4.57754 242.758)
(4.25229 4.71059 242.364)
(5.70657 4.77582 241.175)
(-1.35237 -1.83697 234.999)
(7.80873 -2.61781 242.74)
(2.47198 -3.0934 243.427)
(5.98604 -3.01382 244.732)
(4.05596 -3.15064 244.511)
(5.32036 -3.11853 244.802)
(4.65454 -3.15834 244.685)
(5.14362 -3.14466 244.762)
(4.92038 -3.15566 244.707)
(5.14293 -3.14968 244.719)
(5.07817 -3.15 244.68)
(5.2387 -3.14726 244.661)
(5.2284 -3.14085 244.616)
(5.44209 -3.14037 244.573)
(5.43396 -3.1247 244.514)
(5.83026 -3.12899 244.438)
(5.76004 -3.09313 244.368)
(6.6014 -3.10609 244.178)
(6.30431 -3.05907 244.128)
(8.24682 -3.00587 241.983)
(-0.92466 1.17091 236.126)
(8.22376 1.21939 241.218)
(3.49384 1.20529 242.738)
(6.70691 1.17046 243.068)
(5.08611 1.11867 243.466)
(6.23154 1.11322 243.505)
(5.65352 1.10303 243.608)
(6.08869 1.10312 243.597)
(5.88829 1.10145 243.614)
(6.08582 1.10172 243.592)
(6.02568 1.10228 243.562)
(6.17063 1.10208 243.525)
(6.15943 1.10417 243.445)
(6.35457 1.1029 243.392)
(6.3446 1.10767 243.243)
(6.70251 1.10343 243.167)
(6.63568 1.11646 242.908)
(7.37036 1.10509 242.725)
(7.13367 1.12172 242.383)
(8.54512 1.17552 239.853)
(-1.36738 3.45298e-06 235.027)
(8.07869 -4.78325e-06 241.247)
(3.27222 9.16289e-06 242.224)
(6.94904 -2.42575e-05 243.216)
(5.22819 -6.36324e-06 243.358)
(6.49155 1.54092e-05 243.692)
(5.88018 -3.00216e-05 243.656)
(6.35265 -3.23102e-05 243.734)
(6.14403 1.62338e-05 243.699)
(6.35947 -3.14037e-05 243.709)
(6.29864 -3.53463e-05 243.668)
(6.45943 -3.57831e-06 243.648)
(6.44959 -3.54666e-05 243.585)
(6.6703 2.01422e-05 243.542)
(6.65946 1.30319e-05 243.444)
(7.07371 -0.000103484 243.377)
(6.98939 0.000198371 243.211)
(7.87213 -0.000401649 243.036)
(7.53937 0.00138991 242.712)
(9.39454 0.000205397 239.826)
(-0.924663 -1.1709 236.126)
(8.22376 -1.2194 241.218)
(3.49383 -1.20528 242.738)
(6.7069 -1.17041 243.068)
(5.08614 -1.11865 243.466)
(6.23153 -1.11321 243.505)
(5.6535 -1.10299 243.608)
(6.08871 -1.10305 243.597)
(5.8883 -1.10147 243.614)
(6.08581 -1.10171 243.592)
(6.0257 -1.10224 243.561)
(6.17063 -1.10206 243.525)
(6.15944 -1.10409 243.445)
(6.35459 -1.10297 243.392)
(6.34457 -1.10763 243.243)
(6.70252 -1.10345 243.167)
(6.63559 -1.11602 242.909)
(7.37076 -1.10589 242.721)
(7.13318 -1.11943 242.394)
(8.5459 -1.17596 239.829)
(-1.35238 1.83698 234.999)
(7.80874 2.6178 242.74)
(2.47199 3.09342 243.427)
(5.98604 3.01374 244.732)
(4.05597 3.15065 244.511)
(5.32036 3.11858 244.802)
(4.65455 3.15825 244.685)
(5.14361 3.1446 244.762)
(4.92038 3.15567 244.707)
(5.14299 3.14958 244.719)
(5.07821 3.14994 244.679)
(5.23872 3.14728 244.661)
(5.22837 3.14077 244.616)
(5.44208 3.1404 244.574)
(5.43399 3.1247 244.515)
(5.83042 3.12884 244.437)
(5.75967 3.09334 244.369)
(6.60261 3.10548 244.173)
(6.30308 3.06167 244.146)
(8.25015 3.00571 241.927)
(-0.889988 -4.78174 235.448)
(6.26756 -4.64426 241.419)
(1.47795 -4.62323 242.899)
(4.20556 -4.66805 243.155)
(2.54964 -4.53957 243.319)
(3.59124 -4.59249 243.319)
(3.00929 -4.55558 243.354)
(3.41644 -4.57473 243.34)
(3.21577 -4.56282 243.341)
(3.39694 -4.56891 243.323)
(3.33565 -4.56706 243.301)
(3.45783 -4.56802 243.273)
(3.44586 -4.57256 243.226)
(3.59941 -4.56953 243.185)
(3.59499 -4.58283 243.099)
(3.87142 -4.57174 243.034)
(3.83562 -4.6109 242.876)
(4.40678 -4.57789 242.755)
(4.25071 -4.70923 242.375)
(5.71545 -4.77635 241.117)
(-2.46543 6.77306 219.614)
(3.24368 8.27722 226.314)
(0.0526906 8.58692 225.689)
(1.74698 8.43715 226.187)
(0.777361 8.54254 225.939)
(1.39419 8.47839 226.076)
(1.05676 8.51972 225.987)
(1.29036 8.49611 226.03)
(1.17283 8.51042 225.997)
(1.27391 8.50052 226.012)
(1.2372 8.5029 225.999)
(1.30267 8.49818 226.001)
(1.2963 8.49304 226)
(1.37652 8.4901 225.994)
(1.37912 8.477 226.001)
(1.52346 8.47489 225.986)
(1.51991 8.44511 226.014)
(1.78662 8.44307 225.976)
(1.75557 8.33001 226.05)
(1.82842 8.27285 226.261)
(1.80768 -9.07623 -185.355)
(1.25481 -9.06829 -185.605)
(1.21716 -9.018 -185.477)
(1.13308 -8.99971 -185.257)
(1.10547 -8.98537 -185.104)
(1.09057 -8.97925 -185.022)
(1.0748 -8.97617 -184.983)
(1.06926 -8.97466 -184.963)
(1.05771 -8.97394 -184.952)
(1.05292 -8.97335 -184.944)
(1.04313 -8.97301 -184.938)
(1.03794 -8.9726 -184.932)
(1.02914 -8.97232 -184.926)
(1.02355 -8.97197 -184.921)
(1.01544 -8.97168 -184.916)
(1.00958 -8.97135 -184.911)
(1.00199 -8.97107 -184.906)
(0.995997 -8.97074 -184.901)
(0.988819 -8.97045 -184.896)
(0.982776 -8.97014 -184.891)
(0.975934 -8.96984 -184.886)
(0.969909 -8.96949 -184.881)
(0.96335 -8.96923 -184.876)
(0.957391 -8.96892 -184.871)
(0.951082 -8.96862 -184.866)
(0.945218 -8.96831 -184.861)
(0.939134 -8.96797 -184.856)
(0.933388 -8.9677 -184.851)
(0.927514 -8.9674 -184.846)
(0.921903 -8.96708 -184.841)
(0.916226 -8.96678 -184.836)
(0.910759 -8.96642 -184.832)
(0.905274 -8.96615 -184.826)
(0.89996 -8.96584 -184.821)
(0.894663 -8.96548 -184.817)
(0.889509 -8.9652 -184.811)
(0.884395 -8.96484 -184.807)
(0.879408 -8.96457 -184.801)
(0.874478 -8.96425 -184.796)
(0.869662 -8.96392 -184.791)
(0.864918 -8.96361 -184.786)
(0.860277 -8.96323 -184.782)
(0.855717 -8.96291 -184.776)
(0.851242 -8.96252 -184.77)
(0.846848 -8.96212 -184.765)
(0.842525 -8.96172 -184.759)
(0.838291 -8.96132 -184.754)
(0.83412 -8.96092 -184.748)
(0.830052 -8.96053 -184.743)
(0.826038 -8.96009 -184.738)
(0.822144 -8.9597 -184.732)
(0.818292 -8.9593 -184.727)
(0.814578 -8.95891 -184.721)
(0.81089 -8.95856 -184.715)
(0.807361 -8.95813 -184.71)
(0.803836 -8.95778 -184.704)
(0.800498 -8.95739 -184.699)
(0.797135 -8.957 -184.693)
(0.793993 -8.95661 -184.688)
(0.790786 -8.95617 -184.683)
(0.78785 -8.95582 -184.677)
(0.784791 -8.95539 -184.672)
(0.782072 -8.95504 -184.666)
(0.779156 -8.95465 -184.661)
(0.77667 -8.95426 -184.655)
(0.773882 -8.95382 -184.65)
(0.771648 -8.95344 -184.644)
(0.768972 -8.95304 -184.639)
(0.767021 -8.95266 -184.634)
(0.764431 -8.95227 -184.628)
(0.762803 -8.9519 -184.623)
(0.760268 -8.95155 -184.617)
(0.759015 -8.95114 -184.612)
(0.756486 -8.95075 -184.607)
(0.755679 -8.95045 -184.602)
(0.753088 -8.95002 -184.597)
(0.752817 -8.94969 -184.592)
(0.750061 -8.94936 -184.588)
(0.750442 -8.94906 -184.583)
(0.747367 -8.9487 -184.579)
(0.748537 -8.94843 -184.575)
(0.744943 -8.94806 -184.571)
(0.747075 -8.94778 -184.568)
(0.74292 -8.94728 -184.564)
(0.746383 -8.94662 -184.557)
(0.743626 -8.94556 -184.549)
(0.749626 -8.94147 -184.511)
(0.768621 -8.93771 -184.468)
(0.782121 -8.92104 -184.305)
(1.28277 -8.97696 -185.156)
(5.06436 3.26612 -216.675)
(3.47733 3.30904 -217.371)
(3.32542 3.34968 -217.141)
(3.14099 3.35382 -216.851)
(3.06878 3.35645 -216.638)
(3.03303 3.35652 -216.528)
(2.99048 3.3565 -216.474)
(2.9743 3.35661 -216.449)
(2.94186 3.35645 -216.434)
(2.92688 3.35653 -216.425)
(2.89886 3.35639 -216.418)
(2.88276 3.35643 -216.411)
(2.85736 3.35631 -216.405)
(2.84025 3.35633 -216.4)
(2.81668 3.35624 -216.394)
(2.79897 3.35624 -216.388)
(2.7768 3.35616 -216.383)
(2.7588 3.35615 -216.377)
(2.73776 3.35608 -216.372)
(2.7197 3.35606 -216.366)
(2.69958 3.356 -216.361)
(2.68163 3.35596 -216.356)
(2.66232 3.35592 -216.35)
(2.64459 3.35589 -216.345)
(2.62598 3.35584 -216.339)
(2.60855 3.35581 -216.334)
(2.59058 3.35575 -216.328)
(2.57353 3.35573 -216.323)
(2.55615 3.35568 -216.317)
(2.53949 3.35564 -216.311)
(2.52268 3.3556 -216.306)
(2.50645 3.35554 -216.3)