/*--------------------------------*- C++ -*----------------------------------*\
  =========                 |
  \\      /  F ield         | OpenFOAM: The Open Source CFD Toolbox
   \\    /   O peration     | Website:  https://openfoam.org
    \\  /    A nd           | Version:  7
     \\/     M anipulation  |
\*---------------------------------------------------------------------------*/
FoamFile
{
    version     2.0;
    format      ascii;
    class       surfaceScalarField;
    location    "1.4075";
    object      phi;
}
// * * * * * * * * * * * * * * * * * * * * * * * * * * * * * * * * * * * * * //

dimensions      [1 0 -1 0 0 0 0];

internalField   nonuniform List<scalar> 
21708
(
0.00129027
0.000999825
1.3573e-05
0.000893342
0.000389431
6.18209e-06
0.000684163
0.000196267
1.16433e-05
0.000594188
8.20359e-05
6.68938e-06
0.000541607
4.05603e-05
1.07818e-05
0.000510307
2.317e-05
6.89424e-06
0.000486341
1.26446e-05
1.00818e-05
0.000469295
8.76412e-06
7.03256e-06
0.000454103
4.40918e-06
9.52054e-06
0.000442633
3.08243e-06
7.11313e-06
0.000431685
6.23551e-07
9.0397e-06
0.000423261
-9.78808e-10
7.13424e-06
0.000414896
-1.54137e-06
8.61121e-06
0.000408382
-1.88641e-06
7.10471e-06
0.000401706
-2.83655e-06
8.21772e-06
0.000396211
-2.82792e-06
7.03462e-06
0.000389249
-2.16504e-06
7.8452e-06
0.000384755
-3.70929e-06
6.93146e-06
0.000331758
4.41359e-05
7.59414e-06
2.26211e-05
6.49764e-06
0.000301381
0.00224122
0.00105904
2.8535e-06
0.00205069
0.000582606
-3.91681e-06
0.00184587
0.000398281
1.64374e-06
0.0017028
0.00022719
-3.17381e-06
0.00159929
0.000142005
1.00495e-06
0.00152824
9.6023e-05
-2.84005e-06
0.00147175
6.77175e-05
3.83662e-07
0.00143014
5.19691e-05
-2.65426e-06
0.00139311
4.04883e-05
-1.49091e-07
0.00136468
3.2932e-05
-2.55402e-06
0.00133769
2.7052e-05
-6.17665e-07
0.00131661
2.2398e-05
-2.52387e-06
0.00129586
1.90177e-05
-1.04069e-06
0.00127943
1.58488e-05
-2.54843e-06
0.00126333
1.34473e-05
-1.43339e-06
0.00124911
1.27646e-05
-2.61459e-06
0.00124009
7.45075e-06
-1.82246e-06
0.00122322
1.46678e-05
-2.70492e-06
0.00126254
5.94932e-06
-2.30994e-06
-2.51216e-05
-3.25594e-06
0.0013124
0.00256648
0.000786463
9.56471e-06
0.00265636
0.000488186
3.27086e-06
0.00264832
0.000396715
8.46264e-06
0.00261143
0.000259473
3.53916e-06
0.00256185
0.000182942
7.63761e-06
0.00251738
0.000135769
3.74576e-06
0.00247355
0.000103682
6.93288e-06
0.00243722
8.34974e-05
3.87445e-06
0.00240229
6.8094e-05
6.36079e-06
0.00237356
5.66995e-05
3.94746e-06
0.00234571
4.79266e-05
5.87341e-06
0.00232273
4.02458e-05
3.96401e-06
0.00230014
3.49366e-05
5.44066e-06
0.00228163
2.91494e-05
3.93122e-06
0.00226246
2.62504e-05
5.04475e-06
0.00224833
2.17015e-05
3.85743e-06
0.00222847
2.12805e-05
4.67729e-06
0.00221985
1.82278e-05
3.73745e-06
0.00218816
3.18821e-05
4.46603e-06
1.87474e-05
3.37678e-06
0.00213968
0.00257309
0.000512497
4.16921e-06
0.00273252
0.000329336
-1.85818e-06
0.00283711
0.000287702
3.28576e-06
0.00289761
0.000199489
-1.58125e-06
0.002927
0.000149983
2.55743e-06
0.00294479
0.000118294
-1.29658e-06
0.00294994
9.56767e-05
1.92581e-06
0.0029527
8.09532e-05
-1.1134e-06
0.00294947
6.90382e-05
1.39182e-06
0.0029464
5.98443e-05
-1.01151e-06
0.00294004
5.23346e-05
9.25036e-07
0.00293448
4.56676e-05
-9.78836e-07
0.00292723
4.0489e-05
5.04133e-07
0.00292053
3.55818e-05
-1.00147e-06
0.0029139
3.14328e-05
1.13716e-07
0.00290605
2.92219e-05
-1.06808e-06
0.00290284
2.33146e-05
-2.72378e-07
0.00289383
2.6955e-05
-1.1825e-06
0.00290651
1.85253e-05
-7.74223e-07
6.62852e-06
-1.64754e-06
0.00291885
0.00256194
0.000246445
7.4939e-06
0.00272887
0.000159455
1.6775e-06
0.00286249
0.000146266
6.68032e-06
0.00295517
0.00010395
1.80244e-06
0.00301796
8.02664e-05
5.91418e-06
0.00306843
6.47985e-05
2.04432e-06
0.00310431
5.35989e-05
5.25102e-06
0.00313586
4.63091e-05
2.20165e-06
0.00315912
4.02209e-05
4.69714e-06
0.0031803
3.54703e-05
2.28881e-06
0.00319599
3.14537e-05
4.21934e-06
0.00321047
2.78089e-05
2.31297e-06
0.00322106
2.49413e-05
3.79174e-06
0.00323108
2.20318e-05
2.28442e-06
0.00323788
1.99278e-05
3.39836e-06
0.00324554
1.7964e-05
2.21236e-06
0.0032482
1.61769e-05
3.02876e-06
0.00325525
1.62909e-05
2.08292e-06
0.00325299
1.65056e-05
2.74407e-06
1.56008e-05
1.74077e-06
0.00324073
0.00254401
2.83401e-11
5.76525e-06
0.00270216
3.38132e-10
3.46164e-08
0.00284227
2.26746e-10
5.01688e-06
0.00294502
8.09025e-10
1.41367e-07
0.00302002
2.99991e-10
4.25271e-06
0.00308345
1.60728e-09
3.86613e-07
0.00313251
7.90595e-10
3.59965e-06
0.00317737
3.47833e-09
5.53256e-07
0.00321367
3.58565e-09
3.0528e-06
0.00324761
7.7833e-09
6.46323e-07
0.00327551
1.38926e-08
2.57929e-06
0.00330157
2.02993e-08
6.74214e-07
0.00332317
4.02685e-08
2.15448e-06
0.00334325
7.16798e-08
6.48377e-07
0.00336004
8.33494e-08
1.76223e-06
0.00337578
2.7332e-07
5.78463e-07
0.003389
1.39091e-07
1.38321e-06
0.00340247
8.35593e-07
4.49515e-07
0.00341595
4.93468e-07
9.71325e-07
1.58158e-06
6.75211e-08
0.00342831
0.00254401
-0.000246445
5.76525e-06
0.00270216
-0.000159454
3.46157e-08
0.00284227
-0.000146266
5.01688e-06
0.00294502
-0.000103948
1.41365e-07
0.00302002
-8.02657e-05
4.25271e-06
0.00308345
-6.47956e-05
3.86608e-07
0.00313251
-5.35971e-05
3.59966e-06
0.00317737
-4.63028e-05
5.53242e-07
0.00321367
-4.02133e-05
3.05282e-06
0.00324761
-3.54564e-05
6.46286e-07
0.00327551
-3.14249e-05
2.57933e-06
0.00330158
-2.77732e-05
6.74114e-07
0.00332317
-2.48579e-05
2.15457e-06
0.00334327
-2.19028e-05
6.48101e-07
0.00336005
-1.97534e-05
1.76251e-06
0.00337582
-1.74488e-05
5.77719e-07
0.00338902
-1.58831e-05
1.38443e-06
0.00340253
-1.46488e-05
4.47915e-07
0.00341601
-1.55237e-05
9.77472e-07
-1.22971e-05
6.48946e-08
0.00342822
0.00256194
-0.000512497
7.4939e-06
0.00272887
-0.000329336
1.6775e-06
0.00286249
-0.000287702
6.68032e-06
0.00295517
-0.000199487
1.80244e-06
0.00301796
-0.000149982
5.91418e-06
0.00306843
-0.000118291
2.04432e-06
0.00310431
-9.56751e-05
5.25101e-06
0.00313586
-8.09471e-05
2.20166e-06
0.00315912
-6.90316e-05
4.69712e-06
0.00318031
-5.98305e-05
2.28884e-06
0.003196
-5.23099e-05
4.21931e-06
0.00321047
-4.56322e-05
2.31305e-06
0.00322108
-4.04182e-05
3.79164e-06
0.0032311
-3.54568e-05
2.28468e-06
0.00323793
-3.12918e-05
3.39805e-06
0.00324562
-2.8737e-05
2.21306e-06
0.00324837
-2.31101e-05
3.02755e-06
0.00325556
-2.54427e-05
2.08426e-06
0.00325355
-1.77942e-05
2.73873e-06
-3.959e-06
1.74231e-06
0.00324193
0.00257309
-0.000786463
4.16921e-06
0.00273252
-0.000488185
-1.85818e-06
0.00283711
-0.000396714
3.28576e-06
0.00289761
-0.000259472
-1.58125e-06
0.002927
-0.000182941
2.55743e-06
0.00294479
-0.000135767
-1.29659e-06
0.00294994
-0.00010368
1.92581e-06
0.0029527
-8.3493e-05
-1.11342e-06
0.00294947
-6.80875e-05
1.39184e-06
0.0029464
-5.66903e-05
-1.01154e-06
0.00294005
-4.79041e-05
9.25084e-07
0.00293451
-4.02227e-05
-9.78917e-07
0.00292726
-3.48735e-05
5.04248e-07
0.00292059
-2.90627e-05
-1.00167e-06
0.00291398
-2.61255e-05
1.14017e-07
0.00290625
-2.13348e-05
-1.06858e-06
0.00290308
-2.1106e-05
-2.7119e-07
0.00289434
-1.6994e-05
-1.18374e-06
0.00290716
-3.13013e-05
-7.68179e-07
-1.64054e-05
-1.64949e-06
0.00291983
0.00256648
-0.00105904
9.56471e-06
0.00265636
-0.000582606
3.27086e-06
0.00264832
-0.00039828
8.46264e-06
0.00261143
-0.000227189
3.53916e-06
0.00256185
-0.000142004
7.63761e-06
0.00251738
-9.60216e-05
3.74576e-06
0.00247355
-6.77161e-05
6.93288e-06
0.00243722
-5.19664e-05
3.87446e-06
0.0024023
-4.0484e-05
6.36078e-06
0.00237356
-3.29266e-05
3.94748e-06
0.00234573
-2.70378e-05
5.87339e-06
0.00232276
-2.23846e-05
3.96406e-06
0.00230019
-1.89788e-05
5.44058e-06
0.00228171
-1.57963e-05
3.93141e-06
0.0022626
-1.33775e-05
5.04447e-06
0.0022486
-1.25342e-05
3.85799e-06
0.00222887
-7.40128e-06
4.67637e-06
0.00222068
-1.38702e-05
3.73836e-06
0.00218949
-5.8574e-06
4.46252e-06
2.60847e-05
3.37643e-06
0.00214239
0.00224122
-0.000999825
2.8535e-06
0.00205069
-0.00038943
-3.91681e-06
0.00184587
-0.000196266
1.64374e-06
0.0017028
-8.20355e-05
-3.17382e-06
0.00159929
-4.05598e-05
1.00495e-06
0.00152824
-2.31694e-05
-2.84005e-06
0.00147175
-1.26438e-05
3.83666e-07
0.00143014
-8.76315e-06
-2.65427e-06
0.00139312
-4.40735e-06
-1.49077e-07
0.00136469
-3.08095e-06
-2.55404e-06
0.00133771
-6.17996e-07
-6.17626e-07
0.00131664
3.99885e-09
-2.52392e-06
0.00129591
1.55656e-06
-1.04059e-06
0.00127952
1.89942e-06
-2.54855e-06
0.00126346
2.86703e-06
-1.43315e-06
0.0012494
2.89456e-06
-2.61493e-06
0.00124039
2.21324e-06
-1.82154e-06
0.00122407
3.95989e-06
-2.70609e-06
0.00126311
-4.37734e-05
-2.30492e-06
-2.20726e-05
-3.25902e-06
0.00131339
0.00129027
1.3573e-05
0.000893343
6.18209e-06
0.000684163
1.16433e-05
0.000594189
6.68938e-06
0.000541608
1.07818e-05
0.000510308
6.89424e-06
0.000486342
1.00818e-05
0.000469296
7.03256e-06
0.000454106
9.52053e-06
0.000442637
7.11314e-06
0.000431695
9.03968e-06
0.000423274
7.13429e-06
0.000414924
8.61114e-06
0.000408422
7.10487e-06
0.000401777
8.21751e-06
0.000396348
7.03509e-06
0.000389436
7.84463e-06
0.000385189
6.93237e-06
0.000332558
7.59259e-06
6.49897e-06
0.000302729
0.00189342
0.000419919
3.11023e-06
0.00137833
0.000515077
4.90632e-06
0.00103579
0.000350732
2.22387e-06
0.000855106
0.000182478
3.71036e-06
0.000766016
9.64673e-05
2.23437e-06
0.000711638
5.67303e-05
3.37464e-06
0.000677277
4.08937e-05
2.3715e-06
0.000647185
3.28056e-05
3.12345e-06
0.00062556
2.74967e-05
2.43409e-06
0.000604694
2.38518e-05
2.89525e-06
0.000589321
2.07105e-05
2.45733e-06
0.000573886
1.85934e-05
2.72219e-06
0.000562007
1.67559e-05
2.47714e-06
0.000550033
1.52147e-05
2.60823e-06
0.000539984
1.45069e-05
2.51053e-06
0.000530438
1.28001e-05
2.54204e-06
0.00052527
9.21438e-06
2.57115e-06
0.000507125
2.1357e-05
2.50733e-06
0.000607984
-9.70851e-05
2.61359e-06
-8.10213e-05
2.72478e-06
0.000691583
0.00239757
0.000319963
8.35065e-06
0.0023373
0.000559941
1.02208e-05
0.00221517
0.000465631
7.72554e-06
0.00208031
0.000304029
9.05873e-06
0.00197082
0.000198285
7.64765e-06
0.00188
0.000135035
8.67772e-06
0.00181152
0.000100994
7.77663e-06
0.00175247
7.97617e-05
8.42973e-06
0.00170664
6.42801e-05
7.83664e-06
0.00166497
5.3633e-05
8.21448e-06
0.00163166
4.43701e-05
7.85511e-06
0.00160035
3.81076e-05
8.04771e-06
0.00157442
3.25162e-05
7.86824e-06
0.00154993
2.79496e-05
7.93331e-06
0.00152803
2.58e-05
7.89315e-06
0.00150966
1.94256e-05
7.86166e-06
0.00148662
2.12455e-05
7.94719e-06
0.00148236
1.39103e-05
7.8144e-06
0.00139757
-2.38418e-05
8.07078e-06
1.38156e-06
8.07078e-06
0.00130272
0.00242103
0.000207311
4.09899e-06
0.00254949
0.000427335
6.13943e-06
0.00261276
0.000406401
3.2786e-06
0.00261281
0.000301408
5.04531e-06
0.00259218
0.000222254
3.28298e-06
0.0025585
0.000166802
4.68453e-06
0.00252816
0.000133793
3.538e-06
0.00249569
0.000110728
4.46243e-06
0.00246834
9.33348e-05
3.69114e-06
0.00244022
8.04047e-05
4.25888e-06
0.00241644
6.91348e-05
3.76598e-06
0.00239226
6.0954e-05
4.09553e-06
0.00237172
5.34144e-05
3.81794e-06
0.00235051
4.77765e-05
3.98377e-06
0.00233335
4.27523e-05
3.8731e-06
0.00231284
3.84764e-05
3.9188e-06
0.00230277
3.06549e-05
3.94155e-06
0.00227934
3.58163e-05
3.89844e-06
0.00228805
-3.33426e-05
3.94009e-06
-1.67185e-05
4.07043e-06
0.0023042
0.0023732
0.000134104
7.22352e-06
0.00251487
0.000273408
9.13318e-06
0.00264868
0.000268003
6.73853e-06
0.00272951
0.0002098
8.1369e-06
0.00278367
0.000162952
6.67283e-06
0.00281204
0.000128431
7.72094e-06
0.00283273
0.000107317
6.78931e-06
0.00284218
9.18009e-05
7.46597e-06
0.00284961
7.95343e-05
6.85711e-06
0.00285083
6.99443e-05
7.25377e-06
0.00285172
6.12294e-05
6.88194e-06
0.00284887
5.45808e-05
7.08732e-06
0.00284628
4.8376e-05
6.89743e-06
0.00284149
4.32806e-05
6.97201e-06
0.00283663
3.94213e-05
6.92395e-06
0.00283148
3.42056e-05
6.90257e-06
0.00282205
3.13445e-05
6.97754e-06
0.0028195
2.88035e-05
6.87714e-06
0.00277824
-1.44304e-06
7.11339e-06
2.17235e-05
7.11102e-06
0.00272962
0.00237527
6.40806e-05
5.19564e-06
0.00250736
0.000134554
7.17274e-06
0.00264136
0.000134918
4.6237e-06
0.00273783
0.000107897
6.17293e-06
0.00281484
8.62708e-05
4.56104e-06
0.0028688
6.97936e-05
5.74569e-06
0.00291592
5.97916e-05
4.71797e-06
0.00295127
5.22593e-05
5.49985e-06
0.00298347
4.63167e-05
4.82198e-06
0.00300793
4.15428e-05
5.29567e-06
0.00303034
3.71329e-05
4.87164e-06
0.00304726
3.37078e-05
5.13369e-06
0.00306297
3.03346e-05
4.90472e-06
0.00307444
2.77905e-05
5.02167e-06
0.00308584
2.51155e-05
4.94454e-06
0.00309249
2.33678e-05
4.95677e-06
0.00310123
1.9117e-05
5.0002e-06
0.00310434
2.12593e-05
4.94511e-06
0.00310221
-3.14729e-06
5.03124e-06
6.73254e-06
5.12557e-06
0.00311227
0.00236665
-6.60999e-11
6.1938e-06
0.00249184
1.65843e-10
8.13265e-06
0.00262492
-9.43449e-11
5.71612e-06
0.00272472
4.36454e-10
7.17192e-06
0.00280857
-4.68298e-11
5.64556e-06
0.00287102
1.26154e-09
6.74004e-06
0.00292771
6.98518e-10
5.77019e-06
0.00297314
3.38067e-09
6.48751e-06
0.00301576
3.70833e-09
5.85412e-06
0.00305073
9.08981e-09
6.28164e-06
0.00308351
1.33874e-08
5.89121e-06
0.00311063
2.67092e-08
6.11896e-06
0.00313596
3.97179e-08
5.91465e-06
0.00315703
8.30487e-08
6.00581e-06
0.00317651
1.07686e-07
5.94672e-06
0.00319283
2.5196e-07
5.93946e-06
0.00320552
3.03089e-07
6.00033e-06
0.00321901
7.08548e-07
5.92717e-06
0.00320827
8.80876e-07
6.09735e-06
1.82459e-06
6.13153e-06
0.00320552
0.00236665
-6.40808e-05
6.1938e-06
0.00249184
-0.000134554
8.13265e-06
0.00262492
-0.000134918
5.71612e-06
0.00272472
-0.000107896
7.17192e-06
0.00280857
-8.6271e-05
5.64555e-06
0.00287102
-6.97909e-05
6.74004e-06
0.00292771
-5.97904e-05
5.77019e-06
0.00297314
-5.22522e-05
6.48752e-06
0.00301576
-4.63101e-05
5.85411e-06
0.00305073
-4.15235e-05
6.28165e-06
0.00308351
-3.71087e-05
5.89119e-06
0.00311063
-3.36509e-05
6.11901e-06
0.00313597
-3.0264e-05
5.9146e-06
0.00315703
-2.76156e-05
6.00594e-06
0.00317654
-2.49298e-05
5.94655e-06
0.00319285
-2.28513e-05
5.93982e-06
0.00320564
-1.86124e-05
5.99956e-06
0.00321921
-1.99283e-05
5.92781e-06
0.00320858
4.81261e-06
6.09309e-06
-3.4612e-06
6.1327e-06
0.00320621
0.00237527
-0.000134104
5.19564e-06
0.00250736
-0.000273408
7.17274e-06
0.00264136
-0.000268003
4.6237e-06
0.00273783
-0.000209799
6.17293e-06
0.00281484
-0.000162952
4.56104e-06
0.0028688
-0.000128429
5.74569e-06
0.00291592
-0.000107316
4.71798e-06
0.00295127
-9.17948e-05
5.49984e-06
0.00298347
-7.95274e-05
4.82199e-06
0.00300793
-6.99278e-05
5.29565e-06
0.00303034
-6.1205e-05
4.87166e-06
0.00304727
-5.45324e-05
5.13365e-06
0.00306298
-4.83051e-05
4.90477e-06
0.00307448
-4.31313e-05
5.02154e-06
0.00308587
-3.92318e-05
4.9447e-06
0.00309259
-3.37557e-05
4.95641e-06
0.00310131
-3.08149e-05
5.00085e-06
0.00310451
-2.75633e-05
4.94448e-06
0.00310246
3.01256e-06
5.03472e-06
-1.84065e-05
5.12443e-06
0.00311248
0.0023732
-0.000207311
7.22352e-06
0.00251487
-0.000427335
9.13318e-06
0.00264868
-0.000406401
6.73853e-06
0.00272951
-0.000301408
8.1369e-06
0.00278367
-0.000222254
6.67283e-06
0.00281205
-0.0001668
7.72094e-06
0.00283273
-0.000133792
6.78931e-06
0.00284218
-0.000110723
7.46598e-06
0.00284961
-9.33289e-05
6.8571e-06
0.00285084
-8.03906e-05
7.25379e-06
0.00285173
-6.9115e-05
6.88191e-06
0.00284889
-6.09126e-05
7.08736e-06
0.00284631
-5.33599e-05
6.89736e-06
0.00284154
-4.76479e-05
6.9721e-06
0.00283673
-4.26162e-05
6.92375e-06
0.00283165
-3.80931e-05
6.90281e-06
0.0028224
-3.03022e-05
6.9767e-06
0.00282009
-3.48238e-05
6.87761e-06
0.00277933
3.44357e-05
7.10935e-06
1.90684e-05
7.1112e-06
0.00273167
0.00242103
-0.000319963
4.09899e-06
0.00254949
-0.000559941
6.13943e-06
0.00261276
-0.000465631
3.2786e-06
0.00261281
-0.000304029
5.04531e-06
0.00259218
-0.000198285
3.28298e-06
0.0025585
-0.000135034
4.68453e-06
0.00252817
-0.000100992
3.538e-06
0.00249569
-7.97588e-05
4.46243e-06
0.00246834
-6.42748e-05
3.69115e-06
0.00244023
-5.36254e-05
4.25887e-06
0.00241645
-4.43536e-05
3.76599e-06
0.00239229
-3.80851e-05
4.09551e-06
0.00237176
-3.24715e-05
3.81799e-06
0.00235061
-2.78778e-05
3.98367e-06
0.00233348
-2.56864e-05
3.87324e-06
0.00231313
-1.92061e-05
3.91851e-06
0.0023031
-2.09357e-05
3.94199e-06
0.00228005
-1.32953e-05
3.8979e-06
0.00228897
2.47144e-05
3.94217e-06
4.99959e-07
4.0697e-06
0.0023056
0.00239757
-0.000419919
8.35065e-06
0.0023373
-0.000515077
1.02208e-05
0.00221517
-0.000350732
7.72554e-06
0.00208031
-0.000182478
9.05874e-06
0.00197082
-9.64671e-05
7.64765e-06
0.00188
-5.67297e-05
8.67772e-06
0.00181152
-4.08931e-05
7.77663e-06
0.00175247
-3.28044e-05
8.42974e-06
0.00170665
-2.74944e-05
7.83664e-06
0.00166498
-2.38486e-05
8.21449e-06
0.00163168
-2.07039e-05
7.85509e-06
0.00160039
-1.85839e-05
8.04774e-06
0.00157449
-1.67388e-05
7.86819e-06
0.00155003
-1.51842e-05
7.9334e-06
0.00152821
-1.4468e-05
7.89296e-06
0.00150997
-1.27048e-05
7.86193e-06
0.00148717
-9.14555e-06
7.94643e-06
0.0014832
-2.10421e-05
7.81512e-06
0.00139947
9.69082e-05
8.06748e-06
8.10468e-05
8.07194e-06
0.00130648
0.00189342
3.11023e-06
0.00137833
4.90632e-06
0.00103579
2.22387e-06
0.000855106
3.71036e-06
0.000766016
2.23437e-06
0.000711639
3.37464e-06
0.000677279
2.3715e-06
0.000647188
3.12345e-06
0.000625565
2.4341e-06
0.000604703
2.89525e-06
0.000589336
2.45734e-06
0.000573911
2.72218e-06
0.000562049
2.47717e-06
0.000550105
2.60816e-06
0.000540095
2.5106e-06
0.000530645
2.54187e-06
0.000525547
2.57119e-06
0.000507714
2.50711e-06
0.000608401
2.61353e-06
2.72343e-06
0.000692032
0.00213482
0.000170971
-1.94796e-11
0.00189076
0.000247699
-1.95495e-11
0.00163008
0.000261747
-1.9445e-11
0.00140108
0.000231607
-1.96011e-11
0.00121663
0.00018563
-1.94134e-11
0.00108031
0.000138635
-1.96746e-11
0.000982429
9.91466e-05
-1.94994e-11
0.000915575
6.88292e-05
-1.9802e-11
0.000868729
4.81002e-05
-1.96414e-11
0.000836519
3.39111e-05
-1.99769e-11
0.000812579
2.51967e-05
-1.98082e-11
0.000794702
1.9397e-05
-2.00478e-11
0.000780143
1.58394e-05
-1.97633e-11
0.000767912
1.3652e-05
-1.99235e-11
0.000758027
1.12232e-05
-1.96546e-11
0.000747363
1.20491e-05
-1.98558e-11
0.000742609
6.18105e-06
-1.96497e-11
0.000729582
1.44101e-05
-1.98776e-11
0.000735873
-4.81649e-06
-1.96638e-11
-5.62893e-06
-1.98767e-11
0.000743104
0.00235877
0.00012322
-1.95061e-11
0.00240315
0.000212276
-1.96223e-11
0.00240964
0.000261854
-1.95688e-11
0.00238555
0.000263704
-1.97495e-11
0.00233998
0.000237851
-1.95393e-11
0.00228681
0.000199531
-1.97192e-11
0.00223119
0.000161624
-1.94957e-11
0.00217863
0.000128866
-1.9727e-11
0.00212933
0.000104217
-1.94663e-11
0.00208485
8.54962e-05
-1.97335e-11
0.00204419
7.25118e-05
-1.95993e-11
0.00200779
6.2566e-05
-1.99671e-11
0.00197475
5.54099e-05
-1.98148e-11
0.00194515
4.9821e-05
-2.0026e-11
0.00191857
4.43287e-05
-1.973e-11
0.00189435
4.27957e-05
-1.98715e-11
0.00187378
3.34137e-05
-1.96163e-11
0.00185312
4.16838e-05
-1.97965e-11
0.00183823
1.69941e-05
-1.95296e-11
3.26577e-05
-1.95356e-11
0.00180693
0.00234683
8.31503e-05
-1.94977e-11
0.00241506
0.000148935
-1.9617e-11
0.0024857
0.000193364
-1.95541e-11
0.00255004
0.000203349
-1.97196e-11
0.00259792
0.000192247
-1.95241e-11
0.00263134
0.000169839
-1.97632e-11
0.00265067
0.000144935
-1.96432e-11
0.00266075
0.00012236
-1.99305e-11
0.00266334
0.000104383
-1.96215e-11
0.00266158
9.04958e-05
-1.96889e-11
0.00265653
8.02198e-05
-1.9335e-11
0.00264953
7.2444e-05
-1.96202e-11
0.00264145
6.60131e-05
-1.96001e-11
0.00263221
6.16683e-05
-2.00006e-11
0.00262337
5.55779e-05
-1.97751e-11
0.0026131
5.54865e-05
-1.98685e-11
0.00260496
4.39827e-05
-1.96151e-11
0.00259417
5.49255e-05
-1.98696e-11
0.00258716
2.65577e-05
-1.99453e-11
4.95447e-05
-2.00922e-11
0.00257304
0.00233697
5.60612e-05
-1.95057e-11
0.00239538
9.84049e-05
-1.96235e-11
0.00246689
0.000127461
-1.95574e-11
0.00254241
0.00013492
-1.9717e-11
0.00261091
0.000129403
-1.95299e-11
0.00267109
0.000116417
-1.97944e-11
0.00272029
0.000101627
-1.97027e-11
0.00276126
8.79887e-05
-2.00403e-11
0.00279446
7.71326e-05
-1.97689e-11
0.00282245
6.87696e-05
-1.98262e-11
0.00284588
6.25879e-05
-1.94522e-11
0.00286619
5.80475e-05
-1.97066e-11
0.00288379
5.40567e-05
-1.96657e-11
0.00289932
5.17783e-05
-2.00876e-11
0.00291292
4.74638e-05
-1.9817e-11
0.00292531
4.84774e-05
-1.98062e-11
0.00293539
3.93046e-05
-1.93958e-11
0.00294614
4.94714e-05
-1.95208e-11
0.00295143
2.68707e-05
-1.9581e-11
5.12046e-05
-2.0227e-11
0.00295541
0.00233755
2.63636e-05
-1.94993e-11
0.00239417
4.77017e-05
-1.96028e-11
0.00246235
6.27851e-05
-1.95183e-11
0.00253575
6.66354e-05
-1.96676e-11
0.00260466
6.40396e-05
-1.9496e-11
0.00266802
5.78436e-05
-1.97592e-11
0.00272275
5.07185e-05
-1.96527e-11
0.00277112
4.42465e-05
-1.99529e-11
0.00281311
3.90627e-05
-1.96879e-11
0.002851
3.51903e-05
-1.97898e-11
0.00288511
3.22737e-05
-1.94735e-11
0.00291681
3.0305e-05
-1.97496e-11
0.00294616
2.8375e-05
-1.96597e-11
0.00297402
2.76209e-05
-2.00276e-11
0.00299971
2.53043e-05
-1.97169e-11
0.00302516
2.64809e-05
-1.96965e-11
0.00304661
2.12669e-05
-1.92721e-11
0.00307179
2.76176e-05
-1.93646e-11
0.00308705
1.50803e-05
-1.93712e-11
2.91062e-05
-2.00097e-11
0.00311274
0.00233522
-1.05673e-10
-1.95101e-11
0.00238979
3.00856e-10
-1.96131e-11
0.00245717
-2.46054e-10
-1.95209e-11
0.00252992
7.57176e-10
-1.96737e-11
0.00259859
-2.69882e-10
-1.9502e-11
0.00266222
1.91395e-09
-1.97617e-11
0.00271781
4.175e-10
-1.96099e-11
0.00276767
4.58152e-09
-1.98785e-11
0.00281168
3.35751e-09
-1.9617e-11
0.00285216
1.12523e-08
-1.98002e-11
0.00288923
1.20578e-08
-1.9566e-11
0.00292445
3.14296e-08
-1.98697e-11
0.00295747
3.16251e-08
-1.97359e-11
0.00298968
9.60103e-08
-2.00082e-11
0.00301946
6.97138e-08
-1.96828e-11
0.00305009
2.8271e-07
-1.97466e-11
0.00307561
1.76106e-07
-1.94277e-11
0.00310681
7.07203e-07
-1.95974e-11
0.00312577
6.38998e-07
-1.95589e-11
1.43328e-06
-1.99296e-11
0.00315803
0.00233522
-2.63638e-05
-1.95075e-11
0.00238979
-4.77011e-05
-1.96016e-11
0.00245717
-6.27856e-05
-1.9508e-11
0.00252992
-6.66339e-05
-1.96604e-11
0.00259859
-6.40402e-05
-1.94988e-11
0.00266222
-5.78398e-05
-1.97458e-11
0.00271781
-5.07178e-05
-1.95647e-11
0.00276767
-4.42372e-05
-1.97768e-11
0.00281168
-3.90565e-05
-1.95002e-11
0.00285216
-3.51674e-05
-1.97304e-11
0.00288923
-3.22506e-05
-1.95619e-11
0.00292445
-3.02416e-05
-1.987e-11
0.00295747
-2.8314e-05
-1.97005e-11
0.00298969
-2.74289e-05
-1.98728e-11
0.00301947
-2.51697e-05
-1.95718e-11
0.0030501
-2.5919e-05
-1.97812e-11
0.00307563
-2.09285e-05
-1.96337e-11
0.00310686
-2.62235e-05
-1.99554e-11
0.00312586
-1.38545e-05
-1.9933e-11
-2.634e-05
-1.99939e-11
0.00315822
0.00233755
-5.60614e-05
-1.95141e-11
0.00239417
-9.84043e-05
-1.96099e-11
0.00246235
-0.000127461
-1.95077e-11
0.00253575
-0.000134919
-1.96667e-11
0.00260466
-0.000129404
-1.95031e-11
0.00266802
-0.000116413
-1.97424e-11
0.00272275
-0.000101627
-1.95129e-11
0.00277112
-8.79798e-05
-1.96944e-11
0.00281311
-7.71265e-05
-1.94297e-11
0.00285101
-6.87477e-05
-1.97476e-11
0.00288511
-6.25654e-05
-1.96565e-11
0.00291682
-5.79874e-05
-1.99842e-11
0.00294616
-5.39972e-05
-1.97583e-11
0.00297404
-5.15966e-05
-1.98283e-11
0.00299974
-4.73347e-05
-1.95355e-11
0.0030252
-4.79409e-05
-1.98555e-11
0.00304669
-3.89898e-05
-1.98214e-11
0.00307191
-4.81258e-05
-2.02431e-11
0.00308725
-2.57278e-05
-2.01171e-11
-4.852e-05
-1.98492e-11
0.00311303
0.00233697
-8.31504e-05
-1.95141e-11
0.00239538
-0.000148935
-1.9589e-11
0.00246689
-0.000193364
-1.94719e-11
0.00254241
-0.000203348
-1.96236e-11
0.00261091
-0.000192247
-1.94744e-11
0.00267109
-0.000169836
-1.97051e-11
0.00272029
-0.000144935
-1.94498e-11
0.00276126
-0.000122351
-1.95954e-11
0.00279446
-0.000104378
-1.93585e-11
0.00282246
-9.04753e-05
-1.97455e-11
0.00284589
-8.02006e-05
-1.97161e-11
0.0028662
-7.23884e-05
-2.0048e-11
0.00288381
-6.59629e-05
-1.97341e-11
0.00289935
-6.15025e-05
-1.97267e-11
0.00291298
-5.54733e-05
-1.94384e-11
0.00292542
-5.49997e-05
-1.98005e-11
0.00293557
-4.37393e-05
-1.97878e-11
0.00294646
-5.37191e-05
-2.02027e-11
0.00295197
-2.5643e-05
-1.98717e-11
-4.72963e-05
-1.95272e-11
0.00295639
0.00234683
-0.00012322
-1.95121e-11
0.00241506
-0.000212276
-1.9588e-11
0.0024857
-0.000261854
-1.94645e-11
0.00255004
-0.000263703
-1.96192e-11
0.00259792
-0.000237851
-1.94773e-11
0.00263134
-0.000199528
-1.97239e-11
0.00265067
-0.000161623
-1.94767e-11
0.00266075
-0.00012886
-1.96706e-11
0.00266335
-0.000104212
-1.95024e-11
0.00266159
-8.54817e-05
-1.99166e-11
0.00265654
-7.24951e-05
-1.98741e-11
0.00264956
-6.25258e-05
-2.01301e-11
0.00264149
-5.53698e-05
-1.97335e-11
0.00263229
-4.96976e-05
-1.97311e-11
0.00262348
-4.42534e-05
-1.94705e-11
0.00261332
-4.24256e-05
-1.9795e-11
0.00260527
-3.32556e-05
-1.96716e-11
0.00259476
-4.07585e-05
-1.99277e-11
0.00258803
-1.63607e-05
-1.94046e-11
-3.10037e-05
-1.95955e-11
0.00257451
0.00235877
-0.000170971
-1.95123e-11
0.00240315
-0.000247699
-1.95803e-11
0.00240964
-0.000261747
-1.94506e-11
0.00238555
-0.000231607
-1.96054e-11
0.00233998
-0.00018563
-1.94983e-11
0.00228681
-0.000138634
-1.98035e-11
0.00223119
-9.91454e-05
-1.96284e-11
0.00217863
-6.8827e-05
-1.98698e-11
0.00212933
-4.80961e-05
-1.96747e-11
0.00208486
-3.39057e-05
-1.99295e-11
0.00204421
-2.51853e-05
-1.96506e-11
0.00200784
-1.9381e-05
-1.97682e-11
0.00197482
-1.58147e-05
-1.94617e-11
0.00194528
-1.35969e-05
-1.96785e-11
0.00191873
-1.11841e-05
-1.95641e-11
0.0018947
-1.1868e-05
-1.98563e-11
0.00187424
-6.12166e-06
-1.97408e-11
0.00185402
-1.39413e-05
-1.99994e-11
0.00183952
5.07181e-06
-1.98126e-11
6.13937e-06
-2.02498e-11
0.00180937
0.00213482
-1.95236e-11
0.00189076
-1.96325e-11
0.00163008
-1.95479e-11
0.00140109
-1.97551e-11
0.00121663
-1.9642e-11
0.00108031
-1.98561e-11
0.000982431
-1.9604e-11
0.00091558
-1.97743e-11
0.000868739
-1.94987e-11
0.000836534
-1.96962e-11
0.000812605
-1.94524e-11
0.000794744
-1.97133e-11
0.00078021
-1.95559e-11
0.000768034
-1.98524e-11
0.000758188
-1.97016e-11
0.000747705
-1.99366e-11
0.000743014
-1.97448e-11
0.000730444
-1.99212e-11
0.000737012
-1.97168e-11
-1.98745e-11
0.000744744
0.00213482
0.000170971
-3.11026e-06
0.00189076
0.000247699
-4.90635e-06
0.00163008
0.000261747
-2.2239e-06
0.00140108
0.000231607
-3.7104e-06
0.00121663
0.00018563
-2.2344e-06
0.00108031
0.000138635
-3.37467e-06
0.000982429
9.91466e-05
-2.37153e-06
0.000915575
6.88292e-05
-3.12348e-06
0.000868729
4.81002e-05
-2.43412e-06
0.000836519
3.39111e-05
-2.89528e-06
0.000812579
2.51968e-05
-2.45736e-06
0.000794702
1.9397e-05
-2.72223e-06
0.000780143
1.58394e-05
-2.47717e-06
0.000767912
1.36521e-05
-2.60826e-06
0.000758027
1.12233e-05
-2.51057e-06
0.000747363
1.20491e-05
-2.54207e-06
0.000742609
6.18105e-06
-2.57118e-06
0.000729582
1.44101e-05
-2.50736e-06
0.000735873
-4.81651e-06
-2.61362e-06
-5.62896e-06
-2.72481e-06
0.000743104
0.00235877
0.00012322
-8.35068e-06
0.00240315
0.000212276
-1.02208e-05
0.00240964
0.000261854
-7.72557e-06
0.00238555
0.000263704
-9.05877e-06
0.00233998
0.000237851
-7.64768e-06
0.00228681
0.000199531
-8.67776e-06
0.00223119
0.000161624
-7.77667e-06
0.00217863
0.000128866
-8.42977e-06
0.00212933
0.000104217
-7.83668e-06
0.00208485
8.54962e-05
-8.21451e-06
0.00204419
7.25119e-05
-7.85515e-06
0.00200779
6.25661e-05
-8.04774e-06
0.00197475
5.541e-05
-7.86828e-06
0.00194515
4.98211e-05
-7.93335e-06
0.00191856
4.43288e-05
-7.89319e-06
0.00189435
4.27958e-05
-7.8617e-06
0.00187378
3.34138e-05
-7.94723e-06
0.00185312
4.16839e-05
-7.81444e-06
0.00183823
1.69942e-05
-8.07082e-06
3.26578e-05
-8.07082e-06
0.00180693
0.00234683
8.31503e-05
-4.09903e-06
0.00241506
0.000148935
-6.13947e-06
0.0024857
0.000193364
-3.27863e-06
0.00255004
0.000203349
-5.04535e-06
0.00259792
0.000192247
-3.28301e-06
0.00263134
0.00016984
-4.68457e-06
0.00265067
0.000144935
-3.53803e-06
0.00266075
0.00012236
-4.46246e-06
0.00266334
0.000104383
-3.69118e-06
0.00266158
9.04959e-05
-4.25891e-06
0.00265652
8.022e-05
-3.76601e-06
0.00264953
7.24441e-05
-4.09557e-06
0.00264145
6.60132e-05
-3.81797e-06
0.00263221
6.16683e-05
-3.98381e-06
0.00262337
5.5578e-05
-3.87314e-06
0.0026131
5.54865e-05
-3.91884e-06
0.00260496
4.39828e-05
-3.94159e-06
0.00259417
5.49255e-05
-3.89847e-06
0.00258716
2.65578e-05
-3.94012e-06
4.95449e-05
-4.07046e-06
0.00257304
0.00233697
5.60612e-05
-7.22355e-06
0.00239538
9.84049e-05
-9.13322e-06
0.00246689
0.000127461
-6.73856e-06
0.00254241
0.00013492
-8.13693e-06
0.00261091
0.000129403
-6.67287e-06
0.00267109
0.000116417
-7.72098e-06
0.00272029
0.000101628
-6.78935e-06
0.00276126
8.79888e-05
-7.46601e-06
0.00279446
7.71327e-05
-6.85715e-06
0.00282245
6.87697e-05
-7.25381e-06
0.00284588
6.25881e-05
-6.88197e-06
0.00286619
5.80476e-05
-7.08736e-06
0.00288379
5.40568e-05
-6.89746e-06
0.00289932
5.17784e-05
-6.97204e-06
0.00291292
4.74638e-05
-6.92399e-06
0.00292531
4.84774e-05
-6.90261e-06
0.00293539
3.93046e-05
-6.97758e-06
0.00294614
4.94715e-05
-6.87718e-06
0.00295143
2.68707e-05
-7.11342e-06
5.12047e-05
-7.11106e-06
0.00295541
0.00233755
2.63636e-05
-5.19568e-06
0.00239417
4.77017e-05
-7.17277e-06
0.00246235
6.27851e-05
-4.62373e-06
0.00253575
6.66355e-05
-6.17297e-06
0.00260466
6.40396e-05
-4.56108e-06
0.00266802
5.78437e-05
-5.74573e-06
0.00272275
5.07186e-05
-4.71801e-06
0.00277112
4.42466e-05
-5.49989e-06
0.00281311
3.90629e-05
-4.82202e-06
0.002851
3.51905e-05
-5.2957e-06
0.00288511
3.22739e-05
-4.87168e-06
0.00291681
3.03052e-05
-5.13373e-06
0.00294616
2.83751e-05
-4.90475e-06
0.00297402
2.7621e-05
-5.02171e-06
0.00299971
2.53044e-05
-4.94458e-06
0.00302516
2.64809e-05
-4.9568e-06
0.00304661
2.12669e-05
-5.00024e-06
0.00307179
2.76176e-05
-4.94515e-06
0.00308705
1.50803e-05
-5.03128e-06
2.91062e-05
-5.12561e-06
0.00311274
0.00233522
-1.06319e-10
-6.19383e-06
0.00238979
3.09368e-10
-8.13269e-06
0.00245717
-2.20014e-10
-5.71615e-06
0.00252992
8.01052e-10
-7.17196e-06
0.00259859
-2.16008e-10
-5.64559e-06
0.00266222
1.96505e-09
-6.74008e-06
0.00271781
4.71549e-10
-5.77023e-06
0.00276767
4.66144e-09
-6.48755e-06
0.00281168
3.49225e-09
-5.85416e-06
0.00285216
1.14487e-08
-6.28167e-06
0.00288923
1.22783e-08
-5.89125e-06
0.00292445
3.16233e-08
-6.119e-06
0.00295747
3.17491e-08
-5.91469e-06
0.00298968
9.60668e-08
-6.00584e-06
0.00301946
6.97394e-08
-5.94676e-06
0.00305009
2.82723e-07
-5.9395e-06
0.00307561
1.76115e-07
-6.00037e-06
0.00310681
7.07211e-07
-5.92721e-06
0.00312577
6.38979e-07
-6.09739e-06
1.43325e-06
-6.13157e-06
0.00315803