/*--------------------------------*- C++ -*----------------------------------*\
  =========                 |
  \\      /  F ield         | OpenFOAM: The Open Source CFD Toolbox
   \\    /   O peration     | Website:  https://openfoam.org
    \\  /    A nd           | Version:  7
     \\/     M anipulation  |
\*---------------------------------------------------------------------------*/
FoamFile
{
    version     2.0;
    format      ascii;
    class       volVectorField;
    location    "0.9925";
    object      U;
}
// * * * * * * * * * * * * * * * * * * * * * * * * * * * * * * * * * * * * * //

dimensions      [0 1 -1 0 0 0 0];

internalField   nonuniform List<vector> 
7920
(
(2.93128 0.102095 -32.3818)
(2.10788 -0.461558 -32.4322)
(1.39709 -0.615804 -32.4306)
(1.28919 -0.67182 -32.4372)
(1.05568 -0.688471 -32.4312)
(1.08183 -0.693325 -32.4357)
(0.941481 -0.697437 -32.4319)
(0.986823 -0.69768 -32.4366)
(0.881956 -0.699693 -32.4348)
(0.927027 -0.699526 -32.4392)
(0.843684 -0.701159 -32.4384)
(0.884508 -0.700724 -32.4421)
(0.81676 -0.701835 -32.4416)
(0.852646 -0.701359 -32.4442)
(0.796816 -0.701796 -32.4436)
(0.827929 -0.701889 -32.4446)
(0.780236 -0.698009 -32.4445)
(0.802771 -0.704466 -32.443)
(0.767511 -0.645938 -32.4459)
(0.5974 -0.658226 -32.435)
(4.4125 0.967633 -32.4281)
(4.3373 0.873033 -32.4676)
(3.68813 0.818867 -32.4647)
(3.54266 0.751893 -32.4697)
(3.14576 0.724165 -32.4606)
(3.14205 0.710755 -32.4618)
(2.88181 0.704118 -32.4572)
(2.92538 0.700598 -32.4615)
(2.73199 0.698579 -32.4622)
(2.78578 0.696962 -32.4683)
(2.6331 0.695933 -32.4715)
(2.68632 0.694809 -32.478)
(2.56255 0.694267 -32.4819)
(2.6117 0.693417 -32.4865)
(2.50954 0.692817 -32.4895)
(2.55568 0.693007 -32.4898)
(2.46424 0.689658 -32.4932)
(2.52798 0.694605 -32.4858)
(2.40685 0.684944 -32.4975)
(2.68592 0.676232 -32.4566)
(4.75297 0.19318 -32.4326)
(5.26114 -0.228845 -32.4623)
(5.11953 -0.374592 -32.4481)
(5.23362 -0.492724 -32.452)
(4.99223 -0.557301 -32.4362)
(5.04473 -0.593689 -32.4345)
(4.83399 -0.617952 -32.4224)
(4.8796 -0.631673 -32.4255)
(4.70715 -0.642335 -32.4221)
(4.75085 -0.649083 -32.4297)
(4.61017 -0.654617 -32.4319)
(4.65125 -0.658719 -32.4423)
(4.53583 -0.661929 -32.4493)
(4.5733 -0.664683 -32.4603)
(4.47887 -0.666875 -32.4689)
(4.50908 -0.667592 -32.4747)
(4.43827 -0.671178 -32.4826)
(4.44211 -0.666526 -32.4789)
(4.41792 -0.6674 -32.4897)
(4.32917 -0.688497 -32.4558)
(4.75398 0.649378 -32.4425)
(5.28725 0.749569 -32.4695)
(5.39042 0.796832 -32.4538)
(5.69785 0.767155 -32.455)
(5.64205 0.749246 -32.439)
(5.81646 0.734904 -32.4342)
(5.72624 0.72454 -32.4199)
(5.842 0.71649 -32.4191)
(5.75155 0.71048 -32.414)
(5.83643 0.704917 -32.4187)
(5.7542 0.701005 -32.4196)
(5.8204 0.696825 -32.4272)
(5.74782 0.694391 -32.4342)
(5.80265 0.690934 -32.4459)
(5.73759 0.690032 -32.4582)
(5.78849 0.686207 -32.4694)
(5.72297 0.68876 -32.4807)
(5.78774 0.682117 -32.486)
(5.7033 0.695976 -32.4927)
(5.84793 0.706867 -32.4711)
(4.74608 -0.0881455 -32.4416)
(5.2508 -0.387013 -32.4681)
(5.41113 -0.479544 -32.4494)
(5.77391 -0.545203 -32.4508)
(5.7874 -0.580847 -32.4327)
(6.02181 -0.600711 -32.4277)
(5.99808 -0.614886 -32.411)
(6.16625 -0.622805 -32.4092)
(6.13476 -0.629777 -32.402)
(6.26308 -0.634224 -32.4061)
(6.23112 -0.638496 -32.4046)
(6.33207 -0.641593 -32.411)
(6.30193 -0.644757 -32.4145)
(6.38337 -0.646648 -32.426)
(6.35659 -0.650275 -32.4365)
(6.42172 -0.648596 -32.452)
(6.40278 -0.65802 -32.4627)
(6.44441 -0.6464 -32.4758)
(6.4469 -0.669788 -32.48)
(6.44829 -0.691408 -32.4668)
(4.73355 0.352086 -32.4453)
(5.19411 0.557071 -32.4723)
(5.36445 0.635425 -32.4535)
(5.74262 0.655485 -32.4547)
(5.7799 0.665577 -32.4362)
(6.03794 0.668786 -32.4311)
(6.04082 0.670856 -32.4139)
(6.23338 0.670901 -32.4117)
(6.22901 0.671275 -32.4039)
(6.38064 0.670575 -32.4077)
(6.37455 0.670513 -32.4054)
(6.49674 0.669669 -32.4111)
(6.48996 0.669778 -32.4129)
(6.59048 0.668528 -32.4237)
(6.5834 0.669886 -32.4328)
(6.66759 0.666219 -32.4493)
(6.66105 0.673437 -32.4597)
(6.73141 0.662495 -32.4754)
(6.73058 0.685491 -32.4796)
(6.79688 0.707645 -32.4674)
(4.73355 -0.352086 -32.4453)
(5.19411 -0.55707 -32.4723)
(5.36445 -0.635425 -32.4535)
(5.74262 -0.655485 -32.4547)
(5.7799 -0.665577 -32.4362)
(6.03794 -0.668785 -32.4311)
(6.04083 -0.670856 -32.4139)
(6.23338 -0.670898 -32.4118)
(6.22901 -0.671272 -32.4039)
(6.38064 -0.670567 -32.4077)
(6.37455 -0.670499 -32.4054)
(6.49674 -0.669648 -32.4111)
(6.48998 -0.669738 -32.4129)
(6.59047 -0.668453 -32.4237)
(6.58348 -0.669805 -32.4327)
(6.66754 -0.665935 -32.4493)
(6.66124 -0.67331 -32.4597)
(6.73126 -0.661647 -32.4754)
(6.73083 -0.685023 -32.4796)
(6.79654 -0.706085 -32.4672)
(4.74608 0.0881456 -32.4416)
(5.2508 0.387014 -32.4681)
(5.41113 0.479544 -32.4494)
(5.77391 0.545203 -32.4508)
(5.7874 0.580847 -32.4327)
(6.02181 0.600712 -32.4277)
(5.99807 0.614886 -32.411)
(6.16626 0.622807 -32.4093)
(6.13475 0.62978 -32.4019)
(6.26309 0.634229 -32.4062)
(6.23111 0.638511 -32.4045)
(6.33211 0.641607 -32.4111)
(6.3019 0.644801 -32.4143)
(6.38348 0.646708 -32.4262)
(6.35655 0.650365 -32.4362)
(6.42199 0.648851 -32.4523)
(6.40284 0.658163 -32.4623)
(6.44505 0.64723 -32.4761)
(6.44748 0.670255 -32.4798)
(6.45 0.693113 -32.4668)
(4.75398 -0.649378 -32.4425)
(5.28725 -0.749569 -32.4695)
(5.39042 -0.796832 -32.4538)
(5.69785 -0.767154 -32.455)
(5.64205 -0.749246 -32.439)
(5.81646 -0.734903 -32.4342)
(5.72624 -0.72454 -32.4199)
(5.842 -0.716487 -32.4191)
(5.75155 -0.710478 -32.414)
(5.83644 -0.704909 -32.4188)
(5.7542 -0.700997 -32.4195)
(5.82044 -0.696803 -32.4275)
(5.74783 -0.694365 -32.4338)
(5.80278 -0.690861 -32.4465)
(5.73768 -0.689987 -32.4574)
(5.78876 -0.685947 -32.4705)
(5.72336 -0.688726 -32.4792)
(5.78824 -0.681387 -32.4878)
(5.70447 -0.695769 -32.4905)
(5.84894 -0.705754 -32.4735)
(4.75297 -0.193179 -32.4326)
(5.26114 0.228845 -32.4623)
(5.11953 0.374592 -32.4481)
(5.23362 0.492725 -32.452)
(4.99223 0.557302 -32.4362)
(5.04474 0.593689 -32.4345)
(4.83399 0.617953 -32.4224)
(4.8796 0.631673 -32.4256)
(4.70715 0.642339 -32.422)
(4.75087 0.649083 -32.4298)
(4.61016 0.654632 -32.4317)
(4.65133 0.658719 -32.4426)
(4.53582 0.661968 -32.4488)
(4.57354 0.664698 -32.461)
(4.47888 0.666952 -32.4676)
(4.5097 0.667709 -32.4767)
(4.43855 0.671296 -32.4796)
(4.44358 0.667028 -32.4835)
(4.41926 0.667739 -32.4828)
(4.33332 0.68964 -32.4658)
(4.4125 -0.967633 -32.4281)
(4.3373 -0.873033 -32.4676)
(3.68813 -0.818867 -32.4647)
(3.54266 -0.751892 -32.4697)
(3.14576 -0.724165 -32.4606)
(3.14205 -0.710754 -32.4618)
(2.88181 -0.704118 -32.4572)
(2.92539 -0.700596 -32.4616)
(2.732 -0.69858 -32.4622)
(2.78579 -0.696958 -32.4683)
(2.63312 -0.695932 -32.4714)
(2.68638 -0.694797 -32.4782)
(2.56259 -0.694263 -32.4817)
(2.61187 -0.693377 -32.487)
(2.50969 -0.69282 -32.4887)
(2.55606 -0.692864 -32.4913)
(2.46487 -0.689739 -32.4906)
(2.52858 -0.694229 -32.4905)
(2.40895 -0.685223 -32.4885)
(2.68645 -0.676452 -32.4751)
(2.93128 -0.102095 -32.3818)
(2.10788 0.461558 -32.4322)
(1.39709 0.615804 -32.4306)
(1.28919 0.671819 -32.4372)
(1.05568 0.688471 -32.4312)
(1.08183 0.693324 -32.4357)
(0.941482 0.697437 -32.4319)
(0.986825 0.697679 -32.4366)
(0.881958 0.699694 -32.4348)
(0.927035 0.699523 -32.4392)
(0.84369 0.701163 -32.4383)
(0.884538 0.700714 -32.4422)
(0.816775 0.701847 -32.4416)
(0.852737 0.701332 -32.4443)
(0.796871 0.70183 -32.4434)
(0.828145 0.701816 -32.445)
(0.780522 0.698133 -32.4437)
(0.803186 0.704355 -32.4444)
(0.768668 0.646538 -32.443)
(0.599266 0.659016 -32.4421)
(4.32578 0.566023 0.00708201)
(3.08302 0.84768 0.00461475)
(2.32098 0.869581 0.0058855)
(1.75574 0.852608 0.00440805)
(1.61811 0.855009 0.00555179)
(1.41514 0.866567 0.00438311)
(1.40866 0.876443 0.00533837)
(1.28751 0.88452 0.00435764)
(1.29472 0.888893 0.00513976)
(1.20923 0.892689 0.00431197)
(1.21737 0.894617 0.00495305)
(1.15503 0.896837 0.00425784)
(1.1616 0.897806 0.00478422)
(1.11414 0.899414 0.00420224)
(1.11967 0.899365 0.00463321)
(1.08019 0.901854 0.00414642)
(1.08715 0.894296 0.0044994)
(1.0662 0.916208 0.00408758)
(1.01849 0.792931 0.00440866)
(1.46343 0.819442 0.00397221)
(4.75983 -0.100012 0.00450607)
(4.61601 -0.276988 0.00247421)
(4.53298 -0.476666 0.0037767)
(4.15422 -0.642107 0.00233343)
(4.01418 -0.737959 0.00348488)
(3.73898 -0.793015 0.00232179)
(3.66719 -0.820311 0.00328004)
(3.48307 -0.837404 0.00230248)
(3.44526 -0.847679 0.00308661)
(3.31563 -0.855583 0.00226154)
(3.29228 -0.861021 0.00290447)
(3.19713 -0.865652 0.00221084)
(3.18042 -0.868672 0.0027383)
(3.10715 -0.872099 0.00215697)
(3.09541 -0.872828 0.00258827)
(3.03222 -0.877276 0.00210226)
(3.03418 -0.874448 0.00245046)
(2.95223 -0.880987 0.00204657)
(3.02747 -0.88522 0.00230028)
(2.6358 -0.893227 0.00191821)
(4.63853 0.435196 0.00580423)
(4.82997 0.871044 0.00384887)
(5.14773 0.969112 0.00503306)
(5.09126 0.959925 0.00354923)
(5.15581 0.941714 0.00467447)
(5.02378 0.928507 0.00349821)
(5.03282 0.919173 0.0044497)
(4.91769 0.913385 0.0034683)
(4.91544 0.90705 0.00425009)
(4.82332 0.903523 0.00342326)
(4.81641 0.899103 0.00406496)
(4.74342 0.897055 0.003371)
(4.73401 0.894242 0.00389833)
(4.67644 0.892824 0.00331691)
(4.66385 0.891435 0.00374864)
(4.62239 0.889421 0.00326152)
(4.59631 0.888012 0.00361586)
(4.59509 0.888655 0.00320226)
(4.51714 0.848577 0.00352411)
(4.63802 0.889906 0.00311038)
(4.57675 -0.201642 0.00462558)
(4.70363 -0.398045 0.00288974)
(5.13635 -0.518547 0.0040787)
(5.23896 -0.622943 0.00262428)
(5.45835 -0.690371 0.00375174)
(5.46218 -0.737327 0.00258023)
(5.5765 -0.763817 0.0035348)
(5.55439 -0.783138 0.00255636)
(5.62208 -0.79574 0.00334012)
(5.59508 -0.806338 0.00251576)
(5.6369 -0.814205 0.00315867)
(5.61097 -0.821119 0.00246663)
(5.63753 -0.826479 0.00299446)
(5.61434 -0.831271 0.00241462)
(5.63192 -0.835263 0.00284608)
(5.60917 -0.837786 0.00236124)
(5.62538 -0.845454 0.00270947)
(5.58541 -0.838868 0.00230541)
(5.62907 -0.875217 0.00255795)
(5.43703 -0.895873 0.00220407)
(4.58978 0.341384 0.00527882)
(4.69965 0.688128 0.00358253)
(5.11223 0.802877 0.0047239)
(5.23554 0.844257 0.00325528)
(5.49488 0.861109 0.00436982)
(5.54749 0.870735 0.00319158)
(5.71228 0.87445 0.00414279)
(5.74229 0.876999 0.00316203)
(5.85823 0.876373 0.00394472)
(5.87896 0.876605 0.00311921)
(5.96289 0.875102 0.00376149)
(5.97808 0.874843 0.00306888)
(6.03988 0.873591 0.00359622)
(6.05238 0.872843 0.00301599)
(6.09725 0.872765 0.00344712)
(6.11071 0.869766 0.00296155)
(6.13685 0.873935 0.00331403)
(6.15813 0.86588 0.00290427)
(6.16383 0.869029 0.00320847)
(6.16202 0.9163 0.00283073)
(4.58372 -0.269015 0.00490796)
(4.67154 -0.539118 0.00327612)
(5.07905 -0.653402 0.00441677)
(5.20374 -0.724016 0.00295536)
(5.47445 -0.764258 0.00406828)
(5.54202 -0.791769 0.00289017)
(5.72457 -0.806318 0.0038414)
(5.77369 -0.817051 0.00286093)
(5.90943 -0.822867 0.00364392)
(5.95063 -0.828292 0.00281891)
(6.05466 -0.831566 0.00346151)
(6.08981 -0.835036 0.00276939)
(6.17102 -0.837422 0.00329677)
(6.20134 -0.83947 0.00271687)
(6.26565 -0.842267 0.00314752)
(6.29111 -0.841116 0.00266253)
(6.34296 -0.850113 0.00301198)
(6.354 -0.839101 0.00260576)
(6.41058 -0.869785 0.00288153)
(6.32521 -0.90465 0.00252733)
(4.58372 0.269015 0.00490796)
(4.67154 0.539118 0.00327612)
(5.07905 0.653402 0.00441677)
(5.20374 0.724016 0.00295536)
(5.47445 0.764259 0.00406828)
(5.54202 0.79177 0.00289017)
(5.72457 0.806319 0.0038414)
(5.77369 0.817055 0.00286092)
(5.90942 0.822871 0.00364392)
(5.95064 0.828303 0.0028189)
(6.05465 0.83158 0.00346152)
(6.08983 0.835065 0.00276937)
(6.17099 0.837461 0.00329679)
(6.2014 0.839558 0.00271681)
(6.26558 0.842378 0.00314759)
(6.29129 0.841375 0.00266238)
(6.34284 0.850421 0.00301223)
(6.35456 0.839835 0.00260542)
(6.41083 0.87064 0.00288259)
(6.32619 0.906518 0.00252709)
(4.58978 -0.341384 0.00527882)
(4.69965 -0.688128 0.00358253)
(5.11223 -0.802877 0.0047239)
(5.23554 -0.844256 0.00325528)
(5.49488 -0.861109 0.00436982)
(5.54749 -0.870734 0.00319158)
(5.71228 -0.874449 0.00414279)
(5.74229 -0.876995 0.00316204)
(5.85823 -0.876371 0.00394472)
(5.87896 -0.876593 0.00311922)
(5.9629 -0.875092 0.00376147)
(5.97809 -0.874808 0.00306891)
(6.03991 -0.873562 0.00359618)
(6.0524 -0.872744 0.00301607)
(6.09736 -0.872685 0.00344702)
(6.11073 -0.869494 0.00296172)
(6.13719 -0.873722 0.00331373)
(6.15805 -0.865242 0.00290454)
(6.16449 -0.868413 0.00320745)
(6.16216 -0.914673 0.00283058)
(4.57675 0.201642 0.00462558)
(4.70363 0.398045 0.00288975)
(5.13635 0.518548 0.00407871)
(5.23897 0.622943 0.00262428)
(5.45835 0.690371 0.00375174)
(5.46218 0.737328 0.00258023)
(5.5765 0.763818 0.0035348)
(5.5544 0.783139 0.00255636)
(5.62208 0.795746 0.00334012)
(5.5951 0.806344 0.00251577)
(5.63689 0.81422 0.00315866)
(5.61104 0.821137 0.00246664)
(5.63751 0.826522 0.00299445)
(5.61451 0.831328 0.00241463)
(5.63192 0.835381 0.00284608)
(5.60964 0.837969 0.00236121)
(5.6255 0.845777 0.00270959)
(5.58666 0.839496 0.00230526)
(5.63001 0.876121 0.00255889)
(5.44022 0.897568 0.00220388)
(4.63853 -0.435196 0.00580424)
(4.82997 -0.871044 0.00384888)
(5.14773 -0.969112 0.00503307)
(5.09126 -0.959925 0.00354923)
(5.15581 -0.941714 0.00467447)
(5.02378 -0.928506 0.00349821)
(5.03282 -0.919173 0.0044497)
(4.91769 -0.913382 0.00346831)
(4.91545 -0.907049 0.00425009)
(4.82334 -0.903514 0.00342328)
(4.81642 -0.899098 0.00406493)
(4.74349 -0.897027 0.00337106)
(4.73405 -0.894231 0.00389825)
(4.67661 -0.892741 0.00331705)
(4.66398 -0.891413 0.0037484)
(4.62282 -0.889202 0.00326187)
(4.59678 -0.887974 0.00361526)
(4.59606 -0.888227 0.00320287)
(4.51844 -0.848473 0.00352266)
(4.64042 -0.889391 0.00311068)
(4.75983 0.100012 0.00450607)
(4.61601 0.276988 0.00247421)
(4.53298 0.476666 0.00377669)
(4.15423 0.642107 0.00233343)
(4.01418 0.73796 0.00348488)
(3.73899 0.793015 0.00232179)
(3.66719 0.820312 0.00328003)
(3.48308 0.837403 0.00230249)
(3.44526 0.847683 0.00308661)
(3.31566 0.855582 0.00226154)
(3.29229 0.861033 0.00290447)
(3.19722 0.865648 0.00221085)
(3.18044 0.868705 0.00273829)
(3.10739 0.872088 0.00215701)
(3.0955 0.87292 0.0025882)
(3.03291 0.877265 0.0021024)
(3.03446 0.874703 0.00245025)
(2.9543 0.881146 0.00204689)
(3.02807 0.885978 0.00230023)
(2.64314 0.894684 0.00191901)
(4.32578 -0.566023 0.00708198)
(3.08302 -0.84768 0.00461472)
(2.32098 -0.869581 0.00588547)
(1.75574 -0.852608 0.00440802)
(1.61811 -0.85501 0.00555176)
(1.41514 -0.866567 0.00438308)
(1.40866 -0.876444 0.00533834)
(1.28751 -0.884519 0.00435762)
(1.29473 -0.888894 0.00513973)
(1.20924 -0.892685 0.00431195)
(1.21739 -0.894621 0.00495302)
(1.15507 -0.896823 0.00425784)
(1.16165 -0.89782 0.00478416)
(1.11425 -0.899371 0.0042023)
(1.11982 -0.899412 0.00463305)
(1.08046 -0.901737 0.00414664)
(1.08762 -0.894481 0.00449893)
(1.0668 -0.916037 0.0040883)
(1.01991 -0.793884 0.00440675)
(1.46401 -0.820804 0.00397549)
(4.37967 0.0972026 0.00145684)
(3.97111 0.14913 0.00200107)
(3.43847 0.163003 0.00104612)
(2.96489 0.156817 0.00158837)
(2.55581 0.145323 0.00106471)
(2.25514 0.136905 0.00148093)
(2.03249 0.131956 0.00113743)
(1.8814 0.131536 0.00139967)
(1.77952 0.133761 0.0011679)
(1.70732 0.138155 0.00132111)
(1.66259 0.14314 0.00117742)
(1.62327 0.14861 0.00125842)
(1.60185 0.153298 0.00118371)
(1.57573 0.158258 0.00121538)
(1.56321 0.161112 0.00119431)
(1.5461 0.166428 0.00118929)
(1.53057 0.164818 0.00121433)
(1.53697 0.175281 0.00117422)
(1.48694 0.160338 0.00122721)
(1.57113 0.167808 0.00124259)
(4.54247 0.0878845 0.00324869)
(4.68235 0.119448 0.00397171)
(4.72707 0.12061 0.00301017)
(4.71868 0.0942616 0.00352696)
(4.64424 0.0561905 0.00297761)
(4.55228 0.0141286 0.00337837)
(4.44822 -0.0235529 0.00302552)
(4.34706 -0.0559569 0.00328364)
(4.25493 -0.0808429 0.00304992)
(4.16717 -0.100709 0.00320328)
(4.09397 -0.115224 0.00306014)
(4.02171 -0.126941 0.00314244)
(3.96504 -0.135452 0.00306869)
(3.90583 -0.142787 0.003101)
(3.86242 -0.148166 0.00308085)
(3.81417 -0.152614 0.00307454)
(3.78008 -0.157573 0.00310305)
(3.74511 -0.15823 0.00305605)
(3.71007 -0.165578 0.00315123)
(3.69755 -0.169631 0.00315494)
(4.51776 0.0458124 0.00181396)
(4.66041 0.110548 0.00242157)
(4.7949 0.162788 0.0014923)
(4.9458 0.191067 0.00201368)
(5.05529 0.201291 0.00147142)
(5.14223 0.202282 0.00187956)
(5.19579 0.19914 0.00153506)
(5.22855 0.196182 0.00179799)
(5.24618 0.194254 0.00156903)
(5.2504 0.193801 0.00172353)
(5.25127 0.194211 0.00158239)
(5.24356 0.195203 0.00166454)
(5.23724 0.196036 0.00159179)
(5.22596 0.197267 0.00162421)
(5.21519 0.196872 0.00160412)
(5.20547 0.199592 0.00160008)
(5.18898 0.194074 0.00162255)
(5.1868 0.204982 0.00159155)
(5.15981 0.18361 0.00161785)
(5.17071 0.209499 0.00165097)
(4.51379 0.0442049 0.00283224)
(4.62595 0.0508804 0.00354948)
(4.75257 0.0465119 0.00264465)
(4.91462 0.0289271 0.00317104)
(5.05602 0.00670039 0.00261433)
(5.19063 -0.018303 0.00301056)
(5.29982 -0.0419647 0.00265505)
(5.39232 -0.0633596 0.0029127)
(5.46954 -0.0809645 0.00267917)
(5.53245 -0.0955634 0.00283192)
(5.58957 -0.107101 0.00268873)
(5.63583 -0.116452 0.0027704)
(5.68134 -0.124156 0.00269686)
(5.71822 -0.130142 0.00272933)
(5.75569 -0.136134 0.0027093)
(5.78588 -0.139035 0.00270519)
(5.81816 -0.146205 0.00273175)
(5.83945 -0.144051 0.00269792)
(5.87447 -0.155157 0.00278552)
(5.87279 -0.151879 0.0027907)
(4.51491 0.0166188 0.00213181)
(4.62712 0.0557474 0.0028036)
(4.74675 0.0914377 0.00190862)
(4.90282 0.117015 0.00242642)
(5.04202 0.133251 0.00186797)
(5.18032 0.144321 0.00226476)
(5.29794 0.152048 0.00191217)
(5.40324 0.158729 0.00217205)
(5.49615 0.164533 0.00194112)
(5.57722 0.170077 0.00209504)
(5.65433 0.174934 0.00195342)
(5.72178 0.179438 0.00203541)
(5.79008 0.182911 0.00196248)
(5.84966 0.186409 0.00199476)
(5.91223 0.1879 0.0019745)
(5.96441 0.191827 0.00197101)
(6.02552 0.188916 0.00199319)
(6.06246 0.198638 0.00196777)
(6.13874 0.184087 0.00200419)
(6.13539 0.209853 0.00203669)
(4.51364 0.0119268 0.00246475)
(4.61927 -0.00404256 0.00316569)
(4.73749 -0.0234697 0.00227836)
(4.89188 -0.0449188 0.00280194)
(5.03024 -0.0639761 0.00224189)
(5.16844 -0.0816974 0.00263686)
(5.28713 -0.0971028 0.00228172)
(5.3946 -0.110768 0.00254052)
(5.491 -0.12221 0.0023085)
(5.57629 -0.131948 0.00246216)
(5.65906 -0.139959 0.00232014)
(5.73224 -0.146556 0.00240213)
(5.80835 -0.152074 0.00232901)
(5.87433 -0.1564 0.00236124)
(5.94736 -0.160309 0.00234094)
(6.00495 -0.163009 0.00233723)
(6.08082 -0.165816 0.00236138)
(6.11876 -0.168227 0.0023346)
(6.21766 -0.167833 0.00239934)
(6.20636 -0.177074 0.00241522)
(4.51364 -0.0119269 0.00246476)
(4.61927 0.00404283 0.00316569)
(4.73749 0.0234696 0.00227837)
(4.89188 0.0449195 0.00280194)
(5.03024 0.0639758 0.00224189)
(5.16844 0.0816992 0.00263687)
(5.28712 0.0971031 0.00228172)
(5.3946 0.110773 0.00254052)
(5.49099 0.122213 0.0023085)
(5.57629 0.131961 0.00246217)
(5.65906 0.13997 0.00232013)
(5.73224 0.146591 0.00240215)
(5.80835 0.152104 0.002329)
(5.87434 0.156503 0.00236129)
(5.94736 0.16038 0.00234088)
(6.00498 0.163305 0.00233736)
(6.08084 0.165997 0.00236108)
(6.11883 0.168973 0.00233481)
(6.21777 0.16848 0.00239777)
(6.20658 0.178581 0.00241548)
(4.51491 -0.0166189 0.00213181)
(4.62712 -0.0557471 0.0028036)
(4.74675 -0.0914379 0.00190863)
(4.90282 -0.117015 0.00242642)
(5.04202 -0.133251 0.00186797)
(5.18032 -0.144319 0.00226476)
(5.29794 -0.152047 0.00191218)
(5.40324 -0.158724 0.00217205)
(5.49616 -0.164531 0.00194112)
(5.57722 -0.170064 0.00209503)
(5.65433 -0.174924 0.00195343)
(5.72178 -0.179402 0.0020354)
(5.7901 -0.182884 0.0019625)
(5.84966 -0.186306 0.00199472)
(5.91229 -0.187834 0.00197457)
(5.96442 -0.191534 0.00197087)
(6.02569 -0.188748 0.00199345)
(6.06254 -0.197913 0.00196755)
(6.13913 -0.18349 0.00200552)
(6.13575 -0.208447 0.00203639)
(4.51379 -0.044205 0.00283225)
(4.62595 -0.0508802 0.00354949)
(4.75257 -0.046512 0.00264465)
(4.91462 -0.0289264 0.00317105)
(5.05602 -0.00670049 0.00261433)
(5.19063 0.0183045 0.00301057)
(5.29981 0.0419652 0.00265505)
(5.39233 0.0633637 0.00291272)
(5.46954 0.0809679 0.00267917)
(5.53246 0.0955743 0.00283194)
(5.58957 0.107113 0.00268871)
(5.63587 0.116482 0.00277043)
(5.68134 0.124185 0.00269682)
(5.71831 0.130235 0.00272939)
(5.75574 0.136199 0.00270921)
(5.78607 0.139306 0.0027053)
(5.8184 0.146358 0.00273142)
(5.83988 0.144752 0.00269809)
(5.87528 0.155711 0.00278406)
(5.87396 0.153315 0.00279062)
(4.51776 -0.0458124 0.00181396)
(4.66041 -0.110548 0.00242158)
(4.7949 -0.162788 0.0014923)
(4.9458 -0.191066 0.00201368)
(5.05529 -0.201291 0.00147142)
(5.14223 -0.20228 0.00187957)
(5.19579 -0.199139 0.00153507)
(5.22856 -0.196178 0.001798)
(5.24617 -0.194252 0.00156902)
(5.25043 -0.19379 0.00172354)
(5.25125 -0.194204 0.00158238)
(5.24364 -0.195173 0.00166456)
(5.23723 -0.196019 0.00159176)
(5.22616 -0.197179 0.00162423)
(5.21523 -0.196835 0.00160409)
(5.20591 -0.199347 0.00160008)
(5.18929 -0.193987 0.0016226)
(5.18774 -0.204394 0.00159153)
(5.16101 -0.183259 0.00161847)
(5.17288 -0.208521 0.00165096)
(4.54247 -0.0878845 0.00324869)
(4.68235 -0.119448 0.00397171)
(4.72707 -0.12061 0.00301017)
(4.71868 -0.0942615 0.00352697)
(4.64424 -0.0561901 0.00297761)
(4.55229 -0.0141282 0.00337837)
(4.44822 0.0235543 0.00302552)
(4.34708 0.055958 0.00328365)
(4.25493 0.0808472 0.0030499)
(4.16722 0.100712 0.00320332)
(4.09397 0.115235 0.00306009)
(4.02183 0.126951 0.00314253)
(3.96502 0.135476 0.00306854)
(3.90617 0.142827 0.00310124)
(3.86243 0.148211 0.00308046)
(3.815 0.15275 0.00307515)
(3.78027 0.157656 0.00310199)
(3.74706 0.158607 0.00305744)
(3.71098 0.165874 0.00314845)
(3.70217 0.170395 0.0031575)
(4.37967 -0.0972026 0.00145684)
(3.97111 -0.14913 0.00200108)
(3.43847 -0.163003 0.00104612)
(2.96489 -0.156816 0.00158837)
(2.55581 -0.145323 0.00106471)
(2.25514 -0.136905 0.00148093)
(2.03249 -0.131956 0.00113743)
(1.88141 -0.131535 0.00139967)
(1.77953 -0.133761 0.0011679)
(1.70735 -0.138154 0.00132112)
(1.66261 -0.143139 0.00117742)
(1.62335 -0.148605 0.00125843)
(1.60192 -0.153295 0.00118371)
(1.57593 -0.158243 0.0012154)
(1.56343 -0.161112 0.0011943)
(1.54655 -0.166378 0.00118934)
(1.53126 -0.164842 0.00121414)
(1.53811 -0.175152 0.00117465)
(1.48839 -0.160428 0.00122612)
(1.57525 -0.167904 0.00124452)
(4.37967 0.0972026 -0.00145685)
(3.97111 0.14913 -0.00200109)
(3.43847 0.163003 -0.00104613)
(2.96489 0.156817 -0.00158838)
(2.55581 0.145323 -0.00106472)
(2.25514 0.136905 -0.00148094)
(2.03249 0.131956 -0.00113744)
(1.8814 0.131536 -0.00139968)
(1.77952 0.133761 -0.00116792)
(1.70732 0.138155 -0.00132113)
(1.66259 0.14314 -0.00117743)
(1.62327 0.14861 -0.00125844)
(1.60185 0.153298 -0.00118373)
(1.57573 0.158258 -0.0012154)
(1.56321 0.161112 -0.00119433)
(1.5461 0.166428 -0.0011893)
(1.53057 0.164818 -0.00121435)
(1.53697 0.175281 -0.00117424)
(1.48694 0.160338 -0.00122722)
(1.57113 0.167808 -0.0012426)
(4.54247 0.0878845 -0.0032487)
(4.68235 0.119448 -0.00397172)
(4.72707 0.12061 -0.00301019)
(4.71868 0.0942616 -0.00352698)
(4.64424 0.0561904 -0.00297762)
(4.55228 0.0141286 -0.00337838)
(4.44822 -0.0235529 -0.00302554)
(4.34706 -0.0559568 -0.00328365)
(4.25493 -0.0808429 -0.00304994)
(4.16717 -0.100709 -0.0032033)
(4.09397 -0.115224 -0.00306016)
(4.02171 -0.126941 -0.00314245)
(3.96504 -0.135451 -0.0030687)
(3.90583 -0.142787 -0.00310101)
(3.86242 -0.148166 -0.00308087)
(3.81417 -0.152614 -0.00307455)
(3.78008 -0.157573 -0.00310306)
(3.74511 -0.15823 -0.00305606)
(3.71007 -0.165578 -0.00315125)
(3.69755 -0.169631 -0.00315495)
(4.51776 0.0458124 -0.00181398)
(4.66041 0.110548 -0.00242159)
(4.7949 0.162788 -0.00149232)
(4.9458 0.191067 -0.00201369)
(5.05529 0.201291 -0.00147144)
(5.14223 0.202282 -0.00187958)
(5.19579 0.19914 -0.00153508)
(5.22855 0.196182 -0.001798)
(5.24618 0.194254 -0.00156904)
(5.2504 0.193801 -0.00172354)
(5.25127 0.194211 -0.0015824)
(5.24356 0.195203 -0.00166455)
(5.23724 0.196036 -0.0015918)
(5.22596 0.197267 -0.00162422)
(5.21519 0.196872 -0.00160413)
(5.20547 0.199592 -0.00160009)
(5.18898 0.194074 -0.00162256)
(5.1868 0.204982 -0.00159157)
(5.15981 0.18361 -0.00161787)
(5.17071 0.209499 -0.00165098)
(4.51379 0.0442049 -0.00283226)
(4.62595 0.0508804 -0.0035495)
(4.75257 0.0465119 -0.00264466)
(4.91462 0.0289271 -0.00317106)
(5.05602 0.00670041 -0.00261435)
(5.19063 -0.0183029 -0.00301057)
(5.29982 -0.0419646 -0.00265506)
(5.39232 -0.0633595 -0.00291272)
(5.46954 -0.0809644 -0.00267919)
(5.53245 -0.0955634 -0.00283194)
(5.58957 -0.107101 -0.00268875)
(5.63583 -0.116452 -0.00277041)
(5.68134 -0.124156 -0.00269688)
(5.71822 -0.130143 -0.00272934)
(5.75569 -0.136134 -0.00270931)
(5.78588 -0.139036 -0.00270521)
(5.81816 -0.146205 -0.00273176)
(5.83945 -0.144051 -0.00269793)
(5.87447 -0.155157 -0.00278553)
(5.87279 -0.151879 -0.00279072)
(4.51491 0.0166188 -0.00213183)
(4.62712 0.0557474 -0.00280361)
(4.74675 0.0914377 -0.00190864)
(4.90282 0.117015 -0.00242643)
(5.04201 0.133251 -0.00186798)
(5.18032 0.144321 -0.00226478)
(5.29794 0.152048 -0.00191219)
(5.40324 0.158729 -0.00217206)
(5.49615 0.164533 -0.00194113)
(5.57722 0.170077 -0.00209505)
(5.65432 0.174934 -0.00195344)
(5.72178 0.179438 -0.00203542)
(5.79008 0.182911 -0.0019625)
(5.84966 0.186409 -0.00199478)
(5.91223 0.1879 -0.00197451)
(5.96441 0.191827 -0.00197102)
(6.02552 0.188916 -0.0019932)
(6.06246 0.198638 -0.00196778)
(6.13874 0.184087 -0.0020042)
(6.13539 0.209853 -0.0020367)
(4.51364 0.0119268 -0.00246477)
(4.61927 -0.00404256 -0.0031657)
(4.73749 -0.0234697 -0.00227838)
(4.89188 -0.0449188 -0.00280195)
(5.03024 -0.063976 -0.0022419)
(5.16844 -0.0816973 -0.00263688)
(5.28713 -0.0971027 -0.00228173)
(5.3946 -0.110768 -0.00254053)
(5.491 -0.12221 -0.00230851)
(5.57629 -0.131948 -0.00246217)
(5.65906 -0.139959 -0.00232015)
(5.73224 -0.146556 -0.00240214)
(5.80835 -0.152074 -0.00232903)
(5.87433 -0.1564 -0.00236125)
(5.94736 -0.160309 -0.00234095)
(6.00495 -0.163009 -0.00233724)
(6.08082 -0.165816 -0.00236139)
(6.11876 -0.168227 -0.00233461)
(6.21766 -0.167833 -0.00239936)
(6.20636 -0.177074 -0.00241523)
(4.51364 -0.0119269 -0.00246477)
(4.61927 0.00404282 -0.0031657)
(4.73749 0.0234695 -0.00227838)
(4.89188 0.0449195 -0.00280195)
(5.03024 0.0639759 -0.0022419)
(5.16844 0.0816993 -0.00263688)
(5.28712 0.0971032 -0.00228173)
(5.3946 0.110773 -0.00254053)
(5.49099 0.122213 -0.00230851)
(5.57629 0.131961 -0.00246218)
(5.65906 0.13997 -0.00232014)
(5.73224 0.146591 -0.00240216)
(5.80835 0.152104 -0.00232901)
(5.87434 0.156503 -0.0023613)
(5.94736 0.16038 -0.00234089)
(6.00498 0.163305 -0.00233737)
(6.08084 0.165996 -0.00236109)
(6.11883 0.168973 -0.00233482)
(6.21777 0.16848 -0.00239778)
(6.20658 0.178581 -0.00241549)
(4.51491 -0.0166189 -0.00213182)
(4.62712 -0.0557471 -0.00280361)
(4.74675 -0.0914379 -0.00190863)
(4.90282 -0.117015 -0.00242643)
(5.04202 -0.133251 -0.00186798)
(5.18032 -0.144319 -0.00226477)
(5.29794 -0.152047 -0.00191218)
(5.40324 -0.158724 -0.00217206)
(5.49616 -0.164531 -0.00194113)
(5.57722 -0.170064 -0.00209504)
(5.65433 -0.174924 -0.00195344)
(5.72178 -0.179402 -0.00203541)
(5.7901 -0.182884 -0.00196251)
(5.84966 -0.186306 -0.00199473)
(5.91229 -0.187834 -0.00197458)
(5.96442 -0.191535 -0.00197089)
(6.02569 -0.188749 -0.00199347)
(6.06254 -0.197914 -0.00196756)
(6.13913 -0.18349 -0.00200553)
(6.13575 -0.208447 -0.0020364)
(4.51379 -0.044205 -0.00283225)
(4.62595 -0.0508802 -0.00354949)
(4.75257 -0.046512 -0.00264466)
(4.91462 -0.0289265 -0.00317106)
(5.05602 -0.00670046 -0.00261434)
(5.19063 0.0183046 -0.00301057)
(5.29981 0.0419653 -0.00265505)
(5.39233 0.0633638 -0.00291272)
(5.46954 0.0809679 -0.00267918)
(5.53246 0.0955743 -0.00283195)
(5.58957 0.107113 -0.00268872)
(5.63587 0.116482 -0.00277044)
(5.68134 0.124185 -0.00269684)
(5.71831 0.130235 -0.0027294)
(5.75574 0.136199 -0.00270922)
(5.78606 0.139306 -0.00270532)
(5.8184 0.146358 -0.00273143)
(5.83987 0.144752 -0.0026981)
(5.87528 0.155711 -0.00278406)
(5.87395 0.153315 -0.00279063)
(4.51776 -0.0458124 -0.00181397)
(4.66041 -0.110548 -0.00242159)
(4.7949 -0.162788 -0.00149231)
(4.9458 -0.191066 -0.00201369)
(5.05529 -0.201291 -0.00147143)
(5.14223 -0.20228 -0.00187958)
(5.19579 -0.199139 -0.00153507)
(5.22856 -0.196178 -0.001798)
(5.24617 -0.194252 -0.00156903)
(5.25043 -0.19379 -0.00172355)
(5.25125 -0.194204 -0.00158239)
(5.24364 -0.195173 -0.00166457)
(5.23723 -0.196019 -0.00159178)
(5.22616 -0.197179 -0.00162424)
(5.21523 -0.196835 -0.00160411)
(5.20591 -0.199347 -0.00160009)
(5.18929 -0.193987 -0.00162261)
(5.18774 -0.204394 -0.00159154)
(5.16101 -0.183259 -0.00161848)
(5.17288 -0.208521 -0.00165097)
(4.54247 -0.0878845 -0.0032487)
(4.68235 -0.119448 -0.00397172)
(4.72707 -0.12061 -0.00301018)
(4.71868 -0.0942615 -0.00352698)
(4.64424 -0.0561901 -0.00297762)
(4.55229 -0.0141282 -0.00337838)
(4.44822 0.0235543 -0.00302553)
(4.34708 0.055958 -0.00328366)
(4.25493 0.0808473 -0.00304992)
(4.16722 0.100712 -0.00320333)
(4.09397 0.115235 -0.0030601)
(4.02183 0.126951 -0.00314254)
(3.96502 0.135476 -0.00306855)
(3.90617 0.142827 -0.00310125)
(3.86243 0.148211 -0.00308047)
(3.815 0.15275 -0.00307516)
(3.78026 0.157656 -0.003102)
(3.74706 0.158607 -0.00305745)
(3.71098 0.165874 -0.00314846)
(3.70217 0.170395 -0.00315752)
(4.37967 -0.0972026 -0.00145685)
(3.97111 -0.14913 -0.00200108)
(3.43847 -0.163003 -0.00104613)
(2.96489 -0.156816 -0.00158838)
(2.55581 -0.145323 -0.00106472)
(2.25514 -0.136905 -0.00148094)
(2.03249 -0.131956 -0.00113744)
(1.88141 -0.131535 -0.00139968)
(1.77953 -0.133761 -0.00116791)
(1.70735 -0.138154 -0.00132113)
(1.66261 -0.143138 -0.00117743)
(1.62335 -0.148605 -0.00125843)
(1.60192 -0.153295 -0.00118372)
(1.57593 -0.158243 -0.0012154)
(1.56343 -0.161112 -0.00119431)
(1.54655 -0.166378 -0.00118935)
(1.53126 -0.164842 -0.00121415)
(1.53811 -0.175152 -0.00117466)
(1.48839 -0.160428 -0.00122613)
(1.57525 -0.167904 -0.00124453)
(4.32578 0.566023 -0.00708198)
(3.08302 0.84768 -0.00461472)
(2.32098 0.869581 -0.00588547)
(1.75574 0.852608 -0.00440803)
(1.61811 0.855009 -0.00555177)
(1.41514 0.866567 -0.00438309)
(1.40866 0.876443 -0.00533835)
(1.28751 0.88452 -0.00435762)
(1.29472 0.888893 -0.00513974)
(1.20922 0.892689 -0.00431194)
(1.21737 0.894617 -0.00495303)
(1.15503 0.896837 -0.00425782)