/*--------------------------------*- C++ -*----------------------------------*\
  =========                 |
  \\      /  F ield         | OpenFOAM: The Open Source CFD Toolbox
   \\    /   O peration     | Website:  https://openfoam.org
    \\  /    A nd           | Version:  7
     \\/     M anipulation  |
\*---------------------------------------------------------------------------*/
FoamFile
{
    version     2.0;
    format      ascii;
    class       volSymmTensorField;
    location    "0.28";
    object      UPrime2Mean;
}
// * * * * * * * * * * * * * * * * * * * * * * * * * * * * * * * * * * * * * //

dimensions      [0 2 -2 0 0 0 0];

internalField   nonuniform List<symmTensor> 
1600
(
(6.95545e-05 2.56167e-05 0 3.29699e-05 0 0)
(6.87793e-05 1.00267e-05 0 5.75879e-06 0 0)
(5.07603e-05 2.45412e-06 0 1.15893e-06 0 0)
(5.01561e-05 1.00528e-06 0 3.07614e-07 0 0)
(5.23211e-05 5.89457e-07 0 1.1003e-07 0 0)
(5.44921e-05 4.09893e-07 0 5.36464e-08 0 0)
(5.64186e-05 3.01667e-07 0 3.19295e-08 0 0)
(5.81758e-05 2.26975e-07 0 2.10472e-08 0 0)
(5.98037e-05 1.73e-07 0 1.46501e-08 0 0)
(6.13228e-05 1.3497e-07 0 1.06534e-08 0 0)
(6.27459e-05 1.09091e-07 0 8.0737e-09 0 0)
(6.40795e-05 9.22779e-08 0 6.3417e-09 0 0)
(6.53285e-05 8.17558e-08 0 5.13371e-09 0 0)
(6.64971e-05 7.57077e-08 0 4.25397e-09 0 0)
(6.7589e-05 7.29533e-08 0 3.59652e-09 0 0)
(6.8608e-05 7.24055e-08 0 3.08615e-09 0 0)
(6.95572e-05 7.33144e-08 0 2.67845e-09 0 0)
(7.04393e-05 7.53799e-08 0 2.34708e-09 0 0)
(7.12562e-05 7.81537e-08 0 2.07057e-09 0 0)
(7.20095e-05 8.16334e-08 0 1.83565e-09 0 0)
(7.27003e-05 8.57101e-08 0 1.63375e-09 0 0)
(7.33294e-05 9.02051e-08 0 1.46014e-09 0 0)
(7.38974e-05 9.50699e-08 0 1.30906e-09 0 0)
(7.44046e-05 1.00198e-07 0 1.17772e-09 0 0)
(7.48515e-05 1.05602e-07 0 1.06263e-09 0 0)
(7.52388e-05 1.11282e-07 0 9.62159e-10 0 0)
(7.55672e-05 1.17222e-07 0 8.7523e-10 0 0)
(7.58378e-05 1.23369e-07 0 8.01697e-10 0 0)
(7.60517e-05 1.29729e-07 0 7.41178e-10 0 0)
(7.62104e-05 1.36275e-07 0 6.95459e-10 0 0)
(7.63154e-05 1.43075e-07 0 6.67616e-10 0 0)
(7.63678e-05 1.50264e-07 0 6.63618e-10 0 0)
(7.63682e-05 1.58139e-07 0 6.96003e-10 0 0)
(7.63147e-05 1.67232e-07 0 7.92615e-10 0 0)
(7.62014e-05 1.78523e-07 0 1.01936e-09 0 0)
(7.60123e-05 1.94115e-07 0 1.55037e-09 0 0)
(7.57223e-05 2.1875e-07 0 2.94599e-09 0 0)
(7.53434e-05 2.46259e-07 0 6.69435e-09 0 0)
(7.45872e-05 2.91062e-07 0 2.31844e-08 0 0)
(7.43275e-05 3.93983e-07 0 1.46084e-07 0 0)
(6.85828e-05 1.85836e-05 0 6.16934e-05 0 0)
(5.83532e-05 4.27073e-06 0 2.68956e-05 0 0)
(5.78041e-05 -4.47304e-06 0 1.12892e-05 0 0)
(7.38995e-05 -7.30656e-06 0 5.05966e-06 0 0)
(9.61176e-05 -7.48001e-06 0 2.68479e-06 0 0)
(0.000118009 -6.82545e-06 0 1.67767e-06 0 0)
(0.000138063 -6.10077e-06 0 1.16801e-06 0 0)
(0.000156204 -5.48019e-06 0 8.69465e-07 0 0)
(0.000172596 -4.96285e-06 0 6.78906e-07 0 0)
(0.000187438 -4.52144e-06 0 5.51802e-07 0 0)
(0.00020092 -4.13574e-06 0 4.64118e-07 0 0)
(0.000213206 -3.79151e-06 0 4.01275e-07 0 0)
(0.000224439 -3.47937e-06 0 3.54289e-07 0 0)
(0.000234739 -3.19349e-06 0 3.17535e-07 0 0)
(0.000244205 -2.92927e-06 0 2.87496e-07 0 0)
(0.000252918 -2.68233e-06 0 2.61868e-07 0 0)
(0.000260944 -2.4497e-06 0 2.39297e-07 0 0)
(0.000268339 -2.22822e-06 0 2.18829e-07 0 0)
(0.000275144 -2.01566e-06 0 1.99939e-07 0 0)
(0.000281396 -1.81002e-06 0 1.82254e-07 0 0)
(0.00028712 -1.60974e-06 0 1.65565e-07 0 0)
(0.000292338 -1.41377e-06 0 1.49766e-07 0 0)
(0.000297069 -1.22132e-06 0 1.34805e-07 0 0)
(0.000301326 -1.03209e-06 0 1.20629e-07 0 0)
(0.000305125 -8.45959e-07 0 1.07246e-07 0 0)
(0.000308477 -6.62955e-07 0 9.46773e-08 0 0)
(0.000311396 -4.83481e-07 0 8.29419e-08 0 0)
(0.000313896 -3.08369e-07 0 7.20815e-08 0 0)
(0.000315992 -1.3821e-07 0 6.21331e-08 0 0)
(0.000317701 2.6231e-08 0 5.31435e-08 0 0)
(0.000319043 1.84435e-07 0 4.51728e-08 0 0)
(0.000320037 3.3675e-07 0 3.83029e-08 0 0)
(0.000320705 4.84627e-07 0 3.26752e-08 0 0)
(0.000321065 6.32063e-07 0 2.85688e-08 0 0)
(0.000321132 7.86482e-07 0 2.66008e-08 0 0)
(0.000320907 9.61125e-07 0 2.82307e-08 0 0)
(0.000320368 1.17644e-06 0 3.73778e-08 0 0)
(0.000319782 1.44797e-06 0 6.57961e-08 0 0)
(0.000318577 1.75415e-06 0 1.44166e-07 0 0)
(0.000317577 2.06781e-06 0 5.4337e-07 0 0)
(6.87288e-05 1.97805e-05 0 8.32529e-05 0 0)
(5.11289e-05 2.38476e-06 0 5.44878e-05 0 0)
(4.49306e-05 -1.13713e-05 0 3.30952e-05 0 0)
(6.0447e-05 -1.98128e-05 0 2.04144e-05 0 0)
(8.9416e-05 -2.34141e-05 0 1.33877e-05 0 0)
(0.000123697 -2.40785e-05 0 9.39871e-06 0 0)
(0.000159332 -2.34051e-05 0 6.96814e-06 0 0)
(0.000194404 -2.22059e-05 0 5.3877e-06 0 0)
(0.000227926 -2.08358e-05 0 4.31606e-06 0 0)
(0.000259453 -1.94497e-05 0 3.56949e-06 0 0)
(0.000288854 -1.81148e-05 0 3.03616e-06 0 0)
(0.00031616 -1.6857e-05 0 2.64426e-06 0 0)
(0.000341476 -1.56812e-05 0 2.34616e-06 0 0)
(0.00036493 -1.45849e-05 0 2.1105e-06 0 0)
(0.000386662 -1.35611e-05 0 1.91668e-06 0 0)
(0.000406797 -1.26007e-05 0 1.7511e-06 0 0)
(0.000425448 -1.16935e-05 0 1.60501e-06 0 0)
(0.000442714 -1.08297e-05 0 1.47255e-06 0 0)
(0.000458677 -9.99979e-06 0 1.34999e-06 0 0)
(0.000473406 -9.19636e-06 0 1.23499e-06 0 0)
(0.000486956 -8.4141e-06 0 1.12611e-06 0 0)
(0.000499377 -7.64876e-06 0 1.02256e-06 0 0)
(0.000510708 -6.89785e-06 0 9.23951e-07 0 0)
(0.000520982 -6.15974e-06 0 8.30071e-07 0 0)
(0.000530231 -5.43422e-06 0 7.40972e-07 0 0)
(0.000538485 -4.72184e-06 0 6.56752e-07 0 0)
(0.000545771 -4.02428e-06 0 5.77611e-07 0 0)
(0.000552121 -3.34409e-06 0 5.03775e-07 0 0)
(0.000557568 -2.6839e-06 0 4.35472e-07 0 0)
(0.000562149 -2.04672e-06 0 3.72948e-07 0 0)
(0.000565905 -1.43515e-06 0 3.1646e-07 0 0)
(0.000568883 -8.50523e-07 0 2.66316e-07 0 0)
(0.000571133 -2.92237e-07 0 2.22966e-07 0 0)
(0.00057271 2.44885e-07 0 1.87134e-07 0 0)
(0.000573674 7.71232e-07 0 1.60216e-07 0 0)
(0.000574088 1.3037e-06 0 1.45015e-07 0 0)
(0.000574038 1.86396e-06 0 1.47571e-07 0 0)
(0.000573875 2.48328e-06 0 1.81882e-07 0 0)
(0.000573106 2.97196e-06 0 2.74734e-07 0 0)
(0.000572316 3.44402e-06 0 5.82803e-07 0 0)
(6.38852e-05 1.28696e-05 0 8.0741e-05 0 0)
(4.54321e-05 9.35709e-07 0 7.28016e-05 0 0)
(3.30415e-05 -1.08289e-05 0 5.9751e-05 0 0)
(4.053e-05 -2.42668e-05 0 4.65405e-05 0 0)
(6.42751e-05 -3.45139e-05 0 3.55424e-05 0 0)
(9.84237e-05 -4.04238e-05 0 2.72349e-05 0 0)
(0.000138714 -4.30194e-05 0 2.11917e-05 0 0)
(0.000182049 -4.35111e-05 0 1.68466e-05 0 0)
(0.000226206 -4.27591e-05 0 1.37221e-05 0 0)
(0.000269741 -4.13109e-05 0 1.14592e-05 0 0)
(0.00031181 -3.95016e-05 0 9.79797e-06 0 0)
(0.000351962 -3.75298e-05 0 8.55321e-06 0 0)
(0.000389982 -3.55091e-05 0 7.59485e-06 0 0)
(0.000425803 -3.35016e-05 0 6.83267e-06 0 0)
(0.000459438 -3.15381e-05 0 6.20492e-06 0 0)
(0.000490944 -2.96314e-05 0 5.66978e-06 0 0)
(0.0005204 -2.77832e-05 0 5.19935e-06 0 0)
(0.000547888 -2.5989e-05 0 4.77487e-06 0 0)
(0.000573487 -2.42414e-05 0 4.3841e-06 0 0)
(0.000597265 -2.25311e-05 0 4.01883e-06 0 0)
(0.000619285 -2.08501e-05 0 3.67372e-06 0 0)
(0.000639603 -1.91929e-05 0 3.34576e-06 0 0)
(0.000658269 -1.75568e-05 0 3.03326e-06 0 0)
(0.000675328 -1.59407e-05 0 2.73549e-06 0 0)
(0.000690821 -1.43452e-05 0 2.45225e-06 0 0)
(0.000704789 -1.27726e-05 0 2.18377e-06 0 0)
(0.000717271 -1.12271e-05 0 1.9305e-06 0 0)
(0.00072831 -9.71386e-06 0 1.69301e-06 0 0)
(0.000737953 -8.23942e-06 0 1.47197e-06 0 0)
(0.00074625 -6.81106e-06 0 1.26806e-06 0 0)
(0.000753261 -5.43589e-06 0 1.08198e-06 0 0)
(0.000759051 -4.12058e-06 0 9.1453e-07 0 0)
(0.000763698 -2.86968e-06 0 7.66667e-07 0 0)
(0.00076729 -1.68438e-06 0 6.39747e-07 0 0)
(0.000769931 -5.61026e-07 0 5.35887e-07 0 0)
(0.000771746 5.06624e-07 0 4.58654e-07 0 0)
(0.000772908 1.52558e-06 0 4.14076e-07 0 0)
(0.000773736 2.48949e-06 0 4.12364e-07 0 0)
(0.000773802 3.23643e-06 0 4.67832e-07 0 0)
(0.000773879 3.70281e-06 0 6.2216e-07 0 0)
(6.72424e-05 8.49065e-06 0 8.18525e-05 0 0)
(4.46814e-05 5.14677e-06 0 8.99357e-05 0 0)
(2.67057e-05 -4.66375e-06 0 9.0367e-05 0 0)
(2.6575e-05 -2.11494e-05 0 8.14967e-05 0 0)
(4.14881e-05 -3.71895e-05 0 6.88615e-05 0 0)
(6.81361e-05 -4.93686e-05 0 5.63677e-05 0 0)
(0.000103842 -5.72973e-05 0 4.5735e-05 0 0)
(0.000145922 -6.17345e-05 0 3.73191e-05 0 0)
(0.000191872 -6.36138e-05 0 3.08863e-05 0 0)
(0.000239642 -6.37324e-05 0 2.60344e-05 0 0)
(0.000287732 -6.26932e-05 0 2.23714e-05 0 0)
(0.000335122 -6.09221e-05 0 1.95731e-05 0 0)
(0.000381151 -5.87063e-05 0 1.73922e-05 0 0)
(0.000425412 -5.62329e-05 0 1.5647e-05 0 0)
(0.00046767 -5.36199e-05 0 1.42079e-05 0 0)
(0.000507802 -5.09384e-05 0 1.29835e-05 0 0)
(0.000545755 -4.82298e-05 0 1.19109e-05 0 0)
(0.000581525 -4.55165e-05 0 1.09472e-05 0 0)
(0.00061513 -4.281e-05 0 1.00638e-05 0 0)
(0.000646602 -4.0115e-05 0 9.24142e-06 0 0)
(0.000675974 -3.74311e-05 0 8.46729e-06 0 0)
(0.000703281 -3.47557e-05 0 7.73291e-06 0 0)
(0.00072856 -3.20896e-05 0 7.03343e-06 0 0)
(0.00075185 -2.94357e-05 0 6.36655e-06 0 0)
(0.000773189 -2.67989e-05 0 5.73134e-06 0 0)
(0.000792618 -2.41854e-05 0 5.12787e-06 0 0)
(0.000810177 -2.16033e-05 0 4.55672e-06 0 0)
(0.00082591 -1.90622e-05 0 4.01889e-06 0 0)
(0.000839866 -1.65737e-05 0 3.51561e-06 0 0)
(0.000852103 -1.41507e-05 0 3.04821e-06 0 0)
(0.000862682 -1.1807e-05 0 2.61811e-06 0 0)
(0.000871681 -9.55698e-06 0 2.22683e-06 0 0)
(0.000879186 -7.41419e-06 0 1.87602e-06 0 0)
(0.000885306 -5.39121e-06 0 1.56776e-06 0 0)
(0.000890164 -3.49844e-06 0 1.30476e-06 0 0)
(0.000893918 -1.74626e-06 0 1.09079e-06 0 0)
(0.000896771 -1.46793e-07 0 9.31024e-07 0 0)
(0.000899022 1.27164e-06 0 8.31897e-07 0 0)
(0.000900093 2.41586e-06 0 7.99116e-07 0 0)
(0.000901415 3.01599e-06 0 8.39062e-07 0 0)
(5.90049e-05 9.624e-06 0 7.92353e-05 0 0)
(3.71706e-05 3.1543e-06 0 0.000101468 0 0)
(2.18929e-05 -3.82355e-06 0 0.000115905 0 0)
(1.92337e-05 -1.73832e-05 0 0.000116052 0 0)
(2.70171e-05 -3.41885e-05 0 0.0001066 0 0)
(4.44408e-05 -5.00383e-05 0 9.30137e-05 0 0)
(7.10753e-05 -6.28e-05 0 7.90394e-05 0 0)
(0.000105714 -7.19757e-05 0 6.65664e-05 0 0)
(0.000146513 -7.78492e-05 0 5.62276e-05 0 0)
(0.000191491 -8.10199e-05 0 4.79845e-05 0 0)
(0.000238894 -8.21347e-05 0 4.15181e-05 0 0)
(0.000287325 -8.17579e-05 0 3.64487e-05 0 0)
(0.000335738 -8.03322e-05 0 3.24319e-05 0 0)
(0.000383381 -7.8185e-05 0 2.91889e-05 0 0)
(0.000429735 -7.55493e-05 0 2.65062e-05 0 0)
(0.000474452 -7.25853e-05 0 2.42264e-05 0 0)
(0.000517303 -6.94006e-05 0 2.22363e-05 0 0)
(0.000558146 -6.60657e-05 0 2.0456e-05 0 0)
(0.000596895 -6.26268e-05 0 1.88305e-05 0 0)
(0.000633508 -5.91152e-05 0 1.73223e-05 0 0)
(0.000667966 -5.55528e-05 0 1.59068e-05 0 0)
(0.000700265 -5.19537e-05 0 1.45673e-05 0 0)
(0.000730406 -4.83263e-05 0 1.32928e-05 0 0)
(0.000758402 -4.46811e-05 0 1.20772e-05 0 0)
(0.000784277 -4.10305e-05 0 1.09177e-05 0 0)
(0.000808056 -3.73878e-05 0 9.8137e-06 0 0)
(0.000829771 -3.37671e-05 0 8.76562e-06 0 0)
(0.000849458 -3.01837e-05 0 7.7747e-06 0 0)
(0.000867159 -2.66549e-05 0 6.8427e-06 0 0)
(0.000882922 -2.32e-05 0 5.97169e-06 0 0)
(0.000896806 -1.98398e-05 0 5.16392e-06 0 0)
(0.000908879 -1.65969e-05 0 4.42177e-06 0 0)
(0.000919225 -1.34957e-05 0 3.74778e-06 0 0)
(0.000927946 -1.05615e-05 0 3.1448e-06 0 0)
(0.000935164 -7.82059e-06 0 2.61606e-06 0 0)
(0.000941029 -5.30056e-06 0 2.16547e-06 0 0)
(0.000945737 -3.02848e-06 0 1.79766e-06 0 0)
(0.000949569 -1.03865e-06 0 1.51787e-06 0 0)
(0.000951774 6.18038e-07 0 1.33039e-06 0 0)
(0.000954494 1.61661e-06 0 1.24957e-06 0 0)
(5.70536e-05 1.13307e-05 0 8.55744e-05 0 0)
(3.66224e-05 1.09927e-06 0 0.00010916 0 0)
(2.11382e-05 -3.7756e-06 0 0.000132492 0 0)
(1.61894e-05 -1.3455e-05 0 0.00014383 0 0)
(1.89357e-05 -2.80942e-05 0 0.00014214 0 0)
(2.86825e-05 -4.44737e-05 0 0.000131728 0 0)
(4.60452e-05 -5.99626e-05 0 0.00011733 0 0)
(7.112e-05 -7.30087e-05 0 0.000102316 0 0)
(0.000103147 -8.29734e-05 0 8.85494e-05 0 0)
(0.000140792 -8.98718e-05 0 7.67707e-05 0 0)
(0.000182541 -9.40802e-05 0 6.70552e-05 0 0)
(0.000226963 -9.60996e-05 0 5.91674e-05 0 0)
(0.000272834 -9.64188e-05 0 5.2771e-05 0 0)
(0.000319171 -9.54557e-05 0 4.75353e-05 0 0)
(0.000365223 -9.35432e-05 0 4.31768e-05 0 0)
(0.000410432 -9.09346e-05 0 3.94694e-05 0 0)
(0.000454391 -8.78163e-05 0 3.62414e-05 0 0)
(0.000496814 -8.43231e-05 0 3.33665e-05 0 0)
(0.000537498 -8.05507e-05 0 3.0754e-05 0 0)
(0.000576305 -7.65674e-05 0 2.83399e-05 0 0)
(0.000613145 -7.24239e-05 0 2.60806e-05 0 0)
(0.000647963 -6.81609e-05 0 2.39476e-05 0 0)
(0.000680724 -6.3808e-05 0 2.19217e-05 0 0)
(0.000711402 -5.9386e-05 0 1.99898e-05 0 0)
(0.000739991 -5.49173e-05 0 1.81452e-05 0 0)
(0.000766497 -5.04243e-05 0 1.63852e-05 0 0)
(0.000790934 -4.59292e-05 0 1.47095e-05 0 0)
(0.000813323 -4.14541e-05 0 1.3119e-05 0 0)
(0.00083369 -3.7022e-05 0 1.16156e-05 0 0)
(0.000852071 -3.26578e-05 0 1.02021e-05 0 0)
(0.000868507 -2.83886e-05 0 8.88139e-06 0 0)
(0.00088305 -2.42443e-05 0 7.65677e-06 0 0)
(0.000895764 -2.02578e-05 0 6.5317e-06 0 0)
(0.000906729 -1.64657e-05 0 5.50982e-06 0 0)
(0.000916039 -1.29077e-05 0 4.59504e-06 0 0)
(0.000923816 -9.62548e-06 0 3.79169e-06 0 0)
(0.000930214 -6.65703e-06 0 3.10495e-06 0 0)
(0.000935488 -4.03801e-06 0 2.54209e-06 0 0)
(0.000938772 -1.79325e-06 0 2.11346e-06 0 0)
(0.000942729 -2.54005e-07 0 1.86006e-06 0 0)
(5.56586e-05 1.10173e-05 0 8.5041e-05 0 0)
(3.5812e-05 -3.06108e-06 0 0.000110375 0 0)
(2.11297e-05 -5.8369e-06 0 0.000140538 0 0)
(1.51902e-05 -1.1196e-05 0 0.000162735 0 0)
(1.49421e-05 -2.18652e-05 0 0.000171166 0 0)
(1.93539e-05 -3.60018e-05 0 0.000167476 0 0)
(2.91978e-05 -5.14364e-05 0 0.00015605 0 0)
(4.52857e-05 -6.62895e-05 0 0.000141032 0 0)
(6.7784e-05 -7.91914e-05 0 0.000125368 0 0)
(9.61842e-05 -8.94467e-05 0 0.000110753 0 0)
(0.000129533 -9.6924e-05 0 9.79257e-05 0 0)
(0.000166689 -0.000101835 0 8.70338e-05 0 0)
(0.000206509 -0.000104548 0 7.79202e-05 0 0)
(0.000247964 -0.000105463 0 7.03069e-05 0 0)
(0.000290183 -0.00010495 0 6.3896e-05 0 0)
(0.000332465 -0.000103327 0 5.84182e-05 0 0)
(0.000374265 -0.000100849 0 5.36508e-05 0 0)
(0.000415166 -9.77137e-05 0 4.94196e-05 0 0)
(0.000454858 -9.40736e-05 0 4.55933e-05 0 0)
(0.000493114 -9.00433e-05 0 4.20755e-05 0 0)
(0.000529766 -8.57094e-05 0 3.87972e-05 0 0)
(0.000564697 -8.11397e-05 0 3.57107e-05 0 0)
(0.000597832 -7.63912e-05 0 3.27849e-05 0 0)
(0.000629114 -7.15072e-05 0 2.99988e-05 0 0)
(0.000658501 -6.65209e-05 0 2.73381e-05 0 0)
(0.000685971 -6.14648e-05 0 2.47955e-05 0 0)
(0.00071152 -5.63704e-05 0 2.23683e-05 0 0)
(0.000735148 -5.12672e-05 0 2.00562e-05 0 0)
(0.000756866 -4.61838e-05 0 1.78608e-05 0 0)
(0.000776687 -4.11498e-05 0 1.57845e-05 0 0)
(0.000794636 -3.61965e-05 0 1.38308e-05 0 0)
(0.000810741 -3.13584e-05 0 1.20035e-05 0 0)
(0.000825038 -2.66738e-05 0 1.03069e-05 0 0)
(0.000837576 -2.21861e-05 0 8.74542e-06 0 0)
(0.00084841 -1.79435e-05 0 7.32373e-06 0 0)
(0.000857615 -1.39969e-05 0 6.04713e-06 0 0)
(0.000865288 -1.0391e-05 0 4.9226e-06 0 0)
(0.000871644 -7.16216e-06 0 3.96246e-06 0 0)
(0.000875773 -4.3183e-06 0 3.18989e-06 0 0)
(0.000880596 -2.20158e-06 0 2.68582e-06 0 0)
(5.78697e-05 8.72574e-06 0 8.50238e-05 0 0)
(3.6301e-05 -3.76621e-06 0 0.000108772 0 0)
(2.09854e-05 -5.21157e-06 0 0.000142034 0 0)
(1.46394e-05 -8.15438e-06 0 0.000172807 0 0)
(1.29064e-05 -1.54191e-05 0 0.0001914 0 0)
(1.41329e-05 -2.63486e-05 0 0.000196547 0 0)
(1.88137e-05 -3.98136e-05 0 0.000191044 0 0)
(2.78839e-05 -5.43427e-05 0 0.000178846 0 0)
(4.20081e-05 -6.83971e-05 0 0.000163486 0 0)
(6.13453e-05 -8.08094e-05 0 0.000147487 0 0)
(8.55732e-05 -9.09395e-05 0 0.000132341 0 0)
(0.000114026 -9.85925e-05 0 0.000118755 0 0)
(0.000145859 -0.000103868 0 0.000106925 0 0)
(0.000180183 -0.000107022 0 9.67632e-05 0 0)
(0.000216159 -0.000108373 0 8.80517e-05 0 0)
(0.000253047 -0.000108237 0 8.05361e-05 0 0)
(0.00029023 -0.000106901 0 7.39736e-05 0 0)
(0.000327205 -0.00010461 0 6.81558e-05 0 0)
(0.00036358 -0.000101563 0 6.29147e-05 0 0)
(0.000399049 -9.79202e-05 0 5.81201e-05 0 0)
(0.000433382 -9.38076e-05 0 5.36748e-05 0 0)
(0.000466405 -8.93249e-05 0 4.95073e-05 0 0)
(0.00049799 -8.45532e-05 0 4.55677e-05 0 0)
(0.00052805 -7.95614e-05 0 4.18235e-05 0 0)
(0.000556519 -7.44026e-05 0 3.82515e-05 0 0)
(0.000583344 -6.912e-05 0 3.48362e-05 0 0)
(0.000608495 -6.37541e-05 0 3.15698e-05 0 0)
(0.000631955 -5.83425e-05 0 2.84491e-05 0 0)
(0.000653717 -5.29193e-05 0 2.54737e-05 0 0)
(0.000673775 -4.75178e-05 0 2.26449e-05 0 0)
(0.000692131 -4.21716e-05 0 1.99654e-05 0 0)
(0.000708792 -3.6917e-05 0 1.74392e-05 0 0)
(0.000723765 -3.17937e-05 0 1.50707e-05 0 0)
(0.000737064 -2.68472e-05 0 1.28651e-05 0 0)
(0.000748703 -2.21282e-05 0 1.08277e-05 0 0)
(0.000758708 -1.76913e-05 0 8.96533e-06 0 0)
(0.000767114 -1.35842e-05 0 7.28779e-06 0 0)
(0.00077408 -9.84362e-06 0 5.81471e-06 0 0)
(0.000778719 -6.46863e-06 0 4.5879e-06 0 0)
(0.000783937 -3.83056e-06 0 3.74116e-06 0 0)
(7.468e-05 1.22531e-05 0 8.88156e-05 0 0)
(4.58902e-05 5.37606e-07 0 0.000110289 0 0)
(2.51158e-05 -7.09141e-07 0 0.000144888 0 0)
(1.60838e-05 -3.26474e-06 0 0.000180235 0 0)
(1.26669e-05 -8.62099e-06 0 0.00020601 0 0)
(1.17857e-05 -1.66154e-05 0 0.000219056 0 0)
(1.31673e-05 -2.72546e-05 0 0.000220372 0 0)
(1.73838e-05 -3.98738e-05 0 0.00021286 0 0)
(2.51192e-05 -5.32788e-05 0 0.000199855 0 0)
(3.68556e-05 -6.62387e-05 0 0.000184226 0 0)
(5.27414e-05 -7.78129e-05 0 0.000168035 0 0)
(7.25873e-05 -8.74432e-05 0 0.000152548 0 0)
(9.59404e-05 -9.49086e-05 0 0.000138407 0 0)
(0.000122188 -0.000100231 0 0.00012583 0 0)
(0.000150656 -0.00010358 0 0.000114782 0 0)
(0.000180682 -0.000105199 0 0.000105102 0 0)
(0.000211664 -0.000105351 0 9.65791e-05 0 0)
(0.000243079 -0.000104286 0 8.90033e-05 0 0)
(0.000274493 -0.000102227 0 8.2187e-05 0 0)
(0.000305553 -9.9367e-05 0 7.59744e-05 0 0)
(0.00033598 -9.58637e-05 0 7.02413e-05 0 0)
(0.000365555 -9.18479e-05 0 6.48925e-05 0 0)
(0.000394112 -8.7426e-05 0 5.98567e-05 0 0)
(0.000421525 -8.26866e-05 0 5.5083e-05 0 0)
(0.000447703 -7.77053e-05 0 5.05373e-05 0 0)
(0.000472572 -7.25409e-05 0 4.61942e-05 0 0)
(0.000496077 -6.72427e-05 0 4.2037e-05 0 0)
(0.000518181 -6.18557e-05 0 3.80568e-05 0 0)
(0.000538857 -5.64203e-05 0 3.42491e-05 0 0)
(0.000558085 -5.09724e-05 0 3.06122e-05 0 0)
(0.000575846 -4.55472e-05 0 2.7147e-05 0 0)
(0.000592123 -4.01801e-05 0 2.3856e-05 0 0)
(0.000606902 -3.49095e-05 0 2.07432e-05 0 0)
(0.000620163 -2.97785e-05 0 1.78135e-05 0 0)
(0.000631885 -2.48356e-05 0 1.50733e-05 0 0)
(0.000642046 -2.01336e-05 0 1.25306e-05 0 0)
(0.000650626 -1.57195e-05 0 1.0199e-05 0 0)
(0.000657722 -1.16307e-05 0 8.1066e-06 0 0)
(0.000662519 -7.86326e-06 0 6.31818e-06 0 0)
(0.000667671 -4.83646e-06 0 5.03276e-06 0 0)
(6.90881e-05 9.84698e-06 0 8.61137e-05 0 0)
(4.4124e-05 -4.23931e-07 0 0.00011014 0 0)
(2.50754e-05 5.20464e-07 0 0.000148208 0 0)
(1.66713e-05 -4.16009e-07 0 0.000186141 0 0)
(1.29919e-05 -3.5056e-06 0 0.000216344 0 0)
(1.11385e-05 -8.46976e-06 0 0.000235451 0 0)
(1.06943e-05 -1.57502e-05 0 0.000243172 0 0)
(1.19351e-05 -2.53578e-05 0 0.000241145 0 0)
(1.5362e-05 -3.66144e-05 0 0.000231963 0 0)
(2.1491e-05 -4.85108e-05 0 0.00021834 0 0)
(3.06957e-05 -6.00582e-05 0 0.000202566 0 0)
(4.31204e-05 -7.04855e-05 0 0.00018631 0 0)
(5.86669e-05 -7.93011e-05 0 0.000170635 0 0)
(7.70371e-05 -8.62743e-05 0 0.000156113 0 0)
(9.78008e-05 -9.13754e-05 0 0.000142968 0 0)
(0.000120464 -9.47084e-05 0 0.000131202 0 0)
(0.000144525 -9.64526e-05 0 0.000120702 0 0)
(0.000169511 -9.68177e-05 0 0.000111299 0 0)
(0.000195003 -9.60149e-05 0 0.000102819 0 0)
(0.000220641 -9.42411e-05 0 9.50975e-05 0 0)
(0.000246126 -9.16706e-05 0 8.79943e-05 0 0)
(0.000271214 -8.84537e-05 0 8.13943e-05 0 0)
(0.000295713 -8.47173e-05 0 7.52068e-05 0 0)
(0.000319468 -8.05673e-05 0 6.93618e-05 0 0)
(0.000342363 -7.60949e-05 0 6.38089e-05 0 0)
(0.000364308 -7.13758e-05 0 5.85119e-05 0 0)
(0.000385227 -6.64699e-05 0 5.34431e-05 0 0)
(0.000405063 -6.14285e-05 0 4.85841e-05 0 0)
(0.000423773 -5.62974e-05 0 4.3924e-05 0 0)
(0.000441319 -5.11156e-05 0 3.94559e-05 0 0)
(0.000457666 -4.59188e-05 0 3.51768e-05 0 0)
(0.000472781 -4.07408e-05 0 3.10862e-05 0 0)
(0.000486625 -3.56165e-05 0 2.71861e-05 0 0)
(0.000499157 -3.05841e-05 0 2.34807e-05 0 0)
(0.000510324 -2.56862e-05 0 1.99765e-05 0 0)
(0.00052007 -2.09701e-05 0 1.6683e-05 0 0)
(0.000528328 -1.64787e-05 0 1.36174e-05 0 0)
(0.000535135 -1.22496e-05 0 1.0817e-05 0 0)
(0.000539775 -8.27916e-06 0 8.37186e-06 0 0)
(0.00054448 -5.04684e-06 0 6.55613e-06 0 0)
(6.87847e-05 1.38266e-05 0 8.70998e-05 0 0)
(4.43953e-05 2.29418e-06 0 0.000112198 0 0)
(2.56747e-05 9.64303e-07 0 0.000150026 0 0)
(1.70173e-05 8.19859e-07 0 0.000188973 0 0)
(1.31459e-05 -1.79871e-07 0 0.000221991 0 0)
(1.09817e-05 -2.32524e-06 0 0.000245725 0 0)
(9.80205e-06 -6.27808e-06 0 0.00025907 0 0)
(9.57279e-06 -1.24535e-05 0 0.000262606 0 0)
(1.05406e-05 -2.06573e-05 0 0.000258063 0 0)
(1.30894e-05 -3.02457e-05 0 0.000247684 0 0)
(1.76124e-05 -4.03966e-05 0 0.000233679 0 0)
(2.44058e-05 -5.0318e-05 0 0.000217898 0 0)
(3.36063e-05 -5.93755e-05 0 0.000201703 0 0)
(4.51795e-05 -6.71433e-05 0 0.000185988 0 0)
(5.89433e-05 -7.33972e-05 0 0.000171255 0 0)
(7.46116e-05 -7.80766e-05 0 0.000157722 0 0)
(9.18402e-05 -8.12366e-05 0 0.000145419 0 0)
(0.000110267 -8.30029e-05 0 0.000134269 0 0)
(0.000129541 -8.3536e-05 0 0.000124146 0 0)
(0.000149341 -8.30062e-05 0 0.000114905 0 0)
(0.000169384 -8.15788e-05 0 0.000106409 0 0)
(0.000189429 -7.94056e-05 0 9.85336e-05 0 0)
(0.000209276 -7.6621e-05 0 9.11742e-05 0 0)
(0.000228759 -7.33413e-05 0 8.42457e-05 0 0)
(0.000247745 -6.9666e-05 0 7.76807e-05 0 0)
(0.00026613 -6.56814e-05 0 7.14298e-05 0 0)
(0.000283826 -6.14582e-05 0 6.54541e-05 0 0)
(0.00030076 -5.70531e-05 0 5.97236e-05 0 0)
(0.000316874 -5.25154e-05 0 5.42179e-05 0 0)
(0.000332117 -4.78869e-05 0 4.89229e-05 0 0)
(0.000346441 -4.3203e-05 0 4.38292e-05 0 0)
(0.000359797 -3.84957e-05 0 3.89318e-05 0 0)
(0.000372133 -3.37954e-05 0 3.42291e-05 0 0)
(0.000383387 -2.91342e-05 0 2.97232e-05 0 0)
(0.000393489 -2.45471e-05 0 2.54199e-05 0 0)
(0.000402357 -2.00735e-05 0 2.13302e-05 0 0)
(0.000409891 -1.57498e-05 0 1.7475e-05 0 0)
(0.000416075 -1.16125e-05 0 1.39005e-05 0 0)
(0.000420309 -7.65781e-06 0 1.0722e-05 0 0)
(0.000424298 -4.42762e-06 0 8.29466e-06 0 0)
(6.08202e-05 1.06477e-05 0 8.69285e-05 0 0)
(4.06526e-05 -4.79042e-07 0 0.000108032 0 0)
(2.44222e-05 2.5186e-07 0 0.000146753 0 0)
(1.65004e-05 1.43631e-06 0 0.000187114 0 0)
(1.27925e-05 1.88756e-06 0 0.000222718 0 0)
(1.07226e-05 1.89758e-06 0 0.000250297 0 0)
(9.475e-06 8.1237e-07 0 0.000268429 0 0)
(8.79079e-06 -2.05494e-06 0 0.0002771 0 0)
(8.68291e-06 -6.90203e-06 0 0.000277357 0 0)
(9.34579e-06 -1.34709e-05 0 0.000270901 0 0)
(1.10683e-05 -2.12216e-05 0 0.000259661 0 0)
(1.41458e-05 -2.95003e-05 0 0.000245454 0 0)
(1.88096e-05 -3.76764e-05 0 0.000229786 0 0)
(2.5185e-05 -4.52345e-05 0 0.000213775 0 0)
(3.32808e-05 -5.18148e-05 0 0.000198166 0 0)
(4.30011e-05 -5.72113e-05 0 0.000183393 0 0)
(5.41717e-05 -6.13473e-05 0 0.000169659 0 0)
(6.65696e-05 -6.42414e-05 0 0.000157011 0 0)
(7.99499e-05 -6.59742e-05 0 0.000145405 0 0)
(9.4067e-05 -6.66612e-05 0 0.000134746 0 0)
(0.000108689 -6.64327e-05 0 0.000124919 0 0)
(0.000123606 -6.54202e-05 0 0.000115809 0 0)
(0.000138633 -6.37485e-05 0 0.000107308 0 0)
(0.000153613 -6.15311e-05 0 9.93233e-05 0 0)
(0.000168413 -5.88681e-05 0 9.17752e-05 0 0)
(0.00018292 -5.58468e-05 0 8.45998e-05 0 0)
(0.000197045 -5.25428e-05 0 7.77474e-05 0 0)
(0.000210708 -4.9017e-05 0 7.11769e-05 0 0)
(0.000223839 -4.53194e-05 0 6.48562e-05 0 0)
(0.000236379 -4.14925e-05 0 5.87619e-05 0 0)
(0.000248271 -3.75711e-05 0 5.28767e-05 0 0)
(0.000259456 -3.35843e-05 0 4.71887e-05 0 0)
(0.000269873 -2.95581e-05 0 4.16916e-05 0 0)
(0.000279452 -2.55178e-05 0 3.63839e-05 0 0)
(0.000288108 -2.14904e-05 0 3.12703e-05 0 0)
(0.000295747 -1.75067e-05 0 2.63627e-05 0 0)
(0.000302253 -1.35947e-05 0 2.16859e-05 0 0)
(0.000307567 -9.78842e-06 0 1.72944e-05 0 0)
(0.000311205 -6.0807e-06 0 1.33271e-05 0 0)
(0.000314322 -3.06586e-06 0 1.02204e-05 0 0)
(6.0055e-05 1.26431e-05 0 9.20085e-05 0 0)
(4.00069e-05 8.05432e-06 0 0.000113635 0 0)
(2.3597e-05 6.21711e-06 0 0.000150326 0 0)
(1.57014e-05 5.05632e-06 0 0.000188702 0 0)
(1.21333e-05 4.78647e-06 0 0.000223595 0 0)
(1.02886e-05 5.39243e-06 0 0.000252306 0 0)
(9.26339e-06 6.03923e-06 0 0.000273221 0 0)
(8.66597e-06 5.76644e-06 0 0.00028572 0 0)
(8.34097e-06 3.99683e-06 0 0.000290149 0 0)
(8.30773e-06 5.92351e-07 0 0.0002876 0 0)
(8.70694e-06 -4.24838e-06 0 0.00027958 0 0)
(9.74316e-06 -1.01125e-05 0 0.000267695 0 0)
(1.16294e-05 -1.64966e-05 0 0.000253424 0 0)
(1.45417e-05 -2.291e-05 0 0.000237983 0 0)
(1.85912e-05 -2.89431e-05 0 0.000222278 0 0)
(2.38135e-05 -3.42989e-05 0 0.000206921 0 0)
(3.0174e-05 -3.87947e-05 0 0.000192279 0 0)
(3.75813e-05 -4.23463e-05 0 0.000178535 0 0)
(4.59055e-05 -4.4945e-05 0 0.000165747 0 0)
(5.49949e-05 -4.66342e-05 0 0.00015389 0 0)
(6.46902e-05 -4.74896e-05 0 0.000142896 0 0)
(7.48355e-05 -4.76035e-05 0 0.000132676 0 0)
(8.52846e-05 -4.70735e-05 0 0.000123131 0 0)
(9.59051e-05 -4.59957e-05 0 0.000114171 0 0)
(0.00010658 -4.44593e-05 0 0.00010571 0 0)
(0.000117206 -4.25443e-05 0 9.76763e-05 0 0)
(0.000127697 -4.03217e-05 0 9.00083e-05 0 0)
(0.000137975 -3.78514e-05 0 8.26555e-05 0 0)
(0.000147971 -3.51817e-05 0 7.55744e-05 0 0)
(0.000157622 -3.23521e-05 0 6.87309e-05 0 0)
(0.000166868 -2.9395e-05 0 6.20985e-05 0 0)
(0.00017565 -2.63357e-05 0 5.56574e-05 0 0)
(0.000183901 -2.31952e-05 0 4.93945e-05 0 0)
(0.000191549 -1.99921e-05 0 4.33044e-05 0 0)
(0.000198508 -1.67455e-05 0 3.73897e-05 0 0)
(0.00020468 -1.3477e-05 0 3.16634e-05 0 0)
(0.000209945 -1.02062e-05 0 2.61543e-05 0 0)
(0.000214217 -6.96317e-06 0 2.0925e-05 0 0)
(0.00021713 -3.7328e-06 0 1.6135e-05 0 0)
(0.000219309 -1.14143e-06 0 1.22956e-05 0 0)
(6.35047e-05 1.30254e-05 0 9.36156e-05 0 0)
(3.90095e-05 7.62108e-07 0 0.000118765 0 0)
(2.17834e-05 7.91395e-07 0 0.000152861 0 0)
(1.42779e-05 2.21539e-06 0 0.000189323 0 0)
(1.1184e-05 3.78602e-06 0 0.000223169 0 0)
(9.725e-06 6.07677e-06 0 0.000252017 0 0)
(9.04057e-06 8.65906e-06 0 0.000274409 0 0)
(8.74548e-06 1.07519e-05 0 0.000289493 0 0)
(8.62206e-06 1.17597e-05 0 0.000297173 0 0)
(8.5797e-06 1.13729e-05 0 0.000298056 0 0)
(8.63025e-06 9.54821e-06 0 0.000293223 0 0)
(8.86139e-06 6.46339e-06 0 0.00028399 0 0)
(9.40595e-06 2.443e-06 0 0.000271687 0 0)
(1.04095e-05 -2.12536e-06 0 0.000257506 0 0)
(1.20016e-05 -6.8633e-06 0 0.000242419 0 0)
(1.42762e-05 -1.14496e-05 0 0.000227149 0 0)
(1.72822e-05 -1.56425e-05 0 0.000212191 0 0)
(2.10243e-05 -1.92822e-05 0 0.000197851 0 0)
(2.54682e-05 -2.22817e-05 0 0.000184289 0 0)
(3.05506e-05 -2.46121e-05 0 0.000171564 0 0)
(3.61893e-05 -2.62866e-05 0 0.000159667 0 0)
(4.22916e-05 -2.73468e-05 0 0.000148546 0 0)
(4.87619e-05 -2.78509e-05 0 0.000138129 0 0)
(5.55066e-05 -2.78646e-05 0 0.000128336 0 0)
(6.24379e-05 -2.7455e-05 0 0.000119085 0 0)
(6.94748e-05 -2.66859e-05 0 0.000110301 0 0)
(7.65443e-05 -2.56155e-05 0 0.000101916 0 0)
(8.35809e-05 -2.4295e-05 0 9.38692e-05 0 0)
(9.05237e-05 -2.27666e-05 0 8.61091e-05 0 0)
(9.73156e-05 -2.10634e-05 0 7.85906e-05 0 0)
(0.000103902 -1.92122e-05 0 7.12772e-05 0 0)
(0.000110226 -1.7233e-05 0 6.41405e-05 0 0)
(0.000116228 -1.51406e-05 0 5.71603e-05 0 0)
(0.00012184 -1.29467e-05 0 5.03261e-05 0 0)
(0.000126983 -1.06624e-05 0 4.36383e-05 0 0)
(0.000131564 -8.30102e-06 0 3.71111e-05 0 0)
(0.000135474 -5.87358e-06 0 3.07783e-05 0 0)
(0.000138613 -3.40522e-06 0 2.47107e-05 0 0)
(0.000140722 -8.69657e-07 0 1.90851e-05 0 0)
(0.000141981 1.10148e-06 0 1.44738e-05 0 0)
(6.97217e-05 1.25019e-05 0 9.18315e-05 0 0)
(4.21137e-05 -1.64036e-06 0 0.000118274 0 0)
(2.27067e-05 -4.74712e-07 0 0.00015182 0 0)
(1.41946e-05 1.19509e-06 0 0.000187372 0 0)
(1.08338e-05 2.96078e-06 0 0.000220609 0 0)
(9.40254e-06 5.89108e-06 0 0.000249394 0 0)
(8.88653e-06 9.66405e-06 0 0.000272522 0 0)
(8.84913e-06 1.34991e-05 0 0.000289224 0 0)
(9.03105e-06 1.67411e-05 0 0.000299246 0 0)
(9.27609e-06 1.89525e-05 0 0.000302887 0 0)
(9.50496e-06 1.991e-05 0 0.000300896 0 0)
(9.70294e-06 1.95909e-05 0 0.000294294 0 0)
(9.90808e-06 1.81364e-05 0 0.000284208 0 0)
(1.01948e-05 1.57932e-05 0 0.000271727 0 0)
(1.06546e-05 1.28534e-05 0 0.000257803 0 0)
(1.13771e-05 9.60392e-06 0 0.000243203 0 0)
(1.24373e-05 6.29412e-06 0 0.000228498 0 0)
(1.38866e-05 3.11975e-06 0 0.000214085 0 0)
(1.57506e-05 2.19672e-07 0 0.000200212 0 0)
(1.80304e-05 -2.31924e-06 0 0.000187016 0 0)
(2.07067e-05 -4.45347e-06 0 0.000174551 0 0)
(2.37448e-05 -6.17283e-06 0 0.000162814 0 0)
(2.71e-05 -7.49078e-06 0 0.000151764 0 0)
(3.07217e-05 -8.43598e-06 0 0.000141342 0 0)
(3.45576e-05 -9.0454e-06 0 0.000131477 0 0)
(3.85558e-05 -9.35886e-06 0 0.000122098 0 0)
(4.26667e-05 -9.41528e-06 0 0.000113132 0 0)
(4.68433e-05 -9.25047e-06 0 0.000104515 0 0)
(5.10412e-05 -8.89471e-06 0 9.61862e-05 0 0)
(5.52172e-05 -8.3715e-06 0 8.80924e-05 0 0)
(5.93285e-05 -7.69852e-06 0 8.01874e-05 0 0)
(6.33306e-05 -6.88794e-06 0 7.24338e-05 0 0)
(6.71747e-05 -5.94709e-06 0 6.48044e-05 0 0)
(7.08055e-05 -4.88019e-06 0 5.72832e-05 0 0)
(7.41575e-05 -3.69035e-06 0 4.98687e-05 0 0)
(7.71528e-05 -2.38273e-06 0 4.25769e-05 0 0)
(7.97006e-05 -9.60493e-07 0 3.54476e-05 0 0)
(8.17034e-05 5.56007e-07 0 2.85607e-05 0 0)
(8.29983e-05 2.20531e-06 0 2.21072e-05 0 0)
(8.34304e-05 3.3774e-06 0 1.67002e-05 0 0)
(6.62658e-05 4.87897e-06 0 9.18485e-05 0 0)
(4.30586e-05 -8.04516e-06 0 0.00011727 0 0)
(2.3191e-05 -6.24315e-06 0 0.000150613 0 0)
(1.42607e-05 -3.0348e-06 0 0.000184927 0 0)
(1.0776e-05 9.00712e-08 0 0.000216788 0 0)
(9.31575e-06 4.1805e-06 0 0.000244818 0 0)
(8.84278e-06 9.16378e-06 0 0.000268007 0 0)
(8.94164e-06 1.4446e-05 0 0.000285574 0 0)
(9.36491e-06 1.94619e-05 0 0.000297159 0 0)
(9.94027e-06 2.37764e-05 0 0.000302872 0 0)
(1.05428e-05 2.709e-05 0 0.000303224 0 0)
(1.10893e-05 2.92506e-05 0 0.000298993 0 0)
(1.15386e-05 3.02502e-05 0 0.000291104 0 0)
(1.18884e-05 3.01965e-05 0 0.000280506 0 0)
(1.21671e-05 2.92718e-05 0 0.000268079 0 0)
(1.24227e-05 2.7691e-05 0 0.000254575 0 0)
(1.27115e-05 2.56689e-05 0 0.000240593 0 0)
(1.30878e-05 2.33981e-05 0 0.00022658 0 0)
(1.35974e-05 2.10371e-05 0 0.000212848 0 0)