/*--------------------------------*- C++ -*----------------------------------*\
  =========                 |
  \\      /  F ield         | OpenFOAM: The Open Source CFD Toolbox
   \\    /   O peration     | Website:  https://openfoam.org
    \\  /    A nd           | Version:  7
     \\/     M anipulation  |
\*---------------------------------------------------------------------------*/
FoamFile
{
    version     2.0;
    format      ascii;
    class       volScalarField;
    location    "0.21";
    object      k_0;
}
// * * * * * * * * * * * * * * * * * * * * * * * * * * * * * * * * * * * * * //

dimensions      [0 2 -2 0 0 0 0];

internalField   nonuniform List<scalar> 
400
(
0.110519
0.578791
1.38999
2.23306
2.90308
3.32822
3.50292
3.47553
3.37346
3.16303
2.92904
2.69895
2.48737
2.29962
2.13932
1.99987
1.88768
1.78275
1.71291
1.61794
0.0189808
0.0412875
0.113431
0.278345
0.506108
0.751689
0.982433
1.16777
1.31101
1.41007
1.46894
1.50211
1.50888
1.50523
1.49178
1.47048
1.44968
1.41646
1.39259
1.3481
5.3019e-06
0.0060521
0.0071293
0.0161716
0.0392338
0.0778038
0.129883
0.189197
0.25028
0.309109
0.361973
0.407961
0.446493
0.477671
0.50314
0.522981
0.538585
0.551787
0.561156
0.570433
2.41521e-06
6.20942e-05
0.000480937
0.000733831
0.00249102
0.00524876
0.0109165
0.0200709
0.0315641
0.045948
0.0610744
0.0777107
0.0932106
0.109439
0.12295
0.137554
0.147865
0.160931
0.16718
0.180613
1.98375e-05
1.34014e-05
3.83837e-05
6.73072e-05
0.000123909
0.000390852
0.00070861
0.001646
0.00268049
0.00492812
0.00700483
0.01056
0.0135717
0.0181134
0.0215895
0.0266983
0.0301553
0.0354489
0.0387409
0.0446458
2.02345e-05
2.04132e-05
2.20239e-05
2.45529e-05
2.64533e-05
5.02706e-05
6.80254e-05
0.00013954
0.000214092
0.000438845
0.00062881
0.00111216
0.00146714
0.00226042
0.00278214
0.00385333
0.00455115
0.00579303
0.006771
0.00839007
2.00204e-05
2.03647e-05
2.07177e-05
2.16805e-05
2.24834e-05
2.49351e-05
2.70393e-05
3.3032e-05
3.94027e-05
5.66652e-05
7.44658e-05
0.000119345
0.000156189
0.000247258
0.000310842
0.000456757
0.000560346
0.000750857
0.000945219
0.00124546
1.99998e-05
2.02323e-05
2.04311e-05
2.10041e-05
2.15222e-05
2.26456e-05
2.35476e-05
2.51892e-05
2.66521e-05
2.90483e-05
3.13116e-05
3.58936e-05
3.957e-05
4.87593e-05
5.53937e-05
7.09416e-05
8.35845e-05
0.000105162
0.000134095
0.000176038
2.00569e-05
2.01332e-05
2.03814e-05
2.07956e-05
2.12592e-05
2.21448e-05
2.28816e-05
2.41275e-05
2.50445e-05
2.64661e-05
2.74154e-05
2.8931e-05
2.98837e-05
3.15367e-05
3.26957e-05
3.46252e-05
3.63839e-05
3.87019e-05
4.22767e-05
4.73587e-05
2.00068e-05
2.00379e-05
2.02459e-05
2.0526e-05
2.10171e-05
2.1701e-05
2.25108e-05
2.34523e-05
2.44658e-05
2.55082e-05
2.65679e-05
2.75573e-05
2.854e-05
2.93877e-05
3.02328e-05
3.09397e-05
3.16301e-05
3.22762e-05
3.28634e-05
3.37651e-05
1.99976e-05
2.00364e-05
2.016e-05
2.04841e-05
2.10052e-05
2.16875e-05
2.25262e-05
2.34459e-05
2.44596e-05
2.54564e-05
2.64895e-05
2.74259e-05
2.83685e-05
2.91719e-05
2.99693e-05
3.06408e-05
3.12705e-05
3.18781e-05
3.23448e-05
3.31075e-05
1.99788e-05
2.01227e-05
2.02609e-05
2.06915e-05
2.11661e-05
2.20166e-05
2.2804e-05
2.39567e-05
2.48916e-05
2.6194e-05
2.71315e-05
2.84747e-05
2.93795e-05
3.07723e-05
3.17554e-05
3.32836e-05
3.45949e-05
3.63267e-05
3.87038e-05
4.21384e-05
2.00464e-05
2.01027e-05
2.04138e-05
2.08165e-05
2.13475e-05
2.23899e-05
2.3264e-05
2.48886e-05
2.59444e-05
2.84355e-05
3.00356e-05
3.39596e-05
3.68249e-05
4.39218e-05
4.89724e-05
6.041e-05
6.97278e-05
8.48754e-05
0.000104713
0.000134189
2.01194e-05
2.02338e-05
2.07715e-05
2.11178e-05
2.2339e-05
2.36441e-05
2.61462e-05
3.03936e-05
3.52314e-05
5.03384e-05
6.25694e-05
0.000100605
0.000126958
0.000199775
0.000248807
0.000360251
0.000441149
0.000581385
0.000725763
0.000949949
2.0312e-05
2.08778e-05
2.19493e-05
2.14778e-05
3.48019e-05
3.96824e-05
6.80942e-05
0.00011527
0.000183397
0.000368726
0.000529322
0.000928691
0.00121304
0.00186489
0.00228651
0.00315349
0.00371463
0.00471352
0.005495
0.0067852
2.03372e-05
2.13188e-05
3.36445e-05
3.58754e-05
0.000201515
0.000310419
0.000696247
0.0014555
0.00242706
0.00431405
0.00611383
0.00918059
0.0117718
0.015681
0.0186686
0.0230622
0.0260376
0.0305854
0.0334437
0.0384819
1.35725e-05
1.00656e-05
0.000353964
0.000663865
0.00260411
0.00488099
0.0101616
0.018463
0.0288734
0.0418744
0.0555948
0.070745
0.0848726
0.0997592
0.11215
0.125608
0.135152
0.147156
0.153315
0.165083
6.69656e-06
0.00512082
0.00790043
0.0158741
0.037274
0.0734195
0.122703
0.178713
0.236966
0.293025
0.344123
0.388518
0.426229
0.457026
0.482117
0.50216
0.517759
0.530791
0.539893
0.549797
0.0181077
0.0330561
0.12328
0.269599
0.492694
0.732233
0.959436
1.1431
1.28653
1.38691
1.44964
1.48449
1.49734
1.49594
1.48428
1.46777
1.45081
1.42196
1.40068
1.36185
0.111765
0.572327
1.38485
2.22638
2.8969
3.3226
3.50242
3.47933
3.37576
3.17889
2.95018
2.72531
2.51885
2.33566
2.17905
2.04316
1.93414
1.83189
1.76558
1.672
)
;

boundaryField
{
    upperWall
    {
        type            fixedValue;
        value           uniform 0;
    }
    lowerWall
    {
        type            fixedValue;
        value           uniform 0;
    }
    inlet
    {
        type            fixedValue;
        value           uniform 2e-05;
    }
    outlet
    {
        type            inletOutlet;
        inletValue      uniform 0;
        value           nonuniform List<scalar> 
20
(
1.61794
1.3481
0.570433
0.180613
0.0446458
0.00839007
0.00124546
0.000176038
4.73587e-05
3.37651e-05
3.31075e-05
4.21384e-05
0.000134189
0.000949949
0.0067852
0.0384819
0.165083
0.549797
1.36185
1.672
)
;
    }
    frontAndBack
    {
        type            empty;
    }
}


// ************************************************************************* //
