/*--------------------------------*- C++ -*----------------------------------*\
  =========                 |
  \\      /  F ield         | OpenFOAM: The Open Source CFD Toolbox
   \\    /   O peration     | Website:  https://openfoam.org
    \\  /    A nd           | Version:  7
     \\/     M anipulation  |
\*---------------------------------------------------------------------------*/
FoamFile
{
    version     2.0;
    format      ascii;
    class       volSymmTensorField;
    location    "0.21";
    object      UPrime2Mean;
}
// * * * * * * * * * * * * * * * * * * * * * * * * * * * * * * * * * * * * * //

dimensions      [0 2 -2 0 0 0 0];

internalField   nonuniform List<symmTensor> 
400
(
(6.27963 0.248464 0 5.12198 0 0)
(9.41404 0.423639 0 9.53303 0 0)
(12.1901 0.00396172 0 10.4802 0 0)
(15.3114 -0.117933 0 10.001 0 0)
(16.2097 -0.0339649 0 8.79533 0 0)
(16.237 0.22428 0 7.41915 0 0)
(16.4501 0.545064 0 6.22277 0 0)
(15.8617 0.609688 0 5.42652 0 0)
(15.1184 0.3883 0 4.76795 0 0)
(14.47 0.33378 0 4.18823 0 0)
(14.0226 0.00282829 0 3.70437 0 0)
(13.4823 -0.104051 0 3.87057 0 0)
(12.3007 -0.238037 0 3.78481 0 0)
(11.6967 -0.373677 0 3.63474 0 0)
(10.5012 -0.193261 0 3.08935 0 0)
(9.30426 0.187383 0 2.84147 0 0)
(7.64478 0.136336 0 2.33464 0 0)
(6.7763 0.348787 0 1.97617 0 0)
(6.46727 0.169278 0 1.77368 0 0)
(5.76776 0.0731229 0 1.43932 0 0)
(11.0618 0.413028 0 7.45499 0 0)
(9.24232 -0.325232 0 8.1605 0 0)
(12.7248 -0.505314 0 8.70672 0 0)
(16.6654 -0.0116439 0 8.01423 0 0)
(19.9421 -0.292363 0 7.48486 0 0)
(21.6345 -0.300543 0 7.02962 0 0)
(22.9531 -0.161932 0 6.17197 0 0)
(25.5547 0.640938 0 5.83502 0 0)
(26.7051 0.865999 0 5.07697 0 0)
(27.3901 1.55683 0 4.04309 0 0)
(26.2112 1.98898 0 3.55112 0 0)
(24.7461 2.37334 0 3.89827 0 0)
(21.796 2.50334 0 4.18479 0 0)
(18.4109 2.24661 0 4.17832 0 0)
(15.5734 1.7352 0 3.67346 0 0)
(13.0669 1.02211 0 3.66616 0 0)
(11.7449 0.529889 0 3.42735 0 0)
(11.3678 -0.390056 0 2.97689 0 0)
(12.5366 -1.24924 0 3.0614 0 0)
(13.5547 -0.486841 0 2.43054 0 0)
(11.3934 -0.278324 0 10.0939 0 0)
(9.75587 -0.662186 0 9.97047 0 0)
(12.9056 -1.56084 0 11.2556 0 0)
(17.0858 -1.5542 0 12.2147 0 0)
(20.0996 -2.38838 0 11.5475 0 0)
(23.3328 -2.52963 0 10.9403 0 0)
(25.3802 -2.78405 0 9.65822 0 0)
(27.5093 -1.68143 0 8.60728 0 0)
(29.028 -0.403423 0 7.42914 0 0)
(29.8033 0.991999 0 6.47575 0 0)
(29.3071 2.70966 0 5.93403 0 0)
(28.0709 3.90599 0 6.18831 0 0)
(25.36 4.16795 0 6.38447 0 0)
(22.3239 4.00873 0 6.47125 0 0)
(19.2039 3.35736 0 6.7367 0 0)
(15.6909 1.84844 0 6.4932 0 0)
(13.9851 0.432809 0 6.4471 0 0)
(13.3831 -1.4444 0 6.18997 0 0)
(14.0258 -2.06585 0 5.49329 0 0)
(14.4241 -0.929645 0 3.62641 0 0)
(8.98163 -0.577029 0 12.3335 0 0)
(8.78292 -0.416861 0 13.5975 0 0)
(13.5058 -1.44637 0 15.7312 0 0)
(17.6456 -2.99758 0 16.584 0 0)
(20.5378 -4.93538 0 15.1568 0 0)
(23.2877 -5.8491 0 14.0447 0 0)
(25.11 -5.2465 0 12.7883 0 0)
(26.8688 -4.28851 0 10.8708 0 0)
(27.5176 -1.87667 0 9.98914 0 0)
(28.4305 0.505604 0 9.00547 0 0)
(27.3247 2.66063 0 8.85113 0 0)
(25.4203 4.48257 0 8.82701 0 0)
(23.5797 4.96698 0 8.91652 0 0)
(20.9285 4.99594 0 9.82109 0 0)
(18.401 4.13802 0 10.2408 0 0)
(15.816 2.63404 0 10.4094 0 0)
(14.2155 0.45723 0 10.325 0 0)
(13.4362 -1.64961 0 9.76887 0 0)
(13.4467 -2.05543 0 8.31446 0 0)
(13.0508 -0.750251 0 4.12745 0 0)
(8.51212 -0.147447 0 13.6817 0 0)
(8.20051 -0.182412 0 17.1432 0 0)
(12.6252 -3.06172 0 19.1819 0 0)
(17.1729 -5.43786 0 18.8814 0 0)
(20.1877 -7.42885 0 17.3704 0 0)
(23.2182 -7.74205 0 16.0028 0 0)
(24.1156 -7.08932 0 14.9423 0 0)
(25.4404 -5.02057 0 13.8977 0 0)
(25.1836 -2.59931 0 12.4221 0 0)
(25.2314 0.17185 0 10.6699 0 0)
(24.1121 2.61336 0 10.732 0 0)
(22.3636 4.54568 0 11.7915 0 0)
(20.5751 5.30853 0 12.0822 0 0)
(18.0895 5.32498 0 13.4042 0 0)
(15.8696 4.74547 0 14.8771 0 0)
(13.8219 2.9425 0 14.6411 0 0)
(12.7827 0.718868 0 15.3936 0 0)
(12.3334 -1.33794 0 13.736 0 0)
(12.5512 -1.97791 0 11.0777 0 0)
(12.3562 -0.604965 0 5.66023 0 0)
(7.22019 -0.0798145 0 14.005 0 0)
(7.69962 -0.777485 0 19.2832 0 0)
(11.4877 -4.23488 0 22.2203 0 0)
(15.5151 -7.32392 0 22.0655 0 0)
(18.8618 -8.70468 0 20.6715 0 0)
(21.441 -8.98182 0 18.2467 0 0)
(23.0472 -7.62857 0 16.9232 0 0)
(23.8669 -5.49909 0 15.2794 0 0)
(23.5747 -2.83582 0 13.9956 0 0)
(23.0099 0.0424581 0 12.7136 0 0)
(21.4107 2.29498 0 13.2088 0 0)
(19.9412 4.2555 0 14.4093 0 0)
(17.8222 5.38006 0 15.8981 0 0)
(15.4904 5.30905 0 17.664 0 0)
(13.2487 4.53497 0 19.4345 0 0)
(11.4794 3.08037 0 19.8864 0 0)
(10.6445 0.689091 0 19.9088 0 0)
(10.5168 -1.0244 0 17.872 0 0)
(10.8083 -1.74763 0 13.959 0 0)
(10.5108 -0.359908 0 6.93647 0 0)
(6.53509 -0.274986 0 14.0625 0 0)
(6.81392 -1.35631 0 22.2147 0 0)
(10.5131 -4.71174 0 26.2806 0 0)
(14.4884 -6.8857 0 25.8129 0 0)
(17.5822 -8.30906 0 23.0272 0 0)
(19.3779 -8.1293 0 19.8664 0 0)
(20.3781 -6.77815 0 18.1399 0 0)
(21.215 -4.93829 0 16.9254 0 0)
(21.3742 -2.40308 0 15.6453 0 0)
(20.7175 0.257885 0 14.5502 0 0)
(19.3438 2.10405 0 15.1297 0 0)
(17.4001 3.44046 0 16.619 0 0)
(15.632 4.52645 0 19.0992 0 0)
(13.3866 4.54785 0 21.4056 0 0)
(11.3927 4.10703 0 23.9113 0 0)
(9.91224 2.68581 0 24.7083 0 0)
(8.96746 0.610153 0 24.6597 0 0)
(8.7833 -0.768145 0 21.3393 0 0)
(9.11658 -1.35293 0 16.4781 0 0)
(8.83291 -0.162095 0 8.47175 0 0)
(5.9754 -0.546547 0 14.4071 0 0)
(6.23021 -1.64962 0 25.311 0 0)
(9.52696 -4.01079 0 29.8231 0 0)
(12.9765 -6.08584 0 28.6012 0 0)
(15.6849 -6.96506 0 25.0706 0 0)
(17.4452 -6.83304 0 21.1058 0 0)
(18.6991 -5.95083 0 19.337 0 0)
(19.6795 -4.28068 0 17.8369 0 0)
(19.0897 -2.20717 0 16.0491 0 0)
(18.4339 0.00970953 0 15.7791 0 0)
(17.3533 1.42036 0 16.8992 0 0)
(15.9045 2.65037 0 19.0337 0 0)
(13.9867 3.68115 0 21.6604 0 0)
(12.0081 3.77987 0 24.7448 0 0)
(10.3768 3.47546 0 28.0784 0 0)
(8.89803 2.36289 0 29.3254 0 0)
(7.94641 0.75874 0 28.5142 0 0)
(7.84436 -0.311953 0 24.5466 0 0)
(7.98195 -0.944556 0 18.8583 0 0)
(7.73955 -0.0236853 0 10.0431 0 0)
(5.39716 -0.424152 0 14.6552 0 0)
(5.44505 -1.15734 0 27.6052 0 0)
(8.39921 -2.74364 0 32.5852 0 0)
(11.296 -3.94647 0 31.2273 0 0)
(13.8678 -4.76336 0 26.8866 0 0)
(15.9259 -4.82938 0 22.7371 0 0)
(17.5381 -3.78011 0 20.3766 0 0)
(17.9738 -2.50256 0 18.1405 0 0)
(17.6526 -1.43944 0 16.9331 0 0)
(17.2633 -0.0191611 0 17.1503 0 0)
(15.994 0.922432 0 18.5417 0 0)
(14.6183 1.73194 0 20.6248 0 0)
(12.6341 2.42436 0 23.44 0 0)
(11.0143 2.57141 0 27.3627 0 0)
(9.46395 2.59105 0 31.2305 0 0)
(8.35155 1.92667 0 32.9094 0 0)
(7.70588 0.92774 0 32.148 0 0)
(7.47874 0.108396 0 27.2377 0 0)
(7.75889 -0.500667 0 21.0589 0 0)
(7.22833 0.127686 0 11.7132 0 0)
(4.67966 -0.0888416 0 14.081 0 0)
(5.41301 -0.35113 0 28.0981 0 0)
(8.54507 -0.946754 0 33.4196 0 0)
(10.4944 -1.14519 0 31.5141 0 0)
(12.1828 -1.71823 0 27.776 0 0)
(14.525 -2.08992 0 23.7248 0 0)
(15.2972 -2.13324 0 20.503 0 0)
(16.0831 -0.94733 0 18.2352 0 0)
(16.6076 -0.411307 0 16.894 0 0)
(15.6585 0.142675 0 17.6166 0 0)
(14.5992 0.540085 0 19.0845 0 0)
(13.4054 0.622196 0 21.5371 0 0)
(11.6608 0.687356 0 24.8236 0 0)
(10.5864 1.05003 0 28.9616 0 0)
(9.0669 1.33139 0 32.7974 0 0)
(8.09359 0.934946 0 34.9819 0 0)
(7.57593 0.702532 0 34.438 0 0)
(7.43388 0.389355 0 29.3523 0 0)
(7.66178 0.0909397 0 22.139 0 0)
(7.107 0.217445 0 12.6987 0 0)
(4.9561 -0.293321 0 13.3499 0 0)
(5.60818 0.172915 0 27.6916 0 0)
(7.99986 1.16305 0 32.8362 0 0)
(10.2325 1.32197 0 31.737 0 0)
(12.4606 0.95699 0 28.3405 0 0)
(14.0978 0.857848 0 24.1395 0 0)
(15.0585 0.413265 0 20.4335 0 0)
(15.2856 0.47176 0 17.9533 0 0)
(15.7704 0.0729793 0 16.8679 0 0)
(15.4675 -0.0390382 0 17.4618 0 0)
(14.4107 -0.233572 0 19.6882 0 0)
(13.2053 -0.456204 0 22.1139 0 0)
(11.5453 -0.939678 0 24.9504 0 0)
(10.2762 -0.700666 0 29.2025 0 0)
(9.00736 -0.335653 0 33.4283 0 0)
(8.04868 -0.284508 0 35.6152 0 0)
(7.49533 -0.0544476 0 34.771 0 0)
(7.4233 0.300628 0 29.6384 0 0)
(7.47751 0.510684 0 22.6105 0 0)
(6.94879 0.259668 0 12.6462 0 0)
(4.86357 -0.605384 0 13.034 0 0)
(5.81371 0.74462 0 25.9823 0 0)
(8.2145 2.79704 0 31.4608 0 0)
(10.7008 3.95895 0 30.8003 0 0)
(12.9039 4.08768 0 27.8423 0 0)
(14.3939 3.92972 0 23.7384 0 0)
(15.6217 3.12707 0 20.1117 0 0)
(15.9096 2.04594 0 17.9771 0 0)
(15.7599 1.07167 0 16.4377 0 0)
(15.7668 -0.100285 0 17.0802 0 0)
(14.7254 -1.07385 0 19.0491 0 0)
(13.8654 -1.54243 0 21.4206 0 0)
(12.2843 -2.18158 0 24.875 0 0)
(10.9103 -2.58319 0 28.4947 0 0)
(9.55204 -1.95907 0 32.3931 0 0)
(8.59929 -1.40355 0 34.3511 0 0)
(8.07025 -0.471315 0 33.6099 0 0)
(8.0269 0.313671 0 28.6072 0 0)
(7.84372 0.999266 0 21.7563 0 0)
(7.15312 0.343166 0 12.0807 0 0)
(5.57601 -0.335826 0 13.2798 0 0)
(6.17304 0.841466 0 23.5262 0 0)
(9.24264 3.67902 0 28.6687 0 0)
(11.9755 6.41025 0 28.8534 0 0)
(13.7136 7.17162 0 27.0925 0 0)
(15.842 6.30179 0 22.8994 0 0)
(16.8372 5.30363 0 19.0663 0 0)
(17.0607 3.99507 0 16.7643 0 0)
(17.3249 1.75139 0 15.5974 0 0)
(16.6342 -0.457738 0 15.5828 0 0)
(15.8479 -1.85617 0 17.5784 0 0)
(14.8405 -2.67662 0 20.331 0 0)
(13.5393 -3.40382 0 23.6451 0 0)
(11.6642 -3.7646 0 26.2334 0 0)
(10.1623 -3.40089 0 29.8687 0 0)
(9.21731 -2.46133 0 31.8166 0 0)
(8.55812 -0.95561 0 31.0299 0 0)
(8.53273 0.417617 0 26.371 0 0)
(8.40357 1.45234 0 20.0695 0 0)
(8.06247 0.480437 0 10.9059 0 0)
(5.85802 -0.172115 0 13.1453 0 0)
(6.47664 0.689532 0 20.2785 0 0)
(9.49537 4.32487 0 25.2093 0 0)
(13.0188 7.31266 0 25.91 0 0)
(15.9427 8.5942 0 25.293 0 0)
(18.0602 8.73126 0 21.9316 0 0)
(18.8086 7.44784 0 17.7855 0 0)
(18.718 5.09476 0 15.769 0 0)
(18.7486 2.36223 0 14.5393 0 0)
(18.3209 -0.0424057 0 14.5595 0 0)
(17.5164 -2.37241 0 15.3857 0 0)
(16.3496 -3.83014 0 17.8809 0 0)
(14.9624 -4.59654 0 21.0082 0 0)
(13.0106 -4.42666 0 23.3292 0 0)
(11.2426 -4.24349 0 26.335 0 0)
(10.0098 -2.99145 0 27.708 0 0)
(9.18832 -1.10873 0 26.6798 0 0)
(9.09732 0.396785 0 22.8829 0 0)
(9.53924 1.55958 0 17.492 0 0)
(9.61185 0.412428 0 9.18308 0 0)
(6.53225 0.156783 0 12.605 0 0)
(6.93964 0.86605 0 17.0974 0 0)
(11.1295 4.07191 0 21.2038 0 0)
(15.2174 7.1195 0 22.6925 0 0)
(17.8495 9.61713 0 22.1619 0 0)
(20.2283 9.73649 0 20.0989 0 0)
(21.4588 8.74572 0 16.6534 0 0)
(21.7049 6.22442 0 14.5778 0 0)
(21.1711 2.84627 0 13.0008 0 0)
(20.6395 -0.0588604 0 12.6752 0 0)
(19.7544 -2.50602 0 13.2956 0 0)
(18.1871 -4.33636 0 15.0371 0 0)
(16.3436 -5.21129 0 17.2773 0 0)
(14.3249 -5.31747 0 19.3004 0 0)
(12.5265 -4.97315 0 22.2581 0 0)
(11.2245 -3.42983 0 23.0279 0 0)
(10.319 -1.30179 0 22.0554 0 0)
(10.3591 0.27511 0 19.0894 0 0)
(11.0667 1.38797 0 14.4984 0 0)
(11.441 0.283462 0 7.71335 0 0)
(8.10732 0.297102 0 12.5078 0 0)
(8.39309 0.424789 0 14.2451 0 0)
(12.3131 2.91825 0 17.3392 0 0)
(16.6484 6.46413 0 18.2575 0 0)
(19.1768 8.79323 0 18.9337 0 0)
(22.233 9.61093 0 17.5602 0 0)
(24.3567 8.76791 0 15.035 0 0)
(25.0346 6.48429 0 12.9793 0 0)
(24.8793 3.53989 0 11.4324 0 0)
(23.8389 0.684281 0 10.3051 0 0)
(22.1756 -1.97222 0 10.4926 0 0)
(20.4188 -4.00554 0 11.7179 0 0)
(18.5065 -5.08001 0 13.2881 0 0)
(16.8872 -5.62822 0 15.2213 0 0)
(14.8794 -5.51827 0 17.2553 0 0)
(13.0405 -3.69946 0 17.6274 0 0)
(11.7388 -1.45778 0 17.0302 0 0)
(11.5958 0.0443224 0 14.7273 0 0)
(12.2104 1.14185 0 11.3237 0 0)
(12.4209 0.383748 0 6.0697 0 0)
(9.25043 0.141347 0 11.1532 0 0)
(8.81817 0.587721 0 11.369 0 0)
(11.4077 2.41344 0 12.6173 0 0)
(16.5826 4.49608 0 14.0575 0 0)
(19.8216 6.37963 0 15.4884 0 0)
(23.0833 7.67615 0 14.2668 0 0)
(25.6598 7.76452 0 12.8219 0 0)
(26.909 5.97422 0 10.7873 0 0)
(27.0444 3.69091 0 9.30493 0 0)
(26.7212 0.696834 0 8.45258 0 0)
(25.7898 -1.68346 0 8.19941 0 0)
(24.2956 -3.75124 0 8.75589 0 0)
(22.0322 -5.01266 0 9.80761 0 0)
(19.6329 -5.42637 0 10.8396 0 0)
(16.9092 -5.07926 0 12.3229 0 0)
(14.4758 -3.33134 0 12.0918 0 0)
(13.1737 -1.27316 0 11.8116 0 0)
(12.963 0.346031 0 10.3674 0 0)
(13.3323 0.964161 0 8.13109 0 0)
(13.6617 0.44734 0 5.14299 0 0)
(9.14358 -0.264768 0 8.9023 0 0)
(8.55183 0.402638 0 8.70416 0 0)
(11.8716 1.06973 0 9.44605 0 0)
(14.9182 2.19715 0 10.309 0 0)
(18.6785 3.51582 0 11.1511 0 0)
(22.4148 4.56394 0 10.2616 0 0)
(25.8068 5.14869 0 8.80054 0 0)
(27.9777 4.16191 0 7.95051 0 0)
(29.3076 2.77649 0 6.75768 0 0)
(29.522 0.411571 0 6.28674 0 0)
(29.0923 -1.8034 0 5.69032 0 0)
(27.6342 -3.47863 0 5.85234 0 0)
(24.5799 -4.31467 0 6.31576 0 0)
(21.1885 -4.29562 0 6.83365 0 0)
(17.9068 -3.55048 0 7.52191 0 0)
(15.5117 -2.46697 0 7.12947 0 0)
(14.233 -0.994017 0 6.92115 0 0)
(14.2187 0.539169 0 6.25701 0 0)
(14.9874 0.961069 0 4.85019 0 0)
(15.709 0.0756258 0 4.12597 0 0)
(9.13043 -0.549333 0 7.41324 0 0)
(8.58256 0.225711 0 6.82433 0 0)
(10.3439 0.565936 0 6.58207 0 0)
(13.4934 0.336657 0 7.22944 0 0)
(15.9558 0.807095 0 6.83595 0 0)
(18.3839 1.41739 0 6.25976 0 0)
(21.8886 2.09555 0 5.67747 0 0)
(24.8734 2.00508 0 4.7257 0 0)
(26.744 1.39828 0 4.33211 0 0)
(27.8362 0.215196 0 4.18513 0 0)
(27.6256 -1.12073 0 3.50857 0 0)
(25.5096 -1.77051 0 3.39114 0 0)
(22.2598 -2.20996 0 3.23436 0 0)
(19.1842 -2.22432 0 3.62242 0 0)
(16.4131 -1.86244 0 4.0066 0 0)
(13.9488 -1.29565 0 3.47067 0 0)
(13.051 -0.589053 0 3.23742 0 0)
(12.9321 0.0068821 0 2.99818 0 0)
(14.2101 0.492425 0 2.64859 0 0)
(14.7649 -0.6608 0 3.58306 0 0)
(5.67433 -0.0974949 0 4.56608 0 0)
(8.03223 -0.205386 0 8.46117 0 0)
(10.0839 0.0349774 0 7.92884 0 0)
(12.6325 0.144146 0 7.2943 0 0)
(13.6066 0.0265094 0 6.44981 0 0)
(14.0583 -0.258595 0 5.43037 0 0)
(14.6735 -0.0815536 0 4.82167 0 0)
(14.5328 -0.0416707 0 4.01279 0 0)
(14.6232 -0.0875981 0 3.82314 0 0)
(15.0177 0.383197 0 3.77022 0 0)
(14.8226 0.468518 0 3.4166 0 0)
(13.7433 0.199282 0 3.2196 0 0)
(12.1378 0.0871537 0 3.04256 0 0)
(10.4853 -0.0125006 0 3.2651 0 0)
(8.726 0.0629682 0 3.40876 0 0)
(7.657 0.0288853 0 2.79654 0 0)
(6.81289 -0.0998592 0 2.48607 0 0)
(6.53252 -0.320991 0 2.2798 0 0)
(6.83228 -0.384273 0 2.42719 0 0)
(5.60254 -0.537341 0 2.48879 0 0)
)
;

boundaryField
{
    upperWall
    {
        type            calculated;
        value           uniform (0 0 0 0 0 0);
    }
    lowerWall
    {
        type            calculated;
        value           uniform (0 0 0 0 0 0);
    }
    inlet
    {
        type            calculated;
        value           nonuniform List<symmTensor> 
20
(
(8.53496e-13 6.16747e-14 1.28711e-14 8.41654e-13 3.70882e-14 9.08192e-13)
(9.80658e-13 -1.57803e-15 9.20594e-14 1.05565e-12 -4.92816e-14 8.70908e-13)
(9.98644e-13 -2.09869e-14 4.22847e-14 9.27942e-13 1.17294e-13 8.28758e-13)
(9.8273e-13 -4.54567e-14 2.8641e-14 9.50649e-13 8.36321e-14 8.22501e-13)
(9.83826e-13 -3.40466e-15 2.82246e-14 8.57982e-13 -9.80606e-14 1.05739e-12)
(1.04017e-12 -2.07903e-14 -2.39015e-14 1.19037e-12 1.25054e-14 1.01549e-12)
(9.60473e-13 4.17299e-14 -2.20835e-14 8.51685e-13 -6.64032e-14 9.98741e-13)
(8.41148e-13 8.05744e-14 -1.39228e-14 1.02287e-12 4.21874e-14 9.08283e-13)
(9.77472e-13 -8.98715e-15 -3.54115e-14 1.02326e-12 -8.78926e-14 8.95893e-13)
(1.06034e-12 5.86739e-14 5.1512e-14 1.11249e-12 -1.55486e-13 1.09693e-12)
(9.97822e-13 7.16324e-14 2.10868e-14 9.5512e-13 -5.05632e-15 9.93813e-13)
(9.23844e-13 -6.03564e-14 2.76489e-14 1.11717e-12 3.39704e-14 9.49401e-13)
(1.04198e-12 2.24315e-14 -7.44279e-14 9.91921e-13 4.39575e-14 9.18324e-13)
(1.00378e-12 -5.90131e-14 1.83508e-14 1.02059e-12 6.07202e-14 8.80696e-13)
(1.07841e-12 2.43034e-14 2.72102e-14 9.3398e-13 -2.46621e-14 9.59965e-13)
(9.15715e-13 -9.67325e-14 6.33405e-14 1.13446e-12 -8.5857e-14 9.65014e-13)
(8.72975e-13 -9.81747e-15 -9.96389e-14 9.77158e-13 3.26907e-16 8.68502e-13)
(8.42371e-13 -9.40954e-14 9.96116e-14 1.14061e-12 -1.41162e-13 9.80691e-13)
(8.82874e-13 -5.20071e-15 -5.98486e-14 9.87299e-13 8.29059e-16 1.03166e-12)
(9.99699e-13 7.7961e-14 5.8385e-14 9.62712e-13 -8.15702e-14 1.12742e-12)
)
;
    }
    outlet
    {
        type            calculated;
        value           nonuniform List<symmTensor> 
20
(
(5.76776 0.109184 0 1.05327 0 0)
(13.5547 0.139425 0 1.72537 0 0)
(14.4241 -0.0732329 0 2.34628 0 0)
(13.0508 0.0274587 0 2.67763 0 0)
(12.3562 0.0848974 0 3.64372 0 0)
(10.5108 0.385532 0 5.08717 0 0)
(8.83291 0.536649 0 6.89436 0 0)
(7.73955 0.568811 0 8.62093 0 0)
(7.22833 0.5745 0 10.088 0 0)
(7.107 0.668252 0 11.0652 0 0)
(6.94879 0.583976 0 11.0551 0 0)
(7.15312 0.481956 0 10.5162 0 0)
(8.06247 0.413193 0 9.27483 0 0)
(9.61185 0.244887 0 7.56695 0 0)
(11.441 0.0664723 0 5.64787 0 0)
(12.4209 -0.0307015 0 4.57302 0 0)
(13.6617 -0.040022 0 3.85339 0 0)
(15.709 -0.420227 0 3.15209 0 0)
(14.7649 -0.98553 0 2.86559 0 0)
(5.60254 -0.58504 0 2.14297 0 0)
)
;
    }
    frontAndBack
    {
        type            empty;
    }
}


// ************************************************************************* //
