/*--------------------------------*- C++ -*----------------------------------*\
  =========                 |
  \\      /  F ield         | OpenFOAM: The Open Source CFD Toolbox
   \\    /   O peration     | Website:  https://openfoam.org
    \\  /    A nd           | Version:  7
     \\/     M anipulation  |
\*---------------------------------------------------------------------------*/
FoamFile
{
    version     2.0;
    format      ascii;
    class       surfaceScalarField;
    location    "0.3375";
    object      phi;
}
// * * * * * * * * * * * * * * * * * * * * * * * * * * * * * * * * * * * * * //

dimensions      [1 0 -1 0 0 0 0];

internalField   nonuniform List<scalar> 
36620
(
0.000448321
0.000892633
7.52566e-06
0.000237603
0.000195325
3.90231e-06
0.000155964
6.3721e-05
6.43073e-06
0.000124364
1.60005e-05
4.12336e-06
0.000103141
3.73103e-06
6.03605e-06
8.6883e-05
5.6431e-07
4.2241e-06
7.2356e-05
-2.7212e-06
5.74267e-06
5.92941e-05
-2.78351e-06
4.28756e-06
4.74593e-05
-5.26007e-06
5.48895e-06
3.70206e-05
-5.53205e-06
4.31422e-06
2.75758e-05
-7.52759e-06
5.26508e-06
1.88227e-05
-7.32003e-06
4.31325e-06
1.03783e-05
-8.42847e-06
5.05916e-06
1.98817e-06
-7.75009e-06
4.2814e-06
-6.22552e-06
-8.54821e-06
4.85643e-06
-1.45866e-05
-7.79781e-06
4.21924e-06
-2.28154e-05
-8.40386e-06
4.65326e-06
-3.06361e-05
-8.31195e-06
4.12916e-06
-4.90878e-05
1.93021e-06
4.4739e-06
-1.56679e-05
3.94124e-06
-4.93282e-05
0.000973607
0.00126609
1.56101e-06
0.000706831
0.000452878
-1.77703e-06
0.000545447
0.00021331
8.22936e-07
0.00047004
8.19425e-05
-1.45441e-06
0.00042096
4.1534e-05
4.88387e-07
0.000385971
2.61223e-05
-1.31959e-06
0.000355128
1.71332e-05
2.1021e-07
0.000330317
1.23918e-05
-1.24848e-06
0.000308396
5.74107e-06
-3.93076e-08
0.000291735
1.30085e-06
-1.21943e-06
0.000276554
-3.19934e-06
-2.64536e-07
0.000263954
-4.69201e-06
-1.22136e-06
0.000250902
-6.16833e-06
-4.73603e-07
0.000238667
-5.57973e-06
-1.25504e-06
0.00022603
-6.59574e-06
-6.79754e-07
0.000213447
-5.2732e-06
-1.31888e-06
0.000201794
-7.26349e-06
-8.89935e-07
0.000189876
-6.3848e-06
-1.40642e-06
0.000194708
-1.31971e-05
-1.14386e-06
-3.8979e-05
-1.62716e-06
0.000208312
0.00135844
0.00125089
5.53874e-06
0.00123652
0.000561477
2.39942e-06
0.00109533
0.00033872
4.86005e-06
0.000998867
0.000164968
2.55399e-06
0.000927638
9.76486e-05
4.46729e-06
0.000874639
6.60654e-05
2.6462e-06
0.000829558
4.769e-05
4.16747e-06
0.000794162
3.4597e-05
2.7079e-06
0.000764686
2.06457e-05
3.91239e-06
0.000743696
8.74858e-06
2.73503e-06
0.000725771
1.10833e-07
3.68845e-06
0.000711718
-4.41005e-06
2.73438e-06
0.000697225
-6.31854e-06
3.48288e-06
0.000683716
-6.03516e-06
2.7028e-06
0.000669613
-7.11863e-06
3.27911e-06
0.000655596
-5.25988e-06
2.6396e-06
0.000641456
-7.5784e-06
3.07566e-06
0.000628669
-7.47837e-06
2.54477e-06
0.000604357
-3.15949e-06
2.92032e-06
-2.36814e-05
2.37439e-06
0.00057541
0.00150991
0.00108783
1.80468e-06
0.0015183
0.000543397
-1.2115e-06
0.00146535
0.000379531
1.22191e-06
0.001409
0.000211365
-1.05154e-06
0.00135544
0.000139508
8.93236e-07
0.00131001
0.000102001
-9.1204e-07
0.00126783
7.91596e-05
6.20902e-07
0.00123203
6.11208e-05
-8.36021e-07
0.00120057
4.13782e-05
3.74692e-07
0.00117661
2.28829e-05
-8.05569e-07
0.00115647
9.28975e-06
1.5014e-07
0.00114071
1.19148e-06
-8.06753e-07
0.00112553
-2.1865e-06
-5.77301e-08
0.00111126
-2.23141e-06
-8.38824e-07
0.00109711
-4.17322e-06
-2.62805e-07
0.00108172
-5.36363e-07
-9.02579e-07
0.00107027
-7.26828e-06
-4.73483e-07
0.00105241
-2.06096e-07
-9.928e-07
0.00105232
-1.38611e-05
-7.3752e-07
-2.17588e-05
-1.18951e-06
0.00104012
0.00154838
0.000883455
4.7168e-06
0.00161973
0.000459263
1.91502e-06
0.00163142
0.000352687
4.26234e-06
0.00161886
0.000210894
1.98399e-06
0.001595
0.000148465
3.90075e-06
0.00157046
0.000113888
2.08422e-06
0.00154382
9.21522e-05
3.60938e-06
0.00151855
7.43901e-05
2.15209e-06
0.00149283
5.36913e-05
3.35894e-06
0.00147031
3.27917e-05
2.18164e-06
0.00144977
1.59796e-05
3.13566e-06
0.00143293
4.95789e-06
2.18122e-06
0.0014172
-4.08167e-07
2.92988e-06
0.0014028
-1.20386e-06
2.15024e-06
0.00138815
-3.7246e-06
2.72702e-06
0.00137362
2.14913e-07
2.08678e-06
0.00135882
-6.81128e-06
2.52161e-06
0.00134421
6.02041e-07
1.98919e-06
0.00132601
-9.77025e-06
2.36331e-06
-4.22259e-06
1.83549e-06
0.001295
0.00153987
0.000689969
2.25983e-06
0.00162609
0.000362697
-5.16978e-07
0.00167134
0.000294797
1.78053e-06
0.00168822
0.000183433
-4.99716e-07
0.00168949
0.00013467
1.42362e-06
0.00168639
0.000106653
-3.88614e-07
0.00167826
8.90611e-05
1.14183e-06
0.00166831
7.49194e-05
-3.14905e-07
0.00165382
5.74532e-05
8.95363e-07
0.00163799
3.86341e-05
-2.85012e-07
0.00162061
2.20493e-05
6.68168e-07
0.00160469
1.03003e-05
-2.89829e-07
0.00158921
3.65012e-06
4.58511e-07
0.001575
2.17358e-06
-3.21109e-07
0.00156072
-1.11047e-06
2.55927e-07
0.0015462
3.36754e-06
-3.8505e-07
0.00153278
-5.37928e-06
4.61628e-08
0.00151718
4.64689e-06
-4.7954e-07
0.00150841
-1.27654e-05
-2.09833e-07
-2.70024e-06
-6.5855e-07
0.00149571
0.0015293
0.000505262
4.10088e-06
0.00161438
0.000265286
1.48052e-06
0.00167109
0.000223508
3.73578e-06
0.00170086
0.000141119
1.4704e-06
0.00171532
0.000105672
3.38268e-06
0.00172473
8.48978e-05
1.56801e-06
0.00172862
7.19598e-05
3.0962e-06
0.00173022
6.20189e-05
1.64216e-06
0.00172582
4.92885e-05
2.85306e-06
0.00171772
3.49031e-05
1.67687e-06
0.00170535
2.11871e-05
2.63085e-06
0.00169232
1.08054e-05
1.67628e-06
0.00167831
4.29957e-06
2.42542e-06
0.00166523
2.54037e-06
1.64654e-06
0.00165107
-5.23638e-07
2.2244e-06
0.00163811
3.03625e-06
1.58291e-06
0.00162256
-3.85769e-06
2.01723e-06
0.00160966
3.93355e-06
1.4835e-06
0.00159087
-7.92825e-06
1.84331e-06
4.50027e-06
1.33995e-06
0.00157037
0.00151892
0.000332298
2.69435e-06
0.0015989
0.000174388
7.6413e-08
0.00165925
0.000150018
2.29858e-06
0.00169379
9.54776e-05
2.27475e-08
0.00171397
7.23908e-05
1.93255e-06
0.00172939
5.85747e-05
1.16687e-07
0.00173955
5.00506e-05
1.64513e-06
0.00174788
4.38742e-05
1.88677e-07
0.00175023
3.58818e-05
1.3986e-06
0.00174823
2.65779e-05
2.18305e-07
0.00174052
1.71411e-05
1.16974e-06
0.00173057
9.69976e-06
2.1135e-07
0.0017183
4.6828e-06
9.58382e-07
0.00170641
3.22522e-06
1.79867e-07
0.00169314
6.85092e-07
7.57008e-07
0.00168088
3.50443e-06
1.16503e-07
0.00166662
-2.18507e-06
5.4724e-07
0.00165398
4.36469e-06
1.90156e-08
0.00164013
-6.58022e-06
3.09128e-07
2.81583e-06
-1.46404e-07
0.00162992
0.00151308
0.000164314
3.58035e-06
0.00158957
8.6018e-05
1.04187e-06
0.00165055
7.49457e-05
3.24566e-06
0.00168625
4.76999e-05
9.83206e-07
0.00170834
3.62427e-05
2.89086e-06
0.00172573
2.93371e-05
1.07614e-06
0.00173798
2.50966e-05
2.60512e-06
0.00174896
2.21438e-05
1.15122e-06
0.00175451
1.83199e-05
2.36316e-06
0.001756
1.38017e-05
1.18646e-06
0.00175136
9.04363e-06
2.14004e-06
0.00174384
5.18656e-06
1.18452e-06
0.00173318
2.49032e-06
1.93336e-06
0.00172256
1.67751e-06
1.15524e-06
0.00170987
3.62384e-07
1.73344e-06
0.00169883
1.78948e-06
1.09159e-06
0.00168403
-9.53373e-07
1.52585e-06
0.00167281
2.37227e-06
9.91202e-07
0.00165504
-2.3873e-06
1.33134e-06
3.55063e-06
8.45904e-07
0.00164138
0.00150985
1.96253e-09
3.1251e-06
0.00158444
2.35525e-09
5.8654e-07
0.00164575
2.19184e-09
2.77926e-06
0.00168185
3.10527e-09
5.10986e-07
0.00170451
2.31382e-09
2.41645e-06
0.00172247
4.35035e-09
6.00366e-07
0.00173536
1.74518e-09
2.12879e-06
0.00174722
6.28565e-09
6.73333e-07
0.00175401
5.8081e-10
1.88407e-06
0.001757
9.38317e-09
7.05146e-07
0.00175379
2.96202e-09
1.65714e-06
0.0017474
1.81593e-08
6.99871e-07
0.00173751
1.68531e-08
1.44745e-06
0.00172746
5.03159e-08
6.69405e-07
0.00171526
4.90227e-08
1.24677e-06
0.00170459
1.87338e-07
6.06325e-07
0.00169044
1.16823e-07
1.03742e-06
0.00167947
6.07966e-07
5.0734e-07
0.00166342
5.74397e-07
8.20145e-07
1.61707e-06
3.55118e-07
0.00165291
0.00150985
-0.00016431
3.1251e-06
0.00158444
-8.60133e-05
5.86539e-07
0.00164575
-7.49413e-05
2.77926e-06
0.00168185
-4.76938e-05
5.10983e-07
0.00170451
-3.6238e-05
2.41645e-06
0.00172247
-2.93286e-05
6.0036e-07
0.00173536
-2.5093e-05
2.12879e-06
0.00174723
-2.21317e-05
6.73321e-07
0.00175402
-1.83186e-05
1.88407e-06
0.001757
-1.37842e-05
7.05109e-07
0.00175379
-9.03749e-06
1.65714e-06
0.00174741
-5.1546e-06
6.99738e-07
0.00173751
-2.45313e-06
1.44739e-06
0.00172748
-1.58762e-06
6.68923e-07
0.00171526
-2.59057e-07
1.24682e-06
0.00170462
-1.43564e-06
6.05029e-07
0.00169046
1.19383e-06
1.03864e-06
0.00167947
-1.13109e-06
5.054e-07
0.00166351
3.44397e-06
8.22919e-07
-3.21407e-07
3.51156e-07
0.001653
0.00151308
-0.000332294
3.58035e-06
0.00158957
-0.000174383
1.04187e-06
0.00165055
-0.000150013
3.24565e-06
0.00168625
-9.54714e-05
9.83203e-07
0.00170834
-7.23861e-05
2.89086e-06
0.00172573
-5.85663e-05
1.07614e-06
0.00173798
-5.00471e-05
2.60511e-06
0.00174896
-4.3862e-05
1.15123e-06
0.00175451
-3.58806e-05
2.36316e-06
0.001756
-2.65594e-05
1.18649e-06
0.00175136
-1.71355e-05
2.14004e-06
0.00174384
-9.66379e-06
1.18464e-06
0.00173318
-4.65046e-06
1.9334e-06
0.00172255
-3.12708e-06
1.15571e-06
0.00170987
-5.90216e-07
1.73335e-06
0.00169881
-3.13858e-06
1.09285e-06
0.00168404
2.40323e-06
1.52461e-06
0.00167286
-3.16672e-06
9.92943e-07
0.00165508
7.65357e-06
1.32862e-06
3.62427e-07
8.48582e-07
0.00164147
0.00151892
-0.000505258
2.69434e-06
0.00159891
-0.000265281
7.6406e-08
0.00165925
-0.000223504
2.29857e-06
0.00169379
-0.000141113
2.27401e-08
0.00171397
-0.000105667
1.93255e-06
0.00172939
-8.48898e-05
1.16676e-07
0.00173955
-7.1956e-05
1.64513e-06
0.00174788
-6.20076e-05
1.88659e-07
0.00175023
-4.92869e-05
1.3986e-06
0.00174823
-3.48862e-05
2.18264e-07
0.00174052
-2.11813e-05
1.16973e-06
0.00173057
-1.0774e-05
2.11218e-07
0.00171831
-4.26526e-06
9.58333e-07
0.00170643
-2.45456e-06
1.79431e-07
0.00169316
6.19916e-07
7.5707e-07
0.00168092
-2.70021e-06
1.15436e-07
0.00166668
4.06767e-06
5.48471e-07
0.00165404
-2.7377e-06
1.7537e-08
0.00164033
8.85598e-06
3.11757e-07
-1.40709e-06
-1.48441e-07
0.00163019
0.0015293
-0.000689965
4.10087e-06
0.00161438
-0.000362692
1.48051e-06
0.00167109
-0.000294792
3.73577e-06
0.00170086
-0.000183427
1.47039e-06
0.00171532
-0.000134664
3.38267e-06
0.00172473
-0.000106645
1.568e-06
0.00172862
-8.90571e-05
3.09618e-06
0.00173022
-7.49087e-05
1.64216e-06
0.00172582
-5.74511e-05
2.85305e-06
0.00171772
-3.86172e-05
1.67689e-06
0.00170535
-2.20437e-05
2.63084e-06
0.00169232
-1.02675e-05
1.67638e-06
0.00167832
-3.62129e-06
2.42543e-06
0.00166523
-2.08603e-06
1.64693e-06
0.00165108
1.19388e-06
2.2243e-06
0.00163813
-3.03841e-06
1.5838e-06
0.00162262
5.55355e-06
2.0159e-06
0.0016098
-3.53154e-06
1.48426e-06
0.00159109
1.36099e-05
1.84084e-06
5.60478e-06
1.3405e-06
0.00157079
0.00153987
-0.000883451
2.25982e-06
0.00162609
-0.000459258
-5.16991e-07
0.00167134
-0.000352682
1.78052e-06
0.00168822
-0.000210889
-4.99728e-07
0.00168949
-0.00014846
1.4236e-06
0.00168639
-0.000113881
-3.88633e-07
0.00167825
-9.21474e-05
1.14182e-06
0.00166831
-7.4381e-05
-3.14929e-07
0.00165382
-5.3688e-05
8.95359e-07
0.001638
-3.2778e-05
-2.85055e-07
0.00162061
-1.59725e-05
6.68161e-07
0.0016047
-4.93219e-06
-2.89951e-07
0.00158921
4.38055e-07
4.58485e-07
0.00157503
1.27323e-06
-3.21464e-07
0.00156075
3.80493e-06
2.56012e-07
0.00154628
6.34957e-08
-3.85732e-07
0.00153288
6.96557e-06
4.70707e-08
0.00151736
4.33162e-07
-4.80618e-07
0.00150878
1.04273e-05
-2.0737e-07
6.85418e-06
-6.57948e-07
0.00149634
0.00154838
-0.00108782
4.71679e-06
0.00161973
-0.000543393
1.91501e-06
0.00163142
-0.000379527
4.26232e-06
0.00161886
-0.00021136
1.98398e-06
0.001595
-0.000139502
3.90073e-06
0.00157047
-0.000101995
2.0842e-06
0.00154382
-7.91541e-05
3.60936e-06
0.00151855
-6.11129e-05
2.15208e-06
0.00149283
-4.13735e-05
3.35893e-06
0.00147031
-2.28715e-05
2.18166e-06
0.00144977
-9.28165e-06
3.13565e-06
0.00143293
-1.16975e-06
2.18128e-06
0.00141721
2.21216e-06
2.92987e-06
0.00140281
2.29001e-06
2.15053e-06
0.00138818
4.23837e-06
2.72693e-06
0.00137369
7.69085e-07
2.08751e-06
0.00135895
7.37738e-06
2.52058e-06
0.00134453
1.05186e-06
1.99004e-06
0.00132651
1.43324e-05
2.3612e-06
2.3874e-05
1.83536e-06
0.00129605
0.00150991
-0.00125088
1.80466e-06
0.0015183
-0.000561473
-1.21152e-06
0.00146535
-0.000338715
1.22189e-06
0.001409
-0.000164963
-1.05156e-06
0.00135544
-9.76432e-05
8.93215e-07
0.00131001
-6.60595e-05
-9.12068e-07
0.00126783
-4.7684e-05
6.20881e-07
0.00123203
-3.45907e-05
-8.36048e-07
0.00120057
-2.06398e-05
3.74683e-07
0.00117661
-8.74116e-06
-8.05613e-07
0.00115647
-1.015e-07
1.50129e-07
0.00114072
4.42134e-06
-8.06853e-07
0.00112554
6.34313e-06
-5.774e-08
0.0011113
6.06616e-06
-8.39084e-07
0.00109717
7.17515e-06
-2.627e-07
0.00108186
5.4043e-06
-9.0313e-07
0.00107042
7.67591e-06
-4.72832e-07
0.00105282
8.06829e-06
-9.93862e-07
0.00105287
3.48375e-06
-7.35319e-07
2.52071e-05
-1.19177e-06
0.00104127
0.00135844
-0.00126609
5.53872e-06
0.00123653
-0.000452874
2.39939e-06
0.00109533
-0.000213306
4.86003e-06
0.000998869
-8.19382e-05
2.55397e-06
0.00092764
-4.15289e-05
4.46727e-06
0.000874641
-2.61167e-05
2.64618e-06
0.000829559
-1.71275e-05
4.16745e-06
0.000794163
-1.23863e-05
2.70789e-06
0.000764686
-5.73558e-06
3.91237e-06
0.000743697
-1.29502e-06
2.73503e-06
0.000725774
3.20684e-06
3.68843e-06
0.000711723
4.69972e-06
2.73442e-06
0.000697241
6.18352e-06
3.48284e-06
0.000683742
5.59821e-06
2.70302e-06
0.000669669
6.62803e-06
3.27899e-06
0.000655714
5.34885e-06
2.64016e-06
0.000641635
7.3117e-06
3.07493e-06
0.000629135
6.67602e-06
2.54551e-06
0.000605049
1.33131e-05
2.91892e-06
3.96422e-05
2.37531e-06
0.000576948
0.000973607
-0.000892629
1.56099e-06
0.000706832
-0.000195321
-1.77705e-06
0.000545448
-6.37168e-05
8.22916e-07
0.000470041
-1.5996e-05
-1.45443e-06
0.000420962
-3.72604e-06
4.88368e-07
0.000385972
-5.59007e-07
-1.31961e-06
0.000355129
2.72644e-06
2.10192e-07
0.000330318
2.7885e-06
-1.24851e-06
0.000308397
5.26502e-06
-3.93213e-08
0.000291737
5.5368e-06
-1.21946e-06
0.000276557
7.53307e-06
-2.64546e-07
0.000263961
7.32476e-06
-1.22142e-06
0.000250916
8.43648e-06
-4.73613e-07
0.000238694
7.75713e-06
-1.25518e-06
0.000226077
8.5624e-06
-6.79702e-07
0.000213544
7.82062e-06
-1.31917e-06
0.000201922
8.42781e-06
-8.8967e-07
0.000190199
8.40127e-06
-1.40718e-06
0.000195014
-1.78114e-06
-1.14244e-06
1.58804e-05
-1.6291e-06
0.000208985
0.000448321
7.52562e-06
0.000237603
3.90228e-06
0.000155964
6.43069e-06
0.000124364
4.12333e-06
0.000103141
6.03602e-06
8.68833e-05
4.22406e-06
7.23562e-05
5.74263e-06
5.92943e-05
4.28752e-06
4.74596e-05
5.48891e-06
3.70211e-05
4.31419e-06
2.75773e-05
5.26503e-06
1.88247e-05
4.31325e-06
1.03843e-05
5.05908e-06
1.99687e-06
4.2815e-06
-6.20606e-06
4.85628e-06
-1.45495e-05
4.2196e-06
-2.2756e-05
4.65276e-06
-3.04942e-05
4.12975e-06
-4.87915e-05
4.47283e-06
3.94317e-06
-4.89201e-05
0.000859332
0.00049482
1.62634e-06
0.000496005
0.000353907
2.11485e-06
0.000336116
0.000153856
1.27465e-06
0.000268936
5.83536e-05
1.81573e-06
0.000231388
3.1208e-05
1.3058e-06
0.000201923
2.09979e-05
1.61757e-06
0.000178825
1.64384e-05
1.27398e-06
0.000157725
1.27377e-05
1.44903e-06
0.000140995
9.71747e-06
1.23801e-06
0.000125521
7.13584e-06
1.32511e-06
0.000112883
5.30829e-06
1.20739e-06
0.000100184
4.32504e-06
1.23646e-06
8.88537e-05
3.70899e-06
1.18063e-06
7.68023e-05
3.62478e-06
1.16453e-06
6.57263e-05
3.20925e-06
1.14773e-06
5.38415e-05
3.40546e-06
1.09559e-06
4.34637e-05
2.2917e-06
1.10641e-06
3.08259e-05
4.09725e-06
1.01904e-06
6.50519e-05
-4.25089e-05
1.05288e-06
-3.91363e-05
9.61277e-07
9.56271e-05
0.00133856
0.000501637
4.72103e-06
0.00114536
0.000529104
5.25916e-06
0.000967303
0.000317299
4.43831e-06
0.000840995
0.000167353
4.9551e-06
0.000756527
0.000101037
4.45523e-06
0.000693742
6.72016e-05
4.75509e-06
0.000647218
4.81951e-05
4.41264e-06
0.000609206
3.42137e-05
4.58788e-06
0.000581566
2.20888e-05
4.37215e-06
0.000558769
1.32877e-05
4.46002e-06
0.000541737
6.65713e-06
4.33872e-06
0.000525507
3.78009e-06
4.36562e-06
0.000511582
1.56774e-06
4.31062e-06
0.000496689
1.63154e-06
4.28657e-06
0.000483321
2.48289e-07
4.27369e-06
0.000468725
1.10447e-06
4.20729e-06
0.000455279
-7.55949e-07
4.22643e-06
0.000443623
-1.11447e-06
4.1135e-06
0.000402202
-1.78194e-05
4.18971e-06
-1.13575e-05
4.06992e-06
0.00035744
0.00144466
0.000408921
2.00816e-06
0.00143258
0.00052998
2.66268e-06
0.00135262
0.000389481
1.6332e-06
0.00126144
0.0002477
2.3666e-06
0.00118427
0.000170247
1.691e-06
0.0011189
0.00012268
2.17946e-06
0.00106659
9.27642e-05
1.67913e-06
0.00102242
6.87028e-05
2.00451e-06
0.00098921
4.69298e-05
1.65726e-06
0.00096242
3.01133e-05
1.86857e-06
0.000942729
1.741e-05
1.64026e-06
0.000924964
1.13657e-05
1.76661e-06
0.000910033
7.03526e-06
1.62791e-06
0.00089438
6.84105e-06
1.68497e-06
0.000880773
3.9717e-06
1.6093e-06
0.00086476
6.58662e-06
1.60651e-06
0.000854435
-4.82509e-07
1.5768e-06
0.000834588
8.26479e-06
1.52111e-06
0.000844186
-3.74775e-05
1.5009e-06
-1.89701e-05
1.46285e-06
0.000841275
0.00142533
0.000329592
4.3132e-06
0.0014861
0.00045218
4.91321e-06
0.001497
0.000364692
4.11539e-06
0.00147133
0.000256576
4.63171e-06
0.00143632
0.00019113
4.12269e-06
0.00139673
0.000146545
4.42949e-06
0.00135984
0.000116146
4.08072e-06
0.00132392
8.94403e-05
4.25915e-06
0.00129358
6.32005e-05
4.03866e-06
0.00126681
4.12627e-05
4.12975e-06
0.00124589
2.35792e-05
4.00481e-06
0.00122724
1.41205e-05
4.03465e-06
0.00121163
7.33174e-06
3.9776e-06
0.00119586
6.32227e-06
3.95731e-06
0.00118162
2.31148e-06
3.94384e-06
0.00116653
5.11735e-06
3.88031e-06
0.00115243
-2.52929e-06
3.89811e-06
0.0011389
5.30748e-06
3.78972e-06
0.0011098
-2.4606e-05
3.86655e-06
6.63131e-06
3.75614e-06
0.0010677
0.00141972
0.000260608
2.3973e-06
0.00149191
0.000367954
3.05599e-06
0.00153381
0.000313996
2.07548e-06
0.00154482
0.000233621
2.74774e-06
0.00154346
0.000183269
2.1095e-06
0.0015322
0.000146856
2.54928e-06
0.00151817
0.000121713
2.10095e-06
0.0014992
9.82775e-05
2.38078e-06
0.00147979
7.36728e-05
2.0803e-06
0.00145912
5.12787e-05
2.24812e-06
0.00144092
3.20232e-05
2.05913e-06
0.00142338
2.06961e-05
2.14724e-06
0.00140808
1.2324e-05
2.04134e-06
0.00139249
1.05193e-05
2.06767e-06
0.00137842
5.32549e-06
2.01759e-06
0.00136268
8.99861e-06
1.99085e-06
0.00135065
-1.97357e-06
1.97916e-06
0.00133309
1.09859e-05
1.90983e-06
0.00132836
-3.12519e-05
1.90185e-06
3.07204e-06
1.85879e-06
0.00132016
0.00140343
0.000203978
3.95039e-06
0.00147038
0.000285026
4.58114e-06
0.00152449
0.000246893
3.78463e-06
0.00155387
0.000188246
4.30788e-06
0.00157252
0.000151186
3.78745e-06
0.00158035
0.000124019
4.10775e-06
0.00158409
0.000105421
3.75541e-06
0.00158059
8.77288e-05
3.9452e-06
0.00157329
6.80522e-05
3.72008e-06
0.00156095
4.90114e-05
3.81644e-06
0.00154767
3.14845e-05
3.68577e-06
0.00153302
2.03862e-05
3.71979e-06
0.00151923
1.17862e-05
3.65959e-06
0.0015049
9.48887e-06
3.64292e-06
0.00149086
4.23633e-06
3.62626e-06
0.00147672
7.17195e-06
3.56457e-06
0.00146134
-2.2979e-06
3.57894e-06
0.00144835
7.91011e-06
3.47735e-06
0.00142161
-2.02599e-05
3.54555e-06
1.47352e-05
3.45003e-06
0.00139401
0.00140512
0.000148643
2.74379e-06
0.00146684
0.000210505
3.39524e-06
0.00151818
0.000185808
2.49647e-06
0.00155018
0.000143411
3.09419e-06
0.0015746
0.000116569
2.4965e-06
0.00159017
9.65968e-05
2.88796e-06
0.0016029
8.33887e-05
2.4769e-06
0.00160878
7.10123e-05
2.7221e-06
0.00161023
5.69699e-05
2.44986e-06
0.00160511
4.27284e-05
2.58865e-06
0.00159708
2.89323e-05
2.42029e-06
0.00158594
1.97771e-05
2.48689e-06
0.00157428
1.23921e-05
2.39766e-06
0.00156137
1.02854e-05
2.40776e-06
0.00154824
5.48898e-06
2.36901e-06
0.00153436
8.2412e-06
2.32939e-06
0.00152054
-1.03963e-06
2.32535e-06
0.00150615
9.3008e-06
2.24922e-06
0.00149268
-1.93198e-05
2.25501e-06
8.81915e-06
2.20286e-06
0.00148581
0.00139781
9.83684e-05
3.62921e-06
0.00145542
0.000137806
4.27561e-06
0.0015073
0.000121766
3.46964e-06
0.00154114
9.43744e-05
4.00036e-06
0.00156825
7.68448e-05
3.46605e-06
0.00158682
6.38273e-05
3.79904e-06
0.00160315
5.53546e-05
3.43869e-06
0.00161336
4.76105e-05
3.63893e-06
0.00161958
3.87187e-05
3.40728e-06
0.00161904
2.94943e-05
3.51056e-06
0.00161475
2.0209e-05
3.37392e-06
0.00160653
1.38536e-05
3.41314e-06
0.00159689
8.58374e-06
3.34894e-06
0.00158571
6.98823e-06
3.33671e-06
0.00157337
3.55692e-06
3.31679e-06
0.00156111
5.28334e-06
3.25718e-06
0.00154583
-7.67211e-07
3.26846e-06
0.00153403
5.65492e-06
3.17204e-06
0.00150975
-1.01435e-05
3.22761e-06
1.06843e-05
3.14019e-06
0.00149263
0.00139893
4.8417e-05
3.0464e-06
0.00145454
6.86532e-05
3.70098e-06
0.0015044
6.1302e-05
2.84887e-06
0.00153743
4.77021e-05
3.40989e-06
0.00156428
3.89727e-05
2.83871e-06
0.00158309
3.23858e-05
3.20288e-06
0.00160018
2.81509e-05
2.81439e-06
0.00161181
2.43668e-05
3.0388e-06
0.00162001
2.00698e-05
2.78415e-06
0.00162172
1.55717e-05
2.90602e-06
0.00161956
1.09481e-05
2.75106e-06
0.0016131
7.75768e-06
2.8048e-06
0.00160479
5.04131e-06
2.72639e-06
0.00159465
4.25457e-06
2.72647e-06
0.00158314
2.40042e-06
2.69541e-06
0.00157133
3.46426e-06
2.64742e-06
0.00155718
-5.20306e-08
2.64867e-06
0.00154501
3.93008e-06
2.56708e-06
0.00152724
-5.84035e-06
2.5878e-06
4.85703e-06
2.52512e-06
0.00151939
0.00139667
-5.77867e-10
3.33361e-06
0.00145103
-9.90221e-10
3.98681e-06
0.00150095
-1.43009e-09
3.16307e-06
0.00153424
-7.44339e-10
3.70517e-06
0.00156141
-1.2793e-09
3.15434e-06
0.0015804
6.39079e-10
3.50111e-06
0.00159766
-2.78585e-09
3.12872e-06
0.00160962
1.16057e-09
3.33956e-06
0.00161845
-5.40609e-09
3.09801e-06
0.00162101
5.55725e-09
3.20936e-06
0.00161975
-2.73193e-09
3.06486e-06
0.00161413
1.75218e-08
3.11036e-06
0.00160653
9.59075e-09
3.04013e-06
0.00159706
5.17836e-08
3.03316e-06
0.00158595
4.47581e-08
3.00851e-06
0.00157481
1.80701e-07
2.95349e-06
0.00156036
1.67567e-07
2.96075e-06
0.00154901
5.78446e-07
2.87018e-06
0.00152816
7.03735e-07
2.91073e-06
1.61944e-06
2.83056e-06
0.00151691
0.00139667
-4.84181e-05
3.33361e-06
0.00145103
-6.86552e-05
3.98681e-06
0.00150095
-6.13048e-05
3.16307e-06
0.00153424
-4.77036e-05
3.70517e-06
0.00156141
-3.89753e-05
3.15434e-06
0.0015804
-3.23845e-05
3.50111e-06
0.00159766
-2.81565e-05
3.12872e-06
0.00160962
-2.43642e-05
3.33956e-06
0.00161845
-2.00807e-05
3.09801e-06
0.00162101
-1.55594e-05
3.20937e-06
0.00161974
-1.09538e-05
3.06486e-06
0.00161413
-7.71781e-06
3.11043e-06
0.00160652
-5.02378e-06
3.04016e-06
0.00159704
-4.13766e-06
3.03343e-06
0.00158595
-2.32349e-06
3.00855e-06
0.00157478
-3.08613e-06
2.95423e-06
0.00156036
3.63928e-07
2.96047e-06
0.00154903
-2.79533e-06
2.8728e-06
0.00152813
7.298e-06
2.90913e-06
-1.70575e-06
2.83698e-06
0.00151696
0.00139893
-9.83695e-05
3.0464e-06
0.00145454
-0.000137807
3.70098e-06
0.0015044
-0.000121769
2.84887e-06
0.00153743
-9.43759e-05
3.4099e-06
0.00156428
-7.68474e-05
2.83871e-06
0.00158309
-6.38262e-05
3.20288e-06
0.00160018
-5.536e-05
2.81439e-06
0.00161181
-4.76084e-05
3.03879e-06
0.00162001
-3.87294e-05
2.78415e-06
0.00162172
-2.94834e-05
2.906e-06
0.00161956
-2.02147e-05
2.75106e-06
0.0016131
-1.38189e-05
2.80473e-06
0.0016048
-8.56598e-06
2.72637e-06
0.00159467
-6.88631e-06
2.72619e-06
0.00158315
-3.47164e-06
2.69537e-06
0.00157137
-4.92985e-06
2.64672e-06
0.00155722
1.08814e-06
2.64891e-06
0.00154505
-4.51932e-06
2.56454e-06
0.00152737
1.15019e-05
2.58928e-06
-7.46888e-06
2.5187e-06
0.00151947
0.00139781
-0.000148644
3.62921e-06
0.00145542
-0.000210507
4.27561e-06
0.0015073
-0.000185811
3.46964e-06
0.00154114
-0.000143412
4.00036e-06
0.00156825
-0.000116572
3.46605e-06
0.00158682
-9.65959e-05
3.79905e-06
0.00160315
-8.33939e-05
3.43869e-06
0.00161336
-7.10102e-05
3.63893e-06
0.00161958
-5.69803e-05
3.40728e-06
0.00161903
-4.27167e-05
3.51057e-06
0.00161475
-2.89383e-05
3.37391e-06
0.00160653
-1.97388e-05
3.4132e-06
0.00159689
-1.23771e-05
3.34896e-06
0.00158569
-1.01741e-05
3.33695e-06
0.00157337
-5.41826e-06
3.31681e-06
0.0015611
-7.8805e-06
3.25779e-06
0.00154586
1.32148e-06
3.2682e-06
0.0015341
-8.21114e-06
3.17431e-06
0.00150986
2.06462e-05
3.226e-06
-5.74553e-06
3.14646e-06
0.00149288
0.00140512
-0.000203979
2.74379e-06
0.00146684
-0.000285028
3.39524e-06
0.00151818
-0.000246896
2.49647e-06
0.00155018
-0.000188248
3.09419e-06
0.0015746
-0.000151188
2.4965e-06
0.00159017
-0.000124018
2.88797e-06
0.0016029
-0.000105426
2.4769e-06
0.00160878
-8.77275e-05
2.7221e-06
0.00161023
-6.80616e-05
2.44986e-06
0.00160512
-4.90016e-05
2.58863e-06
0.00159708
-3.149e-05
2.42029e-06
0.00158595
-2.0354e-05
2.48682e-06
0.00157429
-1.17718e-05
2.39764e-06
0.00156139
-9.39459e-06
2.4075e-06
0.00154826
-4.16248e-06
2.36897e-06
0.00153442
-6.84829e-06
2.32888e-06
0.00152061
2.5748e-06
2.32555e-06
0.00150626
-6.86174e-06
2.24724e-06
0.00149292
2.14556e-05
2.25627e-06
-1.1661e-05
2.19701e-06
0.00148605
0.00140343
-0.000260609
3.95039e-06
0.00147038
-0.000367956
4.58114e-06
0.00152449
-0.000313999
3.78463e-06
0.00155387
-0.000233623
4.30788e-06
0.00157252
-0.000183272
3.78745e-06
0.00158035
-0.000146857
4.10775e-06
0.00158409
-0.000121718
3.75542e-06
0.00158059
-9.82765e-05
3.94521e-06
0.00157329
-7.36806e-05
3.72007e-06
0.00156095
-5.12693e-05
3.81645e-06
0.00154767
-3.20277e-05
3.68576e-06
0.00153302
-2.06641e-05
3.71983e-06
0.00151924
-1.23123e-05
3.6596e-06
0.0015049
-1.04249e-05
3.6431e-06
0.00149088
-5.26725e-06
3.62627e-06
0.00147675
-8.68877e-06
3.56489e-06
0.00146143
2.19406e-06
3.57869e-06
0.00144854
-1.00412e-05
3.47882e-06
0.00142195
3.22962e-05
3.54391e-06
-3.05217e-07
3.45486e-06
0.00139466
0.00141972
-0.000329593
2.39731e-06
0.00149191
-0.000452181
3.05599e-06
0.00153381
-0.000364695
2.07548e-06
0.00154482
-0.000256578
2.74774e-06
0.00154346
-0.000191132
2.1095e-06
0.0015322
-0.000146546
2.54928e-06
0.00151817
-0.00011615
2.10096e-06
0.0014992
-8.94404e-05
2.38078e-06
0.00147979
-6.32058e-05
2.08031e-06
0.00145913
-4.12567e-05
2.24811e-06
0.00144092
-2.35814e-05
2.05913e-06
0.00142339
-1.40984e-05
2.14718e-06
0.0014081
-7.3191e-06
2.04133e-06
0.00139253
-6.25292e-06
2.06746e-06
0.00137846
-2.25446e-06
2.01759e-06
0.00136278
-4.86983e-06
1.99032e-06
0.00135076
2.73286e-06
1.97934e-06
0.00133334
-4.49142e-06
1.90812e-06
0.00132875
2.54954e-05
1.9029e-06
-4.07939e-06
1.85513e-06
0.00132078
0.00142533
-0.000408922
4.31321e-06
0.0014861
-0.000529982
4.91321e-06
0.001497
-0.000389483
4.1154e-06
0.00147133
-0.000247702
4.63171e-06
0.00143632
-0.00017025
4.1227e-06
0.00139673
-0.000122682
4.4295e-06
0.00135984
-9.27669e-05
4.08072e-06
0.00132392
-6.87033e-05
4.25916e-06
0.00129358
-4.69327e-05
4.03866e-06
0.00126681
-3.01098e-05
4.12976e-06
0.00124589
-1.74101e-05
4.0048e-06
0.00122725
-1.13502e-05
4.0347e-06
0.00121164
-7.02379e-06
3.97759e-06
0.00119588
-6.78817e-06
3.95743e-06
0.00118166
-3.92908e-06
3.94384e-06
0.00116662
-6.39582e-06
3.8805e-06
0.00115259
6.17874e-07
3.89789e-06
0.00113926
-7.64939e-06
3.79066e-06
0.00111049
3.8037e-05
3.86507e-06
2.07858e-05
3.75909e-06
0.00106913
0.00144466
-0.000501638
2.00817e-06
0.00143258
-0.000529106
2.66268e-06
0.00135262
-0.000317301
1.63321e-06
0.00126144
-0.000167355
2.36661e-06
0.00118427
-0.00010104
1.69101e-06
0.0011189
-6.72032e-05
2.17946e-06
0.00106659
-4.81966e-05
1.67914e-06
0.00102242
-3.42146e-05
2.00451e-06
0.000989209
-2.20901e-05
1.65727e-06
0.000962423
-1.32874e-05
1.86857e-06
0.000942731
-6.65612e-06
1.64025e-06
0.000924976
-3.77505e-06
1.76659e-06
0.000910049
-1.55779e-06
1.62788e-06
0.000894422
-1.60775e-06
1.68484e-06
0.000880831
-2.1356e-07
1.60933e-06
0.000864901
-1.0037e-06
1.60608e-06
0.000854609
8.68929e-07
1.57707e-06
0.000835019
1.46417e-06
1.51988e-06
0.000844756
1.82467e-05
1.50176e-06
1.26004e-05
1.4608e-06
0.000842427
0.00133856
-0.00049482
4.72104e-06
0.00114536
-0.000353907
5.25916e-06
0.000967303
-0.000153856
4.43832e-06
0.000840996
-5.8354e-05
4.95511e-06
0.000756527
-3.12081e-05
4.45524e-06
0.000693742
-2.09977e-05
4.75509e-06
0.000647218
-1.64383e-05
4.41264e-06
0.000609207
-1.27375e-05
4.58789e-06
0.000581566
-9.71743e-06
4.37216e-06
0.00055877
-7.13526e-06
4.46003e-06
0.00054174
-5.30736e-06
4.33872e-06
0.000525514
-4.32257e-06
4.36565e-06
0.000511598
-3.7047e-06
4.31058e-06
0.000496719
-3.61481e-06
4.28668e-06
0.000483379
-3.19564e-06
4.2736e-06
0.00046884
-3.36698e-06
4.20746e-06
0.000455486
-2.25629e-06
4.22616e-06
0.000444018
-3.95161e-06
4.11402e-06
0.00040319
4.23787e-05
4.18871e-06
3.9293e-05
4.07127e-06
0.000359451
0.000859332
1.62635e-06
0.000496005
2.11486e-06
0.000336116
1.27466e-06
0.000268936
1.81575e-06
0.000231388
1.30581e-06
0.000201923
1.61758e-06
0.000178825
1.27398e-06
0.000157726
1.44904e-06
0.000140996
1.23802e-06
0.000125523
1.32512e-06
0.000112885
1.2074e-06
0.00010019
1.23646e-06
8.88648e-05
1.18063e-06
7.68238e-05
1.1645e-06
6.57633e-05
1.14774e-06
5.39158e-05
1.09548e-06
4.35782e-05
1.10646e-06
3.10797e-05
1.01886e-06
6.51986e-05
1.05252e-06
9.61377e-07
9.57784e-05
0.00104184
0.000308014
-1.50305e-10
0.000745109
0.000287742
-1.51909e-10
0.00053446
0.00020089
-1.50782e-10
0.000418328
0.000107063
-1.52432e-10
0.000357915
5.09294e-05
-1.5128e-10
0.000324152
2.45645e-05
-1.53965e-10
0.00030039
1.41339e-05
-1.52896e-10
0.000282004
8.83709e-06
-1.5521e-10
0.000266309
5.85534e-06
-1.54382e-10
0.000252775
3.70538e-06
-1.56521e-10
0.00024001
2.75461e-06
-1.55198e-10
0.000227642
2.33014e-06
-1.56794e-10
0.000215381
2.12812e-06
-1.55603e-10
0.000202932
2.27183e-06
-1.57564e-10
0.000191091
1.62066e-06
-1.56592e-10
0.000177871
2.93199e-06
-1.58205e-10
0.000167501
5.64291e-08
-1.56338e-10
0.000151722
5.38377e-06
-1.57747e-10
0.0001432
-1.94766e-06
-1.55496e-10
-4.68415e-06
-1.55988e-10
0.000137573
0.00138464
0.000276386
-1.50416e-10
0.0013311
0.000335565
-1.51998e-10
0.00123306
0.000292346
-1.50915e-10
0.00113721
0.000196912
-1.51635e-10
0.00105605
0.000125967
-1.49809e-10
0.000991135
8.39374e-05
-1.53095e-10
0.000940413
5.89513e-05
-1.53426e-10
0.000903708
3.9585e-05
-1.56011e-10
0.000878177
2.49904e-05
-1.54579e-10
0.000860349
1.50431e-05
-1.5624e-10
0.000846365
9.95932e-06
-1.55261e-10
0.000833697
8.08417e-06
-1.57063e-10
0.000821816
6.90693e-06
-1.55634e-10
0.000809457
7.43774e-06
-1.56636e-10
0.000798562
5.28308e-06
-1.54779e-10
0.000785366
8.85963e-06
-1.5574e-10
0.000776771
1.41188e-06
-1.54242e-10
0.000760401
1.44341e-05
-1.55274e-10