/*--------------------------------*- C++ -*----------------------------------*\
  =========                 |
  \\      /  F ield         | OpenFOAM: The Open Source CFD Toolbox
   \\    /   O peration     | Website:  https://openfoam.org
    \\  /    A nd           | Version:  7
     \\/     M anipulation  |
\*---------------------------------------------------------------------------*/
FoamFile
{
    version     2.0;
    format      ascii;
    class       surfaceScalarField;
    location    "0.625";
    object      phi_0;
}
// * * * * * * * * * * * * * * * * * * * * * * * * * * * * * * * * * * * * * //

dimensions      [1 0 -1 0 0 0 0];

internalField   nonuniform List<scalar> 
36620
(
0.000460254
0.000900168
7.84112e-06
0.000257066
0.000200338
4.19717e-06
0.000183259
6.84498e-05
6.74404e-06
0.000159503
2.07287e-05
4.42128e-06
0.000146138
8.38602e-06
6.35254e-06
0.000137832
5.12276e-06
4.53402e-06
0.000131451
1.64541e-06
6.07105e-06
0.000126462
1.68782e-06
4.61982e-06
0.000122253
-3.24861e-07
5.83975e-06
0.00011875
1.23705e-07
4.6764e-06
0.00011567
-1.26638e-06
5.64112e-06
0.000113014
-7.50975e-07
4.70701e-06
0.000110632
-1.7736e-06
5.46544e-06
0.000108505
-1.26932e-06
4.71602e-06
0.000106559
-2.03067e-06
5.30617e-06
0.000104773
-1.5806e-06
4.70637e-06
0.000102946
-1.98399e-06
5.15814e-06
0.000101687
-2.06673e-06
4.68038e-06
8.96328e-05
8.36049e-06
5.04795e-06
8.3967e-07
4.57231e-06
8.55856e-05
0.000991563
0.00127483
1.84558e-06
0.000735835
0.000458979
-1.50963e-06
0.000585383
0.000219332
1.11009e-06
0.000520852
8.80253e-05
-1.17977e-06
0.000482673
4.73126e-05
7.80841e-07
0.000458919
3.13555e-05
-1.033e-06
0.000439548
2.18877e-05
5.1461e-07
0.00042546
1.80489e-05
-9.40354e-07
0.000412445
1.36917e-05
2.84373e-07
0.000402645
1.20508e-05
-8.83894e-07
0.000393038
9.48909e-06
8.39432e-08
0.000385708
8.67234e-06
-8.54569e-07
0.000378262
7.03677e-06
-9.40819e-08
0.00037246
6.68507e-06
-8.46956e-07
0.000366507
5.52062e-06
-2.55579e-07
0.000361747
5.41375e-06
-8.5648e-07
0.000357658
3.92274e-06
-4.10004e-07
0.000354311
3.59704e-06
-8.78052e-07
0.000367617
-2.90253e-06
-6.02352e-07
-1.69812e-05
-1.02109e-06
0.000387938
0.00137835
0.00125881
5.84129e-06
0.00126888
0.000567153
2.68471e-06
0.00113992
0.00034475
5.16192e-06
0.00105548
0.000171422
2.84011e-06
0.000996147
0.000103622
4.77214e-06
0.000955449
7.06778e-05
2.94535e-06
0.000922711
5.1562e-05
4.48531e-06
0.000898036
4.10086e-05
3.02855e-06
0.000875971
3.27162e-05
4.25191e-06
0.000858684
2.7354e-05
3.08499e-06
0.000842291
2.28496e-05
4.05273e-06
0.000829234
1.96054e-05
3.11545e-06
0.000816458
1.69642e-05
3.87584e-06
0.000806137
1.49773e-05
3.12365e-06
0.000795898
1.32208e-05
3.71555e-06
0.000787685
1.17727e-05
3.11329e-06
0.000778978
1.03889e-05
3.5695e-06
0.000773911
6.99706e-06
3.08494e-06
0.000757146
1.18151e-05
3.49328e-06
-3.2838e-06
3.00086e-06
0.000741987
0.00153018
0.00109459
2.08896e-06
0.00155131
0.0005483
-9.42674e-07
0.0015114
0.000384754
1.50763e-06
0.00146835
0.000217144
-7.78802e-07
0.00142765
0.000145091
1.18368e-06
0.0013947
0.000105978
-6.27135e-07
0.00136493
8.18852e-05
9.23759e-07
0.00134054
6.72352e-05
-5.30327e-07
0.00131784
5.59152e-05
6.95923e-07
0.00129897
4.77448e-05
-4.71336e-07
0.00128094
4.12492e-05
4.97969e-07
0.00126576
3.59387e-05
-4.39897e-07
0.0012512
3.18828e-05
3.20956e-07
0.00123876
2.85653e-05
-4.32185e-07
0.00122727
2.5376e-05
1.59239e-07
0.00121658
2.38659e-05
-4.4191e-07
0.00120982
1.82105e-05
3.53066e-09
0.00119907
1.94254e-05
-4.6685e-07
0.00120582
6.55225e-06
-2.06298e-07
-3.59063e-06
-5.94305e-07
0.00120818
0.00156871
0.000888994
5.01464e-06
0.00165278
0.000463337
2.19718e-06
0.00167762
0.000356908
4.55847e-06
0.00167891
0.000215506
2.2656e-06
0.00166866
0.000153208
4.20263e-06
0.00165671
0.000117413
2.38097e-06
0.00164195
9.42724e-05
3.92358e-06
0.00162849
7.95418e-05
2.46675e-06
0.00161426
6.76773e-05
3.69035e-06
0.00160181
5.88007e-05
2.52381e-06
0.00158894
5.15372e-05
3.49249e-06
0.00157755
4.54321e-05
2.55593e-06
0.00156601
4.05694e-05
3.31618e-06
0.0015559
3.65338e-05
2.56366e-06
0.00154594
3.26728e-05
3.15532e-06
0.00153744
3.04705e-05
2.55349e-06
0.00152868
2.47497e-05
3.01108e-06
0.00152166
2.4858e-05
2.52554e-06
0.00151117
1.51475e-05
2.93771e-06
1.32245e-05
2.44705e-06
0.00149318
0.00156014
0.000694367
2.54569e-06
0.00165895
0.000366063
-2.45887e-07
0.00171723
0.000298082
2.06566e-06
0.00174814
0.000186743
-2.26998e-07
0.00176346
0.000138297
1.71661e-06
0.00177312
0.000109811
-9.9886e-08
0.00177644
9.10988e-05
1.44738e-06
0.00177819
7.91271e-05
-9.2632e-09
0.00177679
6.90888e-05
1.21528e-06
0.00177522
6.15106e-05
4.80863e-08
0.00177176
5.50272e-05
1.01758e-06
0.0017683
4.95649e-05
8.06972e-08
0.00176358
4.48704e-05
8.40836e-07
0.00175911
4.11753e-05
8.71684e-08
0.0017544
3.69658e-05
6.77445e-07
0.00174973
3.5496e-05
7.61527e-08
0.00174654
2.79924e-05
5.22871e-07
0.0017413
3.0797e-05
4.84932e-08
0.00174258
1.43596e-05
3.1944e-07
1.49975e-05
-6.01152e-08
0.00174188
0.00154956
0.000508513
4.39526e-06
0.00164727
0.000267882
1.76015e-06
0.00171689
0.000225965
4.02769e-06
0.00176045
0.000143357
1.74864e-06
0.00178901
0.000108207
3.68278e-06
0.00181148
8.74669e-05
1.86451e-06
0.00182691
7.38781e-05
3.40954e-06
0.00184008
6.53157e-05
1.95319e-06
0.00184928
5.79249e-05
3.17755e-06
0.00185761
5.23985e-05
2.01191e-06
0.0018633
4.7501e-05
2.98213e-06
0.00186827
4.34034e-05
2.04697e-06
0.00187112
3.96876e-05
2.80743e-06
0.00187364
3.67992e-05
2.05433e-06
0.0018747
3.33846e-05
2.64484e-06
0.00187634
3.20961e-05
2.04289e-06
0.00187585
2.64254e-05
2.50039e-06
0.00187697
2.82863e-05
2.01543e-06
0.00187291
1.66936e-05
2.41242e-06
2.09691e-05
1.93869e-06
0.00186578
0.00153914
0.000334451
2.98183e-06
0.00163178
0.000176182
3.49517e-07
0.00170502
0.000151673
2.58437e-06
0.0017532
9.68181e-05
2.96017e-07
0.00178741
7.39308e-05
2.22744e-06
0.00181608
6.03918e-05
4.07808e-07
0.00183799
5.16307e-05
1.95287e-06
0.00185785
4.62563e-05
4.94583e-07
0.0018737
4.15574e-05
1.71811e-06
0.00188867
3.81205e-05
5.5082e-07
0.00190085
3.49875e-05
1.5206e-06
0.00191219
3.24202e-05
5.84504e-07
0.00192111
2.99449e-05
1.34443e-06
0.00192935
2.81519e-05
5.9017e-07
0.00193596
2.56521e-05
1.17914e-06
0.00194247
2.51947e-05
5.77121e-07
0.00194782
2.04103e-05
1.0259e-06
0.00195314
2.29893e-05
5.48512e-07
0.00195733
1.23003e-05
8.46319e-07
1.59921e-05
4.55313e-07
0.00196247
0.00153328
0.000165378
3.87189e-06
0.00162251
8.69262e-05
1.31921e-06
0.0016964
7.57836e-05
3.53488e-06
0.00174557
4.83381e-05
1.25934e-06
0.0017815
3.69703e-05
3.18901e-06
0.00181226
3.02648e-05
1.37071e-06
0.00183662
2.5967e-05
2.91622e-06
0.00185932
2.33803e-05
1.45934e-06
0.00187827
2.11065e-05
2.6839e-06
0.00189664
1.94779e-05
1.51819e-06
0.00191238
1.79737e-05
2.48905e-06
0.00192746
1.67619e-05
1.55433e-06
0.00194007
1.55659e-05
2.31503e-06
0.00195212
1.47154e-05
1.56144e-06
0.00196213
1.35138e-05
2.15113e-06
0.00197259
1.3321e-05
1.54871e-06
0.00198024
1.10834e-05
2.00437e-06
0.00198976
1.2498e-05
1.52061e-06
0.00199322
7.5871e-06
1.8898e-06
1.08321e-05
1.44267e-06
0.00199746
0.00153003
2.16611e-11
3.4144e-06
0.00161739
6.22474e-10
8.61789e-07
0.00169164
8.0093e-10
3.06656e-06
0.00174114
1.03238e-09
7.85584e-07
0.00177757
-5.0685e-11
2.7129e-06
0.00180893
4.98507e-10
8.93063e-07
0.00183407
-1.05996e-09
2.4379e-06
0.00185774
1.76927e-09
9.79866e-07
0.00187783
1.1082e-09
2.20377e-06
0.00189751
7.0842e-09
1.03716e-06
0.00191469
9.95565e-09
2.00752e-06
0.00193134
1.9408e-08
1.07221e-06
0.0019456
3.27783e-08
1.83245e-06
0.00195935
6.25791e-08
1.07843e-06
0.00197111
8.05448e-08
1.6673e-06
0.00198326
2.32915e-07
1.06512e-06
0.00199299
1.54199e-07
1.51696e-06
0.00200423
7.53563e-07
1.03702e-06
0.0020106
4.85198e-07
1.36948e-06
1.6587e-06
9.5456e-07
0.00201932
0.00153003
-0.000165378
3.4144e-06
0.00161739
-8.6925e-05
8.61789e-07
0.00169164
-7.57819e-05
3.06656e-06
0.00174114
-4.8336e-05
7.85583e-07
0.00177757
-3.69704e-05
2.7129e-06
0.00180893
-3.02639e-05
8.93062e-07
0.00183407
-2.59691e-05
2.4379e-06
0.00185774
-2.33769e-05
9.7986e-07
0.00187783
-2.11043e-05
2.20378e-06
0.00189751
-1.94642e-05
1.03714e-06
0.00191469
-1.79539e-05
2.00752e-06
0.00193134
-1.67249e-05
1.07215e-06
0.0019456
-1.55005e-05
1.83244e-06
0.00195936
-1.45958e-05
1.07823e-06
0.00197112
-1.33538e-05
1.66724e-06
0.00198328
-1.28665e-05
1.06449e-06
0.00199302
-1.07842e-05
1.51682e-06
0.00200428
-1.10051e-05
1.03516e-06
0.00201068
-6.64979e-06
1.36917e-06
-7.49554e-06
9.5081e-07
0.00201938
0.00153328
-0.000334451
3.87189e-06
0.00162251
-0.00017618
1.31921e-06
0.0016964
-0.000151672
3.53488e-06
0.00174557
-9.68161e-05
1.25934e-06
0.0017815
-7.39309e-05
3.189e-06
0.00181226
-6.03909e-05
1.37071e-06
0.00183662
-5.16329e-05
2.91622e-06
0.00185932
-4.62528e-05
1.45935e-06
0.00187828
-4.15554e-05
2.6839e-06
0.00189664
-3.81064e-05
1.51821e-06
0.00191238
-3.49685e-05
2.48905e-06
0.00192746
-3.23819e-05
1.55439e-06
0.00194007
-2.98818e-05
2.31504e-06
0.00195212
-2.80298e-05
1.56165e-06
0.00196213
-2.54969e-05
2.15117e-06
0.00197259
-2.4741e-05
1.54933e-06
0.00198026
-2.012e-05
2.00448e-06
0.00198979
-2.15156e-05
1.52238e-06
0.00199328
-1.14021e-05
1.89012e-06
-1.27756e-05
1.44604e-06
0.00199765
0.00153914
-0.000508513
2.98183e-06
0.00163178
-0.00026788
3.49517e-07
0.00170502
-0.000225963
2.58436e-06
0.0017532
-0.000143356
2.96016e-07
0.00178741
-0.000108207
2.22744e-06
0.00181608
-8.74661e-05
4.07807e-07
0.00183799
-7.38802e-05
1.95287e-06
0.00185785
-6.53125e-05
4.94576e-07
0.0018737
-5.79229e-05
1.71811e-06
0.00188867
-5.23851e-05
5.50798e-07
0.00190086
-4.7483e-05
1.5206e-06
0.00191219
-4.33678e-05
5.84449e-07
0.00192112
-3.96277e-05
1.34443e-06
0.00192937
-3.66858e-05
5.89998e-07
0.00193598
-3.32383e-05
1.1791e-06
0.00194252
-3.16672e-05
5.76578e-07
0.0019479
-2.61641e-05
1.02581e-06
0.00195328
-2.68709e-05
5.46895e-07
0.00195757
-1.58984e-05
8.46274e-07
-1.78513e-05
4.51755e-07
0.00196281
0.00154956
-0.000694367
4.39526e-06
0.00164727
-0.000366062
1.76015e-06
0.00171689
-0.000298081
4.02769e-06
0.00176045
-0.000186741
1.74864e-06
0.00178901
-0.000138297
3.68278e-06
0.00181148
-0.00010981
1.86452e-06
0.00182691
-9.11007e-05
3.40954e-06
0.00184008
-7.9124e-05
1.95319e-06
0.00184928
-6.90868e-05
3.17754e-06
0.00185761
-6.14979e-05
2.01192e-06
0.0018633
-5.50108e-05
2.98213e-06
0.00186828
-4.95307e-05
2.04702e-06
0.00187113
-4.48159e-05
2.80745e-06
0.00187366
-4.10661e-05
2.0545e-06
0.00187473
-3.68343e-05
2.64486e-06
0.00187639
-3.50884e-05
2.04345e-06
0.00187593
-2.77693e-05
2.50044e-06
0.00187714
-2.94612e-05
2.01691e-06
0.00187321
-1.36962e-05
2.41264e-06
-1.21787e-05
1.94153e-06
0.00186637
0.00156014
-0.000888994
2.54569e-06
0.00165895
-0.000463336
-2.45887e-07
0.00171723
-0.000356906
2.06566e-06
0.00174814
-0.000215505
-2.27001e-07
0.00176346
-0.000153208
1.71661e-06
0.00177312
-0.000117413
-9.98864e-08
0.00177644
-9.42738e-05
1.44739e-06
0.00177819
-7.95395e-05
-9.26855e-09
0.00177679
-6.7675e-05
1.21528e-06
0.00177523
-5.87908e-05
4.80675e-08
0.00177176
-5.15221e-05
1.01759e-06
0.00176831
-4.54055e-05
8.06537e-08
0.0017636
-4.05205e-05
8.40852e-07
0.00175915
-3.64448e-05
8.70257e-08
0.00175446
-3.25592e-05
6.77429e-07
0.00174984
-3.01205e-05
7.57022e-08
0.00174671
-2.45776e-05
5.22868e-07
0.00174161
-2.36757e-05
4.71458e-08
0.00174308
-1.46564e-05
3.20036e-07
-1.07125e-05
-6.3509e-08
0.00174268
0.00156871
-0.00109459
5.01464e-06
0.00165278
-0.000548299
2.19718e-06
0.00167762
-0.000384753
4.55846e-06
0.00167891
-0.000217142
2.2656e-06
0.00166866
-0.000145091
4.20263e-06
0.00165671
-0.000105977
2.38097e-06
0.00164195
-8.1886e-05
3.92358e-06
0.00162849
-6.72335e-05
2.46675e-06
0.00161426
-5.59128e-05
3.69035e-06
0.00160181
-4.77381e-05
2.52381e-06
0.00158895
-4.12362e-05
3.49249e-06
0.00157757
-3.592e-05
2.55597e-06
0.00156603
-3.18407e-05
3.3162e-06
0.00155594
-2.84982e-05
2.5638e-06
0.00154601
-2.52821e-05
3.15532e-06
0.00153758
-2.35887e-05
2.55395e-06
0.00152887
-1.809e-05
3.01111e-06
0.00152206
-1.84559e-05
2.52665e-06
0.0015118
-6.27444e-06
2.93776e-06
5.49e-06
2.44907e-06
0.0014944
0.00153018
-0.00125881
2.08896e-06
0.00155131
-0.000567153
-9.42675e-07
0.0015114
-0.000344749
1.50763e-06
0.00146835
-0.00017142
-7.78804e-07
0.00142764
-0.000103621
1.18368e-06
0.0013947
-7.06774e-05
-6.27134e-07
0.00136492
-5.15621e-05
9.23763e-07
0.00134054
-4.10078e-05
-5.30331e-07
0.00131784
-3.27144e-05
6.95928e-07
0.00129897
-2.73513e-05
-4.71351e-07
0.00128095
-2.28399e-05
4.97984e-07
0.00126578
-1.95975e-05
-4.39936e-07
0.00125123
-1.69322e-05
3.20977e-07
0.00123882
-1.49441e-05
-4.32302e-07
0.00122737
-1.31491e-05
1.5925e-07
0.00121678
-1.16077e-05
-4.42263e-07
0.00121006
-1.02977e-05
3.6275e-09
0.00119962
-6.36525e-06
-4.67912e-07
0.00120651
-1.16377e-05
-2.05147e-07
4.6308e-06
-5.97193e-07
0.0012094
0.00137835
-0.00127483
5.84129e-06
0.00126888
-0.000458979
2.68471e-06
0.00113992
-0.000219331
5.16192e-06
0.00105548
-8.80239e-05
2.84011e-06
0.000996146
-4.73117e-05
4.77214e-06
0.000955448
-3.1355e-05
2.94536e-06
0.00092271
-2.18876e-05
4.48531e-06
0.000898035
-1.80486e-05
3.02855e-06
0.000875971
-1.3691e-05
4.25191e-06
0.000858687
-1.205e-05
3.08499e-06
0.0008423
-9.48432e-06
4.05273e-06
0.00082925
-8.66924e-06
3.11547e-06
0.000816489
-7.01971e-06
3.87584e-06
0.000806187
-6.67008e-06
3.12376e-06
0.000795983
-5.48169e-06
3.71553e-06
0.000787857
-5.3384e-06
3.11367e-06
0.000779206
-3.87741e-06
3.56947e-06
0.000774439
-3.28673e-06
3.08575e-06
0.00075789
2.89881e-06
3.49322e-06
1.75215e-05
3.0019e-06
0.000743497
0.000991563
-0.000900168
1.84558e-06
0.000735835
-0.000200338
-1.50963e-06
0.000585383
-6.84489e-05
1.11009e-06
0.000520852
-2.07277e-05
-1.17977e-06
0.000482673
-8.38532e-06
7.80841e-07
0.000458918
-5.12236e-06
-1.033e-06
0.000439548
-1.64524e-06
5.14612e-07
0.00042546
-1.68777e-06
-9.40356e-07
0.000412446
3.24948e-07
2.84378e-07
0.000402648
-1.23792e-07
-8.83902e-07
0.000393045
1.26755e-06
8.39575e-08
0.00038572
7.51341e-07
-8.54593e-07
0.000378286
1.77848e-06
-9.40574e-08
0.000372497
1.27235e-06
-8.47021e-07
0.000366573
2.04223e-06
-2.5555e-07
0.000361869
1.5995e-06
-8.56655e-07
0.000357812
1.99965e-06
-4.09911e-07
0.000354686
2.14924e-06
-8.78648e-07
0.000367897
-8.25178e-06
-6.01299e-07
-6.26949e-07
-1.02322e-06
0.000388518
0.000460254
7.84112e-06
0.000257066
4.19717e-06
0.000183259
6.74404e-06
0.000159503
4.42128e-06
0.000146138
6.35253e-06
0.000137832
4.53402e-06
0.000131451
6.07105e-06
0.000126462
4.61983e-06
0.000122254
5.83975e-06
0.000118751
4.67641e-06
0.000115673
5.64112e-06
0.000113018
4.70703e-06
0.000110641
5.46543e-06
0.000108517
4.71611e-06
0.000106583
5.3061e-06
0.000104815
4.70666e-06
0.000103004
5.15793e-06
0.000101825
4.68105e-06
8.98847e-05
5.04744e-06
4.57391e-06
8.60383e-05
0.00087597
0.00049786
1.8201e-06
0.000521938
0.000357259
2.35059e-06
0.000371748
0.000156938
1.46457e-06
0.000314492
6.11055e-05
2.05616e-06
0.000286927
3.3844e-05
1.51193e-06
0.000267523
2.34635e-05
1.86441e-06
0.000254422
1.90275e-05
1.49533e-06
0.000242741
1.59081e-05
1.70826e-06
0.000234378
1.40076e-05
1.48301e-06
0.000226185
1.25402e-05
1.60543e-06
0.000220132
1.14977e-05
1.47765e-06
0.00021392
1.06827e-05
1.53762e-06
0.000209208
1.00241e-05
1.47765e-06
0.000204276
9.50073e-06
1.49486e-06
0.000200436
9.03389e-06
1.48189e-06
0.000196551
8.51e-06
1.46774e-06
0.000194089
7.52943e-06
1.4886e-06
0.000189673
9.05755e-06
1.44781e-06
0.000232215
-3.75929e-05
1.49591e-06
-2.77241e-05
1.47579e-06
0.000264454
0.00135861
0.000504074
4.96688e-06
0.00117765
0.000532577
5.51627e-06
0.00101166
0.000320963
4.6859e-06
0.000897102
0.00017101
5.21195e-06
0.000824258
0.000104411
4.71308e-06
0.000773088
7.00791e-05
5.02625e-06
0.000737447
5.18704e-05
4.69108e-06
0.000708169
4.06361e-05
4.881e-06
0.000686145
3.27995e-05
4.67927e-06
0.000666318
2.77889e-05
4.78387e-06
0.000650815
2.34731e-05
4.67521e-06
0.00063618
2.08437e-05
4.71714e-06
0.00062445
1.81479e-05
4.67434e-06
0.000613197
1.64684e-05
4.67257e-06
0.000604055
1.45501e-05
4.67645e-06
0.000595701
1.27369e-05
4.6422e-06
0.000588337
1.12242e-05
4.6821e-06
0.00058512
8.25645e-06
4.61639e-06
0.000551429
-7.75956e-06
4.72108e-06
3.67463e-07
4.66841e-06
0.000519156
0.00146465
0.000410835
2.23195e-06
0.00146545
0.000532914
2.89863e-06
0.0013987
0.000392628
1.85492e-06
0.00132067
0.000251156
2.60247e-06
0.00125613
0.000173639
1.92568e-06
0.00120297
0.000125369
2.42798e-06
0.0011622
9.6608e-05
1.93735e-06
0.00112741
7.7445e-05
2.27539e-06
0.0010999
6.37357e-05
1.94478e-06
0.0010751
5.44419e-05
2.16883e-06
0.00105488
4.65948e-05
1.96066e-06
0.00103608
4.14398e-05
2.09739e-06
0.00102053
3.64197e-05
1.97998e-06
0.00100582
3.31896e-05
2.04974e-06
0.000993937
2.91906e-05
1.99879e-06
0.000982082
2.68447e-05
2.01848e-06
0.000976033
2.00902e-05
2.01427e-06
0.000963568
2.31978e-05
1.99696e-06
0.000980249
-2.15006e-05
1.99802e-06
-8.93003e-06
2.02308e-06
0.000992059
0.00144509
0.000331185
4.55618e-06
0.00151866
0.000454557
5.16735e-06
0.00154298
0.000367055
4.35994e-06
0.00153111
0.000259304
4.88495e-06
0.00150936
0.000194167
4.37605e-06
0.00148215
0.000148968
4.69632e-06
0.00145714
0.000119638
4.35501e-06
0.00143231
9.85024e-05
4.54728e-06
0.00141111
8.24605e-05
4.33891e-06
0.00139064
7.09696e-05
4.4463e-06
0.00137313
6.09891e-05
4.33524e-06
0.00135621
5.4094e-05
4.38145e-06
0.00134175
4.73912e-05
4.33693e-06
0.00132791
4.28744e-05
4.33783e-06
0.00131606
3.75893e-05
4.34027e-06
0.0013052
3.38378e-05
4.30841e-06
0.001295
2.69452e-05
4.34775e-06
0.00128847
2.61493e-05
4.28522e-06
0.00126675
-3.07258e-06
4.39503e-06
1.66849e-05
4.33601e-06
0.00123772
0.00143943
0.000261954
2.63188e-06
0.00152419
0.000370001
3.29427e-06
0.00157936
0.000315738
2.31161e-06
0.0016044
0.000235511
2.98678e-06
0.00161668
0.000185771
2.3546e-06
0.00161785
0.000149155
2.80195e-06
0.00161568
0.000124825
2.36366e-06
0.00160899
0.000106314
2.65079e-06
0.00160217
9.18352e-05
2.3655e-06
0.00159327
8.09293e-05
2.54549e-06
0.00158495
7.12237e-05
2.3752e-06
0.00157544
6.41768e-05
2.47712e-06
0.00156695
5.71606e-05
2.38757e-06
0.0015579
5.24209e-05
2.43074e-06
0.00155042
4.63141e-05
2.39974e-06
0.00154191
4.31509e-05
2.40172e-06
0.00153726
3.29431e-05
2.41223e-06
0.00152806
3.64247e-05
2.38476e-06
0.00153096
-4.34503e-06
2.3897e-06
1.51109e-05
2.41472e-06
0.00153394
0.00142314
0.000205058
4.19056e-06
0.00150265
0.000286714
4.83186e-06
0.00156985
0.000248187
4.02597e-06
0.00161308
0.000189479
4.55932e-06
0.00164548
0.000153123
4.04092e-06
0.00166584
0.000126117
4.37489e-06
0.00168136
0.000108186
4.02679e-06
0.00169048
9.42428e-05
4.22709e-06
0.0016977
8.30758e-05
4.01278e-06
0.00170124
7.4482e-05
4.12656e-06
0.00170381
6.65648e-05
4.01096e-06
0.00170385
6.07058e-05
4.06111e-06
0.00170348
5.46351e-05
4.01157e-06
0.00170174
5.04636e-05
4.01441e-06
0.00169998
4.50672e-05
4.01349e-06
0.00169785
4.18619e-05
3.98529e-06
0.0016941
3.37874e-05
4.02409e-06
0.00169248
3.48629e-05
3.96984e-06
0.00167865
6.58617e-06
4.0743e-06
2.81418e-05
4.02022e-06
0.00166271
0.00142485
0.000149455
2.97666e-06
0.00149913
0.000211852
3.63582e-06
0.00156347
0.000186758
2.73029e-06
0.00160922
0.000144143
3.33641e-06
0.00164741
0.000117941
2.7423e-06
0.00167565
9.84002e-05
3.14508e-06
0.00170017
8.57825e-05
2.73875e-06
0.00171867
7.59772e-05
2.99243e-06
0.00173526
6.82003e-05
2.73279e-06
0.00174791
6.21788e-05
2.88863e-06
0.00175915
5.65498e-05
2.73822e-06
0.00176733
5.23603e-05
2.82052e-06
0.00177448
4.78087e-05
2.7436e-06
0.00177957
4.48153e-05
2.77078e-06
0.0017844
4.03593e-05
2.74934e-06
0.00178745
3.85198e-05
2.74127e-06
0.00179107
3.04296e-05
2.76036e-06
0.00179212
3.37372e-05
2.72795e-06
0.00179337
5.69812e-06
2.74733e-06
2.2627e-05
2.7647e-06
0.00179902
0.00141753
9.89033e-05
3.86685e-06
0.00148779
0.000138726
4.52355e-06
0.00155264
0.000122399
3.7085e-06
0.00160004
9.47924e-05
4.24985e-06
0.00164084
7.77152e-05
3.71771e-06
0.00167226
6.51161e-05
4.06424e-06
0.00170063
5.70985e-05
3.70677e-06
0.0017235
5.09467e-05
3.91639e-06
0.0017449
4.60916e-05
3.69519e-06
0.00176267
4.23851e-05
3.81701e-06
0.00177921
3.88646e-05
3.69634e-06
0.00179275
3.62916e-05
3.75168e-06
0.00180509
3.33835e-05
3.69648e-06
0.0018154
3.15137e-05
3.70222e-06
0.00182476
2.8653e-05
3.69732e-06
0.0018332
2.73539e-05
3.67304e-06
0.00183892
2.25098e-05
3.70898e-06
0.001846
2.41409e-05
3.66122e-06
0.00184163
7.77872e-06
3.74906e-06
2.16489e-05
3.70685e-06
0.00184018
0.00141865
4.86846e-05
3.28016e-06
0.00148692
6.91289e-05
3.94397e-06
0.00154977
6.1623e-05
3.08374e-06
0.00159629
4.78845e-05
3.6548e-06
0.00163679
3.93881e-05
3.08605e-06
0.00166852
3.30654e-05
3.46274e-06
0.00169779
2.90987e-05
3.07739e-06
0.00172206
2.60789e-05
3.31096e-06
0.0017453
2.37381e-05
3.06806e-06
0.00176528
2.19714e-05
3.2088e-06
0.00178431
2.02949e-05
3.07137e-06
0.00180057
1.90955e-05
3.14136e-06
0.00181578
1.7685e-05
3.07307e-06
0.001829
1.6862e-05
3.09013e-06
0.0018415
1.53793e-05
3.07533e-06
0.00185267
1.50209e-05
3.06059e-06
0.00186247
1.21055e-05
3.08615e-06
0.00187185
1.38161e-05
3.04931e-06
0.00187501
4.01218e-06
3.08944e-06
1.11858e-05
3.08757e-06
0.00188455
0.00141638
-8.86487e-11
3.56909e-06
0.00148344
2.58048e-10
4.23219e-06
0.00154635
-5.71545e-11
3.3998e-06
0.00159308
4.48156e-11
3.95245e-06
0.00163384
-9.81161e-10
3.40368e-06
0.00166581
6.79096e-11
3.76352e-06
0.00169538
-4.60209e-10
3.39386e-06
0.00172008
3.20199e-09
3.61405e-06
0.00174391
2.45881e-09
3.38348e-06
0.00176465
9.73439e-09
3.51374e-06
0.0017846
7.84206e-09
3.38584e-06
0.00180195
2.75212e-08
3.4475e-06
0.00181832
2.75384e-08
3.3863e-06
0.00183287
8.02828e-08
3.39669e-06
0.00184658
9.26176e-08
3.38739e-06
0.00185941
2.27192e-07
3.36738e-06
0.00186985
2.67549e-07
3.39891e-06
0.00188125
6.74291e-07
3.35635e-06
0.00188304
7.54006e-07
3.42161e-06
1.74423e-06
3.39656e-06
0.00189073
0.00141638
-4.86847e-05
3.56909e-06
0.00148344
-6.91283e-05
4.23219e-06
0.00154635
-6.16232e-05
3.3998e-06
0.00159308
-4.78844e-05
3.95245e-06
0.00163384
-3.93901e-05
3.40367e-06
0.00166581
-3.30652e-05
3.76352e-06
0.00169538
-2.90997e-05
3.39386e-06
0.00172008
-2.60724e-05
3.61406e-06
0.00174391
-2.37334e-05
3.38348e-06
0.00176465
-2.19513e-05
3.51375e-06
0.0017846
-2.02795e-05
3.38584e-06
0.00180195
-1.90385e-05
3.44753e-06
0.00181832
-1.7631e-05
3.3863e-06
0.00183287
-1.66961e-05
3.39681e-06
0.00184657
-1.51975e-05
3.38742e-06
0.00185939
-1.45521e-05
3.36774e-06
0.00186983
-1.15764e-05
3.39898e-06
0.00188123
-1.2458e-05
3.35746e-06
0.00188305
-2.54539e-06
3.42175e-06
-7.83402e-06
3.39875e-06
0.00189087
0.00141865
-9.89035e-05
3.28016e-06
0.00148692
-0.000138726
3.94397e-06
0.00154977
-0.000122399
3.08374e-06
0.00159629
-9.47923e-05
3.6548e-06
0.00163679
-7.77172e-05
3.08605e-06
0.00166852
-6.5116e-05
3.46273e-06
0.00169779
-5.70995e-05
3.07739e-06
0.00172207
-5.09404e-05
3.31096e-06
0.0017453
-4.60868e-05
3.06806e-06
0.00176528
-4.23658e-05
3.20879e-06
0.00178431
-3.88494e-05
3.07137e-06
0.00180058
-3.6237e-05
3.14132e-06
0.00181578
-3.33303e-05
3.07306e-06
0.00182902
-3.13556e-05
3.09001e-06
0.00184152
-2.84738e-05
3.07531e-06
0.00185271
-2.69094e-05
3.06023e-06
0.00186252
-2.19916e-05
3.08607e-06
0.00187195
-2.28258e-05
3.04822e-06
0.00187511
-6.32181e-06
3.08921e-06
-1.82251e-05
3.08544e-06
0.00188459
0.00141753
-0.000149455
3.86685e-06
0.00148779
-0.000211852
4.52355e-06
0.00155264
-0.000186758
3.7085e-06
0.00160004
-0.000144142
4.24985e-06
0.00164084
-0.000117943
3.71771e-06
0.00167226
-9.84001e-05
4.06424e-06
0.00170063
-8.57835e-05
3.70677e-06
0.0017235
-7.5971e-05
3.9164e-06
0.0017449
-6.81957e-05
3.69519e-06
0.00176267
-6.21595e-05
3.81702e-06
0.00177921
-5.65355e-05
3.69634e-06
0.00179275
-5.23051e-05
3.75171e-06
0.00180509
-4.77591e-05
3.69648e-06
0.0018154
-4.4656e-05
3.70231e-06
0.00182477
-4.0192e-05
3.69733e-06
0.00183321
-3.80752e-05
3.67333e-06
0.00183896
-2.99447e-05
3.70899e-06
0.00184607
-3.24536e-05
3.66215e-06
0.00184182
-4.354e-06
3.74898e-06
-1.94354e-05
3.70877e-06
0.00184059
0.00142485
-0.000205058
2.97666e-06
0.00149913
-0.000286714
3.63582e-06
0.00156347
-0.000248187
2.73029e-06
0.00160922
-0.000189479
3.33641e-06
0.00164741
-0.000153125
2.7423e-06
0.00167565
-0.000126117
3.14508e-06
0.00170017
-0.000108186
2.73875e-06
0.00171867
-9.42372e-05
2.99243e-06
0.00173526
-8.30711e-05
2.73279e-06
0.00174791
-7.44644e-05
2.88862e-06
0.00175915
-6.65507e-05
2.73822e-06
0.00176733
-6.06551e-05
2.82049e-06
0.00177449
-5.45886e-05
2.7436e-06
0.00177959
-5.03178e-05
2.77066e-06
0.00178444
-4.4912e-05
2.74934e-06
0.00178753
-4.14591e-05
2.74093e-06
0.00179118
-3.3334e-05
2.76031e-06
0.00179233
-3.36805e-05
2.727e-06
0.00179367
-5.32928e-06
2.74714e-06
-2.49935e-05
2.76266e-06
0.00179937
0.00142314
-0.000261954
4.19056e-06
0.00150265
-0.000370001
4.83186e-06
0.00156985
-0.000315738
4.02597e-06
0.00161308
-0.000235511
4.55933e-06
0.00164548
-0.000185773
4.04092e-06
0.00166584
-0.000149155
4.37489e-06
0.00168136
-0.000124825
4.02679e-06
0.00169048
-0.000106309
4.22709e-06
0.0016977
-9.18306e-05
4.01278e-06
0.00170125
-8.09136e-05
4.12657e-06
0.00170382
-7.12103e-05
4.01096e-06
0.00170386
-6.41302e-05
4.06113e-06
0.0017035
-5.71197e-05
4.01156e-06
0.00170176
-5.22861e-05
4.01447e-06
0.00170002
-4.6182e-05
4.01349e-06
0.00169792
-4.27758e-05
3.98549e-06
0.00169425
-3.2567e-05
4.02405e-06
0.00169273
-3.53457e-05
3.97053e-06
0.00167912
5.38272e-06
4.07371e-06
-1.24087e-05
4.02199e-06
0.00166362
0.00143943
-0.000331185
2.63188e-06
0.00152419
-0.000454557
3.29427e-06
0.00157936
-0.000367056
2.31161e-06
0.0016044
-0.000259304
2.98678e-06
0.00161668
-0.000194168
2.3546e-06
0.00161785
-0.000148968
2.80195e-06
0.00161568
-0.000119638
2.36366e-06
0.00160899
-9.84989e-05
2.65079e-06
0.00160217
-8.24558e-05
2.3655e-06
0.00159327
-7.0958e-05
2.54548e-06
0.00158495
-6.09761e-05
2.3752e-06
0.00157546
-5.40587e-05
2.4771e-06
0.00156697
-4.73543e-05
2.38757e-06
0.00155795
-4.277e-05
2.43064e-06
0.00155049
-3.74761e-05
2.39975e-06
0.00154206
-3.35447e-05
2.4014e-06
0.00153747
-2.66214e-05
2.41225e-06
0.00152847
-2.52841e-05
2.38396e-06
0.00153153
3.95563e-06
2.38975e-06
-1.42461e-05
2.41298e-06
0.00153478
0.00144509
-0.000410836
4.55618e-06
0.00151866
-0.000532913
5.16735e-06
0.00154298
-0.000392628
4.35994e-06
0.00153111
-0.000251156
4.88495e-06
0.00150936
-0.000173639
4.37605e-06
0.00148215
-0.000125369
4.69632e-06
0.00145714
-9.66076e-05
4.35501e-06
0.00143231
-7.74427e-05
4.54727e-06
0.00141111
-6.3732e-05
4.3389e-06
0.00139064
-5.44346e-05
4.4463e-06
0.00137314
-4.65843e-05
4.33524e-06
0.00135623
-4.1416e-05
4.38147e-06
0.00134177
-3.63904e-05
4.33692e-06
0.00132796
-3.31163e-05
4.33789e-06
0.00131615
-2.91038e-05
4.34024e-06
0.00130535
-2.66302e-05
4.30856e-06
0.00129526
-1.98651e-05
4.34768e-06
0.00128893
-2.25429e-05
4.28569e-06
0.00126761
2.20027e-05
4.3943e-06
1.05122e-05
4.33737e-06
0.00123942
0.00146465
-0.000504074
2.23195e-06
0.00146545
-0.000532577
2.89863e-06
0.0013987
-0.000320963
1.85492e-06
0.00132067
-0.00017101
2.60247e-06
0.00125613
-0.000104411
1.92568e-06
0.00120297
-7.00789e-05
2.42798e-06
0.0011622
-5.18702e-05
1.93735e-06
0.00112741
-4.06354e-05
2.27539e-06
0.0010999
-3.27976e-05
1.94479e-06
0.00107511
-2.77862e-05
2.16882e-06
0.00105489
-2.34666e-05
1.96067e-06
0.0010361
-2.08326e-05
2.09737e-06
0.00102057
-1.81282e-05
1.97999e-06
0.00100589
-1.64322e-05
2.04967e-06
0.000994035
-1.44906e-05
1.9988e-06
0.000982288
-1.26329e-05
2.01829e-06
0.000976312
-1.10608e-05
2.01426e-06
0.00096415
-7.92665e-06
1.99645e-06
0.000980978
8.15055e-06
1.99818e-06
6.85996e-07
2.02201e-06
0.000993284
0.00135861
-0.00049786
4.96688e-06
0.00117765
-0.000357259
5.51627e-06
0.00101166
-0.000156937
4.6859e-06
0.000897102
-6.11051e-05
5.21195e-06
0.000824257
-3.38438e-05
4.71308e-06
0.000773088
-2.34634e-05
5.02625e-06
0.000737447
-1.90276e-05
4.69107e-06
0.00070817
-1.59081e-05
4.881e-06
0.000686148
-1.40074e-05
4.67926e-06
0.000666323
-1.25396e-05
4.78387e-06
0.000650825
-1.14957e-05
4.6752e-06
0.000636199
-1.06788e-05
4.71714e-06
0.000624482
-1.00172e-05
4.67434e-06
0.000613254
-9.48794e-06
4.67258e-06
0.000604151
-9.01302e-06
4.67642e-06
0.000595861
-8.47196e-06
4.64231e-06
0.000588621
-7.48288e-06
4.68189e-06
0.00058557
-8.91315e-06
4.61695e-06
0.000552518
3.73846e-05
4.71998e-06
2.7743e-05
4.66973e-06
0.000521228
0.00087597
1.8201e-06
0.000521938
2.35059e-06
0.000371748
1.46457e-06
0.000314492
2.05616e-06
0.000286927
1.51193e-06
0.000267524
1.86441e-06
0.000254422
1.49533e-06
0.000242742
1.70826e-06
0.000234379
1.48301e-06
0.000226188
1.60543e-06
0.000220138
1.47766e-06
0.000213931
1.53761e-06
0.000209226
1.47766e-06
0.000204307
1.49481e-06
0.000200488
1.48194e-06
0.000196641
1.46761e-06
0.000194228
1.48865e-06
0.000189951
1.4477e-06
0.0002323
1.4956e-06
1.4755e-06
0.000264532
0.00106023
0.000309273
-1.94689e-11
0.000774741
0.000289271
-1.92282e-11
0.000575231
0.000202553
-1.92023e-11
0.000469568
0.000109297
-1.99028e-11
0.000418955
5.36033e-05
-2.01549e-11
0.000394725
2.74727e-05
-2.0489e-11
0.000379861
1.76612e-05
-2.03712e-11
0.000369032
1.37865e-05
-2.01988e-11
0.000359443
1.22988e-05
-1.95148e-11
0.000351219
1.10668e-05
-1.93782e-11
0.000343689
1.02808e-05
-1.95164e-11
0.000337056
9.48934e-06
-2.01596e-11
0.000331127
8.76635e-06
-2.03317e-11
0.000325991
8.01828e-06
-2.04386e-11
0.000322007
6.8735e-06
-2.02343e-11
0.000318442
6.44258e-06
-2.03965e-11
0.000317445
3.89051e-06
-2.04745e-11
0.000313024
7.27159e-06
-2.05106e-11
0.00031762
-1.75431e-06
-2.01911e-11
3.12395e-07
-1.92782e-11
0.000320182
0.00140454
0.000277364
-1.94604e-11
0.00136396
0.000336742
-1.92168e-11
0.00127906
0.000293807
-1.92267e-11
0.00119584
0.000199604
-2.00516e-11
0.00112656
0.000129364
-2.01955e-11
0.00107224
8.83603e-05
-1.98105e-11
0.00102843
6.74948e-05
-1.92315e-11
0.000992725
5.54917e-05
-1.96443e-11
0.0009626
4.80136e-05
-1.98364e-11
0.000937248
4.19763e-05
-1.97378e-11
0.000915498
3.74603e-05
-1.90875e-11
0.000896864
3.36776e-05
-1.8955e-11
0.000881183
3.00968e-05
-1.87985e-11
0.000868274
2.67128e-05
-1.86353e-11
0.000858802
2.22602e-05
-1.80486e-11
0.000851471
1.97511e-05
-1.79254e-11
0.000848594
1.28412e-05
-1.81457e-11
0.000843498
1.84161e-05
-1.89819e-11
0.000846052
1.81055e-06
-1.95767e-11