/*--------------------------------*- C++ -*----------------------------------*\
  =========                 |
  \\      /  F ield         | OpenFOAM: The Open Source CFD Toolbox
   \\    /   O peration     | Website:  https://openfoam.org
    \\  /    A nd           | Version:  7
     \\/     M anipulation  |
\*---------------------------------------------------------------------------*/
FoamFile
{
    version     2.0;
    format      ascii;
    class       volSymmTensorField;
    location    "0.945";
    object      UPrime2Mean;
}
// * * * * * * * * * * * * * * * * * * * * * * * * * * * * * * * * * * * * * //

dimensions      [0 2 -2 0 0 0 0];

internalField   nonuniform List<symmTensor> 
4950
(
(0.0147483 -0.00509881 -0.001087 0.00330658 0.00076711 0.000293013)
(0.0756848 -0.00803565 -0.00424014 0.00107227 0.000544468 0.000662797)
(0.13984 -0.00471487 -0.00625536 0.000202019 0.000288824 0.000943856)
(0.210115 -0.000211305 -0.00762084 1.1276e-05 6.18484e-05 0.00107488)
(0.235525 0.00194076 -0.00830555 2.94607e-05 -3.07709e-05 0.00119372)
(0.274679 0.00288767 -0.0087284 5.08697e-05 -5.18229e-05 0.00119788)
(0.281433 0.00292306 -0.00899161 5.45031e-05 -4.75751e-05 0.00119569)
(0.307514 0.00291682 -0.00907165 5.31097e-05 -2.8471e-05 0.0011115)
(0.308967 0.00256109 -0.00912465 4.74956e-05 -1.34816e-05 0.00104883)
(0.328841 0.002429 -0.00902919 4.2865e-05 -4.31834e-06 0.000949158)
(0.32856 0.00202938 -0.00896698 3.59533e-05 8.26029e-07 0.000887912)
(0.344259 0.0019896 -0.00878593 3.29707e-05 -2.49574e-06 0.000813135)
(0.343416 0.00153682 -0.008661 2.62697e-05 3.16909e-06 0.000777213)
(0.35574 0.00172437 -0.00843754 2.72388e-05 -1.04864e-05 0.000739056)
(0.355238 0.00102529 -0.00827028 1.67485e-05 6.46166e-06 0.000729221)
(0.364505 0.00162353 -0.00804016 2.52751e-05 -2.45167e-05 0.000728557)
(0.365153 1.5769e-05 -0.0078371 5.46757e-06 2.79921e-05 0.000727418)
(0.373611 0.00121316 -0.00771246 2.42561e-05 -4.28153e-05 0.000764099)
(0.366615 -0.00685044 -0.00728677 0.000229472 0.000163821 0.000737154)
(0.418925 -0.000325985 -0.00616008 0.000264877 9.22197e-05 0.000777494)
(0.0084959 0.00264763 0.000611287 0.00577626 0.000941746 0.000291812)
(0.00992808 0.00134022 0.000573277 0.00554955 0.00137733 0.000940343)
(0.0191707 -0.000217672 0.000507225 0.00419043 0.00152399 0.00172794)
(0.0277534 -0.00317418 -0.000972251 0.00246599 0.00130843 0.00240838)
(0.0435997 -0.00394167 -0.00197609 0.00141661 0.00105757 0.00316441)
(0.0638083 -0.00457911 -0.00357538 0.000884567 0.000818701 0.00371065)
(0.08493 -0.0044618 -0.00464567 0.000564482 0.000595482 0.00414577)
(0.109802 -0.00436584 -0.00608237 0.000385299 0.000417777 0.0042425)
(0.131713 -0.00398168 -0.00692769 0.000270596 0.000280379 0.0041653)
(0.156312 -0.00362023 -0.00795148 0.000198265 0.00018529 0.00388362)
(0.176518 -0.00317066 -0.00840011 0.000148962 0.000123474 0.00352654)
(0.198791 -0.00276121 -0.0089824 0.000116939 9.21855e-05 0.0031343)
(0.216484 -0.00230845 -0.00911365 9.17432e-05 6.67068e-05 0.00274567)
(0.236116 -0.00193465 -0.00931005 7.94929e-05 8.47992e-05 0.00242091)
(0.251301 -0.00158314 -0.00915899 5.95169e-05 6.20977e-05 0.00212156)
(0.269475 -0.00108963 -0.00897514 6.00513e-05 0.000116997 0.00196861)
(0.280458 -0.00115789 -0.00859702 3.51885e-05 7.54486e-05 0.00178005)
(0.301938 0.00110742 -0.00820814 3.85356e-05 3.60197e-05 0.00184186)
(0.297659 -0.000588445 -0.00760057 5.64232e-05 0.00015751 0.00170273)
(0.321486 0.0101098 -0.0057578 0.000808818 -0.000654969 0.00187358)
(0.0101191 0.00226448 0.000844031 0.00196504 0.000530515 0.000290059)
(0.0191236 0.00443448 0.00213539 0.00228494 0.000884785 0.000995514)
(0.0498615 0.0079481 0.00506736 0.00243221 0.00124361 0.00189431)
(0.0632802 0.00736388 0.00639385 0.00186668 0.00123084 0.00272797)
(0.0884972 0.00669979 0.00857762 0.00134223 0.00114225 0.00370055)
(0.095758 0.00514501 0.00909743 0.000990978 0.000959905 0.00460739)
(0.114384 0.00407058 0.0102463 0.00070884 0.000751545 0.0055259)
(0.12026 0.00291457 0.00968458 0.000521568 0.000538889 0.00617234)
(0.136296 0.00223746 0.00970768 0.000379115 0.000367068 0.0065838)
(0.143457 0.00153841 0.00849724 0.000277121 0.000218281 0.006649)
(0.158671 0.00121697 0.00815655 0.00020558 0.00012599 0.00649404)
(0.16759 0.000803122 0.00701831 0.000148824 5.54622e-05 0.00613189)
(0.182613 0.000719242 0.00671924 0.000116203 2.29466e-05 0.00564988)
(0.192702 0.000416312 0.00586316 8.09406e-05 1.07888e-05 0.00508153)
(0.208082 0.000457044 0.00574842 7.26631e-05 -2.62901e-06 0.00447315)
(0.217912 0.000238099 0.00546006 4.16487e-05 5.87865e-06 0.0038858)
(0.235242 0.000402793 0.00571158 5.85127e-05 3.00197e-05 0.00334388)
(0.242281 0.000133727 0.00620576 1.66002e-05 -9.15251e-05 0.00294153)
(0.262068 0.001533 0.00649522 7.31009e-05 0.000163863 0.00258281)
(0.267843 0.00133568 0.00850902 0.000543932 -0.000712943 0.00250055)
(0.00993616 0.00125178 0.000768311 0.000563278 0.000267054 0.000266234)
(0.0174068 0.0022854 0.00184982 0.000676308 0.000471207 0.00094781)
(0.0525913 0.00494196 0.00501219 0.000773417 0.000684012 0.00184621)
(0.0777974 0.00543741 0.00727088 0.000643967 0.000729176 0.00268386)
(0.124332 0.00597341 0.0107161 0.000509715 0.000706287 0.00367353)
(0.151242 0.00567881 0.0128437 0.000419295 0.000639254 0.00462459)
(0.196697 0.00563919 0.0155272 0.000338218 0.000531237 0.00563348)
(0.220517 0.00522853 0.0164528 0.000281678 0.000422509 0.0064433)
(0.262041 0.00508511 0.0176181 0.000230816 0.00031345 0.00703746)
(0.283254 0.00468086 0.0173561 0.000191319 0.000222585 0.00732843)
(0.320552 0.00448622 0.0176575 0.000156961 0.000146417 0.00735606)
(0.340295 0.00415726 0.0170631 0.000129049 9.5932e-05 0.00718532)
(0.373378 0.00390438 0.017135 0.000106226 5.23033e-05 0.00685479)
(0.39297 0.00373201 0.0165242 8.61869e-05 4.88273e-05 0.00638127)
(0.42169 0.00327505 0.0165618 7.24928e-05 2.04196e-05 0.00584606)
(0.442489 0.0033425 0.0162675 5.4718e-05 4.27577e-05 0.00517709)
(0.465751 0.00253862 0.016639 5.08434e-05 3.15135e-05 0.00458084)
(0.491053 0.00215391 0.0172009 2.40235e-05 -2.33667e-05 0.00394905)
(0.501572 0.00209782 0.0176636 3.92805e-05 7.89063e-05 0.00343248)
(0.551132 -0.0034931 0.0211449 8.11632e-05 -0.000431891 0.00320944)
(0.00989668 -1.92787e-08 0.000793051 3.18174e-10 -4.43878e-11 0.000277356)
(0.0169023 4.88594e-09 0.00184732 3.37971e-10 -2.98675e-09 0.000984626)
(0.0527324 -4.7437e-10 0.00521152 2.4671e-10 -5.36541e-09 0.00189507)
(0.079863 3.86624e-09 0.00757281 1.1746e-10 -8.63355e-09 0.00274392)
(0.130047 -4.79116e-08 0.0114277 1.08467e-10 -8.68486e-09 0.00373268)
(0.161248 2.19881e-08 0.0137361 1.42345e-10 -1.66084e-08 0.00469113)
(0.213471 -7.14156e-08 0.0169738 1.9126e-10 -1.99103e-08 0.00571589)
(0.243877 5.01072e-08 0.0181123 2.34375e-10 -1.08154e-08 0.0065511)
(0.295042 1.4027e-07 0.0198744 2.80663e-10 -4.07043e-08 0.00719817)
(0.323975 6.62448e-07 0.0197773 3.26093e-10 3.53104e-08 0.00752174)
(0.372603 7.47918e-07 0.0206267 3.80089e-10 -1.08249e-07 0.00762314)
(0.399675 2.08846e-06 0.0201196 4.28645e-10 2.00785e-07 0.00747894)
(0.445391 2.42208e-06 0.0206866 5.37734e-10 -2.43658e-07 0.00722255)
(0.470162 9.38621e-06 0.0200731 7.88769e-10 4.80959e-07 0.00676834)
(0.513759 3.97449e-06 0.0205827 1.08688e-09 -2.25439e-07 0.0062917)
(0.534649 3.22757e-05 0.0201081 3.67853e-09 6.30254e-07 0.00561652)
(0.577331 4.61741e-06 0.0210235 3.19189e-09 6.36759e-07 0.00503236)
(0.593921 7.74278e-05 0.0212568 2.1941e-08 2.06913e-07 0.00436579)
(0.626347 8.32412e-06 0.022406 1.26749e-08 2.09951e-06 0.00379393)
(0.651903 6.06115e-05 0.0257603 3.72694e-08 5.40611e-07 0.00359502)
(0.00993617 -0.00125182 0.000768319 0.000563271 -0.000267058 0.000266235)
(0.0174069 -0.00228536 0.0018498 0.000676304 -0.000471203 0.000947822)
(0.0525913 -0.00494195 0.00501227 0.000773413 -0.000684036 0.00184618)
(0.0777974 -0.00543739 0.00727072 0.000643965 -0.000729166 0.00268393)
(0.124332 -0.00597352 0.0107165 0.000509711 -0.000706341 0.00367343)
(0.151242 -0.00567882 0.0128431 0.000419284 -0.000639221 0.00462466)
(0.196697 -0.0056393 0.0155282 0.000338204 -0.000531348 0.00563357)
(0.220518 -0.00522863 0.0164511 0.000281651 -0.000422407 0.0064428)
(0.262041 -0.00508475 0.0176211 0.000230766 -0.000313625 0.00703876)
(0.283256 -0.00468032 0.0173514 0.000191275 -0.000222431 0.00732601)
(0.320551 -0.00448452 0.017665 0.000156824 -0.000146591 0.00735997)
(0.340302 -0.0041559 0.0170517 0.000128945 -9.57639e-05 0.00718015)
(0.373379 -0.00389908 0.0171525 0.000105938 -5.23816e-05 0.0068607)
(0.392989 -0.00372474 0.0164984 8.58954e-05 -4.85845e-05 0.00637612)
(0.4217 -0.00326348 0.0165995 7.20344e-05 -2.02263e-05 0.00584916)
(0.442535 -0.00331816 0.0162159 5.39825e-05 -4.1917e-05 0.00517787)
(0.465799 -0.00251728 0.0167053 5.0159e-05 -3.01646e-05 0.00457584)
(0.491146 -0.00209243 0.0171279 2.31765e-05 2.61905e-05 0.00395918)
(0.501711 -0.002032 0.0177378 3.79434e-05 -7.3976e-05 0.00341747)
(0.551295 0.00358711 0.0211187 8.31954e-05 0.000435851 0.00323244)
(0.0101191 -0.00226451 0.000844041 0.00196504 -0.000530523 0.000290061)
(0.0191236 -0.00443446 0.00213535 0.00228495 -0.00088477 0.000995526)
(0.0498616 -0.0079481 0.00506745 0.0024322 -0.00124366 0.00189428)
(0.0632802 -0.00736388 0.00639365 0.00186667 -0.00123079 0.00272807)
(0.0884973 -0.00669988 0.00857793 0.00134222 -0.00114235 0.0037004)
(0.0957582 -0.00514505 0.00909692 0.000990958 -0.000959801 0.00460756)
(0.114384 -0.00407072 0.0102472 0.000708829 -0.00075176 0.00552593)
(0.120261 -0.00291475 0.00968338 0.000521523 -0.000538655 0.00617182)
(0.136296 -0.00223742 0.00970975 0.000379078 -0.000367438 0.00658572)
(0.143459 -0.00153822 0.00849404 0.000277047 -0.000217904 0.00664516)
(0.15867 -0.00121671 0.00816235 0.000205482 -0.000126477 0.00650121)
(0.167596 -0.000802634 0.00700796 0.000148695 -5.48914e-05 0.00612146)
(0.182611 -0.000718823 0.00673945 0.000116003 -2.36687e-05 0.00566406)
(0.192721 -0.000411645 0.00582672 8.06758e-05 -9.5907e-06 0.00506582)
(0.208076 -0.000459589 0.00581532 7.23929e-05 1.42361e-06 0.00448927)
(0.217959 -0.000220393 0.00535091 4.1123e-05 -3.2491e-06 0.00387268)
(0.235236 -0.000418925 0.00588757 5.81315e-05 -3.12892e-05 0.00335318)
(0.242385 -8.75876e-05 0.00596202 1.63381e-05 9.49852e-05 0.00293754)
(0.262098 -0.00157171 0.0068299 7.19458e-05 -0.000164576 0.00257883)
(0.268048 -0.00125865 0.00814894 0.000539704 0.00071596 0.00251983)
(0.00849596 -0.00264767 0.000611291 0.00577623 -0.000941749 0.000291813)
(0.00992813 -0.00134019 0.000573269 0.00554954 -0.00137731 0.000940352)
(0.0191707 0.000217636 0.000507205 0.00419042 -0.00152401 0.00172795)
(0.0277534 0.00317416 -0.000972222 0.00246599 -0.0013084 0.00240844)
(0.0435998 0.00394154 -0.00197632 0.00141661 -0.00105764 0.00316435)
(0.0638082 0.00457905 -0.00357494 0.000884564 -0.000818633 0.00371084)
(0.0849298 0.00446159 -0.0046467 0.000564466 -0.000595601 0.00414574)
(0.109801 0.0043656 -0.00608036 0.000385293 -0.000417634 0.00424265)
(0.131713 0.00398127 -0.00693159 0.000270561 -0.000280579 0.00416607)
(0.156308 0.0036201 -0.00794476 0.000198257 -0.000185066 0.00388226)
(0.176516 0.00316946 -0.00841149 0.00014889 -0.000123701 0.00353038)
(0.198779 0.00276043 -0.00896512 0.000116912 -9.19378e-05 0.0031281)
(0.216477 0.00230582 -0.00913849 9.16195e-05 -6.6894e-05 0.00275667)
(0.236083 0.00193223 -0.00927836 7.93922e-05 -8.43117e-05 0.00240485)
(0.251267 0.001578 -0.00919403 5.93367e-05 -6.26201e-05 0.0021455)
(0.269406 0.00108103 -0.00894825 5.97964e-05 -0.000114769 0.00193587)
(0.280335 0.00114921 -0.00859839 3.4947e-05 -7.70715e-05 0.00182297)
(0.301817 -0.00111372 -0.00827387 3.83061e-05 -3.10274e-05 0.00179113)
(0.297321 0.000561144 -0.0074655 5.60967e-05 -0.000161755 0.0017409)
(0.321394 -0.0100483 -0.00607348 0.000801525 0.000615968 0.00189032)
(0.0147484 0.00509876 -0.00108695 0.00330656 -0.000767084 0.000293011)
(0.0756851 0.00803567 -0.00424007 0.00107226 -0.000544456 0.000662817)
(0.13984 0.00471483 -0.00625534 0.000202018 -0.000288825 0.000943889)
(0.210115 0.000211393 -0.007621 1.12751e-05 -6.18564e-05 0.00107495)
(0.235525 -0.00194076 -0.00830598 2.94591e-05 3.07663e-05 0.0011938)
(0.274679 -0.0028876 -0.00872855 5.08688e-05 5.18082e-05 0.00119801)
(0.281433 -0.00292303 -0.00899242 5.45003e-05 4.75749e-05 0.00119579)
(0.307513 -0.00291687 -0.00907129 5.31107e-05 2.84438e-05 0.00111167)
(0.308966 -0.00256097 -0.00912641 4.74908e-05 1.34921e-05 0.00104897)
(0.328839 -0.00242907 -0.00902721 4.28683e-05 4.27683e-06 0.000949236)
(0.328558 -0.00202892 -0.00897147 3.59427e-05 -8.11775e-07 0.000888259)
(0.34425 -0.00199005 -0.00877939 3.29736e-05 2.46443e-06 0.000812745)
(0.34341 -0.0015356 -0.00867283 2.62554e-05 -3.19335e-06 0.000778411)
(0.355718 -0.00172492 -0.00841941 2.72359e-05 1.04901e-05 0.000737015)
(0.355214 -0.0010219 -0.00829999 1.67307e-05 -6.65913e-06 0.000733373)
(0.364458 -0.00162513 -0.00799575 2.52764e-05 2.45382e-05 0.000721219)
(0.365066 -1.03787e-05 -0.00790342 5.47868e-06 -2.878e-05 0.00074041)
(0.373527 -0.00121766 -0.0076314 2.42788e-05 4.2226e-05 0.000742975)
(0.366414 0.00683216 -0.00730718 0.000228805 -0.000167093 0.000766233)
(0.418721 0.000299351 -0.00660892 0.00026243 -6.8417e-05 0.000750527)
(0.00786435 0.000256791 3.89642e-05 0.00112953 9.03713e-06 7.70435e-07)
(0.0315308 -0.00684989 -3.07663e-06 0.002139 6.37643e-06 6.1687e-07)
(0.0771045 -0.0109866 2.27809e-05 0.00206314 5.80224e-06 6.99343e-07)
(0.18812 -0.0128184 4.99086e-05 0.00102391 -1.00212e-06 6.02561e-07)
(0.239399 -0.00964732 5.65223e-05 0.000470395 8.03046e-07 6.68444e-07)
(0.343679 -0.00727458 9.32423e-05 0.000189484 -1.75448e-07 5.72272e-07)
(0.358221 -0.00493396 7.65895e-05 9.4341e-05 1.40793e-06 6.27464e-07)
(0.433789 -0.00397869 0.000109429 5.60816e-05 1.15392e-06 5.35576e-07)
(0.428667 -0.00311962 8.36364e-05 4.25331e-05 1.99715e-06 5.8607e-07)
(0.486687 -0.0029908 0.000115032 3.70477e-05 1.6397e-06 5.02371e-07)
(0.475494 -0.00258016 8.6687e-05 3.32571e-05 2.11315e-06 5.47597e-07)
(0.522643 -0.00270256 0.000117949 3.33588e-05 1.7791e-06 4.71703e-07)
(0.510415 -0.00224048 8.90773e-05 2.87829e-05 2.03519e-06 5.09636e-07)
(0.549696 -0.00255898 0.000120701 3.41681e-05 2.0126e-06 4.40449e-07)
(0.537974 -0.00176191 9.19839e-05 2.30395e-05 1.67076e-06 4.70689e-07)
(0.571532 -0.00245864 0.00012509 4.24184e-05 2.62141e-06 4.08071e-07)
(0.558834 -0.00057264 9.53122e-05 1.25084e-05 -4.41849e-08 4.31669e-07)
(0.588885 -0.00137767 0.000135552 6.53922e-05 3.86506e-06 3.75324e-07)
(0.562996 0.00902101 9.35893e-05 0.000416943 -4.73928e-06 3.96223e-07)
(0.548196 0.0160876 0.000164852 0.000966191 -3.57663e-06 3.34133e-07)
(0.0096117 0.00117519 3.44006e-05 0.000626342 2.8389e-06 5.84904e-07)
(0.00977166 0.00119338 1.59566e-05 0.00256783 -2.35324e-06 4.93961e-07)
(0.024561 0.00430939 6.09074e-05 0.00351774 -6.47381e-06 5.46465e-07)
(0.0231363 0.000869498 5.16473e-05 0.00295255 -1.44514e-05 4.775e-07)
(0.0345512 0.000173206 8.91133e-05 0.00199295 -1.14938e-05 5.17158e-07)
(0.0413666 -0.00220072 8.95896e-05 0.0011557 -1.13833e-05 4.45968e-07)
(0.0554646 -0.00246401 0.000119645 0.000657818 -8.20949e-06 4.78131e-07)
(0.0731411 -0.00293666 0.000123183 0.000375364 -6.99101e-06 4.0968e-07)
(0.0899984 -0.00263294 0.000145665 0.000221202 -5.09381e-06 4.40038e-07)
(0.113675 -0.00246729 0.000149561 0.000136805 -4.0922e-06 3.78089e-07)
(0.130782 -0.00207513 0.000165534 8.62003e-05 -3.00072e-06 4.0589e-07)
(0.156153 -0.00181234 0.000168833 5.77018e-05 -2.36722e-06 3.49997e-07)
(0.171976 -0.00149912 0.000179257 3.9598e-05 -1.7321e-06 3.72671e-07)
(0.196768 -0.00129112 0.000181897 2.88209e-05 -1.49156e-06 3.22093e-07)
(0.210879 -0.00111306 0.000188033 2.08499e-05 -9.71964e-07 3.38676e-07)
(0.234816 -0.000711102 0.000190682 1.95047e-05 -9.60374e-07 2.94158e-07)
(0.24635 -0.00110386 0.000193814 1.60107e-05 -4.77927e-07 3.047e-07)
(0.271916 0.00120555 0.000197106 2.74875e-05 6.33845e-07 2.67483e-07)
(0.275528 -0.000864067 0.000197475 4.91156e-05 -3.52346e-07 2.7205e-07)
(0.325343 0.00913533 0.000208332 0.000681749 8.19291e-06 2.43833e-07)
(0.00846357 0.000371717 3.68969e-05 0.000100045 2.4459e-06 7.11071e-07)
(0.0101834 0.00107071 2.15389e-05 0.00112048 3.42394e-06 5.9929e-07)
(0.0370449 0.00650148 7.62214e-05 0.0022539 1.85169e-06 6.70396e-07)
(0.0449375 0.00699106 4.31256e-05 0.00229626 -6.5034e-06 5.75457e-07)
(0.0829953 0.00929538 8.65636e-05 0.00199359 -5.3241e-06 6.39064e-07)
(0.0864964 0.00752147 5.43643e-05 0.00150371 -8.26643e-06 5.46241e-07)
(0.118569 0.00738375 9.98548e-05 0.00115031 -5.83573e-06 6.00325e-07)
(0.117563 0.0057246 7.33326e-05 0.000874425 -6.59413e-06 5.11727e-07)
(0.144002 0.00533914 0.000118482 0.00068144 -4.3847e-06 5.61372e-07)
(0.14295 0.00428789 9.61084e-05 0.000540254 -4.42793e-06 4.80032e-07)
(0.166446 0.00401465 0.000138672 0.000429036 -2.6284e-06 5.24763e-07)
(0.16744 0.00341201 0.00011945 0.000348075 -2.44597e-06 4.5054e-07)
(0.18885 0.00319316 0.000158297 0.000281825 -1.12877e-06 4.88442e-07)
(0.192599 0.00292355 0.000141737 0.000225496 -8.1324e-07 4.20256e-07)
(0.211552 0.00254947 0.000176269 0.000197323 -3.27847e-07 4.50876e-07)
(0.219069 0.00269813 0.000162659 0.000135811 5.86764e-07 3.88457e-07)
(0.234117 0.00156613 0.000192763 0.000159246 -9.47337e-07 4.13519e-07)
(0.247658 0.00236068 0.000182771 6.81828e-05 2.13287e-06 3.56507e-07)
(0.25756 -0.00133031 0.000212871 0.000185739 -3.64534e-06 3.81695e-07)
(0.278624 -0.00278509 0.000200832 0.000237057 1.55326e-06 3.27553e-07)
(0.00796926 0.000171734 2.8933e-05 4.21214e-05 8.19264e-07 5.67729e-07)
(0.00920005 9.57584e-05 1.68526e-05 0.000237458 -4.07567e-07 4.93248e-07)
(0.0311775 0.00228508 5.71407e-05 0.000432501 -1.98747e-06 5.4071e-07)
(0.0418986 0.00292799 2.75035e-05 0.000482915 -5.45835e-06 4.71553e-07)
(0.0877293 0.00438703 5.77916e-05 0.000443062 -4.92225e-06 5.10783e-07)
(0.103441 0.00413691 2.18651e-05 0.000355598 -5.88957e-06 4.40761e-07)
(0.154079 0.00435062 5.68547e-05 0.000283926 -4.76302e-06 4.7271e-07)
(0.168047 0.00388737 2.23914e-05 0.000225379 -4.85879e-06 4.0511e-07)
(0.216232 0.00381898 6.1244e-05 0.000182715 -3.87448e-06 4.34549e-07)
(0.228615 0.00347454 2.95683e-05 0.000150423 -3.73053e-06 3.73024e-07)
(0.273435 0.00337519 7.01421e-05 0.000124356 -2.88945e-06 4.00178e-07)
(0.284985 0.00308861 4.17055e-05 0.000103428 -2.66472e-06 3.44867e-07)
(0.326672 0.00299301 8.25261e-05 8.71238e-05 -1.95773e-06 3.67477e-07)
(0.337598 0.002673 5.73679e-05 7.0313e-05 -1.758e-06 3.17563e-07)
(0.37677 0.00263515 9.75281e-05 6.32531e-05 -1.18203e-06 3.34192e-07)
(0.386448 0.00215438 7.46981e-05 4.35041e-05 -9.62217e-07 2.9016e-07)
(0.42372 0.00212165 0.000114695 4.69252e-05 -6.38168e-07 3.00472e-07)
(0.430903 0.00121716 8.95556e-05 1.77351e-05 2.34018e-07 2.64007e-07)
(0.463122 0.000601749 0.000133705 2.79649e-05 -2.51621e-07 2.65742e-07)
(0.457876 -0.000732254 9.40452e-05 8.54305e-05 2.94929e-06 2.40059e-07)
(0.00831191 -4.47219e-09 3.58892e-05 2.34652e-10 -8.18998e-12 7.02911e-07)
(0.00952126 6.74558e-09 2.17853e-05 1.88802e-10 -1.34233e-11 6.02252e-07)
(0.0334175 8.83857e-09 7.64037e-05 1.43897e-10 1.38656e-11 6.7076e-07)
(0.0439488 9.18911e-09 4.37183e-05 9.70759e-11 -2.93124e-12 5.75428e-07)
(0.0912826 8.04093e-09 8.44166e-05 1.07471e-10 4.05109e-11 6.38951e-07)
(0.108576 6.44852e-08 4.45985e-05 1.43616e-10 -3.84702e-11 5.46249e-07)
(0.163243 4.17052e-08 8.74596e-05 1.95073e-10 -7.20541e-13 6.00508e-07)
(0.180952 5.67017e-08 4.90509e-05 2.39666e-10 -3.09208e-11 5.11979e-07)
(0.235208 2.90917e-07 9.45981e-05 2.91986e-10 -1.0335e-10 5.61334e-07)
(0.25293 4.51789e-07 5.90619e-05 3.34667e-10 -1.16899e-10 4.79826e-07)
(0.30514 8.78795e-07 0.000105698 3.9309e-10 -3.78335e-10 5.24309e-07)
(0.32344 9.57435e-07 7.37486e-05 4.40467e-10 -1.22011e-10 4.50032e-07)
(0.372619 2.84954e-06 0.000120346 5.52428e-10 -7.82815e-10 4.87959e-07)
(0.392106 3.3674e-06 9.25026e-05 6.54566e-10 -6.4157e-10 4.19821e-07)
(0.436553 7.85809e-06 0.000138221 9.84904e-10 -1.22183e-09 4.50632e-07)
(0.458587 7.05911e-06 0.000114565 1.19659e-09 -1.62019e-09 3.88248e-07)
(0.494313 1.98442e-05 0.000159594 2.61105e-09 -2.47359e-09 4.13781e-07)
(0.521346 1.61309e-05 0.000138347 2.892e-09 -2.13435e-09 3.56708e-07)
(0.540809 5.22163e-05 0.000190909 1.47141e-08 -3.54247e-09 3.82826e-07)
(0.567825 7.25027e-05 0.00016448 2.43876e-08 7.01532e-09 3.28209e-07)
(0.00796926 -0.00017175 2.89336e-05 4.21212e-05 -8.19258e-07 5.67729e-07)
(0.00920005 -9.57373e-05 1.68529e-05 0.000237459 4.07508e-07 4.93249e-07)
(0.0311775 -0.00228504 5.71413e-05 0.000432504 1.98751e-06 5.4071e-07)
(0.0418986 -0.00292797 2.75046e-05 0.000482911 5.45828e-06 4.71553e-07)
(0.0877293 -0.00438703 5.77931e-05 0.000443065 4.92234e-06 5.10784e-07)
(0.103441 -0.00413677 2.18663e-05 0.000355583 5.88938e-06 4.40761e-07)
(0.154079 -0.00435061 5.68557e-05 0.00028393 4.76312e-06 4.7271e-07)
(0.168048 -0.00388714 2.23922e-05 0.000225341 4.85841e-06 4.0511e-07)
(0.216232 -0.0038187 6.1245e-05 0.000182701 3.87451e-06 4.34549e-07)
(0.228617 -0.00347313 2.95682e-05 0.000150346 3.72976e-06 3.73024e-07)
(0.273434 -0.00337443 7.01425e-05 0.000124285 2.88906e-06 4.00178e-07)
(0.284991 -0.00308488 4.17052e-05 0.000103274 2.66334e-06 3.44868e-07)
(0.326671 -0.00299072 8.25261e-05 8.69223e-05 1.95584e-06 3.67475e-07)
(0.337613 -0.0026594 5.73682e-05 6.99943e-05 1.75546e-06 3.17566e-07)
(0.376772 -0.00263038 9.75227e-05 6.28071e-05 1.17497e-06 3.34188e-07)
(0.386487 -0.00211643 7.46919e-05 4.29202e-05 9.61685e-07 2.90166e-07)
(0.423743 -0.00211279 0.000114681 4.6003e-05 6.15582e-07 3.00465e-07)
(0.431004 -0.00112399 8.95434e-05 1.6865e-05 -2.20408e-07 2.64011e-07)
(0.463251 -0.000602456 0.000133715 2.69344e-05 1.97035e-07 2.65761e-07)
(0.458144 0.000872782 9.4028e-05 8.35283e-05 -2.91854e-06 2.40083e-07)
(0.00846359 -0.000371727 3.68978e-05 0.000100045 -2.44593e-06 7.1107e-07)
(0.0101834 -0.00107069 2.15387e-05 0.00112049 -3.42396e-06 5.99291e-07)
(0.0370449 -0.00650146 7.6223e-05 0.0022539 -1.85166e-06 6.70397e-07)
(0.0449375 -0.00699105 4.31286e-05 0.00229626 6.50341e-06 5.75459e-07)
(0.0829953 -0.00929534 8.65682e-05 0.00199358 5.3242e-06 6.39067e-07)
(0.0864966 -0.0075214 5.43689e-05 0.0015037 8.26641e-06 5.46242e-07)
(0.118569 -0.00738365 9.98588e-05 0.00115029 5.83578e-06 6.00327e-07)
(0.117564 -0.00572461 7.33365e-05 0.000874392 6.59409e-06 5.11727e-07)
(0.144001 -0.00533873 0.000118486 0.000681366 4.38459e-06 5.61374e-07)
(0.142952 -0.00428752 9.61098e-05 0.000540189 4.42768e-06 4.80031e-07)
(0.166446 -0.00401378 0.000138675 0.000428852 2.62781e-06 5.24765e-07)
(0.167446 -0.00341148 0.000119454 0.000347895 2.44562e-06 4.5054e-07)
(0.188851 -0.00319081 0.000158297 0.000281444 1.12741e-06 4.88439e-07)
(0.192615 -0.00292078 0.000141736 0.000225069 8.11724e-07 4.20263e-07)
(0.211556 -0.00254352 0.000176258 0.000196537 3.25793e-07 4.50861e-07)
(0.219111 -0.00269238 0.000162676 0.000135045 -5.90453e-07 3.88484e-07)
(0.234135 -0.00155185 0.000192738 0.000157527 9.43948e-07 4.13477e-07)
(0.247749 -0.00234695 0.000182792 6.73672e-05 -2.1324e-06 3.56585e-07)
(0.257616 0.00135852 0.000212801 0.000184533 3.64076e-06 3.81613e-07)
(0.278783 0.00281555 0.00020083 0.00023744 -1.52014e-06 3.27685e-07)
(0.00961172 -0.00117519 3.44018e-05 0.000626345 -2.83892e-06 5.84902e-07)
(0.00977166 -0.00119336 1.59571e-05 0.00256784 2.35319e-06 4.93961e-07)
(0.0245611 -0.00430937 6.0909e-05 0.00351775 6.47378e-06 5.46466e-07)
(0.0231362 -0.000869491 5.16507e-05 0.00295255 1.44514e-05 4.77502e-07)
(0.0345512 -0.000173183 8.91178e-05 0.00199295 1.14938e-05 5.1716e-07)
(0.0413665 0.00220074 8.95938e-05 0.00115568 1.13832e-05 4.45969e-07)
(0.0554646 0.00246405 0.000119648 0.000657816 8.20957e-06 4.78133e-07)
(0.0731403 0.00293648 0.000123186 0.000375339 6.9908e-06 4.0968e-07)
(0.0899988 0.00263299 0.000145669 0.000221191 5.09386e-06 4.4004e-07)
(0.113672 0.002467 0.00014956 0.000136767 4.09169e-06 3.78087e-07)
(0.130782 0.00207499 0.000165538 8.61703e-05 3.00073e-06 4.05894e-07)
(0.156142 0.00181087 0.000168831 5.7648e-05 2.3661e-06 3.49994e-07)
(0.171973 0.00149866 0.000179262 3.95399e-05 1.73185e-06 3.72674e-07)
(0.196741 0.00128817 0.000181889 2.876e-05 1.48995e-06 3.22091e-07)
(0.210852 0.00111051 0.000188026 2.07654e-05 9.69445e-07 3.38668e-07)
(0.234762 0.000705957 0.000190677 1.95261e-05 9.61384e-07 2.94174e-07)
(0.246236 0.00109026 0.000193761 1.58142e-05 4.63599e-07 3.04657e-07)
(0.271798 -0.00119871 0.000197138 2.75735e-05 -6.14309e-07 2.67549e-07)
(0.275231 0.000818061 0.00019734 4.77526e-05 3.08456e-07 2.71971e-07)
(0.324936 -0.0090957 0.000208372 0.000676196 -8.13502e-06 2.43961e-07)
(0.00786438 -0.000256795 3.89655e-05 0.00112952 -9.03707e-06 7.70426e-07)
(0.0315309 0.00684992 -3.07584e-06 0.002139 -6.37649e-06 6.16868e-07)
(0.0771045 0.0109866 2.27837e-05 0.00206314 -5.8023e-06 6.99342e-07)
(0.18812 0.0128184 4.9915e-05 0.00102391 1.00205e-06 6.02565e-07)
(0.239399 0.0096473 5.65298e-05 0.000470392 -8.03092e-07 6.68447e-07)
(0.343679 0.00727467 9.32499e-05 0.000189486 1.75449e-07 5.72273e-07)
(0.35822 0.00493388 7.65957e-05 9.43373e-05 -1.40796e-06 6.27464e-07)
(0.433787 0.00397878 0.000109435 5.60839e-05 -1.1539e-06 5.35574e-07)
(0.428665 0.00311932 8.36413e-05 4.2528e-05 -1.99733e-06 5.86069e-07)
(0.486682 0.002991 0.000115034 3.70468e-05 -1.6394e-06 5.02367e-07)
(0.475489 0.00257907 8.66933e-05 3.32443e-05 -2.11353e-06 5.47597e-07)
(0.522628 0.00270305 0.000117949 3.3364e-05 -1.77885e-06 4.71695e-07)
(0.510399 0.00223751 8.90864e-05 2.87532e-05 -2.03589e-06 5.09636e-07)
(0.549657 0.00255931 0.000120682 3.41758e-05 -2.01269e-06 4.40438e-07)
(0.537919 0.00175488 9.20048e-05 2.29662e-05 -1.67102e-06 4.70689e-07)
(0.571445 0.00245913 0.000125045 4.24377e-05 -2.62149e-06 4.0807e-07)
(0.558663 0.000560477 9.53676e-05 1.23605e-05 4.70201e-08 4.31629e-07)
(0.588737 0.00138664 0.000135457 6.54283e-05 -3.86605e-06 3.75442e-07)
(0.562558 -0.00900216 9.36788e-05 0.000415849 4.74138e-06 3.95885e-07)
(0.548351 -0.015929 0.000164858 0.000953379 3.58441e-06 3.34864e-07)
(0.00742596 0.000221684 3.39069e-10 0.000224062 1.88919e-10 2.31516e-15)
(0.0143934 -0.00228962 -5.65359e-10 0.00106736 4.7338e-10 1.04132e-15)
(0.0362988 -0.00559468 -1.11487e-09 0.00160672 5.97766e-10 2.9466e-15)
(0.0972839 -0.0106858 -3.67531e-09 0.00156449 5.80857e-10 1.70854e-15)
(0.164406 -0.0126188 -4.19378e-09 0.0012126 4.76298e-10 3.5105e-15)
(0.278927 -0.013475 -5.51121e-09 0.000800025 3.4587e-10 2.65361e-15)
(0.364225 -0.0115234 -4.90511e-09 0.000454413 2.29559e-10 5.28015e-15)
(0.482667 -0.00911241 -5.23714e-09 0.000227028 1.5082e-10 4.79877e-15)
(0.54741 -0.00608703 -5.0508e-09 9.82559e-05 1.00846e-10 5.12888e-15)
(0.639711 -0.00373547 -5.21344e-09 3.83168e-05 7.15816e-11 4.73292e-15)
(0.676006 -0.00179324 -5.25119e-09 1.38511e-05 4.68044e-11 4.09139e-15)
(0.742929 -0.000741531 -5.19368e-09 6.8767e-06 3.14528e-11 4.29285e-15)
(0.761257 0.00013039 -5.15943e-09 5.32247e-06 1.16928e-11 4.17291e-15)
(0.811995 0.000190854 -4.88288e-09 5.53177e-06 9.07319e-12 4.87155e-15)
(0.822639 0.000665027 -4.84167e-09 5.0911e-06 -9.32608e-12 4.75402e-15)
(0.863605 0.000298562 -4.45878e-09 6.12894e-06 6.87609e-12 5.23872e-15)
(0.869822 0.000477261 -4.49546e-09 6.19618e-06 -2.01686e-11 5.20899e-15)
(0.909766 0.0017065 -3.55829e-09 1.10169e-05 -1.14571e-13 6.82569e-15)
(0.889951 -8.89854e-07 -3.08526e-09 2.3729e-05 -2.29655e-11 7.03721e-15)
(0.95725 0.0197761 -2.68397e-09 0.00048695 -2.13368e-10 5.77969e-15)
(0.00788501 0.000285907 3.77798e-10 0.000128235 1.34527e-10 1.96271e-15)
(0.00961921 0.000513804 7.65471e-10 0.000747099 3.89902e-10 9.41671e-16)
(0.0237774 0.00290671 1.9705e-09 0.00161402 5.95498e-10 2.3511e-15)
(0.0274627 0.00298988 1.6852e-09 0.00230803 6.9484e-10 1.50894e-15)
(0.0421298 0.0040205 2.84592e-09 0.00259482 6.73654e-10 2.941e-15)
(0.0445337 0.00216825 2.96789e-09 0.00241662 5.68691e-10 2.51471e-15)
(0.057321 0.00149933 4.31232e-09 0.00200494 4.49467e-10 4.62032e-15)
(0.0629699 -0.000367896 4.59122e-09 0.00149758 3.45051e-10 4.60543e-15)
(0.0777126 -0.000831319 5.17565e-09 0.00107654 2.78515e-10 4.87203e-15)
(0.08962 -0.00165712 5.30148e-09 0.000734022 2.27643e-10 4.77046e-15)
(0.107397 -0.00161707 5.51842e-09 0.000510482 1.99645e-10 4.15533e-15)
(0.124492 -0.0018331 5.67137e-09 0.000343785 1.70148e-10 4.4871e-15)
(0.144031 -0.00164305 5.84005e-09 0.00025035 1.55134e-10 4.28658e-15)
(0.164283 -0.00159862 6.06878e-09 0.000166273 1.35284e-10 4.98716e-15)
(0.184079 -0.00158825 6.21061e-09 0.0001393 1.17464e-10 4.84172e-15)
(0.206683 -0.000948897 6.43826e-09 7.93697e-05 1.16896e-10 5.3565e-15)
(0.224771 -0.00191363 6.5295e-09 9.7259e-05 7.67317e-11 5.29905e-15)
(0.251388 0.000983952 7.17911e-09 4.92788e-05 1.06818e-10 6.93989e-15)
(0.263887 -0.00208537 7.93871e-09 7.33829e-05 5.53421e-11 7.03932e-15)
(0.296913 0.00722983 7.95925e-09 0.000399812 2.68661e-11 5.80718e-15)
(0.00778138 0.000104826 2.82927e-10 2.38738e-05 5.98021e-11 1.51978e-15)
(0.00942796 0.000189305 6.76522e-10 0.000222774 2.12687e-10 8.54317e-16)
(0.0239096 0.00177765 1.93286e-09 0.000607806 3.64861e-10 2.0185e-15)
(0.0315998 0.00278682 2.15826e-09 0.00100879 4.59467e-10 1.4581e-15)
(0.0582297 0.00512249 3.75016e-09 0.00127352 4.73528e-10 2.46883e-15)
(0.0714161 0.00577707 4.52646e-09 0.00133683 4.28448e-10 2.30187e-15)
(0.104096 0.00692807 6.30408e-09 0.00123302 3.62783e-10 3.93469e-15)
(0.116929 0.00658496 7.13198e-09 0.00104847 3.04415e-10 4.21821e-15)
(0.148211 0.00664796 8.1374e-09 0.000848208 2.61413e-10 4.39811e-15)
(0.158259 0.00593694 8.70014e-09 0.000672849 2.29376e-10 4.57015e-15)
(0.185798 0.00561338 9.2703e-09 0.000531688 2.04938e-10 4.02387e-15)
(0.193994 0.0049798 9.74551e-09 0.000423561 1.85924e-10 4.46705e-15)
(0.218023 0.00457424 1.02074e-08 0.00034605 1.68743e-10 4.24098e-15)
(0.225888 0.00415434 1.07134e-08 0.000276178 1.61177e-10 4.96628e-15)
(0.246987 0.00363859 1.10957e-08 0.000246497 1.38872e-10 4.69924e-15)
(0.255565 0.00355808 1.15341e-08 0.000178183 1.48553e-10 5.21579e-15)
(0.274491 0.00260302 1.19133e-08 0.000201255 1.03506e-10 5.2658e-15)
(0.284193 0.00294557 1.26501e-08 9.53046e-05 1.37045e-10 7.03191e-15)