/*--------------------------------*- C++ -*----------------------------------*\
  =========                 |
  \\      /  F ield         | OpenFOAM: The Open Source CFD Toolbox
   \\    /   O peration     | Website:  https://openfoam.org
    \\  /    A nd           | Version:  7
     \\/     M anipulation  |
\*---------------------------------------------------------------------------*/
FoamFile
{
    version     2.0;
    format      ascii;
    class       volVectorField;
    location    "1.1925";
    object      U;
}
// * * * * * * * * * * * * * * * * * * * * * * * * * * * * * * * * * * * * * //

dimensions      [0 1 -1 0 0 0 0];

internalField   nonuniform List<vector> 
13200
(
(1.94457 0.0369064 -32.2509)
(1.08125 -0.369401 -32.3064)
(0.617433 -0.418587 -32.3095)
(0.592687 -0.430077 -32.3166)
(0.471879 -0.435961 -32.3155)
(0.50533 -0.437788 -32.3198)
(0.428268 -0.439722 -32.3181)
(0.465487 -0.439306 -32.3206)
(0.405998 -0.440048 -32.3186)
(0.440786 -0.439537 -32.32)
(0.39282 -0.440099 -32.3179)
(0.424019 -0.439488 -32.3187)
(0.38454 -0.439825 -32.3171)
(0.412215 -0.43927 -32.3178)
(0.379296 -0.439417 -32.3169)
(0.403538 -0.439331 -32.3175)
(0.376591 -0.437853 -32.3176)
(0.394618 -0.439768 -32.3174)
(0.37727 -0.414595 -32.32)
(0.318628 -0.424721 -32.3132)
(3.65823 0.928763 -32.377)
(2.8605 0.570298 -32.4431)
(1.98289 0.475815 -32.4553)
(1.86681 0.437242 -32.4705)
(1.56925 0.430982 -32.4733)
(1.61737 0.429167 -32.4824)
(1.42612 0.427326 -32.4824)
(1.49414 0.426936 -32.4865)
(1.34634 0.425517 -32.4841)
(1.41388 0.425501 -32.4849)
(1.29445 0.424569 -32.4814)
(1.35684 0.424519 -32.4808)
(1.25807 0.423735 -32.4777)
(1.31438 0.423703 -32.477)
(1.23135 0.423028 -32.4759)
(1.28181 0.423275 -32.4754)
(1.21232 0.421679 -32.4775)
(1.25772 0.423125 -32.4745)
(1.20277 0.409325 -32.4855)
(1.34689 0.414375 -32.4529)
(4.53506 0.489291 -32.4013)
(4.52256 -0.0492198 -32.4561)
(3.81798 -0.219517 -32.4643)
(3.66521 -0.326656 -32.4861)
(3.26652 -0.366484 -32.4921)
(3.26975 -0.383387 -32.5098)
(3.00523 -0.39291 -32.5129)
(3.05256 -0.397415 -32.5225)
(2.84983 -0.401268 -32.5197)
(2.90668 -0.403041 -32.5223)
(2.74252 -0.404863 -32.5162)
(2.79889 -0.405692 -32.5147)
(2.66269 -0.406746 -32.5081)
(2.71587 -0.407176 -32.5051)
(2.60103 -0.407759 -32.5014)
(2.64959 -0.408602 -32.4984)
(2.55349 -0.407371 -32.5019)
(2.58625 -0.410679 -32.4942)
(2.52642 -0.402138 -32.5156)
(2.45766 -0.415959 -32.4673)
(4.81395 0.873067 -32.4174)
(5.2428 0.654399 -32.4604)
(4.95457 0.579855 -32.4636)
(4.96807 0.496324 -32.4815)
(4.66898 0.461566 -32.4887)
(4.68707 0.442365 -32.5078)
(4.45058 0.431337 -32.517)
(4.48168 0.424607 -32.5304)
(4.28914 0.419943 -32.5326)
(4.32384 0.416291 -32.5364)
(4.16417 0.413722 -32.5325)
(4.19893 0.411406 -32.5296)
(4.06468 0.409857 -32.5225)
(4.09834 0.408335 -32.5149)
(3.98309 0.407287 -32.5087)
(4.01745 0.405816 -32.4995)
(3.91252 0.40553 -32.5016)
(3.96193 0.402334 -32.4889)
(3.84037 0.402756 -32.5092)
(3.98559 0.407179 -32.4646)
(4.86767 0.340066 -32.4183)
(5.44085 -0.0413637 -32.4552)
(5.42138 -0.147951 -32.4516)
(5.59104 -0.249486 -32.4665)
(5.42532 -0.294763 -32.4693)
(5.50676 -0.319024 -32.4879)
(5.34103 -0.334564 -32.4971)
(5.39671 -0.343924 -32.5144)
(5.24882 -0.351605 -32.5188)
(5.29164 -0.356939 -32.526)
(5.16255 -0.361503 -32.5234)
(5.19733 -0.3651 -32.5231)
(5.08539 -0.368317 -32.516)
(5.11476 -0.370807 -32.5087)
(5.01756 -0.373405 -32.499)
(5.04277 -0.3747 -32.487)
(4.95892 -0.377356 -32.4826)
(4.97559 -0.376872 -32.4694)
(4.90822 -0.385368 -32.4782)
(4.88821 -0.39647 -32.4436)
(4.85392 0.622714 -32.4253)
(5.39971 0.53775 -32.4609)
(5.50498 0.526625 -32.4559)
(5.77025 0.472542 -32.4683)
(5.70349 0.449054 -32.4694)
(5.85338 0.433916 -32.4856)
(5.76047 0.424207 -32.4946)
(5.86181 0.417634 -32.5123)
(5.76814 0.412602 -32.5184)
(5.84106 0.408407 -32.527)
(5.75313 0.405196 -32.526)
(5.80798 0.402235 -32.5273)
(5.72788 0.400039 -32.5221)
(5.77074 0.397979 -32.5163)
(5.69789 0.396462 -32.5062)
(5.73423 0.394526 -32.4931)
(5.66427 0.394677 -32.4837)
(5.70787 0.390591 -32.4694)
(5.62437 0.39615 -32.4691)
(5.71097 0.408715 -32.4363)
(4.84172 0.146582 -32.4254)
(5.34145 -0.128878 -32.4597)
(5.48492 -0.193376 -32.4527)
(5.78648 -0.26199 -32.4647)
(5.767 -0.292189 -32.4637)
(5.95704 -0.308532 -32.4792)
(5.90865 -0.319351 -32.4866)
(6.04575 -0.325732 -32.5044)
(5.9928 -0.331521 -32.5104)
(6.09621 -0.335552 -32.5198)
(6.04391 -0.339451 -32.5187)
(6.12369 -0.342512 -32.5212)
(6.07433 -0.345691 -32.5169)
(6.13671 -0.347907 -32.5132)
(6.09134 -0.351076 -32.5034)
(6.13969 -0.351604 -32.4911)
(6.10001 -0.356751 -32.4786)
(6.13351 -0.353014 -32.4638)
(6.10275 -0.369104 -32.4573)
(6.1063 -0.378674 -32.4247)
(4.83055 0.404208 -32.4299)
(5.28506 0.415837 -32.4644)
(5.44058 0.433722 -32.4572)
(5.75409 0.41144 -32.4691)
(5.7531 0.402845 -32.4676)
(5.96202 0.396401 -32.4828)
(5.93594 0.39242 -32.4896)
(6.09399 0.389635 -32.5073)
(6.06502 0.387553 -32.513)
(6.18933 0.385668 -32.5224)
(6.16099 0.384238 -32.5211)
(6.26049 0.382808 -32.5238)
(6.23397 0.381755 -32.52)
(6.31421 0.380669 -32.5176)
(6.28963 0.380048 -32.5086)
(6.35464 0.378574 -32.4971)
(6.33112 0.380078 -32.4836)
(6.38846 0.375847 -32.4683)
(6.3615 0.385039 -32.4588)
(6.42021 0.40165 -32.4253)
(4.82397 -0.0337218 -32.4312)
(5.25264 -0.219064 -32.464)
(5.41116 -0.26435 -32.4563)
(5.72583 -0.302462 -32.4678)
(5.7301 -0.319192 -32.4661)
(5.94522 -0.327658 -32.4812)
(5.92688 -0.333235 -32.4878)
(6.09365 -0.33618 -32.5053)
(6.07531 -0.339093 -32.5108)
(6.21028 -0.340886 -32.52)
(6.19449 -0.342898 -32.5185)
(6.30545 -0.344313 -32.5211)
(6.29255 -0.346123 -32.5173)
(6.38389 -0.347108 -32.5155)
(6.374 -0.349315 -32.5071)
(6.44742 -0.348741 -32.4961)
(6.4422 -0.353827 -32.4824)
(6.49668 -0.348393 -32.4669)
(6.50066 -0.365155 -32.4557)
(6.5236 -0.37607 -32.4221)
(4.8204 0.212875 -32.4343)
(5.23515 0.312172 -32.4663)
(5.39534 0.345012 -32.4585)
(5.71075 0.352915 -32.4698)
(5.7164 0.357097 -32.4679)
(5.9333 0.358205 -32.483)
(5.91726 0.359114 -32.4896)
(6.08697 0.359318 -32.507)
(6.07231 0.359834 -32.5124)
(6.21132 0.359903 -32.5214)
(6.20048 0.360277 -32.5198)
(6.31633 0.360356 -32.5223)
(6.3093 0.36079 -32.5185)
(6.40593 0.360801 -32.5169)
(6.40235 0.361646 -32.5088)
(6.48138 0.360707 -32.4979)
(6.48191 0.364151 -32.4843)
(6.54453 0.359599 -32.4686)
(6.55175 0.372856 -32.4569)
(6.5913 0.38869 -32.4231)
(4.8204 -0.212875 -32.4343)
(5.23515 -0.312172 -32.4663)
(5.39534 -0.345012 -32.4585)
(5.71075 -0.352915 -32.4698)
(5.71641 -0.357097 -32.4679)
(5.9333 -0.358203 -32.483)
(5.91726 -0.359114 -32.4896)
(6.08697 -0.359314 -32.507)
(6.07232 -0.359829 -32.5124)
(6.21132 -0.359893 -32.5214)
(6.20049 -0.360258 -32.5198)
(6.31633 -0.360329 -32.5223)
(6.30933 -0.360736 -32.5185)
(6.40593 -0.360706 -32.5169)
(6.40243 -0.361523 -32.5088)
(6.48138 -0.360347 -32.4979)
(6.48211 -0.363913 -32.4843)
(6.54455 -0.358453 -32.4686)
(6.55203 -0.372123 -32.457)
(6.59145 -0.386014 -32.423)
(4.82397 0.0337215 -32.4311)
(5.25264 0.219064 -32.464)
(5.41116 0.264349 -32.4563)
(5.72583 0.302462 -32.4678)
(5.7301 0.319191 -32.4661)
(5.94522 0.327659 -32.4812)
(5.92688 0.333236 -32.4878)
(6.09365 0.336185 -32.5053)
(6.07531 0.339098 -32.5108)
(6.21028 0.340896 -32.52)
(6.19448 0.342916 -32.5185)
(6.30546 0.344338 -32.5211)
(6.29254 0.346178 -32.5173)
(6.38392 0.347198 -32.5155)
(6.37399 0.349438 -32.5072)
(6.44747 0.34909 -32.4961)
(6.44222 0.354055 -32.4825)
(6.49681 0.349545 -32.4668)
(6.50102 0.365825 -32.4559)
(6.52418 0.378767 -32.4219)
(4.83055 -0.404209 -32.4299)
(5.28506 -0.415838 -32.4644)
(5.44058 -0.433723 -32.4571)
(5.75409 -0.41144 -32.4691)
(5.7531 -0.402845 -32.4676)
(5.96202 -0.3964 -32.4828)
(5.93594 -0.392419 -32.4896)
(6.094 -0.38963 -32.5073)
(6.06502 -0.387549 -32.513)
(6.18934 -0.385657 -32.5224)
(6.161 -0.384221 -32.5211)
(6.26051 -0.38278 -32.5239)
(6.234 -0.381703 -32.5199)
(6.31425 -0.380574 -32.5177)
(6.28975 -0.37993 -32.5086)
(6.35474 -0.37822 -32.4972)
(6.33153 -0.379848 -32.4836)
(6.38873 -0.374744 -32.4683)
(6.36247 -0.384319 -32.4589)
(6.42114 -0.399084 -32.4251)
(4.84172 -0.146582 -32.4254)
(5.34145 0.128878 -32.4597)
(5.48492 0.193376 -32.4527)
(5.78648 0.26199 -32.4647)
(5.767 0.292189 -32.4637)
(5.95705 0.308534 -32.4792)
(5.90865 0.319352 -32.4866)
(6.04576 0.325736 -32.5045)
(5.9928 0.331525 -32.5104)
(6.09623 0.335561 -32.5198)
(6.04391 0.339468 -32.5187)
(6.12373 0.342533 -32.5213)
(6.07432 0.345742 -32.5167)
(6.13682 0.347982 -32.5134)
(6.09137 0.351188 -32.5032)
(6.13994 0.351903 -32.4915)
(6.10025 0.35694 -32.4781)
(6.13412 0.354051 -32.4644)
(6.10394 0.369577 -32.4568)
(6.10826 0.381069 -32.4253)
(4.85392 -0.622714 -32.4253)
(5.39971 -0.53775 -32.4609)
(5.50498 -0.526626 -32.4559)
(5.77026 -0.472542 -32.4683)
(5.70349 -0.449055 -32.4694)
(5.85338 -0.433914 -32.4856)
(5.76047 -0.424206 -32.4945)
(5.86182 -0.41763 -32.5123)
(5.76814 -0.412598 -32.5184)
(5.84108 -0.408398 -32.5271)
(5.75313 -0.405181 -32.5259)
(5.80804 -0.40221 -32.5275)
(5.72792 -0.399994 -32.5218)
(5.77091 -0.397894 -32.5168)
(5.69804 -0.39636 -32.5055)
(5.73463 -0.394204 -32.4941)
(5.66488 -0.394491 -32.4822)
(5.70882 -0.389597 -32.4715)
(5.62625 -0.395565 -32.4665)
(5.71337 -0.406419 -32.4394)
(4.86767 -0.340066 -32.4183)
(5.44085 0.0413634 -32.4552)
(5.42138 0.14795 -32.4516)
(5.59104 0.249486 -32.4665)
(5.42532 0.294763 -32.4693)
(5.50676 0.319025 -32.4879)
(5.34103 0.334565 -32.4971)
(5.39672 0.343927 -32.5144)
(5.24882 0.351608 -32.5187)
(5.29167 0.356945 -32.5262)
(5.16256 0.361516 -32.5232)
(5.19742 0.365111 -32.5234)
(5.0854 0.368358 -32.5156)
(5.11501 0.37085 -32.5094)
(5.01765 0.373486 -32.4978)
(5.0434 0.374879 -32.4889)
(4.95938 0.377465 -32.4796)
(4.97713 0.377552 -32.4742)
(4.91028 0.385511 -32.4712)
(4.89269 0.397924 -32.4532)
(4.81395 -0.873068 -32.4174)
(5.2428 -0.6544 -32.4604)
(4.95457 -0.579856 -32.4636)
(4.96807 -0.496325 -32.4815)
(4.66898 -0.461566 -32.4887)
(4.68707 -0.442364 -32.5078)
(4.45058 -0.431337 -32.517)
(4.4817 -0.424605 -32.5305)
(4.28915 -0.41994 -32.5325)
(4.32388 -0.416285 -32.5365)
(4.1642 -0.413711 -32.5323)
(4.19903 -0.411388 -32.5299)
(4.06474 -0.409824 -32.522)
(4.09863 -0.408274 -32.5158)
(3.98332 -0.407207 -32.5074)
(4.01816 -0.405561 -32.5019)
(3.9134 -0.405397 -32.4974)
(3.96353 -0.401474 -32.4963)
(3.84322 -0.402476 -32.4961)
(3.98927 -0.405668 -32.4861)
(4.53506 -0.489291 -32.4013)
(4.52256 0.0492195 -32.4561)
(3.81798 0.219517 -32.4643)
(3.66521 0.326655 -32.4861)
(3.26651 0.366484 -32.4921)
(3.26975 0.383387 -32.5098)
(3.00524 0.39291 -32.5128)
(3.05258 0.397416 -32.5226)
(2.84984 0.401269 -32.5196)
(2.90671 0.403041 -32.5224)
(2.74254 0.404868 -32.5161)
(2.79898 0.405688 -32.515)
(2.66274 0.406755 -32.5077)
(2.71614 0.407162 -32.5057)
(2.6012 0.407787 -32.5004)
(2.65028 0.408595 -32.5002)
(2.55423 0.407402 -32.4985)
(2.58785 0.41073 -32.5009)
(2.52917 0.402105 -32.5013)
(2.46322 0.416571 -32.499)
(3.65823 -0.928763 -32.377)
(2.8605 -0.570298 -32.4431)
(1.98289 -0.475815 -32.4553)
(1.86681 -0.437242 -32.4705)
(1.56925 -0.430983 -32.4733)
(1.61737 -0.429167 -32.4824)
(1.42612 -0.427326 -32.4824)
(1.49414 -0.426935 -32.4865)
(1.34635 -0.425516 -32.4841)
(1.4139 -0.425498 -32.485)
(1.29447 -0.424565 -32.4813)
(1.3569 -0.424508 -32.4809)
(1.25812 -0.423719 -32.4775)
(1.31455 -0.423662 -32.4773)
(1.23151 -0.423002 -32.4754)
(1.28224 -0.423152 -32.4762)
(1.21298 -0.421635 -32.476)
(1.25851 -0.422752 -32.4776)
(1.20513 -0.409311 -32.4779)
(1.34704 -0.414282 -32.4763)
(1.94457 -0.0369066 -32.2509)
(1.08125 0.369401 -32.3064)
(0.617433 0.418587 -32.3095)
(0.592687 0.430076 -32.3166)
(0.47188 0.435961 -32.3155)
(0.50533 0.437787 -32.3198)
(0.428269 0.439722 -32.3181)
(0.46549 0.439305 -32.3206)
(0.406001 0.440048 -32.3186)
(0.440793 0.439535 -32.32)
(0.392827 0.440097 -32.3179)
(0.42404 0.439478 -32.3188)
(0.384555 0.439816 -32.3171)
(0.412281 0.439237 -32.3179)
(0.379347 0.439405 -32.3168)
(0.403698 0.439239 -32.3177)
(0.376814 0.437833 -32.3172)
(0.394938 0.43952 -32.3182)
(0.378191 0.414763 -32.3179)
(0.320131 0.424987 -32.319)
(3.71546 0.563701 0.0063631)
(2.0538 0.63095 0.00410301)
(1.38429 0.606406 0.00534498)
(1.07025 0.603038 0.00410851)
(1.01181 0.611206 0.00512324)
(0.896799 0.616822 0.00408283)
(0.891089 0.619519 0.00492225)
(0.81967 0.620847 0.00405369)
(0.822669 0.621448 0.00475912)
(0.774257 0.621998 0.00403426)
(0.778208 0.622018 0.0046248)
(0.744269 0.622111 0.00401905)
(0.747129 0.621937 0.00451134)
(0.722973 0.622207 0.00400578)
(0.724527 0.621901 0.00441463)
(0.706741 0.622687 0.00399334)
(0.708815 0.618952 0.00433316)
(0.695632 0.627473 0.00397966)
(0.690469 0.558948 0.00428069)
(0.978234 0.583781 0.0039462)
(4.78974 0.00016593 0.00405225)
(4.15361 -0.220653 0.002104)
(3.59257 -0.417328 0.00336759)
(3.05812 -0.520619 0.00214069)
(2.83487 -0.560182 0.00316369)
(2.57959 -0.57823 0.00212661)
(2.49916 -0.586603 0.00296974)
(2.34891 -0.591957 0.00210051)
(2.31028 -0.594989 0.00280756)
(2.20934 -0.597151 0.00208149)
(2.18511 -0.598367 0.0026731)
(2.11315 -0.599362 0.00206614)
(2.0947 -0.599958 0.00255922)
(2.04168 -0.60081 0.00205289)
(2.0259 -0.600977 0.00246222)
(1.98463 -0.602419 0.00204101)
(1.97395 -0.599062 0.00237872)
(1.92956 -0.606773 0.00202854)
(1.95526 -0.584848 0.00229217)
(1.67978 -0.596222 0.00198926)
(4.77197 0.531337 0.00523838)
(4.87241 0.780852 0.00333413)
(4.77176 0.744715 0.00451328)
(4.42677 0.683131 0.00326795)
(4.24676 0.649797 0.00428246)
(3.99345 0.63069 0.00324272)
(3.88868 0.619619 0.00408556)
(3.72005 0.613328 0.00321539)
(3.65482 0.608443 0.00392264)
(3.53606 0.605752 0.00319518)
(3.48948 0.602908 0.00378633)
(3.402 0.60149 0.00317785)
(3.36494 0.59949 0.00367026)
(3.29864 0.598541 0.00316279)
(3.2668 0.596838 0.00357236)
(3.21654 0.59626 0.00314979)
(3.18489 0.593256 0.00349201)
(3.16159 0.595621 0.00313622)
(3.09592 0.56147 0.00344988)
(3.24279 0.585004 0.00311828)
(4.63462 -0.0624397 0.00396039)
(4.87908 -0.176745 0.00226623)
(5.11329 -0.295363 0.0034334)
(5.03343 -0.390106 0.00220317)
(5.02247 -0.442779 0.00322429)
(4.87894 -0.477423 0.00219138)
(4.8315 -0.498596 0.00303746)
(4.70534 -0.513813 0.00216976)
(4.65873 -0.52445 0.00287825)
(4.55806 -0.532301 0.00215243)
(4.51697 -0.538451 0.00274445)
(4.43767 -0.54303 0.00213645)
(4.40136 -0.546981 0.00262855)
(4.33835 -0.549796 0.00212084)
(4.30592 -0.552324 0.0025292)
(4.25411 -0.554589 0.00210746)
(4.22787 -0.555804 0.00244416)
(4.17306 -0.558091 0.00209458)
(4.17458 -0.564265 0.00235284)
(4.00012 -0.574178 0.00206854)
(4.61912 0.410584 0.00486324)
(4.85901 0.658243 0.00323829)
(5.17276 0.680389 0.00434237)
(5.21784 0.656364 0.00309892)
(5.32607 0.637377 0.00410683)
(5.28804 0.622198 0.00306882)
(5.32202 0.611019 0.0039128)
(5.2648 0.602955 0.00304393)
(5.26797 0.595964 0.00375253)
(5.2107 0.591249 0.00302635)
(5.2005 0.586577 0.00361889)
(5.14936 0.583687 0.00301081)
(5.13305 0.580398 0.00350324)
(5.0893 0.578498 0.00299504)
(5.06944 0.576071 0.00340379)
(5.03498 0.574517 0.00298078)
(5.00789 0.572824 0.00332149)
(4.99764 0.570876 0.00296671)
(4.93843 0.558015 0.00327506)
(5.00674 0.586562 0.00295705)
(4.59537 -0.11087 0.0040479)
(4.77395 -0.239137 0.00252717)
(5.11341 -0.320968 0.00361009)
(5.21212 -0.385225 0.00237168)
(5.38759 -0.42101 0.00337914)
(5.41653 -0.446364 0.00234372)
(5.51193 -0.4622 0.00318837)
(5.51192 -0.47476 0.00232022)
(5.56407 -0.48397 0.00302884)
(5.55162 -0.491536 0.00230344)
(5.57886 -0.497782 0.0028961)
(5.56188 -0.502849 0.00228845)
(5.57435 -0.50751 0.0027808)
(5.55618 -0.510869 0.00227296)
(5.55979 -0.514699 0.00268138)
(5.54116 -0.516577 0.00225951)
(5.54168 -0.521751 0.00259585)
(5.51469 -0.519356 0.00224594)
(5.52574 -0.541724 0.00250596)
(5.42342 -0.549468 0.00222911)
(4.60835 0.326127 0.00461086)
(4.7734 0.542598 0.00314845)
(5.09234 0.581881 0.00419747)
(5.19276 0.581446 0.00295678)
(5.38331 0.577423 0.00395733)
(5.4362 0.573089 0.0029195)
(5.56074 0.569234 0.00376336)
(5.59257 0.566424 0.00289457)
(5.67642 0.563303 0.00360342)
(5.69564 0.561289 0.00287786)
(5.75247 0.558731 0.00347085)
(5.76395 0.557252 0.00286325)
(5.80239 0.55515 0.00335598)
(5.80883 0.553998 0.00284818)
(5.83406 0.55243 0.00325743)
(5.83862 0.551023 0.00283507)
(5.8513 0.551364 0.00317534)
(5.86408 0.54751 0.00282171)
(5.85527 0.54977 0.00312159)
(5.88351 0.578727 0.00281559)
(4.59765 -0.155008 0.00415035)
(4.73503 -0.302631 0.00273802)
(5.05441 -0.369521 0.00377283)
(5.15738 -0.415885 0.00253235)
(5.3561 -0.440535 0.00353055)
(5.41831 -0.457683 0.00249309)
(5.55515 -0.467678 0.00333669)
(5.60107 -0.475685 0.00246771)
(5.70099 -0.481187 0.00317615)
(5.73733 -0.485963 0.00245052)
(5.81203 -0.489781 0.00304316)
(5.84141 -0.493083 0.00243536)
(5.8981 -0.496178 0.00292771)
(5.92133 -0.498346 0.00241986)
(5.96513 -0.501434 0.00282883)
(5.98183 -0.501907 0.00240719)
(6.01863 -0.508153 0.00274462)
(6.02232 -0.502596 0.00239445)
(6.06403 -0.527941 0.00266216)
(6.00634 -0.539111 0.00238392)
(4.60331 0.258792 0.00441758)
(4.73735 0.449423 0.00303751)
(5.04732 0.498239 0.00405707)
(5.14645 0.514141 0.00281801)
(5.34304 0.520122 0.00381377)
(5.40525 0.523459 0.00277584)
(5.5443 0.524717 0.00361956)
(5.59424 0.525993 0.0027506)
(5.69987 0.526174 0.00345945)
(5.74326 0.526812 0.0027339)
(5.82619 0.526683 0.00332684)
(5.86453 0.527068 0.00271919)
(5.93096 0.526865 0.00321182)
(5.96403 0.526992 0.00270408)
(6.018 0.52711 0.00311359)
(6.04569 0.526322 0.00269171)
(6.08998 0.529283 0.00303155)
(6.11348 0.524336 0.00267919)
(6.15095 0.537338 0.00296907)
(6.15028 0.563096 0.00267366)
(4.59987 -0.20304 0.00426998)
(4.72556 -0.371131 0.00290469)
(5.03571 -0.428215 0.00391946)
(5.13498 -0.459201 0.00267961)
(5.33269 -0.474467 0.00367408)
(5.39549 -0.484733 0.00263596)
(5.53549 -0.490316 0.0034794)
(5.58657 -0.494895 0.00261025)
(5.69407 -0.497648 0.00331885)
(5.73976 -0.50027 0.00259315)
(5.82576 -0.502036 0.00318588)
(5.86744 -0.503797 0.00257806)
(5.93804 -0.505211 0.00307047)
(5.97497 -0.506243 0.00256267)
(6.03428 -0.507939 0.00297195)
(6.06487 -0.507432 0.00255041)
(6.11751 -0.512616 0.00288899)
(6.13686 -0.506283 0.00253832)
(6.19223 -0.527237 0.00281627)
(6.16399 -0.545154 0.00253132)
(4.59987 0.20304 0.00426998)
(4.72556 0.371131 0.00290469)
(5.03571 0.428215 0.00391946)
(5.13498 0.459202 0.00267961)
(5.33269 0.474467 0.00367408)
(5.39549 0.484735 0.00263596)
(5.53549 0.490318 0.0034794)
(5.58657 0.494901 0.00261024)
(5.69407 0.497654 0.00331885)
(5.73976 0.500282 0.00259315)
(5.82575 0.502054 0.00318587)
(5.86745 0.503834 0.00257803)
(5.93802 0.505261 0.00307045)
(5.97498 0.506365 0.00256258)
(6.03422 0.508072 0.00297192)
(6.06489 0.507801 0.00255015)
(6.11735 0.513015 0.00288896)
(6.13695 0.507301 0.00253759)
(6.19204 0.528472 0.00281651)
(6.16459 0.547839 0.00253018)
(4.60331 -0.258792 0.00441759)
(4.73735 -0.449422 0.00303751)
(5.04732 -0.498239 0.00405707)
(5.14645 -0.51414 0.00281801)
(5.34304 -0.520122 0.00381377)
(5.40525 -0.523457 0.00277584)
(5.5443 -0.524716 0.00361956)
(5.59424 -0.525987 0.00275061)
(5.69987 -0.526169 0.00345945)
(5.74326 -0.526799 0.00273391)
(5.8262 -0.526666 0.00332685)
(5.86453 -0.52703 0.00271921)
(5.93099 -0.526816 0.00321184)
(5.96404 -0.526867 0.00270416)
(6.01812 -0.526979 0.00311361)
(6.04571 -0.525946 0.00269196)
(6.09033 -0.528889 0.00303153)
(6.11354 -0.523337 0.00267985)
(6.15171 -0.536063 0.00296875)
(6.15019 -0.560601 0.00267437)
(4.59765 0.155008 0.00415036)
(4.73504 0.302632 0.00273802)
(5.05441 0.369521 0.00377283)
(5.15738 0.415886 0.00253235)
(5.3561 0.440535 0.00353055)
(5.41832 0.457685 0.00249309)
(5.55515 0.467679 0.00333669)
(5.60108 0.47569 0.00246771)
(5.70099 0.481192 0.00317615)
(5.73733 0.485975 0.00245052)
(5.81203 0.489797 0.00304316)
(5.84143 0.493117 0.00243534)
(5.8981 0.496226 0.00292769)
(5.92137 0.498455 0.00241978)
(5.96514 0.501561 0.00282879)
(5.98194 0.502239 0.00240697)
(6.0187 0.508524 0.00274455)
(6.02268 0.50354 0.0023938)
(6.06453 0.528953 0.00266241)
(6.00785 0.541794 0.00238267)
(4.60835 -0.326127 0.00461086)
(4.7734 -0.542598 0.00314845)
(5.09234 -0.581881 0.00419747)
(5.19276 -0.581445 0.00295678)
(5.38331 -0.577423 0.00395733)
(5.4362 -0.573087 0.0029195)
(5.56074 -0.569233 0.00376335)
(5.59257 -0.566419 0.00289457)
(5.67642 -0.563298 0.00360342)
(5.69566 -0.561276 0.00287787)
(5.75247 -0.558716 0.00347084)
(5.76398 -0.557214 0.00286328)
(5.80243 -0.555104 0.00335598)
(5.8089 -0.553873 0.00284827)
(5.83423 -0.552309 0.0032574)
(5.83879 -0.550651 0.00283532)
(5.85186 -0.550995 0.00317522)
(5.8645 -0.546559 0.0028223)
(5.85682 -0.548384 0.00312112)
(5.88435 -0.576454 0.00281584)
(4.59537 0.11087 0.0040479)
(4.77395 0.239137 0.00252717)
(5.11341 0.320968 0.00361009)
(5.21212 0.385226 0.00237168)
(5.38759 0.42101 0.00337913)
(5.41653 0.446365 0.00234373)
(5.51193 0.462201 0.00318837)
(5.51193 0.474764 0.00232022)
(5.56406 0.483975 0.00302883)
(5.55164 0.491545 0.00230344)
(5.57885 0.497797 0.00289609)
(5.56193 0.502875 0.00228844)
(5.57435 0.507553 0.00278077)
(5.55632 0.510952 0.00227293)
(5.55986 0.514808 0.00268129)
(5.54154 0.516829 0.00225939)
(5.542 0.522056 0.00259566)
(5.51579 0.520094 0.00224551)
(5.5271 0.54226 0.00250609)
(5.42688 0.551856 0.00222802)
(4.61912 -0.410584 0.00486324)
(4.85901 -0.658243 0.00323829)
(5.17276 -0.680389 0.00434237)
(5.21784 -0.656363 0.00309892)
(5.32607 -0.637376 0.00410683)
(5.28805 -0.622196 0.00306883)
(5.32202 -0.611017 0.0039128)
(5.26481 -0.60295 0.00304394)
(5.26797 -0.59596 0.00375252)
(5.21073 -0.591238 0.00302637)
(5.20051 -0.586564 0.00361887)
(5.14943 -0.583654 0.00301085)
(5.13309 -0.58036 0.0035032)
(5.0895 -0.578387 0.00299517)
(5.06964 -0.575973 0.00340365)
(5.03551 -0.57418 0.00298115)
(5.00864 -0.572527 0.00332109)
(4.99891 -0.570041 0.00296757)
(4.94077 -0.556783 0.003274)
(5.00961 -0.584615 0.00295747)
(4.63462 0.0624398 0.00396039)
(4.87908 0.176745 0.00226623)
(5.11329 0.295363 0.0034334)
(5.03343 0.390107 0.00220318)
(5.02247 0.442779 0.00322429)
(4.87894 0.477424 0.00219138)
(4.8315 0.498597 0.00303746)
(4.70535 0.513815 0.00216977)
(4.65873 0.524454 0.00287824)
(4.5581 0.532305 0.00215244)
(4.51697 0.538462 0.00274443)
(4.43777 0.543041 0.00213647)
(4.40139 0.547011 0.0026285)
(4.33863 0.549828 0.00212086)
(4.30606 0.552393 0.00252905)
(4.25488 0.554678 0.00210752)
(4.22837 0.555986 0.00244373)
(4.17536 0.55837 0.0020947)
(4.1762 0.56458 0.00235233)
(4.00756 0.575525 0.00206858)
(4.77197 -0.531337 0.00523838)
(4.87241 -0.780852 0.00333413)
(4.77176 -0.744715 0.00451328)
(4.42677 -0.68313 0.00326795)
(4.24676 -0.649796 0.00428246)
(3.99345 -0.630689 0.00324273)
(3.88868 -0.619618 0.00408556)
(3.72007 -0.613325 0.00321541)
(3.65483 -0.60844 0.00392263)
(3.53609 -0.605744 0.00319521)
(3.4895 -0.602898 0.0037863)
(3.40211 -0.601468 0.00317791)
(3.36501 -0.599462 0.00367019)
(3.29893 -0.598459 0.00316295)
(3.26707 -0.596764 0.00357216)
(3.21731 -0.59599 0.00315024)
(3.18577 -0.593033 0.00349134)
(3.1636 -0.594935 0.00313756)
(3.09828 -0.560994 0.00344747)
(3.24808 -0.584084 0.00312109)
(4.78974 -0.000165906 0.00405226)
(4.15361 0.220653 0.002104)
(3.59257 0.417328 0.00336759)
(3.05812 0.520619 0.00214069)
(2.83487 0.560182 0.00316369)
(2.57959 0.57823 0.00212662)
(2.49916 0.586603 0.00296974)
(2.34892 0.591956 0.00210052)
(2.31028 0.594991 0.00280755)
(2.20937 0.59715 0.0020815)
(2.18513 0.598368 0.00267309)
(2.11324 0.599353 0.00206615)
(2.09477 0.599963 0.00255918)
(2.04193 0.600786 0.00205291)
(2.02612 0.600984 0.00246212)
(1.98529 0.602323 0.00204107)
(1.97467 0.599086 0.00237841)
(1.93163 0.60652 0.00202871)
(1.95663 0.585073 0.00229139)
(1.69036 0.596832 0.00199082)
(3.71546 -0.563701 0.0063631)
(2.0538 -0.630951 0.00410302)
(1.38429 -0.606406 0.00534499)
(1.07025 -0.603038 0.00410852)
(1.01181 -0.611206 0.00512324)
(0.8968 -0.616822 0.00408284)
(0.891091 -0.619519 0.00492225)
(0.819674 -0.620845 0.0040537)
(0.822676 -0.621447 0.00475912)
(0.77427 -0.621994 0.00403428)
(0.778226 -0.622015 0.00462479)
(0.74431 -0.622097 0.00401908)
(0.747179 -0.621931 0.00451132)
(0.723088 -0.622163 0.00400586)
(0.724693 -0.621879 0.00441454)
(0.707031 -0.622531 0.00399356)
(0.709335 -0.618905 0.00433285)
(0.696361 -0.627033 0.00398026)
(0.692052 -0.559517 0.00427946)
(0.97718 -0.584386 0.00394928)
(4.00131 0.159238 0.00114285)
(2.97547 0.12249 0.00138978)
(2.11478 0.0735724 0.000875219)
(1.65525 0.0383635 0.00123467)
(1.41982 0.025386 0.000917721)
(1.32763 0.025673 0.00112584)
(1.2686 0.0303979 0.000906254)
(1.2376 0.0356706 0.0010336)
(1.20538 0.0397973 0.000899179)
(1.18189 0.0429349 0.000972447)
(1.15916 0.0450467 0.000898568)
(1.14006 0.0466259 0.000932818)
(1.1246 0.0476216 0.000901794)
(1.10986 0.0485379 0.000908761)
(1.09879 0.0488412 0.000908864)
(1.08938 0.0498625 0.000896466)
(1.07834 0.0490178 0.000920945)
(1.07737 0.0516909 0.000892016)
(1.05867 0.0458076 0.000934041)
(1.08988 0.0498219 0.000919536)
(4.62028 0.179902 0.00296289)
(4.62444 0.19496 0.00331998)
(4.34549 0.148354 0.00278317)
(4.05242 0.0799872 0.00312771)
(3.78357 0.0310896 0.00280385)
(3.58284 0.00181038 0.00301147)
(3.41482 -0.0135173 0.00279166)
(3.28455 -0.0229833 0.00291971)
(3.1724 -0.028613 0.00278453)
(3.08022 -0.0331619 0.00285737)
(3.00174 -0.0361757 0.00278232)
(2.93396 -0.0388795 0.00281588)
(2.87768 -0.04072 0.00278433)
(2.82678 -0.0423186 0.00279084)
(2.78414 -0.0435851 0.00279161)
(2.74667 -0.0445595 0.00277849)
(2.71052 -0.0451882 0.0028068)
(2.68496 -0.0464324 0.00277267)
(2.65153 -0.0463238 0.00284578)
(2.63284 -0.047676 0.00281753)
(4.56254 0.125007 0.00140329)
(4.79953 0.174804 0.00166769)
(4.90344 0.174518 0.00114313)
(4.92551 0.138299 0.00148902)
(4.87241 0.109243 0.00117427)
(4.80558 0.0930697 0.00138598)
(4.72345 0.0855227 0.00116948)
(4.64482 0.0816818 0.00129755)
(4.56426 0.0791221 0.00116379)
(4.48782 0.0768196 0.00123653)
(4.41504 0.0746975 0.00116232)
(4.34602 0.0727489 0.00119532)
(4.28307 0.0708436 0.00116366)
(4.2242 0.0696479 0.00116964)
(4.16964 0.0675879 0.00116959)
(4.12377 0.0677313 0.00115687)
(4.07135 0.0645997 0.00118066)
(4.04529 0.0672793 0.00115406)
(3.981 0.0595381 0.00117888)
(3.98891 0.0684431 0.00118036)
(4.54429 0.121713 0.00270447)
(4.73416 0.141851 0.00309318)
(4.90341 0.129758 0.00257741)
(5.03515 0.0885964 0.00291541)
(5.1 0.0537999 0.0025888)
(5.14239 0.0300185 0.00279698)
(5.15908 0.0159829 0.0025776)
(5.16828 0.00659193 0.00270573)
(5.16564 4.98186e-05 0.00257091)
(5.15735 -0.00557213 0.00264415)
(5.14321 -0.0102173 0.00256946)
(5.1247 -0.0143643 0.0026027)
(5.10364 -0.0181392 0.00257004)
(5.08058 -0.0208856 0.00257523)
(5.05528 -0.0244757 0.00257404)
(5.03349 -0.0255108 0.00256035)
(5.003 -0.0296396 0.00258635)
(4.99049 -0.0285449 0.0025558)
(4.94574 -0.0344509 0.00262908)
(4.95385 -0.0289846 0.00260354)
(4.54725 0.0844038 0.00159681)
(4.72105 0.121038 0.0019072)
(4.87731 0.129536 0.00138743)
(5.0182 0.111393 0.00171611)
(5.10761 0.096626 0.00139287)
(5.18285 0.0889571 0.00160289)
(5.23664 0.0864806 0.00138566)
(5.28642 0.0860814 0.0015137)
(5.3261 0.0860689 0.00137997)
(5.36149 0.0857942 0.00145308)
(5.3905 0.0851036 0.00137936)
(5.41483 0.0843273 0.00141271)
(5.43423 0.0829778 0.00138088)
(5.45047 0.0825347 0.00138651)
(5.46135 0.080216 0.00138571)
(5.47372 0.0813515 0.0013727)
(5.47615 0.0767173 0.00139485)
(5.49058 0.0819165 0.00136954)
(5.48026 0.0708534 0.00138797)
(5.5022 0.0879077 0.0013991)
(4.54268 0.079822 0.00247812)
(4.69523 0.0909596 0.00287525)
(4.84712 0.0831198 0.00236988)
(4.9857 0.0540588 0.00270443)
(5.07895 0.0295189 0.00237791)
(5.16221 0.0123167 0.00258811)
(5.22693 0.00193598 0.00236967)
(5.29011 -0.0047962 0.00249831)
(5.34536 -0.00940272 0.00236388)
(5.39818 -0.0130485 0.00243739)
(5.44645 -0.0161642 0.00236317)
(5.4908 -0.0186313 0.00239678)
(5.53208 -0.0213202 0.00236454)
(5.56885 -0.0226164 0.00237004)
(5.60407 -0.0256761 0.0023691)
(5.63441 -0.0252005 0.00235567)
(5.66609 -0.0296692 0.00238102)
(5.6901 -0.0263233 0.00235278)
(5.72094 -0.0334964 0.00242141)
(5.73276 -0.0247873 0.00239628)
(4.54321 0.0499666 0.00177013)
(4.691 0.0760265 0.00211784)
(4.83685 0.0859357 0.00160734)
(4.97251 0.0782536 0.00192975)
(5.06501 0.0721062 0.00160189)
(5.14851 0.0696805 0.00181061)
(5.21425 0.0700807 0.00159197)
(5.2796 0.0714788 0.00171942)
(5.33839 0.0728372 0.00158493)
(5.39598 0.0738593 0.00165771)
(5.45069 0.0743539 0.00158356)
(5.50209 0.0747703 0.00161665)
(5.55245 0.0744743 0.00158465)
(5.59757 0.0750127 0.00159023)
(5.64447 0.0736738 0.00158978)
(5.683 0.0754611 0.00157697)
(5.72994 0.0719045 0.00159945)
(5.75931 0.0773362 0.00157524)
(5.81301 0.0683545 0.00159773)
(5.8229 0.0846843 0.00160805)
(4.54055 0.04417 0.00228087)
(4.67654 0.0464854 0.00267707)
(4.82087 0.0395671 0.00217572)
(4.95514 0.0202511 0.00250532)
(5.04824 0.00375783 0.00217779)
(5.13274 -0.00840792 0.0023884)
(5.19975 -0.016307 0.00217019)
(5.26631 -0.0216175 0.00229893)
(5.32673 -0.0253539 0.00216468)
(5.386 -0.0281446 0.00223818)
(5.44331 -0.030498 0.00216405)
(5.49704 -0.0321744 0.00219747)
(5.55144 -0.034062 0.00216539)
(5.59918 -0.0347818 0.00217099)
(5.65221 -0.0368625 0.00217069)
(5.69255 -0.0363112 0.00215775)
(5.74902 -0.0392579 0.00218287)
(5.77713 -0.0369276 0.00215677)
(5.8464 -0.0408941 0.00221552)
(5.84916 -0.0367863 0.00219738)
(4.54073 0.0185055 0.00193655)
(4.67442 0.0347046 0.00231007)
(4.81608 0.0439607 0.001806)
(4.94913 0.0455335 0.00212792)
(5.04183 0.0470773 0.00179865)
(5.12596 0.0494989 0.00200757)
(5.19254 0.0524046 0.00178867)
(5.25868 0.0551248 0.0019163)
(5.31895 0.0573305 0.00178159)
(5.37821 0.0590152 0.00185436)
(5.43602 0.0601996 0.00177995)
(5.49025 0.0611417 0.00181283)
(5.54595 0.0616254 0.00178061)
(5.59457 0.0623761 0.00178608)
(5.64985 0.0621704 0.00178581)
(5.69118 0.0634471 0.00177317)
(5.75108 0.0619417 0.00179636)
(5.77988 0.065333 0.00177273)
(5.8547 0.0605975 0.00180509)
(5.85802 0.0711762 0.00180803)
(4.53989 0.0121597 0.00210334)
(4.66977 0.00537981 0.00249166)
(4.81092 -0.00245583 0.00199062)
(4.94349 -0.0128208 0.00231568)
(5.03638 -0.0217856 0.00198699)
(5.12077 -0.0290589 0.00219694)
(5.18762 -0.0344807 0.00197844)
(5.25391 -0.0384962 0.00210672)
(5.31436 -0.0414828 0.00197228)