/*--------------------------------*- C++ -*----------------------------------*\
  =========                 |
  \\      /  F ield         | OpenFOAM: The Open Source CFD Toolbox
   \\    /   O peration     | Website:  https://openfoam.org
    \\  /    A nd           | Version:  7
     \\/     M anipulation  |
\*---------------------------------------------------------------------------*/
FoamFile
{
    version     2.0;
    format      ascii;
    class       surfaceScalarField;
    location    "0.46";
    object      phi_0;
}
// * * * * * * * * * * * * * * * * * * * * * * * * * * * * * * * * * * * * * //

dimensions      [1 0 -1 0 0 0 0];

internalField   nonuniform List<scalar> 
11256
(
0.00281132
0.00404991
0.00163559
0.00113844
0.00135672
0.000252713
0.0011985
0.000135311
0.00108953
8.36547e-05
0.00102008
4.12946e-05
0.000968503
2.22657e-05
0.000919325
2.07511e-05
0.000870617
2.29695e-05
0.000825344
2.36203e-05
0.000784648
2.39977e-05
0.000747801
2.53937e-05
0.000713801
2.75857e-05
0.00068196
2.9949e-05
0.000651902
3.20358e-05
0.00062347
3.3588e-05
0.0005965
3.46048e-05
0.000570561
3.54046e-05
0.000544959
3.63355e-05
0.000519127
3.74085e-05
0.000492996
3.82888e-05
0.00046699
3.86268e-05
0.000441743
3.83173e-05
0.000417791
3.75011e-05
0.000395378
3.64742e-05
0.000374434
3.55274e-05
0.000354669
3.4863e-05
0.000335685
3.45776e-05
0.000317102
3.46574e-05
0.000298623
3.50231e-05
0.000280065
3.55699e-05
0.00026135
3.61942e-05
0.000242474
3.68255e-05
0.000223477
3.74168e-05
0.000204414
3.79521e-05
0.000185328
3.84396e-05
0.00016625
3.88934e-05
0.000147192
3.93275e-05
0.00012816
3.9752e-05
0.000109153
4.01708e-05
9.0166e-05
4.05879e-05
7.11967e-05
4.10026e-05
5.22448e-05
4.1411e-05
3.33117e-05
4.18121e-05
1.44012e-05
4.22024e-05
-4.48216e-06
4.25815e-05
-2.3334e-05
4.29497e-05
-4.21492e-05
4.33057e-05
-6.09211e-05
4.36482e-05
-7.96442e-05
4.39779e-05
-9.83124e-05
4.42945e-05
-0.00011692
4.45987e-05
-0.000135462
4.48895e-05
-0.000153931
4.51664e-05
-0.000172321
4.54299e-05
-0.000190626
4.56803e-05
-0.00020884
4.59176e-05
-0.000226958
4.61414e-05
-0.000244971
4.63507e-05
-0.000262875
4.65464e-05
-0.000280663
4.67304e-05
-0.00029833
4.69012e-05
-0.000315868
4.70567e-05
-0.000333272
4.71992e-05
-0.000350536
4.73302e-05
-0.000367654
4.74487e-05
-0.00038462
4.75537e-05
-0.000401429
4.7646e-05
-0.000418074
4.77258e-05
-0.000434549
4.77937e-05
-0.00045085
4.78498e-05
-0.000466971
4.78946e-05
-0.000482906
4.79275e-05
-0.00049865
4.79489e-05
-0.000514198
4.79592e-05
-0.000529544
4.79586e-05
-0.000544685
4.79488e-05
-0.000559616
4.79299e-05
-0.000574331
4.78987e-05
-0.000588825
4.78586e-05
-0.000603096
4.78101e-05
-0.000617139
4.77539e-05
-0.00063095
4.76884e-05
-0.000644527
4.76158e-05
-0.000657864
4.75345e-05
-0.000670956
4.74437e-05
-0.000683803
4.73494e-05
-0.000696402
4.72479e-05
-0.000708747
4.71389e-05
-0.000720836
4.70222e-05
-0.00073267
4.69048e-05
-0.000744244
4.6781e-05
-0.000755555
4.66494e-05
-0.000766602
4.65166e-05
-0.000777384
4.63778e-05
-0.000787896
4.62353e-05
-0.000798141
4.60906e-05
-0.000808118
4.59455e-05
-0.000817823
4.5794e-05
-0.000827253
4.56395e-05
-0.000836413
4.54864e-05
-0.000845299
4.53298e-05
-0.000853914
4.51745e-05
-0.000862254
4.50156e-05
-0.000870319
4.48547e-05
-0.000878112
4.46967e-05
-0.000885632
4.4538e-05
-0.000892881
4.43808e-05
-0.000899859
4.42228e-05
-0.000906566
4.40662e-05
-0.000913005
4.39113e-05
-0.000919176
4.37567e-05
-0.000925081
4.36053e-05
-0.000930722
4.3456e-05
-0.000936099
4.3307e-05
-0.000941214
4.31613e-05
-0.000946073
4.30206e-05
-0.000950675
4.28818e-05
-0.000955023
4.2745e-05
-0.00095912
4.26124e-05
-0.000962969
4.24839e-05
-0.000966571
4.23576e-05
-0.000969929
4.22354e-05
-0.000973047
4.21187e-05
-0.00097593
4.20061e-05
-0.000978579
4.18971e-05
-0.000980996
4.17921e-05
-0.000983187
4.1692e-05
-0.000985154
4.1597e-05
-0.000986902
4.15068e-05
-0.000988433
4.14212e-05
-0.000989752
4.13406e-05
-0.000990862
4.12652e-05
-0.000991768
4.1195e-05
-0.000992474
4.11297e-05
-0.000992982
4.10694e-05
-0.000993298
4.10143e-05
-0.000993425
4.09643e-05
-0.000993367
4.09199e-05
-0.00099313
4.08807e-05
-0.000992715
4.08462e-05
-0.000992129
4.08171e-05
-0.000991375
4.07937e-05
-0.000990458
4.07751e-05
-0.00098938
4.07614e-05
-0.000988148
4.07531e-05
-0.000986766
4.07501e-05
-0.000985237
4.07521e-05
-0.000983566
4.07588e-05
-0.000981756
4.07698e-05
-0.000979813
4.07861e-05
-0.00097774
4.08074e-05
-0.000975542
4.08327e-05
-0.000973222
4.0863e-05
-0.000970787
4.08986e-05
-0.000968238
4.09376e-05
-0.000965579
4.09805e-05
-0.000962816
4.10288e-05
-0.000959954
4.10817e-05
-0.000956995
4.11388e-05
-0.000953944
4.11995e-05
-0.000950803
4.12633e-05
-0.000947578
4.13311e-05
-0.000944273
4.14038e-05
-0.000940892
4.148e-05
-0.000937438
4.15591e-05
-0.000933915
4.16422e-05
-0.000930326
4.17289e-05
-0.000926676
4.18184e-05
-0.000922968
4.1911e-05
-0.000919206
4.20078e-05
-0.000915394
4.21082e-05
-0.000911536
4.22107e-05
-0.000907633
4.23154e-05
-0.000903691
4.24232e-05
-0.000899712
4.2534e-05
-0.0008957
4.26477e-05
-0.000891659
4.27636e-05
-0.000887591
4.2882e-05
-0.0008835
4.30028e-05
-0.000879389
4.3126e-05
-0.000875262
4.32515e-05
-0.000871121
4.33788e-05
-0.00086697
4.35086e-05
-0.000862813
4.36408e-05
-0.00085865
4.37734e-05
-0.000854485
4.39081e-05
-0.000850323
4.40459e-05
-0.000846165
4.41849e-05
-0.000842013
4.43246e-05
-0.000837872
4.44662e-05
-0.000833744
4.46103e-05
-0.000829632
4.47557e-05
-0.000825537
4.49015e-05
-0.000821463
4.50483e-05
-0.000817411
4.51969e-05
-0.000813386
4.53468e-05
-0.000809389
4.54978e-05
-0.000805422
4.565e-05
-0.000801489
4.58032e-05
-0.000797591
4.5957e-05
-0.00079373
4.61113e-05
-0.000789909
4.6267e-05
-0.000786131
4.64237e-05
-0.000782396
4.65807e-05
-0.000778707
4.67382e-05
-0.000775066
4.68966e-05
-0.000771475
4.70554e-05
-0.000767936
4.72151e-05
-0.000764452
4.73755e-05
-0.000761023
4.75362e-05
-0.000757652
4.76969e-05
-0.00075434
4.78581e-05
-0.000751088
4.80188e-05
-0.000747899
4.8181e-05
-0.000744774
4.83431e-05
-0.000741715
4.85062e-05
-0.000738723
4.86677e-05
-0.000735799
4.88304e-05
-0.000732945
4.89926e-05
-0.000730162
4.9156e-05
-0.000727451
4.93175e-05
-0.000724816
4.94837e-05
-0.000722248
4.96379e-05
-0.000719771
4.98163e-05
-0.000717348
4.99554e-05
-0.000715027
5.01418e-05
-0.000712773
5.02944e-05
-0.000710578
5.04274e-05
-0.00070852
5.06663e-05
-0.000706454
5.0691e-05
-0.000704505
5.09867e-05
-0.000702741
5.10546e-05
-0.000700822
5.13505e-05
-0.000699278
5.1138e-05
-0.000697255
5.19584e-05
-0.00069655
5.15806e-05
-0.000702889
5.53857e-05
-0.000778059
9.45124e-05
0.000146723
0.00543629
0.00547428
0.00422244
0.00231161
0.00368858
0.00075604
0.00331325
0.000485422
0.00304138
0.000329657
0.00285921
0.000194452
0.00272568
0.00012398
0.00260754
0.000105844
0.00249499
0.000103087
0.00239041
9.80609e-05
0.00229606
9.17394e-05
0.00221142
8.76876e-05
0.00213485
8.62671e-05
0.0020649
8.62359e-05
0.00200055
8.6423e-05
0.00194106
8.62201e-05
0.00188564
8.57021e-05
0.00183318
8.54525e-05
0.00178255
8.58297e-05
0.00173302
8.63704e-05
0.00168464
8.60618e-05
0.001638
8.42111e-05
0.00159381
8.08688e-05
0.00155249
7.66259e-05
0.0015141
7.2288e-05
0.00147831
6.85153e-05
0.00144455
6.57026e-05
0.00141218
6.39829e-05
0.00138061
6.32535e-05
0.00134936
6.32828e-05
0.00131813
6.37971e-05
0.00128679
6.4538e-05
0.0012553
6.53191e-05
0.0012237
6.60224e-05
0.00119207
6.6607e-05
0.00116046
6.70875e-05
0.00112894
6.7497e-05
0.0010975
6.78709e-05
0.00106618
6.82344e-05
0.00103496
6.86031e-05
0.00100383
6.89846e-05
0.000972802
6.93773e-05
0.000941854
6.97763e-05
0.000910991
7.01764e-05
0.000880214
7.05712e-05
0.000849523
7.09599e-05
0.000818922
7.13416e-05
0.000788414
7.17139e-05
0.000758003
7.20759e-05
0.000727694
7.24269e-05
0.000697491
7.27672e-05
0.000667396
7.30978e-05
0.000637416
7.34171e-05
0.000607555
7.37243e-05
0.000577816
7.40205e-05
0.000548204
7.43063e-05
0.000518723
7.45816e-05
0.000489376
7.48451e-05
0.000460171
7.50954e-05
0.000431109
7.53347e-05
0.000402194
7.55665e-05
0.000373432
7.57854e-05
0.000344827
7.59897e-05
0.000316383
7.61841e-05
0.000288101
7.63708e-05
0.000259988
7.65464e-05
0.000232046
7.6709e-05
0.000204281
7.68607e-05
0.000176695
7.70015e-05
0.000149294
7.7132e-05
0.000122079
7.72529e-05
9.50544e-05
7.73639e-05
6.82248e-05
7.74629e-05
4.15936e-05
7.75517e-05
1.51647e-05
7.76299e-05
-1.10588e-05
7.76985e-05
-3.70747e-05
7.77599e-05
-6.28791e-05
7.78112e-05
-8.84675e-05
7.78505e-05
-0.000113838
7.78816e-05
-0.000138987
7.79055e-05
-0.000163914
7.7923e-05
-0.000188615
7.79301e-05
-0.000213085
7.79283e-05
-0.000237321
7.7917e-05
-0.000261323
7.78982e-05
-0.000285087
7.78745e-05
-0.00030861
7.7843e-05
-0.00033189
7.78018e-05
-0.000354923
7.77514e-05
-0.000377708
7.77011e-05
-0.000400245
7.76444e-05
-0.000422531
7.75783e-05
-0.000444561
7.75074e-05
-0.000466334
7.74288e-05
-0.000487849
7.73452e-05
-0.000509103
7.72577e-05
-0.000530094
7.71678e-05
-0.000550822
7.70708e-05
-0.000571286
7.69682e-05
-0.000591482
7.68641e-05
-0.00061141
7.67546e-05
-0.000631067
7.6643e-05
-0.000650452
7.65251e-05
-0.000669563
7.64027e-05
-0.000688401
7.62811e-05
-0.000706963
7.61563e-05
-0.00072525
7.60305e-05
-0.00074326
7.59012e-05
-0.000760993
7.57703e-05
-0.000778447
7.56378e-05
-0.000795621
7.55023e-05
-0.000812516
7.53675e-05
-0.00082913
7.52312e-05
-0.000845462
7.50917e-05
-0.000861513
7.49539e-05
-0.000877285
7.48194e-05
-0.000892776
7.46821e-05
-0.000907984
7.45424e-05
-0.00092291
7.44048e-05
-0.000937554
7.42685e-05
-0.000951917
7.41303e-05
-0.000965999
7.39941e-05
-0.000979802
7.38622e-05
-0.000993325
7.37302e-05
-0.00100657
7.35978e-05
-0.00101953
7.34662e-05
-0.00103222
7.33372e-05
-0.00104463
7.32114e-05
-0.00105676
7.30876e-05
-0.00106861
7.29653e-05
-0.0010802
7.28455e-05
-0.00109151
7.27284e-05
-0.00110254
7.26141e-05
-0.00111331
7.25018e-05
-0.00112381
7.23922e-05
-0.00113404
7.22856e-05
-0.00114401
7.2182e-05
-0.00115371
7.20819e-05
-0.00116314
7.19849e-05
-0.00117232
7.18902e-05
-0.00118124
7.17992e-05
-0.0011899
7.17127e-05
-0.00119831
7.1629e-05
-0.00120646
7.15483e-05
-0.00121436
7.14721e-05
-0.00122202
7.13997e-05
-0.00122943
7.13303e-05
-0.0012366
7.12639e-05
-0.00124352
7.12007e-05
-0.0012502
7.11422e-05
-0.00125665
7.10883e-05
-0.00126287
7.10371e-05
-0.00126886
7.09899e-05
-0.00127461
7.09474e-05
-0.00128015
7.0907e-05
-0.00128545
7.08699e-05
-0.00129054
7.08391e-05
-0.00129542
7.08126e-05
-0.00130008
7.07891e-05
-0.00130453
7.07683e-05
-0.00130877
7.07501e-05
-0.0013128
7.0737e-05
-0.00131664
7.07297e-05
-0.00132028
7.07252e-05
-0.00132372
7.07229e-05
-0.00132697
7.07254e-05
-0.00133003
7.0732e-05
-0.0013329
7.07413e-05
-0.00133559
7.07547e-05
-0.00133811
7.07735e-05
-0.00134045
7.07964e-05
-0.00134261
7.08208e-05
-0.00134461
7.08476e-05
-0.00134644
7.08788e-05
-0.00134811
7.09146e-05
-0.00134962
7.09543e-05
-0.00135097
7.09966e-05
-0.00135218
7.10424e-05
-0.00135323
7.10917e-05
-0.00135414
7.11447e-05
-0.0013549
7.12009e-05
-0.00135553
7.12599e-05
-0.00135602
7.13231e-05
-0.00135638
7.13901e-05
-0.00135661
7.14571e-05
-0.00135671
7.15284e-05
-0.00135669
7.16055e-05
-0.00135656
7.1684e-05
-0.0013563
7.17641e-05
-0.00135594
7.18484e-05
-0.00135546
7.19373e-05
-0.00135488
7.20282e-05
-0.00135419
7.212e-05
-0.00135341
7.22146e-05
-0.00135252
7.23132e-05
-0.00135154
7.24149e-05
-0.00135047
7.25192e-05
-0.00134932
7.26263e-05
-0.00134808
7.27357e-05
-0.00134675
7.28469e-05
-0.00134534
7.29601e-05
-0.00134386
7.3077e-05
-0.00134231
7.31967e-05
-0.00134068
7.33177e-05
-0.00133898
7.34405e-05
-0.00133721
7.35662e-05
-0.00133539
7.3694e-05
-0.0013335
7.38249e-05
-0.00133155
7.39575e-05
-0.00132954
7.40915e-05
-0.00132748
7.4227e-05
-0.00132537
7.43646e-05
-0.00132321
7.45029e-05
-0.00132099
7.46455e-05
-0.00131874
7.47893e-05
-0.00131644
7.49357e-05
-0.00131409
7.50803e-05
-0.00131171
7.52281e-05
-0.00130928
7.53777e-05
-0.00130682
7.55289e-05
-0.00130433
7.56812e-05
-0.0013018
7.58384e-05
-0.00129924
7.59831e-05
-0.00129665
7.6162e-05
-0.00129403
7.6285e-05
-0.00129138
7.64804e-05
-0.00128871
7.66277e-05
-0.001286
7.67364e-05
-0.00128328
7.70264e-05
-0.00128051
7.69413e-05
-0.00127767
7.73598e-05
-0.00127498
7.73039e-05
-0.00127193
7.77513e-05
-0.00126918
7.70977e-05
-0.00126549
7.82946e-05
-0.00126359
7.80184e-05
-0.00127461
9.00249e-05
-0.00137383
0.000180511
0.000261604
0.00681145
0.00552338
0.00607275
0.00300695
0.00556819
0.00122553
0.00511508
0.000910562
0.00475188
0.000667378
0.00449692
0.000422473
0.0043087
0.00028216
0.00414593
0.000235741
0.00399285
0.000221749
0.0038496
0.000207029
0.00371876
0.000190026
0.00360058
0.00017629
0.00349381
0.000167257
0.00339702
0.000161347
0.00330901
0.000156669
0.00322867
0.000152297
0.00315475
0.000148473
0.00308584
0.000145977
0.00302072
0.000144844
0.00295872
0.000143754
0.0028998
0.000140837
0.00284433
0.000135112
0.00279262
0.000127016
0.00274473
0.000117831
0.00270039
0.000108996
0.00265909
0.00010154
0.00262018
9.59936e-05
0.00258294
9.24393e-05
0.00254673
9.06172e-05
0.00251103
9.00962e-05
0.0024755
9.04069e-05
0.00243994
9.11221e-05
0.00240429
9.19215e-05
0.00236858
9.26095e-05
0.00233287
9.31169e-05
0.00229722
9.34605e-05
0.00226169
9.3692e-05
0.0022263
9.38684e-05
0.00219106
9.40317e-05
0.00215597
9.42128e-05
0.00212103
9.4421e-05
0.00208623
9.46531e-05
0.00205157
9.49059e-05
0.00201704
9.51682e-05
0.00198264
9.54307e-05
0.00194838
9.5692e-05
0.00191426
9.59495e-05
0.00188027
9.61998e-05
0.00184642
9.64416e-05
0.00181272
9.66734e-05
0.00177917
9.68955e-05
0.00174577
9.71092e-05
0.00171253
9.73121e-05
0.00167944
9.75038e-05
0.00164652
9.76857e-05
0.00161376
9.78583e-05
0.00158117
9.80216e-05
0.00154876
9.81733e-05
0.00151652
9.83119e-05
0.00148446
9.84413e-05
0.00145259
9.85648e-05
0.0014209
9.86754e-05
0.0013894
9.8771e-05
0.00135809
9.88595e-05
0.00132698
9.89419e-05
0.00129606
9.90133e-05
0.00126535
9.90728e-05
0.00123484
9.91219e-05
0.00120453
9.91612e-05
0.00117444
9.91913e-05
0.00114455
9.92126e-05
0.00111488
9.92256e-05
0.00108543
9.9228e-05
0.0010562
9.92203e-05
0.00102719
9.92026e-05
0.0009984
9.91766e-05
0.000969839
9.91445e-05
0.000941507
9.91031e-05
0.000913406
9.90512e-05
0.000885536
9.89923e-05
0.000857899
9.89286e-05
0.000830496
9.88599e-05
0.000803331
9.87804e-05
0.000776406
9.86915e-05
0.000749723
9.85945e-05
0.000723283
9.84914e-05
0.000697087
9.83851e-05
0.000671135
9.82731e-05
0.000645432
9.81501e-05
0.000619977
9.80185e-05
0.000594771
9.789e-05
0.000569815
9.77569e-05
0.000545108
9.76148e-05
0.000520656
9.74667e-05
0.000496459
9.73115e-05
0.000472517
9.71528e-05
0.000448831
9.69911e-05
0.000425402
9.68276e-05
0.000402231
9.66577e-05
0.000379317
9.64843e-05
0.000356662
9.63108e-05
0.000334265
9.61314e-05
0.00031213
9.59489e-05
0.000290257
9.57609e-05
0.000268646
9.55697e-05
0.000247296
9.538e-05
0.000226209
9.51878e-05
0.000205385
9.49954e-05
0.000184823
9.48004e-05
0.000164524
9.46039e-05
0.000144489
9.44058e-05
0.000124717
9.42054e-05
0.00010521
9.40057e-05
8.59682e-05
9.38039e-05
6.69904e-05
9.36003e-05
4.82751e-05
9.34006e-05
2.98223e-05
9.32045e-05
1.16339e-05
9.3004e-05
-6.28945e-06
9.28005e-05
-2.39488e-05
9.26003e-05
-4.13432e-05
9.24004e-05
-5.84741e-05
9.21998e-05
-7.53444e-05
9.20044e-05
-9.19541e-05
9.18131e-05
-0.000108302
9.16205e-05
-0.000124388
9.14265e-05
-0.000140212
9.1233e-05
-0.000155775
9.10432e-05
-0.000171079
9.08577e-05
-0.000186124
9.06744e-05
-0.000200911
9.04924e-05
-0.00021544
9.03128e-05
-0.000229712
9.01362e-05
-0.000243728
8.99623e-05
-0.000257489
8.97905e-05
-0.000270995
8.96215e-05
-0.000284247
8.94555e-05
-0.000297247
8.9293e-05
-0.000309996
8.91339e-05
-0.000322494
8.89776e-05
-0.000334742
8.88237e-05
-0.000346742
8.86739e-05
-0.000358494
8.85289e-05
-0.000370001
8.83868e-05
-0.000381264
8.82477e-05
-0.000392284
8.81135e-05
-0.000403062
8.79831e-05
-0.0004136
8.78551e-05
-0.000423897
8.77296e-05
-0.000433956
8.76078e-05
-0.00044378
8.74914e-05
-0.000453369
8.738e-05
-0.000462724
8.72709e-05
-0.000471848
8.71657e-05
-0.000480741
8.70648e-05
-0.000489405
8.69658e-05
-0.000497842
8.68709e-05
-0.000506055
8.67836e-05
-0.000514045
8.67004e-05
-0.000521813
8.66189e-05
-0.000529359
8.65394e-05
-0.000536688
8.64633e-05
-0.0005438
8.63937e-05
-0.000550699
8.63302e-05
-0.000557385
8.62681e-05
-0.000563859
8.62079e-05
-0.000570125
8.61532e-05
-0.000576183
8.61029e-05
-0.000582036
8.6055e-05
-0.000587687
8.6012e-05
-0.000593138
8.59751e-05
-0.00059839
8.59419e-05
-0.000603444
8.59088e-05
-0.000608302
8.58781e-05
-0.000612967
8.58528e-05
-0.000617442
8.5833e-05
-0.000621728
8.58167e-05
-0.000625828
8.58028e-05
-0.000629742
8.57924e-05
-0.000633475
8.57858e-05
-0.000637027
8.5783e-05
-0.0006404
8.57832e-05
-0.000643597
8.57861e-05
-0.000646619
8.57936e-05
-0.000649468
8.58035e-05
-0.000652146
8.58145e-05
-0.000654658
8.58318e-05
-0.000657004
8.58541e-05
-0.000659186
8.58769e-05
-0.000661206
8.59012e-05
-0.000663067
8.59307e-05
-0.000664771
8.5965e-05
-0.000666318
8.60006e-05
-0.000667711
8.60362e-05
-0.000668952
8.60753e-05
-0.000670044
8.61192e-05
-0.000670989
8.61666e-05
-0.000671788
8.62164e-05
-0.000672443
8.62689e-05
-0.000672957
8.63233e-05
-0.00067333
8.63791e-05
-0.000673564
8.64371e-05
-0.000673663
8.64995e-05
-0.000673627
8.65648e-05
-0.000673459
8.66307e-05
-0.000673159
8.66986e-05
-0.00067273
8.67695e-05
-0.000672174
8.6843e-05
-0.000671493
8.69201e-05
-0.000670688
8.69976e-05
-0.000669759
8.70763e-05
-0.000668709
8.71564e-05
-0.00066754
8.72387e-05
-0.000666252
8.73219e-05
-0.000664849
8.74105e-05
-0.000663331
8.75e-05
-0.0006617
8.75914e-05
-0.000659957
8.76806e-05
-0.000658101
8.77721e-05
-0.000656138
8.78684e-05
-0.000654064
8.79616e-05
-0.000651888
8.80638e-05
-0.000649599
8.81589e-05
-0.000647216
8.82578e-05
-0.000644718
8.83718e-05
-0.000642128
8.84489e-05
-0.000639437
8.85852e-05
-0.000636628
8.86756e-05
-0.000633765
8.87331e-05
-0.000630723
8.89703e-05
-0.000627675
8.87713e-05
-0.000624411
8.92568e-05
-0.000621164
8.88881e-05
-0.000617578
8.95777e-05
-0.000614109
8.8304e-05
-0.000609888
8.98778e-05
-0.000606247
8.91799e-05
-0.000606376
0.000103146
-0.000624628
0.000188402
0.000249969
0.00744338
0.00494084
0.00722663
0.00317894
0.00696698
0.00144627
0.00660391
0.00124198
0.00624573
0.000999172
0.0059707
0.000672403
0.00576052
0.000465446
0.00557871
0.000387442
0.00540776
0.000359469
0.0052457
0.000333761
0.00509465
0.000305155
0.0049556
0.000280391
0.00482835
0.000261996
0.00471234
0.000248344
0.00460685
0.000237013
0.00451089
0.000226827
0.00442317
0.0002183
0.00434232
0.000212475
0.00426743
0.00020897
0.00419814
0.000205406
0.00413438
0.000198936
0.00407599
0.000188297
0.00402255
0.000174382
0.00397344
0.000159289
0.00392795
0.000145186
0.00388541
0.000133515
0.00384518
0.000124905
0.00380666
0.000119325
0.00376933
0.000116296
0.00373272
0.00011515
0.00369648
0.000115204
0.00366037
0.000115853
0.00362427
0.000116642
0.00358816
0.000117296
0.00355208
0.000117713
0.00351606
0.00011791
0.00348015
0.000117953
0.00344438
0.000117921
0.00340877
0.000117874
0.00337332
0.000117855
0.00333803
0.000117877
0.0033029
0.000117935
0.00326792
0.000118028
0.00323309
0.000118139
0.00319842
0.000118254
0.0031639
0.000118373
0.00312954
0.000118492
0.00309533
0.000118605
0.00306129
0.000118709
0.00302741
0.000118804
0.00299369
0.00011889
0.00296015
0.000118967
0.00292678
0.000119033
0.00289359
0.000119089
0.00286057
0.000119135
0.00282774
0.000119172
0.0027951
0.000119201
0.00276264
0.000119216
0.00273038
0.000119219
0.00269832
0.000119213
0.00266645
0.000119203
0.00263478
0.000119179
0.00260332
0.000119139
0.00257206
0.000119094
0.00254101
0.000119044
0.00251018
0.000118982
0.00247955
0.000118909
0.00244915
0.000118826
0.00241896
0.000118734
0.002389
0.000118632
0.00235926
0.000118523
0.00232974
0.000118407
0.00230045
0.000118281
0.00227139
0.000118144
0.00224257
0.000117998
0.00221397
0.000117844
0.00218562
0.000117685
0.0021575
0.000117517
0.00212961
0.000117341
0.00210197
0.000117158
0.00207457
0.000116973
0.00204741
0.000116783
0.0020205
0.000116582
0.00199383
0.000116371
0.00196741
0.000116154
0.00194124
0.000115931
0.00191531
0.000115708
0.00188964
0.000115481
0.00186422
0.000115241
0.00183905
0.000114993
0.00181413
0.000114752
0.00178946
0.000114507
0.00176505
0.000114254
0.0017409
0.000113994
0.001717
0.000113727
0.00169335
0.000113459
0.00166997
0.000113189
0.00164684
0.000112917
0.00162397
0.000112641
0.00160136
0.000112363
0.001579
0.000112087
0.0015569
0.000111804
0.00153506
0.000111517
0.00151348
0.000111226
0.00149217
0.000110933
0.00147111
0.000110643
0.00145031
0.000110352
0.00142977
0.000110061
0.00140949
0.000109768
0.00138947
0.000109475
0.00136971
0.00010918
0.0013502
0.000108885
0.00133096
0.00010859
0.00131198
0.000108292
0.00129326
0.000107995
0.00127479
0.000107705
0.00125658
0.000107418
0.00123863
0.000107125
0.00122094
0.000106829
0.00120351
0.000106538
0.00118633
0.000106247
0.00116941
0.000105957
0.00115275
0.000105676
0.00113634
0.000105399
0.00112018
0.000105119
0.00110428
0.000104837
0.00108864
0.000104556
0.00107324
0.00010428
0.0010581
0.00010401
0.00104322
0.000103742
0.00102858
0.000103476
0.00101419
0.000103212
0.00100005
0.000102952
0.000986158
0.000102695
0.000972516
0.00010244
0.00095912
0.000102188
0.000945971
0.00010194
0.000933066
0.000101696
0.000920405
0.000101456
0.000907987
0.000101217
0.000895813
0.000100982
0.000883878
0.000100752
0.000872184
0.000100527
0.000860729
0.000100305
0.000849511
0.000100086
0.000838529
9.98729e-05
0.000827782
9.96635e-05
0.00081727
9.9456e-05
0.000806992
9.92506e-05
0.000796945
9.90498e-05
0.000787129
9.88553e-05
0.000777542
9.86654e-05
0.000768182
9.84783e-05
0.000759049
9.82951e-05
0.000750142
9.81151e-05
0.00074146
9.79371e-05
0.000733
9.77649e-05
0.000724759
9.76015e-05
0.000716738
9.74417e-05
0.000708935
9.72822e-05
0.00070135
9.7124e-05
0.000693981
9.69699e-05
0.000686825
9.6824e-05
0.00067988
9.66846e-05
0.000673147
9.65452e-05
0.000666623
9.64072e-05
0.000660306
9.62759e-05
0.000654196
9.6149e-05
0.00064829
9.60246e-05
0.000642586
9.59057e-05
0.000637082
9.57932e-05
0.000631777
9.56835e-05
0.000626672
9.55736e-05
0.000621762
9.5466e-05
0.000617048
9.53645e-05
0.000612526
9.52692e-05
0.000608195
9.51771e-05
0.000604053
9.50873e-05
0.000600099
9.50013e-05
0.000596331
9.49193e-05
0.000592747
9.4841e-05
0.000589345
9.47656e-05
0.000586125
9.4693e-05
0.000583084
9.46251e-05
0.000580222
9.45579e-05
0.000577536
9.44933e-05
0.000575023
9.44376e-05
0.000572681
9.43853e-05
0.000570511
9.43324e-05
0.000568509
9.42814e-05
0.000566675
9.42368e-05
0.000565006
9.41968e-05
0.000563501
9.41569e-05
0.00056216
9.41167e-05
0.00056098
9.40807e-05
0.000559959
9.40501e-05
0.000559096
9.4023e-05
0.000558388
9.39986e-05
0.000557835
9.3977e-05
0.000557434
9.39567e-05
0.000557186
9.39374e-05
0.000557087
9.39206e-05
0.000557137
9.39091e-05
0.000557333
9.39004e-05
0.000557675
9.38918e-05
0.000558161
9.38853e-05
0.00055879
9.38821e-05
0.00055956
9.3881e-05
0.00056047
9.38841e-05
0.000561518
9.38882e-05
0.000562703
9.38926e-05
0.000564024
9.38984e-05
0.00056548
9.39062e-05
0.00056707
9.39157e-05
0.000568791
9.39314e-05
0.000570641
9.39484e-05
0.000572622
9.39655e-05
0.000574731
9.39814e-05
0.00057697
9.39977e-05
0.000579332
9.40237e-05
0.000581824
9.40389e-05
0.000584431
9.40763e-05
0.000587175
9.4086e-05
0.000590022
9.41305e-05
0.000593012
9.41502e-05
0.000596104
9.41771e-05
0.000599312
9.42292e-05
0.00060268
9.42424e-05
0.000606071
9.42502e-05
0.000609719
9.43981e-05
0.000613351
9.40735e-05
0.000617191
9.46511e-05
0.000621151
9.3868e-05
0.000625359
9.47864e-05
0.000629543
9.3016e-05
0.000634227
9.47967e-05
0.000639023
9.35904e-05
0.00064215
0.00010911
0.000660623
0.000173095
0.000177335
0.00760853
0.00419357
0.00774839
0.0029941
0.00778011
0.00137325
0.00763971
0.00134715
0.00740144
0.00120878
0.00717941
0.000869621
0.00699336
0.000627122
0.00682592
0.000528388
0.00666512
0.000490393
0.00650901
0.000456475
0.0063591
0.000418882
0.00621678
0.000385083
0.00608295
0.000358497
0.00595841
0.000337656
0.00584364
0.000319826
0.00573844
0.00030366
0.00564192
0.000289964
0.00555314
0.000280189
0.00547183
0.000273695
0.0053984
0.000267118
0.00533313
0.000256665
0.00527551
0.000240769
0.00522428
0.000220704
0.00517779
0.000199343
0.00513459
0.000179628
0.00509365
0.000163475
0.00505438
0.00015163
0.00501647
0.00014393
0.00497973
0.000139643
0.00494392
0.000137843
0.00490879
0.000137623
0.0048741
0.000138201
0.00483965
0.000138993
0.00480533
0.000139644
0.00477107
0.000140016
0.00473688
0.000140121
0.00470277
0.000140036
0.00466876
0.000139855
0.00463488
0.000139656
0.00460113
0.000139493
0.00456752
0.000139382
0.00453407
0.000139319
0.00450076
0.000139303
0.0044676
0.00013931
0.0044346
0.000139326
0.00440176
0.000139348
0.00436908
0.000139372
0.00433656
0.00013939
0.0043042
0.000139399
0.00427201
0.000139396
0.00424
0.000139385
0.00420816
0.000139364
0.00417649
0.00013933
0.00414501
0.000139285
0.00411371
0.000139229
0.0040826
0.000139164
0.00405168
0.000139089
0.00402095
0.000138999
0.00399042
0.000138895
0.00396008
0.000138784
0.00392994
0.000138668
0.00390001
0.000138535
0.00387028
0.000138387
0.00384077
0.000138233
0.00381146
0.000138075
0.00378236
0.000137905
0.00375348
0.000137722
0.00372482
0.000137528
0.00369638
0.000137325
0.00366817
0.000137113
0.00364017
0.000136893
0.00361241
0.000136668
0.00358486
0.000136432
0.00355755
0.000136184
0.00353048
0.000135926
0.00350363
0.000135661
0.00347702
0.000135393
0.00345065
0.000135116
0.00342451
0.000134828
0.00339862
0.000134537
0.00337296
0.000134245
0.00334754
0.000133948
0.00332237
0.000133638
0.00329744
0.000133318
0.00327276
0.000132992
0.00324832
0.000132664
0.00322413
0.000132336
0.00320018
0.000132004
0.00317649
0.000131658
0.00315304
0.000131306
0.00312985
0.000130961
0.0031069
0.000130615
0.0030842
0.00013026
0.00306176
0.000129898
0.00303956
0.00012953
0.00301762
0.00012916
0.00299594
0.00012879
0.00297451
0.000128419
0.00295332
0.000128045
0.00293239
0.000127672
0.00291172
0.000127299
0.00289129
0.00012692
0.00287113
0.000126537
0.00285121
0.000126149
0.00283156
0.000125762
0.00281215
0.000125378
0.002793
0.000124993
0.0027741
0.00012461
0.00275546
0.000124227
0.00273707
0.000123843
0.00271893
0.000123457
0.00270104
0.000123072
0.00268341
0.000122688
0.00266604
0.000122299
0.00264891
0.000121913
0.00263203
0.000121538
0.00261541
0.000121166
0.00259903
0.000120785
0.00258291
0.000120402
0.00256704
0.000120024
0.00255142
0.000119647
0.00253605
0.000119273
0.00252092
0.000118909
0.00250604
0.00011855
0.0024914
0.000118188
0.00247702
0.000117822
0.00246288
0.000117456
0.00244898
0.000117097
0.00243533
0.000116746
0.00242192
0.000116398
0.00240876
0.000116051
0.00239583
0.000115706
0.00238315
0.000115365
0.00237071
0.000115027
0.00235851
0.000114692
0.00234654
0.000114361
0.00233481
0.000114034
0.00232332
0.000113711
0.00231206
0.000113392
0.00230104
0.000113074
0.00229025
0.00011276
0.0022797
0.000112451
0.00226937
0.000112148
0.00225928
0.000111847
0.00224941
0.000111551
0.00223977
0.000111261
0.00223036
0.000110974
0.00222117
0.000110689
0.0022122
0.000110405
0.00220347
0.000110127
0.00219495
0.000109856
0.00218665
0.000109589
0.00217857
0.000109325
0.00217071
0.000109065
0.00216306
0.000108806
0.00215563
0.00010855
0.00214842
0.000108301
0.00214141
0.000108063
0.00213462
0.000107827
0.00212804
0.00010759
0.00212166
0.000107353
0.0021155
0.000107121
0.00210953
0.000106899
0.00210377
0.000106684
0.00209822
0.000106468
0.00209286
0.000106252
0.00208771
0.000106043
0.00208275
0.00010584
0.00207799
0.000105638
0.00207342
0.000105443
0.00206905
0.000105254
0.00206487
0.000105067
0.00206087
0.00010488
0.00205707
0.000104694
0.00205346
0.000104516
0.00205003
0.000104344
0.00204678
0.000104175
0.00204372
0.000104008
0.00204083
0.000103845
0.00203813
0.000103686
0.0020356
0.000103531
0.00203325
0.000103378
0.00203107
0.000103229
0.00202907
0.000103083
0.00202724
0.000102938
0.00202558
0.000102797
0.00202408
0.000102665
0.00202275
0.000102536
0.00202159
0.000102405
0.00202059
0.000102276
0.00201975
0.000102156
0.00201907
0.000102039
0.00201855
0.000101921
0.00201819
0.000101803
0.00201798
0.00010169
0.00201793
0.000101582
0.00201803
0.000101478
0.00201828
0.000101377
0.00201868
0.000101279
0.00201923
0.000101181
0.00201992
0.000101084
0.00202077
0.00010099
0.00202175
0.000100902
0.00202288
0.000100817
0.00202415
0.000100731
0.00202556
0.000100648
0.00202711
0.000100568
0.00202879
0.000100489
0.00203061
0.000100416
0.00203257
0.000100344
0.00203466
0.000100272
0.00203688
0.000100201
0.00203924
0.000100132
0.00204172
0.000100065
0.00204434
0.000100006
0.00204707
9.99481e-05
0.00204994
9.98883e-05
0.00205293
9.9829e-05
0.00205605
9.97677e-05
0.00205929
9.97219e-05
0.00206266
9.96557e-05
0.00206614
9.96284e-05
0.00206976
9.95473e-05
0.00207347
9.95407e-05
0.00207733
9.94581e-05
0.00208129
9.94373e-05
0.00208535
9.94054e-05
0.00208959
9.93279e-05
0.00209382
9.93056e-05
0.00209833
9.93388e-05
0.00210284
9.89111e-05
0.00210748
9.95486e-05
0.00211234
9.84324e-05
0.00211741
9.93452e-05
0.00212243
9.74671e-05
0.00212784
9.90735e-05
0.00213381
9.73969e-05
0.00213772
0.00011471
0.00215983
0.000162443
0.000135574
0.00757873
0.00347632
0.00786133
0.00266685
0.00804509
0.00114745
0.00813268
0.00122214
0.0080923
0.00121816
0.00800179
0.000934339
0.00789989
0.00070558
0.00779089
0.000613621
0.00767493
0.000580257
0.0075542
0.000547471
0.00743126
0.000508013
0.00730815
0.000470757
0.00718677
0.000440232
0.00706924
0.000415458
0.00695761
0.000393645
0.0068531
0.000373315
0.00675579
0.000355545
0.00666533
0.000342289
0.00658219
0.000332922
0.00650777
0.00032342
0.00644333
0.000309234
0.0063888
0.000288482
0.00634249
0.000262689
0.00630174
0.000235384
0.00626392
0.000210255
0.00622721
0.000189726
0.0061908
0.000174702
0.00615471
0.000164902
0.00611928
0.00015935
0.00608483
0.000156867
0.00605144
0.000156334
0.00601898
0.000156809
0.00598723
0.000157595
0.00595591
0.000158266
0.00592483
0.000158648
0.00589387
0.000158738
0.00586296
0.000158616
0.00583209
0.000158384
0.00580128
0.00015813
0.00577055
0.000157919
0.00573992
0.000157767
0.00570941
0.000157673
0.00567902
0.000157633