/*--------------------------------*- C++ -*----------------------------------*\
  =========                 |
  \\      /  F ield         | OpenFOAM: The Open Source CFD Toolbox
   \\    /   O peration     | Website:  https://openfoam.org
    \\  /    A nd           | Version:  7
     \\/     M anipulation  |
\*---------------------------------------------------------------------------*/
FoamFile
{
    version     2.0;
    format      ascii;
    class       volScalarField;
    location    "1.8375";
    object      T;
}
// * * * * * * * * * * * * * * * * * * * * * * * * * * * * * * * * * * * * * //

dimensions      [0 0 0 1 0 0 0];

internalField   nonuniform List<scalar> 
4950
(
282.928
283.002
283.015
283.061
283.043
283.068
283.049
283.067
283.05
283.065
283.052
283.065
283.057
283.067
283.064
283.07
283.076
283.065
283.102
283.004
282.898
282.921
282.933
282.981
282.984
283.007
283
283.007
282.998
282.998
282.991
282.99
282.99
282.989
283.001
282.991
283.03
282.977
283.101
282.888
282.862
282.853
282.808
282.845
282.818
282.846
282.82
282.835
282.808
282.815
282.792
282.794
282.778
282.779
282.777
282.774
282.796
282.777
282.838
282.775
282.896
282.894
282.873
282.895
282.885
282.896
282.886
282.886
282.874
282.866
282.853
282.843
282.83
282.819
282.812
282.804
282.81
282.806
282.827
282.821
282.863
282.85
282.798
282.827
282.793
282.815
282.785
282.796
282.767
282.771
282.744
282.744
282.721
282.719
282.701
282.703
282.695
282.703
282.709
282.713
282.896
282.894
282.873
282.895
282.885
282.896
282.886
282.886
282.873
282.867
282.852
282.843
282.829
282.82
282.81
282.807
282.807
282.81
282.822
282.825
282.862
282.853
282.808
282.845
282.818
282.846
282.819
282.835
282.807
282.816
282.79
282.796
282.776
282.783
282.771
282.784
282.782
282.798
282.807
282.817
282.898
282.921
282.933
282.981
282.984
283.008
283
283.007
282.998
282.999
282.99
282.992
282.987
282.993
282.994
283.003
283.008
283.016
283.025
283.029
282.928
283.002
283.015
283.061
283.043
283.068
283.049
283.067
283.05
283.065
283.052
283.065
283.056
283.068
283.062
283.073
283.069
283.078
283.075
283.085
283.212
283.221
283.291
283.277
283.319
283.289
283.316
283.285
283.306
283.28
283.3
283.279
283.297
283.279
283.3
283.277
283.313
283.255
283.387
283.046
283.179
283.168
283.21
283.208
283.236
283.228
283.237
283.224
283.222
283.206
283.205
283.191
283.198
283.186
283.21
283.186
283.243
283.171
283.314
283.097
283.216
283.214
283.282
283.268
283.315
283.298
283.325
283.301
283.314
283.286
283.293
283.264
283.271
283.246
283.263
283.239
283.274
283.243
283.305
283.254
283.178
283.166
283.204
283.2
283.223
283.216
283.223
283.212
283.207
283.192
283.183
283.166
283.157
283.142
283.138
283.13
283.136
283.135
283.15
283.156
283.215
283.214
283.283
283.268
283.312
283.293
283.318
283.293
283.303
283.277
283.279
283.252
283.25
283.227
283.226
283.211
283.217
283.212
283.226
283.233
283.178
283.166
283.204
283.2
283.223
283.217
283.223
283.212
283.206
283.192
283.182
283.167
283.156
283.143
283.137
283.132
283.134
283.138
283.147
283.158
283.216
283.214
283.282
283.269
283.315
283.298
283.325
283.301
283.314
283.287
283.292
283.266
283.268
283.25
283.256
283.248
283.261
283.262
283.279
283.288
283.179
283.168
283.21
283.208
283.236
283.228
283.237
283.224
283.221
283.207
283.203
283.194
283.194
283.192
283.199
283.203
283.214
283.221
283.231
283.239
283.212
283.221
283.291
283.277
283.319
283.289
283.316
283.285
283.306
283.281
283.299
283.28
283.296
283.282
283.296
283.285
283.298
283.288
283.299
283.287
283.16
283.173
283.196
283.206
283.22
283.217
283.218
283.208
283.21
283.206
283.215
283.212
283.223
283.213
283.237
283.201
283.277
283.134
283.428
282.834
283.159
283.168
283.185
283.194
283.206
283.207
283.207
283.197
283.191
283.176
283.173
283.157
283.167
283.149
283.186
283.151
283.231
283.147
283.303
283.115
283.16
283.171
283.191
283.201
283.215
283.218
283.221
283.214
283.21
283.197
283.191
283.176
283.172
283.16
283.168
283.161
283.182
283.179
283.212
283.209
283.159
283.169
283.184
283.193
283.202
283.203
283.201
283.194
283.186
283.174
283.163
283.149
283.138
283.128
283.123
283.122
283.125
283.133
283.144
283.159
283.16
283.171
283.191
283.202
283.215
283.218
283.219
283.213
283.207
283.196
283.186
283.173
283.163
283.153
283.148
283.146
283.149
283.155
283.166
283.176
283.159
283.169
283.184
283.193
283.202
283.203
283.201
283.194
283.185
283.174
283.162
283.15
283.138
283.128
283.123
283.122
283.125
283.132
283.146
283.155
283.16
283.171
283.191
283.201
283.215
283.218
283.22
283.214
283.209
283.198
283.189
283.178
283.17
283.163
283.163
283.166
283.175
283.187
283.202
283.219
283.159
283.169
283.185
283.195
283.205
283.207
283.206
283.198
283.19
283.178
283.17
283.162
283.16
283.161
283.168
283.177
283.192
283.205
283.22
283.232
283.16
283.173
283.196
283.206
283.22
283.217
283.218
283.208
283.21
283.207
283.213
283.214
283.22
283.22
283.225
283.225
283.229
283.228
283.232
283.228
283.212
283.221
283.291
283.277
283.319
283.289
283.316
283.285
283.306
283.28
283.3
283.279
283.297
283.279
283.3
283.277
283.313
283.255
283.387
283.046
283.179
283.168
283.21
283.208
283.236
283.228
283.237
283.224
283.222
283.206
283.205
283.191
283.198
283.186
283.21
283.186
283.243
283.171
283.314
283.097
283.216
283.214
283.282
283.268
283.315
283.298
283.325
283.301
283.314
283.286
283.293
283.264
283.271
283.246
283.263
283.239
283.274
283.243
283.305
283.254
283.178
283.166
283.204
283.2
283.223
283.216
283.223
283.212
283.207
283.192
283.183
283.166
283.157
283.142
283.138
283.13
283.136
283.135
283.15
283.156
283.215
283.214
283.283
283.268
283.312
283.293
283.318
283.293
283.303
283.277
283.279
283.252
283.25
283.227
283.226
283.211
283.217
283.212
283.226
283.233
283.178
283.166
283.204
283.2
283.223
283.217
283.223
283.212
283.206
283.192
283.182
283.167
283.156
283.143
283.137
283.132
283.134
283.138
283.147
283.158
283.216
283.214
283.282
283.269
283.315
283.298
283.325
283.301
283.314
283.287
283.292
283.266
283.268
283.25
283.256
283.248
283.261
283.262
283.279
283.288
283.179
283.168
283.21
283.208
283.236
283.228
283.237
283.224
283.221
283.207
283.203
283.194
283.194
283.192
283.199
283.203
283.214
283.221
283.231
283.239
283.212
283.221
283.291
283.277
283.319
283.289
283.316
283.285
283.306
283.281
283.299
283.28
283.296
283.282
283.296
283.285
283.298
283.288
283.299
283.287
282.928
283.002
283.015
283.061
283.043
283.068
283.049
283.067
283.05
283.065
283.052
283.065
283.057
283.067
283.064
283.07
283.076
283.065
283.102
283.004
282.898
282.921
282.933
282.981
282.984
283.007
283
283.007
282.998
282.998
282.991
282.99
282.99
282.989
283.001
282.991
283.03
282.977
283.101
282.888
282.862
282.853
282.808
282.845
282.818
282.846
282.82
282.835
282.808
282.815
282.792
282.794
282.778
282.779
282.777
282.774
282.796
282.777
282.838
282.775
282.896
282.894
282.873
282.895
282.885
282.896
282.886
282.886
282.874
282.866
282.853
282.843
282.83
282.819
282.812
282.804
282.81
282.806
282.827
282.821
282.863
282.85
282.798
282.827
282.793
282.815
282.785
282.796
282.767
282.771
282.744
282.744
282.721
282.719
282.701
282.703
282.695
282.703
282.709
282.713
282.896
282.894
282.873
282.895
282.885
282.896
282.886
282.886
282.873
282.867
282.852
282.843
282.829
282.82
282.81
282.807
282.807
282.81
282.822
282.825
282.862
282.853
282.808
282.845
282.818
282.846
282.819
282.835
282.807
282.816
282.79
282.796
282.776
282.783
282.771
282.784
282.782
282.798
282.807
282.817
282.898
282.921
282.933
282.981
282.984
283.008
283
283.007
282.998
282.999
282.99
282.992
282.987
282.993
282.994
283.003
283.008
283.016
283.025
283.029
282.928
283.002
283.015
283.061
283.043
283.068
283.049
283.067
283.05
283.065
283.052
283.065
283.056
283.068
283.062
283.073
283.069
283.078
283.075
283.085
284.726
286.024
286.877
287.583
288.171
288.706
289.168
289.595
289.981
290.355
290.704
291.04
291.351
291.647
291.922
292.187
292.435
292.669
292.884
293.079
293.253
293.408
293.543
293.66
293.759
293.839
293.902
293.949
293.983
294.006
294.021
294.031
294.036
294.039
294.041
294.042
294.042
294.041
294.041
294.041
294.04
294.04
294.04
294.039
294.039
294.038
294.038
294.037
294.037
294.037
294.036
294.036
294.035
294.035
294.035
294.034
294.034
294.033
294.033
294.033
294.032
294.032
294.031
294.031
294.031
294.03
294.03
294.029
294.029
294.028
294.028
294.028
294.027
294.027
294.026
294.026
294.025
294.025
294.024
294.024
294.023
294.023
294.022
294.021
294.02
294.02
294.018
294.017
294.015
294.014
283.776
284.883
285.681
286.344
286.911
287.432
287.89
288.311
288.691
289.055
289.399
289.731
290.042
290.336
290.61
290.872
291.119
291.353
291.57
291.768
291.946
292.105
292.244
292.366
292.47
292.556
292.624
292.677
292.716
292.743
292.761
292.773
292.78
292.784
292.786
292.786
292.787
292.787
292.786
292.786
292.785
292.785
292.784
292.784
292.784
292.783
292.783
292.782
292.782
292.781
292.781
292.78
292.78
292.779
292.779
292.779
292.778
292.778
292.777
292.777
292.776
292.776
292.776
292.775
292.775
292.774
292.774
292.773
292.773
292.773
292.772
292.772
292.771
292.771
292.77
292.77
292.769
292.769
292.768
292.768
292.767
292.767
292.766
292.765
292.764
292.764
292.762
292.762
292.759
292.758
283.053
283.725
284.308
284.848
285.33
285.803
286.232
286.633
286.989
287.329
287.651
287.969
288.271
288.558
288.824
289.077
289.316
289.546
289.761
289.962
290.143
290.306
290.45
290.578
290.69
290.785
290.863
290.926
290.974
291.009
291.033
291.049
291.059
291.065
291.068
291.07
291.071
291.071
291.07
291.07
291.07
291.069
291.069
291.068
291.068
291.067
291.067
291.067
291.066
291.066
291.065
291.065
291.064
291.064
291.063
291.063
291.063
291.062
291.062
291.061
291.061
291.06
291.06
291.059
291.059
291.059
291.058
291.058
291.057
291.057
291.056
291.056
291.055
291.055
291.054
291.054
291.053
291.053
291.052
291.052
291.051
291.05
291.049
291.049
291.048
291.047
291.045
291.045
291.041
291.039
282.897
283.214
283.551
283.899
284.246
284.618
284.983
285.332
285.643
285.935
286.216
286.5
286.777
287.042
287.288
287.518
287.737
287.95
288.154
288.346
288.521
288.679
288.821
288.947
289.06
289.159
289.243
289.312
289.366
289.407
289.436
289.456
289.469
289.476
289.481
289.483
289.484
289.485
289.485
289.484
289.484
289.483
289.483
289.483
289.482
289.482
289.481
289.481
289.48
289.48
289.48
289.479
289.479
289.478
289.478
289.477
289.477
289.477
289.476
289.476
289.475
289.475
289.475
289.474
289.474
289.473
289.473
289.472
289.472
289.472
289.471
289.471
289.47
289.47
289.469
289.469
289.469
289.468
289.468
289.467
289.466
289.466
289.465
289.465
289.464
289.464
289.462
289.462
289.46
289.458
282.78
282.96
283.118
283.311
283.522
283.791
284.071
284.352
284.601
284.838
285.066
285.305
285.541
285.772
285.983
286.182
286.37
286.555
286.734
286.905
287.062
287.205
287.333
287.448
287.552
287.645
287.726
287.794
287.848
287.889
287.919
287.939
287.953
287.961
287.966
287.969
287.97
287.971
287.971
287.971
287.97
287.97
287.97
287.969
287.969
287.969
287.968
287.968
287.967
287.967
287.967
287.966
287.966
287.966
287.965
287.965
287.964
287.964
287.964
287.963
287.963
287.963
287.962
287.962
287.961
287.961
287.961
287.96
287.96
287.959
287.959
287.959
287.958
287.958
287.957
287.957
287.956
287.956
287.955
287.955
287.954
287.954
287.953
287.953
287.951
287.951
287.95
287.949
287.948
287.947
282.883
282.986
283.053
283.137
283.253
283.427
283.624
283.825
284.005
284.176
284.347
284.53
284.715
284.895
285.06
285.215
285.363
285.51
285.653
285.79
285.917
286.032
286.135
286.229
286.315
286.392
286.46
286.517
286.563
286.598
286.623
286.641
286.653
286.66
286.664
286.666
286.667
286.668
286.668
286.668
286.667
286.667
286.667
286.666
286.666
286.666
286.665
286.665
286.665
286.664
286.664
286.664
286.663
286.663
286.663
286.662
286.662
286.662
286.661
286.661
286.661
286.66
286.66
286.659
286.659
286.659
286.658
286.658
286.658
286.657
286.657
286.657
286.656
286.656
286.656
286.655
286.655
286.654
286.654
286.654
286.653
286.653
286.652
286.652
286.651
286.65
286.65
286.648
286.649
286.65
282.882
282.961
282.976
283.018
283.077
283.189
283.311
283.441
283.553
283.666
283.78
283.906
284.032
284.156
284.267
284.373
284.474
284.576
284.676
284.771
284.858
284.937
285.009
285.074
285.134
285.189
285.236
285.276
285.308
285.332
285.35
285.362
285.369
285.374
285.377
285.378
285.379
285.379
285.379
285.379
285.379
285.379
285.378
285.378
285.378
285.377
285.377
285.377
285.377
285.376
285.376
285.376
285.375
285.375
285.375
285.374
285.374
285.374
285.373
285.373
285.373
285.372
285.372
285.372
285.371
285.371
285.371
285.37
285.37
285.37
285.369
285.369
285.368
285.368
285.368
285.367
285.367
285.366
285.366
285.365
285.365
285.364
285.363
285.363
285.362
285.362
285.36
285.359
285.361
285.361
283.046
283.074
283.075
283.09
283.119
283.175
283.236
283.298
283.352
283.409
283.468
283.535
283.6
283.663
283.72
283.775
283.828
283.882
283.934
283.984
284.029
284.07
284.107
284.141
284.172
284.201
284.225
284.246
284.262
284.274
284.283
284.288
284.292
284.294
284.296
284.296
284.296
284.296
284.296
284.296
284.296
284.295
284.295
284.295
284.295
284.294
284.294
284.294
284.294
284.293
284.293
284.293
284.292
284.292
284.292
284.292
284.291
284.291
284.291
284.29
284.29
284.29
284.289
284.289
284.289
284.288
284.288
284.288
284.287
284.287
284.287
284.286
284.286
284.286
284.285
284.285
284.285
284.284
284.284
284.284
284.283
284.283
284.282
284.282
284.281
284.281
284.28
284.279
284.28
284.281
283.08
283.092
283.089
283.098
283.106
283.125
283.142
283.162
283.177
283.195
283.213
283.234
283.253
283.272
283.289
283.306
283.321
283.338
283.353
283.368
283.381
283.394
283.404
283.415
283.424
283.432
283.44
283.446
283.45
283.454
283.456
283.458
283.459
283.459
283.46
283.46
283.46
283.46
283.46
283.459
283.459
283.459
283.459
283.459
283.459
283.459
283.459
283.458
283.458
283.458
283.458
283.458
283.458
283.457
283.457
283.457
283.457
283.457
283.457
283.456
283.456
283.456
283.456
283.456
283.456
283.455
283.455
283.455
283.455
283.455
283.455
283.454
283.454
283.454
283.454
283.454
283.453
283.453
283.453
283.453
283.452
283.452
283.452
283.452
283.451
283.451
283.45
283.45
283.45
283.45
285.229
286.678
287.589
288.282
288.891
289.411
289.882
290.299
290.692
291.058
291.412
291.742
292.056
292.347
292.625
292.888
293.138
293.37
293.585
293.779
293.953
294.107
294.242
294.358
294.456
294.534
294.596
294.642
294.675
294.697
294.711
294.72
294.725
294.728
294.729
294.729
294.729
294.729
294.728
294.728
294.727
294.727
294.726
294.726
294.725
294.725
294.724
294.724
294.723
294.723
294.722
294.722
294.722
294.721
294.721
294.72
294.72
294.719
294.719
294.719
294.718
294.718
294.718
294.717
294.717
294.716
294.716
294.716
294.715
294.715
294.715
294.714
294.714
294.714
294.713
294.713
294.713
294.712
294.712
294.712
294.712
294.712
294.712
294.711
294.712
294.711
294.712
294.711
294.718
294.72
283.91
284.98
285.787
286.438
287.015
287.528
287.994
288.409
288.794
289.153
289.5
289.83
290.143
290.437
290.713
290.975
291.224
291.459
291.678
291.878
292.058
292.219
292.36
292.484
292.59
292.677
292.748
292.802
292.842
292.87
292.888
292.9
292.908
292.912
292.914
292.914
292.914
292.914
292.914
292.913
292.913
292.912
292.911
292.911
292.91
292.91
292.909
292.909
292.908
292.908
292.907
292.907
292.906
292.906
292.906
292.905
292.905
292.904
292.904
292.903
292.903
292.902
292.902
292.902
292.901
292.901
292.9
292.9
292.9
292.899
292.899
292.898
292.898
292.898
292.897
292.897
292.897
292.896
292.896
292.896
292.895
292.895
292.895
292.894
292.894
292.894
292.894
292.893
292.897
292.9
283.431
283.971
284.536
285.032
285.515
285.966
286.399
286.788
287.148
287.478
287.801
288.114
288.418
288.703
288.972
289.223
289.464
289.693
289.911
290.113
290.298
290.462
290.61
290.74
290.854
290.951
291.032
291.097
291.147
291.183
291.208
291.225
291.236
291.242
291.245
291.247
291.247
291.247
291.247
291.246
291.246
291.245
291.245
291.244
291.244
291.243
291.242
291.242
291.241
291.241
291.24
291.24
291.239
291.239
291.239
291.238
291.238
291.237
291.237
291.236
291.236
291.235
291.235
291.235
291.234
291.234
291.233
291.233
291.233
291.232
291.232
291.232
291.231
291.231
291.231
291.23
291.23
291.229
291.229
291.229
291.229
291.228
291.229
291.228
291.229
291.228
291.229
291.228
291.23
291.232
283.201
283.426
283.721
284.025
284.357
284.709
285.071
285.411
285.723
286.009
286.29
286.57
286.849
287.114
287.362
287.593
287.814
288.028
288.234
288.428
288.607
288.769
288.913
289.043
289.158
289.26
289.347
289.419
289.476
289.519
289.55
289.571
289.584
289.593
289.597
289.6
289.601
289.601
289.601
289.601
289.6
289.6
289.599
289.599
289.598
289.598
289.597
289.597
289.596
289.596
289.595
289.595
289.594
289.594
289.593
289.593
289.593
289.592
289.592
289.591
289.591
289.591
289.59
289.59
289.589
289.589
289.589
289.588
289.588
289.587
289.587
289.587
289.586
289.586
289.586
289.585
289.585
289.585
289.584
289.584
289.584
289.583
289.583
289.583
289.583
289.583
289.583
289.583
289.583
289.584
283.251
283.323
283.453
283.587
283.78
284.014
284.288
284.551
284.799
285.023
285.249
285.48
285.717
285.945
286.159
286.356
286.546
286.73
286.911
287.084
287.244
287.389
287.52
287.638
287.745
287.84
287.924
287.994
288.051
288.095
288.126
288.148
288.163
288.171
288.177
288.179
288.181
288.181
288.181
288.18
288.18
288.18
288.179
288.179
288.178
288.178
288.177
288.177
288.176
288.176
288.175
288.175
288.175
288.174
288.174
288.173
288.173
288.173
288.172
288.172
288.171
288.171
288.171
288.17
288.17
288.17
288.169
288.169
288.169
288.168
288.168
288.168
288.167
288.167
288.167
288.166
288.166
288.166
288.166
288.165
288.165
288.165
288.165
288.165
288.165
288.165
288.166
288.166
288.165
288.166
283.195
283.232
283.274
283.319
283.418
283.567
283.757
283.945
284.122
284.285
284.454
284.632
284.818
284.998
285.166
285.322
285.471
285.619
285.765
285.905
286.035
286.153
286.259
286.356
286.444
286.524
286.595
286.655
286.703
286.741
286.768
286.787
286.799
286.807
286.811
286.814
286.815
286.815
286.815
286.815
286.815
286.814
286.814
286.813
286.813
286.812
286.812
286.812
286.811
286.811
286.81
286.81
286.81
286.809
286.809
286.809
286.808
286.808
286.808
286.807
286.807
286.807
286.806
286.806
286.806
286.805
286.805
286.805
286.804
286.804
286.804
286.803
286.803
286.803
286.802
286.802
286.802
286.801
286.801
286.801
286.801
286.8
286.8
286.8
286.8
286.8
286.8
286.8
286.799
286.8
283.302
283.297
283.306
283.304
283.357
283.442
283.563
283.678
283.79
283.893
284.008
284.13
284.26
284.383
284.499
284.606
284.711
284.815
284.919
285.018
285.109
285.192
285.267
285.336
285.399
285.456
285.507
285.55
285.584
285.61
285.629
285.642
285.651
285.656
285.658
285.66
285.66
285.66
285.66
285.66
285.66
285.659
285.659
285.658
285.658
285.658
285.657
285.657
285.657
285.656
285.656
285.655
285.655
285.655
285.654
285.654
285.654
285.653
285.653
285.653
285.652
285.652
285.652
285.651
285.651
285.651
285.651
285.65
285.65
285.65
285.649
285.649
285.649
285.648
285.648
285.648
285.648
285.647
285.647
285.647
285.647
285.646
285.647
285.646
285.647
285.646
285.647
285.647
285.646
285.646
283.241
283.235
283.231
283.226
283.255
283.304
283.369
283.429
283.488
283.545
283.612
283.683
283.757
283.826
283.891
283.952
284.012
284.073
284.133
284.189
284.241
284.288
284.331
284.37
284.406
284.439
284.468
284.492
284.511
284.525
284.535
284.542
284.546
284.548
284.55
284.55
284.551
284.55
284.55
284.55
284.55
284.549
284.549
284.549
284.548
284.548
284.548
284.547
284.547
284.547
284.546
284.546
284.546
284.545
284.545
284.545
284.544
284.544
284.544
284.543
284.543
284.543
284.542
284.542
284.542
284.541
284.541
284.541
284.54
284.54
284.54
284.539
284.539
284.539
284.538
284.538
284.538
284.537
284.537
284.537
284.537
284.536
284.536
284.536
284.536
284.535
284.536
284.535
284.534
284.534
283.273
283.258
283.26
283.251
283.263
283.274
283.295
283.309
283.328
283.343
283.365
283.386
283.41
283.43
283.45
283.468
283.488
283.506
283.525
283.542
283.558
283.572
283.586
283.598
283.609
283.619
283.628
283.635
283.64
283.644
283.647
283.649
283.65
283.651
283.651
283.651
283.651
283.651
283.65
283.65
283.65
283.65
283.65
283.649
283.649
283.649
283.649
283.648
283.648
283.648
283.648
283.648
283.647
283.647
283.647
283.647
283.647
283.646
283.646
283.646
283.646
283.645
283.645
283.645
283.645
283.645
283.644
283.644
283.644
283.644
283.644
283.643
283.643
283.643
283.643
283.642
283.642
283.642
283.642
283.642
283.642
283.641
283.642
283.641
283.642
283.641
283.642
283.641
283.641
283.641
285.451
287.203
288.209
288.951
289.583
290.12
290.6
291.027
291.429
291.803
292.163
292.498
292.814
293.109
293.391
293.656
293.909
294.143
294.359
294.552
294.727
294.88
295.015
295.13
295.226
295.302
295.362
295.405
295.437
295.457
295.471
295.478
295.483
295.485
295.486
295.486
295.486
295.486
295.485
295.485
295.484
295.483
295.483
295.482
295.482
295.481
295.481
295.48
295.48
295.48
295.479
295.479
295.478
295.478
295.477
295.477
295.477
295.476
295.476
295.475
295.475
295.475
295.474
295.474
295.474
295.473
295.473
295.472
295.472
295.472
295.471
295.471
295.471
295.47
295.47
295.469
295.469
295.469
295.469
295.468
295.468
295.468
295.468
295.467
295.468
295.467
295.468
295.466
295.474
295.477
283.721
284.831
285.701
286.395
287.001
287.535
288.016
288.444
288.839
289.208
289.562
289.899
290.218
290.517
290.799
291.065
291.319
291.559
291.782
291.986
292.169
292.333
292.477
292.604
292.711
292.801
292.872
292.927
292.968
292.996
293.015
293.027
293.035
293.039
293.041
293.041
293.041
293.041
293.041
293.04
293.039
293.039
293.038
293.038
293.037
293.036
293.036
293.035
293.035
293.034
293.034
293.033
293.033
293.032
293.032
293.031
293.031
293.03
293.03
293.03
293.029
293.029
293.028
293.028
293.027
293.027
293.027
293.026
293.026
293.025
293.025
293.024
293.024
293.024
293.023
293.023
293.023
293.022
293.022
293.022
293.021
293.021
293.021
293.021
293.021
293.02
293.021
293.019
293.024
293.027
283.296
283.746
284.274
284.775
285.264
285.732
286.178
286.583
286.952
287.293
287.623
287.945
288.257
288.551
288.826
289.084
289.331
289.567
289.792
290.001
290.192
290.364
290.516
290.652
290.771
290.874
290.959
291.028
291.082
291.121
291.148
291.166
291.178
291.185
291.189
291.19
291.191
291.191
291.191
291.19
291.19
291.189
291.188
291.188
291.187
291.187
291.186
291.186
291.185
291.185
291.184
291.184
291.183
291.183
291.182
291.182
291.181
291.181
291.18
291.18
291.18
291.179
291.179
291.178
291.178
291.177
291.177
291.177
291.176
291.176
291.175
291.175
291.175
291.174
291.174
291.174
291.173
291.173
291.173
291.172
291.172
291.172
291.172
291.171
291.171
291.171
291.171
291.171
291.172
291.175
283.196
283.35
283.58
283.841
284.148
284.492
284.855
285.202
285.52
285.811
286.095
286.38
286.666
286.939
287.195
287.434
287.66
287.88
288.093
288.295
288.482
288.651
288.803
288.939
289.062
289.17
289.263
289.341
289.404
289.451
289.486
289.509
289.525
289.535
289.54
289.543
289.544
289.545
289.545
289.544
289.544
289.543
289.543
289.542
289.542
289.541
289.541
289.54
289.54
289.539
289.539
289.538
289.538
289.537
289.537
289.536
289.536
289.536
289.535
289.535
289.534
289.534
289.533
289.533
289.533
289.532
289.532
289.531
289.531
289.531
289.53
289.53
289.53
289.529
289.529
289.529
289.528
289.528
289.528
289.527
289.527
289.527
289.527
289.526
289.526
289.526
289.526
289.526
289.526
289.527
283.221
283.28
283.356
283.448
283.6
283.813
284.074
284.338
284.585
284.81
285.035
285.267
285.508
285.743
285.964
286.168
286.362
286.552
286.739
286.919
287.087
287.24
287.377
287.502
287.615
287.717
287.807
287.884
287.947
287.996
288.032
288.057
288.074
288.084
288.09
288.094
288.095
288.096
288.096
288.095
288.095
288.095
288.094
288.094
288.093
288.093
288.092
288.092
288.091
288.091
288.09
288.09
288.089
288.089
288.089
288.088
288.088
288.087
288.087
288.087
288.086
288.086
288.086
288.085
288.085
288.084
288.084
288.084
288.083
288.083
288.083
288.082
288.082
288.082
288.081
288.081
288.081
288.08
288.08
288.08
288.08
288.079
288.079
288.079
288.079
288.079
288.079
288.079
288.079
288.079
283.213
283.253
283.267
283.279
283.343
283.469
283.644
283.826
283.997
284.156
284.32
284.497
284.685
284.869
285.042
285.201
285.354
285.505
285.655
285.801
285.937
286.061
286.172
286.274
286.368
286.453
286.529
286.594
286.647
286.689
286.719
286.741
286.755
286.764
286.769
286.772
286.773
286.774
286.774
286.774
286.773
286.773
286.772
286.772
286.772
286.771
286.771
286.77
286.77
286.77
286.769
286.769
286.768
286.768
286.768
286.767
286.767
286.767
286.766
286.766
286.766
286.765
286.765
286.765
286.764
286.764
286.764
286.763
286.763
286.763
286.762
286.762
286.762
286.761
286.761
286.761
286.761
286.76
286.76
286.76
286.76
286.759
286.759
286.759
286.759
286.759
286.759
286.759
286.758
286.758
283.266
283.276
283.265
283.249
283.281
283.356
283.467
283.577
283.683
283.783
283.895
284.019
284.15
284.278
284.396
284.506
284.614
284.721
284.829
284.932
285.028
285.115
285.194
285.266
285.333
285.394
285.449
285.495
285.532
285.561
285.582
285.596
285.606
285.611
285.615
285.616
285.617
285.617
285.617
285.617
285.616
285.616
285.616
285.615
285.615
285.614
285.614
285.614
285.613
285.613
285.613
285.612
285.612
285.612
285.611
285.611
285.611
285.61
285.61
285.61
285.609
285.609
285.609
285.608
285.608
285.608
285.608
285.607
285.607
285.607
285.606
285.606
285.606
285.605
285.605
285.605
285.605
285.604
285.604
285.604
285.604
285.603
285.603
285.603
285.603
285.603
285.603
285.603
285.602
285.602
283.248
283.243
283.23
283.218
283.24
283.285
283.346
283.403
283.459
283.515
283.582
283.656
283.732
283.804
283.871
283.935
283.998
284.062
284.125
284.185
284.24
284.289
284.334
284.376
284.415
284.45
284.481
284.507
284.528
284.543
284.554
284.561
284.566
284.568
284.57
284.57
284.57
284.57
284.57
284.57
284.57
284.569
284.569
284.569
284.568
284.568
284.568
284.567
284.567
284.567
284.566
284.566
284.566
284.565
284.565
284.565
284.564
284.564
284.564
284.563
284.563
284.563
284.562
284.562
284.562
284.561
284.561
284.561
284.56
284.56
284.56
284.559
284.559
284.559
284.558
284.558
284.558
284.557
284.557
284.557
284.556
284.556
284.556
284.555
284.555
284.555
284.555
284.555
284.553
284.553
283.226
283.217
283.213
283.209
283.219
283.233
283.253
283.268
283.286
283.304
283.327
283.351
283.376
283.398
283.42
283.44
283.461
283.482
283.502
283.521
283.538
283.554
283.568
283.582
283.594
283.605
283.615
283.622
283.628
283.633
283.636
283.638
283.639
283.639
283.64
283.639
283.639
283.639
283.639
283.639
283.639
283.638
283.638
283.638
283.638
283.637
283.637
283.637
283.637
283.636
283.636
283.636
283.635
283.635
283.635
283.635
283.634
283.634
283.634
283.634
283.633
283.633
283.633
283.632
283.632
283.632
283.632
283.631
283.631
283.631
283.63
283.63
283.63
283.629
283.629
283.629
283.629
283.628
283.628
283.628
283.627
283.627
283.627
283.627
283.627
283.626
283.626
283.626
283.625
283.625
285.229
286.678
287.589
288.282
288.891
289.411
289.882
290.299
290.692
291.058
291.412
291.742
292.056
292.347
292.625
292.888
293.138
293.37
293.585
293.779
293.953
294.107
294.242
294.358
294.456
294.534
294.596
294.642
294.675
294.697
294.711
294.72
294.725
294.728
294.729
294.729
294.729
294.729
294.728
294.728
294.727
294.727
294.726
294.726
294.725
294.725
294.724
294.724
294.723
294.723
294.722
294.722
294.722
294.721
294.721
294.72
294.72
294.719
294.719
294.719
294.718
294.718
294.718
294.717
294.717
294.716
294.716
294.716
294.715
294.715
294.715
294.714
294.714
294.714
294.713
294.713
294.713
294.712
294.712
294.712
294.712
294.712
294.712
294.711
294.712
294.711
294.712
294.711
294.718
294.72
283.91
284.98
285.787
286.438
287.015
287.528
287.994
288.409
288.794
289.153
289.5
289.83
290.143
290.437
290.713
290.975
291.224
291.459
291.678
291.878
292.058
292.219
292.36
292.484
292.59
292.677
292.748
292.802
292.842
292.87
292.888
292.9
292.908
292.912
292.914
292.914
292.914
292.914
292.914
292.913
292.913
292.912
292.911
292.911
292.91
292.91
292.909
292.909
292.908
292.908
292.907
292.907
292.906
292.906
292.906
292.905
292.905
292.904
292.904
292.903
292.903
292.902
292.902
292.902
292.901
292.901
292.9
292.9
292.9
292.899
292.899
292.898
292.898
292.898
292.897
292.897
292.897
292.896
292.896
292.896
292.895
292.895
292.895
292.894
292.894
292.894
292.894
292.893
292.897
292.9
283.431
283.971
284.536
285.032
285.515
285.966
286.399
286.788
287.148
287.478
287.801
288.114
288.418
288.703
288.972
289.223
289.464
289.693
289.911
290.113
290.298
290.462
290.61
290.74
290.854
290.951
291.032
291.097
291.147
291.183
291.208
291.225
291.236
291.242
291.245
291.247
291.247
291.247
291.247
291.246
291.246
291.245
291.245
291.244
291.244
291.243
291.242
291.242
291.241
291.241
291.24
291.24
291.239
291.239
291.239
291.238
291.238
291.237
291.237
291.236
291.236
291.235
291.235
291.235
291.234
291.234
291.233
291.233
291.233
291.232
291.232
291.232
291.231
291.231
291.231
291.23
291.23
291.229
291.229
291.229
291.229
291.228
291.229
291.228
291.229
291.228
291.229
291.228
291.23
291.232
283.201
283.426
283.721
284.025
284.357
284.709
285.071
285.411
285.723
286.009
286.29
286.57
286.849
287.114
287.362
287.593
287.814
288.028
288.234
288.428
288.607
288.769
288.913
289.043
289.158
289.26
289.347
289.419
289.476
289.519
289.55
289.571
289.584
289.593
289.597
289.6
289.601
289.601
289.601
289.601
289.6
289.6
289.599
289.599
289.598
289.598
289.597
289.597
289.596
289.596
289.595
289.595
289.594
289.594
289.593
289.593
289.593
289.592
289.592
289.591
289.591
289.591
289.59
289.59
289.589
289.589
289.589
289.588
289.588
289.587
289.587
289.587
289.586
289.586
289.586
289.585
289.585
289.585
289.584
289.584
289.584
289.583
289.583
289.583
289.583
289.583
289.583
289.583
289.583
289.584
283.251
283.323
283.453
283.587
283.78
284.014
284.288
284.551
284.799
285.023
285.249
285.48
285.717
285.945
286.159
286.356
286.546
286.73
286.911
287.084
287.244
287.389
287.52
287.638
287.745
287.84