/*--------------------------------*- C++ -*----------------------------------*\
  =========                 |
  \\      /  F ield         | OpenFOAM: The Open Source CFD Toolbox
   \\    /   O peration     | Website:  https://openfoam.org
    \\  /    A nd           | Version:  7
     \\/     M anipulation  |
\*---------------------------------------------------------------------------*/
FoamFile
{
    version     2.0;
    format      ascii;
    class       volScalarField;
    location    "4.65";
    object      nut;
}
// * * * * * * * * * * * * * * * * * * * * * * * * * * * * * * * * * * * * * //

dimensions      [0 2 -1 0 0 0 0];

internalField   nonuniform List<scalar> 
1800
(
0.00126655
0.00290383
0.00335747
0.00332776
0.00318773
0.00298497
0.00282105
0.00269598
0.00260155
0.00252813
0.00246895
0.00241955
0.00237708
0.00233978
0.00230653
0.00227661
0.0022495
0.00222479
0.00220224
0.00218148
0.00216241
0.00214469
0.00212831
0.00211294
0.00209855
0.00208513
0.00207191
0.00206042
0.00204524
0.00205492
0.00022667
0.000914922
0.00160258
0.0019406
0.00209589
0.00215027
0.0021625
0.00216003
0.00215287
0.00214089
0.00212799
0.0021145
0.00210068
0.00208707
0.00207384
0.00206112
0.00204886
0.00203715
0.00202582
0.00201509
0.00200452
0.00199482
0.00198472
0.00197635
0.00196616
0.00195969
0.00194876
0.00194381
0.00192971
0.00192939
2.5044e-05
0.000178381
0.000404152
0.000668303
0.000868086
0.000994993
0.00107635
0.0011317
0.00117263
0.00120545
0.00123311
0.00125824
0.00128158
0.00130369
0.00132393
0.00134322
0.00136043
0.00137714
0.00139137
0.00140583
0.00141715
0.00142981
0.00143829
0.00144962
0.0014555
0.00146568
0.00146974
0.00147851
0.00148109
0.00148729
1.10865e-05
2.91104e-05
7.63612e-05
0.000145437
0.000231996
0.000311545
0.000372884
0.00042268
0.000462113
0.000496375
0.000525054
0.000551883
0.000575281
0.000598558
0.000619215
0.000640603
0.0006596
0.000679864
0.000697745
0.000717232
0.000734303
0.000753095
0.000769599
0.000787531
0.0008038
0.000820429
0.000837006
0.000851521
0.00086928
0.000880763
1.0918e-05
1.18846e-05
1.64368e-05
2.6789e-05
4.2298e-05
6.40848e-05
8.26193e-05
0.000102222
0.000118085
0.000134506
0.00014852
0.000163144
0.000176119
0.000189632
0.000201936
0.000214624
0.000226439
0.000238462
0.000249944
0.000261429
0.000272748
0.000283793
0.000295139
0.000305785
0.000317388
0.000327561
0.000339757
0.000349171
0.000362527
0.000370917
1.08949e-05
1.13393e-05
1.26153e-05
1.37613e-05
1.58502e-05
1.72547e-05
1.9843e-05
2.14695e-05
2.44708e-05
2.62911e-05
2.96907e-05
3.17302e-05
3.55657e-05
3.7809e-05
4.20435e-05
4.44524e-05
4.90163e-05
5.15594e-05
5.63954e-05
5.90525e-05
6.40524e-05
6.6952e-05
7.20342e-05
7.51779e-05
8.03681e-05
8.37016e-05
8.91046e-05
9.25474e-05
9.83267e-05
0.000101835
1.08948e-05
1.13393e-05
1.26158e-05
1.37611e-05
1.6006e-05
1.73069e-05
1.99837e-05
2.15198e-05
2.45553e-05
2.63062e-05
2.97342e-05
3.17161e-05
3.55749e-05
3.77653e-05
4.20184e-05
4.43782e-05
4.89566e-05
5.14501e-05
5.62925e-05
5.88964e-05
6.396e-05
6.6658e-05
7.19093e-05
7.46891e-05
8.01015e-05
8.2946e-05
8.84801e-05
9.13492e-05
9.69413e-05
9.98818e-05
1.09179e-05
1.18839e-05
1.64318e-05
2.67763e-05
4.47759e-05
6.10888e-05
8.55652e-05
9.9677e-05
0.000120092
0.00013248
0.000150091
0.000161379
0.000177435
0.000188008
0.000203079
0.000213074
0.000227434
0.000236941
0.000250798
0.000259906
0.000273435
0.000282219
0.000295556
0.000304058
0.000317319
0.000325503
0.00033875
0.000346407
0.000359669
0.000366845
1.10865e-05
2.91006e-05
7.63372e-05
0.000145395
0.000232218
0.00031116
0.000372975
0.000422271
0.000462196
0.000495913
0.000525159
0.000551361
0.000575429
0.000597956
0.000619423
0.000639893
0.000659874
0.00067901
0.000698086
0.000716189
0.000734686
0.000751779
0.000769916
0.000785821
0.000803801
0.000818141
0.000836128
0.000848331
0.000866268
0.000876163
2.50457e-05
0.000178357
0.000404106
0.00066823
0.000867969
0.000994867
0.00107622
0.00113158
0.00117252
0.00120534
0.001233
0.00125813
0.00128148
0.00130356
0.00132383
0.00134307
0.00136033
0.00137694
0.00139127
0.00140554
0.00141701
0.00142933
0.00143805
0.00144884
0.00145495
0.00146446
0.00146836
0.00147619
0.00147841
0.00148327
0.000226688
0.000914906
0.00160253
0.00194056
0.00209584
0.00215022
0.00216247
0.00216
0.00215285
0.00214087
0.00212797
0.00211448
0.00210066
0.00208707
0.00207382
0.00206113
0.00204882
0.00203719
0.00202574
0.00201519
0.00200437
0.00199503
0.00198446
0.00197671
0.00196582
0.00196014
0.00194858
0.00194408
0.00192981
0.00193032
0.00126655
0.00290383
0.00335747
0.00332777
0.00318773
0.00298497
0.00282105
0.00269599
0.00260156
0.00252814
0.00246896
0.00241957
0.00237711
0.00233982
0.00230657
0.00227669
0.00224957
0.00222497
0.00220237
0.00218184
0.00216266
0.00214544
0.0021288
0.00211446
0.00209954
0.00208812
0.00207398
0.00206596
0.00205065
0.00206222
0.00529907
0.00559018
0.0055686
0.00552061
0.00549007
0.00546784
0.00545218
0.00544309
0.00543919
0.00543956
0.00544245
0.00544727
0.00545299
0.00545921
0.00546561
0.00547198
0.00547823
0.0054843
0.00549018
0.00549588
0.00550142
0.00550681
0.00551206
0.0055172
0.00552224
0.00552719
0.00553206
0.00553685
0.00554158
0.00554625
0.00555086
0.00555541
0.00555991
0.00556436
0.00556877
0.00557312
0.00557742
0.00558168
0.0055859
0.00559007
0.0055942
0.00559829
0.00560233
0.00560634
0.00561031
0.00561423
0.00561812
0.00562197
0.00562578
0.00562956
0.00563329
0.005637
0.00564067
0.0056443
0.0056479
0.00565146
0.00565499
0.00565849
0.00566196
0.00566539
0.00566879
0.00567216
0.0056755
0.00567881
0.00568209
0.00568534
0.00568856
0.00569175
0.00569491
0.00569804
0.00570114
0.00570422
0.00570726
0.00571028
0.00571328
0.00571624
0.00571918
0.00572209
0.00572497
0.00572783
0.00573066
0.00573347
0.00573625
0.00573901
0.00574174
0.00574444
0.00574712
0.00574978
0.00575241
0.00575501
0.00575759
0.00576015
0.00576268
0.00576518
0.00576767
0.00577012
0.00577256
0.00577496
0.00577735
0.00577971
0.00578204
0.00578435
0.00578663
0.0057889
0.00579113
0.00579335
0.00579553
0.0057977
0.00579982
0.00580197
0.005804
0.00580615
0.00580807
0.00581026
0.00581198
0.00581435
0.00581571
0.00581844
0.00581926
0.00582268
0.0052478
0.00584991
0.00596059
0.00595827
0.0059457
0.00593467
0.00592952
0.00592948
0.00593184
0.00593719
0.0059438
0.00595099
0.00595834
0.00596564
0.00597276
0.00597965
0.00598632
0.00599275
0.00599899
0.00600505
0.00601096
0.00601673
0.00602238
0.00602793
0.00603338
0.00603875
0.00604405
0.00604927
0.00605442
0.00605951
0.00606455
0.00606952
0.00607444
0.0060793
0.00608411
0.00608887
0.00609358
0.00609824
0.00610285
0.00610742
0.00611194
0.00611642
0.00612085
0.00612524
0.00612959
0.00613389
0.00613815
0.00614237
0.00614656
0.0061507
0.0061548
0.00615886
0.00616289
0.00616688
0.00617083
0.00617474
0.00617862
0.00618246
0.00618627
0.00619004
0.00619378
0.00619748
0.00620115
0.00620479
0.00620839
0.00621196
0.0062155
0.006219
0.00622247
0.00622591
0.00622933
0.0062327
0.00623605
0.00623937
0.00624266
0.00624592
0.00624915
0.00625235
0.00625552
0.00625866
0.00626178
0.00626486
0.00626792
0.00627095
0.00627395
0.00627693
0.00627988
0.0062828
0.00628569
0.00628856
0.0062914
0.00629421
0.006297
0.00629976
0.00630249
0.0063052
0.00630788
0.00631053
0.00631316
0.00631576
0.00631834
0.00632089
0.00632341
0.00632591
0.00632838
0.00633083
0.00633324
0.00633565
0.00633799
0.00634038
0.00634263
0.00634502
0.00634714
0.00634959
0.00635149
0.00635414
0.00635564
0.00635869
0.00635975
0.00636326
0.00399976
0.00486182
0.00515451
0.00524967
0.0052863
0.005307
0.00532397
0.00533985
0.00535405
0.00536687
0.005378
0.00538754
0.0053957
0.00540279
0.0054091
0.00541486
0.00542024
0.00542538
0.00543034
0.0054352
0.00543998
0.00544471
0.00544939
0.00545403
0.00545864
0.00546321
0.00546775
0.00547225
0.00547672
0.00548115
0.00548554
0.00548989
0.0054942
0.00549848
0.00550271
0.00550691
0.00551107
0.00551519
0.00551927
0.00552332
0.00552733
0.0055313
0.00553523
0.00553913
0.005543
0.00554682
0.00555062
0.00555438
0.0055581
0.00556179
0.00556545
0.00556907
0.00557266
0.00557622
0.00557975
0.00558324
0.00558671
0.00559014
0.00559354
0.00559691
0.00560025
0.00560356
0.00560684
0.00561009
0.00561331
0.00561651
0.00561967
0.00562281
0.00562591
0.00562899
0.00563205
0.00563507
0.00563807
0.00564104
0.00564399
0.0056469
0.0056498
0.00565266
0.0056555
0.00565832
0.00566111
0.00566387
0.00566661
0.00566933
0.00567202
0.00567468
0.00567733
0.00567995
0.00568254
0.00568511
0.00568766
0.00569019
0.00569269
0.00569517
0.00569762
0.00570006
0.00570247
0.00570486
0.00570722
0.00570957
0.00571189
0.00571419
0.00571647
0.00571873
0.00572096
0.00572318
0.00572536
0.00572755
0.00572967
0.00573184
0.00573389
0.00573607
0.00573799
0.00574025
0.00574196
0.00574441
0.00574578
0.00574854
0.00574964
0.00575273
0.00222212
0.00329939
0.00387531
0.00415863
0.0043066
0.00439562
0.00445673
0.00450201
0.00453588
0.00456109
0.00457954
0.00459283
0.00460238
0.00460935
0.00461464
0.00461888
0.00462253
0.00462587
0.00462908
0.00463225
0.00463544
0.00463868
0.00464197
0.00464531
0.00464868
0.00465207
0.00465548
0.00465891
0.00466233
0.00466574
0.00466915
0.00467254
0.00467591
0.00467926
0.0046826
0.00468591
0.0046892
0.00469246
0.00469571
0.00469893
0.00470212
0.00470529
0.00470844
0.00471157
0.00471466
0.00471774
0.00472079
0.00472382
0.00472682
0.00472979
0.00473275
0.00473567
0.00473858
0.00474146
0.00474432
0.00474715
0.00474996
0.00475274
0.0047555
0.00475824
0.00476095
0.00476364
0.00476631
0.00476896
0.00477158
0.00477418
0.00477675
0.00477931
0.00478184
0.00478435
0.00478684
0.0047893
0.00479175
0.00479417
0.00479657
0.00479895
0.00480131
0.00480365
0.00480597
0.00480827
0.00481055
0.0048128
0.00481504
0.00481726
0.00481946
0.00482164
0.0048238
0.00482594
0.00482806
0.00483017
0.00483225
0.00483432
0.00483637
0.0048384
0.00484042
0.00484241
0.00484439
0.00484636
0.0048483
0.00485023
0.00485214
0.00485404
0.00485592
0.00485779
0.00485963
0.00486148
0.00486328
0.0048651
0.00486686
0.00486868
0.00487037
0.00487221
0.00487379
0.00487572
0.00487712
0.00487922
0.00488036
0.00488266
0.00488366
0.00488627
0.000898075
0.00143851
0.00215721
0.00267746
0.00301468
0.0032339
0.00337938
0.00347788
0.00354492
0.00359029
0.00362059
0.00364041
0.00365309
0.00366105
0.00366602
0.00366916
0.00367128
0.00367288
0.00367427
0.00367563
0.00367705
0.00367859
0.00368025
0.00368202
0.00368388
0.00368583
0.00368785
0.00368992
0.00369202
0.00369415
0.0036963
0.00369846
0.00370063
0.00370279
0.00370495
0.00370712
0.00370928
0.00371144
0.0037136
0.00371575
0.0037179
0.00372004
0.00372217
0.00372429
0.0037264
0.0037285
0.00373059
0.00373267
0.00373473
0.00373679
0.00373883
0.00374086
0.00374288
0.00374488
0.00374687
0.00374885
0.00375081
0.00375276
0.00375469
0.00375661
0.00375851
0.0037604
0.00376228
0.00376414
0.00376599
0.00376782
0.00376964
0.00377144
0.00377323
0.003775
0.00377676
0.0037785
0.00378023
0.00378195
0.00378365
0.00378534
0.00378701
0.00378867
0.00379031
0.00379194
0.00379356
0.00379516
0.00379675
0.00379832
0.00379989
0.00380144
0.00380297
0.0038045
0.00380601
0.00380751
0.00380899
0.00381047
0.00381193
0.00381338
0.00381482
0.00381625
0.00381767
0.00381907
0.00382047
0.00382186
0.00382323
0.0038246
0.00382596
0.00382731
0.00382864
0.00382998
0.00383129
0.00383263
0.00383389
0.00383525
0.00383646
0.00383785
0.00383897
0.00384046
0.00384143
0.00384304
0.00384387
0.00384558
0.00384636
0.00384835
0.000243572
0.000406336
0.000698214
0.00109231
0.00150678
0.0018501
0.00211415
0.00230808
0.00244607
0.00254198
0.00260736
0.00265111
0.00267982
0.00269824
0.00270978
0.00271679
0.00272091
0.00272326
0.00272457
0.00272532
0.00272581
0.00272624
0.0027267
0.00272726
0.00272793
0.00272873
0.00272964
0.00273065
0.00273176
0.00273294
0.00273419
0.00273549
0.00273684
0.00273824
0.00273966
0.0027411
0.00274256
0.00274403
0.0027455
0.00274698
0.00274846
0.00274994
0.00275143
0.00275291
0.00275439
0.00275587
0.00275734
0.00275881
0.00276028
0.00276174
0.00276319
0.00276464
0.00276608
0.00276752
0.00276895
0.00277037
0.00277178
0.00277318
0.00277458
0.00277596
0.00277734
0.00277871
0.00278007
0.00278142
0.00278276
0.00278409
0.00278541
0.00278672
0.00278803
0.00278932
0.0027906
0.00279187
0.00279314
0.00279439
0.00279563
0.00279687
0.00279809
0.0027993
0.00280051
0.0028017
0.00280289
0.00280406
0.00280523
0.00280638
0.00280753
0.00280867
0.0028098
0.00281092
0.00281203
0.00281313
0.00281422
0.00281531
0.00281639
0.00281746
0.00281852
0.00281957
0.00282061
0.00282165
0.00282268
0.00282371
0.00282472
0.00282574
0.00282673
0.00282774
0.00282872
0.00282973
0.00283067
0.00283169
0.0028326
0.00283365
0.00283449
0.0028356
0.00283635
0.00283754
0.00283819
0.00283945
0.00284005
0.00284132
0.00284191
0.00284342
0.000240351
0.000397327
0.000684607
0.001076
0.00149798
0.00184808
0.00211748
0.00231543
0.00245653
0.00255495
0.00262243
0.00266805
0.00269851
0.00271863
0.00273184
0.00274049
0.00274624
0.00275019
0.00275307
0.00275535
0.00275734
0.00275922
0.00276109
0.00276301
0.00276501
0.0027671
0.00276925
0.00277147
0.00277375
0.00277607
0.00277843
0.00278081
0.00278321
0.00278562
0.00278804
0.00279045
0.00279286
0.00279526
0.00279764
0.00280001
0.00280237
0.00280471
0.00280704
0.00280935
0.00281164
0.00281392
0.00281618
0.00281842
0.00282065
0.00282286
0.00282506
0.00282724
0.0028294
0.00283154
0.00283367
0.00283578
0.00283788
0.00283995
0.00284201
0.00284406
0.00284608
0.00284809
0.00285009
0.00285206
0.00285402
0.00285597
0.0028579
0.00285981
0.0028617
0.00286358
0.00286545
0.00286729
0.00286913
0.00287094
0.00287274
0.00287453
0.0028763
0.00287805
0.00287979
0.00288151
0.00288322
0.00288492
0.0028866
0.00288826
0.00288991
0.00289154
0.00289317
0.00289477
0.00289636
0.00289794
0.00289951
0.00290106
0.00290259
0.00290411
0.00290562
0.00290712
0.0029086
0.00291006
0.00291152
0.00291296
0.00291438
0.0029158
0.0029172
0.00291859
0.00291995
0.00292133
0.00292265
0.00292403
0.00292529
0.00292668
0.00292787
0.00292929
0.00293038
0.00293186
0.00293283
0.00293439
0.00293523
0.00293686
0.00293763
0.00293954
0.000893434
0.00142605
0.00214093
0.00267236
0.00301966
0.00324604
0.0033967
0.0034989
0.00356879
0.00361639
0.00364846
0.00366981
0.00368391
0.00369323
0.00369951
0.00370392
0.00370727
0.00371006
0.00371259
0.00371506
0.00371755
0.00372011
0.00372276
0.0037255
0.0037283
0.00373117
0.00373407
0.00373701
0.00373997
0.00374293
0.0037459
0.00374886
0.00375181
0.00375475
0.00375768
0.0037606
0.00376351
0.0037664
0.00376928
0.00377214
0.00377499
0.00377782
0.00378063
0.00378343
0.00378621
0.00378897
0.00379171
0.00379443
0.00379714
0.00379982
0.00380249
0.00380513
0.00380776
0.00381037
0.00381295
0.00381552
0.00381806
0.00382059
0.0038231
0.00382558
0.00382805
0.0038305
0.00383292
0.00383533
0.00383771
0.00384008
0.00384243
0.00384475
0.00384706
0.00384935
0.00385162
0.00385386
0.00385609
0.0038583
0.0038605
0.00386267
0.00386482
0.00386696
0.00386907
0.00387117
0.00387325
0.00387531
0.00387735
0.00387938
0.00388138
0.00388337
0.00388534
0.0038873
0.00388923
0.00389115
0.00389306
0.00389494
0.00389681
0.00389866
0.0039005
0.00390231
0.00390411
0.0039059
0.00390767
0.00390942
0.00391116
0.00391288
0.00391458
0.00391628
0.00391794
0.00391961
0.00392124
0.00392289
0.00392447
0.00392612
0.00392763
0.00392929
0.00393071
0.00393244
0.0039337
0.00393555
0.00393663
0.00393859
0.00393955
0.00394184
0.00222719
0.00328965
0.00387946
0.00417313
0.00432703
0.00441923
0.00448207
0.00452791
0.00456193
0.0045868
0.00460459
0.0046171
0.00462581
0.00463193
0.00463636
0.00463974
0.00464254
0.00464503
0.00464742
0.00464979
0.00465221
0.0046547
0.00465728
0.00465992
0.00466264
0.00466542
0.00466824
0.00467109
0.00467398
0.00467689
0.00467981
0.00468274
0.00468568
0.00468862
0.00469156
0.0046945
0.00469743
0.00470036
0.00470328
0.00470619
0.00470908
0.00471197
0.00471485
0.00471771
0.00472055
0.00472339
0.0047262
0.004729
0.00473179
0.00473456
0.00473731
0.00474004
0.00474275
0.00474545
0.00474812
0.00475078
0.00475342
0.00475604
0.00475864
0.00476122
0.00476378
0.00476632
0.00476884
0.00477134
0.00477382
0.00477629
0.00477873
0.00478115
0.00478355
0.00478593
0.0047883
0.00479064
0.00479296
0.00479527
0.00479755
0.00479982
0.00480206
0.00480429
0.0048065
0.00480868
0.00481085
0.00481301
0.00481514
0.00481725
0.00481935
0.00482143
0.00482349
0.00482553
0.00482755
0.00482956
0.00483155
0.00483352
0.00483548
0.00483742
0.00483934
0.00484124
0.00484313
0.00484501
0.00484686
0.00484871
0.00485053
0.00485234
0.00485414
0.00485592
0.00485768
0.00485944
0.00486117
0.00486291
0.00486459
0.00486633
0.00486795
0.00486971
0.00487123
0.00487307
0.00487443
0.00487641
0.00487754
0.00487972
0.00488069
0.00488317
0.00400641
0.00486948
0.00517218
0.00527028
0.00530636
0.00532541
0.00534027
0.00535345
0.00536533
0.00537548
0.00538392
0.00539082
0.00539637
0.00540089
0.00540465
0.0054079
0.00541083
0.00541356
0.0054162
0.0054188
0.0054214
0.00542403
0.00542668
0.00542937
0.0054321
0.00543486
0.00543765
0.00544047
0.0054433
0.00544616
0.00544903
0.00545191
0.0054548
0.00545769
0.00546058
0.00546348
0.00546637
0.00546926
0.00547214
0.00547502
0.00547788
0.00548074
0.00548358
0.00548642
0.00548924
0.00549204
0.00549484
0.00549761
0.00550037
0.00550312
0.00550585
0.00550856
0.00551126
0.00551393
0.00551659
0.00551923
0.00552185
0.00552446
0.00552704
0.00552961
0.00553215
0.00553468
0.00553718
0.00553967
0.00554214
0.00554459
0.00554702
0.00554943
0.00555182
0.00555419
0.00555654
0.00555887
0.00556118
0.00556348
0.00556575
0.005568
0.00557024
0.00557246
0.00557465
0.00557683
0.00557899
0.00558114
0.00558326
0.00558537
0.00558745
0.00558953
0.00559158
0.00559361
0.00559563
0.00559763
0.00559962
0.00560158
0.00560354
0.00560547
0.00560739
0.00560929
0.00561118
0.00561306
0.00561491
0.00561676
0.00561858
0.0056204
0.0056222
0.00562399
0.00562576
0.00562753
0.00562926
0.00563102
0.00563271
0.00563447
0.0056361
0.00563788
0.00563942
0.00564129
0.00564266
0.0056447
0.00564581
0.00564809
0.005649
0.00565159
0.00525517
0.00586423
0.00597185
0.0059657
0.005947
0.00593074
0.00592067
0.00591546
0.00591421
0.00591514
0.00591764
0.00592103
0.00592465
0.00592826
0.00593176
0.00593509
0.00593828
0.00594133
0.00594428
0.00594716
0.00594999
0.00595278
0.00595555
0.00595831
0.00596107
0.00596383
0.00596659
0.00596936
0.00597213
0.00597491
0.00597769
0.00598048
0.00598326
0.00598605
0.00598883
0.00599161
0.00599438
0.00599715
0.00599991
0.00600266
0.0060054
0.00600813
0.00601086
0.00601356
0.00601626
0.00601894
0.00602161
0.00602426
0.0060269
0.00602952
0.00603212
0.00603471
0.00603728
0.00603983
0.00604237
0.00604488
0.00604738
0.00604987
0.00605233
0.00605477
0.0060572
0.00605961
0.00606199
0.00606436
0.00606672
0.00606905
0.00607136
0.00607366
0.00607593
0.00607819
0.00608043
0.00608265
0.00608485
0.00608704
0.0060892
0.00609135
0.00609348
0.00609559
0.00609768
0.00609976
0.00610181
0.00610385
0.00610588
0.00610788
0.00610987
0.00611184
0.0061138
0.00611574
0.00611766
0.00611957
0.00612146
0.00612334
0.0061252
0.00612704
0.00612887
0.00613069
0.00613249
0.00613428
0.00613606
0.00613782
0.00613957
0.00614131
0.00614303
0.00614475
0.00614644
0.00614814
0.00614981
0.00615149
0.00615312
0.00615481
0.00615639
0.00615811
0.00615959
0.0061614
0.00616272
0.00616471
0.00616576
0.00616804
0.0061688
0.00617146
0.00528561
0.00557801
0.00554494
0.00549088
0.00545349
0.00542494
0.00540378
0.00538966
0.00538145
0.00537744
0.00537642
0.00537726
0.00537922
0.00538174
0.00538448
0.00538726
0.00539
0.00539265
0.00539521
0.00539768
0.00540008
0.00540241
0.0054047
0.00540696
0.00540919
0.00541141
0.00541362
0.00541582
0.00541802
0.00542021
0.00542241
0.00542459
0.00542678
0.00542896
0.00543113
0.0054333
0.00543546
0.00543761
0.00543976
0.0054419
0.00544402
0.00544614
0.00544824
0.00545034
0.00545242
0.00545449
0.00545654
0.00545859
0.00546062
0.00546263
0.00546464
0.00546663
0.0054686
0.00547056
0.00547251
0.00547444
0.00547635
0.00547826
0.00548014
0.00548201
0.00548387
0.00548572
0.00548754
0.00548936
0.00549115
0.00549294
0.00549471
0.00549646
0.0054982
0.00549993
0.00550164
0.00550334
0.00550502
0.00550669
0.00550834
0.00550998
0.00551161
0.00551322
0.00551482
0.0055164
0.00551798
0.00551953
0.00552108
0.00552261
0.00552413
0.00552564
0.00552713
0.00552861
0.00553008
0.00553154
0.00553298
0.00553442
0.00553584
0.00553725
0.00553865
0.00554004
0.00554142
0.00554279
0.00554415
0.00554551
0.00554685
0.00554818
0.0055495
0.00555082
0.00555213
0.00555343
0.00555472
0.00555602
0.00555728
0.00555859
0.00555981
0.00556114
0.00556229
0.0055637
0.00556472
0.00556629
0.00556707
0.00556891
0.00556936
0.00557172
)
;

boundaryField
{
    upperWall
    {
        type            zeroGradient;
    }
    lowerWall
    {
        type            zeroGradient;
    }
    heatedWall
    {
        type            zeroGradient;
    }
    inlet
    {
        type            zeroGradient;
    }
    outlet
    {
        type            zeroGradient;
    }
    frontAndBack
    {
        type            empty;
    }
}


// ************************************************************************* //
