/*--------------------------------*- C++ -*----------------------------------*\
  =========                 |
  \\      /  F ield         | OpenFOAM: The Open Source CFD Toolbox
   \\    /   O peration     | Website:  https://openfoam.org
    \\  /    A nd           | Version:  7
     \\/     M anipulation  |
\*---------------------------------------------------------------------------*/
FoamFile
{
    version     2.0;
    format      ascii;
    class       surfaceScalarField;
    location    "4.65";
    object      phi_0;
}
// * * * * * * * * * * * * * * * * * * * * * * * * * * * * * * * * * * * * * //

dimensions      [1 0 -1 0 0 0 0];

internalField   nonuniform List<scalar> 
3438
(
0.012801
0.000969198
0.0108052
0.00193106
0.00884059
0.0018999
0.00728804
0.001488
0.00620564
0.00101811
0.00551154
0.000630154
0.00507995
0.000368021
0.00481215
0.000204669
0.00464096
0.000108711
0.00452308
5.62117e-05
0.00443416
2.81029e-05
0.00436096
1.33444e-05
0.00429665
5.53327e-06
0.00423812
8.42079e-07
0.00418409
-2.61311e-06
0.0041338
-5.34663e-06
0.00408698
-7.81213e-06
0.00404331
-9.95961e-06
0.00400267
-1.1894e-05
0.00396476
-1.34916e-05
0.00392945
-1.48799e-05
0.00389627
-1.58037e-05
0.00386532
-1.6699e-05
0.00383594
-1.67558e-05
0.00380885
-1.74729e-05
0.00378187
-1.61923e-05
0.00375999
-1.9801e-05
0.00373339
-1.3701e-05
0.00375996
-6.54903e-05
4.40007e-06
0.00371832
0.0141774
0.0005661
0.0145261
0.00152195
0.0145161
0.00184949
0.0142133
0.00173065
0.0137681
0.00140335
0.0133002
0.00103856
0.0128651
0.000743894
0.0124788
0.000532113
0.0121429
0.000386467
0.0118524
0.000289321
0.0116003
0.000223557
0.0113804
0.000177578
0.0111868
0.000144306
0.0110153
0.00011838
0.0108626
9.72784e-05
0.0107257
7.97818e-05
0.0106022
6.47118e-05
0.0104901
5.21471e-05
0.0103882
4.10751e-05
0.0102946
3.23305e-05
0.0102089
2.40845e-05
0.0101287
1.87671e-05
0.0100557
1.20356e-05
0.00998517
1.08481e-05
0.00992309
3.16215e-06
0.00985781
8.996e-06
0.00980779
-8.55555e-06
0.00974005
1.65618e-05
0.00968542
-4.70926e-05
4.98218e-05
0.00960481
0.0140696
0.00027928
0.0145676
0.00097169
0.0151138
0.00125142
0.0155544
0.00123827
0.0158415
0.00106469
0.0159939
0.000835058
0.0160524
0.00063451
0.01605
0.000484172
0.0160103
0.0003763
0.0159481
0.000302279
0.0158725
0.0002507
0.0157884
0.000213803
0.0156994
0.000186134
0.015608
0.000163562
0.0155155
0.000144411
0.0154229
0.000127752
0.0153313
0.000112592
0.015241
9.94693e-05
0.0151529
8.71195e-05
0.0150668
7.7239e-05
0.0149838
6.69292e-05
0.0149029
6.06288e-05
0.0148259
5.09346e-05
0.0147501
4.99666e-05
0.01468
3.77271e-05
0.0146082
4.63554e-05
0.0145445
2.18748e-05
0.0144766
5.22195e-05
0.0144047
-6.04833e-06
8.96615e-05
0.0143349
0.0140025
7.18586e-05
0.0144142
0.000519738
0.0149199
0.000705724
0.0154161
0.000702272
0.0158416
0.000599671
0.0161767
0.000460692
0.0164368
0.000335377
0.0166405
0.000241924
0.0168027
0.000176038
0.0169362
0.000131006
0.0170489
0.00010083
0.0171454
8.04748e-05
0.0172286
6.63833e-05
0.0173009
5.56016e-05
0.0173631
4.71142e-05
0.0174164
4.01399e-05
0.0174614
3.38398e-05
0.0174989
2.88508e-05
0.0175296
2.39528e-05
0.0175542
2.09947e-05
0.0175732
1.69653e-05
0.017587
1.66579e-05
0.0175964
1.23476e-05
0.0176018
1.64005e-05
0.0176031
9.24384e-06
0.0176023
2.08284e-05
0.0175941
4.49752e-06
0.0175904
3.11392e-05
0.0175595
6.00604e-07
6.73133e-05
0.0175589
0.0139864
-0.000104673
0.0143636
0.000117116
0.0148324
0.000211632
0.0152965
0.000213011
0.015706
0.000165236
0.0160442
9.77962e-05
0.0163188
3.62897e-05
0.0165452
-8.62645e-06
0.0167374
-4.00737e-05
0.0169058
-6.10621e-05
0.0170575
-7.43389e-05
0.0171972
-8.24901e-05
0.0173276
-8.72409e-05
0.0174509
-9.03871e-05
0.0175678
-9.20189e-05
0.0176789
-9.27475e-05
0.0177845
-9.32283e-05
0.0178852
-9.28408e-05
0.0179811
-9.24607e-05
0.0180727
-9.06455e-05
0.0181596
-8.95622e-05
0.018243
-8.57755e-05
0.0183217
-8.46476e-05
0.0183982
-7.77629e-05
0.0184684
-7.80758e-05
0.018539
-6.63498e-05
0.0185988
-7.13688e-05
0.0186652
-5.08551e-05
0.018711
-6.04121e-05
-1.92734e-05
0.0187833
0.0139719
-0.000250365
0.0143315
-0.000251291
0.0147848
-0.000250497
0.0152386
-0.000249467
0.0156433
-0.000248108
0.0159791
-0.000246435
0.0162517
-0.000244549
0.0164773
-0.000242416
0.016669
-0.000239774
0.0168371
-0.000237042
0.0169888
-0.000233934
0.0171292
-0.000230575
0.0172614
-0.000226872
0.0173868
-0.000223326
0.0175067
-0.000219429
0.0176217
-0.000215272
0.0177323
-0.000211159
0.0178392
-0.000206797
0.0179421
-0.000202372
0.0180421
-0.000197284
0.0181385
-0.000192302
0.0182329
-0.000186305
0.0183232
-0.000180923
0.018413
-0.000173467
0.0184972
-0.000167921
0.0185836
-0.000158111
0.0186603
-0.000153458
0.0187431
-0.000138997
0.0188147
-0.000136984
-0.000114721
0.0189048
0.0139718
-0.000379161
0.0143316
-0.000602741
0.0147849
-0.000695545
0.0152388
-0.000694947
0.0156436
-0.000644548
0.0159794
-0.000573863
0.016252
-0.000508669
0.0164777
-0.000459711
0.0166694
-0.000423117
0.0168376
-0.000397019
0.0169894
-0.000377665
0.0171298
-0.000363039
0.017262
-0.000351068
0.0173874
-0.000341167
0.0175074
-0.000332003
0.0176224
-0.000323179
0.0177331
-0.000314746
0.01784
-0.000306714
0.017943
-0.00029851
0.018043
-0.000290554
0.0181394
-0.000281929
0.0182339
-0.000274119
0.0183243
-0.000264863
0.0184143
-0.00025723
0.0184985
-0.00024621
0.0185851
-0.000238829
0.018662
-0.000224812
0.0187449
-0.000216731
0.0188163
-0.000203232
-0.000199295
0.0189057
0.0139867
-0.000505839
0.014364
-0.000955077
0.0148329
-0.00113953
0.0152971
-0.00113435
0.0157067
-0.00102938
0.0160451
-0.000887529
0.0163199
-0.000758912
0.0165464
-0.000661789
0.0167388
-0.000591393
0.0169072
-0.000541606
0.017059
-0.000506022
0.0171988
-0.000479788
0.0173296
-0.000459211
0.0174529
-0.000442288
0.0175698
-0.000427108
0.0176809
-0.000412979
0.0177867
-0.000399575
0.0178875
-0.000386982
0.0179836
-0.000374334
0.0180753
-0.00036252
0.0181626
-0.000349823
0.0182464
-0.000339011
0.0183254
-0.00032545
0.0184022
-0.000316259
0.018473
-0.000299821
0.0185444
-0.00029356
0.0186053
-0.000269671
0.0186732
-0.000269077
0.018721
-0.000236074
-0.000254578
0.0187907
0.0140028
-0.000633988
0.0144148
-0.00132721
0.0149207
-0.00160558
0.0154171
-0.00159106
0.0158428
-0.00141554
0.0161781
-0.00118356
0.0164385
-0.000980323
0.0166424
-0.000827011
0.0168048
-0.00071552
0.0169385
-0.000637539
0.0170513
-0.000581549
0.017148
-0.000539782
0.0172317
-0.000506796
0.017304
-0.000479183
0.0173664
-0.000454644
0.0174197
-0.000432149
0.0174649
-0.000411287
0.0175027
-0.000391835
0.0175339
-0.000373235
0.0175588
-0.00035591
0.0175784
-0.000338733
0.0175929
-0.000323506
0.0176034
-0.000306804
0.0176097
-0.000294292
0.0176127
-0.000275582
0.0176134
-0.000267901
0.0176092
-0.000239919
0.0176082
-0.00024342
0.0175828
-0.000186766
-0.000228825
0.0175797
0.01407
-0.000817216
0.0145684
-0.00177339
0.0151148
-0.00209985
0.0155556
-0.00198008
0.0158431
-0.00165144
0.0159956
-0.00128496
0.0160545
-0.000988424
0.0160524
-0.000774539
0.016013
-0.000626386
0.0159511
-0.000526398
0.0158756
-0.000457525
0.0157918
-0.000408113
0.0157033
-0.000371115
0.0156121
-0.000341597
0.0155197
-0.000316696
0.0154273
-0.000295063
0.0153359
-0.000276021
0.0152461
-0.000258944
0.0151585
-0.000243483
0.0150732
-0.000229422
0.014991
-0.000216434
0.0149113
-0.000204682
0.0148356
-0.000193258
0.0147617
-0.000183592
0.0146938
-0.000172176
0.0146258
-0.000165629
0.0145666
-0.000147394
0.0145062
-0.000150755
0.0144432
-9.2723e-05
-0.000136626
0.0143808
0.0141781
-0.0010993
0.0145269
-0.00206123
0.0145173
-0.00202947
0.0142147
-0.00161711
0.0137699
-0.00114651
0.0133022
-0.000757684
0.0128674
-0.000494602
0.0124816
-0.000330174
0.0121461
-0.000232921
0.0118558
-0.00017893
0.011604
-0.000149212
0.0113844
-0.000132697
0.0111912
-0.000122951
0.0110201
-0.000116373
0.0108675
-0.000110986
0.0107308
-0.000106132
0.0106076
-0.000101643
0.0104962
-9.71801e-05
0.0103948
-9.29244e-05
0.0103021
-8.87059e-05
0.0102172
-8.47525e-05
0.0101387
-8.07497e-05
0.0100667
-7.71396e-05
0.0099992
-7.3332e-05
0.00993833
-7.00157e-05
0.00987899
-6.63479e-05
0.00983147
-6.10842e-05
0.0097781
-5.97566e-05
0.00973054
-8.8535e-06
-6.12644e-05
0.00969056
0.0128017
0.0108061
0.00884181
0.00728963
0.0062076
0.00551385
0.00508268
0.00481531
0.00464454
0.00452697
0.00443834
0.0043655
0.00430158
0.0042433
0.00418941
0.00413936
0.0040928
0.00404965
0.00400956
0.00397239
0.00393783
0.00390589
0.00387608
0.00384857
0.00382284
0.00379933
0.00377985
0.00376054
0.00379077
0.00376716
0.00361107
-1.67473e-05
0.00354416
-3.95856e-05
0.00347528
-1.66373e-05
0.00343421
-2.71235e-05
0.00340338
-2.2823e-05
0.00337765
-1.62356e-05
0.00335805
-1.17016e-05
0.00334409
-9.0376e-06
0.00333439
-6.98821e-06
0.00332792
-4.86695e-06
0.00332374
-2.77182e-06
0.00332097
-1.49219e-06
0.00331897
-3.7201e-07
0.00331756
3.89046e-07
0.00331639
9.64786e-07
0.00331549
1.55347e-06
0.00331459
1.58895e-06
0.00331367
1.3518e-06
0.00331271
1.0646e-06
0.00331179
8.58419e-07
0.00331082
6.97666e-07
0.00330982
6.45641e-07
0.00330893
8.62095e-07
0.00330805
8.59578e-07
0.00330713
5.99523e-07
0.00330622
4.05392e-07
0.00330532
2.7928e-07
0.00330443
3.40667e-07
0.00330362
6.04282e-07
0.00330285
7.40462e-07
0.00330207
7.04937e-07
0.00330129
6.48148e-07
0.00330058
6.3045e-07
0.00329983
4.7579e-07
0.00329909
4.70595e-07
0.00329842
6.57802e-07
0.00329778
7.92891e-07
0.00329715
7.68304e-07
0.00329652
6.44863e-07
0.00329587
4.87003e-07
0.00329522
4.85721e-07
0.00329465
6.79066e-07
0.0032941
7.74113e-07
0.00329352
6.96091e-07
0.00329296
6.54117e-07
0.00329243
6.29836e-07
0.0032919
4.83792e-07
0.00329134
3.41211e-07
0.00329081
3.36179e-07
0.00329029
4.40834e-07
0.00328982
5.8871e-07
0.00328936
6.3515e-07
0.00328888
4.96194e-07
0.00328838
3.37362e-07
0.0032879
3.14314e-07
0.00328743
3.47877e-07
0.00328696
3.92043e-07
0.00328652
5.06988e-07
0.0032861
6.19722e-07
0.00328569
6.0444e-07
0.00328526
4.78083e-07
0.00328483
3.4055e-07
0.00328438
2.85019e-07
0.00328396
3.55089e-07
0.00328357
4.753e-07
0.00328318
5.14715e-07
0.00328278
4.68736e-07
0.00328238
4.19737e-07
0.00328199
3.73569e-07
0.0032816
3.13094e-07
0.0032812
2.88743e-07
0.00328082
3.35151e-07
0.00328045
4.16612e-07
0.0032801
4.7184e-07
0.00327975
4.46961e-07
0.00327938
3.45769e-07
0.00327901
2.6506e-07
0.00327864
2.81838e-07
0.0032783
3.40265e-07
0.00327795
3.63609e-07
0.00327761
3.75177e-07
0.00327727
4.02996e-07
0.00327695
4.0711e-07
0.00327663
3.62276e-07
0.0032763
2.96212e-07
0.00327597
2.55432e-07
0.00327564
2.82344e-07
0.00327533
3.64164e-07
0.00327504
4.16609e-07
0.00327474
3.94837e-07
0.00327444
3.53525e-07
0.00327415
3.38123e-07
0.00327386
3.25458e-07
0.00327358
3.0829e-07
0.0032733
3.24179e-07
0.00327303
3.8278e-07
0.00327278
4.44934e-07
0.00327254
4.66356e-07
0.00327229
4.34975e-07
0.00327204
3.90224e-07
0.00327179
3.92359e-07
0.00327155
4.4268e-07
0.00327133
4.89993e-07
0.00327111
5.12296e-07
0.0032709
5.42272e-07
0.0032707
5.83998e-07
0.00327052
6.18072e-07
0.00327034
6.12883e-07
0.00327015
6.094e-07
0.00326999
6.117e-07
0.00326982
6.88613e-07
0.0032697
7.38423e-07
0.00326954
8.4808e-07
0.00326946
8.2173e-07
0.00326929
9.60676e-07
0.0032693
8.35408e-07
0.00326905
1.10267e-06
0.0032692
7.73671e-07
0.00326884
1.32091e-06
8.24878e-07
0.00930299
0.000165021
0.00911423
4.90774e-05
0.00896691
4.57035e-05
0.00886585
5.97692e-06
0.00879502
-5.29381e-06
0.00874039
-2.31452e-06
0.00869942
-1.09385e-06
0.00867037
-2.25723e-06
0.0086504
-3.17004e-06
0.00863691
-2.46208e-06
0.0086276
-3.89806e-07
0.00862116
7.2819e-07
0.00861638
1.94992e-06
0.00861273
2.95321e-06
0.00860964
3.78805e-06
0.00860695
4.81373e-06
0.00860436
4.82321e-06
0.00860178
4.32104e-06
0.00859919
3.73652e-06
0.00859664
3.34679e-06
0.00859407
2.95013e-06
0.0085915
2.82897e-06
0.00858905
3.24671e-06
0.00858667
3.21316e-06
0.00858426
2.67335e-06
0.00858191
2.25453e-06
0.00857961
1.97562e-06
0.00857736
2.05835e-06
0.00857524
2.54071e-06
0.00857319
2.77145e-06
0.00857116
2.6657e-06
0.00856919
2.51418e-06
0.0085673
2.44174e-06
0.00856542
2.09715e-06
0.00856357
2.05598e-06
0.00856182
2.39311e-06
0.00856013
2.6266e-06
0.00855848
2.55321e-06
0.00855685
2.28782e-06
0.00855522
1.95498e-06
0.00855362
1.92897e-06
0.00855211
2.28638e-06
0.00855064
2.45306e-06
0.00854917
2.28153e-06
0.00854773
2.18138e-06
0.00854634
2.11728e-06
0.00854496
1.81562e-06
0.00854358
1.52118e-06
0.00854223
1.49522e-06
0.00854092
1.68479e-06
0.00853965
1.96021e-06
0.00853842
2.03866e-06
0.00853718
1.75473e-06
0.00853593
1.43205e-06
0.00853471
1.37449e-06
0.00853352
1.42846e-06
0.00853233
1.5033e-06
0.00853118
1.71722e-06
0.00853006
1.92776e-06
0.00852896
1.88859e-06
0.00852786
1.63232e-06
0.00852675
1.35453e-06
0.00852565
1.23625e-06
0.00852458
1.36375e-06
0.00852354
1.59042e-06
0.00852251
1.65949e-06
0.00852149
1.56153e-06
0.00852047
1.45788e-06
0.00851947
1.36008e-06
0.00851847
1.23434e-06
0.00851748
1.17892e-06
0.00851651
1.262e-06
0.00851556
1.41409e-06
0.00851463
1.51538e-06
0.0085137
1.46039e-06
0.00851277
1.25605e-06
0.00851184
1.09143e-06
0.00851092
1.1172e-06
0.00851003
1.22497e-06
0.00850915
1.26412e-06
0.00850827
1.28017e-06
0.00850741
1.32826e-06
0.00850657
1.33022e-06
0.00850573
1.23643e-06
0.00850489
1.101e-06
0.00850406
1.01449e-06
0.00850324
1.05999e-06
0.00850244
1.21319e-06
0.00850166
1.30907e-06
0.00850088
1.25958e-06
0.00850011
1.1716e-06
0.00849935
1.13411e-06
0.00849861
1.1016e-06
0.00849788
1.05972e-06
0.00849715
1.08203e-06
0.00849645
1.18779e-06
0.00849577
1.30028e-06
0.00849511
1.33296e-06
0.00849445
1.26173e-06
0.0084938
1.16391e-06
0.00849316
1.15666e-06
0.00849254
1.24369e-06
0.00849195
1.32352e-06
0.00849137
1.35523e-06
0.00849081
1.39947e-06
0.00849028
1.4691e-06
0.00848977
1.51874e-06
0.00848928
1.49746e-06
0.00848881
1.46906e-06
0.00848836
1.46561e-06
0.00848794
1.58629e-06
0.00848756
1.68416e-06
0.00848719
1.85388e-06
0.00848688
1.82165e-06
0.00848655
2.01889e-06
0.00848633
1.83192e-06
0.00848601
2.22211e-06
0.00848593
1.71834e-06
0.0084856
2.53492e-06
1.76129e-06
0.013838
0.00055856
0.0135258
0.000274039
0.013325
0.000174927
0.0131923
8.06119e-05
0.0131048
3.62729e-05
0.0130426
2.45094e-05
0.0129983
1.68264e-05
0.0129678
8.82222e-06
0.0129471
3.44187e-06
0.0129327
2.17546e-06
0.0129226
3.51139e-06
0.0129153
4.2463e-06
0.0129097
5.43618e-06
0.012905
6.71824e-06
0.0129008
7.79139e-06
0.012897
9.2513e-06
0.0128932
9.26782e-06
0.0128894
8.54153e-06
0.0128857
7.67886e-06
0.0128819
7.11417e-06
0.0128782
6.44476e-06
0.0128745
6.21132e-06
0.012871
6.75038e-06
0.0128675
6.64584e-06
0.0128641
5.82542e-06
0.0128607
5.17327e-06
0.0128575
4.7325e-06
0.0128543
4.80192e-06
0.0128512
5.45412e-06
0.0128483
5.73736e-06
0.0128454
5.52869e-06
0.0128425
5.27026e-06
0.0128398
5.10753e-06
0.0128371
4.56857e-06
0.0128345
4.45663e-06
0.012832
4.89968e-06
0.0128296
5.19758e-06
0.0128272
5.05801e-06
0.0128248
4.64705e-06
0.0128225
4.13998e-06
0.0128202
4.07329e-06
0.012818
4.55865e-06
0.0128159
4.77269e-06
0.0128138
4.50281e-06
0.0128117
4.33651e-06
0.0128097
4.22349e-06
0.0128077
3.7705e-06
0.0128057
3.32821e-06
0.0128038
3.27098e-06
0.0128019
3.52347e-06
0.0128
3.90016e-06
0.0127982
3.99636e-06
0.0127964
3.57348e-06
0.0127946
3.09506e-06
0.0127928
2.99681e-06
0.0127911
3.05922e-06
0.0127894
3.15166e-06
0.0127877
3.44398e-06
0.0127861
3.73246e-06
0.0127845
3.664e-06
0.0127829
3.2846e-06
0.0127813
2.87449e-06
0.0127797
2.69242e-06
0.0127781
2.86308e-06
0.0127766
3.17673e-06
0.0127751
3.26494e-06
0.0127736
3.11384e-06
0.0127721
2.95493e-06
0.0127707
2.8047e-06
0.0127692
2.61442e-06
0.0127678
2.52485e-06
0.0127664
2.63402e-06
0.012765
2.84236e-06
0.0127636
2.97848e-06
0.0127623
2.89108e-06
0.0127609
2.58941e-06
0.0127596
2.34426e-06
0.0127582
2.37221e-06
0.0127569
2.51816e-06
0.0127557
2.56563e-06
0.0127544
2.57992e-06
0.0127531
2.64048e-06
0.0127519
2.63518e-06
0.0127507
2.49257e-06
0.0127494
2.29009e-06
0.0127482
2.15726e-06
0.012747
2.21351e-06
0.0127459
2.42437e-06
0.0127447
2.55312e-06
0.0127436
2.47319e-06
0.0127425
2.33785e-06
0.0127413
2.27478e-06
0.0127403
2.21841e-06
0.0127392
2.14799e-06
0.0127381
2.16915e-06
0.0127371
2.30976e-06
0.0127361
2.45971e-06
0.0127351
2.49512e-06
0.0127341
2.38076e-06
0.0127331
2.22776e-06
0.0127322
2.20347e-06
0.0127313
2.31452e-06
0.0127304
2.41349e-06
0.0127295
2.44446e-06
0.0127287
2.49036e-06
0.0127279
2.57587e-06
0.0127271
2.62623e-06
0.0127263
2.58262e-06
0.0127256
2.51504e-06
0.0127249
2.50166e-06
0.0127243
2.63689e-06
0.0127237
2.78099e-06
0.0127231
2.96486e-06
0.0127226
2.95071e-06
0.0127221
3.12772e-06
0.0127217
2.95635e-06
0.0127213
3.30261e-06
0.0127209
2.8355e-06
0.0127206
3.59235e-06
2.91456e-06
0.0173671
0.000670654
0.0170906
0.000484254
0.016898
0.000314375
0.0167751
0.000159787
0.016704
7.25669e-05
0.0166618
3.97545e-05
0.0166367
2.17071e-05
0.0166213
9.42747e-06
0.0166113
2.62257e-06
0.0166045
1.40436e-06
0.0165993
3.75472e-06
0.0165949
5.7442e-06
0.0165908
7.93009e-06
0.0165868
1.01313e-05
0.0165827
1.18343e-05
0.0165787
1.38999e-05
0.0165745
1.40677e-05
0.0165703
1.32294e-05
0.0165661
1.2165e-05
0.0165619
1.1433e-05
0.0165577
1.05389e-05
0.0165537
1.0151e-05
0.0165497
1.07266e-05
0.0165458
1.05074e-05
0.016542
9.4213e-06
0.0165383
8.54799e-06
0.0165347
7.96699e-06
0.0165312
8.00881e-06
0.0165278
8.77843e-06
0.0165245
9.08789e-06
0.0165213
8.77682e-06
0.0165181
8.41033e-06
0.016515
8.15549e-06
0.016512
7.42274e-06
0.0165091
7.23959e-06
0.0165062
7.74864e-06
0.0165035
8.07615e-06
0.0165007
7.86951e-06
0.0164981
7.32862e-06
0.0164954
6.66931e-06
0.0164928
6.55706e-06
0.0164903
7.13286e-06
0.0164879
7.3739e-06
0.0164854
7.0144e-06
0.016483
6.78488e-06
0.0164807
6.62327e-06
0.0164784
6.03917e-06
0.0164761
5.4681e-06
0.0164739
5.37639e-06
0.0164717
5.67014e-06
0.0164696
6.11919e-06
0.0164675
6.22178e-06
0.0164654
5.67948e-06
0.0164633
5.06737e-06
0.0164612
4.92846e-06
0.0164592
4.99005e-06
0.0164572
5.08892e-06
0.0164553
5.43663e-06
0.0164534
5.78067e-06
0.0164515
5.6822e-06
0.0164496
5.1975e-06
0.0164477
4.67413e-06
0.0164459
4.43375e-06
0.0164441
4.63263e-06
0.0164423
5.01002e-06
0.0164405
5.1076e-06
0.0164388
4.90774e-06
0.0164371
4.69856e-06
0.0164354
4.50045e-06
0.0164337
4.25229e-06
0.016432
4.12934e-06
0.0164303
4.25391e-06
0.0164287
4.50195e-06
0.0164271
4.66086e-06
0.0164255
4.54248e-06
0.016424
4.15723e-06
0.0164224
3.84161e-06
0.0164208
3.86615e-06
0.0164193
4.03797e-06
0.0164178
4.08704e-06
0.0164163
4.09482e-06
0.0164148
4.16058e-06
0.0164134
4.14481e-06
0.0164119
3.95817e-06
0.0164105
3.69667e-06
0.0164091
3.52135e-06
0.0164077
3.58128e-06
0.0164063
3.83377e-06
0.0164049
3.98421e-06
0.0164036
3.87481e-06
0.0164023
3.69624e-06
0.0164009
3.60749e-06
0.0163997
3.52658e-06
0.0163984
3.42753e-06
0.0163971
3.44208e-06
0.0163959
3.60512e-06
0.0163947
3.77945e-06
0.0163935
3.81123e-06
0.0163923
3.65581e-06
0.0163912
3.45165e-06
0.0163901
3.4065e-06
0.016389
3.53007e-06
0.0163879
3.63675e-06
0.0163868
3.65977e-06
0.0163858
3.69827e-06
0.0163849
3.78934e-06
0.0163839
3.83002e-06
0.016383
3.76149e-06
0.0163821
3.64901e-06
0.0163813
3.62267e-06
0.0163805
3.75137e-06
0.0163797
3.93357e-06
0.016379
4.09966e-06
0.0163784
4.11571e-06
0.0163778
4.21903e-06
0.0163772
4.11803e-06
0.0163768
4.29054e-06
0.0163762
4.0292e-06
0.016376
4.47041e-06
4.28122e-06
0.0192222
0.000180622
0.019419
0.000246704
0.0194933
0.000208407
0.0195079
0.00011844
0.0195143
4.48581e-05
0.0195291
8.2764e-06
0.0195473
-8.9818e-06
0.0195635
-1.59174e-05
0.0195754
-1.59144e-05
0.0195826
-1.06436e-05
0.019586
-2.69477e-06
0.0195865
3.57722e-06
0.019585
8.43371e-06
0.0195824
1.24814e-05
0.019579
1.52315e-05
0.0195754
1.79431e-05
0.0195717
1.82969e-05
0.0195679
1.73925e-05
0.0195642
1.61429e-05
0.0195606
1.5251e-05
0.0195571
1.41416e-05
0.0195536
1.35799e-05
0.0195504
1.40947e-05
0.0195472
1.3754e-05
0.0195441
1.24424e-05
0.019541
1.13912e-05
0.0195381
1.07136e-05
0.0195352
1.07304e-05
0.0195324
1.1585e-05
0.0195296
1.19097e-05
0.0195269
1.15318e-05
0.0195243
1.1095e-05
0.0195217
1.07637e-05
0.0195191
9.89966e-06
0.0195166
9.65475e-06
0.0195142
1.02037e-05
0.0195118
1.05488e-05
0.0195094
1.02948e-05
0.0195071
9.66643e-06
0.0195048
8.90442e-06
0.0195025
8.76004e-06
0.0195003
9.39569e-06
0.0194981
9.65428e-06
0.0194959
9.23277e-06
0.0194938
8.95911e-06
0.0194917
8.7636e-06
0.0194897
8.08847e-06
0.0194876
7.42675e-06
0.0194856
7.30908e-06
0.0194836
7.62805e-06
0.0194816
8.12324e-06
0.0194797
8.22786e-06
0.0194778
7.60162e-06
0.0194759
6.89442e-06
0.019474
6.72446e-06
0.0194722
6.78232e-06
0.0194704
6.88196e-06
0.0194686
7.26361e-06
0.0194668
7.64208e-06
0.019465
7.52011e-06
0.0194633
6.96044e-06
0.0194616
6.35557e-06
0.0194599
6.07119e-06
0.0194582
6.28576e-06
0.0194565
6.70317e-06
0.0194549
6.80359e-06
0.0194533
6.56671e-06
0.0194517
6.31954e-06
0.0194501
6.08506e-06
0.0194485
5.79321e-06
0.0194469
5.64345e-06
0.0194454
5.77492e-06
0.0194439
6.04645e-06
0.0194424
6.21748e-06
0.0194409
6.07469e-06
0.0194394
5.62836e-06
0.0194379
5.26009e-06
0.0194365
5.27874e-06
0.019435
5.46498e-06
0.0194336
5.51149e-06
0.0194322
5.51103e-06
0.0194308
5.57694e-06
0.0194295
5.5507e-06
0.0194281
5.33036e-06
0.0194268
5.0244e-06
0.0194254
4.81589e-06
0.0194241
4.87474e-06
0.0194228
5.15243e-06
0.0194215
5.31436e-06
0.0194203
5.18099e-06
0.019419
4.96877e-06
0.0194178
4.85853e-06
0.0194165
4.7567e-06
0.0194153
4.63358e-06
0.0194142
4.63931e-06
0.019413
4.81358e-06
0.0194119
5.00041e-06
0.0194107
5.0253e-06
0.0194096
4.83679e-06
0.0194085
4.59195e-06
0.0194075
4.52691e-06
0.0194064
4.65378e-06
0.0194054
4.75993e-06
0.0194044
4.7715e-06
0.0194035
4.79816e-06
0.0194025
4.88707e-06
0.0194016
4.91321e-06
0.0194008
4.82144e-06
0.0193999
4.66729e-06
0.0193991
4.62779e-06
0.0193984
4.73623e-06
0.0193977
4.94763e-06
0.019397
5.07179e-06
0.0193964
5.13188e-06
0.0193958
5.11625e-06
0.0193953
5.14193e-06
0.0193949
5.02838e-06
0.0193943
5.12456e-06
0.0193943
5.02962e-06
5.70776e-06
0.019584
-0.000518123
0.0201548
-0.000337226
0.0206527
-0.000298318
0.0210158
-0.000252611
0.0212523
-0.000198139
0.0214015
-0.000146329
0.0214899
-0.000101516
0.0215383
-6.71291e-05
0.0215618
-4.14774e-05
0.0215706
-2.11007e-05
0.0215714
-4.41073e-06
0.0215681
6.54481e-06
0.0215631
1.31292e-05
0.0215577
1.78353e-05
0.0215526
2.04456e-05
0.0215482
2.2531e-05
0.0215444
2.22282e-05
0.0215413
2.06558e-05
0.0215388
1.88228e-05
0.0215367
1.74945e-05
0.0215349
1.60257e-05
0.0215334
1.51966e-05
0.0215321
1.55526e-05
0.0215309
1.50874e-05
0.0215297
1.36185e-05
0.0215286
1.24899e-05
0.0215275
1.17734e-05
0.0215264
1.18043e-05
0.0215253
1.27334e-05
0.0215242
1.31015e-05
0.0215231
1.2742e-05
0.0215219
1.23042e-05
0.0215208
1.19801e-05
0.0215196
1.10726e-05
0.0215184
1.08238e-05
0.0215172
1.14105e-05
0.021516
1.17786e-05
0.0215148
1.15208e-05
0.0215136
1.08731e-05
0.0215124
1.00842e-05
0.0215112
9.94004e-06
0.02151
1.06145e-05
0.0215088
1.08931e-05
0.0215076
1.04558e-05
0.0215064
1.01732e-05
0.0215052
9.97289e-06
0.0215041
9.26587e-06
0.0215029
8.57026e-06
0.0215017
8.44729e-06
0.0215005
8.78267e-06
0.0214994
9.30266e-06
0.0214982
9.41307e-06
0.0214971
8.75381e-06
0.0214959
8.00642e-06
0.0214948
7.82514e-06
0.0214937
7.88373e-06
0.0214926
7.98524e-06
0.0214915
8.38301e-06
0.0214904
8.7779e-06
0.0214893
8.64699e-06
0.0214882
8.05495e-06
0.0214871
7.41305e-06
0.0214861
7.10829e-06
0.021485
7.32984e-06
0.021484
7.76508e-06
0.0214829
7.86638e-06
0.0214819
7.61213e-06
0.0214809
7.34711e-06
0.0214798
7.09534e-06
0.0214788
6.78211e-06
0.0214778
6.61857e-06
0.0214769
6.7519e-06
0.0214759
7.03267e-06
0.0214749
7.20794e-06
0.021474
7.05308e-06
0.021473
6.57704e-06
0.0214721
6.18213e-06
0.0214711
6.19634e-06
0.0214702
6.38768e-06
0.0214693
6.43097e-06
0.0214684
6.42455e-06
0.0214675
6.48868e-06
0.0214666
6.45595e-06
0.0214657
6.21809e-06
0.0214648
5.88897e-06
0.021464
5.66232e-06
0.0214631
5.71824e-06
0.0214623
6.00535e-06
0.0214614
6.17028e-06
0.0214606
6.02319e-06
0.0214598
5.79242e-06
0.021459
5.6692e-06
0.0214582
5.55436e-06
0.0214574
5.4163e-06
0.0214567
5.41429e-06
0.0214559
5.5901e-06
0.0214552
5.77904e-06
0.0214545
5.7967e-06
0.0214538
5.5884e-06
0.0214531
5.31905e-06
0.0214524
5.2395e-06
0.0214517
5.36221e-06
0.0214511
5.46281e-06
0.0214505
5.46207e-06
0.0214499
5.47722e-06
0.0214493
5.55737e-06
0.0214488
5.57006e-06
0.0214483
5.45869e-06
0.0214478
5.27579e-06
0.0214473
5.22271e-06
0.0214469
5.3068e-06
0.0214465
5.53301e-06
0.0214462
5.60541e-06
0.0214458
5.71215e-06
0.0214456
5.56256e-06
0.0214453
5.7374e-06
0.0214454
5.30138e-06
0.021445
5.80811e-06
0.0214453
5.10773e-06
6.77603e-06
0.0195858
-0.00118376
0.0201585
-0.000895053
0.0206582
-0.000784348
0.0210218
-0.000605552
0.0212608
-0.000428821
0.0214135
-0.000293126
0.0215064
-0.00018997
0.0215591
-0.000116258
0.0215866
-6.64655e-05
0.0215992
-3.2081e-05
0.0216036
-7.55201e-06
0.0216036
7.46622e-06
0.0216018
1.53291e-05
0.0215994
2.04257e-05
0.0215972
2.27294e-05
0.0215955
2.40878e-05
0.0215945
2.31351e-05
0.0215939
2.10464e-05
0.0215939
1.88002e-05
0.0215942
1.71633e-05
0.0215948
1.55208e-05
0.0215956
1.45619e-05
0.0215965
1.47811e-05
0.0215974
1.42793e-05
0.0215984
1.27883e-05
0.0215993
1.16884e-05
0.0216002
1.10186e-05
0.021601
1.1083e-05
0.0216018
1.2038e-05
0.0216025
1.24648e-05
0.0216032
1.21707e-05
0.0216037
1.17997e-05
0.0216043
1.15239e-05
0.0216048
1.06709e-05
0.0216052
1.04596e-05
0.0216056
1.10636e-05
0.0216059
1.14463e-05
0.0216062
1.12222e-05
0.0216064
1.06179e-05
0.0216067
9.87486e-06
0.0216069
9.75833e-06
0.021607
1.04402e-05
0.0216072
1.07333e-05
0.0216073
1.0325e-05
0.0216074
1.00669e-05
0.0216075
9.88877e-06
0.0216075
9.21172e-06
0.0216076
8.54278e-06
0.0216076
8.43463e-06
0.0216076
8.774e-06
0.0216076
9.2925e-06
0.0216076
9.41047e-06
0.0216076
8.77354e-06
0.0216076
8.04721e-06
0.0216075
7.87613e-06
0.0216075
7.93975e-06
0.0216074
8.04417e-06
0.0216074
8.43799e-06
0.0216073
8.82874e-06
0.0216072
8.70513e-06
0.0216072
8.12883e-06
0.0216071
7.50119e-06
0.021607
7.20394e-06
0.0216069
7.42358e-06
0.0216068
7.85228e-06
0.0216067
7.9531e-06
0.0216066
7.70487e-06
0.0216065
7.446e-06
0.0216064
7.1998e-06
0.0216063
6.89217e-06
0.0216062
6.73138e-06
0.0216061
6.86243e-06
0.021606
7.13782e-06
0.0216059
7.30975e-06
0.0216058
7.15814e-06
0.0216057
6.68978e-06
0.0216056
6.30005e-06
0.0216055
6.31327e-06
0.0216053
6.50062e-06
0.0216052
6.54175e-06
0.0216051
6.5338e-06
0.021605
6.59558e-06
0.0216049
6.56236e-06
0.0216048
6.32702e-06
0.0216047
6.001e-06
0.0216046
5.77542e-06
0.0216045
5.82812e-06
0.0216044
6.10812e-06
0.0216043
6.26775e-06
0.0216042
6.12017e-06
0.0216041
5.88972e-06
0.021604
5.76487e-06
0.0216039
5.64772e-06
0.0216038
5.50701e-06
0.0216038
5.50017e-06
0.0216037
5.66803e-06
0.0216036
5.84844e-06
0.0216036
5.85996e-06
0.0216036
5.64847e-06
0.0216035
5.37535e-06
0.0216035
5.28895e-06
0.0216035
5.40129e-06
0.0216035
5.49154e-06
0.0216035
5.48062e-06
0.0216036
5.48508e-06
0.0216036
5.55286e-06
0.0216037
5.55314e-06
0.0216038
5.43159e-06
0.0216039
5.23481e-06
0.0216041
5.1729e-06
0.0216042
5.23053e-06
0.0216044
5.45503e-06
0.0216047
5.47813e-06
0.0216049
5.61657e-06
0.0216053
5.36353e-06
0.0216055
5.64568e-06
0.021606
4.98109e-06
0.0216063
5.76708e-06
0.021607
4.65123e-06
6.94007e-06
0.0192326
-0.001577
0.0194376
-0.00105829
0.0195242
-0.000835923
0.0195441
-0.000597573
0.0195554
-0.000417818
0.019577
-0.000298019
0.0196044
-0.000204883
0.019631
-0.000133406
0.0196537
-8.22788e-05
0.0196716
-4.5329e-05
0.0196853
-1.82168e-05
0.0196956
-8.86563e-07
0.0197035
8.40884e-06
0.0197097
1.46031e-05
0.0197148
1.76983e-05
0.0197191
1.93711e-05
0.019723
1.87929e-05
0.0197266
1.7073e-05
0.01973
1.51713e-05
0.0197332
1.37733e-05
0.0197363
1.24435e-05
0.0197394
1.16581e-05
0.0197423
1.18876e-05
0.0197451
1.15012e-05
0.0197479
1.01777e-05
0.0197506
9.24723e-06
0.0197532
8.69876e-06
0.0197557
8.80591e-06
0.0197581
9.70089e-06
0.0197605
1.01676e-05
0.0197627
9.94955e-06
0.019765
9.66629e-06
0.0197671
9.45832e-06
0.0197692
8.7215e-06
0.0197712
8.5645e-06
0.0197731
9.14517e-06
0.019775
9.51728e-06
0.0197768
9.34829e-06
0.0197786
8.83318e-06
0.0197804
8.19348e-06
0.0197821
8.11835e-06
0.0197837
8.76263e-06
0.0197853
9.05332e-06
0.0197869
8.70886e-06
0.0197884
8.49934e-06
0.0197899
8.36166e-06
0.0197914
7.76963e-06
0.0197928
7.18239e-06
0.0197942
7.10304e-06
0.0197956
7.42785e-06
0.0197969
7.91294e-06
0.0197982
8.03553e-06
0.0197995
7.47328e-06
0.0198008
6.82758e-06
0.0198021
6.68547e-06
0.0198033
6.75551e-06
0.0198045
6.8614e-06
0.0198057
7.22858e-06
0.0198069
7.59228e-06
0.019808
7.49083e-06
0.0198092
6.97816e-06
0.0198103
6.4169e-06
0.0198114
6.1552e-06
0.0198125
6.36284e-06
0.0198136
6.75925e-06
0.0198146
6.85781e-06
0.0198156
6.63952e-06
0.0198167
6.41146e-06
0.0198177
6.19452e-06
0.0198187
5.92083e-06
0.0198197
5.78035e-06
0.0198206
5.9051e-06
0.0198216
6.16037e-06
0.0198225
6.32163e-06
0.0198235
6.18955e-06
0.0198244
5.76866e-06
0.0198253
5.41839e-06
0.0198262
5.43499e-06
0.0198271
5.60968e-06
0.019828
5.65077e-06
0.0198289
5.64707e-06
0.0198297
5.70696e-06
0.0198306
5.68061e-06
0.0198314
5.47003e-06
0.0198323
5.17617e-06
0.0198331
4.97345e-06
0.019834
5.02408e-06
0.0198348
5.28118e-06
0.0198356
5.42846e-06
0.0198364
5.29608e-06
0.0198372
5.08781e-06
0.019838
4.97537e-06
0.0198388
4.86942e-06
0.0198396
4.74153e-06
0.0198404
4.73539e-06
0.0198412
4.88794e-06
0.019842
5.05134e-06
0.0198428
5.06091e-06
0.0198435
4.86678e-06
0.0198443
4.61558e-06
0.0198451
4.53386e-06
0.0198459
4.63339e-06
0.0198467
4.71164e-06
0.0198475
4.69779e-06
0.0198483
4.69605e-06
0.0198492
4.75357e-06
0.01985
4.74598e-06
0.0198508
4.63135e-06
0.0198517
4.44002e-06
0.0198526
4.38215e-06
0.0198535
4.41576e-06
0.0198543
4.62674e-06
0.0198553
4.61399e-06
0.0198562
4.76516e-06
0.0198572
4.4678e-06
0.0198582
4.794e-06
0.0198592
4.05009e-06
0.0198603
4.93224e-06
0.0198614
3.66246e-06
6.06504e-06
0.0173938
-0.00131129
0.0171456
-0.000743987
0.0169712
-0.000607908
0.0168568
-0.000439737
0.0167921
-0.000318654
0.016759
-0.000238348
0.0167448
-0.000170926
0.0167417
-0.000115686
0.016745
-7.49206e-05
0.0167515
-4.4474e-05
0.0167594
-2.14971e-05
0.0167675
-6.22438e-06
0.0167754
2.04017e-06
0.0167827
7.85268e-06
0.0167894
1.09756e-05
0.0167954
1.27731e-05
0.016801
1.25758e-05
0.0168062
1.14047e-05
0.016811
1.0035e-05