/*--------------------------------*- C++ -*----------------------------------*\
  =========                 |
  \\      /  F ield         | OpenFOAM: The Open Source CFD Toolbox
   \\    /   O peration     | Website:  https://openfoam.org
    \\  /    A nd           | Version:  7
     \\/     M anipulation  |
\*---------------------------------------------------------------------------*/
FoamFile
{
    version     2.0;
    format      ascii;
    class       surfaceScalarField;
    location    "0.045";
    object      phi_0;
}
// * * * * * * * * * * * * * * * * * * * * * * * * * * * * * * * * * * * * * //

dimensions      [1 0 -1 0 0 0 0];

internalField   nonuniform List<scalar> 
2748
(
1.03867e-05
5.02663e-08
1.02476e-05
1.39175e-07
1.00335e-05
2.14085e-07
9.75824e-06
2.75298e-07
9.43573e-06
3.22535e-07
9.0805e-06
3.55257e-07
8.70604e-06
3.74472e-07
8.32395e-06
3.82104e-07
7.94318e-06
3.80786e-07
7.57072e-06
3.72465e-07
7.21165e-06
3.59073e-07
6.86922e-06
3.42427e-07
6.54627e-06
3.22945e-07
6.24424e-06
3.02027e-07
5.96349e-06
2.8074e-07
5.70408e-06
2.59418e-07
5.46561e-06
2.38472e-07
5.24741e-06
2.18228e-07
5.04854e-06
1.98917e-07
4.86791e-06
1.80697e-07
4.70432e-06
1.63658e-07
4.55653e-06
1.47852e-07
4.42328e-06
1.33288e-07
4.30332e-06
1.19952e-07
4.19546e-06
1.07814e-07
4.09858e-06
9.68235e-08
4.01159e-06
8.69234e-08
3.93353e-06
7.80479e-08
3.86346e-06
7.01241e-08
3.80051e-06
6.30734e-08
3.74384e-06
5.68147e-08
3.6927e-06
5.12661e-08
3.64637e-06
4.63503e-08
3.60426e-06
4.20006e-08
3.56589e-06
3.81632e-08
3.53089e-06
3.47932e-08
3.49897e-06
3.18491e-08
3.46981e-06
2.92893e-08
3.44309e-06
2.70666e-08
3.41838e-06
2.51239e-08
3.39521e-06
2.34009e-08
3.37318e-06
2.18515e-08
3.35215e-06
2.04614e-08
3.33228e-06
1.92443e-08
3.31382e-06
1.82172e-08
3.29681e-06
1.73724e-08
3.28094e-06
1.66696e-08
3.26568e-06
1.60511e-08
3.25058e-06
1.54683e-08
3.23544e-06
1.49018e-08
3.22035e-06
1.43619e-08
3.20554e-06
1.38744e-08
3.19126e-06
1.3464e-08
3.17766e-06
1.31461e-08
3.16485e-06
1.29272e-08
3.15289e-06
1.28072e-08
3.14182e-06
1.27809e-08
3.13163e-06
1.28367e-08
3.12222e-06
1.29547e-08
3.11343e-06
1.3108e-08
3.10505e-06
1.32668e-08
3.09688e-06
1.34033e-08
3.08875e-06
1.34967e-08
3.08059e-06
1.35357e-08
3.07235e-06
1.35178e-08
3.06408e-06
1.34481e-08
3.05583e-06
1.33356e-08
3.04765e-06
1.31915e-08
3.03961e-06
1.30272e-08
3.03175e-06
1.28527e-08
3.02409e-06
1.26765e-08
3.01664e-06
1.25055e-08
3.00941e-06
1.23448e-08
3.00238e-06
1.21977e-08
2.99555e-06
1.20663e-08
2.98889e-06
1.19513e-08
2.9824e-06
1.18523e-08
2.97605e-06
1.17679e-08
2.96983e-06
1.16956e-08
2.96374e-06
1.16324e-08
2.95775e-06
1.15748e-08
2.95188e-06
1.15194e-08
2.94611e-06
1.14631e-08
2.94045e-06
1.14033e-08
2.93489e-06
1.13374e-08
2.92944e-06
1.12633e-08
2.92409e-06
1.118e-08
2.91885e-06
1.10877e-08
2.91373e-06
1.09881e-08
2.9087e-06
1.08829e-08
2.90379e-06
1.07739e-08
2.89897e-06
1.06619e-08
2.89425e-06
1.05476e-08
2.88963e-06
1.04319e-08
2.88511e-06
1.03164e-08
2.88069e-06
1.0202e-08
2.87637e-06
1.00895e-08
2.87215e-06
9.97701e-09
2.86804e-06
9.86178e-09
2.86404e-06
9.73897e-09
2.86017e-06
9.60512e-09
2.85644e-06
9.45647e-09
2.85288e-06
9.29291e-09
2.84948e-06
9.11337e-09
2.84627e-06
8.92069e-09
2.84324e-06
8.71144e-09
2.8404e-06
8.48784e-09
2.83777e-06
8.2392e-09
2.83535e-06
7.97088e-09
2.83316e-06
7.66806e-09
2.83121e-06
7.35325e-09
2.82955e-06
7.00712e-09
2.82814e-06
6.6823e-09
2.82702e-06
6.33139e-09
2.82614e-06
6.05171e-09
2.82554e-06
5.71807e-09
2.8251e-06
5.521e-09
2.82496e-06
5.16946e-09
2.8249e-06
5.06372e-09
4.57881e-09
1.04564e-05
3.07192e-08
1.05029e-05
9.26784e-08
1.05676e-05
1.49366e-07
1.06432e-05
1.99778e-07
1.07213e-05
2.444e-07
1.07941e-05
2.82467e-07
1.08557e-05
3.12926e-07
1.09025e-05
3.35351e-07
1.09331e-05
3.50199e-07
1.09473e-05
3.58289e-07
1.09458e-05
3.60535e-07
1.09303e-05
3.57916e-07
1.0902e-05
3.51236e-07
1.08627e-05
3.41368e-07
1.08143e-05
3.29116e-07
1.07586e-05
3.15119e-07
1.06971e-05
2.99948e-07
1.06313e-05
2.84097e-07
1.05622e-05
2.67987e-07
1.04909e-05
2.51957e-07
1.04183e-05
2.36267e-07
1.03451e-05
2.21123e-07
1.02717e-05
2.06665e-07
1.01987e-05
1.92993e-07
1.01264e-05
1.80174e-07
1.0055e-05
1.68242e-07
9.98479e-06
1.57206e-07
9.91583e-06
1.47054e-07
9.84825e-06
1.37758e-07
9.7821e-06
1.29273e-07
9.71742e-06
1.21549e-07
9.65421e-06
1.14528e-07
9.59244e-06
1.08152e-07
9.5321e-06
1.02369e-07
9.47315e-06
9.71287e-08
9.41554e-06
9.23874e-08
9.35926e-06
8.8101e-08
9.30429e-06
8.42243e-08
9.2506e-06
8.071e-08
9.19818e-06
7.75081e-08
9.14698e-06
7.45725e-08
9.09694e-06
7.18701e-08
9.04799e-06
6.93848e-08
9.00008e-06
6.71102e-08
8.95322e-06
6.50372e-08
8.90742e-06
6.31456e-08
8.8627e-06
6.1408e-08
8.81902e-06
5.97903e-08
8.77632e-06
5.82661e-08
8.73452e-06
5.68235e-08
8.69353e-06
5.54644e-08
8.6533e-06
5.41979e-08
8.61379e-06
5.30342e-08
8.57499e-06
5.19806e-08
8.53688e-06
5.10395e-08
8.49947e-06
5.02083e-08
8.46276e-06
4.94782e-08
8.42678e-06
4.88345e-08
8.39154e-06
4.82566e-08
8.35707e-06
4.77206e-08
8.32338e-06
4.72009e-08
8.29047e-06
4.66738e-08
8.25836e-06
4.61203e-08
8.22702e-06
4.55282e-08
8.19647e-06
4.48919e-08
8.16671e-06
4.42122e-08
8.13772e-06
4.34943e-08
8.10953e-06
4.27465e-08
8.08212e-06
4.19787e-08
8.05549e-06
4.12017e-08
8.02964e-06
4.04258e-08
8.00453e-06
3.96597e-08
7.98016e-06
3.89104e-08
7.95648e-06
3.81831e-08
7.93347e-06
3.74811e-08
7.9111e-06
3.68063e-08
7.88932e-06
3.61589e-08
7.86813e-06
3.55374e-08
7.84751e-06
3.49388e-08
7.82745e-06
3.43586e-08
7.80795e-06
3.37919e-08
7.78902e-06
3.32341e-08
7.77069e-06
3.2681e-08
7.75301e-06
3.2129e-08
7.736e-06
3.15749e-08
7.71968e-06
3.1016e-08
7.70405e-06
3.04513e-08
7.68911e-06
2.98816e-08
7.67485e-06
2.93097e-08
7.66127e-06
2.87392e-08
7.64834e-06
2.81725e-08
7.63603e-06
2.76112e-08
7.62424e-06
2.7055e-08
7.61288e-06
2.65029e-08
7.60187e-06
2.59548e-08
7.59119e-06
2.54105e-08
7.58084e-06
2.48699e-08
7.57085e-06
2.43303e-08
7.56125e-06
2.3786e-08
7.55204e-06
2.32289e-08
7.54321e-06
2.26493e-08
7.53478e-06
2.20402e-08
7.52684e-06
2.13985e-08
7.5195e-06
2.07256e-08
7.51294e-06
2.00285e-08
7.50728e-06
1.93082e-08
7.50262e-06
1.85709e-08
7.49896e-06
1.78047e-08
7.49622e-06
1.70131e-08
7.49425e-06
1.61798e-08
7.49287e-06
1.53239e-08
7.49195e-06
1.44353e-08
7.49137e-06
1.35713e-08
7.49107e-06
1.26984e-08
7.49106e-06
1.19326e-08
7.49137e-06
1.11394e-08
7.49205e-06
1.05576e-08
7.4932e-06
9.79498e-09
7.49467e-06
9.46664e-09
8.63348e-09
1.04455e-05
2.19543e-08
1.04721e-05
6.60855e-08
1.05143e-05
1.07141e-07
1.05704e-05
1.43747e-07
1.06391e-05
1.75726e-07
1.07186e-05
2.02986e-07
1.08063e-05
2.25218e-07
1.08995e-05
2.42243e-07
1.09954e-05
2.54282e-07
1.10918e-05
2.61884e-07
1.11867e-05
2.65635e-07
1.12785e-05
2.66109e-07
1.13659e-05
2.63833e-07
1.14481e-05
2.59206e-07
1.15246e-05
2.5265e-07
1.15951e-05
2.44607e-07
1.16595e-05
2.35473e-07
1.1718e-05
2.25605e-07
1.17707e-05
2.15322e-07
1.18178e-05
2.04877e-07
1.18596e-05
1.94473e-07
1.18964e-05
1.84275e-07
1.19287e-05
1.74407e-07
1.19567e-05
1.64963e-07
1.19809e-05
1.56012e-07
1.20016e-05
1.47602e-07
1.2019e-05
1.3976e-07
1.20337e-05
1.32495e-07
1.20457e-05
1.25801e-07
1.20554e-05
1.19659e-07
1.2063e-05
1.14042e-07
1.20686e-05
1.0892e-07
1.20726e-05
1.04256e-07
1.2075e-05
1.00016e-07
1.20761e-05
9.61689e-08
1.20758e-05
9.26838e-08
1.20744e-05
8.95306e-08
1.2072e-05
8.66778e-08
1.20686e-05
8.4093e-08
1.20644e-05
8.17433e-08
1.20593e-05
7.95982e-08
1.20535e-05
7.76331e-08
1.2047e-05
7.58322e-08
1.20398e-05
7.41858e-08
1.20321e-05
7.26824e-08
1.20239e-05
7.13077e-08
1.20151e-05
7.00602e-08
1.20059e-05
6.89127e-08
1.19963e-05
6.78448e-08
1.19862e-05
6.68452e-08
1.19757e-05
6.59125e-08
1.19648e-05
6.50523e-08
1.19536e-05
6.4273e-08
1.19421e-05
6.35812e-08
1.19302e-05
6.29804e-08
1.1918e-05
6.24685e-08
1.19056e-05
6.20374e-08
1.18929e-05
6.16733e-08
1.188e-05
6.13585e-08
1.18668e-05
6.10718e-08
1.18534e-05
6.07899e-08
1.18397e-05
6.04906e-08
1.18258e-05
6.01553e-08
1.18117e-05
5.97713e-08
1.17974e-05
5.9332e-08
1.17828e-05
5.8836e-08
1.17681e-05
5.82861e-08
1.17531e-05
5.76889e-08
1.1738e-05
5.70533e-08
1.17228e-05
5.639e-08
1.17075e-05
5.57098e-08
1.16921e-05
5.50221e-08
1.16766e-05
5.43342e-08
1.16611e-05
5.36518e-08
1.16455e-05
5.29789e-08
1.163e-05
5.23186e-08
1.16146e-05
5.16723e-08
1.15992e-05
5.10395e-08
1.1584e-05
5.04173e-08
1.15689e-05
4.98015e-08
1.15539e-05
4.91877e-08
1.15391e-05
4.85721e-08
1.15245e-05
4.79513e-08
1.15102e-05
4.73217e-08
1.1496e-05
4.66793e-08
1.14821e-05
4.60208e-08
1.14685e-05
4.53452e-08
1.1455e-05
4.46539e-08
1.14418e-05
4.39501e-08
1.14289e-05
4.32372e-08
1.14161e-05
4.25177e-08
1.14036e-05
4.17932e-08
1.13912e-05
4.1064e-08
1.1379e-05
4.03305e-08
1.1367e-05
3.95926e-08
1.13551e-05
3.88505e-08
1.13433e-05
3.81014e-08
1.13316e-05
3.73428e-08
1.13201e-05
3.65678e-08
1.13087e-05
3.5771e-08
1.12974e-05
3.49438e-08
1.12864e-05
3.40779e-08
1.12755e-05
3.31722e-08
1.1265e-05
3.22177e-08
1.12548e-05
3.12306e-08
1.1245e-05
3.01955e-08
1.12358e-05
2.91358e-08
1.12272e-05
2.80217e-08
1.12192e-05
2.68811e-08
1.12119e-05
2.56754e-08
1.12053e-05
2.44736e-08
1.11995e-05
2.31962e-08
1.11946e-05
2.20175e-08
1.11905e-05
2.07235e-08
1.11873e-05
1.96671e-08
1.11846e-05
1.83982e-08
1.11825e-05
1.75533e-08
1.11808e-05
1.62436e-08
1.11793e-05
1.57535e-08
1.41468e-08
1.04443e-05
1.42453e-08
1.04679e-05
4.25301e-08
1.05057e-05
6.93598e-08
1.0556e-05
9.35418e-08
1.06171e-05
1.1466e-07
1.06874e-05
1.32628e-07
1.07653e-05
1.47366e-07
1.08488e-05
1.58798e-07
1.09361e-05
1.67008e-07
1.10257e-05
1.723e-07
1.11163e-05
1.75039e-07
1.12068e-05
1.75602e-07
1.12963e-05
1.74324e-07
1.1384e-05
1.71488e-07
1.14693e-05
1.67385e-07
1.15515e-05
1.62312e-07
1.16305e-05
1.56518e-07
1.17059e-05
1.50222e-07
1.17775e-05
1.43701e-07
1.18453e-05
1.37091e-07
1.19092e-05
1.30517e-07
1.19694e-05
1.24077e-07
1.2026e-05
1.17836e-07
1.20791e-05
1.11848e-07
1.2129e-05
1.0616e-07
1.21758e-05
1.00804e-07
1.22198e-05
9.58013e-08
1.22612e-05
9.11575e-08
1.23002e-05
8.68692e-08
1.2337e-05
8.29271e-08
1.23718e-05
7.93171e-08
1.24048e-05
7.60204e-08
1.24361e-05
7.30161e-08
1.24659e-05
7.02834e-08
1.24944e-05
6.7803e-08
1.25216e-05
6.55569e-08
1.25476e-05
6.35273e-08
1.25727e-05
6.1695e-08
1.25967e-05
6.00403e-08
1.26199e-05
5.85435e-08
1.26423e-05
5.71861e-08
1.2664e-05
5.5952e-08
1.2685e-05
5.48301e-08
1.27053e-05
5.38135e-08
1.2725e-05
5.28979e-08
1.27441e-05
5.20786e-08
1.27627e-05
5.13495e-08
1.27808e-05
5.06966e-08
1.27984e-05
5.01058e-08
1.28156e-05
4.95687e-08
1.28323e-05
4.90842e-08
1.28487e-05
4.86571e-08
1.28646e-05
4.82934e-08
1.28802e-05
4.79979e-08
1.28954e-05
4.7772e-08
1.29103e-05
4.76149e-08
1.29249e-05
4.75193e-08
1.29392e-05
4.7472e-08
1.29533e-05
4.74606e-08
1.29671e-05
4.74682e-08
1.29806e-05
4.74759e-08
1.29939e-05
4.7466e-08
1.30069e-05
4.74237e-08
1.30196e-05
4.73387e-08
1.3032e-05
4.72055e-08
1.30441e-05
4.70223e-08
1.30558e-05
4.67905e-08
1.30671e-05
4.65141e-08
1.30781e-05
4.61995e-08
1.30887e-05
4.58549e-08
1.30989e-05
4.54888e-08
1.31087e-05
4.5109e-08
1.31182e-05
4.47218e-08
1.31272e-05
4.43319e-08
1.3136e-05
4.39427e-08
1.31443e-05
4.3557e-08
1.31524e-05
4.31766e-08
1.31602e-05
4.28016e-08
1.31677e-05
4.24303e-08
1.31749e-05
4.20592e-08
1.31819e-05
4.16846e-08
1.31888e-05
4.13031e-08
1.31955e-05
4.09123e-08
1.3202e-05
4.051e-08
1.32085e-05
4.00939e-08
1.32148e-05
3.96619e-08
1.32211e-05
3.92125e-08
1.32273e-05
3.87459e-08
1.32335e-05
3.82636e-08
1.32396e-05
3.77681e-08
1.32457e-05
3.72619e-08
1.32517e-05
3.67461e-08
1.32576e-05
3.62212e-08
1.32634e-05
3.56865e-08
1.3269e-05
3.51418e-08
1.32745e-05
3.45861e-08
1.32798e-05
3.40177e-08
1.32849e-05
3.34348e-08
1.32897e-05
3.28332e-08
1.32942e-05
3.22086e-08
1.32982e-05
3.15566e-08
1.33018e-05
3.08665e-08
1.33051e-05
3.01433e-08
1.33079e-05
2.93723e-08
1.33103e-05
2.85753e-08
1.33122e-05
2.77358e-08
1.33135e-05
2.68755e-08
1.33144e-05
2.59752e-08
1.33149e-05
2.50498e-08
1.33151e-05
2.4072e-08
1.33152e-05
2.31001e-08
1.33149e-05
2.20467e-08
1.33145e-05
2.10932e-08
1.33139e-05
2.00116e-08
1.33134e-05
1.91391e-08
1.33133e-05
1.80664e-08
1.33134e-05
1.73433e-08
1.33145e-05
1.6191e-08
1.33153e-05
1.58095e-08
1.42601e-08
1.04438e-05
7.01442e-09
1.04655e-05
2.09062e-08
1.05007e-05
3.41866e-08
1.0548e-05
4.62569e-08
1.06058e-05
5.68211e-08
1.06727e-05
6.58072e-08
1.07469e-05
7.3217e-08
1.08266e-05
7.90363e-08
1.09104e-05
8.328e-08
1.09966e-05
8.6074e-08
1.10841e-05
8.75917e-08
1.11717e-05
8.80174e-08
1.12585e-05
8.75214e-08
1.13437e-05
8.62572e-08
1.14267e-05
8.43685e-08
1.1507e-05
8.19893e-08
1.15843e-05
7.92682e-08
1.16582e-05
7.6321e-08
1.17286e-05
7.32589e-08
1.17955e-05
7.0154e-08
1.1859e-05
6.70668e-08
1.1919e-05
6.40579e-08
1.19757e-05
6.11195e-08
1.20293e-05
5.82759e-08
1.20799e-05
5.5554e-08
1.21278e-05
5.29793e-08
1.21731e-05
5.05603e-08
1.2216e-05
4.82997e-08
1.22567e-05
4.61986e-08
1.22955e-05
4.42548e-08
1.23324e-05
4.24634e-08
1.23677e-05
4.08167e-08
1.24015e-05
3.93063e-08
1.24339e-05
3.79238e-08
1.24651e-05
3.66619e-08
1.24953e-05
3.55133e-08
1.25244e-05
3.44706e-08
1.25526e-05
3.35256e-08
1.258e-05
3.26696e-08
1.26066e-05
3.18938e-08
1.26326e-05
3.11901e-08
1.2658e-05
3.05519e-08
1.26828e-05
2.9975e-08
1.27071e-05
2.94579e-08
1.27309e-05
2.90002e-08
1.27543e-05
2.86002e-08
1.27773e-05
2.82538e-08
1.27999e-05
2.79549e-08
1.28222e-05
2.76972e-08
1.28442e-05
2.74769e-08
1.28659e-05
2.72946e-08
1.28873e-05
2.71534e-08
1.29085e-05
2.70574e-08
1.29294e-05
2.70097e-08
1.29502e-05
2.70107e-08
1.29708e-05
2.70582e-08
1.29913e-05
2.71466e-08
1.30116e-05
2.7267e-08
1.30318e-05
2.74092e-08
1.30519e-05
2.75608e-08
1.3072e-05
2.77081e-08
1.30918e-05
2.78375e-08
1.31116e-05
2.7938e-08
1.31313e-05
2.80018e-08
1.31507e-05
2.80241e-08
1.317e-05
2.80044e-08
1.31891e-05
2.79436e-08
1.3208e-05
2.78437e-08
1.32267e-05
2.77092e-08
1.32451e-05
2.75461e-08
1.32633e-05
2.73613e-08
1.32812e-05
2.71613e-08
1.32988e-05
2.69512e-08
1.33162e-05
2.67345e-08
1.33333e-05
2.6514e-08
1.33502e-05
2.62921e-08
1.33669e-05
2.6071e-08
1.33833e-05
2.58518e-08
1.33995e-05
2.5634e-08
1.34156e-05
2.54156e-08
1.34315e-05
2.51937e-08
1.34473e-05
2.49661e-08
1.3463e-05
2.47314e-08
1.34786e-05
2.44894e-08
1.34941e-05
2.42391e-08
1.35096e-05
2.39794e-08
1.3525e-05
2.37086e-08
1.35404e-05
2.34261e-08
1.35558e-05
2.31324e-08
1.35712e-05
2.28292e-08
1.35866e-05
2.25182e-08
1.3602e-05
2.22005e-08
1.36173e-05
2.18757e-08
1.36325e-05
2.15423e-08
1.36476e-05
2.11984e-08
1.36626e-05
2.08426e-08
1.36774e-05
2.04748e-08
1.36921e-05
2.00959e-08
1.37066e-05
1.97056e-08
1.37206e-05
1.93026e-08
1.37341e-05
1.88844e-08
1.37472e-05
1.84453e-08
1.37597e-05
1.79884e-08
1.37717e-05
1.75097e-08
1.37831e-05
1.7023e-08
1.37939e-05
1.65256e-08
1.38038e-05
1.60277e-08
1.38128e-05
1.55227e-08
1.3821e-05
1.50111e-08
1.38285e-05
1.44824e-08
1.38355e-05
1.39602e-08
1.38418e-05
1.34083e-08
1.38475e-05
1.29143e-08
1.38525e-05
1.23694e-08
1.38567e-05
1.19346e-08
1.38609e-05
1.14029e-08
1.38647e-05
1.10447e-08
1.38692e-05
1.04664e-08
1.38739e-05
1.02617e-08
9.51491e-09
1.04435e-05
6.52842e-11
1.04643e-05
1.95076e-10
1.04981e-05
3.20576e-10
1.0544e-05
4.38052e-10
1.06003e-05
5.46242e-10
1.06655e-05
6.48173e-10
1.0738e-05
7.50184e-10
1.08161e-05
8.59154e-10
1.08985e-05
9.80343e-10
1.09834e-05
1.11725e-09
1.10698e-05
1.27051e-09
1.11563e-05
1.44161e-09
1.12422e-05
1.63256e-09
1.13267e-05
1.84114e-09
1.14089e-05
2.06744e-09
1.14886e-05
2.31271e-09
1.15653e-05
2.58974e-09
1.16387e-05
2.88789e-09
1.17088e-05
3.19664e-09
1.17754e-05
3.52088e-09
1.18386e-05
3.85202e-09
1.18985e-05
4.1748e-09
1.19552e-05
4.47034e-09
1.20087e-05
4.72625e-09
1.20594e-05
4.9326e-09
1.21072e-05
5.12891e-09
1.21525e-05
5.29721e-09
1.21955e-05
5.43345e-09
1.22362e-05
5.53893e-09
1.22749e-05
5.61534e-09
1.23118e-05
5.66379e-09
1.2347e-05
5.68599e-09
1.23807e-05
5.68493e-09
1.2413e-05
5.66457e-09
1.24442e-05
5.62916e-09
1.24742e-05
5.58277e-09
1.25032e-05
5.52913e-09
1.25312e-05
5.47155e-09
1.25585e-05
5.41272e-09
1.25851e-05
5.35476e-09
1.26109e-05
5.29971e-09
1.26362e-05
5.24997e-09
1.26609e-05
5.2086e-09
1.26851e-05
5.17933e-09
1.27089e-05
5.16599e-09
1.27322e-05
5.17134e-09
1.27552e-05
5.19642e-09
1.27778e-05
5.24094e-09
1.28e-05
5.30424e-09
1.2822e-05
5.38649e-09
1.28437e-05
5.48935e-09
1.28652e-05
5.61567e-09
1.28864e-05
5.7685e-09
1.29075e-05
5.94996e-09
1.29283e-05
6.16052e-09
1.29491e-05
6.39872e-09
1.29696e-05
6.66077e-09
1.29901e-05
6.94039e-09
1.30105e-05
7.22928e-09
1.30307e-05
7.51786e-09
1.30509e-05
7.79608e-09
1.30709e-05
8.05434e-09
1.30909e-05
8.2844e-09
1.31107e-05
8.48005e-09
1.31304e-05
8.63763e-09
1.31499e-05
8.75623e-09
1.31693e-05
8.83692e-09
1.31884e-05
8.88225e-09
1.32074e-05
8.89596e-09
1.32262e-05
8.8825e-09
1.32447e-05
8.84666e-09
1.3263e-05
8.79331e-09
1.32811e-05
8.72695e-09
1.3299e-05
8.65144e-09
1.33166e-05
8.56973e-09
1.3334e-05
8.48386e-09
1.33513e-05
8.39517e-09
1.33683e-05
8.30447e-09
1.33852e-05
8.21211e-09
1.34019e-05
8.11802e-09
1.34184e-05
8.0217e-09
1.34349e-05
7.9224e-09
1.34513e-05
7.81936e-09
1.34677e-05
7.71199e-09
1.3484e-05
7.59998e-09
1.35003e-05
7.48319e-09
1.35166e-05
7.36157e-09
1.35328e-05
7.23514e-09
1.35491e-05
7.10391e-09
1.35655e-05
6.96776e-09
1.35819e-05
6.82638e-09
1.35983e-05
6.67934e-09
1.36146e-05
6.52634e-09
1.36308e-05
6.36706e-09
1.3647e-05
6.201e-09
1.36631e-05
6.02748e-09
1.3679e-05
5.84611e-09
1.36949e-05
5.65725e-09
1.37104e-05
5.46198e-09
1.37256e-05
5.26195e-09
1.37403e-05
5.05924e-09
1.37544e-05
4.85667e-09
1.37681e-05
4.65843e-09
1.37813e-05
4.46943e-09
1.37939e-05
4.29489e-09
1.38058e-05
4.13889e-09
1.38168e-05
4.0039e-09
1.38269e-05
3.89118e-09
1.38362e-05
3.80027e-09
1.38447e-05
3.73139e-09
1.38527e-05
3.68387e-09
1.38601e-05
3.65735e-09
1.38667e-05
3.65057e-09
1.38726e-05
3.66114e-09
1.38777e-05
3.68406e-09
1.38827e-05
3.72212e-09
1.38873e-05
3.75735e-09
1.38926e-05
3.81741e-09
1.38981e-05
3.83795e-09
3.95005e-09
1.04435e-05
-6.88075e-09
1.04642e-05
-2.05082e-08
1.04981e-05
-3.35355e-08
1.0544e-05
-4.53727e-08
1.06003e-05
-5.5725e-08
1.06654e-05
-6.45129e-08
1.07379e-05
-7.17251e-08
1.08161e-05
-7.73322e-08
1.08985e-05
-8.13371e-08
1.09835e-05
-8.38577e-08
1.10698e-05
-8.50645e-08
1.11564e-05
-8.51417e-08
1.12423e-05
-8.42622e-08
1.13267e-05
-8.25814e-08
1.1409e-05
-8.02416e-08
1.14887e-05
-7.73784e-08
1.15654e-05
-7.41178e-08
1.16389e-05
-7.05883e-08
1.1709e-05
-6.68966e-08
1.17756e-05
-6.31254e-08
1.18388e-05
-5.93638e-08
1.18987e-05
-5.56811e-08
1.19553e-05
-5.21421e-08
1.20088e-05
-4.87809e-08
1.20594e-05
-4.56103e-08
1.21072e-05
-4.26406e-08
1.21524e-05
-3.98867e-08
1.21952e-05
-3.73566e-08
1.22359e-05
-3.50501e-08
1.22745e-05
-3.29614e-08
1.23114e-05
-3.10816e-08
1.23465e-05
-2.93984e-08
1.23802e-05
-2.78975e-08
1.24125e-05
-2.65634e-08
1.24436e-05
-2.53798e-08
1.24736e-05
-2.43306e-08
1.25026e-05
-2.34001e-08
1.25307e-05
-2.25737e-08
1.25579e-05
-2.18382e-08
1.25845e-05
-2.11815e-08
1.26103e-05
-2.05916e-08
1.26356e-05
-2.0057e-08
1.26603e-05
-1.95671e-08
1.26846e-05
-1.91119e-08
1.27083e-05
-1.86829e-08
1.27317e-05
-1.82725e-08
1.27546e-05
-1.7875e-08
1.27773e-05
-1.74856e-08
1.27995e-05
-1.71007e-08
1.28215e-05
-1.6717e-08
1.28433e-05
-1.63313e-08
1.28648e-05
-1.594e-08
1.2886e-05
-1.55397e-08
1.29071e-05
-1.51278e-08
1.29279e-05
-1.47041e-08
1.29487e-05
-1.42689e-08
1.29692e-05
-1.38247e-08
1.29897e-05
-1.33758e-08
1.301e-05
-1.29291e-08
1.30303e-05
-1.24921e-08
1.30504e-05
-1.2072e-08
1.30704e-05
-1.16754e-08
1.30903e-05
-1.13084e-08
1.311e-05
-1.09758e-08
1.31296e-05
-1.0681e-08
1.31491e-05
-1.04243e-08
1.31684e-05
-1.02041e-08
1.31875e-05
-1.00167e-08
1.32064e-05
-9.85852e-09
1.32251e-05
-9.72629e-09
1.32436e-05
-9.61695e-09
1.32619e-05
-9.52712e-09
1.32799e-05
-9.45281e-09
1.32977e-05
-9.38989e-09
1.33153e-05
-9.33508e-09
1.33327e-05
-9.28657e-09
1.33499e-05
-9.24383e-09
1.33669e-05
-9.20658e-09
1.33837e-05
-9.17394e-09
1.34004e-05
-9.14421e-09
1.34169e-05
-9.11568e-09
1.34334e-05
-9.08749e-09
1.34498e-05
-9.05982e-09
1.34661e-05
-9.03336e-09
1.34824e-05
-9.00824e-09
1.34987e-05
-8.98359e-09
1.35149e-05
-8.95784e-09
1.35311e-05
-8.92995e-09
1.35474e-05
-8.9001e-09
1.35637e-05
-8.87019e-09
1.35801e-05
-8.84271e-09
1.35965e-05
-8.81957e-09
1.36128e-05
-8.80138e-09
1.3629e-05
-8.78725e-09
1.36451e-05
-8.7766e-09
1.36612e-05
-8.76923e-09
1.36772e-05
-8.76568e-09
1.3693e-05
-8.76633e-09
1.37085e-05
-8.76929e-09
1.37237e-05
-8.77016e-09
1.37383e-05
-8.7621e-09
1.37525e-05
-8.73347e-09
1.37662e-05
-8.67879e-09
1.37794e-05
-8.58387e-09
1.3792e-05
-8.45176e-09
1.38039e-05
-8.27027e-09
1.3815e-05
-8.04469e-09
1.38251e-05
-7.76511e-09
1.38344e-05
-7.43482e-09
1.38429e-05
-7.04192e-09
1.3851e-05
-6.61327e-09
1.38583e-05
-6.11107e-09
1.38649e-05
-5.62903e-09
1.38709e-05
-5.05902e-09
1.38759e-05
-4.58157e-09
1.38809e-05
-3.97072e-09
1.38856e-05
-3.55058e-09
1.38909e-05
-2.84034e-09
1.38964e-05
-2.58901e-09
-1.63249e-09
1.04438e-05
-1.41028e-08
1.04654e-05
-4.21057e-08
1.05006e-05
-6.86765e-08
1.05479e-05
-9.26299e-08
1.06057e-05
-1.13549e-07
1.06726e-05
-1.31336e-07
1.07468e-05
-1.45894e-07
1.08266e-05
-1.57133e-07
1.09104e-05
-1.65122e-07
1.09967e-05
-1.70149e-07
1.10842e-05
-1.72575e-07
1.11718e-05
-1.72775e-07
1.12587e-05
-1.71096e-07
1.13439e-05
-1.67837e-07
1.1427e-05
-1.6328e-07
1.15073e-05
-1.57705e-07
1.15845e-05
-1.51378e-07
1.16585e-05
-1.44536e-07
1.1729e-05
-1.37376e-07
1.17959e-05
-1.30064e-07
1.18593e-05
-1.22792e-07
1.19193e-05
-1.15676e-07
1.1976e-05
-1.08815e-07
1.20295e-05
-1.02277e-07
1.208e-05
-9.61088e-08
1.21277e-05
-9.03435e-08
1.21729e-05
-8.4999e-08
1.22157e-05
-8.00812e-08
1.22563e-05
-7.55862e-08
1.22949e-05
-7.15014e-08
1.23317e-05
-6.7808e-08
1.23669e-05
-6.4482e-08
1.24006e-05
-6.14965e-08
1.24329e-05
-5.88231e-08
1.2464e-05
-5.6433e-08
1.24941e-05
-5.42982e-08
1.25231e-05
-5.23907e-08
1.25513e-05
-5.06853e-08
1.25786e-05
-4.91593e-08
1.26052e-05
-4.77905e-08
1.26312e-05
-4.65567e-08
1.26565e-05
-4.54375e-08
1.26813e-05
-4.44145e-08
1.27056e-05
-4.34717e-08
1.27294e-05
-4.25952e-08
1.27528e-05
-4.17735e-08
1.27759e-05
-4.09961e-08
1.27985e-05
-4.02537e-08
1.28208e-05
-3.95388e-08
1.28429e-05
-3.88455e-08
1.28646e-05
-3.81686e-08
1.28861e-05
-3.75032e-08
1.29073e-05
-3.68451e-08
1.29284e-05
-3.6191e-08
1.29492e-05
-3.55393e-08
1.29699e-05
-3.48901e-08
1.29904e-05
-3.42459e-08
1.30108e-05
-3.36088e-08
1.3031e-05
-3.29844e-08
1.30511e-05
-3.23783e-08
1.30711e-05
-3.17956e-08
1.30909e-05
-3.12413e-08
1.31106e-05
-3.07199e-08
1.31302e-05
-3.02349e-08
1.31496e-05
-2.97879e-08
1.31688e-05
-2.93785e-08
1.31879e-05
-2.9004e-08
1.32067e-05
-2.86609e-08
1.32254e-05
-2.8346e-08
1.32438e-05
-2.80564e-08
1.3262e-05
-2.77898e-08
1.328e-05
-2.7543e-08
1.32977e-05
-2.73127e-08
1.33152e-05
-2.70956e-08
1.33325e-05
-2.6889e-08
1.33495e-05
-2.66916e-08
1.33663e-05
-2.65026e-08
1.33829e-05
-2.63212e-08
1.33993e-05
-2.61455e-08
1.34156e-05
-2.59734e-08
1.34317e-05
-2.58023e-08
1.34476e-05
-2.56306e-08
1.34635e-05
-2.54573e-08
1.34794e-05
-2.52815e-08
1.34951e-05
-2.51018e-08
1.35109e-05
-2.49164e-08
1.35265e-05
-2.47234e-08
1.35422e-05
-2.45222e-08
1.35579e-05
-2.43135e-08
1.35735e-05
-2.41e-08
1.35893e-05
-2.38847e-08
1.36049e-05
-2.367e-08
1.36206e-05
-2.34574e-08
1.36361e-05
-2.32468e-08
1.36515e-05
-2.30385e-08
1.36668e-05
-2.28327e-08
1.3682e-05
-2.26296e-08
1.3697e-05
-2.24283e-08
1.37118e-05
-2.22237e-08
1.37261e-05
-2.20078e-08
1.374e-05
-2.17716e-08
1.37534e-05
-2.14976e-08
1.37662e-05
-2.11824e-08
1.37786e-05
-2.08003e-08
1.37904e-05
-2.03618e-08
1.38015e-05
-1.98392e-08
1.38117e-05
-1.92502e-08
1.3821e-05
-1.85705e-08
1.38296e-05
-1.78189e-08
1.38373e-05
-1.69641e-08
1.38445e-05
-1.60721e-08
1.3851e-05
-1.50532e-08
1.3857e-05
-1.41027e-08
1.38622e-05
-1.29884e-08
1.38666e-05
-1.20715e-08
1.3871e-05
-1.09123e-08
1.38749e-05
-1.01236e-08
1.38795e-05
-8.81878e-09
1.38844e-05
-8.38035e-09
-6.60775e-09
1.04443e-05
-2.18003e-08
1.04679e-05
-6.56111e-08
1.05056e-05
-1.064e-07
1.05558e-05
-1.42785e-07
1.06169e-05
-1.74584e-07
1.06872e-05
-2.01689e-07
1.07651e-05
-2.23766e-07
1.08486e-05
-2.4062e-07
1.0936e-05
-2.52469e-07
1.10257e-05
-2.5984e-07
1.11164e-05
-2.63306e-07
1.12071e-05
-2.63429e-07
1.12967e-05
-2.60727e-07
1.13845e-05
-2.55636e-07
1.14698e-05
-2.48584e-07
1.15521e-05
-2.4e-07
1.1631e-05
-2.30285e-07
1.17063e-05
-2.19795e-07
1.17777e-05
-2.08838e-07
1.18453e-05
-1.97689e-07
1.19091e-05
-1.86588e-07
1.19692e-05
-1.75723e-07
1.20256e-05
-1.65242e-07
1.20786e-05
-1.55253e-07
1.21283e-05
-1.45833e-07
1.21751e-05
-1.3703e-07
1.2219e-05
-1.2887e-07
1.22603e-05
-1.21358e-07
1.22993e-05
-1.14485e-07
1.23361e-05
-1.08231e-07
1.23709e-05
-1.02565e-07
1.2404e-05
-9.74507e-08
1.24354e-05
-9.28461e-08
1.24654e-05
-8.87079e-08
1.2494e-05
-8.49918e-08
1.25214e-05
-8.16562e-08
1.25477e-05
-7.86604e-08
1.25731e-05
-7.59684e-08
1.25975e-05
-7.35468e-08
1.26211e-05
-7.13604e-08
1.26439e-05
-6.93757e-08
1.2666e-05
-6.75636e-08
1.26874e-05
-6.58993e-08
1.27082e-05
-6.43608e-08
1.27285e-05
-6.29268e-08
1.27482e-05
-6.1583e-08
1.27674e-05
-6.0313e-08
1.27861e-05
-5.91042e-08
1.28044e-05
-5.79471e-08
1.28223e-05
-5.68333e-08
1.28398e-05
-5.57551e-08
1.28569e-05
-5.4706e-08
1.28737e-05
-5.36807e-08
1.28902e-05
-5.26756e-08
1.29064e-05
-5.16883e-08
1.29222e-05
-5.07183e-08
1.29379e-05
-4.97663e-08
1.29532e-05
-4.88343e-08
1.29683e-05
-4.79259e-08
1.29832e-05
-4.70456e-08
1.29978e-05
-4.61973e-08
1.30122e-05
-4.53845e-08
1.30264e-05
-4.46098e-08
1.30403e-05
-4.38748e-08
1.3054e-05
-4.31796e-08
1.30674e-05
-4.25222e-08
1.30805e-05
-4.18992e-08
1.30934e-05
-4.13072e-08
1.31059e-05
-4.07433e-08
1.31181e-05
-4.02048e-08
1.313e-05
-3.96895e-08
1.31416e-05
-3.9195e-08
1.31529e-05
-3.87185e-08
1.31638e-05
-3.82575e-08
1.31744e-05
-3.78099e-08
1.31847e-05
-3.73748e-08
1.31947e-05
-3.69516e-08
1.32045e-05
-3.6539e-08
1.32139e-05
-3.61351e-08
1.32232e-05
-3.57371e-08
1.32322e-05
-3.53426e-08
1.32411e-05
-3.49495e-08
1.32498e-05
-3.45561e-08
1.32583e-05
-3.41603e-08
1.32668e-05
-3.37588e-08
1.32751e-05
-3.33487e-08
1.32834e-05
-3.29279e-08
1.32916e-05
-3.24969e-08
1.32997e-05
-3.20577e-08
1.33078e-05
-3.16141e-08
1.33158e-05
-3.11688e-08
1.33237e-05
-3.07243e-08
1.33314e-05
-3.02818e-08
1.33391e-05
-2.98426e-08
1.33465e-05
-2.94077e-08
1.33537e-05
-2.89783e-08
1.33608e-05
-2.85538e-08
1.33675e-05
-2.81331e-08
1.33739e-05
-2.77095e-08
1.33799e-05
-2.72749e-08
1.33854e-05
-2.68158e-08
1.33904e-05
-2.63167e-08
1.3395e-05
-2.57682e-08
1.33991e-05
-2.51492e-08
1.34026e-05
-2.44663e-08
1.34056e-05
-2.36918e-08
1.34079e-05
-2.28473e-08
1.34096e-05
-2.18976e-08
1.34108e-05
-2.08775e-08
1.34117e-05
-1.97428e-08
1.34122e-05
-1.85747e-08
1.34124e-05
-1.7284e-08
1.34123e-05
-1.60719e-08
1.34119e-05
-1.47044e-08
1.34115e-05
-1.35778e-08
1.34115e-05
-1.21897e-08
1.34116e-05
-1.12613e-08
1.34126e-05
-9.77957e-09
1.34135e-05
-9.25542e-09
-7.34342e-09
1.04455e-05
-3.05442e-08
1.0472e-05
-9.21334e-08
1.05142e-05
-1.48526e-07
1.05701e-05
-1.98721e-07
1.06387e-05
-2.43168e-07
1.07181e-05
-2.81076e-07
1.08057e-05
-3.11357e-07
1.08987e-05
-3.33595e-07
1.09945e-05
-3.4825e-07
1.10908e-05
-3.56124e-07
1.11857e-05
-3.58154e-07
1.12776e-05
-3.55316e-07
1.13653e-05
-3.48406e-07
1.14478e-05
-3.38201e-07
1.15247e-05
-3.2547e-07
1.15956e-05
-3.10912e-07
1.16604e-05
-2.95137e-07
1.17193e-05
-2.78656e-07
1.17724e-05
-2.61901e-07
1.18199e-05
-2.45227e-07
1.18622e-05
-2.28917e-07
1.18997e-05
-2.13198e-07
1.19327e-05
-1.98233e-07
1.19616e-05
-1.8413e-07
1.19867e-05
-1.7096e-07
1.20085e-05
-1.58755e-07
1.20272e-05
-1.47522e-07
1.20431e-05
-1.37242e-07
1.20566e-05
-1.27881e-07
1.20678e-05
-1.19394e-07
1.20771e-05
-1.11725e-07
1.20845e-05
-1.04813e-07
1.20903e-05
-9.85956e-08
1.20947e-05
-9.30068e-08
1.20978e-05
-8.79824e-08
1.20996e-05
-8.34595e-08
1.21004e-05
-7.93855e-08
1.21002e-05
-7.57259e-08
1.20991e-05
-7.24291e-08
1.20971e-05
-6.94431e-08
1.20945e-05
-6.67249e-08
1.20911e-05
-6.42392e-08
1.20871e-05
-6.19557e-08
1.20825e-05
-5.98474e-08
1.20774e-05
-5.78917e-08
1.20718e-05
-5.60674e-08
1.20658e-05
-5.43506e-08
1.20593e-05
-5.27297e-08
1.20525e-05
-5.11927e-08
1.20453e-05
-4.9729e-08
1.20378e-05
-4.83293e-08
1.20301e-05
-4.69856e-08
1.20221e-05
-4.56916e-08
1.2014e-05
-4.44426e-08
1.20056e-05
-4.32353e-08
1.19971e-05
-4.20678e-08
1.19884e-05
-4.09391e-08
1.19796e-05
-3.98497e-08
1.19706e-05
-3.88009e-08
1.19616e-05
-3.77947e-08
1.19524e-05
-3.68329e-08
1.19431e-05
-3.59166e-08
1.19338e-05
-3.50463e-08
1.19243e-05
-3.4222e-08
1.19146e-05
-3.34418e-08
1.19049e-05
-3.27007e-08
1.1895e-05
-3.19958e-08
1.1885e-05
-3.13241e-08
1.18749e-05
-3.06825e-08
1.18647e-05
-3.00684e-08
1.18543e-05
-2.94795e-08
1.18438e-05
-2.89138e-08
1.18332e-05
-2.83694e-08
1.18225e-05
-2.78449e-08
1.18118e-05
-2.73392e-08
1.1801e-05
-2.68513e-08
1.17901e-05
-2.63802e-08
1.17793e-05
-2.59248e-08
1.17684e-05
-2.54836e-08
1.17576e-05
-2.50543e-08
1.17469e-05
-2.46343e-08
1.17361e-05
-2.42206e-08
1.17255e-05
-2.38108e-08
1.17149e-05
-2.34026e-08
1.17045e-05
-2.29937e-08
1.16941e-05
-2.2582e-08
1.16838e-05
-2.21661e-08
1.16736e-05
-2.17458e-08
1.16634e-05
-2.1323e-08
1.16533e-05
-2.09008e-08
1.16433e-05
-2.04824e-08
1.16333e-05
-2.00706e-08
1.16232e-05
-1.96666e-08
1.16132e-05
-1.9271e-08
1.16031e-05
-1.88848e-08
1.15929e-05
-1.85086e-08
1.15826e-05
-1.81436e-08
1.15723e-05
-1.77892e-08
1.15618e-05
-1.74414e-08
1.15512e-05
-1.70917e-08
1.15405e-05
-1.6727e-08
1.15298e-05
-1.63339e-08
1.15191e-05
-1.58999e-08
1.15084e-05
-1.54168e-08
1.14978e-05
-1.48809e-08
1.14874e-05
-1.42874e-08
1.14773e-05
-1.36361e-08
1.14676e-05
-1.29203e-08
1.14584e-05
-1.21406e-08
1.14497e-05
-1.12979e-08
1.14416e-05
-1.04009e-08
1.14341e-05
-9.46644e-09
1.14274e-05
-8.52481e-09
1.14215e-05
-7.58434e-09
1.14164e-05
-6.70648e-09
1.1412e-05
-5.8351e-09
1.14082e-05
-5.11013e-09
1.14049e-05
-4.28473e-09
1.14017e-05
-3.82956e-09
-2.89283e-09
1.0456e-05
-4.97562e-08
1.05019e-05
-1.37945e-07
1.05657e-05
-2.12372e-07
1.06403e-05
-2.7331e-07
1.07176e-05
-3.20402e-07
1.07896e-05
-3.53097e-07
1.08506e-05
-3.7231e-07
1.08971e-05
-3.80022e-07
1.09276e-05
-3.78788e-07
1.0942e-05
-3.70548e-07
1.09412e-05
-3.57311e-07
1.09267e-05
-3.40766e-07
1.09e-05
-3.21687e-07
1.08628e-05
-3.01068e-07
1.08171e-05
-2.79715e-07
1.07643e-05
-2.5821e-07