/*--------------------------------*- C++ -*----------------------------------*\
  =========                 |
  \\      /  F ield         | OpenFOAM: The Open Source CFD Toolbox
   \\    /   O peration     | Website:  https://openfoam.org
    \\  /    A nd           | Version:  7
     \\/     M anipulation  |
\*---------------------------------------------------------------------------*/
FoamFile
{
    version     2.0;
    format      ascii;
    class       volScalarField;
    location    "1.1";
    object      rho_0;
}
// * * * * * * * * * * * * * * * * * * * * * * * * * * * * * * * * * * * * * //

dimensions      [1 -3 0 0 0 0 0];

internalField   nonuniform List<scalar> 
600
(
1.23308
1.23297
1.23293
1.23292
1.23287
1.23291
1.23283
1.23298
1.23262
1.23364
1.23307
1.23296
1.23289
1.23288
1.23278
1.23292
1.2327
1.23315
1.23228
1.23413
1.23308
1.23298
1.23288
1.23288
1.23273
1.23292
1.23262
1.2332
1.23229
1.23384
1.23307
1.233
1.23289
1.2329
1.23273
1.2329
1.23263
1.23309
1.23251
1.2334
1.23306
1.233
1.2329
1.2329
1.23277
1.23286
1.23269
1.23294
1.23271
1.2331
1.23308
1.23299
1.23293
1.23288
1.23281
1.23281
1.23277
1.23285
1.23282
1.23294
1.23309
1.23298
1.23294
1.23287
1.23283
1.2328
1.2328
1.23282
1.23286
1.23292
1.23309
1.23298
1.23294
1.23287
1.23283
1.23279
1.2328
1.23283
1.23287
1.23293
1.23309
1.23298
1.23293
1.23286
1.23282
1.23279
1.23282
1.23284
1.23289
1.23292
1.23309
1.23297
1.23292
1.23285
1.23282
1.23281
1.23285
1.23286
1.2329
1.23289
1.23309
1.23296
1.23292
1.23287
1.23285
1.23285
1.23287
1.23287
1.23288
1.23285
1.23309
1.23298
1.23295
1.23292
1.23291
1.2329
1.23289
1.23288
1.23287
1.23285
1.21852
1.21055
1.2052
1.20093
1.19727
1.19404
1.19112
1.18851
1.1863
1.18457
1.18336
1.18258
1.18212
1.18185
1.18169
1.18158
1.18149
1.18141
1.18132
1.18124
1.18116
1.18107
1.18099
1.18091
1.18083
1.18074
1.18066
1.18057
1.18049
1.18041
1.18032
1.18024
1.18015
1.18007
1.17998
1.1799
1.1798
1.17972
1.17961
1.17955
1.22436
1.21646
1.21115
1.20685
1.20317
1.19993
1.19699
1.19436
1.1921
1.19031
1.18902
1.18819
1.18768
1.18739
1.18721
1.18709
1.18699
1.18689
1.1868
1.18671
1.18663
1.18654
1.18645
1.18636
1.18627
1.18618
1.18609
1.186
1.18591
1.18582
1.18573
1.18564
1.18555
1.18546
1.18536
1.18528
1.18517
1.18509
1.18497
1.1849
1.22828
1.22126
1.21616
1.21194
1.2083
1.20508
1.20217
1.19954
1.19725
1.1954
1.19403
1.19312
1.19256
1.19222
1.19202
1.19189
1.19178
1.19168
1.19158
1.19149
1.1914
1.1913
1.19121
1.19112
1.19102
1.19093
1.19083
1.19074
1.19064
1.19055
1.19045
1.19036
1.19026
1.19016
1.19006
1.18997
1.18986
1.18977
1.18965
1.18957
1.23083
1.22528
1.22067
1.21668
1.21318
1.21006
1.20723
1.20465
1.20236
1.20047
1.19904
1.19805
1.19743
1.19705
1.19683
1.19667
1.19656
1.19645
1.19635
1.19625
1.19615
1.19606
1.19596
1.19586
1.19576
1.19566
1.19556
1.19546
1.19536
1.19526
1.19515
1.19505
1.19495
1.19485
1.19474
1.19465
1.19453
1.19444
1.19431
1.19423
1.23228
1.22844
1.22462
1.22107
1.21784
1.21492
1.21225
1.2098
1.20759
1.20571
1.20425
1.20321
1.20254
1.20212
1.20187
1.2017
1.20158
1.20146
1.20136
1.20125
1.20115
1.20105
1.20094
1.20084
1.20073
1.20063
1.20052
1.20041
1.20031
1.2002
1.20009
1.19999
1.19988
1.19977
1.19966
1.19955
1.19944
1.19933
1.19921
1.19912
1.23294
1.23066
1.22783
1.22492
1.22212
1.21953
1.21714
1.21491
1.21287
1.2111
1.20968
1.20865
1.20795
1.20752
1.20725
1.20707
1.20694
1.20682
1.20671
1.2066
1.20649
1.20638
1.20627
1.20615
1.20604
1.20593
1.20582
1.20571
1.20559
1.20548
1.20537
1.20525
1.20514
1.20503
1.20491
1.2048
1.20468
1.20457
1.20444
1.20434
1.23306
1.23189
1.23002
1.22783
1.22558
1.22342
1.2214
1.2195
1.21773
1.21616
1.21487
1.21392
1.21326
1.21284
1.21258
1.21239
1.21225
1.21213
1.21201
1.2119
1.21178
1.21166
1.21155
1.21143
1.21131
1.21119
1.21107
1.21096
1.21084
1.21072
1.2106
1.21048
1.21036
1.21024
1.21012
1.21
1.20987
1.20976
1.20963
1.20952
1.23299
1.23239
1.23122
1.22963
1.2279
1.22619
1.22457
1.22302
1.22156
1.22025
1.21916
1.21834
1.21777
1.21739
1.21714
1.21697
1.21683
1.2167
1.21658
1.21646
1.21634
1.21622
1.2161
1.21597
1.21585
1.21573
1.21561
1.21548
1.21536
1.21524
1.21511
1.21499
1.21486
1.21474
1.21461
1.21449
1.21436
1.21424
1.21411
1.21399
1.23291
1.23257
1.23181
1.23067
1.22937
1.22806
1.2268
1.22558
1.22443
1.22338
1.22251
1.22184
1.22137
1.22105
1.22083
1.22066
1.22053
1.2204
1.22028
1.22015
1.22003
1.21991
1.21978
1.21965
1.21953
1.2194
1.21928
1.21915
1.21903
1.2189
1.21877
1.21864
1.21852
1.21839
1.21826
1.21813
1.218
1.21788
1.21775
1.21762
1.23286
1.23263
1.23212
1.23131
1.23037
1.2294
1.22847
1.22756
1.22669
1.2259
1.22524
1.22472
1.22435
1.22409
1.2239
1.22375
1.22361
1.22348
1.22336
1.22324
1.22311
1.22298
1.22286
1.22273
1.2226
1.22247
1.22235
1.22222
1.22209
1.22196
1.22183
1.2217
1.22157
1.22144
1.22131
1.22118
1.22104
1.22092
1.22078
1.22066
1.23283
1.23265
1.23231
1.23177
1.23114
1.2305
1.22987
1.22925
1.22866
1.22812
1.22766
1.2273
1.22702
1.22681
1.22664
1.2265
1.22637
1.22624
1.22612
1.22599
1.22586
1.22574
1.22561
1.22548
1.22535
1.22522
1.22509
1.22496
1.22483
1.22469
1.22456
1.22443
1.2243
1.22416
1.22403
1.2239
1.22376
1.22363
1.2235
1.22337
1.23283
1.23267
1.23248
1.23221
1.23191
1.2316
1.2313
1.231
1.23071
1.23044
1.2302
1.22999
1.22981
1.22965
1.22951
1.22938
1.22925
1.22912
1.22899
1.22887
1.22874
1.22861
1.22847
1.22834
1.22821
1.22808
1.22795
1.22781
1.22768
1.22754
1.22741
1.22727
1.22714
1.227
1.22687
1.22673
1.2266
1.22646
1.22633
1.22619
)
;

boundaryField
{
    upperWall
    {
        type            calculated;
        value           nonuniform List<scalar> 
50
(
1.23311
1.233
1.23299
1.23297
1.23295
1.23293
1.23292
1.2329
1.23289
1.23288
1.23283
1.23269
1.23257
1.23245
1.23233
1.23221
1.23208
1.23196
1.23184
1.23171
1.23159
1.23146
1.23133
1.23121
1.23108
1.23095
1.23082
1.23069
1.23057
1.23044
1.23031
1.23017
1.23004
1.22991
1.22977
1.22964
1.22951
1.22937
1.22924
1.2291
1.22896
1.22883
1.22869
1.22855
1.22841
1.22828
1.22814
1.228
1.22787
1.22773
)
;
    }
    lowerWall
    {
        type            calculated;
        value           nonuniform List<scalar> 10(1.23309 1.23299 1.23298 1.23295 1.23294 1.23292 1.23291 1.23289 1.23288 1.23287);
    }
    heatedWall
    {
        type            calculated;
        value           nonuniform List<scalar> 
40
(
1.21484
1.20715
1.20182
1.19759
1.19395
1.19073
1.18783
1.18523
1.18303
1.18131
1.1801
1.17933
1.17888
1.17862
1.17846
1.17835
1.17826
1.17818
1.1781
1.17802
1.17794
1.17786
1.17779
1.17771
1.17763
1.17755
1.17747
1.17739
1.17731
1.17723
1.17715
1.17707
1.17698
1.1769
1.17681
1.17674
1.17664
1.17657
1.17646
1.17641
)
;
    }
    inlet
    {
        type            calculated;
        value           nonuniform List<scalar> 
12
(
1.23309
1.23309
1.23308
1.23308
1.23308
1.23308
1.23309
1.23309
1.23309
1.23309
1.2331
1.23311
)
;
    }
    outlet
    {
        type            calculated;
        value           nonuniform List<scalar> 
12
(
1.17949
1.18484
1.18951
1.19416
1.19905
1.20427
1.20945
1.21392
1.21755
1.22059
1.2233
1.22612
)
;
    }
    frontAndBack
    {
        type            empty;
    }
}


// ************************************************************************* //
