/*--------------------------------*- C++ -*----------------------------------*\
  =========                 |
  \\      /  F ield         | OpenFOAM: The Open Source CFD Toolbox
   \\    /   O peration     | Website:  https://openfoam.org
    \\  /    A nd           | Version:  7
     \\/     M anipulation  |
\*---------------------------------------------------------------------------*/
FoamFile
{
    version     2.0;
    format      ascii;
    class       volScalarField;
    location    "3.45";
    object      T;
}
// * * * * * * * * * * * * * * * * * * * * * * * * * * * * * * * * * * * * * //

dimensions      [0 0 0 1 0 0 0];

internalField   nonuniform List<scalar> 
2400
(
283.149
283.15
283.151
283.151
283.151
283.151
283.15
283.15
283.149
283.149
283.148
283.148
283.148
283.148
283.148
283.148
283.148
283.148
283.148
283.148
283.148
283.148
283.148
283.148
283.148
283.148
283.148
283.148
283.149
283.148
283.149
283.148
283.151
283.145
283.157
283.134
283.182
283.081
283.305
282.803
283.148
283.148
283.148
283.148
283.148
283.148
283.148
283.148
283.148
283.148
283.148
283.148
283.148
283.148
283.148
283.148
283.148
283.148
283.148
283.148
283.148
283.148
283.148
283.148
283.148
283.148
283.148
283.147
283.149
283.147
283.15
283.145
283.153
283.141
283.16
283.13
283.177
283.106
283.212
283.06
283.149
283.148
283.148
283.148
283.147
283.147
283.147
283.146
283.146
283.146
283.145
283.145
283.145
283.145
283.145
283.145
283.145
283.145
283.145
283.145
283.146
283.146
283.146
283.146
283.146
283.146
283.146
283.146
283.147
283.146
283.147
283.146
283.148
283.145
283.148
283.145
283.149
283.146
283.149
283.149
283.149
283.149
283.149
283.149
283.148
283.148
283.147
283.147
283.146
283.146
283.145
283.145
283.145
283.145
283.145
283.144
283.144
283.144
283.144
283.144
283.144
283.144
283.144
283.144
283.144
283.144
283.143
283.143
283.144
283.144
283.144
283.144
283.144
283.144
283.143
283.144
283.143
283.145
283.143
283.146
283.149
283.149
283.149
283.149
283.148
283.148
283.148
283.147
283.147
283.146
283.146
283.146
283.146
283.145
283.145
283.145
283.145
283.145
283.144
283.144
283.144
283.144
283.144
283.144
283.144
283.144
283.144
283.144
283.144
283.144
283.144
283.144
283.144
283.144
283.144
283.144
283.144
283.144
283.144
283.144
283.15
283.15
283.15
283.15
283.149
283.149
283.149
283.148
283.148
283.148
283.147
283.147
283.147
283.147
283.147
283.146
283.146
283.146
283.146
283.146
283.145
283.145
283.145
283.145
283.145
283.145
283.145
283.144
283.144
283.144
283.144
283.144
283.144
283.144
283.144
283.144
283.144
283.144
283.144
283.144
283.151
283.151
283.15
283.15
283.15
283.149
283.149
283.149
283.149
283.148
283.148
283.148
283.148
283.148
283.147
283.147
283.147
283.147
283.147
283.147
283.146
283.146
283.146
283.146
283.146
283.145
283.145
283.145
283.145
283.145
283.145
283.145
283.145
283.144
283.144
283.144
283.144
283.144
283.144
283.144
283.15
283.15
283.15
283.15
283.15
283.149
283.149
283.149
283.149
283.148
283.148
283.148
283.148
283.148
283.148
283.147
283.147
283.147
283.147
283.147
283.147
283.146
283.146
283.146
283.146
283.146
283.146
283.146
283.146
283.146
283.146
283.145
283.145
283.145
283.146
283.145
283.146
283.145
283.145
283.145
283.151
283.151
283.151
283.15
283.15
283.15
283.149
283.149
283.149
283.149
283.149
283.149
283.149
283.148
283.148
283.148
283.148
283.148
283.148
283.148
283.148
283.147
283.147
283.147
283.147
283.147
283.147
283.147
283.146
283.146
283.146
283.146
283.146
283.146
283.146
283.146
283.146
283.146
283.146
283.146
283.151
283.151
283.15
283.15
283.15
283.15
283.15
283.15
283.15
283.15
283.15
283.15
283.15
283.15
283.15
283.15
283.15
283.15
283.15
283.15
283.15
283.15
283.15
283.15
283.15
283.15
283.15
283.15
283.15
283.15
283.15
283.15
283.15
283.15
283.15
283.15
283.15
283.15
283.15
283.15
283.151
283.151
283.151
283.151
283.151
283.151
283.152
283.152
283.153
283.153
283.153
283.153
283.153
283.153
283.154
283.153
283.153
283.153
283.153
283.153
283.153
283.153
283.153
283.153
283.153
283.153
283.152
283.152
283.152
283.152
283.152
283.152
283.152
283.152
283.152
283.152
283.151
283.151
283.151
283.151
283.152
283.153
283.153
283.154
283.154
283.154
283.154
283.154
283.153
283.153
283.153
283.153
283.153
283.153
283.153
283.153
283.153
283.153
283.152
283.152
283.152
283.152
283.152
283.152
283.152
283.152
283.152
283.152
283.152
283.151
283.151
283.151
283.151
283.151
283.151
283.151
283.15
283.15
283.151
283.148
285.668
287.922
289.386
290.547
291.54
292.427
293.234
293.977
294.668
295.314
295.921
296.496
297.04
297.558
298.053
298.526
298.981
299.418
299.841
300.25
300.646
301.032
301.408
301.775
302.133
302.484
302.827
303.165
303.496
303.821
304.141
304.456
304.767
305.073
305.374
305.672
305.965
306.255
306.541
306.823
307.103
307.378
307.651
307.921
308.188
308.452
308.713
308.972
309.228
309.482
309.733
309.982
310.228
310.473
310.715
310.954
311.192
311.428
311.662
311.893
312.123
312.351
312.577
312.802
313.024
313.245
313.464
313.681
313.896
314.11
314.322
314.532
314.741
314.948
315.153
315.356
315.558
315.757
315.955
316.151
316.345
316.537
316.728
316.916
317.102
317.286
317.467
317.647
317.824
317.999
318.172
318.342
318.51
318.675
318.838
318.998
319.156
319.31
319.462
319.611
319.758
319.901
320.042
320.18
320.315
320.446
320.575
320.701
320.824
320.944
321.061
321.175
321.285
321.393
321.498
321.6
321.699
321.794
321.887
321.977
322.064
322.148
322.23
322.308
322.384
322.457
322.527
322.594
322.659
322.721
322.781
322.838
322.893
322.945
322.995
323.042
323.088
323.131
323.172
323.21
323.247
323.282
323.315
323.345
323.374
323.402
323.427
323.451
323.473
323.494
323.513
323.53
323.547
323.562
323.575
323.588
323.598
323.61
323.616
323.629
283.546
284.772
285.913
286.902
287.774
288.564
289.293
289.971
290.608
291.208
291.776
292.316
292.831
293.324
293.796
294.25
294.688
295.111
295.521
295.918
296.305
296.682
297.049
297.409
297.76
298.105
298.443
298.775
299.101
299.421
299.737
300.048
300.354
300.656
300.954
301.247
301.537
301.824
302.106
302.386
302.662
302.935
303.205
303.472
303.736
303.998
304.256
304.512
304.766
305.017
305.266
305.513
305.757
305.999
306.239
306.477
306.713
306.946
307.178
307.408
307.636
307.862
308.087
308.309
308.53
308.749
308.966
309.182
309.396
309.609
309.819
310.028
310.235
310.441
310.645
310.847
311.048
311.247
311.444
311.64
311.833
312.025
312.215
312.403
312.589
312.773
312.955
313.135
313.313
313.489
313.662
313.834
314.003
314.169
314.334
314.495
314.655
314.811
314.965
315.117
315.266
315.412
315.555
315.696
315.834
315.969
316.101
316.23
316.356
316.48
316.601
316.718
316.833
316.945
317.054
317.16
317.263
317.363
317.46
317.554
317.646
317.734
317.82
317.903
317.984
318.061
318.136
318.208
318.278
318.344
318.409
318.47
318.53
318.587
318.641
318.693
318.743
318.79
318.836
318.879
318.92
318.959
318.996
319.031
319.064
319.096
319.125
319.153
319.179
319.203
319.226
319.247
319.267
319.286
319.303
319.319
319.332
319.348
319.356
319.374
283.136
283.446
283.976
284.579
285.185
285.776
286.346
286.895
287.424
287.932
288.421
288.892
289.347
289.787
290.212
290.624
291.024
291.414
291.793
292.163
292.524
292.878
293.224
293.564
293.898
294.225
294.548
294.865
295.177
295.484
295.787
296.086
296.381
296.672
296.959
297.243
297.523
297.8
298.074
298.345
298.613
298.878
299.141
299.4
299.657
299.911
300.163
300.413
300.66
300.905
301.148
301.388
301.627
301.863
302.097
302.33
302.56
302.789
303.016
303.241
303.464
303.685
303.905
304.123
304.339
304.554
304.767
304.979
305.189
305.397
305.604
305.81
306.014
306.216
306.416
306.616
306.813
307.009
307.204
307.397
307.588
307.777
307.965
308.152
308.336
308.519
308.7
308.879
309.056
309.231
309.405
309.576
309.745
309.912
310.077
310.24
310.4
310.558
310.714
310.868
311.019
311.167
311.313
311.457
311.597
311.736
311.871
312.004
312.135
312.262
312.387
312.51
312.629
312.746
312.86
312.971
313.079
313.184
313.287
313.387
313.484
313.579
313.67
313.759
313.846
313.929
314.01
314.088
314.164
314.237
314.308
314.376
314.441
314.504
314.565
314.623
314.679
314.732
314.784
314.833
314.88
314.925
314.968
315.008
315.047
315.084
315.119
315.152
315.183
315.213
315.241
315.267
315.292
315.315
315.336
315.358
315.374
315.396
315.406
315.431
283.137
283.154
283.264
283.473
283.749
284.068
284.411
284.766
285.128
285.49
285.852
286.21
286.564
286.914
287.258
287.596
287.93
288.258
288.581
288.899
289.213
289.522
289.827
290.128
290.426
290.719
291.01
291.296
291.58
291.86
292.137
292.411
292.682
292.95
293.215
293.478
293.738
293.996
294.251
294.504
294.755
295.003
295.249
295.493
295.735
295.974
296.211
296.447
296.68
296.912
297.141
297.369
297.595
297.82
298.042
298.263
298.483
298.7
298.916
299.131
299.343
299.555
299.764
299.973
300.179
300.385
300.589
300.792
300.993
301.193
301.392
301.589
301.785
301.98
302.173
302.364
302.555
302.744
302.931
303.117
303.302
303.486
303.668
303.849
304.028
304.206
304.382
304.557
304.73
304.901
305.07
305.238
305.404
305.568
305.731
305.892
306.05
306.207
306.362
306.515
306.666
306.814
306.961
307.105
307.246
307.386
307.523
307.658
307.79
307.92
308.048
308.173
308.296
308.416
308.534
308.649
308.762
308.872
308.979
309.084
309.186
309.285
309.382
309.477
309.569
309.658
309.745
309.829
309.911
309.991
310.067
310.142
310.214
310.283
310.35
310.414
310.477
310.537
310.594
310.65
310.703
310.755
310.804
310.851
310.896
310.939
310.98
311.019
311.056
311.092
311.125
311.157
311.187
311.216
311.242
311.27
311.29
311.319
311.331
311.365
283.144
283.142
283.146
283.172
283.231
283.326
283.454
283.611
283.789
283.985
284.193
284.411
284.636
284.866
285.1
285.336
285.574
285.813
286.053
286.294
286.534
286.774
287.014
287.253
287.492
287.73
287.967
288.203
288.439
288.672
288.905
289.136
289.366
289.595
289.822
290.048
290.273
290.496
290.718
290.939
291.158
291.377
291.593
291.809
292.023
292.235
292.446
292.656
292.864
293.071
293.277
293.482
293.685
293.887
294.088
294.288
294.487
294.684
294.88
295.075
295.269
295.461
295.653
295.843
296.032
296.22
296.407
296.593
296.778
296.962
297.144
297.326
297.507
297.686
297.864
298.042
298.218
298.393
298.566
298.739
298.911
299.082
299.251
299.42
299.587
299.754
299.919
300.082
300.245
300.406
300.566
300.724
300.881
301.036
301.19
301.343
301.494
301.644
301.792
301.939
302.084
302.227
302.368
302.508
302.645
302.781
302.914
303.046
303.176
303.304
303.43
303.553
303.675
303.795
303.912
304.028
304.141
304.252
304.36
304.466
304.57
304.671
304.771
304.867
304.962
305.054
305.145
305.232
305.318
305.401
305.482
305.561
305.637
305.711
305.782
305.852
305.919
305.983
306.046
306.107
306.165
306.222
306.276
306.328
306.379
306.427
306.473
306.518
306.56
306.601
306.639
306.676
306.711
306.746
306.775
306.809
306.833
306.868
306.882
306.925
283.144
283.143
283.143
283.143
283.145
283.154
283.172
283.203
283.247
283.305
283.376
283.461
283.557
283.663
283.777
283.9
284.029
284.164
284.303
284.447
284.594
284.745
284.899
285.055
285.213
285.373
285.536
285.699
285.864
286.03
286.196
286.363
286.531
286.699
286.867
287.036
287.205
287.374
287.543
287.712
287.881
288.051
288.22
288.389
288.557
288.725
288.893
289.06
289.227
289.393
289.559
289.725
289.89
290.054
290.219
290.383
290.546
290.709
290.871
291.032
291.193
291.353
291.513
291.672
291.83
291.987
292.144
292.301
292.457
292.612
292.767
292.921
293.074
293.227
293.379
293.53
293.68
293.83
293.979
294.127
294.274
294.421
294.567
294.712
294.857
295.001
295.144
295.287
295.428
295.568
295.707
295.846
295.983
296.12
296.255
296.389
296.523
296.656
296.787
296.917
297.047
297.175
297.301
297.427
297.55
297.673
297.794
297.913
298.031
298.148
298.263
298.377
298.489
298.6
298.709
298.816
298.922
299.025
299.127
299.227
299.325
299.421
299.516
299.608
299.699
299.787
299.874
299.959
300.042
300.124
300.203
300.28
300.355
300.428
300.499
300.568
300.635
300.7
300.763
300.824
300.884
300.941
300.997
301.051
301.103
301.153
301.201
301.248
301.292
301.335
301.376
301.416
301.452
301.49
301.522
301.559
301.584
301.623
301.638
301.686
283.144
283.144
283.143
283.142
283.142
283.141
283.142
283.143
283.147
283.155
283.167
283.185
283.208
283.238
283.273
283.315
283.361
283.414
283.471
283.533
283.599
283.669
283.743
283.82
283.901
283.985
284.072
284.162
284.254
284.348
284.445
284.543
284.642
284.744
284.846
284.951
285.056
285.163
285.271
285.38
285.491
285.602
285.715
285.828
285.941
286.056
286.17
286.285
286.401
286.517
286.633
286.75
286.867
286.984
287.102
287.22
287.338
287.456
287.575
287.693
287.811
287.929
288.047
288.165
288.282
288.4
288.517
288.635
288.752
288.87
288.987
289.104
289.22
289.337
289.453
289.568
289.683
289.798
289.912
290.026
290.14
290.254
290.367
290.48
290.593
290.705
290.816
290.928
291.038
291.148
291.258
291.366
291.475
291.582
291.69
291.796
291.902
292.008
292.113
292.217
292.32
292.423
292.525
292.626
292.726
292.825
292.923
293.02
293.116
293.211
293.306
293.399
293.491
293.583
293.673
293.762
293.849
293.936
294.021
294.105
294.187
294.268
294.348
294.426
294.503
294.578
294.652
294.725
294.796
294.866
294.934
295.001
295.066
295.13
295.192
295.252
295.31
295.367
295.423
295.477
295.53
295.581
295.63
295.678
295.725
295.77
295.813
295.855
295.895
295.934
295.971
296.007
296.041
296.075
296.104
296.139
296.162
296.199
296.212
296.257
283.145
283.145
283.145
283.144
283.144
283.143
283.143
283.142
283.142
283.143
283.145
283.148
283.153
283.16
283.17
283.182
283.197
283.215
283.235
283.259
283.286
283.316
283.349
283.385
283.424
283.465
283.509
283.555
283.604
283.655
283.708
283.763
283.82
283.879
283.939
284.001
284.065
284.13
284.197
284.265
284.335
284.406
284.478
284.551
284.625
284.701
284.776
284.853
284.931
285.009
285.088
285.168
285.248
285.329
285.411
285.493
285.576
285.659
285.742
285.825
285.909
285.993
286.077
286.162
286.246
286.331
286.416
286.501
286.586
286.672
286.757
286.843
286.928
287.013
287.098
287.183
287.268
287.353
287.438
287.522
287.607
287.691
287.776
287.86
287.944
288.028
288.111
288.194
288.277
288.36
288.442
288.524
288.605
288.687
288.768
288.848
288.929
289.009
289.088
289.168
289.246
289.324
289.402
289.479
289.555
289.631
289.706
289.781
289.855
289.928
290.001
290.073
290.144
290.214
290.284
290.353
290.421
290.488
290.554
290.619
290.684
290.747
290.809
290.87
290.93
290.99
291.048
291.105
291.161
291.216
291.27
291.322
291.374
291.424
291.473
291.52
291.567
291.612
291.656
291.699
291.741
291.782
291.821
291.859
291.896
291.932
291.967
292
292.032
292.064
292.093
292.122
292.149
292.177
292.2
292.228
292.246
292.276
292.287
292.323
283.147
283.147
283.147
283.147
283.146
283.145
283.144
283.144
283.143
283.143
283.143
283.144
283.145
283.147
283.15
283.154
283.159
283.165
283.174
283.184
283.195
283.209
283.225
283.243
283.263
283.284
283.308
283.333
283.361
283.39
283.42
283.453
283.486
283.522
283.559
283.597
283.637
283.678
283.721
283.765
283.81
283.857
283.904
283.952
284.001
284.052
284.103
284.154
284.207
284.26
284.315
284.369
284.425
284.481
284.538
284.595
284.653
284.711
284.77
284.828
284.887
284.947
285.007
285.067
285.127
285.188
285.248
285.309
285.371
285.432
285.493
285.555
285.616
285.678
285.739
285.801
285.862
285.924
285.986
286.047
286.109
286.17
286.232
286.293
286.354
286.416
286.477
286.538
286.598
286.659
286.719
286.779
286.839
286.899
286.958
287.018
287.077
287.136
287.195
287.253
287.311
287.369
287.426
287.483
287.539
287.595
287.651
287.706
287.761
287.815
287.869
287.923
287.976
288.028
288.08
288.131
288.181
288.231
288.28
288.329
288.377
288.424
288.47
288.516
288.561
288.605
288.648
288.691
288.733
288.774
288.814
288.853
288.891
288.928
288.965
289
289.035
289.069
289.102
289.134
289.165
289.195
289.225
289.253
289.281
289.307
289.333
289.358
289.382
289.405
289.427
289.448
289.468
289.489
289.506
289.527
289.541
289.563
289.57
289.597
283.15
283.149
283.148
283.147
283.147
283.146
283.145
283.144
283.144
283.144
283.143
283.143
283.144
283.144
283.145
283.147
283.149
283.152
283.155
283.16
283.166
283.173
283.181
283.19
283.201
283.213
283.227
283.241
283.257
283.274
283.292
283.311
283.332
283.354
283.377
283.401
283.426
283.452
283.479
283.507
283.536
283.565
283.596
283.627
283.659
283.692
283.726
283.76
283.794
283.83
283.866
283.902
283.939
283.977
284.015
284.053
284.092
284.131
284.17
284.21
284.25
284.29
284.331
284.371
284.412
284.454
284.495
284.537
284.578
284.62
284.662
284.704
284.746
284.788
284.83
284.873
284.915
284.957
284.999
285.042
285.084
285.126
285.169
285.211
285.253
285.295
285.337
285.379
285.421
285.463
285.504
285.546
285.587
285.629
285.67
285.711
285.752
285.793
285.833
285.874
285.914
285.953
285.993
286.032
286.072
286.11
286.149
286.187
286.225
286.263
286.3
286.337
286.374
286.41
286.446
286.481
286.516
286.551
286.585
286.618
286.651
286.684
286.716
286.748
286.779
286.809
286.839
286.869
286.898
286.926
286.953
286.98
287.007
287.032
287.057
287.082
287.106
287.129
287.152
287.174
287.195
287.216
287.236
287.256
287.274
287.293
287.31
287.327
287.343
287.359
287.374
287.389
287.402
287.416
287.428
287.442
287.451
287.466
287.471
287.489
283.15
283.149
283.148
283.147
283.147
283.146
283.145
283.145
283.144
283.144
283.144
283.144
283.144
283.144
283.144
283.145
283.146
283.147
283.149
283.152
283.155
283.158
283.163
283.168
283.174
283.18
283.188
283.196
283.204
283.214
283.224
283.235
283.247
283.259
283.272
283.286
283.3
283.316
283.331
283.347
283.364
283.381
283.399
283.418
283.436
283.456
283.475
283.495
283.516
283.537
283.558
283.579
283.601
283.623
283.646
283.669
283.692
283.715
283.738
283.762
283.786
283.809
283.834
283.858
283.882
283.907
283.932
283.956
283.981
284.006
284.031
284.056
284.082
284.107
284.132
284.157
284.183
284.208
284.233
284.259
284.284
284.309
284.335
284.36
284.385
284.411
284.436
284.461
284.486
284.511
284.536
284.561
284.586
284.611
284.636
284.66
284.685
284.709
284.734
284.758
284.782
284.806
284.829
284.853
284.877
284.9
284.923
284.946
284.969
284.992
285.014
285.036
285.058
285.08
285.101
285.122
285.143
285.164
285.184
285.204
285.224
285.244
285.263
285.282
285.3
285.318
285.336
285.354
285.371
285.388
285.404
285.42
285.436
285.451
285.466
285.481
285.495
285.508
285.522
285.535
285.548
285.56
285.572
285.583
285.594
285.605
285.615
285.625
285.635
285.644
285.653
285.661
285.669
285.677
285.684
285.692
285.698
285.706
285.709
285.72
283.149
283.148
283.148
283.147
283.147
283.146
283.146
283.145
283.145
283.145
283.144
283.144
283.144
283.145
283.145
283.145
283.146
283.146
283.147
283.148
283.149
283.151
283.152
283.154
283.156
283.159
283.161
283.164
283.167
283.17
283.174
283.178
283.182
283.186
283.191
283.195
283.2
283.205
283.211
283.216
283.222
283.228
283.234
283.24
283.246
283.253
283.26
283.267
283.273
283.281
283.288
283.295
283.303
283.31
283.318
283.326
283.333
283.341
283.349
283.357
283.365
283.374
283.382
283.39
283.398
283.407
283.415
283.424
283.432
283.441
283.449
283.458
283.466
283.475
283.484
283.492
283.501
283.51
283.518
283.527
283.536
283.544
283.553
283.562
283.57
283.579
283.587
283.596
283.605
283.613
283.622
283.63
283.639
283.647
283.656
283.664
283.672
283.681
283.689
283.697
283.706
283.714
283.722
283.73
283.738
283.746
283.754
283.762
283.769
283.777
283.785
283.792
283.8
283.807
283.814
283.822
283.829
283.836
283.843
283.849
283.856
283.863
283.869
283.876
283.882
283.888
283.894
283.9
283.906
283.912
283.917
283.922
283.928
283.933
283.938
283.943
283.948
283.952
283.957
283.961
283.965
283.969
283.973
283.977
283.981
283.985
283.988
283.991
283.995
283.998
284.001
284.003
284.006
284.009
284.011
284.014
284.016
284.018
284.019
284.023
)
;

boundaryField
{
    upperWall
    {
        type            fixedValue;
        value           uniform 283.15;
    }
    lowerWall
    {
        type            fixedValue;
        value           uniform 283.15;
    }
    heatedWall
    {
        type            externalWallHeatFluxTemperature;
        mode            power;
        kappaMethod     fluidThermo;
        kappa           none;
        alphaAni        Anialpha;
        Q               5040;
        qr              none;
        refValue        nonuniform List<scalar> 
160
(
287.945
290.085
291.562
292.751
293.771
294.68
295.507
296.268
296.973
297.633
298.252
298.835
299.388
299.913
300.413
300.891
301.35
301.791
302.216
302.627
303.026
303.413
303.79
304.158
304.518
304.87
305.214
305.552
305.884
306.21
306.531
306.847
307.158
307.465
307.767
308.065
308.359
308.649
308.936
309.219
309.499
309.775
310.048
310.319
310.586
310.851
311.113
311.372
311.628
311.882
312.134
312.383
312.63
312.875
313.117
313.358
313.596
313.832
314.066
314.298
314.528
314.757
314.983
315.208
315.431
315.652
315.871
316.089
316.304
316.518
316.731
316.941
317.15
317.357
317.563
317.766
317.968
318.168
318.366
318.562
318.757
318.949
319.14
319.328
319.514
319.699
319.881
320.06
320.238
320.413
320.586
320.756
320.924
321.09
321.253
321.413
321.57
321.725
321.877
322.027
322.173
322.317
322.457
322.595
322.73
322.862
322.991
323.117
323.24
323.36
323.476
323.59
323.701
323.809
323.913
324.015
324.114
324.209
324.302
324.392
324.479
324.563
324.644
324.722
324.797
324.87
324.94
325.007
325.072
325.133
325.193
325.25
325.304
325.356
325.405
325.453
325.497
325.54
325.581
325.619
325.655
325.689
325.722
325.752
325.781
325.807
325.832
325.856
325.877
325.897
325.916
325.933
325.949
325.963
325.976
325.988
325.998
326.008
326.015
326.026
)
;
        refGradient     nonuniform List<scalar> 
160
(
273.24
259.551
261.084
264.566
267.728
270.415
272.785
274.876
276.694
278.261
279.605
280.753
281.728
282.549
283.236
283.813
284.288
284.685
285.017
285.291
285.524
285.723
285.895
286.045
286.179
286.299
286.41
286.513
286.609
286.7
286.788
286.872
286.953
287.032
287.108
287.183
287.256
287.327
287.397
287.465
287.532
287.597
287.661
287.723
287.784
287.844
287.903
287.96
288.017
288.072
288.126
288.18
288.232
288.283
288.334
288.383
288.432
288.479
288.526
288.573
288.618
288.663
288.707
288.75
288.793
288.835
288.877
288.917
288.958
288.997
289.036
289.074
289.112
289.149
289.186
289.222
289.257
289.291
289.325
289.359
289.391
289.423
289.454
289.484
289.514
289.542
289.57
289.597
289.622
289.647
289.671
289.694
289.715
289.736
289.755
289.773
289.79
289.806
289.82
289.833
289.845
289.855
289.863
289.87
289.876
289.88
289.882
289.883
289.883
289.88
289.876
289.87
289.863
289.854
289.843
289.83
289.816
289.8
289.782
289.763
289.742
289.719
289.694
289.668
289.639
289.61
289.578
289.545
289.51
289.474
289.435
289.396
289.354
289.311
289.267
289.221
289.173
289.124
289.074
289.022
288.969
288.914
288.858
288.801
288.743
288.682
288.622
288.559
288.497
288.431
288.368
288.297
288.236
288.158
288.102
288.013
287.968
287.86
287.831
287.697
)
;
        valueFraction   uniform 0;
        value           nonuniform List<scalar> 
160
(
287.945
290.085
291.562
292.751
293.771
294.68
295.507
296.268
296.973
297.633
298.252
298.835
299.388
299.913
300.413
300.891
301.35
301.791
302.216
302.627
303.026
303.413
303.79
304.158
304.518
304.87
305.214
305.552
305.884
306.21
306.531
306.847
307.158
307.465
307.767
308.065
308.359
308.649
308.936
309.219
309.499
309.775
310.048
310.319
310.586
310.851
311.113
311.372
311.628
311.882
312.134
312.383
312.63
312.875
313.117
313.358
313.596
313.832
314.066
314.298
314.528
314.757
314.983
315.208
315.431
315.652
315.871
316.089
316.304
316.518
316.731
316.941
317.15
317.357
317.563
317.766
317.968
318.168
318.366
318.562
318.757
318.949
319.14
319.328
319.514
319.699
319.881
320.06
320.238
320.413
320.586
320.756
320.924
321.09
321.253
321.413
321.57
321.725
321.877
322.027
322.173
322.317
322.457
322.595
322.73
322.862
322.991
323.117
323.24
323.36
323.476
323.59
323.701
323.809
323.913
324.015
324.114
324.209
324.302
324.392
324.479
324.563
324.644
324.722
324.797
324.87
324.94
325.007
325.072
325.133
325.193
325.25
325.304
325.356
325.405
325.453
325.497
325.54
325.581
325.619
325.655
325.689
325.722
325.752
325.781
325.807
325.832
325.856
325.877
325.897
325.916
325.933
325.949
325.963
325.976
325.988
325.998
326.008
326.015
326.026
)
;
    }
    inlet
    {
        type            fixedValue;
        value           uniform 283.15;
    }
    outlet
    {
        type            inletOutlet;
        inletValue      uniform 283.15;
        value           nonuniform List<scalar> 
12
(
323.629
319.374
315.431
311.365
306.925
301.686
296.257
292.323
289.597
287.489
285.72
284.023
)
;
    }
    frontAndBack
    {
        type            empty;
    }
}


// ************************************************************************* //
