/*--------------------------------*- C++ -*----------------------------------*\
  =========                 |
  \\      /  F ield         | OpenFOAM: The Open Source CFD Toolbox
   \\    /   O peration     | Website:  https://openfoam.org
    \\  /    A nd           | Version:  7
     \\/     M anipulation  |
\*---------------------------------------------------------------------------*/
FoamFile
{
    version     2.0;
    format      ascii;
    class       volScalarField;
    location    "1.65";
    object      nut;
}
// * * * * * * * * * * * * * * * * * * * * * * * * * * * * * * * * * * * * * //

dimensions      [0 2 -1 0 0 0 0];

internalField   nonuniform List<scalar> 
1800
(
0.00126647
0.00290378
0.00335781
0.00332824
0.00318845
0.00298587
0.00282208
0.00269717
0.00260293
0.00252971
0.0024707
0.00242144
0.00237911
0.00234196
0.00230885
0.00227906
0.00225211
0.00222756
0.00220516
0.00218456
0.00216565
0.00214807
0.00213184
0.00211661
0.00210238
0.00208907
0.00207605
0.00206466
0.00204969
0.0020595
0.000226634
0.000914844
0.00160254
0.00194068
0.00209607
0.00215053
0.00216279
0.00216033
0.00215317
0.00214122
0.00212835
0.00211494
0.0021012
0.00208765
0.00207448
0.0020618
0.00204959
0.00203791
0.00202662
0.00201591
0.00200537
0.00199569
0.0019856
0.00197724
0.00196707
0.00196061
0.0019497
0.00194476
0.00193068
0.00193046
2.50393e-05
0.000178351
0.000404114
0.000668247
0.000868083
0.000995034
0.00107644
0.00113177
0.00117269
0.00120544
0.0012331
0.00125815
0.00128143
0.0013035
0.00132372
0.00134301
0.00136021
0.00137692
0.00139115
0.00140561
0.00141693
0.00142959
0.00143808
0.00144941
0.00145528
0.00146547
0.00146952
0.0014783
0.00148086
0.00148707
1.10859e-05
2.91031e-05
7.63475e-05
0.000145413
0.000231956
0.000311501
0.000372869
0.000422673
0.000462087
0.000496298
0.000524941
0.00055173
0.000575066
0.000598297
0.000618907
0.000640273
0.000659238
0.000679488
0.000697336
0.000716822
0.000733866
0.000752678
0.000769164
0.000787143
0.000803398
0.000820084
0.000836656
0.000851226
0.000868993
0.000880487
1.09179e-05
1.1886e-05
1.64396e-05
2.67909e-05
4.22974e-05
6.4104e-05
8.25759e-05
0.000102239
0.000118044
0.000134473
0.000148441
0.000163097
0.000176008
0.000189516
0.000201776
0.000214472
0.00022627
0.0002383
0.000249768
0.000261243
0.000272562
0.000283608
0.000294968
0.00030562
0.000317254
0.000327436
0.000339687
0.000349111
0.000362541
0.000370936
1.08944e-05
1.13391e-05
1.26168e-05
1.37633e-05
1.58529e-05
1.72582e-05
1.98448e-05
2.14701e-05
2.44676e-05
2.62609e-05
2.96042e-05
3.15926e-05
3.5333e-05
3.75209e-05
4.16553e-05
4.4014e-05
4.84829e-05
5.09793e-05
5.56711e-05
5.84148e-05
6.31929e-05
6.62135e-05
7.10985e-05
7.43431e-05
7.9378e-05
8.27761e-05
8.80458e-05
9.15734e-05
9.729e-05
0.000100832
1.08943e-05
1.13391e-05
1.26167e-05
1.37629e-05
1.60094e-05
1.73129e-05
1.99909e-05
2.15335e-05
2.45751e-05
2.6307e-05
2.96865e-05
3.16262e-05
3.54026e-05
3.75486e-05
4.17162e-05
4.4034e-05
4.85332e-05
5.09885e-05
5.57577e-05
5.83257e-05
6.33201e-05
6.59883e-05
7.11846e-05
7.39415e-05
7.93105e-05
8.21346e-05
8.76284e-05
9.04763e-05
9.60291e-05
9.89442e-05
1.09178e-05
1.18853e-05
1.64357e-05
2.67832e-05
4.47895e-05
6.1119e-05
8.55246e-05
9.98505e-05
0.000120106
0.000132616
0.000150101
0.000161515
0.000177457
0.000188109
0.000203083
0.000213168
0.000227468
0.00023704
0.000250853
0.000259987
0.000273489
0.000282301
0.000295642
0.000304171
0.00031745
0.000325663
0.000338938
0.000346629
0.000359905
0.000367097
1.10855e-05
2.90928e-05
7.63271e-05
0.000145387
0.000232226
0.000311223
0.000373104
0.000422408
0.000462315
0.000495979
0.000525194
0.000551364
0.000575384
0.000597874
0.000619302
0.000639754
0.000659704
0.000678823
0.000697868
0.000715953
0.000734431
0.000751521
0.000769661
0.000785574
0.00080357
0.000817915
0.00083593
0.000848123
0.000866094
0.000876
2.50309e-05
0.000178319
0.00040407
0.000668206
0.000868045
0.000995025
0.00107643
0.00113175
0.00117267
0.0012054
0.00123307
0.00125812
0.00128141
0.00130346
0.00132371
0.00134294
0.00136019
0.00137679
0.00139111
0.00140537
0.00141684
0.00142917
0.00143788
0.00144867
0.00145478
0.00146428
0.00146817
0.00147598
0.00147821
0.00148309
0.000226615
0.000914793
0.00160249
0.00194065
0.00209606
0.00215052
0.00216278
0.00216032
0.00215316
0.00214122
0.00212835
0.00211494
0.00210119
0.00208766
0.00207446
0.00206182
0.00204955
0.00203796
0.00202654
0.00201601
0.00200521
0.00199589
0.00198534
0.00197761
0.00196673
0.00196106
0.00194951
0.00194502
0.00193079
0.00193133
0.00126647
0.00290378
0.00335781
0.00332824
0.00318846
0.00298587
0.00282209
0.00269718
0.00260295
0.00252973
0.00247072
0.00242147
0.00237914
0.002342
0.00230889
0.00227915
0.00225217
0.00222773
0.00220529
0.00218491
0.00216589
0.00214881
0.00213233
0.00211813
0.00210336
0.00209209
0.00207812
0.00207026
0.00205513
0.00206685
0.00530953
0.00560246
0.00558174
0.00553492
0.00550564
0.00548476
0.00547052
0.00546269
0.00546009
0.00546158
0.00546583
0.00547191
0.00547892
0.00548639
0.00549401
0.0055016
0.00550907
0.00551639
0.00552355
0.00553052
0.00553731
0.00554391
0.00555033
0.00555658
0.00556269
0.00556867
0.00557454
0.00558032
0.005586
0.00559158
0.00559704
0.00560238
0.00560759
0.00561266
0.0056176
0.00562243
0.00562716
0.00563182
0.00563641
0.00564094
0.00564539
0.00564978
0.00565408
0.0056583
0.00566244
0.00566652
0.00567055
0.00567454
0.00567851
0.00568246
0.0056864
0.0056903
0.00569417
0.005698
0.0057018
0.00570555
0.00570927
0.00571296
0.00571664
0.0057203
0.00572395
0.0057276
0.00573124
0.00573488
0.00573852
0.00574215
0.00574577
0.00574938
0.00575299
0.00575658
0.00576017
0.00576374
0.0057673
0.00577086
0.0057744
0.00577793
0.00578145
0.00578496
0.00578845
0.00579194
0.00579541
0.00579887
0.00580232
0.00580575
0.00580918
0.00581259
0.00581599
0.00581938
0.00582275
0.00582611
0.00582946
0.0058328
0.00583613
0.00583944
0.00584274
0.00584602
0.0058493
0.00585256
0.0058558
0.00585904
0.00586226
0.00586547
0.00586866
0.00587184
0.00587501
0.00587817
0.0058813
0.00588445
0.00588753
0.00589068
0.0058937
0.00589689
0.00589979
0.00590308
0.00590576
0.00590933
0.00591153
0.00591571
0.00591715
0.00592236
0.00525236
0.00585723
0.00596902
0.00596726
0.00595552
0.00594532
0.00594121
0.00594187
0.00594514
0.00595135
0.00595869
0.00596668
0.00597485
0.00598296
0.00599088
0.00599857
0.00600603
0.00601328
0.00602034
0.00602723
0.00603395
0.00604053
0.00604696
0.00605327
0.00605946
0.00606554
0.00607152
0.0060774
0.0060832
0.0060889
0.0060945
0.0061
0.00610539
0.00611067
0.00611584
0.00612091
0.0061259
0.0061308
0.00613563
0.00614039
0.00614508
0.00614971
0.00615427
0.00615877
0.0061632
0.00616758
0.00617191
0.0061762
0.00618047
0.0061847
0.00618891
0.0061931
0.00619726
0.00620138
0.00620548
0.00620955
0.0062136
0.00621762
0.00622162
0.00622561
0.0062296
0.00623357
0.00623754
0.0062415
0.00624545
0.0062494
0.00625334
0.00625727
0.0062612
0.00626511
0.00626902
0.00627292
0.0062768
0.00628068
0.00628455
0.00628841
0.00629225
0.00629609
0.00629992
0.00630373
0.00630754
0.00631134
0.00631512
0.00631889
0.00632266
0.00632641
0.00633015
0.00633389
0.00633761
0.00634132
0.00634502
0.00634871
0.00635239
0.00635605
0.00635971
0.00636335
0.00636699
0.00637061
0.00637422
0.00637782
0.00638141
0.00638498
0.00638854
0.0063921
0.00639564
0.00639917
0.00640268
0.00640621
0.00640966
0.0064132
0.00641659
0.00642018
0.00642343
0.00642716
0.00643013
0.00643422
0.00643664
0.00644138
0.00644319
0.00644879
0.00399997
0.00486422
0.00515758
0.00525255
0.00528907
0.00530984
0.00532715
0.00534338
0.00535797
0.00537109
0.00538245
0.0053922
0.00540062
0.00540801
0.00541464
0.00542074
0.00542647
0.00543193
0.0054372
0.00544235
0.00544741
0.00545241
0.00545739
0.00546233
0.00546725
0.00547214
0.00547699
0.00548178
0.00548652
0.00549118
0.00549578
0.00550033
0.00550483
0.00550929
0.0055137
0.00551806
0.00552237
0.00552661
0.00553078
0.00553487
0.0055389
0.00554286
0.00554678
0.00555066
0.0055545
0.00555832
0.0055621
0.00556584
0.00556954
0.00557319
0.0055768
0.00558037
0.0055839
0.00558741
0.00559091
0.00559439
0.00559786
0.00560132
0.00560476
0.00560819
0.00561161
0.00561501
0.0056184
0.00562178
0.00562515
0.00562851
0.00563185
0.0056352
0.00563853
0.00564186
0.00564519
0.00564851
0.00565183
0.00565514
0.00565845
0.00566176
0.00566506
0.00566836
0.00567166
0.00567495
0.00567823
0.00568152
0.0056848
0.00568807
0.00569135
0.00569461
0.00569788
0.00570114
0.00570439
0.00570764
0.00571089
0.00571413
0.00571736
0.00572059
0.00572382
0.00572704
0.00573026
0.00573347
0.00573668
0.00573989
0.00574308
0.00574628
0.00574946
0.00575265
0.00575582
0.005759
0.00576215
0.00576534
0.00576846
0.00577167
0.00577473
0.005778
0.00578093
0.00578436
0.00578704
0.00579081
0.00579301
0.0057973
0.00579914
0.00580415
0.00222113
0.00329886
0.00387493
0.00415768
0.00430503
0.00439372
0.00445485
0.00450033
0.00453443
0.00455973
0.00457806
0.00459114
0.00460048
0.0046073
0.0046125
0.00461671
0.00462034
0.00462364
0.00462677
0.00462982
0.00463287
0.00463596
0.00463912
0.00464237
0.00464571
0.00464912
0.00465258
0.00465604
0.0046595
0.00466292
0.00466631
0.00466969
0.00467306
0.00467646
0.00467987
0.00468331
0.00468676
0.00469018
0.00469356
0.00469688
0.00470014
0.00470333
0.00470649
0.00470963
0.00471277
0.00471591
0.00471905
0.00472216
0.00472523
0.00472824
0.0047312
0.00473409
0.00473695
0.00473977
0.00474258
0.00474539
0.0047482
0.00475101
0.00475381
0.0047566
0.00475937
0.00476213
0.00476486
0.00476757
0.00477027
0.00477294
0.0047756
0.00477826
0.0047809
0.00478354
0.00478617
0.00478881
0.00479144
0.00479407
0.0047967
0.00479933
0.00480196
0.0048046
0.00480723
0.00480986
0.0048125
0.00481513
0.00481777
0.00482041
0.00482305
0.00482568
0.00482832
0.00483096
0.0048336
0.00483624
0.00483888
0.00484152
0.00484416
0.0048468
0.00484945
0.00485209
0.00485473
0.00485738
0.00486002
0.00486267
0.00486531
0.00486796
0.0048706
0.00487325
0.00487589
0.00487855
0.00488118
0.00488385
0.00488646
0.00488917
0.00489173
0.00489451
0.00489696
0.0048999
0.00490212
0.00490536
0.00490722
0.00491083
0.0049125
0.00491678
0.000897852
0.00143756
0.00215565
0.00267475
0.00301177
0.00323094
0.00337664
0.00347553
0.00354295
0.00358847
0.00361858
0.00363799
0.00365018
0.00365769
0.00366229
0.00366516
0.00366706
0.00366843
0.00366956
0.00367061
0.00367169
0.00367286
0.00367417
0.00367565
0.0036773
0.00367911
0.00368106
0.0036831
0.00368519
0.0036873
0.00368942
0.00369154
0.0036937
0.00369592
0.00369823
0.00370061
0.00370307
0.00370558
0.00370809
0.00371058
0.00371303
0.00371544
0.00371782
0.0037202
0.00372259
0.00372501
0.00372746
0.00372991
0.00373236
0.00373476
0.0037371
0.00373938
0.0037416
0.00374379
0.00374597
0.00374814
0.00375032
0.0037525
0.00375469
0.00375688
0.00375905
0.00376121
0.00376333
0.00376543
0.0037675
0.00376955
0.00377158
0.0037736
0.0037756
0.0037776
0.00377959
0.00378158
0.00378356
0.00378555
0.00378753
0.00378952
0.00379151
0.0037935
0.0037955
0.00379749
0.00379949
0.00380149
0.00380349
0.0038055
0.0038075
0.00380951
0.00381152
0.00381353
0.00381555
0.00381756
0.00381958
0.0038216
0.00382363
0.00382565
0.00382768
0.00382971
0.00383175
0.00383378
0.00383582
0.00383786
0.0038399
0.00384195
0.00384399
0.00384605
0.00384809
0.00385016
0.0038522
0.00385429
0.00385631
0.00385844
0.00386041
0.00386262
0.00386449
0.00386685
0.00386854
0.00387113
0.00387258
0.00387538
0.00387675
0.00388014
0.000241973
0.000405026
0.000696684
0.00109048
0.0015016
0.00184279
0.00210631
0.00230074
0.00243959
0.00253624
0.00260201
0.00264583
0.00267443
0.00269274
0.00270423
0.00271131
0.00271557
0.00271808
0.00271951
0.00272032
0.00272081
0.00272117
0.00272155
0.00272204
0.00272269
0.00272351
0.00272451
0.00272564
0.00272686
0.00272815
0.00272947
0.00273084
0.00273225
0.00273372
0.00273527
0.00273692
0.00273866
0.00274047
0.00274232
0.00274416
0.00274599
0.00274778
0.00274954
0.0027513
0.00275307
0.00275488
0.00275673
0.0027586
0.00276048
0.00276233
0.00276414
0.00276589
0.00276759
0.00276926
0.0027709
0.00277254
0.00277418
0.00277584
0.0027775
0.00277916
0.00278082
0.00278246
0.00278407
0.00278567
0.00278723
0.00278878
0.0027903
0.00279181
0.0027933
0.00279479
0.00279627
0.00279774
0.00279922
0.00280069
0.00280216
0.00280363
0.0028051
0.00280657
0.00280805
0.00280952
0.002811
0.00281248
0.00281396
0.00281544
0.00281692
0.0028184
0.00281989
0.00282137
0.00282286
0.00282435
0.00282583
0.00282733
0.00282882
0.00283031
0.00283181
0.0028333
0.0028348
0.0028363
0.0028378
0.00283931
0.00284081
0.00284232
0.00284382
0.00284535
0.00284684
0.00284838
0.00284986
0.00285143
0.00285287
0.0028545
0.00285588
0.00285759
0.00285887
0.00286071
0.00286186
0.00286383
0.00286487
0.00286692
0.00286795
0.00287048
0.00023897
0.000396328
0.000683424
0.00107397
0.00149209
0.00184022
0.00210935
0.00230804
0.00245011
0.00254929
0.00261717
0.00266288
0.00269326
0.00271328
0.00272646
0.0027352
0.0027411
0.00274521
0.00274822
0.00275056
0.00275251
0.00275429
0.00275602
0.00275781
0.0027597
0.00276172
0.00276385
0.00276605
0.00276829
0.0027705
0.00277268
0.00277483
0.00277694
0.00277906
0.0027812
0.00278338
0.00278559
0.00278783
0.00279005
0.00279223
0.00279434
0.00279637
0.00279833
0.00280026
0.00280218
0.00280411
0.00280607
0.00280804
0.00281001
0.00281194
0.00281381
0.00281561
0.00281734
0.00281902
0.00282068
0.00282232
0.00282397
0.00282563
0.00282729
0.00282896
0.00283063
0.00283228
0.00283391
0.00283552
0.0028371
0.00283867
0.00284021
0.00284174
0.00284326
0.00284477
0.00284627
0.00284777
0.00284927
0.00285076
0.00285225
0.00285375
0.00285524
0.00285674
0.00285824
0.00285974
0.00286123
0.00286273
0.00286424
0.00286574
0.00286724
0.00286875
0.00287025
0.00287176
0.00287327
0.00287478
0.00287629
0.0028778
0.00287932
0.00288083
0.00288235
0.00288387
0.00288539
0.00288691
0.00288843
0.00288996
0.00289148
0.00289301
0.00289453
0.00289607
0.00289759
0.00289915
0.00290064
0.00290223
0.0029037
0.00290534
0.00290674
0.00290847
0.00290977
0.00291163
0.00291279
0.0029148
0.00291584
0.00291792
0.00291895
0.00292152
0.000893811
0.00142569
0.00213985
0.00267008
0.00301691
0.00324335
0.00339431
0.00349693
0.00356712
0.00361478
0.00364665
0.00366762
0.00368126
0.00369016
0.0036961
0.00370028
0.00370343
0.00370602
0.00370832
0.00371048
0.00371262
0.0037148
0.00371707
0.00371947
0.00372199
0.00372463
0.00372735
0.00373011
0.00373287
0.00373559
0.00373826
0.00374089
0.00374349
0.0037461
0.00374874
0.00375143
0.00375416
0.00375689
0.0037596
0.00376226
0.00376485
0.00376738
0.00376986
0.00377232
0.00377478
0.00377726
0.00377977
0.00378228
0.00378477
0.00378721
0.00378959
0.0037919
0.00379415
0.00379636
0.00379855
0.00380073
0.00380293
0.00380513
0.00380734
0.00380954
0.00381174
0.00381391
0.00381606
0.00381819
0.00382029
0.00382237
0.00382443
0.00382648
0.00382851
0.00383054
0.00383256
0.00383458
0.0038366
0.00383862
0.00384063
0.00384265
0.00384467
0.0038467
0.00384872
0.00385074
0.00385277
0.0038548
0.00385683
0.00385886
0.00386089
0.00386293
0.00386496
0.003867
0.00386905
0.00387109
0.00387314
0.00387518
0.00387723
0.00387929
0.00388134
0.0038834
0.00388545
0.00388752
0.00388958
0.00389164
0.0038937
0.00389577
0.00389784
0.00389992
0.00390198
0.00390407
0.00390612
0.00390823
0.00391027
0.00391242
0.00391441
0.00391664
0.00391852
0.00392091
0.0039226
0.00392522
0.00392667
0.00392951
0.00393088
0.00393432
0.00222686
0.0032894
0.00387928
0.00417235
0.00432572
0.00441771
0.00448056
0.00452658
0.00456076
0.00458568
0.00460341
0.00461576
0.00462431
0.00463031
0.00463467
0.00463803
0.00464082
0.00464328
0.00464558
0.00464785
0.00465014
0.0046525
0.00465497
0.00465755
0.00466024
0.00466301
0.00466585
0.00466872
0.0046716
0.00467449
0.00467738
0.00468028
0.00468322
0.0046862
0.00468922
0.00469229
0.00469539
0.00469849
0.00470158
0.00470464
0.00470768
0.00471069
0.0047137
0.00471671
0.00471974
0.00472278
0.00472583
0.00472886
0.00473187
0.00473483
0.00473775
0.00474063
0.00474348
0.00474631
0.00474914
0.00475197
0.00475479
0.00475762
0.00476044
0.00476325
0.00476603
0.0047688
0.00477154
0.00477426
0.00477696
0.00477964
0.00478231
0.00478497
0.00478762
0.00479027
0.00479291
0.00479555
0.00479818
0.00480082
0.00480346
0.0048061
0.00480874
0.00481137
0.00481401
0.00481665
0.00481929
0.00482193
0.00482457
0.00482721
0.00482985
0.00483249
0.00483513
0.00483778
0.00484042
0.00484306
0.00484571
0.00484835
0.00485099
0.00485364
0.00485628
0.00485893
0.00486157
0.00486421
0.00486686
0.0048695
0.00487215
0.00487479
0.00487744
0.00488008
0.00488272
0.00488538
0.00488801
0.00489068
0.00489328
0.00489599
0.00489854
0.00490132
0.00490377
0.0049067
0.00490892
0.00491216
0.00491401
0.00491763
0.00491928
0.00492357
0.00400691
0.00487187
0.00517536
0.00527336
0.00530945
0.00532862
0.00534369
0.00535716
0.00536935
0.00537975
0.0053885
0.00539564
0.00540147
0.00540629
0.00541036
0.00541392
0.00541715
0.00542018
0.0054231
0.00542599
0.00542889
0.00543183
0.00543483
0.00543788
0.00544097
0.00544411
0.00544728
0.00545047
0.00545371
0.00545698
0.00546029
0.00546366
0.00546707
0.00547053
0.00547403
0.00547755
0.00548108
0.00548463
0.00548818
0.00549173
0.0054953
0.00549888
0.00550248
0.00550609
0.0055097
0.00551331
0.0055169
0.00552047
0.00552402
0.00552755
0.00553106
0.00553456
0.00553806
0.00554156
0.00554505
0.00554854
0.00555201
0.00555547
0.00555892
0.00556234
0.00556575
0.00556913
0.0055725
0.00557586
0.0055792
0.00558252
0.00558584
0.00558916
0.00559246
0.00559576
0.00559906
0.00560235
0.00560564
0.00560892
0.00561221
0.00561548
0.00561876
0.00562203
0.00562529
0.00562856
0.00563181
0.00563507
0.00563832
0.00564157
0.00564481
0.00564805
0.00565129
0.00565452
0.00565775
0.00566097
0.00566419
0.0056674
0.00567061
0.00567382
0.00567702
0.00568021
0.00568341
0.00568659
0.00568978
0.00569295
0.00569613
0.00569929
0.00570245
0.00570561
0.00570876
0.00571191
0.00571504
0.0057182
0.0057213
0.00572448
0.00572752
0.00573076
0.00573368
0.00573708
0.00573974
0.00574348
0.00574566
0.00574993
0.00575175
0.00575674
0.00525967
0.00587156
0.0059803
0.00597475
0.00595698
0.00594149
0.00593216
0.00592768
0.00592725
0.00592879
0.00593221
0.00593635
0.00594075
0.00594513
0.00594937
0.00595344
0.00595736
0.00596117
0.0059649
0.00596858
0.00597224
0.00597588
0.0059795
0.00598311
0.00598671
0.00599032
0.00599394
0.0059976
0.00600131
0.00600508
0.00600891
0.00601278
0.00601669
0.00602063
0.00602458
0.00602854
0.00603252
0.00603652
0.00604054
0.00604461
0.0060487
0.00605282
0.00605695
0.00606107
0.00606518
0.00606927
0.00607335
0.00607741
0.00608147
0.00608553
0.0060896
0.00609368
0.00609776
0.00610183
0.00610589
0.00610993
0.00611395
0.00611795
0.00612193
0.00612589
0.00612983
0.00613376
0.00613768
0.00614159
0.00614548
0.00614937
0.00615325
0.00615712
0.00616098
0.00616484
0.00616868
0.00617252
0.00617635
0.00618016
0.00618397
0.00618777
0.00619156
0.00619534
0.00619911
0.00620287
0.00620662
0.00621036
0.00621409
0.00621781
0.00622152
0.00622522
0.00622891
0.00623259
0.00623626
0.00623992
0.00624357
0.00624721
0.00625084
0.00625446
0.00625806
0.00626166
0.00626524
0.00626881
0.00627238
0.00627593
0.00627947
0.00628301
0.00628653
0.00629005
0.00629354
0.00629704
0.00630051
0.006304
0.00630742
0.00631091
0.00631426
0.00631781
0.00632103
0.00632472
0.00632767
0.0063317
0.00633411
0.00633879
0.0063406
0.00634612
0.00529587
0.00559007
0.00555782
0.00550491
0.00546886
0.00544156
0.0054216
0.00540863
0.00540161
0.00539878
0.00539904
0.00540103
0.00540425
0.00540793
0.00541182
0.00541575
0.00541965
0.0054235
0.00542728
0.005431
0.00543465
0.00543823
0.00544175
0.00544521
0.00544864
0.00545206
0.0054555
0.00545897
0.00546249
0.00546606
0.00546966
0.00547327
0.0054769
0.00548051
0.00548413
0.00548776
0.0054914
0.00549507
0.00549878
0.00550252
0.00550629
0.00551006
0.00551382
0.00551756
0.00552127
0.00552497
0.00552866
0.00553235
0.00553605
0.00553976
0.00554349
0.00554722
0.00555094
0.00555465
0.00555834
0.005562
0.00556564
0.00556926
0.00557287
0.00557646
0.00558005
0.00558364
0.00558722
0.0055908
0.00559437
0.00559793
0.00560149
0.00560504
0.00560858
0.00561212
0.00561564
0.00561915
0.00562266
0.00562615
0.00562963
0.0056331
0.00563656
0.00564001
0.00564345
0.00564687
0.00565029
0.00565369
0.00565709
0.00566047
0.00566384
0.0056672
0.00567055
0.00567388
0.0056772
0.00568051
0.00568381
0.00568709
0.00569037
0.00569363
0.00569688
0.00570011
0.00570334
0.00570655
0.00570975
0.00571294
0.00571611
0.00571928
0.00572243
0.00572557
0.00572869
0.00573181
0.0057349
0.005738
0.00574105
0.00574416
0.00574714
0.00575028
0.00575315
0.0057564
0.00575905
0.00576257
0.00576475
0.00576887
0.0057703
0.0057754
)
;

boundaryField
{
    upperWall
    {
        type            zeroGradient;
    }
    lowerWall
    {
        type            zeroGradient;
    }
    heatedWall
    {
        type            zeroGradient;
    }
    inlet
    {
        type            zeroGradient;
    }
    outlet
    {
        type            zeroGradient;
    }
    frontAndBack
    {
        type            empty;
    }
}


// ************************************************************************* //
