/*--------------------------------*- C++ -*----------------------------------*\
  =========                 |
  \\      /  F ield         | OpenFOAM: The Open Source CFD Toolbox
   \\    /   O peration     | Website:  https://openfoam.org
    \\  /    A nd           | Version:  7
     \\/     M anipulation  |
\*---------------------------------------------------------------------------*/
FoamFile
{
    version     2.0;
    format      ascii;
    class       volScalarField;
    location    "0.4";
    object      T;
}
// * * * * * * * * * * * * * * * * * * * * * * * * * * * * * * * * * * * * * //

dimensions      [0 0 0 1 0 0 0];

internalField   nonuniform List<scalar> 
2400
(
283.11
283.061
283.017
282.911
282.773
282.677
282.634
282.616
282.606
282.601
282.607
282.624
282.648
282.676
282.704
282.733
282.763
282.793
282.824
282.853
282.876
282.894
282.905
282.908
282.906
282.899
282.888
282.875
282.859
282.84
282.82
282.795
282.776
282.747
282.739
282.694
282.732
282.606
282.82
282.352
283.109
283.049
283.024
282.94
282.766
282.567
282.415
282.331
282.299
282.295
282.3
282.309
282.328
282.362
282.405
282.448
282.487
282.535
282.606
282.706
282.825
282.948
283.061
283.155
283.224
283.265
283.284
283.287
283.284
283.27
283.251
283.207
283.163
283.082
283.031
282.922
282.902
282.759
282.802
282.591
283.109
283.046
283.026
282.954
282.783
282.568
282.39
282.28
282.233
282.225
282.236
282.25
282.26
282.27
282.29
282.33
282.382
282.433
282.469
282.496
282.532
282.6
282.713
282.869
283.05
283.227
283.376
283.481
283.549
283.587
283.612
283.62
283.617
283.584
283.543
283.479
283.427
283.379
283.323
283.306
283.109
283.046
283.027
282.954
282.78
282.564
282.384
282.273
282.223
282.216
282.23
282.249
282.259
282.259
282.265
282.294
282.349
282.412
282.459
282.476
282.473
282.478
282.523
282.627
282.79
282.994
283.208
283.397
283.539
283.627
283.677
283.708
283.736
283.765
283.768
283.771
283.698
283.669
283.572
283.552
283.109
283.047
283.027
282.953
282.777
282.561
282.381
282.27
282.222
282.216
282.233
282.252
282.26
282.257
282.262
282.293
282.351
282.418
282.465
282.479
282.47
282.467
282.502
282.596
282.754
282.96
283.183
283.386
283.541
283.635
283.684
283.711
283.737
283.784
283.802
283.836
283.778
283.734
283.654
283.548
283.109
283.047
283.027
282.953
282.776
282.559
282.379
282.269
282.221
282.216
282.234
282.253
282.259
282.256
282.263
282.296
282.356
282.422
282.467
282.478
282.468
282.466
282.505
282.604
282.768
282.978
283.203
283.404
283.553
283.642
283.686
283.712
283.74
283.79
283.808
283.842
283.78
283.73
283.65
283.537
283.109
283.047
283.027
282.953
282.776
282.559
282.379
282.269
282.221
282.216
282.234
282.253
282.259
282.256
282.263
282.296
282.356
282.422
282.467
282.478
282.468
282.466
282.505
282.604
282.768
282.978
283.203
283.404
283.553
283.642
283.686
283.712
283.74
283.79
283.808
283.842
283.779
283.73
283.65
283.537
283.109
283.047
283.027
282.953
282.777
282.561
282.381
282.27
282.222
282.216
282.232
282.252
282.26
282.257
282.262
282.293
282.351
282.418
282.465
282.479
282.47
282.467
282.501
282.596
282.754
282.96
283.183
283.386
283.541
283.635
283.684
283.711
283.737
283.784
283.802
283.836
283.778
283.734
283.654
283.548
283.109
283.047
283.027
282.954
282.78
282.564
282.384
282.273
282.223
282.216
282.23
282.249
282.258
282.259
282.265
282.294
282.349
282.412
282.459
282.476
282.473
282.478
282.523
282.626
282.79
282.994
283.208
283.397
283.539
283.627
283.677
283.708
283.736
283.766
283.768
283.771
283.699
283.669
283.573
283.552
283.109
283.046
283.026
282.955
282.783
282.568
282.39
282.28
282.233
282.224
282.235
282.25
282.26
282.27
282.29
282.33
282.382
282.433
282.47
282.496
282.532
282.6
282.713
282.869
283.05
283.227
283.375
283.481
283.548
283.587
283.612
283.621
283.616
283.586
283.542
283.482
283.426
283.382
283.324
283.306
283.109
283.049
283.024
282.941
282.766
282.567
282.415
282.331
282.299
282.294
282.3
282.309
282.328
282.362
282.406
282.448
282.487
282.535
282.606
282.706
282.825
282.947
283.061
283.155
283.224
283.265
283.284
283.287
283.283
283.271
283.248
283.211
283.157
283.091
283.018
282.943
282.873
282.801
282.747
282.668
283.111
283.061
283.017
282.911
282.773
282.677
282.633
282.616
282.605
282.601
282.607
282.624
282.648
282.676
282.705
282.733
282.763
282.794
282.824
282.853
282.876
282.894
282.904
282.908
282.906
282.899
282.888
282.875
282.859
282.84
282.819
282.797
282.774
282.752
282.73
282.713
282.693
282.685
282.667
282.652
284.834
287.029
288.454
289.565
290.548
291.426
292.163
292.733
293.141
293.411
293.578
293.67
293.715
293.73
293.731
293.725
293.716
293.707
293.699
293.69
293.682
293.673
293.665
293.657
293.649
293.64
293.632
293.624
293.617
293.608
293.6
293.593
293.584
293.576
293.569
293.562
293.553
293.545
293.538
293.531
293.523
293.515
293.508
293.501
293.493
293.486
293.479
293.472
293.464
293.457
293.451
293.444
293.436
293.429
293.422
293.415
293.409
293.402
293.395
293.388
293.381
293.374
293.367
293.361
293.354
293.347
293.34
293.334
293.327
293.32
293.313
293.306
293.299
293.292
293.286
293.279
293.272
293.266
293.259
293.252
293.245
293.238
293.231
293.224
293.218
293.211
293.205
293.199
293.193
293.189
293.185
293.182
293.18
293.179
293.179
293.181
293.183
293.186
293.191
293.196
293.201
293.208
293.214
293.221
293.227
293.234
293.24
293.246
293.251
293.255
293.259
293.262
293.264
293.266
293.267
293.266
293.265
293.264
293.262
293.259
293.256
293.252
293.249
293.244
293.24
293.235
293.23
293.225
293.22
293.215
293.21
293.205
293.199
293.194
293.189
293.183
293.178
293.173
293.168
293.163
293.158
293.153
293.148
293.143
293.138
293.133
293.128
293.123
293.118
293.113
293.108
293.102
293.099
293.087
293.101
293.04
293.184
292.849
293.359
292.978
282.914
284.005
285.068
286.009
286.893
287.737
288.503
289.142
289.637
289.994
290.237
290.391
290.482
290.529
290.55
290.557
290.558
290.558
290.558
290.559
290.56
290.561
290.562
290.564
290.565
290.565
290.566
290.567
290.569
290.57
290.57
290.571
290.572
290.572
290.573
290.574
290.574
290.575
290.575
290.576
290.577
290.577
290.578
290.579
290.579
290.579
290.58
290.58
290.58
290.58
290.581
290.582
290.582
290.582
290.582
290.582
290.583
290.583
290.583
290.583
290.583
290.583
290.582
290.582
290.582
290.582
290.582
290.581
290.581
290.58
290.579
290.578
290.578
290.577
290.576
290.575
290.574
290.573
290.572
290.57
290.569
290.568
290.566
290.564
290.563
290.561
290.56
290.559
290.558
290.558
290.559
290.56
290.562
290.565
290.57
290.575
290.581
290.588
290.595
290.604
290.612
290.622
290.631
290.641
290.65
290.659
290.668
290.676
290.684
290.691
290.697
290.702
290.706
290.71
290.713
290.715
290.716
290.716
290.716
290.716
290.714
290.712
290.71
290.708
290.705
290.702
290.699
290.696
290.693
290.689
290.686
290.682
290.679
290.675
290.671
290.668
290.664
290.66
290.657
290.653
290.65
290.646
290.643
290.639
290.636
290.632
290.629
290.625
290.622
290.618
290.615
290.609
290.61
290.594
290.623
290.538
290.705
290.417
290.727
290.586
282.974
282.844
283.107
283.567
284.144
284.807
285.501
286.151
286.701
287.133
287.455
287.683
287.836
287.931
287.984
288.008
288.018
288.022
288.023
288.025
288.027
288.029
288.031
288.034
288.036
288.038
288.04
288.042
288.044
288.046
288.048
288.05
288.052
288.054
288.056
288.059
288.06
288.062
288.064
288.066
288.069
288.07
288.072
288.075
288.076
288.078
288.08
288.082
288.084
288.086
288.088
288.09
288.092
288.094
288.096
288.097
288.099
288.101
288.102
288.104
288.106
288.108
288.109
288.11
288.112
288.113
288.115
288.116
288.117
288.118
288.119
288.12
288.121
288.121
288.123
288.123
288.123
288.124
288.125
288.125
288.125
288.126
288.126
288.126
288.126
288.126
288.127
288.128
288.129
288.13
288.133
288.136
288.14
288.145
288.151
288.158
288.166
288.174
288.184
288.194
288.205
288.216
288.228
288.239
288.251
288.262
288.273
288.283
288.293
288.302
288.311
288.318
288.325
288.331
288.336
288.34
288.343
288.346
288.348
288.35
288.351
288.351
288.352
288.351
288.351
288.35
288.349
288.348
288.347
288.346
288.345
288.343
288.342
288.34
288.339
288.337
288.335
288.334
288.332
288.331
288.329
288.327
288.326
288.324
288.323
288.321
288.32
288.318
288.316
288.314
288.313
288.309
288.314
288.293
288.334
288.249
288.378
288.224
288.321
288.316
283.539
283.03
282.567
282.394
282.489
282.811
283.301
283.864
284.401
284.853
285.209
285.482
285.685
285.829
285.924
285.98
286.008
286.021
286.026
286.028
286.03
286.03
286.031
286.032
286.032
286.032
286.032
286.033
286.034
286.034
286.034
286.035
286.036
286.036
286.037
286.038
286.038
286.039
286.039
286.041
286.042
286.042
286.043
286.044
286.045
286.046
286.047
286.048
286.049
286.05
286.051
286.052
286.053
286.054
286.055
286.056
286.058
286.059
286.06
286.061
286.063
286.064
286.065
286.066
286.067
286.068
286.069
286.07
286.071
286.072
286.073
286.074
286.075
286.075
286.076
286.077
286.078
286.079
286.08
286.08
286.081
286.081
286.082
286.082
286.083
286.084
286.085
286.086
286.088
286.09
286.093
286.097
286.102
286.107
286.114
286.122
286.13
286.14
286.15
286.161
286.173
286.185
286.197
286.21
286.222
286.235
286.246
286.258
286.268
286.279
286.288
286.296
286.304
286.311
286.317
286.322
286.327
286.331
286.334
286.337
286.339
286.341
286.342
286.343
286.344
286.344
286.344
286.345
286.345
286.345
286.344
286.344
286.344
286.343
286.343
286.343
286.342
286.342
286.341
286.341
286.34
286.34
286.34
286.339
286.339
286.338
286.338
286.337
286.337
286.336
286.337
286.332
286.341
286.321
286.354
286.303
286.357
286.319
286.32
286.333
283.714
283.37
282.718
282.19
281.889
281.841
282.055
282.461
282.93
283.356
283.697
283.958
284.16
284.316
284.434
284.516
284.569
284.599
284.614
284.623
284.627
284.629
284.631
284.633
284.634
284.635
284.635
284.636
284.637
284.639
284.639
284.64
284.642
284.642
284.644
284.645
284.646
284.647
284.648
284.65
284.651
284.652
284.653
284.655
284.656
284.657
284.659
284.66
284.662
284.663
284.665
284.666
284.668
284.669
284.67
284.672
284.673
284.675
284.676
284.678
284.679
284.681
284.682
284.683
284.685
284.686
284.688
284.689
284.69
284.691
284.692
284.693
284.695
284.696
284.697
284.698
284.699
284.7
284.701
284.702
284.702
284.703
284.704
284.705
284.706
284.706
284.708
284.709
284.711
284.714
284.717
284.721
284.726
284.731
284.738
284.746
284.755
284.764
284.775
284.786
284.798
284.81
284.822
284.835
284.847
284.86
284.872
284.883
284.894
284.904
284.913
284.922
284.93
284.937
284.943
284.948
284.953
284.957
284.96
284.963
284.965
284.967
284.969
284.97
284.97
284.971
284.971
284.972
284.972
284.972
284.972
284.971
284.971
284.971
284.971
284.97
284.97
284.97
284.969
284.969
284.969
284.968
284.968
284.968
284.967
284.967
284.967
284.966
284.966
284.965
284.966
284.962
284.968
284.957
284.971
284.955
284.963
284.963
284.955
284.957
283.73
283.423
282.775
282.211
281.809
281.592
281.621
281.884
282.267
282.641
282.934
283.14
283.284
283.394
283.482
283.553
283.605
283.641
283.664
283.678
283.686
283.691
283.695
283.698
283.701
283.703
283.705
283.707
283.71
283.712
283.714
283.716
283.719
283.721
283.723
283.726
283.728
283.73
283.733
283.735
283.738
283.74
283.742
283.745
283.747
283.749
283.752
283.754
283.757
283.759
283.762
283.764
283.767
283.769
283.771
283.774
283.776
283.778
283.781
283.783
283.786
283.788
283.79
283.792
283.794
283.796
283.799
283.801
283.802
283.804
283.806
283.808
283.81
283.811
283.813
283.815
283.816
283.818
283.819
283.821
283.822
283.823
283.825
283.826
283.827
283.829
283.83
283.832
283.834
283.837
283.841
283.845
283.851
283.857
283.864
283.872
283.881
283.891
283.902
283.913
283.925
283.938
283.95
283.963
283.976
283.988
284
284.012
284.023
284.033
284.043
284.052
284.06
284.067
284.073
284.079
284.083
284.087
284.091
284.094
284.096
284.098
284.099
284.1
284.101
284.102
284.102
284.102
284.102
284.102
284.102
284.102
284.102
284.102
284.102
284.101
284.101
284.101
284.1
284.1
284.099
284.099
284.099
284.098
284.098
284.098
284.097
284.097
284.097
284.096
284.096
284.094
284.096
284.091
284.094
284.091
284.09
284.091
284.089
284.087
283.729
283.423
282.776
282.212
281.807
281.583
281.599
281.843
282.199
282.537
282.785
282.937
283.02
283.066
283.097
283.121
283.142
283.158
283.17
283.179
283.186
283.19
283.193
283.196
283.198
283.2
283.202
283.204
283.206
283.208
283.21
283.212
283.215
283.217
283.219
283.221
283.223
283.226
283.228
283.23
283.232
283.235
283.237
283.239
283.241
283.244
283.246
283.248
283.251
283.253
283.255
283.258
283.26
283.262
283.265
283.267
283.269
283.272
283.274
283.276
283.278
283.281
283.283
283.285
283.287
283.289
283.291
283.293
283.295
283.297
283.298
283.3
283.302
283.304
283.305
283.307
283.308
283.31
283.311
283.313
283.314
283.315
283.316
283.317
283.319
283.32
283.321
283.323
283.325
283.328
283.332
283.336
283.341
283.347
283.355
283.363
283.372
283.381
283.392
283.403
283.415
283.427
283.44
283.452
283.465
283.477
283.489
283.501
283.512
283.522
283.531
283.54
283.548
283.555
283.561
283.566
283.571
283.575
283.578
283.581
283.583
283.585
283.586
283.587
283.588
283.588
283.588
283.589
283.588
283.588
283.588
283.588
283.588
283.587
283.587
283.586
283.586
283.585
283.585
283.584
283.583
283.583
283.583
283.582
283.582
283.581
283.58
283.58
283.579
283.579
283.578
283.577
283.577
283.575
283.575
283.573
283.572
283.571
283.57
283.568
283.713
283.374
282.719
282.166
281.813
281.687
281.799
282.083
282.415
282.689
282.866
282.957
282.993
283.002
283.001
283
283.002
283.004
283.008
283.011
283.014
283.017
283.019
283.02
283.022
283.023
283.025
283.026
283.028
283.029
283.031
283.032
283.034
283.036
283.037
283.039
283.04
283.042
283.044
283.045
283.047
283.049
283.051
283.052
283.054
283.056
283.058
283.059
283.061
283.063
283.065
283.067
283.068
283.07
283.072
283.074
283.075
283.077
283.079
283.081
283.082
283.084
283.086
283.087
283.089
283.09
283.092
283.093
283.095
283.096
283.097
283.098
283.1
283.101
283.102
283.103
283.104
283.105
283.106
283.107
283.108
283.108
283.109
283.11
283.11
283.111
283.112
283.114
283.115
283.118
283.121
283.125
283.129
283.135
283.142
283.149
283.158
283.167
283.177
283.188
283.199
283.211
283.223
283.236
283.248
283.26
283.271
283.282
283.293
283.302
283.312
283.32
283.327
283.334
283.34
283.344
283.349
283.352
283.355
283.358
283.359
283.361
283.362
283.362
283.363
283.363
283.362
283.362
283.362
283.361
283.361
283.36
283.359
283.359
283.358
283.357
283.356
283.355
283.354
283.354
283.353
283.352
283.351
283.35
283.349
283.349
283.348
283.347
283.346
283.345
283.344
283.343
283.342
283.34
283.34
283.337
283.336
283.334
283.334
283.331
283.547
283.03
282.455
282.078
281.917
281.958
282.155
282.422
282.665
282.834
282.925
282.961
282.966
282.959
282.95
282.944
282.942
282.942
282.943
282.945
282.947
282.949
282.95
282.952
282.953
282.954
282.955
282.957
282.958
282.96
282.961
282.962
282.964
282.965
282.966
282.968
282.969
282.971
282.972
282.974
282.975
282.977
282.979
282.98
282.981
282.983
282.984
282.986
282.988
282.989
282.991
282.992
282.994
282.995
282.997
282.999
283
283.001
283.003
283.005
283.006
283.008
283.009
283.01
283.012
283.013
283.014
283.015
283.016
283.017
283.018
283.019
283.02
283.021
283.022
283.023
283.024
283.024
283.025
283.026
283.026
283.027
283.027
283.028
283.028
283.029
283.03
283.031
283.032
283.035
283.037
283.041
283.045
283.051
283.057
283.064
283.073
283.082
283.092
283.102
283.114
283.125
283.137
283.149
283.161
283.173
283.184
283.195
283.205
283.215
283.223
283.231
283.239
283.245
283.251
283.255
283.259
283.263
283.265
283.268
283.269
283.27
283.271
283.272
283.272
283.272
283.271
283.271
283.27
283.27
283.269
283.268
283.267
283.266
283.265
283.264
283.263
283.262
283.261
283.26
283.259
283.258
283.257
283.256
283.255
283.254
283.253
283.252
283.251
283.25
283.249
283.248
283.246
283.245
283.244
283.241
283.241
283.238
283.237
283.234
283.004
282.566
282.278
282.141
282.147
282.273
282.462
282.647
282.783
282.86
282.892
282.897
282.891
282.883
282.876
282.873
282.872
282.873
282.874
282.875
282.877
282.879
282.88
282.882
282.883
282.885
282.886
282.887
282.889
282.89
282.892
282.893
282.895
282.896
282.898
282.899
282.9
282.903
282.904
282.905
282.907
282.909
282.91
282.912
282.913
282.915
282.917
282.918
282.92
282.922
282.923
282.925
282.926
282.928
282.93
282.932
282.933
282.934
282.936
282.938
282.939
282.941
282.943
282.944
282.946
282.947
282.948
282.95
282.951
282.952
282.953
282.954
282.956
282.957
282.958
282.958
282.96
282.961
282.961
282.963
282.963
282.964
282.964
282.965
282.966
282.967
282.968
282.969
282.971
282.973
282.976
282.98
282.985
282.99
282.997
283.004
283.013
283.022
283.032
283.043
283.055
283.067
283.079
283.091
283.103
283.115
283.127
283.138
283.148
283.158
283.167
283.175
283.183
283.19
283.195
283.2
283.205
283.208
283.211
283.214
283.216
283.217
283.218
283.219
283.219
283.22
283.22
283.22
283.219
283.219
283.218
283.218
283.217
283.216
283.216
283.215
283.214
283.214
283.213
283.212
283.212
283.211
283.21
283.21
283.209
283.208
283.207
283.206
283.206
283.205
283.204
283.203
283.202
283.201
283.2
283.198
283.198
283.195
283.195
283.192
282.606
282.468
282.365
282.345
282.407
282.519
282.637
282.73
282.786
282.811
282.816
282.813
282.808
282.804
282.802
282.801
282.802
282.804
282.805
282.806
282.809
282.81
282.812
282.813
282.815
282.817
282.818
282.819
282.821
282.823
282.824
282.826
282.828
282.83
282.831
282.832
282.834
282.836
282.838
282.839
282.841
282.843
282.845
282.846
282.848
282.85
282.851
282.853
282.855
282.857
282.858
282.86
282.862
282.864
282.866
282.867
282.869
282.871
282.873
282.874
282.876
282.878
282.879
282.881
282.883
282.884
282.885
282.887
282.888
282.889
282.891
282.892
282.893
282.895
282.895
282.896
282.898
282.899
282.9
282.901
282.902
282.902
282.903
282.904
282.905
282.906
282.907
282.909
282.911
282.913
282.917
282.921
282.926
282.932
282.939
282.946
282.955
282.965
282.975
282.987
282.999
283.011
283.024
283.036
283.049
283.061
283.073
283.085
283.096
283.106
283.116
283.125
283.133
283.14
283.146
283.152
283.157
283.161
283.165
283.168
283.17
283.172
283.174
283.175
283.176
283.177
283.178
283.178
283.178
283.179
283.179
283.179
283.179
283.179
283.179
283.179
283.178
283.178
283.178
283.178
283.178
283.177
283.177
283.177
283.177
283.177
283.177
283.176
283.176
283.176
283.175
283.175
283.174
283.174
283.173
283.173
283.173
283.171
283.172
283.17
282.764
282.743
282.722
282.73
282.763
282.806
282.842
282.866
282.878
282.882
282.882
282.881
282.88
282.879
282.879
282.88
282.881
282.882
282.883
282.885
282.886
282.888
282.889
282.89
282.891
282.893
282.894
282.895
282.896
282.897
282.898
282.9
282.901
282.902
282.903
282.904
282.905
282.907
282.908
282.908
282.91
282.912
282.913
282.913
282.914
282.916
282.917
282.918
282.919
282.92
282.921
282.922
282.923
282.924
282.925
282.926
282.927
282.927
282.928
282.929
282.93
282.931
282.931
282.932
282.933
282.933
282.933
282.933
282.933
282.934
282.934
282.934
282.934
282.934
282.933
282.933
282.933
282.932
282.932
282.931
282.93
282.929
282.928
282.927
282.926
282.925
282.924
282.924
282.923
282.924
282.925
282.926
282.929
282.932
282.937
282.942
282.949
282.956
282.964
282.974
282.983
282.994
283.004
283.015
283.026
283.037
283.048
283.059
283.069
283.078
283.087
283.095
283.103
283.11
283.116
283.121
283.126
283.131
283.134
283.137
283.14
283.142
283.144
283.146
283.147
283.148
283.149
283.15
283.151
283.151
283.152
283.152
283.152
283.153
283.153
283.153
283.153
283.154
283.154
283.154
283.154
283.154
283.154
283.155
283.155
283.155
283.155
283.155
283.155
283.155
283.155
283.155
283.155
283.156
283.156
283.156
283.156
283.155
283.156
283.156
)
;

boundaryField
{
    upperWall
    {
        type            fixedValue;
        value           uniform 283.15;
    }
    lowerWall
    {
        type            fixedValue;
        value           uniform 283.15;
    }
    heatedWall
    {
        type            externalWallHeatFluxTemperature;
        mode            power;
        kappaMethod     fluidThermo;
        kappa           none;
        alphaAni        Anialpha;
        Q               5040;
        qr              none;
        refValue        nonuniform List<scalar> 
160
(
286.993
289.075
290.508
291.633
292.624
293.509
294.252
294.827
295.238
295.511
295.678
295.77
295.813
295.825
295.822
295.81
295.795
295.779
295.762
295.746
295.729
295.712
295.696
295.68
295.664
295.647
295.631
295.616
295.6
295.585
295.569
295.554
295.538
295.523
295.508
295.494
295.478
295.463
295.448
295.435
295.42
295.405
295.391
295.377
295.363
295.349
295.335
295.321
295.307
295.293
295.28
295.267
295.252
295.239
295.225
295.212
295.199
295.185
295.172
295.159
295.146
295.132
295.119
295.106
295.093
295.079
295.066
295.052
295.039
295.026
295.012
294.998
294.984
294.97
294.957
294.943
294.929
294.915
294.901
294.886
294.872
294.858
294.843
294.828
294.813
294.798
294.784
294.77
294.755
294.741
294.729
294.717
294.706
294.696
294.687
294.68
294.673
294.668
294.664
294.661
294.659
294.658
294.657
294.657
294.657
294.658
294.659
294.66
294.661
294.661
294.661
294.661
294.66
294.659
294.658
294.656
294.653
294.65
294.647
294.643
294.638
294.634
294.629
294.624
294.619
294.614
294.609
294.603
294.597
294.592
294.586
294.58
294.575
294.569
294.563
294.558
294.552
294.547
294.541
294.536
294.53
294.525
294.52
294.515
294.509
294.504
294.499
294.493
294.488
294.483
294.477
294.471
294.468
294.456
294.469
294.408
294.552
294.215
294.727
294.345
)
;
        refGradient     nonuniform List<scalar> 
160
(
258.995
245.423
246.437
248.073
249.174
250.005
250.738
251.326
251.731
251.965
252.044
251.978
251.768
251.408
250.896
250.238
249.454
248.572
247.626
246.65
245.665
244.685
243.711
242.746
241.794
240.851
239.914
238.985
238.065
237.154
236.251
235.356
234.469
233.589
232.713
231.845
230.985
230.132
229.282
228.438
227.602
226.772
225.947
225.126
224.312
223.499
222.691
221.89
221.092
220.296
219.505
218.718
217.934
217.151
216.373
215.596
214.818
214.043
213.268
212.493
211.719
210.946
210.17
209.393
208.614
207.832
207.046
206.257
205.462
204.662
203.856
203.041
202.22
201.389
200.549
199.7
198.839
197.968
197.084
196.188
195.277
194.351
193.409
192.448
191.471
190.477
189.464
188.434
187.387
186.326
185.254
184.174
183.09
182.007
180.93
179.864
178.814
177.787
176.787
175.82
174.89
174.003
173.161
172.367
171.624
170.933
170.295
169.71
169.176
168.693
168.258
167.869
167.521
167.215
166.944
166.707
166.498
166.314
166.155
166.014
165.891
165.781
165.684
165.597
165.518
165.446
165.381
165.319
165.262
165.208
165.156
165.107
165.059
165.013
164.968
164.924
164.881
164.839
164.798
164.757
164.716
164.677
164.636
164.598
164.559
164.519
164.481
164.442
164.405
164.366
164.331
164.289
164.26
164.211
164.191
164.13
164.14
164.006
164.14
163.977
)
;
        valueFraction   uniform 0;
        value           nonuniform List<scalar> 
160
(
286.993
289.075
290.508
291.633
292.624
293.509
294.252
294.827
295.238
295.511
295.678
295.77
295.813
295.825
295.822
295.81
295.795
295.779
295.762
295.746
295.729
295.712
295.696
295.68
295.664
295.647
295.631
295.616
295.6
295.585
295.569
295.554
295.538
295.523
295.508
295.494
295.478
295.463
295.448
295.435
295.42
295.405
295.391
295.377
295.363
295.349
295.335
295.321
295.307
295.293
295.28
295.267
295.252
295.239
295.225
295.212
295.199
295.185
295.172
295.159
295.146
295.132
295.119
295.106
295.093
295.079
295.066
295.052
295.039
295.026
295.012
294.998
294.984
294.97
294.957
294.943
294.929
294.915
294.901
294.886
294.872
294.858
294.843
294.828
294.813
294.798
294.784
294.77
294.755
294.741
294.729
294.717
294.706
294.696
294.687
294.68
294.673
294.668
294.664
294.661
294.659
294.658
294.657
294.657
294.657
294.658
294.659
294.66
294.661
294.661
294.661
294.661
294.66
294.659
294.658
294.656
294.653
294.65
294.647
294.643
294.638
294.634
294.629
294.624
294.619
294.614
294.609
294.603
294.597
294.592
294.586
294.58
294.575
294.569
294.563
294.558
294.552
294.547
294.541
294.536
294.53
294.525
294.52
294.515
294.509
294.504
294.499
294.493
294.488
294.483
294.477
294.471
294.468
294.456
294.469
294.408
294.552
294.215
294.727
294.345
)
;
    }
    inlet
    {
        type            fixedValue;
        value           uniform 283.15;
    }
    outlet
    {
        type            inletOutlet;
        inletValue      uniform 283.15;
        value           nonuniform List<scalar> 
12
(
292.978
290.586
288.316
286.333
284.957
284.087
283.568
283.331
283.234
283.192
283.17
283.156
)
;
    }
    frontAndBack
    {
        type            empty;
    }
}


// ************************************************************************* //
