/*--------------------------------*- C++ -*----------------------------------*\
  =========                 |
  \\      /  F ield         | OpenFOAM: The Open Source CFD Toolbox
   \\    /   O peration     | Website:  https://openfoam.org
    \\  /    A nd           | Version:  7
     \\/     M anipulation  |
\*---------------------------------------------------------------------------*/
FoamFile
{
    version     2.0;
    format      ascii;
    class       surfaceScalarField;
    location    "0.15";
    object      phi;
}
// * * * * * * * * * * * * * * * * * * * * * * * * * * * * * * * * * * * * * //

dimensions      [1 0 -1 0 0 0 0];

internalField   nonuniform List<scalar> 
3438
(
0.0127841
0.000986254
0.0108727
0.0019458
0.00892509
0.00198559
0.00736837
0.00159097
0.00629139
0.0011073
0.00560528
0.000714701
0.00518252
0.000450488
0.00492545
0.000284073
0.00476695
0.000184665
0.00466203
0.000130029
0.00458553
0.000100254
0.00452829
7.95858e-05
0.00448975
5.99586e-05
0.00446838
4.27639e-05
0.00445858
3.21739e-05
0.00445385
2.88396e-05
0.00445089
2.90102e-05
0.00444793
3.05891e-05
0.00444504
3.13479e-05
0.00444128
3.22261e-05
0.00443731
3.18629e-05
0.00443203
3.23806e-05
0.00442705
3.15099e-05
0.00442057
3.2889e-05
0.00441643
3.09287e-05
0.00440782
3.60475e-05
0.00440927
2.6522e-05
0.00438723
5.03066e-05
0.00444139
-2.68599e-05
6.25613e-05
0.00440615
0.0140911
0.000663723
0.014499
0.00157348
0.0145537
0.00197634
0.0142907
0.00189631
0.0138721
0.00155902
0.0134316
0.00118192
0.0130276
0.000878181
0.0126788
0.000654914
0.0123832
0.000501107
0.012131
0.000402729
0.0119243
0.000327207
0.0117709
0.000252209
0.0116755
0.000172398
0.0116304
0.000102474
0.0116186
5.72261e-05
0.011624
3.71747e-05
0.0116367
3.19996e-05
0.0116517
3.37771e-05
0.0116682
3.50777e-05
0.0116844
3.73502e-05
0.0117021
3.57409e-05
0.0117179
3.78214e-05
0.0117366
3.38499e-05
0.0117509
3.96292e-05
0.0117723
3.09384e-05
0.0117828
4.77714e-05
0.0118118
2.01634e-05
0.0118051
7.9958e-05
0.0118179
-1.74567e-05
0.000155593
0.0117465
0.0139895
0.000442455
0.0144947
0.00110415
0.0150943
0.00142403
0.0155985
0.00143625
0.0159327
0.00125826
0.0161158
0.00102414
0.0162016
0.000814588
0.0162299
0.000647277
0.0162237
0.000526125
0.0161949
0.00044836
0.0161536
0.00038512
0.0161127
0.000311572
0.0160823
0.000223076
0.0160671
0.000137307
0.0160649
7.55142e-05
0.0160703
4.347e-05
0.0160798
3.14269e-05
0.0160923
3.027e-05
0.0161089
2.95034e-05
0.0161286
3.13993e-05
0.0161525
2.78944e-05
0.0161773
3.05479e-05
0.0162052
2.44826e-05
0.0162318
3.21699e-05
0.0162616
2.0999e-05
0.0162896
4.05401e-05
0.0163195
1.16387e-05
0.016348
7.30585e-05
0.0163585
-6.92556e-06
0.000166278
0.0163678
0.0139316
0.000278966
0.0143595
0.000712356
0.0149115
0.000919483
0.0154621
0.000929534
0.0159287
0.000824287
0.0162928
0.000684879
0.0165761
0.000553516
0.0167985
0.000445922
0.0169748
0.000368493
0.0171199
0.000318851
0.0172426
0.000276929
0.0173453
0.000226142
0.0174255
0.000164316
0.0174814
0.000104574
0.0175148
6.21015e-05
0.0175313
4.08249e-05
0.0175378
3.27895e-05
0.0175418
3.14284e-05
0.0175488
2.85905e-05
0.0175615
2.78146e-05
0.0175796
2.24398e-05
0.0176026
2.30892e-05
0.0176274
1.72594e-05
0.0176559
2.25815e-05
0.0176822
1.47554e-05
0.017716
2.78533e-05
0.0177381
1.14236e-05
0.0177842
4.8963e-05
0.017782
1.67889e-05
0.000118756
0.01785
0.0139128
0.000134228
0.014314
0.000347374
0.0148289
0.000452083
0.0153426
0.000459353
0.01579
0.000409235
0.0161587
0.000340947
0.0164587
0.000275884
0.0167026
0.000223157
0.0169047
0.000184747
0.0170796
0.000159045
0.0172337
0.00013725
0.0173657
0.000111707
0.0174704
8.15536e-05
0.0175445
5.40632e-05
0.0175912
3.55262e-05
0.0176189
2.67034e-05
0.0176361
2.30797e-05
0.0176503
2.18534e-05
0.0176654
1.90234e-05
0.0176844
1.74994e-05
0.0177059
1.33693e-05
0.0177309
1.3374e-05
0.0177561
9.63455e-06
0.0177847
1.29732e-05
0.017811
8.64517e-06
0.0178432
1.68828e-05
0.0178678
8.76217e-06
0.0179088
3.0086e-05
0.0179303
1.6926e-05
6.94979e-05
0.0180001
0.0139021
1.86272e-07
0.0142855
1.82628e-07
0.0147849
1.73098e-07
0.0152875
1.61014e-07
0.0157288
1.47098e-07
0.0160944
1.31632e-07
0.0163925
1.16449e-07
0.0166366
1.02914e-07
0.0168394
9.05542e-08
0.0170134
7.90134e-08
0.0171653
6.73186e-08
0.0172948
5.82514e-08
0.0173984
4.97584e-08
0.0174758
5.23784e-08
0.017531
4.88915e-08
0.0175709
8.96233e-08
0.0176012
7.17225e-08
0.0176276
2.36803e-07
0.0176522
1.23924e-07
0.0176779
6.24269e-07
0.0177035
2.59755e-07
0.0177308
1.49393e-06
0.0177573
6.27222e-07
0.017786
3.36959e-06
0.0178134
1.44631e-06
0.0178442
7.28217e-06
0.0178718
3.1003e-06
0.0179094
1.45902e-05
0.0179422
5.77264e-06
2.6037e-05
0.0180063
0.0139021
-0.000133868
0.0142855
-0.000347022
0.0147849
-0.000451749
0.0152875
-0.000459042
0.0157288
-0.000408951
0.0160944
-0.000340693
0.0163925
-0.000275659
0.0166366
-0.000222958
0.0168394
-0.000184572
0.0170134
-0.000158892
0.0171652
-0.000137119
0.0172948
-0.000111594
0.0173984
-8.14554e-05
0.0174758
-5.39617e-05
0.017531
-3.54264e-05
0.0175709
-2.65327e-05
0.0176012
-2.2927e-05
0.0176276
-2.14035e-05
0.0176522
-1.87535e-05
0.017678
-1.62995e-05
0.0177035
-1.28161e-05
0.0177309
-1.04704e-05
0.0177574
-8.34709e-06
0.0177862
-6.3635e-06
0.0178136
-5.77023e-06
0.0178446
-2.50714e-06
0.0178724
-2.69213e-06
0.0179099
-7.94954e-07
0.017943
-5.68754e-06
-1.6723e-05
0.0180063
0.0139128
-0.000278643
0.014314
-0.000712039
0.0148289
-0.000919183
0.0153426
-0.000929255
0.01579
-0.000824032
0.0161587
-0.000684651
0.0164587
-0.000553314
0.0167026
-0.000445743
0.0169047
-0.000368335
0.0170796
-0.000318713
0.0172337
-0.00027681
0.0173657
-0.00022604
0.0174704
-0.000164224
0.0175445
-0.000104484
0.0175912
-6.19978e-05
0.017619
-4.0681e-05
0.0176361
-3.26063e-05
0.0176504
-3.10569e-05
0.0176654
-2.82384e-05
0.0176846
-2.67904e-05
0.0177059
-2.17444e-05
0.0177313
-2.05132e-05
0.0177563
-1.57772e-05
0.0177854
-1.65344e-05
0.0178116
-1.16791e-05
0.0178446
-1.43304e-05
0.0178692
-5.34251e-06
0.017911
-2.05243e-05
0.0179325
-5.50372e-06
-6.42985e-05
0.0180007
0.0139316
-0.000442192
0.0143595
-0.00110389
0.0149115
-0.00142379
0.015462
-0.00143602
0.0159287
-0.00125805
0.0162928
-0.00102395
0.016576
-0.000814423
0.0167985
-0.000647131
0.0169748
-0.000525996
0.0171199
-0.000448247
0.0172426
-0.000385021
0.0173453
-0.000311487
0.0174255
-0.000222995
0.0174814
-0.000137232
0.0175149
-7.54138e-05
0.0175313
-4.33598e-05
0.0175378
-3.123e-05
0.0175419
-2.99929e-05
0.0175489
-2.90996e-05
0.0175619
-3.06111e-05
0.0175799
-2.70879e-05
0.0176034
-2.8487e-05
0.017628
-2.28408e-05
0.0176576
-2.71467e-05
0.0176838
-1.77964e-05
0.0177194
-2.88033e-05
0.0177417
-5.88577e-06
0.01779
-4.68396e-05
0.0177898
1.623e-05
-0.000109864
0.0178558
0.0139895
-0.000663537
0.0144947
-0.0015733
0.0150942
-0.00197616
0.0155984
-0.00189615
0.0159326
-0.00155888
0.0161158
-0.00118179
0.0162016
-0.000878065
0.0162299
-0.00065481
0.0162237
-0.000501016
0.0161949
-0.000402648
0.0161536
-0.000327137
0.0161127
-0.000252148
0.0160823
-0.000172342
0.0160671
-0.000102419
0.0160649
-5.71602e-05
0.0160704
-3.70818e-05
0.01608
-3.18787e-05
0.0160925
-3.35403e-05
0.0161092
-3.48236e-05
0.0161291
-3.67293e-05
0.0161533
-3.51911e-05
0.0161787
-3.6292e-05
0.016207
-3.26858e-05
0.016235
-3.59683e-05
0.0162659
-2.87055e-05
0.0162967
-3.89356e-05
0.0163291
-1.67738e-05
0.0163621
-5.83811e-05
0.0163771
2.23055e-05
-0.000102327
0.0163894
0.0140911
-0.000986156
0.014499
-0.00194571
0.0145536
-0.0019855
0.0142906
-0.00159089
0.0138721
-0.00110723
0.0134316
-0.000714633
0.0130276
-0.000450428
0.0126788
-0.00028402
0.0123832
-0.000184618
0.012131
-0.000129987
0.0119243
-0.000100219
0.0117709
-7.95548e-05
0.0116756
-5.99322e-05
0.0116305
-4.27334e-05
0.0116187
-3.2151e-05
0.0116242
-2.87785e-05
0.0116369
-2.89829e-05
0.011652
-3.04292e-05
0.0116687
-3.13023e-05
0.0116852
-3.18297e-05
0.0117033
-3.17587e-05
0.0117198
-3.14739e-05
0.0117394
-3.12734e-05
0.0117554
-3.09148e-05
0.0117787
-3.05504e-05
0.0117935
-3.15624e-05
0.011826
-2.65422e-05
0.0118293
-3.89476e-05
0.0118501
2.4148e-05
-4.89485e-05
0.0118176
0.0127841
0.0108727
0.00892507
0.00736835
0.00629137
0.00560526
0.00518251
0.00492543
0.00476694
0.00466202
0.00458552
0.0045283
0.00448977
0.00446842
0.00445864
0.00445398
0.00445106
0.00444827
0.00444544
0.00444211
0.00443826
0.00443391
0.00442918
0.00442469
0.00442094
0.00441681
0.00441827
0.00440742
0.00445933
0.00443664
0.00400579
0.000472567
0.00374628
0.000332423
0.00355786
0.000273134
0.00347709
0.000175873
0.00343281
0.000138699
0.00340302
0.000119157
0.00337799
0.000110089
0.00335592
0.000108177
0.00333915
0.000108154
0.0033274
0.000108119
0.00331466
0.000107531
0.0032973
0.000106968
0.00327761
0.00010679
0.00325938
0.000106461
0.00324481
0.000106262
0.00323283
0.000106007
0.00321857
0.000105487
0.0031975
0.000105392
0.00317433
0.000105338
0.00315802
0.000105297
0.00315008
0.000105254
0.0031427
0.000105221
0.00312662
0.000105025
0.00309914
0.000105004
0.00306496
0.00010521
0.00303005
0.000105908
0.00300076
0.000106645
0.00298407
0.000107258
0.00297826
0.000107279
0.00296606
0.000107376
0.00293053
0.000107391
0.0028709
0.000107976
0.00280011
0.000109225
0.00273358
0.000111164
0.0026828
0.000113117
0.00265167
0.00011473
0.002631
0.000115556
0.00259596
0.00011607
0.00252122
0.000116478
0.0023968
0.000117494
0.00222599
0.000119988
0.00201878
0.000124894
0.00179585
0.000130766
0.00158432
0.000137596
0.00140952
0.000144296
0.00128705
0.000151073
0.00122705
0.000157271
0.00123915
0.000162069
0.00132798
0.000165471
0.00149236
0.000167108
0.00173018
0.000166326
0.00203756
0.000163129
0.00240598
0.000157511
0.00282212
0.000149699
0.00326933
0.000139983
0.00373012
0.000128894
0.00418681
0.000116933
0.00462328
0.000104578
0.00502695
9.2245e-05
0.00538835
8.03876e-05
0.00570293
6.93685e-05
0.00596901
5.95255e-05
0.0061865
5.10199e-05
0.00635899
4.38413e-05
0.00649241
3.79582e-05
0.00659274
3.32912e-05
0.00666515
2.96815e-05
0.0067161
2.69058e-05
0.00675175
2.4812e-05
0.0067752
2.32829e-05
0.00678977
2.21351e-05
0.00679884
2.12589e-05
0.00680385
2.06027e-05
0.00680568
2.00873e-05
0.00680583
1.96628e-05
0.0068048
1.93233e-05
0.0068023
1.90367e-05
0.00679968
1.87673e-05
0.00679682
1.85345e-05
0.00679292
1.83279e-05
0.00678933
1.81067e-05
0.00678613
1.79008e-05
0.00678212
1.77307e-05
0.00677819
1.75383e-05
0.00677517
1.73435e-05
0.00677138
1.71939e-05
0.00676762
1.70154e-05
0.00676487
1.68337e-05
0.00676135
1.66956e-05
0.00675789
1.65289e-05
0.0067554
1.63553e-05
0.00675215
1.62116e-05
0.00674876
1.60366e-05
0.00674659
1.58542e-05
0.00674346
1.57145e-05
0.00674017
1.55362e-05
0.00673822
1.53618e-05
0.00673522
1.52216e-05
0.00673204
1.50368e-05
0.00673027
1.48599e-05
0.00672738
1.47103e-05
0.00672434
1.45213e-05
0.00672279
1.43473e-05
0.00671993
1.41828e-05
0.00671711
1.39845e-05
0.00671579
1.38168e-05
0.00671295
1.3665e-05
0.00671034
1.34537e-05
0.00670925
1.33056e-05
0.00670644
1.31035e-05
0.006704
1.30635e-05
0.00670323
1.26338e-05
0.00670025
1.27598e-05
0.00669843
1.22431e-05
0.00669764
1.23188e-05
0.00669441
1.24851e-05
0.00669317
1.15695e-05
0.00669258
1.17546e-05
0.00668822
1.31346e-05
1.12041e-05
0.0107911
0.00149307
0.0102667
0.000925665
0.00994655
0.000672394
0.00981838
0.000393577
0.00978817
0.000258254
0.00979602
0.000195832
0.00981424
0.000172072
0.00983604
0.000167569
0.00986271
0.000167873
0.00989411
0.000168047
0.00992406
0.000167229
0.00994905
0.000166357
0.00997178
0.000165838
0.00999596
0.000165117
0.0100238
0.000164627
0.0100544
0.000163942
0.0100826
0.000162901
0.0101043
0.000162354
0.0101243
0.000161827
0.0101515
0.000161327
0.0101874
0.000160869
0.0102242
0.000160404
0.0102526
0.000159738
0.0102699
0.000159168
0.0102814
0.000158733
0.0102934
0.000158856
0.0103122
0.000159087
0.0103447
0.000159194
0.0103888
0.000158565
0.0104272
0.00015797
0.0104432
0.000157117
0.0104366
0.000156716
0.010421
0.000156917
0.0104126
0.000157914
0.0104228
0.000159124
0.010455
0.000159909
0.0104996
0.000159828
0.0105315
0.000159086
0.0105256
0.00015799
0.0104731
0.000156988
0.010379
0.000157177
0.010256
0.000159389
0.010126
0.000162584
0.0100171
0.000166743
0.00995439
0.000170992
0.00995334
0.000175536
0.0100234
0.000179686
0.0101726
0.000182677
0.0104041
0.000184487
0.0107145
0.000184861
0.011099
0.000183172
0.0115509
0.000179426
0.0120589
0.000173594
0.0126073
0.000165898
0.013177
0.000156546
0.0137491
0.000145969
0.0143047
0.000134608
0.0148275
0.000122886
0.0153046
0.000111161
0.0157271
9.98525e-05
0.0160914
8.92693e-05
0.0163971
7.97562e-05
0.0166454
7.14852e-05
0.0168413
6.44354e-05
0.0169922
5.85929e-05
0.0171053
5.38957e-05
0.0171869
5.02217e-05
0.0172443
4.73528e-05
0.0172844
4.51264e-05
0.0173108
4.34694e-05
0.0173273
4.21896e-05
0.0173376
4.11611e-05
0.0173433
4.03599e-05
0.0173454
3.9696e-05
0.0173456
3.91168e-05
0.0173443
3.86336e-05
0.0173414
3.82042e-05
0.0173383
3.7789e-05
0.0173348
3.74078e-05
0.0173302
3.7062e-05
0.0173259
3.66959e-05
0.0173218
3.63296e-05
0.0173169
3.60227e-05
0.0173121
3.56912e-05
0.017308
3.53373e-05
0.0173032
3.50611e-05
0.0172984
3.47485e-05
0.0172945
3.442e-05
0.0172898
3.41649e-05
0.0172851
3.3868e-05
0.0172814
3.3554e-05
0.0172769
3.32819e-05
0.0172722
3.29693e-05
0.0172686
3.2638e-05
0.0172641
3.23652e-05
0.0172594
3.20348e-05
0.017256
3.17132e-05
0.0172516
3.143e-05
0.0172469
3.1081e-05
0.0172436
3.07507e-05
0.0172392
3.04415e-05
0.0172347
3.00723e-05
0.0172316
2.97392e-05
0.0172272
2.93816e-05
0.0172228
2.89825e-05
0.0172199
2.86666e-05
0.0172156
2.83345e-05
0.0172114
2.79103e-05
0.0172088
2.76077e-05
0.0172044
2.7233e-05
0.0172004
2.71081e-05
0.017198
2.63278e-05
0.0171936
2.63787e-05
0.0171902
2.54864e-05
0.0171878
2.56394e-05
0.017183
2.5976e-05
0.0171804
2.38166e-05
0.0171782
2.45832e-05
0.0171708
2.85772e-05
2.30996e-05
0.0157999
0.00212316
0.0153083
0.00148585
0.0149967
0.00106193
0.014877
0.000601335
0.0148849
0.00033871
0.0149484
0.000216517
0.0150267
0.000174046
0.0151087
0.000166901
0.0151953
0.000168073
0.0152861
0.000169048
0.015375
0.000168732
0.0154583
0.000168209
0.0155389
0.00016791
0.0156205
0.000167401
0.0157054
0.000167067
0.0157927
0.000166453
0.0158772
0.000165459
0.0159549
0.000164888
0.0160305
0.000164326
0.0161131
0.000163747
0.0162041
0.00016321
0.0162958
0.000162653
0.0163788
0.0001619
0.0164505
0.000161184
0.0165159
0.000160528
0.0165816
0.000160337
0.0166541
0.000160241
0.0167403
0.00015996
0.0168379
0.00015897
0.0169297
0.000157982
0.0169986
0.000156732
0.0170444
0.000155807
0.0170811
0.000155375
0.0171247
0.000155665
0.0171868
0.000156208
0.017271
0.000156331
0.0173672
0.000155678
0.0174503
0.000154341
0.0174947
0.000152617
0.0174912
0.000150772
0.0174449
0.000149826
0.0173687
0.000150479
0.0172844
0.000152022
0.0172203
0.00015445
0.0172015
0.00015711
0.0172437
0.000160213
0.0173562
0.000163165
0.0175469
0.000165348
0.0178187
0.000166723
0.0181682
0.000167133
0.0185903
0.000166041
0.0190782
0.00016344
0.0196202
0.000159279
0.0202005
0.000153734
0.0207999
0.000146921
0.0213992
0.000139128
0.0219797
0.000130684
0.0225247
0.000121901
0.0230217
0.000113033
0.0234618
0.000104405
0.0238415
9.62353e-05
0.0241606
8.88297e-05
0.0244206
8.23417e-05
0.0246267
7.67481e-05
0.0247866
7.20653e-05
0.0249077
6.82547e-05
0.0249965
6.5246e-05
0.0250604
6.28705e-05
0.0251064
6.0982e-05
0.0251384
5.95593e-05
0.0251602
5.8437e-05
0.0251754
5.74963e-05
0.0251858
5.67479e-05
0.0251924
5.61031e-05
0.0251969
5.55181e-05
0.0251999
5.50249e-05
0.025201
5.45695e-05
0.0252018
5.41242e-05
0.0252021
5.37041e-05
0.0252012
5.33146e-05
0.0252004
5.29073e-05
0.0251998
5.24829e-05
0.0251982
5.21231e-05
0.0251966
5.17431e-05
0.0251957
5.13246e-05
0.0251939
5.09976e-05
0.0251919
5.06321e-05
0.0251909
5.02425e-05
0.0251889
4.99395e-05
0.0251869
4.95853e-05
0.0251856
4.92088e-05
0.0251836
4.88719e-05
0.0251812
4.84898e-05
0.02518
4.80835e-05
0.0251777
4.77363e-05
0.0251751
4.73159e-05
0.0251737
4.69124e-05
0.0251712
4.6538e-05
0.0251685
4.60818e-05
0.025167
4.56566e-05
0.0251644
4.52389e-05
0.0251615
4.47397e-05
0.02516
4.43008e-05
0.0251571
4.37956e-05
0.0251543
4.32408e-05
0.0251528
4.28237e-05
0.0251498
4.23518e-05
0.025147
4.1764e-05
0.0251456
4.13384e-05
0.0251424
4.08704e-05
0.0251396
4.06271e-05
0.0251381
3.96998e-05
0.0251349
3.94892e-05
0.0251323
3.85304e-05
0.0251309
3.8573e-05
0.0251269
3.9165e-05
0.025125
3.59644e-05
0.0251237
3.70191e-05
0.025117
4.39608e-05
3.51118e-05
0.0183889
0.00164767
0.0185325
0.00141162
0.0185356
0.00113561
0.0185466
0.000676185
0.0186185
0.000352809
0.0187274
0.000189529
0.0188479
0.000131772
0.0189732
0.00012126
0.0191039
0.000122474
0.0192392
0.000124018
0.0193725
0.000124365
0.0195001
0.000124423
0.0196249
0.00012457
0.0197505
0.000124542
0.0198794
0.000124608
0.0200104
0.000124407
0.0201383
0.000123889
0.020259
0.00012369
0.0203774
0.000123519
0.0205024
0.000123304
0.0206356
0.000123145
0.0207691
0.000123008
0.0208933
0.000122755
0.0210056
0.00012254
0.0211111
0.000122343
0.0212164
0.000122433
0.021328
0.000122571
0.0214528
0.000122494
0.0215884
0.000121876
0.0217175
0.00012129
0.0218228
0.000120562
0.0219041
0.000120054
0.0219754
0.000119877
0.022053
0.000120206
0.0221485
0.000120728
0.0222655
0.000120923
0.0223936
0.000120571
0.0225075
0.000119726
0.0225815
0.000118609
0.0226062
0.000117306
0.0225867
0.000116547
0.0225361
0.000116821
0.0224764
0.000117684
0.0224362
0.000119138
0.0224408
0.000120765
0.0225061
0.000122778
0.0226415
0.000124764
0.0228552
0.000126307
0.0231498
0.000127378
0.0235222
0.000127914
0.0239672
0.000127533
0.0244778
0.000126238
0.0250425
0.000123987
0.0256452
0.000120921
0.0262665
0.000117095
0.0268873
0.000112663
0.0274884
0.00010783
0.0280534
0.00010277
0.0285693
9.76183e-05
0.0290275
9.25701e-05
0.0294242
8.77354e-05
0.0297594
8.3334e-05
0.0300345
7.94733e-05
0.030255
7.61208e-05
0.0304285
7.33082e-05
0.0305625
7.10149e-05
0.0306635
6.92156e-05
0.0307392
6.78086e-05
0.0307966
6.66801e-05
0.0308396
6.58474e-05
0.030872
6.51982e-05
0.0308975
6.46362e-05
0.030918
6.41965e-05
0.0309345
6.38101e-05
0.0309486
6.34461e-05
0.0309609
6.31511e-05
0.0309713
6.28691e-05
0.030981
6.25838e-05
0.0309902
6.2307e-05
0.0309978
6.20437e-05
0.0310055
6.17631e-05
0.0310131
6.145e-05
0.0310197
6.11864e-05
0.031026
6.09076e-05
0.0310328
6.0579e-05
0.0310387
6.03326e-05
0.0310442
6.00491e-05
0.0310505
5.97344e-05
0.0310557
5.94994e-05
0.0310607
5.9211e-05
0.0310664
5.88935e-05
0.0310711
5.86004e-05
0.0310754
5.82614e-05
0.0310807
5.78945e-05
0.0310848
5.75736e-05
0.0310884
5.71769e-05
0.0310932
5.67976e-05
0.0310968
5.64272e-05
0.0310999
5.59739e-05
0.0311042
5.55514e-05
0.0311072
5.51204e-05
0.0311098
5.46028e-05
0.0311138
5.41518e-05
0.0311162
5.36051e-05
0.0311185
5.30089e-05
0.0311222
5.25726e-05
0.0311241
5.20545e-05
0.0311261
5.14185e-05
0.0311295
5.09508e-05
0.0311309
5.04805e-05
0.0311326
5.01643e-05
0.0311356
4.9276e-05
0.0311366
4.88643e-05
0.0311381
4.79822e-05
0.0311408
4.7922e-05
0.031141
4.87168e-05
0.0311425
4.51242e-05
0.0311452
4.59811e-05
0.0311435
5.47181e-05
4.44105e-05
0.0189177
0.000794346
0.0196418
0.000758199
0.0201854
0.00066875
0.0205129
0.000432345
0.0207192
0.000229109
0.0208729
0.000113813
0.021008
7.06362e-05
0.0211428
6.17499e-05
0.0212839
6.20669e-05
0.0214306
6.31733e-05
0.0215756
6.36833e-05
0.0217153
6.39875e-05
0.0218523
6.42555e-05
0.0219904
6.44042e-05
0.0221319
6.45589e-05
0.0222758
6.45052e-05
0.0224168
6.42427e-05
0.0225508
6.41763e-05
0.0226826
6.41448e-05
0.0228212
6.40704e-05
0.0229682
6.40592e-05
0.0231156
6.41353e-05
0.0232538
6.42252e-05
0.0233803
6.43704e-05
0.0234999
6.44902e-05
0.0236195
6.46802e-05
0.0237456
6.48462e-05
0.023885
6.48097e-05
0.0240352
6.4473e-05
0.024179
6.42224e-05
0.0242989
6.40056e-05
0.0243949
6.3902e-05
0.0244809
6.39115e-05
0.0245732
6.41306e-05
0.0246837
6.44415e-05
0.0248157
6.45802e-05
0.0249589
6.44766e-05
0.0250879
6.41788e-05
0.0251767
6.37848e-05
0.025216
6.32085e-05
0.0252111
6.2771e-05
0.0251749
6.27127e-05
0.0251297
6.28335e-05
0.0251041
6.31447e-05
0.0251236
6.34804e-05
0.0252043
6.40404e-05
0.0253556
6.4663e-05
0.0255855
6.51457e-05
0.0258971
6.54946e-05
0.0262868
6.5729e-05
0.0267496
6.56726e-05
0.0272786
6.53386e-05
0.027862
6.47247e-05
0.0284835
6.39335e-05
0.029124
6.29801e-05
0.0297639
6.18938e-05
0.0303843
6.07265e-05
0.0309682
5.95169e-05
0.0315031
5.82692e-05
0.0319798
5.70319e-05
0.0323949
5.58054e-05
0.0327481
5.4688e-05
0.0330411
5.37263e-05
0.0332792
5.28852e-05
0.0334699
5.21849e-05
0.033621
5.16281e-05
0.033739
5.12291e-05
0.0338315
5.09518e-05
0.0339056
5.07363e-05
0.0339651
5.06198e-05
0.034014
5.05562e-05
0.0340561
5.04924e-05
0.0340929
5.04647e-05
0.0341258
5.0443e-05
0.0341562
5.0414e-05
0.0341847
5.04217e-05
0.0342113
5.04289e-05
0.0342371
5.04186e-05
0.0342623
5.04037e-05
0.034286
5.03906e-05
0.0343095
5.03608e-05
0.034333
5.03012e-05
0.0343553
5.02686e-05
0.0343772
5.02296e-05
0.0343996
5.01538e-05
0.0344209
5.01336e-05
0.0344418
5.00891e-05
0.0344632
5.00187e-05
0.0344836
5.0007e-05
0.0345036
4.996e-05
0.0345241
4.98817e-05
0.0345435
4.98101e-05
0.0345624
4.97034e-05
0.0345821
4.95713e-05
0.0346005
4.94702e-05
0.0346183
4.93196e-05
0.034637
4.91723e-05
0.0346543
4.90207e-05
0.034671
4.88078e-05
0.0346888
4.86041e-05
0.034705
4.83916e-05
0.0347206
4.81185e-05
0.0347374
4.788e-05
0.0347524
4.75707e-05
0.034767
4.72222e-05
0.0347828
4.69781e-05
0.0347967
4.66724e-05
0.0348103
4.62798e-05
0.0348252
4.59959e-05
0.0348379
4.57337e-05
0.0348508
4.55334e-05
0.0348646
4.49868e-05
0.0348762
4.47104e-05
0.0348881
4.4143e-05
0.0349011
4.41396e-05
0.0349119
4.48274e-05
0.0349225
4.23243e-05
0.0349346
4.27244e-05
0.0349463
4.94683e-05
4.20931e-05
0.0189273
-6.25092e-05
0.0197663
-9.69388e-06
0.0205296
-1.74714e-05
0.0210412
3.67098e-06
0.0213351
1.58776e-05
0.0215143
9.92868e-06
0.0216503
5.77018e-06
0.0217798
4.4455e-06
0.0219155
4.04897e-06
0.0220574
4.0091e-06
0.022198
4.22732e-06
0.0223334
4.50704e-06
0.0224664
4.65192e-06
0.0226007
4.75414e-06
0.0227385
4.77682e-06
0.0228789
4.65421e-06
0.0230165
4.45161e-06
0.0231473
4.30502e-06
0.0232762
4.17341e-06
0.023412
4.01599e-06
0.0235564
3.91192e-06
0.0237014
3.95606e-06
0.0238373
4.15925e-06
0.0239617
4.4215e-06
0.0240795
4.59956e-06
0.0241974
4.62056e-06
0.024322
4.5308e-06
0.0244602
4.28315e-06
0.0246095
3.99344e-06
0.0247524
3.84414e-06
0.0248717
3.9039e-06
0.0249672
3.95579e-06
0.0250529
3.86758e-06
0.0251453
3.6608e-06
0.0252561
3.43605e-06
0.0253886
3.23067e-06
0.0255326
3.1013e-06
0.0256625
3.10793e-06
0.0257525
3.19791e-06
0.0257932
3.12502e-06
0.0257897
2.75102e-06
0.0257553
2.07179e-06
0.0257121
1.13029e-06
0.0256889
-4.92997e-08
0.0257112
-1.37097e-06
0.0257949
-2.65706e-06
0.0259496
-3.79124e-06
0.0261833
-4.76422e-06
0.026499
-5.52704e-06
0.0268933
-5.98749e-06
0.027361
-6.09022e-06
0.0278952
-5.82619e-06
0.0284841
-5.14074e-06
0.0291115
-3.98174e-06
0.029758
-2.36554e-06
0.0304043
-3.83477e-07
0.0310312
1.83596e-06
0.031622
4.21341e-06
0.0321638
6.62142e-06
0.0326478
8.95332e-06
0.0330703
1.11105e-05
0.0334311
1.30526e-05
0.0337318
1.4764e-05
0.0339778
1.62178e-05
0.0341766
1.74042e-05
0.034336
1.83578e-05
0.0344625
1.91332e-05
0.0345637
1.97488e-05
0.0346467
2.02175e-05
0.0347154
2.05846e-05
0.0347736
2.08714e-05
0.0348252
2.10849e-05
0.0348718
2.12432e-05
0.0349145
2.13663e-05
0.034955
2.14655e-05
0.0349939
2.15627e-05
0.035031
2.1659e-05
0.0350675
2.1728e-05
0.0351035
2.17826e-05
0.0351383
2.18398e-05
0.035173
2.18803e-05
0.0352079
2.19114e-05
0.0352417
2.195e-05
0.0352753
2.19924e-05
0.0353095
2.20365e-05
0.0353427
2.21027e-05
0.0353756
2.21687e-05
0.0354093
2.22293e-05
0.0354419
2.23228e-05
0.0354742
2.24196e-05
0.0355072
2.24932e-05
0.0355392
2.25611e-05
0.0355707
2.26213e-05
0.0356031
2.2667e-05
0.0356342
2.27379e-05
0.0356647
2.28153e-05
0.0356962
2.28744e-05
0.0357263
2.29359e-05
0.0357558
2.29812e-05
0.0357863
2.30017e-05
0.0358152
2.30411e-05
0.0358436
2.30771e-05
0.035873
2.30892e-05
0.0359006
2.31197e-05
0.0359277
2.31404e-05
0.0359559
2.31348e-05
0.0359821
2.3143e-05
0.0360079
2.31455e-05
0.0360349
2.31365e-05
0.0360597
2.31418e-05
0.0360847
2.31174e-05
0.0361103
2.30978e-05
0.0361337
2.3117e-05
0.036157
2.31265e-05
0.0361815
2.31344e-05
0.0362045
2.31473e-05
0.0362257
2.31954e-05
0.0362485
2.3166e-05
0.0362755
2.3219e-05
2.33169e-05
0.0189276
-0.000919697
0.019766
-0.000776835
0.0205289
-0.000703275
0.021041
-0.00042581
0.0213358
-0.000198834
0.0215154
-9.51616e-05
0.0216515
-6.00378e-05
0.0217811
-5.36599e-05
0.0219167
-5.47033e-05
0.0220586
-5.58746e-05
0.0221991
-5.59569e-05
0.0223345
-5.57147e-05
0.0224675
-5.56988e-05
0.0226017
-5.56489e-05
0.0227395
-5.57587e-05
0.0228798
-5.59399e-05
0.0230174
-5.60644e-05
0.0231482
-5.62759e-05
0.023277
-5.64966e-05
0.0234128
-5.673e-05
0.0235572
-5.69231e-05
0.0237022
-5.69117e-05
0.0238381
-5.66021e-05
0.0239624
-5.62339e-05
0.0240802
-5.60096e-05
0.0241981
-5.61656e-05
0.0243227
-5.65144e-05
0.0244609
-5.69664e-05
0.0246101
-5.71969e-05
0.024753
-5.72319e-05
0.0248723
-5.68906e-05
0.0249678
-5.66829e-05
0.0250535
-5.68742e-05
0.0251459
-5.75154e-05
0.0252566
-5.82884e-05
0.0253891
-5.8849e-05
0.0255331
-5.90112e-05
0.025663
-5.87034e-05
0.025753
-5.81316e-05
0.0257936
-5.76981e-05
0.0257902
-5.80045e-05
0.0257558
-5.93005e-05
0.0257126
-6.13051e-05
0.0256893
-6.39791e-05
0.0257116
-6.69641e-05
0.0257953
-7.01059e-05
0.02595
-7.30077e-05
0.0261838
-7.54461e-05
0.0264995
-7.73268e-05
0.0268937
-7.84851e-05
0.0273615
-7.86368e-05
0.0278956
-7.77747e-05
0.0284845
-7.57909e-05
0.029112
-7.26859e-05
0.0297585
-6.85081e-05
0.0304048
-6.34764e-05
0.0310318
-5.78719e-05
0.0316225
-5.19186e-05
0.0321644
-4.58664e-05
0.0326483
-3.99752e-05
0.0330708
-3.4443e-05
0.0334316
-2.94497e-05
0.0337324
-2.50735e-05
0.0339783
-2.13335e-05
0.0341772
-1.82686e-05
0.0343366
-1.58139e-05
0.0344631
-1.38753e-05
0.0345643
-1.23785e-05
0.0346473
-1.12382e-05
0.034716
-1.04005e-05
0.0347742
-9.77632e-06
0.0348258
-9.29829e-06
0.0348724
-8.96566e-06
0.0349152
-8.709e-06
0.0349557
-8.49348e-06
0.0349946
-8.31904e-06
0.0350317
-8.14613e-06
0.0350682
-8.01e-06
0.0351043
-7.89735e-06
0.035139
-7.78123e-06
0.0351738
-7.68136e-06
0.0352087
-7.57085e-06
0.0352425
-7.47145e-06
0.0352761
-7.35885e-06
0.0353103
-7.20678e-06
0.0353436
-7.06719e-06
0.0353765
-6.90391e-06
0.0354102
-6.72498e-06
0.0354429
-6.54098e-06
0.0354753
-6.31498e-06
0.0355083
-6.10315e-06
0.0355403
-5.90826e-06
0.0355718
-5.69406e-06
0.0356043
-5.48219e-06
0.0356354
-5.25192e-06
0.0356659
-4.95888e-06
0.0356975
-4.70646e-06
0.0357276
-4.44288e-06
0.0357571
-4.14946e-06
0.0357876
-3.91384e-06
0.0358167
-3.63202e-06
0.035845
-3.29589e-06
0.0358745
-3.04209e-06
0.0359021
-2.6792e-06
0.0359292
-2.29706e-06
0.0359575
-2.0706e-06
0.0359837
-1.75249e-06
0.0360096
-1.36104e-06
0.0360367
-1.1016e-06
0.0360615
-8.32193e-07
0.0360865
-6.84368e-07
0.0361122
-1.86456e-07
0.0361356
1.33902e-07
0.036159
7.05155e-07
0.0361835
7.27367e-07
0.0362065
5.60865e-08
0.0362279
2.64738e-06
0.0362507
2.19405e-06
0.0362777
-4.47181e-06
3.09572e-06
0.0189169
-0.00177195
0.0196344
-0.00142307
0.0201774
-0.0011694
0.0205134
-0.000680206
0.020726
-0.000333047
0.0208821
-0.000178464
0.0210177
-0.000127257
0.0211524
-0.000118781
0.0212933
-0.000120638
0.0214398
-0.000122304
0.0215847
-0.000122325
0.0217241
-0.000121943
0.021861
-0.000121892
0.021999
-0.000121749
0.0221404
-0.000121837
0.0222841
-0.000121906
0.0224249
-0.000121788
0.0225588
-0.000121889
0.0226905
-0.000122003
0.022829
-0.000122136
0.0229759
-0.000122231
0.0231232
-0.000122071
0.0232613
-0.000121502
0.0233876
-0.00012087
0.0235071
-0.000120424
0.0236266
-0.000120561
0.0237526
-0.000120946
0.0238919
-0.00012139
0.0240421
-0.000121353
0.0241858
-0.000121069
0.0243056
-0.000120259
0.0244016
-0.000119702
0.0244874
-0.000119771
0.0245797
-0.000120593
0.0246901
-0.000121654
0.0248221
-0.000122337
0.0249653
-0.00012231
0.0250942
-0.000121508
0.0251829
-0.000120265
0.0252222
-0.000119145
0.0252172
-0.000119162
0.025181
-0.00012082
0.0251358
-0.000123601
0.0251102
-0.000127452
0.0251298
-0.000131761
0.0252104
-0.000136391
0.0253618
-0.000140693
0.0255918
-0.000144217
0.0259034
-0.000146834
0.0262932
-0.000148297
0.0267561
-0.000148122
0.0272851
-0.000146292
0.0278686
-0.000142664
0.0284902
-0.000137289
0.0291308
-0.000130257
0.0297708
-0.000121909
0.0303912
-0.000112666
0.0309752
-0.000102897
0.0315101
-9.29761e-05
0.0319869
-8.33073e-05
0.0324021
-7.41948e-05
0.0327554
-6.59435e-05
0.0330484
-5.86934e-05
0.0332865
-5.24646e-05
0.0334773
-4.73062e-05
0.0336284
-4.31323e-05
0.0337464
-3.98123e-05
0.033839
-3.72058e-05
0.0339131
-3.51706e-05
0.0339727
-3.36324e-05
0.0340217
-3.24359e-05
0.0340638
-3.14697e-05
0.0341008
-3.07306e-05
0.0341337
-3.01119e-05
0.0341641
-2.9562e-05
0.0341928
-2.90868e-05
0.0342194
-2.86262e-05
0.0342453
-2.82117e-05
0.0342706
-2.78313e-05
0.0342944
-2.74579e-05
0.034318
-2.70974e-05
0.0343416
-2.67218e-05
0.034364
-2.63787e-05
0.034386
-2.60139e-05
0.0344085
-2.55979e-05
0.0344299
-2.52222e-05
0.0344509
-2.48092e-05
0.0344725
-2.43755e-05
0.0344929
-2.39609e-05
0.034513
-2.34863e-05
0.0345337
-2.30245e-05
0.0345533
-2.25933e-05
0.0345723
-2.21295e-05
0.0345921
-2.16645e-05
0.0346106
-2.11983e-05
0.0346286
-2.06436e-05
0.0346474
-2.01415e-05
0.0346649
-1.96392e-05
0.0346817
-1.90816e-05
0.0346996
-1.86005e-05
0.0347159
-1.80741e-05
0.0347317
-1.74663e-05
0.0347486
-1.697e-05
0.0347638
-1.63407e-05
0.0347785
-1.56792e-05
0.0347945
-1.52269e-05
0.0348085
-1.46623e-05
0.0348223
-1.39914e-05
0.0348373
-1.35126e-05
0.0348501
-1.30003e-05
0.0348632
-1.26942e-05
0.0348771
-1.18187e-05
0.0348889
-1.1328e-05
0.0349009
-1.04123e-05
0.034914
-1.02968e-05
0.034925
-1.10485e-05
0.0349357
-7.33501e-06
0.034948
-8.198e-06
0.0349598
-1.6875e-05
-6.30812e-06
0.0183792
-0.00223195
0.0185251
-0.00149783
0.0185345
-0.00110206
0.0185558
-0.000620335
0.0186377
-0.000337141
0.0187505
-0.000219268
0.0188718
-0.000180912
0.0189971
-0.000175153
0.0191277
-0.000176913
0.0192629
-0.000178143
0.0193961
-0.000177708
0.0195236
-0.000176964
0.0196483
-0.00017665
0.0197739
-0.0001762
0.0199027
-0.000176032
0.0200336
-0.000175777
0.0201614
-0.000175243
0.0202821
-0.000175045
0.0204004
-0.000174854
0.0205254