/*--------------------------------*- C++ -*----------------------------------*\
  =========                 |
  \\      /  F ield         | OpenFOAM: The Open Source CFD Toolbox
   \\    /   O peration     | Website:  https://openfoam.org
    \\  /    A nd           | Version:  7
     \\/     M anipulation  |
\*---------------------------------------------------------------------------*/
FoamFile
{
    version     2.0;
    format      ascii;
    class       volScalarField;
    location    "1.6";
    object      rho_0;
}
// * * * * * * * * * * * * * * * * * * * * * * * * * * * * * * * * * * * * * //

dimensions      [1 -3 0 0 0 0 0];

internalField   nonuniform List<scalar> 
1800
(
1.23014
1.23012
1.2301
1.23008
1.23007
1.23005
1.23003
1.23001
1.23
1.22999
1.22998
1.22997
1.22996
1.22996
1.22996
1.22996
1.22996
1.22996
1.22996
1.22996
1.22996
1.22997
1.22996
1.22997
1.22995
1.22998
1.22991
1.23004
1.22971
1.23053
1.23013
1.23013
1.23012
1.2301
1.23008
1.23005
1.23003
1.23
1.22997
1.22995
1.22992
1.2299
1.22988
1.22987
1.22986
1.22986
1.22986
1.22987
1.22988
1.22989
1.2299
1.22992
1.22992
1.22995
1.22992
1.22999
1.22989
1.23006
1.22978
1.23021
1.23012
1.23012
1.23012
1.23011
1.23009
1.23007
1.23004
1.23002
1.22999
1.22996
1.22994
1.22991
1.22989
1.22987
1.22985
1.22983
1.22982
1.22982
1.22981
1.22982
1.22983
1.22985
1.22986
1.22989
1.2299
1.22994
1.22993
1.22998
1.22995
1.23002
1.23012
1.23012
1.23011
1.2301
1.23009
1.23007
1.23005
1.23002
1.23
1.22997
1.22995
1.22992
1.2299
1.22988
1.22986
1.22985
1.22983
1.22982
1.22981
1.2298
1.2298
1.22981
1.22982
1.22984
1.22986
1.22989
1.22991
1.22993
1.22996
1.22996
1.23011
1.23011
1.23011
1.2301
1.23008
1.23006
1.23004
1.23002
1.22999
1.22997
1.22994
1.22992
1.2299
1.22988
1.22986
1.22985
1.22983
1.22982
1.22981
1.2298
1.2298
1.22981
1.22982
1.22983
1.22985
1.22987
1.2299
1.22992
1.22994
1.22995
1.2301
1.23011
1.2301
1.23009
1.23008
1.23006
1.23004
1.23001
1.22999
1.22996
1.22994
1.22992
1.2299
1.22988
1.22986
1.22984
1.22983
1.22981
1.2298
1.2298
1.2298
1.2298
1.22981
1.22983
1.22985
1.22987
1.2299
1.22992
1.22994
1.22995
1.2301
1.2301
1.2301
1.23009
1.23007
1.23005
1.23003
1.23001
1.22998
1.22996
1.22993
1.22991
1.22989
1.22987
1.22986
1.22984
1.22982
1.22981
1.2298
1.22979
1.22979
1.2298
1.22981
1.22983
1.22985
1.22987
1.22989
1.22991
1.22994
1.22995
1.23009
1.2301
1.23009
1.23008
1.23007
1.23005
1.23003
1.23
1.22998
1.22996
1.22993
1.22991
1.22989
1.22987
1.22985
1.22984
1.22982
1.22981
1.2298
1.22979
1.22979
1.2298
1.22981
1.22982
1.22984
1.22986
1.22989
1.22991
1.22993
1.22995
1.23009
1.23009
1.23009
1.23008
1.23006
1.23005
1.23002
1.23
1.22998
1.22995
1.22993
1.22991
1.22988
1.22987
1.22985
1.22983
1.22981
1.2298
1.22979
1.22979
1.22979
1.2298
1.22981
1.22983
1.22985
1.22987
1.22989
1.22992
1.22994
1.22996
1.23009
1.23009
1.23009
1.23008
1.23006
1.23004
1.23001
1.22999
1.22996
1.22994
1.22991
1.22989
1.22987
1.22985
1.22983
1.22981
1.2298
1.22979
1.22979
1.2298
1.22981
1.22983
1.22985
1.22987
1.22989
1.22991
1.22993
1.22994
1.22995
1.22997
1.23009
1.23009
1.23008
1.23006
1.23004
1.23002
1.22999
1.22996
1.22994
1.22991
1.22989
1.22987
1.22986
1.22984
1.22984
1.22983
1.22983
1.22984
1.22985
1.22986
1.22988
1.22989
1.2299
1.22991
1.22992
1.22993
1.22993
1.22993
1.22993
1.22992
1.2301
1.23008
1.23006
1.23005
1.23003
1.23001
1.22999
1.22998
1.22996
1.22995
1.22994
1.22994
1.22993
1.22993
1.22993
1.22993
1.22993
1.22993
1.22993
1.22994
1.22994
1.22994
1.22994
1.22994
1.22994
1.22993
1.22993
1.22992
1.22992
1.22991
1.22503
1.22125
1.21883
1.21692
1.21531
1.21389
1.21261
1.21144
1.21036
1.20935
1.20839
1.2075
1.20665
1.20584
1.20508
1.20435
1.20364
1.20296
1.20229
1.20164
1.20101
1.2004
1.19981
1.19925
1.19871
1.1982
1.19771
1.19724
1.19678
1.19634
1.19591
1.19551
1.19513
1.19478
1.19446
1.19416
1.19389
1.19363
1.19339
1.19317
1.19295
1.19275
1.19256
1.1924
1.19225
1.19212
1.192
1.1919
1.1918
1.1917
1.19161
1.19152
1.19144
1.19136
1.1913
1.19124
1.19119
1.19115
1.19111
1.19109
1.19106
1.19104
1.19103
1.19101
1.191
1.19098
1.19097
1.19096
1.19095
1.19093
1.19092
1.19091
1.1909
1.19088
1.19087
1.19086
1.19085
1.19083
1.19082
1.19081
1.1908
1.19078
1.19077
1.19076
1.19075
1.19073
1.19072
1.1907
1.19069
1.19068
1.19066
1.19065
1.19064
1.19062
1.19061
1.19059
1.19058
1.19057
1.19055
1.19054
1.19052
1.19051
1.1905
1.19048
1.19047
1.19045
1.19044
1.19043
1.19041
1.1904
1.19038
1.19037
1.19035
1.19034
1.19033
1.19031
1.1903
1.19028
1.19027
1.19026
1.22869
1.22603
1.22388
1.22211
1.22059
1.21925
1.21803
1.21692
1.21588
1.2149
1.21396
1.21307
1.21222
1.21141
1.21064
1.2099
1.2092
1.20853
1.20787
1.20723
1.20659
1.20597
1.20537
1.20479
1.20424
1.20371
1.20321
1.20274
1.20228
1.20183
1.2014
1.20098
1.20058
1.2002
1.19985
1.19953
1.19924
1.19897
1.19872
1.19849
1.19826
1.19805
1.19784
1.19765
1.19748
1.19733
1.1972
1.19708
1.19697
1.19688
1.19678
1.19669
1.1966
1.19652
1.19644
1.19637
1.1963
1.19625
1.19621
1.19617
1.19614
1.19611
1.19609
1.19607
1.19606
1.19604
1.19603
1.19601
1.196
1.19599
1.19597
1.19596
1.19595
1.19593
1.19592
1.19591
1.19589
1.19588
1.19587
1.19585
1.19584
1.19583
1.19581
1.1958
1.19578
1.19577
1.19575
1.19574
1.19573
1.19571
1.1957
1.19568
1.19567
1.19565
1.19564
1.19562
1.19561
1.19559
1.19558
1.19556
1.19555
1.19553
1.19552
1.1955
1.19549
1.19547
1.19546
1.19544
1.19542
1.19541
1.19539
1.19538
1.19536
1.19535
1.19533
1.19532
1.1953
1.19529
1.19527
1.19526
1.22989
1.22873
1.2273
1.22592
1.22464
1.22348
1.22241
1.22142
1.2205
1.21961
1.21875
1.21791
1.21709
1.21629
1.21553
1.21481
1.21412
1.21347
1.21285
1.21223
1.21163
1.21102
1.21042
1.20982
1.20925
1.20871
1.2082
1.20772
1.20727
1.20683
1.2064
1.20598
1.20556
1.20515
1.20477
1.20441
1.20409
1.2038
1.20354
1.20329
1.20306
1.20283
1.20261
1.20239
1.20219
1.202
1.20184
1.20171
1.20159
1.20149
1.20139
1.2013
1.20121
1.20111
1.20102
1.20093
1.20085
1.20077
1.20071
1.20066
1.20062
1.20058
1.20055
1.20053
1.20051
1.20049
1.20047
1.20046
1.20044
1.20043
1.20041
1.2004
1.20039
1.20037
1.20036
1.20034
1.20033
1.20031
1.2003
1.20029
1.20027
1.20026
1.20024
1.20023
1.20021
1.2002
1.20018
1.20017
1.20015
1.20013
1.20012
1.2001
1.20009
1.20007
1.20006
1.20004
1.20002
1.20001
1.19999
1.19998
1.19996
1.19994
1.19993
1.19991
1.1999
1.19988
1.19986
1.19985
1.19983
1.19981
1.1998
1.19978
1.19977
1.19975
1.19973
1.19972
1.1997
1.19968
1.19966
1.19965
1.23006
1.22983
1.2292
1.22837
1.22749
1.22662
1.2258
1.22503
1.2243
1.22359
1.22288
1.22216
1.22143
1.22069
1.21997
1.21927
1.21862
1.21802
1.21746
1.21691
1.21637
1.21581
1.21523
1.21465
1.21407
1.21352
1.213
1.21252
1.21209
1.21168
1.21128
1.21087
1.21045
1.21003
1.20961
1.20922
1.20886
1.20854
1.20826
1.20801
1.20778
1.20756
1.20732
1.20708
1.20684
1.20662
1.20642
1.20625
1.20611
1.206
1.20591
1.20582
1.20572
1.20562
1.20552
1.20541
1.20531
1.20521
1.20512
1.20505
1.20499
1.20494
1.2049
1.20486
1.20484
1.20481
1.20479
1.20478
1.20476
1.20474
1.20473
1.20471
1.2047
1.20468
1.20467
1.20465
1.20464
1.20462
1.2046
1.20459
1.20457
1.20456
1.20454
1.20453
1.20451
1.20449
1.20448
1.20446
1.20444
1.20443
1.20441
1.20439
1.20438
1.20436
1.20434
1.20433
1.20431
1.20429
1.20428
1.20426
1.20424
1.20423
1.20421
1.20419
1.20417
1.20416
1.20414
1.20412
1.20411
1.20409
1.20407
1.20405
1.20404
1.20402
1.204
1.20398
1.20397
1.20395
1.20393
1.20392
1.23002
1.23007
1.22992
1.22958
1.2291
1.22857
1.22804
1.22753
1.22706
1.22659
1.22612
1.2256
1.22503
1.22442
1.22378
1.22316
1.22258
1.22205
1.22157
1.22113
1.22069
1.22023
1.21974
1.21921
1.21866
1.21811
1.2176
1.21714
1.21673
1.21637
1.21602
1.21566
1.21528
1.21487
1.21445
1.21403
1.21363
1.21329
1.21299
1.21275
1.21253
1.21232
1.2121
1.21185
1.21159
1.21133
1.21108
1.21088
1.21071
1.21059
1.21049
1.21041
1.21033
1.21023
1.21012
1.21
1.20988
1.20975
1.20964
1.20954
1.20946
1.20939
1.20933
1.20929
1.20926
1.20923
1.2092
1.20918
1.20916
1.20914
1.20913
1.20911
1.20909
1.20908
1.20906
1.20904
1.20903
1.20901
1.20899
1.20898
1.20896
1.20894
1.20893
1.20891
1.20889
1.20887
1.20886
1.20884
1.20882
1.2088
1.20879
1.20877
1.20875
1.20873
1.20872
1.2087
1.20868
1.20866
1.20864
1.20863
1.20861
1.20859
1.20857
1.20855
1.20853
1.20852
1.2085
1.20848
1.20846
1.20844
1.20843
1.20841
1.20839
1.20837
1.20835
1.20833
1.20831
1.2083
1.20828
1.20826
1.23001
1.23007
1.23006
1.22995
1.22974
1.22948
1.2292
1.22895
1.22874
1.22854
1.22833
1.22805
1.2277
1.22728
1.22679
1.2263
1.22583
1.22541
1.22506
1.22476
1.22446
1.22415
1.22378
1.22335
1.22288
1.2224
1.22193
1.22152
1.22117
1.22087
1.2206
1.22033
1.22002
1.21967
1.21928
1.21887
1.21848
1.21813
1.21784
1.21761
1.21742
1.21724
1.21704
1.21682
1.21656
1.21628
1.21602
1.21578
1.2156
1.21547
1.21537
1.2153
1.21523
1.21514
1.21504
1.21491
1.21478
1.21464
1.21451
1.21439
1.21428
1.2142
1.21413
1.21407
1.21403
1.214
1.21397
1.21394
1.21392
1.2139
1.21388
1.21386
1.21385
1.21383
1.21381
1.21379
1.21377
1.21376
1.21374
1.21372
1.2137
1.21368
1.21367
1.21365
1.21363
1.21361
1.21359
1.21357
1.21355
1.21354
1.21352
1.2135
1.21348
1.21346
1.21344
1.21342
1.2134
1.21338
1.21337
1.21335
1.21333
1.21331
1.21329
1.21327
1.21325
1.21323
1.21321
1.21319
1.21317
1.21315
1.21313
1.21311
1.21309
1.21308
1.21306
1.21304
1.21302
1.213
1.21298
1.21296
1.23001
1.23007
1.23006
1.22997
1.22983
1.22967
1.22954
1.22946
1.22943
1.22942
1.22939
1.22929
1.22912
1.22886
1.22854
1.22821
1.2279
1.22764
1.22744
1.22727
1.22712
1.22693
1.22669
1.22638
1.22602
1.22565
1.22529
1.22498
1.22473
1.22452
1.22434
1.22414
1.22391
1.22363
1.22331
1.22296
1.22263
1.22234
1.2221
1.22191
1.22177
1.22162
1.22146
1.22127
1.22103
1.22078
1.22054
1.22032
1.22016
1.22004
1.21996
1.2199
1.21984
1.21976
1.21966
1.21954
1.21941
1.21927
1.21914
1.21902
1.21891
1.21883
1.21876
1.2187
1.21866
1.21862
1.21859
1.21857
1.21854
1.21852
1.2185
1.21848
1.21846
1.21845
1.21843
1.21841
1.21839
1.21837
1.21835
1.21833
1.21831
1.21829
1.21827
1.21825
1.21824
1.21822
1.2182
1.21818
1.21816
1.21814
1.21812
1.2181
1.21808
1.21806
1.21804
1.21802
1.218
1.21798
1.21796
1.21794
1.21792
1.2179
1.21788
1.21786
1.21784
1.21782
1.2178
1.21778
1.21776
1.21774
1.21772
1.2177
1.21768
1.21766
1.21763
1.21761
1.21759
1.21757
1.21755
1.21753
1.23001
1.23005
1.23
1.22989
1.22976
1.22966
1.22961
1.22961
1.22964
1.22968
1.2297
1.22965
1.22954
1.22938
1.22918
1.22898
1.2288
1.22867
1.22858
1.2285
1.22841
1.22828
1.2281
1.22787
1.22761
1.22735
1.22711
1.22691
1.22675
1.22662
1.22649
1.22634
1.22615
1.22592
1.22567
1.2254
1.22516
1.22495
1.22479
1.22465
1.22454
1.22442
1.22428
1.2241
1.22391
1.2237
1.22351
1.22336
1.22324
1.22316
1.2231
1.22304
1.22298
1.2229
1.2228
1.22269
1.22257
1.22245
1.22234
1.22224
1.22215
1.22208
1.22203
1.22198
1.22194
1.22191
1.22188
1.22186
1.22184
1.22182
1.2218
1.22178
1.22176
1.22174
1.22172
1.2217
1.22168
1.22166
1.22164
1.22162
1.2216
1.22158
1.22156
1.22154
1.22152
1.2215
1.22148
1.22146
1.22144
1.22142
1.2214
1.22138
1.22136
1.22134
1.22132
1.2213
1.22128
1.22126
1.22124
1.22122
1.2212
1.22118
1.22116
1.22114
1.22112
1.2211
1.22108
1.22106
1.22103
1.22101
1.22099
1.22097
1.22095
1.22093
1.22091
1.22089
1.22087
1.22085
1.22083
1.22081
1.23
1.22999
1.22991
1.22981
1.22972
1.22967
1.22966
1.22968
1.22972
1.22975
1.22975
1.22971
1.22962
1.22951
1.22938
1.22927
1.22919
1.22913
1.22908
1.22903
1.22896
1.22886
1.22871
1.22854
1.22836
1.22819
1.22804
1.22792
1.22782
1.22772
1.22762
1.22749
1.22733
1.22715
1.22696
1.22677
1.22661
1.22647
1.22636
1.22627
1.22617
1.22607
1.22594
1.22579
1.22564
1.22549
1.22536
1.22526
1.22518
1.22512
1.22507
1.22502
1.22495
1.22488
1.22479
1.22469
1.22459
1.2245
1.22441
1.22434
1.22427
1.22422
1.22418
1.22414
1.22411
1.22408
1.22406
1.22404
1.22402
1.224
1.22398
1.22396
1.22394
1.22392
1.2239
1.22388
1.22386
1.22384
1.22382
1.2238
1.22378
1.22376
1.22374
1.22372
1.2237
1.22368
1.22366
1.22364
1.22362
1.2236
1.22358
1.22356
1.22354
1.22352
1.2235
1.22348
1.22346
1.22344
1.22342
1.2234
1.22338
1.22336
1.22333
1.22331
1.22329
1.22327
1.22325
1.22323
1.22321
1.22319
1.22317
1.22315
1.22313
1.2231
1.22308
1.22306
1.22304
1.22302
1.223
1.22298
1.22997
1.22992
1.22985
1.22977
1.22972
1.2297
1.22971
1.22973
1.22976
1.22976
1.22974
1.22969
1.22962
1.22955
1.22948
1.22942
1.22938
1.22935
1.22932
1.22928
1.22922
1.22913
1.22902
1.2289
1.22878
1.22867
1.22859
1.22851
1.22844
1.22837
1.22828
1.22817
1.22805
1.22791
1.22778
1.22766
1.22756
1.22747
1.2274
1.22732
1.22725
1.22715
1.22705
1.22694
1.22683
1.22673
1.22665
1.22658
1.22653
1.22649
1.22645
1.22639
1.22633
1.22627
1.22619
1.22611
1.22604
1.22597
1.22591
1.22586
1.22581
1.22577
1.22574
1.22571
1.22569
1.22566
1.22564
1.22562
1.2256
1.22558
1.22556
1.22554
1.22552
1.22551
1.22549
1.22547
1.22545
1.22543
1.22541
1.22539
1.22537
1.22535
1.22533
1.22531
1.22529
1.22527
1.22525
1.22523
1.22521
1.22519
1.22517
1.22515
1.22513
1.22511
1.22509
1.22507
1.22505
1.22503
1.225
1.22498
1.22496
1.22494
1.22492
1.2249
1.22488
1.22486
1.22484
1.22482
1.2248
1.22477
1.22475
1.22473
1.22471
1.22469
1.22467
1.22465
1.22463
1.22461
1.22458
1.22456
1.22992
1.22988
1.22983
1.22978
1.22976
1.22975
1.22976
1.22977
1.22977
1.22975
1.22972
1.22968
1.22963
1.22959
1.22955
1.22953
1.2295
1.22948
1.22946
1.22942
1.22936
1.2293
1.22922
1.22915
1.22908
1.22902
1.22897
1.22892
1.22887
1.22881
1.22874
1.22867
1.22858
1.22849
1.22841
1.22834
1.22828
1.22823
1.22818
1.22812
1.22806
1.22799
1.22792
1.22784
1.22777
1.22771
1.22766
1.22763
1.22759
1.22756
1.22752
1.22748
1.22743
1.22737
1.22732
1.22726
1.22721
1.22717
1.22713
1.22709
1.22706
1.22703
1.227
1.22698
1.22696
1.22694
1.22692
1.2269
1.22688
1.22686
1.22684
1.22682
1.2268
1.22678
1.22676
1.22674
1.22672
1.2267
1.22668
1.22666
1.22664
1.22662
1.2266
1.22658
1.22656
1.22654
1.22652
1.2265
1.22648
1.22646
1.22644
1.22642
1.2264
1.22638
1.22636
1.22634
1.22632
1.2263
1.22628
1.22626
1.22624
1.22621
1.22619
1.22617
1.22615
1.22613
1.22611
1.22609
1.22607
1.22605
1.22602
1.226
1.22598
1.22596
1.22594
1.22592
1.2259
1.22588
1.22585
1.22583
1.22993
1.2299
1.22987
1.22984
1.22983
1.22981
1.22981
1.2298
1.22978
1.22976
1.22974
1.22971
1.22969
1.22966
1.22964
1.22962
1.22961
1.22959
1.22957
1.22954
1.22951
1.22947
1.22944
1.2294
1.22937
1.22934
1.22931
1.22928
1.22925
1.22922
1.22918
1.22914
1.2291
1.22906
1.22902
1.22899
1.22896
1.22893
1.2289
1.22887
1.22883
1.22879
1.22876
1.22872
1.22869
1.22866
1.22863
1.2286
1.22858
1.22855
1.22853
1.2285
1.22847
1.22844
1.22841
1.22838
1.22835
1.22832
1.22829
1.22827
1.22824
1.22822
1.2282
1.22818
1.22816
1.22814
1.22812
1.2281
1.22808
1.22806
1.22804
1.22802
1.22801
1.22799
1.22797
1.22795
1.22793
1.22791
1.22789
1.22787
1.22784
1.22782
1.2278
1.22778
1.22776
1.22774
1.22772
1.2277
1.22768
1.22766
1.22764
1.22762
1.2276
1.22758
1.22756
1.22754
1.22752
1.2275
1.22747
1.22745
1.22743
1.22741
1.22739
1.22737
1.22735
1.22732
1.2273
1.22728
1.22726
1.22724
1.22722
1.22719
1.22717
1.22715
1.22713
1.22711
1.22708
1.22706
1.22704
1.22702
)
;

boundaryField
{
    upperWall
    {
        type            calculated;
        value           nonuniform List<scalar> 
150
(
1.23009
1.23008
1.23006
1.23004
1.23003
1.23002
1.23001
1.23001
1.23001
1.23
1.23
1.22999
1.22999
1.22999
1.22999
1.22998
1.22998
1.22998
1.22997
1.22997
1.22997
1.22997
1.22996
1.22996
1.22996
1.22996
1.22996
1.22995
1.22995
1.22995
1.22994
1.22992
1.2299
1.22988
1.22986
1.22984
1.22982
1.22981
1.22979
1.22977
1.22975
1.22974
1.22972
1.2297
1.22969
1.22967
1.22965
1.22964
1.22962
1.2296
1.22959
1.22957
1.22955
1.22954
1.22952
1.2295
1.22948
1.22947
1.22945
1.22943
1.22941
1.2294
1.22938
1.22936
1.22934
1.22932
1.22931
1.22929
1.22927
1.22925
1.22923
1.22921
1.2292
1.22918
1.22916
1.22914
1.22912
1.2291
1.22909
1.22907
1.22905
1.22903
1.22901
1.22899
1.22897
1.22895
1.22893
1.22891
1.22889
1.22888
1.22886
1.22884
1.22882
1.2288
1.22878
1.22876
1.22874
1.22872
1.2287
1.22868
1.22866
1.22864
1.22863
1.22861
1.22859
1.22857
1.22855
1.22853
1.2285
1.22848
1.22846
1.22844
1.22842
1.2284
1.22838
1.22836
1.22834
1.22832
1.2283
1.22828
1.22826
1.22824
1.22822
1.2282
1.22818
1.22816
1.22813
1.22811
1.22809
1.22807
1.22805
1.22803
1.228
1.22798
1.22796
1.22794
1.22792
1.22789
1.22787
1.22785
1.22783
1.2278
1.22778
1.22776
1.22774
1.22772
1.22769
1.22767
1.22765
1.22763
)
;
    }
    lowerWall
    {
        type            calculated;
        value           nonuniform List<scalar> 
30
(
1.23014
1.23013
1.23011
1.23009
1.23008
1.23007
1.23006
1.23006
1.23005
1.23005
1.23004
1.23004
1.23003
1.23003
1.23003
1.23002
1.23002
1.23002
1.23001
1.23001
1.23001
1.23
1.23
1.23
1.22999
1.22999
1.22999
1.22999
1.22998
1.22998
)
;
    }
    heatedWall
    {
        type            calculated;
        value           nonuniform List<scalar> 
120
(
1.22187
1.21826
1.21583
1.2139
1.21227
1.21084
1.20955
1.20838
1.2073
1.20629
1.20534
1.20444
1.2036
1.2028
1.20204
1.20131
1.20061
1.19993
1.19927
1.19862
1.19799
1.19738
1.19679
1.19623
1.1957
1.19519
1.1947
1.19423
1.19378
1.19334
1.19292
1.19252
1.19214
1.19179
1.19147
1.19118
1.19091
1.19065
1.19041
1.19019
1.18997
1.18977
1.18959
1.18943
1.18928
1.18915
1.18903
1.18893
1.18883
1.18874
1.18864
1.18856
1.18848
1.1884
1.18834
1.18828
1.18823
1.18819
1.18816
1.18813
1.18811
1.18809
1.18807
1.18806
1.18805
1.18803
1.18802
1.18801
1.188
1.18799
1.18798
1.18796
1.18795
1.18794
1.18793
1.18792
1.18791
1.18789
1.18788
1.18787
1.18786
1.18785
1.18784
1.18782
1.18781
1.1878
1.18779
1.18777
1.18776
1.18775
1.18773
1.18772
1.18771
1.18769
1.18768
1.18767
1.18765
1.18764
1.18763
1.18761
1.1876
1.18759
1.18757
1.18756
1.18755
1.18753
1.18752
1.18751
1.18749
1.18748
1.18747
1.18745
1.18744
1.18743
1.18741
1.1874
1.18738
1.18737
1.18735
1.18734
)
;
    }
    inlet
    {
        type            calculated;
        value           nonuniform List<scalar> 
12
(
1.23014
1.23013
1.23012
1.23012
1.23011
1.2301
1.23009
1.23009
1.23008
1.23008
1.23008
1.23009
)
;
    }
    outlet
    {
        type            calculated;
        value           nonuniform List<scalar> 
12
(
1.19025
1.19525
1.19964
1.2039
1.20825
1.21295
1.21752
1.2208
1.22297
1.22455
1.22582
1.22701
)
;
    }
    frontAndBack
    {
        type            empty;
    }
}


// ************************************************************************* //
