/*--------------------------------*- C++ -*----------------------------------*\
  =========                 |
  \\      /  F ield         | OpenFOAM: The Open Source CFD Toolbox
   \\    /   O peration     | Website:  https://openfoam.org
    \\  /    A nd           | Version:  7
     \\/     M anipulation  |
\*---------------------------------------------------------------------------*/
FoamFile
{
    version     2.0;
    format      ascii;
    class       surfaceScalarField;
    location    "0.035";
    object      phi_0;
}
// * * * * * * * * * * * * * * * * * * * * * * * * * * * * * * * * * * * * * //

dimensions      [1 0 -1 0 0 0 0];

internalField   nonuniform List<scalar> 
2748
(
0.00482512
2.33871e-05
0.00476198
5.9493e-05
0.00466209
9.63655e-05
0.00453258
0.000126155
0.00438022
0.000149215
0.00421276
0.000164509
0.00403653
0.000173495
0.00385675
0.000177216
0.00367747
0.000176836
0.00350206
0.000173032
0.00333291
0.000166751
0.00317149
0.000158928
0.00301886
0.000149961
0.00287553
0.000140423
0.00274169
0.00013067
0.00261739
0.000120894
0.0025026
0.000111205
0.00239722
0.000101737
0.00230109
9.25879e-05
0.00221395
8.38066e-05
0.00213546
7.54641e-05
0.00206504
6.76678e-05
0.00200195
6.0541e-05
0.00194531
5.4169e-05
0.00189421
4.85538e-05
0.00184785
4.36201e-05
0.00180568
3.9233e-05
0.0017674
3.52096e-05
0.00173296
3.13486e-05
0.00170246
2.74895e-05
0.00167598
2.35797e-05
0.0016535
1.96762e-05
0.00163488
1.58818e-05
0.00161986
1.23076e-05
0.00160804
9.07989e-06
0.00159894
6.32464e-06
0.00159195
4.13279e-06
0.00158647
2.5412e-06
0.00158194
1.50742e-06
0.00157794
9.24047e-07
0.00157416
6.67363e-07
0.00157042
6.24195e-07
0.00156663
6.8739e-07
0.00156278
7.96434e-07
0.00155891
9.06345e-07
0.00155505
9.86997e-07
0.00155127
1.00617e-06
0.00154754
1.05376e-06
0.00154388
1.07437e-06
0.00154016
1.21914e-06
0.00153652
1.23073e-06
0.00153275
1.45398e-06
0.00152907
1.40329e-06
0.00152505
1.83954e-06
0.00152104
1.72042e-06
0.00151613
2.69508e-06
0.00151098
2.84021e-06
0.00150395
4.51198e-06
0.00149625
5.56473e-06
7.64491e-06
0.00148521
0.00485573
1.60481e-05
0.00486956
4.20131e-05
0.0048936
6.8807e-05
0.00492392
9.24775e-05
0.00495635
0.00011364
0.00498694
0.000130998
0.00501293
0.000144825
0.00503264
0.000155036
0.00504525
0.000161954
0.00505043
0.000165724
0.00504843
0.000166728
0.00503987
0.000165491
0.00502547
0.000162332
0.00500604
0.000157719
0.00498239
0.000151997
0.00495526
0.000145468
0.00492527
0.00013836
0.00489302
0.000130854
0.00485908
0.000123103
0.00482392
0.000115267
0.00478796
0.000107506
0.00475158
9.99786e-05
0.00471511
9.28459e-05
0.00467888
8.62275e-05
0.00464317
8.01661e-05
0.00460822
7.46283e-05
0.00457422
6.95098e-05
0.00454132
6.46495e-05
0.00450966
5.98605e-05
0.0044794
5.49817e-05
0.00445068
4.99356e-05
0.00442362
4.4747e-05
0.00439827
3.95042e-05
0.00437472
3.43183e-05
0.00435309
2.9311e-05
0.00433351
2.46118e-05
0.00431598
2.03538e-05
0.00430031
1.66522e-05
0.0042863
1.3543e-05
0.00427384
1.09741e-05
0.0042629
8.8477e-06
0.00425335
7.08859e-06
0.00424488
5.66296e-06
0.00423704
4.57701e-06
0.00422953
3.76966e-06
0.00422233
3.1649e-06
0.00421555
2.66796e-06
0.00420929
2.348e-06
0.00420345
2.12739e-06
0.00419783
2.1743e-06
0.00419228
2.22012e-06
0.00418691
2.54897e-06
0.00418204
2.59836e-06
0.00417801
3.13341e-06
0.00417476
3.27994e-06
0.00417214
4.54068e-06
0.00416945
5.40759e-06
0.00416661
7.62123e-06
0.00416306
9.71211e-06
1.21614e-05
0.00415941
0.00485368
1.07395e-05
0.00486251
2.95326e-05
0.00487916
4.86369e-05
0.00490269
6.55949e-05
0.00493222
8.09583e-05
0.00496655
9.37438e-05
0.00500449
0.000104193
0.00504489
0.000112168
0.00508666
0.000117907
0.00512876
0.000121501
0.00517029
0.000123195
0.00521051
0.000123309
0.00524883
0.000122046
0.00528482
0.000119695
0.00531818
0.000116469
0.00534871
0.000112565
0.0053763
0.000108142
0.00540092
0.000103336
0.00542254
9.82602e-05
0.00544125
9.30269e-05
0.00545717
8.77511e-05
0.00547048
8.25597e-05
0.00548138
7.75797e-05
0.00549017
7.29011e-05
0.00549714
6.85556e-05
0.0055026
6.45098e-05
0.00550686
6.06775e-05
0.00551017
5.69391e-05
0.00551272
5.31569e-05
0.00551465
4.92095e-05
0.0055161
4.50375e-05
0.00551718
4.06648e-05
0.005518
3.61681e-05
0.00551864
3.16392e-05
0.00551922
2.71743e-05
0.00551984
2.28867e-05
0.00552053
1.89021e-05
0.00552126
1.53321e-05
0.00552201
1.22223e-05
0.00552285
9.55305e-06
0.00552389
7.27715e-06
0.00552512
5.3753e-06
0.0055262
3.83774e-06
0.00552667
2.67167e-06
0.00552619
1.81181e-06
0.0055249
1.19554e-06
0.0055232
7.34127e-07
0.00552137
4.97613e-07
0.00551916
4.07091e-07
0.00551597
5.99617e-07
0.00551134
8.25116e-07
0.0055055
1.31593e-06
0.00549913
1.67111e-06
0.00549304
2.54951e-06
0.00548717
3.38367e-06
0.00548121
5.23214e-06
0.00547416
7.1387e-06
0.00546629
9.99239e-06
0.00545801
1.2945e-05
1.58819e-05
0.00545066
0.00485218
6.88045e-06
0.00485862
1.94401e-05
0.00487168
3.20552e-05
0.00489079
4.31337e-05
0.00491548
5.31192e-05
0.0049449
6.14081e-05
0.00497821
6.81876e-05
0.00501455
7.33684e-05
0.00505307
7.71136e-05
0.00509295
7.95021e-05
0.00513345
8.06883e-05
0.00517395
8.08562e-05
0.00521389
8.01416e-05
0.00525283
7.87194e-05
0.0052904
7.67186e-05
0.00532632
7.4265e-05
0.00536037
7.14645e-05
0.00539238
6.84099e-05
0.00542224
6.51769e-05
0.00544989
6.18403e-05
0.00547532
5.84698e-05
0.0054986
5.51393e-05
0.00551985
5.19225e-05
0.00553929
4.88713e-05
0.00555712
4.60052e-05
0.00557358
4.3306e-05
0.00558884
4.07252e-05
0.00560304
3.81974e-05
0.00561623
3.56495e-05
0.00562843
3.3017e-05
0.0056396
3.02627e-05
0.00564971
2.73888e-05
0.00565875
2.44306e-05
0.00566674
2.14474e-05
0.00567377
1.85116e-05
0.00567991
1.56994e-05
0.00568517
1.30758e-05
0.00568947
1.06939e-05
0.00569273
8.58382e-06
0.00569513
6.76032e-06
0.00569698
5.21706e-06
0.00569852
3.94828e-06
0.00569951
2.92369e-06
0.00569938
2.13648e-06
0.00569772
1.53869e-06
0.00569471
1.12799e-06
0.00569106
8.52396e-07
0.00568735
7.8211e-07
0.00568342
8.18777e-07
0.00567848
1.08249e-06
0.00567177
1.37174e-06
0.0056634
1.91657e-06
0.00565431
2.4116e-06
0.00564581
3.34048e-06
0.00563837
4.28085e-06
0.00563186
5.902e-06
0.00562535
7.62401e-06
0.00561882
9.93226e-06
0.0056128
1.2455e-05
1.49539e-05
0.00560864
0.00485181
3.37466e-06
0.00485812
9.48097e-06
0.00487108
1.55765e-05
0.00488984
2.1022e-05
0.00491382
2.59878e-05
0.00494215
3.01632e-05
0.00497402
3.36205e-05
0.00500864
3.629e-05
0.00504524
3.82401e-05
0.00508312
3.95014e-05
0.00512166
4.01477e-05
0.00516029
4.02694e-05
0.00519853
3.99376e-05
0.00523597
3.92423e-05
0.00527226
3.82519e-05
0.00530711
3.70303e-05
0.0053403
3.56296e-05
0.00537168
3.40983e-05
0.00540114
3.24786e-05
0.00542861
3.08104e-05
0.00545407
2.91292e-05
0.00547757
2.74714e-05
0.00549919
2.58722e-05
0.00551909
2.43563e-05
0.00553743
2.29319e-05
0.0055544
2.1589e-05
0.00557012
2.03038e-05
0.00558473
1.90451e-05
0.00559831
1.77787e-05
0.0056109
1.64732e-05
0.00562251
1.51095e-05
0.0056331
1.36901e-05
0.00564264
1.22367e-05
0.00565119
1.07813e-05
0.00565885
9.35283e-06
0.0056657
7.97887e-06
0.00567164
6.68809e-06
0.00567649
5.5203e-06
0.00568018
4.50467e-06
0.00568295
3.6511e-06
0.0056852
2.93322e-06
0.00568708
2.33294e-06
0.00568823
1.83317e-06
0.00568799
1.46924e-06
0.00568601
1.23713e-06
0.00568269
1.15496e-06
0.00567884
1.14051e-06
0.005675
1.21985e-06
0.00567085
1.30333e-06
0.0056655
1.54037e-06
0.0056583
1.82503e-06
0.00564959
2.36884e-06
0.00564055
2.91643e-06
0.00563252
3.74627e-06
0.00562587
4.53301e-06
0.00562027
5.69584e-06
0.00561479
6.9674e-06
0.0056094
8.6352e-06
0.00560487
1.05844e-05
1.25437e-05
0.00560263
0.00485167
3.06952e-11
0.0048575
9.45983e-11
0.00486955
1.64362e-10
0.00488722
2.42753e-10
0.00491006
3.31679e-10
0.0049373
4.36313e-10
0.00496824
5.62922e-10
0.00500206
7.13818e-10
0.00503803
8.92878e-10
0.00507542
1.1035e-09
0.00511356
1.35601e-09
0.00515187
1.66211e-09
0.00518984
2.03923e-09
0.00522704
2.50069e-09
0.00526311
3.06469e-09
0.00529774
3.74515e-09
0.00533072
4.56544e-09
0.00536187
5.55793e-09
0.0053911
6.75952e-09
0.00541833
8.21437e-09
0.00544356
9.97841e-09
0.00546683
1.21091e-08
0.00548825
1.46632e-08
0.00550796
1.77341e-08
0.00552614
2.13806e-08
0.00554294
2.57584e-08
0.00555852
3.09667e-08
0.00557299
3.72088e-08
0.00558645
4.46159e-08
0.00559895
5.35278e-08
0.00561048
6.3969e-08
0.00562102
7.65417e-08
0.00563054
9.13845e-08
0.00563916
1.09255e-07
0.00564697
1.29934e-07
0.00565399
1.55464e-07
0.00566009
1.84922e-07
0.00566506
2.20848e-07
0.00566891
2.6156e-07
0.00567195
3.12151e-07
0.00567456
3.69182e-07
0.00567677
4.42861e-07
0.00567807
5.23591e-07
0.00567782
6.29393e-07
0.00567585
7.4667e-07
0.00567272
9.0018e-07
0.00566925
1.06051e-06
0.00566579
1.28698e-06
0.00566181
1.51275e-06
0.00565636
1.83762e-06
0.00564897
2.15002e-06
0.00564027
2.60663e-06
0.00563158
3.04066e-06
0.00562415
3.6713e-06
0.00561812
4.28802e-06
0.0056129
5.12783e-06
0.00560764
6.01002e-06
0.00560246
7.06004e-06
0.00559846
8.27797e-06
9.48795e-06
0.00559718
0.00485167
-3.3746e-06
0.0048575
-9.48079e-06
0.00486955
-1.55762e-05
0.00488722
-2.10216e-05
0.00491006
-2.59872e-05
0.0049373
-3.01624e-05
0.00496824
-3.36194e-05
0.00500206
-3.62886e-05
0.00503803
-3.82384e-05
0.00507542
-3.94993e-05
0.00511356
-4.01451e-05
0.00515187
-4.02662e-05
0.00518984
-3.99336e-05
0.00522704
-3.92374e-05
0.00526311
-3.82459e-05
0.00529774
-3.70229e-05
0.00533072
-3.56207e-05
0.00536188
-3.40874e-05
0.0053911
-3.24654e-05
0.00541833
-3.07942e-05
0.00544356
-2.91096e-05
0.00546683
-2.74476e-05
0.00548825
-2.58433e-05
0.00550796
-2.43214e-05
0.00552614
-2.28898e-05
0.00554295
-2.15383e-05
0.00555852
-2.02428e-05
0.00557299
-1.89719e-05
0.00558645
-1.76909e-05
0.00559896
-1.63678e-05
0.0056105
-1.49835e-05
0.00562103
-1.35393e-05
0.00563056
-1.20567e-05
0.00563918
-1.05659e-05
0.00564699
-9.09671e-06
0.00565402
-7.67241e-06
0.00566012
-6.32339e-06
0.0056651
-5.08436e-06
0.00566895
-3.988e-06
0.005672
-3.03476e-06
0.00567463
-2.20466e-06
0.00567684
-1.45974e-06
0.00567816
-8.01493e-07
0.00567793
-2.30179e-07
0.00567599
2.2705e-07
0.00567288
6.17844e-07
0.00566944
9.53966e-07
0.00566602
1.32483e-06
0.00566207
1.68731e-06
0.00565666
2.09343e-06
0.00564932
2.42587e-06
0.00564067
2.79094e-06
0.00563205
3.09694e-06
0.00562469
3.52283e-06
0.00561877
3.9404e-06
0.00561365
4.45742e-06
0.00560851
4.92861e-06
0.00560343
5.38683e-06
0.00559951
5.89616e-06
6.40129e-06
0.00559825
0.00485181
-6.8804e-06
0.00485812
-1.94399e-05
0.00487108
-3.20549e-05
0.00488984
-4.31333e-05
0.00491382
-5.31186e-05
0.00494215
-6.14073e-05
0.00497403
-6.81866e-05
0.00500864
-7.33671e-05
0.00504524
-7.7112e-05
0.00508312
-7.95001e-05
0.00512166
-8.06859e-05
0.00516029
-8.08531e-05
0.00519853
-8.01379e-05
0.00523597
-7.87148e-05
0.00527226
-7.67129e-05
0.00530711
-7.42581e-05
0.0053403
-7.14561e-05
0.00537168
-6.83996e-05
0.00540114
-6.51643e-05
0.00542861
-6.1825e-05
0.00545408
-5.84512e-05
0.00547757
-5.51167e-05
0.0054992
-5.1895e-05
0.0055191
-4.88381e-05
0.00553745
-4.59652e-05
0.00555441
-4.32577e-05
0.00557014
-4.06671e-05
0.00558475
-3.81275e-05
0.00559833
-3.55657e-05
0.00561093
-3.29163e-05
0.00562255
-3.01425e-05
0.00563314
-2.7245e-05
0.00564269
-2.42583e-05
0.00565125
-2.12416e-05
0.00565892
-1.82671e-05
0.00566578
-1.54064e-05
0.00567174
-1.27262e-05
0.00567661
-1.02765e-05
0.00568033
-8.08981e-06
0.00568312
-6.17281e-06
0.0056854
-4.52236e-06
0.00568732
-3.11486e-06
0.00568852
-1.94123e-06
0.00568834
-9.5504e-07
0.00568642
-1.31306e-07
0.00568318
5.59965e-07
0.00567944
1.1327e-06
0.00567573
1.63366e-06
0.00567173
2.0246e-06
0.00566655
2.38301e-06
0.00565954
2.67804e-06
0.00565107
3.01762e-06
0.0056423
3.32088e-06
0.00563455
3.6454e-06
0.00562826
3.83761e-06
0.00562298
3.93033e-06
0.00561791
3.86888e-06
0.00561286
3.74491e-06
0.00560864
3.70604e-06
3.75451e-06
0.00560664
0.00485218
-1.07395e-05
0.00485862
-2.95324e-05
0.00487168
-4.86367e-05
0.00489079
-6.55945e-05
0.00491548
-8.09578e-05
0.0049449
-9.37431e-05
0.00497821
-0.000104192
0.00501455
-0.000112167
0.00505307
-0.000117905
0.00509295
-0.0001215
0.00513345
-0.000123193
0.00517395
-0.000123307
0.00521389
-0.000122043
0.00525283
-0.000119691
0.0052904
-0.000116464
0.00532633
-0.000112558
0.00536038
-0.000108134
0.00539239
-0.000103327
0.00542225
-9.82488e-05
0.0054499
-9.3013e-05
0.00547533
-8.77341e-05
0.00549861
-8.25391e-05
0.00551987
-7.75547e-05
0.0055393
-7.28707e-05
0.00555714
-6.8519e-05
0.0055736
-6.44656e-05
0.00558887
-6.06244e-05
0.00560307
-5.68752e-05
0.00561628
-5.30803e-05
0.00562848
-4.91175e-05
0.00563966
-4.49276e-05
0.00564978
-4.05335e-05
0.00565884
-3.60102e-05
0.00566685
-3.14505e-05
0.0056739
-2.69507e-05
0.00568006
-2.26185e-05
0.00568535
-1.85812e-05
0.00568968
-1.49472e-05
0.00569298
-1.17649e-05
0.00569542
-9.0118e-06
0.00569734
-6.63857e-06
0.00569894
-4.61118e-06
0.00570001
-2.93416e-06
0.00569998
-1.591e-06
0.00569845
-5.3688e-07
0.0056956
3.32372e-07
0.00569214
1.06468e-06
0.00568865
1.6988e-06
0.00568497
2.19152e-06
0.00568031
2.58261e-06
0.00567394
2.88619e-06
0.00566595
3.23343e-06
0.00565732
3.59541e-06
0.0056493
3.96395e-06
0.00564245
4.1389e-06
0.00563648
4.04819e-06
0.00563068
3.642e-06
0.00562477
3.0721e-06
0.00561935
2.60609e-06
2.38135e-06
0.00561561
0.00485368
-1.60481e-05
0.00486251
-4.2013e-05
0.00487916
-6.88068e-05
0.00490269
-9.24772e-05
0.00493222
-0.000113639
0.00496655
-0.000130998
0.00500449
-0.000144825
0.00504489
-0.000155035
0.00508666
-0.000161953
0.00512877
-0.000165722
0.00517029
-0.000166726
0.00521051
-0.000165489
0.00524884
-0.000162329
0.00528483
-0.000157716
0.00531818
-0.000151993
0.00534871
-0.000145463
0.00537631
-0.000138353
0.00540092
-0.000130847
0.00542255
-0.000123093
0.00544127
-0.000115255
0.00545719
-0.000107492
0.0054705
-9.99619e-05
0.00548141
-9.28257e-05
0.0054902
-8.62031e-05
0.00549718
-8.01367e-05
0.00550265
-7.45928e-05
0.00550692
-6.94674e-05
0.00551024
-6.45986e-05
0.0055128
-5.97995e-05
0.00551476
-5.49086e-05
0.00551623
-4.98488e-05
0.00551734
-4.46432e-05
0.00551819
-3.93784e-05
0.00551887
-3.41696e-05
0.0055195
-2.91353e-05
0.00552017
-2.43993e-05
0.00552093
-2.00989e-05
0.00552174
-1.63452e-05
0.00552258
-1.31785e-05
0.00552353
-1.05467e-05
0.00552471
-8.34263e-06
0.00552609
-6.48268e-06
0.00552737
-4.95097e-06
0.00552807
-3.72855e-06
0.00552786
-2.7604e-06
0.00552689
-1.95237e-06
0.00552557
-1.24732e-06
0.00552419
-6.08524e-07
0.00552253
-7.5727e-08
0.00552
3.53943e-07
0.00551617
6.89542e-07
0.00551127
1.05987e-06
0.00550606
1.50482e-06
0.00550126
2.06217e-06
0.00549703
2.58447e-06
0.00549284
2.96186e-06
0.00548804
3.10367e-06
0.00548249
3.08832e-06
0.00547688
3.10179e-06
3.24681e-06
0.00547229
0.00485573
-2.33871e-05
0.00486956
-5.94929e-05
0.0048936
-9.63654e-05
0.00492392
-0.000126155
0.00495635
-0.000149214
0.00498694
-0.000164508
0.00501293
-0.000173495
0.00503264
-0.000177215
0.00504525
-0.000176835
0.00505043
-0.000173031
0.00504843
-0.00016675
0.00503987
-0.000158926
0.00502548
-0.000149959
0.00500604
-0.000140421
0.0049824
-0.000130667
0.00495527
-0.000120891
0.00492529
-0.000111201
0.00489304
-0.000101733
0.0048591
-9.25827e-05
0.00482395
-8.38003e-05
0.004788
-7.54565e-05
0.00475161
-6.76587e-05
0.00471515
-6.05301e-05
0.00467894
-5.41558e-05
0.00464325
-4.85378e-05
0.00460831
-4.36009e-05
0.00457433
-3.92102e-05
0.00454145
-3.51822e-05
0.00450982
-3.13163e-05
0.0044796
-2.74508e-05
0.00445092
-2.35331e-05
0.00442391
-1.96224e-05
0.00439862
-1.58158e-05
0.00437513
-1.22273e-05
0.00435359
-8.98746e-06
0.00433412
-6.21712e-06
0.00431671
-4.00378e-06
0.00430118
-2.37544e-06
0.00428733
-1.29978e-06
0.00427506
-6.88986e-07
0.00426437
-4.06412e-07
0.00425511
-3.12133e-07
0.00424698
-3.14457e-07
0.00423955
-3.56884e-07
0.00423254
-3.92758e-07
0.00422592
-3.63805e-07
0.00421983
-2.72468e-07
0.00421439
-1.36467e-07
0.00420952
1.16469e-08
0.00420505
1.54623e-07
0.00420088
2.92282e-07
0.00419717
4.81534e-07
0.00419427
7.12679e-07
0.00419259
9.90179e-07
0.00419221
1.24389e-06
0.00419294
1.42858e-06
0.00419439
1.5006e-06
0.00419623
1.51679e-06
0.00419832
1.57787e-06
1.68252e-06
0.00420076
0.00482512
0.00476198
0.00466209
0.00453258
0.00438022
0.00421276
0.00403653
0.00385675
0.00367747
0.00350206
0.00333292
0.0031715
0.00301886
0.00287554
0.0027417
0.0026174
0.00250262
0.00239725
0.00230112
0.00221399
0.0021355
0.00206509
0.00200201
0.00194538
0.0018943
0.00184796
0.00180581
0.00176756
0.00173315
0.00170269
0.00167625
0.00165383
0.00163528
0.00162034
0.00160861
0.00159961
0.00159275
0.00158744
0.00158312
0.00157936
0.00157584
0.0015724
0.00156899
0.00156558
0.00156222
0.00155898
0.00155594
0.00155312
0.00155054
0.0015482
0.00154608
0.00154425
0.0015427
0.00154147
0.0015405
0.00153967
0.00153887
0.00153801
0.00153713
0.00153625
0.00147108
1.26429e-05
0.0014573
1.46246e-05
0.00144294
1.73441e-05
0.00142884
1.87752e-05
0.00141447
1.97861e-05
0.00139968
1.97281e-05
0.00138397
1.92794e-05
0.00136742
1.86107e-05
0.00135033
1.82261e-05
0.00133331
1.80992e-05
0.00131688
1.81785e-05
0.00130141
1.82319e-05
0.00128698
1.8214e-05
0.00127352
1.81598e-05
0.00126089
1.81569e-05
0.00124911
1.81649e-05
0.00123827
1.80504e-05
0.00122848
1.76406e-05
0.00121959
1.68961e-05
0.00121122
1.59539e-05
0.00120281
1.50248e-05
0.0011939
1.43119e-05
0.00118427
1.39277e-05
0.00117392
1.38597e-05
0.00116306
1.40126e-05
0.00115188
1.42822e-05
0.00114056
1.46062e-05
0.00112932
1.49322e-05
0.00111848
1.51835e-05
0.00110835
1.5283e-05
0.00109913
1.51715e-05
0.0010908
1.48387e-05
0.00108314
1.43626e-05
0.00107584
1.39304e-05
0.00106867
1.37072e-05
0.00106169
1.37062e-05
0.00105523
1.37841e-05
0.00104965
1.3758e-05
0.00104506
1.34947e-05
0.00104125
1.29646e-05
0.00103763
1.23029e-05
0.00103343
1.17351e-05
0.0010279
1.15397e-05
0.00102064
1.17668e-05
0.00101161
1.2476e-05
0.0010013
1.33829e-05
0.000990306
1.44506e-05
0.000979593
1.51644e-05
0.000969525
1.58052e-05
0.000960827
1.57298e-05
0.000953132
1.57908e-05
0.000946875
1.50241e-05
0.000940819
1.52418e-05
0.000935609
1.43915e-05
0.000928947
1.58828e-05
0.000922762
1.521e-05
0.000913141
1.86752e-05
0.000903624
1.86352e-05
0.000889288
2.35446e-05
2.88374e-05
0.00415654
1.66609e-05
0.00415322
1.93008e-05
0.00414937
2.24604e-05
0.00414429
2.46222e-05
0.00413716
2.67485e-05
0.00412723
2.81935e-05
0.00411421
2.94355e-05
0.00409839
3.03067e-05
0.00408058
3.10523e-05
0.00406186
3.1534e-05
0.00404322
3.17744e-05
0.00402537
3.17102e-05
0.00400863
3.14695e-05
0.00399304
3.11935e-05
0.00397845
3.10312e-05
0.00396458
3.09996e-05
0.00395115
3.10107e-05
0.0039379
3.09027e-05
0.00392467
3.05759e-05
0.00391142
3.00374e-05
0.00389819
2.94061e-05
0.00388503
2.88443e-05
0.00387198
2.84629e-05
0.0038591
2.82896e-05
0.00384636
2.83015e-05
0.00383365
2.8478e-05
0.00382086
2.88007e-05
0.00380788
2.92102e-05
0.00379471
2.96002e-05
0.00378133
2.98736e-05
0.00376776
2.9979e-05
0.00375399
2.99165e-05
0.00374008
2.97231e-05
0.00372619
2.94631e-05
0.00371252
2.91946e-05
0.00369915
2.8986e-05
0.00368603
2.8853e-05
0.00367311
2.87359e-05
0.00366046
2.84856e-05
0.0036482
2.80206e-05
0.00363627
2.74445e-05
0.00362444
2.70293e-05
0.00361234
2.71117e-05
0.00359984
2.77062e-05
0.00358704
2.87658e-05
0.00357426
2.98189e-05
0.00356158
3.09192e-05
0.00354897
3.15438e-05
0.0035359
3.24141e-05
0.00352234
3.25856e-05
0.00350792
3.35497e-05
0.00349355
3.31288e-05
0.00347877
3.45623e-05
0.00346504
3.33556e-05
0.00345022
3.65721e-05
0.00343626
3.50122e-05
0.00341875
4.18408e-05
0.00340176
4.11696e-05
0.0033801
5.03871e-05
5.68642e-05
0.00544614
1.96791e-05
0.00544385
2.21804e-05
0.00544343
2.49015e-05
0.00544395
2.67378e-05
0.00544505
2.84509e-05
0.00544669
2.95398e-05
0.00544916
3.03835e-05
0.00545255
3.08371e-05
0.00545655
3.11082e-05
0.00546038
3.1136e-05
0.00546298
3.10259e-05
0.00546337
3.08059e-05
0.00546101
3.06096e-05
0.00545592
3.05364e-05
0.00544866
3.06631e-05
0.00544014
3.09428e-05
0.00543131
3.1256e-05
0.00542294
3.1437e-05
0.00541551
3.13774e-05
0.00540921
3.10774e-05
0.005404
3.06346e-05
0.00539973
3.01674e-05
0.00539621
2.97594e-05
0.00539328
2.94558e-05
0.00539079
2.92831e-05
0.0053886
2.92655e-05
0.0053866
2.94068e-05
0.00538473
2.96659e-05
0.00538292
2.99602e-05
0.0053811
3.02271e-05
0.00537915
3.04409e-05
0.00537698
3.05812e-05
0.0053746
3.06119e-05
0.00537207
3.05242e-05
0.00536951
3.03549e-05
0.00536692
3.02245e-05
0.00536425
3.02071e-05
0.00536142
3.02505e-05
0.00535841
3.02055e-05
0.00535525
2.9971e-05
0.00535188
2.96917e-05
0.00534823
2.96199e-05
0.00534421
3.00805e-05
0.00533991
3.09317e-05
0.00533557
3.20765e-05
0.00533157
3.29205e-05
0.00532804
3.37567e-05
0.00532493
3.41285e-05
0.00532175
3.51666e-05
0.00531821
3.57109e-05
0.0053139
3.75185e-05
0.00530923
3.76458e-05
0.00530412
3.9857e-05
0.00529939
3.86284e-05
0.00529447
4.23023e-05
0.00528988
4.0543e-05
0.00528477
4.79457e-05
0.00527912
4.78916e-05
0.00527312
5.75922e-05
6.50934e-05
0.00560782
1.80275e-05
0.00561013
2.03029e-05
0.00561498
2.26349e-05
0.00562111
2.42075e-05
0.0056278
2.55182e-05
0.00563495
2.62236e-05
0.00564304
2.66576e-05
0.00565243
2.67773e-05
0.00566292
2.68062e-05
0.0056735
2.67494e-05
0.00568264
2.6709e-05
0.00568887
2.66925e-05
0.00569127
2.67528e-05
0.00568976
2.6897e-05
0.00568507
2.71281e-05
0.00567844
2.73895e-05
0.00567125
2.7604e-05
0.00566465
2.76847e-05
0.0056594
2.75841e-05
0.00565582
2.73129e-05
0.00565391
2.69377e-05
0.00565342
2.65362e-05
0.00565397
2.61691e-05
0.00565521
2.58781e-05
0.00565683
2.56922e-05
0.00565863
2.56321e-05
0.00566049
2.56984e-05
0.00566238
2.58647e-05
0.00566427
2.60785e-05
0.00566614
2.62915e-05
0.00566801
2.64717e-05
0.00566986
2.65948e-05
0.00567169
2.66403e-05
0.00567347
2.66098e-05
0.00567519
2.65241e-05
0.00567688
2.64407e-05
0.00567861
2.64037e-05
0.00568041
2.63819e-05
0.00568223
2.6338e-05
0.00568395
2.62227e-05
0.00568548
2.61659e-05
0.00568687
2.62301e-05
0.0056883
2.66445e-05
0.00568999
2.72193e-05
0.00569195
2.80905e-05
0.00569412
2.87677e-05
0.00569624
2.97072e-05
0.00569822
3.025e-05
0.00570009
3.14395e-05
0.00570203
3.19293e-05
0.00570424
3.35704e-05
0.00570662
3.36454e-05
0.00570915
3.58715e-05
0.00571115
3.53201e-05
0.00571315
3.903e-05
0.00571393
3.85176e-05
0.00571605
4.46274e-05
0.00571698
4.57548e-05
0.00572107
5.25244e-05
5.9476e-05
0.00560408
1.483e-05
0.00560904
1.65981e-05
0.00561664
1.83715e-05
0.00562536
1.96262e-05
0.00563423
2.07405e-05
0.00564303
2.14861e-05
0.00565219
2.2089e-05
0.00566211
2.24727e-05
0.00567263
2.27567e-05
0.00568277
2.29147e-05
0.00569113
2.30148e-05
0.00569637
2.30692e-05
0.00569774
2.31315e-05
0.00569533
2.322e-05
0.00568996
2.33489e-05
0.00568292
2.34891e-05
0.00567557
2.35979e-05
0.00566905
2.36221e-05
0.00566409
2.35313e-05
0.00566095
2.33282e-05
0.00565955
2.30502e-05
0.00565957
2.27448e-05
0.00566058
2.24544e-05
0.00566217
2.22116e-05
0.00566404
2.20389e-05
0.00566598
2.19503e-05
0.00566794
2.19445e-05
0.00566989
2.20027e-05
0.00567185
2.2093e-05
0.00567386
2.21851e-05
0.00567593
2.22595e-05
0.00567805
2.23009e-05
0.00568022
2.22975e-05
0.00568242
2.22495e-05
0.00568462
2.21776e-05
0.00568682
2.21124e-05
0.00568902
2.20907e-05
0.00569123
2.20854e-05
0.00569339
2.21006e-05
0.00569547
2.20878e-05
0.00569743
2.2168e-05
0.0056993
2.2327e-05
0.00570114
2.27718e-05
0.00570306
2.32826e-05
0.00570508
2.40647e-05
0.00570724
2.46392e-05
0.0057095
2.551e-05
0.00571185
2.59833e-05
0.0057143
2.70949e-05
0.00571683
2.75445e-05
0.00571954
2.90853e-05
0.00572217
2.93014e-05
0.00572505
3.13563e-05
0.00572752
3.12541e-05
0.00573062
3.43293e-05
0.00573301
3.45472e-05
0.00573704
3.90467e-05
0.00574035
4.09227e-05
0.00574609
4.5375e-05
5.15004e-05
0.00559974
1.09728e-05
0.00560584
1.22288e-05
0.00561433
1.35816e-05
0.00562367
1.46503e-05
0.00563298
1.56521e-05
0.00564224
1.64007e-05
0.00565199
1.70557e-05
0.00566262
1.75753e-05
0.00567382
1.80654e-05
0.00568445
1.8512e-05
0.00569294
1.89457e-05
0.00569789
1.93353e-05
0.00569862
1.96725e-05
0.00569532
1.99288e-05
0.00568899
2.00956e-05
0.00568107
2.01588e-05
0.00567304
2.01147e-05
0.00566611
1.99634e-05
0.00566101
1.97202e-05
0.00565799
1.94111e-05
0.0056569
1.90759e-05
0.00565732
1.87526e-05
0.00565877
1.84704e-05
0.00566079
1.82486e-05
0.00566302
1.80962e-05
0.00566526
1.80169e-05
0.00566741
1.80027e-05
0.00566946
1.80358e-05
0.00567143
1.80946e-05
0.00567335
1.81558e-05
0.00567525
1.82023e-05
0.00567716
1.82203e-05
0.00567908
1.82044e-05
0.00568101
1.81579e-05
0.00568295
1.80987e-05
0.0056849
1.80371e-05
0.00568688
1.80054e-05
0.0056889
1.79824e-05
0.00569094
1.8001e-05
0.00569296
1.80182e-05
0.00569496
1.8142e-05
0.00569696
1.83059e-05
0.00569904
1.86917e-05
0.00570126
1.90845e-05
0.00570362
1.97394e-05
0.00570609
2.02328e-05
0.00570863
2.1063e-05
0.00571119
2.1546e-05
0.00571384
2.2595e-05
0.00571653
2.30342e-05
0.00571945
2.43976e-05
0.0057223
2.47227e-05
0.00572541
2.65607e-05
0.00572811
2.68795e-05
0.00573127
2.94984e-05
0.00573389
3.0284e-05
0.00573762
3.36941e-05
0.00574112
3.58279e-05
0.00574612
3.88435e-05
4.39129e-05
0.00560076
7.17385e-06
0.00560676
7.9551e-06
0.0056151
8.9501e-06
0.00562426
9.85536e-06
0.00563339
1.0752e-05
0.00564249
1.14693e-05
0.00565214
1.21238e-05
0.00566273
1.27177e-05
0.00567395
1.33594e-05
0.00568465
1.40491e-05
0.00569323
1.47859e-05
0.00569829
1.54966e-05
0.00569911
1.61142e-05
0.00569588
1.65646e-05
0.00568958
1.68125e-05
0.00568163
1.68512e-05
0.00567353
1.67064e-05
0.00566648
1.64194e-05
0.00566124
1.60443e-05
0.00565809
1.56315e-05
0.00565687
1.52307e-05
0.00565718
1.48782e-05
0.00565853
1.45937e-05
0.00566044
1.43842e-05
0.00566258
1.42447e-05
0.00566474
1.41682e-05
0.00566681
1.41393e-05
0.00566879
1.41373e-05
0.0056707
1.41469e-05
0.0056726
1.4151e-05
0.00567451
1.41385e-05
0.00567645
1.41005e-05
0.00567845
1.40359e-05
0.0056805
1.39517e-05
0.00568259
1.3869e-05
0.00568472
1.37937e-05
0.00568686
1.37593e-05
0.00568902
1.37468e-05
0.00569117
1.37924e-05
0.0056933
1.38508e-05
0.0056954
1.40167e-05
0.00569749
1.42109e-05
0.0056996
1.45946e-05
0.00570176
1.49653e-05
0.00570398
1.55682e-05
0.00570628
1.60199e-05
0.00570867
1.67774e-05
0.00571112
1.72225e-05
0.00571371
1.81664e-05
0.00571634
1.8595e-05
0.00571915
1.98008e-05
0.00572192
2.02023e-05
0.00572499
2.17667e-05
0.00572788
2.22714e-05
0.00573134
2.43358e-05
0.00573461
2.53361e-05
0.00573884
2.78129e-05
0.0057431
2.99413e-05
0.00574836
3.19751e-05
3.61778e-05
0.00560798
4.08348e-06
0.00561269
4.50334e-06
0.00561986
5.12767e-06
0.0056281
5.75993e-06
0.00563649
6.46604e-06
0.00564489
7.13715e-06
0.00565375
7.85918e-06
0.00566347
8.62174e-06
0.00567382
9.47902e-06
0.0056838
1.04015e-05
0.00569192
1.13418e-05
0.00569684
1.21993e-05
0.00569782
1.28852e-05
0.00569496
1.3322e-05
0.00568911
1.34907e-05
0.0056816
1.3411e-05
0.00567381
1.31321e-05
0.00566693
1.27195e-05
0.00566173
1.22418e-05
0.00565852
1.17518e-05
0.00565719
1.13016e-05
0.00565739
1.09251e-05
0.00565866
1.06349e-05
0.00566055
1.04293e-05
0.00566271
1.02954e-05
0.00566491
1.02246e-05
0.00566704
1.01955e-05
0.00566908
1.01829e-05
0.00567102
1.01784e-05
0.0056729
1.01673e-05
0.00567475
1.01369e-05
0.00567661
1.00748e-05
0.0056785
9.98033e-06
0.00568043
9.87011e-06
0.0056824
9.76568e-06
0.00568441
9.6696e-06
0.00568645
9.61692e-06
0.00568853
9.59026e-06
0.00569065
9.62263e-06
0.00569279
9.67753e-06
0.00569495
9.83347e-06
0.00569715
1.001e-05
0.00569943
1.03446e-05
0.00570177
1.06626e-05
0.00570422
1.11855e-05
0.00570673
1.15945e-05
0.00570933
1.22845e-05
0.00571198
1.27122e-05
0.00571474
1.35607e-05
0.00571754
1.39745e-05
0.00572054
1.50145e-05
0.00572353
1.54434e-05
0.00572678
1.67673e-05
0.00572993
1.73876e-05
0.00573349
1.90606e-05
0.00573697
2.01665e-05
0.00574108
2.20316e-05
0.00574537
2.39969e-05
0.00575028
2.5433e-05
2.87986e-05
0.00561463
2.57014e-06
0.00561656
2.97988e-06
0.00562074
3.54643e-06
0.00562611
4.01105e-06
0.00563203
4.34071e-06
0.00563854
4.47313e-06
0.00564621
4.5699e-06
0.00565545
4.75632e-06
0.00566601
5.17454e-06
0.00567683
5.86234e-06
0.00568636
6.78068e-06
0.00569302
7.80133e-06
0.00569581
8.76791e-06
0.00569456
9.51093e-06
0.00568994
9.92964e-06
0.00568316
1.00073e-05
0.00567561
9.78564e-06
0.00566854
9.3504e-06
0.00566284
8.80217e-06
0.00565895
8.21871e-06
0.0056569
7.67451e-06
0.00565642
7.21853e-06
0.00565711
6.86978e-06
0.00565855
6.62502e-06
0.00566038
6.46501e-06
0.00566235
6.37906e-06
0.00566433
6.33666e-06
0.00566627
6.30356e-06
0.00566815
6.27174e-06
0.00567
6.22576e-06
0.00567185
6.15339e-06
0.00567373
6.04152e-06
0.00567567
5.88813e-06
0.00567767
5.7215e-06
0.00567974
5.56844e-06
0.00568187
5.43281e-06
0.00568404
5.35547e-06
0.00568623
5.32817e-06
0.00568843
5.36632e-06
0.00569064
5.43483e-06
0.00569286
5.59479e-06
0.0056951
5.77748e-06
0.00569738
6.08944e-06
0.00569969
6.39682e-06
0.00570207
6.87867e-06
0.00570448
7.26975e-06
0.00570698
7.88985e-06
0.00570955
8.28334e-06
0.00571224
9.0224e-06
0.005715
9.38833e-06
0.00571796
1.02572e-05
0.00572099
1.06362e-05
0.00572429
1.17007e-05
0.00572765
1.22882e-05
0.00573144
1.3554e-05
0.0057353
1.46068e-05
0.00573976
1.58877e-05
0.00574447
1.76313e-05
0.00574975
1.85148e-05
2.11873e-05
0.00546964
3.63701e-06
0.00546905
4.1033e-06
0.00547008
4.53145e-06
0.00547207
4.69095e-06
0.00547477
4.51571e-06
0.00547834
3.98645e-06
0.00548318
3.30464e-06
0.00548942
2.68764e-06
0.0054967
2.36249e-06
0.00550408
2.44479e-06
0.00551039
2.92361e-06
0.00551456
3.68289e-06
0.00551597
4.55184e-06
0.00551462
5.32739e-06
0.005511
5.88666e-06
0.00550598
6.16071e-06
0.00550057
6.12421e-06
0.00549563
5.84026e-06
0.00549175
5.39338e-06
0.00548918
4.85963e-06
0.00548791
4.32827e-06
0.0054877
3.86568e-06
0.00548827
3.50155e-06
0.00548933
3.23489e-06
0.00549063
3.05821e-06
0.00549202
2.96448e-06
0.00549341
2.92056e-06
0.00549475
2.89288e-06
0.00549604
2.86018e-06
0.00549732
2.80649e-06
0.00549859
2.72282e-06
0.00549988
2.58855e-06
0.00550119
2.41713e-06
0.00550252
2.24589e-06
0.00550388
2.08796e-06
0.00550525
1.94487e-06
0.00550666
1.86342e-06
0.00550808
1.83394e-06
0.00550953
1.85887e-06
0.00551101
1.93001e-06
0.0055125
2.09068e-06
0.00551402
2.26355e-06
0.0055156
2.53021e-06
0.00551726
2.79146e-06
0.00551903
3.17738e-06
0.00552091
3.47718e-06
0.00552294
3.96448e-06
0.0055251
4.26078e-06
0.00552745
4.82307e-06
0.00552994
5.06787e-06
0.00553269
5.7083e-06