/*--------------------------------*- C++ -*----------------------------------*\
  =========                 |
  \\      /  F ield         | OpenFOAM: The Open Source CFD Toolbox
   \\    /   O peration     | Website:  https://openfoam.org
    \\  /    A nd           | Version:  7
     \\/     M anipulation  |
\*---------------------------------------------------------------------------*/
FoamFile
{
    version     2.0;
    format      ascii;
    class       volScalarField;
    location    "0.035";
    object      pPrime2Mean;
}
// * * * * * * * * * * * * * * * * * * * * * * * * * * * * * * * * * * * * * //

dimensions      [2 -2 -4 0 0 0 0];

internalField   nonuniform List<scalar> 
1440
(
7.31217e+06
7.27669e+06
7.27913e+06
7.25005e+06
7.24141e+06
7.21894e+06
7.2049e+06
7.18548e+06
7.1693e+06
7.15058e+06
7.13245e+06
7.11266e+06
7.09246e+06
7.07093e+06
7.0486e+06
7.02513e+06
7.00073e+06
6.97532e+06
6.94908e+06
6.92202e+06
6.89426e+06
6.86588e+06
6.83692e+06
6.80743e+06
6.77743e+06
6.74692e+06
6.71591e+06
6.68444e+06
6.65249e+06
6.62005e+06
6.58714e+06
6.55378e+06
6.51995e+06
6.48561e+06
6.45078e+06
6.41546e+06
6.37964e+06
6.34331e+06
6.30642e+06
6.26899e+06
6.23101e+06
6.19253e+06
6.15354e+06
6.11402e+06
6.07399e+06
6.03348e+06
5.99249e+06
5.95104e+06
5.90913e+06
5.8668e+06
5.82407e+06
5.78091e+06
5.73736e+06
5.6934e+06
5.6491e+06
5.60433e+06
5.55925e+06
5.51363e+06
5.46743e+06
5.42059e+06
7.31329e+06
7.27812e+06
7.28086e+06
7.25145e+06
7.24239e+06
7.21951e+06
7.20516e+06
7.18549e+06
7.16916e+06
7.15036e+06
7.13225e+06
7.11253e+06
7.09246e+06
7.07112e+06
7.04906e+06
7.02589e+06
7.0018e+06
6.97668e+06
6.95065e+06
6.92369e+06
6.89591e+06
6.86739e+06
6.83819e+06
6.80838e+06
6.77804e+06
6.74719e+06
6.71589e+06
6.68417e+06
6.65205e+06
6.61952e+06
6.58657e+06
6.55322e+06
6.51945e+06
6.48521e+06
6.4505e+06
6.41531e+06
6.37963e+06
6.34343e+06
6.30669e+06
6.26938e+06
6.23152e+06
6.19311e+06
6.15418e+06
6.1147e+06
6.07467e+06
6.03413e+06
5.9931e+06
5.95159e+06
5.90961e+06
5.86721e+06
5.8244e+06
5.78117e+06
5.73754e+06
5.69355e+06
5.64918e+06
5.60444e+06
5.55931e+06
5.51379e+06
5.46782e+06
5.42137e+06
7.31363e+06
7.27857e+06
7.28149e+06
7.25202e+06
7.24283e+06
7.21976e+06
7.20523e+06
7.18541e+06
7.16894e+06
7.15004e+06
7.1319e+06
7.11218e+06
7.09215e+06
7.07092e+06
7.04898e+06
7.02598e+06
7.00207e+06
6.97713e+06
6.95124e+06
6.92439e+06
6.89667e+06
6.86814e+06
6.83888e+06
6.80896e+06
6.77847e+06
6.74746e+06
6.71599e+06
6.6841e+06
6.65183e+06
6.61918e+06
6.58616e+06
6.55275e+06
6.51894e+06
6.48472e+06
6.45005e+06
6.41492e+06
6.37932e+06
6.34321e+06
6.30657e+06
6.2694e+06
6.23167e+06
6.1934e+06
6.15457e+06
6.11518e+06
6.07523e+06
6.03475e+06
5.99374e+06
5.95223e+06
5.91024e+06
5.86779e+06
5.8249e+06
5.78159e+06
5.73788e+06
5.6938e+06
5.64933e+06
5.60454e+06
5.55935e+06
5.51385e+06
5.46791e+06
5.42167e+06
7.31434e+06
7.27934e+06
7.28231e+06
7.25271e+06
7.24337e+06
7.22013e+06
7.20547e+06
7.18553e+06
7.16898e+06
7.15003e+06
7.13187e+06
7.11215e+06
7.09215e+06
7.07096e+06
7.04908e+06
7.02614e+06
7.00231e+06
6.97742e+06
6.95157e+06
6.92474e+06
6.89702e+06
6.86846e+06
6.83915e+06
6.80916e+06
6.77858e+06
6.74747e+06
6.71592e+06
6.68395e+06
6.65162e+06
6.61892e+06
6.58586e+06
6.55243e+06
6.51862e+06
6.4844e+06
6.44976e+06
6.41467e+06
6.37912e+06
6.34306e+06
6.30649e+06
6.26939e+06
6.23173e+06
6.19352e+06
6.15475e+06
6.11541e+06
6.07551e+06
6.03505e+06
5.99406e+06
5.95255e+06
5.91055e+06
5.86808e+06
5.82515e+06
5.7818e+06
5.73804e+06
5.69391e+06
5.64941e+06
5.60457e+06
5.55939e+06
5.51388e+06
5.46803e+06
5.42186e+06
7.31457e+06
7.27957e+06
7.28257e+06
7.25295e+06
7.24357e+06
7.22027e+06
7.20555e+06
7.18555e+06
7.16895e+06
7.14996e+06
7.13178e+06
7.11205e+06
7.09205e+06
7.07088e+06
7.04903e+06
7.02612e+06
7.00232e+06
6.97746e+06
6.95163e+06
6.92482e+06
6.89711e+06
6.86854e+06
6.83922e+06
6.80921e+06
6.7786e+06
6.74746e+06
6.71587e+06
6.68388e+06
6.65152e+06
6.6188e+06
6.58573e+06
6.5523e+06
6.5185e+06
6.48429e+06
6.44967e+06
6.41461e+06
6.37907e+06
6.34305e+06
6.30651e+06
6.26944e+06
6.23181e+06
6.19363e+06
6.15489e+06
6.11557e+06
6.07568e+06
6.03523e+06
5.99424e+06
5.95272e+06
5.91071e+06
5.86822e+06
5.82528e+06
5.7819e+06
5.73812e+06
5.69397e+06
5.64946e+06
5.60462e+06
5.55943e+06
5.51393e+06
5.4681e+06
5.42198e+06
7.3148e+06
7.27982e+06
7.28282e+06
7.25317e+06
7.24376e+06
7.22041e+06
7.20564e+06
7.18561e+06
7.16899e+06
7.14998e+06
7.13179e+06
7.11206e+06
7.09206e+06
7.0709e+06
7.04906e+06
7.02616e+06
7.00236e+06
6.97751e+06
6.95168e+06
6.92487e+06
6.89715e+06
6.86858e+06
6.83924e+06
6.80921e+06
6.77858e+06
6.74743e+06
6.71583e+06
6.68382e+06
6.65145e+06
6.61873e+06
6.58566e+06
6.55223e+06
6.51843e+06
6.48423e+06
6.44962e+06
6.41456e+06
6.37905e+06
6.34304e+06
6.30651e+06
6.26945e+06
6.23184e+06
6.19367e+06
6.15494e+06
6.11563e+06
6.07574e+06
6.0353e+06
5.99431e+06
5.95279e+06
5.91077e+06
5.86827e+06
5.82532e+06
5.78193e+06
5.73815e+06
5.69399e+06
5.64948e+06
5.60464e+06
5.55946e+06
5.51397e+06
5.46818e+06
5.42209e+06
7.3148e+06
7.27982e+06
7.28282e+06
7.25317e+06
7.24376e+06
7.22041e+06
7.20564e+06
7.18561e+06
7.16899e+06
7.14998e+06
7.13179e+06
7.11206e+06
7.09206e+06
7.0709e+06
7.04906e+06
7.02616e+06
7.00236e+06
6.97751e+06
6.95168e+06
6.92487e+06
6.89715e+06
6.86858e+06
6.83924e+06
6.80921e+06
6.77858e+06
6.74743e+06
6.71583e+06
6.68382e+06
6.65145e+06
6.61873e+06
6.58566e+06
6.55223e+06
6.51843e+06
6.48423e+06
6.44962e+06
6.41456e+06
6.37905e+06
6.34304e+06
6.30651e+06
6.26945e+06
6.23185e+06
6.19368e+06
6.15494e+06
6.11563e+06
6.07575e+06
6.03531e+06
5.99431e+06
5.9528e+06
5.91078e+06
5.86828e+06
5.82533e+06
5.78195e+06
5.73817e+06
5.69402e+06
5.64952e+06
5.60468e+06
5.55952e+06
5.51405e+06
5.46826e+06
5.42219e+06
7.31457e+06
7.27957e+06
7.28257e+06
7.25295e+06
7.24357e+06
7.22027e+06
7.20555e+06
7.18555e+06
7.16895e+06
7.14996e+06
7.13178e+06
7.11205e+06
7.09206e+06
7.07088e+06
7.04903e+06
7.02612e+06
7.00232e+06
6.97746e+06
6.95163e+06
6.92482e+06
6.89711e+06
6.86854e+06
6.83922e+06
6.80921e+06
6.7786e+06
6.74746e+06
6.71588e+06
6.68388e+06
6.65152e+06
6.61881e+06
6.58573e+06
6.5523e+06
6.5185e+06
6.48429e+06
6.44967e+06
6.41461e+06
6.37907e+06
6.34305e+06
6.30651e+06
6.26944e+06
6.23182e+06
6.19364e+06
6.1549e+06
6.11559e+06
6.0757e+06
6.03525e+06
5.99426e+06
5.95275e+06
5.91074e+06
5.86825e+06
5.82531e+06
5.78194e+06
5.73817e+06
5.69403e+06
5.64955e+06
5.60472e+06
5.55957e+06
5.51411e+06
5.46834e+06
5.42228e+06
7.31434e+06
7.27934e+06
7.28231e+06
7.25271e+06
7.24337e+06
7.22013e+06
7.20547e+06
7.18553e+06
7.16898e+06
7.15003e+06
7.13187e+06
7.11215e+06
7.09215e+06
7.07096e+06
7.04908e+06
7.02614e+06
7.00231e+06
6.97742e+06
6.95157e+06
6.92474e+06
6.89702e+06
6.86846e+06
6.83915e+06
6.80916e+06
6.77858e+06
6.74747e+06
6.71592e+06
6.68396e+06
6.65162e+06
6.61892e+06
6.58586e+06
6.55243e+06
6.51862e+06
6.4844e+06
6.44976e+06
6.41467e+06
6.37912e+06
6.34307e+06
6.3065e+06
6.26939e+06
6.23174e+06
6.19354e+06
6.15477e+06
6.11544e+06
6.07555e+06
6.03509e+06
5.9941e+06
5.9526e+06
5.9106e+06
5.86813e+06
5.82522e+06
5.78187e+06
5.73814e+06
5.69403e+06
5.64957e+06
5.60477e+06
5.55965e+06
5.51421e+06
5.46846e+06
5.4224e+06
7.31362e+06
7.27857e+06
7.28149e+06
7.25202e+06
7.24283e+06
7.21976e+06
7.20523e+06
7.18541e+06
7.16894e+06
7.15004e+06
7.1319e+06
7.11218e+06
7.09215e+06
7.07092e+06
7.04898e+06
7.02598e+06
7.00207e+06
6.97713e+06
6.95124e+06
6.92438e+06
6.89667e+06
6.86814e+06
6.83888e+06
6.80896e+06
6.77847e+06
6.74746e+06
6.71599e+06
6.68411e+06
6.65184e+06
6.61919e+06
6.58616e+06
6.55275e+06
6.51895e+06
6.48472e+06
6.45005e+06
6.41492e+06
6.37932e+06
6.34321e+06
6.30658e+06
6.26941e+06
6.23169e+06
6.19342e+06
6.1546e+06
6.11521e+06
6.07528e+06
6.0348e+06
5.9938e+06
5.95229e+06
5.91031e+06
5.86786e+06
5.82498e+06
5.78169e+06
5.738e+06
5.69394e+06
5.64954e+06
5.60479e+06
5.55971e+06
5.51431e+06
5.46859e+06
5.42256e+06
7.31329e+06
7.27812e+06
7.28086e+06
7.25145e+06
7.24239e+06
7.21951e+06
7.20516e+06
7.18549e+06
7.16916e+06
7.15036e+06
7.13225e+06
7.11253e+06
7.09246e+06
7.07112e+06
7.04906e+06
7.02589e+06
7.0018e+06
6.97668e+06
6.95065e+06
6.92369e+06
6.89591e+06
6.86739e+06
6.83819e+06
6.80838e+06
6.77804e+06
6.7472e+06
6.71589e+06
6.68418e+06
6.65206e+06
6.61952e+06
6.58657e+06
6.55322e+06
6.51945e+06
6.48521e+06
6.4505e+06
6.41532e+06
6.37964e+06
6.34344e+06
6.30668e+06
6.26938e+06
6.23155e+06
6.19316e+06
6.15421e+06
6.11473e+06
6.07473e+06
6.03419e+06
5.99316e+06
5.95167e+06
5.9097e+06
5.86731e+06
5.8245e+06
5.78129e+06
5.73769e+06
5.69374e+06
5.64944e+06
5.60477e+06
5.55978e+06
5.51445e+06
5.46878e+06
5.42278e+06
7.31217e+06
7.27669e+06
7.27913e+06
7.25005e+06
7.24141e+06
7.21894e+06
7.2049e+06
7.18548e+06
7.1693e+06
7.15058e+06
7.13245e+06
7.11266e+06
7.09246e+06
7.07093e+06
7.0486e+06
7.02513e+06
7.00073e+06
6.97532e+06
6.94908e+06
6.92202e+06
6.89426e+06
6.86588e+06
6.83692e+06
6.80743e+06
6.77743e+06
6.74692e+06
6.71591e+06
6.68444e+06
6.65249e+06
6.62006e+06
6.58715e+06
6.55378e+06
6.51995e+06
6.48561e+06
6.45079e+06
6.41547e+06
6.37966e+06
6.34331e+06
6.30641e+06
6.26899e+06
6.23105e+06
6.19257e+06
6.15357e+06
6.11406e+06
6.07406e+06
6.03354e+06
5.99256e+06
5.95112e+06
5.90923e+06
5.8669e+06
5.82418e+06
5.78104e+06
5.73751e+06
5.69361e+06
5.64935e+06
5.60471e+06
5.55973e+06
5.51441e+06
5.46873e+06
5.42271e+06
5.37059e+06
5.32175e+06
5.27406e+06
5.22735e+06
5.18124e+06
5.13534e+06
5.08929e+06
5.04293e+06
4.99616e+06
4.94896e+06
4.90125e+06
4.85293e+06
4.80407e+06
4.75476e+06
4.705e+06
4.6548e+06
4.60411e+06
4.55284e+06
4.50102e+06
4.44878e+06
4.39632e+06
4.34381e+06
4.29141e+06
4.23923e+06
4.18729e+06
4.13554e+06
4.08393e+06
4.03238e+06
3.98078e+06
3.92901e+06
3.87701e+06
3.82473e+06
3.77214e+06
3.71929e+06
3.66624e+06
3.61306e+06
3.55982e+06
3.5066e+06
3.45344e+06
3.4003e+06
3.34721e+06
3.29406e+06
3.24093e+06
3.18773e+06
3.13455e+06
3.08127e+06
3.0281e+06
2.97483e+06
2.92172e+06
2.86847e+06
2.81542e+06
2.7621e+06
2.70906e+06
2.65548e+06
2.60223e+06
2.54812e+06
2.49432e+06
2.43946e+06
2.3842e+06
2.33018e+06
5.37453e+06
5.32736e+06
5.2804e+06
5.23353e+06
5.18664e+06
5.13961e+06
5.09234e+06
5.04475e+06
4.99681e+06
4.94852e+06
4.89985e+06
4.85073e+06
4.80119e+06
4.75127e+06
4.701e+06
4.65041e+06
4.59952e+06
4.5483e+06
4.49673e+06
4.44489e+06
4.39288e+06
4.34079e+06
4.28875e+06
4.23681e+06
4.18501e+06
4.13331e+06
4.08167e+06
4.03003e+06
3.97832e+06
3.92647e+06
3.87443e+06
3.82218e+06
3.76971e+06
3.71702e+06
3.66416e+06
3.61113e+06
3.558e+06
3.50481e+06
3.45163e+06
3.39841e+06
3.34522e+06
3.29198e+06
3.23879e+06
3.18557e+06
3.1324e+06
3.07917e+06
3.02605e+06
2.97286e+06
2.91983e+06
2.86664e+06
2.81368e+06
2.76046e+06
2.70756e+06
2.65419e+06
2.60124e+06
2.54756e+06
2.49454e+06
2.44069e+06
2.38745e+06
2.33461e+06
5.37498e+06
5.32808e+06
5.28108e+06
5.23399e+06
5.18675e+06
5.1393e+06
5.09161e+06
5.04364e+06
4.99536e+06
4.94676e+06
4.89782e+06
4.84853e+06
4.7989e+06
4.74895e+06
4.69871e+06
4.64821e+06
4.59745e+06
4.54645e+06
4.4952e+06
4.44376e+06
4.39218e+06
4.34049e+06
4.28877e+06
4.23703e+06
4.18529e+06
4.13354e+06
4.08175e+06
4.0299e+06
3.97795e+06
3.92587e+06
3.87365e+06
3.82128e+06
3.76875e+06
3.71606e+06
3.66325e+06
3.61031e+06
3.5573e+06
3.50421e+06
3.4511e+06
3.39794e+06
3.34479e+06
3.2916e+06
3.23844e+06
3.18525e+06
3.13211e+06
3.07892e+06
3.02585e+06
2.97269e+06
2.91969e+06
2.86654e+06
2.8136e+06
2.76039e+06
2.70748e+06
2.6541e+06
2.60113e+06
2.54744e+06
2.49435e+06
2.44041e+06
2.38684e+06
2.33367e+06
5.37541e+06
5.32868e+06
5.28177e+06
5.23466e+06
5.18733e+06
5.13975e+06
5.09191e+06
5.04377e+06
4.99534e+06
4.94662e+06
4.89759e+06
4.84825e+06
4.7986e+06
4.74867e+06
4.69847e+06
4.64802e+06
4.59736e+06
4.54649e+06
4.49543e+06
4.44421e+06
4.39284e+06
4.34136e+06
4.28978e+06
4.23812e+06
4.18638e+06
4.13457e+06
4.08267e+06
4.03067e+06
3.97856e+06
3.92634e+06
3.87399e+06
3.82152e+06
3.76894e+06
3.71624e+06
3.66345e+06
3.61056e+06
3.55761e+06
3.50459e+06
3.45154e+06
3.39844e+06
3.34535e+06
3.29221e+06
3.2391e+06
3.18595e+06
3.13286e+06
3.07971e+06
3.02667e+06
2.97354e+06
2.92056e+06
2.86743e+06
2.81449e+06
2.76129e+06
2.70836e+06
2.65498e+06
2.60199e+06
2.54832e+06
2.49515e+06
2.44128e+06
2.38751e+06
2.33449e+06
5.37555e+06
5.32886e+06
5.28194e+06
5.23478e+06
5.18736e+06
5.13968e+06
5.09173e+06
5.0435e+06
4.995e+06
4.9462e+06
4.89712e+06
4.84775e+06
4.7981e+06
4.74817e+06
4.69799e+06
4.64759e+06
4.59697e+06
4.54617e+06
4.4952e+06
4.44407e+06
4.39279e+06
4.34139e+06
4.28987e+06
4.23824e+06
4.1865e+06
4.13465e+06
4.0827e+06
4.03063e+06
3.97845e+06
3.92615e+06
3.87375e+06
3.82124e+06
3.76863e+06
3.71593e+06
3.66315e+06
3.61029e+06
3.55738e+06
3.5044e+06
3.45139e+06
3.39833e+06
3.34527e+06
3.29216e+06
3.23908e+06
3.18595e+06
3.13289e+06
3.07977e+06
3.02675e+06
2.97363e+06
2.92067e+06
2.86754e+06
2.81462e+06
2.76142e+06
2.7085e+06
2.65512e+06
2.60215e+06
2.54848e+06
2.49534e+06
2.44144e+06
2.3877e+06
2.33462e+06
5.37573e+06
5.3291e+06
5.28221e+06
5.23505e+06
5.18763e+06
5.13993e+06
5.09195e+06
5.04368e+06
4.99514e+06
4.94632e+06
4.89722e+06
4.84784e+06
4.79819e+06
4.74827e+06
4.69811e+06
4.64772e+06
4.59714e+06
4.54637e+06
4.49544e+06
4.44435e+06
4.39313e+06
4.34176e+06
4.29027e+06
4.23864e+06
4.18689e+06
4.13502e+06
4.08303e+06
4.03092e+06
3.9787e+06
3.92636e+06
3.87393e+06
3.82139e+06
3.76877e+06
3.71607e+06
3.66329e+06
3.61044e+06
3.55754e+06
3.50458e+06
3.45159e+06
3.39855e+06
3.3455e+06
3.29241e+06
3.23935e+06
3.18624e+06
3.13318e+06
3.08007e+06
3.02706e+06
2.97395e+06
2.92099e+06
2.86786e+06
2.81493e+06
2.76173e+06
2.70879e+06
2.65541e+06
2.60241e+06
2.54874e+06
2.49556e+06
2.44167e+06
2.38788e+06
2.33479e+06
5.37583e+06
5.3292e+06
5.28231e+06
5.23513e+06
5.18769e+06
5.13996e+06
5.09195e+06
5.04366e+06
4.9951e+06
4.94627e+06
4.89716e+06
4.84777e+06
4.79812e+06
4.74821e+06
4.69806e+06
4.64769e+06
4.59712e+06
4.54637e+06
4.49545e+06
4.44439e+06
4.39317e+06
4.34182e+06
4.29033e+06
4.23871e+06
4.18695e+06
4.13507e+06
4.08306e+06
4.03093e+06
3.97869e+06
3.92634e+06
3.8739e+06
3.82135e+06
3.76873e+06
3.71602e+06
3.66325e+06
3.61041e+06
3.55752e+06
3.50457e+06
3.45159e+06
3.39856e+06
3.34553e+06
3.29245e+06
3.23939e+06
3.18629e+06
3.13325e+06
3.08014e+06
3.02714e+06
2.97404e+06
2.92108e+06
2.86796e+06
2.81504e+06
2.76185e+06
2.70892e+06
2.65556e+06
2.60257e+06
2.54893e+06
2.49577e+06
2.44189e+06
2.38813e+06
2.33506e+06
5.37594e+06
5.32932e+06
5.28243e+06
5.23526e+06
5.18781e+06
5.14007e+06
5.09205e+06
5.04375e+06
4.99518e+06
4.94634e+06
4.89722e+06
4.84784e+06
4.79818e+06
4.74828e+06
4.69814e+06
4.64778e+06
4.59722e+06
4.54648e+06
4.49558e+06
4.44452e+06
4.39331e+06
4.34196e+06
4.29047e+06
4.23885e+06
4.18708e+06
4.13519e+06
4.08317e+06
4.03103e+06
3.97878e+06
3.92642e+06
3.87397e+06
3.82142e+06
3.76879e+06
3.71609e+06
3.66331e+06
3.61047e+06
3.55758e+06
3.50464e+06
3.45166e+06
3.39864e+06
3.34561e+06
3.29253e+06
3.23948e+06
3.18639e+06
3.13335e+06
3.08024e+06
3.02724e+06
2.97414e+06
2.92118e+06
2.86806e+06
2.81513e+06
2.76193e+06
2.709e+06
2.65563e+06
2.60262e+06
2.54897e+06
2.49579e+06
2.4419e+06
2.38812e+06
2.33502e+06
5.37607e+06
5.32945e+06
5.28255e+06
5.23536e+06
5.18789e+06
5.14013e+06
5.09209e+06
5.04377e+06
4.99518e+06
4.94633e+06
4.8972e+06
4.8478e+06
4.79815e+06
4.74825e+06
4.69812e+06
4.64777e+06
4.59723e+06
4.5465e+06
4.49561e+06
4.44456e+06
4.39336e+06
4.34201e+06
4.29052e+06
4.23889e+06
4.18712e+06
4.13522e+06
4.0832e+06
4.03106e+06
3.97881e+06
3.92644e+06
3.87399e+06
3.82144e+06
3.76881e+06
3.71611e+06
3.66334e+06
3.6105e+06
3.55761e+06
3.50467e+06
3.4517e+06
3.39867e+06
3.34565e+06
3.29258e+06
3.23953e+06
3.18644e+06
3.1334e+06
3.0803e+06
3.0273e+06
2.97421e+06
2.92125e+06
2.86814e+06
2.81521e+06
2.76202e+06
2.7091e+06
2.65574e+06
2.60275e+06
2.54912e+06
2.49595e+06
2.44209e+06
2.3883e+06
2.33525e+06
5.37624e+06
5.32962e+06
5.28271e+06
5.23551e+06
5.18801e+06
5.14022e+06
5.09215e+06
5.04379e+06
4.99517e+06
4.94628e+06
4.89712e+06
4.8477e+06
4.79804e+06
4.74815e+06
4.69802e+06
4.64769e+06
4.59716e+06
4.54646e+06
4.49558e+06
4.44455e+06
4.39336e+06
4.34201e+06
4.29052e+06
4.23889e+06
4.18712e+06
4.13522e+06
4.0832e+06
4.03106e+06
3.9788e+06
3.92643e+06
3.87397e+06
3.82143e+06
3.7688e+06
3.71609e+06
3.66332e+06
3.61049e+06
3.5576e+06
3.50465e+06
3.45168e+06
3.39866e+06
3.34564e+06
3.29257e+06
3.23953e+06
3.18643e+06
3.1334e+06
3.0803e+06
3.0273e+06
2.97421e+06
2.92125e+06
2.86813e+06
2.8152e+06
2.76202e+06
2.70909e+06
2.65572e+06
2.60272e+06
2.54908e+06
2.49589e+06
2.44202e+06
2.3882e+06
2.33515e+06
5.37647e+06
5.32985e+06
5.28292e+06
5.23568e+06
5.18815e+06
5.1403e+06
5.09215e+06
5.04374e+06
4.99506e+06
4.94611e+06
4.89692e+06
4.84747e+06
4.7978e+06
4.74791e+06
4.6978e+06
4.6475e+06
4.597e+06
4.54633e+06
4.49548e+06
4.44447e+06
4.3933e+06
4.34196e+06
4.29048e+06
4.23884e+06
4.18706e+06
4.13517e+06
4.08315e+06
4.03101e+06
3.97875e+06
3.92637e+06
3.87391e+06
3.82138e+06
3.76876e+06
3.71605e+06
3.66329e+06
3.61046e+06
3.55757e+06
3.50462e+06
3.45165e+06
3.39863e+06
3.34562e+06
3.29255e+06
3.2395e+06
3.18641e+06
3.13338e+06
3.08028e+06
3.02729e+06
2.9742e+06
2.92125e+06
2.86814e+06
2.8152e+06
2.76202e+06
2.7091e+06
2.65574e+06
2.60275e+06
2.54911e+06
2.49593e+06
2.44207e+06
2.38822e+06
2.33525e+06
5.37639e+06
5.32975e+06
5.28278e+06
5.23551e+06
5.18795e+06
5.14007e+06
5.09191e+06
5.04348e+06
4.99479e+06
4.94584e+06
4.89664e+06
4.84719e+06
4.79753e+06
4.74765e+06
4.69755e+06
4.64726e+06
4.59678e+06
4.54612e+06
4.49529e+06
4.44429e+06
4.39312e+06
4.34179e+06
4.29031e+06
4.23867e+06
4.1869e+06
4.13501e+06
4.08299e+06
4.03085e+06
3.9786e+06
3.92622e+06
3.87376e+06
3.82123e+06
3.76861e+06
3.7159e+06
3.66314e+06
3.61032e+06
3.55743e+06
3.50448e+06
3.45151e+06
3.39849e+06
3.34549e+06
3.29242e+06
3.23937e+06
3.18628e+06
3.13327e+06
3.08016e+06
3.02717e+06
2.97409e+06
2.92114e+06
2.86803e+06
2.81509e+06
2.76191e+06
2.70899e+06
2.65563e+06
2.60264e+06
2.549e+06
2.4958e+06
2.44195e+06
2.38797e+06
2.33508e+06
)
;

boundaryField
{
    upperWall
    {
        type            calculated;
        value           nonuniform List<scalar> 
120
(
7.31217e+06
7.27669e+06
7.27913e+06
7.25005e+06
7.24141e+06
7.21894e+06
7.2049e+06
7.18548e+06
7.1693e+06
7.15058e+06
7.13245e+06
7.11266e+06
7.09246e+06
7.07093e+06
7.0486e+06
7.02513e+06
7.00073e+06
6.97532e+06
6.94908e+06
6.92202e+06
6.89426e+06
6.86588e+06
6.83692e+06
6.80743e+06
6.77743e+06
6.74692e+06
6.71591e+06
6.68444e+06
6.65249e+06
6.62006e+06
6.58715e+06
6.55378e+06
6.51995e+06
6.48561e+06
6.45079e+06
6.41547e+06
6.37966e+06
6.34331e+06
6.30641e+06
6.26899e+06
6.23105e+06
6.19257e+06
6.15357e+06
6.11406e+06
6.07406e+06
6.03354e+06
5.99256e+06
5.95112e+06
5.90923e+06
5.8669e+06
5.82418e+06
5.78104e+06
5.73751e+06
5.69361e+06
5.64935e+06
5.60471e+06
5.55973e+06
5.51441e+06
5.46873e+06
5.42271e+06
5.37639e+06
5.32975e+06
5.28278e+06
5.23551e+06
5.18795e+06
5.14007e+06
5.09191e+06
5.04348e+06
4.99479e+06
4.94584e+06
4.89664e+06
4.84719e+06
4.79753e+06
4.74765e+06
4.69755e+06
4.64726e+06
4.59678e+06
4.54612e+06
4.49529e+06
4.44429e+06
4.39312e+06
4.34179e+06
4.29031e+06
4.23867e+06
4.1869e+06
4.13501e+06
4.08299e+06
4.03085e+06
3.9786e+06
3.92622e+06
3.87376e+06
3.82123e+06
3.76861e+06
3.7159e+06
3.66314e+06
3.61032e+06
3.55743e+06
3.50448e+06
3.45151e+06
3.39849e+06
3.34549e+06
3.29242e+06
3.23937e+06
3.18628e+06
3.13327e+06
3.08016e+06
3.02717e+06
2.97409e+06
2.92114e+06
2.86803e+06
2.81509e+06
2.76191e+06
2.70899e+06
2.65563e+06
2.60264e+06
2.549e+06
2.4958e+06
2.44195e+06
2.38797e+06
2.33508e+06
)
;
    }
    lowerWall
    {
        type            calculated;
        value           nonuniform List<scalar> 
60
(
7.31217e+06
7.27669e+06
7.27913e+06
7.25005e+06
7.24141e+06
7.21894e+06
7.2049e+06
7.18548e+06
7.1693e+06
7.15058e+06
7.13245e+06
7.11266e+06
7.09246e+06
7.07093e+06
7.0486e+06
7.02513e+06
7.00073e+06
6.97532e+06
6.94908e+06
6.92202e+06
6.89426e+06
6.86588e+06
6.83692e+06
6.80743e+06
6.77743e+06
6.74692e+06
6.71591e+06
6.68444e+06
6.65249e+06
6.62005e+06
6.58714e+06
6.55378e+06
6.51995e+06
6.48561e+06
6.45078e+06
6.41546e+06
6.37964e+06
6.34331e+06
6.30642e+06
6.26899e+06
6.23101e+06
6.19253e+06
6.15354e+06
6.11402e+06
6.07399e+06
6.03348e+06
5.99249e+06
5.95104e+06
5.90913e+06
5.8668e+06
5.82407e+06
5.78091e+06
5.73736e+06
5.6934e+06
5.6491e+06
5.60433e+06
5.55925e+06
5.51363e+06
5.46743e+06
5.42059e+06
)
;
    }
    heatedWall
    {
        type            calculated;
        value           nonuniform List<scalar> 
60
(
5.37059e+06
5.32175e+06
5.27406e+06
5.22735e+06
5.18124e+06
5.13534e+06
5.08929e+06
5.04293e+06
4.99616e+06
4.94896e+06
4.90125e+06
4.85293e+06
4.80407e+06
4.75476e+06
4.705e+06
4.6548e+06
4.60411e+06
4.55284e+06
4.50102e+06
4.44878e+06
4.39632e+06
4.34381e+06
4.29141e+06
4.23923e+06
4.18729e+06
4.13554e+06
4.08393e+06
4.03238e+06
3.98078e+06
3.92901e+06
3.87701e+06
3.82473e+06
3.77214e+06
3.71929e+06
3.66624e+06
3.61306e+06
3.55982e+06
3.5066e+06
3.45344e+06
3.4003e+06
3.34721e+06
3.29406e+06
3.24093e+06
3.18773e+06
3.13455e+06
3.08127e+06
3.0281e+06
2.97483e+06
2.92172e+06
2.86847e+06
2.81542e+06
2.7621e+06
2.70906e+06
2.65548e+06
2.60223e+06
2.54812e+06
2.49432e+06
2.43946e+06
2.3842e+06
2.33018e+06
)
;
    }
    inlet
    {
        type            calculated;
        value           nonuniform List<scalar> 
12
(
7.31217e+06
7.31329e+06
7.31363e+06
7.31434e+06
7.31457e+06
7.3148e+06
7.3148e+06
7.31457e+06
7.31434e+06
7.31362e+06
7.31329e+06
7.31217e+06
)
;
    }
    outlet
    {
        type            calculated;
        value           nonuniform List<scalar> 
12
(
2.30102e+06
2.30535e+06
2.3045e+06
2.30531e+06
2.30544e+06
2.3056e+06
2.30587e+06
2.30583e+06
2.30606e+06
2.30596e+06
2.30606e+06
2.3059e+06
)
;
    }
    frontAndBack
    {
        type            empty;
    }
}


// ************************************************************************* //
