/*--------------------------------*- C++ -*----------------------------------*\
  =========                 |
  \\      /  F ield         | OpenFOAM: The Open Source CFD Toolbox
   \\    /   O peration     | Website:  https://openfoam.org
    \\  /    A nd           | Version:  7
     \\/     M anipulation  |
\*---------------------------------------------------------------------------*/
FoamFile
{
    version     2.0;
    format      ascii;
    class       volVectorField;
    location    "1.6375";
    object      U_0;
}
// * * * * * * * * * * * * * * * * * * * * * * * * * * * * * * * * * * * * * //

dimensions      [0 1 -1 0 0 0 0];

internalField   nonuniform List<vector> 
7920
(
(2.93087 0.102049 -32.3828)
(2.10707 -0.461779 -32.435)
(1.39579 -0.616215 -32.4355)
(1.28805 -0.67244 -32.4449)
(1.05457 -0.689292 -32.4415)
(1.08121 -0.694301 -32.4478)
(0.941271 -0.698484 -32.445)
(0.98728 -0.698757 -32.4499)
(0.882983 -0.700945 -32.4477)
(0.928685 -0.70074 -32.4513)
(0.845944 -0.702325 -32.4494)
(0.887413 -0.701823 -32.4519)
(0.820216 -0.702827 -32.4503)
(0.856713 -0.702255 -32.4518)
(0.801451 -0.702598 -32.4506)
(0.832981 -0.702663 -32.4513)
(0.786218 -0.698709 -32.4511)
(0.808585 -0.705233 -32.4501)
(0.774485 -0.646689 -32.4535)
(0.604799 -0.659049 -32.4429)
(4.41208 0.967647 -32.4293)
(4.33643 0.873038 -32.4711)
(3.68612 0.818831 -32.4723)
(3.54034 0.751858 -32.484)
(3.14271 0.724212 -32.4834)
(3.13914 0.71089 -32.4916)
(2.87863 0.704389 -32.4918)
(2.92252 0.700961 -32.4981)
(2.729 0.698958 -32.4991)
(2.78315 0.697308 -32.5036)
(2.63035 0.696247 -32.5039)
(2.68389 0.695076 -32.5065)
(2.55993 0.694444 -32.5061)
(2.60943 0.693485 -32.5068)
(2.50719 0.692841 -32.5065)
(2.55343 0.692889 -32.5048)
(2.46264 0.68962 -32.507)
(2.52544 0.694555 -32.5)
(2.40595 0.684694 -32.5129)
(2.6846 0.677039 -32.4722)
(4.75252 0.193185 -32.4338)
(5.26043 -0.228913 -32.4658)
(5.1177 -0.374877 -32.4547)
(5.23144 -0.493332 -32.4644)
(4.98915 -0.5583 -32.4586)
(5.04147 -0.595038 -32.4684)
(4.82973 -0.619556 -32.4663)
(4.87482 -0.633449 -32.4759)
(4.70107 -0.644124 -32.476)
(4.74396 -0.65085 -32.4847)
(4.60172 -0.656322 -32.4856)
(4.64178 -0.660354 -32.4922)
(4.52455 -0.663477 -32.4927)
(4.56082 -0.666208 -32.4958)
(4.46453 -0.668253 -32.496)
(4.49348 -0.66919 -32.4948)
(4.42138 -0.672466 -32.4972)
(4.42339 -0.66809 -32.4894)
(4.39943 -0.669203 -32.4994)
(4.3071 -0.689459 -32.4641)
(4.75354 0.6494 -32.4438)
(5.28663 0.749668 -32.4729)
(5.38896 0.796982 -32.4598)
(5.69613 0.767367 -32.4656)
(5.63954 0.749528 -32.4589)
(5.81366 0.735241 -32.4659)
(5.72244 0.724941 -32.4636)
(5.83742 0.716929 -32.4714)
(5.74542 0.710908 -32.4719)
(5.82912 0.705314 -32.4795)
(5.74508 0.701375 -32.482)
(5.80986 0.697186 -32.4887)
(5.73518 0.694729 -32.4917)
(5.78824 0.691242 -32.4955)
(5.72072 0.690401 -32.4978)
(5.76979 0.686402 -32.4976)
(5.70165 0.689299 -32.4995)
(5.765 0.682245 -32.4951)
(5.67821 0.696491 -32.4979)
(5.82125 0.707668 -32.4687)
(4.74562 -0.0881581 -32.4428)
(5.25015 -0.38709 -32.4717)
(5.40961 -0.479763 -32.4554)
(5.77219 -0.545631 -32.4611)
(5.78501 -0.581536 -32.4516)
(6.01935 -0.601626 -32.4585)
(5.99489 -0.615981 -32.454)
(6.16256 -0.624017 -32.4616)
(6.12975 -0.631002 -32.4602)
(6.25706 -0.635423 -32.4678)
(6.22353 -0.639644 -32.4687)
(6.32329 -0.642682 -32.4762)
(6.29135 -0.645775 -32.4784)
(6.37107 -0.647657 -32.4841)
(6.34187 -0.651172 -32.4856)
(6.40498 -0.649694 -32.4882)
(6.38303 -0.658891 -32.4882)
(6.42341 -0.647544 -32.4881)
(6.42241 -0.671124 -32.4865)
(6.42277 -0.692424 -32.4624)
(4.7331 0.352105 -32.4465)
(5.19348 0.557161 -32.4759)
(5.36298 0.635615 -32.4595)
(5.74098 0.655813 -32.4652)
(5.77762 0.666075 -32.4552)
(6.03566 0.669432 -32.4619)
(6.03792 0.671628 -32.4569)
(6.23009 0.67175 -32.4642)
(6.22456 0.672128 -32.4621)
(6.37533 0.6714 -32.4694)
(6.36788 0.671293 -32.4697)
(6.48907 0.6704 -32.4771)
(6.48076 0.670448 -32.4789)
(6.57975 0.669162 -32.485)
(6.57044 0.670504 -32.4862)
(6.65271 0.666843 -32.4897)
(6.64302 0.674169 -32.4891)
(6.71248 0.66316 -32.4905)
(6.70751 0.686481 -32.4878)
(6.77363 0.708694 -32.4643)
(4.7331 -0.352105 -32.4465)
(5.19348 -0.557161 -32.4759)
(5.36298 -0.635615 -32.4595)
(5.74098 -0.655812 -32.4652)
(5.77762 -0.666075 -32.4551)
(6.03566 -0.669431 -32.4619)
(6.03792 -0.671627 -32.4569)
(6.23009 -0.671747 -32.4642)
(6.22457 -0.672124 -32.4621)
(6.37533 -0.671392 -32.4694)
(6.36789 -0.671278 -32.4697)
(6.48907 -0.670378 -32.4771)
(6.48079 -0.670403 -32.4789)
(6.57973 -0.669082 -32.4851)
(6.57052 -0.670416 -32.4861)
(6.65265 -0.666534 -32.4898)
(6.64323 -0.674034 -32.489)
(6.71231 -0.662217 -32.4905)
(6.7078 -0.685994 -32.4877)
(6.77325 -0.706932 -32.4642)
(4.74562 0.0881581 -32.4428)
(5.25015 0.38709 -32.4717)
(5.40961 0.479763 -32.4554)
(5.7722 0.545631 -32.4611)
(5.78501 0.581536 -32.4516)
(6.01935 0.601626 -32.4585)
(5.99489 0.615982 -32.454)
(6.16256 0.62402 -32.4617)
(6.12974 0.631007 -32.4601)
(6.25708 0.635429 -32.4678)
(6.22352 0.639661 -32.4687)
(6.32333 0.642698 -32.4763)
(6.29132 0.645824 -32.4783)
(6.37118 0.64772 -32.4844)
(6.34183 0.651272 -32.4853)
(6.40527 0.649968 -32.4886)
(6.38309 0.659047 -32.4877)
(6.42412 0.648462 -32.4887)
(6.42303 0.671612 -32.486)
(6.42466 0.694347 -32.4628)
(4.75354 -0.6494 -32.4438)
(5.28663 -0.749668 -32.4729)
(5.38896 -0.796982 -32.4598)
(5.69613 -0.767366 -32.4657)
(5.63954 -0.749528 -32.4588)
(5.81366 -0.73524 -32.4659)
(5.72244 -0.724941 -32.4636)
(5.83742 -0.716926 -32.4714)
(5.74542 -0.710905 -32.4718)
(5.82913 -0.705306 -32.4796)
(5.74508 -0.701365 -32.4818)
(5.8099 -0.697163 -32.4889)
(5.7352 -0.694699 -32.4914)
(5.78836 -0.691164 -32.496)
(5.72083 -0.69035 -32.497)
(5.77005 -0.68612 -32.4987)
(5.7021 -0.689265 -32.4979)
(5.76551 -0.681432 -32.4973)
(5.67951 -0.696283 -32.495)
(5.82234 -0.706407 -32.4722)
(4.75252 -0.193185 -32.4338)
(5.26043 0.228913 -32.4658)
(5.1177 0.374877 -32.4547)
(5.23144 0.493332 -32.4644)
(4.98915 0.5583 -32.4586)
(5.04148 0.595038 -32.4685)
(4.82973 0.619557 -32.4663)
(4.87482 0.63345 -32.476)
(4.70107 0.644129 -32.4759)
(4.74399 0.65085 -32.4848)
(4.60172 0.656337 -32.4855)
(4.64187 0.660355 -32.4924)
(4.52455 0.663518 -32.4923)
(4.56107 0.666223 -32.4964)
(4.46457 0.668339 -32.4949)
(4.49411 0.669309 -32.4966)
(4.42171 0.672603 -32.4941)
(4.42495 0.66863 -32.4945)
(4.40091 0.669564 -32.4915)
(4.31167 0.690742 -32.4762)
(4.41208 -0.967647 -32.4293)
(4.33643 -0.873038 -32.4711)
(3.68612 -0.818831 -32.4723)
(3.54034 -0.751857 -32.484)
(3.14271 -0.724213 -32.4834)
(3.13914 -0.71089 -32.4916)
(2.87863 -0.70439 -32.4918)
(2.92253 -0.700959 -32.4982)
(2.72901 -0.698958 -32.4991)
(2.78317 -0.697303 -32.5037)
(2.63037 -0.696245 -32.5038)
(2.68395 -0.695063 -32.5067)
(2.55997 -0.694439 -32.5059)
(2.6096 -0.69344 -32.5072)
(2.50736 -0.692843 -32.5057)
(2.55382 -0.692726 -32.5061)
(2.46334 -0.689712 -32.5045)
(2.52603 -0.694125 -32.5048)
(2.40831 -0.685024 -32.5029)
(2.68505 -0.677279 -32.4938)
(2.93087 -0.102049 -32.3828)
(2.10707 0.461779 -32.435)
(1.39579 0.616215 -32.4355)
(1.28805 0.67244 -32.4449)
(1.05457 0.689292 -32.4415)
(1.08121 0.6943 -32.4478)
(0.941272 0.698484 -32.445)
(0.987282 0.698756 -32.4499)
(0.882987 0.700946 -32.4477)
(0.928694 0.700737 -32.4513)
(0.845952 0.702329 -32.4494)
(0.887445 0.701813 -32.452)
(0.820234 0.702838 -32.4502)
(0.856808 0.702223 -32.452)
(0.801516 0.702634 -32.4504)
(0.833208 0.702576 -32.4517)
(0.786535 0.698852 -32.4505)
(0.809032 0.70509 -32.4515)
(0.775759 0.647384 -32.4505)
(0.60687 0.659931 -32.4508)
(4.32547 0.566008 0.00699986)
(3.08192 0.847684 0.00453243)
(2.31934 0.869591 0.00580465)
(1.75379 0.852803 0.00432864)
(1.61637 0.855543 0.00547419)
(1.41367 0.867414 0.00430633)
(1.40775 0.87749 0.00526225)
(1.28719 0.885666 0.00428179)
(1.29512 0.890041 0.00506404)
(1.21035 0.89378 0.00423676)
(1.21923 0.895584 0.00487808)
(1.15768 0.897659 0.00418361)
(1.16498 0.89845 0.00471035)
(1.11837 0.899912 0.00412925)
(1.12459 0.89973 0.00456099)
(1.08585 0.902122 0.00407502)
(1.09398 0.894538 0.00442925)
(1.07248 0.916483 0.00401856)
(1.02734 0.792894 0.00434014)
(1.47176 0.82016 0.00390709)
(4.75951 -0.100038 0.00442374)
(4.61476 -0.277074 0.00239126)
(4.53078 -0.476981 0.00369446)
(4.15094 -0.642835 0.0022521)
(4.01038 -0.739199 0.00340559)
(3.73452 -0.794609 0.00224323)
(3.66236 -0.822196 0.00320297)
(3.47762 -0.839399 0.0022253)
(3.43941 -0.849732 0.00301033)
(3.30914 -0.857585 0.00218484)
(3.28529 -0.862951 0.00282813)
(3.18948 -0.867454 0.00213444)
(3.17214 -0.870356 0.00266242)
(3.09831 -0.873661 0.00208172)
(3.08597 -0.874247 0.00251391)
(3.02225 -0.878776 0.00202883)
(3.02422 -0.875588 0.00237842)
(2.94066 -0.882495 0.00197595)
(3.01792 -0.886354 0.00223023)
(2.62026 -0.89368 0.00185206)
(4.63821 0.43522 0.00572202)
(4.82894 0.8712 0.00376623)
(5.14617 0.969387 0.00495136)
(5.08888 0.960279 0.00346872)
(5.15279 0.942204 0.00459634)
(5.01978 0.929096 0.00342135)
(5.02784 0.919822 0.00437513)
(4.91134 0.914052 0.00339413)
(4.90777 0.907695 0.00417763)
(4.81407 0.904145 0.00335059)
(4.80562 0.899664 0.00399298)
(4.73089 0.897572 0.00329815)
(4.71971 0.894656 0.00382537)
(4.66032 0.893165 0.00324348)
(4.64595 0.891696 0.00367539)
(4.60278 0.889517 0.00318832)
(4.57532 0.888368 0.00354329)
(4.57226 0.888512 0.00313044)
(4.49388 0.849036 0.00345308)
(4.61279 0.890682 0.00304284)
(4.57642 -0.201691 0.00454326)
(4.70248 -0.39816 0.0028069)
(5.13465 -0.518777 0.00399665)
(5.23666 -0.623433 0.00254309)
(5.45565 -0.691223 0.00367216)
(5.45896 -0.73845 0.00250125)
(5.5726 -0.765174 0.00345765)
(5.54945 -0.784617 0.00247968)
(5.61585 -0.797293 0.00326559)
(5.58742 -0.807866 0.00244143)
(5.62766 -0.81569 0.00308555)
(5.59998 -0.822496 0.00239292)
(5.62454 -0.827772 0.00292126)
(5.59913 -0.832493 0.00234122)
(5.61443 -0.836355 0.00277339)
(5.58941 -0.839124 0.00228866)
(5.60333 -0.846277 0.00263732)
(5.56172 -0.840429 0.00223362)
(5.60297 -0.876091 0.00248572)
(5.40947 -0.896651 0.00213497)
(4.58947 0.341423 0.00519657)
(4.69852 0.688271 0.00349983)
(5.11062 0.803151 0.0046422)
(5.23341 0.844695 0.00317467)
(5.49251 0.861789 0.00429105)
(5.54478 0.871587 0.00311355)
(5.70913 0.875425 0.00406671)
(5.73835 0.87802 0.0030866)
(5.85327 0.877391 0.00387157)
(5.87281 0.877577 0.00304637)
(5.95547 0.875986 0.00368988)
(5.96921 0.875623 0.00299652)
(6.02934 0.874248 0.00352437)
(6.03978 0.873424 0.00294375)
(6.08249 0.873288 0.00337589)
(6.09368 0.870245 0.00289025)
(6.1172 0.874573 0.00324328)
(6.13738 0.86627 0.00283331)
(6.13925 0.86994 0.00313694)
(6.13827 0.9172 0.00276099)
(4.58343 -0.269062 0.00482568)
(4.67037 -0.539261 0.00319334)
(5.07734 -0.653665 0.00433493)
(5.20146 -0.724476 0.00287448)
(5.47196 -0.76499 0.00398906)
(5.5393 -0.7927 0.00281149)
(5.72159 -0.807411 0.00376454)
(5.77012 -0.818226 0.00278465)
(5.90504 -0.824072 0.00356998)
(5.94529 -0.829466 0.00274529)
(6.0483 -0.832673 0.00338912)
(6.08222 -0.836037 0.00269622)
(6.162 -0.838313 0.00322426)
(6.1904 -0.840287 0.00264411)
(6.25267 -0.842988 0.00307615)
(6.27586 -0.841955 0.00259137)
(6.32509 -0.850759 0.0029415)
(6.33506 -0.840037 0.00253526)
(6.38755 -0.87064 0.00281002)
(6.30303 -0.905438 0.00245782)
(4.58343 0.269062 0.00482568)
(4.67037 0.539261 0.00319334)
(5.07734 0.653665 0.00433493)
(5.20146 0.724476 0.00287448)
(5.47196 0.76499 0.00398906)
(5.53931 0.792701 0.00281149)
(5.72159 0.807412 0.00376454)
(5.77012 0.818229 0.00278464)
(5.90504 0.824077 0.00356998)
(5.94529 0.829476 0.00274528)
(6.04829 0.832689 0.00338913)
(6.08224 0.836068 0.0026962)
(6.16197 0.838357 0.00322427)
(6.19046 0.840383 0.00264405)
(6.2526 0.843107 0.0030762)
(6.27605 0.84224 0.0025912)
(6.32496 0.851097 0.00294176)
(6.33569 0.840835 0.00253489)
(6.38781 0.871593 0.00281121)
(6.30417 0.907538 0.00245753)
(4.58947 -0.341423 0.00519657)
(4.69852 -0.688271 0.00349983)
(5.11062 -0.803151 0.0046422)
(5.23341 -0.844694 0.00317467)
(5.49251 -0.861789 0.00429105)
(5.54478 -0.871586 0.00311355)
(5.70913 -0.875424 0.00406671)
(5.73835 -0.878016 0.0030866)
(5.85327 -0.877387 0.00387157)
(5.87281 -0.877566 0.00304638)
(5.95548 -0.875974 0.00368986)
(5.96922 -0.875588 0.00299654)
(6.02937 -0.874215 0.00352434)
(6.0398 -0.873317 0.00294382)
(6.08261 -0.873204 0.00337578)
(6.09369 -0.869945 0.00289044)
(6.11759 -0.874344 0.00324293)
(6.13726 -0.865573 0.00283362)
(6.13999 -0.869263 0.00313574)
(6.13838 -0.91537 0.00276086)
(4.57642 0.201691 0.00454326)
(4.70248 0.39816 0.0028069)
(5.13465 0.518777 0.00399665)
(5.23666 0.623434 0.00254309)
(5.45565 0.691223 0.00367216)
(5.45897 0.738451 0.00250125)
(5.5726 0.765175 0.00345764)
(5.54945 0.784619 0.00247969)
(5.61585 0.797299 0.00326559)
(5.58744 0.807872 0.00244143)
(5.62765 0.815707 0.00308555)
(5.60004 0.822515 0.00239291)
(5.62453 0.827819 0.00292125)
(5.5993 0.832553 0.00234121)
(5.61444 0.836482 0.00277338)
(5.58989 0.83932 0.00228863)
(5.60349 0.846641 0.00263741)
(5.56309 0.8411 0.00223346)
(5.60399 0.877116 0.00248674)
(5.41308 0.898549 0.00213473)
(4.63821 -0.43522 0.00572202)
(4.82894 -0.8712 0.00376623)
(5.14617 -0.969387 0.00495136)
(5.08889 -0.960278 0.00346873)
(5.15279 -0.942204 0.00459633)
(5.01978 -0.929094 0.00342136)
(5.02784 -0.919822 0.00437513)
(4.91135 -0.914049 0.00339413)
(4.90777 -0.907693 0.00417762)
(4.81409 -0.904136 0.00335061)
(4.80563 -0.899658 0.00399295)
(4.73095 -0.897543 0.00329819)
(4.71975 -0.894641 0.0038253)
(4.66049 -0.893077 0.0032436)
(4.64613 -0.891673 0.00367517)
(4.6032 -0.889275 0.00318865)
(4.5759 -0.88833 0.00354265)
(4.57322 -0.888048 0.00313111)
(4.49535 -0.848933 0.0034514)
(4.61536 -0.890091 0.0030432)
(4.75951 0.100038 0.00442374)
(4.61476 0.277074 0.00239126)
(4.53078 0.476981 0.00369446)
(4.15094 0.642835 0.0022521)
(4.01038 0.739199 0.00340559)
(3.73452 0.794609 0.00224323)
(3.66236 0.822197 0.00320297)
(3.47763 0.839399 0.0022253)
(3.43941 0.849736 0.00301033)
(3.30917 0.857584 0.00218484)
(3.2853 0.862964 0.00282812)
(3.18957 0.867451 0.00213445)
(3.17218 0.87039 0.00266241)
(3.09855 0.87365 0.00208175)
(3.0861 0.874347 0.00251386)
(3.02295 0.878756 0.00202892)
(3.02459 0.875884 0.00237827)
(2.94284 0.882641 0.0019762)
(3.01859 0.887229 0.00223029)
(2.62851 0.895294 0.00185283)
(4.32547 -0.566008 0.00699986)
(3.08192 -0.847684 0.00453243)
(2.31934 -0.869591 0.00580465)
(1.75379 -0.852803 0.00432864)
(1.61638 -0.855543 0.00547419)
(1.41367 -0.867414 0.00430634)
(1.40776 -0.87749 0.00526225)
(1.2872 -0.885665 0.0042818)
(1.29512 -0.890042 0.00506404)
(1.21036 -0.893776 0.00423677)
(1.21925 -0.895588 0.00487807)
(1.15772 -0.897645 0.00418364)
(1.16503 -0.898464 0.00471032)
(1.11849 -0.899865 0.00412933)
(1.12476 -0.899781 0.00456086)
(1.08614 -0.901985 0.00407527)
(1.09449 -0.894754 0.00442881)
(1.07312 -0.916266 0.00401923)
(1.02894 -0.794013 0.00433836)
(1.4722 -0.821685 0.00391045)
(4.37913 0.0972334 0.001412)
(3.96945 0.149115 0.00195594)
(3.43583 0.163023 0.00100134)
(2.96066 0.15682 0.00154422)
(2.54999 0.145245 0.00102107)
(2.24803 0.136673 0.00143781)
(2.0251 0.131651 0.00109414)
(1.87432 0.131261 0.00135651)
(1.77322 0.133631 0.00112463)
(1.70151 0.138146 0.00127842)
(1.65725 0.143204 0.00113503)
(1.61806 0.148645 0.00121698)
(1.59686 0.153272 0.00114269)
(1.57097 0.158162 0.00117543)
(1.55852 0.160908 0.00115478)
(1.54181 0.166175 0.00115075)
(1.52695 0.164591 0.00117617)
(1.53171 0.174817 0.00113725)
(1.48623 0.160088 0.00118996)
(1.56464 0.167928 0.00120678)
(4.54207 0.0879271 0.00320405)
(4.68081 0.119509 0.00392694)
(4.72472 0.120818 0.00296604)
(4.71536 0.0945686 0.00348427)
(4.63994 0.0564266 0.00293685)
(4.54651 0.0140394 0.00333966)
(4.44081 -0.0240103 0.00298772)
(4.33778 -0.0567309 0.00324688)
(4.24383 -0.0817372 0.00301306)
(4.15411 -0.101618 0.00316663)
(4.07893 -0.116082 0.00302262)
(4.00466 -0.127728 0.00310463)
(3.94599 -0.136218 0.00302996)
(3.88515 -0.143482 0.00306227)
(3.84002 -0.148816 0.00304176)
(3.79061 -0.153417 0.00303617)
(3.75566 -0.157838 0.00306516)
(3.71863 -0.159361 0.00301984)
(3.68533 -0.165751 0.00311571)
(3.66757 -0.170161 0.00312184)
(4.51737 0.0458318 0.00176917)
(4.65889 0.110542 0.00237646)
(4.79264 0.162886 0.00144738)
(4.94302 0.19133 0.00196937)
(5.05241 0.201669 0.00142805)
(5.13886 0.202616 0.00183738)
(5.19152 0.199385 0.00149343)
(5.2228 0.196362 0.00175741)
(5.23874 0.194469 0.00152874)
(5.24112 0.194057 0.00168415)
(5.23999 0.194476 0.00154286)
(5.23016 0.195426 0.00162537)
(5.22142 0.196145 0.00155209)
(5.20787 0.197307 0.00158482)
(5.19457 0.196796 0.00156435)
(5.18302 0.199325 0.00156074)
(5.16407 0.194205 0.00158294)
(5.16083 0.204206 0.00155281)
(5.13163 0.183981 0.00157902)
(5.14168 0.209122 0.0016136)
(4.5134 0.0442306 0.00278757)
(4.62443 0.0509179 0.00350467)
(4.75025 0.0466194 0.00260039)
(4.91176 0.0291054 0.00312791)
(5.05321 0.00689753 0.00257265)
(5.18775 -0.0182227 0.00297046)
(5.29661 -0.0420661 0.0026158)
(5.38828 -0.0636474 0.00287479)
(5.46445 -0.0813465 0.0026418)
(5.52623 -0.0959687 0.00279569)
(5.58206 -0.107502 0.00265245)
(5.62679 -0.116811 0.00273445)
(5.67037 -0.124542 0.00266012)
(5.70504 -0.130471 0.00269253)
(5.74025 -0.136497 0.00267183)
(5.76811 -0.139527 0.00266765)
(5.79798 -0.146293 0.0026936)
(5.81795 -0.144971 0.00265967)
(5.84925 -0.155107 0.00274654)
(5.84833 -0.152517 0.00275212)
(4.51451 0.0166245 0.00208705)
(4.6256 0.0557317 0.00275861)
(4.74444 0.0914589 0.001864)
(4.89993 0.117112 0.00238256)
(5.03914 0.133436 0.00182506)
(5.17743 0.144552 0.00222296)
(5.29484 0.152319 0.00187091)
(5.39952 0.159044 0.00213204)
(5.49162 0.164923 0.00190165)
(5.57185 0.170513 0.0020567)
(5.648 0.175376 0.00191502)
(5.71428 0.179828 0.00199744)
(5.78104 0.183209 0.00192406)
(5.83862 0.186632 0.00195676)
(5.89925 0.188017 0.00193642)
(5.94908 0.19186 0.00193336)
(6.00803 0.18908 0.00195518)
(6.04363 0.198399 0.00192992)
(6.11591 0.184374 0.00196527)
(6.11359 0.209825 0.00199808)
(4.51325 0.0119358 0.00242004)
(4.61775 -0.00401694 0.00312079)
(4.73518 -0.0234315 0.00223393)
(4.88896 -0.0448857 0.00275846)
(5.02731 -0.063978 0.00219957)
(5.16546 -0.0817751 0.00259584)
(5.28395 -0.0972827 0.00224136)
(5.39084 -0.111054 0.0025015)
(5.4865 -0.122571 0.00227008)
(5.57106 -0.132337 0.00242487)
(5.65301 -0.140345 0.00228271)
(5.72514 -0.146895 0.002365)
(5.79988 -0.152384 0.00229132)
(5.86392 -0.156639 0.00232386)
(5.93519 -0.160529 0.0023035)
(5.99041 -0.163236 0.00230018)
(6.06429 -0.16592 0.00232397)
(6.10087 -0.168542 0.00229724)
(6.19576 -0.167927 0.00236088)
(6.18547 -0.177326 0.00237683)
(4.51325 -0.011936 0.00242004)
(4.61775 0.00401725 0.00312079)
(4.73518 0.0234313 0.00223393)
(4.88896 0.0448865 0.00275846)
(5.02731 0.0639779 0.00219957)
(5.16547 0.081777 0.00259584)
(5.28395 0.0972836 0.00224136)
(5.39084 0.111058 0.00250151)
(5.4865 0.122575 0.00227008)
(5.57107 0.132349 0.00242487)
(5.65301 0.140359 0.0022827)
(5.72515 0.14693 0.00236502)
(5.79988 0.152417 0.0022913)
(5.86394 0.15675 0.00232391)
(5.93519 0.1606 0.00230343)
(5.99044 0.163556 0.00230032)
(6.06431 0.166109 0.00232364)
(6.10094 0.169332 0.00229747)
(6.19588 0.168625 0.0023591)
(6.18572 0.178943 0.00237714)
(4.51451 -0.0166247 0.00208705)
(4.6256 -0.0557314 0.00275861)
(4.74444 -0.0914591 0.001864)
(4.89993 -0.117112 0.00238256)
(5.03914 -0.133436 0.00182507)
(5.17743 -0.14455 0.00222296)
(5.29484 -0.152318 0.00187091)
(5.39952 -0.159039 0.00213204)
(5.49163 -0.164919 0.00190165)
(5.57185 -0.1705 0.00205669)
(5.64801 -0.175364 0.00191503)
(5.71428 -0.179791 0.00199742)
(5.78106 -0.183178 0.00192407)
(5.83862 -0.186521 0.00195671)
(5.89932 -0.187951 0.00193648)
(5.94909 -0.191544 0.00193323)
(6.00823 -0.188906 0.00195545)
(6.04371 -0.197633 0.00192969)
(6.11635 -0.183731 0.00196674)
(6.11394 -0.208323 0.00199775)
(4.5134 -0.0442307 0.00278757)
(4.62443 -0.0509177 0.00350467)
(4.75025 -0.0466196 0.00260039)
(4.91176 -0.0291048 0.00312791)
(5.05321 -0.00689759 0.00257265)
(5.18776 0.0182245 0.00297046)
(5.29661 0.042067 0.00261579)
(5.38829 0.0636515 0.0028748)
(5.46445 0.0813509 0.00264179)
(5.52625 0.0959792 0.0027957)
(5.58205 0.107516 0.00265243)
(5.62683 0.116841 0.00273448)
(5.67038 0.124574 0.00266008)
(5.70512 0.130568 0.00269259)
(5.74032 0.136564 0.00267172)
(5.76829 0.139815 0.00266778)
(5.79826 0.146459 0.00269321)
(5.81838 0.145706 0.00265989)
(5.85014 0.155711 0.00274483)
(5.84957 0.154052 0.00275207)
(4.51737 -0.0458319 0.00176917)
(4.65889 -0.110542 0.00237646)
(4.79264 -0.162886 0.00144738)
(4.94302 -0.191329 0.00196937)
(5.05241 -0.201669 0.00142804)
(5.13886 -0.202615 0.00183738)
(5.19152 -0.199385 0.00149343)
(5.22281 -0.196357 0.00175742)
(5.23874 -0.194466 0.00152873)
(5.24115 -0.194046 0.00168415)
(5.23998 -0.194467 0.00154285)
(5.23024 -0.195395 0.00162538)
(5.22142 -0.196124 0.00155208)
(5.20806 -0.197215 0.00158483)
(5.19465 -0.196757 0.00156433)
(5.18344 -0.199065 0.00156073)
(5.16446 -0.194111 0.00158296)
(5.16177 -0.203595 0.0015528)
(5.13295 -0.183595 0.00157966)
(5.14396 -0.208095 0.0016136)
(4.54206 -0.0879271 0.00320405)
(4.68082 -0.119509 0.00392694)
(4.72472 -0.120818 0.00296604)
(4.71536 -0.0945684 0.00348427)
(4.63993 -0.0564262 0.00293685)
(4.54652 -0.0140388 0.00333967)
(4.44081 0.0240117 0.00298772)
(4.3378 0.0567323 0.0032469)
(4.24383 0.0817416 0.00301304)
(4.15415 0.101621 0.00316666)
(4.07892 0.116093 0.00302257)
(4.00479 0.127739 0.00310472)
(3.94599 0.136244 0.00302983)
(3.88548 0.143524 0.00306248)
(3.84008 0.148864 0.00304141)
(3.79142 0.153556 0.00303672)
(3.75596 0.157936 0.00306414)
(3.72059 0.159742 0.00302122)
(3.68636 0.166089 0.00311269)
(3.67247 0.170968 0.00312461)
(4.37913 -0.0972334 0.001412)
(3.96945 -0.149115 0.00195594)
(3.43583 -0.163023 0.00100134)
(2.96066 -0.15682 0.00154422)
(2.54999 -0.145245 0.00102107)
(2.24803 -0.136673 0.00143782)
(2.0251 -0.131651 0.00109414)
(1.87433 -0.131261 0.00135651)
(1.77323 -0.133631 0.00112463)
(1.70154 -0.138144 0.00127842)
(1.65727 -0.143202 0.00113503)
(1.61815 -0.14864 0.00121698)
(1.59693 -0.153269 0.00114269)
(1.57118 -0.158145 0.00117544)
(1.55877 -0.16091 0.00115475)
(1.54227 -0.166121 0.0011508)
(1.5277 -0.164616 0.00117598)
(1.53286 -0.174689 0.00113757)
(1.48782 -0.160174 0.00118903)
(1.56895 -0.168049 0.00120853)
(4.37913 0.0972334 -0.00141201)
(3.96945 0.149115 -0.00195595)
(3.43583 0.163023 -0.00100134)
(2.96066 0.15682 -0.00154423)
(2.54999 0.145245 -0.00102108)
(2.24803 0.136673 -0.00143782)
(2.0251 0.131651 -0.00109414)
(1.87432 0.131261 -0.00135652)
(1.77322 0.133631 -0.00112464)
(1.70151 0.138146 -0.00127842)
(1.65725 0.143204 -0.00113503)
(1.61806 0.148645 -0.00121699)
(1.59686 0.153272 -0.0011427)
(1.57097 0.158162 -0.00117543)
(1.55852 0.160908 -0.00115479)
(1.54181 0.166176 -0.00115076)
(1.52695 0.164591 -0.00117617)
(1.53171 0.174817 -0.00113726)
(1.48623 0.160088 -0.00118997)
(1.56464 0.167928 -0.00120679)
(4.54207 0.0879271 -0.00320405)
(4.68081 0.119509 -0.00392695)
(4.72472 0.120818 -0.00296605)
(4.71536 0.0945686 -0.00348428)
(4.63994 0.0564266 -0.00293686)
(4.54651 0.0140394 -0.00333967)
(4.44081 -0.0240103 -0.00298773)
(4.33778 -0.0567309 -0.00324689)
(4.24383 -0.0817371 -0.00301307)
(4.15411 -0.101618 -0.00316663)
(4.07893 -0.116082 -0.00302263)
(4.00466 -0.127728 -0.00310464)
(3.94599 -0.136218 -0.00302997)
(3.88515 -0.143482 -0.00306228)
(3.84002 -0.148816 -0.00304177)
(3.79061 -0.153417 -0.00303618)
(3.75566 -0.157838 -0.00306516)
(3.71863 -0.159361 -0.00301985)
(3.68533 -0.165751 -0.00311572)
(3.66757 -0.170161 -0.00312185)
(4.51737 0.0458318 -0.00176917)
(4.65889 0.110542 -0.00237646)
(4.79264 0.162886 -0.00144739)
(4.94302 0.19133 -0.00196937)
(5.05241 0.201669 -0.00142805)
(5.13886 0.202616 -0.00183738)
(5.19152 0.199385 -0.00149344)
(5.2228 0.196362 -0.00175742)
(5.23874 0.194469 -0.00152875)
(5.24112 0.194057 -0.00168415)
(5.23999 0.194476 -0.00154286)
(5.23016 0.195426 -0.00162538)
(5.22142 0.196145 -0.0015521)
(5.20787 0.197307 -0.00158483)
(5.19457 0.196796 -0.00156435)
(5.18302 0.199325 -0.00156074)
(5.16407 0.194205 -0.00158294)
(5.16083 0.204206 -0.00155281)
(5.13163 0.183981 -0.00157903)
(5.14168 0.209122 -0.00161361)
(4.5134 0.0442306 -0.00278757)
(4.62443 0.0509179 -0.00350468)
(4.75025 0.0466194 -0.0026004)
(4.91176 0.0291054 -0.00312791)
(5.05321 0.00689753 -0.00257266)
(5.18775 -0.0182227 -0.00297047)
(5.29661 -0.0420661 -0.0026158)
(5.38828 -0.0636474 -0.0028748)
(5.46445 -0.0813465 -0.00264181)
(5.52623 -0.0959687 -0.00279569)
(5.58206 -0.107502 -0.00265245)
(5.62679 -0.116811 -0.00273446)
(5.67037 -0.124542 -0.00266013)
(5.70504 -0.130471 -0.00269254)
(5.74025 -0.136497 -0.00267183)
(5.76811 -0.139527 -0.00266766)
(5.79798 -0.146293 -0.00269361)
(5.81795 -0.144971 -0.00265967)
(5.84925 -0.155107 -0.00274655)
(5.84833 -0.152518 -0.00275212)
(4.51451 0.0166245 -0.00208706)
(4.6256 0.0557317 -0.00275861)
(4.74444 0.0914589 -0.001864)
(4.89993 0.117112 -0.00238257)
(5.03914 0.133436 -0.00182507)
(5.17743 0.144552 -0.00222296)
(5.29484 0.152319 -0.00187092)
(5.39952 0.159044 -0.00213205)
(5.49162 0.164923 -0.00190166)
(5.57185 0.170513 -0.0020567)
(5.648 0.175376 -0.00191503)
(5.71428 0.179828 -0.00199744)
(5.78104 0.183209 -0.00192406)
(5.83862 0.186632 -0.00195677)
(5.89925 0.188017 -0.00193642)
(5.94908 0.19186 -0.00193337)
(6.00803 0.18908 -0.00195519)
(6.04363 0.198399 -0.00192993)
(6.11591 0.184374 -0.00196528)
(6.11359 0.209825 -0.00199808)
(4.51325 0.0119358 -0.00242004)
(4.61775 -0.00401694 -0.0031208)
(4.73518 -0.0234315 -0.00223394)
(4.88896 -0.0448857 -0.00275847)
(5.02731 -0.063978 -0.00219958)
(5.16546 -0.0817751 -0.00259585)
(5.28395 -0.0972827 -0.00224137)
(5.39084 -0.111054 -0.00250151)
(5.4865 -0.122571 -0.00227009)
(5.57106 -0.132337 -0.00242487)
(5.65301 -0.140345 -0.00228272)
(5.72514 -0.146895 -0.002365)
(5.79988 -0.152384 -0.00229133)
(5.86392 -0.15664 -0.00232387)
(5.93519 -0.160529 -0.0023035)
(5.99041 -0.163236 -0.00230019)
(6.06429 -0.16592 -0.00232398)
(6.10087 -0.168542 -0.00229725)
(6.19576 -0.167927 -0.00236089)
(6.18547 -0.177326 -0.00237684)
(4.51325 -0.011936 -0.00242004)
(4.61775 0.00401726 -0.0031208)
(4.73518 0.0234313 -0.00223394)
(4.88896 0.0448865 -0.00275847)
(5.02731 0.0639779 -0.00219958)
(5.16547 0.081777 -0.00259585)
(5.28395 0.0972835 -0.00224137)
(5.39084 0.111058 -0.00250151)
(5.4865 0.122575 -0.00227008)
(5.57107 0.132349 -0.00242488)
(5.65301 0.140359 -0.00228271)
(5.72515 0.14693 -0.00236502)
(5.79988 0.152416 -0.00229131)
(5.86394 0.15675 -0.00232392)
(5.93519 0.1606 -0.00230343)
(5.99044 0.163556 -0.00230033)
(6.06431 0.166109 -0.00232365)
(6.10094 0.169332 -0.00229748)
(6.19588 0.168625 -0.0023591)
(6.18572 0.178943 -0.00237715)
(4.51451 -0.0166247 -0.00208706)
(4.6256 -0.0557314 -0.00275861)
(4.74444 -0.0914591 -0.001864)
(4.89993 -0.117112 -0.00238257)
(5.03914 -0.133436 -0.00182507)
(5.17743 -0.14455 -0.00222296)
(5.29484 -0.152318 -0.00187092)
(5.39952 -0.159039 -0.00213205)
(5.49163 -0.164919 -0.00190166)
(5.57185 -0.1705 -0.0020567)
(5.64801 -0.175364 -0.00191504)
(5.71428 -0.179791 -0.00199743)
(5.78106 -0.183178 -0.00192408)
(5.83862 -0.186521 -0.00195672)
(5.89932 -0.187951 -0.00193648)
(5.94909 -0.191544 -0.00193323)
(6.00823 -0.188906 -0.00195546)
(6.04371 -0.197633 -0.00192969)
(6.11635 -0.183731 -0.00196675)
(6.11394 -0.208323 -0.00199776)
(4.5134 -0.0442307 -0.00278757)
(4.62443 -0.0509177 -0.00350468)
(4.75025 -0.0466196 -0.0026004)
(4.91176 -0.0291048 -0.00312792)
(5.05321 -0.00689759 -0.00257265)
(5.18776 0.0182245 -0.00297047)
(5.29661 0.042067 -0.0026158)
(5.38829 0.0636515 -0.0028748)
(5.46445 0.0813508 -0.0026418)
(5.52625 0.0959792 -0.0027957)
(5.58205 0.107516 -0.00265243)
(5.62683 0.116841 -0.00273448)
(5.67038 0.124574 -0.00266009)
(5.70512 0.130568 -0.00269259)
(5.74032 0.136564 -0.00267173)
(5.76829 0.139815 -0.00266778)
(5.79826 0.146459 -0.00269322)
(5.81838 0.145706 -0.00265989)
(5.85014 0.155711 -0.00274484)
(5.84957 0.154052 -0.00275207)
(4.51737 -0.0458319 -0.00176917)
(4.65889 -0.110542 -0.00237646)
(4.79264 -0.162886 -0.00144739)
(4.94302 -0.191329 -0.00196938)
(5.05241 -0.201669 -0.00142805)
(5.13886 -0.202615 -0.00183738)
(5.19152 -0.199385 -0.00149344)
(5.22281 -0.196357 -0.00175743)
(5.23874 -0.194466 -0.00152874)
(5.24115 -0.194046 -0.00168416)
(5.23998 -0.194467 -0.00154285)
(5.23024 -0.195395 -0.00162539)
(5.22142 -0.196124 -0.00155208)
(5.20806 -0.197215 -0.00158484)
(5.19465 -0.196757 -0.00156433)
(5.18344 -0.199066 -0.00156074)
(5.16446 -0.194111 -0.00158297)
(5.16177 -0.203595 -0.00155281)
(5.13295 -0.183595 -0.00157967)
(5.14396 -0.208095 -0.00161361)
(4.54206 -0.0879271 -0.00320405)
(4.68082 -0.119509 -0.00392695)
(4.72472 -0.120818 -0.00296605)
(4.71536 -0.0945684 -0.00348428)
(4.63993 -0.0564262 -0.00293685)
(4.54652 -0.0140388 -0.00333968)
(4.44081 0.0240117 -0.00298772)
(4.3378 0.0567324 -0.0032469)
(4.24383 0.0817416 -0.00301305)
(4.15415 0.101621 -0.00316667)
(4.07892 0.116093 -0.00302258)
(4.00479 0.127739 -0.00310472)
(3.94599 0.136244 -0.00302984)
(3.88548 0.143524 -0.00306249)
(3.84008 0.148864 -0.00304141)
(3.79142 0.153556 -0.00303673)
(3.75595 0.157936 -0.00306415)
(3.72059 0.159742 -0.00302123)
(3.68636 0.166089 -0.00311269)
(3.67247 0.170968 -0.00312462)
(4.37913 -0.0972334 -0.00141201)
(3.96945 -0.149115 -0.00195595)
(3.43583 -0.163023 -0.00100134)
(2.96066 -0.15682 -0.00154423)
(2.54999 -0.145245 -0.00102108)
(2.24803 -0.136673 -0.00143782)
(2.0251 -0.131651 -0.00109414)
(1.87433 -0.131261 -0.00135652)
(1.77323 -0.133631 -0.00112464)
(1.70154 -0.138144 -0.00127842)
(1.65727 -0.143202 -0.00113503)
(1.61815 -0.14864 -0.00121699)
(1.59693 -0.153269 -0.00114269)
(1.57118 -0.158145 -0.00117544)
(1.55877 -0.16091 -0.00115476)
(1.54227 -0.166121 -0.0011508)
(1.5277 -0.164616 -0.00117599)
(1.53286 -0.174689 -0.00113758)
(1.48782 -0.160174 -0.00118903)
(1.56895 -0.168049 -0.00120853)
(4.32547 0.566008 -0.00699986)
(3.08192 0.847684 -0.00453243)
(2.31934 0.869591 -0.00580465)
(1.75379 0.852803 -0.00432864)
(1.61637 0.855543 -0.0054742)
(1.41367 0.867414 -0.00430634)
(1.40775 0.87749 -0.00526225)
(1.28719 0.885666 -0.0042818)
(1.29512 0.890041 -0.00506405)
(1.21035 0.89378 -0.00423676)
(1.21923 0.895584 -0.00487809)
(1.15768 0.897659 -0.00418362)