/*--------------------------------*- C++ -*----------------------------------*\
  =========                 |
  \\      /  F ield         | OpenFOAM: The Open Source CFD Toolbox
   \\    /   O peration     | Website:  https://openfoam.org
    \\  /    A nd           | Version:  7
     \\/     M anipulation  |
\*---------------------------------------------------------------------------*/
FoamFile
{
    version     2.0;
    format      ascii;
    class       volScalarField;
    location    "0.075";
    object      k_0;
}
// * * * * * * * * * * * * * * * * * * * * * * * * * * * * * * * * * * * * * //

dimensions      [0 2 -2 0 0 0 0];

internalField   nonuniform List<scalar> 
7920
(
52.0601
56.5895
56.7458
56.9165
56.8936
56.9534
56.9159
56.9544
56.921
56.9515
56.9248
56.9492
56.9284
56.9477
56.9314
56.9469
56.9377
56.9434
56.982
57.1394
13.7554
13.6082
12.822
12.3757
12.3018
12.3134
12.2994
12.3098
12.2967
12.305
12.2936
12.3005
12.2907
12.2962
12.2878
12.2927
12.285
12.292
12.3835
12.6312
7.86926
8.67795
8.666
8.6349
8.61298
8.62165
8.61072
8.61703
8.60648
8.6117
8.60218
8.60657
8.59796
8.60162
8.59377
8.59696
8.58946
8.59525
8.59249
8.64888
7.2361
8.25383
8.38097
8.42225
8.41923
8.43116
8.4216
8.42777
8.41753
8.42245
8.41309
8.41725
8.40871
8.41219
8.4044
8.40723
8.40044
8.40236
8.40099
8.41732
7.17607
8.21599
8.35538
8.40337
8.40277
8.41476
8.4049
8.41105
8.40074
8.40574
8.39634
8.40057
8.39201
8.39556
8.38772
8.39074
8.38362
8.38515
8.38425
8.40104
7.18456
8.2144
8.35505
8.4054
8.40588
8.41865
8.40926
8.4155
8.40525
8.41022
8.40084
8.40503
8.39648
8.4
8.39218
8.39509
8.3883
8.38976
8.39009
8.40488
7.18456
8.2144
8.35505
8.4054
8.40588
8.41865
8.40926
8.4155
8.40525
8.41022
8.40084
8.40503
8.39648
8.4
8.39218
8.39509
8.3883
8.38977
8.39009
8.40492
7.17607
8.21599
8.35538
8.40337
8.40277
8.41476
8.4049
8.41105
8.40074
8.40574
8.39634
8.40057
8.39201
8.39556
8.38772
8.39073
8.38362
8.38518
8.38424
8.40122
7.2361
8.25383
8.38097
8.42225
8.41923
8.43116
8.4216
8.42777
8.41753
8.42245
8.41309
8.41725
8.40871
8.4122
8.4044
8.40724
8.40044
8.40244
8.40078
8.41794
7.86927
8.67795
8.66601
8.6349
8.61298
8.62165
8.61072
8.61703
8.60648
8.6117
8.60218
8.60657
8.59795
8.60162
8.59377
8.59697
8.58939
8.59553
8.59148
8.65068
13.7554
13.6082
12.822
12.3757
12.3018
12.3134
12.2994
12.3098
12.2967
12.305
12.2936
12.3005
12.2907
12.2962
12.2878
12.2927
12.2848
12.2927
12.3803
12.6352
52.0601
56.5895
56.7457
56.9165
56.8936
56.9534
56.9159
56.9544
56.921
56.9515
56.9248
56.9492
56.9284
56.9477
56.9314
56.9471
56.937
56.9462
56.9707
57.1786
7.53551
9.49881
9.66451
9.62141
9.6411
9.61734
9.63309
9.61551
9.62543
9.61248
9.61817
9.60863
9.61117
9.60398
9.60432
9.59811
9.59809
9.59013
9.56624
9.64634
5.73572
7.75479
7.99785
8.01088
8.00751
8.00838
8.00676
8.00743
8.006
8.00645
8.00551
8.00584
8.00516
8.00526
8.00473
8.00485
8.00308
8.00776
8.00759
8.02889
5.41037
7.38618
7.67336
7.73152
7.73971
7.74838
7.74584
7.74873
7.74673
7.74887
7.74752
7.7492
7.74838
7.74965
7.74917
7.75012
7.74992
7.75004
7.74994
7.77015
5.40336
7.38047
7.67213
7.73416
7.74264
7.75076
7.74816
7.75117
7.74911
7.75133
7.74991
7.75163
7.7507
7.75209
7.7516
7.75304
7.75362
7.75528
7.75589
7.77448
5.39221
7.36548
7.65808
7.72108
7.73037
7.73959
7.73703
7.7401
7.73804
7.74032
7.7389
7.74066
7.73973
7.74111
7.74059
7.74174
7.74165
7.74218
7.74227
7.76117
5.39859
7.37306
7.66512
7.72747
7.73632
7.74502
7.74239
7.74544
7.74338
7.74565
7.74423
7.746
7.74508
7.74644
7.74592
7.7475
7.74819
7.74921
7.7492
7.76825
5.39859
7.37306
7.66512
7.72747
7.73632
7.74502
7.74239
7.74544
7.74338
7.74565
7.74423
7.746
7.74508
7.74644
7.7459
7.74749
7.74821
7.74912
7.7491
7.76824
5.39221
7.36548
7.65808
7.72108
7.73037
7.73959
7.73703
7.7401
7.73804
7.74032
7.7389
7.74066
7.73973
7.74112
7.7406
7.7417
7.74158
7.74226
7.74235
7.76131
5.40336
7.38047
7.67213
7.73416
7.74264
7.75076
7.74816
7.75117
7.74911
7.75133
7.74991
7.75163
7.75069
7.75209
7.75161
7.75305
7.75356
7.75527
7.75566
7.77494
5.41037
7.38617
7.67336
7.73152
7.73971
7.74838
7.74584
7.74873
7.74673
7.74889
7.74757
7.7492
7.74832
7.7496
7.74913
7.75012
7.74986
7.75028
7.74909
7.77189
5.73572
7.75479
7.99785
8.01088
8.00751
8.00838
8.00676
8.00743
8.006
8.00645
8.00552
8.00585
8.00516
8.00525
8.00473
8.00487
8.00296
8.00819
8.00567
8.03305
7.53551
9.49881
9.66451
9.62141
9.6411
9.61734
9.63309
9.61551
9.62543
9.61248
9.61818
9.60863
9.61117
9.60399
9.60432
9.59814
9.59806
9.59049
9.56501
9.65169
0.359573
0.637848
0.66964
0.682461
0.677621
0.682831
0.679807
0.684532
0.682206
0.686357
0.684494
0.688237
0.686707
0.690159
0.688861
0.692172
0.690766
0.694675
0.688405
0.702269
0.081333
0.17216
0.186266
0.187614
0.185964
0.18624
0.185488
0.185704
0.185178
0.185284
0.184935
0.184973
0.184801
0.184798
0.184639
0.18463
0.184549
0.185099
0.184768
0.190048
0.0671835
0.151388
0.16732
0.172717
0.171276
0.172094
0.170924
0.171372
0.170573
0.170803
0.170289
0.170376
0.170078
0.170147
0.170134
0.170126
0.170099
0.170018
0.169893
0.170619
0.0693404
0.155863
0.173031
0.178458
0.17726
0.177913
0.176863
0.177167
0.176457
0.176573
0.176138
0.176134
0.175914
0.175892
0.175816
0.17573
0.175736
0.175552
0.175764
0.176526
0.0681462
0.152948
0.16927
0.174693
0.173335
0.174084
0.172959
0.173344
0.17258
0.172756
0.172266
0.172307
0.172021
0.172058
0.172037
0.171977
0.171961
0.1718
0.171831
0.172554
0.0687885
0.154413
0.171195
0.176596
0.175326
0.176019
0.174939
0.175275
0.174544
0.174684
0.174216
0.17423
0.173957
0.173956
0.173927
0.173815
0.173827
0.17369
0.173839
0.174581
0.0687885
0.154412
0.171195
0.176596
0.175326
0.176019
0.174939
0.175275
0.174544
0.174684
0.174216
0.17423
0.173957
0.173957
0.173927
0.173816
0.173828
0.17369
0.173835
0.174579
0.0681462
0.152948
0.16927
0.174693
0.173335
0.174084
0.172959
0.173344
0.17258
0.172756
0.172266
0.172307
0.172022
0.172058
0.172037
0.171972
0.171957
0.171799
0.171835
0.172556
0.0693404
0.155863
0.173031
0.178458
0.17726
0.177913
0.176863
0.177167
0.176457
0.176573
0.176139
0.176134
0.17593
0.175903
0.175794
0.175696
0.175714
0.175548
0.175757
0.176527
0.0671835
0.151388
0.16732
0.172717
0.171276
0.172094
0.170924
0.171372
0.170573
0.170804
0.170292
0.170377
0.170074
0.170145
0.170132
0.170124
0.170098
0.170018
0.169887
0.170627
0.081333
0.17216
0.186266
0.187614
0.185965
0.18624
0.185488
0.185704
0.185179
0.185284
0.184936
0.184973
0.184801
0.184798
0.184639
0.184631
0.184548
0.185088
0.184743
0.190021
0.359573
0.637848
0.66964
0.682461
0.677621
0.682831
0.679807
0.684532
0.682206
0.686357
0.684494
0.688237
0.686708
0.69016
0.688863
0.692178
0.690763
0.694754
0.688283
0.702714
0.359573
0.637848
0.66964
0.682461
0.677621
0.682831
0.679807
0.684532
0.682206
0.686357
0.684494
0.688237
0.686707
0.690159
0.688861
0.692172
0.690766
0.694675
0.688405
0.702269
0.0813331
0.17216
0.186266
0.187614
0.185965
0.18624
0.185488
0.185704
0.185179
0.185284
0.184936
0.184973
0.184801
0.184798
0.184639
0.18463
0.184549
0.185099
0.184768
0.190048
0.0671836
0.151389
0.167321
0.172717
0.171277
0.172094
0.170925
0.171372
0.170574
0.170804
0.17029
0.170376
0.170075
0.170145
0.170132
0.170124
0.170098
0.170017
0.169893
0.170619
0.0693405
0.155863
0.173032
0.178459
0.17726
0.177914
0.176863
0.177168
0.176458
0.176573
0.176139
0.176134
0.175873
0.175857
0.175804
0.17567
0.175687
0.17554
0.175762
0.176528
0.0681464
0.152948
0.16927
0.174693
0.173335
0.174085
0.17296
0.173344
0.17258
0.172756
0.172265
0.172307
0.172023
0.172058
0.172038
0.171978
0.171962
0.1718
0.171831
0.172555
0.0687887
0.154413
0.171196
0.176596
0.175327
0.176019
0.174939
0.175276
0.174544
0.174685
0.174216
0.17423
0.173957
0.173957
0.173927
0.173816
0.173828
0.173691
0.173839
0.174581
0.0687887
0.154413
0.171196
0.176596
0.175327
0.176019
0.174939
0.175276
0.174544
0.174685
0.174217
0.17423
0.173957
0.173957
0.173927
0.173816
0.173827
0.173691
0.173835
0.174579
0.0681464
0.152948
0.16927
0.174693
0.173335
0.174085
0.17296
0.173344
0.17258
0.172757
0.172266
0.172307
0.172022
0.172059
0.172038
0.171973
0.171958
0.1718
0.171836
0.172557
0.0693405
0.155863
0.173032
0.178459
0.17726
0.177914
0.176863
0.177168
0.176458
0.176573
0.176139
0.176134
0.17593
0.175908
0.175814
0.175706
0.175706
0.175539
0.175756
0.176529
0.0671836
0.151389
0.167321
0.172717
0.171277
0.172094
0.170925
0.171372
0.170574
0.170804
0.170291
0.170375
0.170073
0.170148
0.170136
0.170126
0.1701
0.170017
0.169887
0.170627
0.0813331
0.17216
0.186266
0.187614
0.185965
0.18624
0.185488
0.185704
0.185179
0.185284
0.184936
0.184973
0.184801
0.184798
0.184639
0.184631
0.184548
0.185089
0.184744
0.190021
0.359573
0.637848
0.66964
0.682461
0.677621
0.682831
0.679807
0.684532
0.682206
0.686357
0.684494
0.688237
0.686707
0.690159
0.688862
0.692178
0.690763
0.694753
0.688282
0.702714
7.53551
9.49881
9.66451
9.62141
9.6411
9.61734
9.63309
9.61551
9.62543
9.61248
9.61817
9.60863
9.61117
9.60398
9.60432
9.59811
9.5981
9.59013
9.56624
9.64634
5.73572
7.75479
7.99785
8.01088
8.00751
8.00838
8.00676
8.00743
8.006
8.00645
8.00552
8.00584
8.00516
8.00525
8.00473
8.00485
8.00308
8.00776
8.00759
8.02889
5.41037
7.38617
7.67336
7.73152
7.73971
7.74838
7.74584
7.74873
7.74673
7.74888
7.74753
7.74919
7.74833
7.74961
7.74912
7.75013
7.74997
7.75006
7.74993
7.77015
5.40336
7.38047
7.67213
7.73416
7.74264
7.75076
7.74816
7.75117
7.74911
7.75133
7.74991
7.75163
7.75069
7.7521
7.75162
7.75305
7.75357
7.75519
7.75587
7.77449
5.39221
7.36548
7.65809
7.72108
7.73037
7.73959
7.73703
7.7401
7.73804
7.74031
7.73888
7.74066
7.73975
7.74112
7.74058
7.74172
7.74162
7.74217
7.74227
7.76117
5.39859
7.37306
7.66512
7.72747
7.73632
7.74502
7.74239
7.74544
7.74338
7.74565
7.74423
7.746
7.74508
7.74644
7.74591
7.7475
7.7482
7.7492
7.7492
7.76825
5.39859
7.37306
7.66512
7.72747
7.73632
7.74502
7.74239
7.74544
7.74338
7.74565
7.74423
7.746
7.74508
7.74644
7.74592
7.7475
7.7482
7.74913
7.7491
7.76824
5.39221
7.36548
7.65809
7.72108
7.73037
7.73959
7.73703
7.7401
7.73804
7.74032
7.7389
7.74066
7.73973
7.74113
7.74063
7.7417
7.74154
7.74226
7.74237
7.76132
5.40336
7.38047
7.67213
7.73416
7.74264
7.75076
7.74816
7.75117
7.74911
7.75133
7.74991
7.75163
7.75069
7.75265
7.75282
7.75341
7.75279
7.75459
7.75555
7.77501
5.41037
7.38617
7.67336
7.73152
7.73971
7.74838
7.74584
7.74873
7.74673
7.74888
7.74754
7.74918
7.7483
7.74969
7.74929
7.75018
7.74981
7.75024
7.74907
7.77189
5.73572
7.75479
7.99785
8.01088
8.00751
8.00838
8.00676
8.00743
8.006
8.00645
8.00551
8.00584
8.00516
8.00525
8.00473
8.00487
8.00295
8.00818
8.00566
8.03305
7.53551
9.49881
9.66451
9.62141
9.6411
9.61734
9.63309
9.61551
9.62543
9.61248
9.61817
9.60863
9.61117
9.60398
9.60432
9.59814
9.59806
9.59049
9.56501
9.65169
52.0601
56.5895
56.7457
56.9165
56.8936
56.9534
56.9159
56.9544
56.921
56.9515
56.9248
56.9492
56.9284
56.9477
56.9314
56.9469
56.9377
56.9434
56.982
57.1394
13.7554
13.6082
12.822
12.3757
12.3018
12.3134
12.2994
12.3098
12.2967
12.305
12.2936
12.3005
12.2907
12.2962
12.2878
12.2927
12.285
12.292
12.3835
12.6312
7.86926
8.67795
8.66601
8.6349
8.61298
8.62165
8.61072
8.61703
8.60648
8.6117
8.60218
8.60657
8.59795
8.60161
8.59377
8.59695
8.58946
8.59525
8.59249
8.64888
7.2361
8.25383
8.38097
8.42225
8.41923
8.43116
8.4216
8.42777
8.41753
8.42245
8.41309
8.41724
8.40871
8.41219
8.4044
8.40723
8.40044
8.40236
8.40098
8.41732
7.17607
8.21599
8.35538
8.40337
8.40277
8.41476
8.4049
8.41105
8.40074
8.40573
8.39634
8.40056
8.39201
8.39556
8.38772
8.39074
8.38362
8.38515
8.38425
8.40104
7.18456
8.2144
8.35505
8.4054
8.40588
8.41865
8.40926
8.4155
8.40525
8.41021
8.40084
8.40503
8.39648
8.4
8.39218
8.39509
8.3883
8.38976
8.39009
8.40488
7.18456
8.2144
8.35505
8.4054
8.40588
8.41865
8.40926
8.4155
8.40525
8.41021
8.40084
8.40503
8.39648
8.4
8.39218
8.39509
8.3883
8.38977
8.39009
8.40492
7.17607
8.21599
8.35538
8.40337
8.40277
8.41476
8.4049
8.41105
8.40074
8.40573
8.39634
8.40057
8.39201
8.39556
8.38772
8.39073
8.38362
8.38518
8.38424
8.40122
7.2361
8.25383
8.38097
8.42225
8.41923
8.43116
8.4216
8.42777
8.41753
8.42245
8.41309
8.41724
8.40871
8.4122
8.40441
8.40724
8.40043
8.40243
8.40078
8.41794
7.86926
8.67795
8.666
8.6349
8.61298
8.62165
8.61072
8.61703
8.60648
8.6117
8.60218
8.60657
8.59795
8.60161
8.59377
8.59697
8.58939
8.59552
8.59148
8.65068
13.7554
13.6082
12.822
12.3757
12.3018
12.3134
12.2994
12.3098
12.2967
12.305
12.2936
12.3005
12.2907
12.2962
12.2877
12.2927
12.2848
12.2927
12.3803
12.6352
52.0601
56.5895
56.7458
56.9165
56.8936
56.9534
56.9159
56.9544
56.921
56.9515
56.9248
56.9492
56.9284
56.9477
56.9314
56.9471
56.937
56.9462
56.9707
57.1785
144.281
145.468
145.482
145.515
145.492
145.519
145.499
145.517
145.5
145.521
145.506
145.517
145.502
145.519
145.51
145.52
145.505
145.519
145.517
145.532
145.519
145.527
145.524
145.546
145.541
145.546
145.535
145.554
145.561
145.577
145.564
145.568
145.569
145.597
145.605
145.612
145.595
145.604
145.617
145.65
145.657
145.658
145.641
145.651
145.67
145.712
145.728
145.73
145.708
145.707
145.721
145.769
145.809
145.835
145.82
145.796
145.774
145.792
145.836
145.904
145.953
145.972
145.937
145.877
145.816
145.792
145.809
145.872
145.953
146.033
146.064
146.024
145.886
145.664
145.382
145.087
144.811
144.579
144.397
144.264
144.17
144.105
144.061
144.032
144.013
144
143.991
143.985
143.95
143.945
47.092
48.6383
48.6072
48.6447
48.6005
48.6329
48.5929
48.6212
48.5856
48.6126
48.5799
48.6033
48.5728
48.5966
48.5693
48.5898
48.5629
48.5842
48.562
48.582
48.5583
48.5764
48.5571
48.577
48.5573
48.5718
48.5523
48.5701
48.5556
48.5702
48.5511
48.5626
48.5486
48.5643
48.5507
48.5586
48.5403
48.549
48.5385
48.5501
48.5361
48.5371
48.5181
48.5217
48.5121
48.5195
48.5055
48.4996
48.4763
48.4697
48.4557
48.457
48.4437
48.4329
48.4028
48.3785
48.3482
48.333
48.315
48.3038
48.2781
48.246
48.1961
48.1454
48.0921
48.0509
48.0145
47.9869
47.9554
47.9186
47.8645
47.7938
47.7034
47.6032
47.5002
47.4061
47.3262
47.2643
47.2185
47.1868
47.1652
47.151
47.1417
47.1357
47.1317
47.1291
47.1271
47.1259
47.1072
47.1158
29.3256
31.1025
31.0659
31.1101
31.0416
31.0785
31.0156
31.0473
30.9902
31.0194
30.9657
30.99
30.9398
30.9634
30.9165
30.9353
30.8897
30.9084
30.8676
30.8831
30.841
30.8537
30.8166
30.8295
30.7915
30.7976
30.7608
30.7696
30.7373
30.7409
30.704
30.7042
30.6731
30.6763
30.6446
30.6388
30.603
30.5982
30.5705
30.567
30.5349
30.5204
30.4845
30.4733
30.4472
30.4386
30.4076
30.3859
30.3474
30.3262
30.2978
30.2842
30.2563
30.2311
30.1888
30.153
30.113
30.0874
30.0602
30.0392
30.0063
29.9686
29.9169
29.866
29.8146
29.7751
29.7415
29.7168
29.6904
29.6613
29.6196
29.5662
29.4983
29.4235
29.3468
29.2773
29.2185
29.1734
29.1403
29.1178
29.1027
29.093
29.0867
29.0828
29.0802
29.0786
29.0774
29.0767
29.0701
29.1137
26.5022
28.4566
28.4417
28.4879
28.4084
28.4443
28.371
28.4012
28.3341
28.3613
28.2979
28.3195
28.26
28.2807
28.2247
28.2399
28.1855
28.2006
28.1514
28.1625
28.1122
28.1204
28.0756
28.0838
28.038
28.039
27.9949
27.9988
27.9594
27.9577
27.9136
27.9088
27.8711
27.8693
27.8311
27.82
27.7782
27.7686
27.7353
27.7271
27.6895
27.6703
27.6297
27.6143
27.5841
27.5714
27.5363
27.5108
27.4691
27.4449
27.4139
27.3975
27.3671
27.3394
27.2954
27.258
27.2172
27.1906
27.1628
27.141
27.1076
27.0696
27.0186
26.9685
26.9187
26.8804
26.8481
26.8244
26.799
26.7709
26.7306
26.6789
26.6134
26.5415
26.4678
26.4011
26.3449
26.3018
26.2703
26.249
26.2347
26.2256
26.2197
26.216
26.2137
26.2122
26.2112
26.2105
26.209
26.2876
26.1132
28.0857
28.0768
28.1244
28.0412
28.0772
28.0003
28.0301
27.9595
27.986
27.9193
27.9399
27.8772
27.8967
27.8376
27.8514
27.7941
27.8077
27.7557
27.7652
27.7122
27.7188
27.6715
27.678
27.6297
27.6291
27.5826
27.5849
27.5432
27.5399
27.4936
27.4872
27.4477
27.4444
27.4043
27.3918
27.3483
27.3374
27.3027
27.2932
27.2542
27.2339
27.1921
27.1757
27.1444
27.1308
27.0948
27.0684
27.026
27.0012
26.9696
26.9525
26.9216
26.8934
26.8491
26.8115
26.7705
26.7437
26.7157
26.6936
26.6601
26.6222
26.5712
26.5214
26.4718
26.4338
26.4016
26.3779
26.3526
26.3245
26.2844
26.2331
26.1681
26.0968
26.0239
25.9579
25.9022
25.8596
25.8286
25.8075
25.7934
25.7844
25.7786
25.775
25.7726
25.7712
25.7701
25.7695
25.7688
25.8447
26.0885
28.0866
28.0789
28.1263
28.0418
28.0768
27.9987
28.0277
27.956
27.9819
27.914
27.9341
27.8703
27.8893
27.8293
27.8426
27.7843
27.7974
27.7446
27.7536
27.6998
27.7059
27.6579
27.6639
27.615
27.6139
27.5668
27.5687
27.5264
27.5228
27.4759
27.4692
27.4291
27.4256
27.3851
27.3722
27.3284
27.3172
27.2822
27.2725
27.2332
27.2126
27.1706
27.154
27.1226
27.1088
27.0727
27.0462
27.0036
26.9787
26.947
26.9299
26.8989
26.8707
26.8264
26.7888
26.7477
26.721
26.6929
26.6709
26.6374
26.5995
26.5486
26.4988
26.4492
26.4112
26.3791
26.3555
26.3302
26.3022
26.2622
26.2109
26.146
26.0747
26.0018
25.9359
25.8802
25.8376
25.8066
25.7855
25.7714
25.7624
25.7566
25.7529
25.7505
25.7491
25.748
25.7474
25.7469
25.8248
26.0879
28.0851
28.0778
28.1254
28.0409
28.0759
27.9978
28.0268
27.9551
27.981
27.9132
27.9332
27.8695
27.8885
27.8285
27.8418
27.7835
27.7966
27.7438
27.7529
27.6991
27.7052
27.6572
27.6632
27.6143
27.6132
27.5661
27.568
27.5258
27.5221
27.4753
27.4686
27.4285
27.425
27.3845
27.3716
27.3278
27.3166
27.2816
27.2719
27.2327
27.2121
27.1701
27.1535
27.1221
27.1083
27.0721
27.0457
27.0031
26.9782
26.9465
26.9294
26.8985
26.8702
26.8259
26.7883
26.7472
26.7205
26.6924
26.6704
26.637
26.599
26.5481
26.4983
26.4488
26.4108
26.3787
26.355
26.3297
26.3017
26.2616
26.2104
26.1454
26.0741
26.0012
25.9352
25.8796
25.837
25.8059
25.7849
25.7708
25.7618
25.7559
25.7523
25.7499
25.7484
25.7474
25.7468
25.7466
25.8245
26.1096
28.0808
28.0706
28.118
28.0349
28.0709
27.9941
28.024
27.9535
27.9801
27.9134
27.9341
27.8714
27.891
27.832
27.8459
27.7885
27.8022
27.7503
27.7599
27.7069
27.7136
27.6663
27.6728
27.6246
27.624
27.5776
27.58
27.5383
27.5351
27.4888
27.4825
27.4429
27.4397
27.3996
27.3871
27.3437
27.3328
27.2981
27.2887
27.2497
27.2293
27.1876
27.1712
27.1399
27.1263
27.0903
27.064
27.0215
26.9967
26.9651
26.9481
26.9171
26.8889
26.8447
26.8071
26.766
26.7393
26.7112
26.6892
26.6557
26.6177
26.5668
26.517
26.4674
26.4295
26.3973
26.3736
26.3483
26.3202
26.2802
26.2289
26.164
26.0928
26.02
25.9541
25.8985
25.856
25.8251
25.804
25.79
25.781
25.7752
25.7716
25.7693
25.7678
25.7668
25.7662
25.7652
25.8408
26.483
28.4275
28.4134
28.4599
28.3805
28.4165
28.3434
28.3737
28.3068
28.3342
28.2711
28.293
28.2337
28.2547
28.199
28.2144
28.1603
28.1756
28.1268
28.1382
28.0881
28.0966
28.0522
28.0606
28.0151
28.0164
27.9726
27.9767
27.9376
27.9362
27.8924
27.8877
27.8503
27.8488
27.8108
27.7999
27.7583
27.7489
27.716
27.7079
27.6705
27.6515
27.611
27.5958
27.5658
27.5533
27.5183
27.493
27.4513
27.4273
27.3964
27.3801
27.3498
27.3222
27.2783
27.2411
27.2003
27.1738
27.146
27.1243
27.0909
27.053
27.002
26.952
26.9022
26.864
26.8317
26.808
26.7826
26.7545
26.7142
26.6626
26.5971
26.5252
26.4515
26.3849
26.3286
26.2856
26.2541
26.2327
26.2184
26.2093
26.2034
26.1997
26.1974
26.1959
26.1949
26.1943
26.1933
26.2709
29.2404
30.9857
30.9482
30.993
30.9247
30.9622
30.8995
30.9319
30.8751
30.905
30.8518
30.8769
30.8271
30.8515
30.8052
30.8249
30.7798
30.7994
30.7592
30.7755
30.7341
30.7477
30.7113
30.7251
30.6878
30.6948
30.6588
30.6684
30.6369
30.6413
30.6052
30.6063
30.576
30.5801
30.5492
30.5442
30.5093
30.5053
30.4784
30.4757
30.4444
30.4307
30.3957
30.3852
30.3599
30.3521
30.3217
30.3008
30.2631
30.2426
30.2149
30.2019
30.1746
30.15
30.1084
30.0732
30.0338
30.0087
29.982
29.9615
29.929
29.8918
29.8406
29.7901
29.7393
29.7002
29.6668
29.6424
29.6162
29.5873
29.546
29.4929
29.4255
29.3512
29.275
29.206
29.1477
29.103
29.0704
29.0482
29.0333
29.0237
29.0176
29.0137
29.0112
29.0096
29.0084
29.0077
29.0006
29.0442
46.7604
48.211
48.1737
48.2117
48.1675
48.2005
48.1607
48.19
48.1548
48.1831
48.151
48.1759
48.1462
48.1715
48.1451
48.1674
48.1414
48.1647
48.1434
48.1654
48.1429
48.1631
48.145
48.167
48.1487
48.1654
48.1474
48.1674
48.1545
48.1714
48.1541
48.168
48.1558
48.1739
48.1623
48.1727
48.1566
48.1679
48.1596
48.1738
48.1621
48.1659
48.1495
48.1559
48.1489
48.1591
48.1478
48.1449
48.1246
48.1211
48.1101
48.1144
48.104
48.0964
48.0696
48.0487
48.0218
48.0098
47.9949
47.9866
47.9639
47.9351
47.8885
47.8411
47.7912
47.753
47.7195
47.6944
47.6652
47.6307
47.5787
47.5102
47.4222
47.3244
47.2238
47.132
47.0541
46.9937
46.9493
46.9186
46.8979
46.8843
46.8754
46.8697
46.8659
46.8635
46.8616
46.8605
46.8424
46.8522
142.847
143.677
143.68
143.712
143.689
143.715
143.695
143.715
143.698
143.72
143.706
143.721
143.707
143.727
143.719
143.734
143.72
143.739
143.738
143.758
143.747
143.76
143.76
143.786
143.784
143.795
143.786
143.811
143.821
143.844
143.834
143.845
143.849
143.883
143.895
143.909
143.897
143.913
143.93
143.97
143.983
143.992
143.981
143.998
144.024
144.073
144.096
144.108
144.094
144.102
144.124
144.18
144.228
144.265
144.261
144.249
144.238
144.267
144.321
144.4
144.462
144.495
144.475
144.432
144.385
144.377
144.408
144.485
144.581
144.677
144.727
144.708
144.593
144.395
144.138
143.866
143.609
143.393
143.224
143.101
143.014
142.955
142.915
142.889
142.871
142.86
142.852
142.847
142.816
142.816
29.9637
30.769
30.7661
30.7836
30.7624
30.7791
30.7573
30.7729
30.7519
30.7697
30.7495
30.7649
30.7448
30.7633
30.7463
30.7624
30.7439
30.7624
30.7498
30.7686
30.7528
30.7694
30.7588
30.78
30.7691
30.7835
30.7712
30.7913
30.7868
30.8049
30.7931
30.8065
30.8011
30.823
30.82
30.8324
30.8211
30.8346
30.8348
30.856
30.8533
30.8606
30.849
30.8599
30.863
30.8836
30.8833
30.8868
30.872
30.8738
30.8728
30.8904
30.8953
30.9003
30.8822
30.8668
30.8464
30.8451
30.8462
30.8577
30.8544
30.8407
30.8024
30.7589
30.7118
30.6807
30.6598
30.6542
30.6482
30.638
30.6051
30.546
30.4534
30.3383
30.2106
30.0882
29.9806
29.8951
29.8312
29.7863
29.7557
29.7355
29.7223
29.7137
29.7083
29.7047
29.703
29.7015
29.6986
29.6839
26.5984
28.0431
28.0566
28.068
28.0504
28.0603
28.0427
28.051
28.0328
28.0409
28.0238
28.0304
28.0122
28.018
28.0018
28.0067
27.9889
27.9918
27.9763
27.98
27.964
27.9643
27.9485
27.9503
27.9368
27.9359
27.9194
27.9173
27.9045
27.9039
27.8897
27.8843
27.869
27.8657
27.8547
27.8504
27.835
27.8261
27.8121
27.8073
27.7969
27.7894
27.7734
27.7614
27.7474
27.7407
27.7312
27.7227
27.7072
27.6922
27.6756
27.6648
27.6551
27.6476
27.6355
27.6205
27.6012
27.5834
27.5679
27.5577
27.5497
27.5421
27.5308
27.5154
27.4958
27.4754
27.4566
27.4422
27.4329
27.4281
27.4258
27.4236
27.4192
27.4112
27.3992
27.3839
27.3665
27.3486
27.3317
27.3165
27.3038
27.2936
27.2858
27.28
27.2759
27.273
27.271
27.2696
27.2694
27.2674
24.1035
25.7165
25.7751
25.7787
25.7709
25.7726
25.7643
25.7648
25.7556
25.7563
25.7479
25.7476
25.7378
25.7372
25.7292
25.7282
25.7184
25.7161
25.7082
25.7071
25.6986
25.6949
25.6863
25.6846
25.6782
25.6744
25.665
25.6606
25.6548
25.6526
25.6453
25.639
25.6307
25.6273
25.6231
25.6194
25.6111
25.6036
25.5968
25.5941
25.5909
25.5863
25.5778
25.5695
25.5631
25.5606
25.5589
25.5555
25.5481
25.5389
25.5308
25.5266
25.5256
25.5253
25.5222
25.5149
25.505
25.4956
25.4897
25.4882
25.4899
25.4913
25.4897
25.4833
25.4731
25.4615
25.4518
25.4462
25.4457
25.4494
25.4553
25.4607
25.4632
25.4611
25.454
25.4424
25.428
25.4123
25.3969
25.3828
25.371
25.3614
25.354
25.3485
25.3446
25.3418
25.3398
25.3385
25.3367
25.3381
23.6889
25.256
25.3178
25.3214
25.3162
25.3174
25.3123
25.3123
25.3066
25.3068
25.302
25.3013
25.2952
25.2944
25.2901
25.2891
25.283
25.2808
25.2765
25.2758
25.2708
25.2677
25.2626
25.2616
25.2585
25.2556
25.2495
25.2462
25.2435
25.2425
25.2383
25.2334
25.2281
25.2262
25.2248
25.2226
25.217
25.2113
25.2071
25.2061
25.2053
25.2025
25.1963
25.1899
25.1857
25.1849
25.1853
25.1835
25.1781
25.1706
25.1644
25.1618
25.1626
25.1636
25.1621
25.1562
25.1477
25.1396
25.1351
25.1349
25.1377
25.14
25.1393
25.1337
25.1243
25.1135
25.1045
25.0996
25.0997
25.1038
25.11
25.1154
25.1178
25.1156
25.1083
25.0965
25.0818
25.0659
25.0503
25.0362
25.0243
25.0146
25.0072
25.0016
24.9977
24.9949
24.993
24.9917
24.9906
25.0002
23.4983
25.1031
25.1747
25.1795
25.1744
25.1759
25.1714
25.1716
25.1665
25.1664
25.1621
25.1611
25.1555
25.1545
25.1506
25.1495
25.1439
25.1417
25.1379
25.1373
25.1328
25.1298
25.1252
25.1244
25.1217
25.1191
25.1134
25.1104
25.1081
25.1074
25.1035
25.099
25.094
25.0923
25.0912
25.0893
25.0841
25.0786
25.0746
25.0738
25.0733
25.0707
25.0648
25.0585
25.0546
25.0539
25.0545
25.0528
25.0476
25.0402
25.0342
25.0316
25.0324
25.0335
25.0321
25.0263
25.018
25.01
25.0055
25.0052
25.008
25.0104
25.0097
25.0042
24.995
24.9842
24.9753
24.9704
24.9704
24.9745
24.9807
24.9862
24.9888
24.9868
24.9798
24.9684
24.9541
24.9384
24.9232
24.9093
24.8975
24.888
24.8807
24.8752
24.8714
24.8686
24.8667
24.8654
24.8637
24.8718
23.5371
25.1262
25.1952
25.1994
25.1943
25.1952
25.1905
25.1903
25.185
25.1851
25.1809
25.1801
25.1747
25.174
25.1703
25.1695
25.164
25.162
25.1584
25.1579
25.1535
25.1506
25.1461
25.1453
25.1428
25.1403
25.1346
25.1317
25.1295
25.1288
25.125
25.1205
25.1156
25.1139
25.1129
25.1111
25.1059
25.1004
25.0965
25.0958
25.0953
25.0927
25.0869
25.0807
25.0768
25.0762
25.0768
25.0752
25.07
25.0626
25.0566
25.0541
25.055
25.0562
25.0547
25.049
25.0407
25.0326
25.0282
25.028
25.0309
25.0332
25.0326
25.027
25.0177
25.0069
24.998
24.9931
24.9931
24.9972
25.0034
25.0088
25.0114
25.0092
25.0021
24.9905
24.9761
24.9603
24.9448
24.9308
24.9188
24.9091
24.9017
24.8961
24.8922
24.8894
24.8874
24.8861
24.8848
24.8944
23.5362
25.1249
25.1937
25.198
25.1929
25.1938
25.1891
25.189
25.1837
25.1838
25.1796
25.1789
25.1735
25.1728
25.1691
25.1683
25.1628
25.1608
25.1572
25.1568
25.1524
25.1495
25.145
25.1443
25.1418
25.1392
25.1336
25.1307
25.1285
25.1278
25.124
25.1195
25.1146
25.113
25.112
25.1101
25.105
25.0995
25.0956
25.0949
25.0945
25.0919
25.086
25.0798
25.0759
25.0753
25.0759
25.0743
25.0691
25.0618
25.0558
25.0533
25.0542
25.0553
25.0539
25.0481
25.0398
25.0318
25.0274
25.0272
25.03
25.0324
25.0317
25.0262
25.0169
25.0061
24.9971
24.9922
24.9923
24.9963
25.0025
25.0079
25.0105
25.0083
25.0012
24.9896
24.9751
24.9594
24.9439
24.9299
24.9179
24.9082
24.9008
24.8952
24.8913
24.8885
24.8865
24.8852
24.8838
24.8934
23.4956
25.099
25.17
25.1747
25.1697
25.1713
25.1668
25.167
25.162
25.162
25.1577
25.1568
25.1513
25.1503
25.1465
25.1455
25.1399
25.1378
25.1341
25.1336
25.1291
25.1262
25.1216
25.1209
25.1182
25.1157
25.1101
25.1071
25.1049
25.1042
25.1004
25.0959
25.0909
25.0893
25.0882
25.0864
25.0812
25.0757
25.0718
25.071
25.0705
25.0679
25.0621
25.0558
25.0519
25.0513
25.0518
25.0502
25.045
25.0376
25.0316
25.029
25.0299
25.031
25.0295
25.0238
25.0155
25.0074
25.003
25.0027
25.0055
25.0079
25.0072
25.0017
24.9925
24.9818
24.9728
24.9679
24.968
24.972
24.9783
24.9838
24.9864
24.9844
24.9774
24.966
24.9517
24.9361
24.9208
24.9069
24.8952
24.8856
24.8783
24.8729
24.869
24.8663
24.8643
24.863
24.8614
24.8694
23.6735
25.2319
25.2939
25.2977
25.2926
25.294
25.289
25.2892
25.2837
25.2842
25.2796
25.2791
25.2733
25.2728
25.2687
25.268
25.2621
25.2602
25.2562
25.2558
25.251
25.2481
25.2433
25.2425
25.2397
25.2371
25.2312
25.2282
25.2257
25.2249
25.2209
25.2163
25.2111
25.2094
25.2082
25.2063
25.2009
25.1953
25.1913
25.1905
25.1899
25.1872
25.1812
25.1749
25.1709
25.1702
25.1707
25.1691
25.1638
25.1564
25.1503
25.1477
25.1485
25.1497
25.1482
25.1424
25.134
25.1259
25.1215
25.1212
25.1241
25.1264
25.1257
25.1201
25.1108
25.1
25.0911
25.0861
25.0862
25.0903
25.0965
25.1019
25.1044
25.1021
25.0948
25.0831
25.0684
25.0525
25.037
25.0229
25.0109
25.0012
24.9938
24.9883
24.9844
24.9816
24.9797
24.9784
24.9768
24.9863
24.0473
25.6361
25.6924
25.6963
25.6887
25.6908
25.6828
25.6839
25.6751
25.6764
25.6685
25.6689
25.6597
25.6597
25.6524
25.6521
25.643
25.6413
25.6341
25.6338
25.626
25.6229
25.6151
25.6141
25.6084
25.6054
25.5967
25.593
25.5879
25.5864
25.5798
25.5743
25.5667
25.564
25.5605
25.5574
25.5498
25.543
25.5368
25.5348
25.5322
25.5282
25.5203
25.5127
25.5068
25.5049
25.5037
25.5008
25.4939
25.4853
25.4777
25.4739
25.4734
25.4734
25.4708
25.4639
25.4543
25.4452
25.4397
25.4385
25.4404
25.4421
25.4407
25.4345
25.4245
25.4131
25.4035
25.398
25.3976
25.4014
25.4074
25.4128
25.4153
25.4132
25.4061
25.3946
25.3802
25.3645
25.3492
25.3352
25.3234
25.3138
25.3065
25.301
25.2971
25.2944
25.2924
25.2911
25.2897
25.2914
26.4372
27.8246
27.8352
27.8474
27.8301
27.8406
27.8233
27.8325
27.8148
27.8238
27.8073
27.8149
27.7974
27.8044
27.7889
27.795
27.7781
27.7822
27.7675
27.7725
27.7575
27.7591
27.7444
27.7475
27.7351
27.7356
27.7203
27.7195
27.708
27.7088
27.6959
27.6919
27.678
27.6762
27.6665
27.6637
27.6498
27.6425
27.6299
27.6267
27.6177
27.6119
27.5973
27.587
27.5746
27.5695
27.5615
27.5547
27.5407
27.5274
27.5124
27.5033
27.4951
27.4891
27.4785
27.465
27.4473
27.4311
27.4171
27.4083
27.4016
27.3953
27.3853
27.3712
27.3528
27.3336
27.3159
27.3026
27.2942
27.2902
27.2886
27.287
27.2832
27.2757
27.2641
27.2491
27.2321
27.2145
27.1978
27.1828
27.1703
27.1602
27.1525
27.1467
27.1427
27.1398
27.1379
27.1365
27.1365
27.1356
29.6409
30.3684
30.364
30.3819
30.3607
30.3778
30.356
30.3723
30.3515
30.37
30.3501
30.3664
30.3467
30.3661
30.3495
30.3666
30.3486
30.3682
30.3561
30.376
30.3609
30.3786
30.3686
30.3911
30.3809
30.3966
30.3851
30.4065
30.4028
30.4222
30.4115
30.4263
30.4219
30.4452
30.4433
30.4573
30.4473
30.4624
30.4639
30.4867
30.4854
30.4946
30.4847
30.4975
30.5021
30.5245
30.526
30.5318
30.5191
30.5232
30.5241
30.5439
30.551
30.5584
30.5431
30.5305
30.5129
30.5143
30.5179
30.532
30.5316
30.5211
30.4864
30.4465
30.403
30.3753
30.3576
30.355
30.3522
30.3453
30.3161
30.2611
30.173
30.0625
29.9393
29.8208
29.7167
29.634
29.5722
29.5289
29.4994
29.48
29.4674
29.4591
29.454
29.4506
29.449
29.4476
29.4449
29.4342
3.28303
3.59122
3.57762
3.61026
3.58372
3.61564
3.58397
3.61407
3.57987
3.60828
3.57189
3.59659
3.55981
3.58305
3.54644
3.56553
3.52906
3.5473
3.51324
3.52812
3.49329
3.50595
3.47442
3.48594
3.45374
3.46053
3.42986
3.4377
3.4096
3.41313
3.3827
3.38414
3.35787
3.36014
3.33315
3.32918
3.30064
3.29748
3.27407
3.27052
3.24396
3.23333
3.2057
3.19761
3.1764
3.16893
3.14404
3.12818
3.09982
3.08508
3.06335
3.05216
3.02956
3.01019
2.97913
2.95416