/*--------------------------------*- C++ -*----------------------------------*\
  =========                 |
  \\      /  F ield         | OpenFOAM: The Open Source CFD Toolbox
   \\    /   O peration     | Website:  https://openfoam.org
    \\  /    A nd           | Version:  7
     \\/     M anipulation  |
\*---------------------------------------------------------------------------*/
FoamFile
{
    version     2.0;
    format      ascii;
    class       volVectorField;
    location    "1.35";
    object      U_0;
}
// * * * * * * * * * * * * * * * * * * * * * * * * * * * * * * * * * * * * * //

dimensions      [0 1 -1 0 0 0 0];

internalField   nonuniform List<vector> 
15000
(
(4.4998 0.00269123 0)
(4.49938 0.00771219 0)
(4.49746 0.0114052 0)
(4.49532 0.0122298 0)
(4.4926 0.0161901 0)
(4.48764 0.0231537 0)
(4.48194 0.025605 0)
(4.4764 0.0252708 0)
(4.46989 0.0282451 0)
(4.46236 0.0334955 0)
(4.45404 0.0370804 0)
(4.44496 0.0385674 0)
(4.43538 0.0399847 0)
(4.42534 0.0424233 0)
(4.41461 0.0453457 0)
(4.40315 0.0478303 0)
(4.39116 0.0495722 0)
(4.37874 0.0509403 0)
(4.36592 0.0524352 0)
(4.35264 0.0541702 0)
(4.33889 0.0558468 0)
(4.32474 0.0571643 0)
(4.31025 0.0581524 0)
(4.29548 0.0590702 0)
(4.28042 0.0600686 0)
(4.26506 0.0610517 0)
(4.24942 0.0618516 0)
(4.23357 0.0624434 0)
(4.21754 0.0629425 0)
(4.20133 0.0634415 0)
(4.18496 0.063916 0)
(4.16842 0.0642892 0)
(4.15176 0.0645374 0)
(4.13499 0.0647048 0)
(4.11812 0.0648368 0)
(4.10117 0.0649333 0)
(4.08413 0.06497 0)
(4.06702 0.0649399 0)
(4.04986 0.0648622 0)
(4.03266 0.064755 0)
(4.01543 0.0646201 0)
(3.99816 0.0644493 0)
(3.98088 0.0642413 0)
(3.96359 0.0640035 0)
(3.9463 0.0637425 0)
(3.92901 0.0634595 0)
(3.91173 0.0631533 0)
(3.89447 0.0628253 0)
(3.87724 0.0624793 0)
(3.86003 0.0621169 0)
(3.84285 0.0617398 0)
(3.8257 0.0613496 0)
(3.8086 0.0609458 0)
(3.79154 0.0605307 0)
(3.77452 0.0601061 0)
(3.75756 0.0596731 0)
(3.74064 0.059232 0)
(3.72378 0.058784 0)
(3.70698 0.0583305 0)
(3.69023 0.0578726 0)
(3.67355 0.0574109 0)
(3.65692 0.0569458 0)
(3.64036 0.0564779 0)
(3.62387 0.0560076 0)
(3.60744 0.0555356 0)
(3.59108 0.0550623 0)
(3.57479 0.054588 0)
(3.55856 0.0541126 0)
(3.54241 0.0536364 0)
(3.52633 0.0531596 0)
(3.51032 0.052683 0)
(3.49438 0.0522072 0)
(3.47851 0.0517329 0)
(3.46272 0.0512607 0)
(3.447 0.0507906 0)
(3.43135 0.0503227 0)
(3.41578 0.0498568 0)
(3.40028 0.049393 0)
(3.38486 0.0489312 0)
(3.36952 0.0484715 0)
(3.35425 0.0480139 0)
(3.33905 0.0475585 0)
(3.32394 0.0471052 0)
(3.3089 0.046654 0)
(3.29394 0.0462052 0)
(3.27905 0.0457589 0)
(3.26424 0.0453153 0)
(3.24951 0.0448744 0)
(3.23486 0.0444363 0)
(3.22029 0.0440008 0)
(3.20579 0.0435679 0)
(3.19137 0.0431376 0)
(3.17703 0.0427099 0)
(3.16277 0.0422847 0)
(3.14858 0.041862 0)
(3.13447 0.041442 0)
(3.12044 0.0410246 0)
(3.10649 0.0406097 0)
(3.09262 0.0401974 0)
(3.07882 0.0397875 0)
(3.06511 0.0393805 0)
(3.05147 0.0389772 0)
(3.03791 0.0385792 0)
(3.02442 0.0381884 0)
(3.01101 0.0378067 0)
(2.99768 0.037435 0)
(2.98442 0.0370731 0)
(2.97124 0.0367197 0)
(2.95813 0.0363728 0)
(2.94509 0.0360309 0)
(2.93214 0.0356933 0)
(2.91925 0.0353595 0)
(2.90645 0.0350291 0)
(2.89373 0.0347009 0)
(2.8811 0.0343737 0)
(2.86855 0.0340463 0)
(2.85608 0.0337176 0)
(2.84369 0.033386 0)
(2.83139 0.03305 0)
(2.81917 0.0327079 0)
(2.80704 0.0323586 0)
(2.79499 0.0320017 0)
(2.78302 0.0316375 0)
(2.77114 0.0312668 0)
(2.75934 0.030891 0)
(2.74763 0.0305111 0)
(2.736 0.0301283 0)
(2.72446 0.0297434 0)
(2.713 0.0293569 0)
(2.70162 0.0289691 0)
(2.69032 0.0285805 0)
(2.67911 0.0281914 0)
(2.66798 0.0278023 0)
(2.65693 0.0274137 0)
(2.64596 0.0270264 0)
(2.63506 0.0266412 0)
(2.62424 0.0262588 0)
(2.6135 0.0258801 0)
(2.60284 0.025506 0)
(2.59224 0.0251373 0)
(2.58173 0.0247748 0)
(2.57129 0.0244191 0)
(2.56092 0.0240705 0)
(2.55064 0.0237289 0)
(2.54044 0.023394 0)
(2.53031 0.0230652 0)
(2.52027 0.022742 0)
(2.51031 0.0224238 0)
(2.50043 0.02211 0)
(2.49062 0.0218 0)
(2.4809 0.0214933 0)
(2.47126 0.0211898 0)
(2.4617 0.0208891 0)
(2.45222 0.0205912 0)
(2.44281 0.0202959 0)
(2.43349 0.0200032 0)
(2.42424 0.0197128 0)
(2.41507 0.019425 0)
(2.40597 0.01914 0)
(2.39695 0.0188585 0)
(2.38801 0.0185809 0)
(2.37914 0.0183077 0)
(2.37034 0.0180385 0)
(2.36163 0.0177727 0)
(2.35298 0.0175088 0)
(2.34441 0.0172456 0)
(2.33592 0.016982 0)
(2.32749 0.0167174 0)
(2.31914 0.0164519 0)
(2.31087 0.0161862 0)
(2.30266 0.0159212 0)
(2.29454 0.0156578 0)
(2.28649 0.0153967 0)
(2.27851 0.0151384 0)
(2.27061 0.014883 0)
(2.26278 0.0146306 0)
(2.25503 0.0143815 0)
(2.24735 0.0141362 0)
(2.23974 0.0138954 0)
(2.2322 0.0136601 0)
(2.22473 0.0134312 0)
(2.21733 0.0132094 0)
(2.20999 0.0129949 0)
(2.20272 0.0127879 0)
(2.19552 0.0125878 0)
(2.18837 0.0123938 0)
(2.18129 0.0122049 0)
(2.17427 0.0120201 0)
(2.16731 0.011838 0)
(2.16041 0.0116577 0)
(2.15357 0.0114783 0)
(2.14678 0.0112991 0)
(2.14006 0.0111197 0)
(2.13339 0.0109397 0)
(2.12678 0.0107591 0)
(2.12024 0.010578 0)
(2.11375 0.0103967 0)
(2.10732 0.0102154 0)
(2.10095 0.0100346 0)
(2.09465 0.00985467 0)
(2.0884 0.00967598 0)
(2.08221 0.00949888 0)
(2.07608 0.00932371 0)
(2.07001 0.0091508 0)
(2.06399 0.00898048 0)
(2.05804 0.0088131 0)
(2.05214 0.00864896 0)
(2.04629 0.00848828 0)
(2.0405 0.0083312 0)
(2.03476 0.00817779 0)
(2.02908 0.00802811 0)
(2.02344 0.00788225 0)
(2.01786 0.00774035 0)
(2.01232 0.00760264 0)
(2.00684 0.00746938 0)
(2.0014 0.00734085 0)
(1.99601 0.0072174 0)
(1.99066 0.00709945 0)
(1.98535 0.00698754 0)
(1.98009 0.00688236 0)
(1.97487 0.00678468 0)
(1.96969 0.00669533 0)
(1.96454 0.00661496 0)
(1.95942 0.00654407 0)
(1.95434 0.00648273 0)
(1.94928 0.00643084 0)
(1.94425 0.00638785 0)
(1.93925 0.00635328 0)
(1.93427 0.00632637 0)
(1.92931 0.00630691 0)
(1.92437 0.00629462 0)
(1.91945 0.00629022 0)
(1.91454 0.00629387 0)
(1.90964 0.00630735 0)
(1.90474 0.00632955 0)
(1.89984 0.00636361 0)
(1.89494 0.00640242 0)
(1.89004 0.00645349 0)
(1.88514 0.00649045 0)
(1.88023 0.00653808 0)
(1.87532 0.00650982 0)
(1.87041 0.00650152 0)
(1.86551 0.00624879 0)
(1.86065 0.00613069 0)
(1.85574 0.00530445 0)
(1.85113 0.00514848 0)
(1.84608 0.00284903 0)
(1.8425 0.00331425 0)
(1.83652 -0.00305521 0)
(1.83723 0.00136139 0)
(4.50021 0.00674712 0)
(4.50084 0.011279 0)
(4.50195 0.0136633 0)
(4.50316 0.0161127 0)
(4.50425 0.0186654 0)
(4.50602 0.0213762 0)
(4.5085 0.0237508 0)
(4.51075 0.0258241 0)
(4.51279 0.0281111 0)
(4.51542 0.0305642 0)
(4.51865 0.0327748 0)
(4.52192 0.0346938 0)
(4.52511 0.0365663 0)
(4.52843 0.0385181 0)
(4.532 0.0404614 0)
(4.53579 0.0422597 0)
(4.5397 0.0438811 0)
(4.54363 0.0454068 0)
(4.54759 0.0469198 0)
(4.55164 0.0484154 0)
(4.55579 0.0498239 0)
(4.56002 0.0511012 0)
(4.56425 0.0522748 0)
(4.56847 0.0534054 0)
(4.5727 0.0545174 0)
(4.57695 0.0555799 0)
(4.58122 0.0565513 0)
(4.58545 0.0574303 0)
(4.58965 0.0582547 0)
(4.59382 0.0590574 0)
(4.59796 0.0598335 0)
(4.60207 0.0605548 0)
(4.60613 0.0612068 0)
(4.61014 0.0618043 0)
(4.61409 0.0623733 0)
(4.61798 0.0629231 0)
(4.62181 0.063442 0)
(4.62558 0.0639156 0)
(4.62928 0.0643445 0)
(4.63291 0.0647423 0)
(4.63646 0.0651205 0)
(4.63995 0.0654781 0)
(4.64336 0.0658065 0)
(4.64669 0.0661013 0)
(4.64994 0.0663676 0)
(4.65312 0.0666147 0)
(4.65622 0.0668469 0)
(4.65924 0.0670615 0)
(4.66218 0.0672543 0)
(4.66504 0.0674251 0)
(4.66783 0.0675789 0)
(4.67053 0.0677204 0)
(4.67316 0.0678505 0)
(4.67571 0.0679667 0)
(4.67818 0.0680673 0)
(4.68057 0.0681535 0)
(4.68289 0.0682287 0)
(4.68513 0.0682953 0)
(4.6873 0.0683531 0)
(4.68939 0.0684007 0)
(4.69141 0.0684375 0)
(4.69335 0.0684646 0)
(4.69522 0.0684837 0)
(4.69703 0.0684955 0)
(4.69876 0.0684996 0)
(4.70042 0.0684957 0)
(4.70201 0.0684845 0)
(4.70354 0.0684673 0)
(4.705 0.0684453 0)
(4.70639 0.0684183 0)
(4.70771 0.0683856 0)
(4.70897 0.0683468 0)
(4.71016 0.0683021 0)
(4.71129 0.0682525 0)
(4.71236 0.0681983 0)
(4.71336 0.0681392 0)
(4.7143 0.0680748 0)
(4.71518 0.0680046 0)
(4.716 0.0679284 0)
(4.71676 0.0678469 0)
(4.71746 0.0677606 0)
(4.7181 0.0676702 0)
(4.71869 0.0675766 0)
(4.71922 0.0674805 0)
(4.7197 0.0673823 0)
(4.72013 0.0672818 0)
(4.7205 0.0671784 0)
(4.72082 0.0670711 0)
(4.72109 0.0669596 0)
(4.7213 0.066844 0)
(4.72147 0.0667249 0)
(4.72158 0.0666028 0)
(4.72164 0.066478 0)
(4.72166 0.0663502 0)
(4.72163 0.0662192 0)
(4.72154 0.0660844 0)
(4.72141 0.0659459 0)
(4.72124 0.0658041 0)
(4.72101 0.0656595 0)
(4.72075 0.0655128 0)
(4.72043 0.0653647 0)
(4.72008 0.0652154 0)
(4.71968 0.065065 0)
(4.71924 0.0649132 0)
(4.71877 0.0647595 0)
(4.71825 0.0646033 0)
(4.7177 0.0644442 0)
(4.71712 0.0642814 0)
(4.7165 0.0641145 0)
(4.71585 0.0639429 0)
(4.71517 0.0637662 0)
(4.71445 0.0635843 0)
(4.7137 0.0633975 0)
(4.7129 0.0632064 0)
(4.71207 0.0630116 0)
(4.71119 0.0628135 0)
(4.71028 0.0626123 0)
(4.70933 0.0624081 0)
(4.70834 0.0622008 0)
(4.70733 0.0619905 0)
(4.70628 0.0617774 0)
(4.7052 0.061562 0)
(4.70409 0.0613452 0)
(4.70296 0.0611279 0)
(4.70179 0.0609111 0)
(4.70059 0.060696 0)
(4.69937 0.0604836 0)
(4.69811 0.0602747 0)
(4.69682 0.06007 0)
(4.6955 0.0598702 0)
(4.69415 0.0596755 0)
(4.69277 0.0594862 0)
(4.69136 0.059302 0)
(4.68992 0.0591217 0)
(4.68844 0.0589431 0)
(4.68693 0.058763 0)
(4.6854 0.058577 0)
(4.68383 0.0583803 0)
(4.68223 0.0581688 0)
(4.68062 0.0579393 0)
(4.67897 0.0576906 0)
(4.67731 0.0574236 0)
(4.67563 0.0571406 0)
(4.67393 0.0568448 0)
(4.67222 0.0565401 0)
(4.67049 0.0562304 0)
(4.66874 0.0559194 0)
(4.66698 0.0556104 0)
(4.66521 0.055306 0)
(4.66342 0.0550079 0)
(4.66162 0.0547173 0)
(4.65981 0.0544343 0)
(4.65799 0.0541586 0)
(4.65615 0.0538894 0)
(4.6543 0.0536256 0)
(4.65243 0.0533663 0)
(4.65055 0.0531104 0)
(4.64865 0.052857 0)
(4.64673 0.0526055 0)
(4.6448 0.0523554 0)
(4.64285 0.0521063 0)
(4.64089 0.0518576 0)
(4.63891 0.0516089 0)
(4.63692 0.0513596 0)
(4.63491 0.0511096 0)
(4.63289 0.0508585 0)
(4.63085 0.0506064 0)
(4.6288 0.0503533 0)
(4.62674 0.0500996 0)
(4.62466 0.0498456 0)
(4.62256 0.0495916 0)
(4.62046 0.0493378 0)
(4.61833 0.0490844 0)
(4.6162 0.0488314 0)
(4.61406 0.048579 0)
(4.61191 0.048327 0)
(4.60974 0.0480756 0)
(4.60757 0.0478245 0)
(4.60539 0.0475738 0)
(4.60319 0.0473236 0)
(4.60099 0.047074 0)
(4.59878 0.0468255 0)
(4.59656 0.0465788 0)
(4.59433 0.0463347 0)
(4.59209 0.0460942 0)
(4.58984 0.0458577 0)
(4.58758 0.0456256 0)
(4.58532 0.0453976 0)
(4.58305 0.0451731 0)
(4.58077 0.0449511 0)
(4.57849 0.0447304 0)
(4.5762 0.0445096 0)
(4.57391 0.0442879 0)
(4.5716 0.0440647 0)
(4.5693 0.0438398 0)
(4.56699 0.0436135 0)
(4.56467 0.0433861 0)
(4.56235 0.0431585 0)
(4.56002 0.0429313 0)
(4.55769 0.0427051 0)
(4.55535 0.0424804 0)
(4.55301 0.0422575 0)
(4.55066 0.0420368 0)
(4.5483 0.0418181 0)
(4.54594 0.0416019 0)
(4.54358 0.041388 0)
(4.5412 0.0411766 0)
(4.53882 0.0409681 0)
(4.53644 0.0407624 0)
(4.53405 0.0405599 0)
(4.53165 0.0403606 0)
(4.52924 0.0401646 0)
(4.52683 0.0399721 0)
(4.52442 0.0397831 0)
(4.52199 0.0395979 0)
(4.51956 0.0394167 0)
(4.51712 0.0392398 0)
(4.51468 0.0390674 0)
(4.51223 0.0388997 0)
(4.50977 0.0387369 0)
(4.50731 0.0385793 0)
(4.50483 0.038427 0)
(4.50235 0.0382804 0)
(4.49987 0.0381398 0)
(4.49737 0.0380058 0)
(4.49486 0.0378786 0)
(4.49235 0.0377593 0)
(4.48982 0.0376486 0)
(4.48728 0.0375478 0)
(4.48473 0.0374583 0)
(4.48216 0.0373814 0)
(4.47958 0.0373185 0)
(4.47698 0.0372713 0)
(4.47436 0.0372419 0)
(4.47171 0.0372317 0)
(4.46904 0.0372441 0)
(4.46633 0.0372785 0)
(4.46358 0.0373405 0)
(4.46077 0.0374258 0)
(4.45791 0.0375486 0)
(4.45493 0.0376947 0)
(4.45187 0.0378992 0)
(4.4486 0.0381195 0)
(4.44527 0.0384394 0)
(4.44149 0.0387478 0)
(4.43778 0.0392476 0)
(4.43309 0.0396708 0)
(4.42898 0.0404849 0)
(4.42261 0.0410547 0)
(4.41892 0.0423903 0)
(4.50015 0.0093021 0)
(4.50056 0.0136149 0)
(4.50115 0.014748 0)
(4.50198 0.0163382 0)
(4.50293 0.0179522 0)
(4.50406 0.0196262 0)
(4.50539 0.0212618 0)
(4.50684 0.0227582 0)
(4.50838 0.024211 0)
(4.51008 0.0257097 0)
(4.51195 0.0272125 0)
(4.51396 0.0286489 0)
(4.51606 0.0299861 0)
(4.51828 0.031249 0)
(4.52065 0.0325009 0)
(4.52314 0.0337639 0)
(4.52573 0.0349944 0)
(4.52842 0.0361382 0)
(4.53121 0.0371915 0)
(4.53409 0.0382028 0)
(4.53708 0.0392072 0)
(4.54016 0.0401898 0)
(4.54331 0.0411113 0)
(4.54653 0.0419565 0)
(4.54983 0.0427489 0)
(4.5532 0.0435235 0)
(4.55664 0.0442846 0)
(4.56014 0.0450051 0)
(4.5637 0.0456655 0)
(4.5673 0.0462733 0)
(4.57097 0.0468529 0)
(4.57468 0.0474176 0)
(4.57844 0.0479579 0)
(4.58223 0.0484568 0)
(4.58607 0.0489109 0)
(4.58994 0.0493334 0)
(4.59384 0.049739 0)
(4.59778 0.0501297 0)
(4.60175 0.0504964 0)
(4.60575 0.0508316 0)
(4.60976 0.0511387 0)
(4.61381 0.0514272 0)
(4.61787 0.0517028 0)
(4.62196 0.0519625 0)
(4.62606 0.0522005 0)
(4.63018 0.0524153 0)
(4.63431 0.0526119 0)
(4.63846 0.0527963 0)
(4.64262 0.0529696 0)
(4.64679 0.0531289 0)
(4.65097 0.0532712 0)
(4.65515 0.0533977 0)
(4.65934 0.0535123 0)
(4.66354 0.0536179 0)
(4.66775 0.0537142 0)
(4.67195 0.053799 0)
(4.67616 0.0538714 0)
(4.68038 0.0539334 0)
(4.68459 0.0539879 0)
(4.68881 0.0540366 0)
(4.69303 0.0540786 0)
(4.69724 0.0541123 0)
(4.70146 0.054137 0)
(4.70567 0.0541533 0)
(4.70989 0.0541623 0)
(4.7141 0.0541651 0)
(4.71831 0.054162 0)
(4.72251 0.0541538 0)
(4.72671 0.0541416 0)
(4.73091 0.0541263 0)
(4.7351 0.0541081 0)
(4.73928 0.054086 0)
(4.74346 0.0540591 0)
(4.74763 0.0540272 0)
(4.75179 0.0539915 0)
(4.75594 0.0539531 0)
(4.76009 0.0539126 0)
(4.76422 0.0538692 0)
(4.76835 0.0538211 0)
(4.77247 0.0537666 0)
(4.77657 0.0537051 0)
(4.78067 0.0536368 0)
(4.78476 0.0535633 0)
(4.78884 0.0534871 0)
(4.79291 0.0534104 0)
(4.79697 0.0533346 0)
(4.80102 0.05326 0)
(4.80506 0.0531852 0)
(4.80908 0.0531081 0)
(4.81309 0.0530268 0)
(4.8171 0.0529409 0)
(4.82108 0.0528514 0)
(4.82506 0.0527601 0)
(4.82903 0.0526689 0)
(4.83298 0.0525784 0)
(4.83691 0.0524879 0)
(4.84084 0.0523958 0)
(4.84474 0.0523007 0)
(4.84864 0.0522017 0)
(4.85251 0.0520989 0)
(4.85638 0.0519934 0)
(4.86023 0.0518863 0)
(4.86407 0.0517787 0)
(4.86789 0.051671 0)
(4.8717 0.0515632 0)
(4.8755 0.0514549 0)
(4.87928 0.0513452 0)
(4.88305 0.0512329 0)
(4.88679 0.0511167 0)
(4.89052 0.050995 0)
(4.89424 0.0508666 0)
(4.89793 0.0507304 0)
(4.9016 0.0505863 0)
(4.90526 0.0504353 0)
(4.90889 0.0502791 0)
(4.91251 0.05012 0)
(4.91611 0.0499597 0)
(4.91969 0.049799 0)
(4.92324 0.0496381 0)
(4.92678 0.0494766 0)
(4.9303 0.0493136 0)
(4.9338 0.0491486 0)
(4.93727 0.0489812 0)
(4.94073 0.0488118 0)
(4.94416 0.0486409 0)
(4.94758 0.0484691 0)
(4.95097 0.0482972 0)
(4.95435 0.0481256 0)
(4.9577 0.0479549 0)
(4.96104 0.0477853 0)
(4.96437 0.0476173 0)
(4.96767 0.0474514 0)
(4.97096 0.0472883 0)
(4.97424 0.0471286 0)
(4.9775 0.0469726 0)
(4.98075 0.04682 0)
(4.98398 0.0466702 0)
(4.9872 0.0465221 0)
(4.99041 0.0463744 0)
(4.9936 0.046226 0)
(4.99677 0.046076 0)
(4.99992 0.0459242 0)
(5.00306 0.0457704 0)
(5.00616 0.0456149 0)
(5.00925 0.0454579 0)
(5.0123 0.0452997 0)
(5.01534 0.0451405 0)
(5.01834 0.0449804 0)
(5.02132 0.0448194 0)
(5.02427 0.0446578 0)
(5.02719 0.0444957 0)
(5.03009 0.0443335 0)
(5.03297 0.0441713 0)
(5.03582 0.0440094 0)
(5.03865 0.043848 0)
(5.04146 0.0436872 0)
(5.04425 0.0435269 0)
(5.04702 0.0433671 0)
(5.04976 0.0432074 0)
(5.05249 0.0430473 0)
(5.05519 0.042886 0)
(5.05787 0.0427226 0)
(5.06054 0.0425566 0)
(5.06318 0.0423874 0)
(5.0658 0.0422151 0)
(5.06841 0.04204 0)
(5.07099 0.0418631 0)
(5.07356 0.0416853 0)
(5.0761 0.0415075 0)
(5.07863 0.0413305 0)
(5.08114 0.0411547 0)
(5.08363 0.0409801 0)
(5.0861 0.0408066 0)
(5.08855 0.040634 0)
(5.09098 0.0404624 0)
(5.09339 0.0402917 0)
(5.09578 0.0401224 0)
(5.09816 0.0399547 0)
(5.10051 0.039789 0)
(5.10285 0.0396256 0)
(5.10517 0.0394647 0)
(5.10747 0.0393063 0)
(5.10975 0.0391502 0)
(5.112 0.0389964 0)
(5.11424 0.0388448 0)
(5.11646 0.0386949 0)
(5.11867 0.0385467 0)
(5.12085 0.0383997 0)
(5.12301 0.0382534 0)
(5.12516 0.0381071 0)
(5.12729 0.0379601 0)
(5.1294 0.0378116 0)
(5.13149 0.0376612 0)
(5.13357 0.0375085 0)
(5.13563 0.0373536 0)
(5.13767 0.0371969 0)
(5.13969 0.0370392 0)
(5.1417 0.0368815 0)
(5.14368 0.0367248 0)
(5.14566 0.03657 0)
(5.14761 0.0364179 0)
(5.14955 0.0362688 0)
(5.15147 0.0361231 0)
(5.15337 0.0359806 0)
(5.15525 0.0358412 0)
(5.15712 0.0357048 0)
(5.15897 0.035571 0)
(5.1608 0.0354399 0)
(5.16261 0.0353114 0)
(5.16441 0.0351857 0)
(5.16619 0.0350632 0)
(5.16796 0.0349442 0)
(5.16971 0.0348293 0)
(5.17145 0.034719 0)
(5.17316 0.0346137 0)
(5.17487 0.0345136 0)
(5.17656 0.0344192 0)
(5.17823 0.0343306 0)
(5.17989 0.034248 0)
(5.18154 0.0341717 0)
(5.18317 0.0341018 0)
(5.18478 0.034039 0)
(5.18638 0.0339838 0)
(5.18797 0.033937 0)
(5.18954 0.0338993 0)
(5.1911 0.0338719 0)
(5.19264 0.0338558 0)
(5.19417 0.0338522 0)
(5.19568 0.0338628 0)
(5.19718 0.0338889 0)
(5.19867 0.0339328 0)
(5.20014 0.0339962 0)
(5.20159 0.0340826 0)
(5.20303 0.0341932 0)
(5.20445 0.0343335 0)
(5.20585 0.034504 0)
(5.20724 0.0347143 0)
(5.20861 0.0349615 0)
(5.20997 0.0352653 0)
(5.21131 0.0356145 0)
(5.21264 0.0360516 0)
(5.21397 0.0365436 0)
(5.21529 0.037183 0)
(5.21665 0.0378766 0)
(5.21798 0.0388332 0)
(5.21941 0.0398067 0)
(5.22079 0.0412858 0)
(5.22238 0.0426347 0)
(5.22384 0.0450181 0)
(5.22575 0.0467952 0)
(4.50013 0.0116802 0)
(4.50063 0.0164677 0)
(4.50128 0.0170703 0)
(4.50209 0.0183548 0)
(4.50298 0.019666 0)
(4.50397 0.0209265 0)
(4.50514 0.0221489 0)
(4.50647 0.023338 0)
(4.50792 0.0245027 0)
(4.50948 0.0256401 0)
(4.51117 0.0267476 0)
(4.51301 0.02782 0)
(4.51497 0.0288572 0)
(4.51704 0.0298637 0)
(4.51921 0.0308402 0)
(4.52148 0.0317875 0)
(4.52388 0.0326996 0)
(4.52639 0.0335714 0)
(4.52898 0.0344047 0)
(4.53164 0.0351996 0)
(4.53438 0.0359578 0)
(4.53722 0.0366813 0)
(4.54015 0.0373699 0)
(4.54314 0.0380264 0)
(4.54618 0.0386564 0)
(4.54929 0.0392607 0)
(4.55247 0.0398361 0)
(4.5557 0.0403821 0)
(4.559 0.0408981 0)
(4.56235 0.0413855 0)
(4.56575 0.041845 0)
(4.56921 0.0422772 0)
(4.57271 0.0426824 0)
(4.57625 0.0430604 0)
(4.57983 0.0434133 0)
(4.58345 0.0437438 0)
(4.5871 0.0440544 0)
(4.59078 0.044346 0)
(4.59449 0.0446182 0)
(4.59823 0.0448706 0)
(4.602 0.0451042 0)
(4.60579 0.0453209 0)
(4.6096 0.0455221 0)
(4.61344 0.0457082 0)
(4.61729 0.0458797 0)
(4.62116 0.0460366 0)
(4.62505 0.0461801 0)
(4.62895 0.0463117 0)
(4.63287 0.0464326 0)
(4.6368 0.0465438 0)
(4.64074 0.0466459 0)
(4.64469 0.0467395 0)
(4.64865 0.0468246 0)
(4.65262 0.0469011 0)
(4.6566 0.0469686 0)
(4.66058 0.0470269 0)
(4.66457 0.0470767 0)
(4.66857 0.0471197 0)
(4.67258 0.0471573 0)
(4.67658 0.0471907 0)
(4.6806 0.0472199 0)
(4.68461 0.0472443 0)
(4.68864 0.0472628 0)
(4.69266 0.0472747 0)
(4.69668 0.0472801 0)
(4.70071 0.0472798 0)
(4.70474 0.0472752 0)
(4.70877 0.0472681 0)
(4.7128 0.0472597 0)
(4.71684 0.0472507 0)
(4.72087 0.0472405 0)
(4.7249 0.0472283 0)
(4.72893 0.0472134 0)
(4.73296 0.0471958 0)
(4.73698 0.0471762 0)
(4.74101 0.0471552 0)
(4.74503 0.0471329 0)
(4.74905 0.0471086 0)
(4.75307 0.0470804 0)
(4.75709 0.0470465 0)
(4.7611 0.0470056 0)
(4.76511 0.0469585 0)
(4.76911 0.0469075 0)
(4.77312 0.0468557 0)
(4.77712 0.0468064 0)
(4.78112 0.0467611 0)
(4.78511 0.0467192 0)
(4.7891 0.0466783 0)
(4.79309 0.0466349 0)
(4.79707 0.0465869 0)
(4.80104 0.046534 0)
(4.80501 0.046478 0)
(4.80898 0.046422 0)
(4.81294 0.0463683 0)
(4.81689 0.0463178 0)
(4.82084 0.046269 0)
(4.82478 0.0462192 0)
(4.82872 0.0461659 0)
(4.83265 0.0461074 0)
(4.83657 0.0460439 0)
(4.84049 0.0459769 0)
(4.8444 0.0459083 0)
(4.84831 0.0458395 0)
(4.85221 0.0457714 0)
(4.8561 0.0457039 0)
(4.85999 0.0456368 0)
(4.86387 0.0455695 0)
(4.86774 0.0455015 0)
(4.87161 0.0454326 0)
(4.87547 0.0453622 0)
(4.87932 0.0452896 0)
(4.88316 0.0452144 0)
(4.887 0.0451364 0)
(4.89082 0.0450561 0)
(4.89464 0.0449749 0)
(4.89844 0.044894 0)
(4.90224 0.0448147 0)
(4.90602 0.0447373 0)
(4.90979 0.0446617 0)
(4.91354 0.0445868 0)
(4.91729 0.0445112 0)
(4.92102 0.0444339 0)
(4.92474 0.0443545 0)
(4.92845 0.044273 0)
(4.93215 0.0441904 0)
(4.93583 0.0441076 0)
(4.9395 0.0440251 0)
(4.94316 0.0439435 0)
(4.94681 0.0438624 0)
(4.95045 0.0437818 0)
(4.95407 0.0437015 0)
(4.95769 0.0436215 0)
(4.96129 0.0435423 0)
(4.96488 0.0434642 0)
(4.96845 0.0433873 0)
(4.97202 0.0433112 0)
(4.97558 0.0432346 0)
(4.97912 0.0431561 0)
(4.98265 0.0430739 0)
(4.98617 0.0429865 0)
(4.98968 0.0428933 0)
(4.99318 0.0427939 0)
(4.99667 0.0426887 0)
(5.00014 0.0425782 0)
(5.0036 0.0424631 0)
(5.00705 0.0423442 0)
(5.01048 0.042222 0)
(5.0139 0.0420971 0)
(5.0173 0.0419701 0)
(5.02069 0.0418415 0)
(5.02407 0.041712 0)
(5.02743 0.0415821 0)
(5.03079 0.0414526 0)
(5.03412 0.0413241 0)
(5.03745 0.0411976 0)
(5.04076 0.0410739 0)
(5.04406 0.0409537 0)
(5.04734 0.0408374 0)
(5.05061 0.0407249 0)
(5.05387 0.0406156 0)
(5.05711 0.040508 0)
(5.06034 0.0404008 0)
(5.06355 0.0402922 0)
(5.06675 0.0401814 0)
(5.06993 0.0400679 0)
(5.0731 0.0399523 0)
(5.07625 0.0398356 0)
(5.07939 0.039719 0)
(5.08251 0.0396037 0)
(5.08563 0.0394901 0)
(5.08872 0.0393783 0)
(5.0918 0.0392676 0)
(5.09487 0.0391572 0)
(5.09792 0.0390465 0)
(5.10096 0.0389351 0)
(5.10399 0.0388234 0)
(5.107 0.0387117 0)
(5.11 0.0386006 0)
(5.11298 0.0384908 0)
(5.11595 0.0383827 0)
(5.11891 0.0382767 0)
(5.12185 0.0381727 0)
(5.12478 0.0380706 0)
(5.1277 0.0379702 0)
(5.1306 0.0378715 0)
(5.13349 0.0377744 0)
(5.13637 0.0376787 0)
(5.13923 0.0375845 0)
(5.14208 0.0374916 0)
(5.14492 0.0373995 0)
(5.14774 0.0373077 0)
(5.15055 0.0372155 0)
(5.15335 0.0371218 0)
(5.15613 0.0370259 0)
(5.1589 0.0369274 0)
(5.16166 0.0368263 0)
(5.1644 0.0367231 0)
(5.16713 0.0366189 0)
(5.16985 0.0365151 0)
(5.17255 0.0364129 0)
(5.17525 0.0363134 0)
(5.17793 0.0362173 0)
(5.1806 0.036125 0)
(5.18325 0.0360361 0)
(5.18589 0.0359502 0)
(5.18852 0.0358669 0)
(5.19114 0.0357852 0)
(5.19374 0.035705 0)
(5.19633 0.0356262 0)
(5.19891 0.0355488 0)
(5.20148 0.0354731 0)
(5.20404 0.0353997 0)
(5.20658 0.0353293 0)
(5.20911 0.0352627 0)
(5.21163 0.0352004 0)
(5.21414 0.0351431 0)
(5.21664 0.0350907 0)
(5.21913 0.0350433 0)
(5.22161 0.0350007 0)
(5.22407 0.0349627 0)
(5.22653 0.0349287 0)
(5.22898 0.0348986 0)
(5.23142 0.0348729 0)
(5.23386 0.0348524 0)
(5.23628 0.0348384 0)
(5.2387 0.0348327 0)
(5.24111 0.034837 0)
(5.24352 0.0348525 0)
(5.24592 0.034881 0)
(5.24832 0.0349239 0)
(5.25071 0.0349832 0)
(5.25311 0.03506 0)
(5.2555 0.0351567 0)
(5.2579 0.0352753 0)
(5.2603 0.0354186 0)
(5.2627 0.0355889 0)
(5.26512 0.0357914 0)
(5.26754 0.0360291 0)
(5.26997 0.0363098 0)
(5.27242 0.0366341 0)
(5.27488 0.0370133 0)
(5.27736 0.0374419 0)
(5.27987 0.0379418 0)
(5.28239 0.0384921 0)
(5.28494 0.0391384 0)
(5.28752 0.0398208 0)
(5.29016 0.0406453 0)
(5.29283 0.0414655 0)
(5.29565 0.0425259 0)
(5.29854 0.0434481 0)
(4.50009 0.0131832 0)
(4.50048 0.0179131 0)
(4.50103 0.0177642 0)
(4.50174 0.0184055 0)
(4.50255 0.0190832 0)
(4.5035 0.0197215 0)
(4.50459 0.0203427 0)
(4.50582 0.0209507 0)
(4.50718 0.0215476 0)
(4.5087 0.022129 0)
(4.51035 0.0226927 0)
(4.51209 0.0232394 0)
(4.51394 0.0237699 0)
(4.51592 0.0242862 0)
(4.51803 0.0247879 0)
(4.52025 0.0252771 0)
(4.52255 0.0257496 0)
(4.52494 0.0261965 0)
(4.52745 0.0266173 0)
(4.53005 0.0270154 0)
(4.53275 0.0273963 0)
(4.53552 0.0277609 0)
(4.53837 0.0281072 0)
(4.5413 0.0284374 0)
(4.54433 0.0287566 0)
(4.54741 0.029064 0)
(4.55056 0.0293585 0)
(4.55376 0.0296406 0)
(4.55702 0.0299088 0)
(4.56032 0.0301637 0)
(4.56367 0.0304062 0)
(4.56707 0.0306351 0)
(4.57052 0.030849 0)
(4.57401 0.031048 0)
(4.57754 0.0312335 0)
(4.58111 0.0314072 0)
(4.58471 0.0315704 0)
(4.58835 0.0317229 0)
(4.59202 0.0318646 0)
(4.59571 0.031996 0)
(4.59943 0.0321181 0)
(4.60318 0.0322317 0)
(4.60695 0.0323376 0)
(4.61074 0.0324356 0)
(4.61456 0.0325255 0)
(4.61839 0.0326073 0)
(4.62224 0.0326816 0)
(4.62611 0.032749 0)
(4.62999 0.0328104 0)
(4.63389 0.0328666 0)
(4.63779 0.0329182 0)
(4.64171 0.032965 0)
(4.64564 0.0330068 0)
(4.64958 0.0330435 0)
(4.65353 0.0330746 0)
(4.65749 0.0331001 0)
(4.66145 0.0331205 0)
(4.66542 0.0331369 0)
(4.66939 0.0331505 0)
(4.67337 0.0331624 0)
(4.67735 0.0331726 0)
(4.68133 0.0331801 0)
(4.68532 0.0331833 0)
(4.68931 0.0331811 0)
(4.69331 0.0331733 0)
(4.6973 0.0331611 0)
(4.7013 0.0331465 0)
(4.7053 0.0331317 0)
(4.7093 0.0331177 0)
(4.7133 0.0331044 0)
(4.71729 0.0330907 0)
(4.72129 0.0330752 0)
(4.72529 0.0330574 0)
(4.72928 0.0330373 0)
(4.73327 0.0330159 0)
(4.73726 0.0329943 0)
(4.74125 0.0329727 0)
(4.74524 0.0329498 0)
(4.74922 0.0329235 0)
(4.7532 0.0328912 0)
(4.75717 0.0328515 0)
(4.76114 0.0328047 0)
(4.76511 0.0327533 0)
(4.76908 0.0327014 0)
(4.77304 0.0326527 0)
(4.777 0.0326092 0)
(4.78095 0.0325702 0)
(4.7849 0.0325329 0)
(4.78885 0.0324935 0)
(4.79279 0.0324495 0)
(4.79672 0.0324005 0)
(4.80065 0.0323487 0)
(4.80457 0.0322972 0)
(4.80849 0.0322488 0)
(4.8124 0.0322038 0)
(4.81631 0.0321606 0)
(4.82021 0.0321159 0)
(4.8241 0.0320666 0)
(4.82799 0.0320113 0)
(4.83186 0.0319505 0)
(4.83574 0.0318861 0)
(4.8396 0.0318207 0)
(4.84346 0.0317563 0)
(4.84732 0.0316935 0)
(4.85116 0.0316325 0)
(4.855 0.0315727 0)
(4.85883 0.0315135 0)
(4.86266 0.0314544 0)
(4.86647 0.0313946 0)
(4.87027 0.0313332 0)
(4.87407 0.0312689 0)
(4.87786 0.0312007 0)
(4.88163 0.0311282 0)
(4.8854 0.0310521 0)
(4.88916 0.0309736 0)
(4.8929 0.0308946 0)
(4.89664 0.0308167 0)
(4.90036 0.0307405 0)
(4.90408 0.0306655 0)
(4.90778 0.0305906 0)
(4.91147 0.0305142 0)
(4.91516 0.0304352 0)
(4.91883 0.0303528 0)
(4.92248 0.0302675 0)
(4.92613 0.0301797 0)
(4.92977 0.0300906 0)
(4.9334 0.0300008 0)
(4.93701 0.0299105 0)
(4.94062 0.02982 0)
(4.94421 0.0297293 0)
(4.9478 0.0296388 0)
(4.95137 0.0295492 0)
(4.95494 0.0294615 0)
(4.95849 0.0293767 0)
(4.96203 0.0292951 0)
(4.96557 0.0292168 0)
(4.96909 0.0291407 0)
(4.9726 0.0290658 0)
(4.97611 0.028991 0)
(4.9796 0.0289155 0)
(4.98308 0.0288392 0)
(4.98654 0.0287621 0)
(4.99 0.0286849 0)
(4.99344 0.0286081 0)
(4.99687 0.0285318 0)
(5.00029 0.028456 0)
(5.00368 0.0283804 0)
(5.00707 0.0283044 0)
(5.01044 0.0282277 0)
(5.01379 0.0281498 0)
(5.01713 0.0280706 0)
(5.02045 0.0279903 0)
(5.02376 0.0279092 0)
(5.02706 0.027828 0)
(5.03034 0.0277474 0)
(5.03361 0.0276685 0)
(5.03687 0.027593 0)
(5.04011 0.0275215 0)
(5.04334 0.0274537 0)
(5.04655 0.0273886 0)
(5.04975 0.0273241 0)
(5.05293 0.0272579 0)
(5.0561 0.0271886 0)
(5.05926 0.0271149 0)
(5.0624 0.0270366 0)
(5.06553 0.0269544 0)
(5.06865 0.0268698 0)
(5.07175 0.0267845 0)
(5.07484 0.0266998 0)
(5.07792 0.0266164 0)
(5.08098 0.0265342 0)
(5.08403 0.0264528 0)
(5.08707 0.0263715 0)
(5.0901 0.0262896 0)
(5.09311 0.0262071 0)
(5.09611 0.026124 0)
(5.09909 0.026041 0)
(5.10207 0.025959 0)
(5.10503 0.025879 0)
(5.10798 0.0258014 0)
(5.11091 0.0257264 0)
(5.11384 0.0256539 0)
(5.11674 0.0255836 0)
(5.11964 0.025515 0)
(5.12252 0.0254479 0)
(5.12539 0.0253823 0)
(5.12825 0.0253184 0)
(5.13109 0.0252564 0)
(5.13392 0.0251962 0)
(5.13673 0.0251375 0)
(5.13954 0.0250793 0)
(5.14233 0.0250207 0)
(5.14511 0.0249603 0)
(5.14787 0.0248973 0)
(5.15063 0.0248308 0)
(5.15337 0.0247608 0)
(5.1561 0.0246882 0)
(5.15882 0.0246139 0)
(5.16153 0.0245396 0)
(5.16422 0.024467 0)
(5.1669 0.0243973 0)
(5.16957 0.0243314 0)
(5.17223 0.0242697 0)
(5.17488 0.0242119 0)
(5.17752 0.0241573 0)
(5.18014 0.0241048 0)
(5.18275 0.0240539 0)
(5.18536 0.0240036 0)
(5.18795 0.0239537 0)
(5.19053 0.0239044 0)
(5.1931 0.0238558 0)
(5.19566 0.0238088 0)
(5.19821 0.0237637 0)
(5.20075 0.023721 0)
(5.20329 0.0236818 0)
(5.20581 0.0236472 0)
(5.20833 0.0236173 0)
(5.21083 0.0235921 0)
(5.21333 0.0235715 0)
(5.21582 0.0235552 0)
(5.2183 0.0235435 0)
(5.22077 0.0235368 0)
(5.22324 0.023535 0)
(5.2257 0.0235389 0)
(5.22817 0.0235488 0)
(5.23063 0.0235652 0)
(5.2331 0.0235891 0)
(5.23556 0.0236215 0)
(5.23802 0.0236637 0)
(5.24049 0.0237167 0)
(5.24296 0.0237812 0)
(5.24543 0.0238582 0)
(5.2479 0.0239492 0)
(5.25039 0.0240553 0)
(5.25288 0.0241788 0)
(5.25539 0.0243219 0)
(5.25792 0.0244873 0)
(5.26047 0.0246764 0)
(5.26305 0.0248936 0)
(5.26565 0.0251388 0)
(5.2683 0.0254194 0)
(5.27099 0.0257324 0)
(5.27373 0.02609 0)
(5.27654 0.026483 0)
(5.27942 0.0269379 0)
(5.28237 0.0274333 0)
(5.28545 0.0280235 0)
(5.28864 0.0286388 0)
(5.29198 0.0294011 0)
(5.29541 0.0301371 0)
(4.50005 0.0139174 0)
(4.50045 0.0184968 0)
(4.50105 0.0178769 0)
(4.50178 0.0181317 0)
(4.50261 0.0184424 0)
(4.50355 0.0187095 0)
(4.50462 0.0189665 0)
(4.50583 0.0192257 0)
(4.50717 0.0194853 0)
(4.50864 0.0197407 0)
(4.51022 0.0199821 0)
(4.51193 0.0202161 0)
(4.51377 0.0204491 0)
(4.51571 0.0206802 0)
(4.51776 0.0209084 0)
(4.51993 0.0211295 0)
(4.5222 0.0213444 0)
(4.52456 0.0215528 0)
(4.52701 0.0217488 0)
(4.52956 0.0219328 0)
(4.53219 0.0221051 0)
(4.53491 0.0222673 0)
(4.5377 0.0224233 0)
(4.54058 0.0225721 0)
(4.54352 0.0227115 0)
(4.54653 0.022843 0)
(4.54961 0.0229691 0)
(4.55276 0.0230878 0)
(4.55596 0.0231984 0)
(4.55923 0.0233026 0)
(4.56255 0.0234023 0)
(4.56591 0.0234958 0)
(4.56932 0.0235811 0)
(4.57276 0.0236579 0)
(4.57626 0.0237273 0)
(4.57979 0.0237913 0)
(4.58336 0.0238513 0)
(4.58696 0.0239079 0)
(4.59059 0.0239602 0)
(4.59426 0.0240079 0)
(4.59796 0.0240509 0)
(4.60169 0.0240894 0)
(4.60544 0.0241256 0)
(4.60921 0.0241592 0)
(4.613 0.0241899 0)
(4.61681 0.0242181 0)
(4.62064 0.0242448 0)
(4.62449 0.024269 0)
(4.62835 0.0242905 0)
(4.63223 0.02431 0)
(4.63612 0.0243279 0)
(4.64002 0.0243443 0)
(4.64394 0.0243589 0)
(4.64786 0.024371 0)
(4.65179 0.0243795 0)
(4.65573 0.024384 0)
(4.65968 0.024385 0)
(4.66364 0.0243836 0)
(4.6676 0.0243815 0)
(4.67157 0.0243801 0)
(4.67554 0.0243795 0)
(4.67952 0.0243784 0)
(4.6835 0.0243749 0)
(4.68748 0.0243676 0)
(4.69147 0.024356 0)
(4.69546 0.0243415 0)
(4.69945 0.0243262 0)
(4.70344 0.0243123 0)
(4.70743 0.0243011 0)
(4.71142 0.0242924 0)
(4.71542 0.0242851 0)
(4.71941 0.0242779 0)
(4.7234 0.0242703 0)
(4.72739 0.0242624 0)
(4.73138 0.0242551 0)
(4.73537 0.0242492 0)
(4.73936 0.0242446 0)
(4.74334 0.0242396 0)
(4.74732 0.0242318 0)
(4.7513 0.0242184 0)
(4.75527 0.0241977 0)
(4.75925 0.0241705 0)
(4.76321 0.0241395 0)
(4.76718 0.0241094 0)
(4.77114 0.0240843 0)
(4.77509 0.0240662 0)
(4.77904 0.024054 0)
(4.78299 0.0240446 0)
(4.78693 0.024034 0)
(4.79087 0.0240194 0)
(4.7948 0.024001 0)
(4.79873 0.023981 0)
(4.80265 0.0239631 0)