/*--------------------------------*- C++ -*----------------------------------*\
  =========                 |
  \\      /  F ield         | OpenFOAM: The Open Source CFD Toolbox
   \\    /   O peration     | Website:  https://openfoam.org
    \\  /    A nd           | Version:  7
     \\/     M anipulation  |
\*---------------------------------------------------------------------------*/
FoamFile
{
    version     2.0;
    format      ascii;
    class       volScalarField;
    location    "3.95";
    object      nut;
}
// * * * * * * * * * * * * * * * * * * * * * * * * * * * * * * * * * * * * * //

dimensions      [0 2 -1 0 0 0 0];

internalField   nonuniform List<scalar> 
2640
(
0.000717851
0.00172142
0.00237244
0.00266252
0.00270571
0.00266949
0.00257753
0.00246394
0.00235991
0.00227029
0.00219557
0.00213394
0.00208293
0.00204017
0.00200376
0.00197211
0.00194411
0.00191898
0.0018961
0.00187508
0.00185557
0.00183741
0.00182041
0.00180448
0.00178947
0.00177533
0.00176196
0.00174933
0.00173737
0.00172601
0.00171525
0.00170492
0.00169527
0.00168564
0.00167715
0.00166764
0.00166074
0.00165052
0.00164341
0.00165005
8.26772e-05
0.000384874
0.000732465
0.0011267
0.00136582
0.00150854
0.00158727
0.00162324
0.00163844
0.00163998
0.00163839
0.00163454
0.0016293
0.00162394
0.0016186
0.00161338
0.00160827
0.00160325
0.00159827
0.00159334
0.00158842
0.00158353
0.00157862
0.00157378
0.00156885
0.00156396
0.001559
0.00155419
0.00154924
0.00154462
0.00153966
0.00153537
0.00153025
0.00152652
0.00152101
0.00151805
0.00151205
0.0015094
0.00150131
0.00150184
1.06694e-05
4.96945e-05
0.000127169
0.000241227
0.000383083
0.000509545
0.000609404
0.000682713
0.000736133
0.00077438
0.000802449
0.000823914
0.000840953
0.000855323
0.000867955
0.000879696
0.000890796
0.000901698
0.000912284
0.000922905
0.000933219
0.000943641
0.000953624
0.00096376
0.000973272
0.000983161
0.000992114
0.00100161
0.00100978
0.00101882
0.00102606
0.00103466
0.0010409
0.00104908
0.00105437
0.00106201
0.00106666
0.00107331
0.00107808
0.00108297
9.4238e-06
1.06908e-05
1.90382e-05
3.85686e-05
6.87406e-05
0.000107859
0.000151423
0.000190904
0.000225268
0.00025419
0.000278575
0.000299064
0.000316722
0.00033192
0.000345541
0.00035763
0.000368937
0.000379235
0.000389234
0.000398489
0.000407758
0.000416397
0.000425282
0.000433552
0.000442269
0.000450311
0.000459016
0.000466901
0.000475696
0.000483433
0.000492399
0.00049995
0.00050917
0.000516452
0.000526028
0.000532909
0.000542968
0.000549304
0.000560055
0.000566232
9.41036e-06
9.51619e-06
9.88775e-06
1.10403e-05
1.38654e-05
1.89575e-05
2.7875e-05
3.50466e-05
4.69355e-05
5.32243e-05
6.42107e-05
6.94915e-05
7.90311e-05
8.36462e-05
9.20498e-05
9.62256e-05
0.000103882
0.000107765
0.00011492
0.000118588
0.000125376
0.000128869
0.000135377
0.000138721
0.00014501
0.000148231
0.000154355
0.000157481
0.000163488
0.00016655
0.000172485
0.000175515
0.00018142
0.000184453
0.000190373
0.000193434
0.000199419
0.000202555
0.000208772
0.000212195
9.40542e-06
9.48763e-06
9.74566e-06
1.01064e-05
1.08574e-05
1.1302e-05
1.21999e-05
1.26927e-05
1.37315e-05
1.42886e-05
1.54388e-05
1.60377e-05
1.72519e-05
1.78849e-05
1.9157e-05
1.98294e-05
2.1176e-05
2.18932e-05
2.33251e-05
2.40866e-05
2.56028e-05
2.64046e-05
2.79976e-05
2.88344e-05
3.04947e-05
3.13623e-05
3.30824e-05
3.39782e-05
3.57536e-05
3.66775e-05
3.85076e-05
3.94618e-05
4.13511e-05
4.23404e-05
4.42986e-05
4.53303e-05
4.73761e-05
4.84682e-05
5.06747e-05
5.18898e-05
9.40542e-06
9.48763e-06
9.74566e-06
1.01064e-05
1.08575e-05
1.13019e-05
1.21998e-05
1.26925e-05
1.37314e-05
1.42883e-05
1.54385e-05
1.60373e-05
1.72523e-05
1.78847e-05
1.91572e-05
1.98288e-05
2.11755e-05
2.18914e-05
2.33228e-05
2.40825e-05
2.5597e-05
2.6396e-05
2.79851e-05
2.88175e-05
3.04702e-05
3.13303e-05
3.30364e-05
3.39195e-05
3.56698e-05
3.65712e-05
3.83574e-05
3.92722e-05
4.10853e-05
4.20057e-05
4.38328e-05
4.47447e-05
4.65672e-05
4.7458e-05
4.92981e-05
5.0202e-05
9.41036e-06
9.51619e-06
9.88775e-06
1.10403e-05
1.38654e-05
1.89428e-05
2.78803e-05
3.50411e-05
4.69378e-05
5.32203e-05
6.42117e-05
6.94879e-05
7.90575e-05
8.36171e-05
9.20847e-05
9.61853e-05
0.000103919
0.000107718
0.000114954
0.000118535
0.000125399
0.00012881
0.00013538
0.000138653
0.000144982
0.000148144
0.000154278
0.000157352
0.000163334
0.00016634
0.000172204
0.000175155
0.000180929
0.00018383
0.000189521
0.00019236
0.000197952
0.000200717
0.00020628
0.000209122
9.4238e-06
1.06908e-05
1.90382e-05
3.85686e-05
6.874e-05
0.000107625
0.000151591
0.000190766
0.000225388
0.000254077
0.000278682
0.000298955
0.000316829
0.000331806
0.000345652
0.000357505
0.000369055
0.000379094
0.00038936
0.000398325
0.000407889
0.000416202
0.000425414
0.000433313
0.000442389
0.000450008
0.000459101
0.000466502
0.000475705
0.000482886
0.000492258
0.000499172
0.00050875
0.00051531
0.00052511
0.00053119
0.000541172
0.000546653
0.000556743
0.000562083
1.06694e-05
4.96945e-05
0.000127169
0.000241226
0.000383079
0.000509549
0.000609404
0.000682713
0.000736133
0.000774378
0.000802451
0.000823908
0.000840956
0.000855313
0.000867959
0.00087968
0.0008908
0.000901672
0.000912289
0.000922862
0.000933221
0.000943573
0.000953621
0.000963651
0.000973257
0.000982978
0.000992071
0.00100131
0.00100969
0.00101833
0.00102588
0.00103387
0.00104054
0.00104783
0.00105367
0.00106012
0.00106526
0.00107053
0.00107519
0.00107902
8.26772e-05
0.000384874
0.000732465
0.0011267
0.00136582
0.00150854
0.00158727
0.00162324
0.00163844
0.00163998
0.00163839
0.00163454
0.0016293
0.00162393
0.0016186
0.00161338
0.00160827
0.00160324
0.00159827
0.00159333
0.00158841
0.00158352
0.0015786
0.00157376
0.00156882
0.00156395
0.00155895
0.00155417
0.00154916
0.00154461
0.00153953
0.00153536
0.00153007
0.00152649
0.00152081
0.0015179
0.00151179
0.00150916
0.00150086
0.00150119
0.000717851
0.00172142
0.00237244
0.00266252
0.00270571
0.00266949
0.00257753
0.00246394
0.00235991
0.00227029
0.00219557
0.00213395
0.00208294
0.00204018
0.00200376
0.00197212
0.00194413
0.001919
0.00189613
0.00187511
0.00185562
0.00183748
0.0018205
0.0018046
0.00178962
0.00177554
0.00176223
0.00174971
0.00173782
0.00172667
0.00171601
0.00170609
0.00169651
0.00168769
0.00167915
0.00167127
0.00166388
0.00165671
0.00164883
0.00165808
0.00396219
0.00421889
0.00426836
0.00425809
0.00423362
0.00421412
0.00419999
0.00418924
0.00418073
0.00417427
0.00416997
0.00416741
0.00416659
0.0041672
0.00416913
0.0041723
0.00417648
0.00418159
0.00418753
0.0041942
0.00420148
0.0042093
0.00421756
0.00422619
0.00423511
0.00424428
0.00425363
0.00426312
0.0042727
0.00428235
0.00429203
0.00430172
0.0043114
0.00432106
0.00433068
0.00434026
0.00434978
0.00435924
0.00436863
0.00437796
0.00438722
0.00439642
0.00440554
0.00441461
0.0044236
0.00443254
0.00444142
0.00445024
0.004459
0.00446771
0.00447636
0.00448497
0.00449353
0.00450203
0.00451049
0.0045189
0.00452726
0.00453557
0.00454383
0.00455205
0.00456022
0.00456835
0.00457643
0.00458447
0.00459247
0.00460043
0.00460835
0.00461624
0.00462409
0.00463191
0.00463969
0.00464744
0.00465516
0.00466285
0.0046705
0.00467811
0.00468568
0.00469321
0.0047007
0.00470813
0.00471551
0.00472284
0.0047301
0.0047373
0.00474445
0.00475152
0.00475854
0.00476549
0.00477239
0.00477924
0.00478604
0.0047928
0.00479952
0.00480622
0.00481291
0.00481959
0.00482626
0.00483295
0.00483964
0.00484635
0.00485307
0.00485982
0.00486658
0.00487335
0.00488012
0.0048869
0.00489366
0.00490041
0.00490712
0.00491378
0.00492039
0.00492693
0.00493339
0.00493976
0.00494604
0.00495223
0.00495831
0.00496428
0.00497017
0.00497595
0.00498166
0.00498728
0.00499285
0.00499836
0.00500384
0.00500929
0.00501473
0.00502018
0.00502563
0.00503111
0.00503662
0.00504217
0.00504775
0.00505336
0.00505901
0.00506469
0.00507038
0.00507608
0.00508179
0.00508748
0.00509314
0.00509877
0.00510434
0.00510986
0.0051153
0.00512066
0.00512593
0.0051311
0.00513619
0.00514117
0.00514606
0.00515086
0.00515558
0.00516021
0.00516478
0.00516928
0.00517373
0.00517814
0.00518252
0.00518688
0.00519122
0.00519556
0.00519989
0.00520424
0.00520858
0.00521295
0.00521731
0.00522171
0.00522606
0.00523051
0.00523481
0.00523934
0.0052435
0.00524818
0.00525201
0.00525706
0.00526021
0.005266
0.00526818
0.00527538
0.00360308
0.0040921
0.00422843
0.00426099
0.00425915
0.00425095
0.00424042
0.00423296
0.00422832
0.00422591
0.00422589
0.00422695
0.00422965
0.00423386
0.00423909
0.00424525
0.00425221
0.00425983
0.00426803
0.0042767
0.00428575
0.0042951
0.0043047
0.00431449
0.00432441
0.00433443
0.00434451
0.00435463
0.00436477
0.0043749
0.00438502
0.00439511
0.00440516
0.00441517
0.00442513
0.00443503
0.00444488
0.00445468
0.00446442
0.00447409
0.00448371
0.00449327
0.00450277
0.00451222
0.00452161
0.00453094
0.00454022
0.00454944
0.00455861
0.00456773
0.00457679
0.00458581
0.00459478
0.0046037
0.00461257
0.00462139
0.00463016
0.00463889
0.00464757
0.0046562
0.00466479
0.00467333
0.00468183
0.00469028
0.00469869
0.00470705
0.00471537
0.00472364
0.00473187
0.00474006
0.0047482
0.0047563
0.00476436
0.00477238
0.00478036
0.0047883
0.0047962
0.00480406
0.00481188
0.00481966
0.00482741
0.00483512
0.00484279
0.00485042
0.00485802
0.00486558
0.00487311
0.00488059
0.00488805
0.00489546
0.00490284
0.00491018
0.00491749
0.00492475
0.00493199
0.00493918
0.00494634
0.00495347
0.00496056
0.00496761
0.00497463
0.00498162
0.00498857
0.00499549
0.00500237
0.00500922
0.00501604
0.00502282
0.00502957
0.00503629
0.00504298
0.00504964
0.00505626
0.00506286
0.00506942
0.00507595
0.00508245
0.00508892
0.00509536
0.00510176
0.00510814
0.00511448
0.00512079
0.00512707
0.00513332
0.00513953
0.00514572
0.00515186
0.00515798
0.00516406
0.0051701
0.00517611
0.00518209
0.00518802
0.00519393
0.00519979
0.00520562
0.0052114
0.00521716
0.00522287
0.00522854
0.00523418
0.00523978
0.00524534
0.00525086
0.00525635
0.0052618
0.00526721
0.00527259
0.00527793
0.00528323
0.0052885
0.00529374
0.00529894
0.00530411
0.00530924
0.00531435
0.00531942
0.00532445
0.00532946
0.00533443
0.00533938
0.00534428
0.00534917
0.005354
0.00535883
0.00536359
0.00536837
0.00537303
0.0053778
0.00538232
0.00538714
0.00539142
0.00539642
0.00540027
0.00540572
0.00540881
0.00541502
0.00541745
0.00542457
0.00244304
0.00307145
0.00337367
0.00351052
0.00356747
0.00359097
0.00360081
0.0036064
0.00361133
0.00361667
0.00362299
0.00362999
0.00363768
0.00364605
0.00365488
0.00366408
0.00367352
0.00368309
0.00369273
0.00370237
0.00371197
0.00372148
0.00373088
0.00374018
0.00374935
0.0037584
0.00376734
0.00377618
0.00378491
0.00379355
0.0038021
0.00381058
0.00381899
0.00382734
0.00383563
0.00384386
0.00385205
0.00386018
0.00386828
0.00387633
0.00388433
0.0038923
0.00390023
0.00390813
0.00391599
0.00392381
0.0039316
0.00393935
0.00394707
0.00395476
0.00396241
0.00397003
0.00397762
0.00398518
0.0039927
0.0040002
0.00400766
0.00401509
0.00402248
0.00402985
0.00403718
0.00404448
0.00405174
0.00405897
0.00406617
0.00407334
0.00408047
0.00408758
0.00409464
0.00410168
0.00410869
0.00411566
0.0041226
0.00412951
0.00413639
0.00414324
0.00415006
0.00415686
0.00416362
0.00417035
0.00417706
0.00418373
0.00419038
0.004197
0.00420359
0.00421016
0.00421669
0.00422319
0.00422967
0.00423611
0.00424253
0.00424892
0.00425527
0.0042616
0.00426789
0.00427415
0.00428039
0.00428659
0.00429276
0.00429891
0.00430502
0.00431111
0.00431717
0.0043232
0.0043292
0.00433517
0.00434112
0.00434705
0.00435295
0.00435882
0.00436467
0.00437049
0.0043763
0.00438207
0.00438783
0.00439355
0.00439926
0.00440494
0.00441059
0.00441622
0.00442182
0.00442739
0.00443294
0.00443846
0.00444395
0.00444941
0.00445485
0.00446025
0.00446563
0.00447098
0.00447629
0.00448159
0.00448685
0.00449208
0.00449729
0.00450247
0.00450762
0.00451275
0.00451786
0.00452293
0.00452799
0.00453302
0.00453802
0.004543
0.00454796
0.00455289
0.0045578
0.00456268
0.00456754
0.00457237
0.00457718
0.00458196
0.00458672
0.00459145
0.00459615
0.00460082
0.00460546
0.00461008
0.00461467
0.00461923
0.00462375
0.00462826
0.00463273
0.00463719
0.00464158
0.004646
0.00465032
0.00465471
0.00465893
0.00466334
0.00466741
0.00467191
0.00467573
0.00468045
0.00468385
0.00468901
0.0046918
0.00469748
0.00469992
0.0047064
0.00119253
0.00160981
0.00202189
0.00232798
0.002531
0.00266125
0.00274564
0.0028024
0.00284288
0.00287372
0.00289895
0.00292068
0.00294011
0.00295791
0.00297443
0.00298983
0.0030042
0.00301759
0.00303004
0.0030416
0.00305233
0.0030623
0.00307157
0.00308023
0.00308834
0.00309599
0.00310323
0.00311014
0.00311677
0.00312317
0.00312938
0.00313544
0.00314138
0.00314722
0.00315299
0.0031587
0.00316437
0.00317001
0.00317562
0.00318122
0.0031868
0.00319238
0.00319795
0.00320351
0.00320907
0.00321463
0.00322018
0.00322574
0.00323129
0.00323683
0.00324238
0.00324791
0.00325345
0.00325897
0.00326449
0.00327
0.00327551
0.003281
0.00328648
0.00329196
0.00329742
0.00330287
0.0033083
0.00331372
0.00331913
0.00332453
0.0033299
0.00333527
0.00334061
0.00334595
0.00335126
0.00335656
0.00336185
0.00336712
0.00337237
0.00337761
0.00338284
0.00338804
0.00339324
0.00339841
0.00340357
0.00340872
0.00341384
0.00341895
0.00342405
0.00342912
0.00343418
0.00343922
0.00344424
0.00344924
0.00345422
0.00345919
0.00346413
0.00346906
0.00347396
0.00347884
0.00348371
0.00348855
0.00349338
0.00349818
0.00350297
0.00350773
0.00351248
0.00351721
0.00352192
0.00352661
0.00353128
0.00353594
0.00354058
0.0035452
0.00354981
0.0035544
0.00355898
0.00356353
0.00356808
0.0035726
0.00357711
0.0035816
0.00358608
0.00359053
0.00359497
0.0035994
0.0036038
0.00360818
0.00361255
0.0036169
0.00362123
0.00362554
0.00362983
0.0036341
0.00363835
0.00364259
0.0036468
0.003651
0.00365518
0.00365935
0.0036635
0.00366763
0.00367175
0.00367585
0.00367994
0.00368402
0.00368808
0.00369213
0.00369616
0.00370018
0.00370419
0.00370819
0.00371217
0.00371613
0.00372008
0.00372402
0.00372794
0.00373185
0.00373574
0.00373962
0.00374348
0.00374732
0.00375115
0.00375496
0.00375875
0.00376253
0.00376628
0.00377004
0.00377373
0.00377749
0.00378111
0.00378488
0.00378841
0.00379223
0.00379561
0.00379957
0.0038027
0.0038069
0.00380967
0.00381422
0.0038166
0.00382144
0.00382363
0.00382928
0.000432382
0.000558959
0.000755558
0.00100279
0.00124079
0.0014474
0.00161886
0.00175793
0.00186959
0.00195924
0.00203177
0.00209106
0.00214006
0.00218094
0.00221531
0.00224437
0.002269
0.00228991
0.00230767
0.00232275
0.00233554
0.0023464
0.00235562
0.00236347
0.00237017
0.00237592
0.00238089
0.00238523
0.00238905
0.00239248
0.00239559
0.00239845
0.00240113
0.00240368
0.00240614
0.00240853
0.00241089
0.00241323
0.00241558
0.00241793
0.0024203
0.0024227
0.00242513
0.0024276
0.0024301
0.00243264
0.00243521
0.00243781
0.00244046
0.00244313
0.00244584
0.00244858
0.00245134
0.00245414
0.00245696
0.0024598
0.00246266
0.00246555
0.00246845
0.00247137
0.0024743
0.00247725
0.00248022
0.00248319
0.00248617
0.00248917
0.00249217
0.00249518
0.0024982
0.00250123
0.00250426
0.00250729
0.00251033
0.00251338
0.00251643
0.00251948
0.00252253
0.00252559
0.00252865
0.00253172
0.00253478
0.00253784
0.00254091
0.00254397
0.00254703
0.00255009
0.00255315
0.0025562
0.00255925
0.0025623
0.00256534
0.00256838
0.00257141
0.00257443
0.00257745
0.00258046
0.00258347
0.00258647
0.00258946
0.00259245
0.00259543
0.0025984
0.00260137
0.00260432
0.00260728
0.00261023
0.00261317
0.0026161
0.00261903
0.00262196
0.00262487
0.00262779
0.00263069
0.00263359
0.00263649
0.00263938
0.00264226
0.00264513
0.002648
0.00265086
0.00265372
0.00265657
0.0026594
0.00266224
0.00266506
0.00266788
0.00267069
0.00267349
0.00267628
0.00267907
0.00268185
0.00268462
0.00268739
0.00269015
0.0026929
0.00269565
0.0026984
0.00270114
0.00270388
0.00270662
0.00270935
0.00271208
0.00271481
0.00271754
0.00272027
0.00272299
0.00272572
0.00272844
0.00273116
0.00273388
0.0027366
0.00273931
0.00274202
0.00274474
0.00274744
0.00275015
0.00275285
0.00275556
0.00275825
0.00276095
0.00276362
0.00276634
0.00276899
0.00277172
0.00277433
0.00277709
0.00277965
0.00278247
0.00278493
0.00278785
0.00279018
0.00279325
0.00279539
0.00279867
0.00280058
0.00280406
0.00280582
0.00280941
0.0028111
0.00281539
0.000106588
0.000133658
0.000177707
0.000245801
0.00034409
0.000460409
0.000584829
0.000709982
0.000830295
0.000942313
0.00104415
0.00113511
0.00121517
0.00128487
0.00134494
0.00139635
0.00144004
0.00147696
0.001508
0.00153398
0.00155563
0.0015736
0.00158847
0.00160074
0.00161083
0.00161911
0.0016259
0.00163146
0.00163602
0.00163976
0.00164284
0.0016454
0.00164755
0.00164937
0.00165095
0.00165234
0.0016536
0.00165476
0.00165586
0.00165692
0.00165798
0.00165903
0.0016601
0.00166119
0.00166231
0.00166347
0.00166468
0.00166592
0.00166721
0.00166854
0.00166992
0.00167134
0.00167281
0.00167432
0.00167586
0.00167745
0.00167907
0.00168073
0.00168242
0.00168415
0.0016859
0.00168768
0.00168949
0.00169133
0.00169319
0.00169507
0.00169697
0.00169889
0.00170083
0.00170279
0.00170477
0.00170676
0.00170877
0.00171079
0.00171283
0.00171487
0.00171694
0.00171901
0.00172109
0.00172318
0.00172529
0.0017274
0.00172951
0.00173164
0.00173377
0.00173591
0.00173805
0.0017402
0.00174235
0.00174451
0.00174666
0.00174882
0.00175098
0.00175314
0.00175531
0.00175747
0.00175963
0.0017618
0.00176396
0.00176613
0.00176829
0.00177045
0.00177262
0.00177478
0.00177694
0.0017791
0.00178126
0.00178342
0.00178558
0.00178774
0.00178989
0.00179205
0.0017942
0.00179635
0.0017985
0.00180064
0.00180278
0.00180492
0.00180706
0.00180919
0.00181131
0.00181344
0.00181556
0.00181767
0.00181978
0.00182189
0.00182399
0.00182609
0.00182818
0.00183028
0.00183236
0.00183445
0.00183653
0.00183861
0.00184068
0.00184276
0.00184483
0.00184689
0.00184896
0.00185102
0.00185308
0.00185514
0.0018572
0.00185926
0.00186131
0.00186336
0.00186541
0.00186745
0.0018695
0.00187154
0.00187357
0.00187561
0.00187764
0.00187968
0.00188169
0.00188373
0.00188572
0.00188777
0.00188975
0.0018918
0.00189375
0.00189583
0.00189773
0.00189984
0.00190169
0.00190386
0.00190562
0.00190788
0.00190953
0.00191189
0.00191341
0.00191589
0.00191728
0.00191987
0.00192117
0.00192379
0.00192508
0.0019277
0.00192897
0.00193215
0.00010302
0.000125226
0.000161357
0.000220355
0.000307798
0.000419416
0.00054252
0.00066935
0.000793775
0.000911714
0.00102052
0.00111902
0.0012067
0.00128396
0.00135122
0.00140967
0.00146012
0.00150344
0.00154053
0.00157224
0.00159933
0.00162251
0.00164238
0.00165948
0.00167426
0.00168711
0.00169837
0.00170831
0.00171717
0.00172515
0.00173241
0.00173909
0.00174529
0.00175112
0.00175664
0.00176193
0.00176702
0.00177197
0.00177681
0.00178155
0.00178623
0.00179085
0.00179544
0.0018
0.00180454
0.00180907
0.00181358
0.00181809
0.00182259
0.00182709
0.00183159
0.00183608
0.00184057
0.00184506
0.00184955
0.00185404
0.00185851
0.00186299
0.00186746
0.00187192
0.00187637
0.00188082
0.00188526
0.00188968
0.0018941
0.00189851
0.0019029
0.00190728
0.00191165
0.00191601
0.00192035
0.00192468
0.001929
0.00193331
0.0019376
0.00194188
0.00194614
0.0019504
0.00195464
0.00195886
0.00196307
0.00196727
0.00197146
0.00197562
0.00197978
0.00198392
0.00198804
0.00199215
0.00199625
0.00200032
0.00200439
0.00200843
0.00201246
0.00201648
0.00202048
0.00202446
0.00202843
0.00203238
0.00203631
0.00204024
0.00204414
0.00204803
0.00205191
0.00205577
0.00205962
0.00206345
0.00206727
0.00207107
0.00207486
0.00207863
0.00208239
0.00208613
0.00208985
0.00209356
0.00209725
0.00210093
0.00210458
0.00210822
0.00211185
0.00211545
0.00211904
0.00212262
0.00212617
0.00212971
0.00213323
0.00213674
0.00214022
0.0021437
0.00214715
0.00215059
0.00215401
0.00215742
0.00216081
0.00216418
0.00216754
0.00217088
0.00217421
0.00217751
0.0021808
0.00218407
0.00218733
0.00219056
0.00219378
0.00219698
0.00220016
0.00220332
0.00220647
0.00220959
0.0022127
0.00221578
0.00221885
0.0022219
0.00222492
0.00222793
0.00223092
0.0022339
0.00223683
0.00223979
0.00224268
0.0022456
0.00224844
0.00225135
0.00225412
0.00225703
0.00225973
0.00226265
0.00226524
0.00226821
0.00227066
0.00227371
0.00227599
0.00227916
0.00228122
0.00228454
0.00228638
0.00228982
0.00229152
0.002295
0.00229662
0.00230078
0.000423951
0.000541299
0.000723199
0.000960227
0.00120001
0.00141485
0.00159745
0.00174877
0.00187288
0.00197461
0.00205852
0.00212828
0.00218687
0.00223639
0.00227866
0.00231465
0.00234549
0.002372
0.00239485
0.00241461
0.00243175
0.00244667
0.00245971
0.00247119
0.00248136
0.00249043
0.00249861
0.00250605
0.00251289
0.00251925
0.00252522
0.00253087
0.00253628
0.00254151
0.00254658
0.00255154
0.00255641
0.00256123
0.00256599
0.00257073
0.00257544
0.00258015
0.00258484
0.00258954
0.00259423
0.00259893
0.00260364
0.00260835
0.00261307
0.00261779
0.00262252
0.00262726
0.00263201
0.00263675
0.00264151
0.00264626
0.00265102
0.00265578
0.00266054
0.0026653
0.00267006
0.00267481
0.00267956
0.00268431
0.00268905
0.00269379
0.00269852
0.00270325
0.00270797
0.00271268
0.00271738
0.00272208
0.00272677
0.00273145
0.00273612
0.00274079
0.00274544
0.00275009
0.00275472
0.00275935
0.00276397
0.00276858
0.00277318
0.00277776
0.00278234
0.0027869
0.00279145
0.00279599
0.00280051
0.00280502
0.00280952
0.002814
0.00281847
0.00282293
0.00282737
0.0028318
0.00283622
0.00284062
0.002845
0.00284938
0.00285374
0.00285808
0.00286241
0.00286673
0.00287104
0.00287533
0.0028796
0.00288386
0.00288811
0.00289234
0.00289656
0.00290076
0.00290495
0.00290912
0.00291327
0.00291741
0.00292153
0.00292563
0.00292972
0.00293379
0.00293784
0.00294188
0.0029459
0.0029499
0.00295389
0.00295786
0.00296181
0.00296575
0.00296967
0.00297358
0.00297747
0.00298135
0.00298521
0.00298905
0.00299288
0.00299669
0.00300049
0.00300427
0.00300803
0.00301178
0.00301551
0.00301923
0.00302293
0.00302661
0.00303028
0.00303393
0.00303756
0.00304118
0.00304478
0.00304836
0.00305192
0.00305547
0.003059
0.00306251
0.00306601
0.00306949
0.00307295
0.00307641
0.00307983
0.00308325
0.00308664
0.00309004
0.00309338
0.00309677
0.00310006
0.00310344
0.00310666
0.00311007
0.00311317
0.00311665
0.0031196
0.00312321
0.00312592
0.00312974
0.00313213
0.00313622
0.00313832
0.0031426
0.00314457
0.00314963
0.00118086
0.00158826
0.00199782
0.00231657
0.00253773
0.00268513
0.00278411
0.00285299
0.00290344
0.00294254
0.00297447
0.00300168
0.00302557
0.00304694
0.00306627
0.00308376
0.00309965
0.00311405
0.00312707
0.00313883
0.00314945
0.00315903
0.0031677
0.00317557
0.00318274
0.00318932
0.0031954
0.00320107
0.00320639
0.00321143
0.00321624
0.00322088
0.00322538
0.00322977
0.00323409
0.00323835
0.00324258
0.00324678
0.00325096
0.00325515
0.00325933
0.00326353
0.00326774
0.00327197
0.00327621
0.00328048
0.00328476
0.00328906
0.00329339
0.00329773
0.0033021
0.00330648
0.00331088
0.0033153
0.00331974
0.00332419
0.00332866
0.00333313
0.00333763
0.00334213
0.00334664
0.00335116
0.00335569
0.00336022
0.00336476
0.00336931
0.00337386
0.00337841
0.00338297
0.00338753
0.00339209
0.00339665
0.00340121
0.00340577
0.00341033
0.00341489
0.00341945
0.003424
0.00342856
0.00343311
0.00343766
0.0034422
0.00344674
0.00345127
0.0034558
0.00346032
0.00346483
0.00346933
0.00347383
0.00347832
0.0034828
0.00348726
0.00349172
0.00349617
0.00350061
0.00350504
0.00350946
0.00351387
0.00351826
0.00352265
0.00352702
0.00353139
0.00353574
0.00354008
0.00354441
0.00354873
0.00355304
0.00355734
0.00356162
0.00356589
0.00357015
0.0035744
0.00357863
0.00358285
0.00358706
0.00359125
0.00359543
0.0035996
0.00360375
0.00360788
0.003612
0.00361611
0.0036202
0.00362428
0.00362834
0.00363238
0.00363642
0.00364044
0.00364444
0.00364843
0.00365241
0.00365637
0.00366032
0.00366426
0.00366818
0.00367209
0.00367599
0.00367988
0.00368375
0.00368762
0.00369146
0.0036953
0.00369912
0.00370293
0.00370673
0.00371052
0.00371429
0.00371804
0.00372179
0.00372552
0.00372924
0.00373294
0.00373663
0.00374031
0.00374397
0.00374762
0.00375126
0.00375489
0.00375849
0.0037621
0.00376568
0.00376926
0.00377281
0.00377638
0.00377988
0.00378345
0.00378691
0.00379049
0.00379387
0.00379749
0.00380075
0.00380449
0.00380754
0.00381151
0.00381422
0.00381853
0.00382083
0.00382547
0.00382758
0.00383305
0.00243565
0.0030761
0.00339646
0.0035507
0.00362037
0.00365142
0.00366562
0.00367347
0.00367914
0.00368424
0.00368934
0.00369465
0.00370021
0.00370598
0.00371191
0.00371787
0.0037239
0.00372981
0.0037356
0.00374125
0.00374672
0.00375198
0.00375706
0.00376195
0.00376666
0.00377121
0.00377562
0.0037799
0.00378409
0.00378819
0.00379223
0.00379622
0.00380017
0.0038041
0.00380802
0.00381194
0.00381585
0.00381978
0.00382372
0.00382767
0.00383164
0.00383564
0.00383965
0.00384369
0.00384775
0.00385184
0.00385595
0.00386008
0.00386424
0.00386841
0.00387262
0.00387684
0.00388108
0.00388534
0.00388962
0.00389392
0.00389823
0.00390256
0.0039069
0.00391125
0.00391562
0.00392
0.00392438
0.00392878
0.00393318
0.00393759
0.00394201
0.00394643
0.00395085
0.00395528
0.00395972
0.00396415
0.00396859
0.00397303
0.00397747
0.00398191
0.00398635
0.00399079
0.00399523
0.00399967
0.0040041
0.00400853
0.00401296
0.00401738
0.0040218
0.00402621
0.00403062
0.00403502
0.00403941
0.00404379
0.00404817
0.00405254
0.0040569
0.00406125
0.00406559
0.00406991
0.00407423
0.00407854
0.00408284
0.00408713
0.00409141
0.00409568
0.00409994
0.00410419
0.00410842
0.00411265
0.00411687
0.00412107
0.00412527
0.00412945
0.00413363
0.00413779
0.00414194
0.00414607
0.0041502
0.00415431
0.00415841
0.00416249
0.00416657
0.00417062
0.00417467
0.0041787
0.00418272
0.00418672
0.00419071
0.00419468
0.00419865
0.0042026
0.00420653
0.00421046
0.00421437
0.00421827
0.00422216
0.00422603
0.0042299
0.00423376
0.0042376
0.00424144
0.00424526
0.00424908
0.00425289
0.00425668
0.00426047
0.00426424
0.00426801
0.00427176
0.00427551
0.00427924
0.00428296
0.00428668
0.00429038
0.00429407
0.00429775
0.00430142
0.00430507
0.00430872
0.00431236
0.00431599
0.0043196
0.00432321
0.0043268
0.0043304
0.00433397
0.00433755
0.00434109
0.00434467
0.00434818
0.00435176
0.00435522
0.00435884
0.00436221
0.00436592
0.00436911
0.00437303
0.0043759
0.00438021
0.00438258
0.00438736
0.00438946
0.00439502
0.00362059
0.00412712
0.00427042
0.0043011
0.00429571
0.00428057
0.0042628
0.0042477
0.00423527
0.00422521
0.0042172
0.00421102
0.00420642
0.00420319
0.00420115
0.00420007
0.00420005
0.00420048
0.00420159
0.00420329
0.00420537
0.00420776
0.0042104
0.00421325
0.00421628
0.00421945
0.00422272
0.00422609
0.00422953
0.00423304
0.00423659
0.0042402
0.00424384
0.00424752
0.00425123
0.00425497
0.00425874
0.00426254
0.00426637
0.00427022
0.0042741
0.004278
0.00428193
0.00428588
0.00428985
0.00429385
0.00429787
0.0043019
0.00430596
0.00431004
0.00431413
0.00431825
0.00432238
0.00432652
0.00433068
0.00433485
0.00433904
0.00434323
0.00434744
0.00435166
0.00435588
0.00436011
0.00436435
0.00436859
0.00437284
0.0043771
0.00438135
0.00438561
0.00438987
0.00439414
0.0043984
0.00440266
0.00440693
0.00441119
0.00441546
0.00441972
0.00442398
0.00442824
0.00443249
0.00443674
0.00444098
0.00444522
0.00444946
0.00445369
0.00445791
0.00446212
0.00446633
0.00447053
0.00447472
0.0044789
0.00448307
0.00448723
0.00449138
0.00449553
0.00449966
0.00450378
0.00450789
0.004512
0.00451609
0.00452017
0.00452424
0.00452831
0.00453236
0.0045364
0.00454043
0.00454446
0.00454847
0.00455247
0.00455645
0.00456043
0.0045644
0.00456835
0.00457229
0.00457622
0.00458013
0.00458404
0.00458793
0.0045918
0.00459566
0.00459951
0.00460335
0.00460718
0.00461099
0.00461479
0.00461858
0.00462236
0.00462612
0.00462988
0.00463362
0.00463735
0.00464108
0.00464479
0.0046485
0.00465219
0.00465588
0.00465955
0.00466322
0.00466688
0.00467052
0.00467416
0.00467779
0.0046814
0.00468501
0.0046886
0.00469219
0.00469576
0.00469933
0.00470289
0.00470643
0.00470997
0.0047135
0.00471702
0.00472053
0.00472403
0.00472753
0.00473102
0.0047345
0.00473798
0.00474145
0.00474492
0.00474839
0.00475185
0.0047553
0.00475876
0.0047622
0.00476566
0.00476909
0.00477255
0.00477595
0.00477944
0.00478277
0.00478635
0.00478954
0.00479329
0.0047962
0.00480033
0.0048027
0.00480745
0.00480936
0.00481489
0.00394836
0.00418128
0.0042101
0.00418685
0.00414955
0.00411791
0.00409126
0.00406871
0.00404934
0.00403276
0.00401876
0.00400703
0.00399733
0.00398939
0.00398301
0.00397803
0.00397433
0.00397165
0.00396991
0.00396901
0.00396884
0.00396921
0.00397012
0.00397147
0.00397318
0.00397519
0.00397744
0.00397991
0.00398254
0.0039853
0.00398818
0.00399115
0.00399419
0.00399729
0.00400043
0.00400361
0.00400682
0.00401005
0.0040133
0.00401657
0.00401985
0.00402314
0.00402644
0.00402976
0.00403308
0.00403642
0.00403976
0.00404312
0.00404648
0.00404986
0.00405324
0.00405663
0.00406003
0.00406344
0.00406685
0.00407027
0.0040737
0.00407712
0.00408055
0.00408398
0.00408742
0.00409085
0.00409429
0.00409772
0.00410116
0.0041046
0.00410805
0.00411149
0.00411494
0.00411839
0.00412184
0.0041253
0.00412876
0.00413221
0.00413567
0.00413912
0.00414257
0.00414601
0.00414943
0.00415284
0.00415624
0.00415961
0.00416297
0.0041663
0.0041696
0.00417288
0.00417614
0.00417937
0.00418258
0.00418577
0.00418894
0.00419211
0.00419526
0.00419841
0.00420157
0.00420473
0.0042079
0.00421109
0.00421429
0.00421751
0.00422075
0.00422402
0.0042273
0.0042306
0.00423391
0.00423723
0.00424055
0.00424386
0.00424716
0.00425045
0.0042537
0.00425693
0.00426011
0.00426326
0.00426635
0.00426939
0.00427239
0.00427533
0.00427823
0.00428108
0.00428389
0.00428666
0.00428941
0.00429215
0.00429487
0.00429759
0.00430031
0.00430304
0.0043058
0.00430858
0.00431139
0.00431423
0.0043171
0.00432
0.00432293
0.00432589
0.00432888
0.00433188
0.00433489
0.0043379
0.00434092
0.00434392
0.00434691
0.00434988
0.00435282
0.00435572
0.0043586
0.00436143
0.00436423
0.00436698
0.00436971
0.00437239
0.00437505
0.00437768
0.00438029
0.00438288
0.00438546
0.00438804
0.00439062
0.0043932
0.00439579
0.00439841
0.00440103
0.00440369
0.00440636
0.00440906
0.00441177
0.00441453
0.00441728
0.0044201
0.00442285
0.00442576
0.00442844
0.00443151
0.004434
0.00443736
0.00443942
0.00444334
0.00444478
0.00444959
)
;

boundaryField
{
    upperWall
    {
        type            zeroGradient;
    }
    lowerWall
    {
        type            zeroGradient;
    }
    heatedWall
    {
        type            zeroGradient;
    }
    inlet
    {