/*--------------------------------*- C++ -*----------------------------------*\
  =========                 |
  \\      /  F ield         | OpenFOAM: The Open Source CFD Toolbox
   \\    /   O peration     | Website:  https://openfoam.org
    \\  /    A nd           | Version:  7
     \\/     M anipulation  |
\*---------------------------------------------------------------------------*/
FoamFile
{
    version     2.0;
    format      ascii;
    class       volSymmTensorField;
    location    "4.625";
    object      UPrime2Mean;
}
// * * * * * * * * * * * * * * * * * * * * * * * * * * * * * * * * * * * * * //

dimensions      [0 2 -2 0 0 0 0];

internalField   nonuniform List<symmTensor> 
7920
(
(0.0279364 0.0351456 -0.126108 0.0468367 -0.180118 0.752796)
(0.00393082 0.0140092 -0.0280464 0.0694015 -0.18556 0.612182)
(0.0182863 0.0327205 -0.0574248 0.0831307 -0.214563 0.707534)
(0.00714237 0.0174078 -0.0257283 0.080078 -0.210581 0.705932)
(0.0119585 0.0224769 -0.0298202 0.0828409 -0.215217 0.718674)
(0.00737172 0.0144328 -0.0125752 0.0813687 -0.213474 0.717142)
(0.00890445 0.0152178 -0.0106357 0.0823076 -0.215177 0.721209)
(0.00689794 0.0105137 -0.000342153 0.0817345 -0.214749 0.720937)
(0.00728417 0.00968409 0.00308502 0.0820198 -0.215502 0.722183)
(0.00635471 0.006594 0.0096021 0.0817696 -0.21543 0.722109)
(0.00640833 0.00531171 0.0127237 0.081817 -0.21582 0.722422)
(0.0059297 0.00300582 0.0170566 0.0816656 -0.215908 0.722357)
(0.00593058 0.00170495 0.0194863 0.0815383 -0.216027 0.722441)
(0.00565556 -0.000293498 0.0228055 0.0814491 -0.216142 0.722468)
(0.00574193 -0.00145157 0.0245071 0.081087 -0.216099 0.722179)
(0.00559883 -0.00368964 0.0280836 0.0810206 -0.216297 0.722504)
(0.00580797 -0.00464078 0.0291281 0.0801544 -0.215774 0.721508)
(0.00599439 -0.00795421 0.0351057 0.0801168 -0.216222 0.722685)
(0.00613783 -0.0087599 0.0352026 0.0776866 -0.214192 0.71948)
(0.00683876 -0.0121242 0.041589 0.0772548 -0.212263 0.712582)
(0.0375259 -0.0246753 -0.00313464 0.0212896 0.0294646 0.160698)
(0.00260479 0.00617143 -0.00305231 0.0244175 -0.0162174 0.41082)
(0.0251378 -0.0158162 0.107086 0.023368 -0.0170977 0.681799)
(0.00456871 -0.000943284 0.0437067 0.0244586 -0.0187852 0.682743)
(0.0166762 -0.00838642 0.100452 0.0235471 -0.0194985 0.769063)
(0.00829911 -0.0011334 0.0646376 0.0240071 -0.019305 0.748206)
(0.0132127 -0.00335268 0.0874574 0.0236973 -0.0192215 0.768919)
(0.010365 0.000543569 0.0700882 0.0238833 -0.0189959 0.755209)
(0.01255 0.00034818 0.0784858 0.0237742 -0.0185983 0.755831)
(0.0119435 0.00279286 0.0694779 0.0238619 -0.0184235 0.747247)
(0.0132477 0.00337196 0.0715995 0.0238358 -0.0180296 0.740865)
(0.0135504 0.00525301 0.0651796 0.0238626 -0.0175942 0.73191)
(0.0146739 0.00608255 0.0644361 0.0238761 -0.0170129 0.718707)
(0.0155012 0.0078786 0.0579041 0.0238668 -0.0165706 0.710884)
(0.0167344 0.0087084 0.0560414 0.0239171 -0.0154228 0.685964)
(0.0183476 0.0109678 0.0474157 0.0238369 -0.0146382 0.677251)
(0.0196876 0.0116198 0.0453582 0.0239972 -0.0123756 0.63041)
(0.0237173 0.0153689 0.0333267 0.0236935 -0.0106136 0.618112)
(0.0244326 0.0157753 0.0307964 0.024321 -0.00404215 0.514746)
(0.0372886 0.0242029 0.0221499 0.0248066 0.00296573 0.473026)
(0.0586855 0.0128608 -0.00208081 0.00529581 -0.0201168 0.168506)
(0.0224277 -0.00800012 -0.0647468 0.00974072 -0.0177644 0.534387)
(0.0119362 0.00864652 0.0892639 0.0162498 0.0205876 1.04061)
(0.00737968 -0.00741756 -0.027838 0.0142812 0.0173593 1.18577)
(0.00622612 0.000333413 0.0626013 0.0164068 0.0284902 1.32868)
(0.00761376 -0.00698192 -0.000762205 0.0156786 0.0263676 1.3323)
(0.00792922 -0.00446274 0.034717 0.016319 0.0293402 1.35307)
(0.0105624 -0.00821991 0.00387856 0.0160408 0.0279749 1.3362)
(0.0116737 -0.00781171 0.0166724 0.0162269 0.0283031 1.32417)
(0.0145826 -0.0101103 0.000929325 0.0160999 0.0273521 1.30798)
(0.0163675 -0.0105288 0.00443268 0.0161262 0.0268419 1.28643)
(0.0196092 -0.012311 -0.00643007 0.0160618 0.0259459 1.2685)
(0.0219017 -0.0129986 -0.00654515 0.01598 0.024539 1.23429)
(0.0260887 -0.0148112 -0.017931 0.0159553 0.0238823 1.21765)
(0.0286926 -0.0154341 -0.0183757 0.0157361 0.0214792 1.16254)
(0.0355196 -0.0179187 -0.0339938 0.0157769 0.0210632 1.14421)
(0.0378185 -0.018029 -0.0318123 0.0152405 0.0169665 1.04962)
(0.0524792 -0.0225609 -0.054576 0.0154749 0.017175 1.01775)
(0.0516552 -0.0211085 -0.0436867 0.0142873 0.0109437 0.833528)
(0.0939204 -0.0303669 -0.0489751 0.0141573 0.00363838 0.662058)
(0.0563208 -0.0131839 -0.000900833 0.00381851 0.0101033 0.153224)
(0.0372001 0.0132493 -0.0599925 0.00549761 -0.0126639 0.36013)
(0.0026632 -0.00150798 0.0177836 0.00427276 -0.0121317 0.838636)
(0.0205051 0.00708737 -0.0741978 0.00404522 -0.0105819 0.907045)
(0.00664577 0.00290263 -0.0231226 0.00368315 -0.00867168 1.09577)
(0.0194445 0.00598817 -0.0700169 0.00361145 -0.0053691 1.07656)
(0.0150417 0.00487051 -0.0494731 0.00356259 -0.0053705 1.11702)
(0.0234119 0.00639092 -0.0714656 0.00355926 -0.00415399 1.08456)
(0.0233918 0.00623539 -0.0632323 0.00355717 -0.004287 1.07553)
(0.0296663 0.00722932 -0.073637 0.00356634 -0.00393533 1.04868)
(0.0318318 0.00747588 -0.0702247 0.00357489 -0.0040049 1.02355)
(0.0377572 0.0083091 -0.0769334 0.00358281 -0.00372582 0.999869)
(0.0410529 0.00871718 -0.0747635 0.00359374 -0.00345635 0.958712)
(0.0482 0.00961211 -0.0820653 0.00359396 -0.00324137 0.939766)
(0.0519315 0.0100546 -0.0781832 0.00361071 -0.00257688 0.875775)
(0.0627956 0.0112525 -0.0876396 0.00359321 -0.00212964 0.857722)
(0.0658025 0.0115566 -0.0784408 0.00361417 -0.000597971 0.758943)
(0.0861145 0.0135869 -0.0868149 0.00356085 0.000601941 0.719597)
(0.0853367 0.0127106 -0.0692443 0.00340938 0.00537425 0.595106)
(0.127072 0.0180955 -0.019995 0.00398679 0.0126587 0.408646)
(0.0627809 0.00582137 -0.00676812 0.000960689 -0.00825206 0.1663)
(0.0446175 -0.00287192 -0.0551038 0.00196709 -0.0135515 0.294922)
(0.00311762 0.000816909 -0.0128214 0.00339888 0.000432145 0.736316)
(0.0350452 -0.00593502 -0.103652 0.00291072 -0.00307679 0.789261)
(0.0164101 -0.0039069 -0.0768005 0.00345909 0.00284823 0.974698)
(0.0370135 -0.00700321 -0.118699 0.00333288 0.00242328 0.961143)
(0.0308274 -0.00630857 -0.107253 0.00349361 0.00421374 1.00198)
(0.0430851 -0.00789786 -0.125469 0.00345058 0.00389603 0.969175)
(0.0428579 -0.00782487 -0.119663 0.00349452 0.00411676 0.95675)
(0.0514343 -0.00881357 -0.127233 0.00347468 0.0037747 0.926655)
(0.054132 -0.00902154 -0.123218 0.00348053 0.00351222 0.897232)
(0.0619965 -0.00981911 -0.127491 0.00346992 0.00311467 0.871173)
(0.0661445 -0.0101048 -0.122934 0.00344889 0.00236022 0.826831)
(0.0755684 -0.0109785 -0.127975 0.00344394 0.00205593 0.806744)
(0.0801815 -0.0111893 -0.120335 0.00338582 0.000737942 0.742164)
(0.0944408 -0.0124609 -0.126725 0.0033962 0.000528156 0.723045)
(0.0978429 -0.0122973 -0.112855 0.00324252 -0.00163477 0.6341)
(0.124069 -0.0146505 -0.112939 0.0033011 -0.00200675 0.585191)
(0.122144 -0.0135806 -0.0949147 0.00292768 -0.00401205 0.507275)
(0.172931 -0.0183753 -0.00918379 0.00303846 -0.0100671 0.323023)
(0.0627375 -0.00686263 -0.00484 0.000945455 0.00533507 0.162327)
(0.0457336 0.00669666 -0.0467587 0.00142089 0.000248374 0.259384)
(0.00425132 7.51554e-05 -0.0239486 0.00190866 -0.00583242 0.646636)
(0.0427461 0.00587267 -0.106298 0.00163034 -0.00309674 0.680073)
(0.0246407 0.00354765 -0.0950894 0.00164587 -0.00349253 0.84668)
(0.0491309 0.005346 -0.131903 0.00156448 -0.00125556 0.835932)
(0.0432808 0.00474941 -0.126882 0.00158961 -0.00165205 0.872251)
(0.0572852 0.00562011 -0.141655 0.00157051 -0.00081048 0.841469)
(0.0573989 0.00556497 -0.137459 0.00158334 -0.000965187 0.826846)
(0.0669687 0.00616975 -0.142531 0.00158146 -0.000697474 0.796751)
(0.0701091 0.0063384 -0.137976 0.00158682 -0.000686243 0.766256)
(0.0788093 0.00686633 -0.139991 0.00158787 -0.000459437 0.740164)
(0.0834876 0.00711017 -0.133836 0.00158591 -0.000146913 0.697216)
(0.0938693 0.00771686 -0.136566 0.0015857 1.69891e-06 0.677678)
(0.0990516 0.00794385 -0.126706 0.00157555 0.000677526 0.617789)
(0.114501 0.00881634 -0.129659 0.00157456 0.000873092 0.59913)
(0.118482 0.00881307 -0.114075 0.00153561 0.00217168 0.523112)
(0.145785 0.0104091 -0.106244 0.0015435 0.00270314 0.47348)
(0.144857 0.00921953 -0.0911201 0.00136416 0.00500818 0.42352)
(0.192861 0.0130352 0.0143804 0.00161368 0.0101555 0.268488)
(0.0627393 0.00686356 -0.00483877 0.000945647 -0.00533482 0.162326)
(0.0457327 -0.00669802 -0.0467559 0.0014215 -0.000247513 0.259366)
(0.00425137 -7.5186e-05 -0.0239488 0.00190915 0.00583481 0.64662)
(0.042742 -0.00587315 -0.106297 0.00163084 0.00310066 0.680079)
(0.0246413 -0.00355004 -0.0950986 0.00164794 0.00351174 0.846719)
(0.0491391 -0.0053492 -0.13192 0.00156453 0.00126709 0.835964)
(0.0432799 -0.00474468 -0.126862 0.0015874 0.00162268 0.872138)
(0.0572819 -0.00561613 -0.141633 0.00156968 0.000790735 0.841357)
(0.0574012 -0.00556566 -0.137463 0.00158272 0.000967594 0.826856)
(0.0669687 -0.00616514 -0.142531 0.00158044 0.000676991 0.796756)
(0.0701069 -0.00633379 -0.137951 0.00158544 0.000661057 0.76613)
(0.0788083 -0.00685256 -0.139912 0.00158434 0.000396352 0.739612)
(0.0834878 -0.00710796 -0.133841 0.00158523 0.000140398 0.697249)
(0.0938654 -0.00771693 -0.136572 0.0015858 2.38458e-06 0.677761)
(0.0990506 -0.00793696 -0.126678 0.00157335 -0.000698959 0.617632)
(0.114503 -0.00880692 -0.129652 0.00157268 -0.000889712 0.599067)
(0.118473 -0.00881364 -0.114062 0.00152532 -0.00212243 0.523375)
(0.145776 -0.0103375 -0.106196 0.00153612 -0.00283328 0.47314)
(0.144885 -0.00914563 -0.0909361 0.00130612 -0.00472683 0.423034)
(0.192925 -0.0126886 0.0142657 0.00154678 -0.0103 0.270052)
(0.0627784 -0.00582073 -0.00676614 0.000960583 0.00825169 0.166294)
(0.0446181 0.00287617 -0.055081 0.00196845 0.0135507 0.294871)
(0.00311763 -0.000817198 -0.0128223 0.0034001 -0.000432717 0.736244)
(0.0350474 0.00593674 -0.103659 0.00291145 0.00306827 0.78925)
(0.0164093 0.00390904 -0.0768031 0.00346155 -0.00287852 0.974769)
(0.0370107 0.00700376 -0.118695 0.00333341 -0.00242567 0.961216)
(0.0308298 0.00631124 -0.107236 0.00349416 -0.00421749 1.00175)
(0.0430853 0.00790145 -0.125441 0.00345153 -0.00390554 0.968947)
(0.0428564 0.00782437 -0.119655 0.00349422 -0.00410986 0.956764)
(0.0514351 0.00882247 -0.127237 0.00347889 -0.00382113 0.926658)
(0.0541341 0.00902362 -0.123203 0.00348137 -0.00351543 0.897051)
(0.0619945 0.00981415 -0.127392 0.00347024 -0.00306281 0.870302)
(0.0661388 0.0101078 -0.122926 0.00345 -0.00237561 0.826918)
(0.0755721 0.0109834 -0.127997 0.00344555 -0.00208042 0.806843)
(0.0801831 0.0111915 -0.120296 0.00338787 -0.000736705 0.741861)
(0.0944345 0.0124697 -0.12668 0.0033969 -0.000538617 0.722771)
(0.0978702 0.0123005 -0.112884 0.00325331 0.00166901 0.634759)
(0.124084 0.0147187 -0.112835 0.00330941 0.00189551 0.584169)
(0.122277 0.0136489 -0.0945743 0.00299071 0.00428514 0.50555)
(0.173309 0.0187155 -0.00959327 0.00312041 0.0100093 0.328744)
(0.0563192 0.0131838 -0.000899739 0.0038185 -0.0101025 0.153219)
(0.0372002 -0.0132531 -0.0599723 0.00550072 0.0126608 0.360074)
(0.00266348 0.00150872 0.0177819 0.0042743 0.0121347 0.838563)
(0.0205035 -0.00708878 -0.0742039 0.00404698 0.0105985 0.907083)
(0.00664588 -0.00290443 -0.0231318 0.00368826 0.00873735 1.09604)
(0.0194488 -0.0059913 -0.0700361 0.00361211 0.0053942 1.07663)
(0.0150421 -0.00486931 -0.0494608 0.00356084 0.00533849 1.11682)
(0.0234088 -0.00639096 -0.0714428 0.00355997 0.0041506 1.08447)
(0.0233939 -0.0062374 -0.0632379 0.003557 0.00430371 1.07554)
(0.0296663 -0.00723017 -0.0736332 0.00356738 0.00393405 1.04872)
(0.0318274 -0.00747427 -0.0701944 0.00357509 0.00398057 1.02346)
(0.0377563 -0.00830539 -0.0768912 0.00358208 0.0036826 0.999301)
(0.0410526 -0.00871666 -0.0747666 0.00359335 0.00345405 0.958794)
(0.0481984 -0.0096126 -0.0820586 0.00359406 0.00324551 0.939827)
(0.0519307 -0.0100527 -0.0781658 0.00360913 0.00257008 0.875739)
(0.0627963 -0.0112476 -0.0876008 0.00359088 0.00210443 0.857214)
(0.0658158 -0.0115526 -0.0784124 0.00360333 0.000639709 0.75991)
(0.0861351 -0.0135645 -0.0867687 0.00355233 -0.000731636 0.718587)
(0.0854719 -0.0126491 -0.0689744 0.00333669 -0.00500025 0.592524)
(0.12752 -0.0179283 -0.0200038 0.00390975 -0.0132894 0.420954)
(0.0586865 -0.0128611 -0.0020817 0.00529592 0.0201167 0.168501)
(0.0224273 0.00800106 -0.0647458 0.00974143 0.017759 0.534363)
(0.0119357 -0.00864645 0.0892632 0.0162505 -0.0205903 1.04058)
(0.00737951 0.0074181 -0.0278421 0.0142829 -0.0173842 1.18586)
(0.00622671 -0.000335558 0.0626239 0.0164129 -0.0285726 1.32916)
(0.0076142 0.00698306 -0.000768887 0.0156805 -0.0263912 1.33253)
(0.00792931 0.00446234 0.0347137 0.016323 -0.0293561 1.35283)
(0.0105626 0.00822045 0.00389327 0.0160452 -0.028017 1.33623)
(0.0116739 0.00781155 0.0166769 0.0162282 -0.028324 1.32438)
(0.0145827 0.0101121 0.000934101 0.0161164 -0.0274395 1.30779)
(0.0163677 0.0105296 0.00443239 0.016133 -0.0268648 1.28606)
(0.0196092 0.0123129 -0.00640289 0.0160738 -0.0259396 1.26778)
(0.0219009 0.0129988 -0.00651307 0.0159838 -0.0245632 1.23433)
(0.02609 0.0148126 -0.0179375 0.0159576 -0.0239033 1.21765)
(0.0286944 0.0154362 -0.0183668 0.0157402 -0.0214962 1.1624)
(0.0355252 0.0179251 -0.0339634 0.0157796 -0.0210551 1.14368)
(0.0378368 0.0180379 -0.0318068 0.0152554 -0.0169988 1.05062)
(0.0525464 0.0226127 -0.0545643 0.0154909 -0.0172311 1.01664)
(0.0517886 0.0211976 -0.0438434 0.014387 -0.0108752 0.831193)
(0.0946326 0.0307081 -0.0480514 0.0142947 -0.00361417 0.683542)
(0.0375248 0.024675 -0.00313708 0.0212897 -0.029465 0.160688)
(0.00260486 -0.00617114 -0.00305083 0.0244148 0.0162075 0.410788)
(0.0251385 0.0158159 0.107083 0.0233669 0.0170936 0.681755)
(0.00456968 0.00094382 0.0437151 0.0244589 0.0187919 0.68273)
(0.0166751 0.00838884 0.100458 0.0235491 0.0195269 0.769185)
(0.0082962 0.00113577 0.0646233 0.0240118 0.0193468 0.748376)
(0.013217 0.00335311 0.0874412 0.0237009 0.0191785 0.768423)
(0.0103686 -0.000539659 0.0701045 0.0238897 0.0190089 0.755153)
(0.0125469 -0.000341105 0.0784967 0.0237871 0.0187017 0.75634)
(0.0119486 -0.00279067 0.0694847 0.0238795 0.0183859 0.746681)
(0.0132518 -0.00337029 0.0716058 0.0238426 0.0179946 0.740509)
(0.013552 -0.00524664 0.0651925 0.0238799 0.0176266 0.731935)
(0.0146794 -0.00607928 0.0644692 0.023879 0.0170118 0.718685)
(0.0155035 -0.00787939 0.0579112 0.0238669 0.0165483 0.710675)
(0.0167355 -0.00870971 0.0560289 0.0239157 0.0153868 0.685504)
(0.0183527 -0.0109702 0.0474224 0.0238356 0.0146297 0.677067)
(0.0196963 -0.0116216 0.0453819 0.0239919 0.0124022 0.630818)
(0.0237601 -0.0153968 0.0332823 0.023682 0.0105271 0.617298)
(0.0244776 -0.0157744 0.0306827 0.0242543 0.00416277 0.51445)
(0.0379902 -0.0244477 0.0236276 0.0246998 -0.00383381 0.485644)
(0.0279366 -0.0351456 -0.126107 0.0468366 0.180117 0.752794)
(0.00393085 -0.0140083 -0.0280478 0.0693959 0.185563 0.612207)
(0.0182861 -0.0327193 -0.0574258 0.0831275 0.214565 0.70755)
(0.00714309 -0.0174084 -0.0257289 0.0800781 0.210584 0.705943)
(0.0119592 -0.0224786 -0.0298222 0.0828435 0.215223 0.718707)
(0.00737487 -0.0144411 -0.0126116 0.0813865 0.213537 0.717167)
(0.00891115 -0.0152327 -0.0107434 0.082341 0.215351 0.72123)
(0.00689999 -0.0105247 -0.000396928 0.0817625 0.214842 0.720998)
(0.00729129 -0.00970404 0.00303675 0.0820596 0.215591 0.722336)
(0.00636506 -0.006621 0.00948912 0.0818648 0.215788 0.722777)
(0.00641021 -0.00532108 0.0126725 0.0818493 0.215972 0.722748)
(0.00593235 -0.00302172 0.0170278 0.0817424 0.216139 0.723107)
(0.00593233 -0.00170752 0.0194732 0.0815522 0.216091 0.722557)
(0.00565693 0.00029286 0.0227911 0.0814546 0.216183 0.722475)
(0.00574202 0.00145182 0.0244748 0.0810924 0.216154 0.722112)
(0.00559779 0.00369368 0.0280795 0.0810246 0.216317 0.722489)
(0.0058077 0.00464843 0.0291445 0.0801611 0.215771 0.721535)
(0.00599918 0.00800043 0.0351659 0.0801179 0.216239 0.722699)
(0.00614 0.00881342 0.0352448 0.0776687 0.214023 0.718856)
(0.00700577 0.0124909 0.0422226 0.0772596 0.212363 0.711858)
(0.023569 0.045367 0.00525894 0.101342 0.00982042 0.00288293)
(0.0280169 -0.046484 9.7198e-05 0.151287 0.00705062 0.00243515)
(0.00954848 -0.0217483 -8.0128e-05 0.155007 0.010961 0.00281012)
(0.0265077 -0.0393738 0.000293779 0.154945 0.00848749 0.00256373)
(0.0177651 -0.0283779 -0.00016887 0.154047 0.0101697 0.00271789)
(0.0220467 -0.0284451 0.000392414 0.15425 0.00908695 0.00261578)
(0.0190361 -0.0236766 0.000132029 0.153819 0.00978329 0.00267795)
(0.0199129 -0.0206411 0.000488066 0.153949 0.009305 0.00263496)
(0.0185377 -0.017143 0.000403069 0.153683 0.00956899 0.00265731)
(0.0186077 -0.0139305 0.000605154 0.153743 0.00934193 0.00263776)
(0.0178488 -0.0109411 0.000602587 0.153599 0.00940722 0.00264246)
(0.0178443 -0.00821057 0.000709269 0.153615 0.00928178 0.00263218)
(0.0173671 -0.00561714 0.000737693 0.153477 0.00923488 0.00262773)
(0.0176437 -0.00359042 0.000780683 0.153464 0.00915015 0.00262097)
(0.017347 -0.00141333 0.000815488 0.153274 0.00900642 0.00260886)
(0.0181879 -0.000564851 0.000795198 0.15328 0.00893961 0.00260334)
(0.0179023 0.00150423 0.000827191 0.15286 0.00866409 0.00257995)
(0.0195235 -0.000137386 0.000702107 0.152871 0.00861209 0.00257535)
(0.0175659 0.00304804 0.000743199 0.149615 0.00808369 0.00253165)
(0.0176471 0.0103441 0.00105308 0.149781 0.00793862 0.00252595)
(0.0886154 -0.0263921 0.00422556 0.019352 -0.00189829 0.00202827)
(0.0246449 0.0205639 0.00222233 0.0438309 0.00020551 0.00196979)
(0.00572459 -0.00751161 0.00155214 0.0436788 -0.00184901 0.0020001)
(0.0257646 0.012855 0.00209918 0.050941 -0.000422086 0.00196654)
(0.0159256 0.00484312 0.00127492 0.0488199 -0.00142821 0.00196907)
(0.0246583 0.00748394 0.001692 0.0493065 -0.000779636 0.00196398)
(0.0216823 0.00481934 0.00120814 0.0486517 -0.00119806 0.00196189)
(0.0249499 0.00354718 0.00140422 0.0485866 -0.000919386 0.00196417)
(0.0242389 0.00177839 0.00114123 0.0484054 -0.00107994 0.0019618)
(0.0259964 -8.6433e-05 0.00121576 0.0483083 -0.000952329 0.00196488)
(0.0260154 -0.00174338 0.00107648 0.0482772 -0.000994254 0.00196342)
(0.0276495 -0.00341904 0.00109239 0.0482115 -0.000926688 0.00196564)
(0.0279766 -0.00498764 0.001017 0.0483201 -0.000902649 0.00196506)
(0.0301389 -0.0061414 0.00101169 0.0482632 -0.000858321 0.00196642)
(0.0306494 -0.00747339 0.000959128 0.0486782 -0.000774142 0.00196602)
(0.0341147 -0.00730729 0.000950945 0.0485864 -0.0007407 0.00196638)
(0.0344128 -0.00856796 0.000881456 0.0498784 -0.000574016 0.00196509)
(0.0397731 -0.00474411 0.000891338 0.0496911 -0.000551829 0.00196483)
(0.0373829 -0.00688479 0.000725447 0.0579895 -0.000236354 0.00195842)
(0.0391779 0.00454243 0.000687424 0.0554805 -0.000213266 0.00196225)
(0.110411 0.0437081 0.00627946 0.0208268 0.00297943 0.00230405)
(0.00275314 -0.0053261 0.00130535 0.0386186 0.00112299 0.00203614)
(0.0119936 0.0178436 0.00262938 0.0351831 0.00300313 0.00221031)
(0.00779633 0.00162575 0.00183849 0.0333882 0.00164502 0.00207805)
(0.00771581 0.00645313 0.00177924 0.031314 0.00243782 0.00214583)
(0.0112467 0.00504178 0.00178141 0.0315012 0.00192653 0.0020992)
(0.0114915 0.00660338 0.0016305 0.0310521 0.00224648 0.00212413)
(0.0141402 0.00773986 0.00170138 0.0312321 0.00203368 0.00210815)
(0.0150551 0.00889346 0.00160589 0.0310935 0.00215499 0.00211601)
(0.0174362 0.0103783 0.00165545 0.0311883 0.00205777 0.00211038)
(0.0187988 0.0115971 0.00160416 0.0311435 0.00208808 0.00211141)
(0.0212503 0.0129362 0.00162505 0.0311986 0.00203567 0.00210889)
(0.0229563 0.0141982 0.00158882 0.0311764 0.00201604 0.00210647)
(0.025633 0.0151042 0.00158189 0.0312227 0.00198055 0.00210459)
(0.0276233 0.0163358 0.00153472 0.0311754 0.00191482 0.00209903)
(0.0305074 0.0161387 0.00148965 0.0312337 0.00188635 0.00209692)
(0.0326954 0.017476 0.00140475 0.0310279 0.00175943 0.0020857)
(0.0352296 0.0143748 0.00128123 0.0309891 0.00174004 0.00208383)
(0.0372359 0.016719 0.00114383 0.0300937 0.00152247 0.00205994)
(0.0410733 0.00351841 0.000733663 0.0307695 0.00151586 0.00206208)
(0.10448 -0.00170868 0.00494536 0.00290241 -0.000463923 0.00212418)
(0.00255251 0.00219737 0.00132062 0.00473709 -4.67242e-05 0.00198645)
(0.0259331 -0.00668068 0.00250346 0.00504176 -0.000647511 0.00206362)
(0.00674063 -0.00410018 0.00150993 0.00742383 -0.000254135 0.00199589)
(0.0127184 -0.0067509 0.00184455 0.00755943 -0.000627293 0.00202313)
(0.0111101 -0.0057668 0.00148282 0.0077927 -0.000360189 0.00200195)
(0.0134994 -0.0063486 0.00155596 0.00771719 -0.000527045 0.00201089)
(0.0151171 -0.0066575 0.00138658 0.00764286 -0.00040902 0.00200542)
(0.0173532 -0.00708437 0.00137766 0.00760604 -0.000473818 0.00200731)
(0.0198341 -0.00770946 0.00127817 0.00754649 -0.000422052 0.00200645)
(0.0224908 -0.00824463 0.00123466 0.00754217 -0.000438507 0.00200606)
(0.0252404 -0.00885824 0.00116321 0.00750655 -0.000412248 0.00200615)
(0.0283758 -0.00950163 0.00109686 0.00755164 -0.000402611 0.00200478)
(0.0309361 -0.00989207 0.00103696 0.00752039 -0.000386022 0.00200475)
(0.0346591 -0.0106791 0.000942655 0.00769133 -0.000351188 0.00200238)
(0.0358631 -0.0103494 0.000890562 0.00764218 -0.000339155 0.0020018)
(0.0405299 -0.0115 0.000750228 0.00823645 -0.000272226 0.00199679)
(0.0377845 -0.00885207 0.00070018 0.00820714 -0.000263457 0.00199599)
(0.043514 -0.0114787 0.000494875 0.0110386 -0.000152585 0.00198328)
(0.0375277 -0.00308753 0.000413539 0.0104503 -0.000133678 0.00198488)
(0.100498 0.0147507 0.00562907 0.00280858 0.000938644 0.00222004)
(0.00212408 -0.0018311 0.00118282 0.00779388 0.000196951 0.00200546)
(0.0367023 0.0136106 0.00308302 0.0072163 0.00110077 0.00214346)
(0.0177194 0.00769715 0.00155078 0.00735506 0.000471908 0.00203386)
(0.0290315 0.00940986 0.00230241 0.00673818 0.000866564 0.00208726)
(0.0258569 0.00861265 0.00164209 0.00679551 0.00061032 0.00204993)
(0.0301074 0.00882044 0.0019373 0.00661 0.000766559 0.00206907)
(0.031302 0.00921753 0.00163032 0.00664195 0.000661954 0.00205703)
(0.0347786 0.00950197 0.00173995 0.00659389 0.000720081 0.00206273)
(0.0373256 0.0101233 0.00158105 0.00660794 0.000673894 0.00205888)
(0.041221 0.0105831 0.00159945 0.00659891 0.000687955 0.00205944)
(0.0441618 0.0111947 0.00150617 0.00661009 0.000663732 0.00205791)
(0.048713 0.0117682 0.0014713 0.00662058 0.000654118 0.00205592)
(0.0511726 0.012185 0.0014026 0.00663125 0.000638227 0.00205475)
(0.0567315 0.0128578 0.00132143 0.00666294 0.000606717 0.00205033)
(0.0565779 0.0126903 0.00125291 0.00667668 0.000594224 0.00204881)
(0.0640533 0.0135668 0.00111768 0.00675733 0.000535016 0.0020397)
(0.0567964 0.0114883 0.00100239 0.00673489 0.000527774 0.00203825)
(0.0676654 0.0130255 0.000814371 0.00691207 0.000433939 0.00201808)
(0.0503074 0.00501422 0.000496936 0.00710251 0.000434004 0.00201979)
(0.0957618 -0.00387628 0.00525675 0.000822601 -0.000332224 0.0021769)
(0.00271252 0.00167448 0.00124603 0.00223893 -4.03086e-05 0.00199574)
(0.0404459 -0.00517498 0.00292124 0.00217886 -0.000472664 0.00210593)
(0.0251724 -0.00411145 0.00136808 0.00314863 -0.000202121 0.00201488)
(0.0417777 -0.00657275 0.00224181 0.00320403 -0.000457284 0.00205713)
(0.0396477 -0.00638748 0.00146551 0.00335492 -0.000276286 0.0020266)
(0.0457187 -0.00686984 0.00185366 0.00331731 -0.000391061 0.00204169)
(0.0470002 -0.00706834 0.00146155 0.00330962 -0.000309165 0.0020322)
(0.0513544 -0.00730153 0.00161463 0.00328881 -0.000353512 0.00203648)
(0.0539639 -0.00765583 0.00140222 0.00327536 -0.000317329 0.00203369)
(0.0586091 -0.00796888 0.0014324 0.00327153 -0.000328409 0.00203394)
(0.0616138 -0.00833406 0.0013059 0.00326427 -0.000310066 0.00203295)
(0.0670362 -0.0087597 0.00126657 0.00328102 -0.000303548 0.00203126)
(0.0693793 -0.00896355 0.00117786 0.00327199 -0.000292197 0.0020305)
(0.0761186 -0.00958783 0.00108462 0.00333878 -0.000269417 0.00202696)
(0.0751029 -0.00929109 0.00101073 0.00332486 -0.000261349 0.00202584)
(0.0844767 -0.010314 0.000861372 0.00354881 -0.000220207 0.00201851)
(0.0746009 -0.00849781 0.000767069 0.00353829 -0.000215131 0.00201733)
(0.0876 -0.0105322 0.000567267 0.00435266 -0.000153611 0.00200057)
(0.0660646 -0.00593233 0.000371252 0.00428254 -0.000144031 0.00200188)
(0.0957619 0.00387743 0.00525676 0.000822663 0.00033223 0.0021769)
(0.00271251 -0.00167454 0.00124607 0.0022391 4.02437e-05 0.00199577)
(0.0404474 0.00517498 0.00292116 0.00217896 0.000472642 0.00210594)
(0.0251725 0.00411173 0.00136797 0.00314865 0.000202047 0.00201489)
(0.041778 0.00657422 0.00224123 0.00320484 0.000457052 0.00205714)
(0.0396474 0.00638457 0.00146537 0.00335358 0.000276369 0.00202661)
(0.0457157 0.00686427 0.00185404 0.0033142 0.000391317 0.00204168)
(0.0470027 0.0070653 0.0014617 0.00330825 0.000309331 0.00203219)
(0.0513563 0.00729599 0.00161461 0.00328638 0.000353658 0.00203648)
(0.0539593 0.00765153 0.00140212 0.00327203 0.000317361 0.0020337)
(0.058606 0.00796734 0.00143276 0.00326945 0.000328564 0.00203392)
(0.0616149 0.00832728 0.0013072 0.0032609 0.000310568 0.00203288)
(0.067037 0.00875884 0.00126651 0.0032797 0.00030357 0.00203126)
(0.0693784 0.00896493 0.00117756 0.00327166 0.000292005 0.00203052)
(0.0761181 0.00958713 0.00108501 0.00333835 0.000269468 0.00202694)
(0.0751055 0.00929343 0.00101075 0.00332462 0.000261362 0.00202583)
(0.084472 0.0103314 0.000861363 0.00354991 0.000219581 0.00201851)
(0.0746052 0.00853012 0.000767309 0.00354334 0.00021453 0.00201731)
(0.0876208 0.0106743 0.000567798 0.00434317 0.000150932 0.00200053)
(0.0662703 0.00592846 0.000370837 0.00433603 0.000140403 0.00200184)
(0.1005 -0.0147478 0.00562908 0.00280772 -0.000938611 0.00222004)
(0.00212425 0.00183112 0.00118276 0.00779354 -0.000197137 0.00200543)
(0.036701 -0.0136103 0.00308322 0.00721614 -0.00110085 0.00214347)
(0.0177197 -0.00769666 0.00155078 0.00735489 -0.000471919 0.00203387)
(0.0290302 -0.00941035 0.00230246 0.00673815 -0.000866495 0.00208727)
(0.025855 -0.00861378 0.00164217 0.00679701 -0.000610305 0.00204994)
(0.0301097 -0.00882567 0.00193759 0.00661344 -0.000766704 0.00206906)
(0.0312997 -0.00922372 0.00163071 0.0066443 -0.000661909 0.00205701)
(0.0347751 -0.00950473 0.00174013 0.00659643 -0.00072011 0.00206272)
(0.0373292 -0.0101298 0.00158097 0.00661496 -0.000673629 0.00205889)
(0.0412219 -0.0105879 0.00159963 0.00660225 -0.000687937 0.00205943)
(0.0441589 -0.0112004 0.00150708 0.00661528 -0.00066386 0.00205784)
(0.0487131 -0.011769 0.00147123 0.00662249 -0.000654083 0.00205593)
(0.051173 -0.0121867 0.00140236 0.00663233 -0.000638058 0.00205477)
(0.0567277 -0.0128591 0.00132185 0.00666338 -0.000606642 0.00205029)
(0.0565814 -0.0126881 0.00125264 0.00667675 -0.000594237 0.00204882)
(0.064056 -0.0135584 0.00111733 0.00675671 -0.000535061 0.00203972)
(0.0568328 -0.0114611 0.00100092 0.00672809 -0.000527908 0.00203825)
(0.0676923 -0.012921 0.000812662 0.00692376 -0.000434885 0.00201816)
(0.0507427 -0.00500873 0.000491371 0.00705316 -0.000435295 0.00202011)
(0.10448 0.0017059 0.00494536 0.00290234 0.000463904 0.00212418)
(0.00255271 -0.00219733 0.00132054 0.00473664 4.68933e-05 0.00198641)
(0.025934 0.00668031 0.00250365 0.00504153 0.000647571 0.00206363)
(0.00674056 0.00410015 0.00150988 0.00742358 0.000254023 0.00199592)
(0.0127177 0.00675203 0.00184419 0.0075608 0.00062689 0.00202315)
(0.011109 0.0057651 0.00148287 0.00779079 0.00036034 0.00200197)
(0.0134979 0.0063479 0.00155609 0.00771546 0.000527269 0.00201088)
(0.0151179 0.00665925 0.00138656 0.00764468 0.000408883 0.00200542)
(0.0173529 0.00708292 0.00137769 0.00760473 0.000473961 0.00200731)
(0.0198331 0.00770962 0.00127816 0.00754723 0.000421787 0.00200648)
(0.0224906 0.0082459 0.00123469 0.00754221 0.00043833 0.00200607)
(0.0252413 0.00885929 0.00116316 0.00750847 0.000412101 0.00200616)
(0.0283771 0.00950229 0.00109677 0.00755122 0.000402584 0.00200479)
(0.0309367 0.00989341 0.00103693 0.00752069 0.000385743 0.00200477)
(0.0346602 0.01068 0.000942626 0.00769171 0.000351011 0.00200238)
(0.0358684 0.0103527 0.000890338 0.00764331 0.00033908 0.0020018)
(0.0405427 0.0115044 0.000749928 0.00823892 0.000271358 0.00199682)
(0.0378225 0.00886392 0.000698571 0.00821681 0.00026249 0.00199601)
(0.0436099 0.0115157 0.00049246 0.0110413 0.000148536 0.00198342)
(0.0380344 0.00303174 0.000406874 0.0105276 0.000128042 0.00198526)
(0.110411 -0.0437087 0.00627946 0.0208273 -0.00297944 0.00230405)
(0.00275311 0.00532584 0.00130541 0.0386173 -0.00112276 0.00203617)
(0.0119932 -0.0178431 0.00262929 0.0351822 -0.00300298 0.00221031)
(0.00779592 -0.00162709 0.00183852 0.0333883 -0.0016448 0.00207807)
(0.00771584 -0.00645229 0.00177929 0.031317 -0.00243709 0.00214583)
(0.0112484 -0.00504043 0.00178152 0.0315051 -0.00192648 0.00209921)
(0.0114888 -0.00660029 0.00163037 0.0310623 -0.00224668 0.00212413)
(0.0141433 -0.00773239 0.00170148 0.0312409 -0.00203313 0.00210816)
(0.0150604 -0.00889353 0.00160589 0.0311015 -0.00215516 0.002116)
(0.0174329 -0.0103736 0.0016553 0.0312201 -0.00205738 0.00211037)
(0.0187989 -0.0115911 0.00160409 0.031156 -0.00208782 0.0021114)
(0.0212561 -0.012933 0.00162475 0.0312238 -0.00203557 0.00210882)
(0.0229576 -0.0141989 0.00158879 0.0311829 -0.00201609 0.00210646)
(0.0256319 -0.0151005 0.00158193 0.031225 -0.00198018 0.00210461)
(0.0276316 -0.0163317 0.0015347 0.031177 -0.00191442 0.00209903)
(0.0305131 -0.016138 0.00148929 0.0312335 -0.00188626 0.0020969)
(0.0327147 -0.0174719 0.00140395 0.0310241 -0.00175864 0.00208569)
(0.0352573 -0.0143697 0.0012795 0.0309724 -0.00173907 0.00208388)
(0.0373469 -0.0167348 0.00113758 0.0300785 -0.00151824 0.00205993)
(0.0411706 -0.00344286 0.000721691 0.0306716 -0.00150978 0.00206249)
(0.0886152 0.0263921 0.00422555 0.0193522 0.00189829 0.00202826)
(0.0246457 -0.0205622 0.00222218 0.0438277 -0.000205163 0.00196976)
(0.00572432 0.00751165 0.00155213 0.0436771 0.00184913 0.0020001)
(0.0257704 -0.0128523 0.00209926 0.0509386 0.000422239 0.00196653)
(0.0159258 -0.00484802 0.00127485 0.0488241 0.0014282 0.00196907)
(0.0246726 -0.00748011 0.00169275 0.0493044 0.000779785 0.00196402)
(0.0217029 -0.00482839 0.00120794 0.0486622 0.00119796 0.00196187)
(0.0249423 -0.00357224 0.00140423 0.0486052 0.0009182 0.00196419)