/*--------------------------------*- C++ -*----------------------------------*\
  =========                 |
  \\      /  F ield         | OpenFOAM: The Open Source CFD Toolbox
   \\    /   O peration     | Website:  https://openfoam.org
    \\  /    A nd           | Version:  7
     \\/     M anipulation  |
\*---------------------------------------------------------------------------*/
FoamFile
{
    version     2.0;
    format      ascii;
    class       surfaceScalarField;
    location    "3.65";
    object      phi_0;
}
// * * * * * * * * * * * * * * * * * * * * * * * * * * * * * * * * * * * * * //

dimensions      [1 0 -1 0 0 0 0];

internalField   nonuniform List<scalar> 
7578
(
0.0137122
0.000112228
0.013403
0.000308671
0.0129383
0.000464158
0.0123608
0.000577066
0.0117122
0.000648074
0.0110314
0.000680282
0.0103499
0.000681075
0.00969077
0.000658587
0.00906857
0.000621705
0.0084921
0.00057598
0.00796694
0.000524669
0.00749493
0.000471535
0.00707546
0.000418997
0.00670626
0.000368741
0.00638393
0.000321881
0.00610441
0.000279067
0.00586336
0.000240615
0.00565633
0.000206594
0.00547905
0.00017686
0.00532748
0.000151159
0.00519793
0.00012915
0.00508708
0.000110457
0.004992
9.46971e-05
0.00491013
8.14964e-05
0.00483927
7.05022e-05
0.00477754
6.13779e-05
0.00472346
5.37417e-05
0.0046757
4.74371e-05
0.00463302
4.23674e-05
0.00459454
3.8185e-05
0.00455952
3.4732e-05
0.00452736
3.18841e-05
0.00449757
2.95304e-05
0.00446974
2.75754e-05
0.00444357
2.59397e-05
0.00441879
2.45612e-05
0.00439519
2.33946e-05
0.00437259
2.24005e-05
0.00435087
2.15474e-05
0.0043299
2.08069e-05
0.00430958
2.01602e-05
0.00428986
1.95869e-05
0.00427066
1.90779e-05
0.00425193
1.86186e-05
0.00423361
1.82182e-05
0.00421567
1.78659e-05
0.00419808
1.75219e-05
0.0041808
1.72173e-05
0.00416384
1.69213e-05
0.00414709
1.67181e-05
0.00413066
1.6422e-05
0.00411422
1.64303e-05
0.00409828
1.59532e-05
0.00408167
1.66304e-05
0.00406654
1.51655e-05
0.00404827
1.83179e-05
0.0040371
1.12229e-05
0.00401428
2.2903e-05
0.00403296
-1.86132e-05
3.70286e-05
0.00399605
0.013866
7.06166e-05
0.0139639
0.000210241
0.0140932
0.000334387
0.0142296
0.000440163
0.0143506
0.000526497
0.0144403
0.000590094
0.0144914
0.00062951
0.0145028
0.000646665
0.0144784
0.000645685
0.0144233
0.000630556
0.014343
0.00060449
0.0142433
0.000570673
0.0141298
0.000532066
0.0140069
0.000491162
0.0138784
0.000449919
0.0137472
0.000409771
0.0136157
0.000371744
0.0134853
0.000336509
0.0133574
0.000304407
0.0132325
0.000275566
0.0131113
0.000249943
0.012994
0.000227383
0.0128807
0.000207657
0.0127713
0.0001905
0.0126658
0.000175622
0.0125641
0.00016273
0.012466
0.000151545
0.0123712
0.000141853
0.0122798
0.000133464
0.0121915
0.000126149
0.0121063
0.000119716
0.0120239
0.000114021
0.0119442
0.000108944
0.0118671
0.000104389
0.0117926
0.000100261
0.0117204
9.64843e-05
0.0116506
9.30139e-05
0.011583
8.98054e-05
0.0115175
8.68209e-05
0.0114541
8.40311e-05
0.0113927
8.14115e-05
0.0113332
7.89433e-05
0.0112756
7.66112e-05
0.0112197
7.44066e-05
0.0111655
7.23211e-05
0.0111129
7.03509e-05
0.0110619
6.84653e-05
0.0110124
6.66938e-05
0.0109643
6.49896e-05
0.0109175
6.34662e-05
0.010872
6.19147e-05
0.0108277
6.0748e-05
0.0107844
5.92153e-05
0.0107423
5.8751e-05
0.0107008
5.66987e-05
0.0106614
5.78139e-05
0.0106194
5.32392e-05
0.0105834
5.90141e-05
0.0105152
4.9661e-05
7.07928e-05
0.0104815
0.0138444
5.05349e-05
0.0139047
0.000149513
0.0139996
0.000238892
0.0141243
0.000315014
0.0142735
0.000376761
0.0144396
0.000423508
0.0146136
0.000454973
0.0147876
0.000472178
0.0149556
0.000477191
0.0151133
0.00047241
0.0152574
0.000459851
0.0153864
0.000441171
0.0154999
0.000418153
0.015598
0.00039249
0.0156819
0.000365614
0.0157525
0.000338694
0.0158112
0.000312641
0.0158592
0.000288061
0.0158979
0.000265319
0.0159284
0.000244623
0.0159519
0.000226037
0.0159694
0.000209535
0.0159816
0.000195013
0.0159894
0.000182321
0.0159934
0.000171277
0.0159941
0.000161696
0.0159919
0.00015339
0.0159873
0.000146191
0.0159805
0.000139947
0.0159718
0.000134518
0.0159615
0.000129759
0.0159496
0.000125556
0.0159365
0.000121811
0.0159222
0.000118446
0.0159068
0.000115394
0.0158905
0.000112605
0.0158733
0.000110033
0.0158552
0.000107645
0.0158365
0.000105413
0.015817
0.000103314
0.0157969
0.000101328
0.0157763
9.94455e-05
0.0157551
9.765e-05
0.0157335
9.5943e-05
0.0157114
9.43084e-05
0.0156889
9.27587e-05
0.015666
9.12659e-05
0.0156428
8.98675e-05
0.0156192
8.85155e-05
0.0155954
8.73034e-05
0.0155712
8.61072e-05
0.0155468
8.51383e-05
0.0155219
8.41019e-05
0.0154972
8.34772e-05
0.0154713
8.26162e-05
0.0154466
8.25945e-05
0.0154173
8.26119e-05
0.0153916
8.47673e-05
0.0153508
9.05645e-05
9.63488e-05
0.0153253
0.0138423
3.25008e-05
0.0138954
9.59895e-05
0.0139794
0.000154402
0.0140893
0.000204582
0.0142203
0.00024523
0.0143673
0.00027607
0.0145246
0.000297172
0.0146871
0.000309125
0.0148508
0.000313005
0.0150124
0.000310345
0.0151692
0.000302544
0.0153191
0.000290776
0.0154606
0.000276175
0.0155928
0.000259821
0.0157153
0.000242611
0.0158283
0.000225249
0.015932
0.000208527
0.0160269
0.000192749
0.0161136
0.000178136
0.016193
0.000164803
0.0162659
0.000152801
0.0163329
0.000142131
0.0163948
0.000132739
0.0164522
0.000124534
0.0165057
0.000117405
0.0165558
0.000111236
0.016603
0.000105907
0.0166475
0.000101312
0.0166898
9.73497e-05
0.0167301
9.39316e-05
0.0167686
9.09672e-05
0.0168055
8.83789e-05
0.0168409
8.61001e-05
0.0168751
8.408e-05
0.0169079
8.2275e-05
0.0169397
8.06509e-05
0.0169703
7.91753e-05
0.017
7.78271e-05
0.0170286
7.65852e-05
0.0170563
7.54371e-05
0.0170831
7.43678e-05
0.017109
7.33724e-05
0.0171341
7.24401e-05
0.0171584
7.15725e-05
0.0171818
7.07612e-05
0.0172045
7.00129e-05
0.0172263
6.93219e-05
0.0172475
6.86951e-05
0.0172678
6.814e-05
0.0172874
6.7649e-05
0.0173063
6.72771e-05
0.0173245
6.69232e-05
0.0173418
6.68349e-05
0.0173587
6.65766e-05
0.0173742
6.71487e-05
0.0173898
6.70404e-05
0.0174026
6.98189e-05
0.0174173
7.01978e-05
0.0174281
7.98375e-05
8.08543e-05
0.0174437
0.0138409
1.58583e-05
0.0138895
4.69433e-05
0.0139676
7.57682e-05
0.014071
0.000100691
0.0141948
0.000120922
0.014334
0.000136359
0.0144837
0.000147037
0.0146391
0.00015319
0.0147963
0.000155323
0.014952
0.000154146
0.0151037
0.000150382
0.0152493
0.000144651
0.0153875
0.000137504
0.0155174
0.000129429
0.0156386
0.000120926
0.015751
0.000112375
0.015855
0.000104102
0.0159511
9.62814e-05
0.0160397
8.90778e-05
0.0161216
8.24664e-05
0.0161976
7.64766e-05
0.0162682
7.11339e-05
0.0163341
6.64221e-05
0.016396
6.22985e-05
0.0164543
5.87131e-05
0.0165096
5.56089e-05
0.0165622
5.29314e-05
0.0166126
5.06253e-05
0.016661
4.86419e-05
0.0167076
4.69341e-05
0.0167529
4.5459e-05
0.0167968
4.41761e-05
0.0168396
4.30532e-05
0.0168814
4.20632e-05
0.0169222
4.11857e-05
0.0169622
4.04023e-05
0.0170015
3.96987e-05
0.0170401
3.9063e-05
0.017078
3.8487e-05
0.0171153
3.79636e-05
0.017152
3.74882e-05
0.0171882
3.70572e-05
0.0172238
3.66694e-05
0.0172589
3.63234e-05
0.0172936
3.60224e-05
0.0173277
3.57644e-05
0.0173614
3.55616e-05
0.0173947
3.54017e-05
0.0174275
3.53224e-05
0.0174598
3.52743e-05
0.0174917
3.53686e-05
0.0175232
3.5433e-05
0.0175543
3.58038e-05
0.0175849
3.59568e-05
0.0176152
3.69241e-05
0.0176451
3.72049e-05
0.0176752
3.97249e-05
0.0177053
4.0142e-05
0.0177386
4.66148e-05
4.69869e-05
0.0177726
0.0138402
2.70825e-11
0.0138866
9.51805e-11
0.0139619
1.32003e-10
0.0140621
1.99273e-10
0.0141825
2.64803e-10
0.0143183
3.79591e-10
0.0144649
4.81443e-10
0.0146176
6.43226e-10
0.0147724
8.06342e-10
0.0149261
1.04997e-09
0.0150759
1.33082e-09
0.0152201
1.68939e-09
0.0153571
2.12301e-09
0.015486
2.68359e-09
0.0156065
3.35551e-09
0.0157184
4.17703e-09
0.0158221
5.15655e-09
0.0159179
6.34938e-09
0.0160066
7.77801e-09
0.0160886
9.52805e-09
0.0161647
1.16438e-08
0.0162354
1.42211e-08
0.0163014
1.7322e-08
0.0163633
2.10622e-08
0.0164217
2.55503e-08
0.0164769
3.09517e-08
0.0165295
3.7445e-08
0.0165797
4.52661e-08
0.016628
5.46738e-08
0.0166745
6.5991e-08
0.0167196
7.9566e-08
0.0167634
9.58444e-08
0.0168061
1.15309e-07
0.0168478
1.38607e-07
0.0168886
1.66388e-07
0.0169286
1.99547e-07
0.0169678
2.38999e-07
0.0170064
2.86162e-07
0.0170444
3.42212e-07
0.0170818
4.09255e-07
0.0171186
4.88664e-07
0.0171549
5.83772e-07
0.0171908
6.95936e-07
0.0172261
8.30677e-07
0.0172611
9.88638e-07
0.0172956
1.17958e-06
0.0173297
1.40156e-06
0.0173633
1.67248e-06
0.0173966
1.98263e-06
0.0174295
2.36647e-06
0.0174621
2.79554e-06
0.0174942
3.33864e-06
0.0175261
3.92247e-06
0.0175574
4.68589e-06
0.0175889
5.44949e-06
0.0176196
6.49744e-06
0.017652
7.41924e-06
0.0176834
8.77946e-06
0.0177205
9.65109e-06
1.1284e-05
0.0177563
0.0138402
-1.58583e-05
0.0138866
-4.69432e-05
0.0139619
-7.5768e-05
0.0140621
-0.00010069
0.0141825
-0.000120921
0.0143183
-0.000136358
0.0144649
-0.000147036
0.0146176
-0.000153188
0.0147724
-0.000155321
0.0149261
-0.000154144
0.0150759
-0.00015038
0.0152201
-0.000144647
0.0153571
-0.0001375
0.015486
-0.000129424
0.0156065
-0.000120919
0.0157184
-0.000112367
0.0158221
-0.000104092
0.0159179
-9.62689e-05
0.0160066
-8.90624e-05
0.0160886
-8.24475e-05
0.0161647
-7.64536e-05
0.0162354
-7.11058e-05
0.0163014
-6.63878e-05
0.0163633
-6.22569e-05
0.0164217
-5.86626e-05
0.0164769
-5.55477e-05
0.0165295
-5.28574e-05
0.0165797
-5.05358e-05
0.016628
-4.85338e-05
0.0166746
-4.68035e-05
0.0167196
-4.53016e-05
0.0167635
-4.39864e-05
0.0168061
-4.28249e-05
0.0168478
-4.17888e-05
0.0168886
-4.08563e-05
0.0169286
-4.00072e-05
0.0169679
-3.92254e-05
0.0170064
-3.84963e-05
0.0170444
-3.78092e-05
0.0170818
-3.71529e-05
0.0171187
-3.65201e-05
0.017155
-3.59006e-05
0.0171908
-3.52904e-05
0.0172262
-3.46772e-05
0.0172612
-3.40631e-05
0.0172957
-3.34262e-05
0.0173298
-3.27835e-05
0.0173635
-3.20855e-05
0.0173969
-3.13925e-05
0.0174298
-3.05808e-05
0.0174624
-2.98274e-05
0.0174946
-2.88073e-05
0.0175265
-2.80267e-05
0.0175579
-2.66413e-05
0.0175895
-2.61029e-05
0.0176203
-2.42453e-05
0.0176527
-2.49494e-05
0.017684
-2.25026e-05
0.0177211
-2.73046e-05
-2.41493e-05
0.0177566
0.0138409
-3.25008e-05
0.0138895
-9.59893e-05
0.0139676
-0.000154401
0.014071
-0.000204582
0.0141948
-0.00024523
0.014334
-0.000276069
0.0144837
-0.000297171
0.0146391
-0.000309124
0.0147963
-0.000313003
0.014952
-0.000310344
0.0151037
-0.000302541
0.0152493
-0.000290773
0.0153875
-0.000276171
0.0155174
-0.000259816
0.0156386
-0.000242604
0.015751
-0.000225241
0.015855
-0.000208518
0.0159511
-0.000192737
0.0160397
-0.000178122
0.0161216
-0.000164785
0.0161976
-0.000152778
0.0162682
-0.000142104
0.0163341
-0.000132706
0.016396
-0.000124494
0.0164543
-0.000117356
0.0165096
-0.000111176
0.0165622
-0.000105836
0.0166126
-0.000101225
0.016661
-9.72451e-05
0.0167077
-9.38052e-05
0.0167529
-9.08148e-05
0.0167968
-8.81952e-05
0.0168396
-8.58789e-05
0.0168814
-8.38139e-05
0.0169223
-8.19557e-05
0.0169623
-8.02679e-05
0.0170016
-7.87166e-05
0.0170402
-7.72777e-05
0.0170781
-7.5928e-05
0.0171155
-7.46511e-05
0.0171522
-7.34292e-05
0.0171884
-7.22511e-05
0.0172241
-7.11035e-05
0.0172593
-6.9977e-05
0.0172939
-6.88626e-05
0.0173282
-6.7747e-05
0.017362
-6.66301e-05
0.0173953
-6.54808e-05
0.0174282
-6.43347e-05
0.0174607
-6.31004e-05
0.0174928
-6.19168e-05
0.0175245
-6.04975e-05
0.0175558
-5.93137e-05
0.0175867
-5.75083e-05
0.0176173
-5.66568e-05
0.0176474
-5.42817e-05
0.0176779
-5.53904e-05
0.0177079
-5.24777e-05
0.0177414
-6.07123e-05
-5.73768e-05
0.0177747
0.0138423
-5.05349e-05
0.0138954
-0.000149513
0.0139794
-0.000238892
0.0140893
-0.000315014
0.0142203
-0.00037676
0.0143673
-0.000423507
0.0145246
-0.000454972
0.0146871
-0.000472177
0.0148508
-0.00047719
0.0150124
-0.000472409
0.0151692
-0.000459849
0.0153191
-0.000441168
0.0154606
-0.000418149
0.0155928
-0.000392485
0.0157153
-0.000365608
0.0158283
-0.000338687
0.015932
-0.000312632
0.0160269
-0.00028805
0.0161136
-0.000265305
0.0161931
-0.000244606
0.0162659
-0.000226016
0.0163329
-0.00020951
0.0163948
-0.000194982
0.0164522
-0.000182284
0.0165057
-0.000171232
0.0165558
-0.000161641
0.016603
-0.000153324
0.0166476
-0.000146111
0.0166898
-0.000139851
0.0167301
-0.000134402
0.0167686
-0.000129619
0.0168056
-0.000125387
0.016841
-0.000121608
0.0168752
-0.000118201
0.0169081
-0.000115102
0.0169399
-0.000112255
0.0169705
-0.000109614
0.0170002
-0.000107145
0.0170289
-0.000104815
0.0170567
-0.0001026
0.0170836
-0.000100476
0.0171096
-9.84294e-05
0.0171348
-9.6441e-05
0.0171592
-9.45026e-05
0.0171829
-9.25977e-05
0.0172057
-9.07182e-05
0.0172279
-8.88452e-05
0.0172493
-8.69787e-05
0.0172701
-8.51052e-05
0.0172902
-8.32275e-05
0.0173096
-8.13223e-05
0.0173285
-7.93907e-05
0.0173466
-7.74118e-05
0.0173645
-7.53464e-05
0.0173811
-7.3291e-05
0.0173979
-7.09993e-05
0.0174122
-6.96078e-05
0.0174279
-6.81561e-05
0.0174401
-7.28136e-05
-7.29016e-05
0.0174557
0.0138444
-7.06166e-05
0.0139047
-0.000210241
0.0139996
-0.000334387
0.0141243
-0.000440163
0.0142735
-0.000526497
0.0144396
-0.000590093
0.0146136
-0.000629509
0.0147876
-0.000646664
0.0149556
-0.000645684
0.0151133
-0.000630555
0.0152574
-0.000604488
0.0153864
-0.00057067
0.0154999
-0.000532063
0.015598
-0.000491158
0.0156819
-0.000449914
0.0157525
-0.000409766
0.0158112
-0.000371736
0.0158592
-0.0003365
0.0158979
-0.000304396
0.0159284
-0.000275552
0.0159519
-0.000249927
0.0159694
-0.000227362
0.0159817
-0.000207633
0.0159895
-0.00019047
0.0159935
-0.000175586
0.0159942
-0.000162687
0.015992
-0.000151494
0.0159873
-0.000141791
0.0159806
-0.000133389
0.0159719
-0.000126059
0.0159616
-0.000119608
0.0159499
-0.000113891
0.0159368
-0.000108788
0.0159225
-0.000104202
0.0159072
-0.000100039
0.015891
-9.62194e-05
0.0158739
-9.2698e-05
0.0158559
-8.94286e-05
0.0158373
-8.63723e-05
0.015818
-8.34962e-05
0.0157982
-8.07756e-05
0.0157778
-7.81856e-05
0.0157569
-7.57137e-05
0.0157357
-7.33399e-05
0.015714
-7.10649e-05
0.0156921
-6.88448e-05
0.0156699
-6.66898e-05
0.0156474
-6.45652e-05
0.0156248
-6.25041e-05
0.015602
-6.04708e-05
0.0155791
-5.8452e-05
0.0155562
-5.65273e-05
0.0155332
-5.44167e-05
0.0155107
-5.27572e-05
0.0154875
-5.00369e-05
0.0154656
-4.90587e-05
0.0154399
-4.38955e-05
0.0154175
-4.56459e-05
0.0153811
-3.63291e-05
-4.82355e-05
0.0153565
0.013866
-0.000112228
0.0139639
-0.000308671
0.0140932
-0.000464158
0.0142296
-0.000577066
0.0143506
-0.000648074
0.0144403
-0.000680282
0.0144914
-0.000681075
0.0145028
-0.000658587
0.0144784
-0.000621705
0.0144233
-0.000575979
0.014343
-0.000524668
0.0142433
-0.000471534
0.0141298
-0.000418995
0.0140069
-0.000368739
0.0138784
-0.000321878
0.0137472
-0.000279064
0.0136157
-0.000240611
0.0134853
-0.000206589
0.0133574
-0.000176854
0.0132326
-0.000151151
0.0131114
-0.000129141
0.0129941
-0.000110446
0.0128807
-9.46845e-05
0.0127714
-8.14812e-05
0.0126659
-7.04839e-05
0.0125642
-6.1356e-05
0.0124661
-5.37161e-05
0.0123714
-4.74058e-05
0.01228
-4.23299e-05
0.0121918
-3.81402e-05
0.0121066
-3.46784e-05
0.0120242
-3.18199e-05
0.0119446
-2.94537e-05
0.0118677
-2.74839e-05
0.0117932
-2.58308e-05
0.0117212
-2.44318e-05
0.0116515
-2.32407e-05
0.0115841
-2.22175e-05
0.0115189
-2.13298e-05
0.0114558
-2.05483e-05
0.0113947
-1.98529e-05
0.0113356
-1.92215e-05
0.0112784
-1.86441e-05
0.0112231
-1.81057e-05
0.0111696
-1.76295e-05
0.0111178
-1.7148e-05
0.0110677
-1.6676e-05
0.0110193
-1.62058e-05
0.0109725
-1.57452e-05
0.0109273
-1.52947e-05
0.0108836
-1.47963e-05
0.0108415
-1.4419e-05
0.0108008
-1.37303e-05
0.0107618
-1.37577e-05
0.010724
-1.21483e-05
0.010689
-1.40373e-05
0.0106521
-6.89778e-06
0.0106218
-1.52736e-05
0.0105585
2.70714e-05
-1.95638e-05
0.0105299
0.0137122
0.013403
0.0129383
0.0123608
0.0117122
0.0110314
0.0103499
0.00969077
0.00906857
0.0084921
0.00796695
0.00749494
0.00707547
0.00670627
0.00638394
0.00610443
0.00586338
0.00565636
0.00547908
0.00532752
0.00519797
0.00508713
0.00499207
0.00491021
0.00483937
0.00477766
0.00472361
0.00467588
0.00463324
0.0045948
0.00455983
0.00452774
0.00449803
0.00447029
0.00444423
0.00441958
0.00439613
0.00437372
0.00435221
0.0043315
0.00431149
0.00429214
0.00427337
0.00425515
0.00423743
0.0042202
0.00420345
0.00418719
0.0041714
0.00415608
0.00414127
0.00412685
0.00411313
0.00409939
0.00408728
0.00407329
0.00406645
0.00405125
0.0040784
0.00405893
0.00383966
0.000157314
0.00378104
5.9426e-05
0.00370275
7.90718e-05
0.00362687
7.66781e-05
0.00356048
6.72252e-05
0.00350573
5.55944e-05
0.00345939
4.72053e-05
0.00341745
4.28189e-05
0.00337813
4.0211e-05
0.0033414
3.76116e-05
0.00330744
3.48424e-05
0.00327609
3.22201e-05
0.00324706
2.98916e-05
0.00322009
2.78194e-05
0.00319497
2.59472e-05
0.00317153
2.42552e-05
0.00314959
2.27268e-05
0.00312903
2.13395e-05
0.00310972
2.00697e-05
0.00309155
1.89067e-05
0.00307445
1.78291e-05
0.00305831
1.68385e-05
0.00304307
1.59277e-05
0.00302865
1.5076e-05
0.00301501
1.42804e-05
0.00300209
1.35346e-05
0.00298983
1.28396e-05
0.00297819
1.21935e-05
0.00296711
1.15845e-05
0.00295657
1.1012e-05
0.00294653
1.04729e-05
0.00293693
9.97158e-06
0.00292776
9.49874e-06
0.00291898
9.04803e-06
0.00291056
8.62168e-06
0.00290248
8.22093e-06
0.00289471
7.84379e-06
0.00288723
7.48827e-06
0.00288001
7.1528e-06
0.00287304
6.83678e-06
0.00286631
6.53863e-06
0.00285978
6.25637e-06
0.00285346
5.9894e-06
0.00284734
5.73676e-06
0.0028414
5.49776e-06
0.00283564
5.27175e-06
0.00283005
5.0575e-06
0.00282464
4.85416e-06
0.00281939
4.6612e-06
0.00281431
4.47786e-06
0.00280939
4.30335e-06
0.00280464
4.13719e-06
0.00280005
3.97902e-06
0.00279563
3.82836e-06
0.00279137
3.68477e-06
0.00278727
3.54792e-06
0.00278333
3.41754e-06
0.00277954
3.29344e-06
0.00277591
3.17547e-06
0.00277243
3.06343e-06
0.00276909
2.95713e-06
0.00276589
2.85644e-06
0.00276282
2.76125e-06
0.00275987
2.67146e-06
0.00275703
2.58694e-06
0.00275429
2.50756e-06
0.00275165
2.43313e-06
0.00274909
2.36348e-06
0.00274661
2.29841e-06
0.00274419
2.23766e-06
0.00274183
2.18097e-06
0.00273952
2.12802e-06
0.00273725
2.07846e-06
0.00273502
2.03191e-06
0.00273282
1.98798e-06
0.00273065
1.94629e-06
0.0027285
1.90642e-06
0.00272638
1.8679e-06
0.0027243
1.83028e-06
0.00272224
1.79312e-06
0.00272022
1.75601e-06
0.00271824
1.71859e-06
0.00271631
1.68051e-06
0.00271444
1.64147e-06
0.00271264
1.60122e-06
0.00271091
1.55958e-06
0.00270927
1.51645e-06
0.00270772
1.47176e-06
0.00270628
1.42554e-06
0.00270495
1.37787e-06
0.00270374
1.32891e-06
0.00270267
1.27889e-06
0.00270172
1.22809e-06
0.00270092
1.17686e-06
0.00270025
1.12558e-06
0.00269973
1.07467e-06
0.00269934
1.02458e-06
0.00269909
9.75784e-07
0.00269897
9.28739e-07
0.00269897
8.83898e-07
0.00269909
8.41709e-07
0.0026993
8.02576e-07
0.0026996
7.66856e-07
0.00269998
7.34873e-07
0.00270042
7.06881e-07
0.0027009
6.83063e-07
0.00270141
6.63555e-07
0.00270193
6.48406e-07
0.00270245
6.37592e-07
0.00270294
6.3104e-07
0.0027034
6.28596e-07
0.00270381
6.30044e-07
0.00270416
6.3513e-07
0.00270443
6.43544e-07
0.00270461
6.54933e-07
0.0027047
6.68935e-07
0.00270469
6.8516e-07
0.00270456
7.03203e-07
0.00270433
7.22681e-07
0.00270398
7.43214e-07
0.00270351
7.64427e-07
0.00270293
7.85997e-07
0.00270223
8.07641e-07
0.00270143
8.29063e-07
0.00270052
8.50099e-07
0.0026995
8.70551e-07
0.00269838
8.90323e-07
0.00269718
9.0933e-07
0.00269588
9.2756e-07
0.00269451
9.4502e-07
0.00269305
9.61797e-07
0.00269153
9.77965e-07
0.00268993
9.93584e-07
0.00268827
1.00894e-06
0.00268655
1.02406e-06
0.00268476
1.03908e-06
0.00268292
1.05429e-06
0.00268102
1.06974e-06
0.00267906
1.08548e-06
0.00267705
1.10178e-06
0.00267498
1.11864e-06
0.00267285
1.136e-06
0.00267066
1.15398e-06
0.00266841
1.17249e-06
0.00266611
1.19137e-06
0.00266375
1.21056e-06
0.00266133
1.22987e-06
0.00265886
1.24896e-06
0.00265635
1.26767e-06
0.00265378
1.28568e-06
0.00265119
1.30255e-06
0.00264856
1.31801e-06
0.00264592
1.33165e-06
0.00264326
1.34299e-06
0.00264062
1.35174e-06
0.00263799
1.35748e-06
0.00263541
1.35975e-06
0.00263288
1.35832e-06
0.00263042
1.35285e-06
0.00262805
1.343e-06
0.0026258
1.32868e-06
0.00262368
1.30972e-06
0.00262173
1.28598e-06
0.00261994
1.2576e-06
0.00261836
1.22465e-06
0.002617
1.18727e-06
0.00261587
1.14586e-06
0.00261501
1.1008e-06
0.00261441
1.05249e-06
0.00261409
1.00165e-06
0.00261407
9.4892e-07
0.00261436
8.94996e-07
0.00261495
8.40829e-07
0.00261585
7.87298e-07
0.00261705
7.35293e-07
0.00261856
6.85927e-07
0.00262036
6.40204e-07
0.00262244
5.99094e-07
0.00262478
5.63742e-07
0.00262735
5.35135e-07
0.00263014
5.14172e-07
0.00263312
5.01876e-07
0.00263625
4.99056e-07
0.00263951
5.06382e-07
0.00264284
5.24594e-07
0.00264623
5.54173e-07
0.00264962
5.95414e-07
0.00265298
6.48643e-07
0.00265626
7.13892e-07
0.00265943
7.90983e-07
0.00266245
8.79751e-07
0.00266528
9.79734e-07
0.00266788
1.09026e-06
0.00267022
1.21068e-06
0.00267227
1.34008e-06
0.00267401
1.47735e-06
0.00267541
1.62147e-06
0.00267646
1.77117e-06
0.00267715
1.92504e-06
0.00267746
2.08183e-06
0.0026774
2.24005e-06
0.00267697
2.39818e-06
0.00267617
2.55484e-06
0.00267503
2.70855e-06
0.00267355
2.85777e-06
0.00267177
3.00123e-06
0.00266971
3.13757e-06
0.0026674
3.26549e-06
0.00266489
3.384e-06
0.0026622
3.4921e-06
0.00265939
3.58894e-06
0.00265649
3.67404e-06
0.00265355
3.74701e-06
0.00265062
3.80763e-06
0.00264775
3.85609e-06
0.00264497
3.89268e-06
0.00264233
3.91782e-06
0.00263987
3.93233e-06
0.00263762
3.93704e-06
0.00263562
3.93286e-06
0.0026339
3.92101e-06
0.00263248
3.90266e-06
0.00263137
3.879e-06
0.00263061
3.85149e-06
0.00263019
3.82152e-06
0.00263012
3.79051e-06
0.0026304
3.76015e-06
0.00263102
3.73204e-06
0.00263197
3.7078e-06
0.00263324
3.68922e-06
0.00263479
3.67796e-06
0.00263661
3.67549e-06
0.00263865
3.68335e-06
0.00264087
3.7027e-06
0.00264325
3.73444e-06
0.00264572
3.77928e-06
0.00264824
3.83749e-06
0.00265078
3.90896e-06
0.00265328
3.99341e-06
0.0026557
4.09022e-06
0.00265801
4.19838e-06
0.00266016
4.31705e-06
0.00266213
4.44491e-06
0.00266389
4.58086e-06
0.00266542
4.72343e-06
0.00266669
4.87176e-06
0.00266769
5.02394e-06
0.00266841
5.17958e-06
0.00266884
5.33638e-06
0.00266899
5.49425e-06
0.00266885
5.6503e-06
0.00266843
5.80506e-06
0.00266774
5.95446e-06
0.00266681
6.09955e-06
0.00266565
6.23581e-06
0.0026643
6.36321e-06
0.00266278
6.47954e-06
0.00266116
6.58048e-06
0.00265945
6.67339e-06
0.00265773
6.73852e-06
0.00265602
6.8142e-06
0.0026544
6.83131e-06
0.00265284
6.90993e-06
0.00265151
6.85178e-06
0.00265025
6.97598e-06
0.0026494
6.784e-06
0.00264855
7.01194e-06
0.0026485
6.49364e-06
0.00264833
6.8779e-06
5.43801e-06
0.0101848
0.000454512
0.00991398
0.00033083
0.00972836
0.000265414
0.0095641
0.000241738
0.00941522
0.000216954
0.00928516
0.000186538
0.00917143
0.000161858
0.00906877
0.00014641
0.00897406
0.000135865
0.00888628
0.000126341
0.00880491
0.000117158
0.00872937
0.000108705
0.00865905
0.000101131
0.00859348
9.43089e-05
0.0085322
8.81155e-05
0.00847485
8.24919e-05
0.00842105
7.73845e-05
0.00837049
7.27297e-05
0.00832291
6.84654e-05
0.00827807
6.45465e-05
0.00823575
6.09299e-05
0.00819575
5.7589e-05
0.00815792
5.44975e-05
0.00812208
5.16219e-05
0.00808811
4.89417e-05
0.00805587
4.64343e-05
0.00802524
4.40893e-05
0.00799613
4.18978e-05
0.00796843
3.98389e-05
0.00794204
3.79021e-05
0.0079169
3.60766e-05
0.0078929
3.43722e-05
0.00786998
3.27641e-05
0.00784807
3.1235e-05
0.00782712
2.97878e-05
0.00780707
2.84233e-05
0.00778785
2.71357e-05
0.00776942
2.59197e-05
0.00775173
2.47707e-05
0.00773473
2.36864e-05
0.00771838
2.26621e-05
0.00770265
2.16923e-05
0.00768751
2.07746e-05
0.00767292
1.99062e-05
0.00765885
1.90846e-05
0.00764529
1.83079e-05
0.0076322
1.75726e-05
0.00761957
1.68762e-05
0.00760738
1.62169e-05
0.00759561
1.55921e-05
0.00758425
1.49995e-05
0.00757329
1.44375e-05
0.0075627
1.39045e-05
0.00755249
1.3399e-05
0.00754263
1.29192e-05
0.00753312
1.24638e-05
0.00752394
1.20317e-05
0.00751508
1.16219e-05
0.00750653
1.12334e-05
0.00749827
1.08653e-05
0.0074903
1.05166e-05
0.00748259
1.01865e-05
0.00747514
9.87443e-06
0.00746793
9.57958e-06
0.00746095
9.30134e-06
0.00745417
9.03899e-06
0.00744759
8.79181e-06
0.00744119
8.55908e-06
0.00743496
8.34007e-06
0.00742888
8.134e-06
0.00742294
7.94007e-06
0.00741713
7.75738e-06
0.00741143
7.585e-06
0.00740585
7.42197e-06
0.00740036
7.2673e-06
0.00739497
7.12009e-06
0.00738966
6.97937e-06
0.00738445
6.84404e-06
0.00737932
6.71303e-06
0.00737427
6.58537e-06
0.00736932
6.46015e-06
0.00736445
6.33649e-06
0.00735969
6.21361e-06
0.00735503
6.09083e-06
0.00735048
5.96755e-06
0.00734605
5.84333e-06
0.00734175
5.71784e-06
0.00733759
5.59088e-06
0.00733357
5.46241e-06
0.0073297
5.33249e-06
0.00732599
5.20134e-06
0.00732245
5.06932e-06
0.00731908
4.93689e-06
0.00731588
4.80462e-06
0.00731286
4.6732e-06
0.00731001
4.54335e-06
0.00730733
4.41587e-06
0.00730481
4.29159e-06
0.00730246
4.17134e-06
0.00730026
4.05596e-06
0.0072982
3.94624e-06
0.00729627
3.84292e-06
0.00729445
3.74665e-06
0.00729274
3.65802e-06
0.00729111
3.57748e-06
0.00728955
3.50538e-06
0.00728805
3.44195e-06
0.00728658
3.38726e-06
0.00728513
3.34125e-06
0.00728368
3.30378e-06
0.00728222
3.27453e-06
0.00728073
3.25309e-06
0.0072792
3.23895e-06
0.00727761
3.23151e-06
0.00727596
3.2301e-06
0.00727423
3.234e-06
0.00727242
3.24248e-06
0.00727053
3.25474e-06
0.00726854
3.27005e-06
0.00726645
3.28769e-06
0.00726427
3.30693e-06
0.00726199
3.32715e-06
0.00725961
3.3478e-06
0.00725714
3.36835e-06
0.00725458
3.38845e-06
0.00725193
3.40774e-06
0.00724921
3.42606e-06
0.0072464
3.4432e-06
0.00724353
3.45923e-06
0.00724058
3.47406e-06
0.00723758
3.48794e-06
0.00723452
3.50094e-06
0.0072314
3.51334e-06
0.00722823
3.52541e-06
0.00722502
3.53744e-06
0.00722175
3.54964e-06
0.00721845
3.56241e-06
0.00721509
3.57598e-06
0.0072117
3.59046e-06
0.00720826
3.60617e-06
0.00720477
3.62318e-06
0.00720124
3.64144e-06
0.00719766
3.66099e-06
0.00719403
3.68174e-06
0.00719036
3.70331e-06
0.00718664
3.72553e-06
0.00718288
3.74801e-06
0.00717908
3.77012e-06
0.00717523
3.79145e-06
0.00717136
3.81136e-06
0.00716746
3.82903e-06
0.00716354
3.84384e-06
0.00715962
3.85501e-06
0.0071557
3.86163e-06
0.0071518
3.86304e-06
0.00714793
3.85848e-06
0.00714411
3.84709e-06
0.00714036
3.82832e-06
0.0071367
3.80158e-06
0.00713314
3.76625e-06
0.00712972
3.72205e-06
0.00712644
3.66875e-06
0.00712334
3.60611e-06
0.00712044
3.53432e-06
0.00711775
3.4536e-06
0.0071153
3.36424e-06
0.0071131
3.26696e-06
0.00711118
3.16254e-06
0.00710955
3.05183e-06
0.00710822
2.93611e-06
0.00710721
2.81671e-06
0.00710653
2.695e-06
0.00710617
2.57273e-06
0.00710615
2.45168e-06
0.00710645
2.3336e-06
0.00710707
2.22054e-06
0.00710801
2.11451e-06
0.00710925
2.01742e-06
0.00711077
1.93139e-06
0.00711255
1.85838e-06
0.00711457
1.80015e-06
0.0071168
1.75858e-06
0.0071192
1.7353e-06
0.00712174
1.73162e-06
0.0071244
1.74886e-06
0.00712712
1.78802e-06
0.00712986
1.84966e-06
0.0071326
1.93434e-06
0.00713528
2.04217e-06
0.00713787
2.17281e-06
0.00714033
2.32587e-06
0.00714261
2.50052e-06
0.00714469
2.69549e-06
0.00714653
2.90944e-06
0.00714811
3.14068e-06
0.00714939
3.38712e-06
0.00715035
3.64669e-06
0.00715098
3.91704e-06
0.00715126
4.1955e-06
0.0071512
4.47955e-06
0.00715077
4.76645e-06
0.00715
5.05328e-06
0.00714888
5.33734e-06
0.00714742
5.61584e-06
0.00714566
5.8859e-06
0.00714361
6.14497e-06
0.0071413
6.39053e-06
0.00713876
6.62012e-06
0.00713603
6.83173e-06
0.00713315
7.02354e-06
0.00713017
7.19392e-06
0.00712711
7.34185e-06
0.00712404
7.46661e-06
0.00712099
7.56778e-06
0.00711802
7.64559e-06
0.00711516
7.70061e-06
0.00711247
7.73363e-06
0.00710997
7.74605e-06
0.00710771
7.73949e-06
0.00710571
7.71563e-06
0.00710402
7.67666e-06
0.00710264
7.62478e-06
0.00710161
7.56224e-06
0.00710094
7.49166e-06
0.00710063
7.41569e-06
0.0071007
7.33697e-06
0.00710115
7.25858e-06
0.00710196
7.18356e-06
0.00710313
7.11494e-06
0.00710464
7.05605e-06
0.00710647
7.01004e-06
0.00710859
6.97977e-06
0.00711096
6.96804e-06
0.00711355
6.9772e-06
0.00711631
7.00899e-06
0.00711922
7.06481e-06
0.00712221
7.14529e-06
0.00712524
7.25033e-06
0.00712828
7.37943e-06
0.00713128
7.5316e-06
0.00713421
7.70503e-06
0.00713702
7.89822e-06
0.00713969
8.10875e-06
0.00714219
8.33478e-06
0.0071445
8.57348e-06
0.0071466
8.82356e-06
0.00714847
9.08129e-06
0.00715011
9.3464e-06
0.0071515
9.61417e-06
0.00715265
9.88547e-06
0.00715356
1.01537e-05
0.00715423
1.04218e-05
0.00715468
1.06797e-05
0.00715492
1.09333e-05
0.00715498
1.11684e-05
0.00715488
1.13939e-05
0.00715466
1.15927e-05
0.00715436
1.17752e-05
0.00715402
1.19289e-05
0.00715369
1.20537e-05
0.00715341
1.21694e-05
0.00715323
1.22195e-05
0.00715318
1.2328e-05
0.00715332
1.22624e-05
0.00715363
1.24297e-05
0.00715427
1.21466e-05
0.00715505
1.24752e-05
0.00715645
1.1648e-05
0.00715804
1.2101e-05
9.62165e-06
0.0151609
0.000619306
0.0149078
0.000584488
0.014675
0.000498823
0.0144578
0.000459595
0.0142583
0.000417231
0.0140838
0.000361949
0.0139337
0.000312806
0.0138028
0.000278325
0.0136861
0.000253516
0.0135806
0.00023278
0.0134842
0.000214548
0.0133952
0.000198692
0.0133123
0.000184927
0.0132348
0.000172755
0.0131621
0.000161818
0.0130935
0.000151927
0.0130289
0.000142942
0.0129678
0.000134728
0.0129099
0.000127178
0.0128551
0.000120206
0.0128031
0.000113752
0.0127537
0.000107764
0.0127068
0.000102191
0.0126621
9.69921e-05
0.0126197
9.21377e-05
0.0125792
8.75895e-05
0.0125406
8.33221e-05
0.0125039
7.93179e-05
0.0124687
7.55499e-05
0.0124352
7.19994e-05
0.0124031
6.8648e-05
0.0123724
6.55133e-05
0.012343
6.25502e-05
0.0123148
5.97332e-05
0.0122878
5.70663e-05
0.0122618
5.45484e-05
0.0122369
5.217e-05
0.0122129
4.99221e-05
0.0121898
4.77971e-05
0.0121675
4.57912e-05
0.0121461
4.38957e-05
0.0121254
4.21013e-05
0.0121054
4.04039e-05
0.012086
3.87976e-05
0.0120674
3.72785e-05
0.0120493
3.58426e-05
0.0120318
3.44838e-05
0.0120148
3.31977e-05
0.0119984
3.19808e-05
0.0119825
3.08285e-05
0.011967
2.97363e-05
0.0119521
2.87012e-05
0.0119376
2.77203e-05
0.0119235
2.67903e-05
0.0119099
2.59083e-05
0.0118966
2.50713e-05
0.0118838
2.42772e-05
0.0118713
2.35239e-05
0.0118592
2.28095e-05
0.0118475
2.21321e-05
0.0118361
2.14898e-05
0.011825
2.08808e-05
0.0118142
2.03038e-05
0.0118037
1.97574e-05
0.0117934
1.92403e-05
0.0117835
1.87511e-05
0.0117737
1.82884e-05
0.0117642
1.78508e-05
0.0117549
1.74371e-05
0.0117458
1.70459e-05
0.0117368
1.66759e-05
0.011728
1.63254e-05
0.0117194
1.59931e-05
0.011711
1.56773e-05
0.0117026