/*--------------------------------*- C++ -*----------------------------------*\
  =========                 |
  \\      /  F ield         | OpenFOAM: The Open Source CFD Toolbox
   \\    /   O peration     | Website:  https://openfoam.org
    \\  /    A nd           | Version:  7
     \\/     M anipulation  |
\*---------------------------------------------------------------------------*/
FoamFile
{
    version     2.0;
    format      ascii;
    class       volVectorField;
    location    "0.325";
    object      UMean;
}
// * * * * * * * * * * * * * * * * * * * * * * * * * * * * * * * * * * * * * //

dimensions      [0 1 -1 0 0 0 0];

internalField   nonuniform List<vector> 
7920
(
(2.99294 0.0897709 -32.3668)
(2.29711 -0.445156 -32.3953)
(1.6729 -0.583739 -32.3775)
(1.63365 -0.633048 -32.3875)
(1.44207 -0.647731 -32.3862)
(1.50796 -0.652273 -32.4053)
(1.39413 -0.656162 -32.4101)
(1.46629 -0.656325 -32.4264)
(1.38076 -0.658429 -32.4295)
(1.44535 -0.657943 -32.4406)
(1.37673 -0.659233 -32.4417)
(1.432 -0.658515 -32.4487)
(1.37511 -0.659352 -32.4487)
(1.42182 -0.658695 -32.4529)
(1.37341 -0.659047 -32.4529)
(1.41396 -0.659105 -32.4542)
(1.36838 -0.656153 -32.4567)
(1.40496 -0.662165 -32.4522)
(1.35594 -0.613261 -32.4647)
(1.23295 -0.609343 -32.4353)
(4.40911 0.907963 -32.4281)
(4.39031 0.795971 -32.4595)
(3.83696 0.742731 -32.4454)
(3.8015 0.682198 -32.4498)
(3.50346 0.660459 -32.445)
(3.58393 0.651109 -32.4578)
(3.40073 0.647375 -32.4625)
(3.50391 0.645994 -32.4772)
(3.37114 0.645198 -32.4831)
(3.46882 0.644954 -32.4942)
(3.36448 0.644758 -32.4986)
(3.44971 0.644795 -32.506)
(3.36358 0.644763 -32.509)
(3.43644 0.645023 -32.5132)
(3.36245 0.644509 -32.5156)
(3.42896 0.64649 -32.5162)
(3.35252 0.642622 -32.5207)
(3.44533 0.651846 -32.5143)
(3.29742 0.642745 -32.5292)
(3.61766 0.651811 -32.4885)
(4.73146 0.164989 -32.436)
(5.20822 -0.257015 -32.4651)
(5.04931 -0.401957 -32.4496)
(5.18245 -0.514832 -32.4532)
(4.96395 -0.570732 -32.4425)
(5.05824 -0.600522 -32.4483)
(4.88478 -0.617812 -32.4456)
(4.97638 -0.626953 -32.4565)
(4.84454 -0.633061 -32.4599)
(4.93167 -0.636059 -32.4719)
(4.8292 -0.638048 -32.477)
(4.90758 -0.638616 -32.4875)
(4.82456 -0.639196 -32.4927)
(4.89254 -0.63877 -32.5006)
(4.82321 -0.639894 -32.5055)
(4.88054 -0.636618 -32.5093)
(4.82468 -0.642775 -32.5146)
(4.86087 -0.625947 -32.5124)
(4.82892 -0.639904 -32.5221)
(4.80035 -0.607052 -32.4928)
(4.73115 0.610014 -32.4454)
(5.21892 0.685845 -32.4744)
(5.25161 0.719852 -32.4606)
(5.51643 0.686608 -32.4647)
(5.40855 0.668858 -32.4545)
(5.56209 0.655158 -32.4577)
(5.43914 0.646465 -32.452)
(5.54923 0.640324 -32.4587)
(5.43889 0.636357 -32.4595)
(5.52688 0.633315 -32.4692)
(5.43367 0.631743 -32.4735)
(5.5079 0.630494 -32.4835)
(5.42996 0.630101 -32.4894)
(5.49405 0.62977 -32.4986)
(5.42705 0.629547 -32.5051)
(5.48526 0.630462 -32.5116)
(5.4225 0.629807 -32.5175)
(5.4879 0.63336 -32.5194)
(5.42073 0.640456 -32.5252)
(5.55011 0.676694 -32.5019)
(4.7228 -0.092583 -32.4448)
(5.18957 -0.384611 -32.4719)
(5.27072 -0.477278 -32.4568)
(5.57423 -0.542947 -32.4611)
(5.50753 -0.576512 -32.4503)
(5.69043 -0.595049 -32.4534)
(5.59475 -0.60673 -32.4464)
(5.72094 -0.613636 -32.452)
(5.6262 -0.618935 -32.4511)
(5.72045 -0.622177 -32.4597)
(5.63456 -0.624591 -32.4627)
(5.70919 -0.625691 -32.4722)
(5.63497 -0.626817 -32.4773)
(5.69644 -0.626292 -32.4869)
(5.63489 -0.628341 -32.4932)
(5.68298 -0.623639 -32.5016)
(5.64159 -0.633332 -32.507)
(5.65916 -0.612258 -32.5122)
(5.67193 -0.645538 -32.5159)
(5.61817 -0.627766 -32.4976)
(4.7097 0.335422 -32.4484)
(5.13776 0.525296 -32.4756)
(5.23094 0.596179 -32.4604)
(5.54876 0.61355 -32.4646)
(5.50006 0.62185 -32.4538)
(5.6982 0.62395 -32.4569)
(5.61665 0.624942 -32.4498)
(5.75361 0.624797 -32.455)
(5.66839 0.624898 -32.4537)
(5.76859 0.624543 -32.462)
(5.68787 0.624539 -32.4646)
(5.76478 0.624191 -32.4737)
(5.69295 0.624354 -32.4784)
(5.75473 0.623821 -32.4879)
(5.69426 0.62469 -32.494)
(5.74276 0.622481 -32.5028)
(5.69987 0.627781 -32.5082)
(5.72655 0.617783 -32.5144)
(5.72964 0.643208 -32.5177)
(5.72326 0.658245 -32.5003)
(4.7097 -0.335422 -32.4484)
(5.13776 -0.525296 -32.4756)
(5.23094 -0.59618 -32.4604)
(5.54876 -0.613551 -32.4646)
(5.50006 -0.62185 -32.4538)
(5.6982 -0.62395 -32.4569)
(5.61665 -0.624942 -32.4498)
(5.75361 -0.624796 -32.455)
(5.66839 -0.624898 -32.4537)
(5.76859 -0.624541 -32.462)
(5.68788 -0.624537 -32.4646)
(5.76477 -0.624182 -32.4738)
(5.69297 -0.62435 -32.4784)
(5.7547 -0.623781 -32.4879)
(5.69433 -0.624687 -32.4939)
(5.74267 -0.622318 -32.5029)
(5.70004 -0.627792 -32.5082)
(5.72632 -0.617246 -32.5145)
(5.72974 -0.643015 -32.5176)
(5.72278 -0.657091 -32.5004)
(4.7228 0.0925829 -32.4448)
(5.18957 0.384611 -32.4719)
(5.27072 0.477278 -32.4568)
(5.57423 0.542947 -32.4611)
(5.50753 0.576512 -32.4503)
(5.69043 0.595049 -32.4534)
(5.59475 0.60673 -32.4464)
(5.72094 0.613636 -32.452)
(5.6262 0.618936 -32.451)
(5.72045 0.622177 -32.4597)
(5.63456 0.624595 -32.4627)
(5.70921 0.625696 -32.4723)
(5.63496 0.626828 -32.4772)
(5.69649 0.626319 -32.487)
(5.63484 0.62836 -32.4931)
(5.68309 0.623768 -32.5018)
(5.64155 0.633351 -32.5067)
(5.65948 0.612785 -32.5126)
(5.67216 0.645756 -32.5154)
(5.61927 0.629093 -32.4982)
(4.73115 -0.610014 -32.4454)
(5.21892 -0.685845 -32.4744)
(5.25161 -0.719852 -32.4606)
(5.51643 -0.686608 -32.4647)
(5.40855 -0.668859 -32.4545)
(5.56209 -0.655158 -32.4577)
(5.43914 -0.646465 -32.452)
(5.54923 -0.640323 -32.4587)
(5.43889 -0.636358 -32.4594)
(5.52688 -0.633312 -32.4692)
(5.43368 -0.631744 -32.4734)
(5.5079 -0.630483 -32.4836)
(5.42998 -0.630102 -32.4893)
(5.49406 -0.629727 -32.4989)
(5.42712 -0.629557 -32.5047)
(5.48525 -0.630276 -32.5122)
(5.42274 -0.629857 -32.5165)
(5.48785 -0.632848 -32.5208)
(5.42125 -0.640451 -32.5232)
(5.55017 -0.675857 -32.5045)
(4.73146 -0.164989 -32.436)
(5.20822 0.257015 -32.4651)
(5.04931 0.401957 -32.4496)
(5.18245 0.514832 -32.4532)
(4.96395 0.570732 -32.4425)
(5.05824 0.600522 -32.4483)
(4.88477 0.617812 -32.4456)
(4.97638 0.626952 -32.4565)
(4.84454 0.633063 -32.4598)
(4.93168 0.636057 -32.4719)
(4.82919 0.638054 -32.4769)
(4.9076 0.638613 -32.4876)
(4.82454 0.639213 -32.4925)
(4.89263 0.63877 -32.501)
(4.82317 0.639931 -32.5047)
(4.88078 0.636653 -32.5106)
(4.8247 0.642829 -32.5125)
(4.86155 0.626275 -32.5159)
(4.82948 0.640122 -32.5166)
(4.80274 0.608194 -32.5012)
(4.40911 -0.907963 -32.4281)
(4.39031 -0.795971 -32.4595)
(3.83696 -0.742731 -32.4454)
(3.8015 -0.682198 -32.4498)
(3.50346 -0.66046 -32.445)
(3.58392 -0.651109 -32.4578)
(3.40072 -0.647376 -32.4625)
(3.5039 -0.645993 -32.4772)
(3.37113 -0.6452 -32.4831)
(3.46882 -0.644952 -32.4942)
(3.36448 -0.644761 -32.4986)
(3.44972 -0.644787 -32.5061)
(3.3636 -0.644771 -32.5088)
(3.43647 -0.644994 -32.5135)
(3.36252 -0.64453 -32.5148)
(3.42906 -0.64637 -32.5176)
(3.35283 -0.642704 -32.5179)
(3.44552 -0.651515 -32.5196)
(3.29859 -0.642988 -32.5191)
(3.61805 -0.65188 -32.507)
(2.99294 -0.089771 -32.3668)
(2.29711 0.445156 -32.3953)
(1.6729 0.583739 -32.3775)
(1.63365 0.633048 -32.3874)
(1.44207 0.64773 -32.3862)
(1.50796 0.652272 -32.4053)
(1.39413 0.656162 -32.4101)
(1.46629 0.656324 -32.4264)
(1.38076 0.65843 -32.4295)
(1.44535 0.657941 -32.4406)
(1.37673 0.659238 -32.4417)
(1.43201 0.658507 -32.4488)
(1.37511 0.659367 -32.4486)
(1.42186 0.65867 -32.4531)
(1.37342 0.659088 -32.4524)
(1.41408 0.659025 -32.4553)
(1.3685 0.656272 -32.4545)
(1.40527 0.662035 -32.4567)
(1.35661 0.613719 -32.4556)
(1.23449 0.610003 -32.4545)
(4.3479 0.524926 0.00751908)
(3.27284 0.789504 0.00516301)
(2.64719 0.809029 0.00635006)
(2.24692 0.79698 0.00494082)
(2.16898 0.800296 0.00597573)
(2.06581 0.810091 0.00485092)
(2.0817 0.817813 0.00569617)
(2.0342 0.823955 0.00475477)
(2.05222 0.826719 0.00543917)
(2.02456 0.829024 0.00465324)
(2.03689 0.829582 0.00520703)
(2.02006 0.83053 0.0045521)
(2.02656 0.830434 0.00499595)
(2.01571 0.831092 0.00445025)
(2.01794 0.830279 0.00480149)
(2.01068 0.832653 0.0043475)
(2.0066 0.824198 0.00462241)
(2.02761 0.848221 0.00424379)
(1.93029 0.741968 0.00448294)
(2.39931 0.757277 0.004082)
(4.71659 -0.118189 0.00499802)
(4.61754 -0.302927 0.00307054)
(4.5545 -0.500792 0.00428484)
(4.30059 -0.648887 0.00290846)
(4.22173 -0.729032 0.00395105)
(4.07636 -0.771404 0.00283056)
(4.06042 -0.790386 0.0036783)
(3.99019 -0.801379 0.00273848)
(3.99725 -0.806523 0.00342454)
(3.96334 -0.810194 0.00263958)
(3.97354 -0.811605 0.00319445)
(3.95628 -0.812953 0.00253971)
(3.96279 -0.813137 0.00298407)
(3.95277 -0.813943 0.00243812)
(3.95555 -0.813379 0.00278941)
(3.94711 -0.814718 0.00233561)
(3.9516 -0.814315 0.002607)
(3.92992 -0.810953 0.00223463)
(3.96753 -0.828166 0.00241324)
(3.72971 -0.789075 0.00207137)
(4.60867 0.406741 0.0062582)
(4.79419 0.797063 0.00439409)
(5.03095 0.869331 0.00549451)
(4.99355 0.855322 0.00408053)
(5.03133 0.836351 0.00509839)
(4.95232 0.824987 0.00396642)
(4.96177 0.817251 0.00480826)
(4.9093 0.813678 0.0038662)
(4.91825 0.80991 0.00455007)
(4.88925 0.808928 0.00376464)
(4.89715 0.807233 0.00431849)
(4.88232 0.807448 0.00366418)
(4.88649 0.80672 0.00410838)
(4.87969 0.80718 0.00356294)
(4.87736 0.806611 0.00391451)
(4.88017 0.807763 0.00346043)
(4.85989 0.80339 0.00373544)
(4.89834 0.815615 0.00335758)
(4.82134 0.765468 0.00359497)
(4.97687 0.833345 0.00323884)
(4.55421 -0.20232 0.0051099)
(4.69019 -0.399667 0.00346441)
(5.01961 -0.527073 0.00457026)
(5.09489 -0.62817 0.003186)
(5.22854 -0.691218 0.00420808)
(5.21946 -0.73257 0.00308176)
(5.27226 -0.755114 0.00392705)
(5.24901 -0.770594 0.00298713)
(5.27223 -0.779527 0.0036727)
(5.25251 -0.786245 0.00288843)
(5.26299 -0.789852 0.00344297)
(5.25005 -0.792424 0.00278913)
(5.25434 -0.793719 0.00323348)
(5.24658 -0.794047 0.00268829)
(5.24752 -0.795738 0.00303966)
(5.24053 -0.792529 0.00258619)
(5.2448 -0.802031 0.00285739)
(5.21609 -0.781156 0.00248326)
(5.26513 -0.827767 0.00266013)
(5.05262 -0.79841 0.00234465)
(4.56522 0.323697 0.00574459)
(4.68964 0.642226 0.00413354)
(5.00303 0.740161 0.00519254)
(5.09358 0.773377 0.00379452)
(5.25187 0.784754 0.00480366)
(5.26874 0.791262 0.00367095)
(5.34395 0.7927 0.00451271)
(5.33985 0.794022 0.00357093)
(5.37677 0.792836 0.00425503)
(5.36745 0.792994 0.00346978)
(5.38396 0.791881 0.00402334)
(5.37517 0.792119 0.0033692)
(5.38132 0.791552 0.00381308)
(5.37502 0.791654 0.00326794)
(5.37564 0.791879 0.00361908)
(5.37139 0.790828 0.00316565)
(5.36872 0.792677 0.00343878)
(5.36203 0.790013 0.00306208)
(5.37587 0.788952 0.00328168)
(5.32544 0.840655 0.00294557)
(4.55937 -0.260265 0.00538253)
(4.66484 -0.516389 0.00383474)
(4.97614 -0.625939 0.00489286)
(5.07029 -0.691546 0.00350227)
(5.23831 -0.728014 0.00451075)
(5.26536 -0.752228 0.00337907)
(5.35046 -0.764678 0.00422152)
(5.35481 -0.773701 0.00328023)
(5.39864 -0.778143 0.00396487)
(5.39458 -0.782157 0.00317996)
(5.41484 -0.783942 0.00373382)
(5.4083 -0.785717 0.0030798)
(5.41627 -0.786531 0.00352373)
(5.40992 -0.786662 0.00297864)
(5.41296 -0.788382 0.00332963)
(5.40434 -0.784886 0.0028765)
(5.41201 -0.793334 0.00314801)
(5.3807 -0.776583 0.00277299)
(5.43444 -0.809856 0.00296775)
(5.27804 -0.821808 0.00264716)
(4.55937 0.260265 0.00538253)
(4.66484 0.516389 0.00383474)
(4.97614 0.625939 0.00489286)
(5.07029 0.691546 0.00350227)
(5.23831 0.728014 0.00451075)
(5.26536 0.752228 0.00337907)
(5.35046 0.764678 0.00422152)
(5.35482 0.773702 0.00328023)
(5.39864 0.778144 0.00396487)
(5.39459 0.782159 0.00317995)
(5.41483 0.783944 0.00373382)
(5.40832 0.785726 0.00307979)
(5.41625 0.786536 0.00352375)
(5.40996 0.786699 0.0029786)
(5.41289 0.788397 0.0033297)
(5.40447 0.785023 0.00287633)
(5.4119 0.793412 0.00314828)
(5.38106 0.777022 0.0027726)
(5.43449 0.810309 0.00296886)
(5.27886 0.823034 0.00264689)
(4.56522 -0.323697 0.00574459)
(4.68964 -0.642226 0.00413354)
(5.00303 -0.740161 0.00519254)
(5.09358 -0.773377 0.00379452)
(5.25187 -0.784754 0.00480366)
(5.26874 -0.791262 0.00367095)
(5.34395 -0.7927 0.00451271)
(5.33985 -0.794021 0.00357094)
(5.37677 -0.792836 0.00425502)
(5.36745 -0.79299 0.00346979)
(5.38397 -0.791881 0.00402333)
(5.37517 -0.792105 0.00336921)
(5.38135 -0.791555 0.00381304)
(5.375 -0.791601 0.00326799)
(5.37573 -0.791885 0.00361898)
(5.37129 -0.790663 0.00316584)
(5.36892 -0.792661 0.00343844)
(5.36179 -0.789613 0.00306245)
(5.37616 -0.788583 0.00328055)
(5.32504 -0.83969 0.00294553)
(4.55421 0.20232 0.0051099)
(4.69019 0.399667 0.00346441)
(5.01961 0.527073 0.00457027)
(5.09489 0.62817 0.003186)
(5.22854 0.691218 0.00420808)
(5.21946 0.73257 0.00308176)
(5.27226 0.755114 0.00392705)
(5.24901 0.770594 0.00298713)
(5.27223 0.779529 0.0036727)
(5.25252 0.786245 0.00288843)
(5.26298 0.789856 0.00344297)
(5.25007 0.792425 0.00278913)
(5.25432 0.793731 0.00323348)
(5.24664 0.794057 0.00268827)
(5.24747 0.795773 0.00303966)
(5.24072 0.792595 0.00258611)
(5.24477 0.802161 0.0028575)
(5.21666 0.781512 0.00248301)
(5.2654 0.828249 0.00266101)
(5.05436 0.799745 0.00234437)
(4.60867 -0.406741 0.0062582)
(4.79419 -0.797063 0.00439409)
(5.03095 -0.86933 0.00549451)
(4.99355 -0.855322 0.00408053)
(5.03133 -0.836351 0.00509839)
(4.95232 -0.824986 0.00396642)
(4.96177 -0.817251 0.00480825)
(4.90931 -0.813676 0.0038662)
(4.91825 -0.80991 0.00455006)
(4.88925 -0.808924 0.00376465)
(4.89716 -0.807234 0.00431847)
(4.88232 -0.807432 0.0036642)
(4.88651 -0.806726 0.00410832)
(4.87971 -0.807122 0.00356302)
(4.87742 -0.806637 0.00391433)
(4.88023 -0.807587 0.00346071)
(4.8601 -0.803457 0.00373492)
(4.89852 -0.815264 0.00335817)
(4.82193 -0.765395 0.00359354)
(4.97751 -0.832904 0.00323923)
(4.71659 0.118189 0.00499802)
(4.61754 0.302927 0.00307054)
(4.5545 0.500792 0.00428484)
(4.30059 0.648887 0.00290846)
(4.22173 0.729032 0.00395105)
(4.07636 0.771404 0.00283056)
(4.06042 0.790387 0.0036783)
(3.99019 0.801378 0.00273848)
(3.99725 0.806524 0.00342454)
(3.96334 0.810191 0.00263957)
(3.97353 0.811611 0.00319445)
(3.9563 0.812943 0.0025397)
(3.96278 0.813154 0.00298406)
(3.95286 0.813918 0.00243812)
(3.95551 0.81343 0.00278937)
(3.94741 0.814682 0.00233563)
(3.95155 0.814474 0.00260687)
(3.93102 0.811049 0.00223472)
(3.96746 0.828681 0.00241328)
(3.73426 0.790171 0.00207182)
(4.3479 -0.524926 0.00751908)
(3.27284 -0.789504 0.00516301)
(2.64719 -0.809029 0.00635007)
(2.24692 -0.79698 0.00494083)
(2.16898 -0.800296 0.00597573)
(2.06581 -0.810091 0.00485092)
(2.0817 -0.817813 0.00569616)
(2.0342 -0.823954 0.00475477)
(2.05222 -0.82672 0.00543917)
(2.02456 -0.82902 0.00465324)
(2.03689 -0.829585 0.00520703)
(2.02007 -0.830516 0.00455211)
(2.02657 -0.830447 0.00499591)
(2.01574 -0.831048 0.00445031)
(2.01801 -0.830325 0.00480133)
(2.01076 -0.832535 0.00434779)
(2.00685 -0.824357 0.00462174)
(2.02789 -0.848024 0.00424488)
(1.93105 -0.7426 0.00448036)
(2.4005 -0.758066 0.00408585)
(4.37836 0.0801922 0.00166693)
(4.09059 0.113367 0.00218514)
(3.69342 0.11639 0.00129389)
(3.43691 0.106549 0.00179228)
(3.21252 0.0960838 0.00128867)
(3.12728 0.0914824 0.00164582)
(3.05457 0.0911781 0.00130619)
(3.05878 0.0949064 0.00152281)
(3.04211 0.0992135 0.00129731)
(3.06414 0.103509 0.00142201)
(3.05848 0.106369 0.00128501)
(3.07894 0.108368 0.0013478)
(3.07549 0.109391 0.00127556)
(3.09407 0.110036 0.00129535)
(3.08982 0.109924 0.0012713)
(3.11329 0.111247 0.00126013)
(3.09282 0.108005 0.00127636)
(3.15286 0.115483 0.00123841)
(3.04819 0.100389 0.00126778)
(3.24587 0.118823 0.00128319)
(4.52361 0.0725025 0.0034112)
(4.66687 0.0848755 0.00409082)
(4.67297 0.0694548 0.0031935)
(4.70436 0.0338463 0.00366937)
(4.64783 -0.00550055 0.00314429)
(4.64437 -0.0410738 0.00349151)
(4.5989 -0.0674254 0.00314586)
(4.60813 -0.085426 0.00336175)
(4.58762 -0.096112 0.00313578)
(4.60902 -0.102528 0.00326202)
(4.60306 -0.105985 0.00312564)
(4.62832 -0.107862 0.00319003)
(4.62822 -0.109119 0.00311831)
(4.65434 -0.108927 0.00313892)
(4.65472 -0.110801 0.00311539)
(4.68467 -0.107003 0.00310378)
(4.67623 -0.114629 0.00312274)
(4.7239 -0.0978148 0.00308135)
(4.67944 -0.122274 0.00315248)
(4.76995 -0.0720485 0.00317103)
(4.5031 0.0386292 0.00201786)
(4.65173 0.0853635 0.00259245)
(4.71933 0.116106 0.00172995)
(4.84468 0.125743 0.00221156)
(4.87767 0.122864 0.00169448)
(4.94322 0.116959 0.00204715)
(4.94178 0.11172 0.00170787)
(4.97635 0.109804 0.00192592)
(4.96807 0.109636 0.00170246)
(4.99559 0.110764 0.00182802)
(4.99199 0.111665 0.00169224)
(5.01944 0.112627 0.00175552)
(5.02053 0.112684 0.00168398)
(5.04857 0.113641 0.00170408)
(5.0513 0.111862 0.00168021)
(5.08008 0.116046 0.00167015)
(5.08244 0.107374 0.00168345)
(5.11072 0.125279 0.0016558)
(5.11944 0.0978711 0.00166515)
(5.12994 0.148673 0.00169682)
(4.49898 0.0358654 0.00300816)
(4.62384 0.0341156 0.00368141)
(4.68884 0.0214881 0.00283743)
(4.82386 -0.00203575 0.00332037)
(4.87651 -0.0272134 0.00278995)
(4.96497 -0.0512288 0.00313371)
(4.98448 -0.0706587 0.00278637)
(5.03606 -0.0852943 0.00300152)
(5.04027 -0.0952902 0.00277533)
(5.07633 -0.101974 0.00290067)
(5.07838 -0.106375 0.00276407)
(5.10861 -0.108811 0.00282786)
(5.11233 -0.110974 0.00275624)
(5.13915 -0.11071 0.00277688)
(5.14607 -0.113387 0.00275335)
(5.16751 -0.109096 0.00274321)
(5.1838 -0.117037 0.00275936)
(5.18729 -0.101643 0.00272902)
(5.23815 -0.121597 0.00279264)
(5.18502 -0.0840327 0.00280781)
(4.4998 0.0144842 0.00232746)
(4.62416 0.0449735 0.0029576)
(4.68413 0.0696833 0.00212441)
(4.81598 0.0848892 0.00260088)
(4.86852 0.0927422 0.00207063)
(4.96012 0.0977388 0.00241522)
(4.98424 0.101228 0.00207084)
(5.04096 0.104835 0.00228743)
(5.04978 0.107859 0.00206299)
(5.08978 0.110498 0.00218837)
(5.09492 0.112192 0.00205233)
(5.12733 0.113351 0.00211562)
(5.13291 0.113725 0.00204407)
(5.1603 0.114247 0.00206428)
(5.16886 0.113456 0.00204046)
(5.18902 0.115324 0.00203121)
(5.20869 0.111282 0.00204391)
(5.2076 0.11976 0.00202117)
(5.26863 0.10795 0.00204076)
(5.2108 0.133551 0.00206452)
(4.49863 0.00905394 0.00265144)
(4.61767 -0.00675212 0.00330864)
(4.67697 -0.0248317 0.00248207)
(4.80823 -0.0440037 0.00296291)
(4.86116 -0.0603399 0.00243096)
(4.95376 -0.0746312 0.00277422)
(4.97952 -0.0859814 0.00242786)
(5.03823 -0.0950094 0.00264385)
(5.04915 -0.101559 0.00241863)
(5.09102 -0.10626 0.00254399)
(5.09783 -0.109447 0.00240767)
(5.13124 -0.111303 0.0024711)
(5.13791 -0.112747 0.0023995)
(5.16523 -0.112821 0.0024198)
(5.17503 -0.114011 0.00239612)
(5.1936 -0.112482 0.00238659)
(5.2162 -0.114905 0.00240066)
(5.21063 -0.11076 0.00237612)
(5.27811 -0.115233 0.00241897)
(5.21344 -0.109238 0.00243219)
(4.49863 -0.00905395 0.00265144)
(4.61767 0.00675216 0.00330864)
(4.67697 0.0248318 0.00248207)
(4.80823 0.0440038 0.00296291)
(4.86116 0.0603399 0.00243096)
(4.95376 0.0746315 0.00277422)
(4.97952 0.0859812 0.00242786)
(5.03823 0.0950102 0.00264385)
(5.04915 0.101558 0.00241863)
(5.09102 0.106263 0.002544)
(5.09782 0.109445 0.00240767)
(5.13124 0.111315 0.00247112)
(5.13791 0.11274 0.00239948)
(5.16524 0.112861 0.00241986)
(5.17502 0.113996 0.00239605)
(5.19362 0.112611 0.00238675)
(5.2162 0.114911 0.00240032)
(5.21068 0.111134 0.00237645)
(5.27817 0.115531 0.00241772)
(5.21361 0.110185 0.00243243)
(4.4998 -0.0144842 0.00232746)
(4.62416 -0.0449735 0.0029576)
(4.68413 -0.0696832 0.00212441)
(4.81598 -0.0848891 0.00260088)
(4.86852 -0.0927422 0.00207063)
(4.96012 -0.0977385 0.00241522)
(4.98424 -0.101228 0.00207084)
(5.04096 -0.104834 0.00228743)
(5.04978 -0.10786 0.00206299)
(5.08978 -0.110494 0.00218836)
(5.09493 -0.112195 0.00205233)
(5.12732 -0.113339 0.0021156)
(5.13292 -0.113733 0.00204407)
(5.16029 -0.114206 0.00206424)
(5.1689 -0.113475 0.00204051)
(5.189 -0.115196 0.00203106)
(5.20876 -0.111286 0.00204418)
(5.20762 -0.1194 0.00202084)
(5.26877 -0.107684 0.00204185)
(5.21101 -0.132656 0.00206421)
(4.49898 -0.0358654 0.00300816)
(4.62384 -0.0341155 0.00368141)
(4.68884 -0.0214881 0.00283743)
(4.82386 0.00203582 0.00332037)
(4.87651 0.0272134 0.00278995)
(4.96497 0.051229 0.00313371)
(4.98448 0.0706586 0.00278636)
(5.03606 0.0852949 0.00300153)
(5.04026 0.0952898 0.00277533)
(5.07634 0.101976 0.00290068)
(5.07838 0.106374 0.00276406)
(5.10862 0.10882 0.00282788)
(5.11234 0.110969 0.00275621)
(5.13916 0.110743 0.00277693)
(5.14608 0.113375 0.00275326)
(5.16754 0.109213 0.00274336)
(5.18388 0.117035 0.00275901)
(5.18741 0.102002 0.00272932)
(5.23841 0.121836 0.00279137)
(5.18558 0.0849804 0.00280799)
(4.5031 -0.0386292 0.00201786)
(4.65173 -0.0853635 0.00259245)
(4.71933 -0.116106 0.00172995)
(4.84468 -0.125743 0.00221156)
(4.87767 -0.122864 0.00169448)
(4.94322 -0.116959 0.00204715)
(4.94178 -0.11172 0.00170787)
(4.97635 -0.109803 0.00192592)
(4.96807 -0.109637 0.00170246)
(4.99559 -0.110761 0.00182802)
(4.99199 -0.111669 0.00169224)
(5.01945 -0.112617 0.00175551)
(5.02054 -0.112693 0.00168397)
(5.04858 -0.113606 0.00170407)
(5.05132 -0.111884 0.00168021)
(5.08012 -0.115935 0.00167008)
(5.08255 -0.107405 0.00168353)
(5.11087 -0.12497 0.00165564)
(5.11981 -0.097731 0.00166572)
(5.13064 -0.147926 0.00169675)
(4.52361 -0.0725025 0.0034112)
(4.66687 -0.0848754 0.00409082)
(4.67297 -0.0694548 0.0031935)
(4.70436 -0.0338463 0.00366937)
(4.64783 0.00550071 0.00314429)
(4.64437 0.0410739 0.00349151)
(4.5989 0.0674257 0.00314586)
(4.60813 0.085426 0.00336176)
(4.58762 0.0961125 0.00313577)
(4.60903 0.102528 0.00326203)
(4.60305 0.105986 0.00312562)
(4.62834 0.107864 0.00319007)
(4.62819 0.10912 0.00311823)
(4.65443 0.108942 0.00313905)
(4.65465 0.110799 0.00311515)
(4.68491 0.107069 0.00310414)
(4.67614 0.11463 0.00312207)
(4.72458 0.0980528 0.0030822)
(4.67953 0.122419 0.00315052)
(4.77201 0.0727656 0.00317281)
(4.37836 -0.0801922 0.00166693)
(4.09059 -0.113367 0.00218514)
(3.69342 -0.11639 0.00129389)
(3.43691 -0.106549 0.00179228)
(3.21252 -0.0960839 0.00128867)
(3.12728 -0.0914824 0.00164582)
(3.05457 -0.0911782 0.00130619)
(3.05878 -0.0949062 0.00152281)
(3.04211 -0.0992138 0.00129731)
(3.06414 -0.103508 0.00142201)
(3.05848 -0.10637 0.00128501)
(3.07895 -0.108365 0.0013478)
(3.07548 -0.109395 0.00127554)
(3.09413 -0.110023 0.00129537)
(3.08979 -0.109939 0.00127122)
(3.11354 -0.111204 0.00126023)
(3.09272 -0.10805 0.00127608)
(3.15375 -0.115369 0.00123878)
(3.04792 -0.100448 0.00126696)
(3.24946 -0.118671 0.00128459)
(4.37836 0.0801922 -0.00166703)
(4.09059 0.113367 -0.00218525)
(3.69342 0.11639 -0.00129399)
(3.43691 0.106549 -0.00179239)
(3.21252 0.0960838 -0.00128877)
(3.12728 0.0914825 -0.00164593)
(3.05457 0.0911782 -0.0013063)
(3.05878 0.0949065 -0.00152291)
(3.04211 0.0992136 -0.00129742)
(3.06414 0.103509 -0.00142211)
(3.05848 0.106369 -0.00128511)
(3.07894 0.108368 -0.00134791)
(3.07549 0.109391 -0.00127566)
(3.09407 0.110036 -0.00129546)
(3.08982 0.109924 -0.0012714)
(3.11329 0.111247 -0.00126023)
(3.09281 0.108005 -0.00127647)
(3.15286 0.115483 -0.00123852)
(3.04819 0.100389 -0.00126789)
(3.24587 0.118824 -0.00128329)
(4.52361 0.0725025 -0.00341131)
(4.66687 0.0848754 -0.00409092)
(4.67297 0.0694548 -0.00319361)
(4.70436 0.0338463 -0.00366948)
(4.64783 -0.00550068 -0.00314439)
(4.64437 -0.0410739 -0.00349161)
(4.5989 -0.0674255 -0.00314596)
(4.60813 -0.0854261 -0.00336186)
(4.58762 -0.0961121 -0.00313588)
(4.60902 -0.102528 -0.00326213)
(4.60305 -0.105985 -0.00312575)
(4.62831 -0.107862 -0.00319014)
(4.62822 -0.109119 -0.00311841)
(4.65434 -0.108927 -0.00313903)
(4.65472 -0.110801 -0.00311549)
(4.68466 -0.107003 -0.00310389)
(4.67623 -0.114629 -0.00312285)
(4.72389 -0.0978149 -0.00308145)
(4.67944 -0.122274 -0.00315259)
(4.76995 -0.0720486 -0.00317114)
(4.5031 0.0386292 -0.00201797)
(4.65173 0.0853635 -0.00259256)
(4.71933 0.116106 -0.00173006)
(4.84468 0.125743 -0.00221167)
(4.87767 0.122864 -0.00169458)
(4.94322 0.116959 -0.00204726)
(4.94178 0.11172 -0.00170797)
(4.97635 0.109804 -0.00192603)
(4.96807 0.109636 -0.00170257)
(4.99559 0.110765 -0.00182813)
(4.99199 0.111666 -0.00169235)
(5.01944 0.112627 -0.00175562)
(5.02053 0.112684 -0.00168409)
(5.04857 0.113641 -0.00170419)
(5.0513 0.111862 -0.00168032)
(5.08008 0.116046 -0.00167025)
(5.08244 0.107374 -0.00168356)
(5.11071 0.125279 -0.00165591)
(5.11944 0.0978712 -0.00166526)
(5.12994 0.148673 -0.00169693)
(4.49898 0.0358654 -0.00300826)
(4.62384 0.0341155 -0.00368151)
(4.68884 0.0214881 -0.00283753)
(4.82386 -0.00203581 -0.00332047)
(4.87651 -0.0272135 -0.00279005)
(4.96497 -0.0512289 -0.00313382)
(4.98448 -0.0706587 -0.00278647)
(5.03606 -0.0852943 -0.00300163)
(5.04026 -0.0952903 -0.00277543)
(5.07633 -0.101974 -0.00290078)
(5.07838 -0.106375 -0.00276417)
(5.10861 -0.108811 -0.00282796)
(5.11233 -0.110974 -0.00275634)
(5.13915 -0.11071 -0.00277698)
(5.14607 -0.113387 -0.00275346)
(5.16751 -0.109096 -0.00274331)
(5.1838 -0.117037 -0.00275947)
(5.18729 -0.101643 -0.00272912)
(5.23814 -0.121597 -0.00279275)
(5.18502 -0.0840328 -0.00280792)
(4.4998 0.0144842 -0.00232756)
(4.62416 0.0449735 -0.0029577)
(4.68413 0.0696833 -0.00212451)
(4.81598 0.0848892 -0.00260098)
(4.86852 0.0927423 -0.00207074)
(4.96012 0.0977389 -0.00241532)
(4.98424 0.101228 -0.00207094)
(5.04096 0.104835 -0.00228754)
(5.04978 0.107859 -0.0020631)
(5.08978 0.110498 -0.00218847)
(5.09492 0.112192 -0.00205243)
(5.12733 0.113351 -0.00211572)
(5.13291 0.113725 -0.00204417)
(5.1603 0.114247 -0.00206439)
(5.16886 0.113456 -0.00204057)
(5.18902 0.115324 -0.00203131)
(5.20869 0.111282 -0.00204401)
(5.2076 0.11976 -0.00202128)
(5.26863 0.10795 -0.00204087)
(5.2108 0.133551 -0.00206462)
(4.49863 0.00905394 -0.00265155)
(4.61767 -0.00675215 -0.00330874)
(4.67697 -0.0248318 -0.00248218)
(4.80823 -0.0440038 -0.00296301)
(4.86116 -0.0603399 -0.00243107)
(4.95376 -0.0746312 -0.00277433)
(4.97952 -0.0859814 -0.00242796)
(5.03823 -0.0950094 -0.00264395)
(5.04915 -0.101559 -0.00241873)
(5.09102 -0.10626 -0.0025441)
(5.09783 -0.109447 -0.00240778)
(5.13124 -0.111304 -0.00247121)
(5.13791 -0.112747 -0.0023996)
(5.16523 -0.112822 -0.00241991)
(5.17503 -0.114011 -0.00239623)
(5.1936 -0.112482 -0.0023867)
(5.2162 -0.114905 -0.00240077)
(5.21063 -0.11076 -0.00237622)
(5.27811 -0.115233 -0.00241908)
(5.21344 -0.109238 -0.0024323)
(4.49863 -0.00905394 -0.00265155)
(4.61767 0.00675216 -0.00330874)
(4.67697 0.0248318 -0.00248218)
(4.80823 0.0440039 -0.00296301)
(4.86116 0.0603399 -0.00243107)
(4.95376 0.0746316 -0.00277433)
(4.97952 0.0859813 -0.00242796)
(5.03823 0.0950103 -0.00264395)
(5.04915 0.101558 -0.00241873)
(5.09102 0.106263 -0.0025441)
(5.09782 0.109445 -0.00240778)
(5.13124 0.111315 -0.00247123)
(5.13791 0.11274 -0.00239959)
(5.16524 0.112861 -0.00241996)
(5.17502 0.113996 -0.00239616)
(5.19362 0.112611 -0.00238686)
(5.2162 0.114911 -0.00240043)
(5.21068 0.111134 -0.00237656)
(5.27817 0.115531 -0.00241782)
(5.2136 0.110185 -0.00243254)
(4.4998 -0.0144842 -0.00232756)
(4.62416 -0.0449735 -0.0029577)
(4.68413 -0.0696833 -0.00212451)
(4.81598 -0.0848891 -0.00260098)
(4.86852 -0.0927423 -0.00207074)
(4.96012 -0.0977386 -0.00241532)
(4.98424 -0.101228 -0.00207094)
(5.04096 -0.104834 -0.00228754)
(5.04978 -0.10786 -0.0020631)
(5.08978 -0.110494 -0.00218847)
(5.09493 -0.112195 -0.00205243)
(5.12732 -0.113339 -0.00211571)
(5.13292 -0.113733 -0.00204418)
(5.16029 -0.114206 -0.00206434)
(5.16889 -0.113475 -0.00204062)
(5.189 -0.115196 -0.00203116)
(5.20876 -0.111286 -0.00204428)
(5.20762 -0.1194 -0.00202095)
(5.26877 -0.107684 -0.00204195)
(5.21101 -0.132656 -0.00206432)
(4.49898 -0.0358654 -0.00300826)
(4.62384 -0.0341155 -0.00368151)
(4.68884 -0.021488 -0.00283753)
(4.82386 0.00203585 -0.00332047)
(4.87651 0.0272135 -0.00279005)
(4.96497 0.0512291 -0.00313382)
(4.98448 0.0706587 -0.00278647)
(5.03606 0.085295 -0.00300163)
(5.04026 0.0952899 -0.00277543)
(5.07634 0.101976 -0.00290078)
(5.07838 0.106374 -0.00276416)
(5.10861 0.10882 -0.00282798)
(5.11234 0.110969 -0.00275631)
(5.13916 0.110743 -0.00277704)
(5.14608 0.113375 -0.00275336)
(5.16754 0.109213 -0.00274347)
(5.18388 0.117035 -0.00275912)
(5.18741 0.102002 -0.00272942)
(5.23841 0.121837 -0.00279147)
(5.18557 0.0849805 -0.0028081)
(4.5031 -0.0386292 -0.00201797)
(4.65173 -0.0853635 -0.00259256)
(4.71933 -0.116106 -0.00173006)
(4.84468 -0.125743 -0.00221167)
(4.87767 -0.122864 -0.00169458)
(4.94322 -0.116959 -0.00204726)
(4.94178 -0.11172 -0.00170797)
(4.97635 -0.109803 -0.00192603)
(4.96807 -0.109637 -0.00170257)
(4.99559 -0.110761 -0.00182813)
(4.99199 -0.111669 -0.00169235)
(5.01945 -0.112617 -0.00175562)
(5.02054 -0.112693 -0.00168408)
(5.04858 -0.113606 -0.00170417)
(5.05132 -0.111884 -0.00168032)
(5.08012 -0.115935 -0.00167019)
(5.08255 -0.107405 -0.00168364)
(5.11087 -0.12497 -0.00165575)
(5.11981 -0.097731 -0.00166583)
(5.13064 -0.147926 -0.00169685)
(4.52361 -0.0725025 -0.00341131)
(4.66687 -0.0848754 -0.00409093)
(4.67297 -0.0694547 -0.00319361)
(4.70436 -0.0338463 -0.00366948)
(4.64783 0.00550068 -0.00314439)
(4.64437 0.0410739 -0.00349161)
(4.5989 0.0674257 -0.00314596)
(4.60813 0.0854261 -0.00336186)
(4.58762 0.0961126 -0.00313588)
(4.60903 0.102529 -0.00326214)
(4.60305 0.105986 -0.00312573)
(4.62834 0.107865 -0.00319018)
(4.62819 0.109121 -0.00311834)
(4.65443 0.108942 -0.00313916)
(4.65465 0.1108 -0.00311526)
(4.68491 0.107069 -0.00310424)
(4.67614 0.11463 -0.00312217)
(4.72457 0.0980528 -0.0030823)
(4.67952 0.122419 -0.00315062)
(4.77201 0.0727657 -0.00317292)
(4.37836 -0.0801922 -0.00166703)
(4.09059 -0.113367 -0.00218525)
(3.69342 -0.11639 -0.00129399)
(3.43691 -0.106549 -0.00179239)
(3.21252 -0.0960839 -0.00128877)
(3.12728 -0.0914824 -0.00164593)
(3.05457 -0.0911782 -0.0013063)
(3.05878 -0.0949063 -0.00152291)
(3.04211 -0.0992138 -0.00129742)
(3.06414 -0.103508 -0.00142211)
(3.05848 -0.10637 -0.00128511)
(3.07895 -0.108365 -0.00134791)
(3.07548 -0.109395 -0.00127565)
(3.09413 -0.110023 -0.00129548)
(3.08979 -0.109939 -0.00127133)
(3.11354 -0.111204 -0.00126034)
(3.09272 -0.10805 -0.00127619)
(3.15375 -0.115369 -0.00123889)
(3.04792 -0.100448 -0.00126707)
(3.24946 -0.118671 -0.00128469)
(4.3479 0.524926 -0.00751916)
(3.27284 0.789504 -0.00516308)
(2.64719 0.809029 -0.00635014)
(2.24692 0.79698 -0.0049409)
(2.16898 0.800295 -0.00597581)
(2.06581 0.810091 -0.00485099)
(2.0817 0.817813 -0.00569624)
(2.0342 0.823955 -0.00475484)
(2.05222 0.826718 -0.00543925)
(2.02456 0.829024 -0.00465332)