/*--------------------------------*- C++ -*----------------------------------*\
  =========                 |
  \\      /  F ield         | OpenFOAM: The Open Source CFD Toolbox
   \\    /   O peration     | Website:  https://openfoam.org
    \\  /    A nd           | Version:  7
     \\/     M anipulation  |
\*---------------------------------------------------------------------------*/
FoamFile
{
    version     2.0;
    format      ascii;
    class       volScalarField;
    location    "4.55";
    object      pMean;
}
// * * * * * * * * * * * * * * * * * * * * * * * * * * * * * * * * * * * * * //

dimensions      [1 -1 -2 0 0 0 0];

internalField   nonuniform List<scalar> 
7920
(
103075
102758
102951
102847
102911
102870
102893
102874
102881
102871
102870
102864
102859
102854
102846
102840
102825
102820
102787
102781
102493
102172
102360
102254
102320
102278
102301
102282
102289
102279
102279
102272
102268
102262
102254
102249
102233
102229
102194
102189
102694
102364
102554
102445
102512
102469
102492
102474
102480
102470
102470
102464
102459
102454
102446
102441
102425
102420
102384
102381
102578
102250
102436
102328
102394
102352
102375
102357
102363
102353
102353
102346
102342
102337
102329
102324
102308
102303
102268
102265
102639
102314
102504
102394
102461
102418
102441
102422
102429
102419
102419
102412
102408
102403
102394
102390
102373
102369
102333
102330
102613
102288
102476
102367
102433
102391
102414
102395
102402
102392
102391
102385
102381
102375
102367
102362
102346
102342
102306
102303
102613
102288
102476
102367
102433
102391
102414
102395
102402
102392
102391
102385
102381
102375
102367
102362
102346
102342
102306
102303
102639
102314
102504
102394
102461
102418
102441
102422
102429
102419
102419
102412
102408
102403
102394
102390
102373
102369
102333
102330
102578
102250
102436
102328
102394
102352
102375
102357
102363
102353
102353
102346
102342
102337
102329
102324
102308
102303
102268
102265
102694
102364
102554
102445
102512
102469
102492
102474
102480
102470
102470
102464
102459
102454
102446
102441
102425
102420
102384
102381
102493
102172
102360
102254
102320
102278
102301
102282
102289
102279
102279
102272
102268
102262
102254
102249
102233
102229
102194
102189
103075
102758
102951
102847
102911
102870
102893
102874
102881
102871
102870
102864
102859
102854
102846
102840
102825
102820
102787
102781
102053
102265
102148
102177
102155
102154
102149
102144
102141
102137
102134
102130
102129
102125
102126
102122
102129
102124
102150
102137
102581
102841
102710
102744
102719
102719
102713
102708
102705
102701
102698
102695
102693
102689
102690
102686
102693
102688
102713
102700
102312
102525
102408
102435
102414
102412
102407
102402
102399
102395
102392
102388
102386
102383
102383
102379
102385
102380
102402
102390
102440
102696
102569
102605
102580
102580
102573
102569
102566
102561
102559
102555
102553
102549
102550
102546
102554
102549
102577
102564
102374
102609
102485
102515
102491
102489
102483
102478
102475
102471
102468
102464
102463
102459
102459
102456
102462
102457
102482
102470
102398
102645
102519
102553
102528
102527
102521
102515
102513
102508
102506
102502
102500
102496
102497
102493
102500
102495
102523
102510
102398
102645
102519
102553
102528
102527
102521
102515
102513
102508
102506
102502
102500
102496
102497
102493
102500
102495
102523
102510
102374
102609
102485
102515
102491
102489
102483
102478
102475
102471
102468
102464
102463
102459
102459
102456
102462
102457
102482
102470
102440
102696
102569
102605
102580
102580
102573
102569
102566
102561
102559
102555
102553
102549
102550
102546
102554
102549
102577
102564
102312
102525
102408
102435
102414
102412
102407
102402
102399
102395
102392
102388
102386
102383
102383
102379
102385
102380
102402
102390
102581
102841
102710
102744
102719
102719
102713
102708
102705
102701
102698
102695
102693
102689
102690
102686
102693
102688
102713
102700
102053
102265
102148
102177
102155
102154
102149
102144
102141
102137
102134
102130
102129
102125
102126
102122
102129
102124
102150
102137
102466
102497
102458
102493
102464
102482
102467
102474
102466
102468
102464
102464
102462
102460
102459
102457
102456
102454
102449
102447
102470
102505
102462
102497
102469
102486
102471
102478
102470
102472
102468
102468
102466
102464
102463
102461
102460
102458
102454
102452
102460
102488
102449
102484
102455
102474
102458
102466
102458
102460
102456
102455
102453
102452
102451
102449
102448
102446
102440
102439
102470
102505
102462
102497
102468
102486
102471
102478
102470
102472
102468
102467
102465
102464
102463
102461
102460
102458
102453
102451
102463
102494
102453
102488
102459
102477
102462
102469
102461
102463
102459
102459
102457
102455
102454
102453
102451
102449
102444
102442
102467
102500
102458
102493
102464
102482
102467
102474
102466
102468
102464
102464
102461
102460
102459
102457
102456
102454
102449
102447
102467
102500
102458
102493
102464
102482
102467
102474
102466
102468
102464
102464
102461
102460
102459
102457
102456
102454
102449
102447
102463
102494
102453
102488
102459
102477
102462
102469
102461
102463
102459
102459
102457
102455
102454
102453
102451
102449
102444
102442
102470
102505
102462
102497
102468
102486
102471
102478
102470
102472
102468
102467
102465
102464
102463
102461
102460
102458
102453
102451
102460
102488
102449
102484
102455
102474
102458
102466
102458
102460
102456
102455
102453
102452
102451
102449
102448
102446
102440
102439
102470
102505
102462
102497
102469
102486
102471
102478
102470
102472
102468
102468
102466
102464
102463
102461
102460
102458
102454
102452
102466
102497
102458
102493
102464
102482
102467
102474
102466
102468
102464
102464
102462
102460
102459
102457
102456
102454
102449
102447
102466
102497
102458
102493
102464
102482
102467
102474
102466
102468
102464
102464
102462
102460
102459
102457
102456
102454
102449
102447
102470
102505
102462
102497
102469
102486
102471
102478
102470
102472
102468
102468
102466
102464
102463
102461
102460
102458
102454
102452
102460
102488
102449
102484
102455
102474
102458
102466
102458
102460
102456
102455
102453
102452
102451
102449
102448
102446
102440
102439
102470
102505
102462
102497
102468
102486
102471
102478
102470
102472
102468
102467
102465
102464
102463
102461
102460
102458
102453
102451
102463
102494
102453
102488
102459
102477
102462
102469
102461
102463
102459
102459
102457
102455
102454
102453
102451
102449
102444
102442
102467
102500
102458
102493
102464
102482
102467
102474
102466
102468
102464
102464
102461
102460
102459
102457
102456
102454
102449
102447
102467
102500
102458
102493
102464
102482
102467
102474
102466
102468
102464
102464
102461
102460
102459
102457
102456
102454
102449
102447
102463
102494
102453
102488
102459
102477
102462
102469
102461
102463
102459
102459
102457
102455
102454
102453
102451
102449
102444
102442
102470
102505
102462
102497
102468
102486
102471
102478
102470
102472
102468
102467
102465
102464
102463
102461
102460
102458
102453
102451
102460
102488
102449
102484
102455
102474
102458
102466
102458
102460
102456
102455
102453
102452
102451
102449
102448
102446
102440
102439
102470
102505
102462
102497
102469
102486
102471
102478
102470
102472
102468
102468
102466
102464
102463
102461
102460
102458
102454
102452
102466
102497
102458
102493
102464
102482
102467
102474
102466
102468
102464
102464
102462
102460
102459
102457
102456
102454
102449
102447
102053
102265
102148
102177
102155
102154
102149
102144
102141
102137
102134
102130
102129
102125
102126
102122
102129
102124
102150
102137
102581
102841
102710
102744
102719
102719
102713
102708
102705
102701
102698
102695
102693
102689
102690
102686
102693
102688
102713
102700
102312
102525
102408
102435
102414
102412
102407
102402
102399
102395
102392
102388
102386
102383
102383
102379
102385
102380
102402
102390
102440
102696
102569
102605
102580
102580
102573
102569
102566
102561
102559
102555
102553
102549
102550
102546
102554
102549
102577
102564
102374
102609
102485
102515
102491
102489
102483
102478
102475
102471
102468
102464
102463
102459
102459
102456
102462
102457
102482
102470
102398
102645
102519
102553
102528
102527
102521
102515
102513
102508
102506
102502
102500
102496
102497
102493
102500
102495
102523
102510
102398
102645
102519
102553
102528
102527
102521
102515
102513
102508
102506
102502
102500
102496
102497
102493
102500
102495
102523
102510
102374
102609
102485
102515
102491
102489
102483
102478
102475
102471
102468
102464
102463
102459
102459
102456
102462
102457
102482
102470
102440
102696
102569
102605
102580
102580
102573
102569
102566
102561
102559
102555
102553
102549
102550
102546
102554
102549
102577
102564
102312
102525
102408
102435
102414
102412
102407
102402
102399
102395
102392
102388
102386
102383
102383
102379
102385
102380
102402
102390
102581
102841
102710
102744
102719
102719
102713
102708
102705
102701
102698
102695
102693
102689
102690
102686
102693
102688
102713
102700
102053
102265
102148
102177
102155
102154
102149
102144
102141
102137
102134
102130
102129
102125
102126
102122
102129
102124
102150
102137
103075
102758
102951
102847
102911
102870
102893
102874
102881
102871
102870
102864
102859
102854
102846
102840
102825
102820
102787
102781
102493
102172
102360
102254
102320
102278
102301
102282
102289
102279
102279
102272
102268
102262
102254
102249
102233
102229
102194
102189
102694
102364
102554
102445
102512
102469
102492
102474
102480
102470
102470
102464
102459
102454
102446
102441
102425
102420
102384
102381
102578
102250
102436
102328
102394
102352
102375
102357
102363
102353
102353
102346
102342
102337
102329
102324
102308
102303
102268
102265
102639
102314
102504
102394
102461
102418
102441
102422
102429
102419
102419
102412
102408
102403
102394
102390
102373
102369
102333
102330
102613
102288
102476
102367
102433
102391
102414
102395
102402
102392
102391
102385
102381
102375
102367
102362
102346
102342
102306
102303
102613
102288
102476
102367
102433
102391
102414
102395
102402
102392
102391
102385
102381
102375
102367
102362
102346
102342
102306
102303
102639
102314
102504
102394
102461
102418
102441
102422
102429
102419
102419
102412
102408
102403
102394
102390
102373
102369
102333
102330
102578
102250
102436
102328
102394
102352
102375
102357
102363
102353
102353
102346
102342
102337
102329
102324
102308
102303
102268
102265
102694
102364
102554
102445
102512
102469
102492
102474
102480
102470
102470
102464
102459
102454
102446
102441
102425
102420
102384
102381
102493
102172
102360
102254
102320
102278
102301
102282
102289
102279
102279
102272
102268
102262
102254
102249
102233
102229
102194
102189
103075
102758
102951
102847
102911
102870
102893
102874
102881
102871
102870
102864
102859
102854
102846
102840
102825
102820
102787
102781
103134
103114
103057
103028
102997
102970
102942
102915
102888
102861
102835
102808
102781
102755
102728
102701
102675
102648
102621
102594
102568
102541
102514
102488
102461
102434
102408
102381
102355
102328
102301
102275
102248
102221
102195
102168
102142
102115
102088
102062
102035
102009
101982
101955
101929
101902
101876
101849
101822
101796
101769
101743
101716
101689
101663
101636
101610
101583
101557
101530
101504
101477
101451
101424
101398
101371
101344
101318
101291
101265
101238
101212
101185
101159
101132
101106
101079
101053
101026
101000
100973
100947
100920
100894
100868
100841
100815
100788
100762
100736
102249
102222
102164
102135
102104
102076
102049
102022
101996
101969
101943
101916
101890
101863
101837
101810
101784
101757
101731
101704
101678
101651
101625
101598
101572
101546
101519
101493
101466
101440
101414
101387
101361
101334
101308
101282
101255
101229
101203
101176
101150
101123
101097
101071
101044
101018
100992
100965
100939
100913
100886
100860
100833
100807
100781
100754
100728
100702
100676
100649
100623
100597
100570
100544
100518
100491
100465
100439
100413
100386
100360
100334
100307
100281
100255
100229
100202
100176
100150
100124
100097
100071
100045
100018
99992.3
99965.8
99940
99913.3
99889
99862.3
102415
102386
102328
102298
102267
102240
102212
102186
102159
102132
102106
102079
102053
102026
102000
101973
101947
101920
101894
101867
101841
101814
101788
101761
101735
101708
101682
101655
101629
101602
101576
101549
101523
101497
101470
101444
101417
101391
101365
101338
101312
101285
101259
101232
101206
101180
101153
101127
101100
101074
101048
101021
100995
100969
100942
100916
100889
100863
100837
100810
100784
100758
100731
100705
100679
100652
100626
100600
100573
100547
100521
100494
100468
100442
100415
100389
100363
100336
100310
100284
100258
100231
100205
100179
100152
100126
100100
100073
100049
100022
102327
102300
102241
102212
102181
102153
102126
102099
102073
102046
102020
101993
101967
101940
101914
101887
101861
101834
101808
101781
101755
101728
101702
101675
101649
101622
101596
101570
101543
101517
101490
101464
101437
101411
101385
101358
101332
101305
101279
101253
101226
101200
101173
101147
101121
101094
101068
101042
101015
100989
100962
100936
100910
100883
100857
100831
100804
100778
100752
100725
100699
100673
100646
100620
100594
100567
100541
100515
100489
100462
100436
100410
100383
100357
100331
100304
100278
100252
100226
100199
100173
100147
100120
100094
100068
100041
100016
99988.9
99964.6
99937.8
102367
102337
102278
102249
102218
102190
102163
102136
102110
102083
102057
102030
102004
101977
101950
101924
101897
101871
101844
101818
101792
101765
101739
101712
101686
101659
101633
101606
101580
101553
101527
101501
101474
101448
101421
101395
101369
101342
101316
101289
101263
101237
101210
101184
101157
101131
101105
101078
101052
101025
100999
100973
100946
100920
100894
100867
100841
100815
100788
100762
100735
100709
100683
100656
100630
100604
100578
100551
100525
100499
100472
100446
100420
100393
100367
100341
100314
100288
100262
100236
100209
100183
100157
100130
100104
100078
100052
100025
100001
99973.9
102357
102328
102269
102240
102209
102182
102154
102128
102101
102074
102048
102021
101995
101968
101942
101915
101889
101862
101836
101809
101783
101756
101730
101703
101677
101650
101624
101598
101571
101545
101518
101492
101465
101439
101413
101386
101360
101333
101307
101281
101254
101228
101201
101175
101149
101122
101096
101069
101043
101017
100990
100964
100938
100911
100885
100858
100832
100806
100779
100753
100727
100700
100674
100648
100621
100595
100569
100543
100516
100490
100464
100437
100411
100385
100358
100332
100306
100280
100253
100227
100201
100174
100148
100122
100096
100069
100043
100017
99992.2
99965.4
102357
102328
102269
102240
102209
102182
102154
102128
102101
102074
102048
102021
101995
101968
101942
101915
101889
101862
101836
101809
101783
101756
101730
101703
101677
101650
101624
101598
101571
101545
101518
101492
101465
101439
101413
101386
101360
101333
101307
101281
101254
101228
101201
101175
101149
101122
101096
101069
101043
101017
100990
100964
100938
100911
100885
100859
100832
100806
100780
100753
100727
100701
100674
100648
100622
100595
100569
100543
100516
100490
100464
100437
100411
100385
100358
100332
100306
100280
100253
100227
100201
100174
100148
100122
100096
100069
100043
100017
99992.3
99965.4
102366
102337
102278
102249
102218
102191
102163
102137
102110
102083
102057
102030
102004
101977
101951
101924
101898
101871
101845
101818
101792
101765
101739
101712
101686
101659
101633
101607
101580
101554
101527
101501
101474
101448
101422
101395
101369
101342
101316
101290
101263
101237
101210
101184
101158
101131
101105
101078
101052
101026
100999
100973
100946
100920
100894
100867
100841
100815
100788
100762
100736
100709
100683
100657
100630
100604
100578
100551
100525
100499
100473
100446
100420
100394
100367
100341
100315
100288
100262
100236
100210
100183
100157
100131
100104
100078
100052
100025
100001
99974.2
102327
102299
102241
102212
102181
102154
102126
102100
102073
102046
102020
101993
101967
101940
101914
101887
101861
101834
101808
101781
101755
101728
101702
101676
101649
101623
101596
101570
101543
101517
101491
101464
101438
101411
101385
101358
101332
101306
101279
101253
101227
101200
101174
101147
101121
101095
101068
101042
101015
100989
100963
100936
100910
100884
100857
100831
100805
100778
100752
100726
100699
100673
100647
100620
100594
100568
100541
100515
100489
100462
100436
100410
100384
100357
100331
100305
100278
100252
100226
100200
100173
100147
100121
100094
100068
100042
100016
99989.2
99964.9
99938.1
102414
102386
102327
102298
102267
102240
102213
102186
102159
102133
102106
102079
102053
102026
102000
101973
101947
101920
101894
101867
101841
101814
101788
101761
101735
101709
101682
101656
101629
101603
101576
101550
101523
101497
101471
101444
101418
101391
101365
101338
101312
101286
101259
101233
101206
101180
101154
101127
101101
101074
101048
101022
100995
100969
100943
100916
100890
100863
100837
100811
100784
100758
100732
100705
100679
100653
100626
100600
100574
100547
100521
100495
100468
100442
100416
100389
100363
100337
100311
100284
100258
100232
100205
100179
100153
100126
100100
100074
100049
100022
102247
102221
102163
102134
102103
102076
102049
102022
101995
101969
101942
101916
101889
101863
101836
101810
101783
101757
101731
101704
101678
101651
101625
101598
101572
101545
101519
101493
101466
101440
101413
101387
101361
101334
101308
101281
101255
101229
101202
101176
101150
101123
101097
101070
101044
101018
100991
100965
100939
100912
100886
100860
100833
100807
100781
100754
100728
100702
100675
100649
100623
100596
100570
100544
100518
100491
100465
100439
100412
100386
100360
100334
100307
100281
100255
100228
100202
100176
100150
100123
100097
100071
100045
100018
99992.1
99965.6
99939.8
99913.2
99888.8
99862.3
103133
103113
103056
103027
102996
102968
102941
102914
102887
102860
102834
102807
102780
102753
102727
102700
102673
102647
102620
102593
102567
102540
102513
102487
102460
102433
102407
102380
102353
102327
102300
102274
102247
102220
102194
102167
102140
102114
102087
102061
102034
102007
101981
101954
101928
101901
101874
101848
101821
101795
101768
101742
101715
101688
101662
101635
101609
101582
101556
101529
101503
101476
101449
101423
101396
101370
101343
101317
101290
101264
101237
101211
101184
101158
101131
101105
101078
101052
101025
100999
100972
100946
100919
100893
100866
100840
100814
100787
100761
100734
101855
101840
101825
101799
101773
101746
101720
101693
101667
101640
101614
101588
101561
101535
101508
101482
101456
101429
101403
101376
101350
101324
101297
101271
101245
101218
101192
101166
101139
101113
101087
101060
101034
101008
100982
100955
100929
100903
100876
100850
100824
100798
100771
100745
100719
100692
100666
100640
100614
100587
100561
100535
100509
100482
100456
100430
100404
100377
100351
100325
100299
100272
100246
100220
100194
100168
100141
100115
100089
100063
100037
100010
99984.3
99958.1
99931.9
99905.7
99879.5
99853.3
99827.2
99800.9
99774.8
99748.5
99722.4
99696.1
99670.1
99643.7
99617.6
99591.2
99565.3
99538.4
102705
102696
102683
102657
102631
102604
102578
102551
102524
102498
102471
102444
102418
102391
102365
102338
102311
102285
102258
102232
102205
102178
102152
102125
102099
102072
102046
102019
101992
101966
101939
101913
101886
101860
101833
101807
101780
101754
101727
101701
101674
101648
101621
101595
101568
101542
101515
101489
101462
101436
101409
101383
101356
101330
101303
101277
101250
101224
101197
101171
101145
101118
101092
101065
101039
101012
100986
100960
100933
100907
100880
100854
100828
100801
100775
100748
100722
100695
100669
100643
100616
100590
100563
100537
100511
100484
100458
100431
100405
100378
102356
102345
102331
102305
102279
102253
102226
102199
102173
102146
102120
102093
102067
102040
102014
101987
101961
101934
101908
101881
101855
101828
101802
101775
101749
101722
101696
101669
101643
101617
101590
101564
101537
101511
101484
101458
101432
101405
101379
101352
101326
101299
101273
101247
101220
101194
101167
101141
101115
101088
101062
101035
101009
100983
100956
100930
100904
100877
100851
100824
100798
100772
100745
100719
100693
100666
100640
100614
100587
100561
100535
100508
100482
100456
100429
100403
100377
100350
100324
100298
100272
100245
100219
100193
100166
100140
100114
100087
100061
100034
102478
102469
102456
102430
102404
102377
102350
102324
102297
102270
102244
102217
102191
102164
102138
102111
102085
102058
102032
102005
101978
101952
101925
101899
101872
101846
101819
101793
101766
101740
101713
101687
101661
101634
101608
101581
101555
101528
101502
101475
101449
101422
101396
101370
101343
101317
101290
101264
101237
101211
101185
101158
101132
101105
101079
101052
101026
101000
100973
100947
100921
100894
100868
100841
100815
100789
100762
100736
100710
100683
100657
100630
100604
100578
100551
100525
100499
100472
100446
100420
100393
100367
100341
100314
100288
100261
100235
100209
100182
100156
102421
102411
102398
102372
102346
102319
102292
102266
102239
102213
102186
102160
102133
102106
102080
102053
102027
102000
101974
101947
101921
101894
101868
101841
101815
101788
101762
101735
101709
101682
101656
101630
101603
101577
101550
101524
101497
101471
101444
101418
101392
101365
101339
101312
101286
101259
101233
101207
101180
101154
101127
101101
101075
101048
101022
100995
100969
100943
100916
100890
100863
100837
100811
100784
100758
100732
100705
100679
100653
100626
100600
100574
100547
100521
100495
100468
100442
100416
100389
100363
100337
100310
100284
100257
100231
100205
100179
100152
100126
100099
102435
102425
102412
102387
102361
102334
102307
102281
102254
102227
102201
102174
102148
102121
102095
102068
102042
102015
101989
101962
101936
101909
101883
101856
101830
101803
101777
101750
101724
101697
101671
101644
101618
101591
101565
101538
101512
101486
101459
101433
101406
101380
101353
101327
101300
101274
101248
101221
101195
101168
101142
101116
101089
101063
101036
101010
100984
100957
100931
100904
100878
100852
100825
100799
100773
100746
100720
100694
100667
100641
100614
100588
100562
100535
100509
100483
100456
100430
100404
100377
100351
100325
100298
100272
100246
100219
100193
100167
100140
100113
102435
102425
102412
102387
102360
102334
102307
102280
102254
102227
102201
102174
102148
102121
102095
102068
102042
102015
101988
101962
101935
101909
101882
101856
101829
101803
101776
101750
101723
101697
101671
101644
101618
101591
101565
101538
101512
101485
101459
101432
101406
101380
101353
101327
101300
101274
101247
101221
101195
101168
101142
101115
101089
101063
101036
101010
100983
100957
100931
100904
100878
100852
100825
100799
100772
100746
100720
100693
100667
100641
100614
100588
100562
100535
100509
100483
100456
100430
100404
100377
100351
100325
100298
100272
100246
100219
100193
100166
100140
100113
102421
102411
102397
102372
102345
102319
102292
102265
102239
102212
102186
102159
102133
102106
102080
102053
102027
102000
101974
101947
101921
101894
101868
101841
101815
101788
101762
101735
101709
101682
101656
101629
101603
101576
101550
101523
101497
101471
101444
101418
101391
101365
101338
101312
101286
101259
101233
101206
101180
101153
101127
101101
101074
101048
101021
100995
100969
100942
100916
100889
100863
100837
100810
100784
100758
100731
100705
100679
100652
100626
100600
100573
100547
100521
100494
100468
100442
100415
100389
100363
100336
100310
100284
100257
100231
100204
100178
100152
100125
100099
102478
102468
102455
102429
102403
102376
102350
102323
102296
102270
102243
102217
102190
102163
102137
102110
102084
102057
102031
102004
101978
101951
101925
101898
101872
101845
101819
101792
101766
101739
101713
101686
101660
101633
101607
101580
101554
101527
101501
101475
101448
101422
101395
101369
101342
101316
101289
101263
101237
101210
101184
101157
101131
101104
101078
101052
101025
100999
100972
100946
100920
100893
100867
100841
100814
100788
100761
100735
100709
100682
100656
100630
100603
100577
100551
100524
100498
100472
100445
100419
100393
100366
100340
100313
100287
100261
100234
100208
100181
100155
102356
102345
102330
102304
102278
102251
102225
102198
102172
102145
102119
102092
102066
102039
102013
101986
101959
101933
101906
101880
101853
101827
101800
101774
101748
101721
101695
101668
101642
101615
101589
101562
101536
101509
101483
101457
101430
101404
101377
101351
101325
101298
101272
101245
101219
101192
101166
101140
101113
101087
101060
101034
101008
100981
100955
100929
100902
100876
100849
100823
100797
100770
100744
100718
100691
100665
100639
100612
100586
100560
100533
100507
100481
100454
100428
100402
100376
100349
100323
100297
100270
100244
100218
100191
100165
100139
100112
100086
100060
100033
102705
102695
102682
102655
102629
102602
102576
102549
102522
102496
102469
102442
102416
102389
102363
102336
102309
102283
102256
102230
102203
102176
102150
102123
102097
102070
102044
102017
101991
101964
101937
101911
101884
101858
101831
101805
101778
101752
101725
101699
101672
101646
101619
101593
101566
101540
101513
101487
101460
101434
101407
101381
101354
101328
101301
101275
101249
101222
101196
101169
101143
101116
101090
101063
101037
101011
100984
100958
100931
100905
100878
100852
100826
100799
100773
100746
100720
100694
100667
100641
100614
100588
100562
100535
100509
100482
100456
100429
100403
100376
101853
101838
101823
101797
101771
101744
101718
101691
101665
101639
101612
101586
101559
101533
101507
101480
101454
101427
101401
101375
101348
101322
101296
101269
101243
101217
101190
101164
101138
101111
101085
101059
101032
101006
100980
100953
100927
100901
100875
100848
100822
100796
100769
100743
100717
100691
100664
100638
100612
100585
100559
100533
100507
100480
100454
100428
100402
100376
100349
100323
100297
100271
100244
100218
100192
100166
100140
100113
100087
100061
100035
100009
99982.4
99956.2
99930.1
99903.9
99877.7
99851.5
99825.3
99799.1
99773
99746.7
99720.6
99694.3
99668.2
99641.9
99615.8
99589.4
99563.5
99536.6
102383
102347
102335
102309
102286
102260
102234
102208
102181
102155
102128
102102
102075
102049
102022
101996
101969
101943
101916
101890
101863
101837
101810
101784
101757
101731
101704
101678
101651
101625
101599
101572
101546
101519
101493
101466
101440
101414
101387
101361
101334
101308
101281
101255
101229
101202
101176
101149
101123
101097
101070
101044
101017
100991
100965
100938
100912
100886
100859
100833
100806
100780
100754
100727
100701
100675
100648
100622
100596
100569
100543
100517
100490
100464
100438
100411
100385
100359
100333
100306
100280
100254
100227
100201
100175
100148
100122
100095
100068
100041
102411
102377
102365
102339
102316
102290
102264
102237
102211
102185
102158
102132
102105
102078
102052
102025
101999
101972
101946
101919
101893
101866
101840
101813
101787
101760
101734
101707
101681
101655
101628
101602
101575
101549
101522
101496
101469
101443
101417
101390
101364
101337
101311
101284
101258
101232
101205
101179
101152
101126
101100
101073
101047
101020
100994
100968
100941
100915
100888
100862
100836
100809
100783
100757
100730
100704
100678
100651
100625
100599
100572
100546
100520
100493
100467
100441
100414
100388
100362
100335
100309
100283
100256
100230
100204
100177
100151
100124
100097
100070
102383
102346
102334
102308
102285
102259
102233
102207
102181
102154
102128
102101
102074
102048
102021
101995
101968
101942
101915
101889
101862
101836
101809
101783
101756
101730
101703
101677
101651
101624
101598
101571
101545
101518
101492
101465
101439
101413
101386
101360
101333
101307
101281
101254
101228
101201
101175
101148
101122
101096
101069
101043
101017
100990
100964
100937
100911
100885
100858
100832
100806
100779
100753
100727
100700
100674
100648
100621
100595
100569
100542
100516
100490
100463
100437
100411
100384
100358
100332
100305
100279
100253
100226
100200
100174
100147
100121
100094
100067
100040
102410
102375
102363
102337
102314
102288
102263
102236
102210
102183
102157
102130
102104
102077
102051
102024
101998
101971
101944
101918
101891
101865
101838
101812
101786
101759
101733
101706
101680
101653
101627
101600
101574
101547
101521
101494
101468
101442
101415
101389
101362
101336
101309
101283
101257
101230
101204
101177
101151
101125
101098
101072
101045
101019
100993
100966
100940
100913
100887
100861
100834
100808
100782
100755
100729
100703
100676
100650
100624
100597
100571
100545
100518
100492
100466
100439
100413
100387
100360
100334
100308
100281
100255
100229
100202
100176
100149
100123
100095
100068
102396
102360
102348
102322
102299
102273
102247
102221
102195
102168
102142
102115
102089
102062
102035
102009
101982
101956
101929
101903
101876
101850
101823
101797
101770
101744
101717
101691
101665
101638
101612
101585
101559
101532
101506
101479
101453
101427
101400
101374
101347
101321
101294
101268
101242
101215
101189
101162
101136
101110
101083
101057
101030
101004
100978
100951
100925
100899
100872
100846
100819
100793
100767
100740
100714
100688
100661
100635
100609
100582
100556
100530
100503
100477
100451
100424
100398
100372
100345
100319
100293
100266
100240
100214
100187
100161
100135
100108
100081
100054
102404
102369
102357
102331
102308
102282
102256
102230
102203
102177
102150
102124
102097
102071
102044
102018
101991
101965
101938
101912
101885
101859
101832
101806
101779
101753
101726
101700
101673
101647
101620
101594
101567
101541
101515
101488
101462
101435
101409
101382
101356
101330
101303
101277
101250
101224
101198
101171
101145
101118
101092
101066
101039
101013
100986
100960
100934
100907
100881
100854
100828
100802
100775
100749
100723
100696
100670
100644
100617
100591
100565
100538
100512
100486
100459
100433
100407
100380
100354
100328
100301
100275
100249
100222
100196
100170
100143
100117
100089
100062
102404
102369
102357
102331
102308
102282
102256
102230
102203
102177
102150
102124
102097
102071
102044
102018
101991
101965
101938
101912
101885
101859
101832
101806
101779
101753
101726
101700
101673
101647
101620
101594
101567
101541
101515
101488
101462
101435
101409