/*--------------------------------*- C++ -*----------------------------------*\
  =========                 |
  \\      /  F ield         | OpenFOAM: The Open Source CFD Toolbox
   \\    /   O peration     | Website:  https://openfoam.org
    \\  /    A nd           | Version:  7
     \\/     M anipulation  |
\*---------------------------------------------------------------------------*/
FoamFile
{
    version     2.0;
    format      ascii;
    class       surfaceScalarField;
    location    "0.3275";
    object      phi;
}
// * * * * * * * * * * * * * * * * * * * * * * * * * * * * * * * * * * * * * //

dimensions      [1 0 -1 0 0 0 0];

internalField   nonuniform List<scalar> 
21708
(
0.00126752
0.00098194
1.35637e-05
0.000876701
0.000382791
6.30855e-06
0.000670164
0.000193822
1.16696e-05
0.000580562
8.22348e-05
6.79377e-06
0.000527277
4.16684e-05
1.08051e-05
0.000494467
2.44054e-05
6.97446e-06
0.000468496
1.38413e-05
1.01025e-05
0.000449291
9.64783e-06
7.09325e-06
0.000432638
4.37927e-06
9.53479e-06
0.000420907
1.64693e-06
7.15608e-06
0.000411014
-2.23476e-06
9.04994e-06
0.000404383
-3.74587e-06
7.16744e-06
0.000398142
-5.70126e-06
8.62087e-06
0.000393235
-5.64182e-06
7.12852e-06
0.000388132
-6.63021e-06
8.22041e-06
0.000382843
-5.36326e-06
7.04163e-06
0.000376748
-5.47394e-06
7.82998e-06
0.000371491
-5.53066e-06
6.9109e-06
0.000318538
4.1334e-05
7.55314e-06
2.06065e-05
6.42334e-06
0.000287273
0.00220169
0.0010399
3.03615e-06
0.00201397
0.00057229
-3.60717e-06
0.00181246
0.00039197
1.86032e-06
0.00167241
0.000224191
-2.86655e-06
0.0015715
0.000140667
1.24386e-06
0.00150155
9.60082e-05
-2.53863e-06
0.00144452
6.88492e-05
6.28739e-07
0.00140208
5.2468e-05
-2.36967e-06
0.00136645
3.74992e-05
8.83969e-08
0.00134309
2.45669e-05
-2.28914e-06
0.00132458
1.37005e-05
-3.85071e-07
0.00131373
6.20451e-06
-2.26981e-06
0.0013037
1.77045e-06
-8.11397e-07
0.00129676
5.86608e-08
-2.30791e-06
0.00128974
-2.07894e-06
-1.2172e-06
0.00128172
1.25603e-06
-2.39641e-06
0.00127999
-6.02397e-06
-1.62915e-06
0.00126551
7.46413e-06
-2.51802e-06
0.00130638
-1.53731e-06
-2.13897e-06
-2.57782e-05
-3.1261e-06
0.00135158
0.00252108
0.000772084
9.62674e-06
0.00260897
0.000479212
3.44748e-06
0.00260066
0.000389926
8.54563e-06
0.00256434
0.000255152
3.70386e-06
0.00251625
0.000179876
7.72374e-06
0.00247365
0.000134124
3.89055e-06
0.00243116
0.000103866
7.02073e-06
0.0023954
8.33622e-05
4.00412e-06
0.00236146
6.34553e-05
6.44317e-06
0.00233567
4.4165e-05
4.05525e-06
0.00231373
2.71753e-05
5.94489e-06
0.00229934
1.37278e-05
4.05641e-06
0.002287
5.4482e-06
5.50877e-06
0.00227859
9.00347e-07
4.0137e-06
0.00226943
-1.9533e-06
5.10516e-06
0.00226326
-6.89641e-07
3.9212e-06
0.00225188
-3.69832e-06
4.71664e-06
0.00224814
3.04615e-06
3.76992e-06
0.0022246
1.31139e-05
4.4699e-06
1.50452e-05
3.36957e-06
0.00217592
0.00252733
0.000503148
4.32891e-06
0.00268323
0.000323252
-1.58616e-06
0.00278499
0.000282879
3.46913e-06
0.00284317
0.000196296
-1.31036e-06
0.0028715
0.000147144
2.75728e-06
0.00288999
0.000115836
-1.03394e-06
0.00289701
9.45689e-05
2.1336e-06
0.00290088
8.02121e-05
-8.63399e-07
0.00289665
6.53434e-05
1.59617e-06
0.00289055
4.9498e-05
-7.79289e-07
0.00288068
3.38235e-05
1.12489e-06
0.00287229
2.04277e-05
-7.5651e-07
0.00286334
1.09456e-05
7.04414e-07
0.00285583
5.95908e-06
-7.88128e-07
0.00284861
1.14334e-06
3.04286e-07
0.00284037
4.04366e-06
-8.76803e-07
0.00283626
-4.2195e-06
-1.06005e-07
0.00282677
8.69873e-06
-1.02629e-06
0.00283896
-3.3241e-06
-6.29437e-07
2.63351e-07
-1.53936e-06
0.00285047
0.00251644
0.000241927
7.59354e-06
0.00267978
0.000156429
1.88423e-06
0.0028103
0.000143774
6.79806e-06
0.00290018
0.000102334
2.0022e-06
0.00296066
7.87809e-05
6.03591e-06
0.00300995
6.33242e-05
2.22543e-06
0.00304633
5.27144e-05
5.37725e-06
0.00307862
4.57104e-05
2.37296e-06
0.00310056
3.82287e-05
4.82441e-06
0.00311647
2.99373e-05
2.44226e-06
0.00312287
2.11945e-05
4.33549e-06
0.0031253
1.33097e-05
2.44835e-06
0.00312248
7.36279e-06
3.90228e-06
0.00311923
3.87595e-06
2.40924e-06
0.00311237
9.05312e-07
3.5008e-06
0.00310806
1.71144e-06
2.31524e-06
0.00309737
-1.54033e-06
3.10551e-06
0.00309485
3.90653e-06
2.14801e-06
0.00308137
2.15266e-06
2.77974e-06
1.03445e-05
1.77146e-06
0.00306443
0.00249879
2.4066e-10
5.89619e-06
0.00265336
4.07885e-10
2.72019e-07
0.00279018
1.68751e-10
5.16706e-06
0.00289004
4.67081e-10
3.7575e-07
0.00296252
3.66786e-10
4.41192e-06
0.0030242
2.09902e-09
6.0699e-07
0.00307307
1.20393e-09
3.76592e-06
0.00311827
4.16375e-09
7.64452e-07
0.00315305
1.54939e-09
3.21981e-06
0.00318105
6.84678e-09
8.39741e-07
0.00319768
5.41979e-09
2.73651e-06
0.00320792
1.76671e-08
8.51426e-07
0.00321056
1.61282e-08
2.30812e-06
0.00321077
6.55656e-08
8.16803e-07
0.00320628
2.08744e-08
1.9083e-06
0.00320275
2.55711e-07
7.26158e-07
0.00319474
1.46459e-08
1.50426e-06
0.00319204
7.61606e-07
5.60335e-07
0.00318744
2.9796e-07
1.06299e-06
1.45045e-06
1.3496e-07
0.00319095
0.00249879
-0.000241927
5.89619e-06
0.00265336
-0.000156428
2.72018e-07
0.00279018
-0.000143773
5.16706e-06
0.00289004
-0.000102333
3.75748e-07
0.00296252
-7.87799e-05
4.41192e-06
0.0030242
-6.33203e-05
6.06983e-07
0.00307307
-5.27115e-05
3.76592e-06
0.00311827
-4.57031e-05
7.64432e-07
0.00315305
-3.82245e-05
3.21983e-06
0.00318105
-2.99266e-05
8.39684e-07
0.00319768
-2.11811e-05
2.73657e-06
0.00320793
-1.32827e-05
8.51239e-07
0.00321056
-7.32256e-06
2.30825e-06
0.00321079
-3.76555e-06
8.16258e-07
0.00320629
-8.49197e-07
1.90875e-06
0.00320278
-1.22754e-06
7.24503e-07
0.00319476
1.58932e-06
1.50634e-06
0.00319201
-2.3417e-06
5.57172e-07
0.00318734
-1.49216e-06
1.07107e-06
-7.2649e-06
1.3531e-07
0.00319067
0.00251644
-0.000503147
7.59353e-06
0.00267978
-0.000323252
1.88423e-06
0.0028103
-0.000282878
6.79806e-06
0.00290018
-0.000196295
2.0022e-06
0.00296066
-0.000147143
6.03591e-06
0.00300995
-0.000115833
2.22543e-06
0.00304633
-9.45662e-05
5.37724e-06
0.00307862
-8.02051e-05
2.37297e-06
0.00310056
-6.53402e-05
4.82439e-06
0.00311647
-4.94863e-05
2.44231e-06
0.00312288
-3.38131e-05
4.33543e-06
0.0031253
-2.03971e-05
2.44857e-06
0.00312249
-1.09162e-05
3.90214e-06
0.00311923
-5.84395e-06
2.40976e-06
0.00311239
-1.10858e-06
3.50035e-06
0.0031081
-3.5815e-06
2.31687e-06
0.00309748
4.21164e-06
3.1035e-06
0.00309511
-7.28787e-06
2.15102e-06
0.00308191
3.71045e-06
2.77235e-06
2.28107e-06
1.77066e-06
0.0030655
0.00252733
-0.000772083
4.32891e-06
0.00268323
-0.000479211
-1.58616e-06
0.00278499
-0.000389926
3.46913e-06
0.00284317
-0.000255151
-1.31036e-06
0.0028715
-0.000179874
2.75728e-06
0.00288999
-0.000134121
-1.03395e-06
0.00289701
-0.000103862
2.13359e-06
0.00290088
-8.33578e-05
-8.63423e-07
0.00289665
-6.34509e-05
1.59619e-06
0.00289056
-4.41587e-05
-7.79345e-07
0.00288068
-2.71631e-05
1.12495e-06
0.00287231
-1.37107e-05
-7.56735e-07
0.00286335
-5.41418e-06
7.04556e-07
0.00285588
-8.23895e-07
-7.88574e-07
0.00284865
1.99645e-06
3.04706e-07
0.00284052
1.05282e-06
-8.78088e-07
0.00283639
3.70472e-06
-1.0421e-07
0.00282708
-1.81167e-06
-1.02888e-06
0.00283931
-1.27803e-05
-6.21833e-07
-1.27372e-05
-1.54094e-06
0.00285106
0.00252108
-0.0010399
9.62673e-06
0.00260897
-0.000572289
3.44748e-06
0.00260066
-0.000391969
8.54563e-06
0.00256434
-0.00022419
3.70386e-06
0.00251625
-0.000140665
7.72374e-06
0.00247365
-9.60059e-05
3.89055e-06
0.00243116
-6.88468e-05
7.02072e-06
0.0023954
-5.24653e-05
4.00412e-06
0.00236146
-3.74962e-05
6.44315e-06
0.00233567
-2.45629e-05
4.05528e-06
0.00231374
-1.36922e-05
5.94484e-06
0.00229935
-6.19263e-06
4.05662e-06
0.00228702
-1.75013e-06
5.50863e-06
0.00227864
-5.59917e-09
4.0141e-06
0.0022695
2.09937e-06
5.10471e-06
0.00226346
-1.01297e-06
3.92244e-06
0.00225213
5.97645e-06
4.71514e-06
0.00224882
-6.66119e-06
3.77213e-06
0.00222569
1.46036e-06
4.46507e-06
2.67943e-05
3.36859e-06
0.00217831
0.00220169
-0.00098194
3.03614e-06
0.00201397
-0.00038279
-3.60717e-06
0.00181246
-0.000193821
1.86032e-06
0.00167241
-8.22333e-05
-2.86655e-06
0.0015715
-4.16667e-05
1.24386e-06
0.00150155
-2.44039e-05
-2.53865e-06
0.00144452
-1.384e-05
6.28738e-07
0.00140208
-9.64727e-06
-2.36969e-06
0.00136645
-4.37766e-06
8.84131e-08
0.00134309
-1.64707e-06
-2.28919e-06
0.00132459
2.23946e-06
-3.85021e-07
0.00131375
3.74598e-06
-2.27006e-06
0.00130373
5.71394e-06
-8.11257e-07
0.00129684
5.65099e-06
-2.30823e-06
0.00128981
6.65046e-06
-1.21679e-06
0.00128196
5.43193e-06
-2.39731e-06
0.00128017
5.49905e-06
-1.62769e-06
0.00126622
5.80466e-06
-2.52037e-06
0.00130674
-4.10703e-05
-2.13249e-06
-2.00093e-05
-3.13017e-06
0.00135236
0.00126752
1.35637e-05
0.000876701
6.30854e-06
0.000670165
1.16696e-05
0.000580563
6.79376e-06
0.000527278
1.08051e-05
0.000494467
6.97446e-06
0.000468497
1.01025e-05
0.000449292
7.09325e-06
0.00043264
9.53477e-06
0.000420909
7.15609e-06
0.000411019
9.0499e-06
0.00040439
7.16748e-06
0.00039816
8.62075e-06
0.000393264
7.1288e-06
0.00038818
8.22e-06
0.000382959
7.0425e-06
0.000376891
7.82889e-06
0.000371902
6.9126e-06
0.000319218
7.55093e-06
6.42432e-06
0.000288525
0.00186
0.000412532
3.30116e-06
0.00135272
0.000506575
5.1211e-06
0.00101501
0.000345658
2.42148e-06
0.000836628
0.00018061
3.96063e-06
0.000748798
9.547e-05
2.43659e-06
0.000695192
5.55757e-05
3.63774e-06
0.000661718
3.89801e-05
2.5809e-06
0.000633198
2.97729e-05
3.35473e-06
0.000614226
2.31208e-05
2.60439e-06
0.000597213
1.81195e-05
3.06415e-06
0.000586693
1.38438e-05
2.59182e-06
0.000576383
1.13489e-05
2.86117e-06
0.000569616
9.4233e-06
2.60076e-06
0.000561782
8.77175e-06
2.73602e-06
0.000555799
8.04252e-06
2.62714e-06
0.000548185
8.37024e-06
2.65341e-06
0.000546544
3.03726e-06
2.67033e-06
0.000527466
1.94936e-05
2.58995e-06
0.00062596
-9.77184e-05
2.67318e-06
-8.03544e-05
2.76171e-06
0.000705664
0.00235545
0.000314171
8.49719e-06
0.002296
0.000550225
1.03424e-05
0.00217624
0.00045761
7.88708e-06
0.00204472
0.000298786
9.20038e-06
0.00193843
0.000194479
7.79971e-06
0.00184997
0.000132069
8.81121e-06
0.00178331
9.72944e-05
7.90661e-06
0.00172716
7.33283e-05
8.52903e-06
0.00168721
5.29904e-05
7.91219e-06
0.00165527
3.68722e-05
8.26115e-06
0.00163521
2.27026e-05
7.88948e-06
0.00161891
1.40932e-05
8.07436e-06
0.00160867
7.47551e-06
7.89594e-06
0.00159855
4.92814e-06
7.95854e-06
0.00159045
3.16285e-06
7.9162e-06
0.00158294
1.6926e-06
7.87338e-06
0.0015718
6.11075e-07
7.9498e-06
0.00157377
3.13794e-06
7.79484e-06
0.00150545
-4.37525e-05
8.02856e-06
-2.03375e-06
8.00471e-06
0.00141164
0.00237829
0.000203535
4.32794e-06
0.00250396
0.000419936
6.32868e-06
0.00256513
0.000399542
3.52035e-06
0.00256453
0.000296013
5.25989e-06
0.00254495
0.000217053
3.53573e-06
0.00251354
0.000161968
4.90338e-06
0.00248508
0.000128693
3.77695e-06
0.0024534
0.000103586
4.65102e-06
0.00242675
8.07206e-05
3.8688e-06
0.00240112
6.00876e-05
4.39611e-06
0.00238291
4.04821e-05
3.89659e-06
0.00236703
2.69907e-05
4.2096e-06
0.0023566
1.62106e-05
3.93615e-06
0.00234565
1.20576e-05
4.09359e-06
0.00233889
6.89193e-06
3.98304e-06
0.00232711
9.0028e-06
4.0141e-06
0.00232597
-2.01181e-06
4.02807e-06
0.00230898
1.54635e-05
3.96725e-06
0.00232415
-6.29254e-05
3.99399e-06
-2.38017e-05
4.09915e-06
0.00234066
0.00233133
0.000131629
7.3896e-06
0.0024702
0.000268551
9.27304e-06
0.00260094
0.000263429
6.91493e-06
0.00267927
0.000206051
8.29104e-06
0.00273174
0.000158992
6.84025e-06
0.00275988
0.000124321
7.87134e-06
0.00278083
0.000102903
6.94154e-06
0.0027896
8.61263e-05
7.59173e-06
0.0027942
6.9803e-05
6.96153e-06
0.00279071
5.38075e-05
7.32696e-06
0.0027859
3.73356e-05
6.93899e-06
0.00277765
2.48894e-05
7.13346e-06
0.00277033
1.43886e-05
6.94388e-06
0.00276176
9.3193e-06
7.01636e-06
0.00275351
4.33945e-06
6.96637e-06
0.00274578
4.29455e-06
6.93319e-06
0.00273359
-1.78808e-06
6.99839e-06
0.00272983
6.4438e-06
6.87712e-06
0.0026844
-3.00548e-05
7.0894e-06
1.17819e-05
7.08343e-06
0.00263545
0.0023333
6.2901e-05
5.40154e-06
0.00246259
0.000132163
7.34523e-06
0.00259336
0.000132702
4.84334e-06
0.00268684
0.00010611
6.36257e-06
0.00276129
8.41826e-05
4.77479e-06
0.00281389
6.73611e-05
5.9365e-06
0.0028602
5.70928e-05
4.91856e-06
0.00289392
4.9083e-05
5.6707e-06
0.00292161
4.12468e-05
4.97612e-06
0.00293782
3.31211e-05
5.4157e-06
0.00294829
2.42187e-05
4.97797e-06
0.002951
1.70971e-05
5.22706e-06
0.00295091
1.07169e-05
4.99991e-06
0.00294659
7.66298e-06
5.11197e-06
0.00294142
3.94078e-06
5.03235e-06
0.00293344
4.87293e-06
5.03054e-06
0.00292581
-1.20071e-06
5.06255e-06
0.00291729
6.94828e-06
4.99121e-06
0.00290146
-2.16373e-05
5.06504e-06
-1.18382e-06
5.13286e-06
0.00290609
0.00232485
4.9406e-11
6.37831e-06
0.00244736
-5.93375e-11
8.28922e-06
0.0025774
-1.49236e-10
5.91158e-06
0.00267443
3.94641e-10
7.34281e-06
0.00275556
5.60618e-10
5.83271e-06
0.00281596
1.49825e-09
6.90896e-06
0.00287095
-6.18239e-11
5.94506e-06
0.00291419
1.67538e-09
6.63747e-06
0.00295202
-6.9803e-10
5.98571e-06
0.00297814
5.40742e-09
6.38129e-06
0.00299714
2.57625e-09
5.97506e-06
0.00300662
1.94903e-08
6.1909e-06
0.00301107
1.02392e-08
5.98754e-06
0.00301024
7.11753e-08
6.07516e-06
0.00300609
2.89423e-08
6.01298e-06
0.00300077
2.35804e-07
5.99135e-06
0.00298972
1.49621e-07
6.04051e-06
0.00298536
6.1908e-07
5.94751e-06
0.0029527
7.33111e-07
6.09675e-06
1.55262e-06
6.11899e-06
0.0029389
0.00232485
-6.29009e-05
6.37831e-06
0.00244736
-0.000132163
8.28922e-06
0.0025774
-0.000132702
5.91158e-06
0.00267443
-0.000106109
7.34281e-06
0.00275556
-8.41817e-05
5.83271e-06
0.00281596
-6.7358e-05
6.90896e-06
0.00287095
-5.70933e-05
5.94505e-06
0.00291419
-4.90788e-05
6.63748e-06
0.00295202
-4.12491e-05
5.9857e-06
0.00297814
-3.31079e-05
6.38132e-06
0.00299714
-2.42163e-05
5.97503e-06
0.00300662
-1.70509e-05
6.19099e-06
0.00301107
-1.07053e-05
5.98748e-06
0.00301022
-7.50345e-06
6.07545e-06
0.0030061
-3.91319e-06
6.01274e-06
0.00300079
-4.40842e-06
5.99212e-06
0.00298982
1.41809e-06
6.03923e-06
0.0029856
-5.84742e-06
5.94869e-06
0.00295316
2.28938e-05
6.09166e-06
3.9478e-06
6.11738e-06
0.0029397
0.0023333
-0.000131628
5.40154e-06
0.00246259
-0.000268551
7.34523e-06
0.00259336
-0.000263429
4.84334e-06
0.00268684
-0.000206051
6.36257e-06
0.00276129
-0.000158991
4.77479e-06
0.00281389
-0.000124319
5.9365e-06
0.0028602
-0.000102903
4.91857e-06
0.00289392
-8.61233e-05
5.67069e-06
0.00292161
-6.98035e-05
4.97613e-06
0.00293783
-5.37975e-05
5.41568e-06
0.00294829
-3.73304e-05
4.97799e-06
0.00295102
-2.48539e-05
5.22698e-06
0.00295091
-1.43705e-05
4.99995e-06
0.00294662
-9.19072e-06
5.1117e-06
0.00294144
-4.29022e-06
5.03252e-06
0.00293349
-3.86598e-06
5.02976e-06
0.00292582
2.05284e-06
5.06366e-06
0.00291729
-5.33912e-06
4.9899e-06
0.0029014
3.13668e-05
5.06959e-06
-8.85544e-06
5.13368e-06
0.00290587
0.00233133
-0.000203535
7.3896e-06
0.0024702
-0.000419936
9.27304e-06
0.00260094
-0.000399543
6.91493e-06
0.00267927
-0.000296012
8.29104e-06
0.00273174
-0.000217053
6.84025e-06
0.00275988
-0.000161966
7.87134e-06
0.00278083
-0.000128692
6.94154e-06
0.0027896
-0.000103583
7.59174e-06
0.0027942
-8.07206e-05
6.96151e-06
0.00279071
-6.00775e-05
7.32699e-06
0.00278591
-4.04784e-05
6.93895e-06
0.00277765
-2.69557e-05
7.13354e-06
0.00277034
-1.62013e-05
6.94379e-06
0.00276178
-1.19339e-05
7.0166e-06
0.00275356
-6.87744e-06
6.96612e-06
0.00274589
-8.63005e-06
6.9338e-06
0.00273384
2.14627e-06
6.9972e-06
0.00273029
-1.4578e-05
6.87813e-06
0.0026853
6.3814e-05
7.08469e-06
2.58986e-05
7.08289e-06
0.00263717
0.00237829
-0.000314171
4.32794e-06
0.00250396
-0.000550225
6.32868e-06
0.00256513
-0.00045761
3.52035e-06
0.00256453
-0.000298787
5.25989e-06
0.00254495
-0.000194479
3.53573e-06
0.00251355
-0.000132069
4.90338e-06
0.00248508
-9.72932e-05
3.77696e-06
0.0024534
-7.33266e-05
4.65101e-06
0.00242675
-5.29879e-05
3.86881e-06
0.00240112
-3.68677e-05
4.39609e-06
0.00238292
-2.26958e-05
3.8966e-06
0.00236706
-1.4076e-05
4.20955e-06
0.00235662
-7.46015e-06
3.93618e-06
0.00234572
-4.85815e-06
4.09339e-06
0.00233895
-3.13117e-06
3.98322e-06
0.0023273
-1.45069e-06
4.01343e-06
0.00232612
-4.48744e-07
4.02887e-06
0.00230942
-2.53092e-06
3.96617e-06
0.00232462
4.46008e-05
3.99704e-06
3.82173e-06
4.09956e-06
0.00234144
0.00235545
-0.000412532
8.49719e-06
0.002296
-0.000506575
1.03424e-05
0.00217624
-0.000345659
7.88708e-06
0.00204472
-0.00018061
9.20038e-06
0.00193843
-9.54701e-05
7.79971e-06
0.00184997
-5.55753e-05
8.81121e-06
0.00178332
-3.89795e-05
7.90662e-06
0.00172716
-2.97719e-05
8.52903e-06
0.00168721
-2.31195e-05
7.91218e-06
0.00165527
-1.8117e-05
8.26117e-06
0.00163522
-1.38409e-05
7.88944e-06
0.00161893
-1.13398e-05
8.07443e-06
0.0016087
-9.41875e-06
7.89581e-06
0.00159861
-8.73608e-06
7.95873e-06
0.00159055
-8.04136e-06
7.91591e-06
0.00158316
-8.25422e-06
7.8738e-06
0.00157218
-3.03335e-06
7.94888e-06
0.00157443
-1.91639e-05
7.79577e-06
0.00150705
9.76302e-05
8.02493e-06
8.0313e-05
8.00622e-06
0.00141507
0.00186
3.30116e-06
0.00135272
5.12111e-06
0.00101501
2.42148e-06
0.000836628
3.96063e-06
0.000748799
2.43659e-06
0.000695192
3.63774e-06
0.000661718
2.58091e-06
0.000633199
3.35473e-06
0.000614228
2.6044e-06
0.000597218
3.06412e-06
0.000586699
2.59184e-06
0.0005764
2.86112e-06
0.000569636
2.60077e-06
0.00056184
2.73594e-06
0.000555856
2.62718e-06
0.000548358
2.65311e-06
0.000546725
2.67058e-06
0.000527972
2.58921e-06
0.000626377
2.67418e-06
2.76055e-06
0.000706044
0.00209767
0.000167775
-6.11116e-11
0.0018576
0.000243229
-6.23382e-11
0.00160203
0.00025616
-6.226e-11
0.00137819
0.000227035
-6.17796e-11
0.00119879
0.00018151
-6.0831e-11
0.00107129
0.00013022
-6.20382e-11
0.000990022
8.20735e-05
-6.2489e-11
0.000946086
4.48858e-05
-6.43469e-11
0.000923883
2.20259e-05
-6.49961e-11
0.000913727
1.02077e-05
-6.65897e-11
0.000907833
5.34059e-06
-6.66684e-11
0.00090359
3.86002e-06
-6.77466e-11
0.000899997
2.88808e-06
-6.78204e-11
0.000895444
3.91648e-06
-6.91925e-11
0.000893283
1.3299e-06
-6.97279e-11
0.000886137
6.24389e-06
-7.12339e-11
0.000887951
-2.85432e-06
-7.18681e-11
0.000873825
1.28378e-05
-7.31627e-11
0.000882634
-1.01828e-05
-7.37863e-11
3.87111e-06
-7.50326e-11
0.000877183
0.00231761
0.000120795
-6.15298e-11
0.00236087
0.000208545
-6.17075e-11
0.00236669
0.000256192
-6.06986e-11
0.00234371
0.000257531
-6.17471e-11
0.0023013
0.000230888
-6.24992e-11
0.00225308
0.000186954
-6.42269e-11
0.00220513
0.000137431
-6.42331e-11
0.00216476
9.26132e-05
-6.47894e-11
0.00213368
5.92133e-05
-6.45829e-11
0.00211277
3.71097e-05
-6.63546e-11
0.00209955
2.37549e-05
-6.72957e-11
0.00209143
1.69067e-05
-6.88421e-11
0.00208696
1.16612e-05
-6.86544e-11
0.0020835
1.1434e-05
-6.93134e-11
0.00208319
5.49994e-06
-6.92953e-11
0.0020801
1.31249e-05
-7.07099e-11
0.00208385
-2.73621e-06
-7.14801e-11
0.00207682
2.35485e-05
-7.30701e-11
0.002083
-1.25132e-05
-7.40786e-11
3.69205e-05
-7.52174e-11
0.00205359
0.0023058
8.14371e-05
-6.16619e-11
0.00237268
0.000146325
-6.18105e-11
0.00244097
0.000189383
-6.01086e-11
0.0025032
0.000198552
-6.09373e-11
0.00255037
0.00018605
-6.30377e-11
0.00258343
0.000158525
-6.61764e-11
0.00260102
0.000123635
-6.59795e-11
0.00260763
9.01667e-05
-6.50488e-11
0.00260631
6.31819e-05
-6.3697e-11
0.00260181
4.42246e-05
-6.54238e-11
0.00259662
3.06868e-05
-6.70786e-11
0.00259247
2.26668e-05
-6.89391e-11
0.00259006
1.47541e-05
-6.82404e-11
0.00258871
1.29578e-05
-6.79873e-11
0.00258937
4.383e-06
-6.74104e-11
0.00258951
1.23298e-05
-6.90286e-11
0.00259231
-6.17939e-06
-7.06356e-11
0.00259305
2.21967e-05
-7.29655e-11
0.00259608
-1.60816e-05
-7.44546e-11
3.80423e-05
-7.5847e-11
0.00259454
0.00229604
5.48937e-05
-6.1626e-11
0.00235336
9.66218e-05
-6.18515e-11
0.00242275
0.000124879
-6.02906e-11
0.00249574
0.000131788
-6.10997e-11
0.00256229
0.000125071
-6.30032e-11
0.00262002
0.000108425
-6.58306e-11
0.00266387
8.68747e-05
-6.55302e-11
0.00269541
6.59201e-05
-6.47934e-11
0.00271569
4.87856e-05
-6.36345e-11
0.00272909
3.64897e-05
-6.56719e-11
0.00273762
2.71023e-05
-6.7658e-11
0.00274392
2.11429e-05
-6.97137e-11
0.00274793
1.4696e-05
-6.88919e-11
0.00275134
1.27809e-05
-6.81059e-11
0.00275257
5.6204e-06
-6.70898e-11
0.00275578
1.11537e-05
-6.85472e-11
0.00275481
-3.20156e-06
-7.03282e-11
0.00276103
1.79705e-05
-7.30787e-11
0.00275699
-9.72535e-06
-7.48804e-11
3.36078e-05
-7.64602e-11
0.00276384
0.00229659
2.58148e-05
-6.15263e-11
0.00235209
4.68146e-05
-6.18709e-11
0.00241825
6.15202e-05
-6.10047e-11
0.00248919
6.51399e-05
-6.16614e-11
0.00255587
6.1903e-05
-6.26651e-11
0.00261625
5.37549e-05
-6.4673e-11
0.00266503
4.31882e-05
-6.44242e-11
0.00270322
3.31281e-05
-6.44741e-11
0.00273096
2.49521e-05
-6.40688e-11
0.00275199
1.92184e-05
-6.60561e-11
0.00276748
1.46293e-05
-6.75218e-11
0.00277988
1.16717e-05
-6.91685e-11
0.00278858
8.0936e-06
-6.84725e-11
0.00279577
6.98426e-06
-6.81926e-11
0.00279913
2.80617e-06
-6.75665e-11
0.00280455
5.79851e-06
-6.90371e-11
0.00280349
-2.19153e-06
-7.06196e-11
0.00281223
9.21199e-06
-7.30498e-11
0.00280802
-5.33296e-06
-7.4557e-11
1.69157e-05
-7.6101e-11
0.0028251
0.0022943
1.59041e-11
-6.14647e-11
0.00234775
2.46464e-11
-6.18393e-11
0.00241314
-1.92969e-10
-6.13497e-11
0.00248355
4.73699e-10
-6.21272e-11
0.00255003
-1.58964e-10
-6.25663e-11
0.00261048
1.68484e-09
-6.39368e-11
0.00265979
-1.29463e-09
-6.36471e-11
0.00269928
3.25859e-09
-6.4367e-11
0.00272915
-3.16904e-09
-6.44645e-11
0.00275308
8.37758e-09
-6.64429e-11
0.00277172
-4.34879e-09
-6.73559e-11
0.00278727
2.34893e-08
-6.87256e-11
0.00279848
-6.69202e-09
-6.84049e-11
0.00280778
7.22464e-08
-6.89503e-11
0.00281213
-1.0961e-08
-6.9043e-11
0.00281871
2.22214e-07
-7.06001e-11
0.00281738
3.68583e-08
-7.16681e-11
0.00282693
5.56051e-07
-7.34661e-11
0.00282228
4.83024e-07
-7.44644e-11
1.19241e-06
-7.58066e-11
0.00283935
0.0022943
-2.58148e-05
-6.14518e-11
0.00234775
-4.68146e-05
-6.1805e-11
0.00241314
-6.15206e-05
-6.16512e-11
0.00248355
-6.5139e-05
-6.25166e-11
0.00255003
-6.19034e-05
-6.27648e-11
0.00261048
-5.37514e-05
-6.37889e-11
0.00265979
-4.3191e-05
-6.33225e-11
0.00269928
-3.31213e-05
-6.40652e-11
0.00272915
-2.49589e-05
-6.4325e-11
0.00275308
-1.9201e-05
-6.60411e-11
0.00277172
-1.4639e-05
-6.64929e-11
0.00278727
-1.16236e-05
-6.75834e-11
0.00279848
-8.10922e-06
-6.75136e-11
0.00280778
-6.83852e-06
-6.89695e-11
0.00281213
-2.83339e-06
-6.98436e-11
0.00281872
-5.35443e-06
-7.17142e-11
0.0028174
2.24815e-06
-7.25503e-11
0.00282697
-8.11897e-06
-7.37618e-11
0.00282237
6.24898e-06
-7.42116e-11
-1.46061e-05
-7.51577e-11
0.00283952
0.00229659
-5.48937e-05
-6.13693e-11
0.00235209
-9.66218e-05
-6.17812e-11
0.00241825
-0.000124879
-6.20038e-11
0.00248919
-0.000131788
-6.29536e-11
0.00255587
-0.000125071
-6.2578e-11
0.00261625
-0.000108421
-6.30035e-11
0.00266503
-8.6877e-05
-6.25381e-11
0.00270322
-6.59138e-05
-6.39818e-11
0.00273096
-4.87914e-05
-6.47507e-11
0.00275199
-3.64736e-05
-6.63643e-11
0.00276748
-2.71109e-05
-6.62766e-11
0.00277988
-2.10982e-05
-6.70846e-11
0.00278858
-1.47102e-05
-6.75701e-11
0.00279578
-1.26432e-05
-6.98135e-11
0.00279914
-5.64793e-06
-7.14578e-11
0.00280458
-1.07254e-05
-7.32815e-11
0.00280354
3.24211e-06
-7.35526e-11
0.00281228
-1.68919e-05
-7.40839e-11
0.00280816
1.05641e-05
-7.4031e-11
-3.12968e-05
-7.47836e-11
0.00282524
0.00229604
-8.14371e-05
-6.12744e-11
0.00235336
-0.000146325
-6.18707e-11
0.00242275
-0.000189384
-6.27907e-11
0.00249574
-0.000198552
-6.34648e-11
0.00256229
-0.000186051
-6.20927e-11
0.00262002
-0.000158523
-6.17226e-11
0.00266387
-0.000123637
-6.14845e-11
0.00269541
-9.01607e-05
-6.38517e-11
0.00271569
-6.3187e-05
-6.53091e-11
0.00272909
-4.42094e-05
-6.6741e-11
0.00273762
-3.06951e-05
-6.59587e-11
0.00274392
-2.26253e-05
-6.64653e-11
0.00274794
-1.47697e-05
-6.72701e-11
0.00275135
-1.28302e-05
-7.02509e-11
0.0027526
-4.41792e-06
-7.21812e-11
0.00275584
-1.193e-05
-7.39326e-11
0.0027549
6.17827e-06
-7.38141e-11
0.0027612
-2.11932e-05
-7.39201e-11
0.00275732
1.6751e-05
-7.3579e-11
-3.59796e-05
-7.43207e-11
0.00276442
0.0023058
-0.000120795
-6.11858e-11
0.00237268
-0.000208545
-6.20042e-11
0.00244097
-0.000256192
-6.30701e-11
0.0025032
-0.000257531
-6.34864e-11
0.00255037
-0.000230889
-6.16437e-11
0.00258343
-0.000186953
-6.10215e-11
0.00260102
-0.000137432
-6.09951e-11
0.00260764
-9.26091e-05
-6.3869e-11
0.00260631
-5.92155e-05
-6.55336e-11
0.00260181
-3.70991e-05
-6.69673e-11
0.00259662
-2.37595e-05
-6.62853e-11
0.00259248
-1.6876e-05
-6.7006e-11
0.00259007
-1.16718e-05
-6.80094e-11
0.00258874
-1.13357e-05
-7.06347e-11
0.0025894
-5.52744e-06
-7.21841e-11
0.00258962
-1.28056e-05
-7.35674e-11
0.00259243
2.7241e-06
-7.34124e-11
0.00259334
-2.27226e-05
-7.37928e-11
0.00259654
1.30208e-05
-7.37975e-11
-3.52216e-05
-7.47708e-11
0.00259536
0.00231761
-0.000167775
-6.13694e-11
0.00236087
-0.000243229
-6.22402e-11
0.00236669
-0.00025616
-6.24826e-11
0.00234371
-0.000227035
-6.2546e-11
0.0023013
-0.00018151
-6.20186e-11
0.00225308
-0.00013022
-6.28583e-11
0.00220513
-8.20731e-05
-6.28476e-11
0.00216477
-4.48848e-05
-6.45753e-11
0.00213368
-2.20252e-05
-6.51358e-11
0.00211277
-1.02046e-05
-6.62288e-11
0.00209955
-5.34004e-06
-6.58323e-11
0.00209145
-3.84674e-06
-6.68386e-11
0.00208698
-2.89076e-06
-6.75804e-11
0.00208356
-3.86657e-06
-6.96623e-11
0.00208324
-1.34391e-06
-7.07172e-11
0.00208029
-6.06939e-06
-7.2204e-11
0.00208405
2.83529e-06
-7.26262e-11
0.0020774
-1.23805e-05
-7.36501e-11
0.0020838
1.04436e-05
-7.41269e-11
-3.18901e-06
-7.53392e-11
0.00205543
0.00209767
-6.17597e-11
0.0018576
-6.15923e-11
0.00160203
-6.08823e-11
0.00137819
-6.25945e-11
0.00119879
-6.36092e-11
0.00107129
-6.48068e-11
0.000990023
-6.44321e-11
0.000946088
-6.51142e-11
0.000923884
-6.47144e-11
0.000913733
-6.57506e-11
0.000907836
-6.61432e-11
0.00090361
-6.78724e-11
0.000900012
-6.8684e-11
0.000895509
-7.0177e-11
0.000893338
-7.06392e-11
0.00088636
-7.18126e-11
0.000888161
-7.22506e-11
0.000874495
-7.3502e-11
0.000883539
-7.42234e-11
-7.5605e-11
0.00087882
0.00209767
0.000167775
-3.30125e-06
0.0018576
0.000243229
-5.12121e-06
0.00160203
0.00025616
-2.42157e-06
0.00137819
0.000227035
-3.96073e-06
0.00119879
0.00018151
-2.43669e-06
0.00107129
0.00013022
-3.63785e-06
0.000990022
8.2073e-05
-2.581e-06
0.000946086
4.48854e-05
-3.35484e-06
0.000923883
2.20256e-05
-2.60449e-06
0.000913727
1.02075e-05
-3.06426e-06
0.000907833
5.34044e-06
-2.59193e-06
0.00090359
3.85998e-06
-2.86129e-06
0.000899997
2.88814e-06
-2.60087e-06
0.000895444
3.91658e-06
-2.73614e-06
0.000893283
1.33e-06
-2.62726e-06
0.000886137
6.24395e-06
-2.65353e-06
0.000887951
-2.85431e-06
-2.67045e-06
0.000873825
1.28377e-05
-2.59008e-06
0.000882634
-1.01828e-05
-2.67331e-06
3.87106e-06
-2.76184e-06
0.000877183
0.00231761
0.000120795
-8.49729e-06
0.00236087
0.000208545
-1.03425e-05
0.00236669
0.000256192
-7.88719e-06
0.00234371
0.000257531
-9.20049e-06
0.0023013
0.000230888
-7.79982e-06
0.00225308
0.000186954
-8.81133e-06
0.00220513
0.00013743
-7.90673e-06
0.00216477
9.26127e-05
-8.52915e-06
0.00213368
5.92129e-05
-7.9123e-06
0.00211277
3.71094e-05
-8.26127e-06
0.00209955
2.37547e-05
-7.8896e-06
0.00209143
1.69068e-05
-8.07448e-06
0.00208696
1.16614e-05
-7.89606e-06
0.0020835
1.14343e-05
-7.95866e-06
0.00208319
5.50027e-06
-7.91633e-06
0.0020801
1.31251e-05
-7.87351e-06
0.00208385
-2.73606e-06
-7.94993e-06
0.00207682
2.35485e-05
-7.79497e-06
0.00208299
-1.25132e-05
-8.0287e-06
3.69204e-05
-8.00485e-06
0.00205359
0.0023058
8.14371e-05
-4.32805e-06
0.00237268
0.000146325
-6.32879e-06
0.00244097
0.000189383
-3.52045e-06
0.0025032
0.000198552
-5.26e-06
0.00255037
0.00018605
-3.53583e-06
0.00258343
0.000158525
-4.90349e-06
0.00260102
0.000123635
-3.77706e-06
0.00260764
9.01666e-05
-4.65113e-06
0.00260631
6.3182e-05
-3.86892e-06
0.00260181
4.42247e-05
-4.39622e-06
0.00259662
3.06869e-05
-3.89671e-06
0.00259247
2.2667e-05
-4.20972e-06
0.00259006
1.47544e-05
-3.93627e-06
0.00258871
1.29583e-05
-4.09372e-06
0.00258937
4.38347e-06
-3.98316e-06
0.00258951
1.23301e-05
-4.01422e-06
0.00259231
-6.17924e-06
-4.02819e-06
0.00259305
2.21966e-05
-3.96737e-06
0.00259608
-1.60818e-05
-3.99412e-06
3.80421e-05
-4.09928e-06
0.00259454
0.00229604
5.48937e-05
-7.38971e-06
0.00235336
9.66219e-05
-9.27315e-06
0.00242275
0.000124879
-6.91504e-06
0.00249574
0.000131788
-8.29115e-06
0.00256229
0.00012507
-6.84036e-06
0.00262002
0.000108424
-7.87145e-06
0.00266387
8.68744e-05
-6.94166e-06
0.00269541
6.59203e-05
-7.59185e-06
0.00271569
4.87861e-05
-6.96164e-06
0.00272909
3.64903e-05
-7.32708e-06
0.00273762
2.71027e-05
-6.93911e-06
0.00274392
2.11434e-05
-7.13358e-06
0.00274793
1.46966e-05
-6.94401e-06
0.00275134
1.27817e-05
-7.01649e-06
0.00275257
5.62108e-06
-6.9665e-06
0.00275578
1.11541e-05
-6.93332e-06
0.00275481
-3.20152e-06
-6.99852e-06
0.00276103
1.79702e-05
-6.87725e-06
0.00275699
-9.72575e-06
-7.08954e-06
3.36073e-05
-7.08357e-06
0.00276384
0.00229659
2.58148e-05
-5.40164e-06
0.00235209
4.68147e-05
-7.34534e-06
0.00241825
6.15201e-05
-4.84344e-06
0.00248919
6.51395e-05
-6.36268e-06
0.00255587
6.19023e-05
-4.77489e-06
0.00261625
5.37541e-05
-5.93661e-06
0.00266503
4.3188e-05
-4.91867e-06
0.00270322
3.31285e-05
-5.67081e-06
0.00273096
2.49529e-05
-4.97623e-06
0.00275199
1.92191e-05
-5.41582e-06
0.00276748
1.46298e-05
-4.97809e-06
0.00277988
1.16722e-05
-5.22718e-06
0.00278858
8.09438e-06
-5.00003e-06
0.00279577
6.98523e-06
-5.11209e-06
0.00279913
2.80704e-06
-5.03247e-06
0.00280455
5.799e-06
-5.03067e-06
0.00280349
-2.19155e-06
-5.06268e-06
0.00281223
9.21156e-06
-4.99134e-06
0.00280802
-5.33358e-06
-5.06518e-06
1.6915e-05
-5.13299e-06
0.0028251
0.0022943
-9.91806e-12
-6.37842e-06
0.00234775
6.82385e-11
-8.28933e-06
0.00241314
-2.73437e-10
-5.91168e-06
0.00248355
7.24539e-11
-7.34292e-06
0.00255003
-9.50988e-10
-5.83282e-06
0.00261048
8.80437e-10
-6.90907e-06
0.00265979
-1.5167e-09
-5.94517e-06
0.00269928
3.75585e-09
-6.63758e-06
0.00272915
-2.3345e-09
-5.98582e-06
0.00275308
9.10861e-09
-6.3814e-06
0.00277172
-3.81867e-09
-5.97518e-06
0.00278727
2.40663e-08
-6.19102e-06
0.00279848
-5.85058e-09
-5.98766e-06
0.00280778
7.33037e-08
-6.07529e-06
0.00281213
-1.00227e-08
-6.0131e-06
0.00281871
2.22724e-07
-5.99148e-06
0.00281738
3.68083e-08
-6.04064e-06
0.00282693
5.55572e-07
-5.94764e-06
0.00282228
4.82338e-07
-6.09688e-06
1.19173e-06
-6.11913e-06
0.00283935
0.0022943
-2.58148e-05
-6.37842e-06
0.00234775