/*--------------------------------*- C++ -*----------------------------------*\
  =========                 |
  \\      /  F ield         | OpenFOAM: The Open Source CFD Toolbox
   \\    /   O peration     | Website:  https://openfoam.org
    \\  /    A nd           | Version:  7
     \\/     M anipulation  |
\*---------------------------------------------------------------------------*/
FoamFile
{
    version     2.0;
    format      ascii;
    class       volSymmTensorField;
    location    "1.9875";
    object      UPrime2Mean;
}
// * * * * * * * * * * * * * * * * * * * * * * * * * * * * * * * * * * * * * //

dimensions      [0 2 -2 0 0 0 0];

internalField   nonuniform List<symmTensor> 
7920
(
(0.0118814 -0.000964524 -0.00123627 0.000132454 0.000147586 0.000337981)
(0.0510621 0.00690233 -0.00382449 0.00120258 -0.000484378 0.00142533)
(0.0778701 0.0124624 -0.00585969 0.00260487 -0.000818946 0.00324236)
(0.103981 0.0162196 -0.00717504 0.00327255 -0.000838343 0.00458865)
(0.108976 0.0164405 -0.00862966 0.00350432 -0.000927498 0.00513685)
(0.122879 0.0174204 -0.00941002 0.00357684 -0.000882117 0.00468842)
(0.122482 0.0167877 -0.010254 0.00362701 -0.000959263 0.00399566)
(0.132123 0.0172459 -0.0103781 0.0036342 -0.000926285 0.00319113)
(0.130645 0.016565 -0.0106707 0.00365759 -0.000981964 0.00270391)
(0.138133 0.0168169 -0.0105265 0.00365909 -0.000942158 0.0023528)
(0.136586 0.0161674 -0.0106681 0.0036723 -0.000971554 0.00222269)
(0.14263 0.0162579 -0.0105331 0.00367075 -0.000931453 0.00210511)
(0.141313 0.0156559 -0.0105907 0.00367689 -0.000945227 0.00207438)
(0.146265 0.0156271 -0.0105309 0.00367512 -0.000913581 0.00205739)
(0.145301 0.0150766 -0.0104504 0.00367512 -0.000906609 0.00205706)
(0.149428 0.014963 -0.0106158 0.00368094 -0.000895818 0.00215134)
(0.148727 0.014359 -0.0102431 0.00364252 -0.000838212 0.00210057)
(0.15281 0.014308 -0.0109692 0.00371869 -0.000899838 0.00233586)
(0.150243 0.0121384 -0.00974067 0.00315421 -0.000620394 0.00212925)
(0.165561 0.0167773 -0.0114405 0.00397977 -0.00106533 0.00241119)
(0.00359953 0.000459975 0.000151243 0.00602705 0.000929607 0.000262751)
(0.00727932 -0.00366738 -0.000628844 0.00676281 0.00137928 0.00100074)
(0.0216773 -0.00672355 -0.00196608 0.0058384 0.00154424 0.00232209)
(0.042555 -0.00935335 -0.00385685 0.00472469 0.00136439 0.00363157)
(0.0638006 -0.00940761 -0.00591864 0.0042123 0.00126991 0.00465146)
(0.0843113 -0.0101511 -0.00787759 0.00397502 0.00110634 0.00484152)
(0.102444 -0.0096945 -0.00962556 0.0038781 0.00105215 0.00458685)
(0.118671 -0.00999693 -0.0107905 0.00381696 0.000958683 0.00397745)
(0.13346 -0.00949077 -0.0116333 0.00379683 0.000950816 0.00341652)
(0.14649 -0.00955876 -0.0120214 0.00376608 0.000898934 0.00293447)
(0.158892 -0.00905614 -0.0123594 0.0037606 0.000903775 0.00260762)
(0.169731 -0.00896506 -0.0124658 0.00373845 0.000869464 0.00235362)
(0.180401 -0.00849699 -0.0125766 0.00373842 0.000872624 0.00216859)
(0.189738 -0.0082822 -0.0126319 0.00372097 0.000854557 0.00204935)
(0.199069 -0.0078767 -0.0124594 0.00372039 0.000839797 0.00193081)
(0.207753 -0.0074697 -0.0126764 0.00371962 0.000844652 0.00196701)
(0.21488 -0.0071877 -0.0120779 0.00368303 0.000781729 0.00185695)
(0.22594 -0.00607762 -0.0129038 0.00373281 0.000820256 0.00207697)
(0.221261 -0.00600608 -0.0112493 0.00361355 0.000652681 0.0018881)
(0.237937 -0.000194903 -0.0127308 0.0032955 0.000564894 0.00221605)
(0.00485963 0.000775259 0.000538519 0.000872258 0.00028015 0.000254282)
(0.00857517 -0.000172641 0.00122435 0.00121797 5.734e-05 0.000867236)
(0.0161849 -0.00201742 0.00221729 0.00194584 4.07111e-06 0.00179497)
(0.0170661 -0.00297407 0.00214041 0.00263293 -4.30913e-05 0.00276601)
(0.0215386 -0.00467183 0.00223189 0.00294212 -0.000198546 0.00385417)
(0.0242865 -0.00477655 0.00148431 0.00310975 -0.000306719 0.00466155)
(0.0301156 -0.00575466 0.000864396 0.00320332 -0.000513603 0.0052469)
(0.0361325 -0.00544974 -0.000363348 0.00326405 -0.000616042 0.00536447)
(0.0436312 -0.00604003 -0.00128785 0.00331732 -0.000749634 0.00522975)
(0.0517499 -0.00568783 -0.00238321 0.0033589 -0.000786373 0.00481869)
(0.0600843 -0.00614006 -0.00302492 0.00339505 -0.000844306 0.00435724)
(0.0691214 -0.00588245 -0.0037067 0.00342778 -0.000838345 0.00383472)
(0.0775749 -0.00629089 -0.00401819 0.00345265 -0.000854983 0.00334166)
(0.0869107 -0.0061633 -0.00436467 0.00347581 -0.000832577 0.0028936)
(0.0951239 -0.00660844 -0.00435268 0.00349974 -0.000829202 0.00246862)
(0.104829 -0.00643919 -0.004361 0.0034931 -0.000817857 0.002199)
(0.112362 -0.00725672 -0.00400742 0.00356436 -0.000765367 0.0018998)
(0.123325 -0.00615394 -0.00385194 0.00347583 -0.000895481 0.00188422)
(0.12843 -0.00786167 -0.00322333 0.00352114 -0.000611553 0.00170078)
(0.144441 -0.00318221 -0.00278886 0.00490609 -0.00157993 0.0018884)
(0.00497698 0.00215319 0.000533266 0.00269057 0.000576168 0.00024029)
(0.00995144 0.0050438 0.00135351 0.00470795 0.00109144 0.00082629)
(0.025451 0.00993116 0.00313491 0.00560522 0.00147718 0.00165609)
(0.0343297 0.0107703 0.00414153 0.00526721 0.00146305 0.00245369)
(0.0486873 0.0126932 0.00569368 0.00493862 0.00147238 0.00345501)
(0.0547978 0.0123399 0.00625566 0.00466979 0.00134316 0.0043529)
(0.0657199 0.0134357 0.00707999 0.00447386 0.00128417 0.0052801)
(0.0703062 0.0129293 0.00674289 0.00431122 0.00115366 0.00585977)
(0.0794739 0.0137958 0.00663441 0.00420126 0.00110894 0.00621666)
(0.0841833 0.0134003 0.00573413 0.00409077 0.00101587 0.00617094)
(0.0926128 0.0141606 0.00534508 0.00402564 0.000994557 0.00592947)
(0.0979857 0.0139208 0.00454528 0.00394693 0.00094208 0.00547894)
(0.105953 0.0146002 0.00422135 0.00391082 0.000935105 0.0049347)
(0.112113 0.0145038 0.00368819 0.00384853 0.000914063 0.00433363)
(0.119544 0.0150965 0.00350468 0.00384015 0.000902127 0.00370364)
(0.126715 0.0151332 0.00348671 0.00377363 0.000895966 0.00312035)
(0.133247 0.0156045 0.00361283 0.00380972 0.000892179 0.00259321)
(0.142178 0.0157881 0.00431147 0.0037047 0.00083907 0.00220494)
(0.146948 0.0159498 0.00450872 0.00375939 0.00085299 0.00189752)
(0.160726 0.0171146 0.0063499 0.00398363 0.000671848 0.00181707)
(0.00493201 -0.000142021 0.000529013 0.000101175 -2.54045e-05 0.000240037)
(0.00932557 -0.00139949 0.00126827 0.00106484 -0.000318532 0.000842117)
(0.02627 -0.00378127 0.00318835 0.0018656 -0.000422535 0.00165311)
(0.0386317 -0.00481459 0.00441276 0.00251636 -0.000402045 0.00241995)
(0.0595131 -0.00714204 0.00648837 0.00286922 -0.000482622 0.00334828)
(0.0720311 -0.00792128 0.00755882 0.00304481 -0.000510834 0.00424959)
(0.0920033 -0.00989622 0.00913455 0.00314872 -0.000645232 0.00521626)
(0.103116 -0.010384 0.0093396 0.0032047 -0.000694275 0.00596896)
(0.121614 -0.0119122 0.0098713 0.00325541 -0.000797364 0.00652064)
(0.131928 -0.0122458 0.00928585 0.00328751 -0.000817915 0.00671919)
(0.149116 -0.0134833 0.00929699 0.00332158 -0.000876634 0.00668193)
(0.159096 -0.0137852 0.00860988 0.00334477 -0.000871091 0.00639095)
(0.175089 -0.0148319 0.00853895 0.00337493 -0.00090348 0.00597305)
(0.184984 -0.0151374 0.00794658 0.00338563 -0.000874526 0.00538715)
(0.199857 -0.0161238 0.00791482 0.00342998 -0.000900276 0.00477953)
(0.20962 -0.0163581 0.00764326 0.00338886 -0.000854274 0.00404723)
(0.223312 -0.0174546 0.0080263 0.0035214 -0.000869698 0.00343787)
(0.233316 -0.0179807 0.00842183 0.00333712 -0.000909653 0.00280685)
(0.243058 -0.0180987 0.00916679 0.00359018 -0.00076856 0.00236089)
(0.258558 -0.0239827 0.0111443 0.00438558 -0.00141527 0.00212581)
(0.00485829 0.0010631 0.000508917 0.00067111 0.000280087 0.000234577)
(0.00853055 0.00274325 0.00114864 0.00215294 0.000664392 0.000834544)
(0.0245986 0.0066506 0.00299361 0.00306467 0.000931478 0.00164958)
(0.0371166 0.00805003 0.0042238 0.00337919 0.000920126 0.00240913)
(0.0591699 0.0107664 0.00638167 0.0035398 0.000987542 0.00332334)
(0.0737844 0.0114991 0.00758739 0.00358666 0.000938185 0.00421311)
(0.0970566 0.0135877 0.0093672 0.00361995 0.000988399 0.0051767)
(0.111644 0.0139949 0.00976992 0.00361689 0.000942198 0.00595825)
(0.135071 0.0156423 0.0105416 0.00362568 0.000976376 0.00656006)
(0.149668 0.0158985 0.0101227 0.00361241 0.000930574 0.00683769)
(0.172749 0.0172458 0.0103338 0.00361576 0.000951576 0.00688688)
(0.187342 0.0174666 0.00974674 0.00360168 0.000912284 0.0066823)
(0.209644 0.0186075 0.00983465 0.00360748 0.000930268 0.00635222)
(0.224288 0.0188073 0.00925738 0.0035893 0.000896408 0.00581798)
(0.245334 0.0198682 0.00932781 0.0036111 0.000915554 0.00526636)
(0.260182 0.0199256 0.00895767 0.00356249 0.000877252 0.00451566)
(0.278845 0.0211655 0.00944924 0.00364902 0.000901893 0.00389541)
(0.295314 0.0211851 0.00971515 0.00351604 0.000881302 0.00319321)
(0.306246 0.0216553 0.0106897 0.00366598 0.000842659 0.00265804)
(0.330358 0.0246916 0.012782 0.00421871 0.00107208 0.00239497)
(0.0048583 -0.00106311 0.000508921 0.000671106 -0.000280089 0.000234578)
(0.00853055 -0.00274323 0.00114862 0.00215294 -0.000664389 0.000834546)
(0.0245986 -0.00665061 0.00299365 0.00306467 -0.000931493 0.00164958)
(0.0371166 -0.00805001 0.00422373 0.00337918 -0.000920115 0.00240914)
(0.05917 -0.0107664 0.0063818 0.0035398 -0.000987568 0.00332332)
(0.0737844 -0.011499 0.00758715 0.00358666 -0.000938161 0.00421311)
(0.0970568 -0.0135878 0.0093676 0.00361997 -0.000988455 0.00517671)
(0.111644 -0.0139947 0.00976927 0.00361687 -0.000942135 0.00595815)
(0.135072 -0.0156422 0.0105426 0.00362567 -0.000976485 0.00656022)
(0.149668 -0.0158978 0.0101212 0.00361233 -0.000930423 0.00683733)
(0.172751 -0.0172449 0.0103361 0.00361562 -0.000951756 0.00688736)
(0.187341 -0.0174647 0.0097437 0.00360138 -0.000911912 0.0066816)
(0.209651 -0.0186042 0.00983888 0.00360708 -0.000930446 0.00635299)
(0.224286 -0.018799 0.00925222 0.0035882 -0.000895525 0.00581717)
(0.245352 -0.0198615 0.00933417 0.00361041 -0.000915646 0.00526716)
(0.260179 -0.0198949 0.00895091 0.00355829 -0.000874669 0.00451498)
(0.27888 -0.0211578 0.00945527 0.00364868 -0.000902 0.00389599)
(0.295309 -0.0210954 0.00971157 0.00350371 -0.000874969 0.00319326)
(0.306312 -0.0216258 0.0106854 0.00366429 -0.000840724 0.00265704)
(0.330378 -0.024552 0.0127966 0.00419611 -0.00106364 0.00239836)
(0.00493202 0.000142011 0.000529024 0.000101174 2.54027e-05 0.00024004)
(0.00932558 0.0013995 0.00126823 0.00106484 0.000318527 0.000842119)
(0.0262699 0.00378127 0.00318846 0.0018656 0.000422532 0.00165311)
(0.0386317 0.00481459 0.00441254 0.00251635 0.000402037 0.00241998)
(0.059513 0.00714202 0.00648879 0.00286921 0.000482628 0.00334823)
(0.0720314 0.00792132 0.00755809 0.00304478 0.000510812 0.00424958)
(0.0920029 0.00989619 0.00913579 0.0031487 0.000645253 0.00521626)
(0.103117 0.010384 0.00933766 0.00320469 0.000694219 0.00596864)
(0.121613 0.0119123 0.00987443 0.00325539 0.000797446 0.00652114)
(0.131931 0.0122462 0.00928122 0.00328749 0.000817741 0.00671799)
(0.149113 0.0134841 0.00930392 0.00332164 0.000876935 0.00668366)
(0.159104 0.0137864 0.00860011 0.00334486 0.000870682 0.00638835)
(0.175082 0.0148348 0.00855293 0.00337518 0.00090433 0.00597629)
(0.185004 0.0151434 0.00792801 0.00338616 0.000873809 0.00538344)
(0.199847 0.0161292 0.00794008 0.00343044 0.000902081 0.00478392)
(0.209667 0.0163826 0.0076125 0.00339161 0.000854031 0.00404268)
(0.223321 0.01746 0.00806358 0.00352156 0.000872795 0.00344326)
(0.233419 0.0180569 0.00838618 0.00334784 0.000911632 0.00280226)
(0.243153 0.0181188 0.00920052 0.00359133 0.00077402 0.00236397)
(0.258779 0.0241143 0.0111429 0.00441411 0.00141972 0.00212891)
(0.00497699 -0.00215321 0.00053328 0.00269056 -0.00057619 0.000240294)
(0.00995145 -0.00504378 0.00135345 0.00470794 -0.00109139 0.000826288)
(0.025451 -0.00993117 0.00313507 0.00560521 -0.00147728 0.00165609)
(0.0343298 -0.0107703 0.0041412 0.00526718 -0.00146291 0.0024537)
(0.0486873 -0.0126933 0.00569421 0.00493862 -0.00147259 0.00345492)
(0.0547979 -0.0123398 0.00625469 0.00466975 -0.00134286 0.00435283)
(0.0657197 -0.0134357 0.00708149 0.00447387 -0.0012846 0.00527999)
(0.0703066 -0.0129294 0.00674062 0.00431116 -0.00115302 0.00585925)
(0.0794739 -0.0137958 0.00663806 0.00420125 -0.00110983 0.00621744)
(0.0841846 -0.0134001 0.00572893 0.00409059 -0.00101459 0.00616883)
(0.0926127 -0.0141605 0.00535337 0.00402552 -0.000996259 0.00593292)
(0.0979897 -0.0139203 0.00453346 0.00394652 -0.000939493 0.00547344)
(0.105955 -0.0145996 0.00424046 0.00391044 -0.000938322 0.00494271)
(0.112123 -0.0145008 0.00366075 0.00384712 -0.000908648 0.00432324)
(0.119553 -0.0150966 0.0035479 0.00383975 -0.000908499 0.0037177)
(0.126736 -0.0151228 0.00342637 0.00376927 -0.000884413 0.00310299)
(0.13328 -0.0156099 0.00370035 0.00381016 -0.00090498 0.00261582)
(0.142215 -0.0157599 0.00420066 0.00369354 -0.000816943 0.00217808)
(0.147032 -0.0159602 0.00464789 0.00375999 -0.000873817 0.00192712)
(0.160802 -0.0170728 0.00620545 0.00397125 -0.000640863 0.00179096)
(0.00485965 -0.000775269 0.00053853 0.00087225 -0.000280163 0.000254285)
(0.00857519 0.000172647 0.0012243 0.00121796 -5.73161e-05 0.000867229)
(0.0161849 0.00201741 0.00221736 0.00194583 -4.09837e-06 0.00179497)
(0.0170661 0.00297404 0.00214027 0.00263292 4.31423e-05 0.00276598)
(0.0215386 0.0046718 0.0022319 0.00294211 0.000198528 0.003854)
(0.0242864 0.00477652 0.00148438 0.00310972 0.00030676 0.00466138)
(0.0301155 0.00575458 0.000864032 0.0032033 0.000513634 0.00524666)
(0.036132 0.00544964 -0.00036202 0.00326403 0.000615972 0.00536397)
(0.0436314 0.00603984 -0.00129012 0.00331731 0.000749868 0.00523061)
(0.0517482 0.00568785 -0.00237818 0.0033588 0.000785857 0.00481651)
(0.0600849 0.00613963 -0.00303294 0.00339513 0.000845284 0.0043618)
(0.0691155 0.0058825 -0.00369286 0.00342773 0.000836558 0.00382731)
(0.0775759 0.00628997 -0.00403816 0.00345292 0.000858066 0.00335452)
(0.0868934 0.00616356 -0.00433508 0.00347584 0.000827473 0.00287491)
(0.0951181 0.00660689 -0.00438998 0.00350044 0.000837766 0.00249704)
(0.104787 0.00643618 -0.0043111 0.00349431 0.000804553 0.00215908)
(0.112323 0.00725476 -0.00406037 0.00356501 0.000787673 0.00195482)
(0.123237 0.00615156 -0.00377511 0.00348274 0.000859219 0.00180888)
(0.128296 0.00786285 -0.00329212 0.00352284 0.000665031 0.00179153)
(0.144209 0.00323663 -0.00263529 0.00492458 0.00145026 0.00177669)
(0.00359956 -0.000459994 0.000151245 0.00602703 -0.000929619 0.000262754)
(0.00727936 0.00366739 -0.000628812 0.0067628 -0.00137923 0.00100074)
(0.0216773 0.00672352 -0.00196619 0.0058384 -0.0015443 0.0023221)
(0.0425549 0.00935329 -0.00385645 0.00472467 -0.00136428 0.00363152)
(0.0638005 0.00940756 -0.00591938 0.0042123 -0.00127004 0.00465131)
(0.084311 0.010151 -0.00787579 0.00397501 -0.00110611 0.00484142)
(0.102443 0.00969443 -0.00962838 0.00387811 -0.00105249 0.00458679)
(0.11867 0.00999658 -0.0107849 0.00381696 -0.000958165 0.00397733)
(0.133459 0.00949066 -0.0116425 0.00379686 -0.000951593 0.00341741)
(0.146487 0.00955789 -0.0120055 0.00376597 -0.00089769 0.00293324)
(0.15889 0.00905573 -0.0123861 0.00376062 -0.000905594 0.00261142)
(0.169718 0.00896287 -0.0124224 0.00373824 -0.000866447 0.00234765)
(0.180395 0.0084958 -0.0126474 0.00373842 -0.000877088 0.00218039)
(0.1897 0.00827622 -0.0125201 0.00372013 -0.000846844 0.00203013)
(0.199044 0.00787473 -0.0126331 0.00372068 -0.000851658 0.00196297)
(0.20767 0.00745474 -0.0124102 0.0037171 -0.000823593 0.00191565)
(0.214761 0.007188 -0.0124718 0.00368481 -0.000815892 0.00193409)
(0.225824 0.00604763 -0.0123112 0.00372664 -0.000759684 0.00196041)
(0.220878 0.00601047 -0.0121174 0.00362035 -0.000756712 0.00203978)
(0.237956 0.000228703 -0.0113853 0.00329895 -0.000420585 0.00199693)
(0.0118814 0.000964498 -0.00123624 0.00013245 -0.00014758 0.000337986)
(0.0510622 -0.00690233 -0.00382436 0.00120258 0.000484377 0.00142537)
(0.0778701 -0.0124624 -0.0058598 0.00260488 0.000818967 0.00324247)
(0.103981 -0.0162196 -0.00717446 0.00327255 0.000838278 0.00458878)
(0.108976 -0.0164406 -0.00863014 0.00350433 0.000927553 0.005137)
(0.122879 -0.0174203 -0.00940873 0.0035768 0.000881998 0.00468863)
(0.122482 -0.0167877 -0.0102564 0.00362699 0.000959504 0.00399601)
(0.132123 -0.0172457 -0.0103749 0.00363415 0.000926 0.00319135)
(0.130645 -0.0165651 -0.0106774 0.00365756 0.000982555 0.00270502)
(0.138131 -0.0168162 -0.0105172 0.00365892 0.000941331 0.00235203)
(0.136586 -0.0161676 -0.0106854 0.00367231 0.000972987 0.00222601)
(0.142625 -0.0162565 -0.0105066 0.00367052 0.000929215 0.00210038)
(0.141313 -0.0156564 -0.0106362 0.00367701 0.000948869 0.00208415)
(0.146249 -0.0156233 -0.010458 0.00367446 0.000907492 0.00204124)
(0.145297 -0.0150779 -0.0105697 0.00367568 0.000916361 0.00208541)
(0.149394 -0.0149558 -0.0104224 0.00367952 0.00087885 0.0021036)
(0.148695 -0.0143629 -0.010551 0.00364442 0.000866286 0.00217785)
(0.152756 -0.014298 -0.010471 0.00371627 0.000848366 0.00221256)
(0.150106 -0.0121654 -0.0104878 0.00316232 0.000701472 0.00229291)
(0.165409 -0.0168032 -0.0104066 0.00399192 0.000896789 0.00222382)
(0.00394454 -0.000373142 2.04207e-05 0.00225389 1.76139e-05 5.44273e-07)
(0.0342212 -0.0115948 2.80322e-06 0.00528753 1.81286e-05 4.32309e-07)
(0.0740557 -0.0168215 1.43028e-05 0.00607466 2.64583e-05 4.92605e-07)
(0.142262 -0.0230623 3.89576e-05 0.00592218 1.95973e-05 4.23542e-07)
(0.152671 -0.0222074 2.84675e-05 0.00605288 2.78947e-05 4.73114e-07)
(0.196037 -0.0261296 5.12505e-05 0.00629071 2.18574e-05 4.07048e-07)
(0.189447 -0.0247121 3.14932e-05 0.00650219 2.97051e-05 4.5126e-07)
(0.222441 -0.0275645 5.27295e-05 0.00666258 2.37864e-05 3.8951e-07)
(0.213365 -0.0258855 3.15367e-05 0.00675742 3.07737e-05 4.29184e-07)
(0.24055 -0.0278936 5.22703e-05 0.00682817 2.49748e-05 3.7376e-07)
(0.231499 -0.026231 3.11455e-05 0.0068704 3.11237e-05 4.08109e-07)
(0.254063 -0.0276579 5.13365e-05 0.00690821 2.56199e-05 3.58299e-07)
(0.245838 -0.0261248 3.06935e-05 0.00693036 3.10561e-05 3.86361e-07)
(0.264768 -0.0271369 5.0595e-05 0.00695689 2.58592e-05 3.41495e-07)
(0.25761 -0.0257506 3.0794e-05 0.00696141 3.05925e-05 3.63776e-07)
(0.274048 -0.0264511 5.10873e-05 0.00700524 2.57349e-05 3.24042e-07)
(0.266761 -0.0250674 3.17266e-05 0.00688952 2.94933e-05 3.41401e-07)
(0.283808 -0.0255784 5.53155e-05 0.00726373 2.57716e-05 3.06746e-07)
(0.26862 -0.0200932 2.974e-05 0.00543546 2.64216e-05 3.21157e-07)
(0.266679 -0.0191066 7.14437e-05 0.00592817 2.14727e-05 2.8192e-07)
(0.00563573 0.000259347 2.47098e-05 0.000405096 -6.53626e-06 4.2797e-07)
(0.00447356 -2.61133e-05 1.54113e-05 0.00124075 -1.51322e-05 3.62696e-07)
(0.00937037 -0.00200978 4.60959e-05 0.00253644 -2.3543e-05 4.09047e-07)
(0.0179539 -0.000100635 5.25027e-05 0.0038118 -2.06484e-05 3.56074e-07)
(0.0276234 -0.000840549 7.10103e-05 0.00483046 -2.60018e-05 3.91001e-07)
(0.0497639 0.00303244 8.09722e-05 0.00552337 -1.98683e-05 3.36629e-07)
(0.0610576 0.00211265 8.9677e-05 0.00589766 -2.63158e-05 3.69248e-07)
(0.0874471 0.00529543 9.95996e-05 0.0061467 -2.02637e-05 3.19024e-07)
(0.097423 0.00413478 0.000102547 0.00629851 -2.64225e-05 3.50204e-07)
(0.123405 0.00659842 0.000111672 0.00642284 -2.0545e-05 3.04365e-07)
(0.131512 0.005414 0.000110535 0.00650832 -2.61484e-05 3.3146e-07)
(0.155484 0.0072725 0.000118697 0.00658576 -2.06147e-05 2.89333e-07)
(0.162091 0.00610776 0.000114618 0.00663544 -2.56875e-05 3.11455e-07)
(0.183877 0.00749005 0.000122282 0.00669561 -2.0508e-05 2.73165e-07)
(0.189446 0.0063193 0.000116342 0.00670846 -2.50388e-05 2.90797e-07)
(0.209864 0.00751509 0.000124286 0.00679227 -2.00904e-05 2.56872e-07)
(0.2134 0.0058458 0.000117167 0.00675045 -2.43051e-05 2.70549e-07)
(0.23592 0.00835458 0.000126299 0.00690892 -1.88365e-05 2.41617e-07)
(0.229124 0.00415195 0.00011812 0.00693513 -2.35915e-05 2.51181e-07)
(0.281958 0.0168864 0.000130968 0.00857937 -1.51955e-05 2.2349e-07)
(0.00451324 0.00127385 2.48566e-05 0.00122591 1.24655e-05 4.81333e-07)
(0.00564158 0.00251238 1.44001e-05 0.00635221 1.41777e-05 3.99391e-07)
(0.0193384 0.0101337 4.55444e-05 0.00892697 2.14067e-05 4.50136e-07)
(0.0176975 0.0076151 3.19569e-05 0.00883897 1.22069e-05 3.85688e-07)
(0.0275503 0.0108524 5.97064e-05 0.00844913 2.16774e-05 4.28535e-07)
(0.0246159 0.00734432 5.1554e-05 0.00809574 1.49436e-05 3.66628e-07)
(0.032701 0.00958894 7.6515e-05 0.00785516 2.38862e-05 4.05893e-07)
(0.0332841 0.0068138 7.13402e-05 0.00768752 1.79423e-05 3.49976e-07)
(0.0417969 0.00880809 9.2959e-05 0.00752532 2.58412e-05 3.87071e-07)
(0.0457993 0.00673919 8.93343e-05 0.00742476 2.02846e-05 3.36657e-07)
(0.0546336 0.00853367 0.000107445 0.00731667 2.71153e-05 3.69065e-07)
(0.0608641 0.00701307 0.000104614 0.00725929 2.18381e-05 3.22975e-07)
(0.0695597 0.00858616 0.000119247 0.00719284 2.77e-05 3.49559e-07)
(0.0771295 0.0074888 0.000117053 0.00715441 2.2637e-05 3.07542e-07)
(0.0853985 0.00879969 0.000128531 0.00712364 2.76315e-05 3.28602e-07)
(0.0941585 0.00819558 0.000127497 0.00707237 2.28477e-05 2.9104e-07)
(0.101345 0.00887865 0.000135763 0.00705623 2.67994e-05 3.0741e-07)
(0.112425 0.00966558 0.000137449 0.00705124 2.29823e-05 2.74922e-07)
(0.117132 0.00818153 0.000141799 0.00624043 2.42549e-05 2.88509e-07)
(0.131756 0.01244 0.000146836 0.00724918 2.3326e-05 2.58924e-07)
(0.00406025 -0.000318324 2.17699e-05 0.000237202 -7.29756e-06 4.30807e-07)
(0.00474003 -0.000192983 1.40874e-05 0.00125149 -1.39565e-05 3.7131e-07)
(0.0193918 -0.00284382 4.01148e-05 0.00251304 -2.27745e-05 4.15745e-07)
(0.0232893 -0.00303082 2.28234e-05 0.00368248 -2.06259e-05 3.60412e-07)
(0.0435282 -0.00706584 4.67756e-05 0.00451708 -2.68131e-05 3.97187e-07)
(0.045006 -0.00704094 3.0569e-05 0.00511339 -2.18445e-05 3.41717e-07)
(0.0626591 -0.0106924 5.61495e-05 0.00545308 -2.82012e-05 3.74958e-07)
(0.0626102 -0.0101986 4.20001e-05 0.005696 -2.27494e-05 3.23687e-07)
(0.0778459 -0.0131375 6.75142e-05 0.00584743 -2.85325e-05 3.55359e-07)
(0.0778284 -0.0124817 5.53708e-05 0.00597966 -2.2885e-05 3.08988e-07)
(0.0914125 -0.0148531 7.99616e-05 0.00607612 -2.79639e-05 3.37243e-07)
(0.0921714 -0.0142258 6.97266e-05 0.00616543 -2.2434e-05 2.94835e-07)
(0.10458 -0.0161723 9.27357e-05 0.00624068 -2.69849e-05 3.18299e-07)
(0.106319 -0.015681 8.41789e-05 0.00629988 -2.1734e-05 2.7949e-07)
(0.117811 -0.0173358 0.000105219 0.0063757 -2.59614e-05 2.98112e-07)
(0.120366 -0.0170008 9.818e-05 0.00638276 -2.08005e-05 2.63373e-07)
(0.131345 -0.0185342 0.000117394 0.00655286 -2.51378e-05 2.77773e-07)
(0.134086 -0.0183509 0.000110917 0.00640532 -1.90346e-05 2.47911e-07)
(0.145558 -0.0198115 0.000130382 0.00686353 -2.42188e-05 2.58028e-07)
(0.14631 -0.0218656 0.000118724 0.00818783 -1.70877e-05 2.32503e-07)
(0.0041328 0.000788627 2.30193e-05 0.000674117 1.01357e-05 4.58147e-07)
(0.00465515 0.000828819 1.54752e-05 0.0036032 1.39163e-05 3.91692e-07)
(0.0184646 0.00736864 4.37934e-05 0.00549095 2.13032e-05 4.38363e-07)
(0.0230686 0.00765347 2.58242e-05 0.0063217 1.42897e-05 3.76864e-07)
(0.0460003 0.0133003 5.02052e-05 0.0067121 2.24319e-05 4.17751e-07)
(0.0512504 0.0127893 3.10619e-05 0.00692587 1.59552e-05 3.58081e-07)
(0.0752473 0.0171041 5.68928e-05 0.00702082 2.40632e-05 3.95012e-07)
(0.0803567 0.0163842 3.85474e-05 0.00707229 1.80862e-05 3.40379e-07)
(0.10359 0.0197468 6.5096e-05 0.00706128 2.54536e-05 3.74976e-07)
(0.108766 0.0190233 4.83838e-05 0.00705892 1.98138e-05 3.25738e-07)
(0.130686 0.0217009 7.5161e-05 0.00702525 2.62963e-05 3.56538e-07)
(0.13613 0.0211005 6.06739e-05 0.00701288 2.09733e-05 3.11889e-07)
(0.156593 0.0232886 8.71569e-05 0.00698444 2.66341e-05 3.37659e-07)
(0.162559 0.0228355 7.49755e-05 0.00696445 2.15801e-05 2.96988e-07)
(0.181335 0.0246634 0.000100652 0.00696182 2.64864e-05 3.17529e-07)
(0.188281 0.0242923 9.04297e-05 0.00689951 2.16283e-05 2.81073e-07)
(0.204299 0.0259252 0.000115369 0.00696583 2.58092e-05 2.97005e-07)
(0.213844 0.0256248 0.000105774 0.00684277 2.12293e-05 2.65446e-07)
(0.223442 0.0260269 0.00013267 0.00658391 2.43447e-05 2.78094e-07)
(0.234829 0.0279727 0.000119568 0.00793294 2.2259e-05 2.5037e-07)
(0.00410045 -0.000549337 2.21966e-05 0.000380479 -8.53201e-06 4.42458e-07)
(0.00456121 -0.000412883 1.51074e-05 0.00205071 -1.36647e-05 3.81952e-07)
(0.0175336 -0.00490944 4.2506e-05 0.00337809 -2.16512e-05 4.26525e-07)
(0.0218968 -0.00508349 2.54455e-05 0.00442343 -1.72401e-05 3.67834e-07)
(0.0446876 -0.00989267 4.86098e-05 0.00509226 -2.44536e-05 4.06909e-07)
(0.05089 -0.0097556 2.92629e-05 0.00557232 -1.89483e-05 3.49502e-07)
(0.0765606 -0.0138744 5.38524e-05 0.00583856 -2.6178e-05 3.84706e-07)
(0.0838821 -0.0135402 3.45007e-05 0.00602863 -2.06291e-05 3.31737e-07)
(0.110375 -0.0169329 6.01e-05 0.00613331 -2.71656e-05 3.64687e-07)
(0.118704 -0.0165783 4.18603e-05 0.00622699 -2.16434e-05 3.16785e-07)
(0.145016 -0.0193953 6.8153e-05 0.00628516 -2.73477e-05 3.46185e-07)
(0.154189 -0.0191251 5.19516e-05 0.00634418 -2.1981e-05 3.02685e-07)
(0.179812 -0.0215009 7.86043e-05 0.00638945 -2.69787e-05 3.2732e-07)
(0.189776 -0.0213474 6.48264e-05 0.00642179 -2.18356e-05 2.87664e-07)
(0.21425 -0.0233958 9.1432e-05 0.00648209 -2.63038e-05 3.07305e-07)
(0.225017 -0.023347 7.97956e-05 0.00645066 -2.1242e-05 2.718e-07)
(0.247098 -0.0252232 0.000106429 0.00661106 -2.5478e-05 2.87046e-07)
(0.259806 -0.0256181 9.51221e-05 0.00644103 -1.99811e-05 2.56473e-07)
(0.274576 -0.0265937 0.00012462 0.0066433 -2.43477e-05 2.67747e-07)
(0.290407 -0.0310356 0.000109176 0.00795926 -1.99613e-05 2.41504e-07)
(0.00410044 0.000549332 2.21967e-05 0.000380478 8.53201e-06 4.42458e-07)
(0.00456121 0.000412892 1.51076e-05 0.00205071 1.36647e-05 3.81952e-07)
(0.0175336 0.00490944 4.25061e-05 0.00337809 2.16512e-05 4.26525e-07)
(0.0218969 0.0050835 2.54457e-05 0.00442344 1.724e-05 3.67834e-07)
(0.0446876 0.00989266 4.861e-05 0.00509225 2.44536e-05 4.06909e-07)
(0.0508902 0.00975569 2.92634e-05 0.00557234 1.89482e-05 3.49502e-07)
(0.0765603 0.0138744 5.38531e-05 0.00583857 2.61779e-05 3.84705e-07)
(0.0838826 0.0135404 3.45003e-05 0.00602869 2.06288e-05 3.31738e-07)
(0.110374 0.0169331 6.01007e-05 0.00613337 2.71655e-05 3.64687e-07)
(0.118706 0.0165793 4.18599e-05 0.00622714 2.16427e-05 3.16785e-07)
(0.145013 0.0193961 6.81539e-05 0.00628535 2.73474e-05 3.46184e-07)
(0.154193 0.0191281 5.19459e-05 0.00634473 2.19795e-05 3.02688e-07)
(0.179806 0.0215035 7.86062e-05 0.00638989 2.69778e-05 3.27319e-07)
(0.189787 0.0213583 6.48182e-05 0.00642364 2.18313e-05 2.87664e-07)
(0.214238 0.023403 9.14381e-05 0.00648321 2.63023e-05 3.07302e-07)
(0.225048 0.0233776 7.97688e-05 0.0064564 2.12337e-05 2.71786e-07)
(0.247079 0.0252494 0.000106441 0.00661494 2.5475e-05 2.87058e-07)
(0.259912 0.0256915 9.50725e-05 0.00645614 1.99729e-05 2.56438e-07)
(0.274629 0.0266761 0.000124675 0.00665669 2.43508e-05 2.6781e-07)
(0.290538 0.0311987 0.000109099 0.00800115 1.99676e-05 2.41445e-07)
(0.00413281 -0.000788631 2.30195e-05 0.000674119 -1.01357e-05 4.58147e-07)
(0.00465515 -0.000828814 1.54749e-05 0.0036032 -1.39164e-05 3.91692e-07)
(0.0184646 -0.00736864 4.37939e-05 0.00549096 -2.13031e-05 4.38363e-07)
(0.0230686 -0.00765346 2.58244e-05 0.00632168 -1.42898e-05 3.76864e-07)
(0.0460003 -0.0133004 5.02056e-05 0.00671211 -2.24319e-05 4.17751e-07)
(0.0512504 -0.0127892 3.10623e-05 0.00692583 -1.59554e-05 3.58081e-07)
(0.0752472 -0.0171041 5.68943e-05 0.00702082 -2.40631e-05 3.95014e-07)
(0.0803569 -0.0163841 3.85506e-05 0.00707217 -1.80866e-05 3.40379e-07)
(0.103591 -0.0197466 6.50976e-05 0.00706123 -2.54536e-05 3.74977e-07)
(0.108767 -0.0190223 4.83856e-05 0.00705862 -1.98147e-05 3.25739e-07)
(0.130687 -0.0217004 7.51626e-05 0.00702506 -2.62964e-05 3.5654e-07)
(0.136131 -0.0210978 6.06813e-05 0.00701197 -2.0975e-05 3.11887e-07)
(0.156598 -0.0232873 8.71549e-05 0.00698404 -2.66348e-05 3.37658e-07)
(0.162561 -0.0228262 7.4982e-05 0.00696174 -2.1584e-05 2.96991e-07)
(0.181355 -0.0246602 0.000100644 0.00696093 -2.64878e-05 3.17529e-07)
(0.188287 -0.0242681 9.04533e-05 0.00689237 -2.16356e-05 2.81089e-07)
(0.20436 -0.0259141 0.00011535 0.00696294 -2.58123e-05 2.96986e-07)
(0.213836 -0.0255755 0.000105802 0.00682892 -2.12353e-05 2.65483e-07)
(0.223565 -0.0259897 0.000132613 0.00657368 -2.43414e-05 2.78027e-07)
(0.234891 -0.027852 0.00011957 0.00790116 -2.22524e-05 2.50418e-07)
(0.00406025 0.000318322 2.17702e-05 0.000237202 7.29755e-06 4.30807e-07)
(0.00474003 0.00019299 1.40876e-05 0.00125149 1.39564e-05 3.7131e-07)
(0.0193917 0.00284382 4.01155e-05 0.00251304 2.27745e-05 4.15745e-07)
(0.0232894 0.00303082 2.28239e-05 0.00368249 2.06259e-05 3.60412e-07)
(0.0435281 0.00706584 4.67764e-05 0.00451708 2.68131e-05 3.97187e-07)
(0.0450063 0.007041 3.057e-05 0.00511339 2.18444e-05 3.41717e-07)
(0.0626586 0.0106924 5.61519e-05 0.0054531 2.82011e-05 3.74957e-07)
(0.0626111 0.0101987 4.20019e-05 0.00569602 2.27493e-05 3.23687e-07)
(0.077845 0.0131377 6.75167e-05 0.00584748 2.85323e-05 3.55359e-07)
(0.0778311 0.0124822 5.53713e-05 0.00597969 2.28845e-05 3.08988e-07)
(0.0914103 0.0148536 7.99637e-05 0.00607629 2.79635e-05 3.37242e-07)
(0.0921786 0.0142272 6.97235e-05 0.00616562 2.24327e-05 2.94837e-07)
(0.104577 0.0161738 9.27368e-05 0.00624114 2.69842e-05 3.18296e-07)
(0.106338 0.0156858 8.41745e-05 0.00630073 2.17302e-05 2.79491e-07)
(0.117808 0.0173396 0.000105216 0.00637696 2.59606e-05 2.98104e-07)
(0.120411 0.0170146 9.81637e-05 0.00638616 2.07929e-05 2.63365e-07)
(0.131352 0.0185469 0.000117383 0.00655719 2.51369e-05 2.77769e-07)
(0.134202 0.0183909 0.000110883 0.00641802 1.90294e-05 2.47887e-07)
(0.145634 0.0198555 0.000130401 0.00687807 2.42236e-05 2.58064e-07)
(0.146575 0.0219659 0.000118664 0.00823095 1.70997e-05 2.32473e-07)
(0.00451324 -0.00127386 2.48569e-05 0.00122592 -1.24655e-05 4.81333e-07)
(0.00564159 -0.00251238 1.44e-05 0.00635222 -1.41778e-05 3.9939e-07)
(0.0193384 -0.0101337 4.55455e-05 0.00892698 -2.14066e-05 4.50135e-07)
(0.0176975 -0.00761511 3.19577e-05 0.00883896 -1.22069e-05 3.85687e-07)
(0.0275503 -0.0108524 5.97075e-05 0.00844916 -2.16773e-05 4.28535e-07)
(0.024616 -0.00734433 5.15554e-05 0.0080957 -1.49438e-05 3.66628e-07)
(0.0327009 -0.00958891 7.65191e-05 0.00785518 -2.3886e-05 4.05896e-07)
(0.0332841 -0.00681395 7.13452e-05 0.00768739 -1.79428e-05 3.49975e-07)