/*--------------------------------*- C++ -*----------------------------------*\
  =========                 |
  \\      /  F ield         | OpenFOAM: The Open Source CFD Toolbox
   \\    /   O peration     | Website:  https://openfoam.org
    \\  /    A nd           | Version:  7
     \\/     M anipulation  |
\*---------------------------------------------------------------------------*/
FoamFile
{
    version     2.0;
    format      ascii;
    class       volSymmTensorField;
    location    "0.5825";
    object      UPrime2Mean;
}
// * * * * * * * * * * * * * * * * * * * * * * * * * * * * * * * * * * * * * //

dimensions      [0 2 -2 0 0 0 0];

internalField   nonuniform List<symmTensor> 
4950
(
(0.0236852 -0.0080868 -0.00175738 0.0052201 0.00123523 0.000464887)
(0.119101 -0.012496 -0.00687566 0.00165877 0.000874479 0.00101919)
(0.216973 -0.00722266 -0.0100967 0.00030811 0.000455489 0.00142188)
(0.323009 -0.000327336 -0.0122283 1.73346e-05 8.85931e-05 0.00158997)
(0.358047 0.00281634 -0.0132039 4.24714e-05 -5.75159e-05 0.00175204)
(0.414977 0.00411479 -0.0137793 7.12866e-05 -8.78219e-05 0.00174748)
(0.421154 0.00406699 -0.0140777 7.50163e-05 -7.71939e-05 0.00174504)
(0.458169 0.00398034 -0.0141318 7.18177e-05 -4.39342e-05 0.00162397)
(0.45649 0.00337946 -0.0141457 6.3241e-05 -1.7522e-05 0.00154334)
(0.484177 0.00312989 -0.0139827 5.59028e-05 -1.73716e-06 0.00140752)
(0.480099 0.00249403 -0.0138755 4.60572e-05 7.20904e-06 0.00133227)
(0.501525 0.00242029 -0.0136301 4.18657e-05 1.64589e-06 0.0012319)
(0.496905 0.00173169 -0.0134631 3.28382e-05 1.00526e-05 0.0011884)
(0.513246 0.00200837 -0.0131702 3.42629e-05 -1.31798e-05 0.00113479)
(0.509615 0.000967443 -0.0129451 1.97427e-05 1.27257e-05 0.00112079)
(0.521099 0.00191052 -0.0126223 3.33907e-05 -3.79439e-05 0.00111465)
(0.520222 -0.000370395 -0.0123171 6.67551e-06 4.69139e-05 0.00110481)
(0.529294 0.0016289 -0.0121226 3.78115e-05 -6.83781e-05 0.00114943)
(0.51981 -0.00922984 -0.0113756 0.000323871 0.000259965 0.00109358)
(0.587233 -0.000207823 -0.0100199 0.000425865 0.000147247 0.00114513)
(0.0137472 0.00420236 0.000983628 0.00910945 0.0015202 0.000461387)
(0.0160695 0.00211616 0.000887864 0.0085194 0.00221801 0.00144559)
(0.0309544 -0.000188498 0.000728178 0.00628236 0.00243842 0.00259463)
(0.0438504 -0.00452317 -0.00167528 0.00359091 0.00205836 0.00352857)
(0.0675853 -0.00548913 -0.00325425 0.00199992 0.00163186 0.00455543)
(0.0966577 -0.00623746 -0.0056535 0.00120607 0.00122635 0.00528032)
(0.126631 -0.00590312 -0.0071526 0.0007402 0.000859419 0.00586171)
(0.161326 -0.00560157 -0.00911025 0.000482527 0.000566276 0.00597385)
(0.191058 -0.00490082 -0.010169 0.000321563 0.000348871 0.0058687)
(0.224392 -0.00424284 -0.0114783 0.000221972 0.000200259 0.00549433)
(0.250603 -0.00347404 -0.0120029 0.000155882 0.000112167 0.00504473)
(0.27989 -0.00278162 -0.0127838 0.000114975 7.23502e-05 0.00454846)
(0.301785 -0.00202582 -0.0129852 8.23354e-05 4.37082e-05 0.00406043)
(0.326761 -0.00142659 -0.0133434 7.06567e-05 8.28529e-05 0.00365258)
(0.344932 -0.00087591 -0.0132617 4.48772e-05 5.6016e-05 0.00326304)
(0.367312 -0.000203499 -0.0131143 5.67743e-05 0.000151319 0.00307374)
(0.380423 -0.000443422 -0.0127669 2.41233e-05 8.99182e-05 0.00279793)
(0.406452 0.00251836 -0.012216 5.29516e-05 3.54895e-05 0.0028887)
(0.401892 -0.000331085 -0.0115662 8.03445e-05 0.000224809 0.00263149)
(0.435487 0.0123386 -0.00852081 0.0011182 -0.00102084 0.00285559)
(0.0163527 0.00359916 0.00135964 0.00309678 0.000855148 0.000458924)
(0.0305165 0.00687729 0.00341313 0.003499 0.00142547 0.00153712)
(0.07873 0.0120876 0.00805277 0.00363496 0.00198496 0.00286978)
(0.0993167 0.0109356 0.0100389 0.00270952 0.00193514 0.00403384)
(0.138293 0.00966683 0.0133148 0.00189086 0.00175643 0.00536714)
(0.149554 0.00716552 0.0139526 0.00135009 0.00143207 0.00658345)
(0.178423 0.00540152 0.0155853 0.000930433 0.0010714 0.00783078)
(0.188027 0.00363378 0.0146089 0.000655015 0.000710441 0.00868032)
(0.213175 0.00257478 0.0145698 0.000452578 0.000422022 0.00920804)
(0.225136 0.00157372 0.0127186 0.000311702 0.000179475 0.0092523)
(0.249234 0.00110685 0.0122647 0.000215518 3.53137e-05 0.00903468)
(0.264092 0.000569502 0.0106942 0.000144767 -6.33119e-05 0.00856256)
(0.287993 0.000476938 0.010456 0.000103474 -9.89247e-05 0.00795845)
(0.3047 0.000120651 0.00939339 6.69125e-05 -9.38693e-05 0.00725514)
(0.329182 0.000190888 0.00944564 5.36126e-05 -0.000101028 0.00648312)
(0.345419 -3.96483e-06 0.00915362 2.99737e-05 -5.75183e-05 0.00576027)
(0.372985 0.000175442 0.00962555 3.40698e-05 -2.48947e-05 0.00505186)
(0.384647 1.9628e-05 0.0103625 1.73151e-05 -0.000170336 0.00456133)
(0.416228 0.00206716 0.0106657 4.65452e-05 0.000200998 0.00407673)
(0.425668 0.00237057 0.0136917 0.000808888 -0.00109596 0.00399351)
(0.0160529 0.00199025 0.00123896 0.000888223 0.000431677 0.000420239)
(0.0278311 0.00355645 0.00295259 0.00103752 0.000759221 0.0014616)
(0.0828748 0.00753966 0.00797424 0.00115866 0.00109458 0.0027936)
(0.121252 0.00809857 0.0114219 0.000936387 0.00114708 0.00397079)
(0.191623 0.00866006 0.0166557 0.000719071 0.00108965 0.00532898)
(0.231019 0.00798364 0.0196891 0.000572138 0.000956606 0.00661355)
(0.297354 0.00766722 0.0235557 0.000445307 0.000764374 0.00798839)
(0.330768 0.00685512 0.0246143 0.000356074 0.000567823 0.00906775)
(0.389325 0.00642521 0.0260142 0.000278848 0.0003775 0.0098362)
(0.418027 0.00568259 0.0251851 0.000219597 0.000215411 0.0101572)
(0.469039 0.00522693 0.0252566 0.000169531 8.49897e-05 0.0101389)
(0.495116 0.00466424 0.0240952 0.0001307 1.00557e-06 0.0098815)
(0.539235 0.00416005 0.0241018 9.87248e-05 -6.48264e-05 0.00944119)
(0.564808 0.00391789 0.0232757 7.4584e-05 -5.84873e-05 0.00885704)
(0.602581 0.00310459 0.0235422 5.54522e-05 -9.2635e-05 0.00816839)
(0.629322 0.00338038 0.0234025 3.98077e-05 -3.41025e-05 0.00734906)
(0.660605 0.00197291 0.0242636 3.20274e-05 -4.38769e-05 0.00658021)
(0.692071 0.00198169 0.0254672 1.65202e-05 -8.93364e-05 0.00578276)
(0.710265 0.00145146 0.0263914 2.55589e-05 6.44857e-05 0.00514429)
(0.773242 -0.00489523 0.0318788 0.000123853 -0.000659168 0.00484249)
(0.0159871 -3.13879e-08 0.00127762 5.16178e-10 -5.70025e-11 0.000438339)
(0.0270353 7.05317e-09 0.00295054 5.48289e-10 -4.66997e-09 0.0015193)
(0.0830737 -2.65912e-09 0.00828966 4.00231e-10 -8.52949e-09 0.00287235)
(0.124335 -1.69723e-09 0.0119155 1.90525e-10 -1.32334e-08 0.00406399)
(0.199995 -8.53903e-08 0.017774 1.75945e-10 -1.29388e-08 0.00542469)
(0.245432 9.8781e-09 0.0210959 2.30841e-10 -2.50178e-08 0.00671703)
(0.321061 -1.49095e-07 0.0257689 3.10207e-10 -2.9725e-08 0.0081194)
(0.363185 7.8181e-11 0.0271311 3.79941e-10 -1.65287e-08 0.00923458)
(0.434254 5.50581e-08 0.0293393 4.54528e-10 -6.49049e-08 0.0100771)
(0.472373 8.36748e-07 0.0286717 5.27769e-10 5.06763e-08 0.0104368)
(0.537209 5.31288e-07 0.0293959 6.08708e-10 -1.80586e-07 0.0105041)
(0.571113 2.51343e-06 0.0282135 6.84927e-10 2.85256e-07 0.010266)
(0.6299 1.92413e-06 0.0287762 8.20478e-10 -4.26403e-07 0.00990903)
(0.659151 1.16371e-05 0.0278333 1.14934e-09 6.81283e-07 0.0093416)
(0.714304 1.62724e-06 0.0286962 1.51514e-09 -5.85951e-07 0.00872283)
(0.736065 3.96143e-05 0.0282668 4.52736e-09 8.71365e-07 0.00789195)
(0.792079 -4.76251e-06 0.0299242 3.91933e-09 2.805e-07 0.00714217)
(0.802299 9.33209e-05 0.0306856 2.60803e-08 -3.39877e-07 0.00629189)
(0.853022 -1.42045e-05 0.0327733 1.43476e-08 1.97285e-06 0.00559579)
(0.865052 7.34608e-05 0.0380114 4.92995e-08 -6.73821e-07 0.0053116)
(0.0160529 -0.00199031 0.00123897 0.000888214 -0.000431682 0.00042024)
(0.0278311 -0.00355638 0.00295256 0.00103751 -0.000759217 0.00146162)
(0.0828748 -0.00753965 0.00797433 0.00115866 -0.00109462 0.00279356)
(0.121253 -0.00809855 0.0114217 0.000936389 -0.00114707 0.00397089)
(0.191623 -0.00866025 0.0166561 0.000719069 -0.00108972 0.00532884)
(0.231019 -0.00798368 0.0196884 0.000572127 -0.000956571 0.00661366)
(0.297354 -0.00766747 0.023557 0.000445295 -0.000764522 0.00798847)
(0.330769 -0.00685538 0.0246121 0.000356045 -0.000567698 0.00906715)
(0.389324 -0.00642493 0.026018 0.000278799 -0.000377732 0.00983789)
(0.41803 -0.00568199 0.0251791 0.000219556 -0.000215246 0.010154)
(0.469038 -0.00522529 0.0252662 0.0001694 -8.52076e-05 0.0101443)
(0.495124 -0.00466301 0.0240803 0.00013061 -8.92653e-07 0.00987411)
(0.539235 -0.00415454 0.0241249 9.8468e-05 6.47376e-05 0.00945009)
(0.564828 -0.00390977 0.0232409 7.43443e-05 5.86103e-05 0.00884849)
(0.602592 -0.0030927 0.023594 5.51034e-05 9.28342e-05 0.00817492)
(0.629368 -0.00335355 0.0233296 3.92321e-05 3.49598e-05 0.00734726)
(0.660658 -0.00195218 0.024359 3.15934e-05 4.56237e-05 0.00657597)
(0.692158 -0.00191248 0.0253571 1.60552e-05 9.26587e-05 0.00579574)
(0.710411 -0.00137987 0.0265064 2.48087e-05 -5.78067e-05 0.00512125)
(0.773387 0.00500001 0.0318215 0.000126275 0.000662733 0.00488194)
(0.0163528 -0.00359922 0.00135965 0.00309677 -0.000855158 0.000458926)
(0.0305166 -0.00687726 0.00341308 0.00349901 -0.00142545 0.00153713)
(0.07873 -0.0120876 0.00805288 0.00363496 -0.00198502 0.00286974)
(0.0993167 -0.0109356 0.0100387 0.00270952 -0.00193508 0.00403397)
(0.138294 -0.00966699 0.0133152 0.00189086 -0.00175656 0.00536693)
(0.149554 -0.00716559 0.0139519 0.00135007 -0.00143194 0.0065837)
(0.178423 -0.00540176 0.0155864 0.000930425 -0.00107168 0.00783078)
(0.188027 -0.00363409 0.0146073 0.000654963 -0.000710144 0.00867968)
(0.213175 -0.00257481 0.0145725 0.000452548 -0.000422505 0.00921061)
(0.225138 -0.00157345 0.0127144 0.000311618 -0.000179035 0.0092471)
(0.249233 -0.00110672 0.0122725 0.000215435 -3.58769e-05 0.00904471)
(0.2641 -0.000568869 0.0106798 0.000144649 6.38855e-05 0.00854762)
(0.287991 -0.000476835 0.0104844 0.000103299 9.8153e-05 0.0079794)
(0.304723 -0.000113843 0.00934081 6.67163e-05 9.52132e-05 0.0072306)
(0.329172 -0.000195545 0.00954295 5.34138e-05 9.95759e-05 0.00651014)
(0.345481 3.02761e-05 0.00899186 2.95965e-05 6.1047e-05 0.0057353)
(0.372969 -0.000201078 0.00988838 3.3895e-05 2.33132e-05 0.00507235)
(0.384788 5.077e-05 0.00999174 1.73111e-05 0.00017522 0.00454996)
(0.416259 -0.00212832 0.011181 4.61784e-05 -0.000201497 0.00407147)
(0.425957 -0.00225176 0.0131179 0.000800973 0.00110169 0.0040299)
(0.0137473 -0.00420242 0.000983634 0.00910941 -0.0015202 0.000461388)
(0.0160696 -0.0021161 0.000887852 0.00851939 -0.00221799 0.00144561)
(0.0309544 0.000188443 0.00072815 0.00628235 -0.00243846 0.00259465)
(0.0438504 0.00452315 -0.00167526 0.00359091 -0.00205832 0.00352866)
(0.0675855 0.00548893 -0.00325457 0.00199991 -0.00163194 0.00455535)
(0.0966576 0.00623739 -0.00565295 0.00120607 -0.00122626 0.00528061)
(0.126631 0.00590282 -0.00715402 0.000740183 -0.000859582 0.00586168)
(0.161325 0.00560125 -0.00910755 0.000482524 -0.000566087 0.00597409)
(0.191057 0.00490031 -0.0101744 0.000321525 -0.000349141 0.00586979)
(0.224389 0.00424278 -0.011469 0.00022197 -0.000199973 0.00549237)
(0.250602 0.00347261 -0.0120188 0.000155812 -0.000112428 0.00505027)
(0.279878 0.00278077 -0.0127597 0.000114952 -7.21039e-05 0.00453931)
(0.301779 0.00202288 -0.0130195 8.22256e-05 -4.37846e-05 0.00407683)
(0.326728 0.00142423 -0.0133002 7.05648e-05 -8.24067e-05 0.00362803)
(0.344901 0.000870534 -0.0133074 4.47389e-05 -5.63795e-05 0.00330021)
(0.367249 0.000194722 -0.0130841 5.65523e-05 -0.000148405 0.00302213)
(0.380303 0.000436539 -0.0127537 2.39949e-05 -9.16545e-05 0.00286593)
(0.406351 -0.00252085 -0.0123445 5.26263e-05 -2.81114e-05 0.00280824)
(0.401539 0.000307569 -0.0112983 8.01051e-05 -0.000230673 0.00269595)
(0.435444 -0.0122691 -0.00920508 0.00110908 0.000967807 0.00286076)
(0.0236853 0.00808672 -0.00175731 0.00522007 -0.00123519 0.000464884)
(0.119101 0.0124961 -0.00687557 0.00165876 -0.000874463 0.00101922)
(0.216974 0.0072226 -0.0100967 0.000308108 -0.000455493 0.00142193)
(0.32301 0.000327487 -0.0122286 1.73332e-05 -8.86056e-05 0.00159008)
(0.358047 -0.00281634 -0.0132046 4.24685e-05 5.7509e-05 0.00175216)
(0.414977 -0.00411467 -0.0137796 7.12846e-05 8.78014e-05 0.00174768)
(0.421154 -0.00406695 -0.014079 7.50119e-05 7.71925e-05 0.0017452)
(0.458169 -0.00398041 -0.0141315 7.18183e-05 4.38961e-05 0.00162422)
(0.456489 -0.0033793 -0.0141482 6.3234e-05 1.75347e-05 0.00154354)
(0.484175 -0.00312997 -0.01398 5.59067e-05 1.67895e-06 0.00140762)
(0.480097 -0.00249343 -0.013882 4.60441e-05 -7.19514e-06 0.00133278)
(0.501515 -0.00242104 -0.0136207 4.18698e-05 -1.68284e-06 0.00123131)
(0.496899 -0.00173014 -0.0134803 3.28247e-05 -1.01013e-05 0.00119021)
(0.513221 -0.00200932 -0.0131434 3.4258e-05 1.32166e-05 0.00113167)
(0.509588 -0.000963141 -0.0129894 1.97358e-05 -1.30521e-05 0.00112714)
(0.521046 -0.00191333 -0.0125547 3.33962e-05 3.80018e-05 0.00110348)
(0.520122 0.000375444 -0.012422 6.73127e-06 -4.81077e-05 0.00112457)
(0.5292 -0.00163883 -0.011982 3.78721e-05 6.72685e-05 0.00111737)
(0.51957 0.00920606 -0.0114711 0.000323046 -0.000266682 0.00113877)
(0.587023 0.000170901 -0.0104711 0.000422196 -0.000108804 0.00109742)
(0.0127541 0.00042823 6.28675e-05 0.00173614 1.61841e-05 1.21213e-06)
(0.0490847 -0.0104706 -1.42271e-05 0.00326693 1.30698e-05 9.50332e-07)
(0.117872 -0.0164832 2.15658e-05 0.00309389 1.21098e-05 1.09199e-06)
(0.283133 -0.0189083 5.06757e-05 0.00149732 8.33814e-07 9.26015e-07)
(0.354614 -0.0138809 5.96808e-05 0.000668632 2.85889e-06 1.0437e-06)
(0.503273 -0.0102426 0.00010751 0.00026156 8.73323e-07 8.82801e-07)
(0.517461 -0.00675379 8.52459e-05 0.000127643 2.95836e-06 9.8323e-07)
(0.6212 -0.00535483 0.000130272 7.56333e-05 2.4192e-06 8.3119e-07)
(0.606873 -0.00409199 9.62421e-05 5.76911e-05 3.58582e-06 9.22163e-07)
(0.684323 -0.00388415 0.000140488 5.0453e-05 2.99756e-06 7.84087e-07)
(0.662054 -0.00323302 0.000103185 4.48109e-05 3.66032e-06 8.64501e-07)
(0.723543 -0.00336552 0.000147849 4.48516e-05 3.14587e-06 7.39433e-07)
(0.70077 -0.00257978 0.000109837 3.69822e-05 3.48789e-06 8.06456e-07)
(0.750727 -0.00303472 0.000155447 4.5563e-05 3.48256e-06 6.92601e-07)
(0.730164 -0.00165666 0.000117664 2.62202e-05 2.87329e-06 7.46027e-07)
(0.770975 -0.00290326 0.000165892 6.01192e-05 4.40308e-06 6.43153e-07)
(0.752469 -3.96346e-05 0.000126664 1.42972e-05 -2.89568e-09 6.84999e-07)
(0.783981 -0.00159164 0.000186134 0.000101933 6.26773e-06 5.92522e-07)
(0.757259 0.0112213 0.000128766 0.000596253 -8.38624e-06 6.29317e-07)
(0.726377 0.0211488 0.000238361 0.00141525 -6.75695e-06 5.27798e-07)
(0.0154532 0.00182147 5.77464e-05 0.000963235 5.9163e-06 9.03394e-07)
(0.0157937 0.00185606 2.63799e-05 0.00390792 -4.28715e-07 7.43649e-07)
(0.0393791 0.0065622 0.000101505 0.0052124 -6.31851e-06 8.3772e-07)
(0.0373272 0.00142265 8.22424e-05 0.00424358 -1.85373e-05 7.16507e-07)
(0.0556928 0.000358574 0.00014203 0.00276011 -1.47671e-05 7.92721e-07)
(0.0654027 -0.00295355 0.00013636 0.00153304 -1.49426e-05 6.71958e-07)
(0.0871948 -0.00331563 0.00018403 0.000827407 -1.08957e-05 7.35962e-07)
(0.11168 -0.00378952 0.000183283 0.000443221 -9.20706e-06 6.21541e-07)
(0.136643 -0.0033167 0.000219985 0.000241596 -6.81524e-06 6.80731e-07)
(0.168322 -0.00291378 0.00022038 0.000137245 -5.31962e-06 5.77572e-07)
(0.192646 -0.00234291 0.000247851 7.81605e-05 -3.9713e-06 6.3055e-07)
(0.225243 -0.00188641 0.000247776 4.90913e-05 -3.01152e-06 5.37618e-07)
(0.246844 -0.00146039 0.000267332 3.09294e-05 -2.25005e-06 5.80697e-07)
(0.277261 -0.00119964 0.000266581 2.53473e-05 -1.92506e-06 4.968e-07)
(0.29604 -0.000928731 0.000280083 1.48946e-05 -1.21915e-06 5.28839e-07)
(0.32379 -0.000583693 0.00027956 2.48298e-05 -1.34487e-06 4.55103e-07)
(0.339917 -0.000840254 0.000289107 9.43496e-06 -4.62244e-07 4.76425e-07)
(0.366861 0.00159256 0.000289255 4.22575e-05 8.2968e-07 4.14726e-07)
(0.377199 -0.000219371 0.000295966 5.91488e-05 -1.99116e-07 4.25579e-07)
(0.422165 0.0117538 0.000301961 0.00101422 1.23587e-05 3.76956e-07)
(0.0136559 0.0005771 6.10639e-05 0.000152948 4.45568e-06 1.11444e-06)
(0.0164461 0.00166835 3.5673e-05 0.00170889 7.53092e-06 9.23261e-07)
(0.0585485 0.0098783 0.000129267 0.00335079 5.95148e-06 1.04633e-06)
(0.0705283 0.0103908 7.77809e-05 0.00331391 -6.64181e-06 8.83472e-07)
(0.128569 0.0134582 0.000151296 0.00277991 -5.15764e-06 9.97084e-07)
(0.133426 0.0105549 0.000100454 0.00201817 -9.76274e-06 8.41368e-07)
(0.181669 0.010005 0.000174082 0.00147808 -6.6192e-06 9.39794e-07)
(0.180066 0.00744852 0.000131325 0.00107129 -7.81067e-06 7.92868e-07)
(0.219941 0.0066772 0.000202549 0.000789624 -4.92974e-06 8.82334e-07)
(0.218912 0.00514814 0.000166121 0.000590094 -4.94234e-06 7.47914e-07)
(0.254743 0.00464567 0.000232431 0.000434779 -2.59963e-06 8.27401e-07)
(0.257322 0.00385662 0.000201096 0.000328347 -2.2356e-06 7.04958e-07)
(0.290347 0.00348234 0.000261199 0.000239164 -5.6519e-07 7.71801e-07)
(0.297428 0.00326085 0.000234278 0.000177677 -7.37828e-09 6.59592e-07)
(0.326989 0.00261089 0.000287429 0.000133116 4.35536e-07 7.13539e-07)
(0.33996 0.00316936 0.000265432 8.93465e-05 1.85943e-06 6.11138e-07)
(0.363842 0.00114947 0.000311439 8.35598e-05 -7.79419e-07 6.55291e-07)
(0.385944 0.00304426 0.00029569 5.72656e-05 3.87237e-06 5.61925e-07)
(0.402898 -0.00317424 0.000341166 0.000191609 -5.52068e-06 6.05725e-07)
(0.435958 -0.00419242 0.000323506 0.000359249 2.05777e-06 5.16704e-07)
(0.0128785 0.00026573 4.80211e-05 6.48114e-05 1.67051e-06 8.74776e-07)
(0.0148929 0.000157237 2.67187e-05 0.000362611 3.31793e-07 7.43481e-07)
(0.0494695 0.00346069 9.78171e-05 0.000642493 -1.78944e-06 8.29251e-07)
(0.065775 0.00432896 5.28279e-05 0.000696154 -6.90377e-06 7.07891e-07)
(0.135107 0.006275 0.000107189 0.000616917 -6.18195e-06 7.83048e-07)
(0.157367 0.00570886 5.29443e-05 0.00047685 -7.62884e-06 6.63997e-07)
(0.231258 0.00573916 0.000111604 0.000364698 -6.16387e-06 7.27513e-07)
(0.249335 0.00488977 5.92339e-05 0.00027627 -6.27565e-06 6.14427e-07)
(0.317339 0.00454474 0.000121254 0.00021215 -5.01549e-06 6.72156e-07)
(0.331974 0.00391681 7.31021e-05 0.000164972 -4.73525e-06 5.69723e-07)
(0.39335 0.00357509 0.000135986 0.000127081 -3.65805e-06 6.2166e-07)
(0.406033 0.00308025 9.30576e-05 9.8722e-05 -3.25007e-06 5.29698e-07)
(0.461745 0.00278203 0.000155056 7.56648e-05 -2.34439e-06 5.72578e-07)
(0.472966 0.00230829 0.000117497 5.64146e-05 -1.99627e-06 4.89773e-07)
(0.52487 0.00208872 0.000177472 4.4778e-05 -1.24537e-06 5.21729e-07)
(0.533189 0.00153462 0.000143788 2.76382e-05 -9.248e-07 4.48836e-07)
(0.584346 0.00122475 0.000202568 2.57991e-05 -4.88507e-07 4.69589e-07)
(0.584623 0.00056757 0.000165838 1.10068e-05 7.04878e-07 4.09168e-07)
(0.637078 -0.000678228 0.000229504 1.93403e-05 -5.71368e-08 4.15326e-07)
(0.608985 -0.000985818 0.000172867 0.000137608 4.67366e-06 3.71421e-07)
(0.0134166 -7.14409e-09 5.93704e-05 3.8068e-10 -1.63107e-11 1.10088e-06)
(0.0154078 1.08957e-08 3.53129e-05 3.06297e-10 -1.82437e-11 9.28505e-07)
(0.0530271 1.45427e-08 0.000128673 2.33446e-10 1.90552e-11 1.04731e-06)
(0.0690555 1.26348e-08 7.84577e-05 1.57484e-10 6.75553e-12 8.83885e-07)
(0.140759 9.08661e-09 0.000149123 1.74346e-10 7.05928e-11 9.97163e-07)
(0.165245 8.97229e-08 8.86659e-05 2.32967e-10 -3.46696e-11 8.415e-07)
(0.244794 3.70204e-08 0.000159886 3.16405e-10 2.80579e-11 9.40118e-07)
(0.267691 2.56491e-08 0.000101535 3.88641e-10 8.79512e-12 7.93254e-07)
(0.343457 3.23547e-07 0.000174192 4.73033e-10 -6.57675e-11 8.82285e-07)
(0.36436 5.11056e-07 0.000120377 5.41834e-10 -7.60501e-11 7.47615e-07)
(0.434333 8.77621e-07 0.000192656 6.32281e-10 -3.43554e-10 8.26753e-07)
(0.454288 8.37764e-07 0.00014475 7.06438e-10 8.2204e-11 7.04237e-07)
(0.51763 2.83636e-06 0.000215386 8.57702e-10 -6.99439e-10 7.71127e-07)
(0.53767 3.47143e-06 0.000174288 1.00903e-09 -2.89974e-10 6.58985e-07)
(0.59308 7.59699e-06 0.000242177 1.36192e-09 -9.80728e-10 7.13206e-07)
(0.614716 7.2487e-06 0.000207985 1.72757e-09 -1.05859e-09 6.10835e-07)
(0.659259 1.98302e-05 0.000273268 3.03034e-09 -2.18133e-09 6.5571e-07)
(0.683711 1.70648e-05 0.000243732 3.92605e-09 -9.00731e-10 5.62151e-07)
(0.714348 5.68928e-05 0.000318189 1.64409e-08 -8.66797e-10 6.07529e-07)
(0.732775 7.1053e-05 0.000282432 2.34368e-08 1.92432e-08 5.17937e-07)
(0.0128785 -0.000265756 4.8022e-05 6.48109e-05 -1.6705e-06 8.74775e-07)
(0.0148929 -0.000157203 2.67191e-05 0.000362613 -3.31878e-07 7.43481e-07)
(0.0494696 -0.00346064 9.7818e-05 0.000642497 1.78951e-06 8.29252e-07)
(0.065775 -0.00432893 5.28297e-05 0.00069615 6.9037e-06 7.07892e-07)
(0.135107 -0.006275 0.000107191 0.000616923 6.1821e-06 7.83049e-07)
(0.157367 -0.00570866 5.29464e-05 0.000476834 7.62862e-06 6.63998e-07)
(0.231258 -0.00573918 0.000111605 0.000364709 6.16407e-06 7.27513e-07)
(0.249335 -0.00488956 5.92354e-05 0.000276228 6.27523e-06 6.14428e-07)
(0.317338 -0.00454449 0.000121255 0.000212148 5.0157e-06 6.72157e-07)
(0.331976 -0.00391502 7.31024e-05 0.000164894 4.73439e-06 5.69724e-07)
(0.393349 -0.00357471 0.000135987 0.00012703 3.65795e-06 6.2166e-07)
(0.406039 -0.00307576 9.30576e-05 9.85826e-05 3.24864e-06 5.297e-07)
(0.461743 -0.00278097 0.000155057 7.55082e-05 2.34264e-06 5.72576e-07)
(0.472981 -0.00229083 0.000117499 5.61576e-05 1.99401e-06 4.89778e-07)
(0.52487 -0.00208818 0.000177465 4.44473e-05 1.23685e-06 5.21722e-07)
(0.533228 -0.00148587 0.000143782 2.72419e-05 9.27964e-07 4.48845e-07)
(0.584366 -0.00122797 0.000202551 2.51681e-05 4.58874e-07 4.69576e-07)
(0.584725 -0.000448751 0.000165829 1.03862e-05 -6.74706e-07 4.09172e-07)
(0.637194 0.000652227 0.000229525 1.86338e-05 -1.85224e-08 4.15356e-07)
(0.609249 0.00115864 0.000172857 0.000134363 -4.60674e-06 3.71462e-07)
(0.0136559 -0.000577115 6.10653e-05 0.000152949 -4.45573e-06 1.11443e-06)
(0.0164461 -0.00166833 3.56727e-05 0.0017089 -7.53095e-06 9.23261e-07)
(0.0585485 -0.00987826 0.00012927 0.0033508 -5.95144e-06 1.04634e-06)
(0.0705283 -0.0103908 7.77857e-05 0.00331391 6.64186e-06 8.83476e-07)
(0.128569 -0.0134582 0.000151303 0.00277991 5.1578e-06 9.97088e-07)
(0.133426 -0.0105547 0.000100461 0.00201816 9.76275e-06 8.4137e-07)
(0.181669 -0.0100048 0.000174088 0.00147806 6.61931e-06 9.39798e-07)
(0.180066 -0.00744857 0.000131332 0.00107126 7.81072e-06 7.92869e-07)
(0.219941 -0.0066767 0.000202555 0.000789555 4.92971e-06 8.82336e-07)
(0.218914 -0.00514763 0.000166124 0.000590045 4.94217e-06 7.47913e-07)
(0.254743 -0.00464474 0.000232438 0.000434615 2.59911e-06 8.27404e-07)
(0.257328 -0.00385608 0.000201104 0.000328194 2.23558e-06 7.04958e-07)
(0.290347 -0.00347974 0.0002612 0.000238873 5.63949e-07 7.71796e-07)
(0.297445 -0.00325709 0.000234277 0.000177303 6.41115e-09 6.59603e-07)
(0.326993 -0.00260416 0.000287416 0.000132587 -4.37112e-07 7.13517e-07)
(0.340008 -0.0031617 0.000265463 8.87807e-05 -1.86173e-06 6.11179e-07)
(0.363857 -0.00113244 0.000311409 8.25211e-05 7.77802e-07 6.55227e-07)
(0.386051 -0.00302537 0.000295732 5.67507e-05 -3.86533e-06 5.62049e-07)
(0.402951 0.00321133 0.000341073 0.000192586 5.52329e-06 6.05589e-07)
(0.436135 0.00423755 0.000323532 0.000359401 -1.9975e-06 5.16903e-07)
(0.0154533 -0.00182147 5.77484e-05 0.000963238 -5.91635e-06 9.03392e-07)
(0.0157937 -0.00185604 2.63808e-05 0.00390793 4.28637e-07 7.43648e-07)
(0.0393792 -0.00656218 0.000101507 0.00521241 6.31845e-06 8.37721e-07)
(0.0373272 -0.00142263 8.2248e-05 0.00424358 1.85373e-05 7.1651e-07)
(0.0556929 -0.000358537 0.000142037 0.00276012 1.47672e-05 7.92724e-07)
(0.0654026 0.00295361 0.000136367 0.00153303 1.49426e-05 6.7196e-07)
(0.0871948 0.00331569 0.000184036 0.00082741 1.08958e-05 7.35965e-07)
(0.111679 0.0037893 0.000183288 0.000443196 9.20684e-06 6.21542e-07)
(0.136644 0.00331686 0.000219991 0.000241592 6.81541e-06 6.80733e-07)
(0.168318 0.00291353 0.00022038 0.000137208 5.31904e-06 5.77571e-07)
(0.192647 0.00234297 0.000247859 7.81429e-05 3.97155e-06 6.30556e-07)
(0.225231 0.00188474 0.000247775 4.90523e-05 3.01024e-06 5.37614e-07)
(0.246844 0.00146054 0.000267341 3.08908e-05 2.25018e-06 5.80701e-07)
(0.277236 0.00119698 0.000266575 2.53369e-05 1.9236e-06 4.96798e-07)
(0.296013 0.000927125 0.000280075 1.48514e-05 1.21638e-06 5.28828e-07)
(0.323753 0.000580286 0.000279562 2.49744e-05 1.34826e-06 4.55127e-07)
(0.339793 0.000824714 0.000289036 9.29331e-06 4.42583e-07 4.76358e-07)
(0.366812 -0.00157487 0.000289323 4.23447e-05 -7.97348e-07 4.14824e-07)
(0.376882 0.000167663 0.000295783 5.7632e-05 1.39075e-07 4.25458e-07)
(0.421969 -0.0116833 0.000302098 0.00100446 -1.22636e-05 3.77156e-07)
(0.0127541 -0.000428236 6.28697e-05 0.00173613 -1.6184e-05 1.21212e-06)
(0.0490847 0.0104706 -1.42257e-05 0.00326693 -1.30699e-05 9.50329e-07)
(0.117872 0.0164833 2.15704e-05 0.00309389 -1.21099e-05 1.09199e-06)
(0.283133 0.0189083 5.06863e-05 0.00149732 -8.33925e-07 9.26021e-07)
(0.354613 0.0138809 5.96932e-05 0.00066863 -2.85895e-06 1.04371e-06)
(0.503272 0.0102427 0.000107523 0.000261564 -8.73322e-07 8.82804e-07)
(0.517461 0.0067537 8.52562e-05 0.000127638 -2.9584e-06 9.83232e-07)
(0.621199 0.00535499 0.000130283 7.56371e-05 -2.41917e-06 8.31189e-07)
(0.606871 0.00409162 9.62505e-05 5.76852e-05 -3.58606e-06 9.22162e-07)
(0.684318 0.00388449 0.000140492 5.0452e-05 -2.99708e-06 7.84083e-07)
(0.662049 0.0032316 0.000103196 4.47955e-05 -3.66081e-06 8.64502e-07)
(0.723527 0.00336624 0.000147852 4.48586e-05 -3.14552e-06 7.39422e-07)
(0.700754 0.00257589 0.000109854 3.69485e-05 -3.4888e-06 8.06457e-07)
(0.750687 0.00303483 0.000155423 4.55643e-05 -3.4827e-06 6.92585e-07)
(0.730104 0.00164766 0.000117701 2.61438e-05 -2.87343e-06 7.46028e-07)
(0.770892 0.00290278 0.000165831 6.01137e-05 -4.40282e-06 6.43154e-07)
(0.752274 2.49477e-05 0.000126761 1.4128e-05 7.53638e-09 6.84936e-07)
(0.783847 0.00160091 0.000185993 0.000101893 -6.26816e-06 5.92704e-07)
(0.756746 -0.01121 0.000128932 0.000595308 8.38585e-06 6.28801e-07)
(0.72664 -0.0209591 0.000238353 0.00139863 6.76459e-06 5.28914e-07)
(0.0120117 0.000338073 4.92515e-10 0.000348909 2.74249e-10 3.65506e-15)
(0.0226864 -0.00340315 -7.35178e-10 0.00157652 6.61757e-10 1.58845e-15)
(0.0554884 -0.00808807 -1.36949e-09 0.00231001 8.22461e-10 4.67865e-15)
(0.143304 -0.0150774 -5.01067e-09 0.00218077 7.79306e-10 2.66966e-15)
(0.236462 -0.0172836 -5.404e-09 0.00162634 6.11898e-10 5.59221e-15)
(0.392504 -0.0178084 -6.95299e-09 0.00102046 4.15441e-10 4.20342e-15)
(0.501739 -0.0145327 -5.52632e-09 0.000540241 2.49394e-10 8.46493e-15)
(0.652326 -0.0107729 -5.56903e-09 0.000243484 1.47344e-10 7.68604e-15)
(0.724929 -0.00653171 -4.91725e-09 8.98529e-05 9.10087e-11 8.22134e-15)
(0.832596 -0.00343286 -4.80496e-09 2.79059e-05 6.55008e-11 7.58051e-15)
(0.864078 -0.00113803 -4.61058e-09 8.63862e-06 4.36385e-11 6.53867e-15)
(0.935986 -0.000144956 -4.25219e-09 6.78986e-06 3.29684e-11 6.86624e-15)
(0.945948 0.000587233 -4.01975e-09 8.0212e-06 1.25169e-11 6.66914e-15)
(0.997642 0.000202915 -3.37917e-09 8.85695e-06 1.607e-11 7.80234e-15)
(1.00299 0.00058055 -3.19363e-09 7.43781e-06 -8.07209e-12 7.60871e-15)
(1.04198 -0.000287727 -2.41588e-09 8.20593e-06 2.19029e-11 8.39508e-15)
(1.05021 2.98243e-05 -2.42967e-09 8.46337e-06 -2.28331e-11 8.34424e-15)
(1.08248 0.00124553 -7.16116e-10 1.18579e-05 1.95314e-11 1.09671e-14)
(1.07379 -0.000656114 -5.59982e-11 3.71983e-05 -3.00204e-11 1.13078e-14)
(1.13 0.0224641 9.05078e-10 0.000569873 -2.29991e-10 9.26873e-15)
(0.0127716 0.0004525 5.69402e-10 0.000200521 1.95288e-10 3.08584e-15)
(0.0155655 0.000816664 1.19794e-09 0.00111002 5.4741e-10 1.42953e-15)
(0.0380451 0.00435948 2.97249e-09 0.0023227 8.20786e-10 3.7153e-15)
(0.0439979 0.00442522 2.50478e-09 0.00321682 9.32266e-10 2.34842e-15)
(0.0671699 0.00574853 4.27833e-09 0.00348274 8.62514e-10 4.67043e-15)
(0.07142 0.00305241 4.5582e-09 0.00310278 6.77752e-10 3.97879e-15)
(0.091977 0.00201776 6.72893e-09 0.00243573 4.82971e-10 7.39338e-15)
(0.100975 -0.00040433 7.34023e-09 0.00169791 3.27495e-10 7.3698e-15)
(0.124292 -0.000906852 8.35433e-09 0.00111995 2.35455e-10 7.80111e-15)
(0.141517 -0.00168561 8.768e-09 0.000687617 1.75562e-10 7.63723e-15)
(0.168346 -0.0014102 9.23519e-09 0.000420407 1.47684e-10 6.6378e-15)
(0.191235 -0.00139218 9.71266e-09 0.000245329 1.22633e-10 7.177e-15)
(0.219123 -0.000959354 1.01145e-08 0.000150857 1.12511e-10 6.85007e-15)
(0.244175 -0.000732587 1.07104e-08 8.56761e-05 1.02819e-10 7.98744e-15)
(0.271056 -0.000597554 1.10663e-08 5.9966e-05 7.91063e-11 7.74901e-15)
(0.29683 0.000256232 1.16716e-08 3.35847e-05 1.05254e-10 8.58442e-15)
(0.321017 -0.000908347 1.19252e-08 3.29842e-05 2.78078e-11 8.48863e-15)
(0.349295 0.0025854 1.32398e-08 5.98658e-05 1.31869e-10 1.11512e-14)
(0.367827 -0.001238 1.44991e-08 3.41631e-05 9.71009e-12 1.13102e-14)
(0.40145 0.00920497 1.48103e-08 0.000566789 1.12327e-10 9.31329e-15)
(0.0126056 0.000165344 4.17623e-10 3.72487e-05 8.67614e-11 2.36705e-15)
(0.0152579 0.000310237 1.0727e-09 0.000329869 2.97433e-10 1.28721e-15)
(0.0382645 0.00266658 2.91242e-09 0.000875494 5.02733e-10 3.17513e-15)
(0.0501836 0.00407116 3.18075e-09 0.00140683 6.1635e-10 2.266e-15)
(0.0905277 0.00717726 5.48444e-09 0.00171075 6.07095e-10 3.9056e-15)
(0.109641 0.00776834 6.59396e-09 0.00171898 5.14188e-10 3.63594e-15)
(0.156825 0.00886412 9.19129e-09 0.00150306 3.98129e-10 6.28408e-15)
(0.17418 0.00798362 1.03932e-08 0.00119969 3.03286e-10 6.74405e-15)
(0.217805 0.00759302 1.17668e-08 0.000898462 2.36077e-10 7.03315e-15)
(0.230932 0.00638449 1.25658e-08 0.000654441 1.90935e-10 7.31106e-15)
(0.268978 0.005635 1.32728e-08 0.000465159 1.56335e-10 6.42149e-15)
(0.280174 0.00472751 1.39765e-08 0.000335588 1.35701e-10 7.14046e-15)
(0.313903 0.00398211 1.45747e-08 0.000239051 1.13942e-10 6.77228e-15)
(0.325644 0.00355299 1.53808e-08 0.000174039 1.16561e-10 7.95074e-15)
(0.356436 0.00262723 1.58992e-08 0.000131412 8.10858e-11 7.51592e-15)
(0.369799 0.00294249 1.66001e-08 8.79903e-05 1.17219e-10 8.35481e-15)
(0.399535 0.00111747 1.71584e-08 8.64226e-05 3.07862e-11 8.43374e-15)
(0.413517 0.00261309 1.83217e-08 4.29496e-05 1.27685e-10 1.13002e-14)
(0.446276 -0.000667713 2.01217e-08 7.32672e-05 -1.66402e-11 1.15241e-14)
(0.460042 0.000278133 1.98583e-08 0.00016691 6.07547e-11 9.26814e-15)
(0.0125756 0.000122702 5.86557e-10 1.80696e-05 5.94752e-11 1.38256e-15)