/*--------------------------------*- C++ -*----------------------------------*\
  =========                 |
  \\      /  F ield         | OpenFOAM: The Open Source CFD Toolbox
   \\    /   O peration     | Website:  https://openfoam.org
    \\  /    A nd           | Version:  7
     \\/     M anipulation  |
\*---------------------------------------------------------------------------*/
FoamFile
{
    version     2.0;
    format      ascii;
    class       volVectorField;
    location    "0.025";
    object      U_0;
}
// * * * * * * * * * * * * * * * * * * * * * * * * * * * * * * * * * * * * * //

dimensions      [0 1 -1 0 0 0 0];

internalField   nonuniform List<vector> 
1440
(
(24.6542 0.0672144 0)
(24.4538 0.261294 0)
(24.0518 0.443855 0)
(23.4739 0.591722 0)
(22.7652 0.69958 0)
(21.9664 0.766026 0)
(21.1108 0.794184 0)
(20.2241 0.789718 0)
(19.3304 0.760561 0)
(18.4455 0.712697 0)
(17.5881 0.653028 0)
(16.7639 0.58774 0)
(15.9813 0.519023 0)
(15.2455 0.450267 0)
(14.5587 0.384127 0)
(13.9217 0.322188 0)
(13.3342 0.265398 0)
(12.7954 0.214227 0)
(12.3034 0.168796 0)
(11.8562 0.128994 0)
(11.451 0.0945444 0)
(11.0851 0.06506 0)
(10.7556 0.0401012 0)
(10.4596 0.0192104 0)
(10.1942 0.00193738 0)
(9.95662 -0.0121467 0)
(9.74413 -0.02344 0)
(9.55418 -0.0323018 0)
(9.38443 -0.0390341 0)
(9.23255 -0.0439145 0)
(9.09668 -0.0471262 0)
(8.97512 -0.048884 0)
(8.86596 -0.0497615 0)
(8.76759 -0.0501784 0)
(8.67856 -0.050233 0)
(8.59757 -0.0499008 0)
(8.52354 -0.0491876 0)
(8.45549 -0.0481455 0)
(8.39263 -0.0468531 0)
(8.33429 -0.0453924 0)
(8.27988 -0.0438426 0)
(8.22899 -0.0422807 0)
(8.18125 -0.0407765 0)
(8.1364 -0.0393823 0)
(8.0942 -0.038113 0)
(8.05444 -0.0369513 0)
(8.01695 -0.0358709 0)
(7.98157 -0.0348372 0)
(7.94808 -0.0337998 0)
(7.91626 -0.0326788 0)
(7.88583 -0.0313598 0)
(7.85647 -0.0297203 0)
(7.82785 -0.0276809 0)
(7.7997 -0.02525 0)
(7.77178 -0.0225331 0)
(7.74393 -0.0197094 0)
(7.71603 -0.0169941 0)
(7.68809 -0.0145968 0)
(7.66016 -0.0126937 0)
(7.63237 -0.0114076 0)
(7.60486 -0.0107541 0)
(7.57774 -0.0105777 0)
(7.55115 -0.0106022 0)
(7.52522 -0.0106312 0)
(7.50004 -0.0106081 0)
(7.47571 -0.0104978 0)
(7.45224 -0.0102625 0)
(7.42962 -0.00988762 0)
(7.40782 -0.00938631 0)
(7.38677 -0.00878705 0)
(7.36641 -0.00812236 0)
(7.34667 -0.00742275 0)
(7.32745 -0.00671499 0)
(7.30869 -0.00602178 0)
(7.29031 -0.0053616 0)
(7.27222 -0.00474805 0)
(7.25438 -0.00418956 0)
(7.23673 -0.00368981 0)
(7.21924 -0.00324855 0)
(7.2019 -0.00286233 0)
(7.18467 -0.00252563 0)
(7.16756 -0.00222883 0)
(7.15057 -0.00195783 0)
(7.13368 -0.00169915 0)
(7.11691 -0.00144441 0)
(7.10024 -0.00118983 0)
(7.08369 -0.000933568 0)
(7.06725 -0.000674186 0)
(7.05094 -0.000410722 0)
(7.03477 -0.000143353 0)
(7.01876 0.000126449 0)
(7.00292 0.000395626 0)
(6.98727 0.000660483 0)
(6.97183 0.00091662 0)
(6.95659 0.0011604 0)
(6.94158 0.00138815 0)
(6.92679 0.00159777 0)
(6.91222 0.00178693 0)
(6.89787 0.00195519 0)
(6.88373 0.00210171 0)
(6.8698 0.00222776 0)
(6.85606 0.00233454 0)
(6.8425 0.00242435 0)
(6.8291 0.00250055 0)
(6.81587 0.00256393 0)
(6.80277 0.002621 0)
(6.78984 0.002666 0)
(6.777 0.00271374 0)
(6.76437 0.00274141 0)
(6.75178 0.00278736 0)
(6.7395 0.0027875 0)
(6.72712 0.0028424 0)
(6.71532 0.00278732 0)
(6.70312 0.00288187 0)
(6.69208 0.00271142 0)
(6.67988 0.00291327 0)
(6.67028 0.00251351 0)
(6.65733 0.00294467 0)
(6.65102 0.00224216 0)
(6.63413 0.00305752 0)
(24.6958 0.096262 0)
(24.7721 0.270091 0)
(24.9041 0.424026 0)
(25.072 0.561461 0)
(25.2553 0.682039 0)
(25.435 0.782683 0)
(25.5955 0.861621 0)
(25.7256 0.919219 0)
(25.8193 0.957443 0)
(25.8743 0.978508 0)
(25.8923 0.984653 0)
(25.8756 0.978223 0)
(25.828 0.961233 0)
(25.7538 0.935566 0)
(25.6571 0.903077 0)
(25.5418 0.865476 0)
(25.4115 0.824267 0)
(25.2697 0.780727 0)
(25.1191 0.735937 0)
(24.9624 0.690811 0)
(24.8016 0.646087 0)
(24.6385 0.602392 0)
(24.4745 0.560204 0)
(24.3109 0.519874 0)
(24.1484 0.481671 0)
(23.9879 0.445764 0)
(23.8299 0.412246 0)
(23.6748 0.381148 0)
(23.5228 0.352453 0)
(23.3741 0.326111 0)
(23.2289 0.302026 0)
(23.0872 0.280101 0)
(22.9487 0.260173 0)
(22.8136 0.242066 0)
(22.6817 0.225636 0)
(22.553 0.210773 0)
(22.4273 0.197366 0)
(22.3046 0.185276 0)
(22.1846 0.174367 0)
(22.0673 0.164498 0)
(21.9525 0.155535 0)
(21.8402 0.147354 0)
(21.7302 0.139828 0)
(21.6226 0.132857 0)
(21.5172 0.126342 0)
(21.4142 0.120215 0)
(21.3133 0.114427 0)
(21.2148 0.108947 0)
(21.1185 0.103763 0)
(21.0244 0.0988867 0)
(20.9324 0.0943419 0)
(20.8425 0.0901656 0)
(20.7546 0.086397 0)
(20.6686 0.0830747 0)
(20.5844 0.0802241 0)
(20.5019 0.0778327 0)
(20.4209 0.0758444 0)
(20.3415 0.0741711 0)
(20.2635 0.0726994 0)
(20.1869 0.0713129 0)
(20.1116 0.0699088 0)
(20.0377 0.068386 0)
(19.9651 0.0666868 0)
(19.8941 0.0648215 0)
(19.8246 0.0628077 0)
(19.7566 0.0606692 0)
(19.6902 0.0584492 0)
(19.6254 0.0562031 0)
(19.5624 0.0539828 0)
(19.5009 0.0518296 0)
(19.4412 0.0497756 0)
(19.383 0.0478483 0)
(19.3264 0.0460715 0)
(19.2713 0.044462 0)
(19.2177 0.0430252 0)
(19.1655 0.0417553 0)
(19.1146 0.0406376 0)
(19.0649 0.0396532 0)
(19.0164 0.0387814 0)
(18.9689 0.0380018 0)
(18.9225 0.037296 0)
(18.877 0.0366465 0)
(18.8324 0.0360387 0)
(18.7887 0.0354602 0)
(18.7457 0.034901 0)
(18.7034 0.0343513 0)
(18.6619 0.0338006 0)
(18.6212 0.0332381 0)
(18.5811 0.0326559 0)
(18.5417 0.0320487 0)
(18.503 0.0314163 0)
(18.4651 0.0307611 0)
(18.4278 0.0300902 0)
(18.3913 0.0294121 0)
(18.3556 0.0287373 0)
(18.3206 0.0280759 0)
(18.2864 0.027438 0)
(18.2529 0.026833 0)
(18.2202 0.0262681 0)
(18.1881 0.0257494 0)
(18.1567 0.0252759 0)
(18.126 0.0248487 0)
(18.0958 0.0244565 0)
(18.0662 0.0241024 0)
(18.0372 0.0237632 0)
(18.0087 0.0234559 0)
(17.9807 0.0231358 0)
(17.9531 0.0228489 0)
(17.9261 0.0225053 0)
(17.8994 0.022215 0)
(17.8735 0.0218079 0)
(17.8475 0.0215077 0)
(17.8229 0.0209803 0)
(17.7975 0.0206486 0)
(17.7749 0.0199031 0)
(17.7494 0.0195178 0)
(17.7304 0.0184676 0)
(17.7029 0.0179538 0)
(17.6914 0.0166662 0)
(17.6564 0.0156915 0)
(24.693 0.0630567 0)
(24.7313 0.184197 0)
(24.8077 0.29578 0)
(24.9207 0.396165 0)
(25.0666 0.484782 0)
(25.2406 0.560626 0)
(25.4373 0.622721 0)
(25.6504 0.670824 0)
(25.8736 0.705513 0)
(26.1007 0.7278 0)
(26.3267 0.738841 0)
(26.5474 0.739991 0)
(26.7596 0.732526 0)
(26.9607 0.717704 0)
(27.1492 0.696852 0)
(27.3239 0.671322 0)
(27.4843 0.642387 0)
(27.6304 0.611189 0)
(27.7624 0.578715 0)
(27.8809 0.545808 0)
(27.9865 0.513161 0)
(28.0801 0.481333 0)
(28.1625 0.450748 0)
(28.2346 0.42172 0)
(28.2972 0.39446 0)
(28.3512 0.369096 0)
(28.3974 0.345683 0)
(28.4365 0.324221 0)
(28.4693 0.304658 0)
(28.4963 0.286909 0)
(28.5181 0.270868 0)
(28.5352 0.25641 0)
(28.5481 0.243495 0)
(28.5573 0.232071 0)
(28.5632 0.222035 0)
(28.5661 0.213251 0)
(28.5664 0.20558 0)
(28.5642 0.19888 0)
(28.56 0.19301 0)
(28.5537 0.187825 0)
(28.5457 0.183189 0)
(28.536 0.178977 0)
(28.5247 0.175075 0)
(28.5121 0.171389 0)
(28.498 0.167845 0)
(28.4827 0.164398 0)
(28.4661 0.161028 0)
(28.4484 0.157742 0)
(28.4295 0.154565 0)
(28.4096 0.151542 0)
(28.3887 0.148735 0)
(28.3668 0.146212 0)
(28.3441 0.144034 0)
(28.3207 0.142233 0)
(28.2967 0.140798 0)
(28.2722 0.139671 0)
(28.2472 0.138749 0)
(28.2218 0.13791 0)
(28.1959 0.137029 0)
(28.1696 0.135995 0)
(28.1428 0.134728 0)
(28.1156 0.133197 0)
(28.0879 0.131393 0)
(28.0597 0.129313 0)
(28.0311 0.126992 0)
(28.0021 0.124491 0)
(27.9726 0.121882 0)
(27.9428 0.11923 0)
(27.9127 0.11659 0)
(27.8824 0.114003 0)
(27.8518 0.111499 0)
(27.821 0.109098 0)
(27.79 0.106817 0)
(27.759 0.104665 0)
(27.7277 0.102644 0)
(27.6964 0.100752 0)
(27.665 0.0989814 0)
(27.6335 0.097322 0)
(27.602 0.0957635 0)
(27.5704 0.0942952 0)
(27.5388 0.0929054 0)
(27.5071 0.091583 0)
(27.4755 0.0903173 0)
(27.4438 0.0890995 0)
(27.4122 0.0879201 0)
(27.3806 0.0867683 0)
(27.3491 0.0856304 0)
(27.3178 0.0844929 0)
(27.2866 0.0833428 0)
(27.2555 0.0821695 0)
(27.2247 0.0809632 0)
(27.1941 0.0797174 0)
(27.1637 0.0784285 0)
(27.1337 0.0770989 0)
(27.1039 0.0757344 0)
(27.0744 0.0743459 0)
(27.0452 0.0729463 0)
(27.0163 0.071552 0)
(26.9877 0.0701765 0)
(26.9594 0.0688354 0)
(26.9314 0.0675356 0)
(26.9036 0.0662896 0)
(26.8761 0.0650948 0)
(26.8488 0.0639613 0)
(26.8217 0.0628765 0)
(26.7947 0.0618511 0)
(26.7679 0.0608613 0)
(26.7412 0.0599173 0)
(26.7147 0.0589846 0)
(26.688 0.0580708 0)
(26.6619 0.0571479 0)
(26.6351 0.0561749 0)
(26.6096 0.0552209 0)
(26.5822 0.0540564 0)
(26.5582 0.0530825 0)
(26.5291 0.0515082 0)
(26.5083 0.050626 0)
(26.4749 0.0482243 0)
(26.4622 0.0477407 0)
(26.4182 0.0435153 0)
(24.6928 0.0425905 0)
(24.7264 0.125881 0)
(24.7937 0.204076 0)
(24.894 0.274725 0)
(25.0237 0.336651 0)
(25.1781 0.389238 0)
(25.3525 0.432033 0)
(25.5424 0.464893 0)
(25.7437 0.488174 0)
(25.9523 0.502684 0)
(26.1649 0.509473 0)
(26.3785 0.509686 0)
(26.5907 0.50441 0)
(26.7994 0.494655 0)
(27.0029 0.481372 0)
(27.1999 0.465456 0)
(27.3894 0.447713 0)
(27.5705 0.428832 0)
(27.7428 0.409382 0)
(27.906 0.389819 0)
(28.0602 0.370501 0)
(28.2053 0.351702 0)
(28.3417 0.333619 0)
(28.4697 0.316385 0)
(28.5897 0.30008 0)
(28.7021 0.284755 0)
(28.8076 0.270435 0)
(28.9065 0.257131 0)
(28.9994 0.244833 0)
(29.0867 0.233516 0)
(29.169 0.223151 0)
(29.2467 0.213711 0)
(29.3203 0.20519 0)
(29.3901 0.197565 0)
(29.4565 0.190773 0)
(29.5199 0.18473 0)
(29.5806 0.179351 0)
(29.6389 0.174555 0)
(29.6951 0.17026 0)
(29.7492 0.166384 0)
(29.8016 0.162841 0)
(29.8523 0.159555 0)
(29.9014 0.15646 0)
(29.9492 0.1535 0)
(29.9955 0.150638 0)
(30.0405 0.147854 0)
(30.0842 0.145148 0)
(30.1267 0.142536 0)
(30.168 0.140048 0)
(30.2081 0.137725 0)
(30.2472 0.135616 0)
(30.2852 0.133768 0)
(30.3223 0.132211 0)
(30.3585 0.130948 0)
(30.3941 0.129943 0)
(30.4289 0.129135 0)
(30.4632 0.128443 0)
(30.4968 0.127784 0)
(30.5299 0.127076 0)
(30.5625 0.126253 0)
(30.5944 0.125275 0)
(30.6256 0.124132 0)
(30.6563 0.122813 0)
(30.6862 0.12132 0)
(30.7153 0.119681 0)
(30.7437 0.117942 0)
(30.7714 0.116147 0)
(30.7983 0.114337 0)
(30.8244 0.112541 0)
(30.8497 0.110788 0)
(30.8744 0.109099 0)
(30.8983 0.107493 0)
(30.9215 0.105984 0)
(30.9441 0.104583 0)
(30.9659 0.103293 0)
(30.9871 0.102115 0)
(31.0077 0.101045 0)
(31.0277 0.100074 0)
(31.047 0.0991936 0)
(31.0658 0.0983911 0)
(31.084 0.0976535 0)
(31.1016 0.0969654 0)
(31.1186 0.0963139 0)
(31.1352 0.0956842 0)
(31.1512 0.0950628 0)
(31.1667 0.0944334 0)
(31.1818 0.0937804 0)
(31.1964 0.0930871 0)
(31.2106 0.0923418 0)
(31.2244 0.0915324 0)
(31.2378 0.0906562 0)
(31.2508 0.0897097 0)
(31.2635 0.088699 0)
(31.2758 0.0876294 0)
(31.2878 0.0865161 0)
(31.2994 0.0853744 0)
(31.3108 0.0842258 0)
(31.3218 0.0830906 0)
(31.3325 0.0819897 0)
(31.3428 0.0809401 0)
(31.3529 0.0799537 0)
(31.3626 0.0790375 0)
(31.372 0.0781959 0)
(31.3811 0.077424 0)
(31.3898 0.0767273 0)
(31.3982 0.0760833 0)
(31.4062 0.0755082 0)
(31.4138 0.0749464 0)
(31.4211 0.0744534 0)
(31.428 0.0738921 0)
(31.4345 0.0734517 0)
(31.4406 0.0727698 0)
(31.4463 0.0723781 0)
(31.4516 0.0713729 0)
(31.4563 0.071083 0)
(31.461 0.069464 0)
(31.4645 0.0694423 0)
(31.4687 0.0667074 0)
(31.4707 0.0672863 0)
(31.475 0.062479 0)
(24.6926 0.0248802 0)
(24.7238 0.0737337 0)
(24.7863 0.119993 0)
(24.88 0.162026 0)
(25.0022 0.19888 0)
(25.1487 0.230183 0)
(25.3147 0.255766 0)
(25.4961 0.275581 0)
(25.6887 0.289824 0)
(25.889 0.298968 0)
(26.0937 0.303649 0)
(26.2999 0.30454 0)
(26.5052 0.302272 0)
(26.7076 0.297408 0)
(26.9055 0.290457 0)
(27.0975 0.281868 0)
(27.2826 0.272043 0)
(27.4602 0.261328 0)
(27.6297 0.250019 0)
(27.7909 0.238366 0)
(27.9437 0.226587 0)
(28.0883 0.214866 0)
(28.2248 0.203358 0)
(28.3535 0.192181 0)
(28.4748 0.181423 0)
(28.5891 0.171155 0)
(28.6969 0.161432 0)
(28.7987 0.152303 0)
(28.895 0.143803 0)
(28.9862 0.135959 0)
(29.0727 0.128785 0)
(29.155 0.122279 0)
(29.2334 0.116431 0)
(29.3085 0.111218 0)
(29.3805 0.1066 0)
(29.4497 0.102524 0)
(29.5166 0.0989338 0)
(29.5812 0.0957718 0)
(29.644 0.0929797 0)
(29.705 0.0904974 0)
(29.7645 0.0882644 0)
(29.8226 0.0862242 0)
(29.8795 0.0843282 0)
(29.9351 0.0825382 0)
(29.9897 0.0808286 0)
(30.0432 0.0791868 0)
(30.0958 0.0776133 0)
(30.1474 0.0761203 0)
(30.1982 0.07473 0)
(30.2481 0.0734716 0)
(30.2973 0.0723755 0)
(30.3457 0.0714665 0)
(30.3936 0.0707562 0)
(30.4408 0.0702366 0)
(30.4877 0.0698816 0)
(30.5341 0.069653 0)
(30.5801 0.0695044 0)
(30.6259 0.0693839 0)
(30.6713 0.069239 0)
(30.7165 0.069024 0)
(30.7613 0.0687054 0)
(30.8058 0.0682611 0)
(30.85 0.0676785 0)
(30.8937 0.0669572 0)
(30.9369 0.0661127 0)
(30.9797 0.0651714 0)
(31.022 0.064163 0)
(31.0638 0.0631169 0)
(31.1051 0.0620618 0)
(31.1459 0.0610251 0)
(31.1862 0.0600309 0)
(31.226 0.0590996 0)
(31.2654 0.0582481 0)
(31.3043 0.057488 0)
(31.3427 0.0568252 0)
(31.3807 0.0562593 0)
(31.4183 0.0557851 0)
(31.4554 0.055394 0)
(31.4922 0.0550754 0)
(31.5286 0.0548172 0)
(31.5646 0.0546058 0)
(31.6003 0.0544258 0)
(31.6356 0.0542605 0)
(31.6706 0.0540938 0)
(31.7053 0.0539104 0)
(31.7397 0.0536968 0)
(31.7739 0.0534406 0)
(31.8077 0.0531306 0)
(31.8414 0.0527582 0)
(31.8748 0.0523174 0)
(31.908 0.0518069 0)
(31.9409 0.0512296 0)
(31.9737 0.0505934 0)
(32.0062 0.0499091 0)
(32.0385 0.0491905 0)
(32.0705 0.0484542 0)
(32.1024 0.0477181 0)
(32.134 0.0470009 0)
(32.1653 0.046319 0)
(32.1964 0.0456883 0)
(32.2273 0.0451197 0)
(32.2578 0.0446195 0)
(32.2881 0.0441948 0)
(32.3181 0.0438376 0)
(32.3478 0.043558 0)
(32.3772 0.0433303 0)
(32.4062 0.0431774 0)
(32.435 0.0430417 0)
(32.4633 0.0429846 0)
(32.4915 0.0428739 0)
(32.5187 0.0428796 0)
(32.5465 0.0426926 0)
(32.5724 0.0427463 0)
(32.6001 0.0423309 0)
(32.6239 0.0424232 0)
(32.6524 0.0415866 0)
(32.6723 0.0418088 0)
(32.7041 0.0402278 0)
(32.7159 0.0407367 0)
(32.7562 0.0377575 0)
(24.6926 0.00819846 0)
(24.7226 0.0243071 0)
(24.7828 0.0395999 0)
(24.8734 0.0535346 0)
(24.9919 0.0657641 0)
(25.1344 0.0761598 0)
(25.2965 0.0846856 0)
(25.4739 0.0913414 0)
(25.6629 0.0961938 0)
(25.8598 0.0993926 0)
(26.0615 0.101139 0)
(26.2651 0.101642 0)
(26.4681 0.101099 0)
(26.6686 0.0996777 0)
(26.8647 0.0975286 0)
(27.0551 0.0947865 0)
(27.239 0.0915778 0)
(27.4154 0.0880139 0)
(27.5839 0.0841905 0)
(27.7443 0.0801946 0)
(27.8965 0.076109 0)
(28.0405 0.07201 0)
(28.1766 0.0679622 0)
(28.305 0.0640203 0)
(28.426 0.06023 0)
(28.5402 0.05663 0)
(28.648 0.0532531 0)
(28.7497 0.0501232 0)
(28.846 0.0472616 0)
(28.9372 0.0446863 0)
(29.0238 0.0424087 0)
(29.1062 0.0404317 0)
(29.1847 0.0387492 0)
(29.2598 0.0373498 0)
(29.3318 0.0362163 0)
(29.4011 0.0353236 0)
(29.4679 0.0346396 0)
(29.5325 0.0341285 0)
(29.5951 0.0337522 0)
(29.656 0.0334721 0)
(29.7153 0.033251 0)
(29.7732 0.0330559 0)
(29.8298 0.0328596 0)
(29.8852 0.0326431 0)
(29.9396 0.0323961 0)
(29.9929 0.0321175 0)
(30.0453 0.0318151 0)
(30.0968 0.0315048 0)
(30.1474 0.0312085 0)
(30.1973 0.0309509 0)
(30.2465 0.0307564 0)
(30.295 0.0306443 0)
(30.3429 0.0306259 0)
(30.3903 0.0307018 0)
(30.4372 0.0308615 0)
(30.4837 0.0310839 0)
(30.5298 0.0313392 0)
(30.5757 0.03159 0)
(30.6212 0.0317967 0)
(30.6664 0.0319232 0)
(30.7113 0.0319399 0)
(30.7559 0.0318283 0)
(30.8001 0.0315825 0)
(30.844 0.0312069 0)
(30.8875 0.0307144 0)
(30.9306 0.0301263 0)
(30.9732 0.0294702 0)
(31.0155 0.0287761 0)
(31.0573 0.0280735 0)
(31.0986 0.0273894 0)
(31.1396 0.0267465 0)
(31.1801 0.0261623 0)
(31.2202 0.0256502 0)
(31.2599 0.0252189 0)
(31.2992 0.0248728 0)
(31.3381 0.0246112 0)
(31.3766 0.0244291 0)
(31.4148 0.0243174 0)
(31.4526 0.0242644 0)
(31.49 0.0242568 0)
(31.5271 0.0242799 0)
(31.5639 0.0243177 0)
(31.6004 0.0243537 0)
(31.6366 0.0243717 0)
(31.6726 0.0243569 0)
(31.7083 0.0242962 0)
(31.7438 0.0241786 0)
(31.7791 0.0239953 0)
(31.8142 0.0237404 0)
(31.8491 0.0234108 0)
(31.8839 0.0230067 0)
(31.9185 0.0225329 0)
(31.9529 0.0219976 0)
(31.9872 0.0214145 0)
(32.0213 0.0208003 0)
(32.0553 0.0201727 0)
(32.0892 0.0195505 0)
(32.1228 0.0189529 0)
(32.1563 0.0183975 0)
(32.1896 0.0179006 0)
(32.2227 0.0174754 0)
(32.2556 0.0171313 0)
(32.2882 0.0168752 0)
(32.3207 0.0167059 0)
(32.3528 0.0166266 0)
(32.3848 0.0166252 0)
(32.4163 0.0167047 0)
(32.4477 0.0168398 0)
(32.4786 0.017039 0)
(32.5095 0.0172539 0)
(32.5394 0.0175223 0)
(32.5701 0.0177392 0)
(32.5986 0.0180237 0)
(32.6294 0.0181755 0)
(32.6556 0.0184508 0)
(32.6876 0.0184427 0)
(32.7096 0.0186872 0)
(32.7454 0.0184111 0)
(32.7583 0.0186292 0)
(32.8038 0.0178665 0)
(24.6926 -0.00818563 0)
(24.7226 -0.024266 0)
(24.7828 -0.0395267 0)
(24.8734 -0.0534248 0)
(24.9919 -0.0656113 0)
(25.1344 -0.0759512 0)
(25.2966 -0.0844002 0)
(25.474 -0.090952 0)
(25.6629 -0.0956692 0)
(25.8599 -0.0987004 0)
(26.0616 -0.100249 0)
(26.2652 -0.100526 0)
(26.4682 -0.0997279 0)
(26.6687 -0.0980303 0)
(26.8648 -0.0955935 0)
(27.0553 -0.0925623 0)
(27.2391 -0.0890698 0)
(27.4155 -0.0852375 0)
(27.584 -0.0811763 0)
(27.7444 -0.0769861 0)
(27.8965 -0.0727553 0)
(28.0405 -0.0685625 0)
(28.1765 -0.0644757 0)
(28.3049 -0.0605547 0)
(28.426 -0.0568459 0)
(28.5401 -0.0533787 0)
(28.6479 -0.0501701 0)
(28.7496 -0.047227 0)
(28.8459 -0.0445535 0)
(28.9371 -0.0421474 0)
(29.0237 -0.0399957 0)
(29.1061 -0.0380762 0)
(29.1847 -0.0363624 0)
(29.2599 -0.0348271 0)
(29.332 -0.0334451 0)
(29.4013 -0.0321964 0)
(29.4681 -0.0310678 0)
(29.5327 -0.0300518 0)
(29.5953 -0.0291453 0)
(29.6562 -0.0283481 0)
(29.7155 -0.0276607 0)
(29.7733 -0.027083 0)
(29.8299 -0.0266132 0)
(29.8852 -0.0262463 0)
(29.9395 -0.0259734 0)
(29.9928 -0.0257809 0)
(30.0451 -0.0256506 0)
(30.0966 -0.0255602 0)
(30.1472 -0.025485 0)
(30.1971 -0.0254003 0)
(30.2463 -0.0252827 0)
(30.2949 -0.0251128 0)
(30.3429 -0.0248778 0)
(30.3903 -0.0245732 0)
(30.4373 -0.0242054 0)
(30.4838 -0.0237911 0)
(30.5299 -0.0233555 0)
(30.5757 -0.0229287 0)
(30.6212 -0.0225414 0)
(30.6663 -0.0222216 0)
(30.7111 -0.0219906 0)
(30.7555 -0.0218602 0)
(30.7996 -0.0218321 0)
(30.8434 -0.0219008 0)
(30.8867 -0.0220542 0)
(30.9297 -0.022273 0)
(30.9723 -0.0225327 0)
(31.0145 -0.0228069 0)
(31.0563 -0.0230712 0)
(31.0977 -0.0233038 0)
(31.1387 -0.0234865 0)
(31.1793 -0.023605 0)
(31.2195 -0.0236491 0)
(31.2592 -0.0236131 0)
(31.2986 -0.0234958 0)
(31.3376 -0.0232996 0)
(31.3762 -0.0230311 0)
(31.4144 -0.0227003 0)
(31.4522 -0.0223209 0)
(31.4897 -0.0219088 0)
(31.5268 -0.0214817 0)
(31.5636 -0.0210572 0)
(31.6001 -0.0206526 0)
(31.6363 -0.0202837 0)
(31.6722 -0.0199658 0)
(31.7079 -0.0197129 0)
(31.7433 -0.0195377 0)
(31.7785 -0.0194494 0)
(31.8135 -0.0194528 0)
(31.8483 -0.0195482 0)
(31.883 -0.0197312 0)
(31.9176 -0.0199933 0)
(31.952 -0.0203226 0)
(31.9862 -0.020703 0)
(32.0204 -0.0211147 0)
(32.0544 -0.0215369 0)
(32.0882 -0.0219468 0)
(32.122 -0.0223213 0)
(32.1555 -0.0226391 0)
(32.1889 -0.0228824 0)
(32.2221 -0.0230367 0)
(32.2552 -0.0230921 0)
(32.2879 -0.0230435 0)
(32.3205 -0.0228867 0)
(32.3528 -0.022627 0)
(32.3849 -0.022264 0)
(32.4165 -0.021815 0)
(32.4481 -0.0212792 0)
(32.479 -0.0206892 0)
(32.51 -0.0200287 0)
(32.5399 -0.0193587 0)
(32.5706 -0.0186206 0)
(32.5991 -0.0179465 0)
(32.6299 -0.0171503 0)
(32.6561 -0.0165419 0)
(32.688 -0.0156948 0)
(32.71 -0.0152498 0)
(32.7457 -0.0142449 0)
(32.7586 -0.0140679 0)
(32.804 -0.0125655 0)
(24.6926 -0.024869 0)
(24.7238 -0.0736958 0)
(24.7863 -0.119923 0)
(24.88 -0.161919 0)
(25.0023 -0.198732 0)
(25.1487 -0.229982 0)
(25.3148 -0.25549 0)
(25.4962 -0.275204 0)
(25.6889 -0.289318 0)
(25.8892 -0.2983 0)
(26.0939 -0.302788 0)
(26.3002 -0.303453 0)
(26.5055 -0.300927 0)
(26.708 -0.295779 0)
(26.9058 -0.288523 0)
(27.0978 -0.27962 0)
(27.2829 -0.269487 0)
(27.4604 -0.258484 0)
(27.6299 -0.246919 0)
(27.791 -0.235054 0)
(27.9438 -0.223116 0)
(28.0883 -0.2113 0)
(28.2246 -0.199765 0)
(28.3533 -0.188629 0)
(28.4745 -0.177976 0)
(28.5887 -0.167868 0)
(28.6965 -0.158352 0)
(28.7983 -0.149457 0)
(28.8946 -0.141198 0)
(28.9858 -0.133577 0)
(29.0724 -0.126578 0)
(29.1548 -0.120172 0)
(29.2335 -0.114321 0)
(29.3087 -0.108985 0)
(29.3809 -0.10412 0)
(29.4503 -0.099689 0)
(29.5172 -0.0956592 0)
(29.5819 -0.0920035 0)
(29.6447 -0.0886982 0)
(29.7057 -0.0857195 0)
(29.765 -0.0830433 0)
(29.823 -0.0806465 0)
(29.8796 -0.078507 0)
(29.9351 -0.0766035 0)
(29.9894 -0.0749128 0)
(30.0428 -0.0734091 0)
(30.0952 -0.0720634 0)
(30.1468 -0.0708455 0)
(30.1976 -0.0697252 0)
(30.2476 -0.0686739 0)
(30.2969 -0.067666 0)
(30.3455 -0.0666806 0)
(30.3935 -0.0657029 0)
(30.441 -0.0647267 0)
(30.488 -0.0637553 0)
(30.5345 -0.0628002 0)
(30.5806 -0.0618789 0)
(30.6262 -0.0610114 0)
(30.6714 -0.0602181 0)
(30.7163 -0.0595168 0)
(30.7608 -0.0589204 0)
(30.8049 -0.058435 0)
(30.8486 -0.058059 0)
(30.892 -0.057784 0)
(30.935 -0.0575951 0)
(30.9775 -0.0574725 0)
(31.0197 -0.0573931 0)
(31.0615 -0.0573327 0)
(31.1028 -0.057268 0)
(31.1437 -0.0571771 0)
(31.1842 -0.0570407 0)
(31.2242 -0.0568426 0)
(31.2638 -0.0565719 0)
(31.303 -0.0562225 0)
(31.3417 -0.0557933 0)
(31.3799 -0.0552872 0)
(31.4178 -0.0547114 0)
(31.4551 -0.0540774 0)
(31.4921 -0.0534006 0)
(31.5286 -0.0526993 0)
(31.5647 -0.051994 0)
(31.6004 -0.0513048 0)
(31.6358 -0.0506514 0)
(31.6707 -0.0500523 0)
(31.7054 -0.0495249 0)
(31.7397 -0.0490853 0)
(31.7737 -0.0487465 0)
(31.8074 -0.0485172 0)
(31.8409 -0.0484006 0)
(31.8742 -0.0483945 0)
(31.9072 -0.0484918 0)
(31.9401 -0.0486805 0)
(31.9727 -0.0489434 0)
(32.0052 -0.0492607 0)
(32.0375 -0.0496096 0)
(32.0697 -0.0499648 0)
(32.1016 -0.0503001 0)
(32.1333 -0.0505916 0)
(32.1649 -0.0508157 0)
(32.1962 -0.0509541 0)
(32.2272 -0.0509903 0)
(32.258 -0.0509112 0)
(32.2885 -0.050712 0)
(32.3188 -0.0503807 0)
(32.3486 -0.0499293 0)
(32.3782 -0.0493428 0)
(32.4073 -0.048659 0)
(32.4362 -0.0478463 0)
(32.4645 -0.0469877 0)
(32.4927 -0.0459849 0)
(32.5199 -0.0450366 0)
(32.5476 -0.0438562 0)
(32.5734 -0.0429119 0)
(32.601 -0.0415323 0)
(32.6246 -0.0407312 0)
(32.653 -0.0390301 0)
(32.6727 -0.0385486 0)
(32.7043 -0.0361981 0)
(32.716 -0.0363165 0)
(32.7561 -0.0325135 0)
(24.6928 -0.0425848 0)
(24.7264 -0.125858 0)
(24.7937 -0.204028 0)
(24.894 -0.274651 0)
(25.0237 -0.336543 0)
(25.1781 -0.389076 0)
(25.3526 -0.431795 0)
(25.5426 -0.464551 0)
(25.7439 -0.487703 0)
(25.9526 -0.502056 0)
(26.1653 -0.50866 0)
(26.379 -0.508655 0)
(26.5913 -0.503129 0)
(26.8 -0.493091 0)
(27.0036 -0.479494 0)
(27.2006 -0.463242 0)
(27.39 -0.445154 0)
(27.571 -0.425935 0)
(27.7432 -0.40617 0)
(27.9063 -0.38633 0)
(28.0603 -0.366791 0)
(28.2052 -0.347837 0)
(28.3414 -0.329677 0)
(28.4692 -0.312443 0)
(28.5891 -0.296214 0)
(28.7014 -0.281032 0)
(28.8067 -0.26691 0)
(28.9056 -0.25384 0)
(28.9985 -0.241791 0)
(29.086 -0.230716 0)
(29.1684 -0.220555 0)
(29.2463 -0.211245 0)
(29.3202 -0.20272 0)
(29.3902 -0.194915 0)
(29.457 -0.187768 0)
(29.5206 -0.181224 0)
(29.5815 -0.175234 0)
(29.6399 -0.169763 0)
(29.6961 -0.16478 0)
(29.7502 -0.16025 0)
(29.8024 -0.156133 0)
(29.853 -0.152392 0)
(29.9019 -0.148992 0)
(29.9494 -0.145899 0)
(29.9956 -0.143083 0)
(30.0405 -0.140508 0)
(30.0842 -0.138141 0)
(30.1267 -0.135946 0)
(30.1682 -0.133891 0)
(30.2087 -0.131944 0)
(30.2483 -0.130079 0)
(30.2869 -0.128272 0)
(30.3246 -0.12651 0)
(30.3615 -0.124783 0)
(30.3975 -0.123094 0)
(30.4328 -0.121448 0)
(30.4674 -0.119858 0)
(30.5013 -0.118337 0)
(30.5344 -0.116901 0)
(30.5669 -0.115562 0)
(30.5988 -0.114331 0)
(30.6299 -0.113212 0)
(30.6604 -0.112201 0)
(30.6903 -0.111289 0)
(30.7195 -0.11046 0)
(30.748 -0.109694 0)
(30.7759 -0.108971 0)
(30.803 -0.108268 0)
(30.8295 -0.107561 0)
(30.8553 -0.106831 0)
(30.8803 -0.106059 0)
(30.9047 -0.10523 0)
(30.9284 -0.104335 0)
(30.9514 -0.103368 0)
(30.9737 -0.102329 0)
(30.9953 -0.10122 0)
(31.0163 -0.10005 0)
(31.0365 -0.0988298 0)
(31.0562 -0.0975778 0)
(31.0752 -0.0963124 0)
(31.0936 -0.0950551 0)
(31.1114 -0.093826 0)
(31.1287 -0.0926484 0)
(31.1454 -0.0915427 0)
(31.1616 -0.0905306 0)
(31.1773 -0.0896285 0)
(31.1925 -0.0888494 0)
(31.2072 -0.0881992 0)
(31.2215 -0.0876808 0)
(31.2354 -0.0872895 0)
(31.2489 -0.0870191 0)
(31.2619 -0.0868533 0)
(31.2746 -0.0867755 0)
(31.2868 -0.0867578 0)
(31.2987 -0.0867726 0)
(31.3102 -0.0867864 0)
(31.3213 -0.0867702 0)
(31.332 -0.0866957 0)
(31.3423 -0.0865396 0)
(31.3521 -0.0862818 0)
(31.3616 -0.0859054 0)
(31.3707 -0.0853982 0)
(31.3794 -0.0847524 0)
(31.3876 -0.0839622 0)
(31.3955 -0.0830374 0)
(31.403 -0.0819717 0)
(31.4101 -0.0807975 0)
(31.4168 -0.0794893 0)
(31.4231 -0.0781261 0)
(31.4291 -0.076614 0)
(31.4347 -0.0751582 0)
(31.4399 -0.0734523 0)
(31.4448 -0.0720466 0)
(31.4495 -0.0700929 0)
(31.4535 -0.0689047 0)
(31.4577 -0.0664749 0)
(31.4608 -0.0657528 0)
(31.4646 -0.0623636 0)
(31.4664 -0.0625467 0)
(31.4705 -0.057142 0)
(24.693 -0.0630601 0)
(24.7314 -0.184209 0)
(24.8077 -0.295814 0)
(24.9207 -0.396227 0)
(25.0666 -0.484851 0)
(25.2407 -0.560666 0)
(25.4375 -0.622694 0)
(25.6507 -0.670695 0)
(25.8739 -0.705256 0)
(26.1011 -0.727388 0)
(26.3271 -0.738256 0)
(26.5477 -0.739217 0)
(26.7598 -0.731544 0)
(26.9609 -0.716494 0)
(27.1493 -0.695399 0)
(27.3238 -0.669608 0)
(27.484 -0.640405 0)
(27.6299 -0.608942 0)
(27.7616 -0.576225 0)
(27.8798 -0.543112 0)
(27.9852 -0.510315 0)
(28.0785 -0.478402 0)
(28.1606 -0.447809 0)
(28.2324 -0.418856 0)
(28.2948 -0.391754 0)
(28.3486 -0.366625 0)
(28.3946 -0.343513 0)
(28.4335 -0.322397 0)
(28.4661 -0.303209 0)
(28.493 -0.285847 0)
(28.5148 -0.270189 0)
(28.5319 -0.256099 0)
(28.5449 -0.243439 0)
(28.5542 -0.232071 0)
(28.5602 -0.221863 0)
(28.5632 -0.212689 0)
(28.5635 -0.204434 0)
(28.5614 -0.197009 0)
(28.5571 -0.190343 0)
(28.5508 -0.184361 0)
(28.5427 -0.178988 0)
(28.533 -0.174156 0)
(28.5218 -0.169799 0)
(28.5093 -0.165857 0)
(28.4955 -0.162274 0)
(28.4805 -0.158998 0)
(28.4644 -0.155977 0)
(28.4473 -0.153168 0)
(28.4291 -0.150527 0)
(28.4101 -0.148015 0)
(28.3902 -0.145601 0)
(28.3696 -0.143259 0)
(28.3481 -0.14097 0)
(28.326 -0.138725 0)
(28.3032 -0.136522 0)
(28.2798 -0.134363 0)
(28.2559 -0.132257 0)
(28.2314 -0.130216 0)
(28.2064 -0.128252 0)
(28.181 -0.126374 0)
(28.155 -0.124589 0)
(28.1287 -0.122899 0)
(28.1019 -0.1213 0)
(28.0746 -0.119777 0)
(28.0469 -0.118314 0)
(28.0189 -0.11689 0)
(27.9903 -0.115483 0)
(27.9614 -0.11407 0)
(27.9321 -0.11263 0)
(27.9024 -0.111145 0)
(27.8724 -0.109599 0)
(27.842 -0.107983 0)
(27.8114 -0.106292 0)
(27.7805 -0.104527 0)
(27.7494 -0.102693 0)
(27.7181 -0.100798 0)
(27.6867 -0.0988547 0)
(27.6551 -0.0968794 0)
(27.6236 -0.0948915 0)
(27.592 -0.0929129 0)
(27.5604 -0.0909664 0)
(27.5288 -0.089076 0)
(27.4974 -0.0872643 0)
(27.466 -0.0855526 0)
(27.4347 -0.0839593 0)
(27.4035 -0.0825009 0)
(27.3724 -0.0811897 0)
(27.3414 -0.0800338 0)
(27.3106 -0.0790335 0)
(27.2798 -0.0781841 0)
(27.249 -0.077474 0)
(27.2184 -0.076888 0)
(27.1878 -0.0764034 0)
(27.1572 -0.0759938 0)
(27.1266 -0.0756275 0)
(27.0961 -0.0752726 0)
(27.0655 -0.0748951 0)
(27.035 -0.0744655 0)
(27.0044 -0.0739544 0)
(26.974 -0.0733422 0)
(26.9435 -0.0726067 0)
(26.9131 -0.0717418 0)
(26.8828 -0.0707314 0)
(26.8526 -0.0695851 0)
(26.8226 -0.0682902 0)
(26.7927 -0.0668722 0)
(26.7631 -0.0653176 0)
(26.7337 -0.0636719 0)
(26.7047 -0.0619121 0)
(26.6756 -0.0600976 0)
(26.6474 -0.058206 0)
(26.6187 -0.0562754 0)
(26.5917 -0.0543423 0)
(26.5629 -0.0522855 0)
(26.5378 -0.05042 0)
(26.508 -0.0481144 0)
(26.4866 -0.0465088 0)
(26.4531 -0.04357 0)
(26.44 -0.042607 0)
(26.3964 -0.0379686 0)
(24.6958 -0.0961027 0)
(24.772 -0.269755 0)
(24.9038 -0.423672 0)
(25.0715 -0.561165 0)
(25.2544 -0.681785 0)
(25.4336 -0.78242 0)
(25.5935 -0.861281 0)
(25.7227 -0.918736 0)
(25.8156 -0.956743 0)
(25.8695 -0.977511 0)
(25.8864 -0.983291 0)
(25.8685 -0.976439 0)
(25.8197 -0.958977 0)
(25.7445 -0.932813 0)
(25.6467 -0.899821 0)
(25.5304 -0.861731 0)
(25.3992 -0.820063 0)
(25.2566 -0.776109 0)
(25.1053 -0.730965 0)
(24.948 -0.685555 0)
(24.7867 -0.640627 0)
(24.6231 -0.596809 0)
(24.4588 -0.554583 0)
(24.2948 -0.514296 0)
(24.132 -0.476208 0)
(23.9711 -0.440477 0)
(23.8126 -0.407173 0)
(23.6569 -0.376303 0)
(23.5043 -0.34782 0)
(23.3548 -0.321642 0)
(23.2087 -0.297655 0)
(23.0659 -0.275732 0)
(22.9265 -0.255738 0)
(22.7904 -0.237526 0)
(22.6577 -0.220962 0)
(22.5282 -0.205909 0)
(22.402 -0.192236 0)
(22.2788 -0.179813 0)
(22.1586 -0.16851 0)
(22.0413 -0.15822 0)
(21.9268 -0.148854 0)
(21.8151 -0.140337 0)
(21.7061 -0.132594 0)
(21.5996 -0.12555 0)
(21.4956 -0.119137 0)
(21.394 -0.113288 0)
(21.2946 -0.107938 0)
(21.1975 -0.103024 0)
(21.1024 -0.0984889 0)
(21.0095 -0.0942808 0)
(20.9185 -0.0903532 0)
(20.8295 -0.0866675 0)
(20.7425 -0.0831926 0)
(20.6573 -0.0799059 0)
(20.5739 -0.0767931 0)
(20.4924 -0.0738469 0)
(20.4126 -0.0710661 0)
(20.3346 -0.0684526 0)
(20.2582 -0.0660096 0)
(20.1835 -0.0637395 0)
(20.1104 -0.0616412 0)
(20.0388 -0.0597107 0)
(19.9688 -0.0579385 0)
(19.9001 -0.0563134 0)
(19.8329 -0.0548205 0)
(19.7671 -0.0534395 0)
(19.7026 -0.0521457 0)
(19.6393 -0.0509135 0)
(19.5774 -0.0497188 0)
(19.5167 -0.0485411 0)
(19.4573 -0.047364 0)
(19.3991 -0.0461756 0)
(19.3422 -0.0449695 0)
(19.2866 -0.043744 0)
(19.2322 -0.042502 0)
(19.1791 -0.0412503 0)
(19.1273 -0.0399987 0)
(19.0768 -0.0387596 0)
(19.0275 -0.0375475 0)
(18.9795 -0.0363774 0)
(18.9327 -0.0352653 0)
(18.887 -0.0342253 0)
(18.8424 -0.0332696 0)
(18.7989 -0.0324071 0)
(18.7564 -0.0316436 0)
(18.7147 -0.030982 0)
(18.6738 -0.0304217 0)
(18.6336 -0.0299579 0)
(18.594 -0.0295816 0)
(18.555 -0.02928 0)
(18.5163 -0.0290393 0)
(18.478 -0.0288437 0)
(18.44 -0.0286764 0)
(18.4022 -0.0285172 0)
(18.3646 -0.0283459 0)
(18.3273 -0.0281435 0)
(18.2901 -0.0278953 0)
(18.2532 -0.0275927 0)
(18.2166 -0.0272304 0)
(18.1802 -0.0268083 0)
(18.1443 -0.0263249 0)
(18.1088 -0.0257853 0)
(18.0739 -0.0251862 0)
(18.0395 -0.0245428 0)
(18.0059 -0.0238456 0)
(17.9729 -0.0231274 0)
(17.9409 -0.0223596 0)
(17.9097 -0.0216107 0)
(17.8795 -0.0208095 0)
(17.8501 -0.020086 0)
(17.8221 -0.0192733 0)
(17.7945 -0.0186161 0)
(17.7689 -0.0177785 0)
(17.7429 -0.0172226 0)
(17.7201 -0.0162964 0)
(17.6951 -0.0158422 0)
(17.6765 -0.0147131 0)
(17.6505 -0.0142933 0)
(17.6394 -0.0129696 0)
(17.6071 -0.0122456 0)
(24.6526 -0.0670504 0)
(24.4486 -0.260911 0)
(24.043 -0.443364 0)
(23.4616 -0.59115 0)
(22.7495 -0.698878 0)
(21.9473 -0.76514 0)
(21.0884 -0.793036 0)
(20.1986 -0.788266 0)
(19.3018 -0.758735 0)
(18.4142 -0.710426 0)
(17.5543 -0.650322 0)
(16.7278 -0.584534 0)
(15.9432 -0.515286 0)
(15.2058 -0.446039 0)