/*--------------------------------*- C++ -*----------------------------------*\
  =========                 |
  \\      /  F ield         | OpenFOAM: The Open Source CFD Toolbox
   \\    /   O peration     | Website:  https://openfoam.org
    \\  /    A nd           | Version:  7
     \\/     M anipulation  |
\*---------------------------------------------------------------------------*/
FoamFile
{
    version     2.0;
    format      ascii;
    class       surfaceScalarField;
    location    "2.45";
    object      phi;
}
// * * * * * * * * * * * * * * * * * * * * * * * * * * * * * * * * * * * * * //

dimensions      [1 0 -1 0 0 0 0];

internalField   nonuniform List<scalar> 
2518
(
0.0103878
0.00345544
0.00738096
0.00300594
0.00577749
0.00160259
0.00496871
0.000807923
0.00456095
0.00040692
0.00434669
0.000213476
0.00421978
0.000126181
0.00412761
9.15079e-05
0.00404815
7.88774e-05
0.00397614
7.15371e-05
0.00391145
6.43204e-05
0.00385458
5.66115e-05
0.00380426
5.0195e-05
0.00375961
4.46706e-05
0.00371918
4.05858e-05
0.00368217
3.7313e-05
0.00364951
3.31123e-05
0.00361626
3.3856e-05
0.00363292
-1.59164e-05
6.29917e-05
0.00357091
0.0144986
0.0027999
0.0140439
0.00345973
0.0132339
0.00241167
0.0124727
0.0015682
0.011828
0.00105068
0.0113272
0.00071353
0.0109541
0.000498526
0.0106718
0.000373047
0.0104485
0.000301591
0.0102635
0.000256067
0.0101069
0.000220543
0.00997107
0.000192156
0.00985336
0.000167783
0.00974711
0.000150941
0.00965504
0.000132807
0.00956559
0.000127069
0.00949577
0.000103401
0.00940887
0.000121376
0.00935679
3.69242e-05
0.000166611
0.00925409
0.0147466
0.00189635
0.0155547
0.0026506
0.0159192
0.00204627
0.0160078
0.00147871
0.0159125
0.00114507
0.015731
0.000894183
0.0155253
0.000703464
0.0153225
0.000575151
0.0151314
0.000492165
0.0149533
0.000433645
0.0147907
0.000382691
0.0146418
0.000340886
0.0145084
0.000300978
0.0143849
0.000274531
0.014277
0.00024081
0.0141716
0.00023278
0.014086
0.000189536
0.0139895
0.000218426
0.0139091
0.000118177
0.000261683
0.0138149
0.0145576
0.00118175
0.0154738
0.00173338
0.0161562
0.00136297
0.0166453
0.000988689
0.0169812
0.00080828
0.0172047
0.00066992
0.0173515
0.000555852
0.0174482
0.000477754
0.0175101
0.000429665
0.017546
0.000397236
0.0175617
0.000366622
0.0175612
0.000341093
0.0175492
0.000312905
0.017527
0.000296746
0.0174999
0.000268069
0.0174653
0.000267669
0.0174301
0.00022527
0.0173901
0.000259048
0.0173343
0.000174706
0.000299463
0.0172975
0.0144573
0.000567433
0.0153302
0.000859452
0.0160138
0.00067841
0.0165158
0.000485844
0.016922
0.0004012
0.0172541
0.00033695
0.0175274
0.000281758
0.0177604
0.000244107
0.0179672
0.000222304
0.0181543
0.000209573
0.0183236
0.000196986
0.0184762
0.000188163
0.0186131
0.000175958
0.0187367
0.000173137
0.0188458
0.000159069
0.0189464
0.000167444
0.0190285
0.000143645
0.0191125
0.000175694
0.0191561
0.000131823
0.000218219
0.0192383
0.0144104
9.43457e-09
0.0152688
-6.39303e-09
0.0159463
-7.89336e-09
0.0164312
3.62254e-08
0.0168316
-1.68232e-08
0.0171676
5.26176e-08
0.0174486
1.01413e-10
0.0176919
1.22634e-07
0.0179136
3.76138e-08
0.0181223
3.47511e-07
0.0183187
1.86162e-07
0.0185056
1.03091e-06
0.0186807
7.03302e-07
0.0188508
3.03689e-06
0.0190076
2.47073e-06
0.0191665
8.84863e-06
0.0193024
8.23757e-06
0.0194538
2.4901e-05
0.0195624
2.40175e-05
5.986e-05
0.0197217
0.0144104
-0.000567412
0.0152689
-0.000859473
0.0159463
-0.000678401
0.0164312
-0.000485798
0.0168316
-0.000401215
0.0171676
-0.000336861
0.0174486
-0.000281743
0.0176919
-0.000243878
0.0179136
-0.000222216
0.0181223
-0.000208901
0.0183187
-0.000196599
0.0185056
-0.000186148
0.0186807
-0.000174534
0.018851
-0.000167183
0.0190078
-0.000154159
0.019167
-0.000150071
0.0193033
-0.000127535
0.0194553
-0.000126523
0.019565
-8.49281e-05
-9.76897e-05
0.0197235
0.0144573
-0.00118173
0.0153302
-0.00173339
0.0160138
-0.00136294
0.0165158
-0.000988666
0.016922
-0.000808299
0.0172541
-0.000669819
0.0175275
-0.000555864
0.0177604
-0.0004775
0.0179672
-0.000429633
0.0181543
-0.000396534
0.0183237
-0.000366342
0.0184764
-0.000339106
0.0186134
-0.000311703
0.0187373
-0.000291074
0.0188471
-0.000263798
0.0189488
-0.000251448
0.0190331
-0.000211335
0.0191203
-0.000213086
0.0191691
-0.000132964
-0.000181027
0.0192534
0.0145576
-0.00189635
0.0154738
-0.00265058
0.0161562
-0.0020463
0.0166453
-0.00147865
0.0169813
-0.00114513
0.0172046
-0.000894028
0.0173516
-0.000703562
0.0174482
-0.000574821
0.0175102
-0.000492281
0.0175461
-0.000432872
0.0175621
-0.000382703
0.0175616
-0.000338928
0.0175502
-0.000300447
0.0175285
-0.00026931
0.0175032
-0.000238337
0.0174706
-0.000218503
0.0174405
-0.000180755
0.0174068
-0.000178841
0.0173621
-8.73979e-05
-0.000148644
0.0173306
0.0147466
-0.0027999
0.0155547
-0.00345969
0.0159192
-0.00241172
0.0160078
-0.00156814
0.0159125
-0.00105072
0.0157311
-0.00071344
0.0155253
-0.000498556
0.0153227
-0.000372877
0.0151314
-0.000301593
0.0149537
-0.000255647
0.014791
-0.000220435
0.0146428
-0.000190993
0.0145095
-0.000167308
0.0143879
-0.000147604
0.014281
-0.000131282
0.0141804
-0.0001176
0.0140991
-9.90373e-05
0.0140157
-9.47376e-05
0.0139492
-2.01565e-05
-7.93285e-05
0.0138808
0.0144986
-0.00345545
0.0140439
-0.00300593
0.0132338
-0.0016026
0.0124727
-0.000807912
0.011828
-0.000406918
0.0113272
-0.000213469
0.0109541
-0.000126149
0.010672
-9.14857e-05
0.0104486
-7.88166e-05
0.0102639
-7.14326e-05
0.0101072
-6.41774e-05
0.00997224
-5.62454e-05
0.00985462
-4.98146e-05
0.00975056
-4.35288e-05
0.00965898
-3.9544e-05
0.00957569
-3.40088e-05
0.00950766
-3.05317e-05
0.0094394
-2.58575e-05
0.00939692
2.30871e-05
-3.29358e-05
0.00935146
0.0103878
0.00738097
0.00577749
0.00496871
0.00456096
0.0043467
0.00421982
0.00412767
0.00404828
0.00397636
0.00391182
0.00385532
0.00380538
0.00376186
0.00372247
0.00368875
0.00365868
0.00363345
0.00365728
0.00362524
0.0034811
9.40688e-05
0.00342049
6.53253e-05
0.00335394
7.13228e-05
0.00332354
3.4467e-05
0.00330914
1.7027e-05
0.00329835
1.14557e-05
0.00328883
8.02457e-06
0.0032792
6.16173e-06
0.00326872
5.57139e-06
0.00325766
5.4651e-06
0.00324691
5.34192e-06
0.0032375
5.04699e-06
0.00323023
4.58963e-06
0.00322557
4.0391e-06
0.00322354
3.48159e-06
0.00322374
2.99433e-06
0.00322548
2.62928e-06
0.00322789
2.40649e-06
0.00323011
2.3155e-06
0.00323146
2.32265e-06
0.00323154
2.38244e-06
0.0032302
2.44975e-06
0.00322757
2.48981e-06
0.00322391
2.48319e-06
0.00321961
2.42619e-06
0.00321509
2.32818e-06
0.00321071
2.20758e-06
0.00320675
2.08684e-06
0.00320335
1.98654e-06
0.0032005
1.91993e-06
0.0031981
1.88968e-06
0.00319602
1.88851e-06
0.00319413
1.90369e-06
0.00319239
1.92309e-06
0.0031908
1.9398e-06
0.00318942
1.95411e-06
0.00318832
1.97327e-06
0.00318758
2.0106e-06
0.00318725
2.08388e-06
0.00318731
2.21295e-06
0.00318772
2.4161e-06
0.00318835
2.70649e-06
0.00318909
3.08998e-06
0.00318979
3.56495e-06
0.00319033
4.12382e-06
0.0031906
4.75542e-06
0.00319054
5.44701e-06
0.00319011
6.18562e-06
0.00318934
6.95836e-06
0.00318832
7.7526e-06
0.00318721
8.5569e-06
0.00318618
9.36247e-06
0.00318544
1.01641e-05
0.00318516
1.09594e-05
0.00318548
1.17473e-05
0.00318648
1.25263e-05
0.00318819
1.32944e-05
0.00319062
1.40494e-05
0.00319369
1.47895e-05
0.00319729
1.55126e-05
0.0032013
1.62159e-05
0.00320559
1.68961e-05
0.00321002
1.75502e-05
0.00321449
1.81759e-05
0.00321892
1.87709e-05
0.00322326
1.9332e-05
0.00322748
1.98563e-05
0.00323159
2.03417e-05
0.00323554
2.07887e-05
0.00323933
2.11959e-05
0.00324293
2.15626e-05
0.00324632
2.18832e-05
0.00324952
2.21588e-05
0.00325255
2.23828e-05
0.00325548
2.2565e-05
0.0032584
2.26918e-05
0.0032614
2.27875e-05
0.00326465
2.28211e-05
0.00326821
2.28553e-05
0.00327222
2.281e-05
0.00327665
2.28287e-05
0.00328165
2.26975e-05
0.003287
2.27631e-05
0.00329296
2.24963e-05
0.00329887
2.27546e-05
0.00330537
2.2221e-05
0.00331098
2.29853e-05
0.00331752
2.179e-05
0.00332179
2.36794e-05
2.19856e-05
0.00896597
0.000386385
0.0088023
0.000233885
0.00866911
0.000209414
0.00859362
0.000114067
0.00855229
6.09385e-05
0.00852517
3.91122e-05
0.0085043
2.72165e-05
0.00848574
2.10472e-05
0.00846751
1.86655e-05
0.00844927
1.7933e-05
0.0084316
1.74851e-05
0.00841543
1.67962e-05
0.00840158
1.57831e-05
0.00839052
1.45384e-05
0.00838235
1.3213e-05
0.00837673
1.19579e-05
0.00837299
1.08882e-05
0.00837029
1.00669e-05
0.00836778
9.50245e-06
0.00836473
9.15731e-06
0.0083607
8.96443e-06
0.00835547
8.84745e-06
0.00834911
8.73825e-06
0.00834184
8.58799e-06
0.00833403
8.37109e-06
0.00832606
8.08484e-06
0.00831832
7.74648e-06
0.00831111
7.38746e-06
0.0083046
7.04466e-06
0.0082988
6.7497e-06
0.00829363
6.52006e-06
0.00828895
6.35632e-06
0.00828463
6.24639e-06
0.00828056
6.17385e-06
0.00827674
6.12556e-06
0.00827318
6.09575e-06
0.00826994
6.0874e-06
0.00826709
6.11251e-06
0.0082647
6.19165e-06
0.00826277
6.35144e-06
0.00826129
6.61955e-06
0.00826018
7.01884e-06
0.00825935
7.56296e-06
0.0082587
8.25507e-06
0.00825813
9.08905e-06
0.00825755
1.0052e-05
0.0082569
1.11265e-05
0.00825617
1.22921e-05
0.00825538
1.35257e-05
0.00825464
1.48021e-05
0.00825409
1.60971e-05
0.00825394
1.73908e-05
0.00825441
1.86709e-05
0.00825567
1.99322e-05
0.00825788
2.11738e-05
0.00826114
2.23967e-05
0.00826549
2.36019e-05
0.0082709
2.47907e-05
0.00827729
2.59642e-05
0.00828456
2.71213e-05
0.00829253
2.82576e-05
0.00830107
2.93655e-05
0.00831003
3.04362e-05
0.00831929
3.14617e-05
0.00832877
3.24343e-05
0.00833839
3.33457e-05
0.00834814
3.41902e-05
0.00835799
3.49654e-05
0.00836791
3.56741e-05
0.00837787
3.63175e-05
0.00838782
3.68972e-05
0.00839772
3.74066e-05
0.00840757
3.78474e-05
0.00841738
3.82098e-05
0.00842718
3.85055e-05
0.00843703
3.87141e-05
0.00844704
3.88671e-05
0.00845733
3.89203e-05
0.00846798
3.89642e-05
0.0084791
3.88869e-05
0.00849067
3.89012e-05
0.00850278
3.86923e-05
0.00851529
3.87863e-05
0.00852829
3.8371e-05
0.00854135
3.87902e-05
0.00855477
3.79398e-05
0.00856754
3.92187e-05
0.0085808
3.72448e-05
0.00859237
4.0412e-05
3.75271e-05
0.0133515
0.000853885
0.0131188
0.000471561
0.0129685
0.000364706
0.0128798
0.000207021
0.0128291
0.000114376
0.012796
7.2893e-05
0.0127697
5.18451e-05
0.0127455
4.15457e-05
0.0127216
3.74088e-05
0.0126977
3.5915e-05
0.0126745
3.49513e-05
0.0126531
3.36671e-05
0.0126343
3.19038e-05
0.0126184
2.9784e-05
0.0126057
2.75219e-05
0.0125957
2.53338e-05
0.0125879
2.33891e-05
0.0125812
2.17868e-05
0.012575
2.05521e-05
0.0125684
1.96464e-05
0.012561
1.89891e-05
0.0125526
1.84833e-05
0.0125431
1.80382e-05
0.012533
1.75833e-05
0.0125223
1.70744e-05
0.0125117
1.64952e-05
0.0125013
1.58565e-05
0.0124916
1.51914e-05
0.0124826
1.45452e-05
0.0124744
1.39616e-05
0.0124669
1.34686e-05
0.01246
1.30728e-05
0.0124535
1.27629e-05
0.0124473
1.25192e-05
0.0124414
1.23237e-05
0.0124358
1.21661e-05
0.0124307
1.20455e-05
0.0124259
1.19721e-05
0.0124217
1.19669e-05
0.012418
1.20591e-05
0.0124149
1.22807e-05
0.0124121
1.26594e-05
0.0124098
1.32131e-05
0.0124077
1.39479e-05
0.0124059
1.48594e-05
0.0124042
1.59342e-05
0.0124026
1.71528e-05
0.0124011
1.84898e-05
0.0123997
1.9915e-05
0.0123986
2.13949e-05
0.0123979
2.2896e-05
0.0123978
2.43912e-05
0.0123986
2.58638e-05
0.0124005
2.73072e-05
0.0124036
2.87217e-05
0.012408
3.01104e-05
0.0124137
3.14776e-05
0.0124209
3.28281e-05
0.0124292
3.4167e-05
0.0124388
3.54958e-05
0.0124493
3.68107e-05
0.0124607
3.81023e-05
0.0124728
3.93588e-05
0.0124854
4.05676e-05
0.0124985
4.17164e-05
0.012512
4.27927e-05
0.0125259
4.37874e-05
0.01254
4.46976e-05
0.0125544
4.55269e-05
0.0125691
4.62793e-05
0.0125838
4.69569e-05
0.0125987
4.75553e-05
0.0126137
4.80729e-05
0.0126287
4.8503e-05
0.0126439
4.88502e-05
0.0126591
4.91001e-05
0.0126746
4.92702e-05
0.0126904
4.93328e-05
0.0127067
4.93557e-05
0.0127234
4.92664e-05
0.0127406
4.92323e-05
0.0127583
4.90092e-05
0.0127765
4.90389e-05
0.0127951
4.86258e-05
0.0128139
4.89896e-05
0.0128328
4.81682e-05
0.0128515
4.94371e-05
0.0128699
4.75249e-05
0.0128879
5.07153e-05
4.77798e-05
0.0169507
0.00120476
0.0167228
0.000704415
0.0166101
0.000482518
0.0165515
0.000269981
0.0165174
0.000151314
0.0164928
9.82699e-05
0.0164698
7.31674e-05
0.0164457
6.1865e-05
0.0164202
5.74951e-05
0.0163943
5.57716e-05
0.016369
5.43986e-05
0.0163455
5.25022e-05
0.0163247
4.9963e-05
0.0163069
4.69639e-05
0.0162922
4.37796e-05
0.0162804
4.06777e-05
0.0162706
3.78674e-05
0.0162621
3.54749e-05
0.016254
3.35382e-05
0.0162457
3.202e-05
0.0162365
3.08319e-05
0.0162264
2.98648e-05
0.0162153
2.90134e-05
0.0162034
2.81926e-05
0.0161912
2.73436e-05
0.0161789
2.64374e-05
0.016167
2.54756e-05
0.0161557
2.4488e-05
0.0161452
2.35232e-05
0.0161355
2.26321e-05
0.0161265
2.18512e-05
0.0161181
2.11929e-05
0.0161102
2.06474e-05
0.0161027
2.0193e-05
0.0160955
1.98078e-05
0.0160886
1.94769e-05
0.0160821
1.9196e-05
0.0160761
1.89724e-05
0.0160706
1.88259e-05
0.0160656
1.87857e-05
0.0160612
1.88845e-05
0.0160573
1.91513e-05
0.0160538
1.96052e-05
0.0160506
2.02539e-05
0.0160476
2.1094e-05
0.0160449
2.21127e-05
0.0160424
2.32892e-05
0.01604
2.45951e-05
0.0160379
2.59954e-05
0.0160362
2.74502e-05
0.016035
2.89202e-05
0.0160346
3.03738e-05
0.0160353
3.17923e-05
0.0160372
3.31697e-05
0.0160405
3.45087e-05
0.0160454
3.58157e-05
0.0160519
3.70988e-05
0.01606
3.83668e-05
0.0160695
3.9629e-05
0.0160805
4.08905e-05
0.0160927
4.21497e-05
0.016106
4.33979e-05
0.0161202
4.46218e-05
0.0161352
4.58067e-05
0.016151
4.6937e-05
0.0161674
4.79972e-05
0.0161843
4.89755e-05
0.0162018
4.98683e-05
0.0162197
5.06796e-05
0.016238
5.14159e-05
0.0162566
5.20786e-05
0.0162755
5.26662e-05
0.0162946
5.31729e-05
0.0163139
5.35971e-05
0.0163334
5.39326e-05
0.0163532
5.41762e-05
0.0163732
5.43218e-05
0.0163936
5.43712e-05
0.0164146
5.43464e-05
0.016436
5.42446e-05
0.016458
5.41367e-05
0.0164805
5.39248e-05
0.0165035
5.38467e-05
0.0165269
5.35075e-05
0.0165506
5.37104e-05
0.0165742
5.30996e-05
0.016598
5.40671e-05
0.0166209
5.26837e-05
0.0166441
5.52023e-05
5.28935e-05
0.0194847
0.000962461
0.0194888
0.000705333
0.0195041
0.000472421
0.019524
0.000254517
0.0195295
0.000148768
0.0195233
0.000105221
0.019509
8.58537e-05
0.0194893
7.76476e-05
0.019467
7.43364e-05
0.019444
7.24967e-05
0.0194219
7.05387e-05
0.0194016
6.79424e-05
0.019384
6.47138e-05
0.0193693
6.1067e-05
0.0193574
5.72767e-05
0.019348
5.3605e-05
0.0193405
5.0259e-05
0.0193339
4.73671e-05
0.0193275
4.49708e-05
0.0193205
4.30348e-05
0.0193127
4.14703e-05
0.0193036
4.01653e-05
0.0192935
3.90107e-05
0.0192825
3.79157e-05
0.019271
3.68146e-05
0.0192593
3.56696e-05
0.019248
3.44737e-05
0.0192371
3.32505e-05
0.019227
3.20468e-05
0.0192176
3.09165e-05
0.0192089
2.9902e-05
0.0192008
2.90217e-05
0.0191931
2.82699e-05
0.0191857
2.76259e-05
0.0191786
2.70662e-05
0.0191719
2.6573e-05
0.0191655
2.61382e-05
0.0191595
2.57662e-05
0.0191541
2.54741e-05
0.0191491
2.5289e-05
0.0191446
2.52418e-05
0.0191406
2.53596e-05
0.019137
2.56603e-05
0.0191336
2.61513e-05
0.0191305
2.68295e-05
0.0191275
2.76828e-05
0.0191248
2.86909e-05
0.0191222
2.98244e-05
0.0191199
3.10457e-05
0.019118
3.23112e-05
0.0191168
3.35778e-05
0.0191163
3.48114e-05
0.019117
3.59927e-05
0.019119
3.71176e-05
0.0191225
3.81918e-05
0.0191277
3.92258e-05
0.0191347
4.02318e-05
0.0191433
4.12231e-05
0.0191537
4.22133e-05
0.0191656
4.32119e-05
0.0191789
4.42205e-05
0.0191934
4.52324e-05
0.0192091
4.62354e-05
0.0192258
4.72147e-05
0.0192434
4.81532e-05
0.0192618
4.9034e-05
0.019281
4.98437e-05
0.0193008
5.05791e-05
0.0193213
5.12436e-05
0.0193424
5.1846e-05
0.0193639
5.23868e-05
0.0193858
5.28674e-05
0.0194081
5.32785e-05
0.0194307
5.36227e-05
0.0194536
5.38846e-05
0.0194768
5.40701e-05
0.0195005
5.41532e-05
0.0195246
5.41587e-05
0.0195492
5.40694e-05
0.0195744
5.39396e-05
0.0196003
5.37553e-05
0.0196266
5.35486e-05
0.0196535
5.33653e-05
0.0196808
5.3108e-05
0.0197085
5.31319e-05
0.0197359
5.2784e-05
0.0197637
5.33529e-05
0.0197905
5.26283e-05
0.0198177
5.42424e-05
5.28785e-05
0.0205905
9.77261e-05
0.0210984
0.000202468
0.0213989
0.000177214
0.0215278
0.000130095
0.0215556
0.000123935
0.0215448
0.000116802
0.0215229
0.000106139
0.0214995
9.72212e-05
0.0214778
9.03922e-05
0.0214591
8.48343e-05
0.0214435
7.99766e-05
0.021431
7.54773e-05
0.0214216
7.11631e-05
0.0214151
6.6992e-05
0.021411
6.30137e-05
0.0214089
5.93248e-05
0.021408
5.6026e-05
0.0214076
5.31876e-05
0.0214069
5.08264e-05
0.0214053
4.89014e-05
0.0214022
4.73278e-05
0.0213977
4.60005e-05
0.0213917
4.48177e-05
0.0213846
4.36937e-05
0.0213767
4.25653e-05
0.0213686
4.1393e-05
0.0213604
4.01648e-05
0.0213526
3.88977e-05
0.0213454
3.76334e-05
0.0213387
3.64243e-05
0.0213326
3.53155e-05
0.0213269
3.43317e-05
0.0213216
3.34737e-05
0.0213165
3.27258e-05
0.0213116
3.20665e-05
0.021307
3.1477e-05
0.0213027
3.09469e-05
0.0212986
3.0477e-05
0.0212951
3.00811e-05
0.0212919
2.97825e-05
0.0212892
2.96086e-05
0.0212868
2.95826e-05
0.0212848
2.97196e-05
0.0212829
3.0025e-05
0.0212813
3.04958e-05
0.0212797
3.11213e-05
0.0212782
3.18832e-05
0.0212769
3.27539e-05
0.0212757
3.36963e-05
0.021275
3.46664e-05
0.0212747
3.56199e-05
0.0212753
3.65218e-05
0.0212769
3.73533e-05
0.0212798
3.8112e-05
0.0212843
3.88067e-05
0.0212904
3.94516e-05
0.0212983
4.00635e-05
0.0213079
4.06599e-05
0.0213192
4.12588e-05
0.0213321
4.18733e-05
0.0213465
4.25086e-05
0.0213621
4.31612e-05
0.021379
4.38211e-05
0.0213969
4.44748e-05
0.0214159
4.51058e-05
0.0214357
4.56971e-05
0.0214564
4.62353e-05
0.0214779
4.67175e-05
0.0215001
4.71476e-05
0.0215229
4.75348e-05
0.0215463
4.78805e-05
0.0215702
4.81864e-05
0.0215945
4.84434e-05
0.0216192
4.86538e-05
0.0216443
4.8801e-05
0.0216698
4.88891e-05
0.0216957
4.88893e-05
0.0217222
4.88256e-05
0.0217492
4.86738e-05
0.0217769
4.84976e-05
0.0218052
4.82587e-05
0.021834
4.80386e-05
0.0218635
4.77838e-05
0.0218933
4.75937e-05
0.0219235
4.7457e-05
0.0219535
4.73754e-05
0.0219838
4.75399e-05
0.0220132
4.74274e-05
0.022043
4.81353e-05
4.78432e-05
0.0206025
-0.000777128
0.0211223
-0.000312267
0.0214442
-0.000139521
0.0215881
-9.28806e-06
0.0216291
8.59361e-05
0.0216313
0.000115459
0.021622
0.000113852
0.0216108
0.000104545
0.021601
9.45145e-05
0.0215938
8.56054e-05
0.0215892
7.82753e-05
0.0215873
7.23529e-05
0.021588
6.74724e-05
0.021591
6.33182e-05
0.021596
5.96954e-05
0.0216025
5.65152e-05
0.0216098
5.37554e-05
0.0216171
5.14166e-05
0.0216237
4.94859e-05
0.021629
4.79181e-05
0.0216326
4.6638e-05
0.0216343
4.55559e-05
0.0216344
4.45853e-05
0.0216331
4.3654e-05
0.0216308
4.27071e-05
0.0216279
4.17086e-05
0.0216249
4.06435e-05
0.0216221
3.95223e-05
0.0216196
3.83789e-05
0.0216176
3.72609e-05
0.0216159
3.62132e-05
0.0216146
3.5265e-05
0.0216135
3.44241e-05
0.0216126
3.36815e-05
0.0216117
3.30197e-05
0.021611
3.24213e-05
0.0216105
3.18745e-05
0.0216103
3.13775e-05
0.0216104
3.09396e-05
0.0216108
3.05794e-05
0.0216117
3.03189e-05
0.0216128
3.01767e-05
0.0216141
3.01641e-05
0.0216156
3.0285e-05
0.0216171
3.05373e-05
0.0216187
3.09131e-05
0.0216203
3.13982e-05
0.0216219
3.19694e-05
0.0216236
3.25937e-05
0.0216256
3.323e-05
0.021628
3.38363e-05
0.021631
3.43793e-05
0.021635
3.48414e-05
0.0216402
3.52217e-05
0.0216468
3.55309e-05
0.0216549
3.57858e-05
0.0216646
3.6006e-05
0.0216759
3.6212e-05
0.0216888
3.64244e-05
0.0217032
3.66591e-05
0.0217189
3.69243e-05
0.0217358
3.72192e-05
0.0217538
3.75361e-05
0.0217727
3.78635e-05
0.0217926
3.81857e-05
0.0218132
3.84869e-05
0.0218346
3.87542e-05
0.0218567
3.89849e-05
0.0218795
3.91832e-05
0.0219029
3.93584e-05
0.0219267
3.95122e-05
0.021951
3.96469e-05
0.0219756
3.97543e-05
0.0220006
3.9836e-05
0.022026
3.98754e-05
0.0220517
3.9875e-05
0.0220779
3.98048e-05
0.0221046
3.96872e-05
0.0221318
3.94919e-05
0.0221597
3.92905e-05
0.0221882
3.90174e-05
0.0222172
3.88097e-05
0.0222468
3.84976e-05
0.0222768
3.84053e-05
0.0223072
3.80972e-05
0.0223374
3.83271e-05
0.0223679
3.80117e-05
0.0223973
3.86266e-05
0.0224275
3.81969e-05
3.9197e-05
0.019523
-0.00104266
0.0195651
-0.000349344
0.019631
-0.000200169
0.0196944
-6.81376e-05
0.0197448
3.85698e-05
0.0197822
7.89883e-05
0.0198081
8.63018e-05
0.0198257
8.29961e-05
0.0198383
7.63053e-05
0.0198482
6.9187e-05
0.0198572
6.30035e-05
0.0198664
5.80418e-05
0.0198767
5.41029e-05
0.0198884
5.09029e-05
0.0199016
4.82237e-05
0.0199158
4.59376e-05
0.0199307
4.39889e-05
0.0199454
4.23586e-05
0.0199592
4.10301e-05
0.0199715
3.99681e-05
0.019982
3.91158e-05
0.0199905
3.84053e-05
0.0199972
3.77706e-05
0.0200023
3.71555e-05
0.0200063
3.65153e-05
0.0200096
3.58171e-05
0.0200126
3.50439e-05
0.0200157
3.41995e-05
0.020019
3.33094e-05
0.0200226
3.24148e-05
0.0200265
3.15582e-05
0.0200306
3.07707e-05
0.0200348
3.00656e-05
0.020039
2.94396e-05
0.0200432
2.88803e-05
0.0200475
2.83728e-05
0.0200519
2.79056e-05
0.0200564
2.74747e-05
0.0200612
2.70851e-05
0.0200663
2.67494e-05
0.0200716
2.64831e-05
0.0200772
2.62993e-05
0.0200829
2.62062e-05
0.0200885
2.62075e-05
0.0200942
2.63029e-05
0.0200998
2.64888e-05
0.0201052
2.6756e-05
0.0201106
2.70872e-05
0.0201158
2.74551e-05
0.0201212
2.78244e-05
0.0201268
2.8158e-05
0.0201328
2.84268e-05
0.0201397
2.86153e-05
0.0201474
2.87233e-05
0.0201564
2.8762e-05
0.0201667
2.87483e-05
0.0201783
2.87019e-05
0.0201913
2.86442e-05
0.0202056
2.8596e-05
0.0202211
2.85746e-05
0.0202377
2.85895e-05
0.0202553
2.86418e-05
0.0202737
2.87257e-05
0.0202929
2.88308e-05
0.0203126
2.89427e-05
0.020333
2.90465e-05
0.0203539
2.91301e-05
0.0203753
2.91914e-05
0.0203972
2.92342e-05
0.0204194
2.92676e-05
0.020442
2.92935e-05
0.0204649
2.9316e-05
0.0204881
2.93264e-05
0.0205114
2.93288e-05
0.020535
2.93032e-05
0.0205589
2.92579e-05
0.0205832
2.91526e-05
0.0206078
2.90246e-05
0.020633
2.88143e-05
0.0206588
2.86341e-05
0.0206851
2.83444e-05
0.0207119
2.8199e-05
0.0207394
2.78334e-05
0.0207671
2.7885e-05
0.0207953
2.73973e-05
0.0208232
2.79676e-05
0.0208515
2.71188e-05
0.0208786
2.85882e-05
0.0209066
2.68123e-05
2.91616e-05
0.0170266
-0.000734598
0.0168685
-0.000186218
0.0168336
-0.000159952
0.0168401
-7.00916e-05
0.0168698
1.19019e-05
0.0169056
4.40638e-05
0.0169376
5.27066e-05
0.0169634
5.32356e-05
0.0169839
5.01182e-05
0.0170007
4.58625e-05
0.0170155
4.19232e-05
0.0170297
3.87431e-05
0.0170444
3.62601e-05
0.0170603
3.42901e-05
0.0170775
3.26729e-05
0.0170959
3.13091e-05
0.0171148
3.01545e-05
0.0171337
2.91974e-05
0.0171517
2.84319e-05
0.0171682
2.78399e-05
0.0171829
2.73873e-05
0.0171957
2.70302e-05
0.0172066
2.67236e-05
0.0172159
2.64265e-05
0.0172241
2.61027e-05
0.0172316
2.57223e-05
0.0172387
2.52663e-05
0.0172459
2.47328e-05
0.0172532
2.41399e-05
0.0172609
2.35212e-05
0.0172688
2.29144e-05
0.0172768
2.23499e-05
0.0172848
2.18435e-05
0.0172928
2.1397e-05
0.0173008
2.10027e-05
0.0173087
2.06491e-05
0.0173167
2.03259e-05
0.0173248
2.00267e-05
0.0173331
1.97519e-05
0.0173416
1.95072e-05
0.0173503
1.93011e-05
0.0173591
1.91419e-05
0.0173679
1.90356e-05
0.0173767
1.89863e-05
0.0173854
1.89968e-05
0.0173938
1.90675e-05
0.017402
1.91945e-05
0.01741
1.93665e-05
0.0174177
1.95632e-05
0.0174254
1.9757e-05
0.0174331
1.99182e-05
0.0174411
2.00228e-05
0.0174496
2.0058e-05
0.0174589
2.00237e-05
0.0174692
1.99294e-05
0.0174805
1.97901e-05
0.0174929
1.96236e-05
0.0175064
1.94498e-05
0.017521
1.9288e-05
0.0175365
1.91546e-05
0.0175529
1.90589e-05
0.0175699
1.90027e-05
0.0175876
1.89806e-05
0.0176056
1.8983e-05
0.0176241
1.89963e-05
0.0176429
1.90072e-05
0.017662
1.90049e-05
0.0176814
1.89878e-05
0.017701
1.89591e-05
0.0177208
1.89279e-05
0.0177408
1.88961e-05
0.0177609
1.88698e-05
0.0177811
1.884e-05
0.0178014
1.88142e-05
0.0178218
1.87688e-05
0.0178424
1.87197e-05
0.0178633
1.86163e-05
0.0178845
1.85136e-05
0.0179061
1.83208e-05
0.0179283
1.81938e-05
0.0179509
1.79172e-05
0.0179741
1.78585e-05
0.0179978
1.74714e-05
0.0180219
1.76657e-05
0.0180463
1.70518e-05
0.0180705
1.78873e-05
0.018095
1.66328e-05
0.0181184
1.87653e-05
0.0181425
1.59169e-05
1.92053e-05
0.0134701
-0.000319847
0.0133406
-5.16288e-05
0.0132847
-9.88733e-05
0.0132645
-4.52628e-05
0.0132772
2.2545e-06
0.0133027
1.9406e-05
0.0133288
2.49549e-05
0.0133517
2.64038e-05
0.0133708
2.5378e-05
0.0133867
2.34105e-05
0.0134008
2.15111e-05
0.0134145
1.99938e-05
0.0134287
1.8836e-05
0.0134443
1.7934e-05
0.0134614
1.71946e-05
0.0134799
1.65608e-05
0.0134993
1.60125e-05
0.0135186
1.55529e-05
0.0135373
1.51905e-05
0.0135547
1.49265e-05
0.0135703
1.47496e-05
0.013584
1.46386e-05
0.013596
1.45668e-05
0.0136066
1.45055e-05
0.013616
1.44253e-05
0.0136248
1.42989e-05
0.0136332
1.41066e-05
0.0136418
1.38426e-05
0.0136506
1.35178e-05
0.0136597
1.31575e-05
0.0136691
1.27926e-05
0.0136786
1.24501e-05
0.0136881
1.2147e-05
0.0136976
1.18888e-05
0.0137069
1.16725e-05
0.0137163
1.149e-05
0.0137257
1.13314e-05
0.0137352
1.11881e-05
0.0137448
1.10547e-05
0.0137547
1.093e-05
0.0137646
1.08163e-05
0.0137747
1.07177e-05
0.0137848
1.06391e-05
0.0137947
1.05855e-05
0.0138044
1.05626e-05
0.0138139
1.05743e-05
0.013823
1.06215e-05
0.0138317
1.0699e-05
0.0138401
1.07945e-05
0.0138483
1.0889e-05
0.0138564
1.09612e-05
0.0138646
1.09932e-05
0.0138732
1.09749e-05
0.0138824
1.09054e-05
0.0138922
1.07913e-05
0.0139029
1.06441e-05
0.0139145
1.04785e-05
0.013927
1.03108e-05
0.0139403
1.01569e-05
0.0139544
1.00302e-05
0.013969
9.93782e-06
0.013984
9.88023e-06
0.0139994
9.85181e-06
0.014015
9.84315e-06
0.0140308
9.84213e-06
0.0140467
9.83757e-06
0.0140627
9.82086e-06
0.0140787
9.79135e-06
0.0140948
9.75189e-06
0.014111
9.71134e-06
0.0141271
9.67171e-06
0.0141432
9.64042e-06
0.0141593
9.60949e-06
0.0141753
9.58795e-06
0.0141914
9.55258e-06
0.0142075
9.52294e-06
0.0142238
9.44752e-06
0.0142404
9.38712e-06
0.0142574
9.24108e-06
0.0142749
9.17666e-06
0.0142928
8.95385e-06
0.0143112
8.97165e-06
0.0143302
8.63029e-06
0.0143494
8.90321e-06
0.014369
8.29889e-06
0.0143885
9.19319e-06
0.014408
7.872e-06
0.014427
1.01082e-05
0.0144457
7.00264e-06
1.03642e-05
0.00910495
-6.92922e-05
0.00906172
-3.35448e-06
0.00900896
-4.08401e-05
0.0089839
-1.56122e-05
0.00898872
4.73519e-07
0.00900409
4.86927e-06
0.00902083
6.58401e-06
0.00903601
7.29816e-06
0.00904864
7.09413e-06
0.009059
6.54842e-06
0.00906815
6.05114e-06
0.00907731
5.69601e-06
0.00908751
5.45253e-06
0.0090994
5.26758e-06
0.00911317
5.09769e-06
0.00912858
4.92044e-06
0.00914504
4.736e-06
0.00916179
4.56046e-06
0.00917801
4.41536e-06
0.00919306
4.31805e-06
0.00920653
4.27615e-06
0.00921825
4.28621e-06
0.00922832
4.33517e-06
0.00923701
4.40281e-06
0.0092447
4.46473e-06
0.00925182
4.49641e-06
0.00925876
4.47869e-06
0.00926585
4.403e-06
0.00927328
4.27422e-06
0.00928109
4.10911e-06
0.00928919
3.93098e-06
0.00929748
3.76271e-06
0.00930582
3.6214e-06
0.00931415
3.51601e-06
0.00932243
3.44752e-06
0.0093307
3.4105e-06
0.00933902
3.39518e-06
0.00934747
3.39009e-06
0.00935609
3.38485e-06
0.0093649
3.37239e-06
0.00937387
3.34979e-06
0.0093829
3.31802e-06
0.00939191
3.28113e-06
0.00940077
3.24531e-06
0.00940938
3.21784e-06
0.00941764
3.20555e-06
0.00942548
3.21294e-06
0.00943286
3.24029e-06
0.00943981
3.28253e-06
0.00944641
3.32945e-06
0.00945282
3.36815e-06
0.00945922
3.38662e-06
0.00946585
3.37709e-06
0.00947288
3.3376e-06
0.00948047
3.27174e-06
0.00948872
3.1872e-06
0.00949768
3.0944e-06
0.00950733
3.00493e-06
0.00951762
2.92991e-06
0.00952844
2.87765e-06
0.00953964
2.85165e-06
0.0095511
2.85006e-06
0.0095627
2.86651e-06
0.00957433
2.89226e-06
0.00958593
2.91767e-06
0.00959746
2.93478e-06
0.00960891
2.93825e-06
0.00962028
2.92835e-06
0.00963156
2.90811e-06
0.00964273
2.88468e-06
0.00965377
2.86121e-06
0.00966467
2.84385e-06
0.00967542
2.82852e-06
0.00968605
2.82116e-06
0.00969661
2.80698e-06
0.00970718
2.79824e-06
0.00971787
2.76196e-06
0.00972881
2.7371e-06
0.00974009
2.65899e-06
0.00975182
2.63575e-06
0.00976398
2.51384e-06
0.00977668
2.55016e-06
0.00978976
2.3606e-06
0.00980334
2.56211e-06
0.00981695
2.20976e-06
0.00983094
2.78756e-06
0.00984426
1.9865e-06
0.00985809
3.37043e-06
0.00987024
1.44161e-06
3.49557e-06
0.00355982
0.00356129
0.00352552
0.00351434
0.00351775
0.00352343
0.00352842
0.00353189
0.00353345
0.00353363
0.00353347
0.0035341
0.00353641
0.00354092
0.00354769
0.00355638
0.0035663
0.00357662
0.0035865
0.00359529
0.00360257
0.00360825
0.00361242
0.0036154
0.00361755
0.00361931
0.00362106
0.00362309
0.00362554
0.0036284
0.0036316
0.003635
0.00363848
0.00364199
0.00364554
0.00364918
0.00365298
0.00365703
0.00366135
0.00366596
0.00367077
0.00367569
0.00368058
0.0036853
0.00368972
0.00369372
0.00369723
0.00370023
0.00370272
0.0037048
0.00370662
0.00370835
0.0037102
0.00371234
0.00371492
0.00371802
0.00372168
0.0037259
0.00373061
0.00373571
0.00374109
0.0037466
0.00375214
0.0037576
0.00376292
0.00376805
0.00377299
0.00377773
0.00378225
0.00378655
0.00379061
0.00379442
0.003798
0.00380139
0.00380465
0.00380787
0.00381117
0.00381469
0.00381852
0.0038228
0.00382748
0.00383274
0.00383833
0.00384455
0.00385068
0.00385745
0.00386325
0.00387009
0.00387449
)
;

boundaryField
{
    upperWall
    {
        type            calculated;
        value           uniform 0;
    }
    lowerWall
    {
        type            calculated;
        value           uniform 0;
    }
    heatedWall
    {
        type            calculated;
        value           uniform 0;
    }
    inlet
    {
        type            calculated;
        value           nonuniform List<scalar> 
12
(
-0.013844
-0.0138439
-0.0138438
-0.0138438
-0.0138437
-0.0138437
-0.0138437
-0.0138437
-0.0138438
-0.0138438
-0.0138439
-0.013844
)
;
    }
    outlet
    {
        type            calculated;
        value           nonuniform List<scalar> 
12
(
0.00332725
0.00860461
0.0129053
0.016666
0.0198434
0.0220711
0.0224557
0.0209325
0.0181649
0.0144638
0.00988305
0.00388032
)
;
    }
    frontAndBack
    {
        type            empty;
        value           nonuniform 0();
    }
}


// ************************************************************************* //
