/*--------------------------------*- C++ -*----------------------------------*\
  =========                 |
  \\      /  F ield         | OpenFOAM: The Open Source CFD Toolbox
   \\    /   O peration     | Website:  https://openfoam.org
    \\  /    A nd           | Version:  7
     \\/     M anipulation  |
\*---------------------------------------------------------------------------*/
FoamFile
{
    version     2.0;
    format      ascii;
    class       volVectorField;
    location    "0.08";
    object      U_0;
}
// * * * * * * * * * * * * * * * * * * * * * * * * * * * * * * * * * * * * * //

dimensions      [0 1 -1 0 0 0 0];

internalField   nonuniform List<vector> 
400
(
(9.7096 0.139451 0)
(9.34685 0.360061 0)
(8.86509 0.471086 0)
(8.21597 0.504608 0)
(7.51709 0.488869 0)
(6.84461 0.440637 0)
(6.21874 0.372405 0)
(5.64754 0.296931 0)
(5.1378 0.223601 0)
(4.69738 0.157747 0)
(4.32608 0.103211 0)
(4.0189 0.060906 0)
(3.76926 0.0296674 0)
(3.56898 0.00803749 0)
(3.41152 -0.00676263 0)
(3.28694 -0.0151746 0)
(3.19388 -0.0213962 0)
(3.11783 -0.0217731 0)
(3.07277 -0.0268767 0)
(3.01857 -0.0226489 0)
(10.0348 0.233445 0)
(10.2685 0.543242 0)
(10.4629 0.706172 0)
(10.5455 0.79922 0)
(10.5484 0.853324 0)
(10.4973 0.872476 0)
(10.3966 0.8596 0)
(10.2503 0.821108 0)
(10.0678 0.764039 0)
(9.86134 0.694761 0)
(9.64183 0.619118 0)
(9.4171 0.542055 0)
(9.1956 0.467424 0)
(8.97994 0.397869 0)
(8.77911 0.335211 0)
(8.58568 0.279233 0)
(8.42044 0.232187 0)
(8.24678 0.18763 0)
(8.13752 0.158317 0)
(7.95277 0.109999 0)
(10.0254 0.141882 0)
(10.1256 0.354083 0)
(10.2788 0.483943 0)
(10.4337 0.578596 0)
(10.5825 0.653875 0)
(10.7257 0.705164 0)
(10.8548 0.72985 0)
(10.96 0.730714 0)
(11.0373 0.712642 0)
(11.0862 0.679949 0)
(11.1093 0.637609 0)
(11.1083 0.589072 0)
(11.0887 0.539253 0)
(11.0514 0.488293 0)
(11.0058 0.442284 0)
(10.9456 0.394415 0)
(10.891 0.358404 0)
(10.8141 0.310483 0)
(10.7709 0.290553 0)
(10.6686 0.228452 0)
(9.99867 0.0900851 0)
(10.052 0.246855 0)
(10.1552 0.364065 0)
(10.276 0.452569 0)
(10.4011 0.520924 0)
(10.5311 0.56928 0)
(10.6641 0.59765 0)
(10.7942 0.608388 0)
(10.9162 0.605175 0)
(11.0271 0.590478 0)
(11.1253 0.567877 0)
(11.2094 0.538559 0)
(11.28 0.507153 0)
(11.3373 0.47158 0)
(11.3831 0.439668 0)
(11.4182 0.40151 0)
(11.4448 0.375172 0)
(11.4642 0.331873 0)
(11.4761 0.3178 0)
(11.487 0.258117 0)
(9.99977 0.0560907 0)
(10.0356 0.175933 0)
(10.1088 0.274448 0)
(10.2013 0.349666 0)
(10.3013 0.406829 0)
(10.4072 0.448312 0)
(10.5178 0.474783 0)
(10.6294 0.487467 0)
(10.7385 0.488912 0)
(10.8428 0.480869 0)
(10.9405 0.466258 0)
(11.0314 0.4457 0)
(11.1137 0.42314 0)
(11.1894 0.396525 0)
(11.2552 0.372589 0)
(11.3181 0.342979 0)
(11.3672 0.322581 0)
(11.423 0.288257 0)
(11.4516 0.276601 0)
(11.5115 0.228821 0)
(9.99549 0.0431926 0)
(10.0224 0.132931 0)
(10.0777 0.209562 0)
(10.1518 0.270206 0)
(10.2362 0.317201 0)
(10.3277 0.352308 0)
(10.4241 0.376009 0)
(10.5226 0.388845 0)
(10.62 0.392543 0)
(10.7147 0.388456 0)
(10.8046 0.378867 0)
(10.89 0.36431 0)
(10.9683 0.347763 0)
(11.0429 0.32781 0)
(11.108 0.309399 0)
(11.1735 0.28657 0)
(11.2236 0.270096 0)
(11.285 0.243267 0)
(11.3145 0.23294 0)
(11.383 0.195492 0)
(10.0004 0.0201822 0)
(10.0201 0.0861599 0)
(10.0628 0.1437 0)
(10.1232 0.191169 0)
(10.1951 0.229061 0)
(10.2749 0.258149 0)
(10.3601 0.278792 0)
(10.4485 0.29131 0)
(10.5371 0.296808 0)
(10.6245 0.296221 0)
(10.7084 0.291161 0)
(10.7893 0.282054 0)
(10.8641 0.270986 0)
(10.9364 0.257073 0)
(10.9995 0.243782 0)
(11.064 0.227073 0)
(11.1131 0.214548 0)
(11.1741 0.194451 0)
(11.2031 0.186191 0)
(11.2713 0.158066 0)
(10.0074 0.0253609 0)
(10.023 0.0688403 0)
(10.0584 0.108053 0)
(10.1098 0.141307 0)
(10.1727 0.168204 0)
(10.2437 0.189023 0)
(10.3205 0.204046 0)
(10.4011 0.213493 0)
(10.483 0.21803 0)
(10.5647 0.218252 0)
(10.644 0.215233 0)
(10.7213 0.2093 0)
(10.7933 0.201851 0)
(10.8636 0.19235 0)
(10.9254 0.183126 0)
(10.9887 0.171511 0)
(11.0372 0.162674 0)
(11.0974 0.148604 0)
(11.1262 0.142731 0)
(11.1932 0.1231 0)
(9.98587 0.0043682 0)
(10.0021 0.0312714 0)
(10.0359 0.0557432 0)
(10.0844 0.077326 0)
(10.144 0.095502 0)
(10.2117 0.110156 0)
(10.2852 0.121338 0)
(10.3627 0.129087 0)
(10.4416 0.13371 0)
(10.5209 0.135531 0)
(10.598 0.135178 0)
(10.6735 0.132883 0)
(10.7441 0.129474 0)
(10.8131 0.124697 0)
(10.874 0.11991 0)
(10.9366 0.113624 0)
(10.9845 0.108832 0)
(11.0441 0.100954 0)
(11.0726 0.0977308 0)
(11.1391 0.086712 0)
(10.0014 0.00569698 0)
(10.0147 0.0156966 0)
(10.0437 0.0250406 0)
(10.0868 0.0336558 0)
(10.141 0.0412385 0)
(10.204 0.0477034 0)
(10.2733 0.0530144 0)
(10.3472 0.057121 0)
(10.4231 0.060068 0)
(10.4998 0.0619348 0)
(10.5749 0.0629152 0)
(10.6486 0.0631003 0)
(10.7178 0.0627643 0)
(10.7856 0.0618638 0)
(10.8455 0.0608321 0)
(10.9073 0.0592539 0)
(10.9545 0.0580445 0)
(11.0137 0.0558667 0)
(11.0416 0.0550051 0)
(11.108 0.0520046 0)
(10.0007 -0.00885002 0)
(10.0159 -0.0131188 0)
(10.0468 -0.0167828 0)
(10.0911 -0.019443 0)
(10.1462 -0.0210572 0)
(10.2095 -0.0215967 0)
(10.279 -0.0211453 0)
(10.3525 -0.0198274 0)
(10.4279 -0.0178348 0)
(10.5039 -0.015316 0)
(10.5782 -0.0124938 0)
(10.6511 -0.0094113 0)
(10.7195 -0.00633065 0)
(10.7865 -0.00307401 0)
(10.8457 -0.000123291 0)
(10.9068 0.00320337 0)
(10.9535 0.00570985 0)
(11.0121 0.00938567 0)
(11.0397 0.0109024 0)
(11.1057 0.0160129 0)
(10.0046 -0.0100754 0)
(10.0195 -0.0302678 0)
(10.0514 -0.0490427 0)
(10.0973 -0.0646885 0)
(10.1541 -0.0766505 0)
(10.2192 -0.0850065 0)
(10.2904 -0.0900314 0)
(10.3657 -0.091995 0)
(10.4427 -0.0913698 0)
(10.5201 -0.088558 0)
(10.5957 -0.0842121 0)
(10.6697 -0.0785206 0)
(10.7389 -0.0722852 0)
(10.8067 -0.0651258 0)
(10.8664 -0.0584194 0)
(10.9279 -0.0504351 0)
(10.9749 -0.0443956 0)
(11.0336 -0.0351279 0)
(11.0614 -0.0313199 0)
(11.1272 -0.0183901 0)
(9.99405 -0.029334 0)
(10.0121 -0.0644658 0)
(10.0487 -0.0962707 0)
(10.0999 -0.122644 0)
(10.1619 -0.143028 0)
(10.2317 -0.157697 0)
(10.3072 -0.167019 0)
(10.3865 -0.171296 0)
(10.4671 -0.171232 0)
(10.5477 -0.167431 0)
(10.6259 -0.160944 0)
(10.7021 -0.152065 0)
(10.7731 -0.142147 0)
(10.8424 -0.130581 0)
(10.9033 -0.119688 0)
(10.9657 -0.106633 0)
(11.0135 -0.0967502 0)
(11.0729 -0.0815635 0)
(11.1012 -0.0752707 0)
(11.1676 -0.0541387 0)
(10.0013 -0.0300199 0)
(10.0211 -0.0870975 0)
(10.0618 -0.137171 0)
(10.1192 -0.177461 0)
(10.1877 -0.208329 0)
(10.2642 -0.230708 0)
(10.3463 -0.245104 0)
(10.4318 -0.251955 0)
(10.5179 -0.252385 0)
(10.603 -0.247345 0)
(10.6849 -0.238402 0)
(10.7639 -0.225985 0)
(10.837 -0.212103 0)
(10.9076 -0.19586 0)
(10.9694 -0.180647 0)
(11.0324 -0.162362 0)
(11.0805 -0.148653 0)
(11.1402 -0.127449 0)
(11.1686 -0.118743 0)
(11.2355 -0.0893288 0)
(9.99468 -0.0442098 0)
(10.0204 -0.123446 0)
(10.072 -0.191535 0)
(10.1416 -0.24498 0)
(10.2217 -0.285542 0)
(10.3091 -0.31483 0)
(10.4018 -0.333323 0)
(10.4971 -0.341575 0)
(10.5917 -0.341215 0)
(10.6839 -0.333597 0)
(10.7715 -0.320904 0)
(10.8549 -0.303745 0)
(10.9313 -0.284933 0)
(11.0042 -0.263204 0)
(11.0677 -0.243239 0)
(11.1316 -0.219333 0)
(11.1806 -0.201898 0)
(11.2406 -0.174506 0)
(11.2695 -0.163822 0)
(11.3365 -0.125801 0)
(9.99022 -0.0688021 0)
(10.0244 -0.173008 0)
(10.0942 -0.259985 0)
(10.1831 -0.326741 0)
(10.2799 -0.376926 0)
(10.3827 -0.412294 0)
(10.49 -0.433341 0)
(10.5985 -0.441209 0)
(10.7043 -0.438326 0)
(10.8056 -0.426482 0)
(10.9002 -0.408497 0)
(10.9883 -0.385145 0)
(11.0677 -0.360117 0)
(11.1412 -0.331681 0)
(11.2046 -0.306029 0)
(11.2658 -0.275491 0)
(11.3131 -0.253916 0)
(11.3677 -0.219443 0)
(11.3953 -0.207066 0)
(11.4543 -0.159499 0)
(10.0053 -0.0933221 0)
(10.0512 -0.235545 0)
(10.145 -0.342385 0)
(10.2574 -0.422945 0)
(10.3754 -0.484475 0)
(10.4986 -0.526811 0)
(10.6251 -0.549935 0)
(10.7491 -0.556102 0)
(10.8658 -0.548886 0)
(10.9722 -0.530791 0)
(11.0665 -0.505334 0)
(11.1478 -0.473823 0)
(11.2163 -0.440641 0)
(11.2725 -0.403995 0)
(11.3176 -0.371115 0)
(11.3534 -0.332896 0)
(11.3803 -0.306029 0)
(11.402 -0.263668 0)
(11.4145 -0.249123 0)
(11.4294 -0.191316 0)
(9.99494 -0.129832 0)
(10.0894 -0.328844 0)
(10.2342 -0.450715 0)
(10.382 -0.539054 0)
(10.5252 -0.608518 0)
(10.6632 -0.654729 0)
(10.7876 -0.675273 0)
(10.8893 -0.672909 0)
(10.9643 -0.652453 0)
(11.0125 -0.618131 0)
(11.036 -0.574881 0)
(11.037 -0.526008 0)
(11.0202 -0.476342 0)
(10.9872 -0.425878 0)
(10.946 -0.38061 0)
(10.8918 -0.333765 0)
(10.8422 -0.298734 0)
(10.7728 -0.252435 0)
(10.7337 -0.233242 0)
(10.6411 -0.173963 0)
(10.0348 -0.229219 0)
(10.2494 -0.516743 0)
(10.4259 -0.669172 0)
(10.4984 -0.756609 0)
(10.4951 -0.806972 0)
(10.4391 -0.823657 0)
(10.3348 -0.809509 0)
(10.1868 -0.770849 0)
(10.0043 -0.714599 0)
(9.79972 -0.64693 0)
(9.58337 -0.573565 0)
(9.3632 -0.499095 0)
(9.14687 -0.427383 0)
(8.93745 -0.360504 0)
(8.74256 -0.300799 0)
(8.55607 -0.246967 0)
(8.39628 -0.202628 0)
(8.22972 -0.159341 0)
(8.12448 -0.132486 0)
(7.94667 -0.0852647 0)
(9.70996 -0.129756 0)
(9.31854 -0.333436 0)
(8.81185 -0.439098 0)
(8.15224 -0.471869 0)
(7.45039 -0.45749 0)
(6.77684 -0.411895 0)
(6.15122 -0.347099 0)
(5.58211 -0.275601 0)
(5.07525 -0.206244 0)
(4.63821 -0.143895 0)
(4.26996 -0.092395 0)
(3.96546 -0.0523882 0)
(3.7179 -0.0229049 0)
(3.51945 -0.00243382 0)
(3.36316 0.0113006 0)
(3.24028 0.0193535 0)
(3.14752 0.0248796 0)
(3.07343 0.0257313 0)
(3.0275 0.0296269 0)
(2.97665 0.0272007 0)
)
;

boundaryField
{
    upperWall
    {
        type            noSlip;
    }
    lowerWall
    {
        type            noSlip;
    }
    inlet
    {
        type            turbulentInlet;
        fluctuationScale (0.001 0.001 0.001);
        referenceField  uniform (10 0 0);
        alpha           0.1;
        value           nonuniform List<vector> 
20
(
(9.99649 -0.00670773 -0.0203619)
(9.99451 -0.000362438 0.00737111)
(10.0218 -0.00449467 0.00269231)
(9.99699 0.00157987 -0.00743826)
(9.99869 -0.00551039 0.0221978)
(9.99419 -0.00290619 0.00868412)
(9.99983 -0.0139254 -0.00204699)
(10.0073 0.0032438 0.0156997)
(9.98464 -0.00916688 -3.78612e-05)
(10.0014 0.000874627 0.0041181)
(9.99996 -0.00657837 0.0290567)
(10.0046 0.000204936 -0.00538473)
(9.99306 -0.0112196 -0.00881756)
(10.0009 -0.000250873 0.00377988)
(9.99383 -0.00335775 -0.000743417)
(9.98877 -0.0155115 -0.0159719)
(10.0049 -0.0126291 0.0110178)
(9.99068 0.00799302 -0.0203988)
(9.99791 -0.0131241 0.0100182)
(10.0046 0.00442552 -0.0059765)
)
;
    }
    outlet
    {
        type            pressureInletOutletVelocity;
        value           nonuniform List<vector> 
20
(
(3.01857 -0.0226489 0)
(7.95277 0.109999 0)
(10.6686 0.228452 0)
(11.487 0.258117 0)
(11.5115 0.228821 0)
(11.383 0.195492 0)
(11.2713 0.158066 0)
(11.1932 0.1231 0)
(11.1391 0.086712 0)
(11.108 0.0520046 0)
(11.1057 0.0160129 0)
(11.1272 -0.0183901 0)
(11.1676 -0.0541387 0)
(11.2355 -0.0893288 0)
(11.3365 -0.125801 0)
(11.4543 -0.159499 0)
(11.4294 -0.191316 0)
(10.6411 -0.173963 0)
(7.94667 -0.0852647 0)
(2.97665 0.0272007 0)
)
;
    }
    frontAndBack
    {
        type            empty;
    }
}


// ************************************************************************* //
