/*--------------------------------*- C++ -*----------------------------------*\
  =========                 |
  \\      /  F ield         | OpenFOAM: The Open Source CFD Toolbox
   \\    /   O peration     | Website:  https://openfoam.org
    \\  /    A nd           | Version:  7
     \\/     M anipulation  |
\*---------------------------------------------------------------------------*/
FoamFile
{
    version     2.0;
    format      ascii;
    class       volScalarField;
    location    "0.51";
    object      pPrime2Mean;
}
// * * * * * * * * * * * * * * * * * * * * * * * * * * * * * * * * * * * * * //

dimensions      [2 -2 -4 0 0 0 0];

internalField   nonuniform List<scalar> 
1440
(
168386
167236
166394
165778
165222
164649
164047
163434
162824
162219
161609
160985
160344
159687
159014
158324
157617
156895
156159
155410
154649
153877
153093
152298
151491
150673
149843
149001
148147
147282
146407
145521
144625
143719
142803
141879
140946
140004
139054
138095
137128
136153
135170
134180
133182
132177
131164
130145
129118
128085
127045
125998
124945
123885
122820
121748
120670
119586
118497
117402
116302
115196
114086
112970
111849
110723
109593
108458
107318
106174
105026
103874
102717
101557
100393
99225
98053.7
96878.8
95700.7
94519.2
93334.7
92147.2
90956.8
89763.6
88567.8
87369.4
86168.6
84965.6
83760.4
82553.2
81344.1
80133.3
78920.7
77706.6
76491
75273.9
74055.3
72835.3
71613.7
70390.4
69165.5
67938.8
66710.2
65479.7
64247.5
63013.6
61778.5
60542.5
59306.6
58071.4
56838.3
55608.5
54383.5
53165
51954.7
50754.6
49566.5
48392.2
47233.3
46094.4
168408
167262
166423
165808
165254
164683
164079
163460
162842
162230
161617
160990
160347
159688
159013
158323
157616
156893
156157
155408
154647
153875
153091
152296
151489
150671
149840
148998
148144
147279
146403
145517
144621
143715
142800
141876
140943
140001
139050
138092
137125
136150
135168
134177
133179
132174
131162
130142
129116
128082
127042
125995
124942
123883
122817
121745
120668
119584
118495
117400
116300
115194
114083
112967
111847
110721
109590
108455
107316
106172
105024
103871
102715
101555
100391
99222.9
98051.5
96876.7
95698.5
94517.1
93332.6
92145
90954.6
89761.4
88565.6
87367.3
86166.5
84963.5
83758.3
82551.1
81342
80131.1
78918.6
77704.5
76488.9
75271.8
74053.2
72833.1
71611.5
70388.3
69163.4
67936.7
66708.1
65477.6
64245.4
63011.5
61776.3
60540.4
59304.5
58069.3
56836.2
55606.4
54381.4
53162.9
51952.6
50752.5
49564.3
48390
47230.8
46091.6
168422
167277
166440
165827
165274
164704
164100
163475
162850
162231
161611
160978
160330
159666
158989
158298
157592
156872
156138
155391
154632
153861
153078
152283
151476
150658
149828
148986
148133
147269
146395
145510
144615
143710
142795
141872
140939
139998
139048
138089
137123
136148
135166
134176
133178
132173
131160
130141
129114
128081
127041
125994
124941
123882
122816
121744
120667
119583
118494
117399
116299
115193
114082
112966
111845
110720
109589
108454
107315
106171
105022
103870
102714
101553
100389
99221.5
98050.1
96875.3
95697.1
94515.7
93331.1
92143.6
90953.2
89760
88564.2
87365.8
86165
84962
83756.8
82549.6
81340.5
80129.7
78917.1
77703
76487.4
75270.3
74051.7
72831.6
71610
70386.8
69161.9
67935.2
66706.6
65476.1
64243.9
63010
61774.9
60539
59303
58067.9
56834.7
55604.9
54379.9
53161.4
51951.2
50751.1
49562.8
48388.5
47229.2
46089.9
168434
167289
166453
165841
165289
164719
164113
163486
162855
162232
161607
160971
160320
159654
158977
158286
157582
156862
156129
155383
154625
153854
153071
152277
151470
150652
149822
148981
148128
147265
146390
145506
144611
143706
142792
141868
140936
139995
139045
138087
137120
136146
135163
134173
133176
132170
131158
130139
129112
128079
127039
125992
124939
123880
122814
121742
120664
119581
118492
117397
116297
115191
114080
112964
111843
110718
109587
108452
107313
106169
105020
103868
102712
101551
100387
99219.6
98048.2
96873.4
95695.2
94513.8
93329.3
92141.8
90951.4
89758.2
88562.4
87364
86163.3
84960.2
83755.1
82547.9
81338.8
80127.9
78915.4
77701.3
76485.7
75268.6
74050
72830
71608.4
70385.2
69160.2
67933.5
66704.9
65474.5
64242.2
63008.4
61773.3
60537.4
59301.4
58066.3
56833.2
55603.4
54378.4
53159.9
51949.6
50749.5
49561.3
48386.8
47227.4
46087.9
168441
167298
166462
165850
165298
164728
164121
163491
162859
162232
161605
160967
160314
159648
158969
158278
157574
156855
156122
155377
154619
153848
153066
152271
151464
150646
149816
148975
148122
147259
146385
145500
144606
143702
142788
141865
140933
139992
139042
138084
137118
136143
135161
134171
133173
132168
131156
130137
129110
128077
127037
125990
124937
123878
122812
121741
120663
119579
118490
117395
116295
115189
114079
112963
111842
110716
109586
108451
107311
106167
105019
103867
102710
101550
100386
99218.2
98046.8
96872
95693.9
94512.5
93327.9
92140.4
90950
89756.8
88561
87362.6
86161.9
84958.9
83753.7
82546.5
81337.4
80126.6
78914.1
77700
76484.3
75267.2
74048.7
72828.6
71607
70383.8
69158.9
67932.2
66703.6
65473.2
64240.9
63007.1
61772
60536.1
59300.1
58065
56831.9
55602.1
54377.1
53158.6
51948.3
50748.2
49560
48385.4
47226.1
46086.3
168445
167302
166466
165854
165302
164732
164125
163494
162860
162233
161604
160965
160312
159644
158965
158274
157570
156851
156119
155373
154615
153845
153062
152268
151461
150643
149813
148972
148120
147257
146383
145499
144604
143700
142786
141863
140931
139990
139041
138083
137116
136142
135160
134170
133172
132167
131155
130136
129109
128076
127036
125989
124936
123877
122811
121739
120662
119578
118489
117394
116294
115188
114077
112962
111841
110715
109585
108450
107310
106166
105018
103866
102709
101549
100385
99217
98045.6
96870.8
95692.6
94511.2
93326.7
92139.2
90948.8
89755.6
88559.8
87361.4
86160.7
84957.7
83752.5
82545.3
81336.3
80125.4
78912.9
77698.8
76483.2
75266.1
74047.5
72827.5
71605.9
70382.7
69157.8
67931.1
66702.5
65472.1
64239.8
63006
61770.8
60534.9
59299
58063.9
56830.8
55601
54376
53157.5
51947.3
50747.1
49558.9
48384.3
47224.9
46085.1
168445
167301
166466
165854
165302
164731
164124
163494
162860
162232
161604
160965
160311
159644
158965
158274
157569
156851
156118
155373
154615
153845
153062
152267
151461
150642
149813
148971
148119
147256
146382
145498
144603
143699
142785
141862
140930
139989
139040
138082
137115
136141
135159
134169
133171
132166
131154
130135
129108
128075
127035
125988
124935
123876
122810
121738
120661
119577
118488
117393
116293
115187
114077
112961
111840
110714
109584
108449
107309
106165
105017
103865
102708
101548
100384
99216
98044.7
96869.9
95691.7
94510.3
93325.8
92138.3
90947.9
89754.7
88558.9
87360.5
86159.8
84956.8
83751.6
82544.4
81335.3
80124.5
78912
77697.9
76482.3
75265.2
74046.6
72826.6
71605
70381.8
69156.9
67930.2
66701.6
65471.2
64238.9
63005.1
61770
60534.1
59298.1
58063
56829.9
55600.1
54375.1
53156.6
51946.4
50746.2
49558
48383.5
47224.1
46084.3
168441
167297
166461
165849
165297
164727
164120
163490
162857
162231
161604
160966
160313
159646
158968
158277
157572
156854
156121
155375
154617
153847
153064
152269
151463
150644
149814
148973
148120
147257
146383
145498
144604
143699
142785
141862
140930
139989
139039
138081
137115
136141
135158
134168
133171
132166
131153
130134
129108
128074
127034
125988
124935
123875
122810
121738
120660
119577
118487
117393
116292
115187
114076
112960
111839
110714
109583
108448
107308
106165
105016
103864
102708
101547
100383
99215.5
98044.1
96869.3
95691.1
94509.7
93325.2
92137.7
90947.3
89754.1
88558.3
87359.9
86159.2
84956.2
83751
82543.8
81334.7
80123.9
78911.4
77697.3
76481.7
75264.6
74046
72826
71604.4
70381.2
69156.3
67929.6
66701
65470.6
64238.4
63004.5
61769.4
60533.5
59297.5
58062.4
56829.3
55599.5
54374.5
53156
51945.8
50745.7
49557.5
48383
47223.6
46083.9
168432
167288
166452
165839
165287
164717
164111
163483
162853
162229
161605
160969
160317
159652
158975
158284
157580
156861
156127
155381
154622
153851
153068
152273
151467
150648
149818
148977
148124
147260
146386
145501
144606
143702
142787
141864
140931
139990
139040
138082
137115
136141
135159
134169
133171
132166
131153
130134
129108
128074
127034
125988
124934
123875
122809
121738
120660
119576
118487
117392
116292
115186
114076
112960
111839
110713
109583
108448
107308
106164
105016
103864
102707
101547
100383
99215
98043.7
96868.8
95690.7
94509.3
93324.7
92137.2
90946.8
89753.6
88557.8
87359.5
86158.7
84955.7
83750.6
82543.4
81334.3
80123.5
78910.9
77696.8
76481.2
75264.2
74045.6
72825.6
71604
70380.8
69155.9
67929.2
66700.6
65470.2
64237.9
63004.1
61769
60533.1
59297.1
58062
56828.9
55599.1
54374.1
53155.6
51945.4
50745.3
49557.1
48382.7
47223.4
46083.9
168420
167275
166438
165824
165271
164701
164097
163472
162846
162228
161607
160975
160326
159663
158986
158295
157590
156870
156136
155389
154630
153858
153075
152279
151472
150653
149823
148981
148128
147264
146389
145504
144609
143704
142789
141865
140933
139991
139041
138083
137116
136142
135159
134169
133171
132166
131154
130134
129108
128074
127034
125988
124935
123875
122809
121738
120660
119576
118487
117392
116292
115186
114076
112960
111839
110713
109583
108448
107308
106164
105016
103864
102707
101547
100383
99214.9
98043.6
96868.8
95690.6
94509.2
93324.6
92137.1
90946.7
89753.5
88557.7
87359.4
86158.6
84955.6
83750.4
82543.2
81334.2
80123.3
78910.8
77696.7
76481.1
75264
74045.5
72825.4
71603.9
70380.7
69155.7
67929
66700.5
65470
64237.8
63003.9
61768.8
60532.9
59297
58061.9
56828.7
55598.9
54374
53155.5
51945.2
50745.1
49557
48382.7
47223.4
46084.2
168405
167259
166420
165805
165251
164679
164076
163455
162837
162225
161611
160985
160341
159682
159008
158318
157611
156889
156153
155404
154643
153870
153086
152290
151483
150664
149833
148991
148137
147272
146396
145510
144613
143707
142792
141868
140935
139993
139043
138084
137117
136142
135160
134169
133171
132166
131154
130134
129108
128074
127034
125988
124935
123875
122809
121738
120660
119576
118487
117392
116292
115186
114075
112960
111839
110713
109582
108447
107308
106164
105016
103863
102707
101547
100383
99214.9
98043.5
96868.7
95690.5
94509.1
93324.6
92137.1
90946.7
89753.5
88557.7
87359.3
86158.6
84955.6
83750.4
82543.2
81334.1
80123.3
78910.8
77696.7
76481.1
75264
74045.5
72825.4
71603.8
70380.7
69155.7
67929
66700.5
65470
64237.8
63003.9
61768.8
60532.9
59297
58061.9
56828.7
55598.9
54373.9
53155.4
51945.2
50745.1
49557
48382.7
47223.6
46084.6
168384
167233
166391
165774
165218
164644
164042
163428
162818
162214
161604
160980
160340
159683
159010
158320
157613
156891
156155
155405
154644
153871
153087
152291
151483
150665
149834
148992
148138
147273
146397
145511
144615
143709
142793
141869
140935
139993
139043
138084
137117
136142
135160
134169
133172
132166
131154
130134
129108
128074
127034
125987
124934
123875
122809
121737
120659
119576
118487
117392
116291
115186
114075
112959
111838
110712
109582
108447
107307
106163
105015
103863
102707
101546
100382
99214.4
98043
96868.2
95690
94508.6
93324.1
92136.6
90946.2
89753
88557.2
87358.9
86158.1
84955.1
83750
82542.8
81333.7
80122.9
78910.4
77696.3
76480.7
75263.7
74045.1
72825.1
71603.5
70380.3
69155.4
67928.7
66700.2
65469.8
64237.5
63003.7
61768.6
60532.7
59296.7
58061.6
56828.5
55598.7
54373.7
53155.3
51945
50745
49556.9
48382.7
47223.9
46085.3
)
;

boundaryField
{
    upperWall
    {
        type            calculated;
        value           nonuniform List<scalar> 
120
(
168384
167233
166391
165774
165218
164644
164042
163428
162818
162214
161604
160980
160340
159683
159010
158320
157613
156891
156155
155405
154644
153871
153087
152291
151483
150665
149834
148992
148138
147273
146397
145511
144615
143709
142793
141869
140935
139993
139043
138084
137117
136142
135160
134169
133172
132166
131154
130134
129108
128074
127034
125987
124934
123875
122809
121737
120659
119576
118487
117392
116291
115186
114075
112959
111838
110712
109582
108447
107307
106163
105015
103863
102707
101546
100382
99214.4
98043
96868.2
95690
94508.6
93324.1
92136.6
90946.2
89753
88557.2
87358.9
86158.1
84955.1
83750
82542.8
81333.7
80122.9
78910.4
77696.3
76480.7
75263.7
74045.1
72825.1
71603.5
70380.3
69155.4
67928.7
66700.2
65469.8
64237.5
63003.7
61768.6
60532.7
59296.7
58061.6
56828.5
55598.7
54373.7
53155.3
51945
50745
49556.9
48382.7
47223.9
46085.3
)
;
    }
    lowerWall
    {
        type            calculated;
        value           nonuniform List<scalar> 
120
(
168386
167236
166394
165778
165222
164649
164047
163434
162824
162219
161609
160985
160344
159687
159014
158324
157617
156895
156159
155410
154649
153877
153093
152298
151491
150673
149843
149001
148147
147282
146407
145521
144625
143719
142803
141879
140946
140004
139054
138095
137128
136153
135170
134180
133182
132177
131164
130145
129118
128085
127045
125998
124945
123885
122820
121748
120670
119586
118497
117402
116302
115196
114086
112970
111849
110723
109593
108458
107318
106174
105026
103874
102717
101557
100393
99225
98053.7
96878.8
95700.7
94519.2
93334.7
92147.2
90956.8
89763.6
88567.8
87369.4
86168.6
84965.6
83760.4
82553.2
81344.1
80133.3
78920.7
77706.6
76491
75273.9
74055.3
72835.3
71613.7
70390.4
69165.5
67938.8
66710.2
65479.7
64247.5
63013.6
61778.5
60542.5
59306.6
58071.4
56838.3
55608.5
54383.5
53165
51954.7
50754.6
49566.5
48392.2
47233.3
46094.4
)
;
    }
    inlet
    {
        type            calculated;
        value           nonuniform List<scalar> 
12
(
168386
168408
168422
168434
168441
168445
168445
168441
168432
168420
168405
168384
)
;
    }
    outlet
    {
        type            calculated;
        value           nonuniform List<scalar> 
12
(
45511.9
45508.6
45506.9
45504.9
45503.4
45502.2
45501.4
45501
45501
45501.4
45501.8
45503.2
)
;
    }
    frontAndBack
    {
        type            empty;
    }
}


// ************************************************************************* //
