/*--------------------------------*- C++ -*----------------------------------*\
  =========                 |
  \\      /  F ield         | OpenFOAM: The Open Source CFD Toolbox
   \\    /   O peration     | Website:  https://openfoam.org
    \\  /    A nd           | Version:  7
     \\/     M anipulation  |
\*---------------------------------------------------------------------------*/
FoamFile
{
    version     2.0;
    format      ascii;
    class       volScalarField;
    location    "1.2525";
    object      k;
}
// * * * * * * * * * * * * * * * * * * * * * * * * * * * * * * * * * * * * * //

dimensions      [0 2 -2 0 0 0 0];

internalField   nonuniform List<scalar> 
7920
(
52.0025
56.4117
56.4166
56.506
56.4645
56.5159
56.4605
56.4722
56.4136
56.4223
56.3858
56.3993
56.3738
56.3785
56.3625
56.3581
56.3715
56.327
56.4556
56.5133
13.8356
14.0014
13.4235
12.879
12.624
12.5319
12.4483
12.4239
12.3759
12.365
12.3343
12.329
12.3083
12.3053
12.2941
12.2903
12.2867
12.2767
12.4528
12.4642
8.08458
9.22208
9.33963
9.32592
9.28959
9.2843
9.26572
9.26536
9.25273
9.25145
9.23947
9.23713
9.22603
9.2231
9.21349
9.20991
9.20212
9.19691
9.20064
9.22432
7.48299
8.7545
9.00646
9.09959
9.12606
9.16343
9.17267
9.19636
9.20196
9.21914
9.2219
9.2326
9.23224
9.23747
9.23518
9.23731
9.23366
9.23345
9.23116
9.25142
7.41813
8.70088
8.9659
9.07542
9.11523
9.16611
9.18524
9.22259
9.23689
9.26742
9.27887
9.30272
9.31012
9.32669
9.33079
9.34192
9.34352
9.34944
9.35038
9.37203
7.42503
8.69738
8.96079
9.07197
9.11559
9.17125
9.19538
9.23825
9.25753
9.29443
9.31103
9.34153
9.35379
9.37704
9.38526
9.40252
9.40769
9.41861
9.42328
9.44589
7.42503
8.69738
8.96079
9.07197
9.11558
9.17126
9.19538
9.23826
9.25752
9.29444
9.31102
9.34155
9.35377
9.37706
9.38525
9.40255
9.40769
9.41867
9.42335
9.44596
7.41813
8.70088
8.9659
9.07542
9.11522
9.16612
9.18523
9.22261
9.23688
9.26744
9.27885
9.30277
9.31008
9.32678
9.33072
9.34207
9.34344
9.34966
9.35043
9.37232
7.48299
8.7545
9.00645
9.0996
9.12605
9.16345
9.17266
9.19638
9.20194
9.21919
9.22184
9.23268
9.23209
9.2377
9.23488
9.23778
9.23305
9.23431
9.23055
9.25243
8.08458
9.22208
9.33963
9.32592
9.28958
9.28431
9.26569
9.26538
9.25268
9.2515
9.23935
9.23727
9.22577
9.22344
9.21284
9.21076
9.20048
9.19989
9.19808
9.22767
13.8356
14.0014
13.4235
12.879
12.624
12.5319
12.4482
12.424
12.3758
12.3651
12.3341
12.3293
12.3078
12.306
12.2929
12.2921
12.2836
12.2822
12.4411
12.4762
52.0025
56.4117
56.4166
56.506
56.4644
56.516
56.4603
56.4724
56.4132
56.4228
56.385
56.4006
56.3718
56.3819
56.3569
56.3672
56.3561
56.3535
56.4065
56.5958
7.67033
9.6606
9.74392
9.62443
9.59576
9.5307
9.52643
9.48367
9.48156
9.4527
9.45476
9.43515
9.43757
9.42172
9.42483
9.4108
9.41845
9.39828
9.41073
9.4462
6.0185
8.2431
8.58129
8.62968
8.6396
8.64527
8.64545
8.64431
8.63993
8.63594
8.63213
8.62876
8.62624
8.62227
8.62083
8.6164
8.61664
8.61179
8.61992
8.62292
5.70196
7.90197
8.25205
8.32414
8.33812
8.35869
8.36694
8.38262
8.38837
8.39851
8.40135
8.40678
8.40801
8.41025
8.41106
8.41081
8.41195
8.40935
8.41078
8.43962
5.69358
7.89347
8.24084
8.30937
8.31531
8.32738
8.32937
8.3388
8.34317
8.35312
8.35695
8.36354
8.36555
8.36844
8.36947
8.36945
8.36994
8.36702
8.3677
8.38381
5.68177
7.87793
8.22535
8.29583
8.3009
8.31177
8.31124
8.31773
8.3199
8.32802
8.33083
8.33723
8.33847
8.34133
8.34126
8.34165
8.3405
8.33867
8.33565
8.3528
5.68809
7.88598
8.23252
8.30264
8.3076
8.31839
8.31757
8.32372
8.32536
8.33301
8.33555
8.34187
8.34293
8.34574
8.34537
8.34579
8.3442
8.34244
8.33764
8.35348
5.68809
7.88598
8.23252
8.30264
8.3076
8.31839
8.31757
8.32373
8.32536
8.33301
8.33555
8.34188
8.34292
8.34575
8.34535
8.3458
8.34418
8.34246
8.33769
8.35346
5.68177
7.87793
8.22535
8.29584
8.30089
8.31178
8.31123
8.31775
8.31989
8.32804
8.33081
8.33727
8.33843
8.34138
8.34114
8.34175
8.34034
8.33892
8.33544
8.35283
5.69357
7.89347
8.24083
8.30938
8.3153
8.3274
8.32936
8.33882
8.34314
8.35317
8.35685
8.36367
8.36539
8.36869
8.36909
8.36988
8.36953
8.36769
8.3668
8.3843
5.70195
7.90197
8.25204
8.32415
8.33811
8.35871
8.36691
8.38266
8.38831
8.3986
8.40127
8.40694
8.40781
8.41061
8.41042
8.41169
8.41058
8.41142
8.40805
8.44203
6.0185
8.24311
8.58128
8.62969
8.63959
8.64528
8.64543
8.64433
8.63988
8.63604
8.63198
8.62901
8.62585
8.62289
8.61996
8.61787
8.6144
8.6152
8.61402
8.63093
7.67032
9.6606
9.74391
9.62444
9.59575
9.53072
9.52641
9.4837
9.48151
9.45279
9.45464
9.43537
9.43726
9.42228
9.42401
9.41228
9.41616
9.4027
9.40384
9.45819
0.477046
1.03662
1.13578
1.10749
1.03502
0.968907
0.917431
0.880835
0.853947
0.833413
0.818769
0.805526
0.796445
0.786623
0.780594
0.773189
0.7687
0.764306
0.757113
0.765097
0.0857753
0.381958
0.526088
0.588462
0.610778
0.624833
0.631812
0.639379
0.643022
0.646933
0.648125
0.649587
0.649567
0.64962
0.649201
0.648891
0.648147
0.647726
0.646902
0.649677
0.0641225
0.299603
0.416035
0.474531
0.493166
0.506989
0.510295
0.516967
0.5193
0.524283
0.526669
0.530984
0.533532
0.537028
0.539613
0.542383
0.544926
0.547258
0.54898
0.553436
0.0679957
0.303279
0.417335
0.473332
0.49151
0.503053
0.504916
0.508168
0.508444
0.509649
0.509957
0.510916
0.511407
0.512311
0.513226
0.513867
0.515178
0.515729
0.516917
0.520124
0.0661469
0.299275
0.412202
0.468194
0.485918
0.497418
0.499001
0.501966
0.501888
0.502534
0.502329
0.502582
0.502405
0.502458
0.502403
0.502266
0.502309
0.502198
0.502289
0.504224
0.0671802
0.301512
0.414847
0.470623
0.488499
0.499878
0.501616
0.504509
0.504478
0.505075
0.504883
0.505065
0.504867
0.504812
0.504621
0.504283
0.504159
0.503754
0.503697
0.505362
0.0671801
0.301512
0.414847
0.470623
0.488498
0.499878
0.501616
0.504509
0.504478
0.505075
0.504883
0.505065
0.504866
0.504813
0.50462
0.504285
0.504159
0.503756
0.503693
0.50536
0.0661466
0.299276
0.412202
0.468194
0.485918
0.497418
0.499
0.501967
0.501888
0.502534
0.502329
0.502583
0.502404
0.502458
0.5024
0.502265
0.502307
0.502197
0.502287
0.504213
0.0679953
0.303279
0.417335
0.473332
0.491509
0.503054
0.504915
0.508169
0.508444
0.50965
0.509956
0.510919
0.511399
0.512321
0.513212
0.513862
0.515168
0.51572
0.516889
0.520076
0.0641221
0.299603
0.416034
0.474532
0.493165
0.50699
0.510294
0.516968
0.519298
0.524289
0.526658
0.530996
0.53351
0.537051
0.539567
0.542415
0.544853
0.547263
0.548924
0.553335
0.085775
0.381959
0.526087
0.588463
0.610776
0.624836
0.631808
0.639386
0.643011
0.646946
0.648106
0.649598
0.649548
0.64964
0.649141
0.64891
0.648039
0.647766
0.646753
0.649679
0.477046
1.03662
1.13578
1.10749
1.03501
0.968911
0.917427
0.880843
0.853939
0.833434
0.818751
0.805577
0.796406
0.786745
0.780512
0.773476
0.768521
0.764956
0.75691
0.766231
0.477046
1.03662
1.13578
1.10749
1.03502
0.968907
0.917431
0.880835
0.853947
0.833413
0.818769
0.805526
0.796445
0.786623
0.780594
0.773189
0.7687
0.764306
0.757113
0.765097
0.0857753
0.381958
0.526088
0.588462
0.610778
0.624833
0.631812
0.639379
0.643022
0.646933
0.648125
0.649587
0.649567
0.64962
0.649201
0.648891
0.648147
0.647726
0.646902
0.649677
0.0641225
0.299603
0.416035
0.474531
0.493166
0.506989
0.510295
0.516967
0.5193
0.524283
0.526669
0.530984
0.533532
0.537029
0.539613
0.542384
0.544926
0.547258
0.548981
0.553437
0.0679957
0.303279
0.417335
0.473332
0.49151
0.503053
0.504916
0.508168
0.508444
0.509649
0.509957
0.510916
0.511407
0.512311
0.513226
0.513867
0.515178
0.515729
0.516917
0.520124
0.0661468
0.299275
0.412202
0.468194
0.485918
0.497418
0.499001
0.501966
0.501888
0.502534
0.502329
0.502583
0.502405
0.502458
0.502403
0.502266
0.502309
0.502198
0.502289
0.504224
0.0671802
0.301512
0.414847
0.470623
0.488499
0.499878
0.501616
0.504509
0.504478
0.505075
0.504883
0.505065
0.504867
0.504813
0.504621
0.504283
0.504159
0.503754
0.503697
0.505362
0.0671801
0.301512
0.414847
0.470623
0.488498
0.499878
0.501616
0.504509
0.504478
0.505075
0.504883
0.505065
0.504866
0.504813
0.50462
0.504285
0.504159
0.503756
0.503693
0.50536
0.0661466
0.299276
0.412202
0.468194
0.485918
0.497418
0.499
0.501967
0.501888
0.502534
0.502329
0.502583
0.502404
0.502458
0.5024
0.502265
0.502307
0.502197
0.502287
0.504212
0.0679953
0.303279
0.417335
0.473332
0.49151
0.503054
0.504915
0.508169
0.508444
0.50965
0.509956
0.510919
0.511399
0.512321
0.513212
0.513862
0.515168
0.51572
0.516889
0.520076
0.064122
0.299603
0.416034
0.474532
0.493165
0.50699
0.510294
0.516968
0.519299
0.524289
0.526658
0.530996
0.53351
0.537051
0.539567
0.542415
0.544853
0.547263
0.548923
0.553335
0.085775
0.381959
0.526087
0.588463
0.610776
0.624836
0.631808
0.639386
0.643012
0.646946
0.648106
0.649598
0.649548
0.64964
0.649141
0.64891
0.648039
0.647766
0.646753
0.649679
0.477046
1.03662
1.13578
1.10749
1.03501
0.968911
0.917427
0.880843
0.853939
0.833433
0.81875
0.805577
0.796406
0.786745
0.780512
0.773476
0.768521
0.764956
0.756911
0.766231
7.67033
9.6606
9.74392
9.62443
9.59576
9.5307
9.52643
9.48367
9.48156
9.4527
9.45477
9.43515
9.43757
9.42172
9.42483
9.4108
9.41845
9.39828
9.41073
9.4462
6.0185
8.2431
8.58129
8.62968
8.6396
8.64527
8.64545
8.64431
8.63993
8.63594
8.63213
8.62876
8.62624
8.62227
8.62084
8.6164
8.61664
8.61179
8.61992
8.62292
5.70196
7.90197
8.25205
8.32414
8.33812
8.35869
8.36694
8.38262
8.38837
8.39851
8.40135
8.40678
8.40801
8.41025
8.41106
8.41082
8.41195
8.40935
8.41078
8.43963
5.69358
7.89347
8.24084
8.30937
8.31531
8.32738
8.32937
8.3388
8.34317
8.35312
8.35695
8.36354
8.36555
8.36844
8.36947
8.36945
8.36994
8.36702
8.3677
8.38381
5.68177
7.87793
8.22535
8.29583
8.3009
8.31177
8.31124
8.31773
8.3199
8.32802
8.33083
8.33723
8.33847
8.34133
8.34126
8.34165
8.3405
8.33867
8.33565
8.35281
5.68809
7.88598
8.23252
8.30264
8.3076
8.31839
8.31757
8.32372
8.32536
8.33301
8.33555
8.34187
8.34293
8.34574
8.34537
8.34579
8.3442
8.34244
8.33764
8.35348
5.68809
7.88598
8.23252
8.30264
8.3076
8.31839
8.31757
8.32373
8.32536
8.33301
8.33555
8.34188
8.34292
8.34575
8.34535
8.3458
8.34418
8.34246
8.33769
8.35345
5.68177
7.87793
8.22535
8.29584
8.30089
8.31178
8.31123
8.31775
8.31989
8.32804
8.33081
8.33727
8.33843
8.34138
8.34115
8.34175
8.34034
8.33892
8.33544
8.35283
5.69357
7.89347
8.24083
8.30938
8.3153
8.32739
8.32936
8.33882
8.34314
8.35317
8.35685
8.36367
8.36539
8.36869
8.36909
8.36987
8.36953
8.36769
8.3668
8.38429
5.70195
7.90197
8.25204
8.32415
8.33811
8.35871
8.36691
8.38266
8.38831
8.3986
8.40127
8.40694
8.40781
8.41061
8.41042
8.41168
8.41057
8.41141
8.40805
8.44202
6.0185
8.24311
8.58128
8.62969
8.63959
8.64528
8.64544
8.64434
8.63988
8.63604
8.63197
8.629
8.62585
8.62288
8.61996
8.61787
8.6144
8.6152
8.61402
8.63093
7.67032
9.6606
9.74392
9.62444
9.59575
9.53072
9.52642
9.4837
9.48151
9.45278
9.45464
9.43536
9.43726
9.42228
9.42401
9.41228
9.41616
9.4027
9.40384
9.45819
52.0025
56.4117
56.4166
56.506
56.4645
56.5159
56.4605
56.4722
56.4136
56.4223
56.3858
56.3993
56.3739
56.3785
56.3625
56.3581
56.3715
56.327
56.4556
56.5133
13.8356
14.0014
13.4235
12.879
12.624
12.5319
12.4483
12.4239
12.3759
12.365
12.3343
12.3291
12.3083
12.3053
12.2941
12.2903
12.2867
12.2767
12.4528
12.4642
8.08458
9.22208
9.33963
9.32592
9.28959
9.2843
9.26572
9.26536
9.25273
9.25145
9.23946
9.23713
9.22604
9.2231
9.21349
9.20991
9.20212
9.19692
9.20065
9.22432
7.48299
8.7545
9.00646
9.09959
9.12606
9.16343
9.17267
9.19636
9.20196
9.21914
9.2219
9.2326
9.23224
9.23747
9.23518
9.23731
9.23366
9.23346
9.23116
9.25142
7.41813
8.70088
8.9659
9.07542
9.11523
9.16611
9.18524
9.22259
9.23689
9.26741
9.27887
9.30272
9.31012
9.32669
9.33079
9.34192
9.34352
9.34944
9.35038
9.37203
7.42503
8.69738
8.96079
9.07197
9.11559
9.17125
9.19538
9.23825
9.25753
9.29443
9.31103
9.34153
9.35379
9.37704
9.38526
9.40252
9.40769
9.41861
9.42328
9.44589
7.42503
8.69738
8.96079
9.07197
9.11558
9.17126
9.19538
9.23826
9.25752
9.29444
9.31102
9.34155
9.35377
9.37706
9.38525
9.40255
9.40769
9.41867
9.42334
9.44596
7.41813
8.70088
8.9659
9.07542
9.11522
9.16612
9.18523
9.22261
9.23688
9.26744
9.27885
9.30277
9.31008
9.32678
9.33072
9.34207
9.34344
9.34966
9.35042
9.37232
7.48299
8.7545
9.00645
9.0996
9.12605
9.16345
9.17266
9.19638
9.20194
9.21919
9.22185
9.23268
9.23209
9.2377
9.23488
9.23778
9.23305
9.23431
9.23054
9.25242
8.08458
9.22208
9.33963
9.32592
9.28958
9.28431
9.26569
9.26538
9.25268
9.25151
9.23935
9.23727
9.22576
9.22344
9.21284
9.21076
9.20048
9.19989
9.19807
9.22767
13.8356
14.0014
13.4235
12.879
12.624
12.5319
12.4482
12.424
12.3758
12.3651
12.3341
12.3293
12.3078
12.3059
12.2929
12.2921
12.2836
12.2822
12.4411
12.4762
52.0025
56.4117
56.4166
56.506
56.4645
56.516
56.4603
56.4724
56.4132
56.4228
56.385
56.4006
56.3718
56.3819
56.3569
56.3672
56.3561
56.3535
56.4065
56.5958
144.117
146.379
147.467
148.3
148.916
149.525
150.066
150.609
151.056
151.464
151.789
152.098
152.359
152.609
152.807
152.98
153.099
153.195
153.249
153.294
153.314
153.334
153.34
153.35
153.351
153.358
153.358
153.365
153.365
153.371
153.371
153.377
153.377
153.383
153.383
153.388
153.389
153.394
153.395
153.4
153.401
153.406
153.407
153.412
153.412
153.417
153.418
153.423
153.424
153.428
153.429
153.433
153.434
153.438
153.439
153.442
153.443
153.446
153.447
153.45
153.45
153.453
153.453
153.455
153.455
153.457
153.456
153.458
153.457
153.458
153.457
153.458
153.456
153.457
153.455
153.455
153.453
153.452
153.45
153.449
153.447
153.445
153.443
153.44
153.438
153.435
153.429
153.43
153.393
153.365
47.3083
49.1465
49.4981
49.7912
49.9746
50.1932
50.3587
50.5565
50.6966
50.849
50.9505
51.0688
51.1507
51.249
51.3122
51.3846
51.4227
51.4685
51.4859
51.5138
51.5201
51.5389
51.5409
51.5559
51.5569
51.5704
51.5716
51.5844
51.5859
51.5983
51.6002
51.6122
51.6144
51.626
51.6284
51.6397
51.6423
51.6533
51.656
51.6666
51.6695
51.6797
51.6826
51.6925
51.6954
51.7049
51.7079
51.7169
51.7199
51.7285
51.7314
51.7396
51.7423
51.7502
51.7527
51.7601
51.7625
51.7695
51.7716
51.7781
51.7801
51.7861
51.7878
51.7934
51.7949
51.8001
51.8012
51.806
51.8069
51.8113
51.8119
51.8159
51.8163
51.82
51.8201
51.8234
51.8234
51.8263
51.8261
51.8286
51.8284
51.8304
51.8301
51.8316
51.831
51.8325
51.8304
51.8335
51.8152
51.8045
30.5268
32.6157
32.8475
33.0526
33.1455
33.2931
33.3782
33.5205
33.6034
33.7215
33.7812
33.8735
33.9214
34.0019
34.0427
34.109
34.1362
34.1844
34.198
34.2315
34.2372
34.2624
34.2651
34.2866
34.2887
34.3086
34.311
34.3302
34.3331
34.3516
34.355
34.373
34.3768
34.3942
34.3983
34.4152
34.4196
34.436
34.4405
34.4563
34.461
34.4763
34.481
34.4957
34.5005
34.5146
34.5193
34.533
34.5376
34.5506
34.5552
34.5676
34.572
34.5839
34.588
34.5993
34.6033
34.614
34.6176
34.6278
34.6312
34.6407
34.6438
34.6528
34.6556
34.6641
34.6666
34.6745
34.6767
34.6841
34.6861
34.693
34.6946
34.7011
34.7025
34.7086
34.7097
34.7153
34.7162
34.7214
34.7222
34.7269
34.7274
34.7317
34.7319
34.7362
34.7353
34.7401
34.7359
34.715
28.3029
30.7827
31.021
31.2151
31.2807
31.4064
31.4621
31.5909
31.661
31.7794
31.8305
31.9216
31.9612
32.0431
32.082
32.156
32.1856
32.243
32.2595
32.3004
32.308
32.3388
32.3426
32.3686
32.3715
32.3955
32.3987
32.4217
32.4255
32.4479
32.4523
32.474
32.4789
32.5001
32.5053
32.5259
32.5314
32.5514
32.5572
32.5765
32.5824
32.6011
32.6072
32.6252
32.6313
32.6487
32.6548
32.6715
32.6775
32.6936
32.6994
32.7149
32.7205
32.7353
32.7407
32.7548
32.76
32.7733
32.7783
32.7909
32.7956
32.8076
32.8118
32.8232
32.8271
32.8378
32.8414
32.8515
32.8548
32.8643
32.8672
32.8761
32.8787
32.8872
32.8895
32.8974
32.8994
32.9069
32.9086
32.9156
32.9171
32.9236
32.9249
32.931
32.9318
32.9378
32.9379
32.9437
32.9451
32.9213
28.1448
30.8576
31.1085
31.3012
31.3491
31.4573
31.4909
31.6053
31.6658
31.7841
31.8295
31.9194
31.9537
32.0355
32.0739
32.1535
32.1862
32.2509
32.2704
32.3171
32.3265
32.3613
32.366
32.3949
32.3985
32.425
32.4287
32.4541
32.4586
32.4832
32.4883
32.5124
32.518
32.5414
32.5475
32.5703
32.5767
32.5988
32.6055
32.627
32.6338
32.6547
32.6616
32.6818
32.6887
32.7082
32.7152
32.7339
32.7408
32.7588
32.7656
32.7829
32.7895
32.806
32.8123
32.8281
32.8342
32.8493
32.855
32.8693
32.8748
32.8883
32.8934
32.9062
32.9109
32.9231
32.9274
32.9389
32.9429
32.9537
32.9573
32.9676
32.9708
32.9805
32.9834
32.9926
32.9952
33.0038
33.0062
33.0143
33.0163
33.024
33.0258
33.0331
33.0343
33.0414
33.0422
33.0484
33.0523
33.0257
28.2349
31.0901
31.3451
31.5297
31.5612
31.6502
31.6652
31.7624
31.8126
31.9242
31.9635
32.0484
32.0779
32.1569
32.194
32.2753
32.3094
32.3775
32.3987
32.4483
32.4587
32.4954
32.5006
32.5309
32.5347
32.5623
32.5663
32.5927
32.5974
32.623
32.6284
32.6535
32.6594
32.6839
32.6903
32.7141
32.7208
32.744
32.751
32.7735
32.7808
32.8026
32.8099
32.831
32.8384
32.8588
32.8662
32.8859
32.8932
32.9121
32.9193
32.9374
32.9444
32.9618
32.9686
32.9852
32.9917
33.0075
33.0137
33.0287
33.0346
33.0489
33.0543
33.0679
33.073
33.0858
33.0905
33.1026
33.1069
33.1184
33.1224
33.1333
33.1368
33.1471
33.1504
33.1601
33.1631
33.1723
33.1749
33.1836
33.186
33.1942
33.1963
33.2042
33.2058
33.2134
33.2147
33.221
33.2264
33.1988
28.2367
31.0802
31.3157
31.4788
31.4917
31.5614
31.5623
31.6442
31.6839
31.7843
31.8167
31.8945
31.92
31.9952
32.0305
32.1099
32.1433
32.2107
32.2316
32.2809
32.2912
32.3277
32.3328
32.363
32.3667
32.3942
32.3982
32.4245
32.4291
32.4547
32.46
32.485
32.4909
32.5152
32.5216
32.5453
32.5521
32.5751
32.5821
32.6045
32.6118
32.6335
32.6408
32.6618
32.6692
32.6895
32.6969
32.7164
32.7237
32.7426
32.7497
32.7678
32.7748
32.7921
32.7989
32.8154
32.8219
32.8376
32.8438
32.8588
32.8646
32.8788
32.8843
32.8978
32.9028
32.9156
32.9203
32.9324
32.9367
32.9482
32.9521
32.963
32.9665
32.9768
32.9801
32.9898
32.9927
33.0019
33.0045
33.0132
33.0156
33.0238
33.0258
33.0337
33.0353
33.0429
33.0443
33.0505
33.0559
33.0287
28.1476
30.8164
31.0026
31.1292
31.1216
31.1737
31.1658
31.2369
31.2666
31.3537
31.379
31.449
31.4722
31.5435
31.5766
31.6515
31.6821
31.7448
31.7635
31.8094
31.8184
31.8527
31.8573
31.8859
31.8893
31.9155
31.9191
31.9442
31.9485
31.9729
31.9779
32.0017
32.0072
32.0304
32.0363
32.0589
32.0651
32.0871
32.0936
32.1149
32.1216
32.1422
32.1491
32.169
32.1759
32.1951
32.202
32.2206
32.2274
32.2452
32.2519
32.269
32.2755
32.2918
32.2981
32.3137
32.3197
32.3346
32.3403
32.3545
32.3598
32.3733
32.3783
32.391
32.3957
32.4077
32.412
32.4234
32.4273
32.438
32.4416
32.4518
32.455
32.4646
32.4675
32.4766
32.4792
32.4878
32.49
32.4982
32.5001
32.5078
32.5095
32.5168
32.5181
32.5251
32.526
32.532
32.5363
32.5111
28.285
30.6536
30.773
30.8568
30.8328
30.8719
30.8618
30.9243
30.9465
31.0193
31.0394
31.1023
31.1255
31.1926
31.2239
31.2915
31.3182
31.3729
31.3883
31.428
31.4351
31.4652
31.4688
31.4943
31.497
31.5205
31.5236
31.5462
31.5498
31.5718
31.576
31.5974
31.6021
31.6229
31.628
31.6482
31.6536
31.6732
31.6788
31.6978
31.7036
31.722
31.7279
31.7457
31.7516
31.7687
31.7746
31.7911
31.7969
31.8128
31.8185
31.8337
31.8392
31.8537
31.8591
31.8729
31.878
31.8911
31.8959
31.9084
31.9129
31.9247
31.9289
31.9401
31.944
31.9545
31.9581
31.968
31.9712
31.9806
31.9834
31.9923
31.9948
32.0032
32.0054
32.0133
32.0152
32.0226
32.0243
32.0313
32.0327
32.0393
32.0403
32.0466
32.0473
32.0533
32.0536
32.0589
32.0608
32.0388
30.4171
32.2748
32.319
32.3674
32.3353
32.3688
32.3633
32.4202
32.4387
32.5001
32.5196
32.5786
32.6056
32.6699
32.7013
32.7608
32.7842
32.8295
32.8417
32.8739
32.8791
32.9036
32.906
32.9269
32.9288
32.9483
32.9505
32.9692
32.9719
32.99
32.9932
33.0108
33.0144
33.0315
33.0354
33.0519
33.0561
33.0721
33.0765
33.092
33.0965
33.1114
33.116
33.1304
33.135
33.1489
33.1534
33.1668
33.1712
33.184
33.1884
33.2006
33.2048
33.2164
33.2204
33.2315
33.2353
33.2458
33.2494
33.2593
33.2626
33.2719
33.2749
33.2838
33.2865
33.2948
33.2972
33.305
33.3071
33.3144
33.3163
33.3231
33.3247
33.3311
33.3324
33.3384
33.3395
33.345
33.3459
33.3511
33.3517
33.3565
33.3568
33.3614
33.3613
33.3656
33.365
33.3692
33.3665
33.3478
46.8743
48.2176
48.2279
48.2533
48.2211
48.2532
48.263
48.3251
48.3557
48.4196
48.455
48.5243
48.5729
48.648
48.6965
48.7592
48.7915
48.8334
48.8488
48.875
48.8805
48.8985
48.9002
48.9146
48.9154
48.9285
48.9295
48.9419
48.9432
48.9553
48.957
48.9687
48.9707
48.982
48.9842
48.9952
48.9977
49.0083
49.0109
49.0212
49.0239
49.0339
49.0367
49.0463
49.0491
49.0583
49.0611
49.0699
49.0727
49.0811
49.0838
49.0918
49.0944
49.102
49.1044
49.1116
49.1139
49.1206
49.1227
49.129
49.1308
49.1367
49.1383
49.1437
49.145
49.1501
49.1512
49.1558
49.1566
49.1609
49.1614
49.1654
49.1657
49.1693
49.1693
49.1726
49.1725
49.1754
49.1751
49.1777
49.1771
49.1795
49.1786
49.1807
49.1795
49.1814
49.1795
49.1818
49.1651
49.1561
142.359
143.077
143.127
143.148
143.105
143.154
143.22
143.356
143.47
143.612
143.737
143.901
144.061
144.243
144.397
144.541
144.642
144.727
144.775
144.816
144.833
144.851
144.856
144.865
144.866
144.873
144.872
144.878
144.877
144.883
144.883
144.888
144.888
144.894
144.894
144.899
144.899
144.904
144.905
144.909
144.91
144.915
144.915
144.92
144.921
144.925
144.926
144.93
144.931
144.935
144.936
144.939
144.94
144.944
144.944
144.948
144.948
144.951
144.952
144.954
144.955
144.957
144.957
144.959
144.959
144.96
144.96
144.961
144.96
144.961
144.96
144.96
144.959
144.959
144.957
144.957
144.955
144.954
144.952
144.951
144.948
144.947
144.943
144.942
144.938
144.936
144.931
144.93
144.898
144.873
30.2
31.0082
31.2433
31.4073
31.5407
31.6683
31.7853
31.9006
31.9942
32.0822
32.1499
32.2195
32.2737
32.3312
32.3714
32.4126
32.4359
32.4613
32.4718
32.4873
32.4912
32.502
32.5034
32.5124
32.5132
32.5216
32.5224
32.5306
32.5317
32.5397
32.541
32.5488
32.5503
32.5581
32.5597
32.5673
32.5691
32.5765
32.5785
32.5857
32.5878
32.5948
32.5969
32.6037
32.606
32.6126
32.6148
32.6212
32.6234
32.6296
32.6318
32.6377
32.6399
32.6455
32.6476
32.653
32.6549
32.66
32.6618
32.6666
32.6683
32.6727
32.6742
32.6784
32.6796
32.6835
32.6845
32.6881
32.689
32.6922
32.6929
32.6959
32.6963
32.6991
32.6994
32.7019
32.702
32.7043
32.7043
32.7064
32.7064
32.7082
32.7084
32.71
32.7101
32.7121
32.7116
32.7155
32.7104
32.7103
28.0478
29.4275
29.6655
29.8296
29.9541
30.0761
30.1857
30.2976
30.3891
30.4751
30.5413
30.6079
30.661
30.7166
30.7575
30.7981
30.8231
30.8481
30.86
30.8745
30.8792
30.8884
30.8902
30.8972
30.8982
30.9043
30.9052
30.911
30.9119
30.9175
30.9185
30.9238
30.9249
30.9301
30.9311
30.9361
30.9372
30.942
30.9431
30.9477
30.9488
30.9532
30.9543
30.9584
30.9595
30.9635
30.9645
30.9683
30.9692
30.9728
30.9737
30.9771
30.978
30.9811
30.982
30.9849
30.9857
30.9884
30.9891
30.9917
30.9923
30.9947
30.9952
30.9975
30.9979
31
31.0003
31.0023
31.0025
31.0044
31.0045
31.0063
31.0063
31.0079
31.008
31.0095
31.0094
31.0108
31.0108
31.012
31.012
31.0131
31.0131
31.0141
31.0139
31.0153
31.0144
31.0167
31.0154
31.0166
25.834
27.7124
27.9738
28.1278
28.2386
28.34
28.4349
28.5343
28.6224
28.7026
28.7663
28.8254
28.8757
28.9263
28.9685
29.0081
29.0365
29.0611
29.0757
29.0886
29.0945
29.1011
29.1031
29.107
29.1076
29.1105
29.1108
29.1134
29.1137
29.1161
29.1164
29.1187
29.119
29.1212
29.1216
29.1237
29.124
29.126
29.1264
29.1283
29.1286
29.1305
29.1308
29.1325
29.1329
29.1345
29.1348
29.1364
29.1367
29.1382
29.1384
29.1398
29.1401
29.1414
29.1416
29.1429
29.1431
29.1443
29.1444
29.1455
29.1457
29.1467
29.1468
29.1478
29.1479
29.1488
29.1489
29.1497
29.1497
29.1505
29.1505
29.1512
29.1512
29.1519
29.1518
29.1525
29.1524
29.153
29.1529
29.1534
29.1533
29.1537
29.1537
29.154
29.1538
29.1543
29.1534
29.1545
29.1532
29.1314
25.093
27.2122
27.4766
27.6172
27.7111
27.7916
27.8683
27.9562
28.0407
28.1193
28.1816
28.2369
28.2848
28.3337
28.3781
28.4205
28.4539
28.482
28.5006
28.5151
28.5231
28.5296
28.5323
28.5354
28.5361
28.5379
28.5381
28.5395
28.5396
28.5408
28.5409
28.5421
28.5422
28.5433
28.5434
28.5445
28.5446
28.5456
28.5457
28.5467
28.5468
28.5477
28.5478
28.5487
28.5488
28.5496
28.5497
28.5505
28.5505
28.5513
28.5513
28.552
28.5521
28.5527
28.5527
28.5533
28.5534
28.5539
28.5539
28.5544
28.5544
28.5549
28.5549
28.5553
28.5552
28.5556
28.5555
28.5559
28.5558
28.5561
28.556
28.5563
28.5561
28.5564
28.5562
28.5564
28.5563
28.5564
28.5563
28.5564
28.5562
28.5563
28.5561
28.5561
28.5557
28.556
28.5551
28.5556
28.5549
28.5379
24.6451
26.9164
27.1704
27.293
27.3665
27.4247
27.4804
27.5534
27.6301
27.7049
27.7638
27.815
27.8591
27.9058
27.9506
27.9951
28.0321
28.0636
28.0855
28.1023
28.1122
28.1197
28.1231
28.1264
28.1274
28.129
28.1293
28.1305
28.1306
28.1316
28.1317
28.1327
28.1328
28.1338
28.1338
28.1347
28.1348
28.1357
28.1358
28.1366
28.1367
28.1375
28.1376
28.1383
28.1384
28.1391
28.1392
28.1398
28.1399
28.1405
28.1405
28.1411
28.1411
28.1416
28.1416
28.1421
28.1421
28.1426
28.1425
28.1429
28.1429
28.1432
28.1431
28.1435
28.1434
28.1437
28.1435
28.1438
28.1436
28.1438
28.1437
28.1438
28.1436
28.1438
28.1436
28.1437
28.1435
28.1435
28.1433
28.1433
28.1431
28.1431
28.1428
28.1428
28.1422
28.1424
28.1414
28.1416
28.1409
28.1165
24.555
26.8627
27.0952
27.1949
27.2473
27.2842
27.3205
27.3778
27.4444
27.5122
27.5656
27.6116
27.6514
27.6951
27.7389
27.7842
27.8228
27.8566
27.8803
27.8988
27.9098
27.9182
27.9222
27.9259
27.927
27.929
27.9293
27.9306
27.9308
27.9319
27.9321
27.9332
27.9333
27.9343
27.9345
27.9355
27.9356
27.9366
27.9367
27.9376
27.9377
27.9386
27.9387
27.9395
27.9396
27.9403
27.9404
27.9411
27.9412
27.9419
27.9419
27.9425
27.9426
27.9431
27.9432
27.9437
27.9437
27.9441
27.9441
27.9445
27.9445
27.9449
27.9448
27.9451
27.945
27.9453
27.9452
27.9454
27.9453
27.9455
27.9453
27.9455
27.9452
27.9454
27.9451
27.9452
27.945
27.9451
27.9448
27.9448
27.9445
27.9445
27.9442
27.9442
27.9436
27.9438
27.9429
27.9431
27.9424
27.9201
24.5553
26.851
27.0643
27.1433
27.1769
27.1971
27.2188
27.263
27.3188
27.3772
27.4232
27.4634
27.499
27.5397
27.5814
27.6254
27.6632
27.6963
27.7198
27.7381
27.7489
27.7573
27.7612
27.7649
27.766
27.7679
27.7682
27.7695
27.7697
27.7708
27.771
27.7721
27.7722
27.7732
27.7734
27.7744
27.7745
27.7755
27.7756
27.7765
27.7766
27.7775
27.7776
27.7784
27.7785
27.7792
27.7793
27.78
27.7801
27.7808
27.7808
27.7814
27.7815
27.782
27.7821
27.7826
27.7826
27.783
27.783
27.7834
27.7834
27.7838
27.7837
27.784
27.7839
27.7842
27.7841
27.7843
27.7842
27.7844
27.7842
27.7844
27.7842
27.7843
27.7841
27.7842
27.7839
27.784
27.7837
27.7838
27.7834
27.7835
27.7831
27.7831
27.7826
27.7827
27.7819
27.782
27.7813
27.7595
24.645
26.8719
27.0656
27.1266
27.1454
27.1552
27.1692
27.2047
27.2507
27.2992
27.3373
27.3724
27.4049
27.4432
27.4824
27.5235
27.5582
27.5883
27.6094
27.6256
27.6352
27.6425
27.6458
27.649
27.6499
27.6516
27.6518
27.6529
27.653
27.6541
27.6541
27.6551
27.6552
27.6561
27.6562
27.6571
27.6572
27.6581
27.6582
27.659
27.6591
27.6598
27.6599
27.6607
27.6607
27.6614
27.6615
27.6622
27.6622
27.6628
27.6629
27.6634
27.6635
27.664
27.664
27.6645
27.6645
27.6649
27.6649
27.6653
27.6652
27.6656
27.6655
27.6659
27.6658
27.6661
27.6659
27.6662
27.666
27.6663
27.6661
27.6663
27.6661
27.6662
27.666
27.6661
27.6659
27.666
27.6658
27.6658
27.6655
27.6656
27.6652
27.6653
27.6647
27.6649
27.6641
27.664
27.6636
27.6403
25.073
27.0873
27.2391
27.2784
27.2851
27.2898
27.3015
27.3321
27.3693
27.4081
27.4395
27.4711
27.5022
27.5392
27.5757
27.6129
27.6431
27.6691
27.6866
27.7003
27.7079
27.7141
27.7167
27.7196
27.7203
27.722
27.7221
27.7234
27.7235
27.7247
27.7248
27.7259
27.726
27.7271
27.7272
27.7282
27.7283
27.7293
27.7294
27.7303
27.7305
27.7314
27.7315
27.7323
27.7324
27.7332
27.7333
27.7341
27.7342
27.7349
27.7349
27.7356
27.7357
27.7363
27.7364
27.737
27.737
27.7375
27.7376
27.7381
27.7381
27.7385
27.7385
27.7389
27.7389
27.7393
27.7392
27.7395
27.7394
27.7398
27.7397
27.7399
27.7398
27.7401
27.7399
27.7401
27.7399
27.7401
27.7399
27.7401
27.7399
27.74
27.7397
27.7399
27.7394
27.7397
27.739
27.7391
27.7386
27.7231
25.7518
27.4358
27.5346
27.554
27.5536
27.5588
27.5721
27.601
27.6307
27.6632
27.6902
27.722
27.7531
27.7905
27.824
27.8579
27.8829
27.9052
27.9185
27.9305
27.936
27.9422
27.944
27.9476
27.9482
27.9509
27.9512
27.9536
27.9538
27.9562
27.9564
27.9586
27.9589
27.961
27.9613
27.9633
27.9636
27.9656
27.9659
27.9678
27.9681
27.9698
27.9701
27.9718
27.9721
27.9737
27.974
27.9756
27.9758
27.9773
27.9775
27.9789
27.9791
27.9804
27.9806
27.9818
27.982
27.9832
27.9833
27.9844
27.9846
27.9856
27.9857
27.9866
27.9867
27.9876
27.9876
27.9885
27.9885
27.9892
27.9892
27.99
27.9899
27.9906
27.9905
27.9912
27.9911
27.9917
27.9916
27.9921
27.992
27.9925
27.9922
27.9928
27.9924
27.993
27.9923
27.9929
27.9928
27.9729
27.8181
28.9073
28.9407
28.9447
28.9391
28.9497
28.9653
28.9966
29.0218
29.0549
29.0811
29.1185
29.1514
29.1931
29.2252
29.26
29.2814
29.3041
29.3147
29.3282
29.3324
29.3411
29.3427
29.3494
29.3502
29.3561
29.3569
29.3625
29.3633
29.3686
29.3695
29.3747
29.3756
29.3806
29.3816
29.3864
29.3874
29.392
29.3931
29.3975
29.3985
29.4027
29.4038
29.4078
29.4088
29.4126
29.4136
29.4172
29.4181
29.4216
29.4224
29.4257
29.4265
29.4296
29.4303
29.4332
29.4339
29.4366
29.4372
29.4397
29.4402
29.4426
29.443
29.4452
29.4456
29.4477
29.4479
29.4499
29.4501
29.4519
29.452
29.4537
29.4537
29.4553
29.4553
29.4567
29.4567
29.4581
29.4579
29.4592
29.459
29.4603
29.46
29.4614
29.4609
29.4624
29.4616
29.4635
29.4631
29.4651
29.7961
30.2653
30.2786
30.2714
30.2652
30.2746
30.291
30.3209
30.3444
30.377
30.4032
30.4428
30.4763
30.5199
30.5511
30.5864
30.6062
30.6293
30.6385
30.6531
30.6564
30.6668
30.6679
30.6766
30.6773
30.6854
30.6861
30.6941
30.695
30.7028
30.704
30.7116
30.713
30.7205
30.722
30.7294
30.7311
30.7383
30.7401
30.7471
30.749
30.7558
30.7579
30.7645
30.7666
30.773
30.7751
30.7813
30.7834
30.7894
30.7914
30.7972
30.7992
30.8047
30.8066
30.8118
30.8136
30.8185
30.8202
30.8248
30.8263
30.8307
30.832
30.836
30.8372
30.8409
30.8419
30.8453
30.8461
30.8492
30.8498
30.8527
30.8531
30.8557
30.856
30.8584
30.8584
30.8607
30.8606
30.8627
30.8625
30.8645
30.8642
30.8663
30.8659
30.8682
30.8676
30.871
30.8664
30.8667
3.65078
3.86538
3.89261
3.90664
3.9282
3.94962
3.97122
3.99505
4.01263
4.03514
4.04864
4.07005
4.08079
4.10086
4.10885
4.12677
4.13223
4.14808
4.15185
4.1663
4.1692
4.1828
4.18533
4.19836
4.20076
4.21334
4.21572
4.22787
4.23027
4.24202
4.24446
4.2558
4.2583
4.26924
4.27178
4.28233
4.28491
4.29508
4.29769
4.30748
4.31011
4.31953
4.32216
4.33121
4.33382
4.3425
4.34508
4.35339
4.35592
4.36387
4.36631
4.3739