/*--------------------------------*- C++ -*----------------------------------*\
  =========                 |
  \\      /  F ield         | OpenFOAM: The Open Source CFD Toolbox
   \\    /   O peration     | Website:  https://openfoam.org
    \\  /    A nd           | Version:  7
     \\/     M anipulation  |
\*---------------------------------------------------------------------------*/
FoamFile
{
    version     2.0;
    format      ascii;
    class       surfaceScalarField;
    location    "1.24";
    object      phi_0;
}
// * * * * * * * * * * * * * * * * * * * * * * * * * * * * * * * * * * * * * //

dimensions      [1 0 -1 0 0 0 0];

internalField   nonuniform List<scalar> 
13265
(
0.00260537
0.00109054
1.36462e-05
0.00200022
0.000599973
7.05627e-06
0.00160597
0.0003842
1.18513e-05
0.00140332
0.000197068
7.32729e-06
0.00128363
0.000110202
1.12094e-05
0.00121088
6.68872e-05
7.57741e-06
0.00115849
4.3433e-05
1.06615e-05
0.00112093
3.163e-05
7.66694e-06
0.00108937
2.31701e-05
1.01339e-05
0.00106524
1.82307e-05
7.67721e-06
0.00104347
1.39105e-05
9.65922e-06
0.00102656
1.10865e-05
7.6465e-06
0.00101074
8.41613e-06
9.23571e-06
0.000998179
6.80984e-06
7.58595e-06
0.000986163
5.00055e-06
8.85328e-06
0.000975594
4.89692e-06
7.50222e-06
0.000960912
7.98856e-06
8.51494e-06
0.000957837
-2.5142e-06
7.39107e-06
0.00085663
9.45879e-05
8.41086e-06
6.61693e-05
6.95898e-06
0.000785278
0.00387574
0.000920431
3.40539e-06
0.00383347
0.000646725
-2.60093e-06
0.0036921
0.000525276
1.98419e-06
0.0035455
0.000347779
-2.54186e-06
0.0034125
0.000243377
1.32271e-06
0.00330376
0.000179392
-2.32954e-06
0.00321101
0.000136841
7.49707e-07
0.00313648
0.000109818
-2.25364e-06
0.00307172
8.91672e-05
2.12261e-07
0.00301958
7.4142e-05
-2.2482e-06
0.00297328
6.20948e-05
-2.67846e-07
0.00293561
5.27348e-05
-2.27972e-06
0.00290204
4.44444e-05
-6.98619e-07
0.00287343
3.95655e-05
-2.33705e-06
0.00285066
3.07094e-05
-1.10203e-06
0.00282683
3.29838e-05
-2.41257e-06
0.00282172
1.6469e-05
-1.53162e-06
0.00279832
2.52343e-05
-2.54571e-06
0.00288371
1.31418e-05
-2.18043e-06
-3.10626e-05
-3.5314e-06
0.00298618
0.00409578
0.000522296
1.17622e-05
0.00434337
0.000394593
6.42456e-06
0.00449583
0.000363676
1.08353e-05
0.00457514
0.000263678
6.33155e-06
0.00460815
0.000201644
1.01786e-05
0.00462304
0.000159361
6.54994e-06
0.00462276
0.000128816
9.64721e-06
0.00461932
0.000107877
6.66195e-06
0.00460961
9.10073e-05
9.13745e-06
0.00460076
7.7617e-05
6.68569e-06
0.0045885
6.70991e-05
8.67234e-06
0.00457887
5.7259e-05
6.66133e-06
0.00456598
5.07518e-05
8.25714e-06
0.00455792
4.28157e-05
6.60381e-06
0.00454293
3.96808e-05
7.89148e-06
0.00453823
3.31317e-05
6.52105e-06
0.00451336
3.57552e-05
7.61776e-06
0.0045059
2.8362e-05
6.42391e-06
0.00445296
6.03834e-05
7.76579e-06
6.29009e-05
6.29844e-06
0.00435473
0.0040515
0.000176816
2.97739e-06
0.00431503
0.000135289
-2.34647e-06
0.00455073
0.000127688
1.98682e-06
0.00472343
9.50591e-05
-2.54258e-06
0.00485067
7.45789e-05
1.2807e-06
0.0049527
6.11302e-05
-2.37882e-06
0.00503081
5.13518e-05
7.07766e-07
0.0050974
4.4863e-05
-2.293e-06
0.00515021
3.92476e-05
1.78059e-07
0.00519633
3.50025e-05
-2.28031e-06
0.00523411
3.09243e-05
-2.99273e-07
0.00526707
2.80612e-05
-2.30851e-06
0.00529586
2.42999e-05
-7.30149e-07
0.00531946
2.33119e-05
-2.36416e-06
0.00534432
1.78016e-05
-1.1414e-06
0.00536131
2.05396e-05
-2.44856e-06
0.00539188
8.84426e-06
-1.61562e-06
0.00540996
1.51102e-05
-2.64774e-06
0.00547955
-4.45602e-06
-2.51946e-06
-2.07092e-05
-3.60338e-06
0.00556906
0.00405151
-0.000176816
1.1501e-05
0.00431744
-0.000135289
6.52741e-06
0.0045637
-0.000127688
1.08113e-05
0.00474903
-9.50585e-05
6.32402e-06
0.0048895
-7.45789e-05
1.01454e-05
0.00500666
-6.1128e-05
6.51312e-06
0.00510111
-5.13497e-05
9.61219e-06
0.00518549
-4.48569e-05
6.62891e-06
0.00525608
-3.92376e-05
9.10744e-06
0.00532062
-3.49862e-05
6.65739e-06
0.00537507
-3.08912e-05
8.64541e-06
0.00542592
-2.801e-05
6.63571e-06
0.00546778
-2.42177e-05
8.23321e-06
0.00550934
-2.31243e-05
6.58062e-06
0.00553873
-1.76479e-05
7.87423e-06
0.00557458
-1.98863e-05
6.50015e-06
0.00558638
-8.55863e-06
7.62687e-06
0.00561061
-1.33528e-05
6.40542e-06
0.00559483
5.71485e-06
7.86044e-06
2.45841e-05
6.37045e-06
0.00554553
0.0040515
-0.000522297
2.97739e-06
0.00431503
-0.000394593
-2.34647e-06
0.00455073
-0.000363677
1.98682e-06
0.00472343
-0.000263678
-2.54258e-06
0.00485067
-0.000201644
1.2807e-06
0.0049527
-0.000159359
-2.37882e-06
0.00503081
-0.000128814
7.07766e-07
0.0050974
-0.000107872
-2.293e-06
0.00515021
-9.09982e-05
1.78061e-07
0.00519633
-7.76032e-05
-2.28032e-06
0.00523412
-6.70692e-05
-2.99272e-07
0.00526709
-5.72158e-05
-2.30852e-06
0.00529588
-5.06785e-05
-7.30163e-07
0.00531951
-4.26554e-05
-2.36419e-06
0.00534439
-3.95494e-05
-1.14146e-06
0.00536147
-3.25637e-05
-2.4487e-06
0.00539209
-3.55205e-05
-1.61567e-06
0.00541034
-2.67756e-05
-2.64817e-06
0.00548014
-5.9337e-05
-2.5184e-06
-5.94734e-05
-3.60402e-06
0.0055701
0.00409578
-0.000920431
1.17622e-05
0.00434337
-0.000646725
6.42456e-06
0.00449583
-0.000525276
1.08353e-05
0.00457514
-0.000347779
6.33155e-06
0.00460815
-0.000243377
1.01786e-05
0.00462304
-0.00017939
6.54994e-06
0.00462276
-0.000136839
9.64721e-06
0.00461932
-0.000109814
6.66195e-06
0.00460961
-8.91604e-05
9.13746e-06
0.00460077
-7.41332e-05
6.6857e-06
0.00458852
-6.20731e-05
8.67235e-06
0.0045789
-5.27063e-05
6.66133e-06
0.00456604
-4.43935e-05
8.25713e-06
0.00455802
-3.94547e-05
6.60385e-06
0.00454309
-3.06268e-05
7.89144e-06
0.00453855
-3.25807e-05
6.52117e-06
0.0045138
-1.63517e-05
7.61767e-06
0.00450682
-2.41385e-05
6.42405e-06
0.00445439
-1.25968e-05
7.76512e-06
3.31165e-05
6.29789e-06
0.00435753
0.00387574
-0.00109054
3.40539e-06
0.00383347
-0.000599973
-2.60093e-06
0.0036921
-0.0003842
1.98419e-06
0.0035455
-0.000197068
-2.54186e-06
0.0034125
-0.000110202
1.32271e-06
0.00330376
-6.68869e-05
-2.32954e-06
0.00321101
-4.34324e-05
7.4971e-07
0.00313648
-3.16291e-05
-2.25364e-06
0.00307173
-2.31672e-05
2.12266e-07
0.0030196
-1.8228e-05
-2.2482e-06
0.00297331
-1.39013e-05
-2.67841e-07
0.00293565
-1.10779e-05
-2.27973e-06
0.00290211
-8.39273e-06
-6.98619e-07
0.00287358
-6.77594e-06
-2.3371e-06
0.00285085
-4.95746e-06
-1.10202e-06
0.0028273
-4.76983e-06
-2.41279e-06
0.0028222
-7.89044e-06
-1.53136e-06
0.00279955
2.87254e-06
-2.54664e-06
0.002885
-9.41055e-05
-2.17807e-06
-6.51609e-05
-3.53409e-06
0.0029885
0.00260537
1.36461e-05
0.00200022
7.05624e-06
0.00160597
1.18513e-05
0.00140332
7.32727e-06
0.00128363
1.12093e-05
0.00121088
7.57739e-06
0.0011585
1.06615e-05
0.00112093
7.66692e-06
0.00108938
1.01338e-05
0.00106525
7.67719e-06
0.00104349
9.65919e-06
0.00102659
7.64649e-06
0.00101079
9.23565e-06
0.000998264
7.586e-06
0.000986291
8.85312e-06
0.00097585
7.50241e-06
0.000961264
8.51458e-06
0.000958551
7.39153e-06
0.000857823
8.40999e-06
6.9597e-06
0.000787472
0.00338969
0.000329046
3.33844e-06
0.00282766
0.000565821
5.14993e-06
0.00233752
0.000501329
2.41084e-06
0.00198534
0.000357275
3.90495e-06
0.00175631
0.000239722
2.13493e-06
0.00160837
0.000153792
3.34151e-06
0.00151469
0.000103792
2.17056e-06
0.00144743
7.34744e-05
3.10354e-06
0.00140112
5.58753e-05
2.26631e-06
0.00136246
4.51245e-05
2.93362e-06
0.00133394
3.75994e-05
2.33174e-06
0.00130796
3.26182e-05
2.77967e-06
0.00128813
2.84803e-05
2.37054e-06
0.00126946
2.53936e-05
2.65153e-06
0.00125571
2.19851e-05
2.40392e-06
0.00124073
2.16944e-05
2.55634e-06
0.00124439
4.16568e-06
2.44194e-06
0.00122051
3.04982e-05
2.50027e-06
0.00137048
-0.000142207
2.35825e-06
-0.000124558
2.6468e-06
0.00150105
0.00383226
0.000200834
8.13027e-06
0.00390695
0.000480727
9.67159e-06
0.00391029
0.000494024
7.63448e-06
0.003847
0.000410954
8.62333e-06
0.00376638
0.000315796
7.33862e-06
0.00367868
0.000232431
8.13771e-06
0.00360133
0.000175883
7.36623e-06
0.00352921
0.000136758
7.93031e-06
0.00346899
0.000110272
7.44021e-06
0.00341375
9.1836e-05
7.77839e-06
0.00336764
7.75734e-05
7.47128e-06
0.00332548
6.65701e-05
7.63968e-06
0.00328918
5.84017e-05
7.47326e-06
0.0032575
4.9088e-05
7.52138e-06
0.00322589
4.69313e-05
7.47433e-06
0.00320497
3.4691e-05
7.42824e-06
0.00316542
3.65902e-05
7.51061e-06
0.00316025
2.75938e-05
7.37697e-06
0.00303017
-2.01831e-05
7.68037e-06
3.54794e-05
7.73693e-06
0.00286058
0.00382648
9.11227e-05
3.42053e-06
0.00403256
0.000277734
5.22161e-06
0.00421854
0.000317929
2.62973e-06
0.00434845
0.000284775
4.13939e-06
0.00443657
0.000237035
2.29128e-06
0.00448505
0.000188366
3.5372e-06
0.00451569
0.000153932
2.2912e-06
0.00452925
0.000127856
3.26902e-06
0.00453815
0.000109387
2.39431e-06
0.00453938
9.5526e-05
3.09895e-06
0.00454061
8.40029e-05
2.48019e-06
0.00453714
7.53614e-05
2.95398e-06
0.00453621
6.67797e-05
2.53698e-06
0.00452984
6.10709e-05
2.83401e-06
0.00453119
5.28479e-05
2.57862e-06
0.00452112
5.0593e-05
2.74437e-06
0.00453289
3.19815e-05
2.58558e-06
0.00452447
4.19092e-05
2.68842e-06
0.00455601
-4.4162e-05
2.32728e-06
-2.66835e-05
2.71128e-06
0.00462384
0.00375312
4.17505e-05
7.98986e-06
0.00392955
9.1266e-05
9.55881e-06
0.00414728
9.62348e-05
7.62604e-06
0.00433437
8.80174e-05
8.65162e-06
0.00449309
7.37125e-05
7.35311e-06
0.00461258
5.9771e-05
8.13724e-06
0.00471192
4.92899e-05
7.34551e-06
0.00478928
4.15599e-05
7.90195e-06
0.00485675
3.59062e-05
7.40685e-06
0.00491191
3.16151e-05
7.74527e-06
0.00496139
2.81724e-05
7.43954e-06
0.00500346
2.49096e-05
7.60956e-06
0.00504068
2.30579e-05
7.44654e-06
0.00507436
1.93204e-05
7.49487e-06
0.00510018
2.03285e-05
7.45461e-06
0.00512869
1.42567e-05
7.40794e-06
0.00513313
2.05431e-05
7.51282e-06
0.00515248
1.47844e-05
7.39362e-06
0.00508195
1.83309e-05
7.80834e-06
4.7414e-05
7.7856e-06
0.00499876
0.00380003
-4.17506e-05
3.4018e-06
0.00398574
-9.12656e-05
5.21555e-06
0.00418802
-9.62349e-05
2.68387e-06
0.00436772
-8.80162e-05
4.19602e-06
0.00452441
-7.37121e-05
2.34103e-06
0.0046483
-5.97682e-05
3.58064e-06
0.00475551
-4.92876e-05
2.32134e-06
0.00484322
-4.15526e-05
3.29439e-06
0.00492293
-3.58973e-05
2.41575e-06
0.00499094
-3.15947e-05
3.11866e-06
0.00505477
-2.81455e-05
2.50134e-06
0.00510972
-2.48484e-05
2.97405e-06
0.0051631
-2.29874e-05
2.55999e-06
0.00520705
-1.91306e-05
2.85543e-06
0.00525468
-2.01498e-05
2.60058e-06
0.00528837
-1.36912e-05
2.7668e-06
0.00533611
-2.00418e-05
2.591e-06
0.00537012
-1.32569e-05
2.71415e-06
0.00541301
-1.66488e-05
2.28046e-06
-4.36291e-05
2.71713e-06
0.00551008
0.00375312
-9.11228e-05
7.98986e-06
0.00392955
-0.000277733
9.55881e-06
0.00414728
-0.000317929
7.62604e-06
0.00433437
-0.000284774
8.65162e-06
0.00449309
-0.000237035
7.35311e-06
0.00461258
-0.000188363
8.13724e-06
0.00471192
-0.00015393
7.34551e-06
0.00478928
-0.000127849
7.90195e-06
0.00485675
-0.000109379
7.40685e-06
0.00491191
-9.55075e-05
7.74527e-06
0.0049614
-8.39783e-05
7.43954e-06
0.00500347
-7.53056e-05
7.60957e-06
0.0050407
-6.67169e-05
7.44655e-06
0.0050744
-6.08965e-05
7.49489e-06
0.00510024
-5.26939e-05
7.45461e-06
0.00512879
-5.00756e-05
7.40802e-06
0.00513332
-3.15618e-05
7.51276e-06
0.00515284
-4.05555e-05
7.39382e-06
0.00508258
4.55756e-05
7.80773e-06
2.99653e-05
7.78562e-06
0.0049999
0.00382648
-0.000200834
3.42053e-06
0.00403256
-0.000480727
5.22161e-06
0.00421854
-0.000494024
2.62973e-06
0.00434845
-0.000410954
4.13939e-06
0.00443657
-0.000315796
2.29128e-06
0.00448505
-0.00023243
3.5372e-06
0.00451569
-0.000175881
2.2912e-06
0.00452926
-0.000136753
3.26902e-06
0.00453815
-0.000110264
2.39431e-06
0.00453939
-9.18237e-05
3.09895e-06
0.00454063
-7.75525e-05
2.48019e-06
0.00453717
-6.6533e-05
2.95397e-06
0.00453625
-5.83491e-05
2.53699e-06
0.00452994
-4.89708e-05
2.83399e-06
0.00453132
-4.6806e-05
2.57862e-06
0.00452141
-3.43362e-05
2.74431e-06
0.00453326
-3.62572e-05
2.58553e-06
0.00452524
-2.66328e-05
2.68832e-06
0.00455713
2.12485e-05
2.32755e-06
-3.28973e-05
2.71085e-06
0.00462565
0.00383226
-0.000329046
8.13027e-06
0.00390695
-0.000565821
9.67159e-06
0.00391029
-0.000501329
7.63448e-06
0.003847
-0.000357275
8.62333e-06
0.00376638
-0.000239722
7.33861e-06
0.00367868
-0.000153792
8.13771e-06
0.00360133
-0.000103791
7.36622e-06
0.00352921
-7.34723e-05
7.93031e-06
0.00346899
-5.58716e-05
7.44021e-06
0.00341376
-4.5119e-05
7.7784e-06
0.00336767
-3.75889e-05
7.47129e-06
0.00332553
-3.26014e-05
7.63969e-06
0.00328926
-2.84555e-05
7.47326e-06
0.00325763
-2.53376e-05
7.52141e-06
0.00322609
-2.19349e-05
7.47431e-06
0.00320536
-2.15143e-05
7.4284e-06
0.00316604
-4.07166e-06
7.51035e-06
0.00316135
-3.00089e-05
7.37747e-06
0.00303211
0.000142429
7.67887e-06
0.000125028
7.73794e-06
0.00286461
0.00338969
3.33844e-06
0.00282766
5.14993e-06
0.00233752
2.41084e-06
0.00198534
3.90495e-06
0.00175631
2.13493e-06
0.00160837
3.34151e-06
0.00151469
2.17056e-06
0.00144744
3.10354e-06
0.00140112
2.26631e-06
0.00136247
2.93362e-06
0.00133397
2.33175e-06
0.001308
2.77966e-06
0.0012882
2.37057e-06
0.00126958
2.65151e-06
0.00125588
2.40399e-06
0.00124108
2.55627e-06
0.00124483
2.44208e-06
0.00122145
2.49995e-06
0.00137163
2.3586e-06
2.64619e-06
0.00150265
0.00357593
0.000138895
-3.33845e-06
0.00332627
0.00026182
-5.14994e-06
0.00302112
0.000311674
-2.41085e-06
0.00272226
0.000308251
-3.90496e-06
0.00245111
0.000276924
-2.13494e-06
0.00222586
0.000233413
-3.34152e-06
0.00204435
0.000187352
-2.17057e-06
0.0019066
0.000145542
-3.10355e-06
0.001802
0.00011079
-2.26632e-06
0.00172605
8.35311e-05
-2.93363e-06
0.0016692
6.3247e-05
-2.33175e-06
0.00162797
4.85302e-05
-2.77968e-06
0.00159683
3.7612e-05
-2.37055e-06
0.00157298
3.08679e-05
-2.65154e-06
0.00155638
2.31132e-05
-2.40394e-06
0.00153926
2.39084e-05
-2.55635e-06
0.00153583
9.98341e-06
-2.44195e-06
0.00151816
2.42947e-05
-2.50028e-06
0.00153845
-1.39435e-05
-2.35827e-06
-1.71963e-05
-2.64682e-06
0.00156256
0.00377387
8.94289e-05
-8.13028e-06
0.00386792
0.000188971
-9.67161e-06
0.00394037
0.000256165
-7.63449e-06
0.00398242
0.000284981
-8.62334e-06
0.00399071
0.000284753
-7.33863e-06
0.00397806
0.000263696
-8.13772e-06
0.00394857
0.000232877
-7.36624e-06
0.00391239
0.000198863
-7.93032e-06
0.00387126
0.000168141
-7.44023e-06
0.00383075
0.000141069
-7.77841e-06
0.00379042
0.000120131
-7.4713e-06
0.0037533
0.000102655
-7.63969e-06
0.00371787
8.98417e-05
-7.47327e-06
0.00368656
7.91692e-05
-7.52139e-06
0.00365681
6.98376e-05
-7.47434e-06
0.00363155
6.60638e-05
-7.42826e-06
0.00360729
5.12827e-05
-7.51062e-06
0.00358554
6.27149e-05
-7.37698e-06
0.00356483
2.39745e-05
-7.68038e-06
5.38361e-05
-7.73694e-06
0.00351099
0.00376012
4.42869e-05
-3.42054e-06
0.00385959
0.00010181
-5.22162e-06
0.00397738
0.000145302
-2.62974e-06
0.00410417
0.000167994
-4.1394e-06
0.00422116
0.000173798
-2.29129e-06
0.00432612
0.000167202
-3.53721e-06
0.00441203
0.000152836
-2.29121e-06
0.00448269
0.000135965
-3.26903e-06
0.00453773
0.000119137
-2.39432e-06
0.00458188
0.00010445
-3.09896e-06
0.00461654
9.19162e-05
-2.4802e-06
0.00464456
8.21604e-05
-2.95399e-06
0.0046678
7.34396e-05
-2.53699e-06
0.00468662
6.78878e-05
-2.83402e-06
0.00470381
5.98182e-05
-2.57863e-06
0.00471771
5.97887e-05
-2.74439e-06
0.0047311
4.52933e-05
-2.58559e-06
0.00474419
5.72752e-05
-2.68844e-06
0.00475223
2.28066e-05
-2.32729e-06
4.45042e-05
-2.71129e-06
0.00476912
0.00374879
1.96106e-05
-7.98987e-06
0.003833
3.85798e-05
-9.55882e-06
0.00394349
5.17259e-05
-7.62605e-06
0.00407203
5.82835e-05
-8.65164e-06
0.0042015
6.04932e-05
-7.35312e-06
0.00432781
5.85483e-05
-8.13726e-06
0.0044419
5.47278e-05
-7.34552e-06
0.00454546
4.94268e-05
-7.90196e-06
0.00463602
4.46064e-05
-7.40687e-06
0.00471746
3.98101e-05
-7.74528e-06
0.00478946
3.6252e-05
-7.43955e-06
0.00485551
3.29228e-05
-7.60958e-06
0.00491496
3.06138e-05
-7.44656e-06
0.00497113
2.85309e-05
-7.49489e-06
0.00502129
2.65137e-05
-7.45462e-06
0.00507171
2.62817e-05
-7.40795e-06
0.00511207
2.21788e-05
-7.51284e-06
0.00515916
2.73388e-05
-7.39364e-06
0.00518345
1.64851e-05
-7.80836e-06
3.36676e-05
-7.78562e-06
0.00521219
0.00375416
-1.96109e-05
-3.40181e-06
0.00384362
-3.85793e-05
-5.21556e-06
0.0039541
-5.17262e-05
-2.68388e-06
0.00408058
-5.82821e-05
-4.19604e-06
0.00420771
-6.04932e-05
-2.34105e-06
0.00433335
-5.85449e-05
-3.58065e-06
0.00444874
-5.47255e-05
-2.32135e-06
0.00455539
-4.94182e-05
-3.2944e-06
0.00465064
-4.45968e-05
-2.41577e-06
0.00473777
-3.97855e-05
-3.11868e-06
0.0048167
-3.62256e-05
-2.50135e-06
0.00489001
-3.28456e-05
-2.97407e-06
0.00495802
-3.05565e-05
-2.56e-06
0.00502237
-2.82923e-05
-2.85545e-06
0.0050824
-2.63897e-05
-2.60059e-06
0.00514192
-2.5625e-05
-2.76681e-06
0.00519331
-2.18084e-05
-2.59101e-06
0.00525424
-2.58022e-05
-2.71417e-06
0.00529273
-1.50573e-05
-2.28047e-06
-3.05915e-05
-2.71714e-06
0.00536479
0.00374879
-4.42871e-05
-7.98987e-06
0.003833
-0.00010181
-9.55882e-06
0.00394349
-0.000145302
-7.62605e-06
0.00407203
-0.000167993
-8.65164e-06
0.0042015
-0.000173798
-7.35312e-06
0.00432781
-0.000167198
-8.13726e-06
0.0044419
-0.000152833
-7.34552e-06
0.00454546
-0.000135956
-7.90196e-06
0.00463603
-0.000119128
-7.40687e-06
0.00471747
-0.000104427
-7.74528e-06
0.00478947
-9.18913e-05
-7.43956e-06
0.00485552
-8.20879e-05
-7.60958e-06
0.00491497
-7.33865e-05
-7.44656e-06
0.00497115
-6.76635e-05
-7.49491e-06
0.00502133
-5.97077e-05
-7.45462e-06
0.00507179
-5.91714e-05
-7.40804e-06
0.0051122
-4.49683e-05
-7.51277e-06
0.00515938
-5.58395e-05
-7.39384e-06
0.00518383
-2.15343e-05
-7.80775e-06
-4.1696e-05
-7.78563e-06
0.00521284
0.00376012
-8.9429e-05
-3.42054e-06
0.00385959
-0.000188971
-5.22162e-06
0.00397738
-0.000256165
-2.62974e-06
0.00410417
-0.00028498
-4.1394e-06
0.00422116
-0.000284753
-2.29129e-06
0.00432612
-0.000263693
-3.53721e-06
0.00441203
-0.000232875
-2.29121e-06
0.0044827
-0.000198857
-3.26903e-06
0.00453773
-0.000168133
-2.39432e-06
0.00458189
-0.000141051
-3.09896e-06
0.00461655
-0.000120109
-2.48021e-06
0.00464459
-0.000102598
-2.95398e-06
0.00466783
-8.97982e-05
-2.537e-06
0.0046867
-7.89897e-05
-2.834e-06
0.00470392
-6.97558e-05
-2.57863e-06
0.00471794
-6.55665e-05
-2.74433e-06
0.00473143
-5.10534e-05
-2.58554e-06
0.00474481
-6.15685e-05
-2.68833e-06
0.00475317
-2.30313e-05
-2.32756e-06
-5.16677e-05
-2.71087e-06
0.0047707
0.00377387
-0.000138895
-8.13028e-06
0.00386792
-0.00026182
-9.67161e-06
0.00394037
-0.000311674
-7.63449e-06
0.00398242
-0.000308251
-8.62334e-06
0.00399071
-0.000276924
-7.33863e-06
0.00397807
-0.000233412
-8.13772e-06
0.00394857
-0.00018735
-7.36624e-06
0.00391239
-0.000145539
-7.93032e-06
0.00387127
-0.000110784
-7.44023e-06
0.00383077
-8.35233e-05
-7.77841e-06
0.00379044
-6.32318e-05
-7.4713e-06
0.00375336
-4.85038e-05
-7.6397e-06
0.00371794
-3.75832e-05
-7.47328e-06
0.00368672
-3.0779e-05
-7.52143e-06
0.003657
-2.3065e-05
-7.47432e-06
0.00363199
-2.36522e-05
-7.42842e-06
0.00360783
-9.86394e-06
-7.51036e-06
0.00358665
-2.37112e-05
-7.37749e-06
0.00356638
1.44435e-05
-7.67888e-06
1.80303e-05
-7.73796e-06
0.00351386
0.00357593
-3.33845e-06
0.00332627
-5.14994e-06
0.00302112
-2.41085e-06
0.00272226
-3.90496e-06
0.00245111
-2.13494e-06
0.00222586
-3.34152e-06
0.00204435
-2.17057e-06
0.0019066
-3.10355e-06
0.00180201
-2.26632e-06
0.00172607
-2.93363e-06
0.00166924
-2.33177e-06
0.00162803
-2.77967e-06
0.00159692
-2.37059e-06
0.00157316
-2.65152e-06
0.0015566
-2.404e-06
0.00153975
-2.55629e-06
0.00153643
-2.44209e-06
0.00151936
-2.49996e-06
0.00154013
-2.35861e-06
-2.6462e-06
0.00156506
0.00338969
0.000329046
-1.36461e-05
0.00282766
0.000565821
-7.05625e-06
0.00233752
0.000501329
-1.18513e-05
0.00198534
0.000357275
-7.32728e-06
0.00175631
0.000239722
-1.12093e-05
0.00160837
0.000153792
-7.57739e-06
0.00151469
0.000103792
-1.06615e-05
0.00144743
7.34744e-05
-7.66692e-06
0.00140112
5.58753e-05
-1.01339e-05
0.00136246
4.51244e-05
-7.6772e-06
0.00133394
3.75994e-05
-9.6592e-06
0.00130796
3.26181e-05
-7.64648e-06
0.00128813
2.84803e-05
-9.23569e-06
0.00126946
2.53935e-05
-7.58593e-06
0.00125571
2.1985e-05
-8.85326e-06
0.00124073
2.16943e-05
-7.5022e-06
0.00124439
4.16561e-06
-8.51492e-06
0.00122051
3.04981e-05
-7.39106e-06
0.00137048
-0.000142207
-8.41084e-06
-0.000124558
-6.95897e-06
0.00150105
0.00383226
0.000200834
-3.4054e-06
0.00390695
0.000480727
2.60092e-06
0.00391029
0.000494024
-1.9842e-06
0.003847
0.000410954
2.54185e-06
0.00376638
0.000315796
-1.32272e-06
0.00367868
0.000232431
2.32953e-06
0.00360133
0.000175883
-7.49718e-07
0.00352921
0.000136758
2.25363e-06
0.00346899
0.000110272
-2.12271e-07
0.00341375
9.18359e-05
2.24818e-06
0.00336764
7.75733e-05
2.67836e-07
0.00332548
6.65699e-05
2.27971e-06
0.00328918
5.84015e-05
6.9861e-07
0.0032575
4.90878e-05
2.33704e-06
0.00322589
4.69312e-05
1.10202e-06
0.00320497
3.46909e-05
2.41256e-06
0.00316542
3.65901e-05
1.53161e-06
0.00316025
2.75937e-05
2.54571e-06
0.00303017
-2.01832e-05
2.18043e-06
3.54793e-05
3.5314e-06
0.00286058
0.00382648
9.11227e-05
-1.17622e-05
0.00403256
0.000277734
-6.42457e-06
0.00421854
0.000317929
-1.08353e-05
0.00434845
0.000284775
-6.33156e-06
0.00443657
0.000237035
-1.01786e-05
0.00448505
0.000188366
-6.54994e-06
0.00451569
0.000153932
-9.64722e-06
0.00452925
0.000127856
-6.66196e-06
0.00453815
0.000109387
-9.13746e-06
0.00453938
9.55258e-05
-6.6857e-06
0.00454061
8.40027e-05
-8.67235e-06
0.00453714
7.53612e-05
-6.66133e-06
0.00453621
6.67795e-05
-8.25715e-06
0.00452984
6.10708e-05
-6.60382e-06
0.00453119
5.28478e-05
-7.89148e-06
0.00452112
5.05929e-05
-6.52105e-06
0.00453289
3.19815e-05
-7.61776e-06
0.00452447
4.19092e-05
-6.42391e-06
0.00455601
-4.4162e-05
-7.76579e-06
-2.66835e-05
-6.29845e-06
0.00462384
0.00375312
4.17505e-05
-2.97739e-06
0.00392955
9.1266e-05
2.34646e-06
0.00414728
9.62347e-05
-1.98682e-06
0.00433437
8.80173e-05
2.54257e-06
0.00449309
7.37124e-05
-1.28071e-06
0.00461258
5.97709e-05
2.37881e-06
0.00471192
4.92899e-05
-7.07773e-07
0.00478928
4.15598e-05
2.29299e-06
0.00485675
3.5906e-05
-1.78068e-07
0.00491191
3.16149e-05
2.28031e-06
0.00496139
2.81722e-05
2.99264e-07
0.00500346
2.49093e-05
2.3085e-06
0.00504068
2.30577e-05
7.30142e-07
0.00507436
1.93202e-05
2.36415e-06
0.00510018
2.03284e-05
1.1414e-06
0.00512869
1.42567e-05
2.44856e-06
0.00513313
2.05431e-05
1.61561e-06
0.00515248
1.47843e-05
2.64773e-06
0.00508195
1.83309e-05
2.51945e-06
4.74141e-05
3.60337e-06
0.00499876
0.00380003
-4.17506e-05
-1.15011e-05
0.00398574
-9.12657e-05
-6.52742e-06
0.00418802
-9.62349e-05
-1.08113e-05
0.00436772
-8.80163e-05
-6.32403e-06
0.00452441
-7.37122e-05
-1.01454e-05
0.0046483
-5.97683e-05
-6.51313e-06
0.00475551
-4.92877e-05
-9.6122e-06
0.00484322
-4.15527e-05
-6.62892e-06
0.00492293
-3.58975e-05
-9.10745e-06
0.00499094
-3.15949e-05
-6.65739e-06
0.00505477
-2.81458e-05
-8.64542e-06
0.00510972
-2.48486e-05
-6.63571e-06
0.0051631
-2.29876e-05
-8.23322e-06
0.00520705
-1.91308e-05
-6.58063e-06
0.00525468
-2.01499e-05
-7.87424e-06
0.00528837
-1.36913e-05
-6.50016e-06
0.00533611
-2.00418e-05
-7.62687e-06
0.00537012
-1.32569e-05
-6.40542e-06
0.00541301
-1.66487e-05
-7.86045e-06
-4.36291e-05
-6.37046e-06
0.00551008
0.00375312
-9.11228e-05
-2.97739e-06
0.00392955
-0.000277733
2.34646e-06
0.00414728
-0.000317929
-1.98682e-06
0.00433437
-0.000284774
2.54257e-06
0.00449309
-0.000237035
-1.28071e-06
0.00461258
-0.000188363
2.37881e-06
0.00471192
-0.00015393
-7.07774e-07
0.00478928
-0.00012785
2.29299e-06
0.00485675
-0.000109379
-1.78068e-07
0.00491191
-9.55077e-05
2.28031e-06
0.0049614
-8.39785e-05
2.99267e-07
0.00500347
-7.53058e-05
2.30851e-06
0.0050407
-6.67171e-05
7.30157e-07
0.0050744
-6.08966e-05
2.36418e-06
0.00510024
-5.2694e-05
1.14145e-06
0.00512879
-5.00757e-05
2.4487e-06
0.00513332
-3.15619e-05
1.61567e-06
0.00515284
-4.05555e-05
2.64817e-06
0.00508258
4.55756e-05
2.5184e-06
2.99653e-05
3.60401e-06
0.0049999
0.00382648
-0.000200834
-1.17622e-05
0.00403256
-0.000480727
-6.42457e-06
0.00421854
-0.000494024
-1.08353e-05
0.00434845
-0.000410954
-6.33156e-06
0.00443657
-0.000315796
-1.01786e-05
0.00448505
-0.00023243
-6.54994e-06
0.00451569
-0.000175881
-9.64722e-06
0.00452926
-0.000136753
-6.66196e-06
0.00453815
-0.000110265
-9.13746e-06
0.00453939
-9.18238e-05
-6.6857e-06
0.00454063
-7.75526e-05
-8.67235e-06
0.00453717
-6.65331e-05
-6.66134e-06
0.00453625
-5.83492e-05
-8.25714e-06
0.00452994
-4.89709e-05
-6.60385e-06
0.00453132
-4.68061e-05
-7.89145e-06
0.00452141
-3.43363e-05
-6.52118e-06
0.00453326
-3.62573e-05
-7.61768e-06
0.00452524
-2.66329e-05
-6.42406e-06
0.00455713
2.12484e-05
-7.76513e-06
-3.28974e-05
-6.2979e-06
0.00462565
0.00383226
-0.000329046
-3.4054e-06
0.00390695
-0.000565821
2.60092e-06
0.00391029
-0.000501329
-1.9842e-06
0.003847
-0.000357275
2.54185e-06
0.00376638
-0.000239722
-1.32272e-06
0.00367868
-0.000153792
2.32953e-06
0.00360133
-0.000103791
-7.49715e-07
0.00352921
-7.34723e-05
2.25363e-06
0.00346899
-5.58716e-05
-2.1227e-07
0.00341376
-4.51191e-05
2.2482e-06
0.00336767
-3.75889e-05
2.67835e-07
0.00332553
-3.26014e-05
2.27973e-06
0.00328926
-2.84555e-05
6.98612e-07
0.00325763
-2.53377e-05
2.33709e-06
0.00322609
-2.19349e-05
1.10201e-06
0.00320536
-2.15144e-05
2.41278e-06
0.00316604
-4.07171e-06
1.53135e-06
0.00316135
-3.0009e-05
2.54663e-06
0.00303211
0.000142429
2.17806e-06
0.000125028
3.53408e-06
0.00286461
0.00338969
-1.36462e-05
0.00282766
-7.05627e-06
0.00233752
-1.18513e-05
0.00198534
-7.3273e-06
0.00175631
-1.12094e-05
0.00160837
-7.57742e-06
0.00151469
-1.06615e-05
0.00144744
-7.66695e-06
0.00140112
-1.01339e-05
0.00136247
-7.67722e-06
0.00133397
-9.65922e-06
0.001308
-7.64652e-06
0.0012882
-9.23568e-06
0.00126958
-7.58603e-06
0.00125588
-8.85315e-06
0.00124108
-7.50244e-06
0.00124483
-8.51461e-06
0.00122145
-7.39156e-06
0.00137163
-8.41002e-06
-6.95973e-06
0.00150265
0.00260537
0.00109054
0.00200022
0.000599973
0.00160597
0.0003842
0.00140332
0.000197069
0.00128363
0.000110203
0.00121088
6.68874e-05
0.00115849
4.34333e-05
0.00112093
3.16303e-05
0.00108937
2.31703e-05
0.00106524
1.82309e-05
0.00104347
1.39107e-05
0.00102656
1.10867e-05
0.00101074
8.41622e-06
0.000998179
6.80991e-06
0.000986163
5.00062e-06
0.000975594
4.89699e-06
0.000960911
7.98864e-06
0.000957837
-2.51409e-06
0.000856629
9.45881e-05
6.61695e-05
0.000785278
0.00387574
0.000920431
0.00383347
0.000646725
0.0036921
0.000525276
0.0035455
0.00034778
0.0034125
0.000243377
0.00330376
0.000179392
0.00321101
0.000136841
0.00313648
0.000109818
0.00307172
8.91675e-05
0.00301958
7.41422e-05
0.00297328
6.2095e-05
0.00293561
5.27349e-05
0.00290204
4.44444e-05
0.00287343
3.95655e-05
0.00285066
3.07094e-05
0.00282683
3.29838e-05
0.00282172
1.6469e-05
0.00279832
2.52343e-05
0.00288371
1.31418e-05
-3.10626e-05
0.00298618
0.00409578
0.000522297
0.00434337
0.000394593
0.00449583
0.000363677
0.00457514
0.000263678
0.00460815
0.000201644
0.00462304
0.000159361
0.00462276
0.000128816
0.00461932
0.000107877
0.00460961
9.10075e-05
0.00460076
7.76172e-05
0.0045885
6.70993e-05
0.00457887
5.72591e-05
0.00456598
5.07518e-05
0.00455792
4.28157e-05
0.00454293
3.96809e-05
0.00453823
3.31317e-05
0.00451336
3.57552e-05
0.0045059
2.8362e-05
0.00445296
6.03834e-05
6.29008e-05
0.00435473
0.0040515
0.000176816
0.00431503
0.000135289
0.00455073
0.000127688
0.00472343
9.50595e-05
0.00485067
7.45793e-05
0.0049527
6.11306e-05
0.00503081
5.13521e-05
0.0050974
4.48633e-05
0.00515021
3.92478e-05
0.00519633
3.50026e-05
0.00523411
3.09245e-05
0.00526707
2.80613e-05
0.00529586
2.42999e-05
0.00531946
2.33119e-05
0.00534432
1.78017e-05
0.00536131
2.05396e-05
0.00539188
8.8443e-06
0.00540996
1.51102e-05
0.00547955
-4.45606e-06
-2.07093e-05
0.00556906
0.00405151
-0.000176816
0.00431744
-0.000135288
0.0045637
-0.000127688
0.00474903
-9.50582e-05
0.0048895
-7.45785e-05
0.00500666
-6.11277e-05
0.00510111
-5.13493e-05
0.00518549
-4.48566e-05
0.00525608
-3.92374e-05
0.00532062
-3.4986e-05
0.00537507
-3.08911e-05
0.00542592
-2.801e-05
0.00546778
-2.42177e-05
0.00550934
-2.31243e-05
0.00553873
-1.76479e-05
0.00557458
-1.98862e-05
0.00558638
-8.55859e-06
0.00561061
-1.33529e-05
0.00559483
5.71482e-06
2.4584e-05
0.00554553
0.0040515
-0.000522297
0.00431503
-0.000394592
0.00455073
-0.000363676
0.00472343
-0.000263677
0.00485067
-0.000201644
0.0049527
-0.000159358
0.00503081
-0.000128813
0.0050974
-0.000107871
0.00515021
-9.09979e-05
0.00519633
-7.76029e-05
0.00523412
-6.70691e-05
0.00526709
-5.72157e-05
0.00529588
-5.06784e-05
0.00531951
-4.26553e-05
0.00534439
-3.95494e-05
0.00536147
-3.25636e-05
0.00539209
-3.55205e-05
0.00541034
-2.67757e-05
0.00548014
-5.9337e-05
-5.94734e-05
0.0055701
0.00409578
-0.000920431
0.00434337
-0.000646724
0.00449583
-0.000525276
0.00457514
-0.000347779
0.00460815
-0.000243376
0.00462304
-0.00017939
0.00462276
-0.000136839
0.00461932
-0.000109814
0.00460961
-8.91601e-05
0.00460077
-7.41329e-05
0.00458852
-6.20729e-05
0.0045789
-5.27062e-05
0.00456604
-4.43934e-05
0.00455802
-3.94547e-05
0.00454309
-3.06268e-05
0.00453855
-3.25807e-05
0.0045138
-1.63516e-05
0.00450682
-2.41385e-05
0.00445439
-1.25968e-05
3.31166e-05
0.00435753
0.00387574
-0.00109054
0.00383347
-0.000599973
0.0036921
-0.0003842
0.0035455
-0.000197068
0.0034125
-0.000110202
0.00330376
-6.68866e-05
0.00321101
-4.34321e-05
0.00313648
-3.16288e-05
0.00307173
-2.3167e-05
0.0030196
-1.82278e-05
0.00297331
-1.39011e-05
0.00293565
-1.10777e-05
0.00290211
-8.39263e-06
0.00287358
-6.77586e-06
0.00285085
-4.95739e-06
0.0028273
-4.76976e-06
0.0028222
-7.89035e-06
0.00279955
2.87264e-06
0.002885
-9.41054e-05
-6.51607e-05
0.0029885
0.00260537
0.00200022
0.00160597
0.00140332
0.00128363
0.00121088
0.0011585
0.00112093
0.00108938
0.00106525
0.00104349
0.00102659
0.00101079
0.000998264
0.000986291
0.00097585
0.000961264
0.000958551
0.000857823
0.000787472
0.000906329
-0.000185318
6.91811e-05
0.000932808
-8.26295e-05
6.11699e-05
0.000926534
-5.29522e-05
6.47518e-05
0.00092348
-4.93538e-05
5.82877e-05
0.000920123
-5.09198e-05
6.01229e-05
0.00091857
-4.8537e-05
5.56538e-05
0.000916964
-4.97567e-05
5.67048e-05
0.000916429
-4.77119e-05
5.35988e-05
0.000915996
-4.82161e-05
5.4187e-05
0.000916217
-4.64892e-05
5.19968e-05
0.000916597
-4.68568e-05
5.23006e-05
0.000917329
-4.56329e-05
5.07386e-05
0.000918275
-4.59606e-05
5.08722e-05
0.000919433
-4.49552e-05
4.97494e-05
0.000920877
-4.50878e-05
4.97808e-05
0.000922455
-4.41629e-05
4.89644e-05
0.000924336
-4.41859e-05
4.89334e-05