/*--------------------------------*- C++ -*----------------------------------*\
  =========                 |
  \\      /  F ield         | OpenFOAM: The Open Source CFD Toolbox
   \\    /   O peration     | Website:  https://openfoam.org
    \\  /    A nd           | Version:  7
     \\/     M anipulation  |
\*---------------------------------------------------------------------------*/
FoamFile
{
    version     2.0;
    format      ascii;
    class       volScalarField;
    location    "1.9075";
    object      pPrime2Mean;
}
// * * * * * * * * * * * * * * * * * * * * * * * * * * * * * * * * * * * * * //

dimensions      [2 -2 -4 0 0 0 0];

internalField   nonuniform List<scalar> 
7920
(
908401
907307
907326
906152
906087
904719
904494
902931
902523
900812
900245
898438
897741
895871
895066
893141
892237
890260
889293
887403
908342
907224
907210
906013
905941
904559
904328
902753
902342
900623
900054
898240
897542
895665
894857
892926
892021
890031
889073
887172
908345
907201
907189
906000
905926
904555
904334
902778
902378
900673
900111
898306
897612
895742
894936
893008
892098
890117
889132
887217
908343
907203
907189
905994
905919
904539
904308
902739
902334
900622
900059
898251
897557
895685
894880
892950
892045
890051
889075
887102
908348
907201
907184
905989
905910
904532
904303
902744
902343
900640
900081
898277
897586
895717
894915
892989
892080
890095
889100
887121
908345
907194
907175
905979
905901
904523
904294
902732
902331
900625
900065
898260
897569
895698
894897
892969
892063
890075
889083
887090
908345
907194
907175
905979
905901
904523
904294
902732
902331
900625
900065
898260
897569
895699
894897
892970
892063
890075
889084
887090
908348
907201
907184
905989
905910
904532
904303
902744
902343
900640
900081
898277
897586
895717
894915
892989
892080
890095
889098
887121
908343
907203
907189
905994
905919
904539
904308
902739
902334
900622
900059
898251
897557
895685
894880
892950
892044
890051
889076
887102
908345
907201
907189
906000
905926
904555
904334
902778
902378
900673
900111
898306
897612
895742
894936
893008
892097
890118
889130
887217
908342
907224
907210
906013
905941
904559
904329
902753
902342
900623
900054
898240
897542
895666
894857
892926
892021
890032
889072
887173
908401
907307
907326
906152
906087
904719
904494
902932
902523
900812
900245
898438
897741
895871
895066
893141
892237
890260
889292
887404
907522
906143
906450
905028
905245
903633
903680
901918
901785
899908
899603
897653
897198
895206
894620
892594
891886
889825
889027
886989
907576
906145
906453
905046
905276
903694
903761
902025
901905
900045
899746
897807
897355
895369
894784
892764
892054
890005
889212
887197
907572
906161
906479
905061
905286
903681
903734
901980
901852
899983
899681
897737
897284
895294
894707
892681
891970
889904
889106
887002
907599
906158
906454
905024
905247
903657
903723
901988
901874
900019
899727
897792
897344
895362
894779
892758
892044
889987
889180
887095
907595
906153
906451
905021
905248
903651
903713
901969
901850
899989
899693
897754
897305
895320
894737
892714
892003
889936
889133
887006
907605
906158
906453
905020
905245
903651
903715
901976
901859
900002
899708
897771
897324
895341
894760
892739
892027
889962
889154
887036
907605
906158
906453
905020
905245
903651
903715
901976
901859
900002
899708
897771
897324
895341
894760
892739
892027
889962
889153
887036
907595
906153
906451
905021
905248
903651
903713
901969
901850
899989
899693
897754
897304
895320
894737
892714
892003
889936
889133
887006
907599
906158
906454
905024
905247
903657
903723
901988
901874
900019
899727
897792
897344
895362
894779
892758
892044
889987
889179
887095
907572
906161
906479
905061
905286
903681
903734
901980
901852
899983
899682
897737
897284
895294
894707
892681
891969
889904
889106
887003
907576
906145
906453
905046
905276
903694
903761
902025
901905
900045
899747
897807
897355
895369
894784
892764
892053
890006
889209
887199
907522
906143
906450
905028
905245
903633
903680
901918
901785
899908
899603
897653
897198
895206
894620
892594
891886
889825
889026
886991
907407
906035
906198
904857
905048
903585
903621
901957
901799
899992
899675
897775
897321
895354
894777
892747
892059
889956
889213
887135
907438
906044
906202
904854
905035
903566
903603
901946
901797
899999
899689
897794
897343
895376
894798
892766
892074
889970
889218
887118
907440
906053
906209
904856
905030
903558
903597
901944
901798
900000
899692
897798
897349
895385
894808
892776
892083
889975
889217
887092
907457
906059
906212
904853
905022
903545
903581
901929
901787
899993
899687
897796
897350
895388
894814
892783
892091
889984
889223
887092
907459
906063
906215
904853
905018
903541
903579
901929
901787
899993
899687
897796
897349
895387
894814
892783
892091
889984
889221
887089
907464
906065
906216
904853
905017
903538
903575
901925
901785
899991
899686
897795
897349
895387
894815
892784
892093
889985
889222
887091
907464
906065
906216
904853
905017
903538
903575
901925
901785
899991
899686
897795
897349
895387
894815
892784
892093
889985
889222
887091
907459
906063
906215
904853
905018
903541
903579
901929
901787
899993
899688
897796
897349
895387
894814
892783
892091
889984
889221
887089
907457
906059
906212
904853
905022
903544
903581
901929
901787
899993
899687
897796
897350
895388
894814
892783
892091
889984
889223
887093
907440
906053
906209
904856
905030
903558
903597
901944
901798
900000
899692
897798
897349
895385
894808
892776
892082
889976
889217
887093
907438
906044
906202
904854
905035
903566
903603
901946
901797
899999
899689
897794
897343
895377
894798
892767
892073
889972
889217
887120
907407
906035
906198
904857
905048
903585
903621
901957
901799
899992
899675
897775
897321
895354
894777
892748
892058
889958
889209
887140
907407
906035
906198
904857
905048
903585
903621
901958
901799
899992
899675
897775
897321
895354
894777
892748
892059
889956
889213
887135
907438
906044
906202
904854
905035
903566
903603
901946
901797
899999
899689
897794
897343
895377
894798
892766
892074
889970
889219
887118
907440
906053
906209
904856
905030
903558
903597
901944
901798
900001
899692
897799
897349
895385
894808
892776
892083
889975
889217
887092
907457
906059
906212
904854
905022
903545
903581
901929
901787
899993
899687
897796
897350
895388
894814
892783
892091
889984
889223
887092
907459
906063
906215
904853
905019
903541
903579
901929
901788
899994
899688
897796
897349
895387
894814
892783
892091
889984
889221
887089
907464
906065
906216
904853
905017
903538
903575
901926
901785
899992
899686
897795
897349
895387
894815
892784
892093
889985
889222
887091
907464
906065
906216
904853
905017
903538
903575
901926
901785
899992
899686
897795
897349
895387
894815
892784
892093
889985
889222
887091
907459
906063
906215
904853
905019
903541
903579
901929
901788
899994
899688
897796
897349
895387
894814
892783
892091
889984
889221
887089
907457
906059
906212
904854
905022
903545
903581
901929
901787
899993
899687
897796
897350
895388
894814
892784
892091
889984
889223
887093
907440
906053
906209
904856
905030
903558
903597
901944
901798
900001
899692
897798
897349
895385
894808
892776
892082
889976
889217
887093
907438
906044
906202
904854
905035
903566
903603
901946
901797
899999
899689
897794
897343
895377
894798
892767
892073
889972
889217
887120
907407
906035
906198
904857
905048
903585
903621
901958
901799
899992
899675
897775
897321
895354
894777
892748
892058
889958
889209
887140
907522
906143
906450
905029
905245
903633
903680
901918
901785
899908
899603
897654
897199
895206
894620
892594
891886
889825
889028
886989
907576
906145
906453
905046
905276
903694
903761
902025
901905
900045
899747
897807
897355
895369
894784
892764
892054
890005
889212
887197
907572
906161
906479
905061
905286
903681
903734
901980
901852
899983
899682
897737
897284
895294
894708
892681
891970
889904
889106
887002
907599
906158
906454
905024
905247
903657
903723
901988
901874
900020
899727
897792
897345
895362
894779
892758
892045
889987
889180
887095
907595
906153
906451
905021
905248
903651
903714
901970
901850
899989
899693
897754
897305
895320
894737
892714
892004
889936
889133
887006
907605
906159
906454
905020
905245
903651
903716
901976
901859
900002
899708
897772
897324
895341
894760
892739
892027
889962
889154
887036
907605
906159
906454
905020
905245
903651
903716
901976
901859
900002
899708
897772
897324
895341
894760
892739
892027
889962
889153
887036
907595
906153
906451
905021
905248
903651
903714
901970
901850
899989
899693
897754
897305
895320
894737
892715
892004
889936
889134
887006
907599
906158
906454
905024
905247
903657
903723
901988
901874
900020
899727
897792
897345
895362
894779
892759
892044
889988
889179
887096
907572
906161
906479
905061
905286
903681
903734
901980
901852
899983
899682
897737
897284
895295
894708
892682
891969
889904
889106
887003
907576
906145
906453
905046
905276
903694
903761
902025
901905
900045
899747
897807
897355
895369
894784
892764
892053
890006
889209
887199
907522
906143
906450
905029
905245
903633
903680
901918
901785
899908
899603
897654
897199
895206
894620
892595
891886
889825
889026
886991
908401
907307
907326
906152
906088
904720
904494
902932
902523
900813
900245
898438
897741
895871
895066
893141
892238
890261
889294
887403
908343
907225
907211
906014
905942
904559
904329
902754
902343
900623
900054
898241
897542
895666
894858
892926
892022
890032
889074
887173
908346
907202
907189
906000
905926
904555
904334
902778
902378
900674
900112
898307
897613
895742
894936
893008
892098
890117
889132
887217
908344
907204
907189
905995
905919
904539
904308
902740
902334
900623
900060
898251
897557
895685
894880
892950
892045
890051
889076
887102
908348
907202
907184
905990
905910
904532
904304
902744
902344
900640
900081
898278
897587
895717
894916
892989
892080
890095
889100
887121
908345
907195
907175
905979
905901
904523
904295
902733
902331
900625
900066
898260
897569
895699
894897
892970
892064
890075
889084
887090
908345
907195
907175
905979
905901
904523
904295
902733
902331
900625
900066
898260
897569
895699
894897
892970
892064
890075
889085
887090
908348
907202
907184
905990
905910
904532
904304
902744
902344
900640
900081
898278
897586
895717
894916
892989
892080
890096
889099
887121
908344
907204
907189
905995
905919
904539
904308
902740
902334
900623
900060
898251
897557
895685
894880
892950
892045
890052
889076
887102
908346
907202
907189
906000
905926
904555
904334
902778
902378
900674
900112
898307
897612
895742
894936
893008
892097
890118
889130
887218
908343
907225
907211
906014
905942
904559
904329
902754
902343
900623
900054
898241
897542
895666
894858
892927
892021
890033
889072
887173
908401
907307
907326
906152
906087
904720
904494
902932
902523
900813
900245
898438
897741
895871
895066
893141
892237
890261
889293
887404
884851
876238
872029
863095
858059
848683
842953
833201
826845
816755
809826
799430
791975
781302
773363
762437
754051
742893
734095
722725
713548
701985
692459
680722
670875
658982
648843
636810
626405
614251
603607
591347
580489
568142
557097
544681
533475
521010
509670
497178
485737
473243
461717
449206
437570
425052
413380
400928
389268
376905
365293
353047
341510
329401
317967
306015
294709
282932
271781
260198
249227
237858
227094
215959
205430
194551
184287
173686
163718
153421
143783
133816
124546
114938
106077
96865.4
88458.6
79679.1
71784.2
63488.4
56160.8
48406.2
41731.4
34588.1
28643.8
22263.3
17219.8
11581
7479.26
3323.1
884341
875749
871558
862635
857608
848236
842511
832764
826415
816332
809410
799021
791573
780906
772974
762054
753674
742522
733730
722365
713193
701635
692113
680381
670539
658650
648516
636487
626087
613937
603297
591042
580190
567848
556808
544397
533196
520736
509402
496916
485479
472992
461472
448967
437336
424825
413159
400713
389059
376704
365097
352858
341327
329225
317797
305852
294552
282782
271637
260061
249096
237733
226975
215847
205323
194451
184192
173598
163635
153344
143711
133749
124485
114882
106026
96818.7
88416.2
79641.4
71750.4
63458.9
56134.8
48384.1
41712.5
34572.6
28631.1
22253.3
17212.1
11575.5
7474.53
3319.26
884323
875722
871504
862574
857539
848167
842435
832688
826333
816251
809324
798938
791486
780822
772888
761972
753592
742444
733652
722293
713122
701570
692050
680323
670484
658600
648468
636445
626047
613902
603265
591014
580163
567825
556787
544379
533179
520722
509389
496905
485470
472983
461464
448960
437330
424819
413153
400707
389053
376697
365090
352851
341320
329217
317788
305842
294542
282770
271624
260047
249080
237717
226958
215829
205304
194431
184171
173575
163612
153320
143687
133724
124459
114856
106000
96792.9
88390.7
79615.9
71725.6
63434.6
56111.5
48361.6
41691.4
34552.7
28613
22237
17198.1
11563.8
7466.05
3313.91
884208
875658
871452
862533
857505
848134
842407
832659
826307
816226
809303
798916
791466
780802
772869
761951
753571
742421
733630
722268
713097
701542
692022
680292
670452
658565
648432
636407
626008
613860
603223
590970
580119
567779
556741
544332
533132
520675
509342
496857
485423
472936
461418
448914
437285
424775
413110
400665
389013
376658
365052
352814
341284
329183
317756
305811
294513
282743
271599
260023
249059
237697
226940
215812
205289
194418
184159
173566
163604
153313
143681
133721
124457
114855
106000
96793.8
88392.4
79618.7
71728.9
63438.7
56115.9
48366.5
41696.4
34558
28618.1
22241.9
17202.5
11567.5
7468.24
3315.07
884234
875659
871429
862498
857465
848091
842358
832608
826251
816168
809241
798854
791402
780737
772802
761884
753504
742354
733563
722202
713031
701477
691957
680229
670389
658505
648372
636348
625951
613804
603167
590916
580066
567727
556690
544282
533083
520626
509294
496810
485376
472890
461372
448869
437240
424730
413066
400621
388969
376614
365009
352771
341241
329140
317713
305769
294470
282701
271557
259982
249017
237656
226899
215771
205249
194378
184120
173527
163566
153275
143644
133684
124421
114820
105966
96761.3
88361.2
79588.6
71700.3
63411.4
56090.4
48342.6
41674.3
34537.7
28600
22226
17189
11556.6
7460.32
3309.91
884205
875645
871421
862502
857476
848106
842377
832629
826275
816194
809270
798883
791433
780768
772834
761916
753537
742387
733595
722234
713062
701508
691988
680259
670418
658533
648400
636375
625976
613829
603192
590939
580089
567749
556711
544302
533103
520645
509313
496829
485394
472908
461389
448886
437257
424747
413082
400637
388985
376630
365025
352786
341257
329156
317729
305784
294486
282716
271572
259997
249032
237671
226914
215786
205264
194393
184135
173541
163580
153290
143658
133698
124435
114834
105980
96774.2
88373.6
79600.7
71711.8
63422.5
56100.8
48352.4
41683.4
34546.1
28607.5
22232.6
17194.5
11561.1
7463.32
3311.88
884214
875644
871413
862484
857451
848077
842344
832593
826237
816153
809227
798839
791388
780723
772789
761871
753490
742341
733549
722188
713017
701463
691943
680215
670374
658489
648357
636333
625935
613788
603151
590900
580049
567711
556673
544265
533066
520609
509277
496794
485360
472874
461356
448854
437225
424716
413052
400608
388955
376601
364996
352759
341230
329129
317703
305759
294461
282692
271549
259974
249010
237650
226893
215766
205244
194374
184116
173524
163563
153274
143643
133683
124421
114820
105967
96761.7
88361.9
79589.6
71701.5
63412.8
56092
48344.2
41676
34539.4
28601.7
22227.6
17190.5
11557.8
7461.09
3310.23
884225
875657
871431
862510
857482
848113
842383
832636
826281
816200
809275
798889
791438
780773
772839
761922
753541
742392
733600
722239
713068
701514
691994
680266
670425
658540
648407
636383
625985
613838
603200
590949
580098
567759
556721
544313
533113
520656
509323
496839
485404
472918
461399
448896
437267
424756
413091
400646
388993
376638
365032
352794
341264
329162
317735
305790
294491
282721
271576
260001
249036
237674
226916
215789
205266
194394
184136
173542
163580
153290
143658
133697
124434
114832
105978
96772.3
88371.7
79598.5
71709.6
63420.1
56098.5
48350.1
41681.2
34543.9
28605.4
22230.7
17192.9
11559.7
7462.46
3311.4
884218
875649
871433
862503
857470
848093
842361
832610
826255
816171
809246
798858
791408
780742
772809
761891
753511
742361
733570
722208
713038
701483
691963
680235
670395
658509
648377
636352
625954
613808
603171
590919
580068
567730
556692
544284
533085
520628
509296
496813
485379
472893
461375
448873
437244
424735
413071
400627
388975
376621
365016
352779
341250
329150
317723
305779
294482
282713
271569
259995
249031
237670
226913
215787
205265
194394
184137
173544
163583
153293
143662
133702
124439
114838
105984
96778.8
88378.3
79605.4
71716.6
63427.2
56105.5
48356.9
41687.8
34550.2
28611.4
22236.1
17197.8
11563.7
7465.62
3313.08
884309
875711
871497
862577
857548
848181
842452
832707
826354
816274
809349
798964
791513
780850
772917
762001
753621
742473
733682
722322
713151
701599
692079
680352
670512
658628
648496
636472
626074
613928
603291
591039
580188
567849
556811
544403
533203
520745
509412
496927
485492
473005
461485
448981
437351
424839
413173
400727
389072
376716
365109
352869
341337
329234
317805
305858
294558
282786
271639
260062
249095
237732
226972
215843
205318
194444
184184
173588
163625
153332
143698
133736
124470
114866
106010
96802.4
88399.8
79624.6
71733.8
63442.3
56118.8
48368.4
41697.6
34558.4
28618.1
22241.5
17201.9
11566.9
7468.22
3315.3
884347
875728
871522
862588
857555
848179
842450
832700
826347
816262
809338
798949
791499
780833
772899
761979
753600
742448
733656
722292
713120
701564
692042
680311
670470
658582
648448
636421
626021
613872
603234
590980
580128
567787
556748
544338
533138
520679
509346
496861
485425
472939
461419
448916
437286
424776
413111
400666
389013
376658
365052
352814
341285
329184
317757
305812
294514
282745
271600
260025
249061
237700
226942
215815
205293
194421
184163
173570
163609
153318
143686
133726
124462
114861
106006
96799.8
88398.4
79624.7
71734.9
63444.5
56121.7
48372.1
41701.7
34563
28622.9
22246.3
17206.4
11570.9
7471.29
3316.82
884833
876228
872037
863117
858091
848722
842998
833250
826898
816811
809884
799491
792037
781365
773427
762501
754116
742958
734160
722790
713613
702050
692523
680786
670938
659044
648904
636871
626465
614309
603665
591404
580546
568198
557152
544735
533528
521062
509721
497228
485786
473291
461765
449253
437616
425097
413424
400971
389310
376947
365333
353087
341549
329439
318004
306051
294745
282967
271815
260231
249259
237889
227124
215988
205458
194579
184313
173712
163743
153444
143805
133837
124567
114958
106096
96882.9
88475.1
79694.6
71798.6
63501.8
56173.1
48417.5
41741.5
34597.2
28651.7
22270.2
17225.5
11585.8
7482.71
3325.37
884693
875882
872026
862963
858131
848665
843063
833243
826973
816829
809959
799517
792104
781390
773480
762517
754152
742961
734178
722779
713611
702023
692504
680745
670903
658990
648854
636805
626403
614235
603594
591323
580469
568113
557071
544648
533446
520976
509641
497145
485709
473213
461692
449180
437549
425030
413363
400911
389256
376894
365287
353043
341512
329404
317976
306026
294726
282951
271805
260224
249258
237892
227133
216000
205476
194599
184339
173740
163777
153480
143846
133879
124613
115004
106147
96933.2
88529.1
79746.3
71853
63552.4
56224.8
48463.3
41786.1
34633.6
28683.5
22291.4
17238
11584.3
7465.96
3304.4
885222
876368
872504
863443
858612
849150
843551
833734
827464
817320
810449
800005
792589
781872
773959
762991
754622
743426
734638
723234
714061
702468
692943
681178
671330
659411
649270
637215
626807
614632
603985
591707
580847
568484
557436
545006
533798
521320
509978
497475
486032
473529
462001
449482
437843
425317
413643
401183
389521
377151
365537
353285
341746
329631
318196
306238
294931
283148
271995
260407
249434
238060
227294
216154
205623
194738
184472
173865
163896
153592
143952
133978
124706
115090
106227
97006.5
88596.6
79807.7
71908.8
63602.2
56269.2
48502.2
41819.9
34662.2
28707.3
22310.6
17252.9
11595.1
7473.41
3309.52
884816
876115
872258
863204
858376
848911
843310
833491
827222
817079
810210
799768
792353
781638
773727
762762
754395
743202
734416
723015
713845
702254
692731
680969
671124
659207
649069
637016
626611
614438
603794
591519
580661
568301
557256
544829
533623
521149
509810
497311
485871
473371
461847
449331
437696
425173
413503
401047
389389
377023
365412
353164
341630
329519
318087
306133
294830
283051
271902
260318
249349
237979
227216
216080
205553
194673
184410
173807
163841
153541
143904
133934
124665
115053
106192
96975.1
88568
79782.2
71885.8
63582.2
56251.7
48487.3
41807.2
34651.9
28699.1
22304.5
17248.5
11592.3
7471.81
3308.23
885066
876311
872450
863393
858562
849099
843497
833678
827408
817263
810393
799949
792533
781815
773903
762936
754567
743371
734584
723180
714008
702415
692891
681126
671279
659361
649220
637165
626758
614584
603938
591661
580801
568439
557392
544962
533754
521277
509936
497434
485992
473489
461963
449444
437806
425280
413608
401148
389487
377119
365505
353254
341716
329602
318168
306211
294904
283123
271970
260383
249411
238038
227273
216134
205604
194720
184455
173849
163880
153577
143938
133965
124694
115079
106217
96996.9
88587.7
79799.6
71901.4
63595.6
56263.3
48497
41815.4
34658.3
28704
22308
17250.8
11593.6
7472.86
3308.86
884855
876172
872314
863267
858445
848982
843380
833561
827292
817150
810281
799839
792424
781708
773797
762831
754464
743270
734484
723081
713910
702318
692795
681032
671186
659269
649129
637075
626669
614496
603850
591575
580716
568355
557309
544881
533674
521199
509859
497359
485918
473417
461892
449374
437738
425214
413543
401086
389427
377060
365448
353198
341663
329551
318118
306163
294858
283078
271928
260343
249372
238001
227238
216101
205572
194691
184427
173823
163856
153555
143917
133946
124676
115063
106202
96983.5
88575.6
79788.9
71891.9
63587.5
56256.3
48491.1
41810.5
34654.6
28701.2
22306
17249.5
11592.9
7472.34
3308.46
884949
876234
872369
863318
858489
849026
843422
833601
827330
817186
810315
799872
792456
781739
773826
762860
754491
743297
734510
723107
713935
702343
692819
681055
671209
659292
649152
637098
626691
614518
603872
591596
580737
568376
557329
544901
533694
521218
509878
497377
485935
473434
461908
449390
437754
425229
413558
401100
389440
377072
365460
353210
341674
329561
318127
306172
294867
283086
271935
260350
249378
238007
227243
216105
205576
194694
184430
173825
163858
153556
143918
133946
124676
115062
106201
96982.5
88574.4
79787.4
71890.3
63585.6
56254.3
48489
41808.4
34652.3
28699
22303.8
17247.6
11591.2
7471.15
3307.56
884938
876242
872389
863343
858522
849061
843461
833643
827375
817233
810365
799922
792507
781791
773879
762913
754545
743350
734563
723159
713988
702395
692871
681106
671259
659341
649201
637146
626739
614565
603918
591642
580782
568420
557373
544944
533736
521259
509919
497417
485975
473473
461947
449428
437791
425266
413593
401135
389474
377106
365493
353242
341705
329592
318158
306201
294895
283114
271963
260376
249405
238032
227268
216129
205599
194717
184451
173846
163878
153576
143937
133964
124693
115079
106217
96997.5
88588.5
79800.7
71902.7
63597.1
56265
48498.8
41817.3
34660.3
28706
22309.9
17252.7
11595.3
7474.21
3309.67
884867
876162
872293
863243
858415
848950
843346
833524
827253
817109
810238
799795
792379
781663
773751
762785
754418
743224
734438
723036
713865
702274
692751
680988
671142
659226
649087
637034
626628
614456
603811
591536
580678
568317
557272
544845
533638
521163
509824
497325
485884
473383
461859
449342
437707
425184
413513
401056
389397
377031
365420
353171
341636
329525
318092
306138
294834
283055
271905
260320
249350
237980
227217
216081
205553
194672
184408
173805
163839
153538
143901
133931
124661
115049
106188
96971
88563.9
79777.8
71881.6
63577.8
56247.4
48483
41803.2
34647.9
28695.3
22300.9
17245.3
11589.6
7469.88
3306.69
885052
876314
872467
863419
858596
849138
843540
833725
827458
817316
810448
800006
792591
781874
773962
762995
754627
743431
734644
723240
714068
702474
692949
681184
671337
659418
649276
637221
626813
614638
603991
591713
580852
568489
557442
545011
533803
521325
509983
497481
486037
473534
462007
449487
437849
425322
413649
401189
389527
377158
365543
353291
341753
329638
318203
306245
294938
283156
272003
260415
249442
238068
227302
216162
205631
194747
184480
173874
163904
153600
143960
133986
124714
115098
106235
97014.5
88604.4
79815.3
71916.1
63609.3
56276
48508.6
41825.9
34667.8
28712.4
22315.3
17257
11598.6
7476.58
3311.34
884827
876097
872229
863172
858340
848873
843269
833447
827176
817031
810160
799717
792302
781587
773675
762711
754344
743151
734365
722964
713795
702204
692682
680920
671076
659160
649022
636970
626565
614394
603750
591476
580618
568259
557215
544789
533583
521110
509772
497273
485833
473334
461811
449296
437661
425139
413470
401014
389357
376992
365382
353134
341600
329490
318059
306106
294803
283026
271877
260294
249325
237956
227194
216059
205532
194653
184390
173788
163823
153524
143887
133918
124650
115038
106179
96962.3
88556
79770.8
71875.4
63572.5
56242.8
48479.1
41799.9
34645.4
28693.4
22299.5
17244.4
11589.1
7469.45
3306.47
885198
876355
872509
863462
858640
849185
843590
833777
827512
817370
810502
800060
792646
781929
774017
763050
754681
743485
734698
723293
714121
702526
693001
681235
671387
659468
649326
637270
626862
614686
604038
591759
580898
568535
557486
545055
533846
521367
510025
497522
486078
473573
462045
449525
437886
425358
413684
401223
389561
377190
365575
353322
341783
329667
318231
306272
294964
283181
272027
260438
249464
238089
227323
216182
205650
194765
184498
173890
163920
153615
143974
134000
124727
115110
106246
97024.6
88613.7
79823.8
71924
63616.4
56282.5
48514.3
41831.1
34672.2
28716.2
22318.4
17259.5
11600.6
7477.62
3312.22
884692
875850
871979
862909
858074
848605
843000
833177
826905
816759
809888
799446
792032
781318
773408
762446
754081
742891
734108
722710
713543
701956
692436
680678
670837
658925
648791
636742
626342
614174
603534
591264
580411
568056
557015
544593
533392
520922
509588
497093
485658
473163
461643
449132
437502
424983
413318
400866
389213
376852
365245
353002
341471
329365
317938
305988
294689
282915
271770
260191
249225
237860
227102
215970
205447
194571
184312
173714
163751
153456
143823
133857
124592
114984
106128
96914.9
88511.9
79730.2
71838
63538.4
56211.9
48451.6
41775.6
34624.2
28675.2
22284.4
17232.3
11579.8
7462.65
3301.93
885117
876752
872919
864026
859254
849843
844316
834497
828294
818121
811304
800819
793443
782680
774794
763782
755429
744190
735411
723966
714797
703165
693640
681840
671990
660040
649894
637811
627399
615199
604546
592246
581380
568997
557945
545496
534283
521789
510442
497925
486477
473960
462429
449897
438254
425716
414037
401566
389900
377521
365902
353640
342098
329974
318534
306568
295256
283466
272308
260713
249735
238353
227583
216435
205900
195007
184736
174122
164147
153835
144189
134206
124928
115302
106433
97201.2
88784
79983
72076.3
63756.5
56415.3
48633.5
41943.3
34769.1
28806.8
22391.6
17327.5
11647.1
7519.73
3329.84
885094
876742
872905
864013
859243
849831
844304
834485
828282
818110
811293
800809
793433
782670
774785
763772
755420
744181
735402
723957
714788
703157
693632
681832
671982
660033
649887
637804
627392
615192
604540
592239
581374
568991
557938
545490
534277
521783
510437
497919
486472
473955
462424
449892
438249
425711
414033
401562
389896
377516
365898
353636
342094
329970
318531
306564
295253
283462
272305
260710
249733
238351
227581
216433
205898
195005
184734
174120
164145
153833
144188
134205
124927
115301
106432
97200.3
88783.1
79982.2
72075.6
63755.9
56414.8
48633
41942.9
34768.7
28806.5
22391.4
17327.4
11647
7519.6
3329.66
885065
876737
872905
864015
859245
849833
844305
834486
828283
818111
811294
800809
793433
782671
774785
763773
755421
744181
735403
723958
714789
703157
693632
681833
671983
660033
649888
637804
627392
615192
604540
592240
581374
568992
557939
545491
534277
521783
510437
497920
486473
473956
462425
449893
438250
425712
414034
401563
389897
377517
365899
353637
342095
329971
318531
306565
295254
283463
272306
260710
249733
238351
227581
216433
205898
195006
184735
174120
164145
153833
144188
134205
124927
115301
106431
97200.1
88783
79982
72075.4
63755.7
56414.6
48632.8
41942.7
34768.5
28806.3
22391.2
17327.3
11646.8
7519.55
3329.41
885068
876725
872889
864003
859235
849824
844295
834475
828272
818100
811284
800799
793423
782661
774776
763763
755411
744172
735393
723948
714780
703148
693623
681824
671974
660024
649879
637796
627384
615184
604532
592232
581366
568983
557931
545483
534269
521776
510430
497912
486465
473948
462417
449885
438243
425705
414027
401556
389890
377511
365892
353631
342088
329965
318525
306559
295248
283458
272301
260705
249728
238347
227577
216429
205894
195002
184731
174116
164142
153830
144185
134202
124924
115299
106429
97197.9
88781
79980.2
72073.8
63754.2
56413.2
48631.6
41941.6
34767.6
28805.5
22390.5
17326.7
11646.4
7519.21
3329.23
885061
876724
872892
864008
859241
849831
844301
834481
828277
818105
811289
800805
793429
782667
774781
763768
755416
744177
735398
723953
714784
703153
693628
681828
671978
660028
649883
637800
627388
615188
604535
592235
581370
568987
557934
545486
534273
521779
510433
497916
486468
473951
462420
449888
438246
425707
414030
401559
389893
377513
365895
353633
342091
329967
318528
306561
295250
283460
272303
260707
249730
238348
227578
216430
205895
195003
184732
174118
164143
153831
144186
134203
124925
115299
106430
97198.6
88781.6
79980.8
72074.3
63754.7
56413.7
48632
41941.9
34767.9
28805.8
22390.7
17326.9
11646.6
7519.34
3329.23
885064
876720
872885
864003
859238
849828
844299
834478
828274
818102
811286
800802
793426
782664
774778
763765
755413
744174
735396
723950
714782
703150
693625
681826
671976
660026
649881
637798
627385
615185
604533
592233
581368
568985
557933
545484
534271
521777
510431
497914
486467
473950
462419
449887
438244
425706
414028
401557
389891
377512
365893
353632
342090
329966
318527
306560
295249
283459
272302
260706
249729
238347
227577
216430
205894
195002
184732
174117
164143
153830
144185
134202
124924
115299
106430
97198.3
88781.3
79980.5
72074.1
63754.4
56413.5
48631.8
41941.8