/*--------------------------------*- C++ -*----------------------------------*\
  =========                 |
  \\      /  F ield         | OpenFOAM: The Open Source CFD Toolbox
   \\    /   O peration     | Website:  https://openfoam.org
    \\  /    A nd           | Version:  7
     \\/     M anipulation  |
\*---------------------------------------------------------------------------*/
FoamFile
{
    version     2.0;
    format      ascii;
    class       volScalarField;
    location    "0.135";
    object      rho_0;
}
// * * * * * * * * * * * * * * * * * * * * * * * * * * * * * * * * * * * * * //

dimensions      [1 -3 0 0 0 0 0];

internalField   nonuniform List<scalar> 
400
(
1.15539
1.14771
1.14103
1.1359
1.13218
1.12964
1.12803
1.12713
1.12675
1.12671
1.12688
1.12717
1.12749
1.1278
1.12807
1.12829
1.12845
1.12857
1.12863
1.12866
1.15762
1.15326
1.14815
1.14351
1.13986
1.13727
1.13561
1.13467
1.13426
1.13421
1.13439
1.1347
1.13505
1.1354
1.13572
1.13598
1.13619
1.13633
1.13642
1.13647
1.15831
1.15604
1.15267
1.14905
1.14585
1.14339
1.14171
1.14071
1.14025
1.14018
1.14035
1.14068
1.14108
1.14148
1.14186
1.14219
1.14246
1.14267
1.1428
1.14287
1.15853
1.15739
1.15535
1.1528
1.15027
1.14811
1.14651
1.14549
1.14496
1.14481
1.14494
1.14525
1.14565
1.14609
1.14653
1.14692
1.14726
1.14753
1.14772
1.14783
1.15859
1.15805
1.15688
1.15522
1.15337
1.15164
1.15023
1.14923
1.14864
1.1484
1.14843
1.14867
1.14902
1.14944
1.14988
1.15031
1.15069
1.15101
1.15126
1.15142
1.15862
1.15836
1.15773
1.15671
1.15546
1.15418
1.15303
1.15214
1.15153
1.15121
1.15113
1.15125
1.1515
1.15185
1.15223
1.15263
1.15301
1.15335
1.15364
1.15385
1.15862
1.15851
1.15818
1.15759
1.1568
1.15592
1.15507
1.15433
1.15378
1.15343
1.15326
1.15326
1.15339
1.15362
1.15391
1.15423
1.15456
1.15488
1.15516
1.15539
1.15862
1.15857
1.15841
1.15809
1.15762
1.15705
1.15647
1.15592
1.15547
1.15514
1.15494
1.15486
1.15489
1.155
1.15518
1.1554
1.15565
1.1559
1.15614
1.15636
1.15862
1.1586
1.15852
1.15835
1.15809
1.15775
1.15738
1.15701
1.15668
1.15641
1.15622
1.15611
1.15608
1.15611
1.15619
1.15632
1.15647
1.15664
1.15681
1.157
1.15862
1.15861
1.15858
1.15849
1.15835
1.15817
1.15794
1.15771
1.1575
1.1573
1.15715
1.15705
1.15699
1.15697
1.15699
1.15705
1.15713
1.15723
1.15733
1.15746
1.15862
1.15862
1.1586
1.15856
1.15849
1.15839
1.15827
1.15814
1.15801
1.15789
1.15778
1.1577
1.15764
1.15761
1.1576
1.15762
1.15765
1.15769
1.15775
1.15783
1.15862
1.15862
1.15862
1.1586
1.15856
1.15852
1.15845
1.15839
1.15831
1.15824
1.15818
1.15812
1.15808
1.15805
1.15803
1.15803
1.15803
1.15805
1.15807
1.15811
1.15862
1.15862
1.15862
1.15861
1.1586
1.15858
1.15855
1.15851
1.15848
1.15844
1.15841
1.15837
1.15835
1.15833
1.15831
1.1583
1.1583
1.1583
1.1583
1.15832
1.15862
1.15862
1.15862
1.15862
1.15861
1.1586
1.15859
1.15858
1.15856
1.15854
1.15853
1.15851
1.1585
1.15848
1.15847
1.15846
1.15846
1.15846
1.15845
1.15846
1.15862
1.15862
1.15862
1.15862
1.15862
1.15862
1.15861
1.15861
1.1586
1.15859
1.15859
1.15858
1.15857
1.15856
1.15856
1.15855
1.15855
1.15854
1.15854
1.15854
1.15862
1.15862
1.15862
1.15862
1.15862
1.15862
1.15862
1.15862
1.15862
1.15861
1.15861
1.15861
1.1586
1.1586
1.1586
1.15859
1.15859
1.15859
1.15859
1.15858
1.15862
1.15862
1.15862
1.15862
1.15862
1.15862
1.15862
1.15862
1.15862
1.15862
1.15862
1.15862
1.15862
1.15862
1.15861
1.15861
1.15861
1.15861
1.15861
1.15861
1.15862
1.15862
1.15862
1.15862
1.15862
1.15862
1.15862
1.15862
1.15862
1.15862
1.15862
1.15862
1.15862
1.15862
1.15862
1.15862
1.15862
1.15862
1.15862
1.15862
1.15862
1.15862
1.15862
1.15862
1.15862
1.15862
1.15862
1.15862
1.15862
1.15862
1.15862
1.15862
1.15862
1.15862
1.15862
1.15862
1.15862
1.15862
1.15862
1.15862
1.15862
1.15862
1.15862
1.15862
1.15862
1.15862
1.15862
1.15862
1.15862
1.15862
1.15862
1.15862
1.15862
1.15862
1.15862
1.15862
1.15862
1.15862
1.15862
1.15862
)
;

boundaryField
{
    upperWall
    {
        type            calculated;
        value           nonuniform List<scalar> 
20
(
1.15862
1.15862
1.15862
1.15862
1.15862
1.15862
1.15862
1.15862
1.15862
1.15862
1.15862
1.15862
1.15862
1.15862
1.15862
1.15862
1.15862
1.15862
1.15862
1.15862
)
;
    }
    lowerWall
    {
        type            calculated;
        value           nonuniform List<scalar> 
20
(
1.15061
1.14299
1.13637
1.13127
1.12759
1.12507
1.12347
1.12258
1.1222
1.12216
1.12234
1.12262
1.12294
1.12324
1.12351
1.12373
1.12389
1.124
1.12407
1.1241
)
;
    }
    inlet
    {
        type            calculated;
        value           nonuniform List<scalar> 
20
(
1.15862
1.15862
1.15862
1.15862
1.15862
1.15862
1.15862
1.15862
1.15862
1.15862
1.15862
1.15862
1.15862
1.15862
1.15862
1.15862
1.15862
1.15862
1.15862
1.15862
)
;
    }
    outlet
    {
        type            calculated;
        value           nonuniform List<scalar> 
20
(
1.12866
1.13647
1.14287
1.14783
1.15142
1.15385
1.15539
1.15636
1.157
1.15746
1.15783
1.15811
1.15832
1.15846
1.15854
1.15858
1.15861
1.15862
1.15862
1.15862
)
;
    }
    frontAndBack
    {
        type            empty;
    }
}


// ************************************************************************* //
