/*--------------------------------*- C++ -*----------------------------------*\
  =========                 |
  \\      /  F ield         | OpenFOAM: The Open Source CFD Toolbox
   \\    /   O peration     | Website:  https://openfoam.org
    \\  /    A nd           | Version:  7
     \\/     M anipulation  |
\*---------------------------------------------------------------------------*/
FoamFile
{
    version     2.0;
    format      ascii;
    class       volScalarField;
    location    "2.1";
    object      k;
}
// * * * * * * * * * * * * * * * * * * * * * * * * * * * * * * * * * * * * * //

dimensions      [0 2 -2 0 0 0 0];

internalField   nonuniform List<scalar> 
600
(
2.17515
2.19865
1.67929
1.50732
1.40915
1.34194
1.28724
1.26285
1.22127
1.23046
0.862949
1.58653
1.62971
1.58373
1.52198
1.47823
1.4336
1.4163
1.3795
1.38141
0.143344
0.585631
0.879506
0.987
1.03077
1.05303
1.0543
1.06048
1.05515
1.06078
0.0134609
0.0969631
0.257509
0.378694
0.469933
0.545117
0.591969
0.634168
0.659879
0.678928
0.000830491
0.00860188
0.0299767
0.0710836
0.114792
0.166403
0.212105
0.255389
0.298064
0.322811
6.99643e-05
0.000439407
0.00152169
0.00429516
0.0107987
0.0191359
0.0365699
0.0496153
0.0756479
0.0905641
6.98585e-05
0.000439572
0.00155172
0.00429035
0.0109683
0.0191146
0.0367592
0.0494032
0.0755249
0.08968
0.000828312
0.00860132
0.0308424
0.0699095
0.116043
0.164733
0.213459
0.253428
0.29818
0.320822
0.0134324
0.096986
0.257444
0.378351
0.470261
0.544249
0.592686
0.632681
0.659756
0.677039
0.143088
0.58586
0.879157
0.987375
1.03016
1.05351
1.05409
1.06032
1.05454
1.06052
0.862822
1.58681
1.6294
1.58445
1.52085
1.47983
1.43218
1.4176
1.3796
1.38493
2.17504
2.19886
1.67899
1.50799
1.40844
1.34314
1.28631
1.26516
1.22158
1.23534
1.95926
2.27339
2.26583
2.30669
2.31885
2.32992
2.34022
2.34948
2.35812
2.36619
2.37371
2.38072
2.38726
2.39336
2.39906
2.40438
2.40931
2.41386
2.41806
2.42194
2.42554
2.42892
2.43214
2.43525
2.4383
2.44131
2.4443
2.44729
2.45027
2.45327
2.45623
2.45927
2.46218
2.46532
2.46809
2.47147
2.47387
2.47785
2.47943
2.48474
2.69235
3.20302
3.23244
3.27678
3.29604
3.31137
3.32591
3.33916
3.35149
3.36299
3.3737
3.3837
3.39304
3.40175
3.40988
3.41747
3.42453
3.43109
3.43715
3.44278
3.44802
3.45295
3.45764
3.46218
3.46661
3.47099
3.47533
3.47966
3.48397
3.48831
3.49259
3.49699
3.5012
3.50574
3.50974
3.51465
3.51808
3.5239
3.52619
3.53377
2.32847
2.88756
2.94994
2.98272
3.0005
3.01399
3.02688
3.03881
3.04991
3.06028
3.06995
3.07898
3.08742
3.09529
3.10265
3.10953
3.11596
3.12195
3.12754
3.13276
3.13764
3.14225
3.14665
3.15088
3.15501
3.15907
3.16309
3.1671
3.17107
3.17508
3.17903
3.18309
3.18696
3.19116
3.19483
3.19938
3.2025
3.2079
3.21006
3.21693
1.6927
2.25508
2.34546
2.37062
2.38466
2.39496
2.40478
2.414
2.4226
2.43064
2.43815
2.44517
2.45174
2.45787
2.46361
2.46898
2.47402
2.47876
2.48321
2.4874
2.49136
2.49512
2.4987
2.50216
2.50552
2.50881
2.51206
2.5153
2.5185
2.52173
2.5249
2.52817
2.53128
2.53467
2.53761
2.5413
2.54377
2.54815
2.54994
2.55537
1.02069
1.5718
1.69586
1.72458
1.73658
1.74417
1.75107
1.75755
1.76362
1.76929
1.7746
1.77958
1.78423
1.78859
1.79266
1.79649
1.80009
1.8035
1.80674
1.80982
1.81275
1.81554
1.81821
1.82079
1.82329
1.82575
1.82816
1.83056
1.83293
1.83533
1.83767
1.84009
1.84238
1.84489
1.84704
1.8498
1.85158
1.85485
1.85622
1.86015
0.508414
1.07111
1.23905
1.28043
1.2938
1.30042
1.30572
1.31061
1.31522
1.31957
1.32366
1.32749
1.33107
1.33443
1.33757
1.34052
1.3433
1.34593
1.34842
1.35079
1.35304
1.35519
1.35725
1.35923
1.36114
1.36301
1.36483
1.36665
1.36843
1.37025
1.37202
1.37386
1.37558
1.37751
1.37911
1.38123
1.38253
1.38502
1.3861
1.38901
0.510588
1.07308
1.2439
1.28562
1.29969
1.30691
1.31276
1.31817
1.32325
1.32804
1.33255
1.33675
1.34069
1.34436
1.34781
1.35103
1.35405
1.35688
1.35953
1.36203
1.36437
1.36658
1.36868
1.37068
1.37261
1.37449
1.37632
1.37814
1.37994
1.38176
1.38353
1.38539
1.38712
1.38905
1.39065
1.39279
1.39409
1.39659
1.39767
1.4006
1.02609
1.57694
1.70573
1.73391
1.74666
1.75489
1.76243
1.76956
1.77623
1.78248
1.78833
1.79381
1.79893
1.80371
1.80818
1.81236
1.81628
1.81995
1.8234
1.82663
1.82967
1.83254
1.83525
1.83786
1.84038
1.84285
1.84527
1.84769
1.85007
1.85248
1.85483
1.85727
1.85956
1.86209
1.86425
1.86702
1.86881
1.8721
1.87346
1.87742
1.69903
2.26239
2.35169
2.37376
2.38652
2.3958
2.4049
2.41356
2.42169
2.42933
2.43649
2.44318
2.44944
2.4553
2.46078
2.46592
2.47075
2.4753
2.47959
2.48366
2.48753
2.49121
2.49476
2.49818
2.50152
2.50481
2.50805
2.51129
2.51449
2.51772
2.52089
2.52417
2.52727
2.53066
2.5336
2.53729
2.53976
2.54414
2.54592
2.55135
2.33329
2.89131
2.94485
2.97151
2.98518
2.99535
3.00552
3.01509
3.02409
3.03255
3.04047
3.04789
3.05484
3.06135
3.06745
3.07318
3.07858
3.08369
3.08856
3.09323
3.09771
3.10205
3.10627
3.11039
3.11445
3.11847
3.12245
3.12643
3.13038
3.13437
3.13829
3.14233
3.14618
3.15035
3.154
3.15853
3.16164
3.16701
3.16916
3.17599
2.69075
3.19619
3.21135
3.24732
3.26027
3.27035
3.28041
3.28968
3.2984
3.30659
3.31426
3.32146
3.3282
3.33452
3.34044
3.34602
3.3513
3.35633
3.36116
3.36584
3.37039
3.37485
3.37924
3.38358
3.38789
3.39218
3.39646
3.40075
3.40501
3.40931
3.41354
3.41789
3.42205
3.42654
3.4305
3.43536
3.43875
3.44452
3.4468
3.45429
1.94705
2.25436
2.23545
2.26963
2.2761
2.28241
2.2885
2.29395
2.29911
2.30395
2.30849
2.31275
2.31675
2.3205
2.32403
2.32736
2.33053
2.33358
2.33653
2.33944
2.34232
2.3452
2.34808
2.35098
2.35388
2.35679
2.35971
2.36264
2.36556
2.36851
2.37142
2.37441
2.37727
2.38035
2.38308
2.38641
2.38876
2.39269
2.39424
2.39945
)
;

boundaryField
{
    upperWall
    {
        type            fixedValue;
        value           uniform 0;
    }
    lowerWall
    {
        type            fixedValue;
        value           uniform 0;
    }
    heatedWall
    {
        type            fixedValue;
        value           uniform 0;
    }
    inlet
    {
        type            fixedValue;
        value           uniform 2e-05;
    }
    outlet
    {
        type            inletOutlet;
        inletValue      uniform 0;
        value           nonuniform List<scalar> 
12
(
2.48474
3.53377
3.21693
2.55537
1.86015
1.38901
1.4006
1.87742
2.55135
3.17599
3.45429
2.39945
)
;
    }
    frontAndBack
    {
        type            empty;
    }
}


// ************************************************************************* //
