/*--------------------------------*- C++ -*----------------------------------*\
  =========                 |
  \\      /  F ield         | OpenFOAM: The Open Source CFD Toolbox
   \\    /   O peration     | Website:  https://openfoam.org
    \\  /    A nd           | Version:  7
     \\/     M anipulation  |
\*---------------------------------------------------------------------------*/
FoamFile
{
    version     2.0;
    format      ascii;
    class       volScalarField;
    location    "2.82";
    object      rho_0;
}
// * * * * * * * * * * * * * * * * * * * * * * * * * * * * * * * * * * * * * //

dimensions      [1 -3 0 0 0 0 0];

internalField   nonuniform List<scalar> 
7920
(
1.23307
1.23235
1.23243
1.2321
1.23229
1.23205
1.23221
1.23203
1.23214
1.232
1.23209
1.23197
1.23204
1.23195
1.23199
1.23193
1.23193
1.23195
1.23182
1.23215
1.23322
1.23281
1.23281
1.23241
1.23253
1.23229
1.2324
1.23223
1.23229
1.23216
1.23221
1.23211
1.23213
1.23206
1.23205
1.23204
1.23193
1.23212
1.23161
1.23271
1.23358
1.23336
1.23369
1.23327
1.23353
1.2332
1.23341
1.23314
1.23329
1.23307
1.23317
1.23299
1.23303
1.2329
1.23288
1.23284
1.23269
1.23286
1.23241
1.23306
1.23339
1.23321
1.23355
1.23321
1.23345
1.23318
1.23336
1.23315
1.23326
1.23309
1.23315
1.23301
1.23302
1.23292
1.23286
1.23281
1.23269
1.23273
1.23252
1.23269
1.23353
1.23332
1.23376
1.23339
1.23372
1.23343
1.23367
1.23343
1.23361
1.23341
1.23353
1.23336
1.23342
1.23327
1.23329
1.23316
1.23314
1.23304
1.23299
1.23291
1.23347
1.23322
1.23366
1.23328
1.23361
1.23331
1.23357
1.23333
1.23352
1.23332
1.23345
1.23328
1.23336
1.23321
1.23325
1.23311
1.23311
1.23298
1.23297
1.23284
1.23347
1.23322
1.23366
1.23328
1.23361
1.23331
1.23357
1.23333
1.23352
1.23332
1.23345
1.23328
1.23336
1.23321
1.23325
1.2331
1.23311
1.23298
1.23297
1.23284
1.23353
1.23332
1.23376
1.23339
1.23372
1.23343
1.23367
1.23343
1.23361
1.23341
1.23353
1.23335
1.23342
1.23327
1.2333
1.23315
1.23315
1.23302
1.23301
1.2329
1.23339
1.23321
1.23355
1.23321
1.23346
1.23318
1.23336
1.23314
1.23327
1.23309
1.23316
1.233
1.23303
1.2329
1.23289
1.23278
1.23275
1.23266
1.23262
1.23257
1.23358
1.23336
1.2337
1.23327
1.23353
1.2332
1.23341
1.23314
1.2333
1.23307
1.23318
1.23298
1.23305
1.23288
1.23292
1.23278
1.2328
1.23268
1.2327
1.23262
1.23322
1.23281
1.23281
1.23241
1.23253
1.23229
1.2324
1.23223
1.2323
1.23216
1.23221
1.2321
1.23214
1.23205
1.23207
1.232
1.23202
1.23196
1.23196
1.23193
1.23307
1.23235
1.23243
1.2321
1.23229
1.23205
1.23221
1.23202
1.23215
1.232
1.23209
1.23197
1.23204
1.23194
1.232
1.23192
1.23196
1.2319
1.23193
1.23186
1.2311
1.23118
1.23075
1.23097
1.2307
1.23092
1.23071
1.23089
1.23072
1.23086
1.23073
1.23084
1.23073
1.23083
1.23073
1.23084
1.23071
1.23093
1.23047
1.23182
1.23145
1.23163
1.23134
1.23147
1.23128
1.2314
1.23129
1.23137
1.23129
1.23134
1.23126
1.23131
1.23122
1.23128
1.23117
1.23131
1.23106
1.23148
1.23074
1.23217
1.23113
1.2314
1.231
1.23124
1.23095
1.23116
1.23096
1.23113
1.23097
1.2311
1.23097
1.23108
1.23094
1.23105
1.2309
1.23106
1.23082
1.23115
1.23066
1.23139
1.23133
1.23165
1.23133
1.23158
1.23136
1.23156
1.23141
1.23156
1.23146
1.23157
1.23149
1.23156
1.23149
1.23154
1.23146
1.23153
1.23142
1.23153
1.23137
1.23156
1.23117
1.23153
1.23113
1.23145
1.23118
1.23143
1.23125
1.23145
1.23131
1.23146
1.23135
1.23147
1.23137
1.23145
1.23137
1.23143
1.23135
1.23141
1.23134
1.23139
1.23123
1.23164
1.23124
1.23158
1.23131
1.23158
1.23139
1.2316
1.23146
1.23163
1.23152
1.23164
1.23155
1.23163
1.23156
1.23161
1.23155
1.23159
1.23155
1.23158
1.23123
1.23164
1.23124
1.23158
1.23131
1.23158
1.23139
1.2316
1.23146
1.23163
1.23152
1.23164
1.23155
1.23163
1.23156
1.23161
1.23156
1.23159
1.23155
1.23159
1.23117
1.23153
1.23113
1.23145
1.23118
1.23143
1.23125
1.23145
1.23131
1.23146
1.23136
1.23146
1.23138
1.23145
1.23138
1.23142
1.23136
1.23139
1.23135
1.23139
1.23133
1.23165
1.23133
1.23158
1.23136
1.23156
1.23141
1.23156
1.23146
1.23157
1.23149
1.23155
1.2315
1.23153
1.23149
1.23149
1.23146
1.23146
1.23145
1.23146
1.23113
1.2314
1.231
1.23124
1.23095
1.23116
1.23096
1.23113
1.23097
1.2311
1.23098
1.23106
1.23096
1.23102
1.23094
1.23099
1.23093
1.23097
1.23093
1.23099
1.23145
1.23163
1.23134
1.23147
1.23128
1.2314
1.23129
1.23136
1.23129
1.23134
1.23127
1.2313
1.23124
1.23126
1.23122
1.23123
1.23121
1.23122
1.23121
1.23125
1.2311
1.23118
1.23075
1.23097
1.2307
1.23092
1.23071
1.23089
1.23072
1.23086
1.23073
1.23084
1.23074
1.23082
1.23075
1.23081
1.23076
1.23081
1.23078
1.23085
1.23133
1.23131
1.23127
1.23127
1.23123
1.23124
1.23119
1.2312
1.23115
1.23116
1.23112
1.23114
1.23109
1.23114
1.23104
1.23121
1.23086
1.23156
1.23007
1.23329
1.23133
1.23134
1.23131
1.23132
1.2313
1.23131
1.23129
1.2313
1.23127
1.23127
1.23121
1.23123
1.23111
1.23121
1.23098
1.23126
1.23079
1.23149
1.23044
1.23197
1.23132
1.23133
1.2313
1.23132
1.2313
1.23131
1.23129
1.23131
1.23128
1.2313
1.23124
1.23126
1.23117
1.2312
1.23108
1.23116
1.23097
1.23115
1.23089
1.23117
1.23132
1.23133
1.23131
1.23133
1.23133
1.23135
1.23134
1.23136
1.23135
1.23137
1.23134
1.23134
1.23131
1.2313
1.23125
1.23124
1.23119
1.23117
1.23115
1.23112
1.23132
1.23133
1.23131
1.23133
1.23132
1.23134
1.23134
1.23136
1.23135
1.23136
1.23135
1.23135
1.23132
1.23131
1.23128
1.23125
1.23123
1.23119
1.23119
1.23114
1.23132
1.23134
1.23131
1.23134
1.23133
1.23135
1.23135
1.23138
1.23137
1.23139
1.23137
1.23137
1.23135
1.23134
1.23131
1.23129
1.23127
1.23124
1.23123
1.2312
1.23132
1.23134
1.23131
1.23134
1.23133
1.23135
1.23135
1.23138
1.23137
1.23139
1.23137
1.23137
1.23135
1.23134
1.23131
1.23129
1.23127
1.23124
1.23122
1.23121
1.23132
1.23133
1.23131
1.23133
1.23132
1.23134
1.23134
1.23136
1.23135
1.23136
1.23135
1.23135
1.23132
1.23131
1.23127
1.23125
1.23122
1.2312
1.23117
1.23116
1.23132
1.23133
1.23132
1.23133
1.23133
1.23135
1.23135
1.23136
1.23136
1.23136
1.23135
1.23134
1.23131
1.23129
1.23126
1.23123
1.23119
1.23117
1.23114
1.23113
1.23132
1.23133
1.2313
1.23131
1.2313
1.23131
1.2313
1.23131
1.23129
1.23129
1.23126
1.23124
1.2312
1.23117
1.23112
1.2311
1.23106
1.23104
1.23102
1.23102
1.23133
1.23134
1.23131
1.23132
1.2313
1.23131
1.2313
1.2313
1.23127
1.23126
1.23122
1.2312
1.23116
1.23113
1.2311
1.23108
1.23107
1.23107
1.23106
1.23108
1.23133
1.23131
1.23127
1.23127
1.23123
1.23124
1.23119
1.23119
1.23115
1.23116
1.23113
1.23113
1.23111
1.23111
1.23109
1.2311
1.23109
1.2311
1.23109
1.2311
1.23133
1.23131
1.23127
1.23127
1.23123
1.23124
1.23119
1.2312
1.23115
1.23116
1.23112
1.23114
1.23109
1.23114
1.23104
1.23121
1.23086
1.23156
1.23007
1.23329
1.23133
1.23134
1.23131
1.23132
1.2313
1.23131
1.23129
1.2313
1.23127
1.23127
1.23121
1.23123
1.23111
1.23121
1.23098
1.23126
1.23079
1.23149
1.23044
1.23197
1.23132
1.23133
1.2313
1.23132
1.2313
1.23131
1.23129
1.23131
1.23128
1.2313
1.23124
1.23126
1.23117
1.2312
1.23108
1.23116
1.23097
1.23115
1.23089
1.23117
1.23132
1.23133
1.23131
1.23133
1.23133
1.23135
1.23134
1.23136
1.23135
1.23137
1.23134
1.23134
1.23131
1.2313
1.23125
1.23124
1.23119
1.23117
1.23115
1.23112
1.23132
1.23133
1.23131
1.23133
1.23132
1.23134
1.23134
1.23136
1.23135
1.23136
1.23135
1.23135
1.23132
1.23131
1.23128
1.23125
1.23123
1.23119
1.23119
1.23114
1.23132
1.23134
1.23131
1.23134
1.23133
1.23135
1.23135
1.23138
1.23137
1.23139
1.23137
1.23137
1.23135
1.23134
1.23131
1.23129
1.23127
1.23124
1.23123
1.2312
1.23132
1.23134
1.23131
1.23134
1.23133
1.23135
1.23135
1.23138
1.23137
1.23139
1.23137
1.23137
1.23135
1.23134
1.23131
1.23129
1.23127
1.23124
1.23122
1.23121
1.23132
1.23133
1.23131
1.23133
1.23132
1.23134
1.23134
1.23136
1.23135
1.23136
1.23135
1.23135
1.23132
1.23131
1.23127
1.23125
1.23122
1.2312
1.23117
1.23116
1.23132
1.23133
1.23132
1.23133
1.23133
1.23135
1.23135
1.23136
1.23136
1.23136
1.23135
1.23134
1.23131
1.23129
1.23126
1.23123
1.23119
1.23117
1.23114
1.23113
1.23132
1.23133
1.2313
1.23131
1.2313
1.23131
1.2313
1.23131
1.23129
1.23129
1.23126
1.23124
1.2312
1.23117
1.23112
1.2311
1.23106
1.23104
1.23102
1.23102
1.23133
1.23134
1.23131
1.23132
1.2313
1.23131
1.2313
1.2313
1.23127
1.23126
1.23122
1.2312
1.23116
1.23113
1.2311
1.23108
1.23107
1.23107
1.23106
1.23108
1.23133
1.23131
1.23127
1.23127
1.23123
1.23124
1.23119
1.23119
1.23115
1.23116
1.23113
1.23113
1.23111
1.23111
1.23109
1.2311
1.23109
1.2311
1.23109
1.2311
1.2311
1.23118
1.23075
1.23097
1.2307
1.23092
1.23071
1.23089
1.23072
1.23086
1.23073
1.23084
1.23073
1.23083
1.23073
1.23084
1.23071
1.23093
1.23047
1.23182
1.23145
1.23163
1.23134
1.23147
1.23128
1.2314
1.23129
1.23137
1.23129
1.23134
1.23126
1.23131
1.23122
1.23128
1.23117
1.23131
1.23106
1.23148
1.23074
1.23217
1.23113
1.2314
1.231
1.23124
1.23095
1.23116
1.23096
1.23113
1.23097
1.2311
1.23097
1.23108
1.23094
1.23105
1.2309
1.23106
1.23082
1.23115
1.23066
1.23139
1.23133
1.23165
1.23133
1.23158
1.23136
1.23156
1.23141
1.23156
1.23146
1.23157
1.23149
1.23156
1.23149
1.23154
1.23146
1.23153
1.23142
1.23153
1.23137
1.23156
1.23117
1.23153
1.23113
1.23145
1.23118
1.23143
1.23125
1.23145
1.23131
1.23146
1.23135
1.23147
1.23137
1.23145
1.23137
1.23143
1.23135
1.23141
1.23134
1.23139
1.23123
1.23164
1.23124
1.23158
1.23131
1.23158
1.23139
1.2316
1.23146
1.23163
1.23152
1.23164
1.23155
1.23163
1.23156
1.23161
1.23155
1.23159
1.23155
1.23158
1.23123
1.23164
1.23124
1.23158
1.23131
1.23158
1.23139
1.2316
1.23146
1.23163
1.23152
1.23164
1.23155
1.23163
1.23156
1.23161
1.23156
1.23159
1.23155
1.23159
1.23117
1.23153
1.23113
1.23145
1.23118
1.23143
1.23125
1.23145
1.23131
1.23146
1.23136
1.23146
1.23138
1.23145
1.23138
1.23142
1.23136
1.23139
1.23135
1.23139
1.23133
1.23165
1.23133
1.23158
1.23136
1.23156
1.23141
1.23156
1.23146
1.23157
1.23149
1.23155
1.2315
1.23153
1.23149
1.23149
1.23146
1.23146
1.23145
1.23146
1.23113
1.2314
1.231
1.23124
1.23095
1.23116
1.23096
1.23113
1.23097
1.2311
1.23098
1.23106
1.23096
1.23102
1.23094
1.23099
1.23093
1.23097
1.23093
1.23099
1.23145
1.23163
1.23134
1.23147
1.23128
1.2314
1.23129
1.23136
1.23129
1.23134
1.23127
1.2313
1.23124
1.23126
1.23122
1.23123
1.23121
1.23122
1.23121
1.23125
1.2311
1.23118
1.23075
1.23097
1.2307
1.23092
1.23071
1.23089
1.23072
1.23086
1.23073
1.23084
1.23074
1.23082
1.23075
1.23081
1.23076
1.23081
1.23078
1.23085
1.23307
1.23235
1.23243
1.2321
1.23229
1.23205
1.23221
1.23203
1.23214
1.232
1.23209
1.23197
1.23204
1.23195
1.23199
1.23193
1.23193
1.23195
1.23182
1.23215
1.23322
1.23281
1.23281
1.23241
1.23253
1.23229
1.2324
1.23223
1.23229
1.23216
1.23221
1.23211
1.23213
1.23206
1.23205
1.23204
1.23193
1.23212
1.23161
1.23271
1.23358
1.23336
1.23369
1.23327
1.23353
1.2332
1.23341
1.23314
1.23329
1.23307
1.23317
1.23299
1.23303
1.2329
1.23288
1.23284
1.23269
1.23286
1.23241
1.23306
1.23339
1.23321
1.23355
1.23321
1.23345
1.23318
1.23336
1.23315
1.23326
1.23309
1.23315
1.23301
1.23302
1.23292
1.23286
1.23281
1.23269
1.23273
1.23252
1.23269
1.23353
1.23332
1.23376
1.23339
1.23372
1.23343
1.23367
1.23343
1.23361
1.23341
1.23353
1.23336
1.23342
1.23327
1.23329
1.23316
1.23314
1.23304
1.23299
1.23291
1.23347
1.23322
1.23366
1.23328
1.23361
1.23331
1.23357
1.23333
1.23352
1.23332
1.23345
1.23328
1.23336
1.23321
1.23325
1.23311
1.23311
1.23298
1.23297
1.23284
1.23347
1.23322
1.23366
1.23328
1.23361
1.23331
1.23357
1.23333
1.23352
1.23332
1.23345
1.23328
1.23336
1.23321
1.23325
1.2331
1.23311
1.23298
1.23297
1.23284
1.23353
1.23332
1.23376
1.23339
1.23372
1.23343
1.23367
1.23343
1.23361
1.23341
1.23353
1.23335
1.23342
1.23327
1.2333
1.23315
1.23315
1.23302
1.23301
1.2329
1.23339
1.23321
1.23355
1.23321
1.23346
1.23318
1.23336
1.23314
1.23327
1.23309
1.23316
1.233
1.23303
1.2329
1.23289
1.23277
1.23275
1.23266
1.23262
1.23257
1.23358
1.23336
1.2337
1.23327
1.23353
1.2332
1.23341
1.23314
1.2333
1.23307
1.23318
1.23298
1.23305
1.23288
1.23292
1.23278
1.2328
1.23268
1.2327
1.23262
1.23322
1.23281
1.23281
1.23241
1.23253
1.23229
1.2324
1.23223
1.2323
1.23216
1.23221
1.2321
1.23214
1.23205
1.23207
1.232
1.23202
1.23196
1.23196
1.23193
1.23307
1.23235
1.23243
1.2321
1.23229
1.23205
1.23221
1.23202
1.23215
1.232
1.23209
1.23197
1.23204
1.23194
1.232
1.23192
1.23196
1.2319
1.23193
1.23186
1.22372
1.21705
1.21275
1.20911
1.20627
1.20362
1.20142
1.19926
1.19739
1.19552
1.19388
1.19223
1.19075
1.18925
1.1879
1.18651
1.18526
1.18398
1.18281
1.18163
1.18054
1.17944
1.17842
1.1774
1.17647
1.17553
1.17467
1.17382
1.17305
1.17229
1.17161
1.17095
1.17037
1.1698
1.16931
1.16884
1.16844
1.16806
1.16775
1.16745
1.16721
1.16699
1.16681
1.16664
1.16652
1.1664
1.16631
1.16622
1.16616
1.1661
1.16605
1.166
1.16596
1.16591
1.16588
1.16583
1.1658
1.16575
1.16572
1.16568
1.16564
1.1656
1.16557
1.16552
1.16549
1.16545
1.16541
1.16537
1.16534
1.16529
1.16526
1.16522
1.16518
1.16514
1.16511
1.16507
1.16503
1.16499
1.16496
1.16492
1.16488
1.16484
1.16481
1.16477
1.16474
1.1647
1.16467
1.16463
1.16461
1.16458
1.22687
1.22072
1.21655
1.21299
1.21018
1.20756
1.20537
1.20322
1.20136
1.1995
1.19785
1.1962
1.19472
1.19322
1.19186
1.19048
1.18922
1.18794
1.18677
1.18558
1.18449
1.18338
1.18236
1.18134
1.1804
1.17945
1.17859
1.17773
1.17695
1.17618
1.1755
1.17482
1.17423
1.17365
1.17315
1.17267
1.17226
1.17187
1.17154
1.17124
1.17099
1.17075
1.17057
1.17039
1.17026
1.17014
1.17004
1.16995
1.16989
1.16982
1.16977
1.16971
1.16968
1.16963
1.16959
1.16955
1.16951
1.16947
1.16944
1.16939
1.16936
1.16931
1.16928
1.16924
1.16921
1.16916
1.16913
1.16909
1.16905
1.16901
1.16898
1.16893
1.1689
1.16886
1.16882
1.16878
1.16875
1.16871
1.16867
1.16863
1.1686
1.16856
1.16852
1.16848
1.16845
1.16841
1.16838
1.16834
1.16833
1.1683
1.23072
1.22617
1.22262
1.21935
1.21671
1.21418
1.21208
1.21
1.20819
1.20636
1.20474
1.2031
1.20164
1.20017
1.19882
1.19745
1.1962
1.19493
1.19376
1.19258
1.1915
1.19039
1.18938
1.18835
1.18741
1.18646
1.18559
1.18473
1.18394
1.18316
1.18246
1.18177
1.18116
1.18056
1.18004
1.17954
1.17911
1.17869
1.17835
1.17802
1.17775
1.1775
1.1773
1.17711
1.17696
1.17682
1.17672
1.17661
1.17654
1.17647
1.17641
1.17635
1.17631
1.17626
1.17623
1.17618
1.17615
1.1761
1.17607
1.17602
1.17599
1.17595
1.17592
1.17587
1.17584
1.17579
1.17576
1.17572
1.17568
1.17564
1.17561
1.17557
1.17553
1.17549
1.17546
1.17541
1.17538
1.17534
1.17531
1.17526
1.17523
1.17519
1.17516
1.17512
1.17509
1.17504
1.17502
1.17497
1.17497
1.17495
1.232
1.22934
1.22679
1.22413
1.22187
1.21962
1.21771
1.2158
1.21413
1.21242
1.21088
1.20932
1.20792
1.20651
1.20522
1.2039
1.20269
1.20145
1.20032
1.19917
1.19811
1.19704
1.19604
1.19503
1.19411
1.19317
1.19232
1.19146
1.19068
1.1899
1.1892
1.1885
1.18788
1.18728
1.18674
1.18622
1.18577
1.18534
1.18498
1.18463
1.18434
1.18407
1.18385
1.18364
1.18348
1.18332
1.1832
1.18309
1.18301
1.18292
1.18287
1.1828
1.18276
1.18271
1.18267
1.18262
1.18259
1.18254
1.18251
1.18246
1.18243
1.18239
1.18235
1.18231
1.18228
1.18223
1.1822
1.18216
1.18212
1.18208
1.18205
1.182
1.18197
1.18193
1.18189
1.18185
1.18182
1.18177
1.18174
1.1817
1.18167
1.18162
1.18159
1.18155
1.18152
1.18148
1.18145
1.1814
1.18139
1.18137
1.23285
1.23141
1.22987
1.22789
1.22613
1.22423
1.22261
1.22095
1.21949
1.21794
1.21655
1.2151
1.2138
1.21248
1.21129
1.21005
1.20891
1.20774
1.20667
1.20558
1.20458
1.20356
1.20261
1.20165
1.20076
1.19986
1.19904
1.19822
1.19746
1.1967
1.19601
1.19533
1.19472
1.19412
1.19359
1.19307
1.19261
1.19217
1.1918
1.19144
1.19114
1.19086
1.19063
1.19041
1.19023
1.19006
1.18994
1.18981
1.18972
1.18963
1.18957
1.1895
1.18946
1.1894
1.18936
1.18931
1.18928
1.18923
1.1892
1.18915
1.18912
1.18908
1.18904
1.189
1.18897
1.18892
1.18889
1.18885
1.18881
1.18877
1.18873
1.18869
1.18866
1.18862
1.18858
1.18854
1.1885
1.18846
1.18843
1.18839
1.18835
1.18831
1.18828
1.18824
1.18821
1.18816
1.18814
1.18809
1.18808
1.18806
1.23285
1.23203
1.23122
1.22986
1.2286
1.22712
1.22583
1.22447
1.22326
1.22195
1.22074
1.21946
1.21831
1.21714
1.21607
1.21496
1.21392
1.21285
1.21188
1.21088
1.20996
1.20902
1.20816
1.20726
1.20644
1.20561
1.20485
1.20408
1.20338
1.20266
1.20202
1.20137
1.20079
1.20022
1.19971
1.19921
1.19877
1.19834
1.19798
1.19762
1.19733
1.19704
1.19681
1.19659
1.19641
1.19624
1.19611
1.19598
1.19589
1.1958
1.19573
1.19566
1.19561
1.19556
1.19552
1.19547
1.19543
1.19539
1.19535
1.19531
1.19527
1.19523
1.1952
1.19515
1.19512
1.19507
1.19504
1.195
1.19496
1.19492
1.19488
1.19484
1.19481
1.19476
1.19473
1.19469
1.19465
1.19461
1.19458
1.19453
1.1945
1.19446
1.19442
1.19438
1.19435
1.19431
1.19428
1.19423
1.19421
1.19418
1.23283
1.23229
1.23191
1.231
1.23016
1.22905
1.22809
1.22702
1.22607
1.22499
1.22399
1.22291
1.22194
1.22093
1.22002
1.21905
1.21815
1.21721
1.21635
1.21547
1.21467
1.21384
1.21307
1.21228
1.21155
1.21081
1.21013
1.20944
1.20881
1.20817
1.20759
1.207
1.20648
1.20595
1.20549
1.20503
1.20463
1.20423
1.20389
1.20356
1.20328
1.20301
1.2028
1.20258
1.20241
1.20225
1.20212
1.202
1.2019
1.20181
1.20175
1.20168
1.20163
1.20157
1.20153
1.20148
1.20145
1.2014
1.20137
1.20132
1.20129
1.20124
1.20121
1.20116
1.20113
1.20109
1.20105
1.20101
1.20097
1.20093
1.2009
1.20085
1.20082
1.20077
1.20074
1.2007
1.20066
1.20062
1.20058
1.20054
1.20051
1.20047
1.20043
1.20039
1.20036
1.20031
1.20028
1.20024
1.20021
1.20017
1.23288
1.23246
1.23229
1.23168
1.23114
1.23032
1.22965
1.22884
1.22813
1.22727
1.22648
1.2256
1.22482
1.22398
1.22324
1.22243
1.22169
1.2209
1.22019
1.21944
1.21878
1.21807
1.21743
1.21675
1.21614
1.21551
1.21494
1.21435
1.21382
1.21326
1.21277
1.21226
1.21182
1.21136
1.21096
1.21056
1.21021
1.20986
1.20957
1.20928
1.20904
1.2088
1.20861
1.20841
1.20826
1.20811
1.208
1.20788
1.2078
1.20771
1.20765
1.20758
1.20753
1.20748
1.20744
1.20739
1.20735
1.20731
1.20727
1.20723
1.20719
1.20715
1.20711
1.20707
1.20703
1.20699
1.20696
1.20691
1.20688
1.20683
1.2068
1.20676
1.20672
1.20668
1.20664
1.2066
1.20656
1.20652
1.20649
1.20644
1.20641
1.20637
1.20633
1.20629
1.20626
1.20622
1.20619
1.20615
1.20611
1.20607
1.23246
1.23213
1.23206
1.23165
1.23132
1.23076
1.23032
1.22974
1.22924
1.2286
1.22802
1.22735
1.22678
1.22613
1.22558
1.22494
1.22438
1.22376
1.22322
1.22263
1.22212
1.22156
1.22107
1.22053
1.22006
1.21955
1.21911
1.21864
1.21822
1.21778
1.21739
1.21699
1.21664
1.21627
1.21596
1.21563
1.21536
1.21507
1.21484
1.2146
1.2144
1.2142
1.21405
1.21389
1.21376
1.21363
1.21353
1.21343
1.21336
1.21328
1.21323
1.21316
1.21312
1.21307
1.21303
1.21298
1.21295
1.2129
1.21287
1.21282
1.21278
1.21274
1.21271
1.21266
1.21263
1.21258
1.21255
1.2125
1.21247
1.21242
1.21239
1.21234
1.21231
1.21227
1.21223
1.21219
1.21215
1.21211
1.21207
1.21203
1.212
1.21195
1.21192
1.21188
1.21184
1.2118
1.21177
1.21173
1.21169
1.21164
1.23265
1.23234
1.23232
1.23199
1.23181
1.23141
1.23116
1.23074
1.23043
1.22997
1.2296
1.22913
1.22875
1.2283
1.22793
1.22748
1.2271
1.22666
1.22629
1.22588
1.22553
1.22513
1.22479
1.22441
1.22409
1.22373
1.22343
1.22309
1.2228
1.22248
1.22222
1.22192
1.22168
1.22142
1.2212
1.22096
1.22076
1.22055
1.22039
1.22021
1.22007
1.21992
1.2198
1.21968
1.21959
1.21948
1.21941
1.21932
1.21927
1.2192
1.21915
1.21909
1.21905
1.219
1.21897
1.21892
1.21888
1.21883
1.2188
1.21875
1.21872
1.21867
1.21864
1.21859
1.21856
1.21852
1.21848
1.21844
1.2184
1.21836
1.21832
1.21828
1.21824
1.2182
1.21816
1.21812
1.21808
1.21804
1.21801
1.21796
1.21793
1.21789
1.21785
1.21781
1.21778
1.21774
1.2177
1.21767
1.21762
1.21758
1.23188
1.23166
1.23166
1.23143
1.23136
1.23111
1.23099
1.23074
1.23058
1.23031
1.23012
1.22984
1.22965
1.22938
1.22918
1.22891
1.22871
1.22845
1.22826
1.22801
1.22783
1.22759
1.22741
1.22718
1.227
1.22679
1.22662
1.22642
1.22626
1.22607
1.22592
1.22574
1.2256
1.22544
1.22531
1.22516
1.22505
1.22492
1.22482
1.2247
1.22462
1.22451
1.22444
1.22435
1.22429
1.22421
1.22416
1.22409
1.22405
1.22399
1.22395
1.2239
1.22386
1.22381
1.22378
1.22373
1.22369
1.22365
1.22361
1.22357
1.22353
1.22349
1.22345
1.22341
1.22337
1.22333
1.22329
1.22325
1.22321
1.22317
1.22313
1.22309
1.22306
1.22301
1.22298
1.22293
1.2229
1.22285
1.22282
1.22278
1.22274
1.2227
1.22266
1.22262
1.22259
1.22255
1.22251
1.22247
1.22243
1.22239
1.23215
1.23196
1.23198
1.2318
1.23179
1.23162
1.2316
1.23144
1.2314
1.23124
1.23118
1.23103
1.23097
1.23083
1.23076
1.23063
1.23056
1.23043
1.23036
1.23023
1.23017
1.23005
1.22998
1.22986
1.2298
1.22969
1.22962
1.22952
1.22945
1.22935
1.22929
1.2292
1.22914
1.22905
1.22899
1.22891
1.22886
1.22878
1.22873
1.22866
1.22861
1.22854
1.2285
1.22844
1.2284
1.22834
1.2283
1.22825
1.22821
1.22816
1.22813
1.22808
1.22804
1.22799
1.22796
1.22791
1.22788
1.22783
1.2278
1.22775
1.22772
1.22767
1.22764
1.22759
1.22756
1.22751
1.22748
1.22744
1.2274
1.22736
1.22732
1.22728
1.22724
1.2272
1.22716
1.22712
1.22709
1.22704
1.22701
1.22696
1.22693
1.22689
1.22685
1.22681
1.22678
1.22673
1.2267
1.22666
1.22662
1.22658
1.22023
1.21295
1.20838
1.20482
1.2019
1.19933
1.19709
1.19499
1.1931
1.19128
1.18962
1.188
1.18652
1.18504
1.18368
1.18232
1.18106
1.1798
1.17863
1.17746
1.17637
1.17527
1.17425
1.17324
1.1723
1.17137
1.17052
1.16967
1.1689
1.16814
1.16747
1.16681
1.16623
1.16566
1.16518
1.16471
1.16432
1.16394
1.16363
1.16334
1.1631
1.16288
1.16271
1.16254
1.16242
1.1623
1.16222
1.16213
1.16207
1.16201
1.16196
1.16191
1.16187
1.16182
1.16179
1.16174
1.16171
1.16167
1.16163
1.16159
1.16156
1.16151
1.16148
1.16144
1.1614
1.16136
1.16133
1.16129
1.16125
1.16121
1.16117
1.16113
1.1611
1.16106
1.16102
1.16098
1.16094
1.1609
1.16087
1.16083
1.16079
1.16075
1.16071
1.16067
1.16063
1.16059
1.16055
1.16051
1.16045
1.16041
1.22645
1.22032
1.21599
1.21249
1.2096
1.20702
1.20479
1.20269
1.2008
1.19896
1.19729
1.19566
1.19417
1.19268
1.19131
1.18994
1.18867
1.18739
1.18621
1.18503
1.18393
1.18282
1.1818
1.18076
1.17982
1.17887
1.178
1.17714
1.17636
1.17558
1.17489
1.17421
1.17361
1.17303
1.17253
1.17204
1.17163
1.17123
1.17091
1.17059
1.17035
1.17011
1.16992
1.16975
1.16961
1.16948
1.16939
1.1693
1.16923
1.16916
1.16912
1.16906
1.16902
1.16897
1.16894
1.16889
1.16886
1.16881
1.16878
1.16874
1.1687
1.16866
1.16863
1.16858
1.16855
1.16851
1.16847
1.16843
1.1684
1.16835
1.16832
1.16828
1.16824
1.1682
1.16817
1.16813
1.16809
1.16805
1.16801
1.16797
1.16794
1.1679
1.16786
1.16782
1.16778
1.16774
1.1677
1.16766
1.1676
1.16756
1.22925
1.22521
1.22165
1.21856
1.21588
1.21346
1.21132
1.20931
1.20748
1.20569
1.20405
1.20244
1.20097
1.19951
1.19815
1.19679
1.19553
1.19426
1.19309
1.19191
1.19082
1.18971
1.18869
1.18766
1.18671
1.18575
1.18488
1.18401
1.18321
1.18242
1.18171
1.18102
1.1804
1.17979
1.17927
1.17875
1.17832
1.17789
1.17754
1.17721
1.17694
1.17668
1.17647
1.17628
1.17613
1.17598
1.17588
1.17577
1.1757
1.17562
1.17557
1.17551
1.17547
1.17542
1.17538
1.17533
1.1753
1.17525
1.17522
1.17518
1.17515
1.1751
1.17507
1.17502
1.17499
1.17495
1.17491
1.17487
1.17484
1.17479
1.17476
1.17472
1.17468
1.17464
1.17461
1.17456
1.17453
1.17449
1.17445
1.17441
1.17437
1.17433
1.17429
1.17425
1.17422
1.17417
1.17413
1.17409
1.17404
1.174
1.23112
1.229
1.2266
1.22418
1.22194
1.2198
1.21788
1.21604
1.21436
1.21268
1.21113
1.20958
1.20817
1.20676
1.20546
1.20415
1.20292
1.20168
1.20054
1.19939
1.19832
1.19724
1.19624
1.19522
1.19428
1.19334
1.19248
1.19161
1.19082
1.19003
1.18931
1.1886
1.18797
1.18736
1.18681
1.18628
1.18582
1.18538
1.18501
1.18465
1.18435
1.18407
1.18385
1.18363
1.18347
1.1833
1.18318
1.18307
1.18298
1.1829
1.18284
1.18277
1.18273
1.18267
1.18264
1.18259
1.18255
1.18251
1.18247
1.18243
1.1824
1.18235
1.18232
1.18228
1.18224
1.1822
1.18217
1.18212
1.18209
1.18205
1.18201
1.18197
1.18193
1.18189
1.18186
1.18181
1.18178
1.18174
1.1817
1.18166
1.18162
1.18158
1.18155
1.1815
1.18147
1.18143
1.18139
1.18134
1.1813
1.18126
1.23129
1.23044
1.22906
1.22745
1.22576
1.22405
1.22246
1.2209
1.21944
1.21796
1.21656
1.21514
1.21384
1.21254
1.21134
1.21011
1.20896
1.20779
1.20671
1.20561
1.20461
1.20358
1.20262
1.20165
1.20075
1.19985
1.19902
1.19818
1.19741
1.19664
1.19594
1.19525
1.19463
1.19401
1.19347
1.19294
1.19247
1.19202
1.19164
1.19127
1.19096
1.19066
1.19043
1.1902
1.19002
1.18984
1.18971
1.18958
1.18949
1.1894
1.18933
1.18926
1.18922
1.18916
1.18912
1.18907
1.18904
1.18899
1.18896
1.18891
1.18888
1.18883
1.1888
1.18876
1.18872
1.18868
1.18865
1.1886
1.18857
1.18853
1.18849
1.18845
1.18841
1.18837
1.18834
1.18829
1.18826
1.18822
1.18818
1.18814
1.1881
1.18806
1.18802
1.18798
1.18794
1.1879
1.18786
1.18782
1.18777
1.18773
1.23155
1.2313
1.23063
1.22967
1.22851
1.22723
1.22601
1.22474
1.22356
1.2223
1.2211
1.21985
1.2187
1.21754
1.21647
1.21536
1.21432
1.21325
1.21226
1.21126
1.21033
1.20939
1.20851
1.20761
1.20678
1.20593
1.20516
1.20438
1.20366
1.20294
1.20228
1.20162
1.20103
1.20044
1.19992
1.19941
1.19896
1.19851
1.19814
1.19777
1.19747
1.19717
1.19693
1.1967
1.19652
1.19634
1.1962
1.19607
1.19597
1.19588
1.19581
1.19574
1.19569
1.19563
1.19559
1.19554
1.1955
1.19546
1.19542
1.19538
1.19534
1.1953
1.19527
1.19522
1.19519
1.19514
1.19511
1.19507
1.19503
1.19499
1.19495
1.19491
1.19488
1.19483
1.1948
1.19476
1.19472
1.19468
1.19464
1.1946
1.19456
1.19452
1.19449
1.19444
1.19441
1.19437
1.19433
1.19428
1.19424
1.1942
1.23153
1.2315
1.23121
1.23068
1.22994
1.22904
1.22816
1.2272
1.22629
1.22528
1.2243
1.22325
1.22229
1.22129
1.22038
1.21942
1.21852
1.21758
1.21672
1.21583
1.21503
1.21419
1.21341
1.21261
1.21187
1.21112
1.21043
1.20973
1.20909
1.20844
1.20785
1.20725
1.20671
1.20618
1.2057
1.20523
1.20481
1.2044
1.20405
1.20371
1.20343
1.20315
1.20292
1.2027
1.20252
1.20235
1.20222
1.20209
1.20199
1.2019
1.20183
1.20176
1.20171
1.20165
1.20161
1.20156
1.20152
1.20148
1.20144
1.2014
1.20136
1.20132
1.20129
1.20124
1.20121
1.20116
1.20113
1.20108
1.20105
1.20101
1.20097
1.20093
1.20089
1.20085
1.20082
1.20077
1.20074
1.20069
1.20066
1.20062
1.20058
1.20054
1.2005
1.20046
1.20042
1.20038
1.20034
1.2003
1.20026
1.20021
1.23129
1.23133
1.23121
1.23092
1.23045
1.22985
1.22925
1.22857
1.22791
1.22713
1.22637
1.22554
1.22477
1.22397
1.22324
1.22245
1.22171
1.22092
1.22021
1.21947
1.2188
1.21809
1.21745
1.21677
1.21615
1.21551
1.21493
1.21433
1.21379
1.21323
1.21273
1.21221
1.21175
1.21129
1.21088
1.21047
1.21011
1.20975
1.20945
1.20915
1.2089
1.20865
1.20845
1.20825
1.20809
1.20794
1.20782
1.2077
1.20761
1.20752
1.20746
1.20739
1.20734
1.20728
1.20725
1.20719
1.20716
1.20711
1.20708
1.20703
1.207
1.20695
1.20692
1.20688
1.20684
1.2068
1.20676
1.20672
1.20668
1.20664
1.2066
1.20656
1.20652
1.20648
1.20645
1.2064
1.20637
1.20632
1.20629
1.20624
1.20621
1.20617
1.20613
1.20609
1.20604
1.206
1.20596
1.20592
1.20587
1.20582
1.23147
1.23146
1.23143
1.23122
1.23094
1.23052
1.23013
1.22965
1.22919
1.2286
1.22804
1.22741
1.22684
1.22622
1.22566
1.22504
1.22447
1.22385
1.2233
1.22271
1.22219
1.22163
1.22112
1.22057
1.22009
1.21958
1.21912
1.21864
1.21821
1.21776
1.21736
1.21695
1.21658
1.21621
1.21588
1.21555
1.21526
1.21496
1.21472
1.21447
1.21427
1.21406
1.2139
1.21373
1.2136
1.21346
1.21336
1.21326
1.21318
1.2131
1.21305
1.21298
1.21294
1.21288
1.21285
1.2128
1.21276
1.21272
1.21268
1.21264
1.2126
1.21256
1.21252
1.21248
1.21244
1.2124
1.21236
1.21232
1.21228
1.21224
1.2122
1.21216
1.21212
1.21208
1.21204
1.212
1.21197
1.21192
1.21189
1.21184
1.21181
1.21176
1.21173
1.21168
1.21164
1.2116
1.21156
1.21152
1.21148
1.21143
1.23087
1.23089
1.23086
1.23074
1.23057
1.23032
1.23008
1.22976
1.22946
1.22906
1.22868
1.22824
1.22786
1.22742
1.22703
1.22659
1.22619
1.22575
1.22536
1.22494
1.22457
1.22416
1.22381
1.22341
1.22307
1.22269
1.22237
1.22202
1.22171
1.22138
1.22109
1.22079
1.22053
1.22025
1.22001
1.21976
1.21955
1.21933
1.21915
1.21896
1.21881
1.21865
1.21853
1.2184
1.2183
1.21819
1.21811
1.21803
1.21797
1.21789
1.21785
1.21779
1.21775
1.2177
1.21766
1.21761
1.21758
1.21753
1.2175
1.21745
1.21742
1.21737
1.21734
1.21729
1.21726
1.21721
1.21718
1.21713
1.2171
1.21705
1.21702
1.21697
1.21694
1.21689
1.21686
1.21681
1.21678
1.21673
1.2167
1.21665
1.21662
1.21657
1.21653
1.21649
1.21645
1.21641
1.21637
1.21633
1.21628
1.21623
1.2313
1.23127
1.23125
1.23115
1.23106
1.23089
1.23076
1.23055
1.23038
1.23012
1.22991
1.22962
1.2294
1.22912
1.2289
1.22861
1.22838
1.2281
1.22787
1.2276
1.22739
1.22712
1.22691
1.22666
1.22645
1.22621
1.22602
1.22579
1.2256
1.22539
1.22521
1.22501
1.22485
1.22467
1.22452
1.22435
1.22422
1.22407
1.22396
1.22383
1.22373
1.22362
1.22354
1.22344
1.22337
1.22329
1.22323
1.22316
1.22312
1.22305
1.22301
1.22296
1.22292
1.22287
1.22284
1.22279
1.22276
1.22271
1.22268
1.22263
1.2226
1.22255
1.22252
1.22247
1.22244
1.22239
1.22236
1.22231
1.22228
1.22223
1.2222
1.22215
1.22212
1.22207
1.22204
1.22199
1.22196
1.22191
1.22188
1.22183
1.2218
1.22175
1.22172
1.22167
1.22164
1.22159
1.22155
1.22151
1.22147
1.22142
1.23063
1.2306
1.23058
1.23052
1.23049
1.23039
1.23035
1.23024
1.23018
1.23005
1.22998
1.22985
1.22977
1.22963
1.22956
1.22942
1.22934
1.2292
1.22912
1.22899
1.22891
1.22878
1.2287
1.22857
1.2285
1.22838
1.2283
1.22819
1.22811
1.228
1.22793
1.22783
1.22776
1.22766
1.2276
1.22751
1.22745
1.22736
1.22731
1.22723
1.22718
1.22711
1.22707
1.227
1.22696
1.2269
1.22686
1.2268
1.22676
1.22671
1.22668
1.22663
1.22659
1.22654
1.22651
1.22646
1.22643
1.22638
1.22635
1.2263
1.22627
1.22622
1.22619
1.22614
1.22611
1.22607
1.22603
1.22599
1.22595
1.22591
1.22587
1.22583
1.22579
1.22575
1.22571
1.22567
1.22563
1.22559
1.22555
1.22551
1.22547
1.22543
1.22539
1.22535
1.22531
1.22527
1.22523
1.22519
1.22515
1.2251
1.21792
1.20838
1.20306
1.19919
1.19608
1.19341
1.19108
1.18893
1.18699
1.18514
1.18346
1.18183
1.18033
1.17885
1.17747
1.1761
1.17484
1.17357
1.1724
1.17122
1.17013
1.16903
1.16801
1.16699
1.16606
1.16513
1.16427
1.16343
1.16266
1.16191
1.16124
1.16059
1.16002
1.15947
1.15899
1.15853
1.15815
1.15779
1.15749
1.15721
1.15698
1.15677
1.15661
1.15645
1.15634
1.15622
1.15615
1.15607
1.15601
1.15595
1.15591
1.15585
1.15582
1.15577
1.15574
1.15569
1.15566
1.15562
1.15558
1.15554
1.15551
1.15546
1.15543
1.15539
1.15536
1.15531
1.15528
1.15524
1.1552
1.15516
1.15513
1.15509
1.15505
1.15501
1.15497
1.15493
1.1549
1.15486
1.15482
1.15478
1.15475
1.1547
1.15467
1.15463
1.15459
1.15455
1.15451
1.15447
1.15441
1.15437
1.22742
1.22046
1.21542
1.21156
1.20842
1.2057
1.20334
1.20115
1.19918
1.19729
1.19557
1.19389
1.19236
1.19085
1.18945
1.18805
1.18675
1.18545
1.18425
1.18305
1.18193