/*--------------------------------*- C++ -*----------------------------------*\
  =========                 |
  \\      /  F ield         | OpenFOAM: The Open Source CFD Toolbox
   \\    /   O peration     | Website:  https://openfoam.org
    \\  /    A nd           | Version:  7
     \\/     M anipulation  |
\*---------------------------------------------------------------------------*/
FoamFile
{
    version     2.0;
    format      ascii;
    class       volScalarField;
    location    "3.7";
    object      alphat;
}
// * * * * * * * * * * * * * * * * * * * * * * * * * * * * * * * * * * * * * //

dimensions      [1 -1 -1 0 0 0 0];

internalField   nonuniform List<scalar> 
4800
(
0.000222202
0.000514547
0.000829812
0.00110415
0.00133318
0.00151475
0.00165345
0.00175306
0.00182197
0.00186333
0.00188732
0.00189141
0.00188742
0.00187677
0.0018579
0.00183522
0.00181013
0.00178369
0.00175668
0.00172969
0.00170312
0.00167728
0.00165236
0.0016285
0.00160577
0.0015842
0.00156381
0.00154459
0.00152649
0.00150949
0.00149351
0.00147851
0.00146443
0.00145121
0.00143878
0.00142709
0.00141607
0.00140569
0.00139588
0.0013866
0.00137779
0.00136942
0.00136145
0.00135385
0.00134658
0.00133962
0.00133294
0.00132651
0.00132033
0.00131436
0.00130858
0.00130299
0.00129756
0.00129229
0.00128717
0.00128219
0.00127734
0.00127261
0.00126799
0.00126348
0.00125906
0.00125474
0.00125051
0.00124637
0.0012423
0.0012383
0.0012344
0.00123052
0.00122677
0.00122298
0.00121942
0.00121563
0.00121233
0.00120838
0.00120547
0.00120113
0.00119843
0.00119394
0.00118882
0.00119704
1.18204e-05
4.24653e-05
9.57141e-05
0.000166832
0.000258533
0.000358068
0.000457787
0.000549613
0.000633098
0.000704759
0.000766151
0.000816659
0.00085749
0.000890485
0.000916329
0.000936259
0.000951291
0.000962451
0.000970455
0.000976101
0.00097981
0.000982222
0.000983484
0.000984173
0.000984152
0.000983992
0.000983632
0.00098315
0.000982655
0.000982201
0.000981815
0.000981526
0.00098133
0.000981245
0.000981268
0.000981347
0.000981513
0.000981752
0.000982046
0.000982381
0.00098275
0.000983136
0.000983536
0.000983935
0.000984333
0.000984715
0.000985085
0.000985432
0.000985751
0.00098604
0.0009863
0.000986523
0.000986716
0.000986869
0.000986989
0.000987066
0.000987111
0.000987106
0.00098708
0.000987026
0.000986915
0.000986799
0.000986619
0.000986453
0.000986207
0.000986004
0.000985694
0.000985467
0.00098509
0.000984848
0.000984403
0.000984161
0.000983657
0.000983415
0.000982853
0.000982627
0.000981949
0.000981703
0.00098048
0.00098134
8.17252e-06
8.36945e-06
9.89854e-06
1.4885e-05
2.48056e-05
3.96076e-05
5.96812e-05
8.42825e-05
0.000111522
0.000140089
0.000168866
0.00019725
0.000224365
0.000249991
0.000273733
0.000295537
0.00031527
0.000333046
0.000348882
0.000362962
0.000375366
0.000386291
0.000395845
0.000404209
0.000411505
0.000417871
0.000423438
0.0004283
0.00043257
0.000436316
0.000439642
0.000442594
0.000445264
0.000447673
0.000449909
0.00045197
0.000453935
0.000455787
0.000457605
0.000459351
0.00046111
0.000462827
0.000464594
0.000466335
0.000468154
0.000469953
0.00047185
0.000473725
0.000475713
0.000477671
0.000479759
0.000481801
0.000483987
0.000486112
0.0004884
0.000490601
0.000492981
0.000495248
0.000497712
0.000500029
0.000502572
0.000504931
0.000507546
0.000509927
0.000512608
0.000515006
0.000517753
0.000520148
0.000522958
0.000525336
0.000528213
0.000530559
0.000533514
0.000535814
0.000538873
0.000541107
0.000544327
0.000546507
0.000550025
0.000552322
8.17863e-06
8.18071e-06
8.18985e-06
8.22649e-06
8.36257e-06
8.77218e-06
9.77329e-06
1.1732e-05
1.53248e-05
1.92553e-05
2.54241e-05
3.12967e-05
3.87324e-05
4.57774e-05
5.37296e-05
6.11956e-05
6.91361e-05
7.64776e-05
8.40372e-05
9.09373e-05
9.79024e-05
0.000104171
0.000110424
0.000115984
0.000121508
0.000126376
0.000131219
0.000135439
0.000139659
0.000143283
0.000146942
0.000150043
0.000153224
0.000155879
0.000158662
0.000160945
0.000163398
0.00016537
0.000167552
0.000169266
0.000171228
0.000172729
0.000174518
0.00017585
0.000177508
0.000178706
0.000180267
0.000181359
0.000182846
0.000183855
0.000185295
0.000186237
0.000187645
0.000188541
0.000189935
0.00019079
0.000192185
0.000193019
0.000194422
0.00019524
0.000196662
0.000197471
0.000198919
0.000199716
0.000201192
0.000201988
0.000203505
0.000204309
0.000205871
0.000206687
0.000208298
0.000209135
0.0002108
0.000211666
0.000213401
0.00021431
0.00021615
0.000217131
0.00021918
0.000220332
8.18129e-06
8.18144e-06
8.18506e-06
8.19407e-06
8.21537e-06
8.2393e-06
8.28939e-06
8.33963e-06
8.44878e-06
8.56782e-06
8.8311e-06
9.10699e-06
9.69163e-06
1.02017e-05
1.12292e-05
1.19772e-05
1.34299e-05
1.43531e-05
1.61149e-05
1.7136e-05
1.90744e-05
2.01275e-05
2.21259e-05
2.31641e-05
2.514e-05
2.61374e-05
2.80337e-05
2.89969e-05
3.07843e-05
3.17002e-05
3.33563e-05
3.42179e-05
3.57578e-05
3.65566e-05
3.80002e-05
3.87506e-05
4.01098e-05
4.08139e-05
4.2096e-05
4.27602e-05
4.39734e-05
4.45932e-05
4.57446e-05
4.63307e-05
4.7433e-05
4.79922e-05
4.90465e-05
4.9578e-05
5.05932e-05
5.11018e-05
5.20811e-05
5.25694e-05
5.35152e-05
5.39852e-05
5.49014e-05
5.53538e-05
5.62447e-05
5.6686e-05
5.75551e-05
5.79855e-05
5.8835e-05
5.92553e-05
6.00832e-05
6.0491e-05
6.12984e-05
6.16973e-05
6.24883e-05
6.28806e-05
6.36611e-05
6.40509e-05
6.4827e-05
6.52148e-05
6.59891e-05
6.63771e-05
6.71552e-05
6.75479e-05
6.83454e-05
6.87545e-05
6.96111e-05
7.00656e-05
8.18318e-06
8.1824e-06
8.1848e-06
8.19202e-06
8.20994e-06
8.22994e-06
8.27312e-06
8.30472e-06
8.37062e-06
8.41102e-06
8.49367e-06
8.53952e-06
8.63238e-06
8.68132e-06
8.78044e-06
8.83183e-06
8.93641e-06
8.99052e-06
9.10121e-06
9.1589e-06
9.27752e-06
9.33972e-06
9.46785e-06
9.53507e-06
9.67333e-06
9.74572e-06
9.89403e-06
9.97174e-06
1.01305e-05
1.02131e-05
1.03808e-05
1.04673e-05
1.06424e-05
1.07323e-05
1.0914e-05
1.10073e-05
1.11957e-05
1.12922e-05
1.14864e-05
1.15857e-05
1.1785e-05
1.18864e-05
1.20897e-05
1.21932e-05
1.24006e-05
1.25061e-05
1.27173e-05
1.28245e-05
1.3039e-05
1.31477e-05
1.33651e-05
1.3475e-05
1.3695e-05
1.38061e-05
1.40283e-05
1.41405e-05
1.43647e-05
1.44779e-05
1.47041e-05
1.48183e-05
1.50465e-05
1.51614e-05
1.53905e-05
1.55051e-05
1.57337e-05
1.58481e-05
1.60762e-05
1.61907e-05
1.64194e-05
1.65349e-05
1.67657e-05
1.68824e-05
1.7116e-05
1.7234e-05
1.74707e-05
1.75906e-05
1.78321e-05
1.79553e-05
1.82076e-05
1.83382e-05
8.18314e-06
8.18244e-06
8.18478e-06
8.19201e-06
8.20999e-06
8.22996e-06
8.2731e-06
8.30469e-06
8.37057e-06
8.41097e-06
8.49365e-06
8.53955e-06
8.63256e-06
8.68159e-06
8.78084e-06
8.83218e-06
8.93659e-06
8.9906e-06
9.10112e-06
9.15871e-06
9.27708e-06
9.33926e-06
9.46739e-06
9.5349e-06
9.67372e-06
9.74648e-06
9.89555e-06
9.9732e-06
1.01314e-05
1.02134e-05
1.03804e-05
1.0467e-05
1.06423e-05
1.07327e-05
1.09154e-05
1.10089e-05
1.11973e-05
1.12937e-05
1.14875e-05
1.15865e-05
1.17854e-05
1.18869e-05
1.20908e-05
1.21946e-05
1.24025e-05
1.25082e-05
1.27196e-05
1.28269e-05
1.30415e-05
1.31502e-05
1.33675e-05
1.34774e-05
1.3697e-05
1.3808e-05
1.40297e-05
1.41415e-05
1.43646e-05
1.44767e-05
1.47e-05
1.48121e-05
1.50356e-05
1.51479e-05
1.53723e-05
1.54854e-05
1.57112e-05
1.58249e-05
1.60519e-05
1.61656e-05
1.6392e-05
1.65049e-05
1.67296e-05
1.68413e-05
1.7064e-05
1.71749e-05
1.73968e-05
1.75075e-05
1.77313e-05
1.78439e-05
1.80764e-05
1.81951e-05
8.18123e-06
8.18159e-06
8.18499e-06
8.19403e-06
8.21528e-06
8.23924e-06
8.28933e-06
8.33953e-06
8.4486e-06
8.56765e-06
8.83163e-06
9.10743e-06
9.69338e-06
1.02025e-05
1.12299e-05
1.19757e-05
1.34281e-05
1.43502e-05
1.61134e-05
1.71327e-05
1.90699e-05
2.01218e-05
2.21225e-05
2.31632e-05
2.51477e-05
2.6147e-05
2.80505e-05
2.90054e-05
3.07857e-05
3.16889e-05
3.33547e-05
3.4213e-05
3.57633e-05
3.65693e-05
3.8011e-05
3.87649e-05
4.01182e-05
4.08221e-05
4.2102e-05
4.27615e-05
4.39711e-05
4.4596e-05
4.57532e-05
4.63408e-05
4.74434e-05
4.8003e-05
4.90574e-05
4.95904e-05
5.06046e-05
5.11117e-05
5.20907e-05
5.25762e-05
5.35201e-05
5.39899e-05
5.49026e-05
5.5355e-05
5.624e-05
5.6676e-05
5.75329e-05
5.79546e-05
5.87877e-05
5.91984e-05
6.00123e-05
6.04155e-05
6.12153e-05
6.16117e-05
6.23967e-05
6.27831e-05
6.35485e-05
6.39254e-05
6.46736e-05
6.5043e-05
6.57783e-05
6.61414e-05
6.68693e-05
6.72295e-05
6.79635e-05
6.83314e-05
6.91129e-05
6.95171e-05
8.17856e-06
8.18093e-06
8.18962e-06
8.22636e-06
8.36225e-06
8.77137e-06
9.7717e-06
1.17297e-05
1.53228e-05
1.92515e-05
2.54457e-05
3.1284e-05
3.87577e-05
4.57714e-05
5.37422e-05
6.11756e-05
6.91374e-05
7.64666e-05
8.40434e-05
9.09251e-05
9.78926e-05
0.000104149
0.00011042
0.000115986
0.000121537
0.000126397
0.000131247
0.000135441
0.000139658
0.000143265
0.00014694
0.000150039
0.000153241
0.000155893
0.000158685
0.000160958
0.000163414
0.000165371
0.000167558
0.00016926
0.00017123
0.000172725
0.000174529
0.000175852
0.000177522
0.000178712
0.00018028
0.000181362
0.000182856
0.000183852
0.000185297
0.000186226
0.000187638
0.000188522
0.000189918
0.000190758
0.000192151
0.000192965
0.000194359
0.000195153
0.000196564
0.000197347
0.000198785
0.000199566
0.000201029
0.000201808
0.0002033
0.000204081
0.000205603
0.000206386
0.000207937
0.000208732
0.000210317
0.000211128
0.000212756
0.00021359
0.000215294
0.000216174
0.000218055
0.000219082
8.1721e-06
8.3685e-06
9.89457e-06
1.48797e-05
2.47973e-05
3.95998e-05
5.96821e-05
8.42798e-05
0.000111516
0.000140082
0.000168878
0.000197273
0.000224391
0.000250001
0.000273731
0.000295524
0.000315259
0.000333036
0.000348874
0.000362951
0.000375355
0.000386281
0.000395847
0.000404217
0.000411522
0.000417881
0.000423444
0.000428291
0.000432558
0.000436298
0.000439634
0.000442586
0.000445268
0.000447673
0.000449914
0.000451963
0.000453932
0.000455769
0.000457595
0.000459329
0.000461102
0.000462808
0.000464591
0.000466315
0.00046815
0.000469927
0.00047184
0.000473688
0.000475695
0.000477621
0.000479732
0.000481739
0.000483954
0.000486038
0.000488355
0.000490501
0.000492915
0.000495115
0.000497622
0.000499864
0.000502454
0.000504721
0.000507396
0.00050967
0.000512417
0.00051468
0.000517496
0.000519729
0.000522618
0.000524802
0.000527765
0.000529881
0.000532926
0.000534956
0.000538092
0.000540028
0.000543269
0.000545151
0.00054854
0.000550632
1.17011e-05
4.24254e-05
9.56784e-05
0.000166815
0.000258528
0.00035806
0.00045778
0.000549601
0.000633084
0.000704755
0.000766158
0.000816669
0.000857496
0.000890482
0.000916316
0.000936241
0.000951272
0.000962433
0.000970437
0.000976085
0.000979797
0.00098221
0.000983477
0.000984161
0.000984139
0.000983975
0.000983608
0.000983123
0.000982626
0.000982174
0.00098179
0.000981502
0.000981306
0.000981217
0.000981239
0.000981314
0.000981476
0.000981714
0.000982007
0.000982342
0.000982709
0.000983096
0.000983495
0.000983893
0.000984287
0.000984664
0.00098503
0.000985372
0.000985686
0.000985975
0.000986229
0.000986454
0.000986637
0.000986786
0.000986893
0.000986964
0.000986994
0.000986984
0.000986949
0.000986886
0.000986765
0.000986639
0.000986445
0.000986267
0.000986003
0.000985782
0.000985446
0.000985194
0.000984783
0.000984513
0.00098403
0.000983756
0.000983208
0.00098292
0.000982303
0.000981996
0.000981249
0.000980836
0.000979364
0.000979991
0.00022219
0.000514581
0.0008298
0.00110414
0.00133318
0.00151476
0.00165345
0.00175306
0.00182197
0.00186333
0.00188732
0.0018914
0.00188742
0.00187676
0.00185789
0.00183521
0.00181012
0.00178367
0.00175667
0.00172967
0.00170311
0.00167726
0.00165234
0.00162847
0.00160573
0.00158417
0.00156378
0.00154455
0.00152646
0.00150945
0.00149347
0.00147848
0.00146439
0.00145117
0.00143874
0.00142704
0.00141603
0.00140565
0.00139584
0.00138656
0.00137775
0.00136938
0.00136142
0.00135381
0.00134655
0.00133959
0.00133291
0.00132649
0.00132031
0.00131435
0.00130858
0.00130299
0.00129758
0.00129232
0.00128722
0.00128225
0.00127742
0.00127271
0.00126812
0.00126363
0.00125925
0.00125497
0.00125078
0.00124668
0.00124267
0.00123874
0.00123489
0.00123112
0.00122744
0.00122379
0.00122029
0.00121672
0.00121345
0.00120985
0.0012069
0.00120306
0.0012003
0.00119622
0.00119152
0.00119845
0.00317281
0.00345374
0.00347621
0.00344661
0.00340271
0.00336022
0.00332312
0.00328935
0.003258
0.00322879
0.0032016
0.00317628
0.00315265
0.00313057
0.00310992
0.00309057
0.00307244
0.00305542
0.00303942
0.00302436
0.00301015
0.00299673
0.00298403
0.002972
0.0029606
0.00294977
0.00293948
0.0029297
0.00292037
0.00291149
0.00290302
0.00289494
0.00288722
0.00287986
0.00287281
0.00286608
0.00285964
0.00285348
0.00284758
0.00284193
0.00283653
0.00283135
0.00282638
0.00282163
0.00281707
0.0028127
0.00280851
0.0028045
0.00280065
0.00279696
0.00279343
0.00279003
0.00278678
0.00278366
0.00278067
0.0027778
0.00277505
0.00277242
0.00276989
0.00276746
0.00276513
0.0027629
0.00276076
0.00275871
0.00275673
0.00275484
0.00275302
0.00275127
0.0027496
0.00274798
0.00274643
0.00274493
0.0027435
0.00274211
0.00274078
0.00273949
0.00273825
0.00273706
0.00273591
0.00273479
0.00273371
0.00273267
0.00273166
0.00273069
0.00272974
0.00272883
0.00272794
0.00272708
0.00272625
0.00272544
0.00272465
0.00272388
0.00272313
0.00272241
0.0027217
0.00272101
0.00272033
0.00271967
0.00271903
0.0027184
0.00271779
0.00271718
0.00271659
0.00271602
0.00271545
0.00271489
0.00271435
0.00271381
0.00271329
0.00271277
0.00271226
0.00271177
0.00271127
0.00271079
0.00271032
0.00270985
0.00270939
0.00270893
0.00270848
0.00270804
0.00270761
0.00270718
0.00270675
0.00270633
0.00270592
0.00270551
0.00270511
0.00270471
0.00270431
0.00270392
0.00270354
0.00270316
0.00270278
0.00270241
0.00270204
0.00270168
0.00270132
0.00270096
0.00270061
0.00270026
0.00269992
0.00269958
0.00269924
0.00269891
0.00269858
0.00269826
0.00269794
0.00269762
0.00269731
0.002697
0.0026967
0.00269639
0.0026961
0.00269581
0.00269552
0.00269523
0.00269495
0.00269468
0.0026944
0.00269413
0.00269387
0.00269361
0.00269335
0.0026931
0.00269285
0.00269261
0.00269237
0.00269214
0.00269191
0.00269168
0.00269146
0.00269125
0.00269103
0.00269083
0.00269063
0.00269043
0.00269024
0.00269005
0.00268987
0.0026897
0.00268952
0.00268936
0.0026892
0.00268904
0.00268889
0.00268875
0.00268861
0.00268847
0.00268834
0.00268822
0.0026881
0.00268799
0.00268788
0.00268777
0.00268768
0.00268759
0.0026875
0.00268742
0.00268734
0.00268727
0.00268721
0.00268715
0.0026871
0.00268705
0.00268701
0.00268698
0.00268695
0.00268692
0.00268691
0.00268689
0.00268689
0.00268689
0.00268689
0.0026869
0.00268692
0.00268694
0.00268697
0.002687
0.00268704
0.00268709
0.00268714
0.00268719
0.00268725
0.00268732
0.00268739
0.00268747
0.00268756
0.00268765
0.00268774
0.00268784
0.00268795
0.00268806
0.00268817
0.00268829
0.00268842
0.00268856
0.00268869
0.00268884
0.00268899
0.00268914
0.0026893
0.00268947
0.00268964
0.00268981
0.00268999
0.00269018
0.00269037
0.00269056
0.00269076
0.00269097
0.00269118
0.00269139
0.00269161
0.00269184
0.00269206
0.0026923
0.00269253
0.00269278
0.00269302
0.00269328
0.00269353
0.00269379
0.00269406
0.00269433
0.0026946
0.00269488
0.00269516
0.00269545
0.00269574
0.00269603
0.00269633
0.00269664
0.00269694
0.00269726
0.00269757
0.00269789
0.00269821
0.00269854
0.00269887
0.00269921
0.00269955
0.00269989
0.00270023
0.00270058
0.00270094
0.00270129
0.00270165
0.00270202
0.00270238
0.00270275
0.00270313
0.0027035
0.00270388
0.00270427
0.00270465
0.00270504
0.00270543
0.00270583
0.00270623
0.00270663
0.00270704
0.00270745
0.00270786
0.00270827
0.00270869
0.00270911
0.00270953
0.00270997
0.00271038
0.00271083
0.00271124
0.00271171
0.0027121
0.00271261
0.00271295
0.00271354
0.00271381
0.00271449
0.00271468
0.00271549
0.0023359
0.00287975
0.00313656
0.00324156
0.0032732
0.00326541
0.00325092
0.00322779
0.00320281
0.00317867
0.00315591
0.00313478
0.00311523
0.00309714
0.00308044
0.00306496
0.00305056
0.00303712
0.00302454
0.00301274
0.00300162
0.00299114
0.00298124
0.00297187
0.002963
0.00295459
0.00294662
0.00293904
0.00293184
0.00292499
0.00291847
0.00291227
0.00290636
0.00290073
0.00289536
0.00289024
0.00288535
0.00288068
0.00287622
0.00287196
0.00286789
0.002864
0.00286027
0.00285671
0.0028533
0.00285003
0.00284691
0.00284391
0.00284104
0.00283829
0.00283565
0.00283312
0.0028307
0.00282838
0.00282613
0.00282398
0.00282192
0.00281994
0.00281804
0.00281621
0.00281445
0.00281275
0.00281112
0.00280954
0.00280802
0.00280656
0.00280515
0.00280378
0.00280247
0.00280119
0.00279996
0.00279876
0.00279761
0.00279649
0.0027954
0.00279435
0.00279332
0.00279232
0.00279136
0.00279042
0.0027895
0.00278861
0.00278774
0.00278689
0.00278606
0.00278526
0.00278447
0.00278369
0.00278294
0.0027822
0.00278148
0.00278078
0.00278009
0.00277941
0.00277874
0.00277809
0.00277745
0.00277682
0.00277621
0.0027756
0.002775
0.00277442
0.00277384
0.00277327
0.00277271
0.00277216
0.00277162
0.00277108
0.00277055
0.00277003
0.00276952
0.00276901
0.00276851
0.00276801
0.00276753
0.00276704
0.00276657
0.0027661
0.00276563
0.00276518
0.00276472
0.00276427
0.00276383
0.00276339
0.00276296
0.00276253
0.0027621
0.00276168
0.00276127
0.00276086
0.00276045
0.00276005
0.00275965
0.00275925
0.00275886
0.00275848
0.00275809
0.00275771
0.00275734
0.00275697
0.0027566
0.00275623
0.00275587
0.00275552
0.00275516
0.00275481
0.00275447
0.00275413
0.00275379
0.00275346
0.00275313
0.00275281
0.00275249
0.00275217
0.00275186
0.00275155
0.00275124
0.00275094
0.00275065
0.00275036
0.00275007
0.00274978
0.00274951
0.00274923
0.00274896
0.00274869
0.00274843
0.00274817
0.00274792
0.00274767
0.00274743
0.00274719
0.00274695
0.00274672
0.0027465
0.00274628
0.00274606
0.00274585
0.00274565
0.00274545
0.00274525
0.00274506
0.00274488
0.0027447
0.00274453
0.00274436
0.0027442
0.00274404
0.00274389
0.00274375
0.00274361
0.00274347
0.00274334
0.00274322
0.0027431
0.00274299
0.00274288
0.00274278
0.00274268
0.00274259
0.00274251
0.00274243
0.00274235
0.00274229
0.00274222
0.00274217
0.00274212
0.00274208
0.00274204
0.00274201
0.00274198
0.00274196
0.00274195
0.00274194
0.00274194
0.00274194
0.00274195
0.00274197
0.00274199
0.00274202
0.00274205
0.00274209
0.00274213
0.00274218
0.00274224
0.0027423
0.00274237
0.00274244
0.00274252
0.00274261
0.00274269
0.00274279
0.00274289
0.002743
0.00274311
0.00274323
0.00274335
0.00274348
0.00274361
0.00274375
0.0027439
0.00274405
0.00274421
0.00274437
0.00274454
0.00274471
0.00274489
0.00274507
0.00274526
0.00274545
0.00274565
0.00274586
0.00274607
0.00274628
0.0027465
0.00274672
0.00274695
0.00274718
0.00274742
0.00274766
0.00274791
0.00274816
0.00274841
0.00274867
0.00274894
0.00274921
0.00274948
0.00274976
0.00275004
0.00275033
0.00275062
0.00275092
0.00275122
0.00275153
0.00275184
0.00275215
0.00275247
0.00275279
0.00275312
0.00275345
0.00275378
0.00275412
0.00275446
0.00275481
0.00275516
0.00275551
0.00275587
0.00275623
0.00275659
0.00275696
0.00275733
0.0027577
0.00275808
0.00275846
0.00275885
0.00275924
0.00275963
0.00276002
0.00276042
0.00276082
0.00276122
0.00276163
0.00276204
0.00276246
0.00276287
0.0027633
0.00276371
0.00276415
0.00276457
0.00276502
0.00276543
0.00276591
0.00276629
0.00276681
0.00276715
0.00276774
0.00276803
0.00276867
0.00276894
0.00276967
0.001183
0.00148053
0.00176955
0.00201212
0.00219555
0.0023223
0.00240879
0.00246592
0.0025027
0.00252575
0.00253967
0.00254758
0.00255162
0.00255313
0.00255301
0.00255183
0.00255
0.00254779
0.00254535
0.00254281
0.00254025
0.00253772
0.00253524
0.00253286
0.00253056
0.00252837
0.00252628
0.00252429
0.0025224
0.00252061
0.00251891
0.00251729
0.00251576
0.00251431
0.00251292
0.00251161
0.00251036
0.00250918
0.00250805
0.00250697
0.00250595
0.00250498
0.00250405
0.00250317
0.00250232
0.00250151
0.00250074
0.00249999
0.00249928
0.00249858
0.00249792
0.00249727
0.00249665
0.00249604
0.00249545
0.00249486
0.0024943
0.00249374
0.0024932
0.00249266
0.00249213
0.0024916
0.00249108
0.00249057
0.00249006
0.00248955
0.00248904
0.00248854
0.00248804
0.00248754
0.00248705
0.00248655
0.00248605
0.00248556
0.00248506
0.00248457
0.00248408
0.00248358
0.00248309
0.0024826
0.00248211
0.00248161
0.00248112
0.00248063
0.00248014
0.00247965
0.00247917
0.00247868
0.0024782
0.00247772
0.00247724
0.00247676
0.00247629
0.00247581
0.00247534
0.00247488
0.00247441
0.00247395
0.00247349
0.00247303
0.00247257
0.00247212
0.00247167
0.00247122
0.00247078
0.00247033
0.00246989
0.00246946
0.00246902
0.00246859
0.00246816
0.00246773
0.00246731
0.00246688
0.00246647
0.00246605
0.00246564
0.00246523
0.00246482
0.00246442
0.00246401
0.00246362
0.00246322
0.00246283
0.00246244
0.00246206
0.00246168
0.0024613
0.00246092
0.00246055
0.00246018
0.00245981
0.00245945
0.00245909
0.00245873
0.00245838
0.00245803
0.00245768
0.00245733
0.00245699
0.00245665
0.00245631
0.00245598
0.00245565
0.00245532
0.00245499
0.00245467
0.00245435
0.00245404
0.00245373
0.00245342
0.00245312
0.00245282
0.00245252
0.00245223
0.00245194
0.00245165
0.00245137
0.00245109
0.00245082
0.00245055
0.00245028
0.00245002
0.00244976
0.00244951
0.00244926
0.00244901
0.00244876
0.00244853
0.00244829
0.00244806
0.00244783
0.00244761
0.00244739
0.00244717
0.00244696
0.00244676
0.00244655
0.00244636
0.00244616
0.00244598
0.00244579
0.00244562
0.00244544
0.00244528
0.00244511
0.00244496
0.0024448
0.00244466
0.00244451
0.00244438
0.00244424
0.00244412
0.00244399
0.00244388
0.00244376
0.00244366
0.00244355
0.00244345
0.00244336
0.00244327
0.00244319
0.00244311
0.00244304
0.00244297
0.00244291
0.00244285
0.0024428
0.00244275
0.00244271
0.00244268
0.00244265
0.00244262
0.0024426
0.00244259
0.00244258
0.00244258
0.00244258
0.00244259
0.0024426
0.00244262
0.00244265
0.00244268
0.00244271
0.00244275
0.0024428
0.00244285
0.0024429
0.00244296
0.00244302
0.00244309
0.00244317
0.00244325
0.00244333
0.00244342
0.00244352
0.00244361
0.00244372
0.00244383
0.00244394
0.00244406
0.00244418
0.00244431
0.00244445
0.00244458
0.00244473
0.00244488
0.00244503
0.00244519
0.00244535
0.00244552
0.00244569
0.00244587
0.00244605
0.00244624
0.00244643
0.00244662
0.00244682
0.00244703
0.00244723
0.00244744
0.00244766
0.00244788
0.0024481
0.00244833
0.00244856
0.0024488
0.00244903
0.00244928
0.00244953
0.00244978
0.00245003
0.00245029
0.00245055
0.00245082
0.00245109
0.00245137
0.00245165
0.00245193
0.00245222
0.00245251
0.0024528
0.0024531
0.0024534
0.0024537
0.00245401
0.00245432
0.00245464
0.00245495
0.00245527
0.0024556
0.00245592
0.00245625
0.00245659
0.00245692
0.00245726
0.0024576
0.00245794
0.00245829
0.00245864
0.00245899
0.00245935
0.00245971
0.00246007
0.00246043
0.0024608
0.00246117
0.00246155
0.00246191
0.00246231
0.00246267
0.00246309
0.00246342
0.00246388
0.00246419
0.00246469
0.00246496
0.00246549
0.00246577
0.0024664
0.000451562
0.000524409
0.000625913
0.000751396
0.000888587
0.0010224
0.00114674
0.00125897
0.00135827
0.00144485
0.00151969
0.00158402
0.0016393
0.0016868
0.0017277
0.00176302
0.00179368
0.00182044
0.00184391
0.00186464
0.00188305
0.00189949
0.00191427
0.00192761
0.00193973
0.00195078
0.00196091
0.00197021
0.00197878
0.00198672
0.00199409
0.00200096
0.00200738
0.00201339
0.00201904
0.00202436
0.00202939
0.00203414
0.00203864
0.0020429
0.00204695
0.0020508
0.00205446
0.00205794
0.00206125
0.0020644
0.00206739
0.00207024
0.00207295
0.00207552
0.00207795
0.00208027
0.00208245
0.00208452
0.00208647
0.00208831
0.00209004
0.00209166
0.00209319
0.00209461
0.00209594
0.00209718
0.00209833
0.0020994
0.00210038
0.00210129
0.00210212
0.00210288
0.00210358
0.00210421
0.00210478
0.00210529
0.00210574
0.00210614
0.00210649
0.00210679
0.00210705
0.00210727
0.00210744
0.00210758
0.00210768
0.00210774
0.00210778
0.00210778
0.00210775
0.0021077
0.00210763
0.00210753
0.00210741
0.00210727
0.00210711
0.00210693
0.00210673
0.00210653
0.0021063
0.00210607
0.00210583
0.00210557
0.00210531
0.00210503
0.00210475
0.00210446
0.00210417
0.00210386
0.00210356
0.00210324
0.00210293
0.0021026
0.00210228
0.00210195
0.00210162
0.00210128
0.00210094
0.0021006
0.00210026
0.00209991
0.00209957
0.00209922
0.00209887
0.00209853
0.00209818
0.00209783
0.00209749
0.00209714
0.00209679
0.00209645
0.00209611
0.00209577
0.00209543
0.00209509
0.00209475
0.00209442
0.00209409
0.00209376
0.00209343
0.0020931
0.00209277
0.00209245
0.00209213
0.00209181
0.00209149
0.00209117
0.00209086
0.00209055
0.00209024
0.00208993
0.00208962
0.00208932
0.00208902
0.00208872
0.00208843
0.00208814
0.00208785
0.00208756
0.00208728
0.002087
0.00208673
0.00208646
0.00208619
0.00208593
0.00208567
0.00208541
0.00208516
0.00208491
0.00208466
0.00208442
0.00208418
0.00208395
0.00208371
0.00208349
0.00208326
0.00208304
0.00208282
0.00208261
0.0020824
0.00208219
0.00208199
0.00208179
0.00208159
0.0020814
0.00208122
0.00208103
0.00208086
0.00208068
0.00208052
0.00208035
0.00208019
0.00208004
0.00207989
0.00207975
0.00207961
0.00207947
0.00207934
0.00207922
0.0020791
0.00207898
0.00207887
0.00207876
0.00207866
0.00207856
0.00207847
0.00207838
0.00207829
0.00207821
0.00207814
0.00207806
0.002078
0.00207793
0.00207788
0.00207782
0.00207777
0.00207773
0.00207769
0.00207766
0.00207763
0.0020776
0.00207759
0.00207757
0.00207756
0.00207756
0.00207756
0.00207757
0.00207758
0.0020776
0.00207762
0.00207764
0.00207767
0.00207771
0.00207775
0.00207779
0.00207784
0.00207789
0.00207794
0.002078
0.00207807
0.00207814
0.00207821
0.00207828
0.00207837
0.00207845
0.00207854
0.00207863
0.00207873
0.00207883
0.00207894
0.00207905
0.00207917
0.00207929
0.00207942
0.00207954
0.00207968
0.00207982
0.00207996
0.00208011
0.00208026
0.00208041
0.00208057
0.00208073
0.0020809
0.00208107
0.00208124
0.00208141
0.00208159
0.00208178
0.00208196
0.00208215
0.00208235
0.00208254
0.00208274
0.00208294
0.00208315
0.00208336
0.00208357
0.00208379
0.00208401
0.00208423
0.00208446
0.00208469
0.00208492
0.00208516
0.0020854
0.00208564
0.00208589
0.00208614
0.0020864
0.00208665
0.00208691
0.00208718
0.00208744
0.00208771
0.00208798
0.00208825
0.00208853
0.00208881
0.00208909
0.00208937
0.00208966
0.00208994
0.00209023
0.00209053
0.00209082
0.00209112
0.00209141
0.00209172
0.00209202
0.00209234
0.00209263
0.00209296
0.00209325
0.0020936
0.00209388
0.00209425
0.00209452
0.00209491
0.00209516
0.00209559
0.00209582
0.00209626
0.00209651
0.00209703
0.000141368
0.000156162
0.000174537
0.000199607
0.000234213
0.000276955
0.000325988
0.000379702
0.000436514
0.000494804
0.000553253
0.000610878
0.000667
0.000721162
0.00077306
0.000822543
0.000869521
0.000913996
0.000956003
0.000995628
0.00103297
0.00106814
0.00110127
0.00113249
0.00116192
0.00118968
0.00121587
0.00124064
0.00126407
0.00128625
0.00130725
0.00132715
0.00134601
0.00136388
0.00138083
0.0013969
0.00141214
0.00142659
0.0014403
0.00145329
0.0014656
0.00147727
0.00148832
0.00149878
0.00150869
0.00151805
0.00152691
0.00153528
0.00154318
0.00155064
0.00155767
0.0015643
0.00157054
0.00157641
0.00158193
0.00158712
0.00159199
0.00159655
0.00160083
0.00160483
0.00160857
0.00161206
0.00161532
0.00161835
0.00162117
0.0016238
0.00162623
0.00162849
0.00163058
0.00163251
0.00163429
0.00163593
0.00163744
0.00163882
0.00164009
0.00164125
0.0016423
0.00164326
0.00164412
0.0016449
0.00164559
0.00164621
0.00164676
0.00164725
0.00164766
0.00164802
0.00164832
0.00164857
0.00164877
0.00164893
0.00164905
0.00164912
0.00164916
0.00164917
0.00164915
0.0016491
0.00164902
0.00164892
0.00164879
0.00164865
0.00164848
0.0016483
0.00164811
0.00164789
0.00164767
0.00164743
0.00164718
0.00164691
0.00164664
0.00164636
0.00164607
0.00164577
0.00164546
0.00164515
0.00164483
0.00164451
0.00164418
0.00164384
0.0016435
0.00164316
0.00164281
0.00164247
0.00164212
0.00164177
0.00164141
0.00164106
0.00164071
0.00164035
0.00164
0.00163964
0.00163929
0.00163894
0.00163859
0.00163824
0.00163789
0.00163754
0.00163719
0.00163685
0.0016365
0.00163616
0.00163582
0.00163548
0.00163514
0.0016348
0.00163446
0.00163413
0.0016338
0.00163347
0.00163314
0.00163281
0.00163249
0.00163217
0.00163185
0.00163154
0.00163123
0.00163092
0.00163061
0.00163031
0.00163002
0.00162972
0.00162943
0.00162915
0.00162886
0.00162858
0.00162831
0.00162804
0.00162777
0.00162751
0.00162725
0.00162699
0.00162674
0.00162649
0.00162624
0.001626
0.00162576
0.00162552
0.00162529
0.00162506
0.00162484
0.00162462
0.0016244
0.00162419
0.00162399
0.00162378
0.00162358
0.00162339
0.0016232
0.00162302
0.00162284
0.00162266
0.00162249
0.00162233
0.00162217
0.00162201
0.00162186
0.00162172
0.00162158
0.00162144
0.00162131
0.00162118
0.00162106
0.00162094
0.00162082
0.00162071
0.00162061
0.0016205
0.00162041
0.00162031
0.00162022
0.00162014
0.00162006
0.00161998
0.00161991
0.00161984
0.00161978
0.00161972
0.00161967
0.00161962
0.00161957
0.00161954
0.0016195
0.00161947
0.00161945
0.00161943
0.00161942
0.00161941
0.0016194
0.0016194
0.0016194
0.00161941
0.00161942
0.00161943
0.00161945
0.00161947
0.0016195
0.00161953
0.00161956
0.0016196
0.00161964
0.00161969
0.00161973
0.00161979
0.00161984
0.0016199
0.00161997
0.00162003
0.00162011
0.00162018
0.00162026
0.00162035
0.00162043
0.00162053
0.00162062
0.00162072
0.00162082
0.00162093
0.00162104
0.00162116
0.00162127
0.0016214
0.00162152
0.00162165
0.00162178
0.00162191
0.00162205
0.00162219
0.00162233
0.00162247
0.00162262
0.00162277
0.00162292
0.00162307
0.00162323
0.00162339
0.00162356
0.00162372
0.00162389
0.00162406
0.00162424
0.00162442
0.0016246
0.00162478
0.00162497
0.00162516
0.00162535
0.00162555
0.00162575
0.00162595
0.00162615
0.00162636
0.00162657
0.00162678
0.00162699
0.00162721
0.00162742
0.00162764
0.00162786
0.00162809
0.0016283
0.00162854
0.00162876
0.00162899
0.00162921
0.00162946
0.00162968
0.00162994
0.00163015
0.00163042
0.00163063
0.00163091
0.00163111
0.00163142
0.0016316
0.00163193
0.0016321
0.00163245
0.00163262
0.00163296
0.00163316
0.00163357
3.67395e-05
3.95264e-05
4.25746e-05
4.60503e-05
5.04755e-05
5.62531e-05
6.36605e-05
7.30402e-05
8.4588e-05
9.83842e-05
0.000114316
0.000132231
0.000151903
0.000173139
0.00019566
0.000219288
0.000243796
0.000269003
0.000294711
0.000320766
0.00034701
0.000373326
0.000399576
0.000425667
0.000451501
0.000476998
0.000502085
0.000526705
0.000550803
0.000574339
0.000597265
0.000619552
0.000641176
0.000662111
0.00068234
0.000701854
0.000720645
0.000738707
0.000756041
0.000772647
0.000788534
0.000803711
0.000818189
0.000831984
0.00084511
0.000857584
0.000869426
0.000880654
0.000891288