/*--------------------------------*- C++ -*----------------------------------*\
  =========                 |
  \\      /  F ield         | OpenFOAM: The Open Source CFD Toolbox
   \\    /   O peration     | Website:  https://openfoam.org
    \\  /    A nd           | Version:  7
     \\/     M anipulation  |
\*---------------------------------------------------------------------------*/
FoamFile
{
    version     2.0;
    format      ascii;
    class       volScalarField;
    location    "0.6";
    object      rho;
}
// * * * * * * * * * * * * * * * * * * * * * * * * * * * * * * * * * * * * * //

dimensions      [1 -3 0 0 0 0 0];

internalField   nonuniform List<scalar> 
2640
(
1.32702
1.31761
1.31431
1.31278
1.31195
1.31141
1.31103
1.31074
1.31049
1.31028
1.31009
1.30993
1.30976
1.30962
1.30947
1.30934
1.30921
1.30904
1.30892
1.30746
1.35972
1.33848
1.3275
1.32239
1.31963
1.31794
1.31678
1.31593
1.31525
1.31469
1.3142
1.31379
1.31339
1.31306
1.31273
1.31242
1.31217
1.31174
1.31165
1.30745
1.3917
1.37411
1.35335
1.34196
1.33555
1.33156
1.32882
1.32682
1.32523
1.32396
1.32284
1.32192
1.32104
1.3203
1.31957
1.31892
1.3184
1.31745
1.31783
1.30955
1.41245
1.41679
1.39728
1.37949
1.3675
1.35951
1.35382
1.34959
1.34618
1.34346
1.34102
1.33905
1.3371
1.33557
1.33394
1.33259
1.33145
1.32948
1.33078
1.31933
1.42273
1.44543
1.44174
1.43066
1.41905
1.4088
1.40002
1.39288
1.38668
1.38165
1.37691
1.37315
1.36918
1.36626
1.36275
1.36033
1.35739
1.35479
1.35348
1.34599
1.42675
1.45763
1.46344
1.46138
1.45662
1.45106
1.44489
1.43902
1.43286
1.42751
1.42161
1.41706
1.41129
1.40776
1.40173
1.39966
1.39262
1.39295
1.38344
1.38377
1.42675
1.45763
1.46344
1.46138
1.45662
1.45105
1.44489
1.43901
1.43287
1.4275
1.42164
1.41703
1.41134
1.40769
1.40184
1.39951
1.39285
1.39267
1.38387
1.38327
1.42273
1.44543
1.44174
1.43066
1.41905
1.4088
1.40002
1.39287
1.38669
1.38164
1.37693
1.37312
1.36924
1.36618
1.36289
1.36013
1.35774
1.35428
1.35438
1.34469
1.41245
1.41679
1.39728
1.37949
1.3675
1.35951
1.35382
1.34959
1.34618
1.34345
1.34103
1.33904
1.33712
1.33553
1.334
1.3325
1.33161
1.32921
1.33133
1.31823
1.3917
1.37411
1.35335
1.34196
1.33555
1.33156
1.32882
1.32682
1.32524
1.32396
1.32285
1.32192
1.32105
1.32029
1.31959
1.31889
1.31846
1.31735
1.31804
1.30937
1.35972
1.33847
1.3275
1.32239
1.31964
1.31794
1.31678
1.31593
1.31525
1.31469
1.3142
1.31378
1.3134
1.31305
1.31273
1.31241
1.31218
1.31171
1.31173
1.30785
1.32702
1.31761
1.31431
1.31278
1.31195
1.31141
1.31103
1.31074
1.31049
1.31028
1.31009
1.30992
1.30976
1.30962
1.30947
1.30933
1.30921
1.30904
1.30895
1.30783
1.32702
1.31761
1.31431
1.31278
1.31195
1.31141
1.31103
1.31074
1.31049
1.31028
1.31009
1.30993
1.30976
1.30962
1.30947
1.30934
1.30921
1.30904
1.30892
1.30746
1.35972
1.33848
1.3275
1.32239
1.31964
1.31794
1.31678
1.31593
1.31525
1.31469
1.3142
1.31379
1.31339
1.31306
1.31273
1.31242
1.31217
1.31174
1.31165
1.30745
1.3917
1.37411
1.35335
1.34196
1.33555
1.33156
1.32882
1.32682
1.32523
1.32396
1.32284
1.32192
1.32104
1.32031
1.31957
1.31892
1.3184
1.31745
1.31783
1.30955
1.41245
1.41679
1.39728
1.37949
1.3675
1.35951
1.35382
1.34959
1.34618
1.34346
1.34102
1.33905
1.3371
1.33557
1.33394
1.33259
1.33145
1.32948
1.33078
1.31933
1.42273
1.44543
1.44174
1.43066
1.41905
1.4088
1.40002
1.39288
1.38668
1.38165
1.37691
1.37315
1.36918
1.36626
1.36275
1.36033
1.35739
1.35479
1.35348
1.34599
1.42675
1.45763
1.46344
1.46138
1.45662
1.45105
1.44489
1.43902
1.43286
1.42751
1.42161
1.41706
1.41129
1.40776
1.40173
1.39966
1.39262
1.39295
1.38344
1.38377
1.42675
1.45763
1.46344
1.46138
1.45662
1.45105
1.44489
1.43901
1.43287
1.4275
1.42164
1.41703
1.41134
1.40769
1.40184
1.39951
1.39285
1.39267
1.38387
1.38327
1.42273
1.44543
1.44174
1.43066
1.41905
1.40879
1.40002
1.39287
1.38669
1.38164
1.37693
1.37312
1.36924
1.36618
1.36289
1.36013
1.35774
1.35428
1.35438
1.34469
1.41245
1.41679
1.39728
1.37949
1.3675
1.35951
1.35382
1.34959
1.34618
1.34345
1.34103
1.33904
1.33712
1.33553
1.334
1.3325
1.33161
1.32921
1.33132
1.31822
1.3917
1.37411
1.35335
1.34196
1.33555
1.33156
1.32882
1.32682
1.32524
1.32396
1.32285
1.32192
1.32105
1.32029
1.31959
1.31889
1.31846
1.31735
1.31804
1.30937
1.35972
1.33847
1.3275
1.32239
1.31964
1.31794
1.31678
1.31593
1.31525
1.31469
1.3142
1.31378
1.3134
1.31305
1.31273
1.31241
1.31218
1.31171
1.31173
1.30785
1.32702
1.31761
1.31431
1.31278
1.31195
1.31141
1.31103
1.31074
1.31049
1.31028
1.31009
1.30992
1.30976
1.30962
1.30947
1.30933
1.30921
1.30904
1.30895
1.30783
1.28881
1.28748
1.28456
1.28128
1.27841
1.2758
1.27335
1.27096
1.26864
1.26649
1.26458
1.26297
1.26161
1.26046
1.25945
1.25851
1.25762
1.25674
1.25587
1.25501
1.25414
1.25327
1.25241
1.25154
1.25068
1.24981
1.24895
1.24808
1.24722
1.24636
1.2455
1.24463
1.24377
1.24291
1.24205
1.24119
1.24033
1.23947
1.23862
1.23776
1.2369
1.23604
1.23519
1.23433
1.23348
1.23262
1.23177
1.23091
1.23006
1.22921
1.22835
1.2275
1.22665
1.2258
1.22495
1.2241
1.22325
1.2224
1.22155
1.2207
1.21985
1.219
1.21815
1.2173
1.21645
1.21561
1.21476
1.21391
1.21306
1.21222
1.21137
1.21053
1.20968
1.20883
1.20799
1.20714
1.2063
1.20546
1.20461
1.20377
1.20292
1.20208
1.20123
1.20039
1.19954
1.19871
1.19784
1.19707
1.19605
1.1948
1.28973
1.28848
1.28553
1.28225
1.27937
1.27677
1.27433
1.27194
1.26963
1.26747
1.26557
1.26395
1.26259
1.26144
1.26042
1.25949
1.25859
1.25772
1.25685
1.25598
1.25511
1.25425
1.25338
1.25252
1.25165
1.25078
1.24992
1.24906
1.24819
1.24733
1.24647
1.24561
1.24474
1.24388
1.24302
1.24216
1.2413
1.24045
1.23959
1.23873
1.23787
1.23702
1.23616
1.2353
1.23445
1.23359
1.23274
1.23188
1.23103
1.23018
1.22932
1.22847
1.22762
1.22677
1.22592
1.22506
1.22421
1.22336
1.22251
1.22166
1.22081
1.21997
1.21912
1.21827
1.21742
1.21657
1.21573
1.21488
1.21403
1.21319
1.21234
1.21149
1.21065
1.2098
1.20896
1.20811
1.20727
1.20642
1.20558
1.20473
1.20389
1.20304
1.2022
1.20136
1.20051
1.19968
1.1988
1.19804
1.19701
1.19576
1.29154
1.29006
1.28701
1.2837
1.28084
1.27825
1.27582
1.27345
1.27115
1.26901
1.2671
1.26548
1.26412
1.26296
1.26194
1.261
1.26011
1.25923
1.25836
1.2575
1.25663
1.25576
1.2549
1.25403
1.25316
1.2523
1.25143
1.25057
1.24971
1.24884
1.24798
1.24712
1.24626
1.24539
1.24453
1.24367
1.24281
1.24195
1.2411
1.24024
1.23938
1.23852
1.23767
1.23681
1.23595
1.2351
1.23424
1.23339
1.23253
1.23168
1.23083
1.22997
1.22912
1.22827
1.22742
1.22657
1.22572
1.22487
1.22401
1.22316
1.22231
1.22147
1.22062
1.21977
1.21892
1.21807
1.21722
1.21638
1.21553
1.21468
1.21383
1.21299
1.21214
1.2113
1.21045
1.2096
1.20876
1.20791
1.20707
1.20622
1.20538
1.20454
1.20369
1.20285
1.202
1.20117
1.20029
1.19954
1.1985
1.19723
1.2959
1.29252
1.28916
1.28583
1.28299
1.28044
1.27806
1.27574
1.27348
1.27136
1.26947
1.26784
1.26648
1.26532
1.26429
1.26335
1.26245
1.26158
1.2607
1.25984
1.25897
1.2581
1.25723
1.25637
1.2555
1.25464
1.25377
1.2529
1.25204
1.25118
1.25031
1.24945
1.24859
1.24772
1.24686
1.246
1.24514
1.24428
1.24342
1.24256
1.2417
1.24085
1.23999
1.23913
1.23827
1.23742
1.23656
1.23571
1.23485
1.234
1.23314
1.23229
1.23144
1.23058
1.22973
1.22888
1.22803
1.22717
1.22632
1.22547
1.22462
1.22377
1.22292
1.22207
1.22122
1.22037
1.21952
1.21868
1.21783
1.21698
1.21613
1.21528
1.21444
1.21359
1.21274
1.2119
1.21105
1.2102
1.20936
1.20851
1.20767
1.20682
1.20597
1.20513
1.20428
1.20345
1.20256
1.20182
1.20076
1.19947
1.30551
1.29622
1.29211
1.28878
1.28602
1.28356
1.28129
1.27907
1.2769
1.27485
1.273
1.2714
1.27004
1.26888
1.26785
1.26691
1.26601
1.26513
1.26426
1.26339
1.26252
1.26165
1.26078
1.25991
1.25904
1.25818
1.25731
1.25644
1.25558
1.25471
1.25384
1.25298
1.25212
1.25125
1.25039
1.24953
1.24866
1.2478
1.24694
1.24608
1.24522
1.24436
1.2435
1.24264
1.24178
1.24092
1.24007
1.23921
1.23835
1.2375
1.23664
1.23578
1.23493
1.23407
1.23322
1.23237
1.23151
1.23066
1.22981
1.22895
1.2281
1.22725
1.2264
1.22554
1.22469
1.22384
1.22299
1.22214
1.22129
1.22044
1.21959
1.21874
1.21789
1.21704
1.21619
1.21535
1.2145
1.21365
1.2128
1.21195
1.21111
1.21026
1.20941
1.20857
1.20771
1.20689
1.20599
1.20526
1.20415
1.20285
1.31975
1.3011
1.29596
1.29273
1.29018
1.28794
1.28588
1.28386
1.28189
1.28
1.27827
1.27675
1.27543
1.27429
1.27327
1.27233
1.27142
1.27054
1.26966
1.26879
1.26792
1.26705
1.26618
1.2653
1.26443
1.26356
1.26269
1.26182
1.26095
1.26009
1.25922
1.25835
1.25748
1.25662
1.25575
1.25488
1.25402
1.25315
1.25229
1.25143
1.25056
1.2497
1.24884
1.24797
1.24711
1.24625
1.24539
1.24453
1.24367
1.24281
1.24195
1.24109
1.24023
1.23937
1.23852
1.23766
1.2368
1.23594
1.23509
1.23423
1.23337
1.23252
1.23166
1.23081
1.22995
1.2291
1.22824
1.22739
1.22654
1.22568
1.22483
1.22398
1.22312
1.22227
1.22142
1.22057
1.21971
1.21886
1.21801
1.21716
1.21631
1.21546
1.21461
1.21376
1.2129
1.21207
1.21116
1.21045
1.20926
1.20798
1.32171
1.30443
1.2998
1.29701
1.29486
1.29297
1.29123
1.28954
1.28786
1.28623
1.28471
1.28334
1.28212
1.28103
1.28004
1.27911
1.2782
1.27732
1.27644
1.27556
1.27469
1.27381
1.27293
1.27206
1.27118
1.27031
1.26944
1.26856
1.26769
1.26682
1.26594
1.26507
1.2642
1.26333
1.26246
1.26159
1.26072
1.25985
1.25898
1.25811
1.25724
1.25638
1.25551
1.25464
1.25377
1.25291
1.25204
1.25118
1.25031
1.24945
1.24858
1.24772
1.24685
1.24599
1.24513
1.24427
1.2434
1.24254
1.24168
1.24082
1.23996
1.2391
1.23824
1.23737
1.23651
1.23565
1.2348
1.23394
1.23308
1.23222
1.23136
1.2305
1.22964
1.22879
1.22793
1.22707
1.22621
1.22536
1.2245
1.22364
1.22278
1.22193
1.22107
1.22022
1.21935
1.21852
1.21761
1.21688
1.21569
1.2145
1.31171
1.30519
1.30227
1.30006
1.29833
1.29677
1.29533
1.29391
1.2925
1.29112
1.2898
1.28858
1.28747
1.28645
1.28549
1.28457
1.28367
1.28278
1.2819
1.28102
1.28014
1.27926
1.27838
1.2775
1.27662
1.27574
1.27487
1.27399
1.27311
1.27224
1.27136
1.27048
1.26961
1.26873
1.26786
1.26698
1.26611
1.26524
1.26436
1.26349
1.26262
1.26175
1.26088
1.26001
1.25913
1.25826
1.25739
1.25652
1.25565
1.25479
1.25392
1.25305
1.25218
1.25131
1.25045
1.24958
1.24871
1.24785
1.24698
1.24611
1.24525
1.24438
1.24352
1.24265
1.24179
1.24092
1.24006
1.23919
1.23833
1.23747
1.2366
1.23574
1.23488
1.23401
1.23315
1.23229
1.23143
1.23057
1.2297
1.22884
1.22798
1.22712
1.22626
1.2254
1.22453
1.22369
1.22279
1.22202
1.22092
1.21984
1.30617
1.30555
1.30373
1.30201
1.3006
1.2993
1.29806
1.29685
1.29564
1.29444
1.29329
1.29219
1.29116
1.29019
1.28925
1.28834
1.28745
1.28656
1.28568
1.2848
1.28391
1.28303
1.28215
1.28127
1.28039
1.2795
1.27862
1.27774
1.27686
1.27598
1.27511
1.27423
1.27335
1.27247
1.27159
1.27072
1.26984
1.26896
1.26809
1.26721
1.26634
1.26546
1.26459
1.26371
1.26284
1.26197
1.26109
1.26022
1.25935
1.25848
1.2576
1.25673
1.25586
1.25499
1.25412
1.25325
1.25238
1.25151
1.25064
1.24977
1.2489
1.24803
1.24716
1.24629
1.24543
1.24456
1.24369
1.24282
1.24196
1.24109
1.24022
1.23936
1.23849
1.23762
1.23676
1.23589
1.23503
1.23416
1.23329
1.23243
1.23156
1.2307
1.22983
1.22897
1.2281
1.22725
1.22636
1.22555
1.22454
1.22355
1.30531
1.30595
1.30467
1.3033
1.30212
1.30099
1.29991
1.29884
1.29777
1.2967
1.29566
1.29466
1.29369
1.29275
1.29184
1.29094
1.29004
1.28916
1.28827
1.28738
1.2865
1.28562
1.28473
1.28385
1.28297
1.28208
1.2812
1.28032
1.27944
1.27856
1.27767
1.27679
1.27591
1.27503
1.27415
1.27328
1.2724
1.27152
1.27064
1.26976
1.26889
1.26801
1.26713
1.26626
1.26538
1.2645
1.26363
1.26275
1.26188
1.261
1.26013
1.25926
1.25838
1.25751
1.25664
1.25576
1.25489
1.25402
1.25315
1.25227
1.2514
1.25053
1.24966
1.24879
1.24792
1.24705
1.24618
1.24531
1.24444
1.24357
1.2427
1.24183
1.24096
1.24009
1.23922
1.23836
1.23749
1.23662
1.23575
1.23488
1.23402
1.23315
1.23228
1.23141
1.23055
1.22968
1.2288
1.22797
1.22702
1.22608
1.30619
1.3063
1.30528
1.30415
1.30312
1.30211
1.30113
1.30015
1.29918
1.2982
1.29724
1.29629
1.29536
1.29445
1.29355
1.29266
1.29177
1.29088
1.28999
1.2891
1.28822
1.28733
1.28645
1.28556
1.28468
1.28379
1.28291
1.28203
1.28114
1.28026
1.27938
1.2785
1.27762
1.27673
1.27585
1.27497
1.27409
1.27321
1.27233
1.27145
1.27058
1.2697
1.26882
1.26794
1.26706
1.26619
1.26531
1.26443
1.26356
1.26268
1.2618
1.26093
1.26005
1.25918
1.2583
1.25743
1.25656
1.25568
1.25481
1.25393
1.25306
1.25219
1.25132
1.25044
1.24957
1.2487
1.24783
1.24696
1.24608
1.24521
1.24434
1.24347
1.2426
1.24173
1.24086
1.23999
1.23912
1.23825
1.23738
1.23651
1.23564
1.23477
1.2339
1.23303
1.23216
1.2313
1.23042
1.22957
1.22866
1.22776
1.30721
1.30655
1.30568
1.3047
1.30378
1.30285
1.30193
1.30101
1.3001
1.29918
1.29827
1.29736
1.29646
1.29557
1.29467
1.29378
1.29289
1.29201
1.29112
1.29023
1.28934
1.28846
1.28757
1.28669
1.2858
1.28492
1.28403
1.28315
1.28226
1.28138
1.2805
1.27961
1.27873
1.27785
1.27697
1.27609
1.27521
1.27432
1.27344
1.27256
1.27168
1.2708
1.26993
1.26905
1.26817
1.26729
1.26641
1.26553
1.26466
1.26378
1.2629
1.26203
1.26115
1.26027
1.2594
1.25852
1.25765
1.25677
1.2559
1.25502
1.25415
1.25327
1.2524
1.25153
1.25065
1.24978
1.24891
1.24803
1.24716
1.24629
1.24542
1.24455
1.24367
1.2428
1.24193
1.24106
1.24019
1.23932
1.23845
1.23758
1.2367
1.23583
1.23496
1.23409
1.23322
1.23235
1.23148
1.23062
1.22974
1.22886
1.28881
1.28748
1.28456
1.28128
1.27841
1.2758
1.27335
1.27096
1.26864
1.26649
1.26458
1.26297
1.26161
1.26046
1.25945
1.25851
1.25762
1.25674
1.25587
1.25501
1.25414
1.25327
1.25241
1.25154
1.25068
1.24981
1.24895
1.24808
1.24722
1.24636
1.2455
1.24463
1.24377
1.24291
1.24205
1.24119
1.24033
1.23947
1.23862
1.23776
1.2369
1.23604
1.23519
1.23433
1.23348
1.23262
1.23177
1.23091
1.23006
1.22921
1.22835
1.2275
1.22665
1.2258
1.22495
1.2241
1.22325
1.2224
1.22155
1.2207
1.21985
1.219
1.21815
1.2173
1.21645
1.21561
1.21476
1.21391
1.21306
1.21222
1.21137
1.21053
1.20968
1.20883
1.20799
1.20714
1.2063
1.20546
1.20461
1.20377
1.20292
1.20208
1.20123
1.20039
1.19954
1.19871
1.19784
1.19707
1.19605
1.1948
1.28973
1.28848
1.28553
1.28225
1.27937
1.27677
1.27433
1.27194
1.26963
1.26747
1.26557
1.26395
1.26259
1.26144
1.26042
1.25949
1.25859
1.25772
1.25685
1.25598
1.25511
1.25425
1.25338
1.25252
1.25165
1.25079
1.24992
1.24906
1.24819
1.24733
1.24647
1.24561
1.24474
1.24388
1.24302
1.24216
1.2413
1.24045
1.23959
1.23873
1.23787
1.23702
1.23616
1.2353
1.23445
1.23359
1.23274
1.23188
1.23103
1.23018
1.22932
1.22847
1.22762
1.22677
1.22592
1.22506
1.22421
1.22336
1.22251
1.22166
1.22081
1.21997
1.21912
1.21827
1.21742
1.21657
1.21573
1.21488
1.21403
1.21319
1.21234
1.21149
1.21065
1.2098
1.20896
1.20811
1.20727
1.20642
1.20558
1.20473
1.20389
1.20304
1.2022
1.20136
1.20051
1.19968
1.1988
1.19804
1.19701
1.19576
1.29154
1.29006
1.28701
1.2837
1.28084
1.27825
1.27582
1.27345
1.27115
1.26901
1.2671
1.26548
1.26412
1.26296
1.26194
1.261
1.26011
1.25923
1.25836
1.2575
1.25663
1.25576
1.2549
1.25403
1.25316
1.2523
1.25143
1.25057
1.24971
1.24884
1.24798
1.24712
1.24626
1.24539
1.24453
1.24367
1.24281
1.24196
1.2411
1.24024
1.23938
1.23852
1.23767
1.23681
1.23595
1.2351
1.23424
1.23339
1.23253
1.23168
1.23083
1.22997
1.22912
1.22827
1.22742
1.22657
1.22572
1.22487
1.22401
1.22316
1.22231
1.22147
1.22062
1.21977
1.21892
1.21807
1.21722
1.21638
1.21553
1.21468
1.21383
1.21299
1.21214
1.2113
1.21045
1.2096
1.20876
1.20791
1.20707
1.20622
1.20538
1.20454
1.20369
1.20285
1.202
1.20117
1.20029
1.19954
1.1985
1.19723
1.2959
1.29252
1.28916
1.28583
1.28299
1.28044
1.27806
1.27574
1.27348
1.27136
1.26947
1.26785
1.26648
1.26532
1.26429
1.26335
1.26245
1.26158
1.26071
1.25984
1.25897
1.2581
1.25724
1.25637
1.2555
1.25464
1.25377
1.2529
1.25204
1.25118
1.25031
1.24945
1.24859
1.24772
1.24686
1.246
1.24514
1.24428
1.24342
1.24256
1.2417
1.24085
1.23999
1.23913
1.23827
1.23742
1.23656
1.23571
1.23485
1.234
1.23314
1.23229
1.23144
1.23058
1.22973
1.22888
1.22803
1.22717
1.22632
1.22547
1.22462
1.22377
1.22292
1.22207
1.22122
1.22037
1.21952
1.21868
1.21783
1.21698
1.21613
1.21528
1.21444
1.21359
1.21274
1.2119
1.21105
1.2102
1.20936
1.20851
1.20767
1.20682
1.20598
1.20513
1.20428
1.20345
1.20256
1.20182
1.20076
1.19947
1.30551
1.29622
1.29211
1.28878
1.28602
1.28356
1.28129
1.27907
1.2769
1.27485
1.273
1.2714
1.27005
1.26888
1.26785
1.26691
1.26601
1.26513
1.26426
1.26339
1.26252
1.26165
1.26078
1.25991
1.25904
1.25818
1.25731
1.25644
1.25558
1.25471
1.25384
1.25298
1.25212
1.25125
1.25039
1.24953
1.24866
1.2478
1.24694
1.24608
1.24522
1.24436
1.2435
1.24264
1.24178
1.24093
1.24007
1.23921
1.23835
1.2375
1.23664
1.23579
1.23493
1.23407
1.23322
1.23237
1.23151
1.23066
1.22981
1.22895
1.2281
1.22725
1.2264
1.22554
1.22469
1.22384
1.22299
1.22214
1.22129
1.22044
1.21959
1.21874
1.21789
1.21704
1.2162
1.21535
1.2145
1.21365
1.2128
1.21195
1.21111
1.21026
1.20941
1.20857
1.20771
1.20689
1.20599
1.20526
1.20415
1.20285
1.31975
1.3011
1.29596
1.29273
1.29018
1.28794
1.28588
1.28387
1.28189
1.28
1.27827
1.27675
1.27543
1.27429
1.27327
1.27233
1.27142
1.27054
1.26966
1.26879
1.26792
1.26705
1.26618
1.26531
1.26443
1.26356
1.26269
1.26182
1.26095
1.26009
1.25922
1.25835
1.25748
1.25662
1.25575
1.25488
1.25402
1.25315
1.25229
1.25143
1.25056
1.2497
1.24884
1.24797
1.24711
1.24625
1.24539
1.24453
1.24367
1.24281
1.24195
1.24109
1.24023
1.23937
1.23852
1.23766
1.2368
1.23594
1.23509
1.23423
1.23337
1.23252
1.23166
1.23081
1.22995
1.2291
1.22824
1.22739
1.22654
1.22568
1.22483
1.22398
1.22312
1.22227
1.22142
1.22057
1.21971
1.21886
1.21801
1.21716
1.21631
1.21546
1.21461
1.21376
1.2129
1.21207
1.21116
1.21045
1.20926
1.20798
1.32171
1.30443
1.2998
1.29701
1.29486
1.29297
1.29123
1.28954
1.28786
1.28623
1.28471
1.28334
1.28212
1.28103
1.28004
1.27911
1.2782
1.27732
1.27644
1.27556
1.27469
1.27381
1.27293
1.27206
1.27118
1.27031
1.26944
1.26856
1.26769
1.26682
1.26594
1.26507
1.2642
1.26333
1.26246
1.26159
1.26072
1.25985
1.25898
1.25811
1.25724
1.25638
1.25551
1.25464
1.25377
1.25291
1.25204
1.25118
1.25031
1.24945
1.24858
1.24772
1.24686
1.24599
1.24513
1.24427
1.2434
1.24254
1.24168
1.24082
1.23996
1.2391
1.23824
1.23737
1.23651
1.23566
1.2348
1.23394
1.23308
1.23222
1.23136
1.2305
1.22964
1.22879
1.22793
1.22707
1.22621
1.22536
1.2245
1.22364
1.22278
1.22193
1.22107
1.22022
1.21935
1.21852
1.21761
1.21688
1.21569
1.2145
1.31171
1.30519
1.30227
1.30006
1.29833
1.29677
1.29533
1.29391
1.2925
1.29112
1.2898
1.28858
1.28747
1.28645
1.28549
1.28457
1.28367
1.28278
1.2819
1.28102
1.28014
1.27926
1.27838
1.2775
1.27662
1.27574
1.27487
1.27399
1.27311
1.27224
1.27136
1.27048
1.26961
1.26873
1.26786
1.26698
1.26611
1.26524
1.26436
1.26349
1.26262
1.26175
1.26088
1.26001
1.25913
1.25826
1.25739
1.25652
1.25566
1.25479
1.25392
1.25305
1.25218
1.25131
1.25045
1.24958
1.24871
1.24785
1.24698
1.24611
1.24525
1.24438
1.24352
1.24265
1.24179
1.24092
1.24006
1.23919
1.23833
1.23747
1.2366
1.23574
1.23488
1.23401
1.23315
1.23229
1.23143
1.23057
1.2297
1.22884
1.22798
1.22712
1.22626
1.2254
1.22453
1.22369
1.22279
1.22202
1.22092
1.21984
1.30617
1.30555
1.30373
1.30201
1.3006
1.29929
1.29806
1.29685
1.29564
1.29444
1.29328
1.29219
1.29116
1.29019
1.28925
1.28834
1.28745
1.28656
1.28568
1.2848
1.28391
1.28303
1.28215
1.28127
1.28039
1.2795
1.27862
1.27774
1.27686
1.27599
1.27511
1.27423
1.27335
1.27247
1.27159
1.27072
1.26984
1.26896
1.26809
1.26721
1.26634
1.26546
1.26459
1.26371
1.26284
1.26197
1.26109
1.26022
1.25935
1.25848
1.2576
1.25673
1.25586
1.25499
1.25412
1.25325
1.25238
1.25151
1.25064
1.24977
1.2489
1.24803
1.24716
1.24629
1.24543
1.24456
1.24369
1.24282
1.24196
1.24109
1.24022
1.23936
1.23849
1.23762
1.23676
1.23589
1.23503
1.23416
1.23329
1.23243
1.23156
1.2307
1.22983
1.22897
1.2281
1.22725
1.22636
1.22555
1.22454
1.22355
1.30531
1.30595
1.30467
1.3033
1.30212
1.30099
1.29991
1.29884
1.29777
1.2967
1.29566
1.29466
1.29369
1.29275
1.29184
1.29094
1.29004
1.28916
1.28827
1.28738
1.2865
1.28562
1.28473
1.28385
1.28297
1.28208
1.2812
1.28032
1.27944
1.27856
1.27767
1.27679
1.27591
1.27503
1.27415
1.27328
1.2724
1.27152
1.27064
1.26976
1.26889
1.26801
1.26713
1.26626
1.26538
1.2645
1.26363
1.26275
1.26188
1.261
1.26013
1.25926
1.25838
1.25751
1.25664
1.25576
1.25489
1.25402
1.25315
1.25227
1.2514
1.25053
1.24966
1.24879
1.24792
1.24705
1.24618
1.24531
1.24444
1.24357
1.2427
1.24183
1.24096
1.24009
1.23922
1.23836
1.23749
1.23662
1.23575
1.23488
1.23402
1.23315
1.23228
1.23141
1.23055
1.22968
1.2288
1.22797
1.22702
1.22608
1.30619
1.3063
1.30528
1.30415
1.30312
1.30211
1.30113
1.30015
1.29918
1.2982
1.29724
1.29629
1.29536
1.29445
1.29355
1.29266
1.29177
1.29088
1.28999
1.2891
1.28822
1.28733
1.28645
1.28556
1.28468
1.28379
1.28291
1.28203
1.28114
1.28026
1.27938
1.2785
1.27762
1.27673
1.27585
1.27497
1.27409
1.27321
1.27233
1.27146
1.27058
1.2697
1.26882
1.26794
1.26706
1.26619
1.26531
1.26443
1.26356
1.26268
1.2618
1.26093
1.26005
1.25918
1.2583
1.25743
1.25656
1.25568
1.25481
1.25393
1.25306
1.25219
1.25132
1.25044
1.24957
1.2487
1.24783
1.24696
1.24608
1.24521
1.24434
1.24347
1.2426
1.24173
1.24086
1.23999
1.23912
1.23825
1.23738
1.23651
1.23564
1.23477
1.2339
1.23303
1.23216
1.2313
1.23042
1.22957
1.22866
1.22776
1.30721
1.30655
1.30568
1.3047
1.30378
1.30285
1.30193
1.30101
1.3001
1.29918
1.29827
1.29736
1.29646
1.29557
1.29467
1.29378
1.29289
1.29201
1.29112
1.29023
1.28934
1.28846
1.28757
1.28669
1.2858
1.28492
1.28403
1.28315
1.28226
1.28138
1.2805
1.27961
1.27873
1.27785
1.27697
1.27609
1.27521
1.27432
1.27344
1.27256
1.27168
1.2708
1.26993
1.26905
1.26817
1.26729
1.26641
1.26553
1.26466
1.26378
1.2629
1.26203
1.26115
1.26027
1.2594
1.25852
1.25765
1.25677
1.2559
1.25502
1.25415
1.25327
1.2524
1.25153
1.25065
1.24978
1.24891
1.24803
1.24716
1.24629
1.24542
1.24455
1.24367
1.2428
1.24193
1.24106
1.24019
1.23932
1.23845
1.23758
1.2367
1.23583
1.23496
1.23409
1.23322
1.23235
1.23148
1.23062
1.22974
1.22886
)
;

boundaryField
{
    upperWall
    {
        type            calculated;
        value           nonuniform List<scalar> 
220
(
1.31022
1.31022
1.30949
1.30949
1.30935
1.30935
1.30922
1.30922
1.30911
1.30911
1.30901
1.30901
1.30892
1.30892
1.30883
1.30883
1.30874
1.30874
1.30866
1.30866
1.30858
1.30858
1.30851
1.30851
1.30843
1.30843
1.30835
1.30835
1.30828
1.30828
1.3082
1.3082
1.30812
1.30812
1.30805
1.30805
1.30797
1.30797
1.30787
1.30787
1.30768
1.30768
1.30666
1.30666
1.30585
1.30585
1.30493
1.30493
1.30405
1.30405
1.30315
1.30315
1.30226
1.30226
1.30137
1.30137
1.30048
1.30048
1.29959
1.29959
1.2987
1.2987
1.29781
1.29781
1.29692
1.29692
1.29603
1.29603
1.29514
1.29514
1.29425
1.29425
1.29336
1.29336
1.29247
1.29247
1.29159
1.29159
1.2907
1.2907
1.28981
1.28981
1.28892
1.28893
1.28804
1.28804
1.28715
1.28715
1.28627
1.28627
1.28538
1.28538
1.2845
1.2845
1.28361
1.28361
1.28273
1.28273
1.28184
1.28184
1.28096
1.28096
1.28008
1.28008
1.27919
1.27919
1.27831
1.27831
1.27743
1.27743
1.27655
1.27655
1.27567
1.27567
1.27479
1.27479
1.2739
1.2739
1.27302
1.27302
1.27214
1.27214
1.27126
1.27126
1.27038
1.27038
1.2695
1.2695
1.26863
1.26863
1.26775
1.26775
1.26687
1.26687
1.26599
1.26599
1.26511
1.26511
1.26424
1.26424
1.26336
1.26336
1.26248
1.26248
1.2616
1.2616
1.26073
1.26073
1.25985
1.25985
1.25898
1.25898
1.2581
1.2581
1.25722
1.25722
1.25635
1.25635
1.25547
1.25547
1.2546
1.2546
1.25372
1.25372
1.25285
1.25285
1.25198
1.25198
1.2511
1.2511
1.25023
1.25023
1.24936
1.24936
1.24848
1.24848
1.24761
1.24761
1.24674
1.24674
1.24586
1.24586
1.24499
1.24499
1.24412
1.24412
1.24325
1.24325
1.24237
1.24237
1.2415
1.2415
1.24063
1.24063
1.23976
1.23976
1.23889
1.23889
1.23802
1.23802
1.23715
1.23715
1.23627
1.23627
1.2354
1.2354
1.23453
1.23453
1.23366
1.23366
1.23279
1.23279
1.23192
1.23192
1.23105
1.23105
1.23018
1.23018
1.22931
1.22931
)
;
    }
    lowerWall
    {
        type            calculated;
        value           nonuniform List<scalar> 
40
(
1.31022
1.31022
1.30949
1.30949
1.30935
1.30935
1.30922
1.30922
1.30911
1.30911
1.30901
1.30901
1.30892
1.30892
1.30883
1.30883
1.30874
1.30874
1.30866
1.30866
1.30858
1.30858
1.30851
1.30851
1.30843
1.30843
1.30835
1.30835
1.30828
1.30828
1.3082
1.3082
1.30812
1.30812
1.30805
1.30805
1.30797
1.30797
1.30788
1.30788
)
;
    }
    heatedWall
    {
        type            calculated;
        value           nonuniform List<scalar> 
180
(
1.2884
1.2884
1.28707
1.28707
1.28415
1.28415
1.28087
1.28087
1.278
1.278
1.2754
1.2754
1.27295
1.27295
1.27056
1.27056
1.26824
1.26824
1.26609
1.26609
1.26419
1.26419
1.26257
1.26257
1.26121
1.26121
1.26006
1.26006
1.25905
1.25905
1.25811
1.25812
1.25722
1.25722
1.25635
1.25635
1.25548
1.25548
1.25461
1.25461
1.25374
1.25374
1.25288
1.25288
1.25201
1.25201
1.25115
1.25115
1.25028
1.25028
1.24942
1.24942
1.24855
1.24855
1.24769
1.24769
1.24682
1.24682
1.24596
1.24596
1.2451
1.2451
1.24424
1.24424
1.24338
1.24338
1.24252
1.24252
1.24166
1.24166
1.2408
1.2408
1.23994
1.23994
1.23908
1.23908
1.23822
1.23822
1.23736
1.23736
1.23651
1.23651
1.23565
1.23565
1.23479
1.23479
1.23394
1.23394
1.23308
1.23308
1.23223
1.23223
1.23137
1.23137
1.23052
1.23052
1.22966
1.22966
1.22881
1.22881
1.22796
1.22796
1.2271
1.22711
1.22625
1.22625
1.2254
1.2254
1.22455
1.22455
1.2237
1.2237
1.22285
1.22285
1.222
1.222
1.22115
1.22115
1.2203
1.2203
1.21945
1.21945
1.2186
1.2186
1.21775
1.21775
1.2169
1.2169
1.21606
1.21606
1.21521
1.21521
1.21436
1.21436
1.21352
1.21352
1.21267
1.21267
1.21182
1.21182
1.21098
1.21098
1.21013
1.21013
1.20928
1.20928
1.20844
1.20844
1.20759
1.20759
1.20675
1.20675
1.2059
1.2059
1.20506
1.20506
1.20421
1.20421
1.20337
1.20337
1.20253
1.20253
1.20168
1.20168
1.20084
1.20084
1.2
1.2
1.19915
1.19915
1.19832
1.19832
1.19744
1.19744
1.19668
1.19668
1.19565
1.19565
1.1944
1.1944
)
;
    }
    inlet
    {
        type            calculated;
        value           nonuniform List<scalar> 
24
(
1.31022
1.31
1.30984
1.30977
1.30974
1.30973
1.30973
1.30974
1.30977
1.30984
1.31
1.31022
1.31022
1.31
1.30984
1.30977
1.30974
1.30973
1.30973
1.30974
1.30977
1.30984
1.31
1.31022
)
;
    }
    outlet
    {
        type            calculated;
        value           nonuniform List<scalar> 
24
(
1.19438
1.19533
1.19681
1.19905
1.20242
1.20756
1.21407
1.21941
1.22312
1.22565
1.22733
1.22842
1.19438
1.19533
1.19681
1.19905
1.20242
1.20756
1.21407
1.21941
1.22312
1.22565
1.22733
1.22842
)
;
    }
    frontAndBack
    {
        type            empty;
    }
}


// ************************************************************************* //
