/*--------------------------------*- C++ -*----------------------------------*\
  =========                 |
  \\      /  F ield         | OpenFOAM: The Open Source CFD Toolbox
   \\    /   O peration     | Website:  https://openfoam.org
    \\  /    A nd           | Version:  7
     \\/     M anipulation  |
\*---------------------------------------------------------------------------*/
FoamFile
{
    version     2.0;
    format      ascii;
    class       volScalarField;
    location    "1.1625";
    object      alphat;
}
// * * * * * * * * * * * * * * * * * * * * * * * * * * * * * * * * * * * * * //

dimensions      [1 -1 -1 0 0 0 0];

internalField   nonuniform List<scalar> 
13200
(
0.0101368
0.0104106
0.0104093
0.0104101
0.0104085
0.0104087
0.0104074
0.0104075
0.0104062
0.0104061
0.0104051
0.010405
0.0104043
0.0104043
0.010404
0.010404
0.0104042
0.0104035
0.010408
0.0104125
0.00490918
0.00467668
0.00451892
0.00445699
0.00443449
0.00442847
0.00442128
0.00442061
0.0044175
0.00441746
0.00441524
0.00441542
0.00441369
0.00441394
0.00441251
0.00441273
0.00441163
0.00441137
0.00441709
0.00442161
0.00306995
0.00305903
0.00300029
0.0029558
0.00293505
0.00292664
0.00291834
0.00291508
0.00290991
0.00290796
0.00290417
0.00290292
0.00289999
0.00289916
0.00289672
0.00289611
0.0028939
0.00289378
0.00289169
0.00289887
0.00259069
0.00274027
0.00275478
0.00275285
0.00274962
0.00274756
0.00274448
0.0027425
0.00273953
0.00273788
0.0027352
0.00273385
0.00273159
0.00273052
0.00272863
0.00272778
0.00272609
0.00272547
0.00272354
0.00272805
0.00248062
0.00267934
0.0027145
0.0027248
0.00272656
0.00272886
0.00272826
0.00272845
0.0027275
0.00272725
0.00272608
0.00272567
0.00272431
0.00272407
0.00272277
0.00272264
0.00272137
0.00272135
0.00271982
0.0027227
0.00246558
0.00267131
0.00271108
0.00272455
0.0027281
0.00273231
0.00273289
0.00273483
0.00273485
0.00273579
0.00273552
0.00273603
0.00273559
0.00273598
0.00273534
0.00273579
0.00273506
0.00273548
0.00273468
0.00273694
0.00246089
0.002667
0.00270737
0.0027216
0.00272596
0.00273108
0.00273246
0.00273551
0.00273632
0.00273833
0.00273882
0.00274011
0.00274035
0.0027414
0.0027416
0.00274256
0.0027426
0.00274341
0.00274324
0.00274571
0.00246319
0.00266742
0.00270763
0.00272198
0.00272675
0.00273235
0.00273422
0.00273796
0.00273931
0.00274209
0.00274314
0.00274521
0.00274597
0.00274755
0.00274833
0.00274979
0.00275047
0.00275158
0.00275218
0.00275456
0.00246269
0.00266615
0.00270606
0.00272022
0.00272501
0.00273071
0.00273274
0.00273673
0.00273834
0.00274149
0.00274286
0.0027454
0.0027465
0.00274851
0.00274966
0.00275148
0.0027526
0.00275406
0.00275505
0.0027578
0.00246376
0.00266646
0.00270621
0.00272031
0.00272512
0.00273085
0.00273294
0.00273702
0.00273871
0.00274201
0.00274351
0.00274625
0.0027475
0.00274974
0.00275107
0.00275304
0.00275439
0.00275603
0.00275732
0.00276009
0.00246376
0.00266646
0.00270621
0.00272031
0.00272512
0.00273085
0.00273294
0.00273701
0.00273871
0.00274201
0.00274351
0.00274625
0.0027475
0.00274974
0.00275107
0.00275304
0.00275439
0.00275604
0.00275732
0.00276011
0.00246269
0.00266615
0.00270606
0.00272022
0.00272501
0.00273071
0.00273274
0.00273673
0.00273834
0.00274149
0.00274286
0.0027454
0.0027465
0.00274851
0.00274966
0.00275149
0.0027526
0.00275407
0.00275506
0.00275784
0.00246319
0.00266742
0.00270763
0.00272198
0.00272675
0.00273235
0.00273422
0.00273796
0.00273931
0.00274209
0.00274314
0.00274521
0.00274597
0.00274755
0.00274833
0.0027498
0.00275047
0.00275159
0.0027522
0.00275461
0.00246089
0.002667
0.00270737
0.0027216
0.00272596
0.00273108
0.00273246
0.00273551
0.00273632
0.00273833
0.00273882
0.00274011
0.00274036
0.0027414
0.00274161
0.00274255
0.00274263
0.00274341
0.0027433
0.00274575
0.00246558
0.00267131
0.00271108
0.00272455
0.0027281
0.00273231
0.00273289
0.00273482
0.00273485
0.00273579
0.00273552
0.00273603
0.00273559
0.00273597
0.00273536
0.00273576
0.00273512
0.00273543
0.00273483
0.00273683
0.00248062
0.00267934
0.0027145
0.0027248
0.00272656
0.00272886
0.00272826
0.00272845
0.00272751
0.00272725
0.00272609
0.00272566
0.00272432
0.00272405
0.0027228
0.00272262
0.00272143
0.00272129
0.00272009
0.00272236
0.00259069
0.00274027
0.00275478
0.00275285
0.00274962
0.00274756
0.00274448
0.0027425
0.00273953
0.00273788
0.0027352
0.00273385
0.00273158
0.00273053
0.00272862
0.00272779
0.00272608
0.00272544
0.00272384
0.00272724
0.00306995
0.00305903
0.00300029
0.00295581
0.00293505
0.00292664
0.00291835
0.00291508
0.00290991
0.00290795
0.00290417
0.00290292
0.00289999
0.00289915
0.00289674
0.00289606
0.00289397
0.00289365
0.00289204
0.00289784
0.00490918
0.00467668
0.00451892
0.00445699
0.00443449
0.00442847
0.00442128
0.00442061
0.00441751
0.00441746
0.00441524
0.00441541
0.00441369
0.00441393
0.00441252
0.0044127
0.00441166
0.00441126
0.00441708
0.0044206
0.0101368
0.0104106
0.0104093
0.0104101
0.0104085
0.0104087
0.0104074
0.0104075
0.0104062
0.0104061
0.0104051
0.010405
0.0104043
0.0104044
0.0104039
0.0104041
0.0104041
0.0104038
0.0104072
0.0104146
0.0028445
0.00303331
0.00300321
0.00296845
0.00296249
0.00294881
0.00294881
0.00294082
0.00294174
0.0029362
0.00293718
0.00293309
0.00293386
0.00293073
0.00293125
0.00292881
0.00292917
0.002927
0.00292662
0.0029324
0.00234881
0.0027076
0.00274558
0.00273934
0.00273173
0.00272455
0.00272052
0.0027164
0.00271423
0.00271165
0.00271031
0.00270848
0.00270746
0.00270604
0.00270507
0.00270398
0.00270274
0.00270262
0.00269964
0.00270389
0.00218084
0.00256253
0.00262214
0.00263663
0.00264036
0.00264284
0.0026426
0.00264313
0.00264251
0.00264268
0.0026421
0.00264228
0.00264183
0.00264187
0.00264134
0.0026413
0.0026405
0.00264068
0.00263873
0.00264541
0.00216073
0.00254435
0.00260127
0.00261409
0.00261735
0.00262085
0.00262202
0.00262413
0.00262474
0.00262607
0.00262652
0.00262749
0.00262797
0.00262872
0.00262902
0.0026296
0.00262962
0.00263009
0.00262969
0.00263194
0.00215057
0.00253451
0.00259072
0.00260222
0.00260305
0.00260516
0.00260501
0.0026067
0.00260682
0.00260822
0.0026085
0.00260968
0.0026102
0.00261126
0.00261175
0.00261265
0.00261307
0.0026138
0.00261401
0.00261712
0.00215524
0.00253955
0.00259542
0.00260659
0.00260687
0.00260825
0.00260743
0.00260828
0.00260788
0.00260859
0.00260849
0.00260923
0.00260939
0.00261013
0.00261036
0.00261097
0.00261135
0.00261179
0.00261206
0.0026141
0.00215181
0.00253587
0.00259158
0.00260281
0.00260287
0.00260422
0.00260316
0.00260381
0.00260313
0.00260363
0.00260321
0.00260374
0.00260356
0.00260412
0.00260401
0.00260446
0.00260454
0.00260491
0.00260512
0.00260706
0.00215486
0.00253918
0.00259465
0.00260584
0.00260587
0.00260726
0.00260619
0.00260683
0.00260609
0.00260656
0.00260605
0.0026065
0.0026062
0.00260667
0.00260639
0.00260672
0.0026066
0.0026068
0.0026069
0.00260864
0.0021533
0.00253734
0.00259277
0.00260392
0.00260392
0.00260531
0.00260423
0.00260488
0.00260415
0.00260462
0.0026041
0.00260455
0.00260425
0.00260471
0.00260438
0.00260468
0.00260448
0.00260465
0.00260463
0.00260635
0.00215446
0.00253852
0.00259386
0.00260497
0.00260495
0.00260633
0.00260525
0.00260591
0.00260517
0.00260564
0.00260513
0.00260559
0.00260529
0.00260575
0.00260541
0.0026057
0.00260548
0.00260562
0.00260558
0.00260729
0.00215446
0.00253852
0.00259386
0.00260497
0.00260495
0.00260633
0.00260525
0.00260591
0.00260517
0.00260564
0.00260513
0.00260559
0.00260529
0.00260575
0.00260541
0.0026057
0.00260548
0.00260563
0.00260557
0.00260729
0.0021533
0.00253734
0.00259277
0.00260392
0.00260392
0.00260531
0.00260423
0.00260488
0.00260415
0.00260462
0.0026041
0.00260455
0.00260425
0.00260471
0.00260438
0.00260468
0.00260448
0.00260465
0.00260464
0.00260637
0.00215486
0.00253918
0.00259465
0.00260584
0.00260587
0.00260726
0.00260619
0.00260683
0.0026061
0.00260656
0.00260605
0.0026065
0.0026062
0.00260667
0.00260639
0.00260672
0.0026066
0.00260681
0.00260688
0.00260865
0.00215181
0.00253587
0.00259158
0.00260281
0.00260287
0.00260422
0.00260316
0.00260381
0.00260313
0.00260363
0.00260321
0.00260374
0.00260356
0.00260412
0.00260401
0.00260447
0.00260453
0.00260491
0.00260514
0.00260707
0.00215523
0.00253955
0.00259542
0.00260659
0.00260687
0.00260825
0.00260743
0.00260828
0.00260788
0.00260859
0.00260849
0.00260923
0.0026094
0.00261013
0.00261036
0.00261096
0.00261135
0.00261175
0.0026121
0.00261399
0.00215057
0.00253451
0.00259072
0.00260222
0.00260305
0.00260516
0.00260501
0.0026067
0.00260682
0.00260821
0.00260851
0.00260967
0.0026102
0.00261126
0.00261178
0.00261259
0.00261309
0.00261371
0.0026142
0.00261685
0.00216073
0.00254435
0.00260127
0.00261409
0.00261735
0.00262085
0.00262202
0.00262413
0.00262475
0.00262607
0.00262653
0.00262747
0.00262799
0.0026287
0.00262906
0.00262949
0.00262971
0.00262987
0.00262995
0.00263135
0.00218084
0.00256253
0.00262214
0.00263663
0.00264036
0.00264284
0.0026426
0.00264313
0.00264251
0.00264268
0.00264211
0.00264227
0.00264185
0.00264184
0.00264139
0.00264119
0.00264071
0.00264033
0.00263944
0.00264404
0.00234881
0.0027076
0.00274558
0.00273934
0.00273173
0.00272455
0.00272052
0.0027164
0.00271424
0.00271165
0.00271032
0.00270847
0.00270748
0.002706
0.00270513
0.00270389
0.00270293
0.00270228
0.00270046
0.00270199
0.0028445
0.00303331
0.00300321
0.00296845
0.00296249
0.00294881
0.00294881
0.00294082
0.00294174
0.0029362
0.00293718
0.00293309
0.00293387
0.00293073
0.00293128
0.0029288
0.00292925
0.00292693
0.00292701
0.00293102
0.0010904
0.00123196
0.00114114
0.00101994
0.000944192
0.000901554
0.000871213
0.000849466
0.000831156
0.000815955
0.000803237
0.000791759
0.000782569
0.000773645
0.000766598
0.000759919
0.000753428
0.000749829
0.000741382
0.000744684
0.000446011
0.000712294
0.000781708
0.00079359
0.000792351
0.000788505
0.000781115
0.00077381
0.000766451
0.000759713
0.000753242
0.000747382
0.000741753
0.000736772
0.000731691
0.000727803
0.000722717
0.000720751
0.000714083
0.000716168
0.000193815
0.000440348
0.000533178
0.000573005
0.000589762
0.000603557
0.000611985
0.000621108
0.000627027
0.000633373
0.00063736
0.00064153
0.000643865
0.000646447
0.000647469
0.000649045
0.000649077
0.000650115
0.000648995
0.000651048
0.000178055
0.000401666
0.000486996
0.000526837
0.000541685
0.000551314
0.000555323
0.000560249
0.000563314
0.000567488
0.000570786
0.000574739
0.000578175
0.000581822
0.000585056
0.00058817
0.000591151
0.000593538
0.000596125
0.000598703
0.000174082
0.000391993
0.000472579
0.000512497
0.000526551
0.000535536
0.000537494
0.000540181
0.000540596
0.000541806
0.000542327
0.000543568
0.000544554
0.000546044
0.000547528
0.000548949
0.000550873
0.000552098
0.000554108
0.000555877
0.000177742
0.000398399
0.000478645
0.000517399
0.000531675
0.00054007
0.000542192
0.000544228
0.000544362
0.000544775
0.000544751
0.000544969
0.000545176
0.000545483
0.000545922
0.00054631
0.000547013
0.000547405
0.000548165
0.000549361
0.000175222
0.000394064
0.00047425
0.000513372
0.000527385
0.000535927
0.000537851
0.000539939
0.000539962
0.000540234
0.000540071
0.000540158
0.000540093
0.000540191
0.000540214
0.000540284
0.000540434
0.000540571
0.000540746
0.000541552
0.000177299
0.000397819
0.000478125
0.000516735
0.000530814
0.000539104
0.000541162
0.000543144
0.000543229
0.000543514
0.000543397
0.000543458
0.000543399
0.000543436
0.000543467
0.000543451
0.000543564
0.000543603
0.000543759
0.000544414
0.000176038
0.000395551
0.000475822
0.000514649
0.000528621
0.000537007
0.000538972
0.000541009
0.000541067
0.000541361
0.000541231
0.000541319
0.000541261
0.000541329
0.000541321
0.000541321
0.000541396
0.000541427
0.000541508
0.000542133
0.000176743
0.000396851
0.000477178
0.000515833
0.00052981
0.000538101
0.000540096
0.000542089
0.000542161
0.000542456
0.000542342
0.000542427
0.000542385
0.000542445
0.00054246
0.000542449
0.000542537
0.00054256
0.000542669
0.00054327
0.000176743
0.000396851
0.000477178
0.000515833
0.00052981
0.000538101
0.000540095
0.000542089
0.000542161
0.000542456
0.000542342
0.000542428
0.000542385
0.000542445
0.00054246
0.000542451
0.000542538
0.000542563
0.000542671
0.000543275
0.000176038
0.000395552
0.000475822
0.000514649
0.000528621
0.000537007
0.000538972
0.000541009
0.000541067
0.000541361
0.000541231
0.000541319
0.000541261
0.000541329
0.000541321
0.00054132
0.000541395
0.000541424
0.000541504
0.000542128
0.000177299
0.000397819
0.000478125
0.000516735
0.000530814
0.000539104
0.000541162
0.000543144
0.000543228
0.000543514
0.000543397
0.000543459
0.000543398
0.000543438
0.000543467
0.000543454
0.000543564
0.000543608
0.000543758
0.000544421
0.000175222
0.000394065
0.000474249
0.000513372
0.000527385
0.000535927
0.000537851
0.000539939
0.000539962
0.000540235
0.00054007
0.000540158
0.000540092
0.000540193
0.000540212
0.000540285
0.000540429
0.000540571
0.000540733
0.000541548
0.000177742
0.0003984
0.000478645
0.0005174
0.000531674
0.00054007
0.000542192
0.000544228
0.000544362
0.000544775
0.00054475
0.00054497
0.000545175
0.000545486
0.000545918
0.000546311
0.000547
0.000547404
0.000548141
0.000549351
0.000174082
0.000391993
0.000472579
0.000512497
0.00052655
0.000535536
0.000537494
0.00054018
0.000540598
0.000541805
0.000542328
0.000543569
0.000544548
0.000546048
0.000547517
0.000548946
0.000550847
0.000552074
0.000554059
0.000555807
0.000178055
0.000401666
0.000486996
0.000526837
0.000541685
0.000551313
0.000555324
0.000560249
0.000563314
0.000567486
0.000570787
0.000574734
0.000578176
0.000581807
0.00058506
0.000588121
0.000591154
0.000593431
0.000596078
0.000598476
0.000193815
0.000440348
0.000533178
0.000573004
0.000589763
0.000603557
0.000611985
0.000621107
0.000627028
0.00063337
0.000637363
0.000641519
0.000643873
0.000646412
0.0006475
0.000648939
0.000649179
0.000649841
0.000649181
0.000650487
0.000446011
0.000712294
0.000781709
0.000793589
0.000792352
0.000788504
0.000781116
0.00077381
0.000766452
0.000759711
0.000753246
0.000747376
0.000741766
0.000736753
0.000731733
0.00072774
0.000722885
0.000720396
0.000714788
0.000715093
0.0010904
0.00123196
0.00114114
0.00101994
0.000944192
0.000901554
0.000871214
0.000849467
0.000831158
0.00081596
0.000803243
0.000791776
0.000782586
0.000773689
0.000766655
0.000760013
0.000753649
0.000749931
0.000742299
0.00074403
0.0010904
0.00123196
0.00114114
0.00101994
0.000944192
0.000901554
0.000871213
0.000849466
0.000831156
0.000815955
0.000803237
0.000791759
0.000782569
0.000773645
0.000766598
0.000759919
0.000753428
0.000749829
0.000741382
0.000744685
0.000446011
0.000712294
0.000781709
0.00079359
0.000792351
0.000788505
0.000781115
0.000773811
0.000766451
0.000759714
0.000753243
0.000747382
0.000741753
0.000736772
0.000731691
0.000727803
0.000722717
0.000720751
0.000714083
0.000716168
0.000193815
0.000440348
0.000533178
0.000573005
0.000589763
0.000603557
0.000611985
0.000621108
0.000627028
0.000633373
0.000637361
0.000641531
0.000643865
0.000646448
0.00064747
0.000649046
0.000649077
0.000650115
0.000648995
0.000651048
0.000178055
0.000401666
0.000486997
0.000526837
0.000541685
0.000551314
0.000555324
0.000560249
0.000563314
0.000567488
0.000570786
0.000574739
0.000578175
0.000581823
0.000585056
0.00058817
0.000591151
0.000593539
0.000596125
0.000598703
0.000174082
0.000391994
0.000472579
0.000512497
0.000526551
0.000535536
0.000537494
0.000540181
0.000540596
0.000541806
0.000542327
0.000543568
0.000544554
0.000546045
0.000547529
0.00054895
0.000550873
0.000552098
0.000554109
0.000555878
0.000177742
0.0003984
0.000478645
0.0005174
0.000531675
0.00054007
0.000542192
0.000544228
0.000544362
0.000544776
0.000544751
0.000544969
0.000545176
0.000545483
0.000545922
0.00054631
0.000547014
0.000547405
0.000548165
0.000549361
0.000175222
0.000394065
0.00047425
0.000513372
0.000527385
0.000535928
0.000537852
0.000539939
0.000539963
0.000540235
0.000540071
0.000540158
0.000540093
0.000540191
0.000540214
0.000540285
0.000540434
0.000540571
0.000540746
0.000541552
0.000177299
0.000397819
0.000478126
0.000516736
0.000530814
0.000539104
0.000541162
0.000543144
0.000543229
0.000543514
0.000543398
0.000543458
0.000543399
0.000543437
0.000543467
0.000543452
0.000543564
0.000543603
0.000543759
0.000544415
0.000176039
0.000395552
0.000475822
0.00051465
0.000528621
0.000537007
0.000538972
0.000541009
0.000541067
0.000541361
0.000541232
0.000541319
0.000541261
0.00054133
0.000541321
0.000541321
0.000541396
0.000541427
0.000541508
0.000542133
0.000176743
0.000396852
0.000477179
0.000515833
0.00052981
0.000538102
0.000540096
0.000542089
0.000542161
0.000542456
0.000542342
0.000542428
0.000542386
0.000542445
0.00054246
0.000542449
0.000542538
0.00054256
0.000542669
0.00054327
0.000176743
0.000396852
0.000477179
0.000515833
0.00052981
0.000538102
0.000540096
0.000542089
0.000542161
0.000542456
0.000542342
0.000542428
0.000542386
0.000542445
0.000542461
0.000542451
0.000542539
0.000542563
0.000542672
0.000543275
0.000176039
0.000395552
0.000475822
0.00051465
0.000528621
0.000537007
0.000538972
0.000541009
0.000541067
0.000541361
0.000541231
0.000541319
0.000541261
0.000541329
0.000541321
0.00054132
0.000541395
0.000541424
0.000541505
0.000542128
0.000177299
0.000397819
0.000478126
0.000516736
0.000530814
0.000539105
0.000541162
0.000543144
0.000543229
0.000543515
0.000543397
0.000543459
0.000543399
0.000543438
0.000543467
0.000543454
0.000543564
0.000543608
0.000543758
0.000544421
0.000175222
0.000394065
0.00047425
0.000513372
0.000527385
0.000535928
0.000537851
0.000539939
0.000539962
0.000540235
0.00054007
0.000540159
0.000540092
0.000540193
0.000540212
0.000540286
0.000540429
0.000540571
0.000540733
0.000541548
0.000177742
0.0003984
0.000478645
0.0005174
0.000531675
0.00054007
0.000542192
0.000544228
0.000544363
0.000544776
0.000544751
0.000544971
0.000545175
0.000545486
0.000545918
0.000546311
0.000547001
0.000547404
0.000548141
0.000549352
0.000174082
0.000391994
0.000472579
0.000512497
0.000526551
0.000535536
0.000537494
0.000540181
0.000540598
0.000541805
0.000542328
0.000543569
0.000544548
0.000546048
0.000547517
0.000548946
0.000550848
0.000552075
0.000554059
0.000555807
0.000178055
0.000401666
0.000486996
0.000526837
0.000541685
0.000551314
0.000555324
0.000560249
0.000563315
0.000567487
0.000570787
0.000574734
0.000578176
0.000581807
0.00058506
0.000588121
0.000591154
0.000593432
0.000596078
0.000598477
0.000193815
0.000440348
0.000533178
0.000573005
0.000589763
0.000603557
0.000611986
0.000621107
0.000627029
0.00063337
0.000637363
0.000641519
0.000643873
0.000646412
0.0006475
0.00064894
0.000649179
0.000649842
0.000649181
0.000650487
0.000446011
0.000712294
0.000781709
0.000793589
0.000792352
0.000788504
0.000781116
0.00077381
0.000766452
0.000759711
0.000753246
0.000747376
0.000741766
0.000736753
0.000731733
0.00072774
0.000722885
0.000720396
0.000714788
0.000715093
0.0010904
0.00123196
0.00114114
0.00101994
0.000944192
0.000901554
0.000871213
0.000849467
0.000831158
0.00081596
0.000803243
0.000791776
0.000782586
0.000773689
0.000766655
0.000760013
0.000753649
0.000749931
0.000742299
0.00074403
0.0028445
0.00303331
0.00300321
0.00296845
0.00296249
0.00294881
0.00294881
0.00294083
0.00294174
0.0029362
0.00293718
0.00293309
0.00293386
0.00293073
0.00293125
0.00292881
0.00292917
0.002927
0.00292662
0.0029324
0.00234881
0.0027076
0.00274558
0.00273934
0.00273173
0.00272455
0.00272052
0.0027164
0.00271423
0.00271165
0.00271031
0.00270848
0.00270746
0.00270604
0.00270507
0.00270398
0.00270274
0.00270263
0.00269964
0.00270389
0.00218084
0.00256253
0.00262214
0.00263663
0.00264036
0.00264284
0.0026426
0.00264313
0.00264251
0.00264269
0.0026421
0.00264228
0.00264183
0.00264187
0.00264134
0.0026413
0.0026405
0.00264068
0.00263873
0.00264541
0.00216073
0.00254435
0.00260127
0.00261409
0.00261735
0.00262085
0.00262202
0.00262413
0.00262474
0.00262607
0.00262652
0.00262749
0.00262797
0.00262873
0.00262902
0.00262961
0.00262962
0.00263009
0.00262969
0.00263194
0.00215057
0.00253451
0.00259072
0.00260222
0.00260305
0.00260516
0.00260501
0.0026067
0.00260682
0.00260822
0.0026085
0.00260968
0.0026102
0.00261127
0.00261175
0.00261265
0.00261307
0.0026138
0.00261401
0.00261712
0.00215524
0.00253955
0.00259542
0.00260659
0.00260687
0.00260825
0.00260743
0.00260828
0.00260788
0.00260859
0.00260849
0.00260923
0.00260939
0.00261013
0.00261036
0.00261097
0.00261135
0.00261179
0.00261206
0.0026141
0.00215181
0.00253587
0.00259158
0.00260281
0.00260287
0.00260422
0.00260316
0.00260381
0.00260313
0.00260363
0.00260321
0.00260374
0.00260356
0.00260412
0.00260402
0.00260446
0.00260454
0.00260491
0.00260512
0.00260706
0.00215486
0.00253918
0.00259465
0.00260584
0.00260587
0.00260726
0.00260619
0.00260683
0.00260609
0.00260656
0.00260605
0.0026065
0.0026062
0.00260667
0.00260639
0.00260672
0.0026066
0.0026068
0.0026069
0.00260864
0.0021533
0.00253734
0.00259277
0.00260392
0.00260392
0.00260531
0.00260423
0.00260488
0.00260415
0.00260462
0.0026041
0.00260455
0.00260425
0.00260471
0.00260438
0.00260468
0.00260448
0.00260465
0.00260463
0.00260635
0.00215446
0.00253852
0.00259386
0.00260497
0.00260495
0.00260633
0.00260525
0.00260591
0.00260517
0.00260564
0.00260513
0.00260559
0.00260529
0.00260575
0.00260541
0.0026057
0.00260548
0.00260562
0.00260558
0.00260729
0.00215446
0.00253852
0.00259386
0.00260497
0.00260495
0.00260633
0.00260525
0.00260591
0.00260517
0.00260564
0.00260513
0.00260559
0.00260529
0.00260575
0.00260541
0.0026057
0.00260548
0.00260563
0.00260557
0.00260729
0.0021533
0.00253734
0.00259277
0.00260392
0.00260392
0.00260531
0.00260423
0.00260488
0.00260415
0.00260462
0.0026041
0.00260455
0.00260425
0.00260471
0.00260438
0.00260468
0.00260448
0.00260465
0.00260464
0.00260637
0.00215486
0.00253918
0.00259465
0.00260584
0.00260587
0.00260726
0.00260619
0.00260683
0.0026061
0.00260656
0.00260605
0.0026065
0.0026062
0.00260667
0.00260639
0.00260672
0.0026066
0.00260681
0.00260688
0.00260865
0.00215181
0.00253587
0.00259158
0.00260281
0.00260287
0.00260422
0.00260316
0.00260381
0.00260313
0.00260363
0.00260321
0.00260374
0.00260356
0.00260412
0.00260401
0.00260447
0.00260453
0.00260491
0.00260514
0.00260707
0.00215523
0.00253955
0.00259542
0.00260659
0.00260687
0.00260825
0.00260743
0.00260828
0.00260788
0.00260859
0.00260849
0.00260923
0.00260939
0.00261013
0.00261036
0.00261096
0.00261135
0.00261175
0.0026121
0.00261399
0.00215057
0.00253451
0.00259072
0.00260222
0.00260305
0.00260516
0.00260501
0.0026067
0.00260682
0.00260821
0.00260851
0.00260967
0.0026102
0.00261126
0.00261177
0.00261259
0.00261309
0.00261371
0.0026142
0.00261685
0.00216073
0.00254435
0.00260127
0.00261409
0.00261735
0.00262085
0.00262202
0.00262413
0.00262475
0.00262607
0.00262653
0.00262747
0.00262799
0.0026287
0.00262906
0.00262949
0.00262971
0.00262987
0.00262995
0.00263135
0.00218084
0.00256253
0.00262214
0.00263663
0.00264036
0.00264284
0.0026426
0.00264312
0.00264251
0.00264268
0.00264211
0.00264227
0.00264185
0.00264184
0.00264139
0.00264119
0.00264071
0.00264033
0.00263944
0.00264404
0.00234881
0.0027076
0.00274558
0.00273934
0.00273173
0.00272455
0.00272052
0.0027164
0.00271424
0.00271165
0.00271032
0.00270847
0.00270748
0.002706
0.00270513
0.00270389
0.00270293
0.00270228
0.00270046
0.00270199
0.0028445
0.00303331
0.00300321
0.00296845
0.00296249
0.00294881
0.00294881
0.00294082
0.00294174
0.0029362
0.00293718
0.00293309
0.00293387
0.00293073
0.00293128
0.0029288
0.00292925
0.00292693
0.00292701
0.00293102
0.0101368
0.0104106
0.0104093
0.0104101
0.0104085
0.0104087
0.0104074
0.0104075
0.0104062
0.0104061
0.0104051
0.010405
0.0104043
0.0104043
0.010404
0.010404
0.0104042
0.0104035
0.010408
0.0104125
0.00490918
0.00467668
0.00451892
0.00445699
0.00443449
0.00442847
0.00442128
0.00442061
0.0044175
0.00441746
0.00441523
0.00441542
0.00441369
0.00441394
0.00441251
0.00441273
0.00441163
0.00441137
0.00441709
0.00442161
0.00306995
0.00305903
0.00300029
0.00295581
0.00293505
0.00292664
0.00291834
0.00291508
0.00290991
0.00290796
0.00290417
0.00290292
0.00289999
0.00289916
0.00289672
0.00289611
0.0028939
0.00289378
0.00289169
0.00289887
0.00259069
0.00274027
0.00275478
0.00275285
0.00274962
0.00274756
0.00274448
0.0027425
0.00273953
0.00273788
0.0027352
0.00273385
0.00273159
0.00273052
0.00272863
0.00272778
0.00272609
0.00272547
0.00272353
0.00272805
0.00248062
0.00267934
0.0027145
0.0027248
0.00272656
0.00272886
0.00272826
0.00272845
0.0027275
0.00272725
0.00272608
0.00272567
0.00272431
0.00272407
0.00272277
0.00272264
0.00272137
0.00272135
0.00271982
0.0027227
0.00246558
0.00267131
0.00271108
0.00272455
0.0027281
0.00273231
0.00273289
0.00273483
0.00273485
0.00273579
0.00273552
0.00273603
0.00273559
0.00273598
0.00273534
0.00273579
0.00273506
0.00273548
0.00273468
0.00273694
0.00246089
0.002667
0.00270737
0.0027216
0.00272596
0.00273108
0.00273246
0.00273551
0.00273632
0.00273833
0.00273882
0.00274011
0.00274035
0.0027414
0.0027416
0.00274256
0.0027426
0.00274341
0.00274324
0.00274571
0.00246319
0.00266742
0.00270763
0.00272198
0.00272675
0.00273235
0.00273422
0.00273796
0.00273931
0.00274209
0.00274314
0.00274521
0.00274597
0.00274755
0.00274833
0.00274979
0.00275047
0.00275158
0.00275218
0.00275456
0.00246269
0.00266615
0.00270606
0.00272022
0.00272501
0.00273071
0.00273274
0.00273673
0.00273834
0.00274149
0.00274286
0.0027454
0.0027465
0.00274851
0.00274966
0.00275148
0.0027526
0.00275406
0.00275505
0.0027578
0.00246376
0.00266646
0.00270621
0.00272031
0.00272512
0.00273085
0.00273293
0.00273701
0.00273871
0.00274201
0.00274351
0.00274625
0.0027475
0.00274974
0.00275107
0.00275304
0.00275439
0.00275603
0.00275732
0.00276009
0.00246376
0.00266646
0.00270621
0.00272031
0.00272512
0.00273085
0.00273294
0.00273701
0.00273871
0.00274201
0.00274351
0.00274625
0.0027475
0.00274974
0.00275107
0.00275304
0.00275439
0.00275604
0.00275732
0.00276011
0.00246269
0.00266615
0.00270606
0.00272022
0.00272501
0.00273071
0.00273274
0.00273673
0.00273834
0.00274149
0.00274286
0.0027454
0.0027465
0.00274851
0.00274966
0.00275149
0.0027526
0.00275407
0.00275506
0.00275784
0.00246319
0.00266742
0.00270763
0.00272198
0.00272675
0.00273235
0.00273422
0.00273796
0.00273931
0.00274209
0.00274314
0.00274521
0.00274597
0.00274755
0.00274833
0.0027498
0.00275047
0.00275159
0.0027522
0.00275461
0.00246089
0.002667
0.00270737
0.0027216
0.00272596
0.00273108
0.00273246
0.00273551
0.00273632
0.00273833
0.00273882
0.00274011
0.00274036
0.0027414
0.00274161
0.00274255
0.00274263
0.00274341
0.0027433
0.00274575
0.00246558
0.00267131
0.00271108
0.00272455
0.0027281
0.00273231
0.00273289
0.00273482
0.00273485
0.00273579
0.00273552
0.00273603
0.00273559
0.00273597
0.00273536
0.00273576
0.00273512
0.00273543
0.00273483
0.00273683
0.00248062
0.00267934
0.0027145
0.0027248
0.00272656
0.00272886
0.00272826
0.00272845
0.00272751
0.00272725
0.00272609
0.00272566
0.00272432
0.00272405
0.0027228
0.00272262
0.00272143
0.00272129
0.0027201
0.00272236
0.00259069
0.00274027
0.00275478
0.00275285
0.00274962
0.00274756
0.00274448
0.0027425
0.00273953
0.00273788
0.0027352
0.00273385
0.00273158
0.00273053
0.00272862
0.00272779
0.00272609
0.00272544
0.00272384
0.00272724
0.00306995
0.00305903
0.00300029
0.0029558
0.00293505
0.00292664
0.00291834
0.00291508
0.00290991
0.00290795
0.00290417
0.00290292
0.00289999
0.00289915
0.00289674
0.00289606
0.00289397
0.00289365
0.00289204
0.00289784
0.00490918
0.00467668
0.00451892
0.00445699
0.00443449
0.00442847
0.00442128
0.00442061
0.0044175
0.00441746
0.00441524
0.00441541
0.00441369
0.00441393
0.00441252
0.0044127
0.00441166
0.00441126
0.00441708
0.0044206
0.0101368
0.0104106
0.0104093
0.0104101
0.0104085
0.0104087
0.0104074
0.0104075
0.0104062
0.0104061
0.0104051
0.010405
0.0104043
0.0104044
0.0104039
0.0104041
0.0104041
0.0104038
0.0104072
0.0104146
0.0285468
0.0285581
0.028556
0.0285519
0.0285498
0.0285465
0.0285451
0.0285425
0.0285416
0.0285392
0.0285385
0.0285364
0.0285357
0.0285337
0.0285331
0.0285312
0.0285305
0.0285285
0.0285277
0.0285257
0.0285247
0.0285226
0.0285214
0.0285192
0.0285179
0.0285155
0.028514
0.0285116
0.0285099
0.0285073
0.0285054
0.0285026
0.0285006
0.0284977
0.0284954
0.0284924
0.02849
0.0284869
0.0284843
0.028481
0.0284783
0.0284749
0.028472
0.0284686
0.0284656
0.0284621
0.028459
0.0284554
0.0284522
0.0284486
0.0284453
0.0284416
0.0284382
0.0284345
0.0284311
0.0284273
0.0284239
0.0284201
0.0284165
0.0284127
0.0284092
0.0284053
0.0284017
0.0283979
0.0283942
0.0283904
0.0283867
0.0283828
0.0283791
0.0283752
0.0283715
0.0283676
0.0283639
0.02836
0.0283562
0.0283523
0.0283485
0.0283446
0.0283408
0.0283369
0.0283331
0.0283292
0.0283253
0.0283215
0.0283175
0.0283137
0.0283097
0.028306
0.028301
0.0282966
0.0161629
0.0162272
0.0162232
0.016222
0.0162189
0.0162179
0.016215
0.0162137
0.0162115
0.0162106
0.0162091
0.0162083
0.0162069
0.0162059
0.0162046
0.0162037
0.0162024
0.0162016
0.0162005
0.0161996
0.0161986
0.0161977
0.0161966
0.0161956
0.0161945
0.0161934
0.0161922
0.0161911
0.0161898
0.0161886
0.0161873
0.016186
0.0161846
0.0161832
0.0161818
0.0161804
0.0161788
0.0161773
0.0161758
0.0161742
0.0161726
0.016171
0.0161693
0.0161676
0.0161659
0.0161642
0.0161624
0.0161607
0.0161589
0.0161572
0.0161553
0.0161536
0.0161517
0.0161499
0.016148
0.0161462
0.0161443
0.0161424
0.0161405
0.0161387
0.0161367
0.0161348
0.0161329
0.016131
0.016129
0.0161271
0.016125
0.0161231
0.0161211
0.0161191
0.0161171
0.0161151
0.0161131
0.0161111
0.016109
0.016107
0.0161049
0.0161029
0.0161008
0.0160988
0.0160966
0.0160946
0.0160924
0.0160903
0.0160881
0.0160861
0.0160838
0.0160817
0.016078
0.0160756
0.010843
0.0109846
0.0109765
0.010976
0.0109697
0.0109698
0.0109641
0.0109635
0.0109589
0.0109589
0.0109555
0.0109555
0.0109524
0.0109521
0.0109492
0.0109488
0.0109463
0.010946
0.0109438
0.0109435
0.0109415
0.0109411
0.0109392
0.0109388
0.010937
0.0109365
0.0109347
0.0109341
0.0109324
0.0109317
0.01093
0.0109293
0.0109276
0.0109268
0.0109251
0.0109243
0.0109227
0.0109218
0.0109202
0.0109193
0.0109177
0.0109168
0.0109152
0.0109142
0.0109127
0.0109117
0.0109102
0.0109092
0.0109077
0.0109067
0.0109052
0.0109043
0.0109028
0.0109018
0.0109004
0.0108994
0.0108979
0.010897
0.0108955
0.0108946
0.0108931
0.0108921
0.0108907
0.0108897
0.0108884
0.0108873
0.010886
0.0108849