/*--------------------------------*- C++ -*----------------------------------*\
  =========                 |
  \\      /  F ield         | OpenFOAM: The Open Source CFD Toolbox
   \\    /   O peration     | Website:  https://openfoam.org
    \\  /    A nd           | Version:  7
     \\/     M anipulation  |
\*---------------------------------------------------------------------------*/
FoamFile
{
    version     2.0;
    format      ascii;
    class       surfaceScalarField;
    location    "1.1625";
    object      phi_0;
}
// * * * * * * * * * * * * * * * * * * * * * * * * * * * * * * * * * * * * * //

dimensions      [1 0 -1 0 0 0 0];

internalField   nonuniform List<scalar> 
21708
(
0.00129886
0.00100657
1.35778e-05
0.000899252
0.000391921
6.13775e-06
0.000688835
0.000197213
1.16375e-05
0.000598583
8.20294e-05
6.65296e-06
0.000546081
4.01755e-05
1.07734e-05
0.000515123
2.2571e-05
6.86249e-06
0.000491613
1.19388e-05
1.00711e-05
0.000475124
8.00521e-06
7.00374e-06
0.000460489
3.66184e-06
9.50737e-06
0.000449613
2.33463e-06
7.08552e-06
0.000439261
-1.24762e-07
9.02425e-06
0.000431433
-7.35098e-07
7.10711e-06
0.000423651
-2.27705e-06
8.59382e-06
0.000417734
-2.63703e-06
7.07805e-06
0.000411595
-3.548e-06
8.1993e-06
0.00040674
-3.6529e-06
7.00865e-06
0.000400223
-2.81703e-06
7.82665e-06
0.000396316
-4.51552e-06
6.90707e-06
0.000343694
4.35328e-05
7.57583e-06
2.35158e-05
6.47753e-06
0.000312177
0.00225622
0.0010662
2.78574e-06
0.00206414
0.000586469
-4.031e-06
0.00185761
0.000400563
1.56628e-06
0.0017133
0.000227972
-3.28321e-06
0.00160904
0.000141886
9.22073e-07
0.0015377
9.53041e-05
-2.94735e-06
0.0014812
6.66771e-05
2.9658e-07
0.00143982
5.07529e-05
-2.7596e-06
0.00140316
3.92268e-05
-2.38097e-07
0.00137521
3.16471e-05
-2.65704e-06
0.00134873
2.57957e-05
-7.07561e-07
0.00132819
2.11651e-05
-2.62422e-06
0.00130798
1.77847e-05
-1.13012e-06
0.00129211
1.45711e-05
-2.6462e-06
0.00127645
1.22781e-05
-1.52219e-06
0.00126283
1.12741e-05
-2.7104e-06
0.00125408
6.40078e-06
-1.91095e-06
0.00123772
1.31678e-05
-2.79894e-06
0.00127783
4.33129e-06
-2.4006e-06
-2.45233e-05
-3.34737e-06
0.00132768
0.00258367
0.000791795
9.54253e-06
0.00267389
0.000491495
3.20623e-06
0.00266526
0.000399153
8.43376e-06
0.00262738
0.000260687
3.47871e-06
0.00257665
0.000183301
7.6042e-06
0.00253111
0.000135504
3.68805e-06
0.00248636
0.000103018
6.89543e-06
0.00244932
8.25869e-05
3.8185e-06
0.00241386
6.71005e-05
6.32016e-06
0.00238476
5.56698e-05
3.89222e-06
0.0023567
4.69187e-05
5.83026e-06
0.00233363
3.92807e-05
3.9093e-06
0.00231103
3.39969e-05
5.39612e-06
0.00229254
2.81637e-05
3.87796e-06
0.00227334
2.54174e-05
5.00033e-06
0.00225924
2.04222e-05
3.8059e-06
0.00223908
2.06928e-05
4.63376e-06
0.00223053
1.67105e-05
3.68811e-06
0.002198
3.10587e-05
4.42389e-06
1.92987e-05
3.33305e-06
0.00214937
0.00259036
0.00051596
4.11038e-06
0.00275071
0.00033156
-1.95818e-06
0.00285555
0.000289501
3.21998e-06
0.00291571
0.000200533
-1.67941e-06
0.0029443
0.000150482
2.48542e-06
0.0029611
0.000118382
-1.39321e-06
0.0029652
9.54769e-05
1.84939e-06
0.002967
8.05741e-05
-1.20775e-06
0.00296293
6.85666e-05
1.31371e-06
0.00295919
5.93253e-05
-1.10355e-06
0.00295236
5.18071e-05
8.45753e-07
0.00294655
4.51559e-05
-1.0689e-06
0.00293925
3.99836e-05
4.24713e-07
0.00293262
3.50442e-05
-1.08909e-06
0.00292615
3.10183e-05
3.50911e-08
0.00291835
2.84711e-05
-1.15345e-06
0.00291529
2.31159e-05
-3.50542e-07
0.00290614
2.59952e-05
-1.26565e-06
0.00291868
1.81609e-05
-8.53833e-07
6.81386e-06
-1.72688e-06
0.00293157
0.00257912
0.000248116
7.45769e-06
0.00274699
0.000160535
1.60186e-06
0.00288108
0.000147186
6.63885e-06
0.0029737
0.00010451
1.72931e-06
0.003036
8.05675e-05
5.86773e-06
0.00308576
6.49052e-05
1.9734e-06
0.00312085
5.35638e-05
5.20033e-06
0.00315166
4.61855e-05
2.13267e-06
0.00317423
4.00529e-05
4.64394e-06
0.00319485
3.52783e-05
2.22125e-06
0.00321012
3.12519e-05
4.16395e-06
0.00322438
2.76106e-05
2.24607e-06
0.00323498
2.47455e-05
3.73511e-06
0.0032452
2.18139e-05
2.21934e-06
0.00325237
1.97832e-05
3.34254e-06
0.00326029
1.76306e-05
2.14976e-06
0.00326342
1.61679e-05
2.97412e-06
0.00327055
1.58688e-05
2.02282e-06
0.00326846
1.64586e-05
2.69071e-06
1.58939e-05
1.68543e-06
0.00325652
0.00256108
3.43255e-11
5.71727e-06
0.00272012
2.00834e-10
-5.24022e-08
0.00286075
-8.2831e-11
4.96351e-06
0.00296353
4.8807e-10
5.58514e-08
0.00303815
1.15111e-10
4.19351e-06
0.00310101
1.51078e-09
3.02682e-07
0.00314941
1.11696e-09
3.53593e-06
0.00319366
3.59609e-09
4.71331e-07
0.00322942
4.47137e-09
2.98697e-06
0.00326292
7.90649e-09
5.66326e-07
0.00329051
1.57751e-08
2.51171e-06
0.00331645
2.11419e-08
5.95337e-07
0.00333814
4.42706e-08
2.08602e-06
0.00335852
7.69883e-08
5.71612e-07
0.00337582
9.1136e-08
1.69477e-06
0.00339193
2.97832e-07
5.04438e-07
0.00340586
1.48933e-07
1.31675e-06
0.00341951
9.31818e-07
3.7798e-07
0.0034335
5.14756e-07
9.04237e-07
1.78754e-06
3.28009e-10
0.00344651
0.00256108
-0.000248116
5.71727e-06
0.00272012
-0.000160535
-5.24024e-08
0.00286075
-0.000147186
4.96351e-06
0.00296353
-0.000104509
5.585e-08
0.00303815
-8.05672e-05
4.19351e-06
0.00310101
-6.49024e-05
3.02678e-07
0.00314941
-5.35614e-05
3.53594e-06
0.00319366
-4.61789e-05
4.71317e-07
0.00322942
-4.00436e-05
2.98699e-06
0.00326292
-3.52641e-05
5.66289e-07
0.00329051
-3.12194e-05
2.51174e-06
0.00331646
-2.75739e-05
5.95237e-07
0.00333815
-2.46537e-05
2.0861e-06
0.00335854
-2.16763e-05
5.71321e-07
0.00337582
-1.9591e-05
1.69506e-06
0.00339198
-1.70705e-05
5.03634e-07
0.00340588
-1.58508e-05
1.31812e-06
0.00341957
-1.40342e-05
3.76244e-07
0.00343356
-1.54367e-05
9.11408e-07
-1.21574e-05
-2.42609e-09
0.00344641
0.00257912
-0.00051596
7.45769e-06
0.00274699
-0.00033156
1.60186e-06
0.00288108
-0.000289501
6.63885e-06
0.0029737
-0.000200532
1.72931e-06
0.003036
-0.000150482
5.86773e-06
0.00308576
-0.00011838
1.9734e-06
0.00312085
-9.54748e-05
5.20032e-06
0.00315166
-8.05676e-05
2.13269e-06
0.00317423
-6.85587e-05
4.64393e-06
0.00319485
-5.93112e-05
2.22128e-06
0.00321012
-5.17791e-05
4.16392e-06
0.00322439
-4.5119e-05
2.24616e-06
0.003235
-3.99053e-05
3.73503e-06
0.00324523
-3.4911e-05
2.21961e-06
0.00325243
-3.08618e-05
3.34221e-06
0.00326039
-2.7947e-05
2.15052e-06
0.00326361
-2.28928e-05
2.97275e-06
0.00327089
-2.43152e-05
2.02427e-06
0.00326908
-1.74059e-05
2.68451e-06
-3.80135e-06
1.68693e-06
0.00325786
0.00259036
-0.000791795
4.11038e-06
0.00275071
-0.000491495
-1.95818e-06
0.00285555
-0.000399153
3.21998e-06
0.00291571
-0.000260687
-1.67941e-06
0.0029443
-0.0001833
2.48543e-06
0.0029611
-0.000135502
-1.39322e-06
0.0029652
-0.000103016
1.8494e-06
0.002967
-8.25822e-05
-1.20776e-06
0.00296293
-6.70933e-05
1.31373e-06
0.0029592
-5.56599e-05
-1.10358e-06
0.00295237
-4.68939e-05
8.45795e-07
0.00294658
-3.92563e-05
-1.06898e-06
0.00293928
-3.39278e-05
4.24812e-07
0.00293269
-2.80721e-05
-1.0893e-06
0.00292624
-2.52769e-05
3.53864e-08
0.00291858
-2.00301e-05
-1.154e-06
0.00291553
-2.04941e-05
-3.49229e-07
0.00290671
-1.53459e-05
-1.267e-06
0.00291937
-3.04489e-05
-8.46794e-07
-1.66471e-05
-1.72884e-06
0.00293263
0.00258367
-0.0010662
9.54253e-06
0.00267389
-0.000586469
3.20623e-06
0.00266526
-0.000400563
8.43376e-06
0.00262738
-0.000227971
3.47872e-06
0.00257665
-0.000141886
7.6042e-06
0.00253112
-9.53029e-05
3.68806e-06
0.00248636
-6.66757e-05
6.89543e-06
0.00244933
-5.07499e-05
3.81851e-06
0.00241386
-3.92222e-05
6.32015e-06
0.00238477
-3.1641e-05
3.89223e-06
0.00235672
-2.57802e-05
5.83023e-06
0.00233366
-2.115e-05
3.90935e-06
0.00231108
-1.77428e-05
5.39603e-06
0.00229263
-1.4514e-05
3.87814e-06
0.00227349
-1.22013e-05
5.00005e-06
0.00225953
-1.10262e-05
3.80647e-06
0.00223951
-6.34225e-06
4.63275e-06
0.00223145
-1.22871e-05
3.68909e-06
0.00219945
-4.26326e-06
4.41987e-06
2.55996e-05
3.33247e-06
0.00215242
0.00225622
-0.00100657
2.78574e-06
0.00206414
-0.000391921
-4.03099e-06
0.00185761
-0.000197213
1.56629e-06
0.0017133
-8.20294e-05
-3.28321e-06
0.00160904
-4.01754e-05
9.22085e-07
0.00153771
-2.25707e-05
-2.94734e-06
0.00148121
-1.19381e-05
2.96589e-07
0.00143983
-8.00423e-06
-2.7596e-06
0.00140317
-3.65993e-06
-2.38084e-07
0.00137522
-2.33286e-06
-2.65706e-06
0.00134875
1.30741e-07
-7.07526e-07
0.00132822
7.38817e-07
-2.62427e-06
0.00130804
2.29312e-06
-1.13004e-06
0.00129221
2.65166e-06
-2.64633e-06
0.00127659
3.58105e-06
-1.52197e-06
0.00126315
3.72505e-06
-2.71074e-06
0.0012544
2.87161e-06
-1.90994e-06
0.00123865
4.79046e-06
-2.80021e-06
0.00127839
-4.3117e-05
-2.39474e-06
-2.28895e-05
-3.35075e-06
0.00132873
0.00129886
1.35779e-05
0.000899252
6.13782e-06
0.000688835
1.16376e-05
0.000598583
6.65303e-06
0.000546081
1.07734e-05
0.000515123
6.86257e-06
0.000491614
1.00711e-05
0.000475126
7.00381e-06
0.000460493
9.50743e-06
0.000449618
7.0856e-06
0.000439271
9.0243e-06
0.000431446
7.10722e-06
0.000423681
8.59383e-06
0.000417778
7.07827e-06
0.000411671
8.19917e-06
0.000406888
7.00919e-06
0.000400425
7.82616e-06
0.000396795
6.90805e-06
0.000344584
7.57436e-06
6.47896e-06
0.000313706
0.00190609
0.000422686
3.03042e-06
0.00138742
0.00051844
4.81388e-06
0.0010426
0.000352721
2.14678e-06
0.000861004
0.000183053
3.60667e-06
0.000771833
9.62304e-05
2.15503e-06
0.000717749
5.61653e-05
3.26918e-06
0.000683927
4.01329e-05
2.28806e-06
0.000654465
3.20019e-05
3.02044e-06
0.000633567
2.66304e-05
2.349e-06
0.000613445
2.29944e-05
2.7976e-06
0.000598858
1.98217e-05
2.37387e-06
0.000584199
1.77094e-05
2.63162e-06
0.000573123
1.58309e-05
2.39684e-06
0.000561929
1.42866e-05
2.52446e-06
0.000552634
1.35802e-05
2.43389e-06
0.000543941
1.17426e-05
2.46436e-06
0.000539287
8.47571e-06
2.49821e-06
0.000521934
2.03115e-05
2.43558e-06
0.000624152
-9.86903e-05
2.54396e-06
-8.0587e-05
2.65593e-06
0.000707034
0.00241357
0.000322094
8.28318e-06
0.00235252
0.000563743
1.01626e-05
0.00222893
0.000468604
7.65454e-06
0.00209254
0.000305498
8.99577e-06
0.00198181
0.000198648
7.58028e-06
0.0018901
0.000134742
8.61693e-06
0.0018211
0.000100274
7.7132e-06
0.00176178
7.88488e-05
8.36983e-06
0.00171591
6.32277e-05
7.77462e-06
0.00167431
5.258e-05
8.15486e-06
0.0016412
4.32813e-05
7.79483e-06
0.00161009
3.70571e-05
7.99019e-06
0.00158439
3.14053e-05
7.81162e-06
0.00156009
2.68359e-05
7.8801e-06
0.00153832
2.46849e-05
7.84229e-06
0.00152016
1.80191e-05
7.81467e-06
0.0014969
2.05026e-05
7.90395e-06
0.0014931
1.20733e-05
7.77514e-06
0.00140675
-2.42677e-05
8.03514e-06
2.33638e-06
8.041e-06
0.00131092
0.00243725
0.000208654
4.00097e-06
0.00256639
0.000430205
6.05596e-06
0.00262956
0.000409089
3.17777e-06
0.00262875
0.000303149
4.95504e-06
0.00260691
0.000223189
3.18085e-06
0.00257195
0.000167153
4.59483e-06
0.00254046
0.000133721
3.4366e-06
0.002507
0.000110393
4.37464e-06
0.00247891
9.28025e-05
3.59635e-06
0.00245026
7.98086e-05
4.17318e-06
0.00242619
6.84667e-05
3.67617e-06
0.00240187
6.03048e-05
4.01272e-06
0.00238131
5.27037e-05
3.73334e-06
0.0023601
4.70622e-05
3.90513e-06
0.00234291
4.20506e-05
3.79446e-06
0.0023223
3.7464e-05
3.84537e-06
0.00231203
3.0323e-05
3.86956e-06
0.0022883
3.43279e-05
3.83191e-06
0.00229664
-3.34537e-05
3.87476e-06
-1.65618e-05
4.01161e-06
0.00231336
0.00238904
0.000134984
7.14877e-06
0.00253143
0.000275245
9.06839e-06
0.00266569
0.000269794
6.661e-06
0.00274633
0.000211067
8.0675e-06
0.0027999
0.000163753
6.5978e-06
0.00282745
0.000128871
7.65223e-06
0.00284728
0.000107486
6.71801e-06
0.0028559
9.17872e-05
7.39906e-06
0.00286259
7.93753e-05
6.78893e-06
0.00286322
6.97223e-05
7.1888e-06
0.00286371
6.09396e-05
6.81658e-06
0.00286069
5.42887e-05
7.02496e-06
0.00285811
4.80363e-05
6.83591e-06
0.00285344
4.29256e-05
6.91399e-06
0.00284873
3.90999e-05
6.86774e-06
0.00284365
3.36106e-05
6.84964e-06
0.00283431
3.13588e-05
6.92704e-06
0.00283159
2.77939e-05
6.83003e-06
0.00279001
-1.04548e-06
7.06925e-06
2.20624e-05
7.07161e-06
0.0027412
0.00239115
6.44956e-05
5.10524e-06
0.00252392
0.000135442
7.09592e-06
0.00265842
0.000135806
4.52926e-06
0.00275487
0.000108553
6.0905e-06
0.00283155
8.67293e-05
4.46895e-06
0.00288494
7.00932e-05
5.66296e-06
0.00293147
5.99722e-05
4.63031e-06
0.00296623
5.23519e-05
5.41901e-06
0.0029979
4.63373e-05
4.73847e-06
0.00302192
4.15246e-05
5.21706e-06
0.00304407
3.70714e-05
4.79174e-06
0.00306094
3.36327e-05
5.05823e-06
0.00307682
3.02265e-05
4.82981e-06
0.0030886
2.76711e-05
4.95155e-06
0.00310043
2.50056e-05
4.87619e-06
0.00310735
2.31342e-05
4.8925e-06
0.00311666
1.91751e-05
4.93776e-06
0.00311971
2.08334e-05
4.88646e-06
0.00311812
-2.87865e-06
4.97334e-06
6.89321e-06
5.07291e-06
0.00312865
0.00238246
-9.71721e-11
6.11194e-06
0.00250824
1.61913e-10
8.06179e-06
0.00264178
-1.30719e-10
5.63133e-06
0.00274159
5.06738e-10
7.09617e-06
0.0028252
1.27551e-10
5.56285e-06
0.00288723
1.48085e-09
6.66428e-06
0.0029435
1.14042e-09
5.69116e-06
0.00298851
3.44645e-09
6.4136e-06
0.00303079
4.61734e-09
5.77854e-06
0.00306547
8.79252e-09
6.20964e-06
0.00309812
1.55337e-08
5.81845e-06
0.00312528
2.69333e-08
6.04968e-06
0.00315086
4.34917e-08
5.84647e-06
0.00317233
8.9045e-08
5.94196e-06
0.00319233
1.14067e-07
5.8853e-06
0.00320905
2.76143e-07
5.88183e-06
0.0032224
3.30888e-07
5.94512e-06
0.00323597
7.80373e-07
5.87543e-06
0.00322587
9.8012e-07
6.04757e-06
2.04837e-06
6.08603e-06
0.00322345
0.00238246
-6.44958e-05
6.11194e-06
0.00250824
-0.000135442
8.0618e-06
0.00264178
-0.000135806
5.63133e-06
0.00274159
-0.000108552
7.09617e-06
0.0028252
-8.67292e-05
5.56285e-06
0.00288723
-7.00901e-05
6.66428e-06
0.0029435
-5.99702e-05
5.69115e-06
0.00298851
-5.23446e-05
6.41361e-06
0.00303079
-4.63289e-05
5.77853e-06
0.00306547
-4.15058e-05
6.20966e-06
0.00309812
-3.70432e-05
5.81844e-06
0.00312528
-3.35752e-05
6.04973e-06
0.00315086
-3.01491e-05
5.84642e-06
0.00317233
-2.74835e-05
5.9421e-06
0.00319236
-2.48105e-05
5.88511e-06
0.00320906
-2.25669e-05
5.88222e-06
0.00322254
-1.86312e-05
5.94425e-06
0.0032362
-1.93669e-05
5.87613e-06
0.00322622
4.72386e-06
6.04266e-06
-3.22973e-06
6.08737e-06
0.00322423
0.00239115
-0.000134984
5.10524e-06
0.00252392
-0.000275245
7.09592e-06
0.00265842
-0.000269794
4.52926e-06
0.00275487
-0.000211066
6.0905e-06
0.00283155
-0.000163753
4.46895e-06
0.00288494
-0.000128868
5.66295e-06
0.00293147
-0.000107484
4.63031e-06
0.00296623
-9.17808e-05
5.41901e-06
0.0029979
-7.93669e-05
4.73848e-06
0.00302192
-6.97061e-05
5.21705e-06
0.00304408
-6.09116e-05
4.79176e-06
0.00306096
-5.42401e-05
5.05818e-06
0.00307684
-4.79583e-05
4.82986e-06
0.00308864
-4.27666e-05
4.9514e-06
0.00310046
-3.88975e-05
4.87635e-06
0.00310746
-3.31214e-05
4.89212e-06
0.00311673
-3.07754e-05
4.93844e-06
0.0031199
-2.6437e-05
4.88578e-06
0.00311839
2.80203e-06
4.97731e-06
-1.83453e-05
5.0716e-06
0.00312887
0.00238904
-0.000208654
7.14877e-06
0.00253143
-0.000430205
9.06839e-06
0.00266569
-0.000409089
6.661e-06
0.00274633
-0.000303148
8.0675e-06
0.0027999
-0.000223189
6.5978e-06
0.00282745
-0.000167151
7.65223e-06
0.00284728
-0.000133719
6.718e-06
0.0028559
-0.000110388
7.39906e-06
0.00286259
-9.27958e-05
6.78892e-06
0.00286322
-7.97946e-05
7.18881e-06
0.00286372
-6.84444e-05
6.81656e-06
0.00286071
-6.02629e-05
7.025e-06
0.00285814
-5.26437e-05
6.83585e-06
0.0028535
-4.69249e-05
6.91408e-06
0.00284884
-4.19049e-05
6.86751e-06
0.00284384
-3.70492e-05
6.84992e-06
0.0028347
-2.9935e-05
6.92605e-06
0.00283225
-3.32475e-05
6.83061e-06
0.00279122
3.46717e-05
7.06453e-06
1.91786e-05
7.07184e-06
0.00274352
0.00243725
-0.000322094
4.00097e-06
0.00256639
-0.000563743
6.05596e-06
0.00262956
-0.000468604
3.17777e-06
0.00262875
-0.000305497
4.95504e-06
0.00260691
-0.000198647
3.18085e-06
0.00257195
-0.000134741
4.59483e-06
0.00254046
-0.000100272
3.4366e-06
0.00250701
-7.88456e-05
4.37464e-06
0.00247892
-6.32221e-05
3.59636e-06
0.00245027
-5.25719e-05
4.17317e-06
0.0024262
-4.32634e-05
3.67618e-06
0.00240191
-3.70335e-05
4.01269e-06
0.00238135
-3.13573e-05
3.73339e-06
0.0023602
-2.67585e-05
3.90502e-06
0.00234304
-2.45622e-05
3.79458e-06
0.00232261
-1.77844e-05
3.84507e-06
0.00231237
-2.01508e-05
3.86996e-06
0.00228908
-1.14202e-05
3.83139e-06
0.00229762
2.52649e-05
3.87702e-06
-2.28902e-07
4.01074e-06
0.00231487
0.00241357
-0.000422686
8.28318e-06
0.00235252
-0.00051844
1.01626e-05
0.00222893
-0.000352721
7.65454e-06
0.00209254
-0.000183053
8.99577e-06
0.00198181
-9.62303e-05
7.58028e-06
0.0018901
-5.61648e-05
8.61693e-06
0.0018211
-4.01322e-05
7.7132e-06
0.00176178
-3.20005e-05
8.36984e-06
0.00171592
-2.6628e-05
7.77461e-06
0.00167433
-2.2991e-05
8.15488e-06
0.00164122
-1.98144e-05
7.7948e-06
0.00161012
-1.76995e-05
7.99023e-06
0.00158446
-1.58124e-05
7.81156e-06
0.0015602
-1.42535e-05
7.88018e-06
0.00153851
-1.35385e-05
7.84211e-06
0.00152048
-1.1639e-05
7.81489e-06
0.0014975
-8.39962e-06
7.90316e-06
0.00149401
-1.99665e-05
7.77582e-06
0.00140888
9.84598e-05
8.03138e-06
8.06089e-05
8.04216e-06
0.00131516
0.00190609
3.03042e-06
0.00138742
4.81388e-06
0.0010426
2.14679e-06
0.000861004
3.60666e-06
0.000771834
2.15504e-06
0.00071775
3.26917e-06
0.000683929
2.28807e-06
0.000654468
3.02043e-06
0.000633573
2.349e-06
0.000613454
2.79759e-06
0.000598874
2.37387e-06
0.000584224
2.63159e-06
0.000573167
2.39686e-06
0.000562006
2.52439e-06
0.000552753
2.43393e-06
0.000544163
2.46421e-06
0.000539585
2.49818e-06
0.000522581
2.43525e-06
0.000624554
2.54417e-06
2.65382e-06
0.000707494
0.00214889
0.000172186
-2.91227e-11
0.00190275
0.000249393
-2.91803e-11
0.00163957
0.000263698
-2.96139e-11
0.00140817
0.000233371
-3.02745e-11
0.0012219
0.000186855
-2.99613e-11
0.00108469
0.000139019
-2.95122e-11
0.000986762
9.88421e-05
-2.84767e-11
0.000920372
6.80811e-05
-2.79669e-11
0.00087411
4.72866e-05
-2.68034e-11
0.000842433
3.31388e-05
-2.60148e-11
0.000818947
2.45062e-05
-2.50033e-11
0.000801485
1.87192e-05
-2.50726e-11
0.00078738
1.51055e-05
-2.53309e-11
0.00077556
1.2927e-05
-2.63933e-11
0.000766134
1.04255e-05
-2.7336e-11
0.000756026
1.113e-05
-2.85966e-11
0.000751361
5.71765e-06
-2.94569e-11
0.000739461
1.28986e-05
-3.00966e-11
0.000745611
-5.01012e-06
-3.05185e-11
-6.11479e-06
-3.01252e-11
0.00075295
0.00237441
0.000124098
-2.92726e-11
0.00241869
0.00021373
-2.91666e-11
0.00242452
0.000263896
-2.87247e-11
0.0023992
0.000265973
-2.90038e-11
0.00235205
0.000239889
-2.9396e-11
0.00229726
0.000200845
-3.05223e-11
0.00224018
0.0001622
-3.11274e-11
0.00218647
0.000128878
-3.16208e-11
0.00213631
0.000104056
-3.09263e-11
0.00209124
8.53093e-05
-3.01748e-11
0.00205021
7.23521e-05
-2.88318e-11
0.00201356
6.23939e-05
-2.81214e-11
0.00198036
5.51024e-05
-2.75699e-11
0.00195057
4.94989e-05
-2.80457e-11
0.00192374
4.38813e-05
-2.84847e-11
0.00189927
4.20967e-05
-2.95676e-11
0.00187803
3.34446e-05
-3.01385e-11
0.00185722
3.99955e-05
-3.15973e-11
0.00184117
1.75536e-05
-3.27514e-11
3.14318e-05
-3.43156e-11
0.00181015
0.00236238
8.3746e-05
-2.92336e-11
0.00243069
0.000149939
-2.94786e-11
0.0025013
0.000194852
-2.93408e-11
0.00256539
0.000205118
-2.91434e-11
0.00261271
0.000194004
-2.82958e-11
0.00264531
0.000171196
-2.83898e-11
0.00266366
0.000145812
-2.8849e-11
0.00267274
0.000122842
-3.02657e-11
0.00267445
0.000104722
-3.11042e-11
0.00267204
9.07919e-05
-3.182e-11
0.00266662
8.04878e-05
-3.14522e-11
0.00265952
7.26703e-05
-3.12759e-11
0.0026515
6.60623e-05
-3.07788e-11
0.00264238
6.16992e-05
-3.09447e-11
0.00263372
5.54273e-05
-3.03277e-11
0.00262346
5.51602e-05
-2.99961e-11
0.00261538
4.42413e-05
-2.90207e-11
0.00260423
5.36725e-05
-2.94087e-11
0.00259679
2.74537e-05
-2.95488e-11
4.83165e-05
-3.18407e-11
0.00258232
0.00235246
5.64644e-05
-2.92328e-11
0.00241086
9.90677e-05
-2.95021e-11
0.00248233
0.000128433
-2.94495e-11
0.00255771
0.000136077
-2.93176e-11
0.00262598
0.000130584
-2.84527e-11
0.0026858
0.000117378
-2.82941e-11
0.00273453
0.000102318
-2.83121e-11
0.00277499
8.8448e-05
-2.9258e-11
0.00280774
7.75194e-05
-2.95104e-11
0.00283544
6.91378e-05
-2.9863e-11
0.0028588
6.29406e-05
-2.96203e-11
0.00287927
5.83676e-05
-3.03176e-11
0.00289719
5.42438e-05
-3.0932e-11
0.00291314
5.19463e-05
-3.22146e-11
0.00292718
4.74802e-05
-3.25317e-11
0.0029399
4.83854e-05
-3.23998e-11
0.00295049
3.95779e-05
-3.1571e-11
0.00296112
4.87355e-05
-3.05571e-11
0.00296684
2.7586e-05
-2.99414e-11
5.04329e-05
-2.9873e-11
0.00297036
0.00235304
2.65528e-05
-2.92375e-11
0.00240965
4.80217e-05
-2.94702e-11
0.00247774
6.32599e-05
-2.93626e-11
0.00255098
6.72007e-05
-2.9369e-11
0.00261966
6.46169e-05
-2.87959e-11
0.00268274
5.83196e-05
-2.89346e-11
0.00273714
5.10709e-05
-2.88691e-11
0.00278518
4.44958e-05
-2.94699e-11
0.00282691
3.92857e-05
-2.92228e-11
0.0028647
3.54099e-05
-2.92098e-11
0.00289892
3.24881e-05
-2.87276e-11
0.00293098
3.05033e-05
-2.93506e-11
0.00296082
2.85019e-05
-3.00411e-11
0.00298929
2.77421e-05
-3.13757e-11
0.00301557
2.53329e-05
-3.20179e-11
0.00304152
2.64743e-05
-3.21577e-11
0.00306366
2.14155e-05
-3.19797e-11
0.00308892
2.72912e-05
-3.13907e-11
0.00310486
1.54703e-05
-3.12674e-11
2.87692e-05
-3.09956e-11
0.0031303
0.00235069
-1.30239e-10
-2.92525e-11
0.00240524
3.48363e-10
-2.94461e-11
0.00247251
-2.73726e-10
-2.93429e-11
0.00254508
8.26381e-10
-2.93968e-11
0.00261351
-1.55232e-10
-2.90304e-11
0.00267685
1.96964e-09
-2.93265e-11
0.00273214
8.18387e-10
-2.92706e-11
0.00278171
4.30842e-09
-2.9657e-11
0.00282553
4.37827e-09
-2.92759e-11
0.00286599
1.04478e-08
-2.92976e-11
0.00290325
1.42043e-08
-2.89816e-11
0.00293891
3.11891e-08
-2.94905e-11
0.00297249
3.3764e-08
-2.98015e-11
0.00300539
1.0111e-07
-3.04794e-11
0.00303581
6.94778e-08
-3.05389e-11
0.00306702
3.03272e-07
-3.06563e-11
0.00309325
1.78693e-07
-3.05199e-11
0.0031246
7.5228e-07
-3.05913e-11
0.00314431
6.83236e-07
-3.07666e-11
1.52568e-06
-3.07722e-11
0.00317639
0.00235069
-2.65531e-05
-2.92459e-11
0.00240524
-4.8021e-05
-2.94621e-11
0.00247251
-6.32604e-05
-2.93523e-11
0.00254508
-6.7199e-05
-2.94419e-11
0.00261351
-6.46173e-05
-2.91893e-11
0.00267685
-5.83156e-05
-2.95851e-11
0.00273214
-5.10695e-05
-2.95219e-11
0.00278171
-4.4487e-05
-2.97823e-11
0.00282553
-3.92774e-05
-2.93949e-11
0.00286599
-3.53886e-05
-2.963e-11
0.00290326
-3.24607e-05
-2.96069e-11
0.00293891
-3.04404e-05
-3.00701e-11
0.0029725
-2.84365e-05
-2.98727e-11
0.0030054
-2.75402e-05
-2.97345e-11
0.00303582
-2.51987e-05
-2.88954e-11
0.00306703
-2.58718e-05
-2.88958e-11
0.00309328
-2.10731e-05
-2.85734e-11
0.00312465
-2.58093e-05
-2.9244e-11
0.00314441
-1.41603e-05
-2.95194e-11
-2.58328e-05
-2.96256e-11
0.00317661
0.00235304
-5.64646e-05
-2.92572e-11
0.00240965
-9.90671e-05
-2.94349e-11
0.00247774
-0.000128434
-2.93272e-11
0.00255098
-0.000136076
-2.94705e-11
0.00261966
-0.000130585
-2.94213e-11
0.00268274
-0.000117374
-2.9967e-11
0.00273714
-0.000102317
-2.98967e-11
0.00278518
-8.84394e-05
-2.99477e-11
0.00282691
-7.75116e-05
-2.94553e-11
0.0028647
-6.91175e-05
-2.97553e-11
0.00289893
-6.2914e-05
-2.98735e-11
0.00293099
-5.83086e-05
-3.01615e-11
0.00296083
-5.41794e-05
-2.95052e-11
0.00298931
-5.17568e-05
-2.86461e-11
0.00301559
-4.73492e-05
-2.73046e-11
0.00304157
-4.78139e-05
-2.73514e-11
0.00306373
-3.92546e-05
-2.71558e-11
0.00308905
-4.73127e-05
-2.8553e-11
0.00310508
-2.63551e-05
-2.89588e-11
-4.75855e-05
-2.94101e-11
0.0031306
0.00235246
-8.37462e-05
-2.92755e-11
0.00241086
-0.000149939
-2.9404e-11
0.00248233
-0.000194853
-2.9264e-11
0.00255771
-0.000205117
-2.95638e-11
0.00262598
-0.000194004
-2.98313e-11
0.0026858
-0.000171193
-3.06353e-11
0.00273453
-0.000145812
-3.04271e-11
0.00277499
-0.000122833
-3.01128e-11
0.00280774
-0.000104716
-2.91726e-11
0.00283545
-9.07725e-05
-2.91713e-11
0.00285881
-8.04648e-05
-2.90096e-11
0.00287929
-7.26161e-05
-2.91181e-11
0.00289721
-6.60068e-05
-2.83822e-11
0.00291318
-6.1528e-05
-2.75342e-11
0.00292724
-5.53191e-05
-2.67278e-11
0.00294002
-5.46458e-05
-2.71655e-11
0.00295067
-4.39878e-05
-2.78492e-11
0.00296147
-5.24075e-05
-2.96012e-11
0.00296741
-2.64576e-05
-3.02419e-11
-4.59549e-05
-3.04358e-11
0.00297143
0.00236238
-0.000124098
-2.92584e-11
0.00243069
-0.00021373
-2.94028e-11
0.0025013
-0.000263896
-2.93588e-11
0.00256539
-0.000265972
-2.97856e-11
0.00261271
-0.000239889
-3.00521e-11
0.00264532
-0.000200842
-3.0528e-11
0.00266366
-0.000162199
-2.97522e-11
0.00267274
-0.000128872
-2.89101e-11
0.00267446
-0.00010405
-2.74504e-11
0.00267205
-8.5295e-05
-2.71846e-11
0.00266663
-7.2333e-05
-2.71432e-11
0.00265954
-6.23542e-05
-2.80632e-11
0.00265154
-5.50581e-05
-2.82962e-11
0.00264247
-4.93726e-05
-2.86953e-11
0.00263383
-4.38006e-05
-2.89873e-11
0.0026237
-4.17122e-05
-2.9794e-11
0.0026157
-3.32694e-05
-3.07465e-11
0.00260487
-3.90448e-05
-3.0715e-11
0.00259771
-1.68423e-05
-3.06413e-11
-2.97087e-05
-2.80014e-11
0.00258388
0.00237441
-0.000172186
-2.92555e-11
0.00241869
-0.000249393
-2.97253e-11
0.00242452
-0.000263698
-2.99618e-11
0.0023992
-0.00023337
-2.99061e-11
0.00235205
-0.000186855
-2.89753e-11
0.00229726
-0.000139018
-2.83932e-11
0.00224018
-9.88409e-05
-2.74325e-11
0.00218647
-6.80787e-05
-2.75214e-11
0.00213632
-4.72823e-05
-2.77404e-11
0.00209126
-3.31333e-05
-2.90689e-11
0.00205024
-2.44941e-05
-3.00886e-11
0.00201361
-1.87026e-05
-3.14328e-11
0.00198043
-1.50794e-05
-3.1695e-11
0.0019507
-1.28697e-05
-3.18142e-11
0.00192392
-1.03847e-05
-3.10839e-11
0.00189964
-1.09417e-05
-3.05765e-11
0.0018785
-5.64903e-06
-2.95759e-11
0.00185819
-1.24267e-05
-2.84778e-11
0.00184251
5.31171e-06
-2.73793e-11
6.61769e-06
-2.49179e-11
0.00181274
0.00214889
-2.93349e-11
0.00190275
-2.96758e-11
0.00163957
-2.90453e-11
0.00140817
-2.85099e-11
0.0012219
-2.81256e-11
0.00108469
-2.90508e-11
0.000986765
-2.9794e-11
0.000920377
-3.10564e-11
0.00087412
-3.17997e-11
0.000842448
-3.30472e-11
0.000818974
-3.35333e-11
0.000801529
-3.39389e-11
0.00078745
-3.33773e-11
0.000775687
-3.28633e-11
0.000766302
-3.17331e-11
0.00075638
-3.10142e-11
0.000751786
-2.98966e-11
0.000740361
-2.97736e-11
0.000746787
-2.91319e-11
-3.00716e-11
0.000754689
0.00214889
0.000172186
-3.03047e-06
0.00190275
0.000249393
-4.81393e-06
0.00163957
0.000263698
-2.14683e-06
0.00140817
0.000233371
-3.60671e-06
0.0012219
0.000186855
-2.15508e-06
0.00108469
0.000139019
-3.26922e-06
0.000986762
9.88421e-05
-2.28811e-06
0.000920372
6.80811e-05
-3.02048e-06
0.00087411
4.72865e-05
-2.34905e-06
0.000842433
3.31387e-05
-2.79764e-06
0.000818947
2.45061e-05
-2.37391e-06
0.000801485
1.8719e-05
-2.63166e-06
0.00078738
1.51053e-05
-2.39689e-06
0.00077556
1.29269e-05
-2.5245e-06
0.000766133
1.04255e-05
-2.43394e-06
0.000756026
1.113e-05
-2.46441e-06
0.000751361
5.71762e-06
-2.49826e-06
0.000739461
1.28986e-05
-2.43563e-06
0.000745611
-5.01016e-06
-2.54401e-06
-6.11485e-06
-2.65598e-06
0.00075295
0.00237441
0.000124098
-8.28323e-06
0.00241869
0.00021373
-1.01627e-05
0.00242452
0.000263896
-7.65459e-06
0.0023992
0.000265973
-8.99582e-06
0.00235205
0.000239889
-7.58033e-06
0.00229726
0.000200845
-8.61698e-06
0.00224018
0.0001622
-7.71325e-06
0.00218647
0.000128878
-8.36989e-06
0.00213631
0.000104056
-7.77467e-06
0.00209124
8.53092e-05
-8.15491e-06
0.00205021
7.2352e-05
-7.79488e-06
0.00201356
6.23938e-05
-7.99025e-06
0.00198036
5.51023e-05
-7.81168e-06
0.00195057
4.94989e-05
-7.88015e-06
0.00192374
4.38812e-05
-7.84234e-06
0.00189927
4.20967e-05
-7.81473e-06
0.00187803
3.34446e-05
-7.90401e-06
0.00185722
3.99955e-05
-7.77519e-06
0.00184117
1.75536e-05
-8.0352e-06
3.14318e-05
-8.04105e-06
0.00181015
0.00236238
8.3746e-05
-4.00102e-06
0.00243069
0.000149939
-6.05601e-06
0.0025013
0.000194852
-3.17781e-06
0.00256539
0.000205118
-4.95509e-06
0.00261271
0.000194004
-3.1809e-06
0.00264531
0.000171196
-4.59488e-06
0.00266366
0.000145812
-3.43665e-06
0.00267274
0.000122842
-4.37469e-06
0.00267445
0.000104722
-3.5964e-06
0.00267204
9.07919e-05
-4.17323e-06
0.00266662
8.04878e-05
-3.67622e-06
0.00265952
7.26703e-05
-4.01277e-06
0.0026515
6.60624e-05
-3.7334e-06
0.00264238
6.16993e-05
-3.90518e-06
0.00263372
5.54273e-05
-3.79451e-06
0.00262346
5.51603e-05
-3.84542e-06
0.00261538
4.42413e-05
-3.86961e-06
0.00260423
5.36725e-05
-3.83197e-06
0.00259679
2.74536e-05
-3.87482e-06
4.83165e-05
-4.01166e-06
0.00258232
0.00235246
5.64644e-05
-7.14882e-06
0.00241086
9.90677e-05
-9.06844e-06
0.00248233
0.000128433
-6.66105e-06
0.00255771
0.000136077
-8.06755e-06
0.00262598
0.000130584
-6.59786e-06
0.0026858
0.000117378
-7.65228e-06
0.00273453
0.000102318
-6.71806e-06
0.00277499
8.84479e-05
-7.39911e-06
0.00280774
7.75194e-05
-6.78899e-06
0.00283544
6.91379e-05
-7.18885e-06
0.0028588
6.29406e-05
-6.81663e-06
0.00287927
5.83676e-05
-7.02502e-06
0.00289719
5.42439e-05
-6.83596e-06
0.00291314
5.19464e-05
-6.91404e-06
0.00292718
4.74804e-05
-6.86779e-06
0.0029399
4.83856e-05
-6.8497e-06
0.00295049
3.95781e-05
-6.9271e-06
0.00296112
4.87356e-05
-6.83009e-06
0.00296684
2.75859e-05
-7.06931e-06
5.04329e-05
-7.07167e-06
0.00297036
0.00235304
2.65528e-05
-5.10529e-06
0.00240965
4.80217e-05
-7.09598e-06
0.00247774
6.32599e-05
-4.52931e-06
0.00255098
6.72007e-05
-6.09055e-06
0.00261966
6.46168e-05
-4.469e-06
0.00268274
5.83195e-05
-5.66301e-06
0.00273714
5.10708e-05
-4.63036e-06
0.00278518
4.44957e-05
-5.41906e-06
0.00282691
3.92857e-05
-4.73852e-06
0.0028647
3.541e-05
-5.21712e-06
0.00289892
3.24881e-05
-4.79179e-06
0.00293098
3.05033e-05
-5.05828e-06
0.00296082
2.8502e-05
-4.82987e-06
0.00298929
2.77423e-05
-4.9516e-06
0.00301557
2.53332e-05
-4.87625e-06
0.00304152
2.64746e-05
-4.89256e-06
0.00306366
2.14158e-05
-4.93781e-06
0.00308892
2.72913e-05
-4.88652e-06
0.00310486
1.54703e-05
-4.97339e-06
2.87692e-05
-5.07296e-06
0.0031303
0.00235069
-1.29986e-10
-6.11199e-06
0.00240524
3.42295e-10
-8.06185e-06
0.00247251
-2.70108e-10
-5.63138e-06
0.00254508
8.13761e-10
-7.09622e-06
0.00261351
-2.09587e-10
-5.56291e-06
0.00267685
1.85224e-09
-6.66433e-06
0.00273214
6.91907e-10
-5.69121e-06
0.00278171
4.21421e-09
-6.41366e-06
0.00282553
4.3509e-09
-5.77859e-06
0.00286599
1.04557e-08
-6.20969e-06
0.00290325
1.42136e-08
-5.81851e-06
0.00293891
3.11932e-08
-6.04974e-06
0.00297249
3.38155e-08
-5.84652e-06
0.00300539
1.01261e-07
-5.94201e-06
0.00303581
6.97809e-08
-5.88535e-06
0.00306702
3.03611e-07
-5.88189e-06
0.00309325
1.79003e-07
-5.94518e-06
0.0031246
7.52472e-07
-5.87548e-06
0.00314431
6.83225e-07
-6.04762e-06
1.52568e-06
-6.08608e-06
0.00317639
0.00235069
-2.65531e-05
-6.11199e-06
0.00240524
-4.8021e-05