/*--------------------------------*- C++ -*----------------------------------*\
  =========                 |
  \\      /  F ield         | OpenFOAM: The Open Source CFD Toolbox
   \\    /   O peration     | Website:  https://openfoam.org
    \\  /    A nd           | Version:  7
     \\/     M anipulation  |
\*---------------------------------------------------------------------------*/
FoamFile
{
    version     2.0;
    format      ascii;
    class       volScalarField;
    location    "1.2925";
    object      k;
}
// * * * * * * * * * * * * * * * * * * * * * * * * * * * * * * * * * * * * * //

dimensions      [0 2 -2 0 0 0 0];

internalField   nonuniform List<scalar> 
7920
(
52.0085
56.4114
56.3829
56.4367
56.3784
56.4333
56.3931
56.4211
56.3725
56.3844
56.3482
56.3622
56.3382
56.3434
56.3266
56.3199
56.3308
56.2837
56.4093
56.4678
13.8369
14.0008
13.4179
12.866
12.6062
12.5133
12.4317
12.4104
12.3653
12.3556
12.3258
12.3209
12.3004
12.2974
12.2862
12.2821
12.2781
12.2674
12.4437
12.4508
8.08528
9.22278
9.33749
9.32083
9.27972
9.27225
9.25189
9.25142
9.23916
9.23879
9.22863
9.22787
9.21891
9.21721
9.20911
9.20633
9.19941
9.19457
9.19817
9.22146
7.48357
8.75529
9.00545
9.09524
9.11807
9.15269
9.16024
9.18188
9.18639
9.20237
9.2056
9.21812
9.21996
9.22819
9.22792
9.2321
9.23017
9.23172
9.23077
9.25179
7.41872
8.70165
8.965
9.07113
9.10746
9.15569
9.17312
9.2086
9.22131
9.24955
9.2605
9.28494
9.29423
9.31413
9.32038
9.33458
9.33792
9.34675
9.34938
9.37329
7.42564
8.69815
8.95986
9.06759
9.10774
9.16082
9.18331
9.2245
9.2418
9.27651
9.29183
9.32263
9.33653
9.36275
9.37327
9.39373
9.40069
9.41476
9.42142
9.44693
7.42564
8.69815
8.95986
9.06759
9.10774
9.16083
9.1833
9.22451
9.2418
9.27652
9.29182
9.32265
9.33651
9.36278
9.37325
9.39377
9.4007
9.41482
9.42148
9.447
7.41872
8.70165
8.96499
9.07114
9.10745
9.15571
9.17311
9.20861
9.2213
9.24957
9.26047
9.28499
9.29419
9.31421
9.32032
9.33473
9.33786
9.34696
9.34942
9.37357
7.48356
8.75529
9.00545
9.09524
9.11806
9.15271
9.16023
9.18191
9.18636
9.20242
9.20554
9.21823
9.21984
9.22837
9.22762
9.23258
9.22964
9.23264
9.23008
9.25271
8.08528
9.22278
9.33748
9.32083
9.27971
9.27226
9.25187
9.25145
9.23911
9.23885
9.22851
9.22802
9.21864
9.21756
9.20846
9.20718
9.19778
9.19751
9.19564
9.22478
13.8369
14.0008
13.4179
12.866
12.6062
12.5133
12.4316
12.4104
12.3652
12.3557
12.3256
12.3211
12.2999
12.2981
12.285
12.284
12.2748
12.273
12.4321
12.4627
52.0085
56.4114
56.3829
56.4367
56.3783
56.4333
56.3929
56.4213
56.3721
56.3849
56.3473
56.3635
56.3361
56.3468
56.321
56.329
56.3153
56.3104
56.3603
56.5494
7.67152
9.6596
9.7359
9.61108
9.58045
9.51693
9.51589
9.47624
9.47511
9.44616
9.44765
9.42774
9.43007
9.41398
9.41659
9.40186
9.40888
9.38822
9.40013
9.43572
6.01953
8.24354
8.57752
8.62091
8.62743
8.63265
8.63429
8.63525
8.63328
8.63044
8.6273
8.62442
8.62239
8.61878
8.61753
8.61303
8.61306
8.60785
8.61555
8.61824
5.70272
7.90292
8.25054
8.31881
8.32918
8.3474
8.35452
8.36973
8.37593
8.38715
8.39152
8.39891
8.40186
8.4056
8.4077
8.4083
8.41021
8.40792
8.40928
8.43773
5.69423
7.89447
8.23988
8.30509
8.30816
8.31719
8.3179
8.32557
8.32892
8.33789
8.34236
8.35082
8.35519
8.36061
8.36382
8.36565
8.36805
8.36669
8.3682
8.38524
5.68244
7.87892
8.22446
8.29165
8.29403
8.30184
8.30013
8.3053
8.30582
8.31183
8.31443
8.32179
8.3251
8.3312
8.33326
8.33638
8.3369
8.33774
8.33698
8.35577
5.68878
7.88696
8.23159
8.29836
8.30066
8.30846
8.30657
8.31152
8.31144
8.31666
8.31861
8.32541
8.3283
8.33448
8.33619
8.33952
8.33964
8.34058
8.33885
8.35682
5.68878
7.88696
8.23158
8.29836
8.30066
8.30847
8.30656
8.31152
8.31144
8.31667
8.31861
8.32542
8.32829
8.33449
8.33617
8.33953
8.33962
8.34059
8.33888
8.35679
5.68244
7.87892
8.22446
8.29165
8.29402
8.30184
8.30013
8.30532
8.30581
8.31185
8.3144
8.32184
8.325
8.33132
8.33313
8.33653
8.33677
8.33784
8.33682
8.35583
5.69423
7.89448
8.23987
8.3051
8.30815
8.3172
8.31789
8.3256
8.32889
8.33795
8.34224
8.35099
8.35495
8.36096
8.36333
8.36626
8.3674
8.36738
8.36753
8.38564
5.70272
7.90293
8.25053
8.31882
8.32917
8.34742
8.3545
8.36976
8.37586
8.38725
8.39136
8.39914
8.40152
8.40615
8.40695
8.4093
8.40878
8.40997
8.40654
8.4401
6.01953
8.24355
8.57751
8.62092
8.62742
8.63267
8.63426
8.63528
8.63322
8.63055
8.62714
8.62467
8.62199
8.61941
8.61666
8.61453
8.61077
8.61127
8.60964
8.62618
7.67152
9.6596
9.73589
9.61108
9.58045
9.51695
9.51587
9.47627
9.47506
9.44624
9.44752
9.42796
9.42975
9.41453
9.41577
9.40336
9.40655
9.3927
9.39319
9.44762
0.477013
1.03652
1.13564
1.1073
1.03507
0.969449
0.918376
0.8822
0.855439
0.834951
0.820289
0.807153
0.798175
0.788456
0.782487
0.775095
0.770673
0.766406
0.759105
0.76747
0.0858605
0.381959
0.525904
0.588098
0.610363
0.624505
0.631595
0.639331
0.643167
0.647237
0.648564
0.650137
0.650202
0.650346
0.649982
0.649713
0.648999
0.648552
0.647808
0.650495
0.0642134
0.299664
0.415925
0.474238
0.492755
0.506511
0.509799
0.516475
0.518851
0.523937
0.526425
0.530839
0.533476
0.537046
0.539694
0.542507
0.54506
0.547338
0.549049
0.553413
0.0680903
0.303359
0.417247
0.473081
0.491142
0.502591
0.504397
0.507608
0.507884
0.50914
0.509535
0.510666
0.511277
0.512301
0.513326
0.514036
0.515441
0.516019
0.517206
0.520371
0.0662481
0.299353
0.412122
0.467956
0.485578
0.496978
0.498493
0.501427
0.501336
0.501995
0.501867
0.502247
0.502201
0.50239
0.502437
0.502475
0.502605
0.502575
0.502706
0.504658
0.0672798
0.301589
0.414761
0.470377
0.488152
0.499434
0.501103
0.503962
0.503913
0.50451
0.504384
0.504683
0.504596
0.504682
0.504639
0.504477
0.504428
0.504165
0.504163
0.505843
0.0672797
0.301589
0.414761
0.470377
0.488152
0.499434
0.501103
0.503962
0.503913
0.50451
0.504384
0.504683
0.504596
0.504682
0.504638
0.504477
0.504427
0.504167
0.504159
0.50584
0.0662479
0.299353
0.412122
0.467956
0.485578
0.496979
0.498493
0.501427
0.501336
0.501995
0.501867
0.502248
0.502199
0.502391
0.502435
0.502473
0.502602
0.502571
0.502704
0.504649
0.0680899
0.303359
0.417247
0.473081
0.491141
0.502592
0.504396
0.507609
0.507884
0.509142
0.509533
0.510671
0.511265
0.512315
0.513309
0.514041
0.515421
0.516011
0.517182
0.520322
0.064213
0.299664
0.415924
0.474239
0.492754
0.506512
0.509799
0.516476
0.518849
0.523942
0.526413
0.530852
0.533453
0.537071
0.539648
0.542536
0.54499
0.547345
0.548991
0.553308
0.0858602
0.381959
0.525904
0.588099
0.610361
0.624508
0.631591
0.639336
0.643157
0.64725
0.648545
0.650153
0.650186
0.65036
0.64992
0.649734
0.648891
0.648604
0.647648
0.650492
0.477013
1.03652
1.13564
1.1073
1.03507
0.969452
0.918372
0.882208
0.855431
0.834972
0.820271
0.807204
0.798135
0.788578
0.782405
0.775383
0.77049
0.767025
0.758927
0.768602
0.477013
1.03652
1.13564
1.1073
1.03507
0.969449
0.918376
0.8822
0.855439
0.834951
0.820289
0.807153
0.798175
0.788457
0.782487
0.775095
0.770673
0.766406
0.759105
0.76747
0.0858605
0.381959
0.525904
0.588098
0.610363
0.624505
0.631595
0.639331
0.643167
0.647237
0.648564
0.650137
0.650202
0.650346
0.649982
0.649713
0.649
0.648553
0.647808
0.650495
0.0642134
0.299664
0.415925
0.474238
0.492755
0.506511
0.509799
0.516475
0.518851
0.523937
0.526425
0.530839
0.533476
0.537046
0.539694
0.542507
0.545061
0.547338
0.549049
0.553413
0.0680903
0.303359
0.417247
0.473081
0.491142
0.502591
0.504397
0.507608
0.507884
0.50914
0.509535
0.510666
0.511277
0.512301
0.513326
0.514036
0.515441
0.516019
0.517206
0.520371
0.0662481
0.299353
0.412122
0.467956
0.485578
0.496978
0.498493
0.501427
0.501336
0.501995
0.501867
0.502247
0.502201
0.50239
0.502437
0.502475
0.502605
0.502575
0.502706
0.504658
0.0672798
0.301589
0.414761
0.470377
0.488152
0.499434
0.501103
0.503962
0.503913
0.50451
0.504384
0.504683
0.504596
0.504682
0.504639
0.504477
0.504428
0.504165
0.504163
0.505843
0.0672797
0.301589
0.414761
0.470377
0.488152
0.499434
0.501103
0.503962
0.503913
0.50451
0.504384
0.504684
0.504596
0.504682
0.504638
0.504477
0.504427
0.504167
0.504158
0.50584
0.0662479
0.299353
0.412122
0.467956
0.485578
0.496979
0.498493
0.501427
0.501336
0.501995
0.501867
0.502248
0.502199
0.502391
0.502435
0.502473
0.502602
0.502571
0.502704
0.504649
0.0680899
0.303359
0.417247
0.473081
0.491141
0.502592
0.504396
0.507609
0.507884
0.509142
0.509533
0.510671
0.511265
0.512315
0.513309
0.514041
0.515421
0.516011
0.517182
0.520322
0.064213
0.299664
0.415924
0.474239
0.492754
0.506512
0.509799
0.516476
0.518849
0.523942
0.526413
0.530852
0.533453
0.537071
0.539648
0.542536
0.54499
0.547345
0.54899
0.553308
0.0858602
0.381959
0.525904
0.588099
0.610361
0.624508
0.631591
0.639336
0.643157
0.64725
0.648545
0.650153
0.650186
0.65036
0.649919
0.649734
0.648891
0.648604
0.647648
0.650492
0.477013
1.03652
1.13564
1.1073
1.03507
0.969452
0.918372
0.882208
0.855431
0.834972
0.820271
0.807204
0.798135
0.788577
0.782405
0.775383
0.77049
0.767026
0.758927
0.768603
7.67152
9.6596
9.7359
9.61108
9.58045
9.51693
9.51589
9.47623
9.47511
9.44616
9.44765
9.42774
9.43007
9.41398
9.41659
9.40187
9.40888
9.38822
9.40013
9.43572
6.01953
8.24354
8.57752
8.62091
8.62743
8.63265
8.63429
8.63525
8.63328
8.63044
8.6273
8.62442
8.62239
8.61879
8.61753
8.61303
8.61306
8.60785
8.61555
8.61824
5.70272
7.90292
8.25054
8.31881
8.32918
8.3474
8.35452
8.36973
8.37593
8.38715
8.39152
8.39891
8.40186
8.4056
8.4077
8.4083
8.41021
8.40792
8.40929
8.43773
5.69423
7.89447
8.23988
8.30509
8.30816
8.31719
8.3179
8.32557
8.32892
8.33789
8.34236
8.35082
8.35519
8.36061
8.36382
8.36565
8.36805
8.36669
8.3682
8.38524
5.68244
7.87892
8.22446
8.29165
8.29403
8.30184
8.30013
8.3053
8.30582
8.31183
8.31443
8.32179
8.3251
8.3312
8.33326
8.33638
8.3369
8.33774
8.33698
8.35577
5.68878
7.88696
8.23159
8.29836
8.30066
8.30846
8.30657
8.31152
8.31144
8.31666
8.31861
8.32541
8.3283
8.33448
8.33619
8.33952
8.33964
8.34058
8.33885
8.35682
5.68878
7.88696
8.23158
8.29836
8.30066
8.30847
8.30656
8.31152
8.31144
8.31667
8.31861
8.32542
8.32829
8.33449
8.33618
8.33954
8.33962
8.34059
8.33888
8.35679
5.68244
7.87892
8.22446
8.29165
8.29402
8.30184
8.30013
8.30532
8.30581
8.31185
8.3144
8.32184
8.325
8.33132
8.33313
8.33653
8.33677
8.33784
8.33682
8.35583
5.69423
7.89448
8.23987
8.3051
8.30815
8.3172
8.31789
8.3256
8.32889
8.33795
8.34224
8.35099
8.35495
8.36096
8.36333
8.36626
8.3674
8.36738
8.36753
8.38564
5.70272
7.90293
8.25053
8.31882
8.32917
8.34742
8.3545
8.36976
8.37586
8.38725
8.39136
8.39915
8.40152
8.40615
8.40695
8.4093
8.40878
8.40996
8.40653
8.4401
6.01953
8.24355
8.57751
8.62092
8.62742
8.63267
8.63427
8.63528
8.63322
8.63055
8.62714
8.62467
8.62199
8.61941
8.61666
8.61452
8.61077
8.61127
8.60964
8.62618
7.67152
9.6596
9.73589
9.61108
9.58045
9.51695
9.51587
9.47627
9.47506
9.44624
9.44752
9.42796
9.42975
9.41453
9.41577
9.40336
9.40655
9.3927
9.39319
9.44762
52.0085
56.4114
56.3829
56.4367
56.3784
56.4332
56.3931
56.4211
56.3725
56.3843
56.3482
56.3622
56.3382
56.3434
56.3266
56.3199
56.3308
56.2837
56.4093
56.4678
13.8369
14.0008
13.4179
12.866
12.6062
12.5133
12.4317
12.4104
12.3653
12.3556
12.3258
12.3209
12.3004
12.2974
12.2862
12.2821
12.2781
12.2674
12.4437
12.4508
8.08528
9.22278
9.33749
9.32083
9.27972
9.27225
9.25189
9.25142
9.23916
9.23879
9.22863
9.22787
9.21891
9.21721
9.20911
9.20633
9.19942
9.19457
9.19818
9.22146
7.48357
8.75529
9.00545
9.09524
9.11807
9.15269
9.16024
9.18188
9.18639
9.20237
9.2056
9.21812
9.21996
9.22819
9.22792
9.2321
9.23017
9.23172
9.23077
9.25179
7.41872
8.70165
8.965
9.07113
9.10746
9.15569
9.17312
9.2086
9.22131
9.24955
9.2605
9.28494
9.29423
9.31413
9.32038
9.33458
9.33792
9.34675
9.34938
9.37329
7.42564
8.69815
8.95986
9.06759
9.10774
9.16082
9.18331
9.2245
9.2418
9.27651
9.29183
9.32263
9.33653
9.36275
9.37327
9.39373
9.40069
9.41476
9.42142
9.44693
7.42564
8.69815
8.95986
9.06759
9.10774
9.16083
9.1833
9.22451
9.2418
9.27652
9.29182
9.32265
9.33651
9.36278
9.37325
9.39377
9.4007
9.41482
9.42148
9.447
7.41872
8.70165
8.96499
9.07114
9.10745
9.15571
9.17311
9.20861
9.2213
9.24957
9.26047
9.28499
9.29419
9.31422
9.32032
9.33473
9.33786
9.34696
9.34942
9.37357
7.48356
8.75529
9.00545
9.09524
9.11806
9.15271
9.16023
9.18191
9.18636
9.20242
9.20554
9.21823
9.21984
9.22837
9.22762
9.23258
9.22964
9.23264
9.23007
9.25271
8.08528
9.22278
9.33748
9.32083
9.27971
9.27226
9.25187
9.25145
9.23911
9.23885
9.22852
9.22802
9.21864
9.21756
9.20846
9.20718
9.19778
9.19751
9.19563
9.22477
13.8369
14.0008
13.4179
12.866
12.6062
12.5133
12.4316
12.4104
12.3652
12.3557
12.3256
12.3211
12.2999
12.2981
12.285
12.284
12.2748
12.273
12.4321
12.4626
52.0085
56.4114
56.3829
56.4368
56.3783
56.4333
56.393
56.4213
56.3721
56.3849
56.3473
56.3635
56.3361
56.3468
56.321
56.329
56.3153
56.3104
56.3603
56.5494
143.986
146.21
147.321
148.193
148.823
149.416
149.932
150.465
150.924
151.352
151.695
152.013
152.279
152.536
152.748
152.94
153.081
153.196
153.268
153.325
153.353
153.378
153.386
153.398
153.399
153.405
153.404
153.41
153.408
153.413
153.412
153.416
153.416
153.42
153.419
153.423
153.423
153.427
153.426
153.43
153.43
153.434
153.434
153.437
153.438
153.441
153.441
153.445
153.445
153.449
153.449
153.452
153.453
153.456
153.457
153.46
153.461
153.464
153.465
153.468
153.469
153.472
153.473
153.476
153.477
153.48
153.48
153.483
153.484
153.487
153.487
153.49
153.491
153.493
153.494
153.496
153.497
153.499
153.5
153.502
153.503
153.503
153.505
153.505
153.506
153.507
153.504
153.508
153.476
153.452
47.2638
49.0803
49.4372
49.7423
49.9304
50.1422
50.298
50.4905
50.6329
50.7909
50.8974
51.0174
51.0999
51.199
51.2656
51.3428
51.3871
51.4383
51.4604
51.4913
51.4994
51.5188
51.5208
51.535
51.5352
51.5474
51.5474
51.5588
51.5592
51.5703
51.5711
51.5818
51.5831
51.5936
51.5952
51.6054
51.6074
51.6175
51.6197
51.6296
51.632
51.6418
51.6445
51.654
51.657
51.6664
51.6695
51.6788
51.6821
51.6911
51.6946
51.7035
51.7071
51.7158
51.7195
51.7281
51.7318
51.7402
51.7439
51.7522
51.7558
51.7639
51.7675
51.7753
51.7789
51.7865
51.7899
51.7972
51.8004
51.8074
51.8104
51.8171
51.8199
51.8263
51.8288
51.8347
51.8369
51.8424
51.8444
51.8493
51.851
51.8553
51.8568
51.8604
51.8613
51.8648
51.864
51.8685
51.8519
51.842
30.5052
32.572
32.8003
33.0136
33.1147
33.2617
33.3399
33.4752
33.5569
33.6781
33.7423
33.8368
33.8852
33.9652
34.0071
34.0756
34.1067
34.1587
34.176
34.2126
34.2201
34.2466
34.2499
34.2716
34.2736
34.2933
34.2955
34.3144
34.3172
34.3356
34.339
34.357
34.361
34.3787
34.3832
34.4006
34.4055
34.4226
34.4279
34.4448
34.4504
34.467
34.4729
34.4893
34.4955
34.5115
34.518
34.5337
34.5404
34.5559
34.5626
34.5779
34.5848
34.5997
34.6066
34.6213
34.6283
34.6426
34.6495
34.6635
34.6704
34.684
34.6907
34.7039
34.7105
34.7233
34.7296
34.7419
34.748
34.7598
34.7655
34.7768
34.7821
34.7928
34.7976
34.8078
34.8121
34.8216
34.8254
34.8342
34.8375
34.8454
34.8482
34.8553
34.8572
34.8639
34.8646
34.8709
34.8683
34.8484
28.2958
30.749
30.975
31.176
31.2556
31.3882
31.4389
31.5581
31.6239
31.7446
31.8017
31.8976
31.9387
32.0203
32.059
32.1345
32.1677
32.2298
32.2509
32.2966
32.3073
32.341
32.3465
32.374
32.3779
32.4028
32.4068
32.4307
32.4352
32.4586
32.4638
32.4868
32.4928
32.5154
32.5219
32.5442
32.5512
32.5732
32.5807
32.6023
32.6102
32.6315
32.6397
32.6607
32.6692
32.6899
32.6986
32.7189
32.7279
32.7479
32.757
32.7766
32.7858
32.8051
32.8143
32.8332
32.8424
32.8609
32.8701
32.8881
32.8972
32.9147
32.9236
32.9406
32.9493
32.9657
32.9741
32.99
32.998
33.0132
33.0208
33.0354
33.0424
33.0563
33.0628
33.0759
33.0818
33.0941
33.0993
33.1107
33.1153
33.1257
33.1296
33.1392
33.1422
33.151
33.1529
33.1606
33.1637
33.1408
28.1483
30.8314
31.0626
31.2595
31.3245
31.4474
31.4776
31.581
31.6346
31.7532
31.8058
31.9029
31.9395
32.0213
32.0586
32.1388
32.1748
32.2447
32.2696
32.3224
32.3358
32.3748
32.382
32.4136
32.4187
32.447
32.4521
32.4791
32.4849
32.5113
32.5178
32.5439
32.5512
32.5769
32.5848
32.6101
32.6186
32.6436
32.6525
32.6772
32.6866
32.7108
32.7206
32.7446
32.7546
32.7782
32.7886
32.8118
32.8223
32.8452
32.8559
32.8783
32.8892
32.9112
32.9221
32.9437
32.9545
32.9757
32.9865
33.0071
33.0178
33.0378
33.0483
33.0678
33.078
33.0968
33.1067
33.1249
33.1344
33.1518
33.1608
33.1775
33.1859
33.2018
33.2096
33.2247
33.2317
33.2459
33.2522
33.2654
33.2709
33.2831
33.2878
33.299
33.3027
33.313
33.3158
33.3242
33.3299
33.3049
28.2443
31.0693
31.2996
31.4861
31.5363
31.6442
31.6573
31.743
31.7846
31.8949
31.9418
32.0354
32.0676
32.1465
32.182
32.263
32.3002
32.3737
32.4005
32.4569
32.4719
32.5135
32.5216
32.5551
32.5608
32.5907
32.5963
32.6248
32.631
32.6589
32.666
32.6935
32.7014
32.7285
32.7371
32.7638
32.773
32.7994
32.8091
32.8351
32.8453
32.871
32.8815
32.9068
32.9177
32.9427
32.9538
32.9784
32.9898
33.014
33.0255
33.0493
33.0609
33.0843
33.096
33.1189
33.1306
33.153
33.1646
33.1864
33.198
33.2192
33.2305
33.2512
33.2622
33.2822
33.2929
33.3122
33.3224
33.341
33.3506
33.3685
33.3775
33.3945
33.4029
33.4189
33.4266
33.4417
33.4486
33.4627
33.4688
33.4819
33.487
33.4991
33.5033
33.5142
33.5177
33.5263
33.5336
33.5077
28.2462
31.0596
31.2706
31.4359
31.4674
31.5555
31.5548
31.6255
31.6564
31.7554
31.795
31.8812
31.909
31.9837
32.0171
32.0961
32.1323
32.205
32.2315
32.2874
32.3023
32.3438
32.3519
32.3852
32.3909
32.4206
32.4262
32.4546
32.4609
32.4886
32.4957
32.5231
32.531
32.558
32.5665
32.5932
32.6024
32.6287
32.6384
32.6643
32.6745
32.7001
32.7106
32.7359
32.7467
32.7716
32.7827
32.8072
32.8185
32.8427
32.8542
32.8779
32.8895
32.9128
32.9245
32.9473
32.959
32.9813
32.9929
33.0147
33.0262
33.0474
33.0587
33.0793
33.0903
33.1102
33.1208
33.1401
33.1503
33.1688
33.1785
33.1962
33.2052
33.2222
33.2305
33.2466
33.2542
33.2693
33.2762
33.2903
33.2963
33.3094
33.3145
33.3265
33.3307
33.3416
33.3452
33.3537
33.361
33.3355
28.1512
30.7913
30.958
31.0895
31.0988
31.1639
31.1537
31.2145
31.2369
31.3234
31.3549
31.4316
31.456
31.5261
31.5575
31.6322
31.6656
31.7333
31.7571
31.8089
31.822
31.8605
31.8676
31.8988
31.9038
31.9318
31.9368
31.9636
31.9693
31.9955
32.002
32.0278
32.035
32.0605
32.0683
32.0934
32.1018
32.1266
32.1355
32.1599
32.1692
32.1933
32.203
32.2268
32.2368
32.2602
32.2704
32.2935
32.3039
32.3266
32.3372
32.3595
32.3702
32.3921
32.4029
32.4243
32.4351
32.456
32.4667
32.4872
32.4978
32.5177
32.5281
32.5474
32.5576
32.5763
32.5861
32.6041
32.6135
32.6308
32.6397
32.6563
32.6646
32.6805
32.6881
32.7031
32.7101
32.7242
32.7304
32.7436
32.7491
32.7612
32.7658
32.777
32.7807
32.7909
32.7938
32.8019
32.8081
32.7844
28.2786
30.6214
30.729
30.8204
30.8096
30.855
30.8407
30.8941
30.9115
30.9849
31.0097
31.0763
31.0992
31.1644
31.1944
31.2625
31.292
31.3512
31.3708
31.4152
31.4254
31.4585
31.4637
31.4908
31.4945
31.5191
31.5229
31.5465
31.551
31.574
31.5792
31.6019
31.6077
31.6301
31.6365
31.6585
31.6655
31.6871
31.6945
31.7159
31.7237
31.7447
31.7528
31.7736
31.782
31.8024
31.811
31.8311
31.8399
31.8597
31.8687
31.888
31.8971
31.9161
31.9253
31.9439
31.9531
31.9713
31.9804
31.9981
32.0071
32.0244
32.0332
32.05
32.0586
32.0748
32.0831
32.0988
32.1067
32.1218
32.1292
32.1436
32.1506
32.1643
32.1707
32.1837
32.1895
32.2016
32.2068
32.2181
32.2226
32.2331
32.2368
32.2463
32.2492
32.2579
32.2601
32.2673
32.2707
32.2495
30.3968
32.2335
32.2742
32.331
32.3064
32.3396
32.3277
32.3777
32.394
32.4566
32.4782
32.5376
32.5627
32.6246
32.6555
32.7162
32.7426
32.7914
32.8069
32.842
32.849
32.8748
32.8778
32.8991
32.901
32.9203
32.9225
32.941
32.9437
32.9618
32.9651
32.9829
32.9868
33.0042
33.0086
33.0258
33.0306
33.0475
33.0527
33.0693
33.0748
33.0912
33.097
33.1131
33.1192
33.135
33.1414
33.1569
33.1635
33.1787
33.1854
33.2004
33.2072
33.2219
33.2287
33.2432
33.25
33.2641
33.2709
33.2847
33.2915
33.3049
33.3115
33.3245
33.3309
33.3435
33.3497
33.3619
33.3678
33.3795
33.385
33.3962
33.4014
33.412
33.4167
33.4267
33.431
33.4403
33.444
33.4527
33.4559
33.4639
33.4663
33.4736
33.4754
33.4819
33.4829
33.4886
33.4874
33.4696
46.8325
48.1557
48.1707
48.2074
48.1793
48.2052
48.2056
48.2613
48.2923
48.3582
48.3943
48.4613
48.5066
48.5795
48.629
48.6947
48.7319
48.7784
48.7978
48.8267
48.8339
48.8524
48.8541
48.8677
48.8678
48.8796
48.8796
48.8907
48.8911
48.9018
48.9026
48.9131
48.9143
48.9246
48.9261
48.9362
48.9381
48.948
48.9501
48.9599
48.9623
48.9719
48.9745
48.9839
48.9868
48.9961
48.9991
49.0082
49.0114
49.0204
49.0238
49.0325
49.036
49.0447
49.0482
49.0567
49.0603
49.0686
49.0722
49.0803
49.0839
49.0918
49.0954
49.103
49.1065
49.1139
49.1172
49.1244
49.1276
49.1345
49.1374
49.144
49.1467
49.1529
49.1553
49.1612
49.1633
49.1688
49.1705
49.1755
49.1769
49.1815
49.1824
49.1865
49.1869
49.1905
49.19
49.1937
49.1786
49.1702
142.235
142.92
142.992
143.049
143.018
143.051
143.092
143.216
143.335
143.486
143.616
143.775
143.929
144.109
144.269
144.427
144.546
144.647
144.711
144.762
144.787
144.81
144.817
144.827
144.828
144.834
144.832
144.837
144.836
144.84
144.839
144.843
144.842
144.846
144.845
144.849
144.848
144.852
144.851
144.855
144.855
144.858
144.858
144.862
144.862
144.865
144.865
144.869
144.869
144.872
144.873
144.876
144.876
144.88
144.88
144.883
144.884
144.887
144.888
144.891
144.891
144.894
144.895
144.898
144.898
144.901
144.902
144.905
144.905
144.908
144.908
144.911
144.911
144.914
144.914
144.916
144.917
144.919
144.919
144.921
144.921
144.923
144.923
144.924
144.924
144.925
144.923
144.925
144.897
144.877
30.1691
30.9652
31.2056
31.3762
31.51
31.6319
31.7427
31.8556
31.9511
32.0422
32.1121
32.1819
32.2361
32.2941
32.3363
32.3804
32.4072
32.4354
32.4481
32.4646
32.469
32.4794
32.4801
32.4879
32.4875
32.4944
32.494
32.5005
32.5003
32.5067
32.5067
32.513
32.5133
32.5195
32.5199
32.526
32.5267
32.5327
32.5336
32.5395
32.5406
32.5464
32.5477
32.5534
32.5548
32.5604
32.562
32.5675
32.5692
32.5746
32.5764
32.5818
32.5836
32.5889
32.5909
32.596
32.598
32.6031
32.6051
32.61
32.612
32.6169
32.6188
32.6235
32.6254
32.63
32.6318
32.6362
32.6379
32.6421
32.6437
32.6477
32.6492
32.653
32.6543
32.6579
32.6591
32.6625
32.6635
32.6666
32.6676
32.6704
32.6713
32.674
32.6748
32.6777
32.6779
32.6823
32.6783
32.6787
28.0263
29.3933
29.6355
29.808
29.936
30.0548
30.1591
30.2686
30.3623
30.4527
30.5226
30.5912
30.6454
30.7023
30.7461
30.7906
30.8201
30.8494
30.865
30.8823
30.8891
30.8997
30.9024
30.91
30.9114
30.9179
30.9191
30.9252
30.9264
30.9323
30.9336
30.9394
30.9409
30.9466
30.9482
30.9538
30.9555
30.961
30.9628
30.9682
30.9701
30.9753
30.9773
30.9825
30.9846
30.9897
30.9918
30.9968
30.999
31.0039
31.0061
31.0109
31.0131
31.0179
31.0201
31.0248
31.0271
31.0316
31.0339
31.0383
31.0406
31.045
31.0472
31.0515
31.0537
31.0578
31.06
31.064
31.0661
31.0699
31.0719
31.0757
31.0776
31.0812
31.083
31.0864
31.088
31.0913
31.0928
31.0958
31.0973
31.1
31.1013
31.1039
31.1048
31.1077
31.1077
31.1111
31.111
31.1137
25.8225
27.6853
27.9456
28.109
28.229
28.3318
28.422
28.5169
28.6055
28.6903
28.7596
28.8226
28.8748
28.9267
28.9711
29.0144
29.0476
29.0774
29.0967
29.1137
29.1229
29.132
29.1358
29.1413
29.1431
29.1472
29.1485
29.1521
29.1533
29.1567
29.1579
29.1613
29.1625
29.1658
29.1671
29.1703
29.1717
29.1748
29.1762
29.1793
29.1807
29.1837
29.1851
29.1881
29.1895
29.1925
29.1939
29.1968
29.1982
29.201
29.2025
29.2052
29.2067
29.2094
29.2108
29.2134
29.2149
29.2174
29.2189
29.2214
29.2228
29.2252
29.2266
29.229
29.2304
29.2327
29.2341
29.2363
29.2376
29.2398
29.2411
29.2433
29.2445
29.2465
29.2477
29.2497
29.2508
29.2527
29.2538
29.2555
29.2565
29.2582
29.2591
29.2607
29.2613
29.263
29.263
29.2649
29.2646
29.2435
25.0922
27.188
27.4426
27.5914
27.6996
27.7869
27.8596
27.9397
28.021
28.1031
28.172
28.2326
28.2827
28.332
28.377
28.4217
28.4592
28.4924
28.5161
28.5353
28.547
28.5564
28.5613
28.566
28.568
28.5709
28.5719
28.5741
28.575
28.577
28.5779
28.5799
28.5807
28.5827
28.5835
28.5854
28.5863
28.5882
28.589
28.5909
28.5918
28.5936
28.5945
28.5963
28.5972
28.5989
28.5998
28.6016
28.6024
28.6042
28.605
28.6067
28.6076
28.6093
28.6101
28.6118
28.6126
28.6142
28.6151
28.6167
28.6176
28.6191
28.62
28.6215
28.6223
28.6238
28.6247
28.6261
28.6269
28.6284
28.6292
28.6306
28.6314
28.6327
28.6335
28.6348
28.6355
28.6368
28.6375
28.6387
28.6394
28.6405
28.6411
28.6422
28.6426
28.6438
28.6437
28.645
28.6452
28.6292
24.6538
26.8956
27.1314
27.2592
27.3504
27.4202
27.4732
27.5361
27.6062
27.6826
27.7483
27.8059
27.8525
27.8987
27.9425
27.9879
28.0279
28.0641
28.0912
28.1129
28.1267
28.1374
28.1431
28.148
28.1501
28.1528
28.1537
28.1556
28.1562
28.1579
28.1584
28.1601
28.1607
28.1623
28.1629
28.1645
28.1651
28.1666
28.1673
28.1688
28.1695
28.171
28.1717
28.1732
28.1738
28.1753
28.176
28.1775
28.1782
28.1796
28.1803
28.1817
28.1824
28.1838
28.1845
28.1859
28.1866
28.188
28.1887
28.19
28.1908
28.1921
28.1928
28.1941
28.1948
28.1961
28.1968
28.198
28.1987
28.2
28.2007
28.2019
28.2025
28.2037
28.2044
28.2055
28.2061
28.2072
28.2079
28.2089
28.2095
28.2104
28.2109
28.2119
28.2121
28.2132
28.213
28.2139
28.214
28.1901
24.5693
26.8449
27.0544
27.1572
27.2285
27.2798
27.3146
27.3607
27.4188
27.4869
27.547
27.5998
27.6422
27.685
27.7269
27.7721
27.813
27.8511
27.88
27.9035
27.9186
27.9303
27.9366
27.942
27.9443
27.9471
27.948
27.95
27.9506
27.9523
27.9529
27.9545
27.9551
27.9567
27.9572
27.9588
27.9594
27.961
27.9616
27.9632
27.9638
27.9653
27.9659
27.9674
27.9681
27.9696
27.9702
27.9717
27.9724
27.9738
27.9745
27.9759
27.9766
27.978
27.9786
27.98
27.9807
27.9821
27.9828
27.9841
27.9848
27.9861
27.9868
27.9881
27.9888
27.99
27.9907
27.992
27.9926
27.9939
27.9945
27.9957
27.9964
27.9975
27.9981
27.9993
27.9999
28.0009
28.0015
28.0025
28.0031
28.004
28.0045
28.0054
28.0057
28.0067
28.0067
28.0075
28.0076
27.9858
24.5696
26.8335
27.024
27.106
27.1584
27.1929
27.2133
27.2463
27.2934
27.3519
27.4044
27.451
27.4888
27.5283
27.5678
27.6115
27.6514
27.6888
27.7172
27.7405
27.7554
27.767
27.7733
27.7786
27.7809
27.7837
27.7846
27.7866
27.7872
27.7889
27.7894
27.7911
27.7916
27.7932
27.7938
27.7954
27.796
27.7976
27.7982
27.7997
27.8004
27.8019
27.8025
27.804
27.8047
27.8062
27.8068
27.8083
27.8089
27.8104
27.8111
27.8125
27.8132
27.8146
27.8152
27.8166
27.8173
27.8187
27.8194
27.8207
27.8214
27.8227
27.8234
27.8247
27.8254
27.8267
27.8273
27.8286
27.8293
27.8305
27.8311
27.8323
27.833
27.8341
27.8348
27.8359
27.8365
27.8376
27.8381
27.8392
27.8397
27.8407
27.8411
27.8421
27.8423
27.8433
27.8433
27.844
27.8442
27.8228
24.6539
26.8519
27.0278
27.0941
27.1303
27.1513
27.1629
27.1884
27.2274
27.2769
27.3211
27.3614
27.3954
27.4323
27.4698
27.5111
27.5484
27.5828
27.6087
27.6298
27.6431
27.6535
27.6591
27.6639
27.666
27.6686
27.6694
27.6713
27.6719
27.6736
27.6741
27.6757
27.6763
27.6779
27.6785
27.6801
27.6807
27.6823
27.6829
27.6845
27.6851
27.6866
27.6873
27.6888
27.6895
27.691
27.6916
27.6931
27.6938
27.6952
27.6959
27.6974
27.6981
27.6995
27.7002
27.7016
27.7023
27.7036
27.7044
27.7057
27.7064
27.7077
27.7085
27.7098
27.7105
27.7117
27.7125
27.7137
27.7144
27.7156
27.7163
27.7175
27.7182
27.7194
27.72
27.7212
27.7218
27.7229
27.7235
27.7245
27.7251
27.7261
27.7265
27.7276
27.7278
27.7288
27.7288
27.7294
27.7299
27.707
25.0727
27.0646
27.2069
27.2543
27.2748
27.286
27.2943
27.3167
27.3503
27.3915
27.428
27.4633
27.4949
27.5308
27.5668
27.6054
27.639
27.6696
27.6918
27.7099
27.721
27.7301
27.7348
27.7393
27.7412
27.744
27.745
27.7471
27.7479
27.75
27.7507
27.7527
27.7535
27.7554
27.7563
27.7582
27.759
27.7609
27.7617
27.7636
27.7644
27.7662
27.7671
27.7689
27.7698
27.7715
27.7724
27.7741
27.775
27.7767
27.7776
27.7793
27.7802
27.7818
27.7827
27.7843
27.7852
27.7868
27.7876
27.7892
27.7901
27.7916
27.7925
27.794
27.7948
27.7963
27.7971
27.7986
27.7994
27.8008
27.8016
27.803
27.8038
27.8051
27.8059
27.8072
27.808
27.8092
27.8099
27.8111
27.8117
27.8129
27.8135
27.8146
27.815
27.8161
27.8163
27.8172
27.8174
27.8028
25.7415
27.4108
27.5084
27.5372
27.5453
27.5522
27.5612
27.585
27.6143
27.6499
27.6806
27.714
27.745
27.782
27.8164
27.8529
27.8819
27.9089
27.9266
27.9425
27.951
27.9596
27.9632
27.9685
27.9702
27.9741
27.9753
27.9788
27.9799
27.9833
27.9844
27.9877
27.9889
27.9921
27.9933
27.9965
27.9978
28.0009
28.0022
28.0053
28.0066
28.0096
28.011
28.0139
28.0153
28.0181
28.0195
28.0224
28.0238
28.0265
28.0279
28.0306
28.032
28.0347
28.0361
28.0386
28.04
28.0426
28.044
28.0464
28.0478
28.0502
28.0515
28.0539
28.0552
28.0575
28.0588
28.061
28.0623
28.0644
28.0657
28.0678
28.0689
28.071
28.0721
28.074
28.0751
28.0769
28.0779
28.0797
28.0806
28.0823
28.0831
28.0848
28.0852
28.0869
28.0871
28.0886
28.0894
28.0699
27.7983
28.8759
28.9131
28.925
28.9226
28.9303
28.9408
28.9691
28.9953
29.0307
29.0581
29.095
29.1267
29.168
29.2014
29.239
29.2642
29.2906
29.3046
29.3207
29.3268
29.3369
29.3394
29.3467
29.348
29.3543
29.3554
29.3613
29.3625
29.3682
29.3695
29.3752
29.3766
29.3821
29.3837
29.3891
29.3908
29.3961
29.3979
29.4031
29.405
29.4102
29.4121
29.4171
29.4191
29.4241
29.4262
29.4311
29.4332
29.438
29.4401
29.4448
29.447
29.4516
29.4538
29.4583
29.4606
29.465
29.4672
29.4715
29.4737
29.478
29.4801
29.4843
29.4864
29.4904
29.4925
29.4964
29.4984
29.5022
29.5041
29.5078
29.5096
29.5131
29.5148
29.5181
29.5197
29.5229
29.5243
29.5273
29.5285
29.5314
29.5323
29.5352
29.5358
29.5386
29.5388
29.5418
29.5423
29.5459
29.7671
30.2251
30.2432
30.242
30.236
30.24
30.2503
30.2772
30.3011
30.3344
30.3599
30.397
30.4281
30.4702
30.502
30.5391
30.5615
30.5869
30.598
30.6134
30.6171
30.627
30.6275
30.635
30.6346
30.6413
30.6408
30.6472
30.6469
30.6532
30.6531
30.6593
30.6595
30.6656
30.666
30.672
30.6726
30.6785
30.6794
30.6852
30.6862
30.6919
30.6931
30.6987
30.7001
30.7056
30.7071
30.7125
30.7141
30.7195
30.7212
30.7265
30.7283
30.7334
30.7353
30.7404
30.7423
30.7473
30.7492
30.7541
30.756
30.7607
30.7626
30.7672
30.7691
30.7735
30.7753
30.7796
30.7812
30.7854
30.7869
30.7908
30.7922
30.796
30.7972
30.8008
30.8019
30.8052
30.8061
30.8092
30.81
30.813
30.8136
30.8165
30.8169
30.82
30.8202
30.8241
30.8204
30.8211
3.64424
3.85508
3.88203
3.89587
3.916
3.93565
3.95551
3.97821
3.99492
4.01661
4.02911
4.04936
4.05903
4.07811
4.08535
4.10253
4.10738
4.12245
4.1255
4.13899
4.14104
4.15357
4.1552
4.16714
4.16868
4.1802
4.18179
4.19297
4.19467
4.20552
4.20736
4.21792
4.21991
4.23018
4.23234
4.24235
4.24467
4.25444
4.25691
4.26645
4.26907
4.2784
4.28116
4.29028
4.29318
4.3021
4.30511
4.31385
4.31696
4.32551
4.32871
4.33707
4.34033