/*--------------------------------*- C++ -*----------------------------------*\
  =========                 |
  \\      /  F ield         | OpenFOAM: The Open Source CFD Toolbox
   \\    /   O peration     | Website:  https://openfoam.org
    \\  /    A nd           | Version:  7
     \\/     M anipulation  |
\*---------------------------------------------------------------------------*/
FoamFile
{
    version     2.0;
    format      ascii;
    class       volScalarField;
    location    "2.65";
    object      nut;
}
// * * * * * * * * * * * * * * * * * * * * * * * * * * * * * * * * * * * * * //

dimensions      [0 2 -1 0 0 0 0];

internalField   nonuniform List<scalar> 
4800
(
0.000180866
0.000418799
0.00067537
0.000898666
0.00108509
0.00123287
0.00134575
0.00142682
0.00148289
0.00151654
0.00153607
0.00153938
0.00153614
0.00152746
0.0015121
0.00149363
0.00147319
0.00145167
0.00142968
0.0014077
0.00138607
0.00136503
0.00134473
0.0013253
0.00130679
0.00128923
0.00127263
0.00125698
0.00124225
0.00122839
0.00121539
0.00120317
0.00119171
0.00118094
0.00117081
0.00116129
0.00115232
0.00114387
0.00113587
0.00112831
0.00112113
0.00111431
0.00110782
0.00110162
0.0010957
0.00109003
0.00108458
0.00107934
0.0010743
0.00106943
0.00106473
0.00106017
0.00105575
0.00105146
0.00104729
0.00104322
0.00103927
0.00103541
0.00103164
0.00102795
0.00102435
0.00102083
0.00101737
0.00101399
0.00101067
0.00100741
0.00100422
0.00100106
0.000998002
0.000994903
0.000992001
0.000988897
0.000986221
0.000982966
0.000980651
0.000976998
0.000975014
0.000970956
0.000967493
0.00097286
9.7003e-06
3.46866e-05
7.80444e-05
0.000135936
0.000210569
0.000291567
0.000372712
0.000447435
0.000515377
0.000573694
0.000623654
0.000664755
0.000697983
0.000724836
0.000745867
0.000762087
0.000774318
0.000783401
0.000789912
0.00079451
0.000797527
0.000799493
0.000800519
0.000801081
0.000801064
0.000800933
0.00080064
0.000800253
0.000799852
0.00079949
0.000799179
0.000798951
0.000798792
0.00079873
0.00079875
0.000798816
0.000798954
0.000799152
0.000799394
0.00079967
0.000799972
0.000800289
0.000800618
0.000800946
0.000801273
0.000801585
0.000801887
0.000802165
0.000802428
0.000802664
0.000802876
0.000803056
0.000803214
0.000803335
0.000803434
0.000803492
0.000803532
0.000803529
0.000803509
0.000803468
0.000803385
0.000803297
0.000803158
0.000803028
0.000802832
0.000802668
0.000802417
0.00080223
0.000801927
0.000801732
0.000801379
0.000801181
0.00080078
0.000800577
0.000800131
0.000799932
0.000799404
0.000799178
0.000798228
0.000798885
6.6516e-06
6.81455e-06
8.07271e-06
1.21509e-05
2.02422e-05
3.22997e-05
4.86403e-05
6.86665e-05
9.08368e-05
0.000114092
0.000137512
0.000160613
0.000182678
0.000203533
0.000222855
0.000240603
0.000256665
0.000271137
0.000284027
0.000295489
0.000305585
0.00031448
0.000322259
0.000329069
0.000335009
0.000340188
0.000344717
0.000348672
0.000352147
0.000355199
0.00035791
0.000360318
0.000362495
0.000364461
0.000366282
0.000367961
0.00036956
0.000371065
0.000372545
0.000373967
0.000375401
0.000376799
0.00037824
0.000379657
0.000381139
0.000382602
0.000384145
0.000385668
0.000387286
0.000388879
0.000390578
0.00039224
0.000394022
0.000395751
0.000397611
0.000399399
0.000401334
0.000403175
0.000405179
0.000407062
0.000409133
0.000411051
0.000413181
0.000415121
0.000417306
0.000419257
0.000421494
0.000423442
0.00042573
0.000427666
0.00043001
0.00043192
0.000434329
0.000436197
0.000438686
0.000440496
0.000443115
0.000444881
0.000447741
0.000449612
6.65483e-06
6.65589e-06
6.66318e-06
6.69328e-06
6.80522e-06
7.14145e-06
7.96138e-06
9.5627e-06
1.24934e-05
1.56992e-05
2.07245e-05
2.55084e-05
3.15597e-05
3.72961e-05
4.37712e-05
4.98472e-05
5.6313e-05
6.22922e-05
6.84462e-05
7.40639e-05
7.97316e-05
8.48342e-05
8.99255e-05
9.44546e-05
9.89555e-05
0.000102915
0.000106857
0.000110285
0.000113716
0.000116664
0.000119645
0.000122173
0.000124768
0.000126934
0.0001292
0.000131059
0.000133054
0.000134657
0.000136434
0.00013783
0.000139432
0.000140657
0.000142119
0.000143207
0.000144562
0.000145541
0.000146813
0.000147704
0.000148917
0.000149738
0.000150911
0.000151679
0.000152828
0.000153558
0.000154695
0.000155395
0.000156529
0.000157206
0.000158346
0.000159006
0.000160161
0.000160814
0.000161991
0.000162641
0.000163846
0.000164498
0.000165736
0.000166393
0.000167666
0.000168332
0.000169644
0.000170325
0.00017168
0.000172384
0.000173791
0.000174527
0.00017602
0.000176816
0.000178482
0.000179419
6.65619e-06
6.6558e-06
6.65857e-06
6.66584e-06
6.6832e-06
6.70279e-06
6.74376e-06
6.78483e-06
6.87411e-06
6.97164e-06
7.18729e-06
7.41323e-06
7.89095e-06
8.30792e-06
9.14628e-06
9.75717e-06
1.09418e-05
1.16955e-05
1.31318e-05
1.39649e-05
1.5544e-05
1.64032e-05
1.80322e-05
1.88798e-05
2.04913e-05
2.13049e-05
2.28513e-05
2.36337e-05
2.50848e-05
2.5834e-05
2.71823e-05
2.78832e-05
2.91354e-05
2.97896e-05
3.09544e-05
3.15609e-05
3.26491e-05
3.32134e-05
3.42386e-05
3.47693e-05
3.57425e-05
3.62404e-05
3.7165e-05
3.76337e-05
3.85163e-05
3.89618e-05
3.98083e-05
4.02318e-05
4.10452e-05
4.14501e-05
4.22343e-05
4.26243e-05
4.3383e-05
4.37591e-05
4.44955e-05
4.48597e-05
4.55743e-05
4.59273e-05
4.6621e-05
4.69627e-05
4.76389e-05
4.79726e-05
4.8634e-05
4.89615e-05
4.96116e-05
4.99341e-05
5.05749e-05
5.08934e-05
5.15268e-05
5.18422e-05
5.24705e-05
5.27842e-05
5.34097e-05
5.37224e-05
5.43491e-05
5.46648e-05
5.5306e-05
5.56357e-05
5.63288e-05
5.66992e-05
6.65723e-06
6.65615e-06
6.65803e-06
6.66387e-06
6.67848e-06
6.69475e-06
6.72985e-06
6.75555e-06
6.80922e-06
6.84215e-06
6.90946e-06
6.94676e-06
7.02229e-06
7.06205e-06
7.1425e-06
7.1841e-06
7.26872e-06
7.31247e-06
7.40194e-06
7.44848e-06
7.54409e-06
7.59414e-06
7.69713e-06
7.75097e-06
7.86149e-06
7.91912e-06
8.03706e-06
8.0984e-06
8.22344e-06
8.28821e-06
8.41974e-06
8.48744e-06
8.62445e-06
8.69481e-06
8.83684e-06
8.90953e-06
9.05598e-06
9.13071e-06
9.28109e-06
9.35777e-06
9.51185e-06
9.59022e-06
9.74743e-06
9.82717e-06
9.98697e-06
1.00679e-05
1.02301e-05
1.03124e-05
1.04772e-05
1.05608e-05
1.0728e-05
1.08126e-05
1.09819e-05
1.10675e-05
1.12387e-05
1.1325e-05
1.14976e-05
1.15844e-05
1.17578e-05
1.18449e-05
1.20186e-05
1.21059e-05
1.22802e-05
1.23681e-05
1.25437e-05
1.26323e-05
1.28095e-05
1.28989e-05
1.30775e-05
1.31676e-05
1.33474e-05
1.34379e-05
1.36188e-05
1.371e-05
1.38926e-05
1.39848e-05
1.41709e-05
1.4266e-05
1.44618e-05
1.4564e-05
6.65708e-06
6.65625e-06
6.65812e-06
6.66397e-06
6.6786e-06
6.69488e-06
6.73e-06
6.75571e-06
6.80932e-06
6.84219e-06
6.90942e-06
6.94667e-06
7.02205e-06
7.06174e-06
7.14211e-06
7.18369e-06
7.2682e-06
7.31183e-06
7.40105e-06
7.44735e-06
7.54244e-06
7.5921e-06
7.69426e-06
7.74781e-06
7.85792e-06
7.91538e-06
8.03293e-06
8.09407e-06
8.21861e-06
8.28309e-06
8.41408e-06
8.48169e-06
8.61858e-06
8.68895e-06
8.83081e-06
8.90349e-06
9.04992e-06
9.12468e-06
9.2748e-06
9.35124e-06
9.50457e-06
9.58262e-06
9.73921e-06
9.81901e-06
9.97898e-06
1.00603e-05
1.02231e-05
1.03056e-05
1.04706e-05
1.0554e-05
1.07208e-05
1.08051e-05
1.09734e-05
1.10583e-05
1.12277e-05
1.13131e-05
1.14835e-05
1.15694e-05
1.17411e-05
1.18278e-05
1.2001e-05
1.20882e-05
1.22622e-05
1.23494e-05
1.2523e-05
1.26099e-05
1.27829e-05
1.28693e-05
1.30416e-05
1.31277e-05
1.32994e-05
1.33851e-05
1.35565e-05
1.36422e-05
1.38143e-05
1.39005e-05
1.40749e-05
1.41626e-05
1.43438e-05
1.44363e-05
6.6559e-06
6.65607e-06
6.65875e-06
6.66609e-06
6.68347e-06
6.70304e-06
6.74384e-06
6.78457e-06
6.87302e-06
6.96944e-06
7.18333e-06
7.40668e-06
7.88201e-06
8.29512e-06
9.13054e-06
9.73666e-06
1.09187e-05
1.16682e-05
1.31033e-05
1.39321e-05
1.55092e-05
1.63646e-05
1.79929e-05
1.88389e-05
2.04537e-05
2.12667e-05
2.28155e-05
2.35969e-05
2.50447e-05
2.57912e-05
2.71368e-05
2.78364e-05
2.90909e-05
2.97384e-05
3.09093e-05
3.15142e-05
3.26117e-05
3.31757e-05
3.42044e-05
3.4731e-05
3.57048e-05
3.62007e-05
3.71257e-05
3.75954e-05
3.84797e-05
3.89265e-05
3.97727e-05
4.01983e-05
4.10112e-05
4.14171e-05
4.22019e-05
4.25905e-05
4.33465e-05
4.37195e-05
4.44494e-05
4.48082e-05
4.55167e-05
4.58657e-05
4.65563e-05
4.68972e-05
4.75715e-05
4.79038e-05
4.85607e-05
4.88842e-05
4.95247e-05
4.98404e-05
5.04658e-05
5.07746e-05
5.13871e-05
5.16896e-05
5.22902e-05
5.25871e-05
5.31787e-05
5.34718e-05
5.40599e-05
5.43522e-05
5.49477e-05
5.52468e-05
5.58817e-05
5.62098e-05
6.65435e-06
6.6563e-06
6.66316e-06
6.69252e-06
6.80175e-06
7.13187e-06
7.94118e-06
9.52818e-06
1.2446e-05
1.56372e-05
2.06755e-05
2.54222e-05
3.15044e-05
3.72133e-05
4.3705e-05
4.97583e-05
5.62397e-05
6.22072e-05
6.83746e-05
7.39764e-05
7.96497e-05
8.47419e-05
8.98472e-05
9.43757e-05
9.88938e-05
0.000102851
0.0001068
0.000110219
0.000113654
0.00011659
0.000119575
0.000122092
0.000124694
0.000126851
0.000129132
0.000130987
0.000132997
0.000134596
0.000136383
0.00013777
0.000139377
0.000140593
0.000142061
0.000143141
0.000144503
0.000145473
0.000146753
0.000147636
0.000148858
0.000149671
0.000150851
0.000151608
0.000152759
0.000153474
0.000154609
0.000155294
0.000156426
0.00015709
0.00015823
0.000158881
0.000160034
0.000160675
0.000161843
0.000162477
0.000163663
0.000164292
0.000165502
0.000166133
0.000167369
0.000168006
0.000169267
0.000169913
0.000171201
0.00017186
0.000173186
0.000173865
0.000175254
0.000175972
0.000177505
0.000178341
6.65074e-06
6.80598e-06
8.03387e-06
1.20739e-05
2.01312e-05
3.21688e-05
4.85097e-05
6.85241e-05
9.06854e-05
0.000113935
0.000137368
0.000160483
0.00018256
0.000203417
0.000222741
0.000240489
0.000256557
0.000271031
0.000283925
0.000295385
0.000305483
0.000314378
0.000322165
0.000328981
0.000334931
0.000340113
0.000344646
0.000348596
0.000352071
0.000355116
0.000357829
0.00036023
0.000362413
0.000364374
0.000366206
0.000367882
0.000369493
0.000370994
0.000372483
0.000373895
0.000375337
0.000376723
0.000378173
0.000379577
0.000381071
0.000382519
0.000384079
0.000385585
0.000387221
0.000388791
0.000390509
0.000392139
0.000393941
0.000395633
0.000397519
0.000399266
0.000401233
0.000403027
0.000405069
0.000406895
0.000409005
0.00041085
0.000413024
0.000414875
0.00041711
0.000418953
0.000421249
0.000423072
0.000425429
0.000427213
0.000429626
0.000431353
0.000433829
0.000435486
0.000438035
0.000439616
0.000442252
0.000443787
0.000446552
0.000448255
9.44942e-06
3.44062e-05
7.7729e-05
0.000135628
0.000210292
0.000291315
0.000372483
0.000447213
0.000515163
0.000573498
0.000623481
0.000664603
0.000697844
0.000724705
0.000745742
0.000761967
0.000774205
0.000783294
0.000789811
0.000794413
0.000797435
0.000799406
0.000800439
0.000801005
0.000800993
0.000800865
0.000800574
0.000800187
0.000799788
0.000799426
0.000799117
0.000798892
0.000798735
0.000798677
0.0007987
0.000798768
0.00079891
0.000799109
0.000799351
0.000799627
0.000799928
0.000800246
0.000800574
0.000800902
0.000801228
0.000801541
0.000801842
0.00080212
0.000802381
0.000802614
0.000802822
0.000803002
0.000803153
0.000803275
0.000803369
0.00080343
0.000803465
0.00080346
0.000803437
0.00080339
0.000803295
0.000803197
0.000803043
0.000802902
0.000802693
0.000802518
0.000802253
0.000802057
0.000801732
0.000801521
0.000801132
0.000800911
0.000800467
0.000800234
0.000799735
0.000799488
0.000798885
0.000798552
0.000797364
0.000797874
0.000180831
0.000418827
0.000675395
0.000898696
0.00108512
0.00123291
0.00134579
0.00142687
0.00148295
0.0015166
0.00153613
0.00153944
0.0015362
0.00152751
0.00151215
0.00149368
0.00147324
0.00145171
0.00142972
0.00140774
0.00138611
0.00136507
0.00134478
0.00132534
0.00130683
0.00128927
0.00127267
0.00125702
0.00124228
0.00122843
0.00121542
0.00120321
0.00119174
0.00118097
0.00117085
0.00116133
0.00115236
0.0011439
0.00113591
0.00112834
0.00112117
0.00111435
0.00110786
0.00110167
0.00109575
0.00109008
0.00108463
0.0010794
0.00107436
0.0010695
0.0010648
0.00106026
0.00105585
0.00105157
0.00104741
0.00104336
0.00103942
0.00103557
0.00103182
0.00102817
0.00102459
0.0010211
0.00101768
0.00101434
0.00101106
0.00100786
0.00100472
0.00100164
0.000998634
0.000995657
0.000992797
0.00098989
0.000987215
0.000984284
0.000981869
0.000978746
0.000976506
0.000973184
0.000969348
0.000974978
0.00259476
0.00284459
0.00287792
0.00286511
0.00283823
0.00281128
0.00278787
0.00276656
0.00274679
0.00272836
0.0027112
0.00269529
0.00268054
0.00266683
0.00265407
0.00264218
0.00263111
0.00262079
0.00261118
0.0026022
0.0025938
0.00258595
0.0025786
0.00257171
0.00256525
0.0025592
0.00255352
0.0025482
0.00254322
0.00253853
0.00253414
0.00253002
0.00252615
0.00252251
0.0025191
0.00251589
0.00251288
0.00251006
0.0025074
0.00250492
0.00250259
0.00250041
0.00249837
0.00249647
0.0024947
0.00249306
0.00249153
0.00249013
0.00248883
0.00248765
0.00248657
0.00248559
0.0024847
0.0024839
0.00248319
0.00248257
0.00248202
0.00248155
0.00248114
0.00248081
0.00248053
0.00248032
0.00248016
0.00248005
0.00248
0.00247999
0.00248002
0.00248011
0.00248023
0.00248039
0.00248058
0.00248081
0.00248108
0.00248137
0.0024817
0.00248206
0.00248244
0.00248285
0.00248328
0.00248373
0.0024842
0.00248469
0.0024852
0.00248573
0.00248627
0.00248682
0.00248739
0.00248796
0.00248855
0.00248914
0.00248974
0.00249035
0.00249096
0.00249158
0.0024922
0.00249282
0.00249345
0.00249408
0.00249471
0.00249535
0.00249598
0.00249662
0.00249726
0.00249789
0.00249853
0.00249917
0.00249981
0.00250044
0.00250108
0.00250171
0.00250234
0.00250297
0.00250359
0.00250421
0.00250483
0.00250545
0.00250606
0.00250667
0.00250727
0.00250787
0.00250847
0.00250906
0.00250964
0.00251023
0.0025108
0.00251138
0.00251195
0.00251251
0.00251307
0.00251363
0.00251419
0.00251474
0.00251529
0.00251583
0.00251637
0.00251691
0.00251745
0.00251798
0.00251851
0.00251904
0.00251957
0.0025201
0.00252062
0.00252114
0.00252165
0.00252217
0.00252268
0.00252319
0.0025237
0.00252421
0.00252471
0.00252521
0.00252571
0.00252621
0.00252671
0.0025272
0.0025277
0.00252819
0.00252868
0.00252917
0.00252966
0.00253015
0.00253063
0.00253112
0.00253161
0.0025321
0.00253259
0.00253308
0.00253357
0.00253406
0.00253455
0.00253504
0.00253553
0.00253602
0.00253651
0.00253701
0.0025375
0.00253799
0.00253849
0.00253898
0.00253947
0.00253997
0.00254046
0.00254096
0.00254145
0.00254195
0.00254244
0.00254294
0.00254344
0.00254393
0.00254443
0.00254493
0.00254543
0.00254593
0.00254643
0.00254694
0.00254744
0.00254795
0.00254846
0.00254897
0.00254948
0.00254999
0.00255051
0.00255102
0.00255154
0.00255206
0.00255258
0.0025531
0.00255362
0.00255414
0.00255466
0.00255518
0.00255571
0.00255623
0.00255675
0.00255728
0.0025578
0.00255833
0.00255885
0.00255938
0.00255991
0.00256044
0.00256096
0.00256149
0.00256203
0.00256256
0.00256309
0.00256363
0.00256416
0.0025647
0.00256524
0.00256578
0.00256632
0.00256686
0.0025674
0.00256794
0.00256849
0.00256903
0.00256958
0.00257012
0.00257067
0.00257121
0.00257176
0.00257231
0.00257285
0.0025734
0.00257395
0.00257449
0.00257504
0.00257559
0.00257613
0.00257668
0.00257723
0.00257778
0.00257832
0.00257887
0.00257942
0.00257997
0.00258053
0.00258108
0.00258163
0.00258218
0.00258274
0.00258329
0.00258385
0.00258441
0.00258496
0.00258552
0.00258608
0.00258663
0.00258719
0.00258775
0.00258831
0.00258886
0.00258942
0.00258998
0.00259053
0.00259109
0.00259164
0.0025922
0.00259275
0.00259331
0.00259386
0.00259442
0.00259497
0.00259553
0.00259608
0.00259664
0.00259719
0.00259775
0.0025983
0.00259886
0.00259942
0.00259997
0.00260053
0.00260109
0.00260165
0.00260221
0.00260276
0.00260332
0.00260388
0.00260444
0.002605
0.00260557
0.00260612
0.00260669
0.00260724
0.00260782
0.00260836
0.00260894
0.00260948
0.00261008
0.00261058
0.00261123
0.00261167
0.0026124
0.00261276
0.00261358
0.00261384
0.00261481
0.00190185
0.00234766
0.00256187
0.00265347
0.0026855
0.00268503
0.00267882
0.00266526
0.00264984
0.00263484
0.00262081
0.0026079
0.00259613
0.00258542
0.00257566
0.00256676
0.00255863
0.00255118
0.00254433
0.00253801
0.00253217
0.00252676
0.00252175
0.00251712
0.00251282
0.00250884
0.00250516
0.00250177
0.00249863
0.00249574
0.00249308
0.00249062
0.00248837
0.00248631
0.00248441
0.00248268
0.0024811
0.00247967
0.00247837
0.0024772
0.00247614
0.0024752
0.00247437
0.00247364
0.002473
0.00247246
0.00247201
0.00247164
0.00247135
0.00247114
0.00247099
0.00247093
0.00247093
0.00247097
0.00247108
0.00247126
0.00247148
0.00247175
0.00247207
0.00247242
0.00247282
0.00247325
0.00247372
0.00247422
0.00247475
0.00247531
0.00247589
0.0024765
0.00247713
0.00247779
0.00247846
0.00247915
0.00247986
0.00248059
0.00248133
0.00248209
0.00248287
0.00248365
0.00248445
0.00248526
0.00248608
0.00248691
0.00248775
0.0024886
0.00248945
0.00249032
0.00249118
0.00249206
0.00249293
0.00249381
0.00249469
0.00249558
0.00249647
0.00249736
0.00249825
0.00249914
0.00250003
0.00250092
0.00250181
0.0025027
0.00250359
0.00250447
0.00250536
0.00250624
0.00250712
0.002508
0.00250888
0.00250976
0.00251063
0.0025115
0.00251237
0.00251324
0.0025141
0.00251496
0.00251582
0.00251667
0.00251753
0.00251837
0.00251922
0.00252005
0.00252089
0.00252172
0.00252255
0.00252337
0.00252418
0.002525
0.0025258
0.00252661
0.0025274
0.0025282
0.00252898
0.00252977
0.00253055
0.00253132
0.00253209
0.00253286
0.00253362
0.00253438
0.00253513
0.00253589
0.00253663
0.00253738
0.00253812
0.00253886
0.00253959
0.00254032
0.00254105
0.00254178
0.0025425
0.00254322
0.00254394
0.00254465
0.00254536
0.00254606
0.00254677
0.00254746
0.00254816
0.00254885
0.00254954
0.00255023
0.00255091
0.00255159
0.00255226
0.00255294
0.00255361
0.00255428
0.00255494
0.00255561
0.00255627
0.00255693
0.00255759
0.00255825
0.00255891
0.00255956
0.00256022
0.00256087
0.00256152
0.00256217
0.00256282
0.00256346
0.00256411
0.00256475
0.0025654
0.00256604
0.00256667
0.00256731
0.00256795
0.00256858
0.00256921
0.00256984
0.00257047
0.00257109
0.00257172
0.00257234
0.00257296
0.00257358
0.0025742
0.00257482
0.00257544
0.00257606
0.00257668
0.00257729
0.00257791
0.00257853
0.00257914
0.00257976
0.00258038
0.00258099
0.00258161
0.00258222
0.00258284
0.00258345
0.00258406
0.00258467
0.00258529
0.0025859
0.0025865
0.00258711
0.00258772
0.00258833
0.00258893
0.00258954
0.00259014
0.00259074
0.00259134
0.00259195
0.00259255
0.00259315
0.00259375
0.00259435
0.00259495
0.00259555
0.00259615
0.00259675
0.00259735
0.00259795
0.00259856
0.00259916
0.00259976
0.00260036
0.00260096
0.00260156
0.00260217
0.00260277
0.00260337
0.00260397
0.00260457
0.00260517
0.00260576
0.00260636
0.00260696
0.00260755
0.00260815
0.00260875
0.00260934
0.00260993
0.00261053
0.00261112
0.00261171
0.00261231
0.0026129
0.00261349
0.00261409
0.00261468
0.00261527
0.00261587
0.00261646
0.00261706
0.00261765
0.00261824
0.00261884
0.00261943
0.00262003
0.00262062
0.00262122
0.00262181
0.00262241
0.002623
0.00262359
0.00262419
0.00262478
0.00262537
0.00262596
0.00262655
0.00262714
0.00262773
0.00262831
0.0026289
0.00262949
0.00263007
0.00263066
0.00263125
0.00263183
0.00263242
0.002633
0.00263359
0.00263418
0.00263476
0.00263535
0.00263593
0.00263652
0.00263711
0.00263769
0.00263828
0.00263886
0.00263945
0.00264003
0.00264062
0.00264119
0.0026418
0.00264235
0.00264298
0.00264351
0.00264417
0.00264464
0.00264538
0.00264577
0.00264658
0.00264693
0.00264786
0.000962971
0.00120536
0.00144151
0.00164003
0.00179065
0.00189535
0.00196752
0.00201601
0.00204805
0.00206898
0.00208252
0.00209122
0.00209675
0.00210025
0.00210245
0.00210379
0.0021046
0.00210507
0.00210535
0.00210553
0.00210568
0.00210582
0.00210599
0.0021062
0.00210646
0.00210677
0.00210715
0.00210758
0.00210808
0.00210863
0.00210923
0.0021099
0.00211061
0.00211136
0.00211216
0.002113
0.00211388
0.0021148
0.00211575
0.00211672
0.00211772
0.00211875
0.00211979
0.00212085
0.00212193
0.00212301
0.00212411
0.00212522
0.00212633
0.00212745
0.00212857
0.0021297
0.00213083
0.00213195
0.00213308
0.0021342
0.00213533
0.00213645
0.00213757
0.00213868
0.00213979
0.0021409
0.002142
0.00214309
0.00214418
0.00214525
0.00214633
0.00214739
0.00214844
0.00214949
0.00215052
0.00215155
0.00215256
0.00215357
0.00215457
0.00215555
0.00215653
0.0021575
0.00215846
0.00215942
0.00216036
0.0021613
0.00216223
0.00216316
0.00216408
0.00216499
0.0021659
0.00216681
0.00216771
0.00216861
0.0021695
0.00217039
0.00217127
0.00217215
0.00217303
0.0021739
0.00217477
0.00217563
0.00217649
0.00217734
0.00217819
0.00217904
0.00217988
0.00218072
0.00218155
0.00218238
0.00218321
0.00218403
0.00218484
0.00218566
0.00218647
0.00218728
0.00218808
0.00218889
0.00218969
0.00219048
0.00219128
0.00219207
0.00219287
0.00219365
0.00219444
0.00219523
0.00219601
0.00219679
0.00219757
0.00219834
0.00219911
0.00219988
0.00220065
0.00220141
0.00220217
0.00220293
0.00220368
0.00220443
0.00220517
0.00220591
0.00220665
0.00220738
0.00220811
0.00220884
0.00220956
0.00221028
0.002211
0.00221172
0.00221243
0.00221314
0.00221385
0.00221456
0.00221526
0.00221597
0.00221667
0.00221737
0.00221806
0.00221876
0.00221945
0.00222014
0.00222083
0.00222151
0.00222219
0.00222287
0.00222355
0.00222422
0.00222489
0.00222556
0.00222622
0.00222688
0.00222754
0.00222819
0.00222884
0.00222949
0.00223013
0.00223078
0.00223142
0.00223206
0.0022327
0.00223333
0.00223397
0.0022346
0.00223523
0.00223586
0.00223649
0.00223712
0.00223774
0.00223837
0.00223899
0.00223962
0.00224024
0.00224085
0.00224147
0.00224209
0.0022427
0.00224331
0.00224392
0.00224452
0.00224513
0.00224573
0.00224633
0.00224692
0.00224752
0.00224811
0.0022487
0.00224929
0.00224988
0.00225047
0.00225105
0.00225164
0.00225222
0.0022528
0.00225339
0.00225397
0.00225455
0.00225513
0.00225571
0.00225629
0.00225687
0.00225745
0.00225803
0.00225861
0.00225918
0.00225976
0.00226033
0.0022609
0.00226148
0.00226204
0.00226261
0.00226318
0.00226374
0.00226431
0.00226487
0.00226543
0.00226599
0.00226654
0.0022671
0.00226766
0.00226821
0.00226877
0.00226932
0.00226988
0.00227043
0.00227098
0.00227154
0.00227209
0.00227264
0.0022732
0.00227375
0.00227431
0.00227486
0.00227541
0.00227596
0.00227652
0.00227707
0.00227762
0.00227817
0.00227872
0.00227927
0.00227981
0.00228036
0.0022809
0.00228145
0.00228199
0.00228253
0.00228307
0.00228361
0.00228415
0.00228469
0.00228522
0.00228576
0.0022863
0.00228684
0.00228737
0.00228791
0.00228845
0.00228899
0.00228953
0.00229006
0.0022906
0.00229114
0.00229168
0.00229222
0.00229276
0.0022933
0.00229384
0.00229438
0.00229492
0.00229546
0.002296
0.00229653
0.00229707
0.00229761
0.00229814
0.00229867
0.00229921
0.00229974
0.00230027
0.0023008
0.00230133
0.00230186
0.00230239
0.00230292
0.00230345
0.00230398
0.00230451
0.00230504
0.00230557
0.00230609
0.00230662
0.00230715
0.00230768
0.0023082
0.00230874
0.00230924
0.00230981
0.00231028
0.00231087
0.00231132
0.00231195
0.00231234
0.00231303
0.00231338
0.00231421
0.00036771
0.00042699
0.000509857
0.000612365
0.000724321
0.000833401
0.000934718
0.00102623
0.0011073
0.00117807
0.0012393
0.00129203
0.00133744
0.00137661
0.00141053
0.00144003
0.00146581
0.00148848
0.00150855
0.00152643
0.00154247
0.00155695
0.00157009
0.00158208
0.00159308
0.00160321
0.00161259
0.00162129
0.00162939
0.00163697
0.00164409
0.00165079
0.00165713
0.00166314
0.00166887
0.00167433
0.00167955
0.00168456
0.00168938
0.00169401
0.00169848
0.00170279
0.00170695
0.00171097
0.00171486
0.00171861
0.00172223
0.00172573
0.0017291
0.00173236
0.0017355
0.00173853
0.00174145
0.00174426
0.00174697
0.00174958
0.00175209
0.00175451
0.00175685
0.0017591
0.00176127
0.00176336
0.00176537
0.00176732
0.0017692
0.00177101
0.00177276
0.00177446
0.00177609
0.00177767
0.00177919
0.00178067
0.00178209
0.00178346
0.00178479
0.00178607
0.0017873
0.0017885
0.00178966
0.00179077
0.00179186
0.00179291
0.00179392
0.00179491
0.00179587
0.00179681
0.00179772
0.00179861
0.00179948
0.00180033
0.00180116
0.00180198
0.00180278
0.00180357
0.00180435
0.00180512
0.00180587
0.00180662
0.00180735
0.00180808
0.00180879
0.0018095
0.0018102
0.00181089
0.00181158
0.00181226
0.00181293
0.0018136
0.00181426
0.00181491
0.00181556
0.00181621
0.00181685
0.00181749
0.00181812
0.00181875
0.00181938
0.00182001
0.00182064
0.00182126
0.00182188
0.00182251
0.00182313
0.00182375
0.00182437
0.001825
0.00182562
0.00182624
0.00182687
0.00182749
0.00182811
0.00182873
0.00182936
0.00182998
0.0018306
0.00183122
0.00183184
0.00183245
0.00183307
0.00183368
0.00183429
0.0018349
0.00183551
0.00183612
0.00183672
0.00183732
0.00183793
0.00183853
0.00183913
0.00183973
0.00184033
0.00184093
0.00184153
0.00184213
0.00184273
0.00184333
0.00184393
0.00184453
0.00184513
0.00184573
0.00184633
0.00184692
0.00184752
0.00184812
0.00184871
0.0018493
0.00184989
0.00185048
0.00185107
0.00185165
0.00185223
0.00185281
0.00185339
0.00185396
0.00185453
0.0018551
0.00185567
0.00185623
0.00185679
0.00185736
0.00185792
0.00185848
0.00185904
0.00185959
0.00186015
0.00186071
0.00186127
0.00186182
0.00186238
0.00186294
0.00186349
0.00186404
0.0018646
0.00186515
0.0018657
0.00186625
0.00186679
0.00186733
0.00186787
0.00186841
0.00186895
0.00186948
0.00187001
0.00187054
0.00187107
0.00187159
0.00187211
0.00187263
0.00187315
0.00187367
0.00187418
0.0018747
0.00187521
0.00187573
0.00187624
0.00187675
0.00187726
0.00187778
0.00187829
0.0018788
0.00187931
0.00187982
0.00188033
0.00188084
0.00188135
0.00188186
0.00188236
0.00188286
0.00188337
0.00188387
0.00188436
0.00188486
0.00188535
0.00188584
0.00188633
0.00188682
0.00188731
0.00188779
0.00188827
0.00188875
0.00188923
0.00188971
0.00189019
0.00189067
0.00189115
0.00189163
0.00189211
0.00189258
0.00189306
0.00189354
0.00189402
0.0018945
0.00189498
0.00189546
0.00189593
0.00189641
0.00189689
0.00189736
0.00189784
0.00189831
0.00189878
0.00189925
0.00189972
0.00190019
0.00190065
0.00190112
0.00190158
0.00190204
0.0019025
0.00190296
0.00190342
0.00190388
0.00190433
0.00190479
0.00190525
0.0019057
0.00190616
0.00190662
0.00190708
0.00190754
0.001908
0.00190846
0.00190892
0.00190938
0.00190984
0.00191031
0.00191077
0.00191123
0.00191169
0.00191216
0.00191262
0.00191308
0.00191354
0.001914
0.00191446
0.00191492
0.00191537
0.00191583
0.00191628
0.00191674
0.00191719
0.00191765
0.00191809
0.00191855
0.00191899
0.00191945
0.00191989
0.00192036
0.00192079
0.00192126
0.00192168
0.00192216
0.00192257
0.00192307
0.00192345
0.00192399
0.00192432
0.0019249
0.0019252
0.00192592
0.000114468
0.000126639
0.000141694
0.000162298
0.000190682
0.000225624
0.000265595
0.00030935
0.00035564
0.000403114
0.000450672
0.000497488
0.000543037
0.000586975
0.0006291
0.000669298
0.000707524
0.000743774
0.000778085
0.000810522
0.000841164
0.000870101
0.000897424
0.00092323
0.000947601
0.000970632
0.000992404
0.00101301
0.00103251
0.00105098
0.00106848
0.00108507
0.00110081
0.00111575
0.00112993
0.00114342
0.00115623
0.00116843
0.00118002
0.00119106
0.00120156
0.00121156
0.00122109
0.00123017
0.00123881
0.00124703
0.00125485
0.00126228
0.00126933
0.00127603
0.00128239
0.00128841
0.00129412
0.00129953
0.00130464
0.00130948
0.00131404
0.00131835
0.00132242
0.00132626
0.00132989
0.00133332
0.00133656
0.00133962
0.00134251
0.00134524
0.00134782
0.00135026
0.00135257
0.00135476
0.00135683
0.00135878
0.00136064
0.00136239
0.00136405
0.00136561
0.00136709
0.00136849
0.00136982
0.00137107
0.00137225
0.00137336
0.00137442
0.00137542
0.00137635
0.00137724
0.00137808
0.00137888
0.00137964
0.00138036
0.00138105
0.00138171
0.00138234
0.00138294
0.00138352
0.00138408
0.00138462
0.00138514
0.00138565
0.00138614
0.00138661
0.00138708
0.00138753
0.00138798
0.00138841
0.00138884
0.00138926
0.00138967
0.00139007
0.00139047
0.00139086
0.00139125
0.00139163
0.001392
0.00139238
0.00139274
0.00139311
0.00139347
0.00139383
0.00139419
0.00139455
0.0013949
0.00139526
0.00139561
0.00139597
0.00139633
0.00139669
0.00139706
0.00139743
0.0013978
0.00139817
0.00139855
0.00139893
0.00139932
0.0013997
0.0014001
0.00140049
0.00140089
0.00140129
0.00140169
0.0014021
0.0014025
0.00140291
0.00140332
0.00140372
0.00140413
0.00140454
0.00140495
0.00140536
0.00140577
0.00140618
0.00140659
0.001407
0.00140742
0.00140783
0.00140825
0.00140867
0.00140909
0.00140952
0.00140995
0.00141038
0.00141082
0.00141125
0.00141169
0.00141214
0.00141258
0.00141303
0.00141348
0.00141392
0.00141437
0.00141482
0.00141527
0.00141572
0.00141617
0.00141661
0.00141706
0.0014175
0.00141794
0.00141838
0.00141882
0.00141925
0.00141969
0.00142012
0.00142056
0.00142099
0.00142142
0.00142186
0.00142229
0.00142273
0.00142316
0.0014236
0.00142404
0.00142448
0.00142492
0.00142536
0.0014258
0.00142625
0.00142669
0.00142713
0.00142757
0.00142801
0.00142845
0.00142889
0.00142933
0.00142976
0.00143019
0.00143062
0.00143104
0.00143147
0.00143189
0.0014323
0.00143272
0.00143313
0.00143354
0.00143395
0.00143436
0.00143477
0.00143518
0.00143559
0.001436
0.00143641
0.00143682
0.00143723
0.00143764
0.00143805
0.00143846
0.00143888
0.00143929
0.0014397
0.00144011
0.00144052
0.00144093
0.00144134
0.00144174
0.00144215
0.00144255
0.00144294
0.00144334
0.00144373
0.00144412
0.00144451
0.00144489
0.00144528
0.00144566
0.00144604
0.00144642
0.00144679
0.00144717
0.00144755
0.00144792
0.0014483
0.00144868
0.00144905
0.00144943
0.00144981
0.00145019
0.00145057
0.00145095
0.00145133
0.00145171
0.00145209
0.00145247
0.00145285
0.00145323
0.0014536
0.00145397
0.00145435
0.00145472
0.00145508
0.00145545
0.00145581
0.00145617
0.00145653
0.00145689
0.00145725
0.0014576
0.00145796
0.00145831
0.00145866
0.00145902
0.00145937
0.00145972
0.00146008
0.00146043
0.00146079
0.00146115
0.00146151
0.00146187
0.00146223
0.00146259
0.00146295
0.00146332
0.00146368
0.00146405
0.00146441
0.00146477
0.00146513
0.0014655
0.00146585
0.00146622
0.00146657
0.00146693
0.00146728
0.00146764
0.00146799
0.00146835
0.00146869
0.00146906
0.00146939
0.00146976
0.00147008
0.00147047
0.00147077
0.00147117
0.00147145
0.00147188
0.00147213
0.00147258
0.00147281
0.00147338
2.91941e-05
3.14319e-05
3.39155e-05
3.67424e-05
4.03824e-05
4.51007e-05
5.11172e-05
5.87092e-05
6.811e-05
7.93155e-05
9.22175e-05
0.000106696
0.000122567
0.000139665
0.000157821
0.000176881
0.00019667
0.000217044
0.000237857
0.000258971
0.000280265
0.000301644
0.000323011
0.000344287
0.000365387
0.000386243
0.000406777
0.000426937
0.00044667
0.00046593
0.00048469
0.00050292
0.000520597
0.000537705
0.000554241
0.000570191
0.000585548
0.000600312
0.000614488
0.000628082
0.000641104
0.000653566
0.000665481
0.000676864
0.000687727