/*--------------------------------*- C++ -*----------------------------------*\
  =========                 |
  \\      /  F ield         | OpenFOAM: The Open Source CFD Toolbox
   \\    /   O peration     | Website:  https://openfoam.org
    \\  /    A nd           | Version:  7
     \\/     M anipulation  |
\*---------------------------------------------------------------------------*/
FoamFile
{
    version     2.0;
    format      ascii;
    class       volScalarField;
    location    "0.78";
    object      alphat;
}
// * * * * * * * * * * * * * * * * * * * * * * * * * * * * * * * * * * * * * //

dimensions      [1 -1 -1 0 0 0 0];

internalField   nonuniform List<scalar> 
1600
(
1.43861e-07
1.16182e-07
8.7764e-08
7.14322e-08
6.0874e-08
5.32852e-08
4.74339e-08
4.26834e-08
3.87051e-08
3.53249e-08
3.24373e-08
2.99659e-08
2.78482e-08
2.60302e-08
2.44655e-08
2.31155e-08
2.19476e-08
2.09348e-08
2.00546e-08
1.9288e-08
1.86188e-08
1.80335e-08
1.75205e-08
1.70702e-08
1.66745e-08
1.63266e-08
1.60206e-08
1.57518e-08
1.55159e-08
1.53094e-08
1.51291e-08
1.49727e-08
1.48381e-08
1.47236e-08
1.46272e-08
1.4545e-08
1.44665e-08
1.43651e-08
1.41335e-08
1.30252e-08
1.40495e-07
1.42372e-07
1.3207e-07
1.16748e-07
1.02783e-07
9.12118e-08
8.16945e-08
7.37248e-08
6.69481e-08
6.11446e-08
5.61658e-08
5.18955e-08
4.82331e-08
4.50887e-08
4.23835e-08
4.00506e-08
3.80337e-08
3.62861e-08
3.47686e-08
3.34479e-08
3.22962e-08
3.12897e-08
3.04082e-08
2.96348e-08
2.89554e-08
2.83581e-08
2.78329e-08
2.73712e-08
2.69658e-08
2.66104e-08
2.62999e-08
2.60299e-08
2.57968e-08
2.55977e-08
2.54298e-08
2.5288e-08
2.51611e-08
2.50294e-08
2.48673e-08
2.46954e-08
1.33545e-07
1.42216e-07
1.42031e-07
1.35554e-07
1.24809e-07
1.13809e-07
1.03546e-07
9.42947e-08
8.60845e-08
7.88717e-08
7.25871e-08
6.71459e-08
6.24537e-08
5.84129e-08
5.49311e-08
5.19262e-08
4.93275e-08
4.70754e-08
4.51198e-08
4.34181e-08
4.19342e-08
4.06372e-08
3.95011e-08
3.85038e-08
3.76268e-08
3.68546e-08
3.61743e-08
3.55749e-08
3.50471e-08
3.45828e-08
3.41753e-08
3.3819e-08
3.35092e-08
3.32423e-08
3.3015e-08
3.28237e-08
3.26611e-08
3.25166e-08
3.2379e-08
3.228e-08
1.27507e-07
1.37883e-07
1.41853e-07
1.40609e-07
1.35397e-07
1.27246e-07
1.18246e-07
1.09232e-07
1.00676e-07
9.28218e-08
8.5778e-08
7.95637e-08
7.41395e-08
6.94324e-08
6.53562e-08
6.18263e-08
5.87664e-08
5.61101e-08
5.38005e-08
5.17888e-08
5.0033e-08
4.84971e-08
4.71502e-08
4.59662e-08
4.49232e-08
4.40027e-08
4.31893e-08
4.24702e-08
4.18343e-08
4.12724e-08
4.07765e-08
4.03398e-08
3.99569e-08
3.96233e-08
3.93356e-08
3.90909e-08
3.88862e-08
3.87178e-08
3.85831e-08
3.84987e-08
1.25961e-07
1.32043e-07
1.37979e-07
1.39503e-07
1.37861e-07
1.33546e-07
1.27022e-07
1.19441e-07
1.11525e-07
1.03786e-07
9.65435e-08
8.99676e-08
8.41145e-08
7.89663e-08
7.44655e-08
7.05407e-08
6.71203e-08
6.41387e-08
6.15378e-08
5.92666e-08
5.72798e-08
5.55384e-08
5.40082e-08
5.266e-08
5.14691e-08
5.04147e-08
4.94795e-08
4.86491e-08
4.79112e-08
4.72556e-08
4.66734e-08
4.6157e-08
4.57001e-08
4.52977e-08
4.4946e-08
4.46424e-08
4.43861e-08
4.41775e-08
4.40201e-08
4.39266e-08
1.24033e-07
1.28123e-07
1.32838e-07
1.35834e-07
1.36416e-07
1.34766e-07
1.31047e-07
1.2547e-07
1.18872e-07
1.11883e-07
1.04979e-07
9.84696e-08
9.25195e-08
8.71839e-08
8.24515e-08
7.82788e-08
7.46105e-08
7.13902e-08
6.85651e-08
6.60867e-08
6.39107e-08
6.19969e-08
6.031e-08
5.8819e-08
5.74973e-08
5.63225e-08
5.52759e-08
5.43418e-08
5.35074e-08
5.27614e-08
5.20947e-08
5.14991e-08
5.09678e-08
5.04953e-08
5.00774e-08
4.97115e-08
4.93975e-08
4.91383e-08
4.89416e-08
4.8824e-08
1.24051e-07
1.25506e-07
1.28537e-07
1.31368e-07
1.33108e-07
1.33211e-07
1.31543e-07
1.28026e-07
1.23023e-07
1.17191e-07
1.11051e-07
1.04998e-07
9.92821e-08
9.40278e-08
8.92773e-08
8.50242e-08
8.12387e-08
7.7882e-08
7.49128e-08
7.22902e-08
6.99748e-08
6.7929e-08
6.6118e-08
6.45106e-08
6.30797e-08
6.18021e-08
6.0658e-08
5.96315e-08
5.87088e-08
5.78789e-08
5.71322e-08
5.64605e-08
5.58568e-08
5.53154e-08
5.48318e-08
5.44034e-08
5.403e-08
5.37159e-08
5.34721e-08
5.33222e-08
1.23015e-07
1.2364e-07
1.25211e-07
1.27323e-07
1.29201e-07
1.30147e-07
1.29816e-07
1.27978e-07
1.24469e-07
1.19946e-07
1.14825e-07
1.09518e-07
1.04316e-07
9.93931e-08
9.48359e-08
9.06766e-08
8.69158e-08
8.35371e-08
8.0516e-08
7.78237e-08
7.54292e-08
7.33005e-08
7.14062e-08
6.97165e-08
6.82047e-08
6.68479e-08
6.56262e-08
6.45235e-08
6.35262e-08
6.26233e-08
6.18053e-08
6.10644e-08
6.0394e-08
5.97882e-08
5.92427e-08
5.87546e-08
5.83238e-08
5.7955e-08
5.76617e-08
5.74755e-08
1.23058e-07
1.22739e-07
1.23081e-07
1.24136e-07
1.25457e-07
1.26494e-07
1.26737e-07
1.26072e-07
1.2401e-07
1.20589e-07
1.1654e-07
1.12128e-07
1.07628e-07
1.03228e-07
9.9043e-08
9.51362e-08
9.15365e-08
8.82515e-08
8.52757e-08
8.25948e-08
8.01889e-08
7.8034e-08
7.6104e-08
7.43726e-08
7.28149e-08
7.14088e-08
7.01354e-08
6.89787e-08
6.79257e-08
6.69659e-08
6.60903e-08
6.52918e-08
6.45643e-08
6.39024e-08
6.3302e-08
6.27603e-08
6.22771e-08
6.18572e-08
6.15154e-08
6.12911e-08
1.22913e-07
1.22312e-07
1.21811e-07
1.21856e-07
1.2224e-07
1.22946e-07
1.23367e-07
1.23115e-07
1.22079e-07
1.19808e-07
1.16621e-07
1.13082e-07
1.09359e-07
1.05588e-07
1.01895e-07
9.83599e-08
9.50333e-08
9.19436e-08
8.91032e-08
8.65127e-08
8.4164e-08
8.20419e-08
8.01274e-08
7.83988e-08
7.68343e-08
7.54134e-08
7.41186e-08
7.29348e-08
7.185e-08
7.08541e-08
6.99393e-08
6.90992e-08
6.83283e-08
6.76223e-08
6.69775e-08
6.63914e-08
6.58637e-08
6.5399e-08
6.50125e-08
6.47504e-08
1.23784e-07
1.22142e-07
1.20894e-07
1.20185e-07
1.19961e-07
1.20068e-07
1.20264e-07
1.20084e-07
1.194e-07
1.17858e-07
1.15601e-07
1.12827e-07
1.09782e-07
1.06651e-07
1.03494e-07
1.00394e-07
9.74114e-08
9.45902e-08
9.1956e-08
8.95222e-08
8.72912e-08
8.52568e-08
8.34066e-08
8.17245e-08
8.01923e-08
7.87923e-08
7.75083e-08
7.63268e-08
7.52366e-08
7.42289e-08
7.32965e-08
7.24342e-08
7.16373e-08
7.09025e-08
7.02269e-08
6.96084e-08
6.90467e-08
6.85461e-08
6.81215e-08
6.78239e-08
1.23333e-07
1.22032e-07
1.20636e-07
1.19452e-07
1.18542e-07
1.18018e-07
1.17727e-07
1.17343e-07
1.16648e-07
1.15446e-07
1.13759e-07
1.1169e-07
1.09317e-07
1.06708e-07
1.04042e-07
1.01379e-07
9.87637e-08
9.62463e-08
9.38605e-08
9.16278e-08
8.95588e-08
8.76547e-08
8.59092e-08
8.43108e-08
8.28456e-08
8.14987e-08
8.02557e-08
7.91047e-08
7.80357e-08
7.70407e-08
7.61138e-08
7.52504e-08
7.4447e-08
7.37011e-08
7.30105e-08
7.23738e-08
7.1791e-08
7.12656e-08
7.0812e-08
7.04833e-08
1.236e-07
1.22237e-07
1.20647e-07
1.19092e-07
1.17618e-07
1.16502e-07
1.15706e-07
1.14998e-07
1.14178e-07
1.13102e-07
1.1173e-07
1.10075e-07
1.0817e-07
1.06085e-07
1.03845e-07
1.01536e-07
9.92611e-08
9.70459e-08
9.49179e-08
9.29042e-08
9.10198e-08
8.92709e-08
8.76557e-08
8.6167e-08
8.47941e-08
8.35248e-08
8.2347e-08
8.125e-08
8.0225e-08
7.92651e-08
7.8365e-08
7.7521e-08
7.67305e-08
7.59915e-08
7.53027e-08
7.46634e-08
7.40736e-08
7.35363e-08
7.30644e-08
7.27114e-08
1.23496e-07
1.22603e-07
1.20657e-07
1.18696e-07
1.1685e-07
1.15347e-07
1.14174e-07
1.13166e-07
1.12171e-07
1.11081e-07
1.09832e-07
1.08399e-07
1.06779e-07
1.05003e-07
1.0311e-07
1.01153e-07
9.91583e-08
9.71866e-08
9.52933e-08
9.34905e-08
9.17903e-08
9.02013e-08
8.87251e-08
8.73571e-08
8.6089e-08
8.49112e-08
8.38133e-08
8.27859e-08
8.18211e-08
8.09129e-08
8.00567e-08
7.92492e-08
7.84885e-08
7.7773e-08
7.71021e-08
7.64752e-08
7.58927e-08
7.53569e-08
7.48787e-08
7.45097e-08
1.25793e-07
1.2362e-07
1.20728e-07
1.18364e-07
1.1627e-07
1.14532e-07
1.13101e-07
1.11852e-07
1.10675e-07
1.0949e-07
1.08239e-07
1.06882e-07
1.05402e-07
1.03808e-07
1.02126e-07
1.00392e-07
9.86403e-08
9.69063e-08
9.52078e-08
9.35752e-08
9.20346e-08
9.05921e-08
8.92468e-08
8.79952e-08
8.68312e-08
8.57464e-08
8.47321e-08
8.37803e-08
8.28835e-08
8.20361e-08
8.1234e-08
8.04747e-08
7.97561e-08
7.90772e-08
7.84372e-08
7.7836e-08
7.72735e-08
7.67518e-08
7.62794e-08
7.59037e-08
1.23828e-07
1.22376e-07
1.20157e-07
1.17929e-07
1.15832e-07
1.13993e-07
1.12399e-07
1.10969e-07
1.09628e-07
1.08321e-07
1.07003e-07
1.05635e-07
1.04198e-07
1.02692e-07
1.01132e-07
9.95409e-08
9.79442e-08
9.63667e-08
9.48294e-08
9.3353e-08
9.19472e-08
9.06215e-08
8.93825e-08
8.82306e-08
8.71581e-08
8.61572e-08
8.522e-08
8.43394e-08
8.35091e-08
8.27239e-08
8.19796e-08
8.12735e-08
8.06038e-08
7.99693e-08
7.93693e-08
7.88033e-08
7.82713e-08
7.77743e-08
7.73184e-08
7.69452e-08
1.23244e-07
1.21954e-07
1.19853e-07
1.17716e-07
1.1562e-07
1.13712e-07
1.11995e-07
1.10417e-07
1.08934e-07
1.07507e-07
1.06102e-07
1.04687e-07
1.03244e-07
1.01769e-07
1.00272e-07
9.87654e-08
9.72675e-08
9.57952e-08
9.43646e-08
9.29909e-08
9.16847e-08
9.04546e-08
8.93031e-08
8.82278e-08
8.72255e-08
8.62911e-08
8.54174e-08
8.45973e-08
8.3825e-08
8.30958e-08
8.24059e-08
8.17521e-08
8.11323e-08
8.0545e-08
7.99892e-08
7.94642e-08
7.89693e-08
7.85047e-08
7.80742e-08
7.77118e-08
1.23977e-07
1.2217e-07
1.19934e-07
1.17734e-07
1.15621e-07
1.13669e-07
1.11841e-07
1.10127e-07
1.08513e-07
1.06976e-07
1.05488e-07
1.04021e-07
1.02557e-07
1.0109e-07
9.96242e-08
9.81671e-08
9.67299e-08
9.53244e-08
9.39628e-08
9.26568e-08
9.14158e-08
9.02467e-08
8.91523e-08
8.81314e-08
8.71811e-08
8.62956e-08
8.54689e-08
8.46954e-08
8.39697e-08
8.32871e-08
8.26437e-08
8.20365e-08
8.1463e-08
8.09214e-08
8.041e-08
7.99277e-08
7.94733e-08
7.90459e-08
7.86469e-08
7.83022e-08
1.22778e-07
1.21748e-07
1.19926e-07
1.17804e-07
1.15752e-07
1.13783e-07
1.11878e-07
1.1004e-07
1.08303e-07
1.06669e-07
1.05113e-07
1.03606e-07
1.02127e-07
1.00665e-07
9.92193e-08
9.77941e-08
9.63958e-08
9.50328e-08
9.37145e-08
9.24506e-08
9.12497e-08
9.01181e-08
8.90588e-08
8.80714e-08
8.71533e-08
8.62998e-08
8.55057e-08
8.47659e-08
8.40753e-08
8.34294e-08
8.28246e-08
8.22574e-08
8.17251e-08
8.12255e-08
8.07565e-08
8.03164e-08
7.99031e-08
7.9515e-08
7.91513e-08
7.88293e-08
1.2277e-07
1.21821e-07
1.19995e-07
1.18062e-07
1.16129e-07
1.14109e-07
1.1206e-07
1.10093e-07
1.08252e-07
1.06542e-07
1.04941e-07
1.03413e-07
1.01932e-07
1.00481e-07
9.90559e-08
9.76562e-08
9.62862e-08
9.49522e-08
9.36624e-08
9.24254e-08
9.12496e-08
9.0141e-08
8.91032e-08
8.81364e-08
8.72386e-08
8.64065e-08
8.56356e-08
8.49212e-08
8.42584e-08
8.3643e-08
8.3071e-08
8.2539e-08
8.2044e-08
8.15834e-08
8.11545e-08
8.0755e-08
8.03825e-08
8.00342e-08
7.97079e-08
7.94119e-08
1.23398e-07
1.22315e-07
1.20488e-07
1.18602e-07
1.16605e-07
1.14474e-07
1.12302e-07
1.1022e-07
1.08309e-07
1.06567e-07
1.04954e-07
1.03426e-07
1.01953e-07
1.00516e-07
9.91083e-08
9.77285e-08
9.63796e-08
9.50673e-08
9.37989e-08
9.2583e-08
9.14277e-08
9.0339e-08
8.93208e-08
8.83739e-08
8.7497e-08
8.66869e-08
8.59394e-08
8.52501e-08
8.46147e-08
8.40291e-08
8.34894e-08
8.2992e-08
8.25337e-08
8.21113e-08
8.17219e-08
8.13626e-08
8.10303e-08
8.07217e-08
8.04337e-08
8.01654e-08
1.24086e-07
1.2278e-07
1.20653e-07
1.18731e-07
1.16771e-07
1.14654e-07
1.12474e-07
1.10379e-07
1.08452e-07
1.06703e-07
1.05094e-07
1.0358e-07
1.02127e-07
1.00712e-07
9.93292e-08
9.79755e-08
9.66531e-08
9.53672e-08
9.41253e-08
9.29356e-08
9.18062e-08
9.07434e-08
8.9751e-08
8.88303e-08
8.79803e-08
8.71983e-08
8.64807e-08
8.58233e-08
8.52219e-08
8.46722e-08
8.41701e-08
8.3712e-08
8.32939e-08
8.29125e-08
8.25644e-08
8.22461e-08
8.19543e-08
8.1685e-08
8.14353e-08
8.11945e-08
1.23032e-07
1.21997e-07
1.202e-07
1.18526e-07
1.1674e-07
1.14735e-07
1.12633e-07
1.10597e-07
1.08715e-07
1.06999e-07
1.05418e-07
1.03931e-07
1.02502e-07
1.01113e-07
9.97522e-08
9.84199e-08
9.71202e-08
9.58595e-08
9.46458e-08
9.34875e-08
9.23923e-08
9.13661e-08
9.04123e-08
8.9532e-08
8.87241e-08
8.79857e-08
8.73132e-08
8.67022e-08
8.61482e-08
8.56466e-08
8.51929e-08
8.47828e-08
8.44122e-08
8.40771e-08
8.37736e-08
8.34982e-08
8.3247e-08
8.30158e-08
8.28028e-08
8.2587e-08
1.23026e-07
1.21672e-07
1.20078e-07
1.1856e-07
1.16852e-07
1.14924e-07
1.12908e-07
1.10944e-07
1.09119e-07
1.07449e-07
1.05904e-07
1.04446e-07
1.03043e-07
1.01675e-07
1.00336e-07
9.90277e-08
9.77562e-08
9.65294e-08
9.53559e-08
9.4244e-08
9.32008e-08
9.22311e-08
9.13376e-08
9.05201e-08
8.97768e-08
8.91042e-08
8.84978e-08
8.79528e-08
8.74639e-08
8.70259e-08
8.66337e-08
8.62824e-08
8.59672e-08
8.56838e-08
8.5428e-08
8.51959e-08
8.49839e-08
8.47873e-08
8.4607e-08
8.44099e-08
1.23395e-07
1.21849e-07
1.20286e-07
1.18882e-07
1.1722e-07
1.15316e-07
1.13326e-07
1.11402e-07
1.09625e-07
1.08002e-07
1.06503e-07
1.05086e-07
1.03719e-07
1.02385e-07
1.01081e-07
9.981e-08
9.8582e-08
9.74068e-08
9.62939e-08
9.52514e-08
9.42853e-08
9.3399e-08
9.2593e-08
9.18659e-08
9.12139e-08
9.06321e-08
9.01149e-08
8.96562e-08
8.92499e-08
8.889e-08
8.85705e-08
8.8286e-08
8.80312e-08
8.78015e-08
8.75926e-08
8.74005e-08
8.72223e-08
8.70529e-08
8.68977e-08
8.67088e-08
1.23381e-07
1.22333e-07
1.2069e-07
1.19278e-07
1.17648e-07
1.15761e-07
1.13795e-07
1.11913e-07
1.10191e-07
1.08632e-07
1.072e-07
1.05848e-07
1.04543e-07
1.03268e-07
1.02024e-07
1.00817e-07
9.96607e-08
9.85665e-08
9.75448e-08
9.66034e-08
9.57465e-08
9.49754e-08
9.42881e-08
9.36803e-08
9.31459e-08
9.2678e-08
9.22692e-08
9.19122e-08
9.16e-08
9.13257e-08
9.1083e-08
9.0866e-08
9.06694e-08
9.04884e-08
9.03192e-08
9.01582e-08
9.00033e-08
8.98492e-08
8.97077e-08
8.95124e-08
1.24698e-07
1.22976e-07
1.21145e-07
1.1972e-07
1.18104e-07
1.16235e-07
1.14306e-07
1.12484e-07
1.10842e-07
1.09373e-07
1.08035e-07
1.0678e-07
1.05572e-07
1.04396e-07
1.03254e-07
1.02155e-07
1.01113e-07
1.00142e-07
9.92524e-08
9.8451e-08
9.77398e-08
9.71171e-08
9.65776e-08
9.61137e-08
9.57163e-08
9.53762e-08
9.50845e-08
9.4833e-08
9.46141e-08
9.44211e-08
9.42478e-08
9.40886e-08
9.39386e-08
9.37936e-08
9.36504e-08
9.35062e-08
9.33604e-08
9.3207e-08
9.30659e-08
9.2849e-08
1.23129e-07
1.22466e-07
1.21288e-07
1.20059e-07
1.18503e-07
1.16701e-07
1.14872e-07
1.13168e-07
1.11649e-07
1.10308e-07
1.09104e-07
1.07989e-07
1.06931e-07
1.05912e-07
1.04933e-07
1.04002e-07
1.03132e-07
1.02337e-07
1.01626e-07
1.01005e-07
1.00473e-07
1.00024e-07
9.96513e-08
9.93425e-08
9.90862e-08
9.88715e-08
9.86889e-08
9.85304e-08
9.83893e-08
9.826e-08
9.81376e-08
9.80175e-08
9.78959e-08
9.77695e-08
9.76362e-08
9.74941e-08
9.73438e-08
9.71787e-08
9.70264e-08
9.6777e-08
1.23776e-07
1.22974e-07
1.21769e-07
1.20567e-07
1.19052e-07
1.1735e-07
1.15664e-07
1.14119e-07
1.12764e-07
1.11596e-07
1.1058e-07
1.09675e-07
1.08843e-07
1.08062e-07
1.07324e-07
1.06632e-07
1.05996e-07
1.05427e-07
1.04933e-07
1.04519e-07
1.04183e-07
1.03915e-07
1.03706e-07
1.03542e-07
1.03411e-07
1.033e-07
1.03202e-07
1.0311e-07
1.03021e-07
1.02931e-07
1.02837e-07
1.02737e-07
1.02627e-07
1.02506e-07
1.02372e-07
1.02224e-07
1.02063e-07
1.01882e-07
1.01713e-07
1.01429e-07
1.24058e-07
1.23749e-07
1.22877e-07
1.21594e-07
1.20083e-07
1.18474e-07
1.16934e-07
1.15569e-07
1.14429e-07
1.13507e-07
1.12774e-07
1.12181e-07
1.11678e-07
1.11228e-07
1.1081e-07
1.10418e-07
1.10056e-07
1.09735e-07
1.09466e-07
1.09255e-07
1.09099e-07
1.08989e-07
1.08917e-07
1.08867e-07
1.08828e-07
1.08789e-07
1.08746e-07
1.08696e-07
1.08637e-07
1.0857e-07
1.08492e-07
1.08405e-07
1.08304e-07
1.08189e-07
1.08057e-07
1.07908e-07
1.07741e-07
1.07549e-07
1.07363e-07
1.07052e-07
1.24634e-07
1.24857e-07
1.2384e-07
1.22803e-07
1.21565e-07
1.20178e-07
1.18868e-07
1.17788e-07
1.17003e-07
1.16479e-07
1.16179e-07
1.16037e-07
1.15972e-07
1.15926e-07
1.15865e-07
1.15779e-07
1.15675e-07
1.15571e-07
1.15484e-07
1.15428e-07
1.15409e-07
1.15413e-07
1.15436e-07
1.1547e-07
1.15497e-07
1.1551e-07
1.15511e-07
1.155e-07
1.15472e-07
1.15433e-07
1.15383e-07
1.15321e-07
1.15244e-07
1.1515e-07
1.15035e-07
1.14896e-07
1.14732e-07
1.14535e-07
1.14332e-07
1.13995e-07
1.24596e-07
1.2451e-07
1.24157e-07
1.23882e-07
1.23309e-07
1.22441e-07
1.21659e-07
1.21168e-07
1.21063e-07
1.21169e-07
1.21478e-07
1.21916e-07
1.22341e-07
1.2269e-07
1.22935e-07
1.23077e-07
1.23142e-07
1.23166e-07
1.23185e-07
1.23223e-07
1.23291e-07
1.23385e-07
1.23495e-07
1.23607e-07
1.23709e-07
1.23794e-07
1.23861e-07
1.2391e-07
1.23943e-07
1.23962e-07
1.23961e-07
1.23946e-07
1.2391e-07
1.23847e-07
1.2375e-07
1.23618e-07
1.23448e-07
1.23232e-07
1.22988e-07
1.22606e-07
1.23281e-07
1.23976e-07
1.24695e-07
1.2532e-07
1.25589e-07
1.25727e-07
1.25984e-07
1.26527e-07
1.2742e-07
1.28452e-07
1.29507e-07
1.30482e-07
1.31293e-07
1.31899e-07
1.32301e-07
1.32536e-07
1.3266e-07
1.32735e-07
1.32816e-07
1.32935e-07
1.33104e-07
1.33314e-07
1.33547e-07
1.33783e-07
1.34004e-07
1.34202e-07
1.34371e-07
1.3451e-07
1.34622e-07
1.34704e-07
1.34752e-07
1.34758e-07
1.34734e-07
1.34668e-07
1.34541e-07
1.34362e-07
1.34127e-07
1.3383e-07
1.33482e-07
1.32994e-07
1.25228e-07
1.25239e-07
1.26827e-07
1.28702e-07
1.30176e-07
1.3166e-07
1.33406e-07
1.35362e-07
1.37361e-07
1.39218e-07
1.40819e-07
1.42113e-07
1.43084e-07
1.43755e-07
1.44177e-07
1.44426e-07
1.44587e-07
1.44738e-07
1.44935e-07
1.45206e-07
1.45549e-07
1.45939e-07
1.46342e-07
1.46727e-07
1.47076e-07
1.47373e-07
1.47608e-07
1.47781e-07
1.47902e-07
1.47956e-07
1.47942e-07
1.47878e-07
1.47738e-07
1.47525e-07
1.47241e-07
1.46887e-07
1.46464e-07
1.45969e-07
1.45412e-07
1.44723e-07
1.2502e-07
1.28833e-07
1.33186e-07
1.37022e-07
1.40075e-07
1.43042e-07
1.4611e-07
1.49101e-07
1.51779e-07
1.54009e-07
1.55763e-07
1.57089e-07
1.58047e-07
1.58711e-07
1.59164e-07
1.59493e-07
1.59785e-07
1.60107e-07
1.60499e-07
1.60963e-07
1.61473e-07
1.61987e-07
1.62456e-07
1.6285e-07
1.63161e-07
1.63366e-07
1.63451e-07
1.63431e-07
1.63338e-07
1.63134e-07
1.62827e-07
1.62432e-07
1.6195e-07
1.61386e-07
1.60745e-07
1.60032e-07
1.59256e-07
1.58415e-07
1.5753e-07
1.56551e-07
1.28028e-07
1.36503e-07
1.45818e-07
1.53184e-07
1.58267e-07
1.62134e-07
1.65498e-07
1.68527e-07
1.71148e-07
1.73284e-07
1.74948e-07
1.76243e-07
1.77212e-07
1.77919e-07
1.78437e-07
1.78847e-07
1.79207e-07
1.79569e-07
1.79951e-07
1.80333e-07
1.80675e-07
1.80928e-07
1.81051e-07
1.8103e-07
1.80903e-07
1.80603e-07
1.8014e-07
1.79551e-07
1.7885e-07
1.78045e-07
1.77132e-07
1.76129e-07
1.7505e-07
1.73908e-07
1.72712e-07
1.71472e-07
1.70201e-07
1.68902e-07
1.67605e-07
1.66303e-07
1.38003e-07
1.55472e-07
1.70615e-07
1.80357e-07
1.85659e-07
1.88829e-07
1.91382e-07
1.93858e-07
1.96181e-07
1.98113e-07
1.99577e-07
2.00745e-07
2.01464e-07
2.0181e-07
2.0186e-07
2.01751e-07
2.015e-07
2.01186e-07
2.00826e-07
2.0039e-07
1.99837e-07
1.99135e-07
1.98244e-07
1.97165e-07
1.95934e-07
1.94566e-07
1.93084e-07
1.9151e-07
1.89864e-07
1.8816e-07
1.86426e-07
1.84667e-07
1.82887e-07
1.81093e-07
1.79296e-07
1.77506e-07
1.75737e-07
1.73997e-07
1.72338e-07
1.70806e-07
1.58221e-07
1.95298e-07
2.11334e-07
2.17241e-07
2.20006e-07
2.21778e-07
2.23483e-07
2.253e-07
2.26797e-07
2.27528e-07
2.27473e-07
2.26869e-07
2.2549e-07
2.2374e-07
2.21818e-07
2.19917e-07
2.18033e-07
2.16156e-07
2.14261e-07
2.12308e-07
2.10264e-07
2.0811e-07
2.05839e-07
2.03464e-07
2.01011e-07
1.98503e-07
1.9596e-07
1.93403e-07
1.90844e-07
1.88298e-07
1.85773e-07
1.83284e-07
1.8084e-07
1.7845e-07
1.76123e-07
1.73868e-07
1.71699e-07
1.69629e-07
1.67731e-07
1.66111e-07
2.11423e-07
2.50394e-07
2.59078e-07
2.59087e-07
2.57429e-07
2.54832e-07
2.52833e-07
2.50737e-07
2.47997e-07
2.4444e-07
2.4026e-07
2.35722e-07
2.30995e-07
2.26303e-07
2.21786e-07
2.17503e-07
2.13467e-07
2.09637e-07
2.05953e-07
2.02359e-07
1.98818e-07
1.95309e-07
1.91829e-07
1.88388e-07
1.84997e-07
1.81669e-07
1.78414e-07
1.7524e-07
1.72151e-07
1.69152e-07
1.66249e-07
1.63446e-07
1.60748e-07
1.5816e-07
1.55686e-07
1.53331e-07
1.51105e-07
1.49028e-07
1.47174e-07
1.45685e-07
3.26804e-07
3.24152e-07
3.08293e-07
2.85633e-07
2.64333e-07
2.45393e-07
2.29435e-07
2.16213e-07
2.05045e-07
1.95362e-07
1.86835e-07
1.79261e-07
1.72496e-07
1.66447e-07
1.61027e-07
1.56145e-07
1.51705e-07
1.47614e-07
1.43789e-07
1.40165e-07
1.36702e-07
1.33374e-07
1.3017e-07
1.27087e-07
1.24125e-07
1.21283e-07
1.18559e-07
1.15951e-07
1.13458e-07
1.11078e-07
1.08809e-07
1.06652e-07
1.04604e-07
1.02667e-07
1.00839e-07
9.91208e-08
9.75157e-08
9.60339e-08
9.47198e-08
9.36659e-08
)
;

boundaryField
{
    upperWall
    {
        type            zeroGradient;
    }
    lowerWall
    {
        type            zeroGradient;
    }
    inlet
    {
        type            zeroGradient;
    }
    outlet
    {
        type            zeroGradient;
    }
    frontAndBack
    {
        type            empty;
    }
}


// ************************************************************************* //
