/*--------------------------------*- C++ -*----------------------------------*\
  =========                 |
  \\      /  F ield         | OpenFOAM: The Open Source CFD Toolbox
   \\    /   O peration     | Website:  https://openfoam.org
    \\  /    A nd           | Version:  7
     \\/     M anipulation  |
\*---------------------------------------------------------------------------*/
FoamFile
{
    version     2.0;
    format      ascii;
    class       volVectorField;
    location    "1.77";
    object      UMean;
}
// * * * * * * * * * * * * * * * * * * * * * * * * * * * * * * * * * * * * * //

dimensions      [0 1 -1 0 0 0 0];

internalField   nonuniform List<vector> 
4950
(
(3.51979 0.414027 -27.0291)
(2.83322 0.145764 -27.066)
(2.0994 0.042612 -27.068)
(1.90718 -0.0236134 -27.0752)
(1.6393 -0.0435247 -27.0735)
(1.6312 -0.0497939 -27.0776)
(1.481 -0.0506377 -27.0755)
(1.51105 -0.0494277 -27.0786)
(1.4018 -0.0481079 -27.0768)
(1.4383 -0.0467822 -27.0793)
(1.35185 -0.0451519 -27.0778)
(1.38771 -0.0450066 -27.0798)
(1.31716 -0.0419486 -27.0787)
(1.35057 -0.0446685 -27.0801)
(1.29124 -0.0359893 -27.0795)
(1.32216 -0.046118 -27.0803)
(1.26863 -0.0153716 -27.0805)
(1.28749 -0.044777 -27.0798)
(1.26127 0.0909037 -27.0829)
(1.04853 0.122517 -27.0713)
(4.59823 0.540747 -27.0541)
(4.79116 0.367765 -27.083)
(4.50294 0.278915 -27.0829)
(4.45687 0.180752 -27.09)
(4.17254 0.125597 -27.0899)
(4.15159 0.0949503 -27.0944)
(3.93501 0.0761679 -27.0938)
(3.94344 0.0653856 -27.0967)
(3.77687 0.0572866 -27.0963)
(3.80033 0.052218 -27.0984)
(3.66856 0.0472802 -27.0981)
(3.69883 0.0451654 -27.0995)
(3.59129 0.0401222 -27.0995)
(3.62568 0.0418734 -27.1003)
(3.53271 0.0315555 -27.1011)
(3.57698 0.0421271 -27.1004)
(3.48244 0.0135118 -27.1034)
(3.56997 0.0351764 -27.0984)
(3.42851 -0.0199365 -27.1089)
(3.77313 -0.0680049 -27.0781)
(4.71666 0.283934 -27.0558)
(5.19281 0.204527 -27.0792)
(5.29574 0.181945 -27.072)
(5.534 0.12176 -27.0762)
(5.47521 0.0851639 -27.0722)
(5.59656 0.0599917 -27.0761)
(5.5063 0.0422137 -27.0732)
(5.58571 0.0299873 -27.0764)
(5.49721 0.0206624 -27.0743)
(5.55615 0.0131971 -27.077)
(5.47685 0.00805553 -27.0756)
(5.52238 0.00255191 -27.0778)
(5.45483 0.000547766 -27.0771)
(5.48788 -0.00476724 -27.0787)
(5.43626 -0.00251775 -27.0788)
(5.44866 -0.00952082 -27.0793)
(5.42547 0.00290085 -27.0809)
(5.38564 -0.0067004 -27.0793)
(5.40846 0.034743 -27.0838)
(5.25518 0.0588342 -27.0626)
(4.69459 0.166709 -27.0645)
(5.11117 0.127614 -27.0882)
(5.31114 0.119557 -27.0825)
(5.6465 0.0896862 -27.0846)
(5.70364 0.0711587 -27.0815)
(5.92066 0.0589669 -27.0833)
(5.92672 0.0502071 -27.0813)
(6.07966 0.044378 -27.0828)
(6.06684 0.0393911 -27.0816)
(6.18139 0.0356392 -27.0827)
(6.15992 0.0320334 -27.082)
(6.24965 0.0295619 -27.083)
(6.22268 0.0261858 -27.0826)
(6.29793 0.0254678 -27.0834)
(6.26408 0.020327 -27.0834)
(6.33803 0.0232296 -27.0838)
(6.29112 0.0116982 -27.0844)
(6.39285 0.0187326 -27.0843)
(6.32437 0.00080494 -27.0855)
(6.54385 -0.00947263 -27.065)
(4.69586 -1.92962e-08 -27.0597)
(5.10788 6.32359e-08 -27.0819)
(5.31738 -3.75362e-08 -27.0733)
(5.66706 2.01482e-07 -27.0757)
(5.738 -1.56846e-08 -27.0703)
(5.96998 5.66292e-07 -27.0728)
(5.99363 2.59034e-07 -27.069)
(6.1636 1.46594e-06 -27.0712)
(6.17104 1.46601e-06 -27.0685)
(6.30206 4.04614e-06 -27.0705)
(6.30198 5.1e-06 -27.0685)
(6.40379 1.3329e-05 -27.0703)
(6.40101 1.23111e-05 -27.0689)
(6.47675 4.95296e-05 -27.0705)
(6.47884 1.99998e-05 -27.0696)
(6.52095 0.000173321 -27.071)
(6.54508 3.58464e-05 -27.0704)
(6.52256 0.000500405 -27.0718)
(6.58806 0.000164621 -27.0714)
(6.4566 0.000820403 -27.0531)
(4.69459 -0.166709 -27.0645)
(5.11117 -0.127614 -27.0882)
(5.31114 -0.119557 -27.0825)
(5.6465 -0.0896859 -27.0846)
(5.70364 -0.0711585 -27.0815)
(5.92066 -0.0589661 -27.0833)
(5.92672 -0.0502061 -27.0813)
(6.07967 -0.0443761 -27.0828)
(6.06683 -0.0393872 -27.0815)
(6.18139 -0.0356346 -27.0828)
(6.15992 -0.0320204 -27.082)
(6.24967 -0.0295483 -27.083)
(6.22268 -0.0261518 -27.0825)
(6.29799 -0.025417 -27.0835)
(6.26412 -0.0202512 -27.0833)
(6.33815 -0.0230495 -27.0841)
(6.29129 -0.0115169 -27.0841)
(6.3931 -0.0182219 -27.0847)
(6.32487 -0.000141473 -27.085)
(6.54457 0.0107791 -27.0654)
(4.71666 -0.283934 -27.0558)
(5.19281 -0.204526 -27.0792)
(5.29574 -0.181945 -27.0719)
(5.534 -0.12176 -27.0762)
(5.4752 -0.0851638 -27.0722)
(5.59657 -0.0599909 -27.0761)
(5.5063 -0.0422132 -27.0732)
(5.58571 -0.0299852 -27.0764)
(5.49721 -0.02066 -27.0743)
(5.55616 -0.0131915 -27.0771)
(5.47685 -0.00804825 -27.0755)
(5.52243 -0.00253341 -27.078)
(5.45483 -0.000532691 -27.0769)
(5.48801 0.00483585 -27.079)
(5.43629 0.0025316 -27.0782)
(5.44898 0.00975927 -27.0801)
(5.42569 -0.00290761 -27.0797)
(5.38641 0.0073722 -27.0812)
(5.40938 -0.034579 -27.081)
(5.25737 -0.0573863 -27.0663)
(4.59823 -0.540747 -27.0541)
(4.79116 -0.367765 -27.083)
(4.50294 -0.278915 -27.0829)
(4.45687 -0.180751 -27.09)
(4.17254 -0.125597 -27.0899)
(4.15159 -0.0949502 -27.0944)
(3.93501 -0.0761671 -27.0938)
(3.94345 -0.0653853 -27.0968)
(3.77687 -0.057284 -27.0963)
(3.80035 -0.0522171 -27.0984)
(3.66857 -0.0472721 -27.098)
(3.69888 -0.045162 -27.0996)
(3.59132 -0.0401013 -27.0993)
(3.62581 -0.0418547 -27.1006)
(3.53284 -0.0315084 -27.1004)
(3.57727 -0.0420445 -27.1015)
(3.48297 -0.0134034 -27.1014)
(3.57064 -0.0349277 -27.1022)
(3.42995 0.0202847 -27.1019)
(3.77515 0.068256 -27.0908)
(3.51979 -0.414027 -27.0291)
(2.83322 -0.145764 -27.066)
(2.09941 -0.0426121 -27.068)
(1.90718 0.0236134 -27.0752)
(1.6393 0.0435246 -27.0735)
(1.6312 0.0497941 -27.0776)
(1.481 0.0506376 -27.0755)
(1.51105 0.0494281 -27.0786)
(1.40181 0.0481073 -27.0768)
(1.43831 0.0467832 -27.0793)
(1.35185 0.04515 -27.0778)
(1.38774 0.0450088 -27.0798)
(1.31719 0.0419427 -27.0786)
(1.35065 0.0446747 -27.0802)
(1.29133 0.0359754 -27.0793)
(1.32234 0.0461341 -27.0806)
(1.26897 0.0153338 -27.0799)
(1.28792 0.0448314 -27.081)
(1.26231 -0.0908669 -27.0802)
(1.05029 -0.121927 -27.0793)
(4.49823 0.187739 0.00525902)
(3.75418 0.274264 0.003649)
(3.17089 0.235241 0.00443283)
(2.61717 0.160082 0.00339573)
(2.36186 0.111423 0.00414345)
(2.10411 0.0793801 0.00331837)
(2.03302 0.0643587 0.00397904)
(1.90253 0.05605 0.00327386)
(1.88738 0.0524364 0.00383517)
(1.8058 0.0505407 0.00322276)
(1.80464 0.0490352 0.0036958)
(1.74704 0.0492596 0.00316465)
(1.7491 0.0465253 0.00356389)
(1.70639 0.0498462 0.00310483)
(1.70876 0.0403264 0.00344289)
(1.67889 0.0537787 0.00304626)
(1.67466 0.0137807 0.00333642)
(1.69305 0.0602589 0.00298817)
(1.61475 -0.12364 0.00327422)
(2.04853 -0.165537 0.00287388)
(4.62805 0.106053 0.00338642)
(4.66373 0.226257 0.00208642)
(4.7976 0.203115 0.00282846)
(4.67323 0.149671 0.00180409)
(4.64957 0.095127 0.00254552)
(4.49347 0.0532389 0.00171782)
(4.4527 0.0258684 0.00237482)
(4.32622 0.00888513 0.0016678)
(4.29571 -0.00198541 0.00222699)
(4.19963 -0.00883668 0.00161388)
(4.17835 -0.0134349 0.00208532)
(4.10482 -0.0176179 0.00155456)
(4.09058 -0.0183087 0.00195133)
(4.03137 -0.023876 0.00149477)
(4.02591 -0.0176326 0.0018261)
(3.96749 -0.030122 0.00143732)
(3.98466 -0.00778614 0.00170388)
(3.88398 -0.0265685 0.00137556)
(3.97683 0.00567348 0.00155673)
(3.58806 0.070862 0.00119154)
(4.56098 0.060044 0.00468266)
(4.71984 0.181847 0.0034725)
(5.03897 0.209867 0.00418234)
(5.14875 0.1862 0.0031469)
(5.32786 0.155498 0.00387721)
(5.34336 0.12464 0.00304427)
(5.4273 0.103432 0.00370212)
(5.40644 0.0873969 0.00299598)
(5.44973 0.0762045 0.00355855)
(5.42208 0.0679128 0.002947)
(5.44653 0.0608926 0.00342182)
(5.42138 0.0562851 0.00289116)
(5.43381 0.0503921 0.00329236)
(5.41623 0.0488962 0.00283256)
(5.41519 0.0405706 0.00317469)
(5.41657 0.0446763 0.00277457)
(5.38861 0.0216565 0.00307869)
(5.4418 0.0384578 0.00272091)
(5.36817 -0.0414899 0.00305729)
(5.51712 -0.0443272 0.00268082)
(4.51929 0.0281468 0.00322045)
(4.5858 0.0699362 0.00212656)
(4.92689 0.0727997 0.00282552)
(5.089 0.0643367 0.00181071)
(5.34729 0.0511294 0.00253632)
(5.4433 0.0387061 0.00170282)
(5.60435 0.02955 0.00235605)
(5.65613 0.0229285 0.00164799)
(5.76331 0.018151 0.00220713)
(5.79486 0.0145756 0.00159494)
(5.8716 0.0117325 0.00206679)
(5.89188 0.00910354 0.00153722)
(5.95019 0.00758826 0.00193378)
(5.96035 0.00472702 0.00147842)
(6.01037 0.00540827 0.00180793)
(6.00185 0.00105703 0.00142024)
(6.06047 0.00552523 0.00167923)
(5.99052 0.00235467 0.00135055)
(6.09279 0.00358133 0.00149457)
(5.79785 0.0310564 0.0011834)
(4.55092 -1.44559e-08 0.00459408)
(4.6679 5.91748e-08 0.00350157)
(4.98205 4.22054e-10 0.00418939)
(5.13516 1.62951e-07 0.00315947)
(5.38505 7.22658e-08 0.00388126)
(5.48381 4.08992e-07 0.00304416)
(5.65074 4.52485e-07 0.00369965)
(5.71267 9.83406e-07 0.00299224)
(5.83095 1.78376e-06 0.00355478)
(5.87655 2.4903e-06 0.00294334)
(5.9653 5.66652e-06 0.00341862)
(6.00273 6.98277e-06 0.00288831)
(6.06912 1.56525e-05 0.00329003)
(6.10389 2.06326e-05 0.00283044)
(6.14781 4.2285e-05 0.00317368)
(6.19141 5.59159e-05 0.00277324)
(6.20425 0.000127463 0.00308218)
(6.27964 0.000154185 0.00272134)
(6.26644 0.000434632 0.00307478)
(6.36276 0.000623374 0.00270329)
(4.51929 -0.0281468 0.00322045)
(4.5858 -0.0699361 0.00212656)
(4.92689 -0.0727998 0.00282552)
(5.08901 -0.0643362 0.00181071)
(5.34729 -0.0511295 0.00253632)
(5.4433 -0.0387049 0.00170282)
(5.60435 -0.0295498 0.00235605)
(5.65613 -0.0229252 0.00164799)
(5.76331 -0.0181494 0.00220712)
(5.79486 -0.0145664 0.00159494)
(5.8716 -0.0117269 0.00206679)
(5.8919 -0.00907551 0.00153722)
(5.95019 -0.00757476 0.00193377)
(5.96039 -0.00463654 0.00147842)
(6.01038 -0.00538104 0.0018079)
(6.00196 -0.000777321 0.00142023)
(6.06056 -0.00545017 0.00167918)
(5.9908 -0.00159211 0.0013505)
(6.0932 -0.00325685 0.00149466)
(5.79866 -0.029383 0.00118324)
(4.56098 -0.060044 0.00468266)
(4.71984 -0.181847 0.0034725)
(5.03897 -0.209867 0.00418233)
(5.14875 -0.1862 0.0031469)
(5.32786 -0.155497 0.00387721)
(5.34336 -0.124639 0.00304428)
(5.4273 -0.103431 0.00370212)
(5.40644 -0.0873954 0.00299598)
(5.44973 -0.0762009 0.00355854)
(5.42209 -0.0679087 0.00294701)
(5.44652 -0.0608817 0.0034218)
(5.42142 -0.0562723 0.00289118)
(5.43382 -0.0503626 0.00329233)
(5.41632 -0.0488535 0.0028326)
(5.41525 -0.0404926 0.00317461)
(5.41681 -0.044545 0.00277468)
(5.38886 -0.0214259 0.00307851)
(5.44239 -0.0381195 0.0027211)
(5.36898 0.0422602 0.00305687)
(5.5187 0.0451967 0.0026809)
(4.62805 -0.106053 0.00338642)
(4.66373 -0.226257 0.00208642)
(4.7976 -0.203115 0.00282846)
(4.67323 -0.149671 0.00180409)
(4.64957 -0.095127 0.00254552)
(4.49347 -0.0532383 0.00171782)
(4.4527 -0.025868 0.00237482)
(4.32623 -0.00888357 0.00166781)
(4.29571 0.00198665 0.00222699)
(4.19965 0.00884096 0.00161389)
(4.17835 0.0134383 0.00208531)
(4.10488 0.0176311 0.00155456)
(4.09059 0.0183149 0.0019513)
(4.03153 0.0239198 0.00149479)
(4.02595 0.0176369 0.00182603)
(3.96794 0.0302613 0.00143738)
(3.98481 0.00778117 0.00170371)
(3.88531 0.0269667 0.00137567)
(3.9773 -0.00554679 0.0015565)
(3.59228 -0.0697181 0.00119164)
(4.49823 -0.187739 0.00525902)
(3.75418 -0.274264 0.003649)
(3.17089 -0.235241 0.00443283)
(2.61718 -0.160082 0.00339573)
(2.36186 -0.111423 0.00414345)
(2.10411 -0.0793802 0.00331837)
(2.03302 -0.0643582 0.00397904)
(1.90253 -0.0560502 0.00327386)
(1.88739 -0.052435 0.00383517)
(1.80581 -0.0505413 0.00322276)
(1.80465 -0.049031 0.0036958)
(1.74707 -0.0492606 0.00316466)
(1.74914 -0.0465134 0.00356387)
(1.70648 -0.0498456 0.00310487)
(1.70891 -0.0402955 0.00344281)
(1.67909 -0.0537667 0.00304639)
(1.67513 -0.0137109 0.00333615)
(1.69359 -0.0602476 0.00298863)
(1.61588 0.123701 0.00327298)
(2.0508 0.164923 0.00287629)
(4.45287 0.0643016 -1.19218e-08)
(4.23563 0.115837 -1.19775e-08)
(3.87503 0.125034 -1.20055e-08)
(3.54018 0.109631 -1.19985e-08)
(3.20619 0.0851197 -1.20431e-08)
(2.94415 0.0617049 -1.20182e-08)
(2.72122 0.0400355 -1.20682e-08)
(2.56124 0.0242258 -1.2002e-08)
(2.43705 0.0114191 -1.20331e-08)
(2.35015 0.00368966 -1.1961e-08)
(2.28735 -0.00264589 -1.20392e-08)
(2.24091 -0.00512829 -1.20069e-08)
(2.20978 -0.00851155 -1.21067e-08)
(2.18441 -0.00764856 -1.20725e-08)
(2.16608 -0.0113768 -1.21771e-08)
(2.15757 -0.00672159 -1.2162e-08)
(2.13241 -0.0154411 -1.22803e-08)
(2.16014 -0.00573275 -1.2272e-08)
(2.08964 -0.0273645 -1.23924e-08)
(2.21651 -0.0462799 -1.23342e-08)
(4.51199 0.0570076 -1.19021e-08)
(4.64387 0.1077 -1.19132e-08)
(4.72631 0.137054 -1.19187e-08)
(4.80606 0.145343 -1.19072e-08)
(4.81946 0.139704 -1.1958e-08)
(4.82352 0.124074 -1.19773e-08)
(4.79236 0.105897 -1.20809e-08)
(4.76132 0.0866628 -1.20442e-08)
(4.71797 0.0710011 -1.2081e-08)
(4.67824 0.0570063 -1.20126e-08)
(4.63782 0.0474177 -1.21023e-08)
(4.60005 0.0387791 -1.20889e-08)
(4.56734 0.0337704 -1.2198e-08)
(4.53446 0.0284997 -1.21547e-08)
(4.51047 0.0256431 -1.2231e-08)
(4.48238 0.0237203 -1.21796e-08)
(4.46659 0.0187222 -1.22893e-08)
(4.44326 0.0262399 -1.22736e-08)
(4.42865 0.01003 -1.24367e-08)
(4.41067 0.0410696 -1.23686e-08)
(4.50181 0.0214462 -1.19206e-08)
(4.62205 0.053964 -1.19471e-08)
(4.7294 0.0787025 -1.19532e-08)
(4.88755 0.0907351 -1.19374e-08)
(5.01188 0.0919502 -1.19929e-08)
(5.14329 0.0864509 -1.19925e-08)
(5.23779 0.0764265 -1.20668e-08)
(5.32474 0.066035 -1.20221e-08)
(5.38477 0.0556217 -1.20866e-08)
(5.43722 0.047276 -1.20624e-08)
(5.47357 0.039747 -1.21969e-08)
(5.50585 0.0345768 -1.22245e-08)
(5.52818 0.0291568 -1.23613e-08)
(5.55078 0.0267865 -1.23194e-08)
(5.56423 0.0212117 -1.23708e-08)
(5.58342 0.0227571 -1.22716e-08)
(5.59152 0.0123017 -1.2347e-08)
(5.60777 0.0214963 -1.23022e-08)
(5.62132 -0.00187489 -1.24469e-08)
(5.62046 0.009559 -1.2417e-08)
(4.50011 0.0172239 -1.19128e-08)
(4.59686 0.0330459 -1.1948e-08)
(4.69239 0.0436623 -1.19603e-08)
(4.84627 0.0484171 -1.19593e-08)
(4.97946 0.0493924 -1.20161e-08)
(5.1303 0.0469626 -1.2011e-08)
(5.25239 0.0431136 -1.20697e-08)
(5.3724 0.0382517 -1.20171e-08)
(5.46885 0.0339396 -1.2073e-08)
(5.55852 0.0297994 -1.20426e-08)
(5.63367 0.0267231 -1.21635e-08)
(5.7018 0.0239376 -1.21824e-08)
(5.76336 0.021917 -1.23115e-08)
(5.81641 0.0202829 -1.23084e-08)
(5.87126 0.0183687 -1.24025e-08)
(5.90951 0.018559 -1.2285e-08)
(5.96753 0.0144951 -1.23519e-08)
(5.97866 0.0200238 -1.23447e-08)
(6.05966 0.00971519 -1.24452e-08)
(6.01017 0.0273457 -1.23919e-08)
(4.5008 -3.41051e-08 -1.19218e-08)
(4.60877 9.80589e-08 -1.19549e-08)
(4.70524 -7.03718e-08 -1.19758e-08)
(4.8582 2.48193e-07 -1.19802e-08)
(4.9878 -4.25383e-08 -1.2038e-08)
(5.13714 6.1945e-07 -1.20204e-08)
(5.25936 3.00742e-07 -1.20772e-08)
(5.3821 1.52735e-06 -1.20374e-08)
(5.48235 1.51981e-06 -1.21186e-08)
(5.57795 4.1875e-06 -1.20996e-08)
(5.65871 4.5596e-06 -1.22034e-08)
(5.73515 1.30562e-05 -1.21708e-08)
(5.80254 1.04411e-05 -1.22496e-08)
(5.86657 4.159e-05 -1.22e-08)
(5.92578 2.32448e-05 -1.22876e-08)
(5.97888 0.000118941 -1.22412e-08)
(6.03874 7.35231e-05 -1.23243e-08)
(6.06997 0.000287367 -1.23092e-08)
(6.15835 0.000303366 -1.24153e-08)
(6.1329 0.000602566 -1.23493e-08)
(4.50011 -0.017224 -1.19142e-08)
(4.59686 -0.0330457 -1.1952e-08)
(4.69239 -0.0436624 -1.19766e-08)
(4.84627 -0.0484166 -1.19914e-08)
(4.97946 -0.0493926 -1.20448e-08)
(5.1303 -0.0469612 -1.20203e-08)
(5.25239 -0.0431133 -1.2072e-08)
(5.37241 -0.0382483 -1.20508e-08)
(5.46885 -0.0339375 -1.21546e-08)
(5.55852 -0.0297899 -1.21456e-08)
(5.63367 -0.0267169 -1.22259e-08)
(5.70181 -0.0239083 -1.21476e-08)
(5.76336 -0.021904 -1.21835e-08)
(5.81643 -0.0201914 -1.21104e-08)
(5.87129 -0.0183423 -1.22084e-08)
(5.90955 -0.0183015 -1.22002e-08)
(5.96765 -0.0143968 -1.23189e-08)
(5.97878 -0.0194096 -1.22986e-08)
(6.06 -0.00922138 -1.23792e-08)
(6.01057 -0.0260912 -1.22945e-08)
(4.50181 -0.0214462 -1.19226e-08)
(4.62205 -0.0539638 -1.19631e-08)
(4.7294 -0.0787025 -1.20007e-08)
(4.88755 -0.0907347 -1.20228e-08)
(5.01188 -0.0919502 -1.20779e-08)
(5.14329 -0.0864499 -1.20434e-08)
(5.23778 -0.0764259 -1.2091e-08)
(5.32475 -0.0660323 -1.20657e-08)
(5.38477 -0.0556189 -1.21628e-08)
(5.43724 -0.0472686 -1.2135e-08)
(5.47357 -0.0397389 -1.21891e-08)
(5.50589 -0.0345539 -1.20866e-08)
(5.52818 -0.029139 -1.21148e-08)
(5.55086 -0.0267133 -1.20826e-08)
(5.56428 -0.0211752 -1.22302e-08)
(5.5836 -0.0225469 -1.22076e-08)
(5.59175 -0.0121902 -1.22838e-08)
(5.6082 -0.0209931 -1.22859e-08)
(5.62206 0.00235772 -1.23692e-08)
(5.6216 -0.00854542 -1.2268e-08)
(4.51199 -0.0570076 -1.19292e-08)
(4.64387 -0.1077 -1.19926e-08)
(4.72631 -0.137054 -1.20282e-08)
(4.80607 -0.145343 -1.20474e-08)
(4.81946 -0.139704 -1.20986e-08)
(4.82352 -0.124074 -1.20469e-08)
(4.79236 -0.105896 -1.20657e-08)
(4.76132 -0.086661 -1.20371e-08)
(4.71796 -0.070999 -1.2156e-08)
(4.67827 -0.0570008 -1.21642e-08)
(4.63781 -0.0474128 -1.22529e-08)
(4.60013 -0.038761 -1.21898e-08)
(4.56733 -0.033763 -1.22545e-08)
(4.53465 -0.0284402 -1.22176e-08)
(4.51049 -0.0256359 -1.2329e-08)
(4.48284 -0.023549 -1.23008e-08)
(4.46677 -0.0186932 -1.23874e-08)
(4.44438 -0.0258375 -1.23088e-08)
(4.42936 -0.00978804 -1.23832e-08)
(4.41351 -0.0402903 -1.22692e-08)
(4.45287 -0.0643016 -1.19261e-08)
(4.23563 -0.115837 -1.19385e-08)
(3.87503 -0.125034 -1.19548e-08)
(3.54018 -0.109631 -1.19636e-08)
(3.20619 -0.0851195 -1.20135e-08)
(2.94415 -0.0617049 -1.19894e-08)
(2.72122 -0.0400348 -1.20686e-08)
(2.56124 -0.0242259 -1.20864e-08)
(2.43705 -0.0114172 -1.22244e-08)
(2.35017 -0.00368988 -1.22317e-08)
(2.28736 0.00265064 -1.23254e-08)
(2.24096 0.00512921 -1.2278e-08)
(2.20983 0.0085211 -1.23551e-08)
(2.18455 0.00765692 -1.23089e-08)
(2.16624 0.0113932 -1.23849e-08)
(2.1579 0.00675532 -1.23237e-08)
(2.13287 0.015477 -1.23853e-08)
(2.16115 0.00581277 -1.23216e-08)
(2.09038 0.0275022 -1.24021e-08)
(2.22053 0.0462778 -1.23508e-08)
(4.49823 0.187739 -0.00525904)
(3.75418 0.274264 -0.00364902)
(3.17089 0.235241 -0.00443285)
(2.61717 0.160082 -0.00339575)
(2.36186 0.111423 -0.00414347)
(2.10411 0.0793801 -0.00331839)
(2.03302 0.0643587 -0.00397906)
(1.90253 0.05605 -0.00327388)
(1.88738 0.0524364 -0.00383519)
(1.8058 0.0505407 -0.00322278)
(1.80464 0.0490352 -0.00369582)
(1.74704 0.0492596 -0.00316467)
(1.7491 0.0465253 -0.00356391)
(1.70639 0.0498462 -0.00310485)
(1.70876 0.0403265 -0.00344291)
(1.67889 0.0537787 -0.00304628)
(1.67466 0.0137807 -0.00333644)
(1.69305 0.0602589 -0.00298819)
(1.61475 -0.12364 -0.00327424)
(2.04853 -0.165537 -0.0028739)
(4.62805 0.106053 -0.00338644)
(4.66373 0.226257 -0.00208644)
(4.7976 0.203115 -0.00282848)
(4.67323 0.149671 -0.00180411)
(4.64957 0.095127 -0.00254554)
(4.49347 0.0532389 -0.00171784)
(4.4527 0.0258684 -0.00237484)
(4.32622 0.00888512 -0.00166782)
(4.29571 -0.00198541 -0.00222701)
(4.19963 -0.00883668 -0.0016139)
(4.17835 -0.0134349 -0.00208534)
(4.10482 -0.0176179 -0.00155458)
(4.09058 -0.0183088 -0.00195135)
(4.03137 -0.023876 -0.00149479)
(4.02591 -0.0176326 -0.00182612)
(3.96749 -0.030122 -0.00143734)
(3.98466 -0.00778615 -0.00170391)
(3.88398 -0.0265685 -0.00137558)
(3.97683 0.00567347 -0.00155675)
(3.58806 0.0708619 -0.00119156)
(4.56098 0.060044 -0.00468268)
(4.71984 0.181847 -0.00347252)
(5.03897 0.209867 -0.00418236)
(5.14875 0.1862 -0.00314692)
(5.32786 0.155498 -0.00387723)
(5.34336 0.12464 -0.00304429)
(5.4273 0.103432 -0.00370214)
(5.40644 0.0873969 -0.002996)
(5.44973 0.0762045 -0.00355857)
(5.42208 0.0679128 -0.00294702)
(5.44653 0.0608926 -0.00342184)
(5.42138 0.0562851 -0.00289118)
(5.43381 0.0503921 -0.00329238)
(5.41623 0.0488962 -0.00283258)
(5.41519 0.0405706 -0.00317471)
(5.41657 0.0446763 -0.00277459)
(5.38861 0.0216565 -0.00307871)
(5.4418 0.0384577 -0.00272093)
(5.36817 -0.0414899 -0.00305731)
(5.51712 -0.0443272 -0.00268084)
(4.51929 0.0281468 -0.00322047)
(4.5858 0.0699362 -0.00212658)
(4.92689 0.0727997 -0.00282554)
(5.089 0.0643367 -0.00181073)
(5.34729 0.0511294 -0.00253634)
(5.4433 0.0387061 -0.00170284)
(5.60435 0.02955 -0.00235607)
(5.65613 0.0229285 -0.00164801)
(5.76331 0.018151 -0.00220715)
(5.79486 0.0145756 -0.00159496)
(5.8716 0.0117325 -0.00206681)
(5.89188 0.00910353 -0.00153724)
(5.95019 0.00758826 -0.0019338)
(5.96034 0.00472701 -0.00147844)
(6.01037 0.00540826 -0.00180795)
(6.00185 0.00105702 -0.00142026)
(6.06047 0.00552522 -0.00167925)
(5.99052 0.00235465 -0.00135057)
(6.09278 0.00358132 -0.00149459)
(5.79785 0.0310564 -0.00118342)
(4.55092 -1.53479e-08 -0.0045941)
(4.6679 5.47074e-08 -0.00350159)
(4.98205 -3.8806e-09 -0.00418941)
(5.13516 1.58799e-07 -0.0031595)
(5.38505 7.0869e-08 -0.00388128)
(5.48381 4.08054e-07 -0.00304418)
(5.65074 4.53461e-07 -0.00369967)
(5.71267 9.83094e-07 -0.00299226)
(5.83095 1.78294e-06 -0.0035548)
(5.87655 2.48949e-06 -0.00294336)
(5.9653 5.66462e-06 -0.00341864)
(6.00273 6.97985e-06 -0.00288833)
(6.06912 1.56419e-05 -0.00329005)
(6.10389 2.0626e-05 -0.00283046)
(6.14781 4.22709e-05 -0.0031737)
(6.19141 5.591e-05 -0.00277326)
(6.20425 0.000127452 -0.0030822)
(6.27964 0.000154177 -0.00272136)
(6.26644 0.000434625 -0.0030748)
(6.36276 0.000623358 -0.00270331)
(4.51929 -0.0281468 -0.00322046)
(4.5858 -0.0699361 -0.00212658)
(4.92689 -0.0727998 -0.00282554)
(5.08901 -0.0643362 -0.00181073)
(5.34729 -0.0511295 -0.00253634)
(5.4433 -0.0387049 -0.00170284)
(5.60435 -0.0295498 -0.00235607)
(5.65613 -0.0229252 -0.00164801)
(5.76331 -0.0181494 -0.00220714)
(5.79486 -0.0145664 -0.00159496)
(5.8716 -0.0117269 -0.00206681)
(5.8919 -0.00907551 -0.00153724)
(5.95019 -0.00757475 -0.00193379)
(5.96039 -0.00463655 -0.00147844)
(6.01038 -0.00538104 -0.00180793)
(6.00196 -0.000777325 -0.00142025)
(6.06056 -0.00545017 -0.0016792)
(5.9908 -0.00159212 -0.00135052)
(6.0932 -0.00325685 -0.00149468)
(5.79866 -0.0293831 -0.00118326)
(4.56098 -0.060044 -0.00468268)
(4.71984 -0.181847 -0.00347252)
(5.03897 -0.209867 -0.00418235)
(5.14875 -0.1862 -0.00314692)
(5.32786 -0.155497 -0.00387723)
(5.34336 -0.124639 -0.0030443)
(5.4273 -0.103431 -0.00370214)
(5.40644 -0.0873954 -0.002996)
(5.44973 -0.0762009 -0.00355856)
(5.42209 -0.0679087 -0.00294703)
(5.44652 -0.0608817 -0.00342182)
(5.42142 -0.0562723 -0.0028912)
(5.43382 -0.0503626 -0.00329235)
(5.41632 -0.0488535 -0.00283262)
(5.41525 -0.0404926 -0.00317463)
(5.41681 -0.044545 -0.0027747)
(5.38886 -0.0214259 -0.00307853)
(5.44239 -0.0381195 -0.00272113)
(5.36898 0.0422602 -0.0030569)
(5.5187 0.0451967 -0.00268092)
(4.62805 -0.106053 -0.00338644)
(4.66373 -0.226257 -0.00208644)
(4.7976 -0.203115 -0.00282848)
(4.67323 -0.149671 -0.00180411)
(4.64957 -0.0951269 -0.00254554)
(4.49347 -0.0532383 -0.00171784)
(4.4527 -0.025868 -0.00237484)
(4.32623 -0.00888356 -0.00166783)
(4.29571 0.00198666 -0.00222701)
(4.19965 0.00884097 -0.00161391)
(4.17835 0.0134383 -0.00208533)
(4.10488 0.0176311 -0.00155459)
(4.09059 0.0183149 -0.00195132)
(4.03153 0.0239199 -0.00149481)
(4.02595 0.0176369 -0.00182605)
(3.96794 0.0302613 -0.0014374)
(3.98481 0.00778118 -0.00170373)
(3.88531 0.0269668 -0.00137569)
(3.9773 -0.00554678 -0.00155652)
(3.59228 -0.0697181 -0.00119166)
(4.49823 -0.187739 -0.00525904)
(3.75418 -0.274264 -0.00364902)
(3.17089 -0.235241 -0.00443285)
(2.61718 -0.160082 -0.00339575)
(2.36186 -0.111423 -0.00414347)
(2.10411 -0.0793802 -0.00331839)
(2.03302 -0.0643582 -0.00397906)
(1.90253 -0.0560502 -0.00327388)
(1.88739 -0.052435 -0.00383519)
(1.80581 -0.0505413 -0.00322278)
(1.80465 -0.049031 -0.00369582)
(1.74707 -0.0492606 -0.00316468)
(1.74914 -0.0465134 -0.00356389)
(1.70648 -0.0498456 -0.00310489)
(1.70891 -0.0402955 -0.00344283)
(1.67909 -0.0537667 -0.00304641)
(1.67513 -0.0137109 -0.00333617)
(1.69359 -0.0602476 -0.00298865)
(1.61588 0.123701 -0.003273)
(2.0508 0.164923 -0.00287631)
(3.51979 0.414027 27.0291)
(2.83322 0.145764 27.066)
(2.0994 0.0426121 27.068)
(1.90718 -0.0236134 27.0752)
(1.6393 -0.0435247 27.0735)
(1.6312 -0.0497939 27.0776)
(1.481 -0.0506378 27.0755)
(1.51105 -0.0494277 27.0786)
(1.4018 -0.0481079 27.0768)
(1.4383 -0.0467822 27.0793)
(1.35184 -0.0451519 27.0778)
(1.38771 -0.0450066 27.0798)
(1.31716 -0.0419486 27.0787)
(1.35057 -0.0446685 27.0801)
(1.29124 -0.0359893 27.0795)
(1.32216 -0.046118 27.0803)
(1.26863 -0.0153716 27.0805)
(1.28749 -0.044777 27.0798)
(1.26127 0.0909037 27.0829)
(1.04853 0.122517 27.0713)
(4.59823 0.540747 27.0541)
(4.79116 0.367765 27.083)
(4.50294 0.278915 27.0829)
(4.45687 0.180752 27.09)
(4.17254 0.125597 27.0899)
(4.15159 0.0949503 27.0944)
(3.93501 0.0761679 27.0938)
(3.94344 0.0653856 27.0967)
(3.77687 0.0572866 27.0963)
(3.80033 0.052218 27.0984)
(3.66856 0.0472802 27.0981)
(3.69883 0.0451654 27.0995)
(3.59129 0.0401222 27.0995)
(3.62568 0.0418733 27.1003)
(3.53271 0.0315555 27.101)
(3.57698 0.0421271 27.1004)
(3.48244 0.0135118 27.1034)
(3.56997 0.0351764 27.0984)
(3.42851 -0.0199365 27.1089)
(3.77313 -0.0680049 27.0781)
(4.71666 0.283934 27.0558)
(5.19281 0.204527 27.0792)
(5.29574 0.181945 27.072)
(5.534 0.12176 27.0762)
(5.4752 0.0851639 27.0722)
(5.59656 0.0599917 27.0761)
(5.5063 0.0422137 27.0732)
(5.58571 0.0299873 27.0764)
(5.49721 0.0206624 27.0743)
(5.55615 0.0131971 27.077)
(5.47685 0.00805553 27.0756)
(5.52238 0.00255192 27.0778)
(5.45483 0.000547767 27.0771)
(5.48788 -0.00476723 27.0787)
(5.43626 -0.00251775 27.0788)
(5.44866 -0.00952082 27.0793)
(5.42547 0.00290086 27.0809)
(5.38564 -0.00670041 27.0793)
(5.40846 0.034743 27.0838)
(5.25518 0.0588341 27.0626)
(4.69459 0.166709 27.0645)
(5.11117 0.127614 27.0882)
(5.31114 0.119557 27.0825)
(5.6465 0.0896862 27.0846)
(5.70364 0.0711587 27.0815)
(5.92066 0.0589669 27.0833)
(5.92672 0.0502071 27.0813)
(6.07966 0.044378 27.0828)
(6.06684 0.0393911 27.0816)
(6.18138 0.0356392 27.0827)
(6.15992 0.0320334 27.082)
(6.24965 0.0295619 27.083)
(6.22268 0.0261859 27.0826)
(6.29793 0.0254678 27.0834)
(6.26408 0.020327 27.0834)
(6.33803 0.0232296 27.0838)
(6.29112 0.0116982 27.0844)
(6.39285 0.0187326 27.0843)
(6.32437 0.000804929 27.0855)
(6.54385 -0.00947264 27.065)
(4.69586 -5.06888e-09 27.0597)
(5.10788 7.74273e-08 27.0819)
(5.31738 -7.01326e-09 27.0733)
(5.66706 2.26051e-07 27.0757)
(5.738 1.66999e-08 27.0703)
(5.96998 5.94292e-07 27.0728)
(5.99363 2.93203e-07 27.069)
(6.16359 1.4964e-06 27.0712)
(6.17103 1.49476e-06 27.0685)
(6.30206 4.06898e-06 27.0705)
(6.30198 5.11859e-06 27.0685)
(6.40379 1.33441e-05 27.0703)
(6.40101 1.23195e-05 27.0689)
(6.47675 4.95366e-05 27.0705)
(6.47883 2.00043e-05 27.0696)
(6.52095 0.000173329 27.071)
(6.54508 3.58617e-05 27.0704)
(6.52256 0.000500414 27.0718)
(6.58805 0.000164626 27.0714)
(6.4566 0.00082039 27.0531)
(4.69459 -0.166709 27.0645)
(5.11117 -0.127614 27.0882)
(5.31114 -0.119557 27.0825)
(5.6465 -0.0896859 27.0846)
(5.70364 -0.0711585 27.0815)
(5.92066 -0.0589661 27.0833)
(5.92672 -0.0502061 27.0813)
(6.07967 -0.0443761 27.0828)
(6.06683 -0.0393872 27.0815)
(6.18139 -0.0356346 27.0828)
(6.15992 -0.0320204 27.082)
(6.24967 -0.0295482 27.083)
(6.22268 -0.0261518 27.0825)
(6.29798 -0.025417 27.0835)
(6.26412 -0.0202512 27.0833)
(6.33815 -0.0230495 27.0841)
(6.29129 -0.0115169 27.0841)
(6.3931 -0.0182219 27.0847)
(6.32487 -0.000141469 27.085)
(6.54457 0.0107791 27.0654)
(4.71666 -0.283934 27.0558)
(5.19281 -0.204526 27.0792)
(5.29574 -0.181945 27.0719)
(5.534 -0.12176 27.0762)
(5.4752 -0.0851638 27.0722)
(5.59657 -0.0599908 27.0761)
(5.5063 -0.0422131 27.0732)
(5.58571 -0.0299852 27.0764)
(5.49721 -0.02066 27.0743)
(5.55616 -0.0131914 27.0771)
(5.47685 -0.00804824 27.0755)
(5.52243 -0.0025334 27.078)
(5.45483 -0.000532673 27.0769)
(5.48801 0.00483587 27.079)
(5.43629 0.00253161 27.0782)
(5.44898 0.00975929 27.0801)
(5.42569 -0.0029076 27.0797)
(5.38641 0.00737221 27.0812)
(5.40938 -0.034579 27.081)
(5.25737 -0.0573862 27.0663)
(4.59823 -0.540747 27.0541)
(4.79116 -0.367765 27.083)
(4.50294 -0.278914 27.0829)
(4.45687 -0.180751 27.09)
(4.17254 -0.125597 27.0899)
(4.15159 -0.0949502 27.0944)
(3.93501 -0.0761671 27.0938)
(3.94345 -0.0653853 27.0968)
(3.77687 -0.057284 27.0963)
(3.80035 -0.0522171 27.0984)
(3.66857 -0.0472721 27.098)
(3.69888 -0.045162 27.0996)
(3.59132 -0.0401013 27.0993)
(3.62581 -0.0418547 27.1006)
(3.53284 -0.0315084 27.1004)
(3.57727 -0.0420445 27.1015)
(3.48297 -0.0134034 27.1014)
(3.57064 -0.0349276 27.1022)
(3.42995 0.0202847 27.1019)
(3.77515 0.0682561 27.0908)
(3.51979 -0.414027 27.0291)
(2.83322 -0.145764 27.066)
(2.0994 -0.0426121 27.068)
(1.90718 0.0236134 27.0752)
(1.6393 0.0435246 27.0735)
(1.6312 0.0497941 27.0776)
(1.481 0.0506376 27.0755)
(1.51105 0.0494281 27.0786)
(1.40181 0.0481073 27.0768)
(1.43831 0.0467832 27.0793)
(1.35185 0.0451501 27.0778)
(1.38774 0.0450088 27.0798)
(1.31719 0.0419427 27.0786)
(1.35065 0.0446746 27.0802)
(1.29133 0.0359754 27.0793)
(1.32234 0.0461341 27.0806)
(1.26897 0.0153338 27.0799)
(1.28792 0.0448314 27.081)
(1.26231 -0.0908669 27.0802)
(1.05029 -0.121927 27.0793)
(1.11513 -0.155598 -27.1261)
(1.20471 -0.14491 -27.2418)
(1.1596 -0.113778 -27.3125)
(1.1788 -0.110199 -27.3669)
(1.14796 -0.109857 -27.4074)
(1.16453 -0.109885 -27.4424)
(1.14085 -0.110381 -27.4704)
(1.15492 -0.110518 -27.4955)
(1.13588 -0.110907 -27.5162)
(1.14795 -0.111009 -27.5349)
(1.13222 -0.111299 -27.5505)
(1.14277 -0.111371 -27.5646)
(1.12953 -0.111589 -27.5763)
(1.13894 -0.111637 -27.5868)
(1.12762 -0.111799 -27.5955)
(1.13614 -0.111825 -27.6031)
(1.12633 -0.111944 -27.6093)
(1.13412 -0.111951 -27.6145)
(1.12553 -0.112036 -27.6187)
(1.13272 -0.112029 -27.6222)
(1.12513 -0.112088 -27.6248)
(1.13181 -0.112071 -27.6269)
(1.12506 -0.112112 -27.6284)
(1.13128 -0.112087 -27.6295)
(1.12524 -0.112116 -27.6302)
(1.13107 -0.112088 -27.6307)
(1.12564 -0.112109 -27.631)
(1.13111 -0.112082 -27.6311)
(1.12621 -0.112099 -27.6312)
(1.13135 -0.112073 -27.6311)
(1.12692 -0.112087 -27.631)
(1.13176 -0.112064 -27.6309)
(1.12774 -0.112077 -27.6308)
(1.13231 -0.112055 -27.6307)
(1.12865 -0.112068 -27.6305)
(1.13296 -0.112048 -27.6304)
(1.12964 -0.112059 -27.6303)
(1.1337 -0.112042 -27.6301)
(1.13068 -0.112052 -27.63)
(1.13452 -0.112036 -27.6298)
(1.13176 -0.112046 -27.6297)
(1.13539 -0.112031 -27.6295)
(1.13288 -0.11204 -27.6294)
(1.13631 -0.112026 -27.6292)
(1.13402 -0.112034 -27.6291)
(1.13727 -0.112022 -27.629)
(1.13518 -0.112029 -27.6288)
(1.13826 -0.112018 -27.6287)
(1.13636 -0.112024 -27.6285)
(1.13928 -0.112014 -27.6284)
(1.13754 -0.11202 -27.6282)
(1.14032 -0.11201 -27.6281)
(1.13873 -0.112016 -27.6279)