/*--------------------------------*- C++ -*----------------------------------*\
  =========                 |
  \\      /  F ield         | OpenFOAM: The Open Source CFD Toolbox
   \\    /   O peration     | Website:  https://openfoam.org
    \\  /    A nd           | Version:  7
     \\/     M anipulation  |
\*---------------------------------------------------------------------------*/
FoamFile
{
    version     2.0;
    format      ascii;
    class       volScalarField;
    location    "0.66";
    object      pPrime2Mean;
}
// * * * * * * * * * * * * * * * * * * * * * * * * * * * * * * * * * * * * * //

dimensions      [2 -2 -4 0 0 0 0];

internalField   nonuniform List<scalar> 
7920
(
2.25748e+06
2.25514e+06
2.25528e+06
2.25273e+06
2.25271e+06
2.24961e+06
2.24921e+06
2.24557e+06
2.24471e+06
2.24065e+06
2.2394e+06
2.23508e+06
2.23352e+06
2.22903e+06
2.22722e+06
2.22258e+06
2.22054e+06
2.21576e+06
2.21361e+06
2.20906e+06
2.25733e+06
2.25493e+06
2.25499e+06
2.25237e+06
2.25234e+06
2.2492e+06
2.24879e+06
2.2451e+06
2.24424e+06
2.24015e+06
2.2389e+06
2.23455e+06
2.23299e+06
2.22848e+06
2.22666e+06
2.222e+06
2.21996e+06
2.21515e+06
2.21301e+06
2.20843e+06
2.25734e+06
2.25488e+06
2.25494e+06
2.25234e+06
2.2523e+06
2.2492e+06
2.24881e+06
2.24518e+06
2.24435e+06
2.2403e+06
2.23906e+06
2.23474e+06
2.23319e+06
2.22869e+06
2.22688e+06
2.22223e+06
2.22018e+06
2.21538e+06
2.21319e+06
2.20857e+06
2.25734e+06
2.25488e+06
2.25494e+06
2.25233e+06
2.25228e+06
2.24915e+06
2.24874e+06
2.24507e+06
2.24422e+06
2.24016e+06
2.23892e+06
2.23458e+06
2.23303e+06
2.22853e+06
2.22672e+06
2.22206e+06
2.22002e+06
2.21519e+06
2.21301e+06
2.20826e+06
2.25735e+06
2.25488e+06
2.25492e+06
2.25231e+06
2.25226e+06
2.24913e+06
2.24873e+06
2.24509e+06
2.24426e+06
2.24021e+06
2.23899e+06
2.23467e+06
2.23312e+06
2.22863e+06
2.22682e+06
2.22218e+06
2.22012e+06
2.21532e+06
2.2131e+06
2.20834e+06
2.25734e+06
2.25486e+06
2.2549e+06
2.25229e+06
2.25224e+06
2.24911e+06
2.2487e+06
2.24506e+06
2.24422e+06
2.24017e+06
2.23894e+06
2.23462e+06
2.23307e+06
2.22857e+06
2.22677e+06
2.22212e+06
2.22007e+06
2.21526e+06
2.21304e+06
2.20825e+06
2.25734e+06
2.25486e+06
2.2549e+06
2.25229e+06
2.25224e+06
2.24911e+06
2.2487e+06
2.24506e+06
2.24422e+06
2.24017e+06
2.23894e+06
2.23462e+06
2.23307e+06
2.22857e+06
2.22677e+06
2.22212e+06
2.22007e+06
2.21526e+06
2.21305e+06
2.20825e+06
2.25735e+06
2.25488e+06
2.25492e+06
2.25231e+06
2.25226e+06
2.24913e+06
2.24873e+06
2.24509e+06
2.24426e+06
2.24021e+06
2.23899e+06
2.23467e+06
2.23312e+06
2.22863e+06
2.22682e+06
2.22218e+06
2.22012e+06
2.21532e+06
2.21309e+06
2.20834e+06
2.25734e+06
2.25488e+06
2.25494e+06
2.25233e+06
2.25228e+06
2.24915e+06
2.24874e+06
2.24507e+06
2.24422e+06
2.24016e+06
2.23892e+06
2.23458e+06
2.23303e+06
2.22853e+06
2.22672e+06
2.22206e+06
2.22002e+06
2.21519e+06
2.21301e+06
2.20826e+06
2.25734e+06
2.25488e+06
2.25494e+06
2.25234e+06
2.2523e+06
2.2492e+06
2.24881e+06
2.24518e+06
2.24435e+06
2.2403e+06
2.23906e+06
2.23474e+06
2.23319e+06
2.22869e+06
2.22688e+06
2.22223e+06
2.22017e+06
2.21539e+06
2.21318e+06
2.20857e+06
2.25733e+06
2.25493e+06
2.25499e+06
2.25237e+06
2.25234e+06
2.2492e+06
2.24879e+06
2.2451e+06
2.24424e+06
2.24015e+06
2.2389e+06
2.23455e+06
2.23299e+06
2.22848e+06
2.22666e+06
2.222e+06
2.21996e+06
2.21515e+06
2.21301e+06
2.20843e+06
2.25748e+06
2.25514e+06
2.25528e+06
2.25273e+06
2.25271e+06
2.24961e+06
2.24921e+06
2.24557e+06
2.24471e+06
2.24065e+06
2.2394e+06
2.23508e+06
2.23352e+06
2.22903e+06
2.22722e+06
2.22258e+06
2.22054e+06
2.21576e+06
2.21361e+06
2.20906e+06
2.25549e+06
2.2524e+06
2.25326e+06
2.25006e+06
2.25075e+06
2.24702e+06
2.2473e+06
2.24314e+06
2.24298e+06
2.2385e+06
2.23791e+06
2.23322e+06
2.23227e+06
2.22746e+06
2.2262e+06
2.22131e+06
2.21976e+06
2.21476e+06
2.21303e+06
2.20809e+06
2.25562e+06
2.25241e+06
2.25327e+06
2.25012e+06
2.25084e+06
2.24719e+06
2.24752e+06
2.24344e+06
2.24331e+06
2.23887e+06
2.2383e+06
2.23364e+06
2.23269e+06
2.22791e+06
2.22665e+06
2.22177e+06
2.22022e+06
2.21526e+06
2.21354e+06
2.20866e+06
2.25562e+06
2.25245e+06
2.25334e+06
2.25015e+06
2.25086e+06
2.24715e+06
2.24744e+06
2.24331e+06
2.24315e+06
2.23869e+06
2.23811e+06
2.23343e+06
2.23248e+06
2.22768e+06
2.22642e+06
2.22152e+06
2.21997e+06
2.21496e+06
2.21322e+06
2.20814e+06
2.25569e+06
2.25244e+06
2.25328e+06
2.25006e+06
2.25076e+06
2.2471e+06
2.24743e+06
2.24334e+06
2.24323e+06
2.23881e+06
2.23825e+06
2.2336e+06
2.23266e+06
2.22788e+06
2.22663e+06
2.22175e+06
2.22018e+06
2.2152e+06
2.21345e+06
2.2084e+06
2.25568e+06
2.25243e+06
2.25327e+06
2.25005e+06
2.25076e+06
2.24708e+06
2.2474e+06
2.24329e+06
2.24316e+06
2.23872e+06
2.23815e+06
2.23349e+06
2.23255e+06
2.22776e+06
2.2265e+06
2.22161e+06
2.22006e+06
2.21504e+06
2.21329e+06
2.20817e+06
2.2557e+06
2.25244e+06
2.25327e+06
2.25005e+06
2.25075e+06
2.24708e+06
2.2474e+06
2.24331e+06
2.24319e+06
2.23875e+06
2.23819e+06
2.23354e+06
2.2326e+06
2.22782e+06
2.22657e+06
2.22169e+06
2.22013e+06
2.21512e+06
2.21337e+06
2.20826e+06
2.2557e+06
2.25244e+06
2.25327e+06
2.25005e+06
2.25075e+06
2.24708e+06
2.2474e+06
2.24331e+06
2.24319e+06
2.23875e+06
2.23819e+06
2.23354e+06
2.2326e+06
2.22782e+06
2.22657e+06
2.22169e+06
2.22012e+06
2.21512e+06
2.21336e+06
2.20826e+06
2.25568e+06
2.25243e+06
2.25327e+06
2.25005e+06
2.25076e+06
2.24708e+06
2.2474e+06
2.24329e+06
2.24316e+06
2.23872e+06
2.23815e+06
2.23349e+06
2.23255e+06
2.22776e+06
2.2265e+06
2.22161e+06
2.22006e+06
2.21504e+06
2.2133e+06
2.20817e+06
2.25569e+06
2.25244e+06
2.25328e+06
2.25006e+06
2.25076e+06
2.2471e+06
2.24743e+06
2.24334e+06
2.24323e+06
2.23881e+06
2.23825e+06
2.2336e+06
2.23266e+06
2.22788e+06
2.22663e+06
2.22175e+06
2.22018e+06
2.2152e+06
2.21344e+06
2.2084e+06
2.25562e+06
2.25245e+06
2.25334e+06
2.25015e+06
2.25086e+06
2.24715e+06
2.24744e+06
2.24331e+06
2.24315e+06
2.23869e+06
2.23811e+06
2.23343e+06
2.23248e+06
2.22768e+06
2.22642e+06
2.22152e+06
2.21996e+06
2.21496e+06
2.21322e+06
2.20814e+06
2.25562e+06
2.25241e+06
2.25327e+06
2.25012e+06
2.25084e+06
2.24719e+06
2.24752e+06
2.24344e+06
2.24331e+06
2.23887e+06
2.2383e+06
2.23364e+06
2.23269e+06
2.22791e+06
2.22665e+06
2.22177e+06
2.22021e+06
2.21526e+06
2.21353e+06
2.20866e+06
2.25549e+06
2.2524e+06
2.25326e+06
2.25006e+06
2.25075e+06
2.24702e+06
2.2473e+06
2.24314e+06
2.24298e+06
2.2385e+06
2.23791e+06
2.23322e+06
2.23227e+06
2.22746e+06
2.2262e+06
2.22131e+06
2.21975e+06
2.21476e+06
2.21303e+06
2.2081e+06
2.25544e+06
2.25235e+06
2.25285e+06
2.24985e+06
2.25047e+06
2.2471e+06
2.24734e+06
2.24342e+06
2.24318e+06
2.23886e+06
2.23824e+06
2.23368e+06
2.23273e+06
2.22799e+06
2.22675e+06
2.22185e+06
2.22035e+06
2.21525e+06
2.21364e+06
2.20861e+06
2.25552e+06
2.25238e+06
2.25286e+06
2.24984e+06
2.25044e+06
2.24706e+06
2.2473e+06
2.24339e+06
2.24318e+06
2.23888e+06
2.23828e+06
2.23373e+06
2.23279e+06
2.22805e+06
2.22681e+06
2.2219e+06
2.22039e+06
2.21529e+06
2.21366e+06
2.20857e+06
2.25553e+06
2.2524e+06
2.25288e+06
2.24984e+06
2.25042e+06
2.24704e+06
2.24728e+06
2.24339e+06
2.24318e+06
2.23888e+06
2.23828e+06
2.23373e+06
2.2328e+06
2.22806e+06
2.22682e+06
2.22191e+06
2.2204e+06
2.21529e+06
2.21365e+06
2.20851e+06
2.25557e+06
2.25241e+06
2.25289e+06
2.24984e+06
2.2504e+06
2.247e+06
2.24725e+06
2.24335e+06
2.24315e+06
2.23887e+06
2.23828e+06
2.23374e+06
2.23281e+06
2.22808e+06
2.22684e+06
2.22193e+06
2.22042e+06
2.21531e+06
2.21366e+06
2.20852e+06
2.25557e+06
2.25242e+06
2.25289e+06
2.24983e+06
2.25039e+06
2.24699e+06
2.24724e+06
2.24335e+06
2.24316e+06
2.23887e+06
2.23828e+06
2.23373e+06
2.2328e+06
2.22807e+06
2.22684e+06
2.22193e+06
2.22042e+06
2.21531e+06
2.21366e+06
2.20852e+06
2.25559e+06
2.25243e+06
2.2529e+06
2.24983e+06
2.25038e+06
2.24698e+06
2.24723e+06
2.24334e+06
2.24315e+06
2.23887e+06
2.23828e+06
2.23373e+06
2.23281e+06
2.22808e+06
2.22685e+06
2.22193e+06
2.22042e+06
2.21531e+06
2.21366e+06
2.20853e+06
2.25559e+06
2.25243e+06
2.2529e+06
2.24983e+06
2.25038e+06
2.24698e+06
2.24723e+06
2.24334e+06
2.24315e+06
2.23887e+06
2.23828e+06
2.23373e+06
2.23281e+06
2.22808e+06
2.22685e+06
2.22193e+06
2.22042e+06
2.21531e+06
2.21366e+06
2.20853e+06
2.25557e+06
2.25242e+06
2.25289e+06
2.24983e+06
2.25039e+06
2.24699e+06
2.24724e+06
2.24335e+06
2.24316e+06
2.23887e+06
2.23828e+06
2.23373e+06
2.2328e+06
2.22807e+06
2.22684e+06
2.22193e+06
2.22042e+06
2.21531e+06
2.21366e+06
2.20852e+06
2.25557e+06
2.25241e+06
2.25289e+06
2.24984e+06
2.2504e+06
2.247e+06
2.24725e+06
2.24335e+06
2.24315e+06
2.23887e+06
2.23828e+06
2.23374e+06
2.23281e+06
2.22808e+06
2.22684e+06
2.22193e+06
2.22042e+06
2.21531e+06
2.21366e+06
2.20852e+06
2.25553e+06
2.2524e+06
2.25288e+06
2.24984e+06
2.25042e+06
2.24704e+06
2.24728e+06
2.24339e+06
2.24318e+06
2.23888e+06
2.23828e+06
2.23373e+06
2.2328e+06
2.22806e+06
2.22682e+06
2.22191e+06
2.2204e+06
2.21529e+06
2.21365e+06
2.20852e+06
2.25552e+06
2.25238e+06
2.25286e+06
2.24984e+06
2.25044e+06
2.24706e+06
2.2473e+06
2.24339e+06
2.24318e+06
2.23888e+06
2.23828e+06
2.23373e+06
2.23279e+06
2.22805e+06
2.22681e+06
2.2219e+06
2.22039e+06
2.21529e+06
2.21366e+06
2.20857e+06
2.25544e+06
2.25235e+06
2.25285e+06
2.24985e+06
2.25047e+06
2.2471e+06
2.24734e+06
2.24342e+06
2.24318e+06
2.23886e+06
2.23824e+06
2.23368e+06
2.23273e+06
2.22799e+06
2.22675e+06
2.22185e+06
2.22035e+06
2.21525e+06
2.21363e+06
2.20862e+06
2.25544e+06
2.25235e+06
2.25285e+06
2.24985e+06
2.25047e+06
2.2471e+06
2.24734e+06
2.24342e+06
2.24318e+06
2.23886e+06
2.23824e+06
2.23368e+06
2.23273e+06
2.22799e+06
2.22675e+06
2.22185e+06
2.22035e+06
2.21525e+06
2.21364e+06
2.20861e+06
2.25552e+06
2.25238e+06
2.25286e+06
2.24984e+06
2.25044e+06
2.24706e+06
2.2473e+06
2.24339e+06
2.24318e+06
2.23888e+06
2.23828e+06
2.23373e+06
2.23279e+06
2.22805e+06
2.22681e+06
2.2219e+06
2.22039e+06
2.21529e+06
2.21366e+06
2.20857e+06
2.25553e+06
2.2524e+06
2.25288e+06
2.24984e+06
2.25042e+06
2.24704e+06
2.24728e+06
2.24339e+06
2.24318e+06
2.23889e+06
2.23828e+06
2.23373e+06
2.2328e+06
2.22806e+06
2.22682e+06
2.22191e+06
2.2204e+06
2.21529e+06
2.21365e+06
2.20851e+06
2.25557e+06
2.25241e+06
2.25289e+06
2.24984e+06
2.2504e+06
2.247e+06
2.24725e+06
2.24335e+06
2.24315e+06
2.23887e+06
2.23828e+06
2.23374e+06
2.23281e+06
2.22808e+06
2.22684e+06
2.22193e+06
2.22042e+06
2.21531e+06
2.21366e+06
2.20852e+06
2.25557e+06
2.25242e+06
2.2529e+06
2.24983e+06
2.25039e+06
2.24699e+06
2.24724e+06
2.24335e+06
2.24316e+06
2.23887e+06
2.23828e+06
2.23373e+06
2.2328e+06
2.22807e+06
2.22684e+06
2.22193e+06
2.22042e+06
2.21531e+06
2.21366e+06
2.20852e+06
2.25559e+06
2.25243e+06
2.2529e+06
2.24983e+06
2.25038e+06
2.24698e+06
2.24723e+06
2.24334e+06
2.24315e+06
2.23887e+06
2.23828e+06
2.23373e+06
2.23281e+06
2.22808e+06
2.22685e+06
2.22193e+06
2.22043e+06
2.21531e+06
2.21366e+06
2.20853e+06
2.25559e+06
2.25243e+06
2.2529e+06
2.24983e+06
2.25038e+06
2.24698e+06
2.24723e+06
2.24334e+06
2.24315e+06
2.23887e+06
2.23828e+06
2.23373e+06
2.23281e+06
2.22808e+06
2.22685e+06
2.22193e+06
2.22043e+06
2.21531e+06
2.21366e+06
2.20853e+06
2.25557e+06
2.25242e+06
2.2529e+06
2.24983e+06
2.25039e+06
2.24699e+06
2.24724e+06
2.24335e+06
2.24316e+06
2.23887e+06
2.23828e+06
2.23373e+06
2.2328e+06
2.22807e+06
2.22684e+06
2.22193e+06
2.22042e+06
2.21531e+06
2.21366e+06
2.20852e+06
2.25557e+06
2.25241e+06
2.25289e+06
2.24984e+06
2.2504e+06
2.247e+06
2.24725e+06
2.24335e+06
2.24315e+06
2.23887e+06
2.23828e+06
2.23374e+06
2.23281e+06
2.22808e+06
2.22685e+06
2.22193e+06
2.22042e+06
2.21531e+06
2.21366e+06
2.20852e+06
2.25553e+06
2.2524e+06
2.25288e+06
2.24984e+06
2.25042e+06
2.24704e+06
2.24728e+06
2.24339e+06
2.24318e+06
2.23889e+06
2.23828e+06
2.23373e+06
2.2328e+06
2.22806e+06
2.22682e+06
2.22191e+06
2.2204e+06
2.21529e+06
2.21365e+06
2.20852e+06
2.25552e+06
2.25238e+06
2.25286e+06
2.24984e+06
2.25044e+06
2.24706e+06
2.2473e+06
2.24339e+06
2.24318e+06
2.23888e+06
2.23828e+06
2.23373e+06
2.23279e+06
2.22805e+06
2.22681e+06
2.2219e+06
2.22039e+06
2.21529e+06
2.21366e+06
2.20857e+06
2.25544e+06
2.25235e+06
2.25285e+06
2.24985e+06
2.25047e+06
2.2471e+06
2.24734e+06
2.24342e+06
2.24318e+06
2.23886e+06
2.23824e+06
2.23368e+06
2.23273e+06
2.22799e+06
2.22675e+06
2.22185e+06
2.22035e+06
2.21525e+06
2.21363e+06
2.20862e+06
2.25549e+06
2.2524e+06
2.25326e+06
2.25006e+06
2.25075e+06
2.24702e+06
2.2473e+06
2.24315e+06
2.24298e+06
2.2385e+06
2.23791e+06
2.23322e+06
2.23227e+06
2.22746e+06
2.2262e+06
2.22131e+06
2.21976e+06
2.21476e+06
2.21303e+06
2.2081e+06
2.25563e+06
2.25241e+06
2.25327e+06
2.25012e+06
2.25084e+06
2.24719e+06
2.24752e+06
2.24344e+06
2.24331e+06
2.23887e+06
2.2383e+06
2.23364e+06
2.23269e+06
2.22791e+06
2.22665e+06
2.22177e+06
2.22022e+06
2.21526e+06
2.21354e+06
2.20866e+06
2.25562e+06
2.25245e+06
2.25334e+06
2.25015e+06
2.25086e+06
2.24715e+06
2.24744e+06
2.24331e+06
2.24316e+06
2.23869e+06
2.23811e+06
2.23343e+06
2.23248e+06
2.22769e+06
2.22642e+06
2.22152e+06
2.21997e+06
2.21496e+06
2.21322e+06
2.20814e+06
2.25569e+06
2.25244e+06
2.25328e+06
2.25006e+06
2.25076e+06
2.2471e+06
2.24743e+06
2.24335e+06
2.24323e+06
2.23881e+06
2.23825e+06
2.2336e+06
2.23266e+06
2.22788e+06
2.22663e+06
2.22175e+06
2.22018e+06
2.2152e+06
2.21345e+06
2.2084e+06
2.25568e+06
2.25243e+06
2.25327e+06
2.25005e+06
2.25076e+06
2.24708e+06
2.2474e+06
2.24329e+06
2.24316e+06
2.23872e+06
2.23815e+06
2.23349e+06
2.23255e+06
2.22776e+06
2.2265e+06
2.22161e+06
2.22006e+06
2.21504e+06
2.21329e+06
2.20817e+06
2.2557e+06
2.25244e+06
2.25328e+06
2.25005e+06
2.25076e+06
2.24708e+06
2.2474e+06
2.24331e+06
2.24319e+06
2.23876e+06
2.23819e+06
2.23354e+06
2.23261e+06
2.22782e+06
2.22657e+06
2.22169e+06
2.22013e+06
2.21512e+06
2.21337e+06
2.20826e+06
2.2557e+06
2.25244e+06
2.25328e+06
2.25005e+06
2.25076e+06
2.24708e+06
2.2474e+06
2.24331e+06
2.24319e+06
2.23876e+06
2.23819e+06
2.23354e+06
2.23261e+06
2.22782e+06
2.22657e+06
2.22169e+06
2.22013e+06
2.21512e+06
2.21336e+06
2.20826e+06
2.25568e+06
2.25243e+06
2.25327e+06
2.25005e+06
2.25076e+06
2.24708e+06
2.2474e+06
2.24329e+06
2.24316e+06
2.23872e+06
2.23815e+06
2.23349e+06
2.23255e+06
2.22776e+06
2.2265e+06
2.22161e+06
2.22006e+06
2.21504e+06
2.2133e+06
2.20817e+06
2.25569e+06
2.25244e+06
2.25328e+06
2.25006e+06
2.25076e+06
2.2471e+06
2.24743e+06
2.24335e+06
2.24323e+06
2.23881e+06
2.23825e+06
2.2336e+06
2.23266e+06
2.22788e+06
2.22663e+06
2.22175e+06
2.22018e+06
2.2152e+06
2.21344e+06
2.2084e+06
2.25562e+06
2.25245e+06
2.25334e+06
2.25015e+06
2.25086e+06
2.24715e+06
2.24744e+06
2.24331e+06
2.24315e+06
2.23869e+06
2.23811e+06
2.23343e+06
2.23248e+06
2.22769e+06
2.22642e+06
2.22152e+06
2.21996e+06
2.21496e+06
2.21322e+06
2.20814e+06
2.25563e+06
2.25241e+06
2.25327e+06
2.25012e+06
2.25084e+06
2.24719e+06
2.24752e+06
2.24344e+06
2.24331e+06
2.23887e+06
2.2383e+06
2.23364e+06
2.23269e+06
2.22791e+06
2.22665e+06
2.22177e+06
2.22022e+06
2.21526e+06
2.21353e+06
2.20866e+06
2.25549e+06
2.2524e+06
2.25326e+06
2.25006e+06
2.25075e+06
2.24702e+06
2.2473e+06
2.24315e+06
2.24298e+06
2.2385e+06
2.23791e+06
2.23322e+06
2.23227e+06
2.22746e+06
2.2262e+06
2.22131e+06
2.21975e+06
2.21476e+06
2.21303e+06
2.2081e+06
2.25748e+06
2.25514e+06
2.25528e+06
2.25273e+06
2.25271e+06
2.24961e+06
2.24921e+06
2.24557e+06
2.24471e+06
2.24065e+06
2.2394e+06
2.23508e+06
2.23352e+06
2.22903e+06
2.22722e+06
2.22258e+06
2.22054e+06
2.21576e+06
2.21361e+06
2.20906e+06
2.25733e+06
2.25493e+06
2.25499e+06
2.25238e+06
2.25234e+06
2.2492e+06
2.24879e+06
2.24511e+06
2.24424e+06
2.24015e+06
2.2389e+06
2.23455e+06
2.23299e+06
2.22848e+06
2.22666e+06
2.222e+06
2.21996e+06
2.21515e+06
2.21301e+06
2.20843e+06
2.25734e+06
2.25488e+06
2.25494e+06
2.25234e+06
2.2523e+06
2.2492e+06
2.24881e+06
2.24518e+06
2.24435e+06
2.2403e+06
2.23906e+06
2.23474e+06
2.23319e+06
2.22869e+06
2.22688e+06
2.22223e+06
2.22018e+06
2.21539e+06
2.21319e+06
2.20857e+06
2.25734e+06
2.25488e+06
2.25494e+06
2.25233e+06
2.25229e+06
2.24915e+06
2.24874e+06
2.24507e+06
2.24422e+06
2.24016e+06
2.23892e+06
2.23459e+06
2.23303e+06
2.22853e+06
2.22672e+06
2.22206e+06
2.22002e+06
2.21519e+06
2.21301e+06
2.20826e+06
2.25735e+06
2.25488e+06
2.25493e+06
2.25231e+06
2.25226e+06
2.24914e+06
2.24873e+06
2.24509e+06
2.24426e+06
2.24021e+06
2.23899e+06
2.23467e+06
2.23312e+06
2.22863e+06
2.22682e+06
2.22218e+06
2.22013e+06
2.21532e+06
2.2131e+06
2.20834e+06
2.25734e+06
2.25486e+06
2.2549e+06
2.25229e+06
2.25224e+06
2.24911e+06
2.24871e+06
2.24506e+06
2.24422e+06
2.24017e+06
2.23894e+06
2.23462e+06
2.23307e+06
2.22857e+06
2.22677e+06
2.22212e+06
2.22007e+06
2.21526e+06
2.21304e+06
2.20825e+06
2.25734e+06
2.25486e+06
2.2549e+06
2.25229e+06
2.25224e+06
2.24911e+06
2.24871e+06
2.24506e+06
2.24422e+06
2.24017e+06
2.23894e+06
2.23462e+06
2.23307e+06
2.22857e+06
2.22677e+06
2.22212e+06
2.22007e+06
2.21526e+06
2.21305e+06
2.20825e+06
2.25735e+06
2.25488e+06
2.25493e+06
2.25231e+06
2.25226e+06
2.24914e+06
2.24873e+06
2.24509e+06
2.24426e+06
2.24021e+06
2.23899e+06
2.23467e+06
2.23312e+06
2.22863e+06
2.22682e+06
2.22218e+06
2.22013e+06
2.21532e+06
2.21309e+06
2.20834e+06
2.25734e+06
2.25488e+06
2.25494e+06
2.25233e+06
2.25228e+06
2.24915e+06
2.24874e+06
2.24507e+06
2.24422e+06
2.24016e+06
2.23892e+06
2.23459e+06
2.23303e+06
2.22853e+06
2.22672e+06
2.22206e+06
2.22002e+06
2.21519e+06
2.21301e+06
2.20826e+06
2.25734e+06
2.25488e+06
2.25494e+06
2.25234e+06
2.2523e+06
2.2492e+06
2.24881e+06
2.24518e+06
2.24435e+06
2.2403e+06
2.23906e+06
2.23474e+06
2.23319e+06
2.22869e+06
2.22688e+06
2.22223e+06
2.22018e+06
2.21539e+06
2.21318e+06
2.20857e+06
2.25733e+06
2.25493e+06
2.25499e+06
2.25238e+06
2.25234e+06
2.2492e+06
2.24879e+06
2.2451e+06
2.24424e+06
2.24015e+06
2.2389e+06
2.23455e+06
2.23299e+06
2.22848e+06
2.22666e+06
2.222e+06
2.21996e+06
2.21515e+06
2.21301e+06
2.20843e+06
2.25748e+06
2.25514e+06
2.25528e+06
2.25273e+06
2.25271e+06
2.24961e+06
2.24921e+06
2.24557e+06
2.24471e+06
2.24065e+06
2.2394e+06
2.23508e+06
2.23352e+06
2.22903e+06
2.22722e+06
2.22258e+06
2.22054e+06
2.21576e+06
2.21361e+06
2.20906e+06
2.20337e+06
2.18261e+06
2.1729e+06
2.15136e+06
2.13962e+06
2.11701e+06
2.10361e+06
2.08012e+06
2.06524e+06
2.04094e+06
2.0247e+06
1.99967e+06
1.98216e+06
1.95645e+06
1.93776e+06
1.91142e+06
1.89163e+06
1.8647e+06
1.84387e+06
1.81638e+06
1.79457e+06
1.76656e+06
1.74385e+06
1.71535e+06
1.69178e+06
1.66284e+06
1.63849e+06
1.60914e+06
1.58406e+06
1.55435e+06
1.52862e+06
1.49858e+06
1.47225e+06
1.44194e+06
1.41509e+06
1.38455e+06
1.35723e+06
1.32651e+06
1.29879e+06
1.26795e+06
1.23992e+06
1.20901e+06
1.1807e+06
1.14968e+06
1.12099e+06
1.08987e+06
1.06102e+06
1.02999e+06
1.0011e+06
970236
941387
910751
882021
851659
823112
793071
764768
735090
707094
677822
650193
621370
594174
565847
539151
511371
485248
458067
432598
406075
381341
355544
331643
306640
283678
259564
237656
214523
193824
171810
152468
131726
113974
94696.6
78749.5
61363.8
47702.2
32140
20873.1
9269.64
2.20197e+06
2.18128e+06
2.17159e+06
2.15004e+06
2.1383e+06
2.11568e+06
2.10228e+06
2.07878e+06
2.0639e+06
2.03961e+06
2.02337e+06
1.99835e+06
1.98085e+06
1.95515e+06
1.93647e+06
1.91015e+06
1.89037e+06
1.86345e+06
1.84263e+06
1.81515e+06
1.79336e+06
1.76536e+06
1.74266e+06
1.71418e+06
1.69063e+06
1.6617e+06
1.63736e+06
1.60802e+06
1.58296e+06
1.55326e+06
1.52755e+06
1.49752e+06
1.47122e+06
1.44092e+06
1.41408e+06
1.38356e+06
1.35625e+06
1.32555e+06
1.29786e+06
1.26703e+06
1.23902e+06
1.20813e+06
1.17983e+06
1.14883e+06
1.12016e+06
1.08906e+06
1.06023e+06
1.02923e+06
1.00035e+06
969510
940681
910066
881356
851016
822488
792469
764187
734530
706554
677303
649694
620893
593717
565411
538735
510975
484872
457711
432260
405758
381042
355264
331381
306396
283452
259355
237463
214348
193665
171667
152339
131612
113875
94611.5
78677.2
61304
47654.2
32102.8
20843.8
9247.83
2.20197e+06
2.18126e+06
2.17151e+06
2.14997e+06
2.13822e+06
2.11561e+06
2.10221e+06
2.07872e+06
2.06383e+06
2.03955e+06
2.02331e+06
1.9983e+06
1.98079e+06
1.95511e+06
1.93643e+06
1.91012e+06
1.89034e+06
1.86343e+06
1.84262e+06
1.81515e+06
1.79337e+06
1.76538e+06
1.74269e+06
1.71422e+06
1.69067e+06
1.66175e+06
1.63742e+06
1.6081e+06
1.58304e+06
1.55335e+06
1.52764e+06
1.49763e+06
1.47132e+06
1.44103e+06
1.4142e+06
1.38368e+06
1.35638e+06
1.32568e+06
1.29799e+06
1.26717e+06
1.23915e+06
1.20827e+06
1.17997e+06
1.14897e+06
1.1203e+06
1.0892e+06
1.06036e+06
1.02936e+06
1.00048e+06
969633
940801
910182
881467
851122
822591
792566
764278
734616
706634
677377
649763
620955
593774
565461
538780
511014
484905
457738
432282
405774
381054
355270
331383
306394
283446
259345
237451
214332
193647
171647
152318
131590
113852
94588.3
78655.2
61283.1
47635.6
32086.8
20832.3
9241.19
2.20165e+06
2.18105e+06
2.17133e+06
2.1498e+06
2.13805e+06
2.11543e+06
2.10203e+06
2.07853e+06
2.06364e+06
2.03935e+06
2.02311e+06
1.99809e+06
1.98059e+06
1.9549e+06
1.93622e+06
1.9099e+06
1.89012e+06
1.86321e+06
1.84239e+06
1.81492e+06
1.79313e+06
1.76514e+06
1.74245e+06
1.71397e+06
1.69042e+06
1.6615e+06
1.63717e+06
1.60783e+06
1.58278e+06
1.55308e+06
1.52737e+06
1.49736e+06
1.47105e+06
1.44076e+06
1.41393e+06
1.38341e+06
1.35611e+06
1.32541e+06
1.29772e+06
1.2669e+06
1.23889e+06
1.20801e+06
1.17971e+06
1.14871e+06
1.12005e+06
1.08895e+06
1.06012e+06
1.02912e+06
1.00025e+06
969409
940582
909969
881261
850923
822397
792380
764099
734444
706469
677219
649612
620812
593637
565333
538658
510900
484798
457638
432189
405688
380974
355197
331317
306334
283391
259297
237408
214295
193614
171619
152294
131571
113836
94576.4
78645.9
61276.5
47630.9
32083.7
20828.5
9237.63
2.20175e+06
2.18109e+06
2.17132e+06
2.14976e+06
2.13801e+06
2.1154e+06
2.10199e+06
2.07849e+06
2.06361e+06
2.03932e+06
2.02307e+06
1.99806e+06
1.98055e+06
1.95486e+06
1.93618e+06
1.90986e+06
1.89008e+06
1.86317e+06
1.84236e+06
1.81489e+06
1.7931e+06
1.76511e+06
1.74242e+06
1.71394e+06
1.6904e+06
1.66147e+06
1.63714e+06
1.60781e+06
1.58276e+06
1.55307e+06
1.52736e+06
1.49734e+06
1.47104e+06
1.44075e+06
1.41392e+06
1.3834e+06
1.3561e+06
1.3254e+06
1.29771e+06
1.26689e+06
1.23888e+06
1.208e+06
1.1797e+06
1.1487e+06
1.12004e+06
1.08894e+06
1.06011e+06
1.02911e+06
1.00023e+06
969391
940563
909948
881238
850899
822372
792352
764070
734413
706437
677185
649577
620775
593599
565293
538617
510857
484755
457594
432145
405642
380928
355151
331270
306287
283345
259251
237363
214251
193571
171577
152255
131533
113801
94543.2
78616
61249.8
47608.1
32064.9
20814.9
9229.07
2.20166e+06
2.18104e+06
2.17127e+06
2.14974e+06
2.138e+06
2.11539e+06
2.10198e+06
2.07848e+06
2.0636e+06
2.03931e+06
2.02306e+06
1.99805e+06
1.98054e+06
1.95485e+06
1.93617e+06
1.90985e+06
1.89007e+06
1.86316e+06
1.84234e+06
1.81487e+06
1.79308e+06
1.76509e+06
1.74239e+06
1.71392e+06
1.69037e+06
1.66145e+06
1.63712e+06
1.60779e+06
1.58273e+06
1.55304e+06
1.52733e+06
1.49731e+06
1.47101e+06
1.44072e+06
1.41388e+06
1.38337e+06
1.35607e+06
1.32537e+06
1.29768e+06
1.26686e+06
1.23884e+06
1.20796e+06
1.17967e+06
1.14867e+06
1.12001e+06
1.08891e+06
1.06008e+06
1.02908e+06
1.0002e+06
969364
940537
909924
881215
850877
822351
792333
764052
734396
706421
677172
649564
620764
593590
565285
538611
510852
484751
457591
432143
405642
380929
355153
331274
306292
283350
259257
237369
214258
193579
171585
152262
131541
113809
94551.1
78623.2
61256.4
47613.7
32069.6
20817.7
9230.78
2.20168e+06
2.18103e+06
2.17127e+06
2.14971e+06
2.13796e+06
2.11534e+06
2.10194e+06
2.07844e+06
2.06355e+06
2.03926e+06
2.02302e+06
1.998e+06
1.9805e+06
1.95481e+06
1.93613e+06
1.90981e+06
1.89003e+06
1.86312e+06
1.8423e+06
1.81483e+06
1.79304e+06
1.76505e+06
1.74236e+06
1.71388e+06
1.69034e+06
1.66141e+06
1.63708e+06
1.60775e+06
1.5827e+06
1.553e+06
1.52729e+06
1.49728e+06
1.47098e+06
1.44069e+06
1.41385e+06
1.38333e+06
1.35604e+06
1.32534e+06
1.29765e+06
1.26683e+06
1.23882e+06
1.20793e+06
1.17964e+06
1.14864e+06
1.11998e+06
1.08888e+06
1.06005e+06
1.02905e+06
1.00018e+06
969339
940512
909900
881191
850853
822328
792311
764030
734375
706401
677151
649544
620745
593571
565266
538592
510835
484734
457575
432127
405627
380914
355138
331259
306278
283337
259244
237357
214246
193568
171575
152253
131532
113801
94543.7
78616.9
61251
47609.5
32066
20815.3
9228.79
2.20172e+06
2.18109e+06
2.17132e+06
2.14978e+06
2.13804e+06
2.11543e+06
2.10202e+06
2.07853e+06
2.06364e+06
2.03935e+06
2.02311e+06
1.99809e+06
1.98058e+06
1.9549e+06
1.93622e+06
1.9099e+06
1.89011e+06
1.8632e+06
1.84239e+06
1.81492e+06
1.79313e+06
1.76514e+06
1.74244e+06
1.71397e+06
1.69042e+06
1.6615e+06
1.63717e+06
1.60784e+06
1.58279e+06
1.55309e+06
1.52738e+06
1.49737e+06
1.47106e+06
1.44077e+06
1.41394e+06
1.38342e+06
1.35612e+06
1.32543e+06
1.29773e+06
1.26691e+06
1.2389e+06
1.20802e+06
1.17972e+06
1.14872e+06
1.12006e+06
1.08896e+06
1.06013e+06
1.02913e+06
1.00025e+06
969410
940582
909967
881257
850917
822390
792370
764087
734430
706454
677202
649593
620791
593615
565308
538633
510872
484770
457608
432159
405656
380942
355164
331283
306300
283358
259263
237374
214262
193582
171587
152264
131542
113809
94550.8
78622.7
61255.6
47612.9
32068.8
20817.7
9231.04
2.20167e+06
2.18103e+06
2.1713e+06
2.14974e+06
2.13799e+06
2.11537e+06
2.10196e+06
2.07846e+06
2.06357e+06
2.03928e+06
2.02304e+06
1.99802e+06
1.98052e+06
1.95483e+06
1.93616e+06
1.90984e+06
1.89006e+06
1.86314e+06
1.84233e+06
1.81486e+06
1.79307e+06
1.76508e+06
1.74239e+06
1.71391e+06
1.69036e+06
1.66144e+06
1.63711e+06
1.60778e+06
1.58273e+06
1.55303e+06
1.52732e+06
1.49731e+06
1.471e+06
1.44071e+06
1.41388e+06
1.38336e+06
1.35606e+06
1.32537e+06
1.29767e+06
1.26685e+06
1.23884e+06
1.20796e+06
1.17967e+06
1.14867e+06
1.12001e+06
1.08891e+06
1.06008e+06
1.02908e+06
1.00021e+06
969371
940545
909933
881225
850888
822363
792347
764066
734412
706438
677190
649583
620784
593610
565306
538632
510875
484774
457615
432167
405666
380954
355178
331298
306316
283374
259281
237393
214281
193601
171606
152283
131560
113827
94567.8
78638.7
61270.3
47626.1
32079.6
20825.7
9235.23
2.20194e+06
2.18123e+06
2.17149e+06
2.14997e+06
2.13822e+06
2.11563e+06
2.10222e+06
2.07873e+06
2.06385e+06
2.03957e+06
2.02332e+06
1.99831e+06
1.98081e+06
1.95513e+06
1.93645e+06
1.91013e+06
1.89035e+06
1.86344e+06
1.84263e+06
1.81517e+06
1.79338e+06
1.76539e+06
1.7427e+06
1.71423e+06
1.69068e+06
1.66176e+06
1.63743e+06
1.60811e+06
1.58305e+06
1.55336e+06
1.52765e+06
1.49764e+06
1.47133e+06
1.44104e+06
1.41421e+06
1.38369e+06
1.35639e+06
1.32569e+06
1.298e+06
1.26717e+06
1.23916e+06
1.20827e+06
1.17998e+06
1.14898e+06
1.12031e+06
1.0892e+06
1.06037e+06
1.02936e+06
1.00049e+06
969641
940809
910190
881475
851131
822599
792574
764287
734624
706642
677385
649771
620964
593782
565470
538788
511022
484914
457747
432291
405783
381063
355279
331392
306403
283455
259354
237460
214341
193656
171655
152326
131597
113860
94595.3
78661.6
61288.8
47640.6
32090.9
20835.4
9243.04
2.20198e+06
2.18122e+06
2.17151e+06
2.14995e+06
2.1382e+06
2.11558e+06
2.10218e+06
2.07868e+06
2.0638e+06
2.0395e+06
2.02327e+06
1.99825e+06
1.98075e+06
1.95505e+06
1.93638e+06
1.91005e+06
1.89027e+06
1.86335e+06
1.84254e+06
1.81506e+06
1.79327e+06
1.76528e+06
1.74258e+06
1.71409e+06
1.69054e+06
1.66161e+06
1.63728e+06
1.60794e+06
1.58288e+06
1.55318e+06
1.52747e+06
1.49745e+06
1.47114e+06
1.44084e+06
1.41401e+06
1.38348e+06
1.35618e+06
1.32548e+06
1.29779e+06
1.26696e+06
1.23895e+06
1.20806e+06
1.17977e+06
1.14877e+06
1.1201e+06
1.089e+06
1.06017e+06
1.02917e+06
1.00029e+06
969452
940625
910011
881302
850963
822437
792419
764137
734482
706507
677257
649649
620849
593674
565370
538695
510936
484834
457674
432225
405724
381010
355232
331351
306368
283425
259329
237439
214326
193644
171647
152321
131596
113861
94598.6
78666.3
61294.8
47647
32097
20839.8
9244.49
2.20332e+06
2.18259e+06
2.17291e+06
2.15139e+06
2.13967e+06
2.11707e+06
2.10368e+06
2.08018e+06
2.0653e+06
2.04101e+06
2.02476e+06
1.99973e+06
1.98222e+06
1.95652e+06
1.93783e+06
1.91149e+06
1.89169e+06
1.86476e+06
1.84393e+06
1.81644e+06
1.79463e+06
1.76662e+06
1.74391e+06
1.71541e+06
1.69184e+06
1.66289e+06
1.63855e+06
1.60919e+06
1.58412e+06
1.5544e+06
1.52867e+06
1.49863e+06
1.47231e+06
1.44199e+06
1.41514e+06
1.3846e+06
1.35728e+06
1.32656e+06
1.29884e+06
1.268e+06
1.23997e+06
1.20906e+06
1.18074e+06
1.14972e+06
1.12104e+06
1.08991e+06
1.06106e+06
1.03004e+06
1.00114e+06
970277
941428
910791
882060
851698
823150
793108
764805
735126
707129
677856
650226
621402
594206
565878
539181
511400
485277
458094
432624
406101
381366
355567
331666
306662
283699
259583
237674
214541
193841
171826
152482
131739
113986
94707.5
78759.1
61372.2
47709.4
32146
20877.7
9272.56
2.2029e+06
2.18167e+06
2.17281e+06
2.15092e+06
2.13967e+06
2.11682e+06
2.10372e+06
2.08004e+06
2.06536e+06
2.04092e+06
2.02481e+06
1.99965e+06
1.98224e+06
1.95643e+06
1.93781e+06
1.91137e+06
1.89163e+06
1.86461e+06
1.84381e+06
1.81625e+06
1.79447e+06
1.76639e+06
1.7437e+06
1.71514e+06
1.69159e+06
1.6626e+06
1.63826e+06
1.60887e+06
1.58381e+06
1.55406e+06
1.52834e+06
1.49828e+06
1.47196e+06
1.44163e+06
1.41479e+06
1.38424e+06
1.35693e+06
1.3262e+06
1.2985e+06
1.26765e+06
1.23964e+06
1.20873e+06
1.18044e+06
1.14941e+06
1.12075e+06
1.08962e+06
1.06079e+06
1.02977e+06
1.00089e+06
970036
941207
910577
881866
851513
822985
792953
764669
735000
707023
677760
650151
621337
594160
565842
539165
511393
485288
458114
432662
406145
381427
355634
331749
306747
283799
259683
237787
214649
193959
171935
152597
131839
114085
94785.1
78824.4
61410.4
47723.3
32123.1
20811.8
9200.01
2.20433e+06
2.18302e+06
2.17415e+06
2.1523e+06
2.14107e+06
2.11826e+06
2.10519e+06
2.08153e+06
2.06687e+06
2.04244e+06
2.02634e+06
2.00119e+06
1.98378e+06
1.95796e+06
1.93934e+06
1.9129e+06
1.89315e+06
1.86612e+06
1.84531e+06
1.81773e+06
1.79594e+06
1.76785e+06
1.74514e+06
1.71656e+06
1.693e+06
1.66399e+06
1.63963e+06
1.61022e+06
1.58514e+06
1.55537e+06
1.52963e+06
1.49955e+06
1.47321e+06
1.44286e+06
1.416e+06
1.38542e+06
1.3581e+06
1.32734e+06
1.29963e+06
1.26875e+06
1.24072e+06
1.20979e+06
1.18147e+06
1.15042e+06
1.12173e+06
1.09059e+06
1.06173e+06
1.03069e+06
1.00179e+06
970907
942055
911401
882667
852289
823739
793682
765376
735683
707683
678396
650764
621927
594727
566385
539686
511890
485763
458566
433092
406553
381814
355997
332091
307067
284098
259961
238045
214886