/*--------------------------------*- C++ -*----------------------------------*\
  =========                 |
  \\      /  F ield         | OpenFOAM: The Open Source CFD Toolbox
   \\    /   O peration     | Website:  https://openfoam.org
    \\  /    A nd           | Version:  7
     \\/     M anipulation  |
\*---------------------------------------------------------------------------*/
FoamFile
{
    version     2.0;
    format      ascii;
    class       volScalarField;
    location    "0.2775";
    object      k;
}
// * * * * * * * * * * * * * * * * * * * * * * * * * * * * * * * * * * * * * //

dimensions      [0 2 -2 0 0 0 0];

internalField   nonuniform List<scalar> 
4950
(
32.6296
37.0264
37.1513
37.163
37.0772
37.0724
37.016
37.0221
36.9872
37.007
36.9964
37.0263
37.0252
37.0531
37.0499
37.0677
37.069
37.0648
37.1043
37.3028
9.02243
10.2414
10.1005
9.7175
9.42835
9.28182
9.17336
9.11892
9.06416
9.04415
9.02632
9.03297
9.03524
9.04567
9.04711
9.05356
9.05889
9.05598
9.21511
9.29666
5.69949
7.00046
7.30084
7.36619
7.36416
7.36835
7.3641
7.36846
7.36397
7.36617
7.36397
7.37128
7.37606
7.39025
7.39602
7.40752
7.41142
7.41572
7.42452
7.45764
5.44922
6.71814
7.06512
7.19557
7.24319
7.28857
7.31144
7.34426
7.35573
7.37172
7.37333
7.38184
7.38718
7.40243
7.41211
7.42381
7.43393
7.43558
7.44471
7.46616
5.41305
6.6901
7.03891
7.17482
7.22533
7.27526
7.30164
7.3396
7.35445
7.37418
7.37716
7.38715
7.39228
7.40762
7.41784
7.43019
7.4409
7.44328
7.45181
7.47402
5.44922
6.71814
7.06512
7.19557
7.24319
7.28858
7.31143
7.34427
7.35572
7.37175
7.37331
7.38189
7.38714
7.40253
7.41193
7.424
7.43381
7.43557
7.44478
7.46619
5.69949
7.00046
7.30084
7.36619
7.36416
7.36836
7.36409
7.36847
7.36395
7.36621
7.36392
7.37138
7.37596
7.39045
7.39583
7.40795
7.41078
7.41616
7.42431
7.45786
9.02243
10.2414
10.1005
9.7175
9.42835
9.28182
9.17336
9.11893
9.06414
9.04419
9.02625
9.03308
9.03509
9.04598
9.0467
9.0544
9.05741
9.0575
9.21178
9.29773
32.6296
37.0264
37.1513
37.163
37.0772
37.0724
37.016
37.0221
36.9871
37.007
36.9963
37.0266
37.0246
37.0541
37.0483
37.0703
37.065
37.0705
37.096
37.3178
5.04304
7.28925
7.60046
7.54123
7.49533
7.42708
7.41459
7.38226
7.38525
7.37173
7.38088
7.37438
7.3836
7.37847
7.38582
7.38022
7.38643
7.37951
7.37118
7.44516
3.74831
6.01157
6.50938
6.60337
6.61566
6.61765
6.61731
6.61792
6.61773
6.61945
6.62286
6.62844
6.63386
6.63911
6.64272
6.64582
6.64795
6.64861
6.6554
6.67291
3.56433
5.7579
6.25984
6.36988
6.37921
6.37962
6.3764
6.3783
6.37808
6.38011
6.38208
6.38893
6.39628
6.40555
6.41328
6.41829
6.42314
6.42305
6.42413
6.44776
3.57165
5.76343
6.26013
6.36916
6.37756
6.37524
6.36888
6.36808
6.36543
6.36486
6.36364
6.36693
6.37335
6.38422
6.39289
6.40171
6.40689
6.41079
6.41322
6.43647
3.5554
5.73958
6.2388
6.35017
6.35879
6.35678
6.35009
6.34936
6.34645
6.34615
6.34456
6.34743
6.3532
6.36447
6.37329
6.38292
6.3881
6.39268
6.39358
6.41412
3.57165
5.76343
6.26013
6.36916
6.37756
6.37524
6.36888
6.36809
6.36542
6.36488
6.36362
6.36699
6.37324
6.38435
6.39272
6.40188
6.40674
6.41089
6.41325
6.4364
3.56433
5.7579
6.25984
6.36988
6.37921
6.37962
6.3764
6.37831
6.37806
6.38015
6.38203
6.38905
6.39602
6.40591
6.41279
6.41889
6.42263
6.42343
6.42398
6.44781
3.74831
6.01157
6.50938
6.60337
6.61566
6.61765
6.61731
6.61792
6.61772
6.61947
6.62279
6.62857
6.63361
6.6395
6.64212
6.64673
6.64696
6.64919
6.65445
6.67411
5.04304
7.28925
7.60046
7.54124
7.49533
7.42708
7.41459
7.38226
7.38525
7.37174
7.38086
7.37441
7.38354
7.37859
7.38563
7.3806
7.38589
7.38051
7.36971
7.44794
0.301765
0.975961
1.21689
1.25538
1.23475
1.19882
1.1722
1.15982
1.15516
1.15581
1.15946
1.16399
1.16904
1.17439
1.17796
1.18613
1.18588
1.19755
1.18589
1.21494
0.0637801
0.365782
0.581015
0.677916
0.712052
0.723291
0.724436
0.724231
0.722263
0.721977
0.722016
0.722994
0.723806
0.725401
0.725987
0.727327
0.728396
0.729421
0.731702
0.736921
0.0542143
0.308092
0.488131
0.578347
0.60825
0.622486
0.624037
0.626337
0.625905
0.626769
0.626858
0.62796
0.628319
0.62921
0.629444
0.629762
0.62998
0.629912
0.629946
0.633439
0.0557422
0.315883
0.49715
0.585076
0.61512
0.628565
0.630696
0.632591
0.632341
0.632704
0.632792
0.633577
0.634128
0.634909
0.635366
0.635591
0.635883
0.635805
0.636126
0.639593
0.0540115
0.306931
0.483931
0.572662
0.601813
0.616179
0.617699
0.619884
0.619238
0.619799
0.619615
0.620444
0.620774
0.621778
0.622005
0.622514
0.622484
0.622681
0.622176
0.625433
0.0557422
0.315883
0.49715
0.585076
0.61512
0.628565
0.630696
0.632592
0.632341
0.632705
0.632792
0.63358
0.634121
0.634917
0.635356
0.6356
0.635882
0.63581
0.636132
0.639589
0.0542143
0.308092
0.488131
0.578347
0.60825
0.622486
0.624037
0.626337
0.625905
0.626771
0.626857
0.627965
0.628312
0.62922
0.629418
0.629768
0.629949
0.6299
0.629934
0.633404
0.0637801
0.365782
0.581015
0.677916
0.712052
0.723291
0.724436
0.724231
0.722262
0.721979
0.722013
0.723003
0.723794
0.725419
0.725965
0.727354
0.728321
0.729387
0.731626
0.73678
0.301765
0.975961
1.21689
1.25538
1.23475
1.19882
1.1722
1.15982
1.15516
1.15581
1.15945
1.164
1.16902
1.17444
1.17793
1.18623
1.18584
1.1978
1.18574
1.21542
5.04304
7.28925
7.60046
7.54124
7.49533
7.42708
7.41459
7.38226
7.38525
7.37173
7.38088
7.37438
7.3836
7.37847
7.38582
7.38022
7.38643
7.3795
7.37118
7.44516
3.74831
6.01157
6.50938
6.60337
6.61566
6.61765
6.61731
6.61792
6.61773
6.61944
6.62286
6.62843
6.63386
6.63911
6.64272
6.64582
6.64795
6.64861
6.6554
6.67291
3.56433
5.7579
6.25984
6.36988
6.37921
6.37962
6.3764
6.3783
6.37808
6.38011
6.38208
6.38893
6.39627
6.40555
6.41328
6.41829
6.42314
6.42305
6.42413
6.44776
3.57165
5.76343
6.26014
6.36916
6.37756
6.37524
6.36888
6.36808
6.36543
6.36486
6.36364
6.36693
6.37335
6.38422
6.39289
6.40171
6.4069
6.41079
6.41322
6.43647
3.5554
5.73958
6.2388
6.35017
6.35879
6.35677
6.35009
6.34936
6.34645
6.34615
6.34456
6.34743
6.3532
6.36447
6.37329
6.38293
6.3881
6.39268
6.39358
6.41412
3.57165
5.76343
6.26013
6.36916
6.37756
6.37524
6.36888
6.36809
6.36542
6.36488
6.36362
6.36699
6.37324
6.38435
6.39272
6.40188
6.40674
6.41089
6.41325
6.4364
3.56433
5.7579
6.25984
6.36988
6.37921
6.37962
6.3764
6.37831
6.37806
6.38015
6.38203
6.38905
6.39602
6.40591
6.41279
6.41889
6.42263
6.42343
6.42398
6.44781
3.74831
6.01157
6.50938
6.60337
6.61566
6.61765
6.61731
6.61792
6.61772
6.61947
6.62279
6.62857
6.63362
6.6395
6.64213
6.64673
6.64696
6.64919
6.65445
6.67411
5.04304
7.28925
7.60046
7.54123
7.49533
7.42708
7.41459
7.38226
7.38525
7.37174
7.38087
7.37442
7.38354
7.3786
7.38563
7.3806
7.38589
7.38052
7.36971
7.44794
32.6296
37.0264
37.1513
37.163
37.0772
37.0724
37.016
37.0221
36.9872
37.0069
36.9964
37.0263
37.0252
37.0531
37.0499
37.0677
37.069
37.0648
37.1043
37.3028
9.02243
10.2414
10.1005
9.7175
9.42835
9.28182
9.17336
9.11892
9.06416
9.04415
9.02632
9.03296
9.03524
9.04566
9.04711
9.05356
9.05889
9.05598
9.21511
9.29666
5.69949
7.00046
7.30084
7.36619
7.36416
7.36835
7.3641
7.36846
7.36397
7.36617
7.36397
7.37127
7.37606
7.39025
7.39602
7.40752
7.41142
7.41572
7.42452
7.45764
5.44922
6.71814
7.06512
7.19557
7.24319
7.28857
7.31144
7.34426
7.35573
7.37172
7.37332
7.38184
7.38718
7.40243
7.41211
7.42381
7.43393
7.43558
7.44471
7.46616
5.41305
6.6901
7.03891
7.17482
7.22533
7.27526
7.30164
7.3396
7.35445
7.37418
7.37716
7.38715
7.39228
7.40762
7.41784
7.43019
7.4409
7.44328
7.45181
7.47402
5.44922
6.71814
7.06512
7.19557
7.24319
7.28858
7.31143
7.34427
7.35572
7.37175
7.37331
7.38189
7.38714
7.40253
7.41194
7.424
7.43381
7.43558
7.44478
7.46619
5.69949
7.00046
7.30084
7.36619
7.36416
7.36836
7.36409
7.36847
7.36395
7.36621
7.36392
7.37139
7.37597
7.39046
7.39584
7.40795
7.41079
7.41616
7.42431
7.45786
9.02243
10.2414
10.1005
9.7175
9.42835
9.28182
9.17336
9.11893
9.06414
9.04419
9.02626
9.03309
9.0351
9.04599
9.0467
9.0544
9.05741
9.0575
9.21178
9.29773
32.6296
37.0264
37.1513
37.163
37.0772
37.0724
37.016
37.0221
36.9871
37.007
36.9963
37.0266
37.0246
37.0541
37.0483
37.0703
37.065
37.0705
37.096
37.3178
95.753
97.3611
97.7226
97.8915
97.8954
97.9305
97.9094
97.9325
97.9155
97.9348
97.9209
97.9367
97.9246
97.9381
97.9282
97.9407
97.9325
97.9436
97.9359
97.9455
97.9384
97.9472
97.9413
97.95
97.9449
97.953
97.9479
97.9549
97.95
97.9568
97.9531
97.9603
97.9575
97.9643
97.9612
97.9669
97.9637
97.9695
97.9677
97.9744
97.9735
97.98
97.9788
97.9842
97.9824
97.9875
97.9867
97.993
97.9937
98.0005
98.0008
98.0063
98.005
98.0089
98.0068
98.0109
98.0092
98.0138
98.0115
98.0146
98.009
98.0086
97.9992
97.9961
97.985
97.9814
97.9706
97.9671
97.9572
97.9532
97.944
97.9392
97.9313
97.9262
97.9204
97.9162
97.9133
97.911
97.9116
97.9124
97.9158
97.9196
97.9241
97.9297
97.9345
97.9414
97.9486
97.9574
97.9037
98.1954
32.6116
34.7812
34.9264
35.0096
34.9954
35.0345
35.0187
35.0526
35.0406
35.0721
35.0631
35.0926
35.086
35.1141
35.1099
35.1372
35.1347
35.1611
35.16
35.1856
35.1858
35.211
35.2126
35.2375
35.2403
35.2649
35.2686
35.2928
35.2975
35.3217
35.3277
35.3521
35.3591
35.3834
35.3911
35.4152
35.4239
35.4483
35.4583
35.4832
35.4944
35.5194
35.5312
35.5562
35.5688
35.5941
35.6081
35.6341
35.6494
35.6759
35.6918
35.718
35.734
35.76
35.7763
35.8026
35.8193
35.8454
35.8614
35.8862
35.9
35.9222
35.933
35.9526
35.9605
35.9777
35.9828
35.997
35.9989
36.0096
36.0081
36.0153
36.0115
36.0161
36.0118
36.0153
36.0121
36.0157
36.0146
36.0189
36.0197
36.0249
36.027
36.033
36.0359
36.043
36.0471
36.0559
36.0401
36.0266
22.9707
25.629
25.8682
25.9924
25.9909
26.0533
26.0489
26.1053
26.1051
26.1596
26.1627
26.2157
26.2215
26.2736
26.2821
26.3339
26.3445
26.3956
26.4079
26.4583
26.4724
26.5226
26.5386
26.5888
26.6062
26.6562
26.6749
26.7245
26.7446
26.7943
26.8163
26.8664
26.8898
26.9397
26.9642
27.0138
27.0398
27.0897
27.1178
27.1682
27.1979
27.2483
27.279
27.3292
27.3611
27.4117
27.4454
27.497
27.5325
27.5845
27.6206
27.6719
27.708
27.7588
27.7952
27.8461
27.8828
27.9332
27.9685
28.0163
28.0479
28.0915
28.1182
28.1573
28.1792
28.2142
28.2312
28.2611
28.2724
28.2959
28.3011
28.3179
28.3186
28.3305
28.3298
28.3394
28.3402
28.3495
28.3532
28.3627
28.3683
28.3778
28.3837
28.3931
28.3986
28.4082
28.4142
28.4223
28.4336
28.4156
21.8533
24.9675
25.3522
25.5337
25.5487
25.6291
25.6312
25.7013
25.7085
25.7776
25.7882
25.856
25.8695
25.9366
25.9532
26.0201
26.0391
26.1053
26.1261
26.1917
26.2144
26.2799
26.3046
26.3702
26.3966
26.4618
26.4896
26.5544
26.5837
26.6486
26.68
26.7453
26.7784
26.8431
26.8775
26.9416
26.9777
27.0422
27.0806
27.1455
27.1857
27.2504
27.2917
27.3559
27.3983
27.4629
27.5074
27.5731
27.6195
27.6853
27.7321
27.7969
27.8435
27.9074
27.954
28.0178
28.0644
28.1271
28.1716
28.2308
28.2702
28.3237
28.3564
28.4039
28.4301
28.4718
28.4913
28.5261
28.5379
28.564
28.5675
28.5846
28.582
28.5923
28.588
28.5952
28.5931
28.5999
28.6019
28.6091
28.6138
28.6211
28.6263
28.6338
28.6388
28.6471
28.6528
28.6616
28.6721
28.6672
21.7986
24.9428
25.3619
25.5605
25.5781
25.6638
25.6676
25.7427
25.7523
25.8266
25.8397
25.9126
25.9288
26.0011
26.0204
26.0925
26.1143
26.1857
26.2093
26.2802
26.3057
26.3765
26.4042
26.475
26.5044
26.5748
26.6056
26.6756
26.7079
26.778
26.8126
26.883
26.9195
26.9891
27.0269
27.0959
27.1355
27.2048
27.2467
27.3165
27.3603
27.4299
27.4747
27.5437
27.5897
27.6591
27.7073
27.7776
27.8278
27.8983
27.9488
28.0182
28.0683
28.1367
28.1869
28.255
28.3051
28.3721
28.4198
28.483
28.5251
28.582
28.6169
28.6674
28.6952
28.7393
28.76
28.7966
28.8088
28.836
28.8392
28.8565
28.8531
28.8631
28.8578
28.8645
28.8616
28.8679
28.8695
28.8762
28.8809
28.8876
28.8928
28.9
28.9051
28.913
28.9195
28.9273
28.9436
28.9324
21.8561
24.9367
25.2843
25.4428
25.4495
25.5255
25.5277
25.5977
25.6051
25.6742
25.6849
25.7528
25.7665
25.8337
25.8504
25.9173
25.9365
26.0028
26.0237
26.0895
26.1123
26.1781
26.2029
26.2687
26.2952
26.3606
26.3885
26.4535
26.483
26.5481
26.5797
26.6451
26.6784
26.7433
26.7779
26.8421
26.8785
26.9431
26.9817
27.0468
27.0872
27.1521
27.1936
27.258
27.3006
27.3654
27.4102
27.476
27.5226
27.5886
27.6356
27.7007
27.7474
27.8115
27.8584
27.9223
27.9691
28.0321
28.0768
28.1363
28.1759
28.2297
28.2626
28.3104
28.3369
28.3788
28.3987
28.4338
28.4459
28.4723
28.4761
28.4935
28.4913
28.5019
28.4979
28.5055
28.5037
28.5107
28.513
28.5206
28.5256
28.5332
28.5387
28.5466
28.5518
28.5604
28.5663
28.5757
28.5863
28.583
22.9598
25.5211
25.6815
25.7663
25.7529
25.8111
25.8064
25.8626
25.8626
25.9172
25.9205
25.9737
25.9796
26.032
26.0407
26.0927
26.1036
26.1549
26.1675
26.2182
26.2326
26.2831
26.2993
26.3499
26.3676
26.4179
26.4369
26.4868
26.5072
26.5573
26.5796
26.63
26.6538
26.704
26.7288
26.7787
26.8051
26.8553
26.8837
26.9345
26.9645
27.0152
27.0463
27.0968
27.129
27.18
27.214
27.266
27.3018
27.3541
27.3905
27.4422
27.4786
27.5298
27.5665
27.6178
27.6547
27.7055
27.7411
27.7894
27.8213
27.8653
27.8923
27.9319
27.9542
27.9896
28.007
28.0374
28.0491
28.073
28.0787
28.096
28.0972
28.1096
28.1094
28.1195
28.1207
28.1305
28.1346
28.1446
28.1506
28.1606
28.1668
28.1767
28.1824
28.1926
28.1987
28.2079
28.219
28.2038
32.5172
34.4409
34.4457
34.4735
34.447
34.4822
34.4665
34.4998
34.4881
34.5193
34.5107
34.54
34.5338
34.5619
34.558
34.5854
34.5833
34.6099
34.6091
34.6349
34.6355
34.6609
34.6629
34.6881
34.6912
34.7161
34.7201
34.7447
34.7497
34.7742
34.7804
34.8052
34.8125
34.8371
34.8452
34.8695
34.8785
34.9032
34.9135
34.9387
34.9501
34.9754
34.9875
35.0127
35.0256
35.0512
35.0654
35.0917
35.1072
35.1339
35.15
35.1765
35.1927
35.2189
35.2355
35.2619
35.2788
35.3052
35.3214
35.3464
35.3603
35.3828
35.3938
35.4136
35.4217
35.4391
35.4444
35.4588
35.4609
35.4717
35.4704
35.4776
35.4739
35.4786
35.4743
35.4778
35.4745
35.4781
35.4769
35.481
35.4816
35.4866
35.4883
35.494
35.4967
35.5035
35.5069
35.5162
35.4997
35.4913
95.2812
96.1139
96.0712
96.0901
96.0601
96.0843
96.0634
96.0837
96.0675
96.0851
96.0717
96.0865
96.075
96.088
96.0786
96.0909
96.0832
96.0944
96.0872
96.097
96.0904
96.0996
96.0942
96.1033
96.0987
96.1072
96.1027
96.1101
96.1058
96.113
96.1097
96.1174
96.115
96.1223
96.1195
96.1256
96.1229
96.1291
96.1275
96.1345
96.1339
96.1407
96.1397
96.1454
96.1438
96.1491
96.1485
96.1548
96.1555
96.1624
96.1627
96.1682
96.1668
96.1707
96.1684
96.1722
96.1702
96.1743
96.1714
96.1738
96.1675
96.1661
96.1557
96.1512
96.1385
96.1329
96.12
96.1139
96.1013
96.0941
96.0816
96.073
96.0611
96.0517
96.0413
96.0324
96.0244
96.0172
96.0124
96.0081
96.0061
96.0048
96.0038
96.0044
96.0034
96.0055
96.0058
96.0116
95.9517
96.2581
22.9588
23.8169
23.8965
23.9239
23.9269
23.9378
23.9347
23.9458
23.9416
23.9533
23.9485
23.9601
23.9549
23.9664
23.9616
23.9731
23.9687
23.9799
23.9756
23.9863
23.9824
23.9928
23.9896
23.9999
23.9972
24.0073
24.0049
24.0144
24.0124
24.0218
24.0205
24.0302
24.0296
24.0391
24.0387
24.0477
24.0476
24.0567
24.0576
24.0671
24.0687
24.0782
24.08
24.0892
24.0911
24.1003
24.103
24.1128
24.1164
24.1266
24.1303
24.14
24.1433
24.1523
24.1554
24.1644
24.1675
24.1765
24.1789
24.1867
24.187
24.1924
24.1898
24.1928
24.188
24.1891
24.1825
24.182
24.1739
24.1713
24.1618
24.1573
24.1471
24.1415
24.1319
24.1264
24.1187
24.1146
24.1097
24.1078
24.1054
24.1058
24.1048
24.1069
24.1063
24.1095
24.1092
24.1134
24.1065
23.886
20.68
22.5202
22.706
22.7607
22.7758
22.7961
22.8027
22.8207
22.827
22.8448
22.8511
22.8686
22.8749
22.8921
22.8985
22.9156
22.9224
22.9395
22.9466
22.9634
22.9707
22.9874
22.9952
23.0119
23.0201
23.0368
23.0455
23.0621
23.0711
23.0876
23.097
23.1137
23.1237
23.1406
23.151
23.1678
23.1786
23.1953
23.2066
23.2236
23.2354
23.2527
23.2651
23.2825
23.2952
23.3126
23.3257
23.3433
23.3571
23.3753
23.3897
23.4082
23.4231
23.4417
23.4569
23.4758
23.4916
23.5113
23.5279
23.5484
23.5657
23.5866
23.6042
23.6251
23.6426
23.6635
23.681
23.7019
23.7194
23.74
23.7569
23.7762
23.7916
23.8089
23.8224
23.8377
23.8494
23.8632
23.8737
23.8867
23.896
23.9084
23.9166
23.9281
23.9351
23.9451
23.9514
23.9583
23.9676
24.012
18.8087
21.1265
21.4148
21.4943
21.5185
21.5371
21.5452
21.5594
21.567
21.581
21.5889
21.6027
21.6105
21.6241
21.632
21.6456
21.6538
21.6674
21.6758
21.6892
21.6977
21.711
21.7197
21.7331
21.7421
21.7555
21.7647
21.778
21.7873
21.8005
21.8099
21.8232
21.8331
21.8465
21.8565
21.8698
21.8798
21.8929
21.9032
21.9164
21.927
21.9404
21.9513
21.9646
21.9754
21.9885
21.9994
22.0126
22.0238
22.0373
22.0489
22.0626
22.0742
22.0877
22.0993
22.113
22.1249
22.139
22.1516
22.1664
22.1795
22.1945
22.2077
22.2227
22.2359
22.251
22.2645
22.2797
22.2935
22.3086
22.3222
22.3365
22.3491
22.362
22.3732
22.3845
22.3945
22.4048
22.4139
22.4238
22.4321
22.4417
22.4491
22.4581
22.4645
22.4723
22.4782
22.4843
22.4933
22.4879
18.4901
20.7995
21.0766
21.1444
21.1629
21.178
21.1831
21.1934
21.1981
21.2082
21.2131
21.223
21.228
21.2376
21.2427
21.2523
21.2576
21.2673
21.2727
21.2822
21.2877
21.2971
21.3027
21.3122
21.318
21.3275
21.3335
21.3429
21.3489
21.3582
21.3643
21.3737
21.3802
21.3896
21.3962
21.4055
21.4121
21.4212
21.428
21.4373
21.4443
21.4537
21.461
21.4703
21.4775
21.4867
21.4938
21.5031
21.5106
21.5202
21.5281
21.5377
21.5457
21.5553
21.5632
21.5729
21.5811
21.5913
21.6002
21.611
21.6204
21.6315
21.641
21.6521
21.6617
21.6729
21.6827
21.6941
21.7043
21.7157
21.7257
21.7364
21.7455
21.7549
21.7628
21.7708
21.7777
21.7849
21.7911
21.7981
21.8039
21.8108
21.816
21.8226
21.8272
21.8329
21.8372
21.8416
21.8477
21.8402
18.2298
20.6092
20.8722
20.9265
20.9396
20.9524
20.9564
20.9652
20.9689
20.9775
20.9814
20.9899
20.9938
21.0022
21.0061
21.0146
21.0188
21.0273
21.0316
21.04
21.0443
21.0526
21.0571
21.0655
21.0702
21.0787
21.0835
21.0919
21.0968
21.1051
21.1101
21.1185
21.1239
21.1324
21.1379
21.1463
21.1518
21.16
21.1658
21.1741
21.1802
21.1887
21.195
21.2034
21.2097
21.218
21.2243
21.2327
21.2394
21.2481
21.2551
21.264
21.2711
21.28
21.2871
21.2961
21.3036
21.3131
21.3212
21.3314
21.3401
21.3506
21.3594
21.3699
21.3788
21.3895
21.3986
21.4095
21.419
21.4298
21.4392
21.4494
21.4579
21.4667
21.4741
21.4816
21.4879
21.4947
21.5004
21.507
21.5123
21.5189
21.5236
21.5299
21.5341
21.5394
21.5436
21.5473
21.554
21.5397
18.4921
20.7697
21.0119
21.0591
21.0696
21.0823
21.0871
21.0972
21.102
21.112
21.117
21.1269
21.1319
21.1416
21.1467
21.1564
21.1618
21.1716
21.1771
21.1867
21.1922
21.2018
21.2075
21.2171
21.223
21.2326
21.2387
21.2482
21.2544
21.2637
21.27
21.2795
21.2861
21.2957
21.3025
21.3119
21.3186
21.3279
21.3348
21.3442
21.3514
21.361
21.3684
21.3779
21.3852
21.3945
21.4019
21.4113
21.419
21.4287
21.4368
21.4466
21.4547
21.4645
21.4726
21.4824
21.4909
21.5012
21.5103
21.5213
21.5308
21.5421
21.5518
21.5631
21.5728
21.5842
21.5942
21.6058
21.6161
21.6277
21.6378
21.6487
21.658
21.6675
21.6756
21.6838
21.6908
21.6982
21.7046
21.7118
21.7178
21.7249
21.7303
21.7371
21.7419
21.7478
21.7523
21.757
21.7627
21.7555
18.8014
21.0354
21.255
21.3004
21.3132
21.3285
21.3362
21.3502
21.3579
21.3719
21.3799
21.3937
21.4016
21.4153
21.4233
21.437
21.4454
21.4591
21.4676
21.4812
21.4898
21.5033
21.5122
21.5257
21.5349
21.5485
21.5578
21.5713
21.5808
21.5942
21.6038
21.6173
21.6273
21.641
21.6512
21.6646
21.6749
21.6882
21.6987
21.7122
21.723
21.7366
21.7476
21.7612
21.7722
21.7856
21.7966
21.8101
21.8215
21.8353
21.8471
21.861
21.8728
21.8866
21.8984
21.9123
21.9245
21.9388
21.9517
21.9666
21.9799
21.9952
22.0086
22.0238
22.0373
22.0525
22.0662
22.0816
22.0956
22.1109
22.1247
22.1392
22.152
22.165
22.1764
22.188
22.1981
22.2087
22.218
22.2282
22.2367
22.2466
22.2542
22.2635
22.2701
22.2783
22.2843
22.291
22.3001
22.2954
20.6285
22.3118
22.4054
22.4247
22.431
22.4488
22.4554
22.4732
22.4796
22.4973
22.5038
22.5213
22.5278
22.545
22.5516
22.5688
22.5758
22.593
22.6003
22.6173
22.6248
22.6417
22.6496
22.6665
22.6749
22.6919
22.7007
22.7175
22.7267
22.7434
22.753
22.7698
22.78
22.7971
22.8077
22.8247
22.8356
22.8525
22.8639
22.8811
22.8932
22.9106
22.9232
22.9407
22.9535
22.9711
22.9843
23.0021
23.0159
23.0343
23.0488
23.0675
23.0824
23.1012
23.1164
23.1355
23.1514
23.1711
23.1878
23.2084
23.2258
23.2467
23.2643
23.2852
23.3027
23.3236
23.3411
23.362
23.3795
23.4
23.4168
23.4361
23.4514
23.4687
23.4821
23.4975
23.5091
23.5229
23.5333
23.5463
23.5556
23.568
23.5761
23.5876
23.5945
23.6046
23.6105
23.618
23.6262
23.6711
22.8228
23.479
23.465
23.4612
23.4579
23.4671
23.4642
23.4749
23.4709
23.4824
23.4779
23.4894
23.4845
23.4959
23.4913
23.5029
23.4987
23.51
23.506
23.5168
23.5131
23.5237
23.5206
23.5311
23.5286
23.5388
23.5365
23.5463
23.5444
23.554
23.5529
23.5627
23.5622
23.5718
23.5716
23.5807
23.5808
23.59
23.5909
23.6005
23.6022
23.6118
23.6137
23.6229
23.6249
23.6342
23.6369
23.6468
23.6504
23.6606
23.6644
23.674
23.6773
23.6864
23.6895
23.6985
23.7015
23.7104
23.7129
23.7205
23.7208
23.7261
23.7235
23.7264
23.7214
23.7224
23.7157
23.7148
23.7065
23.7035
23.6936
23.6886
23.6779
23.6717
23.6615
23.6552
23.6467
23.6417
23.6358
23.633
23.6295
23.6289
23.6266
23.6276
23.6258
23.6279
23.6261
23.6298
23.6205
23.4205
4.79935
5.16021
5.1522
5.15405
5.16327
5.18103
5.18954
5.20884
5.21462
5.23445
5.23834
5.25817
5.26079
5.28048
5.28247
5.30195
5.30356
5.32257
5.32392
5.3424
5.34383
5.36194
5.36368
5.38147
5.38354
5.40093
5.40331
5.42031
5.42314
5.44
5.44352
5.46036
5.46448
5.4811
5.48562
5.50204
5.50719
5.52375
5.52976
5.54654
5.55325
5.57004
5.57726
5.59399
5.60179
5.61875
5.62743
5.64485
5.65437
5.67198
5.68187
5.6993
5.70932
5.72663
5.73692
5.75434
5.76486
5.78212
5.79221
5.80856
5.8173
5.83211
5.83914
5.85241
5.85788
5.86977
5.87368
5.884
5.88619
5.89467
5.89524
5.9021
5.90175
5.9077
5.90735
5.91313
5.91349
5.91961
5.92102
5.92768
5.92995
5.93703
5.93958
5.94687
5.94927
5.95678
5.95859
5.96687
5.96625
5.92327
4.0772
5.19054
5.35069
5.38797
5.40358
5.42221
5.43435
5.45312
5.46465
5.48361
5.49478
5.51379
5.52474
5.54372
5.55459
5.57353
5.58446
5.60331
5.61435
5.63307
5.64426
5.66286
5.67425
5.69274
5.70437
5.72276
5.73462
5.75289
5.76497
5.78313
5.79544
5.81353
5.8261
5.84412
5.85692
5.87485
5.88783
5.90567
5.91886
5.93665
5.95006
5.96781
5.98141
5.99908
6.01282
6.03039
6.04425
6.06176
6.07578
6.09327
6.10743
6.12485
6.13909
6.15639
6.17066
6.18788
6.2022
6.21937
6.23377
6.2509
6.26532
6.28232
6.29663
6.31339
6.32751
6.344
6.35787
6.37404
6.38757
6.40331
6.41633
6.43142
6.44368
6.45792
6.46926
6.48257
6.49293
6.50533
6.5147
6.52625
6.53461
6.54528
6.55255
6.56222
6.56841
6.57676
6.58241
6.58806
6.59476
6.60715
3.33254
4.57473
4.80457
4.85718
4.87121
4.88109
4.88689
4.89545
4.90124
4.90978
4.91561
4.92407
4.92992
4.9383
4.94418
4.95253
4.95847
4.96678
4.97278
4.98101
4.98706
4.99523
5.00133
5.00945
5.01562
5.0237
5.02991
5.03792
5.04414
5.05207
5.05833
5.06621
5.07252
5.08035
5.08667
5.0944
5.1007
5.10834
5.11462
5.1222
5.1285
5.136
5.14228
5.14967
5.15588
5.16314
5.16929
5.17645
5.18257
5.18966
5.19574
5.20272
5.20872
5.21555
5.22144
5.22815
5.23397
5.24061
5.24642
5.25302
5.2588
5.26529
5.27097
5.27732
5.28288
5.28911
5.29459
5.3007
5.30611
5.31207
5.31733
5.32302
5.328
5.33331
5.33792
5.34285
5.3471
5.35172
5.35566
5.36003
5.36366
5.36782
5.3711
5.37497
5.37787
5.3813
5.38398
5.38673
5.39026
5.39082
3.20907
4.39129
4.61002
4.65192
4.66227
4.66502
4.66743
4.66906
4.67117
4.67311
4.67511
4.67729
4.6792
4.68154
4.68341
4.6859
4.68779
4.6904
4.6923
4.69498
4.69689
4.69961
4.70155
4.70432
4.7063
4.70909
4.7111
4.71389
4.71591
4.71868
4.72072
4.72349
4.72558
4.72836
4.73047
4.73321
4.7353
4.73801
4.74011
4.74281
4.74493
4.74763
4.74976
4.75242
4.75451
4.75711
4.75918
4.76175
4.76384
4.76642
4.76853
4.77108
4.77316
4.77565
4.77769
4.78016
4.78221
4.7847
4.7868
4.78934
4.79149
4.79402
4.79616
4.79866
4.80078
4.80326
4.80539
4.80787
4.81004
4.8125
4.81465
4.81699
4.81901
4.82114
4.82297
4.82491
4.82657
4.82839
4.82993
4.83168
4.83312
4.83485
4.83615
4.8378
4.83895
4.84035
4.84163
4.84279
4.84432
4.8428
3.11558
4.29737
4.50737
4.5452
4.55203
4.55511
4.55627
4.55828
4.55934
4.56138
4.56246
4.56453
4.5656
4.56767
4.56876
4.57085
4.57198
4.5741
4.57526
4.57737
4.57854
4.58065
4.58186
4.58396
4.58522
4.58733
4.58861
4.5907
4.59199
4.59405
4.59537
4.59744
4.5988
4.60087
4.60226
4.6043
4.60567
4.60768
4.60907
4.61108
4.61251
4.61452
4.61597
4.61795
4.61938
4.62132
4.62274
4.62466
4.62612
4.62806
4.62955
4.63148
4.63296
4.63486
4.63631
4.6382
4.63968
4.64161
4.64317
4.64516
4.64677
4.64878
4.6504
4.6524
4.65402
4.65601
4.65765
4.65966
4.66136
4.66336
4.66504
4.66695
4.6685
4.6702
4.67159
4.67313
4.67436
4.67577
4.67691
4.67829
4.67934
4.68068
4.68165
4.68294
4.68375
4.68482
4.68568
4.68647
4.68756
4.68496
3.20935
4.38521
4.59749
4.63571
4.64464
4.64697
4.6493
4.65092
4.65303
4.65498
4.65699
4.65918
4.6611
4.66346
4.66534
4.66786
4.66976
4.6724
4.67432
4.67702
4.67895
4.6817
4.68367
4.68646
4.68847
4.69129
4.69332
4.69614
4.69819
4.701
4.70307
4.70588
4.708
4.71082
4.71295
4.71574
4.71786
4.72061
4.72274
4.72549
4.72765
4.73039
4.73256
4.73526
4.7374
4.74004
4.74215
4.74477
4.74691
4.74953
4.75168
4.75428
4.75641
4.75896
4.76104
4.76356
4.76566
4.7682
4.77035
4.77294
4.77513
4.77772
4.7799
4.78245
4.78462
4.78715
4.78932
4.79185
4.79406
4.79657
4.79875
4.80115
4.8032
4.80538
4.80724
4.80923
4.81093
4.81279
4.81437
4.81617
4.81764
4.81943
4.82076
4.82246
4.82365
4.82511
4.82642
4.82763
4.82916
4.82756
3.33087
4.55609
4.77265
4.81891
4.83084
4.8401
4.84581
4.85432
4.8601
4.86863
4.87446
4.88293
4.88877
4.89717
4.90306
4.91142
4.91738
4.92571
4.93172
4.93999
4.94604
4.95425
4.96037
4.96854
4.97472
4.98284
4.98908
4.99713
5.00339
5.01137
5.01765
5.02559
5.03193
5.03982
5.04617
5.05396
5.0603
5.068
5.07433
5.08197
5.08832
5.09589
5.10222
5.10968
5.11595
5.12328
5.12949
5.13673
5.14291
5.15008
5.15623
5.16329
5.16935
5.17627
5.18223
5.18902
5.19492
5.20165
5.20753
5.21422
5.22006
5.22664
5.23238
5.23882
5.24444
5.25074
5.25628
5.26246
5.26793
5.27396
5.27926
5.28501
5.29003
5.2954
5.30005
5.30505
5.30935
5.31403
5.31802
5.32246
5.32615
5.33038
5.33372
5.33767
5.34063
5.34417
5.34686
5.34977
5.35328
5.3538
4.06796
5.1481
5.28929
5.31949
5.33336
5.35158
5.36372
5.38249
5.39406
5.41305
5.42426
5.44332
5.4543
5.47334
5.48425
5.50325
5.51422
5.53314
5.54423
5.56302
5.57425
5.59292
5.60436
5.62292
5.63459
5.65306
5.66496
5.68331
5.69543
5.71366
5.72601
5.74418
5.75679
5.7749
5.78774
5.80574
5.81876
5.83668
5.84991
5.86777
5.88123
5.89905
5.91269
5.93043
5.94421
5.96185
5.97576
5.99334
6.00741
6.02497
6.03917
6.05666
6.07093
6.08831
6.10261
6.11989
6.13426
6.15149
6.16593
6.18311
6.19755
6.21459
6.22891
6.24572
6.25983
6.27635
6.29021
6.3064
6.31991
6.33565
6.34864
6.36372
6.37595
6.39018
6.40149
6.4148
6.42514
6.43755
6.44692
6.45849
6.46686
6.47756
6.48487
6.49459
6.50081
6.50927
6.51484
6.52088
6.52714
6.54006
4.77175
5.08943
5.06566
5.06292
5.07136
5.08912
5.0978
5.11719
5.12315
5.14309
5.14717
5.16712
5.16993
5.18975
5.19193
5.21154
5.21334
5.23248
5.23403
5.25265
5.25426
5.27251
5.27443
5.29236
5.2946
5.31213
5.31467
5.33181
5.33481
5.35179
5.35547
5.37243
5.3767
5.39344
5.39811
5.41464
5.41993
5.4366
5.44273
5.45961
5.46644
5.48333
5.49066
5.50748
5.51538
5.53242
5.5412
5.55869
5.56829
5.58596
5.59593
5.61343
5.62353
5.6409
5.65127
5.66874
5.67934
5.69666
5.70683
5.72324
5.73209
5.74698
5.75413
5.76751
5.77311
5.78511
5.78917
5.7996
5.80194
5.81053
5.81124
5.81821
5.81797
5.82401
5.82375
5.82958
5.82999
5.83614
5.83758
5.84423
5.84649
5.85354
5.85605
5.86328
5.86563
5.87308
5.87475
5.8832
5.88206
5.84506
22.9588
23.8169
23.8965
23.9239
23.9268
23.9378
23.9347
23.9458
23.9416
23.9533
23.9485
23.9601
23.9549
23.9664
23.9615
23.9731
23.9687
23.9799
23.9756
23.9863
23.9824
23.9928
23.9896
23.9999
23.9972
24.0073
24.0048
24.0144
24.0124
24.0218
24.0205
24.0302
24.0296
24.0391
24.0387
24.0477
24.0476
24.0567
24.0576
24.0671
24.0687
24.0782
24.08
24.0892
24.0911
24.1003
24.103
24.1128
24.1164
24.1266
24.1303
24.14
24.1433
24.1523
24.1554
24.1644
24.1675
24.1765
24.1789
24.1867
24.187
24.1924
24.1898
24.1928
24.188
24.1891
24.1825
24.182
24.1739
24.1713
24.1618
24.1573
24.1471
24.1415
24.1319
24.1264
24.1187
24.1146
24.1097
24.1078
24.1054
24.1058
24.1048
24.1069
24.1063
24.1095
24.1092
24.1134
24.1065
23.886
20.68
22.5202
22.7059
22.7607
22.7758
22.7961
22.8027
22.8207
22.827
22.8448
22.8511
22.8686
22.8749
22.8921
22.8985
22.9156
22.9224
22.9395
22.9466
22.9634
22.9707
22.9874
22.9952
23.0119
23.0201
23.0368
23.0455
23.0621
23.0711
23.0876
23.097
23.1137
23.1237
23.1405
23.151
23.1678
23.1786
23.1953
23.2065
23.2236
23.2354
23.2527
23.2651
23.2825
23.2952
23.3126
23.3257
23.3433
23.3571
23.3753
23.3897
23.4082
23.4231
23.4417
23.4569
23.4758
23.4916
23.5113
23.5279
23.5484
23.5657
23.5866
23.6042
23.6251
23.6426
23.6635
23.681
23.7019
23.7194
23.74
23.7568
23.7762
23.7916
23.8089
23.8224
23.8377
23.8494
23.8632
23.8736
23.8867
23.896
23.9084
23.9166
23.9281
23.9351
23.9451
23.9514
23.9583
23.9676
24.012
18.8087
21.1265
21.4148
21.4943
21.5185
21.5371
21.5452
21.5594
21.567
21.581
21.5889
21.6027
21.6105
21.6241
21.632
21.6456
21.6538
21.6674
21.6758
21.6892
21.6977
21.711
21.7197
21.7331
21.7421
21.7555
21.7647
21.778
21.7873
21.8005
21.8099
21.8232
21.8331
21.8465
21.8565
21.8698
21.8798
21.8929
21.9032
21.9164
21.927
21.9404
21.9512
21.9646
21.9754
21.9885
21.9994
22.0126
22.0238
22.0373
22.0489
22.0625
22.0742
22.0877
22.0993
22.113
22.1249
22.139
22.1516
22.1664
22.1795
22.1945
22.2077
22.2227
22.2359
22.251
22.2645
22.2797
22.2934
22.3086
22.3222
22.3365
22.3491
22.362
22.3732
22.3845
22.3945
22.4048
22.4139
22.4238
22.4321
22.4417
22.4491
22.4581
22.4645
22.4723
22.4782
22.4843
22.4933
22.4879
18.4901
20.7995
21.0766
21.1444
21.1629
21.1779
21.1831
21.1934
21.1981
21.2082
21.2131
21.223
21.228
21.2376
21.2427
21.2523
21.2576
21.2673
21.2727
21.2822
21.2877
21.2971
21.3027
21.3122
21.318
21.3275
21.3335
21.3429
21.3489
21.3582
21.3643
21.3737
21.3801
21.3896
21.3962
21.4055
21.4121
21.4212
21.428
21.4373
21.4443
21.4537
21.461
21.4703
21.4775
21.4866
21.4938
21.5031
21.5106
21.5202
21.5281
21.5377
21.5457
21.5553
21.5632
21.5729
21.5811
21.5913
21.6002
21.611
21.6204
21.6315
21.641
21.6521
21.6617
21.6729
21.6827
21.6941
21.7043
21.7157
21.7257
21.7364
21.7455
21.7549
21.7628
21.7708
21.7777
21.7849
21.7911
21.7981
21.8039
21.8108
21.816
21.8226
21.8272
21.8329
21.8372
21.8416
21.8477
21.8402
18.2298
20.6092
20.8722
20.9265
20.9396