/*--------------------------------*- C++ -*----------------------------------*\
  =========                 |
  \\      /  F ield         | OpenFOAM: The Open Source CFD Toolbox
   \\    /   O peration     | Website:  https://openfoam.org
    \\  /    A nd           | Version:  7
     \\/     M anipulation  |
\*---------------------------------------------------------------------------*/
FoamFile
{
    version     2.0;
    format      ascii;
    class       volSymmTensorField;
    location    "0.41";
    object      UPrime2Mean;
}
// * * * * * * * * * * * * * * * * * * * * * * * * * * * * * * * * * * * * * //

dimensions      [0 2 -2 0 0 0 0];

internalField   nonuniform List<symmTensor> 
8640
(
(0.00418348 -4.64068e-05 0.000268804 0.000804408 0.000429389 0.000382378)
(0.0113578 -0.00129819 -0.00146141 0.000691324 0.000378744 0.000767878)
(0.0224114 -0.00195747 -0.00228211 0.000722238 0.000412919 0.00122833)
(0.0565787 -0.000443245 -0.00483081 0.000712381 9.30095e-05 0.00161464)
(0.0849281 0.00272401 -0.00631495 0.00107197 -0.000247334 0.002013)
(0.145611 0.00990908 -0.00867866 0.00205744 -0.000626054 0.00232326)
(0.190959 0.0178477 -0.0103067 0.00354245 -0.00103279 0.00261556)
(0.263507 0.0293301 -0.0122671 0.00552178 -0.00138843 0.00280958)
(0.314804 0.039891 -0.0138559 0.00779239 -0.00178444 0.00298517)
(0.383003 0.0524275 -0.0154183 0.0102336 -0.00211006 0.00309185)
(0.429146 0.0627224 -0.0168412 0.012642 -0.00248 0.00320494)
(0.483914 0.0736801 -0.0180392 0.0149902 -0.00277939 0.0032702)
(0.519929 0.0819973 -0.0192558 0.0170831 -0.00312122 0.00333934)
(0.560011 0.0904289 -0.0201545 0.0190463 -0.00339718 0.00336075)
(0.586095 0.0964995 -0.021141 0.0206797 -0.00370035 0.00338272)
(0.61416 0.102595 -0.0217687 0.0222135 -0.00393508 0.00336544)
(0.632596 0.106857 -0.0225156 0.0234388 -0.0041807 0.00335148)
(0.65213 0.111184 -0.0229187 0.0246177 -0.00435821 0.0033067)
(0.665412 0.114163 -0.0234549 0.0255366 -0.00453848 0.00326634)
(0.679356 0.117213 -0.0236711 0.026446 -0.00465691 0.00320081)
(0.68931 0.11927 -0.0240061 0.0271452 -0.0047814 0.00313887)
(0.699406 0.121377 -0.0240491 0.0278556 -0.00485926 0.00305611)
(0.70687 0.122777 -0.0241996 0.0283963 -0.00494993 0.00297772)
(0.714032 0.124217 -0.0240989 0.0289563 -0.00500426 0.00288579)
(0.719557 0.125177 -0.0240962 0.0293823 -0.00507072 0.00280292)
(0.724529 0.126155 -0.0238785 0.0298312 -0.005104 0.00271536)
(0.728637 0.126788 -0.0237469 0.030165 -0.00514431 0.00264098)
(0.732076 0.127413 -0.0234386 0.0305247 -0.00515516 0.00256714)
(0.735219 0.127812 -0.0232074 0.0307969 -0.00517127 0.00250624)
(0.737563 0.12814 -0.0228353 0.0310773 -0.00516146 0.00244685)
(0.740086 0.128342 -0.0225415 0.0312925 -0.00515766 0.00239827)
(0.741707 0.128452 -0.0221386 0.0315182 -0.00513357 0.00235094)
(0.74388 0.128501 -0.0218098 0.0316935 -0.00511615 0.00231188)
(0.745069 0.128432 -0.0213956 0.0318776 -0.00508422 0.00227348)
(0.747024 0.12835 -0.0210474 0.0320177 -0.00505849 0.00224108)
(0.747809 0.128147 -0.0206356 0.0321683 -0.00502323 0.00220919)
(0.749496 0.127985 -0.0202833 0.0322837 -0.00499323 0.00218207)
(0.749867 0.127668 -0.019882 0.032398 -0.0049552 0.00215641)
(0.751405 0.127454 -0.0195372 0.0324891 -0.00491923 0.002136)
(0.751544 0.127077 -0.0191514 0.0325874 -0.00487507 0.00211868)
(0.753117 0.126827 -0.0188117 0.0326652 -0.00482951 0.0021069)
(0.753306 0.126394 -0.018436 0.0327521 -0.00477918 0.00209917)
(0.755315 0.12611 -0.0180971 0.0328167 -0.00472861 0.00209606)
(0.755918 0.125601 -0.0177283 0.0328858 -0.00468003 0.00209649)
(0.758613 0.12525 -0.0173976 0.0329195 -0.00463282 0.00209963)
(0.759617 0.124671 -0.0170481 0.0329728 -0.00459426 0.00210534)
(0.762876 0.124252 -0.0167414 0.0329654 -0.00455275 0.00211152)
(0.764017 0.123658 -0.0164258 0.0330278 -0.00452695 0.0021197)
(0.767746 0.123181 -0.0161554 0.0329629 -0.00448806 0.00212614)
(0.768881 0.12267 -0.0158817 0.0330833 -0.00447528 0.00213497)
(0.773132 0.122029 -0.0156451 0.0328849 -0.00443 0.00213956)
(0.774492 0.121776 -0.0154256 0.0331512 -0.00443067 0.00214831)
(0.779063 0.120602 -0.0151947 0.0325901 -0.00435967 0.00214901)
(0.782168 0.12121 -0.0150714 0.0332316 -0.0043884 0.00215819)
(0.785171 0.118145 -0.0147474 0.031633 -0.00424182 0.00215076)
(0.795429 0.121528 -0.0148237 0.0333489 -0.00436147 0.00216342)
(0.789457 0.111855 -0.0141933 0.0286971 -0.00403811 0.00214059)
(0.826285 0.124852 -0.0145302 0.0335004 -0.00437067 0.00216102)
(0.783565 0.0820038 -0.0135627 0.0190328 -0.00364384 0.00211994)
(0.936461 0.114687 0.00428424 0.0230508 -0.00177192 0.00200654)
(0.00553529 0.00140824 0.000788372 0.00164507 0.000604795 0.000319385)
(0.00655093 0.0005838 0.00027178 0.00416957 0.00139183 0.000789436)
(0.0160106 0.00597916 0.00200822 0.0098141 0.00278046 0.00145847)
(0.020296 0.00533978 0.00180019 0.0147912 0.00388969 0.00212587)
(0.0296328 0.0102412 0.00314087 0.0198737 0.00507648 0.00289937)
(0.0345166 0.00788664 0.00264912 0.0239392 0.0059879 0.00361637)
(0.0415895 0.00990915 0.00325703 0.0268402 0.00682056 0.00439904)
(0.0470001 0.00550509 0.00230355 0.0287432 0.00741455 0.00509136)
(0.0529137 0.00492495 0.00215318 0.0296276 0.00794152 0.00581023)
(0.0602995 -0.0004068 0.000750698 0.02993 0.00829505 0.00641376)
(0.0671414 -0.00228394 -5.20755e-05 0.0298337 0.00862414 0.00702873)
(0.0774787 -0.00742999 -0.00180835 0.0295317 0.00881866 0.00754788)
(0.0865579 -0.00960156 -0.00310786 0.0293071 0.00903214 0.00809652)
(0.0998032 -0.0139856 -0.0051275 0.02902 0.0091495 0.00856947)
(0.111236 -0.0159579 -0.00680438 0.0289954 0.00932783 0.00905947)
(0.126529 -0.0195013 -0.00896219 0.0289008 0.00943306 0.00947305)
(0.139779 -0.0212085 -0.0107754 0.029091 0.00961092 0.0099043)
(0.156411 -0.0240684 -0.0128535 0.0291624 0.00971495 0.0102839)
(0.17134 -0.0255558 -0.0146676 0.029478 0.00988186 0.0106836)
(0.189145 -0.0278162 -0.0167132 0.029636 0.00996802 0.0110216)
(0.205393 -0.0289208 -0.0186307 0.0299877 0.010111 0.011335)
(0.223498 -0.0304487 -0.0207237 0.0301677 0.0101878 0.01154)
(0.239871 -0.0310778 -0.0226799 0.0305014 0.0103297 0.0116639)
(0.257096 -0.0320066 -0.0246534 0.0306711 0.0104221 0.0116509)
(0.272572 -0.0323145 -0.0264116 0.0309664 0.0105734 0.0115489)
(0.288235 -0.0328481 -0.0280382 0.0311146 0.0106701 0.0113464)
(0.302316 -0.0329454 -0.0293859 0.0313652 0.0107981 0.0111055)
(0.316184 -0.0331718 -0.0305069 0.0314947 0.0108585 0.0108272)
(0.328721 -0.03308 -0.03134 0.0317051 0.0109275 0.0105515)
(0.3408 -0.0330468 -0.0319297 0.0318144 0.0109296 0.0102661)
(0.351736 -0.032797 -0.0322757 0.0319938 0.0109352 0.00998918)
(0.362042 -0.0325712 -0.0324113 0.0320906 0.0108859 0.00970654)
(0.371436 -0.0322074 -0.032374 0.0322447 0.0108405 0.00943058)
(0.380177 -0.0318014 -0.0321842 0.0323302 0.0107549 0.00915183)
(0.388189 -0.0312726 -0.031902 0.0324579 0.0106782 0.00887854)
(0.395429 -0.0306394 -0.0315266 0.0325308 0.0105793 0.00860213)
(0.402036 -0.0299686 -0.0311198 0.0326313 0.0104948 0.00832615)
(0.407985 -0.0292465 -0.0306498 0.0326861 0.0103984 0.00804515)
(0.413669 -0.0285875 -0.0301732 0.0327583 0.0103107 0.00776422)
(0.41898 -0.0278979 -0.0296245 0.0328031 0.0102085 0.00748408)
(0.424431 -0.0273676 -0.0290524 0.0328786 0.010102 0.00721129)
(0.429895 -0.0268505 -0.0283713 0.0329654 0.00997986 0.00695066)
(0.435953 -0.0265182 -0.0276547 0.03307 0.00984706 0.00670642)
(0.442287 -0.0260828 -0.026826 0.0331816 0.00970814 0.00648445)
(0.449349 -0.0257446 -0.0259958 0.0332585 0.00955789 0.00628403)
(0.456591 -0.0251908 -0.0250776 0.0333595 0.00941923 0.0061125)
(0.464415 -0.024745 -0.0242105 0.0333688 0.00926293 0.0059611)
(0.472144 -0.0240526 -0.0232769 0.033495 0.00914495 0.00584302)
(0.48032 -0.023584 -0.0224541 0.0334319 0.00898964 0.00573571)
(0.48817 -0.022772 -0.0215718 0.0336553 0.00890929 0.00566866)
(0.496481 -0.0224018 -0.0208621 0.0335046 0.00875012 0.00559211)
(0.504393 -0.0213502 -0.0200704 0.0338737 0.00871282 0.00557148)
(0.512691 -0.0213222 -0.0195087 0.0336777 0.00854684 0.00550442)
(0.521006 -0.0197261 -0.0188107 0.0341 0.00854704 0.00552814)
(0.528311 -0.0204803 -0.018381 0.034178 0.00838143 0.00543996)
(0.539081 -0.0175978 -0.0178039 0.0341724 0.00838975 0.00551409)
(0.540548 -0.0199181 -0.0174478 0.0353827 0.008256 0.00537366)
(0.558989 -0.0129726 -0.0168125 0.0335517 0.00810188 0.00549825)
(0.541986 -0.018779 -0.0167788 0.0362899 0.0079878 0.00529708)
(0.552979 0.0042254 -0.00465539 0.0318357 0.00734633 0.0050845)
(0.00555762 0.00018403 0.000781122 4.47401e-05 8.05229e-05 0.000310015)
(0.00649304 1.00379e-05 0.00023927 4.79009e-05 -4.64083e-05 0.000784545)
(0.0167619 -0.000106622 0.00215664 0.000136353 1.20423e-05 0.0014599)
(0.0221027 -0.000343665 0.00238287 0.000420671 -0.000131146 0.00216156)
(0.036922 -0.00137512 0.0046965 0.000825933 -0.000238461 0.00298028)
(0.0455704 -0.0019576 0.00545989 0.00155902 -0.000436154 0.00378226)
(0.0634203 -0.00432672 0.00796641 0.002463 -0.00071764 0.00465906)
(0.0736838 -0.00564091 0.00901604 0.0036661 -0.00104012 0.00549607)
(0.0920318 -0.00928443 0.0115028 0.00503965 -0.00148333 0.00636606)
(0.102067 -0.0113372 0.0126375 0.00662495 -0.00194075 0.00717154)
(0.118762 -0.0157557 0.0149493 0.00831054 -0.00250908 0.00797855)
(0.127407 -0.0182581 0.0160321 0.0100984 -0.00308908 0.0087229)
(0.141455 -0.022851 0.0180946 0.0118632 -0.00375364 0.00947714)
(0.148476 -0.025378 0.0190561 0.0136502 -0.0044222 0.0101961)
(0.159928 -0.0296033 0.0207998 0.0153086 -0.00512806 0.0109329)
(0.165717 -0.0318595 0.0215468 0.0169541 -0.00582359 0.0116347)
(0.175157 -0.0355832 0.0229381 0.018408 -0.00652188 0.0123368)
(0.180185 -0.0376793 0.0235397 0.0198413 -0.00722206 0.0130002)
(0.188041 -0.041015 0.0247786 0.021058 -0.00792236 0.0136738)
(0.192351 -0.0428616 0.0254074 0.0222722 -0.00863323 0.0143394)
(0.198763 -0.0455737 0.0264831 0.0232916 -0.00932044 0.0150324)
(0.202547 -0.0469545 0.0268293 0.0243335 -0.00999793 0.0157073)
(0.208154 -0.0490138 0.0272814 0.0252029 -0.0106236 0.0163544)
(0.21204 -0.0500131 0.0269513 0.0261011 -0.0112218 0.0169085)
(0.217514 -0.0516139 0.0266729 0.0268431 -0.0117532 0.0173587)
(0.221878 -0.0524022 0.0258525 0.0276092 -0.0122488 0.0176702)
(0.227552 -0.0537053 0.0252381 0.0282324 -0.0126758 0.0178627)
(0.232505 -0.0543794 0.0243507 0.0288775 -0.01307 0.0179308)
(0.238479 -0.0554612 0.0237487 0.0293974 -0.013404 0.0179061)
(0.243997 -0.0560335 0.0229928 0.0299346 -0.0137095 0.0177912)
(0.250304 -0.0569157 0.0224806 0.030366 -0.0139607 0.017618)
(0.256357 -0.0574166 0.0218371 0.0308112 -0.0141828 0.0173933)
(0.262993 -0.0581743 0.0213664 0.0311636 -0.0143535 0.0171463)
(0.269516 -0.0586266 0.0207761 0.0315244 -0.0144917 0.0168798)
(0.276449 -0.0592188 0.0203026 0.0318082 -0.0145727 0.0166076)
(0.283453 -0.0595696 0.0197204 0.0320956 -0.0146082 0.0163195)
(0.290817 -0.0600651 0.0192126 0.0323138 -0.0145826 0.0160148)
(0.298397 -0.0604592 0.0186243 0.0325235 -0.0145135 0.0156812)
(0.306132 -0.0610097 0.0181125 0.0326788 -0.014399 0.0153202)
(0.314056 -0.0615154 0.0175747 0.0328199 -0.0142569 0.0149303)
(0.321932 -0.0621108 0.0171236 0.0329 -0.0140842 0.0145178)
(0.330088 -0.0626718 0.0166691 0.0329449 -0.0138923 0.0140881)
(0.33817 -0.0632946 0.0162697 0.0329436 -0.0136833 0.0136454)
(0.34669 -0.0639098 0.0158419 0.0329151 -0.0134668 0.0131962)
(0.355112 -0.0645759 0.0154317 0.0328912 -0.0132526 0.0127363)
(0.36401 -0.065195 0.014999 0.0328374 -0.0130362 0.0122735)
(0.372732 -0.0658751 0.0146198 0.0328489 -0.0128327 0.0117949)
(0.381843 -0.0664006 0.0142875 0.032761 -0.0126137 0.011321)
(0.390762 -0.067109 0.0140802 0.0328283 -0.0124144 0.0108319)
(0.399868 -0.0674395 0.013975 0.0326327 -0.0121815 0.0103775)
(0.408932 -0.0682215 0.014007 0.0327432 -0.0119709 0.00991305)
(0.417813 -0.0682298 0.0141403 0.0323607 -0.0117383 0.00952644)
(0.427056 -0.0690416 0.0143428 0.0323935 -0.0114732 0.00911392)
(0.435585 -0.0686362 0.0146335 0.0318907 -0.0113143 0.00882437)
(0.444948 -0.0690441 0.0148324 0.0312955 -0.0108391 0.00845074)
(0.45358 -0.0684607 0.0152858 0.0312966 -0.0109851 0.00826311)
(0.461499 -0.0670136 0.0151935 0.0285396 -0.00990084 0.00789878)
(0.473149 -0.0669235 0.0161134 0.0309369 -0.0109448 0.00782003)
(0.473642 -0.0615826 0.0151099 0.0238888 -0.00872749 0.007438)
(0.496849 -0.0609276 0.0258231 0.0316625 -0.012407 0.00815817)
(0.00536455 0.000561915 0.000728585 0.000287787 0.000243622 0.000299327)
(0.00651624 -0.000233289 -5.19017e-05 0.00128017 0.000762517 0.000761046)
(0.014638 0.00307597 0.0015857 0.0039466 0.00172787 0.00142147)
(0.0196014 0.0029036 0.0014947 0.00667767 0.00257242 0.00211437)
(0.0311236 0.00855237 0.00347391 0.0101176 0.00359625 0.00292888)
(0.0391124 0.00995317 0.00403416 0.0132248 0.00447563 0.003731)
(0.0542337 0.0168158 0.00635136 0.0161677 0.00539935 0.00461288)
(0.0646844 0.019218 0.00741399 0.0186497 0.00617808 0.00545839)
(0.0824129 0.0261135 0.00997304 0.0206986 0.00695917 0.00634125)
(0.0943259 0.0286743 0.0113772 0.0223552 0.00761171 0.0071628)
(0.113049 0.0348555 0.0140481 0.0236867 0.00826329 0.00799036)
(0.125261 0.0371219 0.0156492 0.0247639 0.00880182 0.00876)
(0.143458 0.0423988 0.0183231 0.0257015 0.00934502 0.00954373)
(0.155072 0.0443224 0.0199955 0.0264723 0.00978899 0.0102979)
(0.171894 0.0487988 0.0225207 0.0272354 0.0102546 0.0110734)
(0.182646 0.0504395 0.0240747 0.027861 0.0106348 0.0118165)
(0.197893 0.0542328 0.0263264 0.0285362 0.0110444 0.0125572)
(0.207692 0.0556892 0.0277861 0.0290675 0.011373 0.0132587)
(0.221092 0.0590065 0.0299431 0.0296597 0.011733 0.0139702)
(0.229679 0.0604251 0.0314681 0.0301001 0.0120226 0.0146808)
(0.241298 0.0633854 0.0334923 0.0305982 0.0123516 0.0154275)
(0.249072 0.0647459 0.0347517 0.0309461 0.0126265 0.0161692)
(0.259551 0.0673002 0.036164 0.0313456 0.0129472 0.0168951)
(0.267043 0.0684666 0.0367427 0.0316077 0.0132215 0.017541)
(0.276848 0.0705482 0.0373992 0.0319161 0.0135274 0.0180931)
(0.284261 0.0714963 0.0374379 0.0321042 0.0137766 0.018515)
(0.293485 0.0731933 0.0376878 0.0323337 0.0140372 0.0188229)
(0.300744 0.0739964 0.0375884 0.0324616 0.0142392 0.019008)
(0.309395 0.0754129 0.037794 0.0326253 0.0144483 0.019096)
(0.316489 0.0761353 0.0378043 0.0327069 0.0146118 0.0190843)
(0.324688 0.0773477 0.0381055 0.0328221 0.0147862 0.0189972)
(0.33172 0.0780176 0.0382476 0.0328746 0.0149225 0.0188389)
(0.339615 0.0790857 0.0385889 0.0329588 0.0150598 0.0186382)
(0.346672 0.07976 0.03874 0.0329937 0.0151522 0.0184071)
(0.354445 0.080749 0.0389738 0.0330544 0.015229 0.0181685)
(0.361771 0.0814315 0.0389755 0.0330795 0.0152539 0.0179227)
(0.369711 0.0823325 0.0389702 0.0331249 0.0152519 0.0176704)
(0.377437 0.082993 0.0387294 0.0331418 0.0152013 0.0173968)
(0.385541 0.0838063 0.0384636 0.0331766 0.015126 0.0170949)
(0.39353 0.0844573 0.0380326 0.0331982 0.0150148 0.0167571)
(0.40165 0.0852098 0.0376243 0.0332473 0.0148876 0.0163856)
(0.409845 0.0858606 0.0371375 0.0332955 0.0147372 0.0159847)
(0.41805 0.0865823 0.0366841 0.0333698 0.0145759 0.0155608)
(0.426585 0.0872735 0.0361594 0.0334329 0.0143969 0.0151214)
(0.434971 0.0879928 0.0356099 0.033501 0.0142066 0.0146678)
(0.443942 0.088727 0.0349794 0.0335413 0.014004 0.0142062)
(0.452487 0.0894394 0.0343023 0.0335822 0.0137908 0.013726)
(0.461894 0.090247 0.0336127 0.0336118 0.013578 0.0132355)
(0.470436 0.0909719 0.0329317 0.0336481 0.0133474 0.0127162)
(0.480252 0.0918853 0.0323682 0.0336993 0.0131368 0.0121975)
(0.4886 0.0926004 0.0318671 0.0337368 0.012881 0.0116562)
(0.498981 0.0936858 0.0315873 0.0338491 0.0126966 0.0111522)
(0.506854 0.0944145 0.0313092 0.0339152 0.0124218 0.010641)
(0.518613 0.0958736 0.0313312 0.0341516 0.0122867 0.0102097)
(0.52538 0.0966937 0.0311272 0.0343223 0.0120011 0.00975955)
(0.54085 0.098987 0.0314223 0.0347309 0.0118744 0.00941059)
(0.544775 0.0996638 0.0309499 0.0349267 0.0115609 0.00900735)
(0.57018 0.104505 0.0317933 0.0358508 0.0113227 0.00871347)
(0.567267 0.102395 0.0303494 0.0345037 0.01075 0.00832556)
(0.614353 0.115969 0.0430755 0.0389103 0.0123563 0.00930159)
(0.00535102 -9.16394e-05 0.000726437 7.29581e-06 -3.94864e-05 0.000300136)
(0.00653028 0.00012525 -7.94469e-05 0.000199085 -0.00030432 0.000765069)
(0.0145192 -0.0010931 0.00154225 0.000512224 -0.000603308 0.00142568)
(0.0194025 -0.00105057 0.00139703 0.00117357 -0.00100121 0.00212265)
(0.0304646 -0.00352362 0.00331222 0.00196973 -0.00142199 0.00293928)
(0.0380719 -0.00413222 0.00377597 0.00305214 -0.00185057 0.00374695)
(0.0522482 -0.00771461 0.00599081 0.0042928 -0.00233285 0.00463329)
(0.062067 -0.00907161 0.00694618 0.00571004 -0.00278703 0.00548641)
(0.0786624 -0.0134616 0.00940692 0.00726361 -0.00331451 0.00637548)
(0.0900027 -0.0154496 0.0107284 0.00889632 -0.0038073 0.00720474)
(0.107842 -0.0202772 0.0133387 0.0105958 -0.00437425 0.00803865)
(0.119837 -0.0226957 0.0149099 0.0122959 -0.00490948 0.00881724)
(0.137724 -0.0276283 0.0175911 0.0139773 -0.00550701 0.0096117)
(0.149643 -0.0302585 0.0193015 0.0156085 -0.00607525 0.0103799)
(0.166775 -0.0350171 0.0219 0.0171539 -0.00668606 0.0111694)
(0.178236 -0.0376759 0.0235551 0.0186264 -0.00726902 0.0119268)
(0.194181 -0.0421205 0.0259476 0.0199749 -0.00787538 0.0126808)
(0.204911 -0.0447473 0.0275705 0.0212465 -0.00845863 0.0133976)
(0.219409 -0.0488476 0.0299238 0.0223847 -0.00905247 0.0141267)
(0.229337 -0.0513665 0.0316536 0.0234597 -0.00962601 0.0148584)
(0.242494 -0.0550386 0.0339118 0.0244111 -0.0101963 0.0156272)
(0.251853 -0.0573478 0.0354134 0.0253162 -0.0107449 0.0163922)
(0.264005 -0.0605602 0.0371005 0.0261123 -0.0112794 0.0171415)
(0.273038 -0.0626261 0.0379556 0.0268734 -0.0117874 0.0178122)
(0.284366 -0.0653995 0.0389041 0.0275383 -0.0122669 0.0183899)
(0.293089 -0.0672356 0.0392172 0.028177 -0.0127104 0.0188395)
(0.303642 -0.0696345 0.0397439 0.0287309 -0.0131131 0.0191759)
(0.312047 -0.0712807 0.0398983 0.029263 -0.0134767 0.0193908)
(0.32189 -0.0733717 0.040363 0.0297215 -0.013801 0.0195085)
(0.329999 -0.0748528 0.0406165 0.0301618 -0.014094 0.0195258)
(0.339244 -0.0766706 0.0411732 0.0305402 -0.0143551 0.0194659)
(0.347135 -0.0779999 0.0415628 0.0309039 -0.0145907 0.0193311)
(0.355914 -0.0795828 0.0421664 0.0312143 -0.0147958 0.0191505)
(0.363703 -0.0807736 0.0425705 0.0315106 -0.0149709 0.0189356)
(0.372218 -0.0821351 0.0430635 0.0317612 -0.0151058 0.0187124)
(0.380085 -0.0831775 0.0433014 0.0319977 -0.0151975 0.0184816)
(0.38853 -0.0843405 0.0435186 0.0321934 -0.0152384 0.0182465)
(0.396593 -0.0852729 0.0434588 0.0323723 -0.0152308 0.0179907)
(0.405056 -0.0862992 0.0433466 0.03252 -0.0151772 0.0177073)
(0.413328 -0.0871527 0.0430275 0.0326485 -0.0150841 0.0173861)
(0.421841 -0.0880536 0.0427135 0.0327472 -0.0149558 0.0170293)
(0.430338 -0.0888172 0.0422924 0.03281 -0.0147949 0.0166401)
(0.438933 -0.0896454 0.0419075 0.0328549 -0.0146125 0.0162256)
(0.447657 -0.0904033 0.041432 0.0328562 -0.0144088 0.0157935)
(0.456372 -0.0912745 0.0409486 0.0328857 -0.0142095 0.0153469)
(0.465276 -0.0920251 0.0403468 0.0328441 -0.0139959 0.0148916)
(0.474093 -0.0929375 0.0397144 0.0329039 -0.0138085 0.0144191)
(0.483078 -0.0935469 0.0389952 0.0327959 -0.0135891 0.0139342)
(0.492093 -0.0945077 0.0383138 0.0329143 -0.0134053 0.0134197)
(0.50113 -0.0948414 0.0376416 0.0326681 -0.0131615 0.0128958)
(0.510587 -0.0959492 0.0371188 0.0328685 -0.0129607 0.0123471)
(0.519581 -0.0959462 0.0366727 0.0324318 -0.0127072 0.0118191)
(0.529888 -0.0973252 0.0364454 0.0327106 -0.012476 0.0112918)
(0.538786 -0.0969985 0.0362679 0.0321141 -0.0122758 0.0108219)
(0.550451 -0.0985144 0.0362426 0.0322678 -0.0119337 0.0103641)
(0.559819 -0.0981354 0.0362679 0.0317571 -0.0119201 0.00996526)
(0.572842 -0.0989136 0.0360989 0.0311089 -0.0112485 0.00957388)
(0.584891 -0.0996923 0.0363855 0.0316386 -0.0117113 0.00920679)
(0.597954 -0.0979071 0.0354761 0.028993 -0.010495 0.00884533)
(0.617195 -0.10285 0.0468473 0.0330185 -0.0135238 0.00985843)
(0.00531281 0.00026862 0.000714157 6.64491e-05 0.000118189 0.000296689)
(0.00657942 -0.000246213 -0.000130716 0.000529282 0.000492757 0.000756773)
(0.0141574 0.00178005 0.00141635 0.00163873 0.00109961 0.00140936)
(0.0190304 0.00142809 0.00118318 0.00307727 0.00170376 0.00210128)
(0.0292643 0.00512952 0.00298122 0.00491121 0.00241615 0.00291258)
(0.0366334 0.00576876 0.00334866 0.00680802 0.00305935 0.00371697)
(0.049715 0.0106039 0.00543137 0.00879056 0.00375798 0.00460052)
(0.0590963 0.0121599 0.00628976 0.0106888 0.0043709 0.00545178)
(0.0744914 0.0175058 0.00861767 0.0125331 0.00502691 0.00633868)
(0.0852998 0.0195945 0.00984263 0.0142528 0.00560333 0.00716526)
(0.101992 0.0249502 0.0123282 0.0158909 0.00621937 0.00799637)
(0.113486 0.0272512 0.0138121 0.0174085 0.00676426 0.00877326)
(0.130391 0.0323359 0.0163832 0.018853 0.00734387 0.0095679)
(0.141901 0.0346709 0.0180121 0.0201843 0.00785991 0.0103373)
(0.158236 0.0393556 0.0205057 0.0214536 0.00840725 0.0111273)
(0.169375 0.0416333 0.022081 0.0226111 0.00889882 0.0118832)
(0.184726 0.0458929 0.0243851 0.0237114 0.00941676 0.0126346)
(0.195295 0.0481163 0.0259523 0.0246982 0.00988497 0.0133503)
(0.209468 0.0520108 0.0282461 0.0256309 0.0103749 0.014081)
(0.219443 0.0541861 0.0299354 0.0264553 0.0108221 0.0148166)
(0.232553 0.0577064 0.0321409 0.0272318 0.0112878 0.0155887)
(0.242152 0.0597483 0.0336042 0.0279109 0.0117178 0.0163545)
(0.254461 0.0628344 0.035252 0.0285503 0.0121622 0.0171001)
(0.263847 0.064656 0.0360917 0.0291047 0.0125702 0.0177638)
(0.275471 0.0672906 0.0370363 0.0296254 0.0129767 0.0183325)
(0.284638 0.0688865 0.0373722 0.0300726 0.0133355 0.0187734)
(0.295592 0.0711371 0.0379345 0.0304914 0.0136764 0.0191016)
(0.304497 0.0725577 0.0381459 0.0308478 0.0139678 0.0193093)
(0.314807 0.0745054 0.0386759 0.0311804 0.0142413 0.0194199)
(0.32345 0.075792 0.0390079 0.0314616 0.0144769 0.0194307)
(0.333203 0.0774898 0.0396455 0.0317243 0.0147014 0.0193647)
(0.34165 0.0786618 0.040122 0.0319464 0.0148951 0.0192255)
(0.350972 0.0801537 0.0408119 0.032154 0.0150737 0.0190427)
(0.359323 0.0812374 0.0413051 0.0323281 0.0152148 0.0188285)
(0.368377 0.0825587 0.0418848 0.0324899 0.0153266 0.0186082)
(0.376785 0.0835556 0.0422094 0.0326249 0.0153899 0.0183814)
(0.385753 0.0847179 0.0425104 0.0327488 0.0154132 0.0181499)
(0.394336 0.0856362 0.0425366 0.0328488 0.0153865 0.0178965)
(0.403297 0.0866733 0.0425128 0.0329422 0.0153236 0.0176147)
(0.412058 0.0875306 0.0422874 0.033017 0.015222 0.017295)
(0.42102 0.0884636 0.0420681 0.0330908 0.0150946 0.0169403)
(0.429972 0.0892687 0.0417428 0.0331421 0.0149381 0.0165537)
(0.438978 0.0901451 0.0414478 0.0331992 0.0147654 0.0161431)
(0.448135 0.0909551 0.0410594 0.0332232 0.0145717 0.0157154)
(0.457164 0.0918456 0.0406514 0.0332725 0.0143766 0.0152745)
(0.46645 0.0926531 0.0401234 0.0332604 0.0141654 0.0148244)
(0.475464 0.0935623 0.0395539 0.0333177 0.013966 0.0143582)
(0.484846 0.0943122 0.0388966 0.0332589 0.0137459 0.013877)
(0.493953 0.0952703 0.0382708 0.0333512 0.0135398 0.0133692)
(0.503479 0.0959116 0.0376461 0.0332239 0.0133085 0.0128464)
(0.512923 0.0969899 0.0371761 0.0333746 0.0130824 0.012305)
(0.522646 0.0975326 0.036763 0.0331786 0.0128611 0.0117756)
(0.532716 0.0988489 0.0365817 0.0334059 0.0126123 0.0112579)
(0.542815 0.0993675 0.0364152 0.0331984 0.0124368 0.0107825)
(0.553858 0.100949 0.0364436 0.0334185 0.0121289 0.0103387)
(0.565152 0.101758 0.0364276 0.0333886 0.012043 0.00992875)
(0.577512 0.103158 0.0363581 0.0331452 0.0115529 0.00955828)
(0.59211 0.105679 0.0364754 0.0341588 0.0116545 0.009174)
(0.606677 0.104952 0.0358355 0.0319415 0.0107499 0.00884331)
(0.627845 0.113747 0.0469991 0.0370735 0.0132333 0.00984637)
(0.00531281 -0.000268601 0.000714157 6.64486e-05 -0.000118191 0.000296689)
(0.00657942 0.000246271 -0.000130717 0.000529286 -0.000492763 0.000756773)
(0.0141574 -0.00177998 0.00141634 0.00163873 -0.00109962 0.00140936)
(0.0190304 -0.00142802 0.00118318 0.00307728 -0.00170377 0.00210128)
(0.0292643 -0.00512949 0.00298121 0.00491122 -0.00241617 0.00291258)
(0.0366334 -0.00576875 0.00334865 0.00680803 -0.00305937 0.00371697)
(0.0497149 -0.0106039 0.00543136 0.00879057 -0.00375801 0.00460052)
(0.0590963 -0.0121599 0.00628976 0.0106889 -0.00437093 0.00545179)
(0.0744914 -0.0175058 0.00861767 0.0125331 -0.00502695 0.00633869)
(0.0852999 -0.0195945 0.00984263 0.0142529 -0.00560337 0.00716527)
(0.101992 -0.0249501 0.0123282 0.015891 -0.00621942 0.00799637)
(0.113486 -0.0272511 0.0138121 0.0174085 -0.00676431 0.00877326)
(0.130391 -0.0323357 0.0163833 0.0188531 -0.00734392 0.00956791)
(0.141901 -0.0346706 0.0180121 0.0201843 -0.00785997 0.0103373)
(0.158236 -0.0393553 0.0205057 0.0214536 -0.00840732 0.0111273)
(0.169375 -0.0416331 0.0220809 0.0226112 -0.0088989 0.0118832)
(0.184726 -0.0458927 0.0243851 0.0237115 -0.00941684 0.0126346)
(0.195295 -0.0481162 0.0259523 0.0246983 -0.00988506 0.0133503)
(0.209468 -0.0520107 0.0282461 0.025631 -0.010375 0.014081)
(0.219443 -0.0541861 0.0299355 0.0264554 -0.0108222 0.0148166)
(0.232553 -0.0577066 0.032141 0.0272319 -0.0112878 0.0155887)
(0.242152 -0.0597486 0.0336043 0.0279111 -0.0117179 0.0163545)
(0.254461 -0.0628347 0.0352521 0.0285504 -0.0121623 0.0171001)
(0.263847 -0.0646563 0.0360918 0.0291048 -0.0125703 0.0177638)
(0.275471 -0.0672909 0.0370363 0.0296254 -0.0129768 0.0183325)
(0.284638 -0.0688867 0.0373723 0.0300727 -0.0133355 0.0187734)
(0.295593 -0.0711372 0.0379346 0.0304914 -0.0136765 0.0191016)
(0.304498 -0.0725576 0.038146 0.0308478 -0.0139678 0.0193093)
(0.314808 -0.0745051 0.038676 0.0311803 -0.0142412 0.01942)
(0.32345 -0.0757915 0.0390079 0.0314614 -0.0144768 0.0194308)
(0.333203 -0.077489 0.0396456 0.031724 -0.0147014 0.0193648)
(0.341651 -0.0786607 0.0401222 0.0319459 -0.014895 0.0192255)
(0.350972 -0.0801525 0.0408121 0.0321534 -0.0150735 0.0190427)
(0.359324 -0.0812358 0.0413054 0.0323274 -0.0152145 0.0188284)
(0.368377 -0.0825568 0.0418851 0.0324889 -0.0153261 0.0186082)
(0.376786 -0.0835531 0.0422098 0.0326236 -0.0153894 0.0183814)
(0.385755 -0.084715 0.0425109 0.0327472 -0.0154125 0.0181499)
(0.394338 -0.0856326 0.0425371 0.0328467 -0.0153856 0.0178965)
(0.4033 -0.0866695 0.0425135 0.0329398 -0.0153225 0.0176148)
(0.41206 -0.0875259 0.0422881 0.0330137 -0.0152207 0.017295)
(0.421024 -0.088459 0.0420691 0.033087 -0.015093 0.0169403)
(0.429975 -0.0892623 0.041744 0.0331369 -0.0149361 0.0165536)
(0.438986 -0.090139 0.0414494 0.0331937 -0.0147632 0.0161431)
(0.448141 -0.090945 0.0410611 0.0332152 -0.014569 0.0157153)
(0.457177 -0.091836 0.0406535 0.0332642 -0.0143736 0.0152745)
(0.466459 -0.0926368 0.0401253 0.0332483 -0.0141619 0.0148241)
(0.475481 -0.0935477 0.0395559 0.0333061 -0.0139624 0.0143583)
(0.484854 -0.0942856 0.0388976 0.0332407 -0.0137411 0.0138766)
(0.493964 -0.0952489 0.0382718 0.0333356 -0.0135357 0.0133693)
(0.503474 -0.0958714 0.0376446 0.0331981 -0.0133027 0.0128458)
(0.512927 -0.0969615 0.0371775 0.0333544 -0.0130779 0.0123054)
(0.522621 -0.0974733 0.0367592 0.0331417 -0.0128541 0.0117748)
(0.532727 -0.0988112 0.0365866 0.0333788 -0.0126074 0.0112586)
(0.54278 -0.0992865 0.0364095 0.0331486 -0.0124292 0.0107814)
(0.553868 -0.1009 0.036453 0.0333838 -0.0121255 0.0103398)
(0.565086 -0.101652 0.0364159 0.0333269 -0.0120364 0.00992731)
(0.577496 -0.103093 0.0363753 0.0331043 -0.0115543 0.00955969)
(0.591973 -0.105546 0.0364505 0.0340905 -0.0116517 0.00917249)
(0.606582 -0.104867 0.035867 0.0318988 -0.0107627 0.00884451)
(0.627583 -0.113588 0.0469451 0.0370047 -0.0132342 0.00984397)
(0.00535102 9.16572e-05 0.000726436 7.29568e-06 3.94848e-05 0.000300135)
(0.00653028 -0.000125195 -7.94487e-05 0.000199082 0.000304314 0.000765069)
(0.0145192 0.00109317 0.00154225 0.000512223 0.000603301 0.00142568)
(0.0194025 0.00105064 0.00139703 0.00117356 0.0010012 0.00212265)
(0.0304646 0.00352367 0.00331221 0.00196973 0.00142197 0.00293928)
(0.0380719 0.00413224 0.00377597 0.00305212 0.00185055 0.00374695)
(0.0522482 0.00771459 0.00599081 0.00429278 0.00233282 0.0046333)
(0.062067 0.00907158 0.00694619 0.00571001 0.00278699 0.00548642)
(0.0786623 0.0134616 0.00940693 0.00726358 0.00331447 0.00637549)
(0.0900027 0.0154495 0.0107284 0.00889627 0.00380725 0.00720476)
(0.107843 0.0202772 0.0133387 0.0105957 0.0043742 0.00803866)
(0.119837 0.0226958 0.0149099 0.0122959 0.00490942 0.00881725)
(0.137724 0.0276285 0.0175911 0.0139772 0.00550694 0.00961171)
(0.149643 0.0302586 0.0193015 0.0156084 0.00607518 0.0103799)
(0.166775 0.0350173 0.0219 0.0171538 0.00668598 0.0111695)
(0.178236 0.0376761 0.0235551 0.0186263 0.00726894 0.0119268)
(0.194181 0.0421206 0.0259476 0.0199748 0.00787529 0.0126808)
(0.204911 0.0447474 0.0275705 0.0212463 0.00845854 0.0133976)
(0.219409 0.0488477 0.0299238 0.0223846 0.00905238 0.0141267)
(0.229337 0.0513664 0.0316536 0.0234596 0.00962591 0.0148585)
(0.242494 0.0550384 0.0339119 0.0244109 0.0101962 0.0156273)
(0.251853 0.0573475 0.0354135 0.0253161 0.0107448 0.0163923)
(0.264005 0.0605599 0.0371006 0.0261121 0.0112793 0.0171416)
(0.273038 0.0626258 0.0379556 0.0268733 0.0117873 0.0178122)
(0.284366 0.0653992 0.0389042 0.0275382 0.0122668 0.01839)
(0.293089 0.0672354 0.0392172 0.0281769 0.0127103 0.0188395)
(0.303643 0.0696345 0.0397438 0.0287308 0.0131131 0.0191759)
(0.312047 0.0712809 0.0398982 0.0292631 0.0134767 0.0193909)
(0.32189 0.073372 0.0403629 0.0297216 0.0138009 0.0195086)
(0.33 0.0748534 0.0406164 0.030162 0.014094 0.0195259)
(0.339244 0.0766713 0.0411731 0.0305404 0.0143552 0.019466)
(0.347136 0.0780009 0.0415627 0.0309043 0.0145907 0.0193312)
(0.355915 0.079584 0.0421663 0.0312148 0.0147959 0.0191506)
(0.363704 0.0807751 0.0425705 0.0315112 0.0149712 0.0189357)
(0.372219 0.0821369 0.0430635 0.0317621 0.0151061 0.0187125)
(0.380086 0.0831798 0.0433015 0.0319987 0.0151979 0.0184816)
(0.388531 0.0843432 0.0435186 0.0321948 0.0152389 0.0182466)
(0.396594 0.0852763 0.0434587 0.032374 0.0152314 0.0179908)
(0.405057 0.086303 0.0433465 0.0325222 0.015178 0.0177075)
(0.413329 0.0871572 0.0430271 0.0326513 0.0150849 0.0173862)
(0.421841 0.0880585 0.0427132 0.0327505 0.014957 0.0170295)
(0.430339 0.0888233 0.0422916 0.0328143 0.0147962 0.01664)
(0.438933 0.0896519 0.0419072 0.0328599 0.0146142 0.0162258)