/*--------------------------------*- C++ -*----------------------------------*\
  =========                 |
  \\      /  F ield         | OpenFOAM: The Open Source CFD Toolbox
   \\    /   O peration     | Website:  https://openfoam.org
    \\  /    A nd           | Version:  7
     \\/     M anipulation  |
\*---------------------------------------------------------------------------*/
FoamFile
{
    version     2.0;
    format      ascii;
    class       volScalarField;
    location    "2.9225";
    object      T;
}
// * * * * * * * * * * * * * * * * * * * * * * * * * * * * * * * * * * * * * //

dimensions      [0 0 0 1 0 0 0];

internalField   nonuniform List<scalar> 
7920
(
282.875
282.999
283.002
283.052
283.027
283.06
283.039
283.063
283.046
283.064
283.051
283.065
283.056
283.067
283.063
283.068
283.072
283.062
283.095
283.012
282.797
282.858
282.883
282.952
282.947
282.984
282.975
282.996
282.991
283.003
282.999
283.007
283.007
283.011
283.019
283.011
283.042
282.991
283.113
282.854
282.736
282.755
282.702
282.778
282.741
282.8
282.771
282.816
282.793
282.826
282.809
282.833
282.826
282.84
282.847
282.844
282.881
282.835
282.943
282.789
282.759
282.772
282.717
282.774
282.742
282.788
282.767
282.802
282.788
282.812
282.805
282.82
282.82
282.826
282.838
282.834
282.861
282.841
282.892
282.845
282.739
282.759
282.681
282.744
282.693
282.744
282.708
282.747
282.721
282.751
282.732
282.754
282.743
282.759
282.755
282.767
282.771
282.779
282.791
282.799
282.744
282.776
282.698
282.765
282.712
282.764
282.725
282.765
282.736
282.766
282.744
282.767
282.752
282.77
282.761
282.776
282.773
282.788
282.791
282.809
282.744
282.776
282.698
282.765
282.712
282.764
282.725
282.765
282.736
282.766
282.744
282.768
282.751
282.77
282.76
282.777
282.773
282.789
282.791
282.808
282.739
282.759
282.681
282.744
282.693
282.744
282.708
282.748
282.721
282.752
282.732
282.755
282.741
282.761
282.752
282.769
282.767
282.783
282.787
282.802
282.759
282.772
282.717
282.774
282.742
282.789
282.767
282.803
282.788
282.813
282.803
282.821
282.817
282.83
282.832
282.843
282.849
282.858
282.868
282.875
282.736
282.755
282.702
282.778
282.741
282.801
282.771
282.816
282.792
282.827
282.808
282.836
282.822
282.845
282.838
282.859
282.857
282.875
282.877
282.891
282.797
282.858
282.883
282.952
282.947
282.984
282.975
282.996
282.99
283.004
282.998
283.008
283.005
283.014
283.013
283.021
283.022
283.029
283.031
283.037
282.875
282.999
283.002
283.052
283.027
283.06
283.039
283.063
283.046
283.064
283.051
283.066
283.056
283.068
283.061
283.071
283.066
283.074
283.07
283.079
283.231
283.225
283.308
283.268
283.322
283.276
283.316
283.278
283.309
283.278
283.303
283.277
283.298
283.276
283.296
283.271
283.301
283.25
283.356
283.047
283.183
283.155
283.208
283.192
283.229
283.213
283.232
283.217
283.226
283.213
283.222
283.21
283.222
283.206
283.229
283.196
283.252
283.158
283.33
283.006
283.231
283.179
283.26
283.218
283.279
283.243
283.286
283.252
283.282
283.25
283.273
283.243
283.264
283.234
283.263
283.222
283.274
283.197
283.311
283.145
283.202
283.143
283.205
283.161
283.205
283.171
283.202
283.173
283.192
283.167
283.178
283.157
283.164
283.145
283.154
283.133
283.152
283.123
283.159
283.116
283.225
283.157
283.237
283.178
283.233
283.187
283.226
283.187
283.214
283.18
283.198
283.169
283.181
283.156
283.165
283.144
283.154
283.135
283.148
283.133
283.218
283.139
283.219
283.154
283.21
283.16
283.199
283.158
283.185
283.149
283.167
283.136
283.147
283.122
283.13
283.109
283.115
283.1
283.105
283.094
283.218
283.139
283.219
283.154
283.21
283.16
283.199
283.158
283.184
283.149
283.166
283.137
283.147
283.123
283.129
283.11
283.115
283.1
283.106
283.093
283.225
283.157
283.237
283.178
283.233
283.187
283.226
283.187
283.214
283.181
283.197
283.17
283.18
283.157
283.164
283.146
283.152
283.138
283.146
283.135
283.202
283.143
283.205
283.161
283.205
283.171
283.201
283.173
283.192
283.168
283.177
283.158
283.161
283.149
283.148
283.141
283.141
283.138
283.141
283.139
283.231
283.179
283.26
283.218
283.279
283.243
283.286
283.253
283.282
283.252
283.271
283.246
283.26
283.241
283.252
283.238
283.248
283.238
283.248
283.238
283.183
283.155
283.208
283.192
283.229
283.213
283.232
283.218
283.226
283.214
283.221
283.212
283.218
283.212
283.218
283.214
283.219
283.217
283.221
283.217
283.231
283.225
283.308
283.268
283.322
283.276
283.316
283.278
283.309
283.278
283.302
283.278
283.297
283.278
283.292
283.278
283.288
283.277
283.285
283.27
283.156
283.16
283.175
283.179
283.19
283.188
283.194
283.19
283.195
283.191
283.198
283.192
283.202
283.189
283.213
283.173
283.253
283.094
283.435
282.695
283.154
283.155
283.164
283.168
283.177
283.179
283.184
283.182
283.186
283.179
283.186
283.173
283.193
283.166
283.213
283.15
283.259
283.103
283.347
283.001
283.156
283.156
283.167
283.168
283.178
283.178
283.185
283.183
283.187
283.181
283.186
283.176
283.185
283.17
283.19
283.166
283.204
283.164
283.225
283.163
283.155
283.155
283.164
283.164
283.171
283.17
283.174
283.171
283.172
283.167
283.166
283.16
283.159
283.153
283.154
283.15
283.154
283.153
283.157
283.163
283.156
283.155
283.166
283.166
283.173
283.172
283.176
283.173
283.173
283.168
283.165
283.16
283.157
283.152
283.149
283.148
283.146
283.148
283.146
283.155
283.156
283.155
283.165
283.164
283.171
283.169
283.172
283.168
283.168
283.162
283.159
283.154
283.15
283.145
283.141
283.139
283.137
283.137
283.137
283.141
283.156
283.155
283.165
283.164
283.171
283.169
283.172
283.168
283.168
283.162
283.159
283.154
283.15
283.145
283.142
283.138
283.137
283.136
283.138
283.139
283.156
283.155
283.166
283.166
283.173
283.172
283.176
283.173
283.173
283.168
283.165
283.16
283.157
283.152
283.15
283.147
283.147
283.147
283.149
283.151
283.155
283.155
283.164
283.164
283.171
283.17
283.173
283.171
283.171
283.167
283.165
283.161
283.158
283.154
283.153
283.152
283.152
283.154
283.158
283.161
283.155
283.156
283.167
283.169
283.177
283.179
283.184
283.184
283.186
283.183
283.183
283.18
283.18
283.178
283.179
283.181
283.185
283.189
283.194
283.2
283.154
283.155
283.164
283.168
283.177
283.179
283.184
283.183
283.184
283.182
283.182
283.18
283.182
283.183
283.187
283.19
283.196
283.199
283.204
283.206
283.156
283.16
283.175
283.179
283.19
283.189
283.194
283.19
283.195
283.192
283.196
283.194
283.198
283.197
283.2
283.199
283.201
283.2
283.202
283.2
283.156
283.16
283.175
283.179
283.19
283.188
283.194
283.19
283.195
283.191
283.198
283.192
283.202
283.189
283.213
283.173
283.253
283.094
283.435
282.695
283.154
283.155
283.164
283.168
283.177
283.179
283.184
283.182
283.186
283.179
283.186
283.173
283.193
283.166
283.213
283.15
283.259
283.103
283.347
283.001
283.156
283.156
283.167
283.168
283.178
283.178
283.185
283.183
283.187
283.181
283.186
283.176
283.185
283.17
283.19
283.166
283.204
283.164
283.225
283.163
283.155
283.155
283.164
283.164
283.171
283.17
283.174
283.171
283.172
283.167
283.166
283.16
283.159
283.153
283.154
283.15
283.154
283.153
283.157
283.163
283.156
283.155
283.166
283.166
283.173
283.172
283.176
283.173
283.173
283.168
283.165
283.16
283.157
283.152
283.149
283.148
283.146
283.148
283.146
283.155
283.156
283.155
283.165
283.164
283.171
283.169
283.172
283.168
283.168
283.162
283.159
283.154
283.15
283.145
283.141
283.139
283.137
283.137
283.137
283.141
283.156
283.155
283.165
283.164
283.171
283.169
283.172
283.168
283.168
283.162
283.159
283.154
283.15
283.145
283.142
283.138
283.137
283.136
283.138
283.139
283.156
283.155
283.166
283.166
283.173
283.172
283.176
283.173
283.173
283.168
283.165
283.16
283.157
283.152
283.15
283.147
283.147
283.147
283.149
283.151
283.155
283.155
283.164
283.164
283.171
283.17
283.173
283.171
283.171
283.167
283.165
283.161
283.158
283.154
283.153
283.152
283.152
283.154
283.158
283.161
283.155
283.156
283.167
283.169
283.177
283.179
283.184
283.184
283.186
283.183
283.183
283.18
283.18
283.178
283.179
283.181
283.185
283.189
283.194
283.2
283.154
283.155
283.164
283.168
283.177
283.179
283.184
283.183
283.184
283.182
283.182
283.18
283.182
283.183
283.187
283.19
283.196
283.199
283.204
283.206
283.156
283.16
283.175
283.179
283.19
283.189
283.194
283.19
283.195
283.192
283.196
283.194
283.198
283.197
283.2
283.199
283.201
283.2
283.202
283.2
283.231
283.225
283.308
283.268
283.322
283.276
283.316
283.278
283.309
283.278
283.303
283.277
283.298
283.276
283.296
283.271
283.301
283.25
283.356
283.047
283.183
283.155
283.208
283.192
283.229
283.213
283.232
283.217
283.226
283.213
283.222
283.21
283.222
283.206
283.229
283.196
283.252
283.158
283.33
283.006
283.231
283.179
283.26
283.218
283.279
283.243
283.286
283.252
283.282
283.25
283.273
283.243
283.264
283.234
283.263
283.222
283.274
283.197
283.311
283.145
283.202
283.143
283.205
283.161
283.205
283.171
283.202
283.173
283.192
283.167
283.178
283.157
283.164
283.145
283.154
283.133
283.152
283.123
283.159
283.116
283.225
283.157
283.237
283.178
283.233
283.187
283.226
283.187
283.214
283.18
283.198
283.169
283.181
283.156
283.165
283.144
283.154
283.135
283.148
283.133
283.218
283.139
283.219
283.154
283.21
283.16
283.199
283.158
283.185
283.149
283.167
283.136
283.147
283.122
283.13
283.109
283.115
283.1
283.105
283.094
283.218
283.139
283.219
283.154
283.21
283.16
283.199
283.158
283.184
283.149
283.166
283.137
283.147
283.123
283.129
283.11
283.115
283.1
283.106
283.093
283.225
283.157
283.237
283.178
283.233
283.187
283.226
283.187
283.214
283.181
283.197
283.17
283.18
283.157
283.164
283.146
283.152
283.138
283.146
283.135
283.202
283.143
283.205
283.161
283.205
283.171
283.201
283.173
283.192
283.168
283.177
283.158
283.161
283.149
283.148
283.141
283.141
283.138
283.141
283.139
283.231
283.179
283.26
283.218
283.279
283.243
283.286
283.253
283.282
283.252
283.271
283.246
283.26
283.241
283.252
283.238
283.248
283.238
283.248
283.238
283.183
283.155
283.208
283.192
283.229
283.213
283.232
283.218
283.226
283.214
283.221
283.212
283.218
283.212
283.218
283.214
283.219
283.217
283.221
283.217
283.231
283.225
283.308
283.268
283.322
283.276
283.316
283.278
283.309
283.278
283.302
283.278
283.297
283.278
283.292
283.278
283.288
283.277
283.285
283.27
282.875
282.999
283.002
283.052
283.027
283.06
283.039
283.063
283.046
283.064
283.051
283.065
283.056
283.067
283.063
283.068
283.072
283.062
283.095
283.012
282.797
282.858
282.883
282.952
282.947
282.984
282.975
282.996
282.991
283.003
282.999
283.007
283.007
283.011
283.019
283.011
283.042
282.991
283.113
282.854
282.736
282.755
282.702
282.778
282.741
282.8
282.771
282.816
282.793
282.826
282.809
282.833
282.826
282.84
282.847
282.844
282.881
282.835
282.943
282.789
282.759
282.772
282.717
282.774
282.742
282.788
282.767
282.802
282.788
282.812
282.805
282.82
282.82
282.826
282.838
282.834
282.861
282.841
282.892
282.845
282.739
282.759
282.681
282.744
282.693
282.744
282.708
282.747
282.721
282.751
282.732
282.754
282.743
282.759
282.755
282.767
282.771
282.779
282.791
282.799
282.744
282.776
282.698
282.765
282.712
282.764
282.725
282.765
282.736
282.766
282.744
282.767
282.752
282.77
282.761
282.776
282.773
282.788
282.791
282.809
282.744
282.776
282.698
282.765
282.712
282.764
282.725
282.765
282.736
282.766
282.744
282.768
282.751
282.77
282.76
282.777
282.773
282.789
282.791
282.808
282.739
282.759
282.681
282.744
282.693
282.744
282.708
282.748
282.721
282.752
282.732
282.755
282.741
282.76
282.752
282.769
282.767
282.783
282.787
282.802
282.759
282.772
282.717
282.774
282.742
282.789
282.767
282.803
282.788
282.813
282.803
282.821
282.817
282.83
282.832
282.843
282.849
282.858
282.868
282.875
282.736
282.755
282.702
282.778
282.741
282.801
282.771
282.816
282.792
282.827
282.808
282.836
282.822
282.845
282.838
282.859
282.857
282.875
282.877
282.891
282.797
282.858
282.883
282.952
282.947
282.984
282.975
282.996
282.99
283.004
282.998
283.008
283.005
283.014
283.013
283.021
283.022
283.029
283.031
283.037
282.875
282.999
283.002
283.052
283.027
283.06
283.039
283.063
283.046
283.064
283.051
283.066
283.056
283.068
283.061
283.071
283.066
283.074
283.07
283.079
285.043
286.567
287.582
288.411
289.092
289.705
290.24
290.738
291.188
291.619
292.019
292.404
292.766
293.115
293.446
293.768
294.076
294.376
294.664
294.942
295.211
295.471
295.722
295.965
296.199
296.424
296.639
296.844
297.04
297.226
297.401
297.565
297.718
297.859
297.989
298.108
298.216
298.312
298.398
298.473
298.538
298.594
298.642
298.682
298.715
298.742
298.763
298.779
298.792
298.801
298.808
298.812
298.815
298.817
298.818
298.819
298.819
298.819
298.819
298.819
298.819
298.819
298.819
298.819
298.819
298.819
298.819
298.819
298.818
298.818
298.818
298.818
298.818
298.818
298.818
298.818
298.818
298.818
298.817
298.817
298.817
298.817
298.816
298.816
298.815
298.815
298.813
298.814
298.809
298.807
284.212
285.606
286.583
287.386
288.055
288.657
289.186
289.677
290.124
290.549
290.946
291.328
291.688
292.034
292.364
292.683
292.99
293.287
293.574
293.851
294.119
294.378
294.628
294.87
295.103
295.328
295.543
295.748
295.944
296.13
296.306
296.471
296.625
296.768
296.9
297.02
297.13
297.228
297.316
297.393
297.461
297.519
297.568
297.61
297.645
297.673
297.695
297.713
297.727
297.737
297.744
297.749
297.752
297.754
297.756
297.757
297.757
297.757
297.757
297.757
297.757
297.757
297.757
297.757
297.756
297.756
297.756
297.756
297.756
297.756
297.756
297.756
297.756
297.755
297.755
297.755
297.755
297.755
297.755
297.755
297.754
297.754
297.754
297.754
297.753
297.753
297.751
297.752
297.747
297.743
283.37
284.396
285.224
285.951
286.567
287.137
287.642
288.116
288.546
288.957
289.341
289.714
290.066
290.406
290.728
291.041
291.341
291.633
291.915
292.188
292.451
292.706
292.952
293.191
293.421
293.643
293.857
294.061
294.256
294.442
294.618
294.784
294.94
295.085
295.219
295.343
295.455
295.558
295.649
295.731
295.802
295.864
295.918
295.963
296.002
296.033
296.059
296.079
296.095
296.107
296.116
296.122
296.127
296.129
296.131
296.132
296.133
296.133
296.133
296.133
296.133
296.133
296.133
296.133
296.132
296.132
296.132
296.132
296.132
296.132
296.131
296.131
296.131
296.131
296.131
296.131
296.13
296.13
296.13
296.13
296.129
296.129
296.128
296.129
296.127
296.128
296.125
296.126
296.119
296.115
283.022
283.618
284.216
284.791
285.311
285.806
286.262
286.693
287.089
287.468
287.826
288.175
288.509
288.832
289.139
289.436
289.722
290.001
290.272
290.534
290.788
291.033
291.27
291.5
291.723
291.938
292.146
292.345
292.535
292.717
292.89
293.055
293.21
293.355
293.49
293.615
293.729
293.834
293.929
294.014
294.09
294.156
294.213
294.262
294.304
294.339
294.368
294.392
294.41
294.425
294.436
294.443
294.449
294.453
294.455
294.456
294.457
294.458
294.458
294.458
294.458
294.458
294.457
294.457
294.457
294.457
294.457
294.457
294.456
294.456
294.456
294.456
294.456
294.456
294.455
294.455
294.455
294.455
294.455
294.454
294.454
294.454
294.453
294.453
294.452
294.453
294.45
294.452
294.446
294.441
282.845
283.167
283.537
283.955
284.35
284.757
285.14
285.516
285.863
286.199
286.519
286.835
287.14
287.439
287.722
287.997
288.262
288.522
288.775
289.021
289.259
289.489
289.711
289.927
290.137
290.341
290.537
290.726
290.907
291.081
291.247
291.405
291.555
291.696
291.828
291.95
292.063
292.168
292.263
292.349
292.425
292.493
292.552
292.603
292.647
292.685
292.716
292.742
292.762
292.778
292.791
292.8
292.806
292.811
292.814
292.815
292.817
292.817
292.817
292.817
292.817
292.817
292.817
292.817
292.817
292.817
292.816
292.816
292.816
292.816
292.816
292.815
292.815
292.815
292.815
292.815
292.814
292.814
292.814
292.814
292.813
292.813
292.812
292.812
292.811
292.811
292.809
292.81
292.806
292.801
282.828
283.006
283.213
283.489
283.765
284.07
284.374
284.678
284.966
285.247
285.52
285.792
286.06
286.323
286.575
286.82
287.056
287.289
287.516
287.739
287.954
288.162
288.364
288.56
288.752
288.938
289.117
289.29
289.456
289.616
289.769
289.916
290.055
290.187
290.31
290.426
290.533
290.632
290.723
290.805
290.879
290.945
291.003
291.054
291.098
291.135
291.166
291.193
291.214
291.23
291.243
291.253
291.26
291.265
291.268
291.27
291.271
291.272
291.272
291.272
291.272
291.272
291.272
291.272
291.272
291.271
291.271
291.271
291.271
291.271
291.27
291.27
291.27
291.27
291.27
291.27
291.269
291.269
291.269
291.269
291.269
291.269
291.268
291.268
291.267
291.267
291.266
291.266
291.265
291.263
282.832
282.948
283.057
283.228
283.406
283.625
283.852
284.087
284.315
284.54
284.762
284.988
285.213
285.435
285.65
285.859
286.062
286.262
286.459
286.653
286.84
287.021
287.197
287.368
287.535
287.698
287.856
288.008
288.154
288.295
288.43
288.56
288.684
288.801
288.912
289.015
289.111
289.201
289.283
289.358
289.426
289.486
289.54
289.586
289.627
289.661
289.691
289.716
289.736
289.752
289.764
289.773
289.78
289.785
289.788
289.79
289.791
289.792
289.792
289.792
289.792
289.792
289.792
289.792
289.791
289.791
289.791
289.791
289.791
289.791
289.79
289.79
289.79
289.79
289.79
289.79
289.789
289.789
289.789
289.789
289.789
289.788
289.788
289.788
289.787
289.787
289.787
289.786
289.786
289.786
282.838
282.925
282.982
283.084
283.193
283.345
283.506
283.682
283.851
284.025
284.197
284.378
284.557
284.737
284.911
285.081
285.246
285.411
285.573
285.733
285.887
286.037
286.182
286.324
286.463
286.598
286.729
286.856
286.977
287.095
287.208
287.317
287.42
287.519
287.611
287.698
287.78
287.855
287.925
287.989
288.046
288.098
288.143
288.183
288.218
288.248
288.273
288.294
288.312
288.325
288.336
288.344
288.35
288.354
288.357
288.358
288.359
288.36
288.36
288.36
288.36
288.36
288.36
288.36
288.359
288.359
288.359
288.359
288.359
288.359
288.358
288.358
288.358
288.358
288.358
288.358
288.357
288.357
288.357
288.357
288.356
288.356
288.356
288.356
288.355
288.354
288.353
288.352
288.353
288.354
282.915
282.973
283.003
283.057
283.122
283.219
283.327
283.446
283.564
283.687
283.811
283.943
284.076
284.21
284.339
284.466
284.591
284.716
284.839
284.96
285.077
285.191
285.301
285.409
285.516
285.619
285.719
285.816
285.909
285.999
286.085
286.169
286.248
286.324
286.395
286.462
286.525
286.583
286.637
286.686
286.73
286.77
286.805
286.836
286.862
286.886
286.905
286.922
286.935
286.946
286.954
286.96
286.964
286.967
286.969
286.97
286.971
286.971
286.972
286.972
286.972
286.971
286.971
286.971
286.971
286.971
286.971
286.97
286.97
286.97
286.97
286.97
286.97
286.97
286.969
286.969
286.969
286.969
286.969
286.968
286.968
286.968
286.968
286.968
286.967
286.967
286.966
286.965
286.967
286.969
282.921
282.969
282.98
283.017
283.052
283.116
283.18
283.257
283.329
283.409
283.489
283.577
283.663
283.752
283.836
283.92
284.002
284.086
284.167
284.248
284.325
284.401
284.474
284.547
284.617
284.686
284.753
284.817
284.879
284.939
284.997
285.052
285.105
285.156
285.203
285.247
285.289
285.328
285.364
285.396
285.426
285.452
285.475
285.495
285.513
285.528
285.541
285.552
285.561
285.568
285.573
285.577
285.579
285.581
285.583
285.583
285.584
285.584
285.584
285.584
285.584
285.584
285.584
285.583
285.583
285.583
285.583
285.583
285.583
285.582
285.582
285.582
285.582
285.582
285.582
285.582
285.581
285.581
285.581
285.581
285.58
285.58
285.58
285.58
285.579
285.579
285.578
285.576
285.579
285.58
283.042
283.061
283.065
283.081
283.098
283.128
283.159
283.195
283.23
283.27
283.31
283.354
283.397
283.441
283.484
283.526
283.568
283.61
283.652
283.692
283.732
283.77
283.807
283.844
283.88
283.915
283.949
283.982
284.013
284.044
284.073
284.102
284.128
284.154
284.178
284.201
284.222
284.241
284.26
284.276
284.291
284.304
284.316
284.326
284.335
284.342
284.349
284.354
284.358
284.362
284.364
284.366
284.367
284.368
284.369
284.369
284.369
284.369
284.369
284.369
284.369
284.369
284.369
284.369
284.369
284.369
284.369
284.368
284.368
284.368
284.368
284.368
284.368
284.368
284.368
284.368
284.367
284.367
284.367
284.367
284.367
284.367
284.366
284.366
284.366
284.366
284.366
284.365
284.366
284.367
283.071
283.081
283.08
283.088
283.093
283.103
283.112
283.124
283.134
283.147
283.158
283.172
283.184
283.198
283.21
283.223
283.235
283.248
283.26
283.273
283.284
283.295
283.307
283.317
283.328
283.338
283.348
283.358
283.367
283.376
283.385
283.393
283.401
283.409
283.416
283.422
283.429
283.434
283.44
283.445
283.449
283.453
283.456
283.459
283.462
283.464
283.466
283.467
283.468
283.469
283.47
283.471
283.471
283.471
283.471
283.471
283.471
283.471
283.471
283.471
283.471
283.471
283.471
283.471
283.471
283.471
283.471
283.471
283.471
283.471
283.471
283.471
283.471
283.471
283.471
283.471
283.471
283.471
283.47
283.47
283.47
283.47
283.47
283.47
283.47
283.47
283.469
283.469
283.469
283.469
285.703
287.393
288.474
289.3
290.005
290.609
291.156
291.647
292.106
292.531
292.937
293.319
293.685
294.032
294.367
294.687
294.998
295.298
295.587
295.867
296.137
296.398
296.651
296.895
297.13
297.356
297.572
297.779
297.975
298.162
298.338
298.502
298.656
298.797
298.928
299.046
299.154
299.25
299.336
299.41
299.475
299.531
299.578
299.618
299.65
299.677
299.697
299.714
299.726
299.735
299.741
299.745
299.748
299.75
299.751
299.752
299.752
299.752
299.752
299.752
299.752
299.752
299.752
299.752
299.752
299.752
299.752
299.752
299.751
299.751
299.751
299.751
299.751
299.751
299.751
299.751
299.751
299.751
299.752
299.752
299.752
299.752
299.752
299.752
299.753
299.753
299.754
299.754
299.759
299.759
284.345
285.756
286.768
287.57
288.255
288.853
289.393
289.881
290.334
290.757
291.159
291.54
291.904
292.25
292.583
292.902
293.211
293.51
293.799
294.077
294.347
294.607
294.859
295.103
295.338
295.564
295.781
295.988
296.186
296.374
296.551
296.718
296.874
297.018
297.151
297.273
297.384
297.483
297.572
297.65
297.719
297.778
297.828
297.87
297.905
297.934
297.957
297.975
297.989
297.999
298.006
298.011
298.015
298.017
298.018
298.019
298.02
298.02
298.02
298.02
298.02
298.02
298.019
298.019
298.019
298.019
298.019
298.019
298.019
298.019
298.019
298.019
298.019
298.019
298.018
298.018
298.018
298.018
298.018
298.018
298.018
298.018
298.019
298.019
298.019
298.019
298.019
298.019
298.023
298.023
283.62
284.544
285.372
286.066
286.691
287.243
287.756
288.22
288.655
289.06
289.448
289.817
290.172
290.511
290.836
291.148
291.45
291.742
292.026
292.301
292.566
292.822
293.07
293.311
293.543
293.767
293.982
294.189
294.386
294.574
294.752
294.921
295.079
295.226
295.363
295.488
295.603
295.708
295.801
295.884
295.958
296.021
296.076
296.123
296.162
296.195
296.221
296.243
296.259
296.272
296.281
296.287
296.292
296.295
296.297
296.298
296.299
296.299
296.299
296.299
296.299
296.299
296.299
296.298
296.298
296.298
296.298
296.298
296.298
296.298
296.298
296.298
296.297
296.297
296.297
296.297
296.297
296.297
296.297
296.297
296.297
296.297
296.298
296.298
296.298
296.298
296.299
296.299
296.302
296.302
283.231
283.719
284.28
284.813
285.324
285.801
286.256
286.679
287.078
287.453
287.813
288.161
288.497
288.82
289.131
289.429
289.717
289.998
290.271
290.536
290.792
291.039
291.279
291.511
291.737
291.955
292.165
292.366
292.559
292.744
292.92
293.088
293.245
293.393
293.531
293.659
293.776
293.884
293.981
294.068
294.146
294.214
294.273
294.324
294.368
294.404
294.434
294.459
294.478
294.494
294.505
294.513
294.519
294.523
294.526
294.527
294.528
294.529
294.529
294.529
294.529
294.529
294.529
294.528
294.528
294.528
294.528
294.528
294.528
294.527
294.527
294.527
294.527
294.527
294.527
294.527
294.527
294.527
294.527
294.527
294.527
294.526
294.527
294.526
294.527
294.527
294.527
294.527
294.529
294.528
283.149
283.35
283.679
284.024
284.398
284.768
285.143
285.5
285.846
286.172
286.492
286.803
287.11
287.405
287.692
287.966
288.233
288.493
288.748
288.995
289.236
289.467
289.692
289.911
290.123
290.329
290.528
290.72
290.904
291.08
291.249
291.41
291.563
291.707
291.842
291.967
292.083
292.19
292.288
292.377
292.456
292.526
292.588
292.641
292.687
292.726
292.759
292.786
292.807
292.824
292.838
292.847
292.854
292.859
292.862
292.864
292.866
292.866
292.866
292.867
292.866
292.866
292.866
292.866
292.866
292.866
292.866
292.865
292.865
292.865
292.865
292.865
292.865
292.865
292.865
292.864
292.864
292.864
292.864
292.864
292.864
292.864
292.864
292.864
292.865
292.865
292.866
292.866
292.867
292.867
283.101
283.167
283.339
283.533
283.781
284.047
284.334
284.621
284.904
285.177
285.446
285.715
285.982
286.244
286.498
286.742
286.981
287.214
287.444
287.668
287.886
288.097
288.301
288.5
288.694
288.882
289.065
289.241
289.41
289.573
289.729
289.878
290.021
290.156
290.282
290.401
290.511
290.613
290.707
290.792
290.869
290.938
290.998
291.051
291.096
291.136
291.169
291.196
291.219
291.237
291.251
291.261
291.269
291.274
291.277
291.28
291.281
291.282
291.282
291.282
291.282
291.282
291.282
291.282
291.282
291.281
291.281
291.281
291.281
291.281
291.281
291.28
291.28
291.28
291.28
291.28
291.28
291.28
291.28
291.28
291.28
291.279
291.279
291.279
291.279
291.279
291.28
291.28
291.28
291.28
283.106
283.12
283.205
283.3
283.451
283.627
283.835
284.051
284.269
284.483
284.7
284.92
285.143
285.363
285.578
285.786
285.99
286.191
286.389
286.584
286.773
286.956
287.134
287.307
287.477
287.642
287.802
287.957
288.106
288.249
288.387
288.52
288.647
288.767
288.88
288.986
289.085
289.177
289.262
289.34
289.41
289.473
289.529
289.578
289.62
289.657
289.688
289.714
289.735
289.752
289.766
289.776
289.783
289.788
289.791
289.794
289.795
289.796
289.796
289.796
289.796
289.796
289.796
289.796
289.796
289.795
289.795
289.795
289.795
289.795
289.795
289.794
289.794
289.794
289.794
289.794
289.794
289.794
289.794
289.793
289.793
289.793
289.793
289.793
289.793
289.793
289.794
289.793
289.794
289.794
283.148
283.146
283.186
283.226
283.315
283.424
283.568
283.719
283.878
284.036
284.202
284.371
284.548
284.723
284.895
285.062
285.228
285.391
285.554
285.713
285.869
286.02
286.166
286.31
286.45
286.587
286.72
286.849
286.973
287.092
287.207
287.318
287.424
287.525
287.62
287.71
287.793
287.871
287.943
288.009
288.069
288.123
288.17
288.212
288.248
288.28
288.306
288.329
288.347
288.362
288.374
288.382
288.388
288.393
288.396
288.398
288.399
288.399
288.4
288.4
288.4
288.4
288.399
288.399
288.399
288.399
288.399
288.399
288.399
288.398
288.398
288.398
288.398
288.398
288.398
288.398
288.398
288.397
288.398
288.397
288.398
288.397
288.398
288.397
288.398
288.398
288.399
288.398
288.4
288.402
283.149
283.151
283.168
283.187
283.237
283.308
283.404
283.506
283.616
283.728
283.849
283.974
284.106
284.237
284.367
284.493
284.619
284.744
284.869
284.991
285.111
285.227
285.34
285.45
285.559
285.665
285.768
285.867
285.963
286.056
286.145
286.232
286.314
286.392
286.466
286.536
286.601
286.662
286.718
286.769
286.816
286.857
286.894
286.927
286.955
286.98
287.001
287.018
287.032
287.044
287.053
287.059
287.064
287.067
287.069
287.071
287.071
287.072
287.072
287.072
287.072
287.072
287.072
287.072
287.071
287.071
287.071
287.071
287.071
287.071
287.071
287.07
287.07
287.07
287.07
287.07
287.07
287.07
287.07
287.07
287.07
287.069
287.07
287.069
287.07
287.069
287.07
287.07
287.07
287.072
283.244
283.23
283.24
283.238
283.268
283.305
283.366
283.426
283.496
283.566
283.647
283.729
283.818
283.905
283.993
284.078
284.164
284.25
284.336
284.419
284.501
284.581
284.659
284.735
284.81
284.883
284.954
285.023
285.089
285.153
285.215
285.275
285.332
285.386
285.437
285.485
285.53
285.572
285.611
285.646
285.678
285.707
285.732
285.755
285.774
285.791
285.805
285.817
285.826
285.834
285.84
285.844
285.847
285.849
285.851
285.851
285.852
285.852
285.852
285.852
285.852
285.852
285.852
285.852
285.851
285.851
285.851
285.851
285.851
285.851
285.851
285.85
285.85
285.85
285.85
285.85
285.85
285.85
285.85
285.85
285.85
285.85
285.85
285.85
285.851
285.85
285.852
285.851
285.852
285.854
283.215
283.207
283.211
283.21
283.226
283.247
283.279
283.311
283.35
283.389
283.434
283.481
283.531
283.579
283.629
283.677
283.726
283.774
283.823
283.871
283.917
283.962
284.007
284.05
284.093
284.135
284.175
284.214
284.251
284.288
284.323
284.357
284.389
284.42
284.449
284.476
284.502
284.525
284.547
284.567
284.585
284.601
284.615
284.628
284.639
284.648
284.656
284.662
284.667
284.671
284.675
284.677
284.678
284.679
284.68
284.68
284.681
284.681
284.681
284.681
284.68
284.68
284.68
284.68
284.68
284.68
284.68
284.68
284.679
284.679
284.679
284.679
284.679
284.679
284.679
284.679
284.679
284.679
284.679
284.678
284.678
284.678
284.678
284.678
284.679
284.678
284.679
284.678
284.678
284.679
283.269
283.257
283.26
283.253
283.26
283.262
283.272
283.279
283.292
283.302
283.316
283.33
283.345
283.36
283.375
283.389
283.405
283.42
283.435
283.45
283.464
283.478
283.492
283.505
283.519
283.532
283.545
283.557
283.568
283.58
283.591
283.602
283.612
283.621
283.63
283.639
283.647
283.654
283.661
283.667
283.673
283.678
283.682
283.686
283.689
283.692
283.694
283.696
283.698
283.699
283.7
283.701
283.701
283.701
283.702
283.702
283.702
283.702
283.702
283.702
283.702
283.702
283.701
283.701
283.701
283.701
283.701
283.701
283.701
283.701
283.701
283.701
283.701
283.701
283.701
283.701
283.701
283.701
283.701
283.701
283.701
283.701
283.701
283.701
283.701
283.701
283.702
283.701
283.702
283.702
286.268
288.506
289.772
290.691
291.446
292.088
292.658
293.17
293.644
294.085
294.501
294.893
295.267
295.621
295.963
296.29
296.607
296.911
297.207
297.49
297.765
298.03
298.287
298.535
298.774
299.002
299.221
299.43
299.629
299.816
299.994
300.158
300.312
300.453
300.584
300.701
300.808
300.902
300.986
301.059
301.122
301.176
301.221
301.259
301.29
301.314
301.334
301.348
301.359
301.367
301.373
301.376
301.379
301.38
301.381
301.382
301.382
301.382
301.382
301.382
301.382
301.382
301.382
301.382
301.382
301.381
301.381
301.381
301.381
301.381
301.381
301.381
301.381
301.381
301.381
301.381
301.381
301.381
301.381
301.381
301.381
301.381
301.381
301.381
301.382
301.382
301.383
301.382
301.388
301.39
284.053
285.657
286.829
287.724
288.469
289.108
289.677
290.19
290.662
291.103
291.519
291.912
292.286
292.643
292.984
293.312
293.629
293.935
294.23
294.516
294.791
295.057
295.315