/*--------------------------------*- C++ -*----------------------------------*\
  =========                 |
  \\      /  F ield         | OpenFOAM: The Open Source CFD Toolbox
   \\    /   O peration     | Website:  https://openfoam.org
    \\  /    A nd           | Version:  7
     \\/     M anipulation  |
\*---------------------------------------------------------------------------*/
FoamFile
{
    version     2.0;
    format      ascii;
    class       surfaceScalarField;
    location    "0.5925";
    object      phi_0;
}
// * * * * * * * * * * * * * * * * * * * * * * * * * * * * * * * * * * * * * //

dimensions      [1 0 -1 0 0 0 0];

internalField   nonuniform List<scalar> 
36620
(
0.000462071
0.000903216
7.94227e-06
0.000258423
0.000201558
4.28588e-06
0.000184432
6.9364e-05
6.84022e-06
0.000160587
2.15147e-05
4.51033e-06
0.000147184
9.10821e-06
6.44826e-06
0.000138873
5.82183e-06
4.62404e-06
0.000132495
2.33052e-06
6.1657e-06
0.000127516
2.37234e-06
4.71026e-06
0.00012332
3.58722e-07
5.93323e-06
0.000119839
8.13066e-07
4.76624e-06
0.000116797
-5.81286e-07
5.73266e-06
0.000114182
-5.89151e-08
4.79564e-06
0.000111824
-1.06236e-06
5.55474e-06
0.000109713
-5.45522e-07
4.80263e-06
0.000107769
-1.29018e-06
5.39251e-06
0.000106046
-9.01081e-07
4.78992e-06
0.000104306
-1.32863e-06
5.24122e-06
0.000103055
-1.33421e-06
4.76133e-06
9.14625e-05
8.63629e-06
5.12782e-06
1.14069e-06
4.65073e-06
8.78529e-05
0.000995362
0.00127897
1.9292e-06
0.000739404
0.000461297
-1.43652e-06
0.000588802
0.000221202
1.19158e-06
0.000524214
8.95335e-05
-1.10512e-06
0.000486048
4.86369e-05
8.61856e-07
0.000462399
3.2583e-05
-9.58237e-07
0.000443169
2.30656e-05
5.93657e-07
0.000429235
1.92098e-05
-8.65872e-07
0.000416387
1.48477e-05
3.61537e-07
0.000406792
1.32139e-05
-8.10722e-07
0.00039741
1.06685e-05
1.58341e-07
0.000390317
9.87968e-06
-7.82886e-07
0.000383086
8.2992e-06
-2.12736e-08
0.000377511
7.95463e-06
-7.76434e-07
0.000371809
6.78562e-06
-1.85052e-07
0.000367506
6.41026e-06
-7.88474e-07
0.000363943
4.82176e-06
-3.4236e-07
0.000361013
4.6689e-06
-8.1202e-07
0.000375878
-3.44738e-06
-5.37754e-07
-1.67076e-05
-9.56675e-07
0.000396964
0.00138339
0.00126276
5.93659e-06
0.00127458
0.000569767
2.7694e-06
0.00114616
0.000347005
5.25417e-06
0.00106214
0.000173118
2.92595e-06
0.00100316
0.000105
4.86491e-06
0.000962933
7.1867e-05
3.03178e-06
0.000930739
5.26654e-05
4.57573e-06
0.000906635
4.2055e-05
3.11478e-06
0.000885132
3.37414e-05
4.34139e-06
0.000868476
2.83577e-05
3.17057e-06
0.000852796
2.38765e-05
4.13954e-06
0.000840486
2.07231e-05
3.19891e-06
0.000828443
1.8212e-05
3.95992e-06
0.000818901
1.62103e-05
3.20522e-06
0.000809554
1.43462e-05
3.79696e-06
0.000802601
1.2263e-05
3.19191e-06
0.000795254
1.06889e-05
3.64773e-06
0.000791709
7.29117e-06
3.16103e-06
0.000777762
9.16772e-06
3.56846e-06
-2.23555e-06
3.07548e-06
0.00076251
0.00153558
0.00109799
2.17319e-06
0.00155798
0.00055067
-8.67689e-07
0.00151932
0.000386826
1.59089e-06
0.00147711
0.000218679
-7.02594e-07
0.00143681
0.00014632
1.26569e-06
0.00140431
0.00010695
-5.52134e-07
0.00137517
8.2721e-05
1.00262e-06
0.00135146
6.80117e-05
-4.55637e-07
0.00132935
5.66742e-05
7.74147e-07
0.00131104
4.84523e-05
-3.96841e-07
0.00129365
4.19648e-05
5.73304e-07
0.00127926
3.67694e-05
-3.67912e-07
0.00126559
3.28966e-05
3.93924e-07
0.00125414
2.95627e-05
-3.61121e-07
0.00124378
2.61599e-05
2.30506e-07
0.0012345
2.37244e-05
-3.73423e-07
0.00122933
1.77318e-05
7.11578e-08
0.00122056
1.85656e-05
-4.01249e-07
0.00122972
2.3401e-06
-1.41551e-07
-2.02937e-06
-5.29185e-07
0.00123236
0.00157417
0.000891762
5.10722e-06
0.0016597
0.000465296
2.28076e-06
0.00168606
0.000358625
4.65035e-06
0.00168835
0.000216779
2.3511e-06
0.0016785
0.000154244
4.29353e-06
0.00166681
0.000118189
2.46407e-06
0.00165252
9.48927e-05
4.0101e-06
0.00163969
8.01238e-05
2.54974e-06
0.00162599
6.82845e-05
3.77771e-06
0.00161386
5.93685e-05
2.60776e-06
0.00160131
5.20644e-05
3.57693e-06
0.0015904
4.60472e-05
2.63607e-06
0.00157958
4.13927e-05
3.39659e-06
0.00157036
3.73775e-05
2.64233e-06
0.00156142
3.32796e-05
3.23473e-06
0.00155405
3.00223e-05
2.63035e-06
0.00154649
2.38904e-05
3.08685e-06
0.00154121
2.31374e-05
2.59812e-06
0.00153242
1.01954e-05
3.00889e-06
1.46016e-05
2.51914e-06
0.00151561
0.00156555
0.000696548
2.63103e-06
0.00166584
0.000367609
-1.68836e-07
0.00172571
0.000299431
2.15154e-06
0.00175768
0.000187752
-1.47684e-07
0.00177338
0.000139153
1.80054e-06
0.00178317
0.000110435
-2.45198e-08
0.00178684
9.15521e-05
1.52594e-06
0.00178921
7.95589e-05
6.60466e-08
0.0017884
6.95959e-05
1.29556e-06
0.00178713
6.20317e-05
1.25309e-07
0.00178375
5.55056e-05
1.09479e-06
0.00178044
5.00841e-05
1.52991e-07
0.00177623
4.55503e-05
9.13146e-07
0.00177258
4.19007e-05
1.58277e-07
0.00176885
3.74812e-05
7.5017e-07
0.00176508
3.50406e-05
1.46945e-07
0.00176275
2.71123e-05
5.92359e-07
0.00175868
2.87631e-05
1.14549e-07
0.00176059
9.75301e-06
3.83991e-07
1.59734e-05
6.25678e-09
0.00176146
0.00155496
0.000510114
4.48593e-06
0.00165413
0.000269033
1.84271e-06
0.0017253
0.000226982
4.11891e-06
0.00176992
0.000144113
1.83371e-06
0.00179887
0.000108847
3.77244e-06
0.00182144
8.79243e-05
1.94515e-06
0.00183714
7.41945e-05
3.49309e-06
0.00185092
6.56233e-05
2.03393e-06
0.00186079
5.83229e-05
3.26409e-06
0.00186952
5.2841e-05
2.09583e-06
0.00187527
4.79039e-05
3.0658e-06
0.00188027
4.38172e-05
2.12471e-06
0.00188346
4.02221e-05
2.88417e-06
0.00188672
3.73996e-05
2.12974e-06
0.00188875
3.38343e-05
2.72264e-06
0.00189122
3.17582e-05
2.1196e-06
0.00189139
2.5743e-05
2.57609e-06
0.00189315
2.64227e-05
2.08684e-06
0.00188923
1.28363e-05
2.48103e-06
2.15031e-05
2.00788e-06
0.00188377
0.00154451
0.000335508
3.06841e-06
0.00163861
0.00017695
4.28325e-07
0.00171341
0.000152358
2.67191e-06
0.00176263
9.7324e-05
3.77145e-07
0.00179721
7.43609e-05
2.31286e-06
0.00182595
6.06934e-05
4.83985e-07
0.0018481
5.1827e-05
2.03196e-06
0.00186858
4.64497e-05
5.70982e-07
0.00188517
4.18302e-05
1.80057e-06
0.00190062
3.84455e-05
6.30838e-07
0.0019129
3.5292e-05
1.60016e-06
0.0019242
3.27199e-05
6.57746e-07
0.00193337
3.03129e-05
1.41635e-06
0.00194234
2.85772e-05
6.60853e-07
0.00194998
2.59823e-05
1.25272e-06
0.00195737
2.49977e-05
6.50156e-07
0.00196338
1.99613e-05
1.09803e-06
0.00196899
2.16185e-05
6.16273e-07
0.00197276
9.64282e-06
9.10099e-07
1.62674e-05
5.21329e-07
0.00197938
0.00153865
0.0001659
3.96105e-06
0.00162933
8.73113e-05
1.4007e-06
0.00170478
7.61306e-05
3.62494e-06
0.00175498
4.85907e-05
1.34309e-06
0.00179128
3.71813e-05
3.27708e-06
0.00182209
3.04106e-05
1.4495e-06
0.00184667
2.60611e-05
2.99792e-06
0.00186998
2.34746e-05
1.53853e-06
0.0018897
2.12452e-05
2.76942e-06
0.00190861
1.96466e-05
1.60139e-06
0.00192448
1.81306e-05
2.57171e-06
0.00193951
1.69125e-05
1.63025e-06
0.00195234
1.57521e-05
2.38917e-06
0.00196511
1.49396e-05
1.63421e-06
0.00197619
1.36938e-05
2.22716e-06
0.00198759
1.32382e-05
1.62473e-06
0.00199592
1.08702e-05
2.07982e-06
0.00200555
1.17854e-05
1.5915e-06
0.00200844
6.18721e-06
1.95636e-06
1.09602e-05
1.50928e-06
0.00201402
0.00153538
2.62526e-10
3.50225e-06
0.0016242
9.44104e-10
9.42065e-07
0.00170003
3.21787e-10
3.1554e-06
0.00175055
-1.7839e-10
8.67994e-07
0.00178732
-1.3544e-09
2.79954e-06
0.00181874
-6.78051e-10
9.70423e-07
0.00184409
-1.31092e-09
2.51822e-06
0.00186838
1.66026e-09
1.05771e-06
0.00188925
1.60498e-09
2.28796e-06
0.00190948
6.40334e-09
1.11902e-06
0.0019268
9.60941e-09
2.08877e-06
0.0019434
1.81598e-08
1.14665e-06
0.00195785
3.21305e-08
1.90506e-06
0.00197233
6.52203e-08
1.14969e-06
0.00198521
7.62363e-08
1.74193e-06
0.00199833
2.42679e-07
1.1399e-06
0.00200879
1.43604e-07
1.59118e-06
0.00202007
7.6958e-07
1.10669e-06
0.00202575
4.37324e-07
1.43417e-06
1.71779e-06
1.02029e-06
0.00203569
0.00153538
-0.000165899
3.50225e-06
0.0016242
-8.73093e-05
9.42065e-07
0.00170003
-7.61299e-05
3.1554e-06
0.00175055
-4.85911e-05
8.67994e-07
0.00178732
-3.71841e-05
2.79955e-06
0.00181874
-3.0412e-05
9.70422e-07
0.00184409
-2.60637e-05
2.51822e-06
0.00186838
-2.34714e-05
1.05771e-06
0.00188925
-2.12419e-05
2.28796e-06
0.00190948
-1.96344e-05
1.11901e-06
0.0019268
-1.81113e-05
2.08877e-06
0.0019434
-1.68783e-05
1.14659e-06
0.00195785
-1.56876e-05
1.90504e-06
0.00197234
-1.48155e-05
1.14948e-06
0.00198522
-1.35416e-05
1.74188e-06
0.00199836
-1.27658e-05
1.13922e-06
0.00200882
-1.05899e-05
1.59104e-06
0.00202012
-1.02576e-05
1.10471e-06
0.00202581
-5.32725e-06
1.43388e-06
-7.48708e-06
1.01643e-06
0.00203571
0.00153865
-0.000335507
3.96105e-06
0.00162933
-0.000176948
1.4007e-06
0.00170478
-0.000152357
3.62494e-06
0.00175498
-9.73243e-05
1.34309e-06
0.00179128
-7.43637e-05
3.27708e-06
0.00182209
-6.06948e-05
1.4495e-06
0.00184667
-5.18297e-05
2.99791e-06
0.00186998
-4.64465e-05
1.53854e-06
0.0018897
-4.18272e-05
2.76942e-06
0.00190861
-3.84328e-05
1.60141e-06
0.00192448
-3.52736e-05
2.57171e-06
0.00193951
-3.26842e-05
1.63031e-06
0.00195234
-3.02507e-05
2.38918e-06
0.00196511
-2.84503e-05
1.63441e-06
0.00197619
-2.58352e-05
2.22719e-06
0.00198759
-2.45252e-05
1.6254e-06
0.00199594
-1.96928e-05
2.07993e-06
0.00200558
-2.01105e-05
1.59341e-06
0.00200853
-8.84528e-06
1.9567e-06
-1.29322e-05
1.51273e-06
0.00201425
0.00154451
-0.000510114
3.06841e-06
0.00163861
-0.000269031
4.28324e-07
0.00171341
-0.000226982
2.67191e-06
0.00176263
-0.000144113
3.77145e-07
0.00179721
-0.00010885
2.31286e-06
0.00182595
-8.79258e-05
4.83984e-07
0.0018481
-7.41972e-05
2.03196e-06
0.00186858
-6.56203e-05
5.70975e-07
0.00188517
-5.832e-05
1.80057e-06
0.00190062
-5.28293e-05
6.30822e-07
0.0019129
-4.78863e-05
1.60017e-06
0.0019242
-4.37845e-05
6.57692e-07
0.00193338
-4.01624e-05
1.41635e-06
0.00194236
-3.72827e-05
6.60669e-07
0.00195001
-3.36946e-05
1.25268e-06
0.00195742
-3.13132e-05
6.49581e-07
0.00196347
-2.55013e-05
1.09794e-06
0.00196913
-2.49679e-05
6.14546e-07
0.00197298
-1.21252e-05
9.10172e-07
-1.82467e-05
5.17669e-07
0.00197968
0.00155496
-0.000696547
4.48593e-06
0.00165413
-0.000367607
1.84271e-06
0.0017253
-0.00029943
4.11891e-06
0.00176992
-0.000187753
1.83371e-06
0.00179887
-0.000139156
3.77244e-06
0.00182144
-0.000110437
1.94515e-06
0.00183714
-9.15545e-05
3.49308e-06
0.00185092
-7.95561e-05
2.03393e-06
0.00186079
-6.95932e-05
3.26408e-06
0.00186952
-6.20207e-05
2.09584e-06
0.00187527
-5.54895e-05
3.06581e-06
0.00188028
-5.00524e-05
2.12476e-06
0.00188347
-4.54958e-05
2.88417e-06
0.00188673
-4.17883e-05
2.12992e-06
0.00188878
-3.7356e-05
2.72265e-06
0.00189127
-3.46175e-05
2.12021e-06
0.00189148
-2.69108e-05
2.57614e-06
0.00189332
-2.73865e-05
2.08843e-06
0.00188956
-9.20157e-06
2.48105e-06
-1.30394e-05
2.01081e-06
0.00188441
0.00156555
-0.000891762
2.63103e-06
0.00166584
-0.000465295
-1.68837e-07
0.00172571
-0.000358624
2.15154e-06
0.00175768
-0.00021678
-1.47685e-07
0.00177338
-0.000154246
1.80054e-06
0.00178316
-0.000118191
-2.45202e-08
0.00178684
-9.48947e-05
1.52594e-06
0.00178921
-8.01219e-05
6.60401e-08
0.0017884
-6.8282e-05
1.29557e-06
0.00178713
-5.93604e-05
1.253e-07
0.00178375
-5.20494e-05
1.09481e-06
0.00178046
-4.6023e-05
1.52948e-07
0.00177625
-4.13429e-05
9.13153e-07
0.00177262
-3.72872e-05
1.58123e-07
0.00176891
-3.31696e-05
7.50155e-07
0.00176519
-2.96617e-05
1.46472e-07
0.00176292
-2.37343e-05
5.92351e-07
0.00175899
-2.19101e-05
1.13121e-07
0.00176106
-9.79333e-06
3.84679e-07
-1.19602e-05
2.71909e-09
0.00176222
0.00157417
-0.00109799
5.10722e-06
0.0016597
-0.000550669
2.28075e-06
0.00168606
-0.000386825
4.65035e-06
0.00168835
-0.000218679
2.3511e-06
0.0016785
-0.000146322
4.29353e-06
0.00166681
-0.000106951
2.46407e-06
0.00165252
-8.27225e-05
4.0101e-06
0.00163969
-6.80106e-05
2.54974e-06
0.00162599
-5.66723e-05
3.77771e-06
0.00161386
-4.84471e-05
2.60778e-06
0.00160131
-4.1952e-05
3.57694e-06
0.00159041
-3.67523e-05
2.63611e-06
0.0015796
-3.28538e-05
3.3966e-06
0.00157041
-2.94949e-05
2.64247e-06
0.00156148
-2.60675e-05
3.23473e-06
0.00155418
-2.3439e-05
2.63085e-06
0.00154668
-1.76239e-05
3.08689e-06
0.00154161
-1.75571e-05
2.59931e-06
0.00153307
-2.17157e-06
3.00888e-06
4.01566e-06
2.52121e-06
0.00151688
0.00153558
-0.00126276
2.17319e-06
0.00155798
-0.000569765
-8.67691e-07
0.00151932
-0.000347004
1.59089e-06
0.0014771
-0.000173118
-7.02592e-07
0.00143681
-0.000105001
1.26569e-06
0.00140431
-7.1868e-05
-5.52134e-07
0.00137516
-5.26665e-05
1.00262e-06
0.00135146
-4.20551e-05
-4.55642e-07
0.00132935
-3.37404e-05
7.74154e-07
0.00131104
-2.83562e-05
-3.96852e-07
0.00129366
-2.38672e-05
5.73319e-07
0.00127928
-2.07162e-05
-3.67955e-07
0.00126562
-1.8179e-05
3.93941e-07
0.00125421
-1.61776e-05
-3.61247e-07
0.00124387
-1.4273e-05
2.30521e-07
0.00123471
-1.20962e-05
-3.73793e-07
0.00122956
-1.05998e-05
7.12547e-08
0.00122112
-6.63182e-06
-4.02391e-07
0.00123037
-9.0505e-06
-1.40191e-07
3.65983e-06
-5.32255e-07
0.00123352
0.00138339
-0.00127897
5.93659e-06
0.00127458
-0.000461296
2.7694e-06
0.00114616
-0.000221201
5.25417e-06
0.00106214
-8.9533e-05
2.92596e-06
0.00100316
-4.86372e-05
4.86491e-06
0.000962931
-3.25835e-05
3.03178e-06
0.000930737
-2.30664e-05
4.57573e-06
0.000906634
-1.92104e-05
3.11478e-06
0.000885133
-1.48478e-05
4.34139e-06
0.00086848
-1.32139e-05
3.17057e-06
0.000852805
-1.0664e-05
4.13954e-06
0.000840502
-9.87692e-06
3.19893e-06
0.000828474
-8.28175e-06
3.95993e-06
0.000818953
-7.93969e-06
3.20533e-06
0.000809638
-6.74592e-06
3.79695e-06
0.000802777
-6.33454e-06
3.1923e-06
0.000795479
-4.77683e-06
3.6477e-06
0.000792257
-4.35131e-06
3.16189e-06
0.000778525
3.39348e-06
3.56834e-06
1.7268e-05
3.07658e-06
0.000764061
0.000995362
-0.000903216
1.9292e-06
0.000739405
-0.000201557
-1.43652e-06
0.000588802
-6.9363e-05
1.19158e-06
0.000524213
-2.15142e-05
-1.10512e-06
0.000486047
-9.10809e-06
8.61857e-07
0.000462398
-5.82194e-06
-9.58236e-07
0.000443168
-2.33086e-06
5.93659e-07
0.000429235
-2.37281e-06
-8.65873e-07
0.000416388
-3.59079e-07
3.61542e-07
0.000406796
-8.13449e-07
-8.10728e-07
0.000397417
5.82382e-07
1.58356e-07
0.000390329
5.92175e-08
-7.8291e-07
0.000383111
1.0674e-06
-2.12484e-08
0.00037755
5.48458e-07
-7.76502e-07
0.000371875
1.30216e-06
-1.8502e-07
0.00036763
9.19581e-07
-7.88671e-07
0.000364096
1.34556e-06
-3.4224e-07
0.000361394
1.41874e-06
-8.12704e-07
0.000376122
-8.53195e-06
-5.36523e-07
-9.1742e-07
-9.58765e-07
0.000397492
0.000462071
7.94227e-06
0.000258423
4.28588e-06
0.000184432
6.84021e-06
0.000160587
4.51033e-06
0.000147184
6.44825e-06
0.000138873
4.62404e-06
0.000132495
6.1657e-06
0.000127516
4.71026e-06
0.000123321
5.93323e-06
0.00011984
4.76624e-06
0.0001168
5.73266e-06
0.000114185
4.79566e-06
0.000111833
5.55473e-06
0.000109726
4.80272e-06
0.000107793
5.39244e-06
0.000106088
4.79022e-06
0.000104366
5.241e-06
0.000103197
4.76206e-06
9.17146e-05
5.12718e-06
4.65273e-06
8.83098e-05
0.000879346
0.000499483
1.88928e-06
0.000524644
0.000358832
2.435e-06
0.000374146
0.000158124
1.53145e-06
0.000316734
6.20316e-05
2.14143e-06
0.000289104
3.46843e-05
1.58192e-06
0.000269674
2.42514e-05
1.94674e-06
0.000256575
1.98015e-05
1.56552e-06
0.000244896
1.66742e-05
1.78708e-06
0.000236568
1.4773e-05
1.55285e-06
0.000228438
1.32934e-05
1.68137e-06
0.000222487
1.2241e-05
1.54774e-06
0.00021637
1.14335e-05
1.61261e-06
0.000211769
1.07667e-05
1.54874e-06
0.000206973
1.0214e-05
1.56851e-06
0.000203318
9.6988e-06
1.55212e-06
0.000199774
9.00902e-06
1.53856e-06
0.000197622
8.0544e-06
1.55776e-06
0.000193503
9.57825e-06
1.51828e-06
0.00023729
-3.80313e-05
1.56538e-06
-2.75168e-05
1.55189e-06
0.000270131
0.00136367
0.000505588
5.05809e-06
0.00118324
0.000534625
5.61017e-06
0.00101766
0.000322692
4.77527e-06
0.000903394
0.00017232
5.30616e-06
0.000830842
0.000105514
4.80529e-06
0.000780006
7.10943e-05
5.12054e-06
0.000744767
5.28096e-05
4.78317e-06
0.000715922
4.15179e-05
4.97444e-06
0.000694415
3.36276e-05
4.77108e-06
0.000675186
2.85942e-05
4.8757e-06
0.000660367
2.42637e-05
4.76568e-06
0.00064644
2.16666e-05
4.80767e-06
0.000635497
1.89029e-05
4.76408e-06
0.000625161
1.70702e-05
4.76147e-06
0.000617127
1.49174e-05
4.76402e-06
0.000610218
1.25871e-05
4.72807e-06
0.000604256
1.11299e-05
4.76767e-06
0.000602708
7.84918e-06
4.70189e-06
0.000571762
-1.02422e-05
4.80619e-06
1.77572e-06
4.75926e-06
0.000538971
0.00146986
0.000412096
2.31323e-06
0.00147196
0.00053476
2.98308e-06
0.00140648
0.000394202
1.9337e-06
0.00132923
0.000252365
2.68723e-06
0.00126516
0.000174677
2.00832e-06
0.00121248
0.000126328
2.51191e-06
0.00117227
9.74735e-05
2.01939e-06
0.00113801
7.82389e-05
2.35792e-06
0.00111104
6.44209e-05
2.02852e-06
0.0010869
5.50517e-05
2.2518e-06
0.00106751
4.71537e-05
2.04458e-06
0.00104964
4.20582e-05
2.17883e-06
0.00103515
3.69229e-05
2.06263e-06
0.00102164
3.34122e-05
2.12942e-06
0.00101124
2.892e-05
2.07808e-06
0.00100123
2.57065e-05
2.09423e-06
0.000997178
1.88673e-05
2.09025e-06
0.000986846
2.14852e-05
2.07256e-06
0.00100593
-2.56155e-05
2.07549e-06
-6.66456e-06
2.10545e-06
0.00101758
0.00145023
0.000332235
4.646e-06
0.00152525
0.000456077
5.26033e-06
0.00155109
0.00036829
4.44885e-06
0.00154015
0.000260257
4.97846e-06
0.00151886
0.000195016
4.46665e-06
0.00149209
0.000149774
4.78784e-06
0.00146765
0.000120376
4.44321e-06
0.00144336
9.9202e-05
4.6372e-06
0.00142258
8.30471e-05
4.42908e-06
0.00140249
7.14478e-05
4.53811e-06
0.00138553
6.13775e-05
4.42565e-06
0.00136937
5.45493e-05
4.47092e-06
0.00135586
4.77266e-05
4.42508e-06
0.00134308
4.28651e-05
4.42543e-06
0.0013325
3.69196e-05
4.42662e-06
0.00132318
3.20392e-05
4.39235e-06
0.0013148
2.48401e-05
4.42986e-06
0.00131044
2.32406e-05
4.36596e-06
0.00129061
-8.12423e-06
4.47544e-06
1.89621e-05
4.4243e-06
0.00126241
0.00144454
0.000262833
2.71741e-06
0.00153074
0.000371245
3.38037e-06
0.00158742
0.000316681
2.39714e-06
0.00161337
0.00023624
3.0735e-06
0.00162605
0.000186451
2.43959e-06
0.00162757
0.000149807
2.88514e-06
0.00162599
0.00012543
2.44522e-06
0.00161991
0.000106946
2.73298e-06
0.00161348
9.24204e-05
2.44944e-06
0.00160474
8.14222e-05
2.62975e-06
0.00159665
7.159e-05
2.45877e-06
0.00158765
6.4584e-05
2.55846e-06
0.00157994
5.74545e-05
2.46852e-06
0.0015718
5.23907e-05
2.51125e-06
0.0015653
4.55767e-05
2.48062e-06
0.00155782
4.12077e-05
2.48032e-06
0.00155439
3.0589e-05
2.48911e-06
0.00154686
3.2921e-05
2.45941e-06
0.00155095
-9.44965e-06
2.46547e-06
1.68488e-05
2.49588e-06
0.00155558
0.00142825
0.000205755
4.27902e-06
0.00150918
0.000287707
4.92375e-06
0.0015778
0.000248921
4.11438e-06
0.00162188
0.000190028
4.65211e-06
0.00165461
0.000153632
4.12951e-06
0.00167528
0.000126605
4.46338e-06
0.00169139
0.000108641
4.11256e-06
0.00170124
9.47535e-05
4.31602e-06
0.00170897
8.35914e-05
4.10275e-06
0.00171269
7.49489e-05
4.21744e-06
0.00171534
6.69181e-05
4.09885e-06
0.00171569
6.10831e-05
4.14687e-06
0.00171598
5.49217e-05
4.09625e-06
0.00171508
5.04847e-05
4.10031e-06
0.00171415
4.44383e-05
4.10025e-06
0.00171271
4.01245e-05
4.07064e-06
0.00170974
3.1557e-05
4.10703e-06
0.00170918
3.13476e-05
4.04966e-06
0.00169601
2.03872e-06
4.15272e-06
2.92735e-05
4.1066e-06
0.00168197
0.00142996
0.000149976
3.06175e-06
0.00150567
0.000212601
3.72318e-06
0.00157141
0.000187308
2.81537e-06
0.00161796
0.000144548
3.42449e-06
0.00165646
0.000118311
2.82659e-06
0.00168497
9.87461e-05
3.2284e-06
0.00171008
8.6104e-05
2.82022e-06
0.00172935
7.63657e-05
3.07693e-06
0.00174654
6.86265e-05
2.81892e-06
0.00175941
6.25887e-05
2.97459e-06
0.0017707
5.68647e-05
2.8207e-06
0.00177912
5.26854e-05
2.89999e-06
0.00178689
4.80678e-05
2.82275e-06
0.00179283
4.48906e-05
2.85176e-06
0.00179846
3.99144e-05
2.83219e-06
0.00180204
3.718e-05
2.8225e-06
0.00180606
2.8662e-05
2.83894e-06
0.00180755
3.077e-05
2.80328e-06
0.00180908
2.08261e-06
2.82292e-06
2.32405e-05
2.84753e-06
0.00181667
0.00142264
9.92456e-05
3.95417e-06
0.00149432
0.000139227
4.61427e-06
0.00156056
0.000122771
3.79593e-06
0.00160873
9.50591e-05
4.34141e-06
0.00164982
7.79505e-05
3.80468e-06
0.0016815
6.53335e-05
4.15094e-06
0.00171044
5.73009e-05
3.79131e-06
0.00173412
5.11992e-05
4.00499e-06
0.00175618
4.63782e-05
3.78516e-06
0.00177424
4.26701e-05
3.90693e-06
0.00179083
3.90883e-05
3.78163e-06
0.00180458
3.65232e-05
3.8338e-06
0.00181752
3.35791e-05
3.77808e-06
0.00182872
3.16002e-05
3.78662e-06
0.00183893
2.83804e-05
3.78395e-06
0.00184785
2.6461e-05
3.7583e-06
0.00185386
2.12914e-05
3.79092e-06
0.00186103
2.20033e-05
3.73927e-06
0.00185669
5.28481e-06
3.82626e-06
2.19828e-05
3.7925e-06
0.00185698
0.00142376
4.88555e-05
3.36572e-06
0.00149346
6.938e-05
4.03249e-06
0.0015577
6.18102e-05
3.16936e-06
0.00160498
4.80188e-05
3.744e-06
0.00164575
3.95052e-05
3.17086e-06
0.00167774
3.31717e-05
3.54705e-06
0.00170758
2.91978e-05
3.15987e-06
0.00173266
2.62064e-05
3.39734e-06
0.00175657
2.3887e-05
3.1559e-06
0.00177685
2.21207e-05
3.29614e-06
0.00179594
2.04118e-05
3.15397e-06
0.00181241
1.92154e-05
3.22056e-06
0.00182823
1.77881e-05
3.15213e-06
0.0018424
1.69194e-05
3.17227e-06
0.0018558
1.52518e-05
3.16002e-06
0.00186746
1.45855e-05
3.14365e-06
0.00187749
1.14972e-05
3.16558e-06
0.0018867
1.27187e-05
3.12463e-06
0.00188971
2.76623e-06
3.16435e-06
1.13661e-05
3.17172e-06
0.00190089
0.00142149
1.74362e-11
3.65544e-06
0.00148998
4.82694e-11
4.32181e-06
0.00155428
-7.32349e-10
3.48626e-06
0.00160177
-5.33991e-10
4.04278e-06
0.00164279
-7.59157e-10
3.48943e-06
0.00167501
9.21748e-10
3.849e-06
0.00170515
9.08841e-10
3.47742e-06
0.00173066
3.38292e-09
3.70175e-06
0.00175517
2.56634e-09
3.47253e-06
0.00177621
8.54659e-09
3.60233e-06
0.00179623
8.42764e-09
3.46943e-06
0.00181378
2.86808e-08
3.52768e-06
0.00183077
2.7659e-08
3.4663e-06
0.00184629
8.51144e-08
3.48003e-06
0.00186093
8.6829e-08
3.47338e-06
0.00187429
2.34684e-07
3.4518e-06
0.00188493
2.68956e-07
3.47947e-06
0.00189609
6.77017e-07
3.4326e-06
0.00189768
7.69424e-07
3.49709e-06
1.86371e-06
3.48132e-06
0.00190692
0.00142149
-4.88555e-05
3.65544e-06
0.00148998
-6.93799e-05
4.32181e-06
0.00155428
-6.18117e-05
3.48626e-06
0.00160177
-4.80199e-05
4.04278e-06
0.00164279
-3.95068e-05
3.48943e-06
0.00167501
-3.31698e-05
3.849e-06
0.00170515
-2.91961e-05
3.47742e-06
0.00173066
-2.61994e-05
3.70175e-06
0.00175517
-2.3882e-05
3.47252e-06
0.00177621
-2.21029e-05
3.60234e-06
0.00179623
-2.03954e-05
3.46943e-06
0.00181378
-1.9156e-05
3.52772e-06
0.00183076
-1.77343e-05
3.4663e-06
0.00184628
-1.6743e-05
3.48015e-06
0.00186093
-1.50825e-05
3.47341e-06
0.00187426
-1.40998e-05
3.45218e-06
0.00188492
-1.09681e-05
3.47958e-06
0.00189607
-1.13607e-05
3.43378e-06
0.00189771
-1.27199e-06
3.4974e-06
-7.78207e-06
3.4837e-06
0.00190708
0.00142376
-9.92456e-05
3.36572e-06
0.00149346
-0.000139226
4.03249e-06
0.0015577
-0.000122773
3.16936e-06
0.00160498
-9.50602e-05
3.744e-06
0.00164575
-7.79521e-05
3.17086e-06
0.00167774
-6.53317e-05
3.54705e-06
0.00170758
-5.72991e-05
3.15987e-06
0.00173266
-5.11925e-05
3.39733e-06
0.00175658
-4.63732e-05
3.1559e-06
0.00177685
-4.26532e-05
3.29613e-06
0.00179594
-3.90718e-05
3.15396e-06
0.00181241
-3.64667e-05
3.22052e-06
0.00182823
-3.35256e-05
3.15212e-06
0.00184241
-3.14329e-05
3.17215e-06
0.00185581
-2.82125e-05
3.16e-06
0.00186751
-2.60023e-05
3.14327e-06
0.00187754
-2.07709e-05
3.16547e-06
0.00188679
-2.0682e-05
3.12346e-06
0.00188981
-3.80131e-06
3.16394e-06
-1.8319e-05
3.16941e-06
0.00190092
0.00142264
-0.000149976
3.95417e-06
0.00149432
-0.000212601
4.61427e-06
0.00156056
-0.00018731
3.79593e-06
0.00160873
-0.00014455
4.34141e-06
0.00164982
-0.000118313
3.80468e-06
0.0016815
-9.87444e-05
4.15094e-06
0.00171044
-8.61024e-05
3.79131e-06
0.00173412
-7.63589e-05
4.005e-06
0.00175618
-6.86216e-05
3.78516e-06
0.00177424
-6.25716e-05
3.90694e-06
0.00179083
-5.6849e-05
3.78163e-06
0.00180458
-5.26285e-05
3.83383e-06
0.00181753
-4.80184e-05
3.77808e-06
0.00182872
-4.4722e-05
3.78672e-06
0.00183895
-3.97592e-05
3.78397e-06
0.00184787
-3.67195e-05
3.75861e-06
0.00185391
-2.81779e-05
3.79096e-06
0.00186111
-2.9487e-05
3.74026e-06
0.00185689
-7.21619e-07
3.82623e-06
-1.98149e-05
3.79462e-06
0.00185742
0.00142996
-0.000205754
3.06175e-06
0.00150567
-0.000287706
3.72318e-06
0.00157141
-0.000248923
2.81537e-06
0.00161796
-0.000190029
3.42449e-06
0.00165646
-0.000153634
2.82659e-06
0.00168497
-0.000126604
3.22839e-06
0.00171008
-0.000108639
2.82022e-06
0.00172936
-9.47473e-05
3.07693e-06
0.00174654
-8.35862e-05
2.81892e-06
0.00175942
-7.49334e-05
2.97459e-06
0.00177071
-6.69024e-05
2.8207e-06
0.00177913
-6.10316e-05
2.89996e-06
0.0017869
-5.48751e-05
2.82274e-06
0.00179285
-5.03318e-05
2.85165e-06
0.0017985
-4.42932e-05
2.83218e-06
0.00180212
-3.97097e-05
2.82214e-06
0.00180617
-3.10985e-05
2.83886e-06
0.00180776
-3.01595e-05
2.80229e-06
0.00180938
-7.77521e-07
2.82283e-06
-2.58865e-05
2.84527e-06
0.00181702
0.00142825
-0.000262833
4.27902e-06
0.00150918
-0.000371245
4.92375e-06
0.0015778
-0.000316682
4.11438e-06
0.00162188
-0.000236241
4.65211e-06
0.00165461
-0.000186452
4.12951e-06
0.00167528
-0.000149805
4.46338e-06
0.00169139
-0.000125428
4.11256e-06
0.00170124
-0.000106941
4.31603e-06
0.00170897
-9.24151e-05
4.10275e-06
0.00171269
-8.1408e-05
4.21745e-06
0.00171534
-7.15751e-05
4.09884e-06
0.0017157
-6.45372e-05
4.14689e-06
0.001716
-5.74138e-05
4.09623e-06
0.00171511
-5.22497e-05
4.10038e-06
0.00171419
-4.54536e-05
4.10024e-06
0.00171278
-4.08208e-05
4.07087e-06
0.0017099
-3.0213e-05
4.10701e-06
0.00170943
-3.18374e-05
4.0504e-06
0.0016965
1.04808e-05
4.15224e-06
-1.39279e-05
4.10855e-06
0.00168291
0.00144454
-0.000332235
2.71741e-06
0.00153074
-0.000456077
3.38037e-06
0.00158742
-0.000368291
2.39714e-06
0.00161337
-0.000260258
3.0735e-06
0.00162605
-0.000195017
2.43959e-06
0.00162757
-0.000149773
2.88514e-06
0.00162599
-0.000120374
2.44522e-06
0.00161991
-9.91977e-05
2.73298e-06
0.00161348
-8.30419e-05
2.44945e-06
0.00160475
-7.14373e-05
2.62975e-06
0.00159665
-6.13633e-05
2.45877e-06
0.00158767
-5.45145e-05
2.55844e-06
0.00157996
-4.76897e-05
2.46851e-06
0.00157185
-4.2757e-05
2.51116e-06
0.00156536
-3.68116e-05
2.48062e-06
0.00155798
-3.17398e-05
2.48001e-06
0.0015546
-2.45062e-05
2.48907e-06
0.00154726
-2.23678e-05
2.45861e-06
0.00155154
8.98717e-06
2.46558e-06
-1.63164e-05
2.49384e-06
0.00155642
0.00145023
-0.000412096
4.646e-06
0.00152525
-0.00053476
5.26033e-06
0.00155109
-0.000394203
4.44885e-06
0.00154015
-0.000252366
4.97846e-06
0.00151886
-0.000174677
4.46665e-06
0.00149209
-0.000126327
4.78784e-06
0.00146765
-9.74726e-05
4.44321e-06
0.00144336
-7.82363e-05
4.6372e-06
0.00142258
-6.44171e-05
4.42908e-06
0.00140249
-5.50451e-05
4.53812e-06
0.00138554
-4.71426e-05
4.42565e-06
0.00136939
-4.20349e-05
4.47094e-06
0.00135588
-3.68935e-05
4.42507e-06
0.00134314
-3.33362e-05
4.42549e-06
0.00133258
-2.8836e-05
4.42658e-06
0.00132333
-2.54865e-05
4.39255e-06
0.00131507
-1.86359e-05
4.42976e-06
0.0013109
-2.08265e-05
4.36653e-06
0.00129149
2.60881e-05
4.47472e-06
8.39614e-06
4.42567e-06
0.00126416
0.00146986
-0.000505588
2.31323e-06
0.00147196
-0.000534625
2.98308e-06
0.00140648
-0.000322693
1.9337e-06
0.00132923
-0.00017232
2.68723e-06
0.00126516
-0.000105515
2.00832e-06
0.00121248
-7.10945e-05
2.51191e-06
0.00117227
-5.28096e-05
2.01939e-06
0.00113802
-4.15174e-05
2.35791e-06
0.00111105
-3.3626e-05
2.02852e-06
0.00108691
-2.85919e-05
2.2518e-06
0.00106752
-2.42569e-05
2.04458e-06
0.00104966
-2.16558e-05
2.1788e-06
0.00103518
-1.88829e-05
2.06264e-06
0.00102171
-1.70328e-05
2.12933e-06
0.00101134
-1.48583e-05
2.0781e-06
0.00100144
-1.24825e-05
2.09403e-06
0.00099745
-1.09539e-05
2.0902e-06
0.000987429
-7.52066e-06
2.07208e-06
0.00100667
1.06052e-05
2.07578e-06
-6.23398e-07
2.10402e-06
0.00101884
0.00136367
-0.000499483
5.05809e-06
0.00118324
-0.000358832
5.61017e-06
0.00101766
-0.000158124
4.77527e-06
0.000903394
-6.20316e-05
5.30616e-06
0.000830842
-3.46846e-05
4.80528e-06
0.000780006
-2.42517e-05
5.12054e-06
0.000744768
-1.9802e-05
4.78317e-06
0.000715923
-1.66747e-05
4.97444e-06
0.000694418
-1.47731e-05
4.77107e-06
0.000675192
-1.32931e-05
4.8757e-06
0.000660378
-1.2239e-05
4.76568e-06
0.000646459
-1.14297e-05
4.80767e-06
0.000635529
-1.07599e-05
4.76409e-06
0.000625219
-1.02006e-05
4.76147e-06
0.000617221
-9.67834e-06
4.76402e-06
0.00061038
-8.97027e-06
4.72814e-06
0.000604547
-8.00679e-06
4.76751e-06
0.000603163
-9.42897e-06
4.70248e-06
0.000572867
3.77893e-05
4.80507e-06
2.75342e-05
4.76068e-06
0.000541125
0.000879346
1.88928e-06
0.000524644
2.435e-06
0.000374146
1.53145e-06
0.000316734
2.14143e-06
0.000289104
1.58192e-06
0.000269674
1.94674e-06
0.000256575
1.56552e-06
0.000244897
1.78708e-06
0.00023657
1.55285e-06
0.000228442
1.68137e-06
0.000222493
1.54774e-06
0.000216381
1.6126e-06
0.000211787
1.54875e-06
0.000207005
1.56845e-06
0.00020337
1.55217e-06
0.000199866
1.53841e-06
0.000197762
1.55784e-06
0.00019379
1.51811e-06
0.000237351
1.56519e-06
1.55167e-06
0.000270163
0.00106446
0.000310094
-1.12262e-11
0.000779096
0.000290184
-1.14475e-11
0.000579666
0.000203382
-1.20064e-11
0.00047407
0.000110013
-1.24554e-11
0.000423721
5.40642e-05
-1.23171e-11
0.000399941
2.77587e-05
-1.23461e-11
0.00038563
1.78427e-05
-1.18854e-11
0.000375429
1.39271e-05
-1.16179e-11
0.000366529
1.24098e-05
-1.13656e-11
0.000358989
1.12214e-05
-1.1823e-11
0.000352109
1.04812e-05
-1.19605e-11
0.000346145
9.67679e-06
-1.22388e-11
0.000341094
8.73283e-06
-1.18829e-11
0.000337048
7.76454e-06
-1.21681e-11
0.000334406
6.34855e-06
-1.20607e-11
0.000332319
5.76749e-06
-1.2489e-11
0.000332448
3.5578e-06
-1.19518e-11
0.000329272
6.80843e-06
-1.17015e-11
0.000335582
-2.69221e-06
-1.07512e-11
3.09189e-06
-1.05161e-11
0.000336187
0.00140966
0.000278107
-1.14001e-11
0.00137044
0.000337501
-1.15807e-11
0.0012868
0.000294492
-1.18249e-11
0.00120433
0.00020027
-1.18881e-11
0.00113555
0.000129837
-1.12095e-11
0.00108167
8.87221e-05
-1.12641e-11
0.00103826
6.77705e-05
-1.17708e-11
0.001003
5.56671e-05
-1.23673e-11
0.000973466
4.80809e-05
-1.18387e-11
0.000948824
4.21039e-05
-1.14405e-11
0.000927926
3.76251e-05
-1.10315e-11
0.000910442
3.36119e-05
-1.11703e-11
0.000896554
2.91977e-05
-1.0605e-11
0.000886026
2.50044e-05
-1.04247e-11
0.00087946
1.97372e-05
-1.01946e-11
0.000875181
1.68866e-05
-1.10523e-11
0.000874809
1.08211e-05
-1.15143e-11
0.000872286
1.61352e-05
-1.22488e-11
0.000876903
-4.81489e-07
-1.17867e-11