/*--------------------------------*- C++ -*----------------------------------*\
  =========                 |
  \\      /  F ield         | OpenFOAM: The Open Source CFD Toolbox
   \\    /   O peration     | Website:  https://openfoam.org
    \\  /    A nd           | Version:  7
     \\/     M anipulation  |
\*---------------------------------------------------------------------------*/
FoamFile
{
    version     2.0;
    format      ascii;
    class       volScalarField;
    location    "2.54";
    object      pPrime2Mean;
}
// * * * * * * * * * * * * * * * * * * * * * * * * * * * * * * * * * * * * * //

dimensions      [2 -2 -4 0 0 0 0];

internalField   nonuniform List<scalar> 
7920
(
738541
737666
737671
736750
736688
735610
735403
734158
733796
732431
731940
730497
729901
728407
727722
726182
725415
723832
723011
721489
738484
737596
737570
736621
736547
735457
735251
734002
733641
732271
731779
730331
729733
728233
727546
726000
725233
723638
722824
721294
738494
737590
737571
736629
736550
735463
735259
734023
733671
732314
731828
730388
729794
728298
727612
726069
725297
723710
722874
721334
738485
737585
737561
736612
736530
735435
735225
733980
733625
732264
731779
730336
729743
728246
727561
726016
725248
723650
722822
721234
738493
737588
737565
736618
736533
735438
735227
733987
733635
732279
731798
730360
729769
728276
727593
726052
725280
723690
722845
721254
738488
737581
737555
736605
736522
735427
735216
733975
733622
732265
731783
730344
729753
728259
727577
726034
725266
723672
722832
721228
738488
737581
737555
736605
736522
735427
735216
733975
733622
732265
731783
730344
729753
728259
727577
726035
725266
723672
722831
721229
738493
737588
737565
736618
736533
735438
735227
733987
733635
732279
731798
730360
729769
728276
727594
726052
725281
723689
722846
721254
738485
737585
737561
736612
736530
735435
735225
733980
733625
732264
731779
730337
729743
728247
727561
726016
725248
723651
722821
721235
738494
737590
737571
736629
736550
735463
735259
734023
733671
732314
731828
730388
729794
728298
727612
726069
725297
723711
722875
721335
738484
737596
737570
736621
736547
735458
735251
734002
733641
732271
731779
730331
729733
728233
727546
726000
725232
723640
722823
721297
738541
737666
737671
736750
736688
735610
735403
734158
733796
732431
731940
730497
729901
728407
727722
726182
725416
723832
723011
721491
737829
736756
736966
735855
735999
734740
734742
733353
733201
731713
731421
729871
729459
727872
727353
725735
725118
723468
722778
721140
737880
736773
736991
735893
736043
734802
734815
733444
733302
731827
731540
729997
729587
728005
727487
725875
725256
723618
722929
721312
737869
736776
736997
735884
736025
734765
734769
733388
733244
731764
731476
729931
729519
727934
727414
725795
725175
723522
722830
721142
737896
736781
736990
735871
736012
734760
734770
733400
733265
731797
731516
729979
729573
727994
727478
725864
725241
723595
722895
721221
737889
736772
736980
735859
736002
734745
734753
733378
733239
731766
731484
729944
729537
727956
727440
725825
725205
723550
722854
721146
737898
736778
736986
735864
736005
734750
734759
733385
733248
731778
731497
729960
729554
727976
727461
725848
725226
723574
722872
721173
737898
736778
736986
735864
736005
734750
734759
733385
733248
731778
731497
729960
729554
727976
727461
725847
725227
723574
722873
721173
737889
736772
736980
735859
736002
734745
734753
733378
733239
731766
731484
729944
729537
727957
727440
725825
725205
723550
722853
721147
737896
736781
736990
735871
736012
734760
734770
733400
733265
731796
731516
729979
729573
727994
727478
725864
725242
723595
722896
721222
737869
736776
736997
735884
736025
734765
734769
733388
733244
731764
731476
729931
729519
727934
727414
725796
725175
723523
722830
721143
737880
736773
736991
735893
736043
734802
734815
733444
733302
731827
731540
729997
729587
728005
727488
725875
725256
723618
722929
721313
737829
736756
736966
735855
735999
734740
734742
733353
733201
731713
731421
729871
729459
727872
727353
725736
725118
723470
722776
721143
737700
736633
736740
735686
735809
734665
734663
733348
733175
731737
731437
729927
729517
727950
727439
725818
725217
723535
722885
721217
737724
736640
736746
735686
735798
734642
734636
733327
733167
731740
731446
729938
729529
727961
727448
725825
725220
723538
722882
721196
737725
736647
736752
735688
735795
734633
734626
733319
733162
731737
731446
729941
729534
727968
727456
725832
725226
723540
722879
721172
737738
736651
736754
735687
735788
734623
734613
733307
733151
731729
731441
729939
729535
727971
727462
725840
725234
723548
722884
721173
737739
736654
736756
735687
735786
734620
734611
733306
733152
731730
731441
729938
729534
727970
727462
725840
725235
723548
722883
721171
737744
736656
736757
735687
735785
734617
734608
733304
733149
731728
731440
729937
729534
727971
727463
725841
725237
723550
722884
721173
737744
736656
736757
735687
735785
734617
734609
733304
733149
731728
731440
729937
729534
727971
727463
725841
725237
723550
722884
721173
737739
736654
736756
735687
735786
734620
734611
733306
733152
731730
731441
729938
729534
727970
727463
725840
725235
723548
722883
721171
737738
736651
736754
735687
735788
734623
734613
733307
733151
731729
731441
729939
729535
727971
727462
725840
725234
723548
722884
721174
737725
736647
736752
735688
735795
734633
734626
733319
733162
731737
731446
729941
729534
727968
727456
725833
725226
723540
722879
721174
737724
736640
736746
735686
735798
734642
734636
733327
733167
731740
731446
729938
729529
727961
727448
725826
725220
723539
722882
721198
737700
736633
736740
735686
735809
734665
734663
733348
733175
731737
731437
729927
729517
727950
727439
725819
725216
723536
722883
721221
737700
736633
736740
735686
735809
734665
734663
733348
733175
731737
731437
729927
729517
727950
727439
725818
725217
723535
722885
721218
737724
736640
736746
735686
735798
734642
734636
733327
733167
731740
731446
729938
729529
727961
727448
725825
725220
723538
722882
721196
737725
736647
736752
735688
735795
734633
734626
733319
733162
731737
731446
729941
729534
727968
727456
725833
725226
723540
722879
721172
737738
736651
736754
735687
735788
734623
734613
733307
733151
731729
731441
729939
729535
727971
727462
725840
725234
723548
722884
721173
737739
736654
736756
735687
735786
734620
734611
733306
733152
731730
731441
729938
729534
727970
727463
725840
725235
723548
722883
721171
737744
736656
736757
735687
735785
734617
734609
733304
733149
731728
731440
729937
729534
727971
727463
725841
725237
723550
722884
721173
737744
736656
736757
735687
735785
734617
734609
733304
733149
731728
731440
729937
729534
727971
727463
725841
725237
723550
722884
721173
737739
736654
736756
735687
735786
734620
734611
733306
733152
731730
731441
729938
729534
727970
727463
725840
725235
723548
722883
721171
737738
736651
736754
735687
735788
734623
734613
733307
733151
731729
731442
729939
729535
727971
727462
725840
725234
723548
722884
721174
737725
736647
736752
735688
735795
734633
734626
733319
733162
731737
731447
729941
729534
727968
727456
725833
725226
723540
722879
721174
737724
736640
736746
735686
735798
734642
734636
733327
733167
731740
731446
729938
729529
727961
727448
725826
725220
723539
722882
721198
737700
736633
736740
735686
735809
734665
734663
733348
733175
731737
731437
729927
729517
727950
727439
725819
725216
723536
722883
721221
737829
736756
736966
735855
735999
734740
734742
733353
733201
731713
731421
729871
729459
727872
727353
725735
725118
723469
722778
721140
737881
736773
736991
735893
736043
734802
734815
733445
733303
731827
731540
729997
729587
728005
727487
725875
725256
723618
722929
721312
737869
736776
736997
735884
736026
734765
734769
733388
733244
731764
731476
729931
729519
727934
727414
725795
725175
723522
722830
721142
737896
736781
736990
735872
736012
734760
734770
733400
733265
731797
731516
729980
729573
727994
727478
725864
725241
723595
722895
721221
737889
736772
736980
735860
736002
734745
734753
733378
733239
731766
731484
729944
729537
727957
727441
725825
725205
723550
722854
721146
737898
736778
736986
735864
736005
734750
734759
733386
733248
731778
731497
729960
729555
727976
727461
725848
725226
723574
722872
721173
737898
736778
736986
735864
736005
734750
734759
733385
733248
731778
731498
729960
729555
727976
727461
725847
725227
723574
722873
721173
737889
736772
736980
735860
736002
734745
734753
733378
733239
731766
731484
729944
729537
727957
727440
725825
725205
723550
722853
721147
737896
736781
736990
735872
736012
734760
734770
733400
733265
731797
731517
729979
729573
727994
727478
725864
725242
723595
722896
721222
737869
736776
736997
735884
736026
734765
734769
733388
733244
731764
731476
729931
729519
727934
727414
725796
725175
723523
722830
721143
737881
736773
736991
735893
736043
734802
734815
733445
733302
731827
731540
729997
729587
728005
727488
725875
725256
723618
722929
721313
737829
736756
736966
735855
735999
734740
734742
733353
733201
731713
731421
729871
729459
727872
727353
725736
725118
723470
722776
721143
738542
737666
737671
736750
736688
735610
735403
734158
733796
732431
731940
730497
729902
728407
727722
726182
725415
723832
723011
721489
738484
737596
737570
736621
736548
735458
735251
734002
733641
732271
731779
730331
729733
728233
727546
726000
725233
723639
722824
721294
738494
737590
737571
736629
736550
735463
735260
734023
733672
732314
731829
730388
729794
728298
727612
726069
725297
723710
722875
721334
738486
737585
737562
736612
736531
735436
735225
733980
733625
732264
731779
730337
729743
728247
727561
726016
725248
723650
722822
721234
738493
737588
737565
736618
736533
735438
735227
733987
733635
732279
731798
730360
729769
728276
727594
726052
725280
723690
722845
721254
738488
737581
737555
736606
736522
735427
735216
733975
733623
732265
731783
730344
729753
728259
727577
726035
725266
723672
722832
721228
738488
737581
737555
736606
736522
735427
735216
733975
733623
732265
731783
730344
729753
728259
727577
726035
725266
723672
722831
721229
738493
737588
737565
736618
736533
735438
735227
733987
733635
732279
731798
730360
729769
728276
727594
726052
725281
723690
722846
721255
738486
737585
737562
736612
736531
735436
735225
733980
733625
732264
731779
730337
729743
728247
727561
726017
725248
723651
722821
721235
738494
737590
737571
736629
736550
735463
735260
734023
733672
732314
731829
730388
729794
728298
727613
726069
725297
723711
722875
721336
738484
737596
737570
736621
736548
735458
735251
734002
733641
732271
731779
730331
729733
728234
727546
726000
725233
723640
722823
721297
738542
737666
737671
736750
736688
735610
735403
734158
733796
732431
731940
730497
729902
728407
727722
726182
725416
723832
723011
721491
719357
712442
708888
701695
697474
689915
685134
677262
671977
663825
658081
649675
643510
634875
628324
619480
612572
603536
596300
587091
579553
570185
562370
552859
544791
535151
526852
517099
508589
498737
490039
480102
471237
461229
452218
442154
433018
422915
413676
403552
394236
384110
374731
364593
355132
344989
335502
325411
315935
305914
296478
286549
277174
267354
258063
248367
239180
229625
220564
211165
202251
193024
184279
175241
166687
157856
149518
140913
132816
124456
116629
108537
101009
93209.3
86014.1
78536.4
71710.2
64584.6
58175
51443.7
45495.5
39205.3
33788.1
27996.9
23174.2
18006.7
13918.5
9361.57
6043.66
2686.85
718936
712042
708503
701320
697108
689553
684777
676910
671632
663486
657749
649350
643191
634562
628017
619179
612277
603247
596017
586812
579280
569917
562106
552600
544536
534901
526605
516856
508351
498503
489810
479876
471015
461011
452004
441944
432812
422713
413479
403359
394047
383926
374551
364418
354961
344823
335341
325254
315783
305768
296335
286412
277042
267226
257940
248249
239068
229517
220461
211067
202157
192935
184194
175161
166612
157786
149452
140851
132758
124403
116579
108492
100967
93171.1
85979.3
78505.2
71682.1
64559.9
58153.1
51424.8
45479.2
39191.6
33776.7
27987.8
23167
18001.3
13914.6
9358.76
6041.12
2684.5
718933
712030
708469
701280
697060
689504
684722
676854
671571
663425
657684
649285
643124
634497
627949
619113
612211
603184
595953
586752
579220
569860
562051
552548
544486
534854
526560
516815
508312
498466
489775
479844
470985
460983
451978
441920
432790
422692
413459
403340
394030
383909
374536
364403
354946
344809
335327
325240
315769
305753
296321
286397
277027
267211
257924
248233
239051
229500
220443
211048
202138
192915
184174
175140
166590
157763
149429
140827
132734
124379
116554
108467
100942
93146.1
85954.5
78480.5
71657.9
64536
58129.9
51402.2
45457.6
39171
33757.4
27969.7
23150.6
17986.6
13902
9348.4
6033.55
2679.81
718836
711976
708427
701247
697034
689479
684701
676833
671554
663408
657670
649272
643112
634484
627939
619102
612200
603171
595941
586739
579207
569845
562036
552532
544468
534835
526541
516794
508290
498443
489751
479819
470960
460957
451952
441893
432763
422665
413432
403313
394002
383882
374509
364376
354920
344783
335302
325216
315746
305731
296299
286376
277007
267192
257906
248216
239035
229485
220430
211036
202127
192906
184165
175133
166584
157758
149425
140824
132733
124378
116554
108468
100944
93149
85957.9
78484.6
71662.5
64541.1
58135.4
51408
45463.5
39177
33763.4
27975.6
23156.2
17991.8
13906.5
9352.2
6035.88
2681.02
718856
711975
708404
701215
696996
689438
684655
676785
671502
663355
657614
649215
643054
634426
627878
619042
612139
603111
595880
586678
579146
569786
561977
552473
544410
534779
526484
516739
508235
498390
489698
479767
470909
460907
451902
441844
432714
422617
413385
403266
393956
383837
374464
364332
354876
344740
335258
325173
315703
305689
296258
286335
276966
267151
257866
248176
238995
229446
220391
210997
202088
192867
184128
175095
166547
157722
149389
140789
132698
124344
116521
108435
100913
93118.3
85928.4
78456.1
71635.1
64514.8
58110.4
51384.4
45441.3
39156.4
33744.3
27958.2
23140.6
17978.1
13895
9342.85
6029.14
2676.73
718838
711972
708409
701229
697017
689462
684683
676814
671533
663388
657648
649250
643089
634461
627915
619077
612175
603147
595916
586713
579181
569820
562010
552506
544443
534810
526516
516769
508265
498419
489726
479795
470935
460933
451927
441869
432739
422641
413408
403289
393978
383858
374485
364353
354897
344760
335278
325193
315723
305708
296276
286353
276984
267169
257884
248194
239013
229463
220407
211014
202105
192884
184144
175111
166563
157737
149404
140804
132713
124358
116535
108449
100926
93131.2
85940.8
78468
71646.6
64525.9
58120.9
51394.3
45450.7
39165.1
33752.3
27965.6
23147.2
17983.9
13899.8
9346.72
6031.7
2678.32
718833
711956
708386
701199
696980
689422
684639
676769
671485
663339
657599
649200
643039
634411
627864
619028
612125
603098
595867
586665
579133
569773
561964
552460
544398
534766
526472
516726
508222
498377
489685
479754
470896
460894
451889
441831
432702
422604
413372
403254
393944
383825
374452
364320
354865
344729
335248
325163
315694
305679
296249
286326
276957
267144
257859
248169
238989
229440
220385
210992
202084
192863
184124
175092
166544
157719
149387
140788
132697
124343
116521
108435
100913
93118.8
85929.1
78457
71636.2
64516.2
58111.9
51386
45443
39158.1
33746.1
27959.9
23142.2
17979.7
13896.4
9344.02
6029.89
2677.07
718861
711989
708425
701243
697029
689475
684694
676826
671544
663399
657658
649260
643098
634470
627923
619086
612182
603154
595923
586721
579188
569827
562017
552513
544450
534818
526523
516777
508273
498426
489734
479803
470943
460941
451936
441877
432747
422649
413416
403297
393986
383866
374493
364360
354904
344767
335285
325199
315729
305713
296282
286358
276989
267174
257888
248197
239016
229466
220410
211016
202107
192885
184144
175112
166563
157737
149404
140803
132712
124357
116534
108447
100924
93129
85938.4
78465.5
71644
64523.2
58118.2
51391.6
45448
39162.4
33749.8
27963.1
23144.9
17981.8
13898
9345.25
6030.74
2677.78
718830
711956
708398
701210
696991
689431
684650
676779
671497
663351
657612
649213
643053
634425
627879
619043
612141
603113
595884
586682
579150
569790
561981
552477
544415
534783
526489
516743
508239
498394
489702
479771
470912
460911
451906
441848
432718
422621
413389
403271
393961
383841
374469
364337
354882
344746
335265
325180
315711
305697
296266
286344
276975
267161
257876
248187
239007
229458
220403
211010
202102
192881
184142
175110
166562
157737
149404
140805
132714
124360
116537
108451
100928
93134.1
85943.9
78471.4
71650.1
64529.5
58124.6
51398.1
45454.4
39168.7
33755.9
27969
23150.4
17986.8
13902.5
9349
6033.68
2679.46
718938
712042
708487
701305
697089
689536
684757
676891
671609
663464
657724
649326
643164
634537
627990
619154
612250
603223
595992
586790
579258
569898
562088
552585
544522
534889
526595
516849
508345
498499
489807
479876
471016
461014
452008
441950
432819
422720
413487
403367
394056
383935
374561
364428
354971
344833
335350
325263
315792
305775
296342
286418
277047
267231
257943
248252
239069
229517
220460
211064
202154
192930
184189
175154
166604
157776
149441
140839
132746
124390
116565
108477
100952
93155.4
85963.3
78488.8
71665.7
64543.3
58136.8
51408.6
45463.5
39176.3
33762.3
27974.1
23154.4
17989.8
13904.7
9350.58
6035.04
2680.73
718926
712012
708463
701272
697054
689494
684715
676845
671566
663419
657680
649281
643122
634493
627948
619111
612209
603180
595950
586747
579215
569852
562043
552538
544474
534840
526546
516798
508293
498446
489753
479821
470961
460958
451952
441893
432762
422664
413430
403311
394000
383880
374506
364374
354918
344781
335299
325214
315744
305729
296298
286375
277006
267191
257906
248216
239035
229486
220431
211037
202129
192908
184168
175136
166587
157762
149429
140829
132737
124383
116559
108473
100950
93154.6
85963.7
78490.5
71668.3
64547
58141.2
51413.8
45469.1
39182.4
33768.5
27980.4
23160.6
17995.8
13910.1
9355.23
6038.62
2682.65
719361
712459
708918
701735
697521
689967
685191
677322
672041
663890
658147
649742
643578
634943
628392
619547
612639
603603
596367
587157
579618
570249
562434
552922
544853
535212
526912
517158
508648
498794
490096
480157
471292
461283
452271
442206
433069
422965
413726
403600
394283
384156
374777
364638
355175
345032
335544
325452
315975
305954
296516
286586
277210
267389
258097
248401
239213
229657
220595
211195
202280
193052
184306
175267
166712
157881
149542
140935
132838
124477
116648
108556
101027
93226.3
86030.1
78551.5
71724.4
64597.9
58187.4
51455.1
45506
39214.8
33796.8
28004.6
23181
18012.5
13923.4
9365.48
6046.52
2688.58
719176
712118
708836
701549
697488
689863
685183
677261
672045
663853
658157
649718
643586
634922
628394
619524
612633
603575
596351
587121
579592
570206
562397
552870
544806
535153
526857
517092
508586
498724
490029
480083
471222
461207
452199
442130
432997
422890
413655
403528
394216
384088
374714
364575
355117
344974
335491
325399
315928
305908
296475
286547
277177
267357
258071
248376
239194
229640
220584
211186
202276
193051
184310
175273
166723
157894
149559
140954
132862
124502
116678
108586
101061
93260.4
86067.7
78588.5
71764.2
64636.1
58227.6
51492.4
45544
39248.5
33829.2
28030.9
23203.2
18027
13930.5
9362.47
6030.88
2670.92
719607
712515
709227
701941
697877
690255
685575
677655
672438
664245
658546
650105
643970
635302
628771
619896
613001
603937
596709
587473
579939
570548
562734
553202
545133
535474
527173
517403
508892
499024
490324
480373
471506
461486
452473
442398
433261
423148
413908
403775
394458
384324
374944
364800
355337
345187
335699
325602
316125
306099
296661
286727
277351
267526
258234
248534
239346
229786
220724
211321
202406
193175
184428
175386
166831
157996
149656
141046
132949
124584
116755
108658
101128
93322.7
86125.4
78641.4
71812.8
64680.1
58267.4
51527.9
45575.6
39275.9
33852.9
28050.8
23219.6
18040.1
13940.4
9369.59
6035.66
2674.31
719276
712305
709023
701743
697683
690059
685379
677459
672243
664052
658355
649916
643783
635117
628589
619717
612824
603764
596538
587305
579774
570386
562574
553045
544978
535322
527023
517256
508747
498881
490184
480235
471371
461353
452342
442270
433134
423024
413786
403656
394341
384211
374833
364691
355231
345084
335599
325505
316030
306007
296572
286641
277268
267446
258157
248460
239275
229718
220659
211259
202346
193118
184374
175335
166783
157951
149614
141006
132911
124549
116722
108628
101100
93297.5
86102.3
78620.7
71794.1
64663.5
58252.7
51515.2
45564.6
39266.8
33845.3
28044.9
23215
18036.9
13938.4
9368.45
6035.24
2673.78
719475
712464
709178
701896
697832
690209
685527
677606
672388
664196
658498
650056
643922
635254
628724
619849
612955
603892
596664
587430
579896
570506
562693
553161
545093
535435
527134
517365
508854
498987
490288
480337
471471
461451
452439
442365
433228
423115
413876
403744
394427
384294
374915
364771
355309
345160
335673
325576
316100
306075
296637
286704
277329
267505
258213
248514
239327
229768
220707
211304
202389
193159
184413
175372
166818
157983
149644
141035
132938
124574
116745
108649
101120
93314.9
86118.2
78634.8
71806.8
64674.6
58262.4
51523.5
45571.7
39272.5
33850
28048.4
23217.6
18038.5
13939.2
9368.73
6035.52
2673.96
719311
712356
709072
701798
697742
690119
685439
677518
672302
664112
658415
649975
643842
635175
628646
619773
612880
603818
596592
587358
579826
570436
562624
553094
545026
535370
527070
517301
508792
498925
490227
480277
471412
461393
452382
442309
433173
423061
413823
403692
394376
384245
374866
364724
355262
345115
335628
325533
316058
306034
296598
286666
277292
267469
258179
248481
239295
229738
220678
211276
202363
193134
184389
175349
166796
157963
149625
141017
132921
124559
116731
108636
101108
93304.2
86108.4
78626.1
71798.9
64667.8
58256.4
51518.4
45567.3
39269
33847.1
28046.2
23216
18037.5
13938.7
9368.55
6035.36
2673.78
719376
712396
709109
701831
697770
690146
685463
677540
672323
664131
658433
649992
643858
635191
628661
619787
612894
603831
596604
587371
579838
570448
562636
553105
545037
535380
527080
517311
508801
498935
490237
480287
471421
461402
452391
442317
433181
423069
413831
403699
394384
384252
374873
364730
355269
345121
335634
325539
316064
306039
296603
286670
277296
267473
258182
248484
239298
229740
220680
211278
202365
193135
184390
175350
166797
157963
149625
141017
132921
124558
116730
108635
101106
93302.6
86106.7
78624.2
71797
64665.7
58254.3
51516.2
45565.1
39266.8
33845
28044.1
23214
18035.6
13937
9367.06
6034.41
2673.08
719382
712418
709137
701863
697808
690187
685507
677587
672372
664181
658484
650044
643911
635243
628713
619839
612945
603883
596655
587421
579888
570497
562684
553153
545085
535427
527126
517357
508846
498979
490280
480329
471463
461443
452431
442357
433220
423108
413869
403736
394420
384287
374908
364764
355302
345154
335667
325570
316094
306069
296632
286699
277324
267500
258209
248510
239323
229765
220704
211301
202387
193157
184411
175370
166816
157982
149644
141034
132937
124574
116745
108650
101120
93315.8
86119.3
78636
71808.1
64676.1
58264
51525.1
45573.3
39274.3
33851.7
28050.1
23219.3
18040.1
13940.7
9370.06
6036.58
2674.58
719305
712334
709044
701768
697707
690081
685398
677475
672258
664066
658369
649929
643795
635129
628599
619727
612834
603773
596547
587314
579782
570393
562581
553052
544985
535329
527029
517262
508752
498887
490189
480240
471375
461357
452346
442274
433138
423028
413790
403659
394344
384213
374836
364694
355233
345086
335600
325506
316031
306008
296572
286641
277268
267445
258156
248458
239273
229716
220657
211256
202343
193115
184371
175332
166779
157947
149610
141002
132907
124545
116718
108623
101096
93292.7
86097.6
78615.9
71789.4
64658.8
58248.1
51510.7
45560.3
39262.6
33841.4
28041.1
23211.6
18033.7
13935.6
9366.05
6033.61
2672.52
719482
712486
709210
701932
697876
690256
685579
677660
672445
664254
658557
650116
643983
635315
628784
619910
613015
603952
596724
587488
579954
570563
562749
553217
545148
535489
527188
517417
508906
499038
490338
480387
471520
461499
452486
442411
433273
423160
413920
403787
394469
384336
374956
364811
355348
345199
335710
325613
316136
306110
296672
286738
277362
267536
258244
248544
239356
229797
220734
211331
202416
193184
184438
175396
166840
158005
149665
141055
132957
124593
116763
108666
101136
93330.4
86132.9
78648.6
71819.7
64686.7
58273.7
51533.9
45581.2
39281.3
33857.9
28055.4
23223.8
18043.8
13943.7
9372.31
6038.17
2675.73
719270
712281
708992
701709
697646
690019
685336
677414
672197
664005
658308
649868
643735
635070
628541
619669
612777
603717
596492
587260
579729
570341
562530
553002
544935
535280
526982
517215
508706
498842
490145
480197
471333
461316
452305
442234
433099
422989
413752
403623
394308
384178
374802
364660
355201
345055
335570
325476
316003
305980
296546
286615
277243
267422
258133
248436
239252
229696
220638
211238
202326
193099
184356
175317
166765
157934
149597
140991
132896
124535
116709
108615
101088
93285.9
86091.4
78610.4
71784.4
64654.5
58244.4
51507.5
45557.6
39260.4
33839.6
28039.8
23210.6
18033.1
13935.3
9366
6033.52
2672.49
719614
712537
709261
701983
697927
690309
685634
677717
672502
664310
658613
650172
644038
635370
628839
619963
613068
604004
596775
587539
580004
570612
562797
553264
545194
535535
527233
517462
508950
499081
490380
480428
471561
461539
452526
442450
433312
423198
413957
403823
394505
384371
374990
364844
355380
345230
335741
325643
316165
306138
296699
286764
277388
267562
258269
248567
239379
229818
220755
211351
202435
193203
184456
175413
166857
158021
149680
141069
132970
124605
116775
108677
101146
93339.9
86141.7
78656.8
71827.3
64693.6
58280
51539.5
45586.3
39285.7
33861.7
28058.7
23226.5
18046.1
13945.5
9373.62
6038.75
2676.25
719166
712089
708798
701507
697440
689812
685129
677206
671988
663796
658099
649660
643528
634864
628336
619467
612576
603518
596295
587066
579537
570152
562344
552818
544755
535103
526807
517044
508538
498677
489983
480038
471177
461163
452156
442087
432956
422849
413615
403488
394177
384050
374677
364538
355081
344939
335457
325366
315895
305876
296444
286517
277147
267329
258043
248349
239168
229615
220559
211162
202253
193028
184288
175252
166703
157874
149540
140936
132844
124486
116662
108571
101047
93247.1
86055.1
78576.6
71753.2
64625.7
58218
51483.6
45536
39241.2
33822.7
28025.1
23198.2
18022.7
13927
9359.65
6028.83
2669.23
719482
712772
709508
702354
698339
690759
686136
678217
673053
664840
659184
650712
644609
635909
629399
620491
613609
604513
597292
588027
580496
571076
563263
553705
545634
535953
527648
517857
509342
499456
490753
480784
471914
461878
452862
442773
433632
423507
414263
404119
394799
384655
375272
365118
355652
345493
336002
325896
316416
306382
296941
287000
277621
267789
258494
248787
239596
230030
220965
211556
202637
193400
184650
175602
167044
158202
149859
141243
133141
124770
116936
108832
101298
93484.7
86282.3
78789.9
71955.5
64813.5
58394.6
51645
45686.2
39375.3
33946.1
28131.6
23294.8
18101.3
13997.1
9409.21
6071.66
2690.38
719463
712764
709497
702344
698330
690749
686127
678208
673044
664831
659175
650704
644602
635901
629391
620483
613602
604506
597286
588020
580489
571070
563256
553699
545628
535947
527642
517852
509337
499451
490747
480779
471909
461873
452857
442768
433627
423502
414259
404115
394794
384651
375268
365114
355648
345490
335998
325893
316413
306379
296938
286997
277618
267786
258491
248784
239594
230028
220963
211553
202635
193398
184648
175600
167042
158201
149858
141241
133140
124769
116935
108831
101297
93483.9
86281.5
78789.2
71954.8
64812.9
58394.1
51644.6
45685.8
39375
33945.8
28131.3
23294.6
18101.1
13997
9409.11
6071.57
2690.24
719439
712760
709497
702346
698332
690751
686128
678209
673044
664832
659176
650705
644602
635901
629392
620484
613602
604507
597286
588020
580490
571070
563257
553699
545628
535947
527643
517852
509337
499451
490748
480780
471909
461874
452857
442769
433628
423503
414259
404115
394795
384652
375269
365115
355649
345490
335999
325894
316413
306380
296939
286997
277619
267787
258492
248785
239594
230028
220963
211554
202635
193398
184649
175601
167042
158201
149858
141241
133140
124769
116935
108831
101297
93483.8
86281.4
78789
71954.7
64812.7
58393.9
51644.4
45685.6
39374.8
33945.6
28131.1
23294.4
18101
13996.9
9409.01
6071.51
2690.02
719440
712750
709485
702336
698324
690743
686119
678199
673035
664823
659168
650697
644594
635893
629384
620476
613595
604499
597278
588013
580482
571063
563249
553692
545621
535940
527636
517845
509330
499444
490741
480773
471902
461867
452851
442762
433621
423496
414253
404109
394789
384646
375263
365109
355643
345485
335993
325888
316408
306374
296933
286992
277614
267782
258487
248780
239590
230024
220959
211550
202632
193395
184645
175597
167039
158198
149855
141239
133137
124766
116933
108829
101295
93481.8
86279.6
78787.3
71953.1
64811.3
58392.6
51643.2
45684.5
39373.8
33944.8
28130.4
23293.8
18100.4
13996.5
9408.68
6071.25
2689.88
719434
712749
709487
702341
698329
690749
686125
678204
673039
664828
659172
650702
644599
635898
629388
620480
613599
604503
597282
588017
580486
571067
563253
553696
545625
535943
527639
517848
509334
499447
490744
480776
471906
461870
452854
442765
433624
423499
414256
404112
394791
384648
375265
365111
355645
345487
335996
325890
316410
306376
296935
286994
277616
267784
258489
248782
239592
230026
220961
211551
202633
193396
184646
175598
167040
158199
149856
141240
133138
124767
116933
108830
101295
93482.4
86280.1
78787.8
71953.6
64811.7
58393
51643.5
45684.9
39374.1
33945
28130.6
23294
18100.6
13996.6
9408.79
6071.34
2689.87
719436
712745
709481
702336
698326
690746
686121
678201
673036
664824
659169
650698
644596
635894
629385
620477
613596
604500
597280
588014
580483
571064
563250
553693
545622
535941
527637
517846
509331
499445
490742
480774
471903
461868
452852
442763
433622
423497
414254
404110
394790
384646
375264
365110
355644
345485
335994
325889
316409
306375
296934
286993
277614
267782
258487
248781
239591
230025
220960
211550
202632
193395
184646
175598
167039
158198
149855
141239
133137
124766
116933
108829
101295
93482
86279.8
78787.5
71953.3
64811.5
58392.8