/*--------------------------------*- C++ -*----------------------------------*\
  =========                 |
  \\      /  F ield         | OpenFOAM: The Open Source CFD Toolbox
   \\    /   O peration     | Website:  https://openfoam.org
    \\  /    A nd           | Version:  7
     \\/     M anipulation  |
\*---------------------------------------------------------------------------*/
FoamFile
{
    version     2.0;
    format      ascii;
    class       volScalarField;
    location    "2.2575";
    object      k;
}
// * * * * * * * * * * * * * * * * * * * * * * * * * * * * * * * * * * * * * //

dimensions      [0 2 -2 0 0 0 0];

internalField   nonuniform List<scalar> 
4950
(
32.6413
37.0492
37.2102
37.2762
37.2369
37.2594
37.2175
37.2269
37.19
37.1969
37.1669
37.1736
37.1499
37.1563
37.1387
37.1426
37.1368
37.1258
37.1709
37.3572
9.02817
10.249
10.1123
9.74051
9.46497
9.32899
9.23274
9.19003
9.14453
9.12524
9.09627
9.08479
9.06396
9.05641
9.0418
9.03562
9.03738
9.0151
9.19416
9.2429
5.70464
7.00405
7.30847
7.38571
7.39703
7.41773
7.4214
7.43422
7.43618
7.44504
7.44536
7.45101
7.45032
7.45429
7.45291
7.45609
7.45458
7.45606
7.4615
7.49051
5.45442
6.72084
7.07222
7.21427
7.27888
7.33755
7.36958
7.40878
7.42933
7.45864
7.4728
7.49571
7.50575
7.52406
7.5314
7.54577
7.55215
7.5612
7.56833
7.59581
5.41812
6.69286
7.0458
7.19364
7.26128
7.3246
7.35969
7.40389
7.42812
7.46284
7.48118
7.50951
7.52382
7.54716
7.55855
7.57746
7.58736
7.60135
7.60985
7.64063
5.45442
6.72084
7.07222
7.21427
7.27888
7.33756
7.36957
7.40879
7.42932
7.45867
7.47276
7.49576
7.50569
7.52415
7.53134
7.5459
7.55198
7.56138
7.56836
7.59602
5.70463
7.00405
7.30847
7.38572
7.39702
7.41774
7.4214
7.43423
7.43617
7.44507
7.44533
7.45105
7.45024
7.45442
7.45273
7.4564
7.45418
7.45655
7.46112
7.49136
9.02817
10.249
10.1123
9.74051
9.46496
9.32899
9.23272
9.19004
9.1445
9.12528
9.09619
9.08487
9.06376
9.05652
9.04136
9.03599
9.03625
9.01683
9.18928
9.24575
32.6413
37.0492
37.2102
37.2762
37.2369
37.2594
37.2175
37.227
37.1899
37.1969
37.1668
37.1738
37.1496
37.1569
37.1378
37.1444
37.1336
37.1316
37.1602
37.3801
5.04421
7.29393
7.61294
7.55911
7.51803
7.44891
7.43326
7.39245
7.38607
7.35897
7.35583
7.33607
7.33455
7.3191
7.31908
7.30518
7.30839
7.29047
7.28978
7.34818
3.7503
6.01829
6.52493
6.63223
6.65832
6.67015
6.67707
6.68351
6.68706
6.69078
6.69248
6.69462
6.69535
6.69681
6.69698
6.69828
6.69767
6.69809
6.70343
6.71961
3.56636
5.76423
6.27383
6.39796
6.42363
6.43725
6.44077
6.44875
6.4522
6.45951
6.46289
6.4692
6.47248
6.47751
6.48088
6.48449
6.48802
6.49013
6.49103
6.51952
3.57402
5.76967
6.27403
6.39697
6.42227
6.43323
6.43372
6.43652
6.43652
6.43855
6.43883
6.44073
6.44117
6.44293
6.44355
6.44511
6.44613
6.44725
6.4491
6.47044
3.55749
5.74581
6.25252
6.37798
6.4033
6.41484
6.41473
6.41714
6.41634
6.41794
6.41724
6.41845
6.4179
6.41885
6.41844
6.41925
6.41889
6.41949
6.41898
6.43756
3.57402
5.76967
6.27403
6.39698
6.42226
6.43323
6.43372
6.43652
6.43652
6.43856
6.43882
6.44075
6.44115
6.44297
6.4435
6.44519
6.44592
6.44736
6.44899
6.47039
3.56636
5.76423
6.27383
6.39796
6.42362
6.43725
6.44077
6.44876
6.45219
6.45954
6.46282
6.4693
6.47232
6.47774
6.48052
6.485
6.48727
6.49091
6.49046
6.51978
3.7503
6.0183
6.52493
6.63223
6.65832
6.67016
6.67706
6.68352
6.68704
6.69082
6.69242
6.6947
6.69528
6.69694
6.69677
6.69861
6.69691
6.69911
6.70179
6.72208
5.04421
7.29393
7.61294
7.55911
7.51803
7.44892
7.43326
7.39245
7.38606
7.35898
7.35582
7.33611
7.33453
7.31919
7.31901
7.30544
7.30809
7.29153
7.28828
7.35192
0.288496
0.963367
1.21448
1.25613
1.23604
1.19213
1.14885
1.11355
1.08596
1.06326
1.04674
1.03163
1.02151
1.01057
1.0041
0.995871
0.990801
0.986292
0.976857
0.991207
0.0633077
0.361053
0.579688
0.684929
0.729501
0.752134
0.763398
0.773283
0.780276
0.787594
0.792869
0.798222
0.801846
0.805578
0.808031
0.810446
0.812586
0.813434
0.815228
0.820154
0.0541166
0.305466
0.486216
0.584027
0.622864
0.64514
0.65161
0.658641
0.66048
0.664573
0.666278
0.669959
0.671951
0.675445
0.677768
0.680898
0.68327
0.686237
0.687734
0.693421
0.0556711
0.313417
0.495558
0.590655
0.628991
0.649165
0.655343
0.660078
0.660757
0.662166
0.6623
0.66283
0.663013
0.663437
0.663892
0.664225
0.664988
0.665318
0.66615
0.669919
0.0539152
0.304442
0.482037
0.578119
0.615611
0.637053
0.642525
0.647905
0.648249
0.649513
0.649265
0.64966
0.649403
0.649617
0.649457
0.649589
0.649476
0.649597
0.649208
0.652098
0.0556711
0.313417
0.495558
0.590655
0.62899
0.649165
0.655342
0.660078
0.660757
0.662167
0.6623
0.662831
0.663012
0.663438
0.663888
0.664224
0.664977
0.665308
0.666137
0.669893
0.0541166
0.305467
0.486216
0.584028
0.622863
0.645141
0.651609
0.658642
0.66048
0.664575
0.666276
0.66997
0.671924
0.675471
0.677724
0.680931
0.683212
0.686228
0.687699
0.693337
0.0633076
0.361053
0.579687
0.68493
0.7295
0.752136
0.763394
0.773287
0.780268
0.787603
0.792852
0.79824
0.801814
0.805613
0.807965
0.810504
0.812464
0.813439
0.815144
0.820068
0.288496
0.963367
1.21448
1.25613
1.23604
1.19213
1.14885
1.11356
1.08596
1.06327
1.04674
1.03165
1.0215
1.01063
1.00409
0.996018
0.990786
0.986584
0.976905
0.991977
5.04421
7.29393
7.61294
7.55911
7.51803
7.44891
7.43327
7.39245
7.38607
7.35897
7.35583
7.33607
7.33455
7.3191
7.31908
7.30518
7.30839
7.29047
7.28978
7.34818
3.7503
6.01829
6.52493
6.63223
6.65832
6.67015
6.67707
6.68351
6.68706
6.69078
6.69248
6.69462
6.69535
6.69681
6.69698
6.69828
6.69767
6.69809
6.70343
6.71961
3.56636
5.76423
6.27383
6.39796
6.42363
6.43725
6.44077
6.44875
6.4522
6.45951
6.46289
6.4692
6.47248
6.47751
6.48088
6.48449
6.48802
6.49013
6.49103
6.51952
3.57402
5.76967
6.27403
6.39697
6.42227
6.43323
6.43372
6.43652
6.43652
6.43855
6.43883
6.44073
6.44117
6.44293
6.44355
6.44511
6.44613
6.44725
6.4491
6.47044
3.55749
5.74581
6.25252
6.37798
6.4033
6.41484
6.41473
6.41714
6.41634
6.41794
6.41724
6.41845
6.4179
6.41885
6.41844
6.41925
6.41889
6.41949
6.41898
6.43756
3.57402
5.76967
6.27403
6.39698
6.42226
6.43323
6.43372
6.43652
6.43652
6.43856
6.43882
6.44075
6.44115
6.44297
6.4435
6.44519
6.44592
6.44736
6.44899
6.47039
3.56636
5.76423
6.27383
6.39796
6.42362
6.43725
6.44077
6.44876
6.45219
6.45954
6.46282
6.4693
6.47232
6.47774
6.48052
6.485
6.48727
6.49091
6.49046
6.51978
3.7503
6.0183
6.52493
6.63223
6.65832
6.67016
6.67706
6.68352
6.68704
6.69082
6.69242
6.6947
6.69528
6.69694
6.69677
6.69861
6.69691
6.69911
6.70179
6.72208
5.04421
7.29393
7.61294
7.55911
7.51803
7.44892
7.43326
7.39245
7.38606
7.35898
7.35582
7.33611
7.33453
7.31919
7.31901
7.30544
7.30809
7.29153
7.28828
7.35192
32.6413
37.0492
37.2102
37.2762
37.2369
37.2594
37.2175
37.2269
37.19
37.1969
37.1669
37.1736
37.1499
37.1563
37.1387
37.1426
37.1368
37.1258
37.1709
37.3572
9.02817
10.249
10.1123
9.74051
9.46497
9.32899
9.23274
9.19003
9.14453
9.12524
9.09627
9.08479
9.06396
9.05641
9.0418
9.03562
9.03738
9.0151
9.19416
9.2429
5.70464
7.00405
7.30847
7.38571
7.39703
7.41773
7.4214
7.43422
7.43618
7.44504
7.44536
7.45101
7.45032
7.45429
7.45291
7.45609
7.45458
7.45606
7.4615
7.49051
5.45442
6.72084
7.07222
7.21427
7.27888
7.33755
7.36958
7.40878
7.42933
7.45864
7.4728
7.49571
7.50575
7.52406
7.5314
7.54577
7.55215
7.5612
7.56833
7.59581
5.41812
6.69286
7.0458
7.19364
7.26128
7.3246
7.35969
7.40389
7.42812
7.46284
7.48118
7.50951
7.52382
7.54716
7.55855
7.57746
7.58736
7.60135
7.60985
7.64062
5.45442
6.72084
7.07222
7.21427
7.27888
7.33756
7.36957
7.40879
7.42932
7.45867
7.47276
7.49576
7.50569
7.52415
7.53134
7.5459
7.55198
7.56138
7.56836
7.59602
5.70463
7.00405
7.30847
7.38572
7.39702
7.41774
7.4214
7.43423
7.43617
7.44507
7.44533
7.45105
7.45024
7.45442
7.45273
7.4564
7.45418
7.45655
7.46112
7.49136
9.02817
10.249
10.1123
9.74051
9.46496
9.32899
9.23272
9.19004
9.1445
9.12528
9.09619
9.08487
9.06376
9.05652
9.04136
9.03599
9.03625
9.01683
9.18928
9.24575
32.6413
37.0492
37.2102
37.2762
37.2369
37.2594
37.2175
37.227
37.1899
37.1969
37.1668
37.1738
37.1496
37.1569
37.1378
37.1444
37.1336
37.1316
37.1602
37.3801
96.2466
97.8808
98.4733
98.9704
99.3333
99.7106
100.006
100.317
100.568
100.837
101.062
101.305
101.512
101.731
101.92
102.119
102.292
102.476
102.635
102.802
102.947
103.096
103.225
103.356
103.468
103.58
103.671
103.762
103.834
103.904
103.956
104.007
104.042
104.076
104.096
104.118
104.127
104.139
104.142
104.149
104.148
104.152
104.151
104.153
104.151
104.154
104.152
104.154
104.152
104.154
104.152
104.154
104.152
104.154
104.152
104.154
104.152
104.154
104.152
104.154
104.152
104.154
104.153
104.154
104.153
104.154
104.153
104.154
104.153
104.154
104.153
104.154
104.153
104.154
104.153
104.154
104.153
104.154
104.153
104.153
104.152
104.153
104.151
104.152
104.15
104.15
104.148
104.149
104.115
104.091
32.7379
34.8122
35.0445
35.2353
35.337
35.4833
35.5661
35.6885
35.7591
35.8655
35.9295
36.0255
36.0848
36.1718
36.226
36.3051
36.3554
36.4281
36.4747
36.5411
36.5831
36.6428
36.68
36.733
36.7648
36.8104
36.836
36.8739
36.893
36.9233
36.9361
36.9594
36.9667
36.9836
36.9864
36.9981
36.9978
37.0059
37.0037
37.0097
37.0066
37.0116
37.0082
37.0125
37.0093
37.0132
37.0102
37.0139
37.0111
37.0145
37.012
37.0153
37.0129
37.016
37.0139
37.0168
37.0149
37.0176
37.0159
37.0185
37.0169
37.0194
37.018
37.0203
37.019
37.0213
37.0201
37.0223
37.0212
37.0233
37.0223
37.0243
37.0234
37.0253
37.0245
37.0262
37.0256
37.0272
37.0266
37.028
37.0275
37.0288
37.0282
37.0295
37.0288
37.0299
37.0289
37.031
37.0175
37.014
23.0724
25.5897
25.806
25.9471
25.992
26.0996
26.1392
26.2328
26.2672
26.3492
26.3808
26.4556
26.4858
26.5546
26.5826
26.6454
26.6714
26.7294
26.7538
26.8073
26.8296
26.8781
26.8978
26.9414
26.9583
26.9967
27.0102
27.043
27.0528
27.0798
27.0861
27.1076
27.1106
27.1273
27.1274
27.14
27.1379
27.1476
27.1441
27.1518
27.1477
27.1543
27.1501
27.156
27.152
27.1575
27.1537
27.1589
27.1555
27.1604
27.1573
27.1619
27.1592
27.1635
27.1611
27.1652
27.163
27.167
27.165
27.1688
27.167
27.1706
27.1691
27.1726
27.1712
27.1745
27.1733
27.1765
27.1755
27.1786
27.1777
27.1806
27.1799
27.1827
27.1821
27.1848
27.1843
27.1869
27.1865
27.1889
27.1886
27.1909
27.1906
27.1928
27.1925
27.1946
27.1943
27.1958
27.1967
27.1764
22.0158
25.0057
25.2894
25.4232
25.4461
25.536
25.5606
25.6434
25.6664
25.7403
25.7619
25.8302
25.8522
25.9163
25.9373
25.9961
26.0155
26.07
26.0888
26.1396
26.1569
26.2033
26.2188
26.2608
26.2743
26.3121
26.3232
26.356
26.3642
26.3919
26.3971
26.4199
26.4225
26.4406
26.4407
26.4547
26.4527
26.4638
26.4603
26.4692
26.465
26.4726
26.4682
26.4751
26.4709
26.4772
26.4734
26.4793
26.4758
26.4815
26.4783
26.4837
26.4809
26.4861
26.4835
26.4884
26.4862
26.4909
26.489
26.4935
26.4918
26.4961
26.4946
26.4988
26.4975
26.5015
26.5005
26.5043
26.5035
26.5072
26.5065
26.5101
26.5096
26.513
26.5126
26.5159
26.5157
26.5188
26.5187
26.5217
26.5217
26.5246
26.5246
26.5274
26.5275
26.5301
26.5303
26.5322
26.5341
26.5148
22.0013
25.0373
25.3187
25.4383
25.442
25.5138
25.5251
25.5953
25.6084
25.6725
25.6858
25.7461
25.7612
25.8188
25.8338
25.8869
25.901
25.9503
25.9643
26.0106
26.0238
26.0663
26.0781
26.1168
26.1273
26.1624
26.1712
26.2022
26.2087
26.2352
26.2393
26.2615
26.2634
26.2815
26.2813
26.2956
26.2935
26.305
26.3014
26.3107
26.3065
26.3145
26.3101
26.3172
26.313
26.3197
26.3158
26.3221
26.3185
26.3245
26.3213
26.327
26.3242
26.3296
26.3271
26.3323
26.3301
26.3351
26.3332
26.3379
26.3363
26.3408
26.3395
26.3438
26.3427
26.3469
26.3459
26.35
26.3492
26.3532
26.3526
26.3564
26.356
26.3596
26.3593
26.3628
26.3627
26.3661
26.3661
26.3693
26.3694
26.3725
26.3726
26.3755
26.3757
26.3785
26.379
26.3807
26.3863
26.3635
22.0153
24.9744
25.2166
25.3078
25.2964
25.351
25.3506
25.4057
25.4099
25.4617
25.4676
25.5172
25.5257
25.5738
25.5829
25.6272
25.636
25.6774
25.6865
25.7256
25.7343
25.7702
25.778
25.8109
25.8179
25.8479
25.8537
25.8804
25.8845
25.9075
25.9099
25.9294
25.9301
25.9462
25.9453
25.9584
25.9558
25.9664
25.9627
25.9714
25.9671
25.9747
25.9703
25.9771
25.973
25.9793
25.9755
25.9815
25.978
25.9836
25.9805
25.9859
25.9831
25.9883
25.9858
25.9907
25.9885
25.9932
25.9913
25.9958
25.9941
25.9984
25.997
26.0011
25.9999
26.0039
26.0029
26.0067
26.0059
26.0096
26.009
26.0125
26.012
26.0154
26.0151
26.0184
26.0182
26.0213
26.0213
26.0243
26.0243
26.0272
26.0272
26.03
26.0301
26.0327
26.033
26.0347
26.0373
26.0186
23.0441
25.4618
25.5829
25.6384
25.6159
25.6564
25.6468
25.6887
25.6845
25.7238
25.7227
25.7605
25.7624
25.7988
25.8017
25.8353
25.8384
25.8699
25.8737
25.9033
25.907
25.9342
25.9376
25.9625
25.9655
25.9884
25.9908
26.0111
26.0124
26.0301
26.0302
26.0454
26.0445
26.0573
26.0552
26.0657
26.0626
26.0713
26.0674
26.0747
26.0705
26.0769
26.0727
26.0786
26.0747
26.0801
26.0765
26.0816
26.0783
26.0831
26.0801
26.0847
26.082
26.0864
26.084
26.0881
26.086
26.0899
26.088
26.0918
26.0901
26.0937
26.0922
26.0957
26.0944
26.0977
26.0965
26.0997
26.0988
26.1018
26.101
26.1039
26.1032
26.106
26.1055
26.1082
26.1077
26.1103
26.11
26.1124
26.1121
26.1144
26.1142
26.1163
26.1162
26.1182
26.1181
26.1192
26.1216
26.1023
32.5607
34.3723
34.4128
34.4479
34.4244
34.4556
34.444
34.4757
34.4691
34.4986
34.4952
34.5235
34.5229
34.5497
34.5501
34.5746
34.5756
34.5984
34.6001
34.6215
34.6232
34.6427
34.6442
34.6621
34.6635
34.6799
34.6809
34.6955
34.6957
34.7084
34.7079
34.7188
34.7175
34.7268
34.7247
34.7323
34.7295
34.7358
34.7325
34.7379
34.7344
34.7391
34.7357
34.7399
34.7368
34.7407
34.7377
34.7414
34.7387
34.7422
34.7397
34.743
34.7407
34.7438
34.7418
34.7447
34.7428
34.7456
34.7439
34.7466
34.745
34.7476
34.7462
34.7486
34.7473
34.7496
34.7485
34.7506
34.7496
34.7517
34.7508
34.7528
34.752
34.7538
34.7531
34.7549
34.7543
34.7559
34.7553
34.7569
34.7564
34.7577
34.7573
34.7585
34.758
34.7591
34.7584
34.7603
34.7486
34.7459
95.3975
96.2064
96.2307
96.2691
96.2536
96.2927
96.2937
96.3346
96.3419
96.3794
96.3897
96.4259
96.4395
96.4742
96.4881
96.5194
96.5328
96.562
96.5756
96.6028
96.6157
96.6403
96.652
96.6744
96.6851
96.7055
96.7149
96.7327
96.7401
96.7552
96.7608
96.7733
96.777
96.7871
96.7889
96.7966
96.7967
96.8023
96.8012
96.8053
96.8035
96.8068
96.8047
96.8075
96.8054
96.8079
96.8059
96.8082
96.8063
96.8085
96.8068
96.8088
96.8072
96.8091
96.8077
96.8095
96.8081
96.8098
96.8085
96.8101
96.809
96.8105
96.8094
96.8108
96.8098
96.8111
96.8102
96.8114
96.8106
96.8118
96.811
96.812
96.8113
96.8123
96.8116
96.8125
96.8118
96.8126
96.8119
96.8126
96.8119
96.8125
96.8117
96.8121
96.8112
96.8114
96.81
96.8106
96.7807
96.7594
23.0266
23.8681
24.0305
24.1449
24.2386
24.3279
24.4007
24.4766
24.5365
24.6041
24.6564
24.7185
24.7652
24.822
24.8637
24.916
24.954
25.0025
25.037
25.0814
25.1122
25.1521
25.1791
25.2144
25.2372
25.2675
25.2857
25.3106
25.324
25.3437
25.3527
25.3676
25.3726
25.3833
25.3851
25.3925
25.3921
25.3973
25.3957
25.3995
25.3974
25.4006
25.3983
25.4011
25.3989
25.4015
25.3994
25.4018
25.3999
25.4022
25.4004
25.4025
25.4009
25.4029
25.4014
25.4033
25.402
25.4037
25.4025
25.4042
25.4031
25.4047
25.4036
25.4052
25.4042
25.4057
25.4048
25.4062
25.4055
25.4068
25.4061
25.4074
25.4068
25.4081
25.4076
25.4088
25.4083
25.4095
25.4092
25.4104
25.4101
25.4114
25.4112
25.4127
25.4125
25.4143
25.414
25.4174
25.4122
25.4153
20.9666
22.6008
22.8001
22.9136
23.0005
23.0868
23.1565
23.2289
23.2874
23.3507
23.4025
23.4601
23.5069
23.5594
23.6016
23.6496
23.6881
23.7324
23.7677
23.8081
23.8397
23.876
23.904
23.9361
23.9601
23.9876
24.0071
24.0296
24.0446
24.0623
24.0729
24.0861
24.0928
24.1021
24.1056
24.1117
24.1129
24.1167
24.1167
24.1192
24.1185
24.1203
24.1193
24.1209
24.1199
24.1212
24.1203
24.1216
24.1207
24.1219
24.1211
24.1222
24.1215
24.1226
24.1219
24.123
24.1224
24.1234
24.1228
24.1238
24.1233
24.1242
24.1238
24.1247
24.1243
24.1252
24.1249
24.1257
24.1254
24.1262
24.126
24.1268
24.1266
24.1274
24.1272
24.128
24.1279
24.1286
24.1285
24.1293
24.1292
24.1301
24.13
24.1309
24.1308
24.1318
24.1316
24.1324
24.1337
24.1333
19.025
21.2546
21.5201
21.6251
21.6993
21.7726
21.8349
21.8978
21.9514
22.0063
22.0542
22.1044
22.1488
22.195
22.2353
22.2774
22.3143
22.3531
22.3872
22.423
22.454
22.4862
22.5138
22.5425
22.5667
22.5916
22.6119
22.6325
22.6487
22.665
22.6772
22.6895
22.698
22.7066
22.7119
22.7175
22.7202
22.7236
22.7247
22.7266
22.7269
22.728
22.7279
22.7287
22.7285
22.7291
22.7289
22.7294
22.7292
22.7297
22.7295
22.7301
22.7299
22.7304
22.7302
22.7307
22.7306
22.7311
22.731
22.7314
22.7314
22.7318
22.7318
22.7322
22.7322
22.7326
22.7326
22.733
22.733
22.7334
22.7334
22.7339
22.7339
22.7343
22.7344
22.7348
22.7348
22.7352
22.7353
22.7357
22.7358
22.7362
22.7362
22.7367
22.7366
22.7371
22.7369
22.7375
22.7384
22.7233
18.496
20.8881
21.1643
21.2476
21.3022
21.3598
21.4108
21.4641
21.5105
21.5579
21.5999
21.6441
21.684
21.7255
21.7623
21.8001
21.8338
21.8688
21.9002
21.9328
21.9616
21.9911
22.0169
22.0433
22.0663
22.0896
22.1094
22.1291
22.1452
22.161
22.1735
22.1857
22.1949
22.2037
22.2098
22.2156
22.2191
22.2226
22.2242
22.2262
22.2267
22.2278
22.2279
22.2285
22.2284
22.2289
22.2288
22.2292
22.229
22.2294
22.2293
22.2296
22.2295
22.2299
22.2298
22.2301
22.2301
22.2304
22.2303
22.2306
22.2306
22.2309
22.2309
22.2312
22.2312
22.2315
22.2315
22.2318
22.2318
22.2321
22.2321
22.2324
22.2324
22.2327
22.2327
22.233
22.233
22.2333
22.2333
22.2336
22.2336
22.2339
22.2339
22.2342
22.2341
22.2345
22.2343
22.2346
22.2339
22.2227
18.1601
20.6697
20.9444
21.0065
21.0412
21.0815
21.119
21.1605
21.197
21.2352
21.2692
21.3056
21.3388
21.3739
21.405
21.4371
21.4655
21.4954
21.5221
21.5502
21.5749
21.6004
21.6226
21.6456
21.6656
21.6862
21.7036
21.7212
21.7356
21.75
21.7613
21.7726
21.7811
21.7895
21.7953
21.801
21.8044
21.8079
21.8095
21.8115
21.8121
21.8132
21.8132
21.8139
21.8138
21.8142
21.8141
21.8145
21.8143
21.8147
21.8145
21.8149
21.8147
21.8151
21.815
21.8153
21.8152
21.8155
21.8154
21.8157
21.8157
21.8159
21.8159
21.8162
21.8162
21.8164
21.8164
21.8167
21.8167
21.8169
21.8169
21.8172
21.8172
21.8175
21.8175
21.8177
21.8178
21.818
21.818
21.8183
21.8183
21.8186
21.8185
21.8188
21.8187
21.819
21.8188
21.8188
21.8197
21.8038
18.4942
20.856
21.0929
21.1384
21.1593
21.1869
21.2126
21.2434
21.27
21.2992
21.3248
21.3534
21.3793
21.4073
21.4317
21.4574
21.4798
21.5039
21.5252
21.5479
21.5676
21.5883
21.606
21.6248
21.6408
21.6578
21.6719
21.6864
21.6982
21.7102
21.7195
21.729
21.7361
21.7433
21.7482
21.7532
21.756
21.7591
21.7605
21.7623
21.7628
21.7638
21.7639
21.7645
21.7644
21.7649
21.7648
21.7652
21.7651
21.7655
21.7654
21.7657
21.7656
21.766
21.7659
21.7663
21.7662
21.7665
21.7665
21.7668
21.7668
21.7671
21.7671
21.7674
21.7674
21.7677
21.7677
21.768
21.768
21.7683
21.7684
21.7687
21.7687
21.769
21.769
21.7693
21.7694
21.7697
21.7697
21.77
21.77
21.7703
21.7703
21.7706
21.7706
21.7709
21.7708
21.771
21.7707
21.7602
19.0041
21.1485
21.3307
21.3612
21.373
21.3915
21.4074
21.4286
21.4454
21.4658
21.4825
21.5031
21.5203
21.5406
21.5568
21.5754
21.5904
21.608
21.6222
21.6388
21.652
21.6671
21.6789
21.6927
21.7034
21.7159
21.7253
21.7361
21.7438
21.7528
21.759
21.7662
21.7708
21.7764
21.7794
21.7834
21.7851
21.7877
21.7883
21.79
21.7901
21.7911
21.791
21.7918
21.7916
21.7922
21.792
21.7926
21.7924
21.793
21.7928
21.7933
21.7932
21.7937
21.7936
21.7941
21.794
21.7945
21.7944
21.7949
21.7948
21.7953
21.7952
21.7957
21.7957
21.7961
21.7961
21.7966
21.7966
21.797
21.7971
21.7975
21.7975
21.798
21.798
21.7985
21.7985
21.799
21.799
21.7995
21.7996
21.8
21.8001
21.8006
21.8005
21.801
21.801
21.8014
21.8029
21.7891
20.8692
22.338
22.413
22.4255
22.4293
22.4423
22.4493
22.4645
22.4717
22.4867
22.494
22.5092
22.5167
22.5315
22.5384
22.5521
22.5584
22.5714
22.5773
22.5896
22.5949
22.6061
22.6108
22.621
22.6253
22.6346
22.6382
22.6463
22.649
22.6559
22.6579
22.6636
22.6649
22.6695
22.6699
22.6735
22.6733
22.6759
22.6753
22.6773
22.6764
22.6781
22.6771
22.6786
22.6777
22.679
22.6781
22.6794
22.6786
22.6798
22.6791
22.6802
22.6796
22.6807
22.6801
22.6811
22.6806
22.6816
22.6811
22.682
22.6816
22.6825
22.6821
22.683
22.6827
22.6836
22.6833
22.6841
22.6839
22.6847
22.6845
22.6853
22.6851
22.6859
22.6858
22.6866
22.6865
22.6873
22.6872
22.688
22.688
22.6889
22.6888
22.6897
22.6897
22.6907
22.6907
22.6914
22.6931
22.6928
22.7946
23.4233
23.4454
23.4482
23.4491
23.456
23.4568
23.4665
23.4664
23.4769
23.4763
23.4873
23.4866
23.4976
23.4965
23.507
23.5057
23.5158
23.5146
23.5242
23.5228
23.5318
23.5303
23.5387
23.5372
23.5449
23.5434
23.5503
23.5486
23.5548
23.5529
23.5584
23.5563
23.5612
23.5589
23.5631
23.5607
23.5644
23.5619
23.5652
23.5628
23.5657
23.5634
23.5662
23.564
23.5666
23.5646
23.567
23.5652
23.5674
23.5657
23.5678
23.5663
23.5683
23.5669
23.5688
23.5675
23.5692
23.5681
23.5697
23.5687
23.5703
23.5693
23.5708
23.5699
23.5714
23.5706
23.572
23.5713
23.5726
23.572
23.5733
23.5727
23.574
23.5735
23.5747
23.5744
23.5756
23.5753
23.5765
23.5763
23.5776
23.5774
23.5789
23.5788
23.5806
23.5805
23.5838
23.5789
23.5819
4.63128
5.01017
5.05601
5.07747
5.10189
5.12349
5.14233
5.1636
5.17777
5.19848
5.2092
5.22911
5.23719
5.25594
5.26213
5.27972
5.28455
5.30095
5.30464
5.31974
5.32244
5.3362
5.33801
5.35037
5.35128
5.36213
5.36216
5.37151
5.3707
5.37867
5.37711
5.38382
5.38164
5.38726
5.38467
5.38943
5.38664
5.39078
5.38796
5.39167
5.38894
5.39233
5.38975
5.3929
5.39049
5.39343
5.39119
5.39394
5.39187
5.39445
5.39254
5.39496
5.3932
5.39549
5.39387
5.39603
5.39455
5.39659
5.39523
5.39717
5.39594
5.39779
5.39666
5.39843
5.39741
5.39911
5.39819
5.39983
5.39901
5.40061
5.39987
5.40144
5.40079
5.40235
5.40177
5.40333
5.40283
5.40442
5.40398
5.4056
5.40523
5.40689
5.40657
5.40826
5.40799
5.40969
5.40931
5.41149
5.40931
5.41097
4.26911
5.20953
5.33037
5.36488
5.38834
5.41035
5.42806
5.44692
5.46126
5.47825
5.49045
5.50606
5.51659
5.53089
5.54008
5.55328
5.56144
5.57364
5.58085
5.59198
5.59827
5.6083
5.61367
5.62257
5.62695
5.6346
5.63795
5.64432
5.64668
5.65177
5.65325
5.65716
5.65789
5.66078
5.66093
5.66303
5.66281
5.6644
5.66397
5.66528
5.66477
5.66592
5.6654
5.66645
5.66596
5.66695
5.66651
5.66744
5.66704
5.66793
5.66758
5.66843
5.66812
5.66893
5.66867
5.66944
5.66922
5.66997
5.66978
5.6705
5.67035
5.67105
5.67094
5.67162
5.67154
5.6722
5.67215
5.6728
5.67278
5.67343
5.67343
5.67408
5.67411
5.67476
5.67482
5.67547
5.67556
5.67623
5.67634
5.67703
5.67716
5.67788
5.67802
5.67878
5.67891
5.67968
5.67987
5.68023
5.68112
5.68263
3.46824
4.67389
4.87552
4.9248
4.94752
4.96671
4.98188
4.99717
5.00985
5.02319
5.03455
5.04671
5.05705
5.06809
5.07745
5.08753
5.09612
5.10542
5.11329
5.12176
5.12885
5.13646
5.14275
5.14949
5.15495
5.16073
5.16525
5.17
5.17356
5.1773
5.17995
5.18276
5.18459
5.18656
5.18769
5.189
5.18962
5.19046
5.19077
5.19134
5.1915
5.1919
5.19201
5.19235
5.19243
5.19274
5.19283
5.19312
5.19321
5.1935
5.1936
5.19388
5.19398
5.19426
5.19436
5.19464
5.19475
5.19502
5.19513
5.1954
5.19552
5.19579
5.19591
5.19618
5.1963
5.19657
5.1967
5.19696
5.1971
5.19736
5.1975
5.19777
5.19791
5.19818
5.19833
5.19859
5.19875
5.19902
5.19918
5.19945
5.19961
5.1999
5.20005
5.20035
5.20049
5.2008
5.20092
5.20125
5.20176
5.1993
3.18852
4.43874
4.66978
4.71713
4.73665
4.74915
4.76181
4.77218
4.78312
4.79255
4.80254
4.81158
4.82085
4.82935
4.83777
4.84567
4.85341
4.86087
4.86804
4.87497
4.88147
4.88778
4.89361
4.8993
4.90445
4.90942
4.91379
4.91793
4.92145
4.92475
4.92746
4.92996
4.93191
4.93367
4.93494
4.93605
4.93678
4.93743
4.9378
4.93816
4.93834
4.93855
4.93864
4.93878
4.93884
4.93896
4.93902
4.93913
4.93919
4.9393
4.93936
4.93947
4.93953
4.93964
4.9397
4.93981
4.93988
4.93999
4.94006
4.94017
4.94024
4.94035
4.94042
4.94053
4.94061
4.94072
4.9408
4.9409
4.94099
4.9411
4.94119
4.9413
4.94139
4.9415
4.9416
4.94171
4.94181
4.94192
4.94203
4.94215
4.94224
4.94237
4.94244
4.94257
4.9426
4.94272
4.94268
4.94272
4.94237
4.94023
3.04799
4.31218
4.54634
4.59125
4.6045
4.614
4.62244
4.6311
4.63904
4.64723
4.65491
4.66294
4.67036
4.67795
4.6848
4.69182
4.69819
4.70481
4.71079
4.71694
4.7224
4.72799
4.73291
4.73798
4.74238
4.74686
4.75064
4.75441
4.75749
4.76054
4.76295
4.76532
4.76708
4.76878
4.76994
4.77105
4.7717
4.77236
4.77267
4.77304
4.77316
4.77337
4.77341
4.77354
4.77356
4.77365
4.77366
4.77375
4.77376
4.77384
4.77385
4.77394
4.77395
4.77403
4.77404
4.77412
4.77414
4.77422
4.77424
4.77432
4.77434
4.77441
4.77444
4.77451
4.77453
4.77461
4.77463
4.77471
4.77474
4.77481
4.77484
4.77491
4.77494
4.77502
4.77505
4.77512
4.77515
4.77522
4.77525
4.77533
4.77535
4.77543
4.77545
4.77552
4.77552
4.77559
4.77557
4.77559
4.77567
4.77311
3.18828
4.43304
4.65623
4.69543
4.70745
4.71325
4.72017
4.72541
4.73184
4.73716
4.74343
4.74904
4.75516
4.76069
4.76632
4.77157
4.77681
4.78189
4.78682
4.79162
4.79611
4.80052
4.80459
4.80865
4.81232
4.81595
4.81912
4.82221
4.82483
4.82737
4.82945
4.83145
4.833
4.83447
4.83551
4.83649
4.8371
4.8377
4.83802
4.83837
4.83852
4.83874
4.83882
4.83897
4.83903
4.83916
4.83921
4.83933
4.83938
4.8395
4.83956
4.83968
4.83974
4.83985
4.83992
4.84003
4.8401
4.84021
4.84028
4.8404
4.84047
4.84058
4.84065
4.84077
4.84085
4.84096
4.84104
4.84115
4.84124
4.84135
4.84144
4.84155
4.84165
4.84176
4.84186
4.84198
4.84208
4.8422
4.8423
4.84242
4.84252
4.84265
4.84273
4.84286
4.8429
4.84302
4.84299
4.84301
4.84273
4.84075
3.46554
4.65505
4.83946
4.87243
4.88114
4.88804
4.89272
4.89857
4.90292
4.90853
4.91294
4.91854
4.92291
4.92821
4.93226
4.93717
4.94097
4.94562
4.94919
4.95349
4.95673
4.96064
4.96358
4.96715
4.9698
4.97298
4.97527
4.978
4.97988
4.98216
4.98365
4.98551
4.98662
4.98805
4.98879
4.98983
4.99027
4.99101
4.99125
4.99177
4.99191
4.99232
4.99242
4.99276
4.99285
4.99318
4.99326
4.99357
4.99366
4.99397
4.99406
4.99436
4.99446
4.99475
4.99486
4.99515
4.99526
4.99554
4.99566
4.99594
4.99606
4.99634
4.99646
4.99674
4.99687
4.99714
4.99727
4.99755
4.99769
4.99796
4.9981
4.99837
4.99852
4.99879
4.99895
4.99922
4.99938
4.99966
4.99982
5.00011
5.00027
5.00056
5.00072
5.00103
5.00118
5.0015
5.00164
5.00194
5.00256
5.00041
4.25485
5.16172
5.2548
5.26648
5.27115
5.27684
5.28055
5.28669
5.28967
5.29594
5.29851
5.30476
5.30696
5.31288
5.31467
5.3202
5.32172
5.32692
5.3282
5.33301
5.33404
5.33844
5.33927
5.3433
5.34396
5.3476
5.34805
5.35125
5.3515
5.35428
5.35434
5.35673
5.35662
5.35862
5.35833
5.36001
5.35959
5.36101
5.36051
5.36176
5.36124
5.36237
5.36187
5.36292
5.36246
5.36345
5.36303
5.36397
5.3636
5.36449
5.36416
5.36501
5.36473
5.36554
5.3653
5.36608
5.36588
5.36663
5.36646
5.36719
5.36705
5.36776
5.36766
5.36834
5.36827
5.36894
5.36891
5.36956
5.36955
5.3702
5.37022
5.37087
5.37092
5.37157
5.37164
5.3723
5.3724
5.37307
5.37319
5.37389
5.37403
5.37475
5.37491
5.37567
5.37582
5.37658
5.37681
5.37716
5.37815
5.37953
4.58896
4.92366
4.94184
4.94183
4.94803
4.95403
4.95913
4.96772
4.97055
4.98013
4.98116
4.99098
4.99062
5.00026
4.99884
5.00817
5.00601
5.01492
5.01227
5.02064
5.01766
5.02547
5.02232
5.02957
5.02633
5.03302
5.02973
5.03586
5.03258
5.03818
5.03493
5.04004
5.03685
5.0415
5.03839
5.04262
5.03962
5.04349
5.04063
5.0442
5.0415
5.04481
5.04229
5.04537
5.04303
5.04591
5.04374
5.04644
5.04443
5.04696
5.04511
5.04749
5.04578
5.04803
5.04646
5.04858
5.04714
5.04915
5.04783
5.04974
5.04854
5.05036
5.04927
5.051
5.05002
5.05169
5.0508
5.05242
5.05162
5.05319
5.05248
5.05403
5.0534
5.05493
5.05438
5.05592
5.05543
5.05699
5.05658
5.05817
5.05782
5.05946
5.05916
5.06083
5.06057
5.06225
5.06189
5.06404
5.06192
5.06342
23.0266
23.8681
24.0305
24.1449
24.2386
24.3279
24.4007
24.4766
24.5365
24.6041
24.6564
24.7185
24.7652
24.822
24.8637
24.916
24.954
25.0025
25.037
25.0814
25.1122
25.1521
25.1791
25.2144
25.2372
25.2675
25.2857
25.3106
25.324
25.3437
25.3527
25.3676
25.3726
25.3833
25.3851
25.3925
25.3921
25.3973
25.3957
25.3995
25.3974
25.4006
25.3983
25.4011
25.3989
25.4015
25.3994
25.4018
25.3999
25.4022
25.4004
25.4025
25.4009
25.4029
25.4014
25.4033
25.402
25.4037
25.4025
25.4042
25.4031
25.4047
25.4036
25.4052
25.4042
25.4057
25.4048
25.4062
25.4055
25.4068
25.4061
25.4074
25.4068
25.4081
25.4076
25.4088
25.4083
25.4095
25.4092
25.4104
25.4101
25.4114
25.4112
25.4127
25.4125
25.4143
25.414
25.4174
25.4122
25.4153
20.9666
22.6008
22.8001
22.9136
23.0005
23.0868
23.1565
23.2289
23.2874
23.3507
23.4025
23.4601
23.5069
23.5594
23.6016
23.6496
23.6881
23.7324
23.7677
23.8081
23.8397
23.876
23.904
23.9361
23.9601
23.9876
24.0071
24.0296
24.0446
24.0623
24.0729
24.0861
24.0928
24.1021
24.1056
24.1117
24.1129
24.1167
24.1167
24.1192
24.1185
24.1203
24.1193
24.1209
24.1199
24.1212
24.1203
24.1216
24.1207
24.1219
24.1211
24.1222
24.1215
24.1226
24.1219
24.123
24.1224
24.1234
24.1228
24.1238
24.1233
24.1242
24.1238
24.1247
24.1243
24.1252
24.1249
24.1257
24.1254
24.1262
24.126
24.1268
24.1266
24.1274
24.1272
24.128
24.1279
24.1286
24.1285
24.1293
24.1292
24.1301
24.13
24.1309
24.1308
24.1318
24.1316
24.1324
24.1337
24.1333
19.025
21.2546
21.5201
21.6251
21.6993
21.7726
21.8349
21.8978
21.9514
22.0063
22.0542
22.1044
22.1488
22.195
22.2353
22.2774
22.3143
22.3531
22.3872
22.423
22.454
22.4862
22.5138
22.5425
22.5667
22.5916
22.6119
22.6325
22.6487
22.665
22.6772
22.6895
22.698
22.7066
22.7119
22.7175
22.7202
22.7236
22.7247
22.7266
22.7269
22.728
22.7279
22.7287
22.7285
22.7291
22.7289
22.7294
22.7292
22.7297
22.7295
22.7301
22.7299
22.7304
22.7302
22.7307
22.7306
22.7311
22.731
22.7314
22.7314
22.7318
22.7318
22.7322
22.7322
22.7326
22.7326
22.733
22.733
22.7334
22.7334
22.7339
22.7339
22.7343
22.7344
22.7348
22.7348
22.7352
22.7353
22.7357
22.7358
22.7362
22.7362
22.7367
22.7366
22.7371
22.7369
22.7375
22.7384
22.7233
18.496
20.8881
21.1643
21.2476
21.3022
21.3598
21.4108
21.4641
21.5105
21.5579
21.5999
21.6441
21.684
21.7255
21.7623
21.8001
21.8338
21.8688
21.9002
21.9328
21.9616
21.9911
22.0169
22.0433
22.0663
22.0896
22.1094
22.1291
22.1452
22.161
22.1735
22.1857
22.1949
22.2037
22.2098
22.2156
22.2191
22.2226
22.2242
22.2262
22.2267
22.2278
22.2279
22.2285
22.2284
22.2289
22.2288
22.2292
22.229
22.2294
22.2293
22.2296
22.2295
22.2299
22.2298
22.2301
22.2301
22.2304
22.2303
22.2306
22.2306
22.2309
22.2309
22.2312
22.2312
22.2315
22.2315
22.2318
22.2318
22.2321
22.2321
22.2324
22.2324
22.2327
22.2327
22.233
22.233
22.2333
22.2333
22.2336
22.2336
22.2339
22.2339
22.2342
22.2341
22.2345
22.2343
22.2346
22.2339
22.2227