/*--------------------------------*- C++ -*----------------------------------*\
  =========                 |
  \\      /  F ield         | OpenFOAM: The Open Source CFD Toolbox
   \\    /   O peration     | Website:  https://openfoam.org
    \\  /    A nd           | Version:  7
     \\/     M anipulation  |
\*---------------------------------------------------------------------------*/
FoamFile
{
    version     2.0;
    format      ascii;
    class       volScalarField;
    location    "0.24";
    object      nut;
}
// * * * * * * * * * * * * * * * * * * * * * * * * * * * * * * * * * * * * * //

dimensions      [0 2 -1 0 0 0 0];

internalField   nonuniform List<scalar> 
400
(
3.64949e-06
4.77552e-06
4.60109e-06
4.79123e-06
4.47675e-06
3.71471e-06
2.69968e-06
2.03805e-06
2.10648e-06
2.17176e-06
2.24249e-06
2.60484e-06
3.00244e-06
3.22458e-06
3.32969e-06
3.30699e-06
3.12627e-06
2.7731e-06
2.17034e-06
9.51738e-07
4.46247e-06
4.81166e-06
4.30118e-06
4.18706e-06
4.42658e-06
4.59053e-06
3.64322e-06
2.9368e-06
3.01241e-06
3.21351e-06
3.18826e-06
3.08587e-06
2.93779e-06
2.52179e-06
2.12213e-06
1.70325e-06
1.37349e-06
9.79483e-07
5.71779e-07
2.22515e-07
5.16408e-06
4.54391e-06
3.9323e-06
4.04669e-06
4.22398e-06
4.38995e-06
3.44782e-06
3.17536e-06
3.51047e-06
2.81744e-06
2.43217e-06
2.00364e-06
1.57683e-06
1.30988e-06
1.05682e-06
8.45346e-07
6.09607e-07
2.81904e-07
1.59708e-07
9.68371e-08
5.59926e-06
4.24754e-06
3.97825e-06
3.86799e-06
3.9804e-06
3.9726e-06
2.97933e-06
2.82983e-06
2.41976e-06
1.92708e-06
1.7153e-06
1.56745e-06
1.45411e-06
1.3856e-06
1.41237e-06
1.28759e-06
1.10992e-06
6.39893e-07
2.67908e-07
1.53394e-07
4.5474e-06
3.95682e-06
3.96031e-06
3.692e-06
3.30775e-06
2.97952e-06
2.3023e-06
2.14945e-06
1.88475e-06
1.72789e-06
1.72859e-06
1.77484e-06
1.98079e-06
2.11049e-06
2.14677e-06
2.11901e-06
2.09641e-06
1.68723e-06
8.84984e-07
3.41267e-07
3.98396e-06
3.48766e-06
3.81049e-06
3.42427e-06
3.02796e-06
2.36588e-06
2.00489e-06
1.92634e-06
1.8628e-06
1.8944e-06
2.04486e-06
2.21806e-06
2.4109e-06
2.51689e-06
2.63309e-06
2.67803e-06
2.68872e-06
2.69522e-06
2.39146e-06
1.31102e-06
3.17323e-06
3.37331e-06
3.18929e-06
3.02655e-06
2.57907e-06
2.09673e-06
1.93744e-06
1.92883e-06
1.94319e-06
2.11205e-06
2.18078e-06
2.27711e-06
2.37629e-06
2.43178e-06
2.40126e-06
2.37124e-06
2.41211e-06
2.54736e-06
2.71179e-06
2.80661e-06
2.91143e-06
3.14365e-06
3.01963e-06
2.61549e-06
2.20647e-06
2.01508e-06
1.96278e-06
2.01262e-06
2.03068e-06
2.05268e-06
2.14817e-06
2.17252e-06
2.22439e-06
2.22208e-06
2.11891e-06
2.01436e-06
2.04926e-06
2.1002e-06
2.28021e-06
2.37411e-06
3.11873e-06
3.00154e-06
2.77226e-06
2.38733e-06
2.08394e-06
1.96698e-06
1.92568e-06
1.97986e-06
1.98975e-06
1.9947e-06
2.04063e-06
2.13598e-06
2.19019e-06
2.12745e-06
2.10008e-06
1.94812e-06
1.96178e-06
2.0407e-06
2.2355e-06
2.27789e-06
3.12532e-06
2.93485e-06
2.85342e-06
2.28994e-06
2.02102e-06
1.95565e-06
1.95283e-06
1.99195e-06
1.96601e-06
2.00791e-06
2.01548e-06
2.05457e-06
2.19207e-06
2.02971e-06
1.92057e-06
1.98232e-06
2.04191e-06
2.07978e-06
2.20541e-06
2.27662e-06
2.99601e-06
3.10938e-06
3.04818e-06
2.36755e-06
2.03148e-06
1.88295e-06
1.90842e-06
1.95071e-06
1.967e-06
2.07797e-06
1.95683e-06
1.93972e-06
1.94071e-06
1.95283e-06
1.9585e-06
2.04753e-06
2.10538e-06
2.19341e-06
2.32835e-06
2.4188e-06
2.7547e-06
3.08272e-06
2.98828e-06
2.55449e-06
2.17271e-06
1.88169e-06
1.8588e-06
1.93773e-06
1.99602e-06
2.07442e-06
2.03062e-06
2.03421e-06
2.03036e-06
2.04312e-06
2.01809e-06
2.09529e-06
2.17733e-06
2.26223e-06
2.43515e-06
2.55549e-06
2.31297e-06
3.02466e-06
3.05762e-06
2.72007e-06
2.36038e-06
1.97917e-06
1.83417e-06
1.83419e-06
1.90199e-06
2.03688e-06
2.10223e-06
1.98864e-06
1.95567e-06
2.00633e-06
2.10652e-06
2.18138e-06
2.29269e-06
2.42083e-06
2.62968e-06
2.75599e-06
2.44161e-06
3.27131e-06
3.4416e-06
3.03309e-06
2.66706e-06
2.29578e-06
1.99483e-06
1.87044e-06
1.83151e-06
1.86755e-06
1.93444e-06
1.9563e-06
2.03658e-06
2.22716e-06
2.34693e-06
2.46518e-06
2.50667e-06
2.64002e-06
2.88589e-06
2.9757e-06
3.50282e-06
3.99357e-06
4.354e-06
3.75262e-06
2.96151e-06
2.48182e-06
2.20491e-06
2.00626e-06
1.84318e-06
1.84951e-06
1.95756e-06
2.13957e-06
2.39136e-06
2.58055e-06
2.70072e-06
2.82496e-06
2.87819e-06
3.03056e-06
3.22913e-06
3.17211e-06
5.94649e-06
4.73279e-06
5.27711e-06
4.2526e-06
3.38472e-06
2.79518e-06
2.3406e-06
2.1107e-06
1.98398e-06
1.91691e-06
2.16703e-06
2.56669e-06
2.68538e-06
2.88187e-06
3.01468e-06
3.14221e-06
3.22683e-06
3.47371e-06
3.46978e-06
3.10515e-06
5.68145e-06
5.3957e-06
5.02415e-06
6.56619e-06
4.45614e-06
3.19475e-06
2.77072e-06
2.70759e-06
2.37485e-06
2.51895e-06
2.8622e-06
2.87029e-06
3.08191e-06
3.27359e-06
3.34706e-06
3.67552e-06
3.81856e-06
3.81278e-06
3.22455e-06
1.88319e-06
5.26079e-06
5.01706e-06
4.79748e-06
4.87095e-06
4.38937e-06
3.82272e-06
3.10906e-06
3.02853e-06
3.02476e-06
3.28522e-06
3.25908e-06
3.40624e-06
3.71806e-06
3.85187e-06
3.99195e-06
4.073e-06
3.99979e-06
3.34042e-06
1.4462e-06
6.62413e-07
5.78856e-06
5.28151e-06
5.31601e-06
4.81058e-06
4.04605e-06
4.3993e-06
4.18752e-06
4.07813e-06
4.07228e-06
4.18962e-06
4.31289e-06
4.4565e-06
4.49107e-06
4.43417e-06
4.19562e-06
3.74024e-06
2.67783e-06
1.62296e-06
9.69557e-07
3.53882e-07
5.45055e-06
4.81449e-06
4.45059e-06
3.84654e-06
5.3201e-06
5.34645e-06
4.64332e-06
4.58228e-06
5.14075e-06
5.59563e-06
5.59374e-06
5.33156e-06
4.56753e-06
3.58923e-06
2.7775e-06
2.12396e-06
1.53631e-06
1.05758e-06
7.67418e-07
4.65982e-07
)
;

boundaryField
{
    upperWall
    {
        type            zeroGradient;
    }
    lowerWall
    {
        type            zeroGradient;
    }
    inlet
    {
        type            zeroGradient;
    }
    outlet
    {
        type            zeroGradient;
    }
    frontAndBack
    {
        type            empty;
    }
}


// ************************************************************************* //
