/*--------------------------------*- C++ -*----------------------------------*\
  =========                 |
  \\      /  F ield         | OpenFOAM: The Open Source CFD Toolbox
   \\    /   O peration     | Website:  https://openfoam.org
    \\  /    A nd           | Version:  7
     \\/     M anipulation  |
\*---------------------------------------------------------------------------*/
FoamFile
{
    version     2.0;
    format      ascii;
    class       volScalarField;
    location    "0.24";
    object      pMean;
}
// * * * * * * * * * * * * * * * * * * * * * * * * * * * * * * * * * * * * * //

dimensions      [1 -1 -2 0 0 0 0];

internalField   nonuniform List<scalar> 
400
(
99918.8
99916.1
99914.8
99914.6
99914.5
99914.5
99914.6
99914.7
99915.3
99915.9
99916.7
99917.4
99918.2
99918.9
99919.6
99920.4
99921.4
99922.7
99924
99924.6
99916.2
99916.1
99914.8
99913.4
99912.6
99912.3
99912.3
99912.4
99913
99913.7
99914.6
99915.8
99917.1
99918.3
99919.3
99920.1
99920.9
99921.7
99922.6
99923.3
99914.7
99914.9
99912.8
99910.4
99909.1
99908.8
99908.5
99908.4
99909
99910.1
99911.3
99912.9
99914.7
99916.6
99918.1
99918.9
99919.4
99919.7
99919.8
99920
99914.4
99913.5
99910.5
99907.5
99905.8
99905.1
99904.4
99904.3
99904.7
99905.8
99907.2
99909.1
99911.5
99914
99915.8
99916.7
99917.1
99916.7
99916.1
99915.8
99914
99912.3
99908.7
99905.4
99902.9
99901.4
99900.4
99899.9
99899.9
99900.8
99902.3
99904.6
99907.5
99910.3
99912.3
99913.5
99913.9
99913.3
99912.2
99911.5
99913.3
99911.2
99907.6
99904
99900.8
99898.2
99896.2
99895.2
99895
99895.7
99897.3
99899.8
99902.9
99906.1
99908.4
99910
99910.5
99909.8
99908.4
99907.6
99912.5
99910.3
99906.6
99902.8
99898.9
99895.3
99892.6
99890.9
99890.4
99891
99892.8
99895.5
99898.9
99902.2
99904.9
99906.7
99907.3
99906.7
99905.1
99904.4
99911.6
99909.6
99905.9
99901.8
99897.2
99893.1
99889.7
99887.5
99886.6
99887.2
99889.2
99892
99895.5
99899
99902
99903.9
99904.7
99904.1
99902.6
99902
99911.2
99909.3
99905.6
99901
99895.9
99891.2
99887.3
99884.8
99883.7
99884.4
99886.6
99889.6
99893.1
99896.7
99899.8
99901.9
99902.8
99902.1
99900.8
99900.3
99911.3
99909.2
99905.4
99900.6
99895.1
99890.1
99886.1
99883.5
99882.4
99883
99885.1
99888.3
99891.8
99895.4
99898.6
99900.8
99901.8
99901.4
99900.3
99899.9
99911.7
99909.5
99905.6
99900.7
99895.1
99889.8
99885.9
99883.5
99882.6
99883.2
99885.2
99888.4
99891.9
99895.3
99898.5
99900.9
99902.2
99902.1
99901.4
99901
99911.9
99909.7
99906
99901.2
99895.7
99890.7
99887
99884.8
99884.1
99884.7
99886.8
99889.7
99893.1
99896.5
99899.7
99902.2
99903.6
99903.7
99903.2
99903
99911.9
99910
99906.4
99901.9
99897
99892.4
99889.1
99887.3
99886.8
99887.6
99889.6
99892.4
99895.6
99898.9
99902
99904.4
99905.8
99905.9
99905.5
99905.2
99912.3
99910.6
99907.1
99902.9
99898.5
99894.8
99892
99890.6
99890.5
99891.6
99893.5
99896.1
99899.1
99902.3
99905.1
99907.3
99908.6
99908.8
99908.3
99907.9
99913
99911.3
99907.8
99903.9
99900.1
99897.3
99895.5
99894.7
99895.1
99896.2
99898.1
99900.5
99903.3
99906.1
99908.6
99910.7
99911.7
99911.9
99911.4
99911
99913.7
99912.4
99908.8
99905.1
99902
99900.2
99899.4
99899.3
99900
99901.1
99902.8
99905
99907.6
99910.2
99912.4
99914
99914.9
99915
99914.5
99914.1
99914.4
99913.8
99910.6
99907.3
99905
99904
99903.9
99904.2
99905
99906.1
99907.5
99909.3
99911.6
99913.9
99915.7
99917
99917.8
99918
99917.7
99917.4
99915.2
99915.2
99912.9
99910.4
99908.9
99908.6
99908.8
99909.2
99909.9
99910.9
99912
99913.3
99915
99916.8
99918.2
99919.3
99920.1
99920.5
99920.6
99920.7
99916.5
99916.3
99915.2
99914
99913.3
99913.3
99913.4
99913.7
99914.3
99915.1
99915.7
99916.4
99917.5
99918.7
99919.8
99920.7
99921.6
99922.3
99923
99923.4
99919.1
99916.5
99915.6
99915.7
99915.9
99916.1
99916.2
99916.4
99916.8
99917.3
99917.7
99918.1
99918.6
99919.3
99920.1
99921.1
99922.1
99923.1
99924.1
99924.5
)
;

boundaryField
{
    upperWall
    {
        type            calculated;
        value           nonuniform List<scalar> 
20
(
99919.1
99916.5
99915.6
99915.7
99915.9
99916.1
99916.2
99916.4
99916.8
99917.3
99917.7
99918.1
99918.6
99919.3
99920.1
99921.1
99922.1
99923.1
99924.1
99924.5
)
;
    }
    lowerWall
    {
        type            calculated;
        value           nonuniform List<scalar> 
20
(
99918.8
99916.1
99914.8
99914.6
99914.5
99914.5
99914.6
99914.7
99915.3
99915.9
99916.7
99917.4
99918.2
99918.9
99919.6
99920.4
99921.4
99922.7
99924
99924.6
)
;
    }
    inlet
    {
        type            calculated;
        value           nonuniform List<scalar> 
20
(
99918.8
99916.2
99914.7
99914.4
99914
99913.3
99912.5
99911.6
99911.2
99911.3
99911.7
99911.9
99911.9
99912.3
99913
99913.7
99914.4
99915.2
99916.5
99919.1
)
;
    }
    outlet
    {
        type            calculated;
        value           nonuniform List<scalar> 
20
(
99924.6
99923.3
99920
99915.8
99911.5
99907.7
99904.4
99902
99900.3
99899.9
99901
99903
99905.3
99908
99911
99914.1
99917.4
99920.7
99923.4
99924.5
)
;
    }
    frontAndBack
    {
        type            empty;
    }
}


// ************************************************************************* //
