/*--------------------------------*- C++ -*----------------------------------*\
  =========                 |
  \\      /  F ield         | OpenFOAM: The Open Source CFD Toolbox
   \\    /   O peration     | Website:  https://openfoam.org
    \\  /    A nd           | Version:  7
     \\/     M anipulation  |
\*---------------------------------------------------------------------------*/
FoamFile
{
    version     2.0;
    format      ascii;
    class       volSymmTensorField;
    location    "0.24";
    object      UPrime2Mean;
}
// * * * * * * * * * * * * * * * * * * * * * * * * * * * * * * * * * * * * * //

dimensions      [0 2 -2 0 0 0 0];

internalField   nonuniform List<symmTensor> 
400
(
(0.172111 0.000762598 0 4.97874e-06 0 0)
(0.162547 0.00382999 0 9.82406e-05 0 0)
(0.149859 0.00630134 0 0.000274774 0 0)
(0.133164 0.00742866 0 0.000424095 0 0)
(0.114573 0.00737069 0 0.000482976 0 0)
(0.096367 0.00648581 0 0.000444566 0 0)
(0.0797315 0.00515713 0 0.000340904 0 0)
(0.0653908 0.00376181 0 0.000222804 0 0)
(0.0535687 0.00252001 0 0.000123861 0 0)
(0.0442686 0.00151405 0 5.61459e-05 0 0)
(0.0371615 0.000762498 0 1.94252e-05 0 0)
(0.031886 0.000223771 0 5.26488e-06 0 0)
(0.0280608 -0.000157236 0 4.98015e-06 0 0)
(0.0254511 -0.000436637 0 1.25474e-05 0 0)
(0.023765 -0.000647422 0 2.39381e-05 0 0)
(0.0228392 -0.000806842 0 3.60917e-05 0 0)
(0.0224921 -0.000914577 0 4.5305e-05 0 0)
(0.0226392 -0.000885024 0 3.9776e-05 0 0)
(0.020699 -0.000174945 0 6.99638e-06 0 0)
(0.0209296 -0.000571246 0 3.66305e-05 0 0)
(0.176173 0.00111674 0 1.20896e-05 0 0)
(0.179442 0.00478244 0 0.000148671 0 0)
(0.184318 0.00811648 0 0.000389847 0 0)
(0.188732 0.0110428 0 0.000683796 0 0)
(0.19198 0.0135354 0 0.000990883 0 0)
(0.193284 0.0153068 0 0.00124201 0 0)
(0.191934 0.0161472 0 0.00137872 0 0)
(0.187964 0.0160968 0 0.0013898 0 0)
(0.181734 0.0153111 0 0.00129491 0 0)
(0.173911 0.0139867 0 0.00112668 0 0)
(0.165108 0.0123312 0 0.000922359 0 0)
(0.155925 0.0105242 0 0.000713269 0 0)
(0.146741 0.00871372 0 0.000522985 0 0)
(0.137996 0.0069839 0 0.000362206 0 0)
(0.129775 0.00545015 0 0.000240599 0 0)
(0.122274 0.0040712 0 0.000149414 0 0)
(0.115725 0.00304156 0 9.41891e-05 0 0)
(0.111007 0.00198688 0 4.99491e-05 0 0)
(0.10288 0.00275968 0 7.89226e-05 0 0)
(0.109999 -0.000789379 0 0.00011309 0 0)
(0.175613 0.000702491 0 5.61284e-06 0 0)
(0.174759 0.00290886 0 5.83387e-05 0 0)
(0.176156 0.00488268 0 0.000153417 0 0)
(0.17981 0.00694485 0 0.000293897 0 0)
(0.185334 0.00911106 0 0.000477873 0 0)
(0.191817 0.0110821 0 0.000669412 0 0)
(0.198352 0.0126008 0 0.000824482 0 0)
(0.204321 0.013572 0 0.000918682 0 0)
(0.209237 0.0139899 0 0.000946129 0 0)
(0.212795 0.0138767 0 0.000910724 0 0)
(0.214911 0.0133363 0 0.000830419 0 0)
(0.21562 0.0124613 0 0.000722017 0 0)
(0.215155 0.0114119 0 0.000607695 0 0)
(0.213672 0.0101927 0 0.000490161 0 0)
(0.211628 0.00905818 0 0.000393795 0 0)
(0.208691 0.00774012 0 0.000294477 0 0)
(0.206498 0.00689881 0 0.000239604 0 0)
(0.204116 0.00520242 0 0.000143942 0 0)
(0.19784 0.0058194 0 0.000179538 0 0)
(0.203637 -0.000754045 0 0.000169672 0 0)
(0.175646 0.000370994 0 2.58964e-06 0 0)
(0.174337 0.00216914 0 3.15819e-05 0 0)
(0.174727 0.00385819 0 9.36064e-05 0 0)
(0.176894 0.0054739 0 0.00018212 0 0)
(0.180507 0.00703086 0 0.000290255 0 0)
(0.185009 0.00842071 0 0.00040142 0 0)
(0.190067 0.00954421 0 0.000496599 0 0)
(0.195486 0.0103551 0 0.00056303 0 0)
(0.200982 0.0108631 0 0.000598044 0 0)
(0.20623 0.0110633 0 0.000600998 0 0)
(0.211043 0.0109886 0 0.000576897 0 0)
(0.215237 0.0106422 0 0.000529343 0 0)
(0.218835 0.0101538 0 0.000473863 0 0)
(0.221754 0.00943667 0 0.000404918 0 0)
(0.224327 0.00878199 0 0.000348574 0 0)
(0.225964 0.00775175 0 0.000272058 0 0)
(0.228357 0.00720862 0 0.000236111 0 0)
(0.23017 0.00538994 0 0.000139364 0 0)
(0.227307 0.00594086 0 0.000165519 0 0)
(0.235621 -0.000993829 0 0.000176622 0 0)
(0.175627 0.000189996 0 1.44255e-06 0 0)
(0.174252 0.00168762 0 1.88408e-05 0 0)
(0.174313 0.00309376 0 5.95028e-05 0 0)
(0.175946 0.00435022 0 0.000114607 0 0)
(0.178793 0.00549459 0 0.000178102 0 0)
(0.182235 0.00649907 0 0.000242359 0 0)
(0.186008 0.0073168 0 0.000298461 0 0)
(0.190069 0.00791611 0 0.000339332 0 0)
(0.194295 0.00830261 0 0.000362802 0 0)
(0.198507 0.00846512 0 0.000367267 0 0)
(0.20257 0.00843717 0 0.000356085 0 0)
(0.206387 0.00819985 0 0.000329385 0 0)
(0.20993 0.00786231 0 0.000297512 0 0)
(0.213159 0.007324 0 0.000254943 0 0)
(0.21625 0.00684076 0 0.000220496 0 0)
(0.218707 0.00599666 0 0.000170005 0 0)
(0.221855 0.00556155 0 0.000147178 0 0)
(0.224669 0.00397949 0 8.35111e-05 0 0)
(0.222404 0.00442108 0 9.83689e-05 0 0)
(0.231405 -0.00129105 0 0.000140577 0 0)
(0.175599 8.80396e-05 0 8.76503e-07 0 0)
(0.174108 0.00127914 0 1.07226e-05 0 0)
(0.173891 0.00237058 0 3.47667e-05 0 0)
(0.175177 0.00333249 0 6.71689e-05 0 0)
(0.17763 0.00419887 0 0.000104209 0 0)
(0.180561 0.00495825 0 0.000141888 0 0)
(0.183667 0.00557995 0 0.000175431 0 0)
(0.186972 0.00604028 0 0.000200705 0 0)
(0.190396 0.00634146 0 0.000216109 0 0)
(0.193832 0.00647505 0 0.00022044 0 0)
(0.197158 0.00647252 0 0.000215901 0 0)
(0.200333 0.00631085 0 0.000201746 0 0)
(0.203317 0.00607122 0 0.000183952 0 0)
(0.206105 0.00566669 0 0.000158673 0 0)
(0.208793 0.00529311 0 0.000137545 0 0)
(0.210943 0.00461865 0 0.00010569 0 0)
(0.213697 0.0042474 0 9.04682e-05 0 0)
(0.216138 0.00297717 0 5.11416e-05 0 0)
(0.213506 0.00327329 0 5.82862e-05 0 0)
(0.221812 -0.0010181 0 8.90038e-05 0 0)
(0.175573 3.03831e-05 0 7.40689e-07 0 0)
(0.173972 0.000961442 0 6.09484e-06 0 0)
(0.173561 0.00178271 0 1.96496e-05 0 0)
(0.174596 0.00250666 0 3.79965e-05 0 0)
(0.176764 0.00315215 0 5.8815e-05 0 0)
(0.179339 0.00371055 0 7.97881e-05 0 0)
(0.182028 0.00416692 0 9.85503e-05 0 0)
(0.184854 0.00450512 0 0.000112862 0 0)
(0.187777 0.00473051 0 0.000121983 0 0)
(0.190715 0.00483843 0 0.00012528 0 0)
(0.193572 0.00485074 0 0.000123817 0 0)
(0.196317 0.00474679 0 0.000116902 0 0)
(0.19891 0.00458141 0 0.000107577 0 0)
(0.201351 0.00428666 0 9.35103e-05 0 0)
(0.203704 0.00400481 0 8.12933e-05 0 0)
(0.205532 0.00349268 0 6.2664e-05 0 0)
(0.207911 0.0031906 0 5.31638e-05 0 0)
(0.209924 0.00223985 0 3.03884e-05 0 0)
(0.206952 0.00240932 0 3.38039e-05 0 0)
(0.214673 -0.000564904 0 4.28731e-05 0 0)
(0.175551 8.75835e-06 0 1.12302e-06 0 0)
(0.173869 0.000719177 0 3.80168e-06 0 0)
(0.173328 0.00129601 0 1.07014e-05 0 0)
(0.174184 0.00180097 0 1.99589e-05 0 0)
(0.176143 0.00224518 0 3.02272e-05 0 0)
(0.178487 0.00262488 0 4.03927e-05 0 0)
(0.180888 0.00293509 0 4.94901e-05 0 0)
(0.183397 0.00316909 0 5.66153e-05 0 0)
(0.18599 0.00332899 0 6.13664e-05 0 0)
(0.188597 0.00341116 0 6.34033e-05 0 0)
(0.191148 0.00343014 0 6.3189e-05 0 0)
(0.193607 0.00337138 0 6.03457e-05 0 0)
(0.195943 0.00326811 0 5.61653e-05 0 0)
(0.19815 0.0030732 0 4.94484e-05 0 0)
(0.200281 0.00288303 0 4.34558e-05 0 0)
(0.201897 0.00253768 0 3.4198e-05 0 0)
(0.204032 0.00232524 0 2.92477e-05 0 0)
(0.205783 0.00169967 0 1.75859e-05 0 0)
(0.202595 0.00176911 0 1.94342e-05 0 0)
(0.210087 -1.76392e-05 0 1.31621e-05 0 0)
(0.175536 1.36912e-05 0 2.09386e-06 0 0)
(0.173802 0.000524907 0 3.02763e-06 0 0)
(0.17318 0.000871767 0 5.67373e-06 0 0)
(0.173925 0.00117097 0 9.33455e-06 0 0)
(0.17576 0.00143101 0 1.32315e-05 0 0)
(0.177952 0.00165333 0 1.70165e-05 0 0)
(0.180177 0.00183727 0 2.04271e-05 0 0)
(0.182492 0.00197861 0 2.31641e-05 0 0)
(0.184882 0.00207774 0 2.50724e-05 0 0)
(0.187288 0.00213222 0 2.60135e-05 0 0)
(0.189647 0.00215118 0 2.61582e-05 0 0)
(0.191933 0.00212758 0 2.53896e-05 0 0)
(0.194117 0.00207762 0 2.40907e-05 0 0)
(0.196182 0.00197462 0 2.18064e-05 0 0)
(0.198182 0.00187212 0 1.96877e-05 0 0)
(0.199682 0.00168813 0 1.64077e-05 0 0)
(0.201679 0.00157098 0 1.45137e-05 0 0)
(0.203309 0.00125989 0 1.0276e-05 0 0)
(0.199999 0.0012379 0 1.08514e-05 0 0)
(0.207479 0.000519055 0 3.72944e-06 0 0)
(0.175526 3.4222e-05 0 3.63468e-06 0 0)
(0.173772 0.00035592 0 3.29206e-06 0 0)
(0.173115 0.000481949 0 3.36936e-06 0 0)
(0.173813 0.000584737 0 4.11491e-06 0 0)
(0.175591 0.000671611 0 4.8556e-06 0 0)
(0.177715 0.000748382 0 5.52955e-06 0 0)
(0.179861 0.000814739 0 6.13876e-06 0 0)
(0.182086 0.000868519 0 6.65827e-06 0 0)
(0.184381 0.00090844 0 7.06465e-06 0 0)
(0.186691 0.000933523 0 7.33986e-06 0 0)
(0.188956 0.000947795 0 7.51218e-06 0 0)
(0.191164 0.000951508 0 7.59116e-06 0 0)
(0.193277 0.000948188 0 7.5931e-06 0 0)
(0.195282 0.000931209 0 7.48938e-06 0 0)
(0.197224 0.000911482 0 7.2974e-06 0 0)
(0.198696 0.000881291 0 7.17183e-06 0 0)
(0.200639 0.000856603 0 6.83245e-06 0 0)
(0.202299 0.000851299 0 7.36716e-06 0 0)
(0.198881 0.000738194 0 6.24583e-06 0 0)
(0.206548 0.00101604 0 1.34083e-05 0 0)
(0.175521 5.95867e-05 0 5.60269e-06 0 0)
(0.173781 0.000191478 0 4.25561e-06 0 0)
(0.173137 0.000100124 0 3.15679e-06 0 0)
(0.173843 1.08647e-05 0 3.2683e-06 0 0)
(0.175623 -7.14347e-05 0 3.56657e-06 0 0)
(0.177757 -0.000138516 0 3.86961e-06 0 0)
(0.179914 -0.000187748 0 4.1403e-06 0 0)
(0.18215 -0.000219333 0 4.36454e-06 0 0)
(0.184457 -0.000236895 0 4.55783e-06 0 0)
(0.186772 -0.00023964 0 4.72782e-06 0 0)
(0.18904 -0.000230162 0 4.86614e-06 0 0)
(0.191251 -0.000201483 0 4.98075e-06 0 0)
(0.193365 -0.000161803 0 5.06101e-06 0 0)
(0.195382 -9.63394e-05 0 5.22986e-06 0 0)
(0.197325 -3.72435e-05 0 5.27623e-06 0 0)
(0.198836 8.06357e-05 0 5.83509e-06 0 0)
(0.200776 0.00013824 0 5.64757e-06 0 0)
(0.202562 0.000430683 0 8.49674e-06 0 0)
(0.199045 0.000205764 0 5.35269e-06 0 0)
(0.207087 0.00146632 0 4.07182e-05 0 0)
(0.175523 7.90194e-05 0 7.7317e-06 0 0)
(0.173829 9.94483e-06 0 5.67612e-06 0 0)
(0.173247 -0.000301228 0 4.88647e-06 0 0)
(0.174026 -0.000583045 0 6.6314e-06 0 0)
(0.175879 -0.000836299 0 9.17394e-06 0 0)
(0.178096 -0.00105044 0 1.1877e-05 0 0)
(0.180343 -0.00121715 0 1.42563e-05 0 0)
(0.182679 -0.0013359 0 1.60765e-05 0 0)
(0.185091 -0.00141103 0 1.72913e-05 0 0)
(0.187513 -0.00144145 0 1.78651e-05 0 0)
(0.189885 -0.00143498 0 1.7848e-05 0 0)
(0.192192 -0.00137824 0 1.71452e-05 0 0)
(0.194389 -0.00129456 0 1.6095e-05 0 0)
(0.196491 -0.00114669 0 1.4657e-05 0 0)
(0.198501 -0.00101135 0 1.33202e-05 0 0)
(0.20011 -0.000747136 0 1.21685e-05 0 0)
(0.202108 -0.000617103 0 1.0984e-05 0 0)
(0.204056 -3.24399e-05 0 1.36641e-05 0 0)
(0.200498 -0.000395406 0 9.11422e-06 0 0)
(0.208925 0.00187451 0 8.48769e-05 0 0)
(0.175531 8.11932e-05 0 9.66466e-06 0 0)
(0.173916 -0.000210152 0 7.47083e-06 0 0)
(0.173443 -0.000750509 0 8.97405e-06 0 0)
(0.174367 -0.00123547 0 1.50816e-05 0 0)
(0.176386 -0.00166706 0 2.29566e-05 0 0)
(0.17876 -0.00203067 0 3.10487e-05 0 0)
(0.181186 -0.00232233 0 3.8353e-05 0 0)
(0.183713 -0.00253176 0 4.38672e-05 0 0)
(0.186327 -0.00266501 0 4.73506e-05 0 0)
(0.188954 -0.0027244 0 4.87782e-05 0 0)
(0.191526 -0.0027181 0 4.82312e-05 0 0)
(0.194019 -0.00262707 0 4.54508e-05 0 0)
(0.196391 -0.00249413 0 4.16984e-05 0 0)
(0.198659 -0.00225945 0 3.6403e-05 0 0)
(0.200817 -0.00204685 0 3.18825e-05 0 0)
(0.202587 -0.00163334 0 2.63326e-05 0 0)
(0.204732 -0.00143738 0 2.31353e-05 0 0)
(0.206899 -0.000556095 0 2.27715e-05 0 0)
(0.203373 -0.00108244 0 1.84304e-05 0 0)
(0.212101 0.00227089 0 0.000145125 0 0)
(0.175545 5.43687e-05 0 1.10231e-05 0 0)
(0.17404 -0.000491166 0 9.86239e-06 0 0)
(0.173725 -0.00127617 0 1.65517e-05 0 0)
(0.174864 -0.00197977 0 3.07e-05 0 0)
(0.177117 -0.00260338 0 4.78917e-05 0 0)
(0.179762 -0.0031333 0 6.53287e-05 0 0)
(0.18248 -0.00355725 0 8.07893e-05 0 0)
(0.185326 -0.00386823 0 9.26495e-05 0 0)
(0.188267 -0.00406626 0 9.99245e-05 0 0)
(0.191216 -0.00415378 0 0.000102446 0 0)
(0.194097 -0.00414235 0 0.000100465 0 0)
(0.196878 -0.00400955 0 9.36305e-05 0 0)
(0.199513 -0.00381947 0 8.49177e-05 0 0)
(0.202029 -0.00349076 0 7.27947e-05 0 0)
(0.20442 -0.00319781 0 6.28637e-05 0 0)
(0.206429 -0.00263182 0 4.95235e-05 0 0)
(0.208824 -0.00237729 0 4.3273e-05 0 0)
(0.211306 -0.00118718 0 3.5479e-05 0 0)
(0.207914 -0.00189301 0 3.41713e-05 0 0)
(0.217018 0.0026701 0 0.000219491 0 0)
(0.175566 -1.13792e-05 0 1.15152e-05 0 0)
(0.174197 -0.000859048 0 1.36375e-05 0 0)
(0.174107 -0.00191846 0 2.99927e-05 0 0)
(0.175524 -0.0028564 0 5.72773e-05 0 0)
(0.178088 -0.00369046 0 8.92637e-05 0 0)
(0.181105 -0.00440789 0 0.000121523 0 0)
(0.184278 -0.00498363 0 0.000149703 0 0)
(0.187621 -0.00539993 0 0.000170417 0 0)
(0.191066 -0.00567111 0 0.000183143 0 0)
(0.194505 -0.00578745 0 0.00018668 0 0)
(0.197855 -0.00576188 0 0.000181407 0 0)
(0.201068 -0.0055756 0 0.0001674 0 0)
(0.204086 -0.00531607 0 0.000150441 0 0)
(0.206953 -0.00488654 0 0.000127734 0 0)
(0.209682 -0.00451486 0 0.000109864 0 0)
(0.212033 -0.00380128 0 8.46513e-05 0 0)
(0.214814 -0.00351064 0 7.46588e-05 0 0)
(0.217769 -0.00201402 0 5.25637e-05 0 0)
(0.214646 -0.00292721 0 5.99475e-05 0 0)
(0.224421 0.00299011 0 0.00029944 0 0)
(0.175588 -0.000124423 0 1.10659e-05 0 0)
(0.174366 -0.00132822 0 2.02858e-05 0 0)
(0.174581 -0.00271055 0 5.31987e-05 0 0)
(0.176369 -0.00393407 0 0.00010205 0 0)
(0.179351 -0.0050337 0 0.000158506 0 0)
(0.182905 -0.00598292 0 0.000214769 0 0)
(0.186759 -0.00674049 0 0.000262663 0 0)
(0.1909 -0.0072805 0 0.000296081 0 0)
(0.195171 -0.00762075 0 0.000314459 0 0)
(0.199395 -0.0077645 0 0.000317794 0 0)
(0.203479 -0.00771268 0 0.00030573 0 0)
(0.207337 -0.0074506 0 0.000279244 0 0)
(0.210915 -0.0070951 0 0.000248601 0 0)
(0.214237 -0.0065391 0 0.000209498 0 0)
(0.217378 -0.00606951 0 0.000179725 0 0)
(0.220068 -0.00520128 0 0.000137223 0 0)
(0.223262 -0.00487975 0 0.000122535 0 0)
(0.226675 -0.00309423 0 7.70797e-05 0 0)
(0.223862 -0.00423179 0 0.000101833 0 0)
(0.234454 0.00313391 0 0.000368072 0 0)
(0.175604 -0.000320152 0 1.01137e-05 0 0)
(0.174489 -0.00189136 0 3.19195e-05 0 0)
(0.175063 -0.00356391 0 8.74103e-05 0 0)
(0.177408 -0.0051358 0 0.000168502 0 0)
(0.181178 -0.00663065 0 0.000266509 0 0)
(0.185813 -0.00794682 0 0.000365445 0 0)
(0.190976 -0.00899386 0 0.000448075 0 0)
(0.196498 -0.00973025 0 0.000503107 0 0)
(0.202074 -0.0101803 0 0.000530247 0 0)
(0.207391 -0.0103445 0 0.000529765 0 0)
(0.212264 -0.0102446 0 0.000504822 0 0)
(0.216559 -0.00987344 0 0.000457913 0 0)
(0.22025 -0.0093724 0 0.000404883 0 0)
(0.223337 -0.00864867 0 0.000341023 0 0)
(0.226027 -0.00802169 0 0.000291734 0 0)
(0.22798 -0.00698818 0 0.000224784 0 0)
(0.230472 -0.00658883 0 0.000201083 0 0)
(0.233035 -0.00461645 0 0.000122225 0 0)
(0.229609 -0.00592799 0 0.000173756 0 0)
(0.239839 0.00256459 0 0.000389505 0 0)
(0.175574 -0.000672321 0 1.06234e-05 0 0)
(0.174967 -0.00273118 0 5.86292e-05 0 0)
(0.176569 -0.0046928 0 0.000148731 0 0)
(0.180411 -0.00669941 0 0.000280222 0 0)
(0.186103 -0.00877674 0 0.00044907 0 0)
(0.192736 -0.0106489 0 0.000622059 0 0)
(0.199439 -0.0120686 0 0.000758171 0 0)
(0.205563 -0.0129509 0 0.00083661 0 0)
(0.210645 -0.0133256 0 0.000857577 0 0)
(0.214422 -0.0131857 0 0.000820407 0 0)
(0.216781 -0.012634 0 0.000742321 0 0)
(0.217792 -0.0117549 0 0.00063862 0 0)
(0.217604 -0.0107133 0 0.000531188 0 0)
(0.216461 -0.00951002 0 0.000422729 0 0)
(0.214675 -0.00842733 0 0.000337579 0 0)
(0.212174 -0.00713478 0 0.00024952 0 0)
(0.210131 -0.00645811 0 0.000209317 0 0)
(0.208592 -0.00469475 0 0.000129191 0 0)
(0.201742 -0.00609414 0 0.000203654 0 0)
(0.210073 0.00164205 0 0.000321666 0 0)
(0.176142 -0.0011051 0 1.489e-05 0 0)
(0.179633 -0.00464848 0 0.000145681 0 0)
(0.184668 -0.00793389 0 0.000376509 0 0)
(0.189297 -0.0107868 0 0.000654477 0 0)
(0.192777 -0.0131897 0 0.000940234 0 0)
(0.194286 -0.0148866 0 0.00117161 0 0)
(0.193191 -0.0156775 0 0.00129416 0 0)
(0.189546 -0.0156041 0 0.00129824 0 0)
(0.183691 -0.0148154 0 0.0012027 0 0)
(0.176257 -0.0135049 0 0.00103968 0 0)
(0.16784 -0.0118728 0 0.000844456 0 0)
(0.159043 -0.0100893 0 0.000646296 0 0)
(0.150204 -0.00831046 0 0.000468934 0 0)
(0.141803 -0.0066015 0 0.000320508 0 0)
(0.133804 -0.00510776 0 0.000211762 0 0)
(0.126686 -0.00374579 0 0.000131291 0 0)
(0.120214 -0.00283643 0 8.62392e-05 0 0)
(0.116237 -0.00174157 0 5.18698e-05 0 0)
(0.107488 -0.00313397 0 0.000101954 0 0)
(0.117472 0.00100947 0 0.000206587 0 0)
(0.172166 -0.000766489 0 5.36127e-06 0 0)
(0.162606 -0.00376247 0 9.5053e-05 0 0)
(0.149788 -0.00617019 0 0.000263549 0 0)
(0.133069 -0.00724853 0 0.000404127 0 0)
(0.114571 -0.00717063 0 0.000457659 0 0)
(0.0965129 -0.00629227 0 0.000419074 0 0)
(0.0800288 -0.00498712 0 0.000319681 0 0)
(0.0658398 -0.00362098 0 0.000207829 0 0)
(0.0541462 -0.00240282 0 0.000114902 0 0)
(0.0449537 -0.0014104 0 5.2121e-05 0 0)
(0.0379465 -0.000662123 0 1.93036e-05 0 0)
(0.0327721 -0.00011781 0 8.54209e-06 0 0)
(0.0290628 0.000271936 0 1.15226e-05 0 0)
(0.0265873 0.000564652 0 2.23821e-05 0 0)
(0.0250189 0.000775252 0 3.5579e-05 0 0)
(0.0242476 0.00092418 0 4.73151e-05 0 0)
(0.0238769 0.000967258 0 5.00858e-05 0 0)
(0.0239678 0.000868865 0 3.86424e-05 0 0)
(0.0219419 -6.50067e-05 0 1.94581e-05 0 0)
(0.0209128 0.000230524 0 7.85819e-05 0 0)
)
;

boundaryField
{
    upperWall
    {
        type            calculated;
        value           uniform (0 0 0 0 0 0);
    }
    lowerWall
    {
        type            calculated;
        value           uniform (0 0 0 0 0 0);
    }
    inlet
    {
        type            calculated;
        value           uniform (0.172718 0 0 0 0 0);
    }
    outlet
    {
        type            calculated;
        value           nonuniform List<symmTensor> 
20
(
(0.0209296 -0.000229387 0 6.18465e-06 0 0)
(0.109999 -0.000789379 0 0.00011309 0 0)
(0.203637 -0.000754045 0 0.000169672 0 0)
(0.235621 -0.000993829 0 0.000176622 0 0)
(0.231405 -0.00129105 0 0.000140577 0 0)
(0.221812 -0.0010181 0 8.90038e-05 0 0)
(0.214673 -0.000564904 0 4.28731e-05 0 0)
(0.210087 -1.76392e-05 0 1.31621e-05 0 0)
(0.207479 0.000519055 0 3.72944e-06 0 0)
(0.206548 0.00101604 0 1.34083e-05 0 0)
(0.207087 0.00146632 0 4.07182e-05 0 0)
(0.208925 0.00187451 0 8.48769e-05 0 0)
(0.212101 0.00227089 0 0.000145125 0 0)
(0.217018 0.0026701 0 0.000219491 0 0)
(0.224421 0.00299011 0 0.00029944 0 0)
(0.234454 0.00313391 0 0.000368072 0 0)
(0.239839 0.00256459 0 0.000389505 0 0)
(0.210073 0.00164205 0 0.000321666 0 0)
(0.117472 0.00100947 0 0.000206587 0 0)
(0.0209128 6.11201e-05 0 1.5299e-05 0 0)
)
;
    }
    frontAndBack
    {
        type            empty;
    }
}


// ************************************************************************* //
