/*--------------------------------*- C++ -*----------------------------------*\
  =========                 |
  \\      /  F ield         | OpenFOAM: The Open Source CFD Toolbox
   \\    /   O peration     | Website:  https://openfoam.org
    \\  /    A nd           | Version:  7
     \\/     M anipulation  |
\*---------------------------------------------------------------------------*/
FoamFile
{
    version     2.0;
    format      ascii;
    class       volScalarField;
    location    "0.0475";
    object      rho;
}
// * * * * * * * * * * * * * * * * * * * * * * * * * * * * * * * * * * * * * //

dimensions      [1 -3 0 0 0 0 0];

internalField   nonuniform List<scalar> 
1440
(
1.19905
1.19895
1.19886
1.19877
1.19871
1.19868
1.19868
1.19871
1.19877
1.19886
1.19895
1.19904
1.19911
1.19915
1.19913
1.19905
1.19893
1.19877
1.19861
1.19849
1.19844
1.19846
1.19856
1.1987
1.19882
1.1989
1.1989
1.19882
1.19872
1.19864
1.19862
1.19867
1.19877
1.19887
1.19893
1.19892
1.19885
1.19876
1.19867
1.1986
1.19856
1.19856
1.19857
1.19859
1.19862
1.19864
1.19866
1.19868
1.19869
1.1987
1.19872
1.19875
1.19877
1.19882
1.19884
1.1989
1.19887
1.19899
1.19881
1.19917
1.19902
1.19893
1.19885
1.19879
1.19874
1.19871
1.19872
1.19875
1.1988
1.19889
1.19899
1.1991
1.19922
1.19933
1.19942
1.19949
1.19952
1.19951
1.19947
1.19938
1.19925
1.1991
1.19893
1.19876
1.19859
1.19843
1.19829
1.19818
1.19811
1.19807
1.19809
1.19816
1.19828
1.19845
1.19865
1.19888
1.19911
1.19932
1.1995
1.19963
1.1997
1.19969
1.19961
1.19945
1.19923
1.19895
1.19863
1.19829
1.19795
1.19766
1.19744
1.19732
1.19729
1.19736
1.19754
1.19785
1.19824
1.19869
1.19913
1.19956
1.19902
1.19893
1.19885
1.19878
1.19873
1.19871
1.19871
1.19875
1.19881
1.19889
1.19899
1.19911
1.19924
1.19936
1.19947
1.19957
1.19964
1.19969
1.19969
1.19966
1.19959
1.19949
1.19934
1.19917
1.19898
1.19877
1.19856
1.19836
1.19818
1.19802
1.1979
1.19783
1.19781
1.19784
1.19794
1.19809
1.19828
1.19852
1.19879
1.19908
1.19937
1.19964
1.19989
1.20009
1.20023
1.2003
1.20031
1.20023
1.20007
1.19984
1.19954
1.19919
1.19881
1.19839
1.19797
1.19758
1.19724
1.19696
1.19674
1.19658
1.19901
1.19892
1.19883
1.19877
1.19872
1.1987
1.19871
1.19874
1.1988
1.19889
1.19899
1.19911
1.19924
1.19936
1.19948
1.19958
1.19965
1.1997
1.19971
1.19968
1.19962
1.19952
1.19938
1.19921
1.19902
1.19882
1.1986
1.19839
1.1982
1.19802
1.19788
1.19779
1.19774
1.19775
1.19781
1.19794
1.19811
1.19834
1.1986
1.1989
1.19921
1.19953
1.19983
1.20011
1.20035
1.20053
1.20065
1.2007
1.20066
1.20054
1.20033
1.20005
1.1997
1.19929
1.19882
1.19832
1.19781
1.19734
1.19692
1.19655
1.199
1.19891
1.19883
1.19876
1.19872
1.1987
1.1987
1.19874
1.1988
1.19889
1.19899
1.19911
1.19924
1.19937
1.19948
1.19958
1.19966
1.1997
1.19971
1.19968
1.19962
1.19951
1.19937
1.1992
1.199
1.19879
1.19858
1.19836
1.19817
1.198
1.19786
1.19776
1.19772
1.19774
1.19781
1.19794
1.19813
1.19836
1.19864
1.19894
1.19927
1.1996
1.19991
1.20019
1.20043
1.20062
1.20073
1.20078
1.20073
1.20059
1.20036
1.20006
1.19969
1.19925
1.19874
1.1982
1.19766
1.19718
1.19676
1.19637
1.199
1.19891
1.19883
1.19876
1.19872
1.19869
1.1987
1.19874
1.1988
1.19889
1.19899
1.19911
1.19924
1.19937
1.19948
1.19958
1.19966
1.1997
1.19971
1.19968
1.19961
1.19951
1.19936
1.19919
1.19899
1.19878
1.19856
1.19835
1.19815
1.19798
1.19784
1.19775
1.19771
1.19773
1.19781
1.19795
1.19814
1.19838
1.19867
1.19898
1.19931
1.19964
1.19996
1.20024
1.20048
1.20066
1.20077
1.2008
1.20074
1.20058
1.20034
1.20002
1.19963
1.19917
1.19864
1.19808
1.19754
1.19706
1.19664
1.19624
1.199
1.19891
1.19883
1.19876
1.19872
1.19869
1.1987
1.19874
1.1988
1.19889
1.19899
1.19911
1.19924
1.19937
1.19948
1.19958
1.19966
1.1997
1.19971
1.19968
1.19961
1.19951
1.19936
1.19919
1.19899
1.19878
1.19856
1.19835
1.19815
1.19798
1.19784
1.19775
1.19771
1.19773
1.19781
1.19795
1.19814
1.19838
1.19867
1.19898
1.19931
1.19964
1.19996
1.20024
1.20048
1.20066
1.20077
1.2008
1.20074
1.20058
1.20034
1.20002
1.19963
1.19917
1.19864
1.19808
1.19754
1.19706
1.19664
1.19624
1.199
1.19891
1.19883
1.19876
1.19872
1.1987
1.1987
1.19874
1.1988
1.19889
1.19899
1.19911
1.19924
1.19937
1.19948
1.19958
1.19966
1.1997
1.19971
1.19968
1.19962
1.19951
1.19937
1.1992
1.199
1.19879
1.19858
1.19836
1.19817
1.198
1.19786
1.19776
1.19772
1.19774
1.19781
1.19794
1.19813
1.19836
1.19864
1.19894
1.19927
1.1996
1.19991
1.20019
1.20043
1.20062
1.20073
1.20078
1.20073
1.20059
1.20036
1.20006
1.19969
1.19925
1.19874
1.1982
1.19766
1.19718
1.19676
1.19637
1.19901
1.19892
1.19883
1.19877
1.19872
1.1987
1.19871
1.19874
1.1988
1.19889
1.19899
1.19911
1.19924
1.19936
1.19948
1.19958
1.19965
1.1997
1.19971
1.19968
1.19962
1.19952
1.19938
1.19921
1.19902
1.19882
1.1986
1.19839
1.1982
1.19802
1.19788
1.19779
1.19774
1.19775
1.19781
1.19794
1.19811
1.19834
1.1986
1.1989
1.19921
1.19953
1.19983
1.20011
1.20035
1.20053
1.20065
1.2007
1.20066
1.20054
1.20033
1.20005
1.1997
1.19929
1.19882
1.19832
1.19781
1.19734
1.19692
1.19655
1.19902
1.19893
1.19885
1.19878
1.19873
1.19871
1.19871
1.19875
1.19881
1.19889
1.19899
1.19911
1.19924
1.19936
1.19947
1.19957
1.19964
1.19969
1.19969
1.19966
1.19959
1.19949
1.19934
1.19917
1.19898
1.19877
1.19856
1.19836
1.19818
1.19802
1.1979
1.19783
1.19781
1.19784
1.19794
1.19809
1.19828
1.19852
1.19879
1.19908
1.19937
1.19964
1.19989
1.20009
1.20023
1.2003
1.20031
1.20023
1.20007
1.19984
1.19954
1.19919
1.19881
1.19839
1.19797
1.19758
1.19724
1.19696
1.19674
1.19658
1.19902
1.19893
1.19885
1.19879
1.19874
1.19871
1.19872
1.19875
1.1988
1.19889
1.19899
1.1991
1.19922
1.19933
1.19942
1.19949
1.19952
1.19951
1.19947
1.19938
1.19925
1.1991
1.19893
1.19876
1.19859
1.19843
1.19829
1.19818
1.19811
1.19807
1.19809
1.19816
1.19828
1.19845
1.19865
1.19888
1.19911
1.19932
1.1995
1.19963
1.1997
1.19969
1.19961
1.19945
1.19923
1.19895
1.19863
1.19829
1.19795
1.19766
1.19744
1.19732
1.19729
1.19736
1.19754
1.19785
1.19824
1.19868
1.19913
1.19955
1.19905
1.19895
1.19886
1.19877
1.19871
1.19868
1.19868
1.19871
1.19877
1.19886
1.19895
1.19904
1.19911
1.19915
1.19913
1.19905
1.19893
1.19877
1.19861
1.19849
1.19844
1.19846
1.19856
1.1987
1.19882
1.1989
1.1989
1.19882
1.19872
1.19864
1.19862
1.19867
1.19877
1.19887
1.19893
1.19892
1.19885
1.19876
1.19867
1.1986
1.19856
1.19856
1.19857
1.19859
1.19862
1.19864
1.19866
1.19868
1.19869
1.1987
1.19872
1.19874
1.19877
1.19881
1.19885
1.19888
1.19891
1.19893
1.19893
1.19893
1.19844
1.19769
1.19698
1.19627
1.19555
1.19487
1.19425
1.19371
1.19326
1.19287
1.19251
1.19217
1.19181
1.19141
1.19099
1.19057
1.19018
1.18984
1.18955
1.18931
1.18911
1.18892
1.18873
1.1885
1.18821
1.18784
1.18741
1.18694
1.18646
1.18603
1.18565
1.18533
1.18508
1.18488
1.18472
1.18457
1.18442
1.18427
1.18412
1.18396
1.1838
1.18366
1.18352
1.18338
1.18326
1.18313
1.18301
1.18288
1.18276
1.18264
1.18254
1.18244
1.18236
1.18228
1.18222
1.18216
1.18211
1.18205
1.18202
1.18195
1.19995
1.20029
1.20055
1.2007
1.2007
1.20053
1.20022
1.19982
1.19935
1.19883
1.19824
1.19758
1.1969
1.19624
1.19568
1.19527
1.19504
1.19496
1.19502
1.19522
1.19556
1.19606
1.19672
1.19751
1.19838
1.19922
1.19993
1.20042
1.20063
1.20054
1.20019
1.19965
1.19902
1.19837
1.19775
1.19718
1.19667
1.19618
1.19571
1.19524
1.19479
1.19436
1.19398
1.19366
1.19341
1.19322
1.19311
1.19304
1.193
1.19298
1.19295
1.19292
1.19288
1.19282
1.19275
1.19265
1.19258
1.19246
1.19241
1.19226
1.19651
1.19658
1.19681
1.19717
1.19759
1.19803
1.1985
1.19904
1.19971
1.20045
1.20112
1.20161
1.20188
1.202
1.20206
1.20212
1.20211
1.20188
1.20134
1.20052
1.19957
1.19865
1.19784
1.1971
1.1963
1.19541
1.19448
1.1937
1.19328
1.19333
1.19381
1.19461
1.19561
1.19673
1.19802
1.19953
1.20129
1.20324
1.20519
1.20689
1.2081
1.20862
1.20839
1.20748
1.20604
1.20432
1.20254
1.20089
1.19953
1.1985
1.19781
1.19739
1.1972
1.19714
1.19716
1.19719
1.19724
1.19726
1.19729
1.19726
1.19622
1.19595
1.1958
1.19587
1.19614
1.19654
1.19699
1.19746
1.19804
1.19881
1.19977
1.20079
1.20167
1.2023
1.20273
1.20307
1.20342
1.20371
1.20377
1.20341
1.20261
1.20149
1.20028
1.19914
1.19805
1.19691
1.1956
1.19412
1.19267
1.19152
1.1909
1.19091
1.19148
1.19244
1.19369
1.19519
1.19703
1.19929
1.20197
1.20489
1.20774
1.21016
1.2118
1.21247
1.21214
1.21094
1.20911
1.20694
1.20472
1.20269
1.20099
1.19969
1.1988
1.19825
1.19797
1.19786
1.19786
1.19792
1.19797
1.19806
1.196
1.19571
1.19559
1.19573
1.19608
1.19653
1.197
1.1975
1.19815
1.19906
1.20016
1.20127
1.20215
1.20274
1.20312
1.20347
1.20385
1.20415
1.20411
1.20357
1.20253
1.2012
1.19984
1.1986
1.19744
1.19621
1.19476
1.19314
1.19158
1.19041
1.1899
1.19012
1.19095
1.19218
1.19365
1.19537
1.19743
1.19996
1.20294
1.20616
1.20923
1.21173
1.2133
1.21373
1.21305
1.21143
1.20918
1.20665
1.20417
1.20198
1.20023
1.19897
1.19818
1.19776
1.19761
1.19763
1.19773
1.19786
1.19796
1.19809
1.19586
1.19559
1.19552
1.19572
1.19612
1.19659
1.19707
1.19759
1.19831
1.1993
1.20047
1.20159
1.20243
1.20296
1.20332
1.20367
1.20406
1.20432
1.20419
1.20351
1.20233
1.20089
1.19948
1.19822
1.19705
1.19576
1.19423
1.19255
1.19097
1.18987
1.1895
1.1899
1.19091
1.19231
1.19393
1.19578
1.19798
1.20065
1.20375
1.20705
1.21013
1.21256
1.21396
1.21418
1.21325
1.21139
1.20893
1.20625
1.20369
1.20147
1.19975
1.19856
1.19785
1.19752
1.19745
1.19753
1.19768
1.19784
1.19796
1.19809
1.19586
1.19559
1.19552
1.19572
1.19612
1.19659
1.19707
1.19759
1.19831
1.1993
1.20047
1.20159
1.20243
1.20296
1.20332
1.20367
1.20406
1.20432
1.20419
1.20351
1.20233
1.20089
1.19948
1.19822
1.19705
1.19576
1.19423
1.19255
1.19097
1.18987
1.1895
1.1899
1.19091
1.19231
1.19393
1.19578
1.19798
1.20065
1.20375
1.20705
1.21013
1.21256
1.21396
1.21418
1.21325
1.21139
1.20893
1.20625
1.20368
1.20147
1.19975
1.19856
1.19785
1.19752
1.19745
1.19753
1.19767
1.19784
1.19795
1.19809
1.196
1.19571
1.19559
1.19573
1.19608
1.19653
1.197
1.1975
1.19815
1.19906
1.20016
1.20127
1.20215
1.20274
1.20312
1.20347
1.20385
1.20415
1.20412
1.20357
1.20253
1.2012
1.19984
1.1986
1.19744
1.19621
1.19476
1.19314
1.19158
1.19041
1.1899
1.19012
1.19095
1.19218
1.19365
1.19537
1.19743
1.19996
1.20294
1.20616
1.20923
1.21173
1.2133
1.21373
1.21304
1.21142
1.20917
1.20664
1.20416
1.20197
1.20022
1.19896
1.19816
1.19774
1.19759
1.19761
1.19771
1.19785
1.19795
1.19807
1.19622
1.19595
1.1958
1.19587
1.19614
1.19654
1.19699
1.19746
1.19804
1.19881
1.19977
1.20079
1.20167
1.2023
1.20273
1.20307
1.20342
1.20371
1.20377
1.20342
1.20261
1.2015
1.20029
1.19914
1.19806
1.19692
1.19561
1.19413
1.19267
1.19152
1.1909
1.19091
1.19147
1.19244
1.19368
1.19518
1.19702
1.19928
1.20196
1.20488
1.20774
1.21016
1.2118
1.21248
1.21215
1.21095
1.20912
1.20695
1.20473
1.20269
1.20099
1.1997
1.1988
1.19825
1.19797
1.19786
1.19786
1.19792
1.19797
1.19807
1.19651
1.19658
1.19681
1.19717
1.19759
1.19803
1.1985
1.19905
1.19971
1.20045
1.20113
1.20163
1.2019
1.20202
1.20209
1.20216
1.20216
1.20194
1.20141
1.2006
1.19966
1.19875
1.19795
1.19722
1.19644
1.19555
1.19464
1.19387
1.19346
1.19352
1.19402
1.19484
1.19585
1.19699
1.1983
1.19983
1.20161
1.20358
1.20556
1.2073
1.20854
1.20909
1.20889
1.208
1.20659
1.20488
1.20311
1.20149
1.20014
1.19913
1.19845
1.19806
1.19788
1.19784
1.19788
1.19795
1.19801
1.19807
1.1981
1.19813
1.19995
1.2003
1.20059
1.20077
1.20081
1.2007
1.20046
1.20013
1.19974
1.19929
1.19878
1.1982
1.1976
1.19703
1.19657
1.19626
1.19613
1.19617
1.19636
1.19668
1.19715
1.19778
1.19856
1.19949
1.20048
1.20146
1.20232
1.20296
1.20332
1.20338
1.20318
1.20279
1.2023
1.20178
1.20128
1.20083
1.20042
1.20003
1.19966
1.19928
1.19892
1.19858
1.19828
1.19804
1.19788
1.19779
1.19776
1.19779
1.19785
1.19792
1.198
1.19806
1.19811
1.19815
1.19817
1.19818
1.19818
1.19817
1.19817
1.19815
1.19891
1.19888
1.19884
1.1988
1.19874
1.19869
1.19864
1.1986
1.19857
1.19855
1.19854
1.19855
1.19857
1.19862
1.19869
1.19876
1.19885
1.19894
1.19903
1.19911
1.19919
1.19926
1.19931
1.19934
1.19934
1.19931
1.19926
1.19919
1.1991
1.19901
1.19892
1.19882
1.19874
1.19866
1.19858
1.1985
1.19843
1.19835
1.19828
1.19821
1.19816
1.19812
1.19809
1.19809
1.1981
1.19812
1.19815
1.19818
1.19822
1.19825
1.19827
1.19829
1.1983
1.19831
1.19831
1.19831
1.1983
1.1983
1.19829
1.19829
)
;

boundaryField
{
    upperWall
    {
        type            calculated;
        value           nonuniform List<scalar> 
120
(
1.1991
1.19909
1.19908
1.19907
1.19906
1.19904
1.19902
1.199
1.19898
1.19896
1.19894
1.19892
1.1989
1.19888
1.19886
1.19884
1.19882
1.1988
1.19879
1.19877
1.19876
1.19875
1.19873
1.19872
1.19871
1.1987
1.19869
1.19868
1.19867
1.19867
1.19866
1.19865
1.19865
1.19864
1.19863
1.19863
1.19862
1.19861
1.19861
1.1986
1.1986
1.19859
1.19858
1.19858
1.19857
1.19857
1.19856
1.19856
1.19855
1.19855
1.19854
1.19854
1.19854
1.19853
1.19853
1.19852
1.19852
1.19852
1.19851
1.19851
1.19851
1.19851
1.1985
1.1985
1.1985
1.19849
1.19849
1.19849
1.19848
1.19848
1.19848
1.19847
1.19847
1.19847
1.19846
1.19846
1.19846
1.19846
1.19845
1.19845
1.19845
1.19844
1.19844
1.19844
1.19843
1.19843
1.19843
1.19843
1.19842
1.19842
1.19842
1.19842
1.19841
1.19841
1.19841
1.19841
1.19841
1.1984
1.1984
1.1984
1.19839
1.19838
1.19838
1.19837
1.19837
1.19836
1.19836
1.19836
1.19836
1.19835
1.19835
1.19835
1.19835
1.19835
1.19835
1.19834
1.19834
1.19834
1.19833
1.19833
)
;
    }
    lowerWall
    {
        type            calculated;
        value           nonuniform List<scalar> 
60
(
1.1991
1.19909
1.19908
1.19907
1.19906
1.19904
1.19902
1.199
1.19898
1.19896
1.19894
1.19892
1.1989
1.19888
1.19886
1.19884
1.19882
1.1988
1.19879
1.19877
1.19876
1.19875
1.19873
1.19872
1.19871
1.1987
1.19869
1.19868
1.19867
1.19867
1.19866
1.19865
1.19865
1.19864
1.19863
1.19863
1.19862
1.19861
1.19861
1.1986
1.1986
1.19859
1.19858
1.19858
1.19857
1.19857
1.19856
1.19856
1.19855
1.19855
1.19854
1.19854
1.19854
1.19853
1.19853
1.19852
1.19852
1.19852
1.19851
1.19851
)
;
    }
    heatedWall
    {
        type            calculated;
        value           nonuniform List<scalar> 
60
(
1.19038
1.18964
1.18893
1.18823
1.18752
1.18684
1.18622
1.18569
1.18524
1.18485
1.1845
1.18416
1.18379
1.1834
1.18299
1.18257
1.18218
1.18184
1.18155
1.18131
1.18111
1.18092
1.18073
1.1805
1.18021
1.17984
1.17941
1.17894
1.17847
1.17804
1.17766
1.17735
1.1771
1.1769
1.17673
1.17658
1.17643
1.17628
1.17613
1.17597
1.17581
1.17567
1.17553
1.1754
1.17527
1.17514
1.17502
1.1749
1.17477
1.17465
1.17455
1.17445
1.17437
1.17429
1.17423
1.17416
1.17412
1.17406
1.17403
1.17396
)
;
    }
    inlet
    {
        type            calculated;
        value           nonuniform List<scalar> 
12
(
1.1991
1.19907
1.19907
1.19906
1.19905
1.19905
1.19905
1.19905
1.19906
1.19907
1.19907
1.1991
)
;
    }
    outlet
    {
        type            calculated;
        value           nonuniform List<scalar> 
12
(
1.18195
1.19226
1.19727
1.19806
1.19809
1.19809
1.19809
1.19808
1.19807
1.19813
1.19815
1.19829
)
;
    }
    frontAndBack
    {
        type            empty;
    }
}


// ************************************************************************* //
