/*--------------------------------*- C++ -*----------------------------------*\
  =========                 |
  \\      /  F ield         | OpenFOAM: The Open Source CFD Toolbox
   \\    /   O peration     | Website:  https://openfoam.org
    \\  /    A nd           | Version:  7
     \\/     M anipulation  |
\*---------------------------------------------------------------------------*/
FoamFile
{
    version     2.0;
    format      ascii;
    class       surfaceScalarField;
    location    "0.1675";
    object      phi;
}
// * * * * * * * * * * * * * * * * * * * * * * * * * * * * * * * * * * * * * //

dimensions      [1 0 -1 0 0 0 0];

internalField   nonuniform List<scalar> 
2748
(
0.00482986
2.94887e-05
0.00476498
6.48739e-05
0.00466237
0.000102618
0.00453182
0.000130551
0.00437946
0.000152362
0.00421261
0.000166849
0.00403714
0.000175471
0.00385827
0.000178873
0.00368
0.000178269
0.00350548
0.000174526
0.0033371
0.000168374
0.00317631
0.000160794
0.00302415
0.00015216
0.00288131
0.000142841
0.00274806
0.000133249
0.00262442
0.00012364
0.00251021
0.000114214
0.00240511
0.000105107
0.00230869
9.64174e-05
0.00222047
8.82164e-05
0.00213994
8.05355e-05
0.00206654
7.34009e-05
0.00199973
6.68153e-05
0.00193896
6.07706e-05
0.00188371
5.5249e-05
0.00183348
5.02265e-05
0.00178781
4.56744e-05
0.00174625
4.15613e-05
0.00170839
3.78549e-05
0.00167387
3.45225e-05
0.00164234
3.15324e-05
0.00161349
2.8854e-05
0.00158703
2.64582e-05
0.00156271
2.43173e-05
0.00154031
2.24058e-05
0.00151961
2.07001e-05
0.00150043
1.91785e-05
0.00148261
1.78215e-05
0.001466
1.66116e-05
0.00145047
1.5533e-05
0.0014359
1.45717e-05
0.00142218
1.37152e-05
0.00140923
1.29521e-05
0.00139696
1.22719e-05
0.0013853
1.1665e-05
0.00137418
1.11226e-05
0.00136354
1.06371e-05
0.00135334
1.02018e-05
0.00134353
9.81088e-06
0.00133407
9.45945e-06
0.00132493
9.14298e-06
0.00131607
8.85721e-06
0.00130748
8.59806e-06
0.00129911
8.36161e-06
0.00129097
8.14433e-06
0.00128303
7.94331e-06
0.00127527
7.75645e-06
0.00126769
7.58236e-06
0.00126027
7.42011e-06
0.001253
7.2688e-06
0.00124588
7.12732e-06
0.00123888
6.99427e-06
0.00123202
6.86818e-06
0.00122527
6.74781e-06
0.00121864
6.63237e-06
0.00121212
6.52158e-06
0.0012057
6.41534e-06
0.00119939
6.31359e-06
0.00119318
6.21597e-06
0.00118705
6.12185e-06
0.00118103
6.03039e-06
0.00117508
5.9409e-06
0.00116923
5.85297e-06
0.00116347
5.76669e-06
0.00115779
5.68248e-06
0.00115218
5.60106e-06
0.00114666
5.52293e-06
0.00114121
5.44834e-06
0.00113584
5.37704e-06
0.00113053
5.3084e-06
0.00112529
5.24157e-06
0.00112011
5.17576e-06
0.001115
5.11047e-06
0.00110996
5.0455e-06
0.00110498
4.98098e-06
0.00110006
4.9171e-06
0.00109521
4.85383e-06
0.00109042
4.79075e-06
0.00108569
4.72691e-06
0.00108103
4.66131e-06
0.00107644
4.59288e-06
0.00107192
4.52141e-06
0.00106747
4.44726e-06
0.0010631
4.37187e-06
0.0010588
4.29682e-06
0.00105458
4.22373e-06
0.00105043
4.15381e-06
0.00104634
4.08672e-06
0.00104232
4.02312e-06
0.00103836
3.95978e-06
0.00103446
3.89949e-06
0.00103062
3.83529e-06
0.00102685
3.77706e-06
0.00102314
3.70981e-06
0.00101948
3.65702e-06
0.0010159
3.58456e-06
0.00101236
3.54057e-06
0.0010089
3.45348e-06
0.00100549
3.41613e-06
0.00100219
3.29625e-06
0.000998934
3.25866e-06
0.000995846
3.08836e-06
0.000992805
3.04188e-06
0.000989987
2.81828e-06
0.000987248
2.73853e-06
0.000984756
2.49248e-06
0.000982453
2.30397e-06
0.000980344
2.10867e-06
0.00097863
1.71481e-06
1.53148e-06
0.00486995
1.87474e-05
0.00489042
4.43994e-05
0.00492112
7.1922e-05
0.00495684
9.48342e-05
0.00499355
0.00011565
0.00502764
0.000132757
0.00505644
0.000146681
0.00507819
0.000157121
0.00509206
0.000164404
0.00509782
0.00016876
0.00509574
0.000170456
0.00508651
0.000170026
0.00507092
0.00016775
0.0050498
0.000163969
0.005024
0.000159044
0.00499437
0.000153272
0.00496166
0.000146922
0.00492656
0.000140214
0.00488964
0.000133337
0.00485142
0.00012644
0.00481231
0.000119645
0.00477267
0.000113042
0.00473279
0.000106698
0.0046929
0.00010066
0.00465319
9.49591e-05
0.00461381
8.96102e-05
0.00457486
8.4618e-05
0.00453645
7.99789e-05
0.00449862
7.56828e-05
0.00446143
7.17156e-05
0.0044249
6.80598e-05
0.00438906
6.46965e-05
0.00435392
6.16053e-05
0.00431947
5.87658e-05
0.00428572
5.61576e-05
0.00425266
5.37611e-05
0.00422028
5.15578e-05
0.00418857
4.95304e-05
0.00415752
4.7663e-05
0.00412711
4.59412e-05
0.00409733
4.43519e-05
0.00406817
4.28831e-05
0.0040396
4.15238e-05
0.00401161
4.02637e-05
0.00398418
3.9093e-05
0.0039573
3.80029e-05
0.00393095
3.69854e-05
0.00390512
3.60333e-05
0.00387979
3.51406e-05
0.00385495
3.4302e-05
0.00383058
3.35126e-05
0.00380667
3.27679e-05
0.00378321
3.20631e-05
0.00376018
3.13937e-05
0.00373757
3.07554e-05
0.00371537
3.01443e-05
0.00369357
2.95576e-05
0.00367216
2.89929e-05
0.00365113
2.84487e-05
0.00363048
2.79238e-05
0.00361019
2.74167e-05
0.00359026
2.69256e-05
0.00357068
2.64487e-05
0.00355145
2.59844e-05
0.00353255
2.55319e-05
0.00351398
2.50908e-05
0.00349573
2.46614e-05
0.0034778
2.42441e-05
0.00346018
2.3839e-05
0.00344286
2.34456e-05
0.00342583
2.3063e-05
0.00340908
2.26902e-05
0.00339261
2.23264e-05
0.0033764
2.19711e-05
0.00336046
2.16244e-05
0.00334478
2.12867e-05
0.00332934
2.0958e-05
0.00331415
2.06385e-05
0.0032992
2.03275e-05
0.00328449
2.0024e-05
0.00327001
1.97267e-05
0.00325575
1.94348e-05
0.00324171
1.91473e-05
0.00322789
1.88643e-05
0.00321429
1.85861e-05
0.00320089
1.83135e-05
0.0031877
1.80465e-05
0.00317471
1.7785e-05
0.00316191
1.75276e-05
0.0031493
1.72731e-05
0.00313687
1.70192e-05
0.00312463
1.67655e-05
0.00311256
1.65112e-05
0.00310068
1.6258e-05
0.00308897
1.60068e-05
0.00307743
1.576e-05
0.00306607
1.55181e-05
0.00305487
1.52815e-05
0.00304385
1.50497e-05
0.00303299
1.48193e-05
0.0030223
1.45936e-05
0.00301177
1.43633e-05
0.0030014
1.41435e-05
0.0029912
1.39109e-05
0.00298115
1.37049e-05
0.00297127
1.34665e-05
0.00296153
1.32828e-05
0.00295197
1.30196e-05
0.00294252
1.28611e-05
0.00293328
1.25327e-05
0.00292414
1.24027e-05
0.00291528
1.19538e-05
0.00290645
1.18669e-05
0.00289803
1.12355e-05
0.00288956
1.12108e-05
0.00288173
1.03282e-05
0.00287368
1.03526e-05
0.00286666
9.13089e-06
0.00285922
9.14871e-06
7.36302e-06
0.00486615
1.17885e-05
0.00487993
3.06165e-05
0.00490137
5.04867e-05
0.00492904
6.71708e-05
0.00496212
8.25655e-05
0.0049996
9.52825e-05
0.00504039
0.000105892
0.00508341
0.000114103
0.00512761
0.000120198
0.00517206
0.00012431
0.00521589
0.000126627
0.00525845
0.000127473
0.00529917
0.000127033
0.00533762
0.000125519
0.00537351
0.000123155
0.00540665
0.000120127
0.00543697
0.000116609
0.00546444
0.000112746
0.00548911
0.000108665
0.00551108
0.000104471
0.00553048
0.000100252
0.00554744
9.60776e-05
0.00556214
9.20021e-05
0.00557473
8.80672e-05
0.00558539
8.43022e-05
0.00559427
8.07269e-05
0.00560154
7.73527e-05
0.00560734
7.41848e-05
0.0056118
7.1223e-05
0.00561505
6.84636e-05
0.00561721
6.58999e-05
0.00561839
6.35234e-05
0.00561867
6.1324e-05
0.00561815
5.92906e-05
0.00561689
5.74119e-05
0.00561498
5.56765e-05
0.00561246
5.40734e-05
0.0056094
5.25922e-05
0.00560584
5.1223e-05
0.00560183
4.99568e-05
0.0055974
4.87852e-05
0.00559258
4.77004e-05
0.00558741
4.66951e-05
0.00558191
4.57623e-05
0.00557611
4.48953e-05
0.00557003
4.4088e-05
0.00556368
4.33345e-05
0.00555709
4.26298e-05
0.00555026
4.19695e-05
0.00554321
4.13496e-05
0.00553596
4.07664e-05
0.00552851
4.02163e-05
0.00552088
3.96959e-05
0.00551307
3.92016e-05
0.0055051
3.87301e-05
0.00549697
3.82782e-05
0.00548868
3.78435e-05
0.00548025
3.74242e-05
0.00547168
3.70187e-05
0.00546298
3.66257e-05
0.00545416
3.62437e-05
0.00544521
3.58713e-05
0.00543616
3.55069e-05
0.00542699
3.51491e-05
0.00541773
3.47969e-05
0.00540837
3.44502e-05
0.00539892
3.41091e-05
0.0053894
3.3774e-05
0.00537979
3.34453e-05
0.00537011
3.31228e-05
0.00536037
3.28063e-05
0.00535057
3.24952e-05
0.00534071
3.2189e-05
0.00533079
3.18874e-05
0.00532083
3.15906e-05
0.00531082
3.12989e-05
0.00530076
3.10123e-05
0.00529067
3.0731e-05
0.00528055
3.04543e-05
0.00527039
3.01813e-05
0.00526021
2.99107e-05
0.00525
2.96419e-05
0.00523977
2.9374e-05
0.00522953
2.91072e-05
0.00521928
2.88415e-05
0.00520901
2.85782e-05
0.00519874
2.8317e-05
0.00518847
2.80584e-05
0.0051782
2.78011e-05
0.00516793
2.75444e-05
0.00515766
2.72866e-05
0.0051474
2.70271e-05
0.00513715
2.67653e-05
0.0051269
2.65023e-05
0.00511667
2.62386e-05
0.00510646
2.59759e-05
0.00509626
2.57147e-05
0.00508609
2.54542e-05
0.00507594
2.51955e-05
0.00506583
2.49329e-05
0.00505575
2.46728e-05
0.00504572
2.44012e-05
0.00503572
2.41397e-05
0.00502578
2.38548e-05
0.00501588
2.36006e-05
0.00500605
2.3295e-05
0.00499628
2.30603e-05
0.00498659
2.27094e-05
0.00497694
2.25076e-05
0.00496742
2.20572e-05
0.00495791
2.19134e-05
0.00494859
2.12737e-05
0.00493921
2.1245e-05
0.00493017
2.02777e-05
0.00492091
2.04649e-05
0.00491229
1.8951e-05
0.00490317
1.9475e-05
0.00489522
1.70804e-05
0.00488641
1.79573e-05
1.42843e-05
0.00486332
7.60396e-06
0.00487359
2.03489e-05
0.00489048
3.35942e-05
0.00491306
4.45942e-05
0.00494092
5.47062e-05
0.0049732
6.30002e-05
0.00500915
6.99402e-05
0.00504793
7.5331e-05
0.00508873
7.93932e-05
0.00513084
8.22075e-05
0.00517355
8.39136e-05
0.00521634
8.46889e-05
0.00525871
8.4658e-05
0.00530028
8.39555e-05
0.00534072
8.27143e-05
0.0053798
8.10468e-05
0.00541735
7.90595e-05
0.00545326
7.68409e-05
0.00548746
7.44701e-05
0.00551992
7.20107e-05
0.00555065
6.95181e-05
0.0055797
6.70353e-05
0.0056071
6.4596e-05
0.00563295
6.22266e-05
0.0056573
5.9946e-05
0.00568026
5.77671e-05
0.00570192
5.56981e-05
0.00572236
5.37434e-05
0.00574168
5.19042e-05
0.00575997
5.01796e-05
0.0057773
4.8567e-05
0.00579376
4.70627e-05
0.00580943
4.56618e-05
0.00582436
4.43592e-05
0.00583862
4.31492e-05
0.00585227
4.20263e-05
0.00586536
4.09848e-05
0.00587794
4.00195e-05
0.00589004
3.91253e-05
0.0059017
3.82975e-05
0.00591295
3.75316e-05
0.00592383
3.68235e-05
0.00593436
3.61691e-05
0.00594456
3.55643e-05
0.00595445
3.50053e-05
0.00596405
3.44883e-05
0.00597338
3.401e-05
0.00598244
3.35669e-05
0.00599125
3.31564e-05
0.00599983
3.27756e-05
0.00600817
3.24221e-05
0.0060163
3.20935e-05
0.00602421
3.17872e-05
0.00603191
3.15007e-05
0.00603941
3.12317e-05
0.00604671
3.0978e-05
0.00605382
3.07376e-05
0.00606074
3.05092e-05
0.00606746
3.02913e-05
0.00607401
3.00829e-05
0.00608037
2.98827e-05
0.00608655
2.96896e-05
0.00609256
2.95022e-05
0.00609839
2.93195e-05
0.00610405
2.91407e-05
0.00610953
2.89655e-05
0.00611485
2.87937e-05
0.00612
2.86255e-05
0.00612499
2.84609e-05
0.00612981
2.82998e-05
0.00613448
2.8142e-05
0.00613898
2.79871e-05
0.00614334
2.78347e-05
0.00614754
2.76848e-05
0.0061516
2.75373e-05
0.00615551
2.73923e-05
0.00615927
2.72499e-05
0.00616289
2.71098e-05
0.00616638
2.69717e-05
0.00616972
2.6835e-05
0.00617294
2.66989e-05
0.00617602
2.65627e-05
0.00617896
2.64261e-05
0.00618178
2.62889e-05
0.00618447
2.61514e-05
0.00618704
2.6014e-05
0.00618948
2.58769e-05
0.0061918
2.57402e-05
0.006194
2.56033e-05
0.00619608
2.54656e-05
0.00619804
2.5326e-05
0.00619988
2.5184e-05
0.00620161
2.50392e-05
0.00620322
2.48918e-05
0.00620472
2.47425e-05
0.0062061
2.45914e-05
0.00620738
2.44397e-05
0.00620855
2.42851e-05
0.00620961
2.41303e-05
0.00621058
2.39679e-05
0.00621145
2.38067e-05
0.00621222
2.36299e-05
0.0062129
2.34618e-05
0.00621349
2.32645e-05
0.00621399
2.30953e-05
0.00621442
2.2868e-05
0.00621478
2.27075e-05
0.00621506
2.24264e-05
0.00621528
2.22885e-05
0.00621543
2.19041e-05
0.00621553
2.18165e-05
0.00621556
2.12436e-05
0.00621554
2.12666e-05
0.00621545
2.03649e-05
0.00621531
2.0607e-05
0.00621512
1.91425e-05
0.00621485
1.97454e-05
0.00621458
1.73551e-05
0.00621418
1.83504e-05
1.46394e-05
0.00486295
3.77548e-06
0.00487324
1.00592e-05
0.00489022
1.66135e-05
0.0049127
2.21193e-05
0.0049401
2.73015e-05
0.00497152
3.15847e-05
0.00500621
3.5257e-05
0.00504338
3.81621e-05
0.00508234
4.04278e-05
0.00512247
4.20765e-05
0.00516321
4.31833e-05
0.00520406
4.38321e-05
0.00524463
4.4092e-05
0.00528456
4.40264e-05
0.00532357
4.37038e-05
0.00536144
4.31763e-05
0.00539801
4.24954e-05
0.00543315
4.17002e-05
0.0054668
4.0826e-05
0.00549891
3.98994e-05
0.00552949
3.89433e-05
0.00555855
3.79746e-05
0.00558614
3.70065e-05
0.00561232
3.60492e-05
0.00563715
3.51098e-05
0.00566073
3.41935e-05
0.00568312
3.33039e-05
0.00570443
3.24433e-05
0.00572472
3.16134e-05
0.00574408
3.08151e-05
0.0057626
3.00491e-05
0.00578035
2.93157e-05
0.0057974
2.8615e-05
0.00581381
2.7947e-05
0.00582965
2.73114e-05
0.00584497
2.67079e-05
0.00585982
2.61362e-05
0.00587424
2.55959e-05
0.00588828
2.50865e-05
0.00590198
2.46075e-05
0.00591535
2.41584e-05
0.00592844
2.37384e-05
0.00594126
2.33468e-05
0.00595384
2.29823e-05
0.00596621
2.26439e-05
0.00597837
2.23303e-05
0.00599034
2.204e-05
0.00600213
2.17718e-05
0.00601377
2.15244e-05
0.00602525
2.12965e-05
0.00603658
2.10868e-05
0.00604778
2.08939e-05
0.00605886
2.07165e-05
0.0060698
2.0553e-05
0.00608064
2.0402e-05
0.00609135
2.02621e-05
0.00610196
2.0132e-05
0.00611246
2.00108e-05
0.00612285
1.98974e-05
0.00613315
1.97911e-05
0.00614334
1.96909e-05
0.00615344
1.9596e-05
0.00616343
1.95054e-05
0.00617334
1.94184e-05
0.00618314
1.93343e-05
0.00619286
1.92528e-05
0.00620248
1.91737e-05
0.00621201
1.90968e-05
0.00622145
1.90222e-05
0.0062308
1.89495e-05
0.00624007
1.88785e-05
0.00624924
1.8809e-05
0.00625834
1.87407e-05
0.00626735
1.86734e-05
0.00627628
1.86068e-05
0.00628514
1.85416e-05
0.00629391
1.84772e-05
0.00630261
1.84136e-05
0.00631123
1.83504e-05
0.00631978
1.82873e-05
0.00632825
1.82239e-05
0.00633666
1.81598e-05
0.00634499
1.8095e-05
0.00635325
1.80294e-05
0.00636144
1.79634e-05
0.00636956
1.7897e-05
0.0063776
1.78304e-05
0.00638558
1.77637e-05
0.00639349
1.76965e-05
0.00640133
1.76285e-05
0.0064091
1.75591e-05
0.00641679
1.74878e-05
0.00642442
1.74146e-05
0.00643197
1.73389e-05
0.00643945
1.72616e-05
0.00644686
1.71814e-05
0.0064542
1.71003e-05
0.00646148
1.70144e-05
0.00646868
1.6928e-05
0.00647581
1.68324e-05
0.00648288
1.67379e-05
0.00648989
1.66268e-05
0.00649683
1.65233e-05
0.0065037
1.63908e-05
0.00651052
1.62806e-05
0.00651727
1.61179e-05
0.00652397
1.6006e-05
0.0065306
1.57952e-05
0.0065372
1.56886e-05
0.00654371
1.53963e-05
0.00655022
1.531e-05
0.00655658
1.48827e-05
0.006563
1.485e-05
0.00656916
1.42031e-05
0.00657548
1.42827e-05
0.00658135
1.3278e-05
0.00658755
1.35447e-05
0.00659294
1.19658e-05
0.00659885
1.24384e-05
1.00118e-05
0.00486262
2.58378e-07
0.00487221
4.67474e-07
0.00488797
8.61004e-07
0.00490909
9.97834e-07
0.00493516
1.2318e-06
0.00496537
1.37323e-06
0.00499905
1.58121e-06
0.00503542
1.79594e-06
0.00507377
2.07206e-06
0.00511345
2.39801e-06
0.00515385
2.78428e-06
0.00519446
3.22569e-06
0.00523483
3.72496e-06
0.00527459
4.26813e-06
0.00531344
4.85218e-06
0.00535116
5.46248e-06
0.00538756
6.09082e-06
0.00542254
6.72346e-06
0.00545602
7.35028e-06
0.00548796
7.95912e-06
0.00551836
8.54066e-06
0.00554725
9.08557e-06
0.00557467
9.5864e-06
0.00560069
1.00374e-05
0.00562536
1.04344e-05
0.00564878
1.07749e-05
0.00567103
1.10581e-05
0.00569219
1.12847e-05
0.00571235
1.14565e-05
0.00573159
1.15767e-05
0.00574999
1.16492e-05
0.00576763
1.16786e-05
0.00578457
1.16698e-05
0.00580089
1.1628e-05
0.00581665
1.15583e-05
0.00583189
1.14658e-05
0.00584667
1.13552e-05
0.00586104
1.12311e-05
0.00587503
1.10978e-05
0.00588868
1.09588e-05
0.00590202
1.08176e-05
0.00591509
1.06769e-05
0.00592789
1.05391e-05
0.00594047
1.04062e-05
0.00595284
1.02794e-05
0.00596501
1.016e-05
0.005977
1.00487e-05
0.00598883
9.94586e-06
0.0060005
9.85194e-06
0.00601203
9.76702e-06
0.00602343
9.69107e-06
0.0060347
9.62385e-06
0.00604585
9.56496e-06
0.00605689
9.51387e-06
0.00606783
9.46995e-06
0.00607866
9.4326e-06
0.00608939
9.4012e-06
0.00610003
9.37521e-06
0.00611057
9.35409e-06
0.00612103
9.33733e-06
0.0061314
9.32436e-06
0.00614168
9.31461e-06
0.00615188
9.30743e-06
0.00616199
9.30227e-06
0.00617203
9.29862e-06
0.00618199
9.29612e-06
0.00619187
9.29449e-06
0.00620167
9.29354e-06
0.0062114
9.29305e-06
0.00622106
9.29278e-06
0.00623065
9.29244e-06
0.00624017
9.29175e-06
0.00624962
9.29048e-06
0.00625901
9.28847e-06
0.00626833
9.28563e-06
0.00627759
9.28201e-06
0.00628679
9.27738e-06
0.00629593
9.2718e-06
0.00630502
9.26512e-06
0.00631405
9.25714e-06
0.00632303
9.24777e-06
0.00633195
9.2369e-06
0.00634082
9.22465e-06
0.00634964
9.21112e-06
0.00635841
9.19666e-06
0.00636713
9.18143e-06
0.00637579
9.16572e-06
0.00638441
9.1495e-06
0.00639297
9.13273e-06
0.00640149
9.11507e-06
0.00640995
9.0963e-06
0.00641836
9.07588e-06
0.00642672
9.05392e-06
0.00643503
9.02955e-06
0.00644329
9.00366e-06
0.0064515
8.97421e-06
0.00645966
8.94342e-06
0.00646777
8.90668e-06
0.00647583
8.86877e-06
0.00648384
8.8206e-06
0.0064918
8.77259e-06
0.00649972
8.70785e-06
0.0065076
8.64769e-06
0.00651543
8.56103e-06
0.00652322
8.48831e-06
0.00653097
8.37325e-06
0.00653869
8.28804e-06
0.00654635
8.13453e-06
0.006554
8.03644e-06
0.00656157
7.82969e-06
0.00656916
7.71916e-06
0.0065766
7.44089e-06
0.00658413
7.32252e-06
0.00659138
6.95127e-06
0.00659883
6.83611e-06
0.00660577
6.34146e-06
0.00661306
6.24973e-06
0.00661945
5.57593e-06
0.00662634
5.54769e-06
4.57559e-06
0.00486255
-3.1901e-06
0.00487216
-9.13683e-06
0.00488798
-1.49641e-05
0.00490923
-2.02431e-05
0.00493543
-2.4973e-05
0.00496579
-2.89799e-05
0.0049996
-3.22305e-05
0.00503609
-3.46938e-05
0.00507456
-3.63921e-05
0.00511432
-3.7368e-05
0.00515479
-3.76829e-05
0.00519545
-3.74291e-05
0.00523584
-3.66683e-05
0.00527561
-3.54958e-05
0.00531445
-3.3985e-05
0.00535213
-3.22184e-05
0.00538848
-3.0264e-05
0.0054234
-2.81885e-05
0.0054568
-2.60477e-05
0.00548865
-2.38926e-05
0.00551895
-2.17649e-05
0.00554774
-1.97001e-05
0.00557506
-1.77265e-05
0.00560096
-1.58655e-05
0.00562553
-1.41324e-05
0.00564884
-1.25372e-05
0.00567099
-1.10849e-05
0.00569205
-9.77633e-06
0.00571211
-8.60884e-06
0.00573127
-7.57703e-06
0.00574959
-6.67333e-06
0.00576716
-5.88866e-06
0.00578405
-5.21298e-06
0.00580031
-4.63571e-06
0.00581602
-4.14625e-06
0.00583122
-3.73406e-06
0.00584596
-3.38909e-06
0.0058603
-3.10183e-06
0.00587426
-2.86348e-06
0.00588789
-2.66604e-06
0.00590121
-2.50234e-06
0.00591425
-2.36601e-06
0.00592704
-2.25153e-06
0.0059396
-2.15414e-06
0.00595195
-2.06984e-06
0.00596411
-1.99529e-06
0.00597609
-1.92771e-06
0.0059879
-1.86481e-06
0.00599956
-1.8047e-06
0.00601107
-1.74588e-06
0.00602245
-1.68717e-06
0.00603371
-1.62772e-06
0.00604484
-1.56695e-06
0.00605586
-1.50448e-06
0.00606677
-1.44013e-06
0.00607758
-1.37379e-06
0.00608828
-1.30547e-06
0.0060989
-1.23518e-06
0.00610941
-1.16305e-06
0.00611984
-1.08924e-06
0.00613018
-1.01399e-06
0.00614044
-9.37612e-07
0.00615061
-8.60489e-07
0.00616069
-7.83027e-07
0.0061707
-7.05611e-07
0.00618062
-6.28608e-07
0.00619047
-5.52316e-07
0.00620024
-4.77034e-07
0.00620994
-4.03024e-07
0.00621957
-3.30626e-07
0.00622912
-2.60061e-07
0.0062386
-1.91764e-07
0.00624802
-1.25727e-07
0.00625737
-6.26395e-08
0.00626666
-2.83831e-09
0.00627589
5.55477e-08
0.00628506
1.10654e-07
0.00629417
1.62754e-07
0.00630322
2.12257e-07
0.00631222
2.59028e-07
0.00632117
3.03256e-07
0.00633006
3.44999e-07
0.0063389
3.84574e-07
0.00634769
4.22223e-07
0.00635643
4.58449e-07
0.00636512
4.93512e-07
0.00637376
5.2783e-07
0.00638235
5.61486e-07
0.00639089
5.94564e-07
0.00639937
6.26843e-07
0.00640781
6.58196e-07
0.0064162
6.88106e-07
0.00642454
7.16672e-07
0.00643283
7.42851e-07
0.00644106
7.67425e-07
0.00644925
7.88013e-07
0.00645739
8.06785e-07
0.00646548
8.18877e-07
0.00647352
8.28904e-07
0.00648151
8.28134e-07
0.00648946
8.25794e-07
0.00649736
8.07169e-07
0.00650522
7.89184e-07
0.00651303
7.48037e-07
0.00652081
7.11486e-07
0.00652854
6.44053e-07
0.00653624
5.84932e-07
0.00654389
4.89014e-07
0.00655153
3.99884e-07
0.00655908
2.77983e-07
0.00656665
1.45008e-07
0.00657408
1.23431e-08
0.00658159
-1.86978e-07
0.00658883
-2.89837e-07
0.00659626
-5.88806e-07
0.00660319
-5.86397e-07
0.00661045
-1.01386e-06
0.00661683
-8.02987e-07
0.00662368
-1.29613e-06
-8.35965e-07
0.0048627
-6.76755e-06
0.00487275
-1.91951e-05
0.00488939
-3.16027e-05
0.00491162
-4.24674e-05
0.00493885
-5.22057e-05
0.00497019
-6.03168e-05
0.00500488
-6.6916e-05
0.00504211
-7.19263e-05
0.00508119
-7.54704e-05
0.00512146
-7.76381e-05
0.00516235
-7.85704e-05
0.00520337
-7.84462e-05
0.00524409
-7.73838e-05
0.00528415
-7.5556e-05
0.00532326
-7.30995e-05
0.00536121
-7.01603e-05
0.00539781
-6.68628e-05
0.00543294
-6.33252e-05
0.00546655
-5.96486e-05
0.00549858
-5.5923e-05
0.00552904
-5.22234e-05
0.00555795
-4.86127e-05
0.00558537
-4.51409e-05
0.00561135
-4.18457e-05
0.00563597
-3.87546e-05
0.00565932
-3.58854e-05
0.00568149
-3.32475e-05
0.00570255
-3.08432e-05
0.00572262
-2.86693e-05
0.00574176
-2.67176e-05
0.00576006
-2.49768e-05
0.00577761
-2.34329e-05
0.00579447
-2.20705e-05
0.0058107
-2.08731e-05
0.00582638
-1.98246e-05
0.00584156
-1.89084e-05
0.00585628
-1.81092e-05
0.00587059
-1.74122e-05
0.00588453
-1.68037e-05
0.00589814
-1.62714e-05
0.00591144
-1.58042e-05
0.00592447
-1.5392e-05
0.00593725
-1.5026e-05
0.00594979
-1.46986e-05
0.00596213
-1.44032e-05
0.00597427
-1.41343e-05
0.00598623
-1.38869e-05
0.00599802
-1.3657e-05
0.00600966
-1.34413e-05
0.00602115
-1.32368e-05
0.00603251
-1.30412e-05
0.00604373
-1.28525e-05
0.00605484
-1.26691e-05
0.00606582
-1.24899e-05
0.0060767
-1.23139e-05
0.00608747
-1.21403e-05
0.00609813
-1.19685e-05
0.00610869
-1.17981e-05
0.00611916
-1.16286e-05
0.00612953
-1.146e-05
0.00613981
-1.12922e-05
0.00615
-1.11251e-05
0.0061601
-1.0959e-05
0.00617011
-1.07941e-05
0.00618004
-1.06307e-05
0.00618988
-1.04692e-05
0.00619964
-1.03098e-05
0.00620932
-1.0153e-05
0.00621891
-9.99897e-06
0.00622843
-9.8482e-06
0.00623787
-9.701e-06
0.00624724
-9.5577e-06
0.00625654
-9.41859e-06
0.00626576
-9.28389e-06
0.00627491
-9.15368e-06
0.006284
-9.02794e-06
0.00629301
-8.90681e-06
0.00630197
-8.79005e-06
0.00631086
-8.67754e-06
0.00631969
-8.56914e-06
0.00632846
-8.46449e-06
0.00633717
-8.3633e-06
0.00634582
-8.26507e-06
0.00635441
-8.16933e-06
0.00636294
-8.07543e-06
0.00637142
-7.98302e-06
0.00637984
-7.89151e-06
0.0063882
-7.8008e-06
0.00639651
-7.71055e-06
0.00640476
-7.62097e-06
0.00641295
-7.53194e-06
0.00642108
-7.44402e-06
0.00642916
-7.35703e-06
0.00643717
-7.2722e-06
0.00644513
-7.18888e-06
0.00645303
-7.1097e-06
0.00646087
-7.03264e-06
0.00646865
-6.96268e-06
0.00647638
-6.89551e-06
0.00648404
-6.83945e-06
0.00649166
-6.78634e-06
0.00649921
-6.74904e-06
0.00650672
-6.71427e-06
0.00651417
-6.69991e-06
0.00652157
-6.68833e-06
0.00652891
-6.69853e-06
0.00653621
-6.71743e-06
0.00654345
-6.74787e-06
0.00655066
-6.81075e-06
0.00655778
-6.84419e-06
0.00656491
-6.97753e-06
0.00657189
-6.96853e-06
0.00657892
-7.22095e-06
0.00658571
-7.07191e-06
0.00659264
-7.52321e-06
0.00659911
-7.0551e-06
0.0066059
-7.79959e-06
0.00661184
-6.7461e-06
0.00661828
-7.73646e-06
-5.9037e-06
0.00486301
-1.06495e-05
0.00487321
-2.93859e-05
0.00489
-4.84e-05
0.00491263
-6.50934e-05
0.00494061
-8.01837e-05
0.00497309
-9.27935e-05
0.00500928
-0.000103108
0.00504831
-0.000110958
0.00508939
-0.00011654
0.00513172
-0.000119971
0.00517463
-0.000121483
0.00521757
-0.000121385
0.00526004
-0.000119845
0.00530162
-0.000117137
0.00534201
-0.000113486
0.00538096
-0.000109116
0.00541832
-0.000104223
0.00545398
-9.89822e-05
0.00548788
-9.35472e-05
0.00552001
-8.80503e-05
0.00555039
-8.26007e-05
0.00557907
-7.7289e-05
0.00560611
-7.21859e-05
0.00563161
-6.73439e-05
0.00565566
-6.28005e-05
0.00567835
-5.85788e-05
0.0056998
-5.46902e-05
0.00572009
-5.11361e-05
0.00573933
-4.79102e-05
0.00575762
-4.49997e-05
0.00577503
-4.23874e-05
0.00579165
-4.00527e-05
0.00580755
-3.79735e-05
0.00582281
-3.61265e-05
0.00583747
-3.44887e-05
0.0058516
-3.30374e-05
0.00586525
-3.17512e-05
0.00587845
-3.06097e-05
0.00589124
-2.95944e-05
0.00590366
-2.86886e-05
0.00591573
-2.78769e-05
0.00592749
-2.7146e-05
0.00593894
-2.6484e-05
0.00595013
-2.58804e-05
0.00596105
-2.53264e-05
0.00597173
-2.48142e-05
0.00598219
-2.43373e-05
0.00599242
-2.38898e-05
0.00600245
-2.34672e-05
0.00601228
-2.30653e-05
0.00602192
-2.26806e-05
0.00603138
-2.23104e-05
0.00604066
-2.19523e-05
0.00604978
-2.16042e-05
0.00605873
-2.12645e-05
0.00606752
-2.09318e-05
0.00607616
-2.06052e-05
0.00608465
-2.02835e-05
0.00609298
-1.99661e-05
0.00610118
-1.96525e-05
0.00610923
-1.93423e-05
0.00611714
-1.90354e-05
0.00612492
-1.87318e-05
0.00613255
-1.84316e-05
0.00614006
-1.81351e-05
0.00614743
-1.78426e-05
0.00615468
-1.75545e-05
0.0061618
-1.72712e-05
0.0061688
-1.69929e-05
0.00617567
-1.67203e-05
0.00618242
-1.64535e-05
0.00618906
-1.61931e-05
0.00619558
-1.59392e-05
0.00620199
-1.5692e-05
0.00620829
-1.54518e-05
0.00621448
-1.52182e-05
0.00622057
-1.49914e-05
0.00622655
-1.47711e-05
0.00623243
-1.45571e-05
0.00623821
-1.4349e-05
0.00624389
-1.41462e-05
0.00624948
-1.39482e-05
0.00625497
-1.37544e-05
0.00626036
-1.35641e-05
0.00626567
-1.33767e-05
0.00627088
-1.31917e-05
0.00627599
-1.30083e-05
0.00628102
-1.28264e-05
0.00628596
-1.26455e-05
0.0062908
-1.2466e-05
0.00629556
-1.22873e-05
0.00630023
-1.21105e-05
0.0063048
-1.19349e-05
0.0063093
-1.17625e-05
0.0063137
-1.15922e-05
0.00631802
-1.1427e-05
0.00632225
-1.1265e-05
0.0063264
-1.1111e-05
0.00633047
-1.0961e-05
0.00633445
-1.0823e-05
0.00633835
-1.06893e-05
0.00634218
-1.0572e-05
0.00634592
-1.04593e-05
0.00634959
-1.03662e-05
0.00635318
-1.02796e-05
0.00635669
-1.02107e-05
0.00636014
-1.01581e-05
0.00636349
-1.01056e-05
0.00636679
-1.01015e-05
0.00636998
-1.00414e-05
0.00637312
-1.01149e-05
0.00637614
-9.99027e-06
0.00637912
-1.01947e-05
0.00638194
-9.89012e-06
0.00638472
-1.03113e-05
0.00638729
-9.62248e-06
0.00638985
-1.0358e-05
0.00639209
-8.98164e-06
0.00639434
-9.98775e-06
-7.65722e-06
0.00486452
-1.59868e-05
0.00487714
-4.20058e-05
0.00489758
-6.88385e-05
0.00492459
-9.21039e-05
0.0049573
-0.000112889
0.00499458
-0.00013007
0.0050353
-0.000143836
0.00507834
-0.000153993
0.00512263
-0.000160829
0.00516719
-0.000164531
0.00521119
-0.000165478
0.00525396
-0.000164162
0.00529496
-0.000160842
0.00533378
-0.000155951
0.00537013
-0.000149841
0.00540387
-0.000142854
0.00543493
-0.000135276
0.00546331
-0.00012736
0.00548908
-0.000119318
0.00551235
-0.000111326
0.00553328
-0.00010352
0.005552
-9.60122e-05
0.0055687
-8.8881e-05
0.00558354
-8.21813e-05
0.00559668
-7.59474e-05
0.0056083
-7.01956e-05
0.00561854
-6.49274e-05
0.00562754
-6.01331e-05
0.00563542
-5.57942e-05
0.00564231
-5.18854e-05
0.0056483
-4.83777e-05
0.00565349
-4.52391e-05
0.00565795
-4.24367e-05
0.00566177
-3.99375e-05
0.00566499
-3.77102e-05
0.00566768
-3.57242e-05
0.00566988
-3.39513e-05
0.00567163
-3.23652e-05
0.00567298
-3.09425e-05
0.00567396
-2.9662e-05
0.00567459
-2.85049e-05
0.0056749
-2.74546e-05
0.00567491
-2.64965e-05
0.00567465
-2.56179e-05
0.00567413
-2.48077e-05
0.00567338
-2.40566e-05
0.0056724
-2.33565e-05
0.00567121
-2.27004e-05
0.00566983
-2.20824e-05
0.00566826
-2.14975e-05
0.00566652
-2.09412e-05
0.00566462
-2.041e-05
0.00566257
-1.99006e-05
0.00566038
-1.94105e-05
0.00565805
-1.89373e-05
0.0056556
-1.84792e-05
0.00565303
-1.80346e-05
0.00565035
-1.76021e-05
0.00564757
-1.71808e-05
0.00564469
-1.67698e-05
0.00564171
-1.63687e-05
0.00563866
-1.59769e-05
0.00563552
-1.55943e-05
0.00563231
-1.52208e-05
0.00562903
-1.48565e-05
0.00562569
-1.45015e-05
0.0056223
-1.41559e-05
0.00561885
-1.38199e-05
0.00561535
-1.34936e-05
0.00561181
-1.31772e-05
0.00560823
-1.28707e-05
0.00560461
-1.25744e-05
0.00560096
-1.22881e-05
0.00559728
-1.20118e-05
0.00559357
-1.17453e-05
0.00558985
-1.14883e-05
0.0055861
-1.12405e-05
0.00558233
-1.10014e-05
0.00557854
-1.07705e-05
0.00557474
-1.05472e-05
0.00557093
-1.03309e-05
0.0055671
-1.01211e-05
0.00556326
-9.9169e-06
0.00555942
-9.71776e-06
0.00555557
-9.52286e-06
0.00555171
-9.33184e-06
0.00554784
-9.144e-06
0.00554398
-8.95929e-06
0.00554011
-8.77723e-06
0.00553624
-8.59819e-06
0.00553238
-8.42186e-06
0.00552852
-8.24906e-06
0.00552466
-8.07947e-06
0.00552082
-7.91458e-06
0.00551698
-7.7536e-06
0.00551315
-7.59928e-06
0.00550934
-7.44952e-06
0.00550553
-7.30901e-06
0.00550175
-7.17354e-06
0.00549798
-7.05039e-06
0.00549422
-6.93227e-06
0.00549048
-6.82961e-06
0.00548675
-6.73166e-06
0.00548304
-6.65116e-06
0.00547933
-6.57635e-06
0.00547564
-6.51615e-06
0.00547195
-6.46904e-06
0.00546827
-6.42062e-06
0.00546458
-6.4106e-06
0.00546089
-6.35343e-06
0.00545717
-6.39908e-06
0.00545348
-6.29081e-06
0.0054497
-6.42194e-06
0.005446
-6.18788e-06
0.00544213
-6.43814e-06
0.00543848
-5.96853e-06
0.00543446
-6.33905e-06
0.00543098
-5.50409e-06
0.00542688
-5.88572e-06
-4.5366e-06
0.0048665
-2.32792e-05
0.00488422
-5.97239e-05
0.00491225
-9.68683e-05
0.00494604
-0.000125901
0.00498157
-0.000148412
0.00501521
-0.000163707
0.00504425
-0.00017288
0.00506695
-0.000176688
0.00508243
-0.00017631
0.00509045
-0.000172545
0.00509131
-0.000166337
0.0050857
-0.000158555
0.00507437
-0.000149514
0.00505816
-0.000139738
0.00503793
-0.00012961
0.0050145
-0.000119422
0.00498861
-0.000109383
0.00496091
-9.96598e-05
0.00493196
-9.03685e-05
0.00490223
-8.1594e-05
0.00487211
-7.33936e-05
0.00484189
-6.5797e-05
0.00481183
-5.88197e-05
0.00478211
-5.24593e-05
0.00475287
-4.67012e-05
0.00472419
-4.15219e-05
0.00469616
-3.68901e-05
0.0046688
-3.27706e-05
0.00464213
-2.91248e-05
0.00461616
-2.59125e-05
0.00459087
-2.30937e-05
0.00456626
-2.06283e-05
0.00454231
-1.84793e-05
0.00451898
-1.66104e-05
0.00449626
-1.49886e-05
0.00447412
-1.35834e-05
0.00445254
-1.23672e-05
0.00443149
-1.13152e-05
0.00441095
-1.04052e-05
0.00439091
-9.61769e-06
0.00437134
-8.93558e-06
0.00435223
-8.34386e-06
0.00433357
-7.82942e-06
0.00431533
-7.38095e-06
0.00429751
-6.98857e-06
0.0042801
-6.64392e-06
0.00426309
-6.3397e-06
0.00424646
-6.0698e-06
0.00423021
-5.82887e-06
0.00421432
-5.61249e-06
0.0041988
-5.4168e-06
0.00418363
-5.23867e-06
0.0041688
-5.07548e-06
0.00415432
-4.92493e-06
0.00414017
-4.78532e-06
0.00412635
-4.65487e-06
0.00411285
-4.53248e-06
0.00409966
-4.41705e-06
0.00408679
-4.30773e-06
0.00407423
-4.20386e-06
0.00406196
-4.10486e-06
0.00405
-4.01025e-06
0.00403832
-3.91967e-06
0.00402694
-3.8328e-06
0.00401583
-3.74938e-06
0.004005
-3.66921e-06
0.00399444
-3.59212e-06
0.00398414
-3.51794e-06
0.00397409
-3.44657e-06
0.00396429