/*--------------------------------*- C++ -*----------------------------------*\
  =========                 |
  \\      /  F ield         | OpenFOAM: The Open Source CFD Toolbox
   \\    /   O peration     | Website:  https://openfoam.org
    \\  /    A nd           | Version:  7
     \\/     M anipulation  |
\*---------------------------------------------------------------------------*/
FoamFile
{
    version     2.0;
    format      ascii;
    class       volScalarField;
    location    "2.2";
    object      alphat;
}
// * * * * * * * * * * * * * * * * * * * * * * * * * * * * * * * * * * * * * //

dimensions      [1 -1 -1 0 0 0 0];

internalField   nonuniform List<scalar> 
5280
(
0.000221785
0.000513681
0.000828635
0.00110301
0.00133231
0.00151416
0.00165306
0.00175279
0.00182174
0.00186306
0.00188703
0.001891
0.00188699
0.00187623
0.00185726
0.0018345
0.00180937
0.00178292
0.00175594
0.00172898
0.00170248
0.0016767
0.00165185
0.00162807
0.00160542
0.00158394
0.00156364
0.00154449
0.00152647
0.00150954
0.00149363
0.0014787
0.00146467
0.0014515
0.00143912
0.00142748
0.00141651
0.00140616
0.00139639
0.00138714
0.00137837
0.00137003
0.0013621
0.00135453
0.0013473
0.00134036
0.00133371
0.00132731
0.00132114
0.00131519
0.00130944
0.00130387
0.00129847
0.00129323
0.00128813
0.00128317
0.00127833
0.00127361
0.00126901
0.0012645
0.0012601
0.00125579
0.00125157
0.00124742
0.00124336
0.00123937
0.00123546
0.00123159
0.00122783
0.00122404
0.00122044
0.00121668
0.00121328
0.00120943
0.00120628
0.0012023
0.00119892
0.00119567
0.00118865
0.00120031
1.19618e-05
4.2856e-05
9.61276e-05
0.000167278
0.000259061
0.000358648
0.000458359
0.000550064
0.000633434
0.000704985
0.00076632
0.000816778
0.000857576
0.000890539
0.000916345
0.000936247
0.000951256
0.000962412
0.000970418
0.00097609
0.000979818
0.000982275
0.000983561
0.000984297
0.000984297
0.000984159
0.000983825
0.00098336
0.000982878
0.000982429
0.000982046
0.000981753
0.000981554
0.000981459
0.000981474
0.00098154
0.000981691
0.000981918
0.000982201
0.000982527
0.000982883
0.000983257
0.000983641
0.000984024
0.0009844
0.000984765
0.000985114
0.000985443
0.000985745
0.000986019
0.00098626
0.000986466
0.000986636
0.00098677
0.000986872
0.000986936
0.00098697
0.000986958
0.000986929
0.000986874
0.00098677
0.000986659
0.000986492
0.000986334
0.000986104
0.000985908
0.000985616
0.000985397
0.000985044
0.00098482
0.0009844
0.000984186
0.000983701
0.000983506
0.000982952
0.000982799
0.000982098
0.000981957
0.000980636
0.000981459
8.16755e-06
8.36473e-06
9.91326e-06
1.49385e-05
2.49044e-05
3.97648e-05
5.99289e-05
8.45981e-05
0.00011187
0.000140462
0.000169271
0.000197685
0.000224811
0.000250436
0.00027416
0.000295935
0.000315633
0.000333374
0.000349174
0.000363224
0.000375602
0.000386513
0.00039606
0.00040442
0.000411712
0.000418065
0.00042362
0.000428468
0.00043273
0.00043647
0.000439793
0.000442738
0.000445403
0.000447804
0.000450035
0.000452088
0.000454051
0.000455896
0.000457713
0.000459455
0.000461216
0.000462929
0.0004647
0.000466436
0.000468256
0.000470044
0.000471939
0.000473798
0.000475784
0.000477727
0.000479817
0.000481848
0.000484045
0.000486161
0.00048846
0.000490648
0.000493043
0.000495292
0.000497773
0.000500071
0.000502635
0.000504968
0.000507611
0.000509969
0.000512688
0.000515059
0.00051785
0.000520219
0.000523083
0.000525433
0.000528376
0.000530691
0.000533728
0.000535992
0.000539144
0.000541339
0.000544647
0.000546769
0.000550382
0.000552649
8.16401e-06
8.16545e-06
8.17419e-06
8.21159e-06
8.34998e-06
8.76599e-06
9.78117e-06
1.17613e-05
1.53855e-05
1.93316e-05
2.55373e-05
3.14104e-05
3.88802e-05
4.59244e-05
5.38982e-05
6.13497e-05
6.92986e-05
7.66338e-05
8.42002e-05
9.10878e-05
9.80513e-05
0.000104314
0.00011058
0.00011615
0.000121694
0.000126558
0.000131403
0.000135607
0.000139825
0.000143442
0.00014711
0.000150209
0.000153398
0.000156049
0.000158837
0.000161113
0.000163571
0.000165538
0.000167728
0.000169441
0.000171418
0.000172923
0.000174731
0.000176069
0.000177747
0.00017895
0.000180527
0.000181621
0.000183124
0.000184131
0.000185586
0.000186532
0.000187961
0.000188862
0.000190279
0.000191143
0.000192558
0.000193394
0.000194817
0.000195635
0.000197075
0.000197882
0.000199349
0.000200151
0.000201652
0.000202457
0.000203999
0.000204814
0.000206402
0.000207233
0.000208872
0.000209724
0.00021142
0.000212304
0.00021407
0.000215002
0.00021688
0.000217899
0.000220013
0.00022121
8.16198e-06
8.16212e-06
8.16535e-06
8.17403e-06
8.19446e-06
8.21823e-06
8.26817e-06
8.31885e-06
8.42876e-06
8.54909e-06
8.8157e-06
9.09479e-06
9.6868e-06
1.02016e-05
1.12386e-05
1.19909e-05
1.34526e-05
1.43798e-05
1.61503e-05
1.71744e-05
1.9119e-05
2.01752e-05
2.21822e-05
2.32264e-05
2.52157e-05
2.6219e-05
2.81262e-05
2.9094e-05
3.08804e-05
3.18059e-05
3.34693e-05
3.43401e-05
3.58867e-05
3.66967e-05
3.81362e-05
3.88861e-05
4.02299e-05
4.09251e-05
4.21859e-05
4.28333e-05
4.40226e-05
4.46283e-05
4.57547e-05
4.63235e-05
4.73954e-05
4.7932e-05
4.89561e-05
4.94638e-05
5.04447e-05
5.0928e-05
5.18727e-05
5.23386e-05
5.32545e-05
5.37064e-05
5.45958e-05
5.50337e-05
5.58969e-05
5.63219e-05
5.71624e-05
5.75772e-05
5.83986e-05
5.88048e-05
5.96108e-05
6.00103e-05
6.08041e-05
6.11987e-05
6.19833e-05
6.23748e-05
6.31537e-05
6.35439e-05
6.43209e-05
6.47118e-05
6.5492e-05
6.58872e-05
6.66795e-05
6.70866e-05
6.79118e-05
6.83467e-05
6.92519e-05
6.97459e-05
8.16171e-06
8.16026e-06
8.16279e-06
8.17037e-06
8.18895e-06
8.20952e-06
8.25407e-06
8.28652e-06
8.35384e-06
8.39477e-06
8.47839e-06
8.52469e-06
8.6186e-06
8.66811e-06
8.76804e-06
8.81962e-06
8.9242e-06
8.9781e-06
9.08837e-06
9.14541e-06
9.2626e-06
9.32324e-06
9.44772e-06
9.51191e-06
9.64334e-06
9.71067e-06
9.84803e-06
9.91794e-06
1.00599e-05
1.01316e-05
1.02768e-05
1.03498e-05
1.0497e-05
1.05707e-05
1.07192e-05
1.07934e-05
1.09425e-05
1.10169e-05
1.11663e-05
1.1241e-05
1.13912e-05
1.14664e-05
1.16176e-05
1.16936e-05
1.18459e-05
1.19224e-05
1.20758e-05
1.21528e-05
1.23074e-05
1.23852e-05
1.25414e-05
1.26203e-05
1.27788e-05
1.28592e-05
1.30202e-05
1.31018e-05
1.32652e-05
1.33478e-05
1.35132e-05
1.35969e-05
1.37645e-05
1.38494e-05
1.40196e-05
1.41061e-05
1.42794e-05
1.43676e-05
1.45445e-05
1.46348e-05
1.48156e-05
1.49082e-05
1.50937e-05
1.5189e-05
1.53804e-05
1.54795e-05
1.56794e-05
1.57843e-05
1.5998e-05
1.61126e-05
1.63471e-05
1.64859e-05
8.16171e-06
8.16026e-06
8.16279e-06
8.17037e-06
8.18895e-06
8.20952e-06
8.25407e-06
8.28652e-06
8.35384e-06
8.39477e-06
8.47839e-06
8.52469e-06
8.6186e-06
8.66811e-06
8.76804e-06
8.81961e-06
8.92419e-06
8.97809e-06
9.08836e-06
9.1454e-06
9.26259e-06
9.32323e-06
9.4477e-06
9.51188e-06
9.6433e-06
9.71062e-06
9.84791e-06
9.91783e-06
1.00597e-05
1.01315e-05
1.02766e-05
1.03495e-05
1.04967e-05
1.05703e-05
1.07187e-05
1.07928e-05
1.09417e-05
1.1016e-05
1.11652e-05
1.12398e-05
1.13896e-05
1.14646e-05
1.16154e-05
1.1691e-05
1.18427e-05
1.19188e-05
1.20714e-05
1.21479e-05
1.23013e-05
1.23783e-05
1.2533e-05
1.26109e-05
1.27674e-05
1.28464e-05
1.30048e-05
1.30846e-05
1.32443e-05
1.33246e-05
1.34852e-05
1.35658e-05
1.37271e-05
1.3808e-05
1.39699e-05
1.4051e-05
1.42134e-05
1.42946e-05
1.44572e-05
1.45383e-05
1.47005e-05
1.47811e-05
1.49423e-05
1.50221e-05
1.51818e-05
1.52608e-05
1.54198e-05
1.54989e-05
1.566e-05
1.57419e-05
1.59139e-05
1.60052e-05
8.16198e-06
8.16212e-06
8.16535e-06
8.17403e-06
8.19446e-06
8.21823e-06
8.26817e-06
8.31885e-06
8.42876e-06
8.54909e-06
8.81548e-06
9.09469e-06
9.6866e-06
1.02015e-05
1.12384e-05
1.19908e-05
1.34524e-05
1.43796e-05
1.61501e-05
1.71742e-05
1.91187e-05
2.01749e-05
2.21818e-05
2.3226e-05
2.52152e-05
2.62185e-05
2.81205e-05
2.90978e-05
3.08751e-05
3.1809e-05
3.3464e-05
3.43423e-05
3.58812e-05
3.66979e-05
3.81298e-05
3.88861e-05
4.02229e-05
4.09236e-05
4.21776e-05
4.28301e-05
4.40131e-05
4.46226e-05
4.57433e-05
4.63149e-05
4.7381e-05
4.79199e-05
4.89378e-05
4.94471e-05
5.04212e-05
5.09052e-05
5.18428e-05
5.2308e-05
5.3216e-05
5.36658e-05
5.45459e-05
5.49799e-05
5.58325e-05
5.62516e-05
5.70787e-05
5.74852e-05
5.82899e-05
5.86856e-05
5.947e-05
5.98558e-05
6.06214e-05
6.09982e-05
6.17465e-05
6.21151e-05
6.28472e-05
6.32078e-05
6.39246e-05
6.42774e-05
6.498e-05
6.53259e-05
6.60184e-05
6.6362e-05
6.70592e-05
6.74135e-05
6.81576e-05
6.8552e-05
8.16401e-06
8.16545e-06
8.17419e-06
8.21159e-06
8.34998e-06
8.76599e-06
9.78121e-06
1.17613e-05
1.53856e-05
1.93316e-05
2.55289e-05
3.14175e-05
3.88744e-05
4.59292e-05
5.38939e-05
6.13532e-05
6.9295e-05
7.66367e-05
8.41969e-05
9.10902e-05
9.8048e-05
0.000104316
0.000110577
0.000116152
0.000121691
0.000126559
0.000131399
0.000135607
0.000139821
0.000143442
0.000147105
0.000150208
0.000153392
0.000156047
0.000158829
0.00016111
0.000163561
0.000165533
0.000167716
0.000169434
0.000171402
0.000172912
0.000174711
0.000176054
0.000177722
0.000178929
0.000180496
0.000181593
0.000183083
0.000184094
0.000185534
0.000186482
0.000187894
0.000188795
0.000190192
0.000191055
0.000192445
0.000193278
0.00019467
0.000195481
0.000196885
0.000197681
0.000199102
0.000199888
0.000201332
0.000202113
0.000203585
0.000204364
0.000205866
0.000206646
0.000208177
0.00020896
0.000210518
0.000211312
0.000212901
0.000213715
0.000215362
0.00021623
0.000218051
0.000219056
8.16755e-06
8.36473e-06
9.91326e-06
1.49385e-05
2.49045e-05
3.97649e-05
5.99308e-05
8.45965e-05
0.000111871
0.000140461
0.000169272
0.000197684
0.000224811
0.000250435
0.00027416
0.000295935
0.000315633
0.000333373
0.000349174
0.000363223
0.000375602
0.000386511
0.000396059
0.000404418
0.000411711
0.000418062
0.000423619
0.000428464
0.000432728
0.000436465
0.00043979
0.000442732
0.000445398
0.000447797
0.000450029
0.000452079
0.000454043
0.000455884
0.000457702
0.000459438
0.000461201
0.000462908
0.00046468
0.000466408
0.000468229
0.000470008
0.000471903
0.00047375
0.000475737
0.000477665
0.000479755
0.000481767
0.000483964
0.000486055
0.000488354
0.000490512
0.000492904
0.000495115
0.000497592
0.000499843
0.000502399
0.000504675
0.000507304
0.000509592
0.000512291
0.000514574
0.000517339
0.000519599
0.000522425
0.00052464
0.000527528
0.000529678
0.000532637
0.000534701
0.000537737
0.000539694
0.000542818
0.000544676
0.00054799
0.000550005
1.19618e-05
4.28559e-05
9.61275e-05
0.000167278
0.000259061
0.000358648
0.000458359
0.000550064
0.000633434
0.000704985
0.00076632
0.000816778
0.000857576
0.000890539
0.000916345
0.000936247
0.000951256
0.000962412
0.000970418
0.000976089
0.000979818
0.000982274
0.00098356
0.000984296
0.000984296
0.000984158
0.000983824
0.000983358
0.000982876
0.000982426
0.000982043
0.000981748
0.00098155
0.000981454
0.000981468
0.000981534
0.000981684
0.00098191
0.000982191
0.000982515
0.000982869
0.000983242
0.000983623
0.000984004
0.000984377
0.00098474
0.000985084
0.00098541
0.000985706
0.000985977
0.000986209
0.000986412
0.000986571
0.000986703
0.000986788
0.00098685
0.000986863
0.000986845
0.000986802
0.000986731
0.000986606
0.000986478
0.000986286
0.000986106
0.000985844
0.000985621
0.000985289
0.000985037
0.000984634
0.000984365
0.000983888
0.000983611
0.000983063
0.000982774
0.00098216
0.000981852
0.0009811
0.000980694
0.000979279
0.000979727
0.000221785
0.000513681
0.000828635
0.00110301
0.00133231
0.00151416
0.00165306
0.00175279
0.00182174
0.00186306
0.00188703
0.001891
0.00188699
0.00187623
0.00185726
0.00183451
0.00180937
0.00178292
0.00175594
0.00172899
0.00170248
0.0016767
0.00165185
0.00162807
0.00160542
0.00158394
0.00156364
0.00154449
0.00152648
0.00150954
0.00149364
0.0014787
0.00146468
0.00145151
0.00143914
0.00142749
0.00141653
0.00140618
0.00139641
0.00138717
0.0013784
0.00137007
0.00136214
0.00135458
0.00134735
0.00134043
0.00133379
0.0013274
0.00132124
0.00131531
0.00130957
0.00130402
0.00129864
0.00129342
0.00128835
0.00128342
0.00127862
0.00127394
0.00126938
0.00126493
0.00126059
0.00125634
0.0012522
0.00124814
0.00124418
0.0012403
0.00123651
0.00123279
0.00122917
0.00122558
0.00122216
0.00121866
0.00121549
0.00121196
0.00120917
0.00120541
0.00120297
0.00119907
0.00119491
0.00120157
0.00284766
0.00305908
0.00307297
0.00303223
0.00298559
0.00293484
0.00288923
0.00284884
0.00281219
0.00277856
0.00274736
0.00271826
0.00269104
0.00266552
0.00264149
0.00261881
0.00259737
0.00257709
0.00255788
0.00253967
0.00252239
0.00250596
0.00249034
0.00247545
0.00246126
0.00244771
0.00243476
0.00242237
0.00241049
0.00239909
0.00238814
0.00237761
0.00236747
0.0023577
0.00234828
0.00233919
0.00233042
0.00232195
0.00231374
0.00230583
0.00229818
0.00229077
0.00228361
0.00227667
0.00226996
0.00226345
0.00225716
0.00225105
0.00224514
0.00223941
0.00223385
0.00222846
0.00222323
0.00221814
0.00221321
0.00220841
0.00220375
0.00219922
0.00219481
0.00219052
0.00218635
0.00218229
0.00217834
0.00217449
0.00217075
0.00216711
0.00216356
0.00216011
0.00215676
0.00215349
0.00215031
0.00214722
0.00214421
0.00214128
0.00213843
0.00213566
0.00213297
0.00213034
0.00212779
0.0021253
0.00212288
0.00212052
0.00211822
0.00211598
0.0021138
0.00211167
0.00210959
0.00210757
0.0021056
0.00210367
0.0021018
0.00209997
0.00209818
0.00209644
0.00209475
0.0020931
0.00209149
0.00208992
0.0020884
0.00208691
0.00208547
0.00208407
0.0020827
0.00208138
0.00208009
0.00207884
0.00207762
0.00207645
0.0020753
0.0020742
0.00207312
0.00207208
0.00207108
0.0020701
0.00206916
0.00206826
0.00206738
0.00206654
0.00206572
0.00206494
0.0020642
0.00206348
0.00206279
0.00206214
0.00206152
0.00206094
0.00206038
0.00205986
0.00205938
0.00205893
0.00205851
0.00205813
0.00205778
0.00205747
0.00205719
0.00205695
0.00205674
0.00205657
0.00205644
0.00205634
0.00205628
0.00205625
0.00205626
0.0020563
0.00205638
0.00205649
0.00205663
0.00205681
0.00205702
0.00205726
0.00205753
0.00205784
0.00205817
0.00205854
0.00205893
0.00205935
0.0020598
0.00206028
0.00206078
0.00206131
0.00206186
0.00206244
0.00206304
0.00206367
0.00206432
0.00206499
0.00206568
0.0020664
0.00206714
0.00206789
0.00206867
0.00206947
0.00207028
0.00207112
0.00207197
0.00207284
0.00207372
0.00207463
0.00207554
0.00207648
0.00207742
0.00207838
0.00207935
0.00208034
0.00208133
0.00208234
0.00208336
0.00208439
0.00208543
0.00208647
0.00208753
0.00208859
0.00208966
0.00209074
0.00209182
0.00209291
0.00209401
0.00209511
0.00209621
0.00209732
0.00209844
0.00209955
0.00210068
0.0021018
0.00210293
0.00210406
0.00210519
0.00210633
0.00210747
0.00210861
0.00210975
0.00211089
0.00211203
0.00211317
0.00211432
0.00211546
0.00211661
0.00211775
0.0021189
0.00212005
0.0021212
0.00212235
0.0021235
0.00212465
0.0021258
0.00212696
0.00212812
0.00212929
0.00213046
0.00213163
0.00213281
0.00213399
0.00213518
0.00213638
0.00213759
0.0021388
0.00214003
0.00214126
0.00214251
0.00214376
0.00214503
0.00214631
0.0021476
0.0021489
0.00215021
0.00215154
0.00215288
0.00215423
0.00215559
0.00215696
0.00215835
0.00215975
0.00216115
0.00216257
0.002164
0.00216544
0.00216688
0.00216834
0.0021698
0.00217127
0.00217275
0.00217424
0.00217573
0.00217722
0.00217873
0.00218024
0.00218175
0.00218327
0.00218479
0.00218632
0.00218785
0.00218939
0.00219093
0.00219248
0.00219403
0.00219559
0.00219715
0.00219872
0.00220029
0.00220187
0.00220346
0.00220505
0.00220664
0.00220825
0.00220986
0.00221147
0.0022131
0.00221473
0.00221636
0.00221801
0.00221966
0.00222132
0.00222299
0.00222466
0.00222635
0.00222804
0.00222974
0.00223145
0.00223317
0.00223489
0.00223662
0.00223836
0.00224011
0.00224187
0.00224363
0.0022454
0.00224718
0.00224896
0.00225076
0.00225255
0.00225435
0.00225616
0.00225797
0.00225979
0.00226161
0.00226343
0.00226525
0.00226708
0.0022689
0.00227073
0.00227256
0.00227438
0.0022762
0.00227803
0.00227984
0.00228166
0.00228347
0.00228527
0.00228707
0.00228887
0.00229066
0.00229244
0.00229421
0.00229598
0.00229773
0.00229949
0.00230123
0.00230296
0.00230468
0.0023064
0.00230811
0.00230981
0.00231149
0.00231318
0.00231484
0.00231652
0.00231816
0.00231984
0.00232144
0.00232313
0.00232467
0.00232641
0.00232786
0.0023297
0.00233098
0.00233301
0.00233406
0.00233633
0.00233709
0.00233975
0.00211546
0.00253621
0.00275304
0.00284499
0.00287299
0.00286584
0.00284383
0.0028175
0.00278712
0.00275714
0.00272837
0.00270115
0.00267559
0.00265168
0.00262931
0.00260833
0.00258863
0.00257011
0.00255267
0.0025362
0.00252062
0.00250585
0.00249181
0.00247844
0.00246569
0.00245351
0.00244186
0.0024307
0.00242
0.00240972
0.00239984
0.00239033
0.00238116
0.00237235
0.00236381
0.00235557
0.00234764
0.00233998
0.00233257
0.00232542
0.0023185
0.00231181
0.00230533
0.00229907
0.00229301
0.00228713
0.00228145
0.00227593
0.00227059
0.0022654
0.00226037
0.00225548
0.00225073
0.00224612
0.00224163
0.00223727
0.00223303
0.0022289
0.00222488
0.00222096
0.00221715
0.00221344
0.00220982
0.0022063
0.00220287
0.00219953
0.00219628
0.00219311
0.00219002
0.00218701
0.00218408
0.00218123
0.00217845
0.00217573
0.00217309
0.00217051
0.002168
0.00216555
0.00216315
0.00216081
0.00215853
0.0021563
0.00215412
0.00215199
0.0021499
0.00214786
0.00214587
0.00214392
0.00214201
0.00214015
0.00213832
0.00213654
0.00213479
0.00213308
0.00213141
0.00212978
0.00212818
0.00212662
0.0021251
0.00212361
0.00212216
0.00212075
0.00211937
0.00211803
0.00211672
0.00211545
0.00211422
0.00211302
0.00211185
0.00211072
0.00210963
0.00210857
0.00210755
0.00210656
0.00210561
0.00210469
0.00210381
0.00210296
0.00210214
0.00210136
0.00210061
0.0020999
0.00209922
0.00209858
0.00209796
0.00209739
0.00209684
0.00209633
0.00209585
0.00209541
0.002095
0.00209463
0.00209429
0.00209399
0.00209371
0.00209348
0.00209328
0.00209311
0.00209297
0.00209287
0.00209281
0.00209277
0.00209277
0.00209281
0.00209287
0.00209297
0.0020931
0.00209326
0.00209345
0.00209367
0.00209392
0.0020942
0.00209451
0.00209485
0.00209521
0.0020956
0.00209602
0.00209646
0.00209693
0.00209742
0.00209794
0.00209849
0.00209906
0.00209965
0.00210027
0.00210091
0.00210158
0.00210227
0.00210299
0.00210373
0.00210449
0.00210527
0.00210608
0.00210691
0.00210777
0.00210864
0.00210954
0.00211046
0.00211139
0.00211235
0.00211333
0.00211432
0.00211533
0.00211636
0.00211741
0.00211847
0.00211955
0.00212064
0.00212175
0.00212287
0.00212401
0.00212515
0.00212631
0.00212749
0.00212867
0.00212987
0.00213108
0.0021323
0.00213353
0.00213477
0.00213602
0.00213729
0.00213857
0.00213986
0.00214115
0.00214247
0.00214379
0.00214512
0.00214647
0.00214782
0.00214919
0.00215057
0.00215196
0.00215335
0.00215476
0.00215617
0.0021576
0.00215903
0.00216047
0.00216192
0.00216337
0.00216483
0.00216629
0.00216776
0.00216924
0.00217072
0.0021722
0.00217369
0.00217518
0.00217667
0.00217817
0.00217967
0.00218118
0.00218268
0.00218419
0.00218571
0.00218722
0.00218874
0.00219026
0.00219179
0.00219332
0.00219485
0.00219639
0.00219793
0.00219948
0.00220103
0.00220258
0.00220414
0.0022057
0.00220727
0.00220884
0.00221042
0.00221199
0.00221357
0.00221516
0.00221674
0.00221833
0.00221992
0.00222152
0.00222311
0.00222471
0.0022263
0.0022279
0.0022295
0.00223109
0.00223269
0.00223428
0.00223588
0.00223748
0.00223907
0.00224066
0.00224226
0.00224385
0.00224544
0.00224703
0.00224863
0.00225022
0.00225181
0.00225341
0.002255
0.00225659
0.00225819
0.00225978
0.00226138
0.00226298
0.00226458
0.00226617
0.00226777
0.00226937
0.00227097
0.00227257
0.00227417
0.00227578
0.00227738
0.00227898
0.00228058
0.00228218
0.00228378
0.00228538
0.00228698
0.00228858
0.00229018
0.00229178
0.00229338
0.00229497
0.00229657
0.00229817
0.00229977
0.00230137
0.00230296
0.00230456
0.00230616
0.00230775
0.00230935
0.00231095
0.00231255
0.00231414
0.00231574
0.00231734
0.00231894
0.00232054
0.00232214
0.00232373
0.00232533
0.00232693
0.00232853
0.00233013
0.00233173
0.00233333
0.00233493
0.00233653
0.00233814
0.00233974
0.00234134
0.00234294
0.00234454
0.00234614
0.00234774
0.00234934
0.00235094
0.00235254
0.00235414
0.00235574
0.00235734
0.00235893
0.00236055
0.00236212
0.00236375
0.00236531
0.00236697
0.00236848
0.0023702
0.00237163
0.00237346
0.00237475
0.00237675
0.00237784
0.00238005
0.00238102
0.00238354
0.00109463
0.0013139
0.00152501
0.00171068
0.00186061
0.00197321
0.002053
0.00210805
0.0021443
0.00216705
0.00218016
0.00218649
0.00218816
0.00218667
0.00218308
0.00217813
0.0021723
0.00216591
0.00215919
0.0021523
0.00214536
0.00213845
0.00213162
0.0021249
0.00211832
0.00211188
0.00210561
0.0020995
0.00209357
0.00208781
0.00208222
0.0020768
0.00207153
0.00206642
0.00206146
0.00205663
0.00205195
0.0020474
0.00204298
0.00203868
0.0020345
0.00203044
0.00202649
0.00202264
0.00201889
0.00201525
0.00201169
0.00200823
0.00200485
0.00200156
0.00199834
0.0019952
0.00199214
0.00198915
0.00198622
0.00198336
0.00198056
0.00197783
0.00197515
0.00197253
0.00196996
0.00196745
0.00196499
0.00196257
0.00196021
0.00195789
0.00195561
0.00195338
0.0019512
0.00194905
0.00194694
0.00194488
0.00194285
0.00194085
0.00193889
0.00193697
0.00193508
0.00193322
0.00193139
0.0019296
0.00192784
0.0019261
0.00192439
0.00192272
0.00192106
0.00191944
0.00191784
0.00191626
0.00191471
0.00191318
0.00191168
0.0019102
0.00190874
0.0019073
0.00190589
0.00190449
0.00190312
0.00190177
0.00190044
0.00189913
0.00189785
0.00189658
0.00189534
0.00189412
0.00189293
0.00189176
0.00189062
0.0018895
0.00188841
0.00188734
0.0018863
0.00188529
0.00188431
0.00188335
0.00188242
0.00188152
0.00188065
0.00187981
0.00187899
0.00187821
0.00187745
0.00187672
0.00187602
0.00187534
0.00187469
0.00187407
0.00187348
0.00187291
0.00187237
0.00187186
0.00187137
0.00187092
0.00187049
0.00187009
0.00186972
0.00186938
0.00186906
0.00186878
0.00186852
0.0018683
0.00186811
0.00186795
0.00186781
0.00186771
0.00186764
0.00186761
0.0018676
0.00186762
0.00186767
0.00186774
0.00186785
0.00186799
0.00186815
0.00186834
0.00186856
0.0018688
0.00186907
0.00186936
0.00186967
0.00187001
0.00187037
0.00187075
0.00187115
0.00187158
0.00187203
0.0018725
0.00187299
0.00187351
0.00187404
0.00187459
0.00187517
0.00187577
0.00187639
0.00187703
0.00187769
0.00187838
0.00187908
0.00187981
0.00188056
0.00188132
0.00188211
0.00188292
0.00188374
0.00188459
0.00188545
0.00188633
0.00188722
0.00188813
0.00188906
0.00189
0.00189095
0.00189192
0.0018929
0.00189389
0.00189489
0.00189591
0.00189693
0.00189796
0.00189901
0.00190006
0.00190113
0.0019022
0.00190329
0.00190438
0.00190548
0.0019066
0.00190772
0.00190885
0.00191
0.00191115
0.00191232
0.00191349
0.00191468
0.00191588
0.00191709
0.0019183
0.00191953
0.00192077
0.00192201
0.00192327
0.00192453
0.0019258
0.00192707
0.00192836
0.00192965
0.00193094
0.00193224
0.00193355
0.00193485
0.00193617
0.00193748
0.0019388
0.00194012
0.00194144
0.00194276
0.00194409
0.00194541
0.00194674
0.00194808
0.00194941
0.00195075
0.00195209
0.00195343
0.00195478
0.00195613
0.00195748
0.00195884
0.00196021
0.00196157
0.00196295
0.00196432
0.00196571
0.0019671
0.00196849
0.00196989
0.00197129
0.0019727
0.00197411
0.00197553
0.00197694
0.00197837
0.00197979
0.00198122
0.00198265
0.00198408
0.00198551
0.00198694
0.00198838
0.00198981
0.00199124
0.00199267
0.0019941
0.00199553
0.00199695
0.00199838
0.00199981
0.00200123
0.00200266
0.00200408
0.0020055
0.00200693
0.00200835
0.00200978
0.0020112
0.00201263
0.00201406
0.00201549
0.00201692
0.00201835
0.00201978
0.00202122
0.00202265
0.00202409
0.00202553
0.00202697
0.00202841
0.00202985
0.00203129
0.00203273
0.00203417
0.00203561
0.00203705
0.0020385
0.00203994
0.00204138
0.00204282
0.00204427
0.00204571
0.00204716
0.0020486
0.00205005
0.00205149
0.00205294
0.00205438
0.00205583
0.00205728
0.00205872
0.00206017
0.00206162
0.00206307
0.00206452
0.00206597
0.00206742
0.00206887
0.00207032
0.00207177
0.00207323
0.00207468
0.00207613
0.00207759
0.00207904
0.00208049
0.00208195
0.0020834
0.00208486
0.00208631
0.00208777
0.00208922
0.00209067
0.00209213
0.00209358
0.00209504
0.00209649
0.00209795
0.00209939
0.00210086
0.00210229
0.00210377
0.00210518
0.00210668
0.00210806
0.00210961
0.00211092
0.00211255
0.00211376
0.00211551
0.00211659
0.00211848
0.00211943
0.00212173
0.000422775
0.000477503
0.000549227
0.000634744
0.000729919
0.000827509
0.000921125
0.001008
0.00108709
0.00115819
0.00122137
0.00127698
0.00132561
0.001368
0.00140493
0.0014371
0.00146512
0.00148952
0.00151077
0.00152928
0.00154542
0.00155954
0.00157191
0.00158275
0.00159225
0.00160059
0.00160792
0.00161435
0.00162002
0.00162503
0.00162946
0.00163338
0.00163685
0.00163993
0.00164265
0.00164506
0.00164718
0.00164905
0.0016507
0.00165215
0.00165342
0.00165452
0.00165546
0.00165627
0.00165694
0.0016575
0.00165794
0.00165829
0.00165854
0.00165872
0.00165882
0.00165886
0.00165883
0.00165874
0.0016586
0.0016584
0.00165817
0.00165789
0.00165758
0.00165724
0.00165686
0.00165645
0.00165601
0.00165554
0.00165503
0.0016545
0.00165394
0.00165335
0.00165273
0.00165209
0.00165142
0.00165072
0.00165
0.00164925
0.00164848
0.00164769
0.00164688
0.00164605
0.0016452
0.00164434
0.00164347
0.00164258
0.00164168
0.00164078
0.00163986
0.00163894
0.00163801
0.00163707
0.00163614
0.00163519
0.00163425
0.0016333
0.00163235
0.00163139
0.00163043
0.00162947
0.0016285
0.00162753
0.00162656
0.00162559
0.00162462
0.00162365
0.00162269
0.00162172
0.00162076
0.00161981
0.00161886
0.00161792
0.00161699
0.00161608
0.00161518
0.00161429
0.00161342
0.00161257
0.00161174
0.00161093
0.00161013
0.00160936
0.0016086
0.00160787
0.00160716
0.00160647
0.0016058
0.00160516
0.00160453
0.00160392
0.00160333
0.00160276
0.00160221
0.00160168
0.00160117
0.00160068
0.00160021
0.00159976
0.00159933
0.00159892
0.00159854
0.00159817
0.00159783
0.00159751
0.00159722
0.00159695
0.00159671
0.0015965
0.00159631
0.00159615
0.00159602
0.00159591
0.00159584
0.00159579
0.00159576
0.00159576
0.00159579
0.00159584
0.00159592
0.00159603
0.00159615
0.0015963
0.00159647
0.00159666
0.00159687
0.0015971
0.00159735
0.00159762
0.0015979
0.0015982
0.00159852
0.00159886
0.00159922
0.00159959
0.00159997
0.00160038
0.0016008
0.00160124
0.0016017
0.00160218
0.00160267
0.00160319
0.00160372
0.00160428
0.00160485
0.00160544
0.00160606
0.00160668
0.00160733
0.00160799
0.00160868
0.00160937
0.00161009
0.00161082
0.00161156
0.00161232
0.00161309
0.00161387
0.00161466
0.00161547
0.00161628
0.0016171
0.00161793
0.00161876
0.00161961
0.00162046
0.00162132
0.00162218
0.00162306
0.00162394
0.00162482
0.00162572
0.00162662
0.00162753
0.00162845
0.00162938
0.00163031
0.00163126
0.00163222
0.00163318
0.00163416
0.00163515
0.00163614
0.00163715
0.00163816
0.00163918
0.00164021
0.00164125
0.0016423
0.00164335
0.00164441
0.00164548
0.00164655
0.00164763
0.00164871
0.00164979
0.00165087
0.00165196
0.00165304
0.00165413
0.00165522
0.00165631
0.0016574
0.00165849
0.00165958
0.00166068
0.00166177
0.00166287
0.00166396
0.00166506
0.00166616
0.00166727
0.00166838
0.00166949
0.00167061
0.00167173
0.00167286
0.00167399
0.00167513
0.00167628
0.00167743
0.00167858
0.00167975
0.00168092
0.00168209
0.00168327
0.00168445
0.00168564
0.00168683
0.00168802
0.00168922
0.00169042
0.00169161
0.00169281
0.00169401
0.00169521
0.0016964
0.0016976
0.00169879
0.00169998
0.00170117
0.00170236
0.00170355
0.00170473
0.00170591
0.00170709
0.00170828
0.00170946
0.00171064
0.00171182
0.001713
0.00171419
0.00171538
0.00171656
0.00171775
0.00171895
0.00172014
0.00172134
0.00172253
0.00172373
0.00172493
0.00172613
0.00172734
0.00172854
0.00172975
0.00173096
0.00173216
0.00173337
0.00173458
0.00173579
0.001737
0.00173821
0.00173942
0.00174064
0.00174185
0.00174306
0.00174428
0.00174549
0.00174671
0.00174792
0.00174914
0.00175036
0.00175157
0.00175279
0.00175401
0.00175523
0.00175645
0.00175767
0.00175889
0.00176012
0.00176134
0.00176256
0.00176379
0.00176501
0.00176624
0.00176746
0.00176869
0.00176992
0.00177114
0.00177237
0.00177359
0.00177483
0.00177605
0.00177728
0.0017785
0.00177974
0.00178095
0.0017822
0.0017834
0.00178466
0.00178585
0.00178712
0.00178829
0.00178959
0.00179072
0.00179206
0.00179314
0.00179454
0.00179555
0.00179704
0.00179795
0.00179954
0.00180037
0.00180232
0.000131856
0.000143837
0.000158433
0.000176256
0.000199148
0.000227472
0.000259957
0.000295459
0.000333266
0.000372757
0.000413235
0.000453974
0.000494362
0.000533963
0.00057252
0.000609884
0.000645951
0.00068062
0.000713802
0.000745433
0.000775502
0.000804038
0.0008311
0.00085675
0.00088105
0.000904052
0.000925808
0.000946374
0.000965814
0.000984201
0.00100161
0.00101811
0.00103377
0.00104864
0.00106275
0.00107616
0.00108889
0.00110098
0.00111246
0.00112338
0.00113376
0.00114363
0.001153
0.0011619
0.00117033
0.00117832
0.00118588
0.00119303
0.00119979
0.00120617
0.0012122
0.00121789
0.00122326
0.00122832
0.00123308
0.00123755
0.00124176
0.00124572
0.00124943
0.00125292
0.0012562
0.00125928
0.00126216
0.00126485
0.00126736
0.00126969
0.00127185
0.00127385
0.00127569
0.00127738
0.00127893
0.00128033
0.0012816
0.00128273
0.00128374
0.00128462
0.00128539
0.00128604
0.00128659
0.00128704
0.00128741
0.00128768
0.00128788
0.001288
0.00128805
0.00128803
0.00128796
0.00128782
0.00128764
0.0012874
0.00128712
0.0012868
0.00128644
0.00128604
0.00128561
0.00128513
0.00128462
0.00128408
0.00128351
0.00128291
0.00128227
0.00128162
0.00128094
0.00128024
0.00127952
0.00127878
0.00127803
0.00127726
0.00127648
0.00127569
0.0012749
0.00127411
0.00127332
0.00127254
0.00127176
0.00127099
0.00127022
0.00126946
0.00126872
0.00126798
0.00126726
0.00126656
0.00126587
0.00126519
0.00126453
0.00126388
0.00126325
0.00126262
0.00126201
0.00126141
0.00126083
0.00126026
0.0012597
0.00125915
0.00125862
0.0012581
0.0012576
0.00125711
0.00125664
0.00125619
0.00125575
0.00125533
0.00125493
0.00125455
0.00125419
0.00125386
0.00125355
0.00125327
0.00125301
0.00125277
0.00125256
0.00125237
0.00125221
0.00125207
0.00125196
0.00125187
0.0012518
0.00125176
0.00125173
0.00125173
0.00125174
0.00125178
0.00125182
0.00125189
0.00125197
0.00125206
0.00125218
0.0012523
0.00125244
0.0012526
0.00125277
0.00125295
0.00125314
0.00125335
0.00125357
0.00125381
0.00125407
0.00125434
0.00125462
0.00125493
0.00125525
0.00125559
0.00125595
0.00125633
0.00125672
0.00125713
0.00125755
0.00125799
0.00125845
0.00125893
0.00125942
0.00125993
0.00126045
0.00126098
0.00126153
0.00126208
0.00126264
0.00126322
0.0012638
0.00126438
0.00126498
0.00126558
0.00126619
0.0012668
0.00126742
0.00126804
0.00126867
0.0012693
0.00126993
0.00127057
0.00127122
0.00127187
0.00127253