/*--------------------------------*- C++ -*----------------------------------*\
  =========                 |
  \\      /  F ield         | OpenFOAM: The Open Source CFD Toolbox
   \\    /   O peration     | Website:  https://openfoam.org
    \\  /    A nd           | Version:  7
     \\/     M anipulation  |
\*---------------------------------------------------------------------------*/
FoamFile
{
    version     2.0;
    format      ascii;
    class       volScalarField;
    location    "0.55";
    object      rho_0;
}
// * * * * * * * * * * * * * * * * * * * * * * * * * * * * * * * * * * * * * //

dimensions      [1 -3 0 0 0 0 0];

internalField   nonuniform List<scalar> 
2640
(
1.32659
1.31719
1.31388
1.31236
1.31153
1.31099
1.31061
1.31032
1.31007
1.30986
1.30967
1.3095
1.30934
1.30919
1.30905
1.30891
1.30879
1.30862
1.3085
1.30703
1.35928
1.33804
1.32707
1.32196
1.31921
1.31752
1.31636
1.3155
1.31482
1.31426
1.31377
1.31336
1.31297
1.31263
1.3123
1.31199
1.31174
1.31132
1.31122
1.30702
1.39125
1.37366
1.35291
1.34152
1.33511
1.33112
1.32839
1.32638
1.3248
1.32352
1.32241
1.32148
1.3206
1.31986
1.31913
1.31848
1.31796
1.31701
1.31739
1.30911
1.41199
1.41633
1.39682
1.37903
1.36705
1.35905
1.35336
1.34914
1.34572
1.343
1.34056
1.33859
1.33664
1.33511
1.33348
1.33213
1.33099
1.32902
1.33032
1.31888
1.42227
1.44495
1.44127
1.43018
1.41858
1.40832
1.39954
1.3924
1.38621
1.38118
1.37643
1.37267
1.3687
1.36577
1.36227
1.35984
1.3569
1.3543
1.35299
1.3455
1.42629
1.45716
1.46296
1.46089
1.45613
1.45057
1.44439
1.43852
1.43236
1.42702
1.42111
1.41656
1.41078
1.40726
1.40122
1.39915
1.39211
1.39244
1.38293
1.38325
1.42629
1.45716
1.46296
1.46089
1.45614
1.45056
1.4444
1.43852
1.43238
1.427
1.42114
1.41653
1.41084
1.40718
1.40134
1.399
1.39234
1.39215
1.38336
1.38275
1.42227
1.44495
1.44127
1.43018
1.41858
1.40832
1.39955
1.3924
1.38621
1.38116
1.37645
1.37264
1.36875
1.36569
1.3624
1.35964
1.35725
1.35379
1.35389
1.3442
1.41199
1.41633
1.39682
1.37903
1.36705
1.35905
1.35336
1.34914
1.34573
1.343
1.34057
1.33858
1.33667
1.33508
1.33354
1.33204
1.33115
1.32875
1.33086
1.31777
1.39125
1.37366
1.35291
1.34152
1.33511
1.33112
1.32839
1.32638
1.3248
1.32352
1.32241
1.32148
1.32061
1.31985
1.31915
1.31845
1.31801
1.31691
1.31759
1.30893
1.35928
1.33804
1.32707
1.32196
1.31921
1.31752
1.31636
1.3155
1.31482
1.31426
1.31377
1.31336
1.31297
1.31262
1.3123
1.31198
1.31176
1.31128
1.3113
1.30743
1.32659
1.31719
1.31388
1.31236
1.31153
1.31099
1.31061
1.31032
1.31007
1.30986
1.30967
1.3095
1.30934
1.30919
1.30905
1.30891
1.30879
1.30861
1.30853
1.30741
1.32659
1.31719
1.31388
1.31236
1.31153
1.31099
1.31061
1.31032
1.31007
1.30986
1.30967
1.3095
1.30934
1.30919
1.30905
1.30891
1.30879
1.30862
1.3085
1.30703
1.35928
1.33804
1.32707
1.32196
1.31921
1.31752
1.31636
1.3155
1.31482
1.31426
1.31377
1.31336
1.31297
1.31263
1.3123
1.31199
1.31174
1.31132
1.31122
1.30702
1.39125
1.37366
1.35291
1.34152
1.33511
1.33112
1.32839
1.32638
1.3248
1.32352
1.32241
1.32148
1.3206
1.31986
1.31913
1.31848
1.31796
1.31701
1.31739
1.30911
1.41199
1.41633
1.39682
1.37903
1.36705
1.35905
1.35336
1.34914
1.34572
1.343
1.34056
1.33859
1.33664
1.33511
1.33348
1.33213
1.33099
1.32902
1.33032
1.31888
1.42227
1.44495
1.44127
1.43018
1.41858
1.40832
1.39955
1.3924
1.38621
1.38118
1.37643
1.37267
1.3687
1.36577
1.36227
1.35984
1.3569
1.3543
1.35299
1.3455
1.42629
1.45716
1.46296
1.46089
1.45614
1.45057
1.44439
1.43852
1.43236
1.42702
1.42111
1.41656
1.41078
1.40726
1.40122
1.39915
1.39211
1.39244
1.38293
1.38325
1.42629
1.45716
1.46296
1.46089
1.45614
1.45056
1.4444
1.43852
1.43238
1.427
1.42114
1.41653
1.41084
1.40718
1.40134
1.399
1.39234
1.39215
1.38336
1.38275
1.42227
1.44495
1.44127
1.43018
1.41858
1.40832
1.39955
1.3924
1.38621
1.38116
1.37645
1.37264
1.36875
1.36569
1.3624
1.35964
1.35725
1.35379
1.35389
1.3442
1.41199
1.41633
1.39682
1.37903
1.36705
1.35905
1.35336
1.34914
1.34573
1.343
1.34057
1.33858
1.33667
1.33507
1.33354
1.33204
1.33115
1.32875
1.33086
1.31777
1.39125
1.37366
1.35291
1.34152
1.33511
1.33112
1.32839
1.32638
1.3248
1.32352
1.32241
1.32148
1.32061
1.31985
1.31915
1.31845
1.31801
1.31691
1.31759
1.30893
1.35928
1.33804
1.32707
1.32196
1.31921
1.31752
1.31636
1.3155
1.31482
1.31426
1.31377
1.31336
1.31297
1.31262
1.3123
1.31198
1.31176
1.31128
1.3113
1.30743
1.32659
1.31719
1.31388
1.31236
1.31153
1.31099
1.31061
1.31032
1.31007
1.30986
1.30967
1.3095
1.30934
1.30919
1.30905
1.30891
1.30879
1.30861
1.30853
1.30741
1.28832
1.28695
1.28401
1.28072
1.27776
1.27491
1.27208
1.26932
1.26678
1.26459
1.2628
1.26136
1.26018
1.25917
1.25825
1.25737
1.2565
1.25564
1.25478
1.25393
1.25307
1.25221
1.25135
1.25049
1.24963
1.24878
1.24792
1.24707
1.24621
1.24536
1.2445
1.24365
1.2428
1.24195
1.2411
1.24025
1.2394
1.23855
1.2377
1.23685
1.236
1.23516
1.23431
1.23346
1.23262
1.23177
1.23093
1.23009
1.22924
1.2284
1.22756
1.22672
1.22588
1.22504
1.22419
1.22336
1.22252
1.22168
1.22084
1.22
1.21916
1.21832
1.21749
1.21665
1.21581
1.21498
1.21414
1.21331
1.21247
1.21164
1.2108
1.20997
1.20914
1.2083
1.20747
1.20664
1.2058
1.20497
1.20414
1.20331
1.20248
1.20165
1.20081
1.19998
1.19915
1.19833
1.19746
1.19671
1.1957
1.19447
1.28924
1.28795
1.28499
1.28169
1.27873
1.27589
1.27307
1.27031
1.26777
1.26558
1.26378
1.26234
1.26116
1.26015
1.25922
1.25834
1.25748
1.25662
1.25576
1.2549
1.25404
1.25318
1.25232
1.25147
1.25061
1.24975
1.2489
1.24804
1.24719
1.24633
1.24548
1.24462
1.24377
1.24292
1.24207
1.24122
1.24037
1.23952
1.23867
1.23782
1.23698
1.23613
1.23528
1.23444
1.23359
1.23275
1.2319
1.23106
1.23021
1.22937
1.22853
1.22769
1.22685
1.22601
1.22517
1.22433
1.22349
1.22265
1.22181
1.22097
1.22013
1.21929
1.21846
1.21762
1.21678
1.21595
1.21511
1.21428
1.21344
1.21261
1.21177
1.21094
1.2101
1.20927
1.20844
1.20761
1.20677
1.20594
1.20511
1.20428
1.20344
1.20261
1.20178
1.20095
1.20011
1.1993
1.19843
1.19768
1.19667
1.19543
1.29105
1.28953
1.28646
1.28315
1.28021
1.27739
1.27459
1.27186
1.26932
1.26713
1.26533
1.26388
1.2627
1.26168
1.26075
1.25987
1.259
1.25814
1.25729
1.25643
1.25557
1.25471
1.25385
1.25299
1.25213
1.25128
1.25042
1.24956
1.24871
1.24785
1.247
1.24615
1.24529
1.24444
1.24359
1.24274
1.24189
1.24104
1.24019
1.23934
1.23849
1.23764
1.2368
1.23595
1.23511
1.23426
1.23342
1.23257
1.23173
1.23088
1.23004
1.2292
1.22836
1.22752
1.22668
1.22584
1.22499
1.22416
1.22332
1.22248
1.22164
1.2208
1.21996
1.21913
1.21829
1.21745
1.21662
1.21578
1.21494
1.21411
1.21327
1.21244
1.21161
1.21077
1.20994
1.2091
1.20827
1.20744
1.20661
1.20577
1.20494
1.20411
1.20327
1.20245
1.20161
1.20079
1.19992
1.19918
1.19816
1.19691
1.29541
1.292
1.28862
1.28528
1.28238
1.27962
1.27689
1.27421
1.27171
1.26953
1.26773
1.26627
1.26508
1.26405
1.26312
1.26224
1.26137
1.26051
1.25965
1.25879
1.25793
1.25707
1.25621
1.25535
1.25449
1.25363
1.25278
1.25192
1.25106
1.25021
1.24935
1.2485
1.24764
1.24679
1.24594
1.24509
1.24424
1.24339
1.24254
1.24169
1.24084
1.23999
1.23914
1.23829
1.23745
1.2366
1.23575
1.23491
1.23406
1.23322
1.23237
1.23153
1.23069
1.22985
1.229
1.22816
1.22732
1.22648
1.22564
1.2248
1.22396
1.22312
1.22228
1.22144
1.22061
1.21977
1.21893
1.21809
1.21726
1.21642
1.21559
1.21475
1.21391
1.21308
1.21224
1.21141
1.21057
1.20974
1.20891
1.20807
1.20724
1.20641
1.20557
1.20474
1.2039
1.20309
1.20221
1.20148
1.20043
1.19916
1.30502
1.2957
1.29158
1.28824
1.28545
1.28281
1.28022
1.27766
1.27525
1.27313
1.27135
1.2699
1.2687
1.26767
1.26674
1.26585
1.26498
1.26411
1.26325
1.26239
1.26153
1.26067
1.2598
1.25894
1.25808
1.25722
1.25636
1.2555
1.25464
1.25379
1.25293
1.25207
1.25122
1.25036
1.24951
1.24865
1.2478
1.24695
1.2461
1.24524
1.24439
1.24354
1.24269
1.24184
1.24099
1.24014
1.2393
1.23845
1.2376
1.23676
1.23591
1.23506
1.23422
1.23337
1.23253
1.23169
1.23084
1.23
1.22916
1.22832
1.22747
1.22663
1.22579
1.22495
1.22411
1.22327
1.22243
1.22159
1.22075
1.21991
1.21907
1.21824
1.2174
1.21656
1.21572
1.21489
1.21405
1.21321
1.21238
1.21154
1.2107
1.20987
1.20903
1.2082
1.20736
1.20654
1.20566
1.20494
1.20384
1.20256
1.31924
1.30059
1.29544
1.29222
1.28965
1.28729
1.28497
1.28266
1.28046
1.27848
1.2768
1.27539
1.27422
1.27319
1.27226
1.27136
1.27049
1.26962
1.26876
1.26789
1.26702
1.26616
1.26529
1.26443
1.26356
1.2627
1.26184
1.26098
1.26011
1.25925
1.25839
1.25753
1.25667
1.25581
1.25495
1.2541
1.25324
1.25238
1.25153
1.25067
1.24982
1.24896
1.24811
1.24725
1.2464
1.24555
1.2447
1.24384
1.24299
1.24214
1.24129
1.24044
1.23959
1.23874
1.2379
1.23705
1.2362
1.23535
1.23451
1.23366
1.23281
1.23197
1.23112
1.23028
1.22943
1.22859
1.22774
1.2269
1.22606
1.22521
1.22437
1.22353
1.22269
1.22184
1.221
1.22016
1.21932
1.21848
1.21764
1.2168
1.21596
1.21512
1.21428
1.21344
1.21259
1.21177
1.21088
1.21017
1.209
1.20774
1.32121
1.30394
1.29931
1.29652
1.29437
1.29241
1.2905
1.28858
1.28672
1.28501
1.28351
1.28223
1.28111
1.28012
1.27919
1.27829
1.27741
1.27654
1.27567
1.2748
1.27393
1.27306
1.27219
1.27132
1.27045
1.26958
1.26871
1.26784
1.26698
1.26611
1.26524
1.26438
1.26351
1.26265
1.26179
1.26092
1.26006
1.2592
1.25834
1.25748
1.25661
1.25575
1.25489
1.25403
1.25318
1.25232
1.25146
1.2506
1.24974
1.24889
1.24803
1.24718
1.24632
1.24547
1.24461
1.24376
1.2429
1.24205
1.2412
1.24034
1.23949
1.23864
1.23779
1.23694
1.23609
1.23523
1.23438
1.23353
1.23268
1.23184
1.23099
1.23014
1.22929
1.22844
1.22759
1.22674
1.2259
1.22505
1.2242
1.22335
1.22251
1.22166
1.22081
1.21997
1.21912
1.21829
1.2174
1.21667
1.2155
1.21432
1.31124
1.30472
1.3018
1.2996
1.29787
1.29627
1.29471
1.29315
1.29161
1.29017
1.28887
1.28771
1.28666
1.2857
1.28478
1.28389
1.28301
1.28213
1.28126
1.28038
1.27951
1.27863
1.27776
1.27688
1.27601
1.27513
1.27426
1.27339
1.27252
1.27165
1.27078
1.26991
1.26904
1.26817
1.2673
1.26643
1.26556
1.2647
1.26383
1.26296
1.2621
1.26123
1.26037
1.2595
1.25864
1.25777
1.25691
1.25605
1.25519
1.25432
1.25346
1.2526
1.25174
1.25088
1.25002
1.24916
1.2483
1.24744
1.24658
1.24573
1.24487
1.24401
1.24315
1.2423
1.24144
1.24058
1.23973
1.23887
1.23802
1.23716
1.23631
1.23545
1.2346
1.23374
1.23289
1.23204
1.23118
1.23033
1.22948
1.22862
1.22777
1.22692
1.22607
1.22522
1.22436
1.22352
1.22263
1.22187
1.22078
1.21972
1.30572
1.3051
1.30328
1.30156
1.30016
1.29883
1.29753
1.29622
1.29493
1.2937
1.29255
1.29149
1.2905
1.28957
1.28866
1.28777
1.28689
1.28601
1.28513
1.28425
1.28337
1.28249
1.28162
1.28074
1.27986
1.27898
1.27811
1.27723
1.27636
1.27548
1.27461
1.27374
1.27286
1.27199
1.27112
1.27025
1.26937
1.2685
1.26763
1.26676
1.26589
1.26502
1.26416
1.26329
1.26242
1.26155
1.26069
1.25982
1.25895
1.25809
1.25722
1.25636
1.25549
1.25463
1.25376
1.2529
1.25204
1.25117
1.25031
1.24945
1.24859
1.24772
1.24686
1.246
1.24514
1.24428
1.24342
1.24256
1.2417
1.24084
1.23998
1.23912
1.23827
1.23741
1.23655
1.23569
1.23483
1.23398
1.23312
1.23226
1.2314
1.23055
1.22969
1.22884
1.22798
1.22713
1.22625
1.22545
1.22445
1.22347
1.30487
1.30552
1.30423
1.30287
1.30169
1.30055
1.29943
1.2983
1.29719
1.2961
1.29507
1.29408
1.29314
1.29222
1.29133
1.29044
1.28955
1.28867
1.28779
1.28691
1.28603
1.28515
1.28427
1.28339
1.28251
1.28163
1.28075
1.27987
1.27899
1.27812
1.27724
1.27636
1.27549
1.27461
1.27374
1.27286
1.27199
1.27112
1.27024
1.26937
1.2685
1.26763
1.26676
1.26588
1.26501
1.26414
1.26327
1.2624
1.26154
1.26067
1.2598
1.25893
1.25806
1.2572
1.25633
1.25546
1.2546
1.25373
1.25286
1.252
1.25113
1.25027
1.24941
1.24854
1.24768
1.24681
1.24595
1.24509
1.24423
1.24336
1.2425
1.24164
1.24078
1.23992
1.23905
1.23819
1.23733
1.23647
1.23561
1.23475
1.23389
1.23303
1.23217
1.23131
1.23045
1.2296
1.22873
1.2279
1.22696
1.22603
1.30576
1.30587
1.30485
1.30372
1.3027
1.30169
1.30069
1.29968
1.29868
1.2977
1.29674
1.29581
1.29489
1.29399
1.2931
1.29221
1.29132
1.29044
1.28956
1.28867
1.28779
1.28691
1.28603
1.28514
1.28426
1.28338
1.2825
1.28162
1.28074
1.27987
1.27899
1.27811
1.27723
1.27635
1.27548
1.2746
1.27373
1.27285
1.27198
1.2711
1.27023
1.26935
1.26848
1.26761
1.26674
1.26586
1.26499
1.26412
1.26325
1.26238
1.26151
1.26064
1.25977
1.2589
1.25803
1.25716
1.2563
1.25543
1.25456
1.25369
1.25283
1.25196
1.25109
1.25023
1.24936
1.2485
1.24763
1.24677
1.2459
1.24504
1.24417
1.24331
1.24244
1.24158
1.24072
1.23985
1.23899
1.23813
1.23727
1.2364
1.23554
1.23468
1.23382
1.23296
1.23209
1.23123
1.23037
1.22952
1.22862
1.22773
1.30679
1.30613
1.30526
1.30428
1.30336
1.30243
1.30151
1.30059
1.29966
1.29875
1.29784
1.29694
1.29604
1.29515
1.29426
1.29337
1.29249
1.2916
1.29072
1.28983
1.28895
1.28806
1.28718
1.2863
1.28542
1.28453
1.28365
1.28277
1.28189
1.28101
1.28013
1.27925
1.27838
1.2775
1.27662
1.27574
1.27487
1.27399
1.27311
1.27224
1.27136
1.27049
1.26961
1.26874
1.26787
1.26699
1.26612
1.26525
1.26437
1.2635
1.26263
1.26176
1.26089
1.26002
1.25915
1.25828
1.25741
1.25654
1.25567
1.2548
1.25393
1.25307
1.2522
1.25133
1.25046
1.2496
1.24873
1.24786
1.247
1.24613
1.24527
1.2444
1.24354
1.24267
1.24181
1.24094
1.24008
1.23921
1.23835
1.23748
1.23662
1.23576
1.23489
1.23403
1.23317
1.23231
1.23144
1.23058
1.22971
1.22884
1.28832
1.28695
1.28401
1.28072
1.27776
1.27491
1.27208
1.26932
1.26678
1.26459
1.2628
1.26136
1.26018
1.25917
1.25825
1.25737
1.2565
1.25564
1.25478
1.25393
1.25307
1.25221
1.25135
1.25049
1.24963
1.24878
1.24792
1.24707
1.24621
1.24536
1.2445
1.24365
1.2428
1.24195
1.2411
1.24025
1.2394
1.23855
1.2377
1.23685
1.236
1.23516
1.23431
1.23346
1.23262
1.23177
1.23093
1.23009
1.22924
1.2284
1.22756
1.22672
1.22588
1.22504
1.22419
1.22336
1.22252
1.22168
1.22084
1.22
1.21916
1.21832
1.21749
1.21665
1.21581
1.21498
1.21414
1.21331
1.21247
1.21164
1.2108
1.20997
1.20914
1.2083
1.20747
1.20664
1.2058
1.20497
1.20414
1.20331
1.20248
1.20165
1.20081
1.19998
1.19915
1.19833
1.19746
1.19671
1.1957
1.19447
1.28924
1.28795
1.28499
1.28169
1.27873
1.27589
1.27307
1.27031
1.26777
1.26558
1.26378
1.26234
1.26116
1.26015
1.25922
1.25834
1.25748
1.25662
1.25576
1.2549
1.25404
1.25318
1.25232
1.25147
1.25061
1.24975
1.2489
1.24804
1.24719
1.24633
1.24548
1.24462
1.24377
1.24292
1.24207
1.24122
1.24037
1.23952
1.23867
1.23782
1.23698
1.23613
1.23528
1.23444
1.23359
1.23275
1.2319
1.23106
1.23021
1.22937
1.22853
1.22769
1.22685
1.22601
1.22517
1.22433
1.22349
1.22265
1.22181
1.22097
1.22013
1.21929
1.21846
1.21762
1.21678
1.21595
1.21511
1.21428
1.21344
1.21261
1.21177
1.21094
1.2101
1.20927
1.20844
1.20761
1.20677
1.20594
1.20511
1.20428
1.20344
1.20261
1.20178
1.20095
1.20011
1.1993
1.19843
1.19768
1.19667
1.19543
1.29105
1.28953
1.28646
1.28315
1.28021
1.27739
1.27459
1.27186
1.26932
1.26713
1.26533
1.26388
1.2627
1.26168
1.26075
1.25987
1.259
1.25814
1.25729
1.25643
1.25557
1.25471
1.25385
1.25299
1.25213
1.25127
1.25042
1.24956
1.24871
1.24785
1.247
1.24614
1.24529
1.24444
1.24359
1.24274
1.24189
1.24104
1.24019
1.23934
1.23849
1.23764
1.2368
1.23595
1.23511
1.23426
1.23342
1.23257
1.23173
1.23088
1.23004
1.2292
1.22836
1.22752
1.22668
1.22583
1.22499
1.22416
1.22332
1.22248
1.22164
1.2208
1.21996
1.21913
1.21829
1.21745
1.21662
1.21578
1.21494
1.21411
1.21327
1.21244
1.21161
1.21077
1.20994
1.2091
1.20827
1.20744
1.20661
1.20577
1.20494
1.20411
1.20327
1.20245
1.20161
1.20079
1.19992
1.19918
1.19816
1.19691
1.29541
1.292
1.28862
1.28528
1.28238
1.27962
1.27689
1.27421
1.27171
1.26953
1.26773
1.26627
1.26508
1.26405
1.26312
1.26224
1.26137
1.26051
1.25965
1.25879
1.25793
1.25707
1.25621
1.25535
1.25449
1.25363
1.25278
1.25192
1.25106
1.25021
1.24935
1.2485
1.24764
1.24679
1.24594
1.24509
1.24424
1.24339
1.24254
1.24169
1.24084
1.23999
1.23914
1.23829
1.23745
1.2366
1.23575
1.23491
1.23406
1.23322
1.23237
1.23153
1.23069
1.22985
1.229
1.22816
1.22732
1.22648
1.22564
1.2248
1.22396
1.22312
1.22228
1.22144
1.22061
1.21977
1.21893
1.21809
1.21726
1.21642
1.21558
1.21475
1.21391
1.21308
1.21224
1.21141
1.21057
1.20974
1.20891
1.20807
1.20724
1.20641
1.20557
1.20474
1.2039
1.20309
1.20221
1.20148
1.20043
1.19916
1.30502
1.2957
1.29158
1.28824
1.28545
1.28281
1.28022
1.27766
1.27525
1.27313
1.27135
1.2699
1.2687
1.26767
1.26674
1.26585
1.26498
1.26411
1.26325
1.26239
1.26153
1.26067
1.2598
1.25894
1.25808
1.25722
1.25636
1.2555
1.25464
1.25379
1.25293
1.25207
1.25122
1.25036
1.24951
1.24865
1.2478
1.24695
1.2461
1.24524
1.24439
1.24354
1.24269
1.24184
1.24099
1.24014
1.2393
1.23845
1.2376
1.23676
1.23591
1.23506
1.23422
1.23337
1.23253
1.23169
1.23084
1.23
1.22916
1.22832
1.22747
1.22663
1.22579
1.22495
1.22411
1.22327
1.22243
1.22159
1.22075
1.21991
1.21907
1.21824
1.2174
1.21656
1.21572
1.21489
1.21405
1.21321
1.21238
1.21154
1.2107
1.20987
1.20903
1.2082
1.20736
1.20654
1.20566
1.20494
1.20384
1.20256
1.31924
1.30059
1.29544
1.29222
1.28965
1.28729
1.28497
1.28266
1.28046
1.27848
1.2768
1.27539
1.27422
1.27319
1.27226
1.27136
1.27049
1.26962
1.26876
1.26789
1.26702
1.26616
1.26529
1.26443
1.26356
1.2627
1.26184
1.26098
1.26011
1.25925
1.25839
1.25753
1.25667
1.25581
1.25495
1.2541
1.25324
1.25238
1.25153
1.25067
1.24982
1.24896
1.24811
1.24725
1.2464
1.24555
1.2447
1.24384
1.24299
1.24214
1.24129
1.24044
1.23959
1.23874
1.2379
1.23705
1.2362
1.23535
1.23451
1.23366
1.23281
1.23197
1.23112
1.23028
1.22943
1.22859
1.22774
1.2269
1.22606
1.22521
1.22437
1.22353
1.22269
1.22184
1.221
1.22016
1.21932
1.21848
1.21764
1.2168
1.21596
1.21512
1.21428
1.21344
1.21259
1.21177
1.21088
1.21017
1.209
1.20774
1.32121
1.30394
1.29931
1.29652
1.29437
1.29241
1.2905
1.28858
1.28672
1.28501
1.28351
1.28223
1.28111
1.28012
1.27919
1.27829
1.27742
1.27654
1.27567
1.2748
1.27393
1.27306
1.27219
1.27132
1.27045
1.26958
1.26871
1.26784
1.26698
1.26611
1.26525
1.26438
1.26351
1.26265
1.26179
1.26092
1.26006
1.2592
1.25834
1.25748
1.25661
1.25575
1.25489
1.25404
1.25318
1.25232
1.25146
1.2506
1.24975
1.24889
1.24803
1.24718
1.24632
1.24547
1.24461
1.24376
1.2429
1.24205
1.2412
1.24034
1.23949
1.23864
1.23779
1.23694
1.23609
1.23524
1.23438
1.23353
1.23269
1.23184
1.23099
1.23014
1.22929
1.22844
1.22759
1.22674
1.2259
1.22505
1.2242
1.22336
1.22251
1.22166
1.22081
1.21997
1.21912
1.21829
1.2174
1.21667
1.2155
1.21432
1.31124
1.30472
1.3018
1.2996
1.29787
1.29627
1.29471
1.29315
1.29161
1.29017
1.28887
1.28771
1.28666
1.2857
1.28478
1.28389
1.28301
1.28213
1.28126
1.28038
1.27951
1.27863
1.27776
1.27688
1.27601
1.27513
1.27426
1.27339
1.27252
1.27165
1.27078
1.26991
1.26904
1.26817
1.2673
1.26643
1.26556
1.2647
1.26383
1.26296
1.2621
1.26123
1.26037
1.2595
1.25864
1.25777
1.25691
1.25605
1.25519
1.25432
1.25346
1.2526
1.25174
1.25088
1.25002
1.24916
1.2483
1.24744
1.24658
1.24573
1.24487
1.24401
1.24315
1.2423
1.24144
1.24058
1.23973
1.23887
1.23802
1.23716
1.23631
1.23545
1.2346
1.23374
1.23289
1.23204
1.23118
1.23033
1.22948
1.22862
1.22777
1.22692
1.22607
1.22522
1.22436
1.22352
1.22263
1.22187
1.22078
1.21972
1.30572
1.3051
1.30328
1.30156
1.30016
1.29883
1.29753
1.29622
1.29493
1.2937
1.29255
1.29149
1.2905
1.28957
1.28866
1.28777
1.28689
1.28601
1.28513
1.28425
1.28337
1.28249
1.28162
1.28074
1.27986
1.27898
1.27811
1.27723
1.27636
1.27548
1.27461
1.27374
1.27286
1.27199
1.27112
1.27025
1.26937
1.2685
1.26763
1.26676
1.26589
1.26502
1.26416
1.26329
1.26242
1.26155
1.26069
1.25982
1.25895
1.25809
1.25722
1.25636
1.25549
1.25463
1.25376
1.2529
1.25204
1.25117
1.25031
1.24945
1.24859
1.24772
1.24686
1.246
1.24514
1.24428
1.24342
1.24256
1.2417
1.24084
1.23998
1.23912
1.23827
1.23741
1.23655
1.23569
1.23483
1.23398
1.23312
1.23226
1.2314
1.23055
1.22969
1.22884
1.22798
1.22713
1.22625
1.22545
1.22445
1.22347
1.30487
1.30552
1.30423
1.30287
1.30169
1.30055
1.29943
1.2983
1.29719
1.2961
1.29507
1.29408
1.29314
1.29222
1.29133
1.29044
1.28955
1.28867
1.28779
1.28691
1.28603
1.28515
1.28427
1.28339
1.28251
1.28163
1.28075
1.27987
1.27899
1.27812
1.27724
1.27636
1.27549
1.27461
1.27374
1.27286
1.27199
1.27112
1.27024
1.26937
1.2685
1.26763
1.26676
1.26588
1.26501
1.26414
1.26327
1.2624
1.26154
1.26067
1.2598
1.25893
1.25806
1.2572
1.25633
1.25546
1.2546
1.25373
1.25287
1.252
1.25113
1.25027
1.24941
1.24854
1.24768
1.24681
1.24595
1.24509
1.24423
1.24336
1.2425
1.24164
1.24078
1.23992
1.23905
1.23819
1.23733
1.23647
1.23561
1.23475
1.23389
1.23303
1.23217
1.23131
1.23045
1.2296
1.22873
1.2279
1.22696
1.22603
1.30576
1.30587
1.30485
1.30372
1.3027
1.30169
1.30069
1.29968
1.29868
1.2977
1.29674
1.29581
1.29489
1.29399
1.2931
1.29221
1.29132
1.29044
1.28956
1.28867
1.28779
1.28691
1.28603
1.28514
1.28426
1.28338
1.2825
1.28162
1.28074
1.27987
1.27899
1.27811
1.27723
1.27636
1.27548
1.2746
1.27373
1.27285
1.27198
1.2711
1.27023
1.26935
1.26848
1.26761
1.26674
1.26586
1.26499
1.26412
1.26325
1.26238
1.26151
1.26064
1.25977
1.2589
1.25803
1.25716
1.2563
1.25543
1.25456
1.25369
1.25283
1.25196
1.25109
1.25023
1.24936
1.2485
1.24763
1.24677
1.2459
1.24504
1.24417
1.24331
1.24244
1.24158
1.24072
1.23985
1.23899
1.23813
1.23727
1.2364
1.23554
1.23468
1.23382
1.23296
1.23209
1.23123
1.23037
1.22952
1.22862
1.22773
1.30679
1.30613
1.30526
1.30428
1.30336
1.30243
1.30151
1.30059
1.29966
1.29875
1.29784
1.29694
1.29604
1.29515
1.29426
1.29337
1.29249
1.2916
1.29072
1.28983
1.28895
1.28806
1.28718
1.2863
1.28542
1.28453
1.28365
1.28277
1.28189
1.28101
1.28013
1.27925
1.27838
1.2775
1.27662
1.27574
1.27487
1.27399
1.27311
1.27224
1.27136
1.27049
1.26961
1.26874
1.26787
1.26699
1.26612
1.26525
1.26437
1.2635
1.26263
1.26176
1.26089
1.26002
1.25915
1.25828
1.25741
1.25654
1.25567
1.2548
1.25393
1.25307
1.2522
1.25133
1.25046
1.2496
1.24873
1.24786
1.247
1.24613
1.24527
1.2444
1.24354
1.24267
1.24181
1.24094
1.24008
1.23921
1.23835
1.23748
1.23662
1.23576
1.23489
1.23403
1.23317
1.23231
1.23144
1.23058
1.22971
1.22884
)
;

boundaryField
{
    upperWall
    {
        type            calculated;
        value           nonuniform List<scalar> 
220
(
1.3098
1.3098
1.30907
1.30907
1.30893
1.30893
1.3088
1.3088
1.30869
1.30869
1.30859
1.30859
1.3085
1.3085
1.30841
1.30841
1.30833
1.30833
1.30824
1.30824
1.30817
1.30817
1.30809
1.30809
1.30801
1.30801
1.30793
1.30793
1.30786
1.30786
1.30778
1.30778
1.30771
1.30771
1.30763
1.30763
1.30755
1.30755
1.30746
1.30746
1.30726
1.30726
1.30624
1.30624
1.30543
1.30543
1.30451
1.30451
1.30363
1.30363
1.30274
1.30274
1.30185
1.30185
1.30096
1.30096
1.30007
1.30007
1.29918
1.29918
1.29829
1.29829
1.2974
1.2974
1.29652
1.29652
1.29563
1.29563
1.29474
1.29474
1.29385
1.29385
1.29297
1.29297
1.29208
1.29208
1.2912
1.2912
1.29031
1.29031
1.28943
1.28943
1.28854
1.28854
1.28766
1.28766
1.28678
1.28678
1.28589
1.28589
1.28501
1.28501
1.28413
1.28413
1.28325
1.28325
1.28237
1.28237
1.28149
1.28149
1.28061
1.28061
1.27973
1.27973
1.27885
1.27885
1.27797
1.27797
1.27709
1.27709
1.27622
1.27622
1.27534
1.27534
1.27446
1.27446
1.27359
1.27359
1.27271
1.27271
1.27183
1.27183
1.27096
1.27096
1.27008
1.27008
1.26921
1.26921
1.26833
1.26833
1.26746
1.26746
1.26659
1.26659
1.26571
1.26571
1.26484
1.26484
1.26397
1.26397
1.2631
1.2631
1.26222
1.26222
1.26135
1.26135
1.26048
1.26048
1.25961
1.25961
1.25874
1.25874
1.25787
1.25787
1.257
1.257
1.25613
1.25613
1.25526
1.25526
1.25439
1.25439
1.25352
1.25352
1.25266
1.25266
1.25179
1.25179
1.25092
1.25092
1.25005
1.25005
1.24919
1.24919
1.24832
1.24832
1.24745
1.24745
1.24659
1.24659
1.24572
1.24572
1.24485
1.24485
1.24399
1.24399
1.24312
1.24312
1.24226
1.24226
1.24139
1.24139
1.24053
1.24053
1.23966
1.23966
1.2388
1.2388
1.23793
1.23793
1.23707
1.23707
1.2362
1.2362
1.23534
1.23534
1.23448
1.23448
1.23361
1.23361
1.23275
1.23275
1.23189
1.23189
1.23102
1.23102
1.23016
1.23016
1.2293
1.2293
)
;
    }
    lowerWall
    {
        type            calculated;
        value           nonuniform List<scalar> 
40
(
1.3098
1.3098
1.30907
1.30907
1.30893
1.30893
1.3088
1.3088
1.30869
1.30869
1.30859
1.30859
1.3085
1.3085
1.30841
1.30841
1.30833
1.30833
1.30824
1.30824
1.30817
1.30817
1.30809
1.30809
1.30801
1.30801
1.30793
1.30793
1.30786
1.30786
1.30778
1.30778
1.30771
1.30771
1.30763
1.30763
1.30756
1.30756
1.30746
1.30746
)
;
    }
    heatedWall
    {
        type            calculated;
        value           nonuniform List<scalar> 
180
(
1.28791
1.28791
1.28654
1.28654
1.28361
1.28361
1.28031
1.28031
1.27736
1.27736
1.27451
1.27451
1.27168
1.27168
1.26892
1.26892
1.26638
1.26638
1.26419
1.26419
1.2624
1.2624
1.26096
1.26096
1.25978
1.25978
1.25877
1.25877
1.25785
1.25785
1.25697
1.25697
1.25611
1.25611
1.25525
1.25525
1.25439
1.25439
1.25353
1.25353
1.25267
1.25267
1.25181
1.25181
1.25095
1.25095
1.2501
1.2501
1.24924
1.24924
1.24838
1.24838
1.24753
1.24753
1.24667
1.24667
1.24582
1.24582
1.24496
1.24496
1.24411
1.24411
1.24325
1.24325
1.2424
1.2424
1.24155
1.24155
1.2407
1.2407
1.23985
1.23985
1.239
1.239
1.23815
1.23815
1.2373
1.2373
1.23645
1.23645
1.23561
1.23561
1.23476
1.23476
1.23391
1.23391
1.23307
1.23307
1.23222
1.23222
1.23138
1.23138
1.23053
1.23053
1.22969
1.22969
1.22885
1.22885
1.228
1.228
1.22716
1.22716
1.22632
1.22632
1.22548
1.22548
1.22464
1.22464
1.2238
1.2238
1.22296
1.22296
1.22212
1.22212
1.22128
1.22128
1.22044
1.22044
1.2196
1.2196
1.21877
1.21877
1.21793
1.21793
1.21709
1.21709
1.21625
1.21625
1.21542
1.21542
1.21458
1.21458
1.21375
1.21375
1.21291
1.21291
1.21208
1.21208
1.21124
1.21124
1.21041
1.21041
1.20957
1.20957
1.20874
1.20874
1.20791
1.20791
1.20707
1.20707
1.20624
1.20624
1.20541
1.20541
1.20458
1.20458
1.20374
1.20374
1.20291
1.20291
1.20208
1.20208
1.20125
1.20125
1.20042
1.20042
1.19959
1.19959
1.19875
1.19875
1.19793
1.19793
1.19707
1.19707
1.19632
1.19632
1.19531
1.19531
1.19407
1.19407
)
;
    }
    inlet
    {
        type            calculated;
        value           nonuniform List<scalar> 
24
(
1.3098
1.30958
1.30942
1.30935
1.30932
1.30931
1.30931
1.30932
1.30935
1.30942
1.30958
1.3098
1.3098
1.30958
1.30942
1.30935
1.30932
1.30931
1.30931
1.30932
1.30935
1.30942
1.30958
1.3098
)
;
    }
    outlet
    {
        type            calculated;
        value           nonuniform List<scalar> 
24
(
1.19405
1.19501
1.19649
1.19874
1.20214
1.20732
1.2139
1.21929
1.22304
1.2256
1.2273
1.22841
1.19405
1.19501
1.19649
1.19874
1.20214
1.20732
1.2139
1.21929
1.22304
1.2256
1.2273
1.22841
)
;
    }
    frontAndBack
    {
        type            empty;
    }
}


// ************************************************************************* //
