/*--------------------------------*- C++ -*----------------------------------*\
  =========                 |
  \\      /  F ield         | OpenFOAM: The Open Source CFD Toolbox
   \\    /   O peration     | Website:  https://openfoam.org
    \\  /    A nd           | Version:  7
     \\/     M anipulation  |
\*---------------------------------------------------------------------------*/
FoamFile
{
    version     2.0;
    format      ascii;
    class       volScalarField;
    location    "1.2";
    object      k;
}
// * * * * * * * * * * * * * * * * * * * * * * * * * * * * * * * * * * * * * //

dimensions      [0 2 -2 0 0 0 0];

internalField   nonuniform List<scalar> 
3600
(
0.0350153
0.190187
0.468486
0.760123
1.00322
1.17049
1.26713
1.30081
1.29311
1.26818
1.22002
1.16552
1.10977
1.05588
1.00555
0.959618
0.918268
0.881373
0.848603
0.81957
0.793828
0.771
0.750658
0.732403
0.715962
0.701086
0.68753
0.675092
0.663602
0.65292
0.642937
0.633569
0.624742
0.616394
0.608469
0.600922
0.593715
0.586818
0.580204
0.573854
0.567744
0.561858
0.55618
0.550695
0.545394
0.540261
0.535303
0.530483
0.525849
0.521294
0.516981
0.512617
0.508659
0.50435
0.500861
0.496371
0.493409
0.488656
0.484376
0.489604
0.000142664
0.00295571
0.0142596
0.0402476
0.0882721
0.147157
0.206968
0.261224
0.304814
0.339103
0.363723
0.38053
0.391204
0.397625
0.400879
0.40232
0.402232
0.401817
0.400944
0.399909
0.398894
0.397961
0.397097
0.396334
0.39567
0.395104
0.394622
0.394203
0.393829
0.393478
0.393134
0.392784
0.392417
0.39203
0.391616
0.391176
0.390701
0.390198
0.389651
0.389082
0.388466
0.387845
0.38717
0.386512
0.38578
0.385095
0.384298
0.383602
0.382731
0.382051
0.381092
0.380459
0.379397
0.378822
0.377657
0.3771
0.375818
0.375245
0.373313
0.373962
2.01478e-05
3.29629e-05
0.000138168
0.000566741
0.00179053
0.0044594
0.00918628
0.0158124
0.023653
0.0322033
0.0407858
0.0489945
0.0564682
0.0631301
0.0688927
0.0738321
0.0779788
0.0814566
0.0843692
0.0868317
0.0889389
0.0907814
0.0924077
0.0938785
0.0952323
0.0965174
0.0977555
0.0989824
0.100206
0.10145
0.10271
0.10401
0.105333
0.106703
0.108097
0.109543
0.111008
0.112524
0.114051
0.115622
0.117197
0.118809
0.12042
0.122068
0.123709
0.125383
0.127042
0.128726
0.130391
0.13207
0.133733
0.135394
0.137062
0.138686
0.140372
0.141926
0.143658
0.145102
0.146969
0.148348
2.00137e-05
2.01113e-05
2.07853e-05
2.45133e-05
3.91552e-05
8.23481e-05
0.00018534
0.000385819
0.000757053
0.00125897
0.00194025
0.00271407
0.00360635
0.00452311
0.00550419
0.00645191
0.00741271
0.00829151
0.00915882
0.00993198
0.0107
0.0113746
0.0120533
0.0126377
0.0132378
0.0137459
0.0142827
0.014727
0.0152135
0.0156092
0.016064
0.0164298
0.0168684
0.017213
0.0176419
0.0179698
0.0183991
0.0187195
0.0191599
0.0194785
0.0199311
0.0202479
0.0207146
0.0210312
0.0215189
0.0218385
0.0223511
0.0226757
0.0232154
0.0235454
0.0241159
0.0244521
0.0250558
0.0253976
0.026038
0.0263867
0.0270684
0.0274348
0.0281753
0.0286
2.00037e-05
2.00435e-05
2.01643e-05
2.04244e-05
2.09564e-05
2.18283e-05
2.36283e-05
2.6925e-05
3.45456e-05
4.44352e-05
6.66163e-05
8.60717e-05
0.000127774
0.000156617
0.000216991
0.000253299
0.000327822
0.00036838
0.000449972
0.000492595
0.000576133
0.000620069
0.000704311
0.00074873
0.00083282
0.000877014
0.000960881
0.00100447
0.00108706
0.0011289
0.00121036
0.00125207
0.00133418
0.00137604
0.00145772
0.00149865
0.00158007
0.00162117
0.00170369
0.00174585
0.00183017
0.00187251
0.00195706
0.00199961
0.00208483
0.00212791
0.00221434
0.00225821
0.0023463
0.00239116
0.00248143
0.0025276
0.00262067
0.00266829
0.00276451
0.00281372
0.00291409
0.0029661
0.00307561
0.00313531
2.00004e-05
2.00244e-05
2.01187e-05
2.03271e-05
2.08138e-05
2.12387e-05
2.21465e-05
2.27156e-05
2.38947e-05
2.45445e-05
2.58925e-05
2.66126e-05
2.81251e-05
2.89346e-05
3.06497e-05
3.1567e-05
3.35061e-05
3.45235e-05
3.6649e-05
3.77453e-05
4.00176e-05
4.11886e-05
4.36076e-05
4.48547e-05
4.74185e-05
4.87398e-05
5.14476e-05
5.28463e-05
5.57016e-05
5.71796e-05
6.01948e-05
6.17667e-05
6.49774e-05
6.66532e-05
7.00658e-05
7.18364e-05
7.54309e-05
7.72981e-05
8.10961e-05
8.30831e-05
8.71332e-05
8.92479e-05
9.35446e-05
9.57755e-05
0.0001003
0.000102643
0.000107394
0.00010986
0.000114861
0.000117463
0.000122751
0.000125517
0.000131144
0.000134082
0.000140071
0.000143191
0.000149593
0.000152947
0.000160016
0.000163868
2.00011e-05
2.00239e-05
2.01182e-05
2.03266e-05
2.08133e-05
2.12381e-05
2.21458e-05
2.2715e-05
2.38949e-05
2.45462e-05
2.58977e-05
2.66209e-05
2.81396e-05
2.89527e-05
3.06747e-05
3.15958e-05
3.35428e-05
3.45657e-05
3.67047e-05
3.78084e-05
4.00969e-05
4.12737e-05
4.37034e-05
4.49528e-05
4.75211e-05
4.88437e-05
5.15561e-05
5.29565e-05
5.58179e-05
5.7298e-05
6.03203e-05
6.18927e-05
6.51091e-05
6.67852e-05
7.02002e-05
7.19687e-05
7.5563e-05
7.74245e-05
8.12089e-05
8.31779e-05
8.71875e-05
8.92715e-05
9.35068e-05
9.56977e-05
0.000100145
0.00010244
0.000107098
0.000109494
0.000114356
0.000116854
0.000121928
0.000124531
0.000129829
0.000132524
0.00013803
0.000140784
0.000146481
0.000149301
0.000155389
0.000158461
2.00053e-05
2.0042e-05
2.01628e-05
2.0423e-05
2.09566e-05
2.18335e-05
2.36761e-05
2.69811e-05
3.46655e-05
4.46068e-05
6.69039e-05
8.64495e-05
0.00012828
0.000157208
0.000217661
0.000254043
0.00032865
0.000369318
0.000451308
0.000493655
0.000577825
0.00062136
0.000706078
0.000750026
0.000834546
0.000878298
0.000962517
0.00100573
0.00108869
0.00113025
0.00121211
0.00125354
0.00133584
0.00137736
0.0014592
0.00150009
0.0015817
0.00162269
0.00170493
0.00174655
0.00183016
0.00187214
0.00195611
0.00199819
0.00208252
0.00212497
0.0022102
0.00225316
0.00233949
0.002383
0.00247057
0.0025147
0.00260379
0.00264841
0.00273889
0.00278369
0.00287593
0.00292146
0.00301998
0.00307072
2.00165e-05
2.01104e-05
2.07954e-05
2.45672e-05
3.93342e-05
8.27972e-05
0.000188328
0.000385206
0.000761602
0.00126007
0.00194707
0.00271738
0.00361486
0.00452724
0.00551299
0.00645567
0.00742215
0.00829603
0.0091702
0.00993809
0.0107128
0.0113808
0.0120661
0.0126427
0.0132501
0.01375
0.014295
0.0147305
0.0152261
0.0156118
0.016077
0.0164318
0.016882
0.0172142
0.0176552
0.0179697
0.0184111
0.0187178
0.0191698
0.0194734
0.0199378
0.0202378
0.0207163
0.0210155
0.0215141
0.0218156
0.0223374
0.0226423
0.0231878
0.0234964
0.0240679
0.0243797
0.0249779
0.0252927
0.025915
0.026236
0.0268827
0.027215
0.0279025
0.028278
2.01598e-05
3.31818e-05
0.000139217
0.00056966
0.00179689
0.00446969
0.00920042
0.0158301
0.0236743
0.0322283
0.0408143
0.0490238
0.0564976
0.0631569
0.0689183
0.073856
0.0780043
0.0814819
0.0843974
0.0868585
0.0889676
0.0908063
0.0924343
0.0939001
0.0952572
0.0965368
0.0977798
0.099
0.10023
0.101466
0.102735
0.104022
0.105357
0.106711
0.10812
0.109543
0.111028
0.112515
0.114066
0.115601
0.117206
0.118773
0.120421
0.122012
0.123698
0.125299
0.127015
0.128606
0.130336
0.131897
0.133638
0.135151
0.136905
0.138349
0.140121
0.141466
0.143255
0.14448
0.146293
0.147514
0.00014568
0.00297061
0.0142952
0.0403022
0.0883422
0.147235
0.207049
0.261306
0.304897
0.339185
0.3638
0.380598
0.391263
0.397676
0.400926
0.402366
0.402274
0.401858
0.400983
0.399946
0.398927
0.39799
0.397124
0.396359
0.395694
0.395126
0.394643
0.394223
0.393847
0.393495
0.393149
0.392798
0.392429
0.392039
0.391621
0.391179
0.390701
0.390195
0.389645
0.389072
0.388452
0.387826
0.387146
0.386482
0.385742
0.38505
0.384241
0.383536
0.382647
0.381956
0.380973
0.380326
0.379233
0.378638
0.377433
0.376842
0.375502
0.374843
0.372696
0.373217
0.0350197
0.190178
0.468464
0.760086
1.00318
1.17044
1.26708
1.30076
1.29306
1.26812
1.21997
1.16547
1.10972
1.05583
1.0055
0.959577
0.918229
0.881335
0.848567
0.819536
0.793795
0.770968
0.750629
0.732376
0.715938
0.701064
0.687511
0.675076
0.663589
0.65291
0.642932
0.633569
0.624748
0.616406
0.608488
0.60095
0.593754
0.586869
0.58027
0.573936
0.567846
0.561985
0.556332
0.550883
0.545615
0.540536
0.535619
0.530884
0.526292
0.521877
0.517592
0.513465
0.509484
0.505594
0.501951
0.498192
0.494847
0.491173
0.486524
0.492193
0.917545
1.06142
1.07007
1.05363
1.03007
1.01101
0.99376
0.978185
0.964164
0.951593
0.940293
0.930072
0.920783
0.912311
0.904554
0.897427
0.89087
0.884843
0.879322
0.874298
0.869762
0.865684
0.862022
0.858734
0.855784
0.853127
0.850739
0.848583
0.846618
0.844818
0.843165
0.84164
0.840238
0.838951
0.837777
0.836716
0.835758
0.834899
0.834139
0.833474
0.832903
0.832419
0.832007
0.831654
0.831347
0.831079
0.830841
0.830628
0.830436
0.830259
0.830097
0.829947
0.829809
0.829686
0.829583
0.829507
0.829458
0.829434
0.829431
0.829452
0.8295
0.829577
0.829676
0.829788
0.829908
0.830035
0.83017
0.830309
0.830446
0.830577
0.830701
0.830821
0.830939
0.831054
0.831167
0.83128
0.831397
0.83152
0.83165
0.831786
0.831931
0.832084
0.832246
0.832417
0.832591
0.83277
0.832953
0.83314
0.833329
0.833519
0.833712
0.83391
0.834111
0.834309
0.834504
0.834702
0.834906
0.835116
0.835325
0.835529
0.835732
0.83594
0.836156
0.836374
0.836588
0.836799
0.837013
0.837233
0.837458
0.837682
0.837903
0.838124
0.838349
0.838578
0.838807
0.839037
0.839268
0.839501
0.839736
0.839972
0.840208
0.840447
0.84069
0.840933
0.841177
0.841422
0.84167
0.841921
0.842173
0.842423
0.842673
0.842929
0.843189
0.843449
0.843706
0.843964
0.844227
0.844496
0.844765
0.845031
0.845295
0.845566
0.845844
0.846125
0.846401
0.846675
0.846952
0.847236
0.847526
0.847814
0.848098
0.848382
0.848672
0.848969
0.849268
0.849564
0.849859
0.850158
0.850462
0.850769
0.851077
0.851383
0.85169
0.852002
0.852317
0.852636
0.852956
0.853275
0.853595
0.853918
0.854246
0.854577
0.854909
0.85524
0.855573
0.855911
0.856253
0.856595
0.856936
0.857278
0.857625
0.857978
0.858333
0.858686
0.859038
0.859395
0.85976
0.860128
0.860494
0.860857
0.861224
0.861599
0.861978
0.862357
0.862732
0.863109
0.863494
0.863887
0.86428
0.864669
0.865058
0.865452
0.865855
0.866261
0.866665
0.867067
0.867472
0.867885
0.868303
0.868721
0.869136
0.869554
0.869979
0.87041
0.870843
0.871273
0.871705
0.872143
0.872587
0.873034
0.873477
0.873922
0.874374
0.874835
0.875294
0.875754
0.876206
0.876677
0.877141
0.877632
0.878083
0.878589
0.87902
0.879581
0.879968
0.880605
0.880902
0.881654
0.881857
0.882762
0.641489
0.920161
1.02803
1.06049
1.05953
1.05334
1.04184
1.03105
1.02146
1.0131
1.00583
0.999482
0.993937
0.989087
0.984844
0.981137
0.977908
0.975111
0.972715
0.9707
0.969051
0.967752
0.966768
0.966077
0.965664
0.965445
0.965404
0.965529
0.965816
0.966198
0.96667
0.96722
0.96784
0.968521
0.969258
0.970048
0.97089
0.971783
0.972724
0.973709
0.974737
0.975802
0.976899
0.978022
0.979164
0.980317
0.981476
0.982636
0.983791
0.98494
0.98608
0.98721
0.98833
0.98944
0.990541
0.991636
0.992729
0.993822
0.994917
0.996015
0.997117
0.998227
0.999345
1.00047
1.0016
1.00274
1.00388
1.00502
1.00616
1.0073
1.00844
1.00956
1.01068
1.01178
1.01288
1.01396
1.01503
1.0161
1.01715
1.01821
1.01926
1.02031
1.02136
1.02241
1.02346
1.02451
1.02557
1.02662
1.02767
1.02872
1.02976
1.03081
1.03185
1.03289
1.03393
1.03496
1.03599
1.03701
1.03804
1.03906
1.04008
1.04109
1.0421
1.04311
1.04412
1.04512
1.04612
1.04711
1.0481
1.04909
1.05008
1.05106
1.05204
1.05302
1.05399
1.05496
1.05593
1.05689
1.05785
1.05881
1.05976
1.06071
1.06166
1.06261
1.06355
1.06449
1.06542
1.06636
1.06729
1.06822
1.06914
1.07006
1.07098
1.0719
1.07281
1.07372
1.07463
1.07553
1.07644
1.07734
1.07823
1.07912
1.08001
1.0809
1.08179
1.08267
1.08355
1.08442
1.0853
1.08617
1.08704
1.08791
1.08877
1.08963
1.09049
1.09134
1.09219
1.09304
1.09389
1.09473
1.09558
1.09642
1.09725
1.09809
1.09892
1.09975
1.10057
1.1014
1.10222
1.10304
1.10385
1.10467
1.10548
1.10629
1.10709
1.1079
1.1087
1.1095
1.1103
1.11109
1.11188
1.11267
1.11346
1.11425
1.11503
1.11581
1.11659
1.11736
1.11814
1.11891
1.11968
1.12044
1.12121
1.12197
1.12273
1.12349
1.12424
1.125
1.12575
1.1265
1.12724
1.12799
1.12873
1.12947
1.13021
1.13095
1.13168
1.13241
1.13314
1.13387
1.13459
1.13531
1.13603
1.13675
1.13747
1.13819
1.1389
1.13961
1.14031
1.14102
1.14173
1.14243
1.14313
1.14383
1.14452
1.14522
1.1459
1.1466
1.14727
1.14798
1.14863
1.14935
1.14997
1.15073
1.15128
1.15213
1.15258
1.15352
1.1539
1.15497
0.201506
0.352663
0.489353
0.587756
0.646166
0.679321
0.696756
0.705431
0.709499
0.711327
0.712151
0.712586
0.712941
0.713378
0.713984
0.714776
0.715733
0.716812
0.717973
0.719197
0.720471
0.7218
0.723178
0.724602
0.726077
0.727585
0.729139
0.730746
0.732394
0.734072
0.735769
0.737479
0.739193
0.740902
0.742599
0.744275
0.745925
0.747543
0.749124
0.750669
0.752179
0.753656
0.755105
0.756528
0.757933
0.759321
0.760697
0.762063
0.763417
0.764762
0.766097
0.76742
0.768731
0.770024
0.771299
0.772553
0.773784
0.774993
0.77618
0.777345
0.77849
0.779619
0.780735
0.781842
0.782941
0.784035
0.78513
0.786227
0.787328
0.788435
0.789546
0.790661
0.791778
0.792897
0.794014
0.795127
0.796234
0.797333
0.798424
0.799506
0.80058
0.801646
0.802707
0.803763
0.804815
0.805864
0.806912
0.807957
0.809002
0.810045
0.811086
0.812126
0.813165
0.814204
0.81524
0.816274
0.817305
0.818336
0.819367
0.820395
0.82142
0.822442
0.823463
0.824484
0.825504
0.82652
0.827533
0.828544
0.829555
0.830563
0.83157
0.832573
0.833575
0.834574
0.835572
0.836568
0.837561
0.838552
0.839541
0.840528
0.841512
0.842494
0.843474
0.844452
0.845427
0.846399
0.847369
0.848337
0.849303
0.850267
0.851226
0.852183
0.853139
0.854094
0.855045
0.855993
0.856937
0.85788
0.858822
0.859761
0.860695
0.861627
0.862556
0.863484
0.86441
0.865333
0.86625
0.867166
0.86808
0.868993
0.869902
0.870808
0.871709
0.872609
0.873506
0.874402
0.875293
0.876181
0.877066
0.877949
0.878829
0.879707
0.88058
0.881451
0.882318
0.883183
0.884046
0.884905
0.885761
0.886614
0.887464
0.88831
0.889154
0.889995
0.890832
0.891667
0.892498
0.893328
0.894154
0.894976
0.895794
0.896609
0.897422
0.898233
0.899039
0.89984
0.900639
0.901437
0.902231
0.903022
0.903807
0.904589
0.90537
0.906149
0.906923
0.907693
0.908458
0.909222
0.909984
0.910742
0.911495
0.912244
0.912991
0.913735
0.914477
0.915214
0.915947
0.916677
0.917404
0.918129
0.918849
0.919564
0.920276
0.920985
0.921693
0.922396
0.923095
0.92379
0.924481
0.925171
0.925856
0.926538
0.927213
0.927889
0.928558
0.92923
0.929887
0.930553
0.931196
0.931866
0.93249
0.933169
0.933756
0.934465
0.934999
0.935758
0.936219
0.937032
0.937434
0.938416
0.0346104
0.0549899
0.0911466
0.139444
0.190162
0.237438
0.278246
0.311727
0.338505
0.359832
0.376974
0.390946
0.40252
0.412304
0.420786
0.428332
0.435176
0.441452
0.447222
0.452534
0.457429
0.461958
0.466163
0.470067
0.4737
0.477081
0.480255
0.483266
0.486147
0.488922
0.491602
0.49419
0.49669
0.499104
0.501435
0.503678
0.505822
0.507857
0.509773
0.511569
0.513244
0.514804
0.516259
0.517615
0.518886
0.520085
0.521226
0.522326
0.523392
0.524435
0.525459
0.526468
0.527466
0.528452
0.529426
0.530384
0.531323
0.532237
0.533123
0.533979
0.534803
0.535596
0.536361
0.537099
0.537811
0.538501
0.539174
0.539836
0.540491
0.541144
0.541798
0.542456
0.543122
0.543798
0.544483
0.545177
0.545877
0.546583
0.54729
0.547995
0.548696
0.54939
0.550077
0.550756
0.551427
0.55209
0.552747
0.5534
0.554047
0.554692
0.555333
0.555973
0.556613
0.557252
0.55789
0.558527
0.559163
0.5598
0.560438
0.561076
0.561712
0.562348
0.562985
0.563622
0.56426
0.564897
0.565533
0.566169
0.566806
0.567443
0.56808
0.568716
0.569352
0.569989
0.570626
0.571262
0.571897
0.572533
0.573168
0.573803
0.574438
0.575072
0.575706
0.57634
0.576973
0.577606
0.578237
0.578869
0.579501
0.580132
0.580762
0.581391
0.58202
0.58265
0.583279
0.583906
0.584533
0.585159
0.585785
0.58641
0.587034
0.587657
0.588279
0.588901
0.589523
0.590144
0.590762
0.59138
0.591998
0.592616
0.593233
0.593848
0.594462
0.595075
0.595688
0.596299
0.596909
0.597518
0.598125
0.598733
0.599339
0.599944
0.600548
0.60115
0.601751
0.602351
0.60295
0.603548
0.604144
0.604739
0.605332
0.605925
0.606516
0.607105
0.607693
0.60828
0.608865
0.60945
0.610034
0.610615
0.611195
0.611773
0.61235
0.612926
0.6135
0.614071
0.614641
0.615211
0.615779
0.616345
0.616908
0.61747
0.618031
0.618591
0.619149
0.619704
0.620257
0.620809
0.621361
0.62191
0.622457
0.623
0.623543
0.624085
0.624626
0.625164
0.625699
0.626233
0.626765
0.627296
0.627825
0.628351
0.628874
0.629396
0.629917
0.630436
0.630951
0.631465
0.631976
0.632488
0.632995
0.633502
0.634002
0.634507
0.635003
0.635506
0.635993
0.636495
0.636971
0.637479
0.637941
0.638456
0.638892
0.639427
0.63983
0.640395
0.640754
0.641354
0.641663
0.642412
0.00359404
0.00499162
0.007391
0.0121536
0.0198129
0.0303941
0.0433455
0.0578033
0.0730293
0.0885097
0.103865
0.118782
0.133029
0.146479
0.159127
0.171041
0.182288
0.1929
0.202859
0.212131
0.220702
0.228597
0.235856
0.242509
0.248572
0.254062
0.259017
0.2635
0.267588
0.271353
0.274842
0.278087
0.281109
0.283929
0.286572
0.289058
0.291394
0.293577
0.295598
0.297451
0.299135
0.300658
0.302029
0.303258
0.304354
0.305331
0.306205
0.306996
0.307722
0.308401
0.309044
0.309662
0.31026
0.310844
0.311421
0.311992
0.312559
0.313119
0.313666
0.314195
0.314703
0.315188
0.31565
0.316087
0.316498
0.316883
0.317243
0.317581
0.3179
0.318202
0.318492
0.318776
0.319057
0.31934
0.31963
0.319929
0.320241
0.320567
0.320905
0.321253
0.321608
0.321967
0.322326
0.322681
0.32303
0.323372
0.323705
0.324031
0.324349
0.324661
0.324967
0.32527
0.325569
0.325867
0.326163
0.326457
0.326751
0.327045
0.32734
0.327634
0.327928
0.328221
0.328515
0.32881
0.329105
0.3294
0.329695
0.329991
0.330287
0.330584
0.330882
0.331179
0.331476
0.331775
0.332074
0.332373
0.332673
0.332972
0.333273
0.333573
0.333873
0.334174
0.334475
0.334776
0.335077
0.335378
0.33568
0.335981
0.336284
0.336586
0.336889
0.337191
0.337494
0.337798
0.338101
0.338405
0.338708
0.339012
0.339316
0.339621
0.339925
0.340228
0.340532
0.340836
0.341141
0.341446
0.341749
0.342053
0.342357
0.342662
0.342967
0.343271
0.343575
0.34388
0.344185
0.344489
0.344793
0.345097
0.345401
0.345705
0.346009
0.346314
0.346617
0.346921
0.347224
0.347527
0.347831
0.348134
0.348437
0.348739
0.349041
0.349343
0.349646
0.349947
0.350248
0.350549
0.35085
0.351151
0.351452
0.351752
0.352052
0.352352
0.352653
0.352953
0.353252
0.35355
0.353848
0.354146
0.354444
0.354741
0.355037
0.355333
0.355629
0.355925
0.356221
0.356515
0.356809
0.357102
0.357396
0.35769
0.357982
0.358274
0.358565
0.358857
0.359149
0.359439
0.359729
0.360018
0.360307
0.360597
0.360885
0.361173
0.361459
0.361745
0.362031
0.362317
0.3626
0.362885
0.363167
0.363452
0.363732
0.364016
0.364293
0.364578
0.364853
0.365139
0.365409
0.365698
0.365961
0.366256
0.366511
0.366813
0.367053
0.367366
0.367592
0.367918
0.368124
0.368469
0.368648
0.369083
0.0001855
0.000252598
0.000341056
0.000485619
0.00073735
0.00122076
0.00203112
0.00320291
0.00479108
0.00688049
0.00953188
0.0127299
0.0164108
0.020514
0.0250126
0.0298975
0.035142
0.0406753
0.0463872
0.0521595
0.0578973
0.0635383
0.0690357
0.0743312
0.0793554
0.0840448
0.0883668
0.0923291
0.0959682
0.0993264
0.102435
0.105312
0.107968
0.110422
0.112697
0.114818
0.116803
0.118658
0.120377
0.121955
0.123392
0.124692
0.125866
0.126917
0.127851
0.128673
0.129391
0.130018
0.130571
0.131063
0.131507
0.131913
0.132286
0.132635
0.132965
0.133285
0.133598
0.133905
0.134206
0.134498
0.134779
0.135048
0.135302
0.135542
0.135765
0.135971
0.13616
0.136331
0.136486
0.136625
0.13675
0.136865
0.136972
0.137075
0.137176
0.13728
0.137389
0.137505
0.137631
0.137766
0.137909
0.138058
0.138211
0.138365
0.138518
0.138668
0.138814
0.138955
0.13909
0.139219
0.139345
0.139466
0.139585
0.139702
0.139818
0.139931
0.140045
0.140158
0.14027
0.140383
0.140495
0.140607
0.140719
0.140831
0.140944
0.141056
0.141168
0.141281
0.141394
0.141507
0.14162
0.141734
0.141847
0.141961
0.142075
0.142189
0.142303
0.142418
0.142532
0.142647
0.142762
0.142877
0.142992
0.143107
0.143223
0.143338
0.143453
0.143568
0.143684
0.143799
0.143915
0.144031
0.144147
0.144263
0.14438
0.144496
0.144612
0.144729
0.144846
0.144962
0.145079
0.145195
0.145312
0.145429
0.145546
0.145663
0.14578
0.145896
0.146013
0.146131
0.146248
0.146366
0.146483
0.1466
0.146717
0.146835
0.146952
0.147069
0.147186
0.147304
0.147421
0.147539
0.147656
0.147773
0.147891
0.148008
0.148125
0.148243
0.14836
0.148477
0.148595
0.148712
0.148829
0.148946
0.149063
0.149179
0.149296
0.149413
0.14953
0.149647
0.149764
0.149881
0.149998
0.150115
0.150232
0.150348
0.150464
0.15058
0.150696
0.150812
0.150928
0.151044
0.15116
0.151276
0.151392
0.151507
0.151622
0.151738
0.151853
0.151969
0.152084
0.152199
0.152313
0.152428
0.152542
0.152657
0.15277
0.152885
0.152999
0.153114
0.153227
0.153342
0.153455
0.15357
0.153682
0.153797
0.153908
0.154023
0.154133
0.154249
0.154358
0.154475
0.154581
0.1547
0.154804
0.154925
0.155026
0.15515
0.155247
0.155374
0.155468
0.155598
0.155686
0.15582
0.155905
0.156041
0.156122
0.156262
0.156335
0.156513
0.000179328
0.000245481
0.000316729
0.000437209
0.000669392
0.00111894
0.00186366
0.00295308
0.00445191
0.0064403
0.00897031
0.0120498
0.0156441
0.0197089
0.0242158
0.0291472
0.0344713
0.0401111
0.0459513
0.0518672
0.057759
0.0635622
0.0692279
0.0747006
0.0799095
0.0847898
0.0893069
0.0934657
0.0973015
0.100855
0.104157
0.107223
0.110062
0.112692
0.115134
0.117414
0.119548
0.12154
0.123387
0.125083
0.126628
0.128027
0.129289
0.13042
0.131426
0.132311
0.133084
0.13376
0.134355
0.134888
0.13537
0.135811
0.136216
0.136594
0.136953
0.137299
0.137636
0.137966
0.138287
0.138598
0.138896
0.13918
0.139448
0.139699
0.139931
0.140145
0.140338
0.140513
0.140669
0.140809
0.140935
0.14105
0.141157
0.14126
0.141362
0.141466
0.141577
0.141696
0.141826
0.141966
0.142114
0.142268
0.142426
0.142584
0.142741
0.142894
0.143043
0.143186
0.143324
0.143457
0.143585
0.14371
0.143832
0.143953
0.144071
0.144189
0.144306
0.144422
0.144539
0.144655
0.14477
0.144886
0.145002
0.145118
0.145234
0.14535
0.145466
0.145582
0.145699
0.145816
0.145933
0.146049
0.146166
0.146283
0.1464
0.146517
0.146635
0.146752
0.14687
0.146987
0.147105
0.147224
0.147342
0.147461
0.147579
0.147697
0.147816
0.147935
0.148054
0.148173
0.148292
0.148411
0.14853
0.148649
0.148769
0.148888
0.149007
0.149127
0.149246
0.149366
0.149485
0.149605
0.149725
0.149845
0.149965
0.150085
0.150205
0.150325
0.150446
0.150569
0.150691
0.150813
0.150933
0.151051
0.151169
0.151287
0.151407
0.151527
0.151647
0.151768
0.151888
0.152008
0.152128
0.152248
0.152368
0.152488
0.152608
0.152729
0.152849
0.15297
0.15309
0.153211
0.153331
0.153451
0.153571
0.153691
0.15381
0.15393
0.15405
0.15417
0.15429
0.15441
0.15453
0.15465
0.15477
0.15489
0.15501
0.15513
0.15525
0.15537
0.155489
0.155609
0.155729
0.155849
0.155967
0.156085
0.156202
0.15632
0.156438
0.156557
0.156676
0.156794
0.156912
0.157029
0.157145
0.157263
0.15738
0.157497
0.157614
0.157732
0.157849
0.157966
0.158083
0.158201
0.158317
0.158435
0.158549
0.158668
0.158781
0.158901
0.159013
0.159134
0.159244
0.159366
0.159474
0.159598
0.159703
0.15983
0.15993
0.160061
0.160157
0.160294
0.160383
0.160526
0.160608
0.160756
0.160832
0.160983
0.161059
0.161247
0.00354374
0.00486507
0.00711302
0.0115884
0.0190182
0.0294123
0.042201
0.0565452
0.0717253
0.0872401
0.102726
0.117899
0.132536
0.146484
0.159695
0.172195
0.18403
0.195207
0.205701
0.215474
0.224518
0.232865
0.240563
0.247647
0.254131
0.260026
0.265366
0.27021
0.274636
0.278712
0.28249
0.285998
0.289255
0.292287
0.295117
0.297765
0.300242
0.302546
0.30467
0.30661
0.308367
0.309949
0.311365
0.312627
0.313745
0.314733
0.315609
0.316393
0.317106
0.317764
0.31838
0.318966
0.319531
0.320083
0.320626
0.321166
0.321702
0.322232
0.322751
0.323255
0.323738
0.3242
0.324638
0.325052
0.325441
0.325804
0.326143
0.32646
0.326757
0.327038
0.327309
0.327573
0.327836
0.328104
0.328381
0.32867
0.328973
0.329292
0.329625
0.32997
0.330325
0.330685
0.331047
0.331407
0.331762
0.33211
0.332451
0.332785
0.333111
0.33343
0.333745
0.334055
0.334363
0.334668
0.334971
0.335273
0.335574
0.335876
0.336177
0.336478
0.336779
0.33708
0.337381
0.337684
0.337986
0.338289
0.338591
0.338894
0.339197
0.3395
0.339804
0.340108
0.340412
0.340716
0.341021
0.341325
0.341629
0.341934
0.342239
0.342544
0.342849
0.343154
0.34346
0.343767
0.344075
0.344383
0.344691
0.344999
0.345307
0.345615
0.345923
0.346231
0.34654
0.346848
0.347157
0.347465
0.347773
0.348081
0.348389
0.348698
0.349006
0.349315
0.349624
0.349933
0.350242
0.350552
0.35086
0.351169
0.351475
0.351781
0.352088
0.352395
0.352703
0.353013
0.353325
0.353635
0.353944
0.354252
0.354559
0.354866
0.355174
0.355482
0.355789
0.356096
0.356403
0.35671
0.357017
0.357323
0.357629
0.357934
0.35824
0.358546
0.358853
0.359159
0.359464
0.35977
0.360075
0.36038
0.360684
0.360987
0.361289
0.361592
0.361895
0.362198
0.362501
0.362802
0.363103
0.363404
0.363705
0.364005
0.364305
0.364604
0.364902
0.365202
0.365501
0.3658
0.366099
0.366398
0.366696
0.366993
0.367289
0.367584
0.36788
0.368176
0.368472
0.368766
0.369058
0.36935
0.369642
0.369933
0.370224
0.370514
0.370803
0.371093
0.371383
0.371672
0.371959
0.372247
0.372532
0.37282
0.373104
0.373391
0.373672
0.37396
0.374238
0.374527
0.3748
0.37509
0.375357
0.375654
0.375913
0.376217
0.37646
0.37678
0.377004
0.377346
0.377545
0.377909
0.378092
0.378545
0.0342735
0.0542178
0.0895143
0.13741
0.188496
0.236529
0.278208
0.312596
0.34029
0.362539
0.380611
0.39553
0.408039
0.418698
0.427954
0.436158
0.443552
0.450277
0.456423
0.462056
0.467244
0.47205
0.476518
0.480673
0.484528
0.488106
0.491443
0.494582
0.497561
0.500403
0.503119
0.505717
0.508202
0.510579
0.512853
0.515023
0.517081
0.51902
0.520833
0.522519
0.524079
0.525521
0.52685
0.528077
0.529215
0.530278
0.531282
0.532244
0.533174
0.534081
0.534971
0.535851
0.536724
0.537591
0.53845
0.5393
0.540136
0.540954
0.541749
0.542521
0.543266
0.543986
0.544682
0.545356
0.546009
0.546644
0.547266
0.547881
0.548493
0.549106
0.549724
0.55035
0.550987
0.551637
0.552299
0.552973
0.553656
0.554345
0.555038
0.555731
0.556421
0.557105
0.557783
0.558453
0.559116
0.559773
0.560423
0.561069
0.561712
0.56235
0.562987
0.563622
0.564256
0.564891
0.565524
0.566156
0.566788
0.56742
0.568053
0.568687
0.569319
0.56995
0.570582
0.571215
0.571848
0.572481
0.573112
0.573744
0.574376
0.575008
0.57564
0.576271
0.576902
0.577533
0.578164
0.578794
0.579424
0.580053
0.580683
0.581312
0.581941
0.582569
0.583198
0.583826
0.584455
0.585081
0.585708
0.586333
0.586959
0.587585
0.588209
0.588833
0.589457
0.590081
0.590704
0.591324
0.591944
0.592564
0.593183
0.593803
0.594421
0.595038
0.595655
0.596272
0.596888
0.597502
0.598115
0.598727
0.599339
0.599951
0.600561
0.601169
0.601777
0.602383
0.60299
0.603595
0.604199
0.604801
0.605402
0.606002
0.606602
0.6072
0.607797
0.608392
0.608987
0.609581
0.610174
0.610767
0.611357
0.611946
0.612534
0.613121
0.613707
0.614291
0.614873
0.615454
0.616034
0.616612
0.617188
0.617763
0.618336
0.618908
0.61948
0.620051
0.620619
0.621185
0.62175
0.622314
0.622877
0.623438
0.623996
0.624553
0.625109
0.625664
0.626217
0.626767
0.627315
0.627862
0.628408
0.628952
0.629494
0.630033
0.630571
0.631107
0.631642
0.632175
0.632704
0.633232
0.633759
0.634285
0.634809
0.63533
0.63585
0.636368
0.636885
0.6374
0.637911
0.63842
0.638927
0.639435
0.639938
0.640441
0.640938
0.641438
0.64193
0.64243
0.642913
0.643411
0.643884
0.644388
0.644847
0.645359
0.645792
0.646326
0.646723
0.647293
0.647639
0.648252
0.648558
0.649313
0.201809
0.350679
0.488803
0.589386
0.649907
0.684659
0.703257
0.712793
0.717513
0.71985
0.721081
0.721823
0.722362
0.72285
0.72338
0.723996
0.724711
0.725525
0.726427
0.727407
0.728461
0.729581
0.730753
0.73196
0.733192
0.734449
0.73573
0.737041
0.738379
0.739728
0.741088
0.742455
0.743822
0.745184
0.746538
0.747879
0.749205
0.750511
0.751795
0.753055
0.754292
0.75551
0.75671
0.757898
0.759076
0.760251
0.761423
0.762595
0.763767
0.764939
0.766109
0.767278
0.768443
0.769601
0.770747
0.77188
0.772998
0.7741
0.775188
0.776261
0.777321
0.778371
0.779414
0.780454
0.781493
0.782533
0.783577
0.78463
0.785692
0.786763
0.787842
0.788925
0.790013
0.791103
0.792192
0.793277
0.794355
0.795426
0.796489
0.797543
0.798588
0.799624
0.800655
0.801681
0.802704
0.803723
0.804741
0.805758
0.806773
0.807787
0.808799
0.80981
0.810821
0.811831
0.81284
0.813845
0.814849
0.815854
0.816858
0.817861
0.81886
0.819857
0.820853
0.821848
0.822842
0.823832
0.824819
0.825805
0.82679
0.827775
0.828758
0.829738
0.830716
0.831691
0.832664
0.833635
0.834604
0.835571
0.836538
0.837503
0.838465
0.839425
0.840382
0.841337
0.842289
0.843236
0.844181
0.845125
0.846069
0.847012
0.847952
0.84889
0.849826
0.850759
0.851689
0.852614
0.853536
0.854456
0.855375
0.856294
0.857209
0.858121
0.859031
0.859939
0.860846
0.86175
0.862651
0.863549
0.864446
0.865341
0.866233
0.867119
0.868002
0.868881
0.869759
0.870633
0.871504
0.872371
0.873237
0.874101
0.874963
0.875823
0.876678
0.877529
0.878379
0.879227
0.880074
0.880919
0.88176
0.882597
0.883431
0.884262
0.885091
0.885916
0.886738
0.887557
0.888372
0.889184
0.889993
0.890798
0.8916
0.892401
0.893201
0.894
0.894794
0.895585
0.896372
0.897157
0.897939
0.898716
0.899489
0.900258
0.901026
0.90179
0.902551
0.903306
0.904058
0.904808
0.905557
0.906302
0.907043
0.90778
0.908514
0.909245
0.909973
0.910697
0.911416
0.912132
0.912846
0.91356
0.91427
0.914976
0.915678
0.916377
0.917074
0.917766
0.918454
0.919138
0.91982
0.920501
0.921177
0.921849
0.922514
0.92318
0.92384
0.924503
0.925151
0.92581
0.926446
0.927111
0.927728
0.928401
0.928981
0.929681
0.93021
0.930959
0.93141
0.932222
0.932612
0.933588
0.643262
0.923684
1.03469
1.0676
1.06639
1.05967
1.04761
1.03621
1.02597
1.01694
1.00892
1.00174
0.995261
0.98941
0.984142
0.979432
0.975259
0.971598
0.968416
0.965677
0.963348
0.961392
0.959767
0.958435
0.95736
0.956513
0.955862
0.955388
0.955063
0.954849
0.954749
0.954752
0.954855
0.955051
0.955331
0.9557
0.956156
0.956697
0.957318
0.958015
0.958784
0.959618
0.96051
0.961452
0.962437
0.963454
0.964497
0.965557
0.966629
0.967706
0.968785
0.969861
0.970933
0.971999
0.973059
0.974117
0.975176
0.976238
0.977305
0.978378
0.979459
0.980551
0.981656
0.982773
0.983901
0.985037
0.98618
0.987327
0.988474
0.989618
0.990755
0.991884
0.993002
0.994107
0.995199
0.996277
0.997342
0.998396
0.999442
1.00048
1.00152
1.00255
1.00359
1.00462
1.00566
1.0067
1.00773
1.00877
1.0098