/*--------------------------------*- C++ -*----------------------------------*\
  =========                 |
  \\      /  F ield         | OpenFOAM: The Open Source CFD Toolbox
   \\    /   O peration     | Website:  https://openfoam.org
    \\  /    A nd           | Version:  7
     \\/     M anipulation  |
\*---------------------------------------------------------------------------*/
FoamFile
{
    version     2.0;
    format      ascii;
    class       volScalarField;
    location    "1.3275";
    object      rho_0;
}
// * * * * * * * * * * * * * * * * * * * * * * * * * * * * * * * * * * * * * //

dimensions      [1 -3 0 0 0 0 0];

internalField   nonuniform List<scalar> 
7920
(
1.23023
1.22962
1.22978
1.22951
1.22973
1.2295
1.22964
1.22943
1.22952
1.22935
1.22941
1.22927
1.22933
1.22924
1.22928
1.22924
1.22926
1.22929
1.22917
1.22953
1.23039
1.23015
1.23035
1.23012
1.23037
1.23018
1.23028
1.23005
1.23003
1.22981
1.22975
1.22956
1.22952
1.22942
1.22939
1.22942
1.22933
1.2296
1.22913
1.23031
1.23075
1.2307
1.23122
1.231
1.23147
1.23128
1.23155
1.23126
1.23133
1.23098
1.23092
1.23057
1.23043
1.23016
1.23002
1.22995
1.22979
1.23002
1.22965
1.23041
1.23056
1.23054
1.23106
1.23091
1.23137
1.23128
1.23157
1.23136
1.23144
1.23115
1.23108
1.23076
1.23055
1.23022
1.22996
1.22976
1.22954
1.22955
1.22939
1.22959
1.2307
1.23065
1.23127
1.23109
1.23162
1.23152
1.23188
1.23169
1.23182
1.23154
1.23154
1.23122
1.23108
1.23069
1.23046
1.23011
1.22993
1.22971
1.22969
1.22954
1.23064
1.23056
1.23117
1.23098
1.23152
1.23141
1.23179
1.23159
1.23174
1.23147
1.23149
1.23119
1.23108
1.23069
1.23047
1.23007
1.22991
1.22961
1.22961
1.22936
1.23064
1.23056
1.23117
1.23098
1.23152
1.23141
1.23179
1.23159
1.23174
1.23147
1.2315
1.23119
1.23108
1.23069
1.23047
1.23007
1.22991
1.2296
1.22961
1.22937
1.2307
1.23065
1.23127
1.23109
1.23162
1.23152
1.23189
1.23168
1.23182
1.23154
1.23154
1.23121
1.23108
1.23068
1.23047
1.23009
1.22995
1.22969
1.22971
1.22953
1.23056
1.23054
1.23106
1.23091
1.23137
1.23128
1.23157
1.23136
1.23144
1.23115
1.23109
1.23075
1.23056
1.2302
1.22999
1.22971
1.2296
1.22947
1.22949
1.22948
1.23075
1.2307
1.23122
1.231
1.23147
1.23128
1.23155
1.23126
1.23133
1.23098
1.23093
1.23056
1.23045
1.23013
1.23007
1.22988
1.22991
1.22984
1.22994
1.22999
1.23039
1.23015
1.23035
1.23012
1.23037
1.23018
1.23028
1.23005
1.23004
1.2298
1.22976
1.22956
1.22953
1.2294
1.22942
1.22936
1.22943
1.22942
1.22949
1.22954
1.23023
1.22962
1.22978
1.22951
1.22973
1.2295
1.22964
1.22943
1.22952
1.22935
1.22941
1.22927
1.22933
1.22923
1.22929
1.22922
1.22928
1.22923
1.22929
1.22924
1.22826
1.22848
1.22819
1.22851
1.22828
1.22851
1.22827
1.22841
1.2282
1.22829
1.22812
1.22821
1.22809
1.22819
1.22811
1.22825
1.22813
1.2284
1.22794
1.22933
1.22861
1.22897
1.22887
1.22921
1.22919
1.2294
1.22928
1.2293
1.22911
1.22902
1.2288
1.22872
1.22854
1.22855
1.22843
1.22862
1.22843
1.22895
1.22828
1.22982
1.22829
1.22874
1.22851
1.22897
1.22889
1.22926
1.22911
1.22925
1.229
1.229
1.22868
1.22858
1.22824
1.22819
1.22791
1.22804
1.2278
1.22822
1.22782
1.2287
1.22849
1.22899
1.22884
1.2293
1.22929
1.22967
1.2296
1.22976
1.22958
1.22959
1.22934
1.22922
1.2289
1.22872
1.22843
1.22836
1.22817
1.22828
1.22818
1.22844
1.22834
1.22886
1.22864
1.22916
1.22911
1.22954
1.22945
1.22965
1.22946
1.22952
1.22928
1.22921
1.22889
1.22871
1.22838
1.22824
1.22804
1.22801
1.22798
1.228
1.22839
1.22897
1.22875
1.2293
1.22924
1.22969
1.22959
1.22981
1.22962
1.2297
1.22946
1.22942
1.22911
1.22893
1.22861
1.22843
1.22824
1.22814
1.22814
1.22809
1.22839
1.22897
1.22875
1.2293
1.22924
1.22969
1.22959
1.22981
1.22962
1.22969
1.22947
1.22941
1.22911
1.22893
1.22861
1.22843
1.22824
1.22814
1.22814
1.2281
1.22834
1.22886
1.22864
1.22916
1.22911
1.22954
1.22945
1.22965
1.22946
1.22952
1.22928
1.22921
1.22889
1.2287
1.22839
1.22823
1.22805
1.22799
1.22799
1.228
1.22849
1.22899
1.22884
1.2293
1.22929
1.22967
1.2296
1.22976
1.22959
1.22959
1.22935
1.22922
1.22891
1.22871
1.22846
1.22832
1.22822
1.22821
1.22826
1.22835
1.22829
1.22874
1.22851
1.22897
1.22889
1.22926
1.22911
1.22925
1.229
1.22899
1.22868
1.22857
1.22826
1.22815
1.22796
1.22796
1.22792
1.22803
1.22809
1.22831
1.22861
1.22897
1.22887
1.22921
1.22919
1.2294
1.22928
1.2293
1.22911
1.22902
1.22881
1.22871
1.22856
1.22852
1.22848
1.22853
1.22858
1.22868
1.22877
1.22892
1.22826
1.22848
1.22819
1.22851
1.22828
1.22851
1.22827
1.22841
1.2282
1.22829
1.22813
1.22821
1.2281
1.22818
1.22813
1.22821
1.2282
1.22827
1.22827
1.22836
1.22849
1.22865
1.2288
1.229
1.22906
1.22906
1.22892
1.22881
1.22869
1.22865
1.22859
1.22861
1.22857
1.22865
1.22857
1.22879
1.22847
1.22922
1.22769
1.23095
1.22849
1.22867
1.22885
1.2291
1.2293
1.22944
1.22944
1.22937
1.22919
1.22899
1.2287
1.22851
1.22824
1.22825
1.22803
1.22839
1.22804
1.22892
1.22803
1.22972
1.22849
1.22866
1.22883
1.22908
1.22929
1.22947
1.22951
1.2295
1.22939
1.22925
1.22899
1.22874
1.22838
1.22819
1.22789
1.22791
1.2277
1.22798
1.22784
1.22836
1.22849
1.22867
1.22885
1.2291
1.22933
1.22951
1.22957
1.22957
1.22949
1.22939
1.22919
1.22896
1.22864
1.22836
1.22808
1.22793
1.22779
1.22775
1.22779
1.22784
1.22848
1.22867
1.22884
1.22909
1.22932
1.2295
1.22956
1.22956
1.22949
1.2294
1.22922
1.229
1.2287
1.22841
1.22814
1.22794
1.22782
1.22771
1.22775
1.22769
1.22848
1.22867
1.22884
1.2291
1.22933
1.22952
1.22957
1.22958
1.22951
1.22942
1.22924
1.22903
1.22874
1.22845
1.22819
1.22798
1.22786
1.22775
1.22778
1.22772
1.22848
1.22867
1.22884
1.2291
1.22933
1.22952
1.22957
1.22958
1.22951
1.22942
1.22924
1.22903
1.22874
1.22845
1.22819
1.22798
1.22786
1.22775
1.22777
1.22772
1.22848
1.22867
1.22884
1.22909
1.22932
1.2295
1.22956
1.22956
1.22949
1.22939
1.22922
1.229
1.2287
1.22841
1.22814
1.22794
1.22781
1.22772
1.22774
1.22771
1.22849
1.22867
1.22885
1.2291
1.22933
1.22951
1.22957
1.22957
1.22949
1.22939
1.22919
1.22895
1.22864
1.22836
1.22809
1.22792
1.22779
1.22775
1.22779
1.22785
1.22849
1.22866
1.22883
1.22908
1.22929
1.22947
1.22952
1.2295
1.22939
1.22924
1.229
1.22872
1.22841
1.22815
1.22794
1.22784
1.22779
1.22787
1.22797
1.22822
1.22849
1.22867
1.22885
1.2291
1.22931
1.22944
1.22944
1.22937
1.22919
1.22898
1.22872
1.22848
1.22828
1.22817
1.22815
1.2282
1.22834
1.22848
1.22866
1.22884
1.22849
1.22865
1.2288
1.229
1.22906
1.22906
1.22892
1.22881
1.22869
1.22865
1.2286
1.2286
1.22859
1.22862
1.22863
1.22868
1.22871
1.22872
1.22876
1.22874
1.22849
1.22865
1.2288
1.229
1.22906
1.22906
1.22892
1.22881
1.22869
1.22865
1.22859
1.22861
1.22857
1.22865
1.22857
1.22879
1.22847
1.22922
1.22769
1.23095
1.22849
1.22867
1.22885
1.2291
1.2293
1.22944
1.22944
1.22937
1.22919
1.22899
1.2287
1.22851
1.22824
1.22825
1.22803
1.22839
1.22804
1.22892
1.22803
1.22972
1.22849
1.22866
1.22883
1.22908
1.22929
1.22947
1.22951
1.2295
1.22939
1.22925
1.22899
1.22874
1.22838
1.22819
1.22789
1.22791
1.2277
1.22798
1.22784
1.22836
1.22849
1.22867
1.22885
1.2291
1.22933
1.22951
1.22957
1.22957
1.22949
1.22939
1.22919
1.22896
1.22864
1.22836
1.22808
1.22793
1.22778
1.22775
1.22779
1.22784
1.22848
1.22867
1.22884
1.22909
1.22932
1.2295
1.22956
1.22956
1.22949
1.2294
1.22922
1.229
1.2287
1.22841
1.22814
1.22794
1.22782
1.22771
1.22775
1.22769
1.22848
1.22867
1.22884
1.2291
1.22933
1.22952
1.22957
1.22958
1.22951
1.22942
1.22924
1.22903
1.22874
1.22845
1.22819
1.22798
1.22786
1.22775
1.22778
1.22772
1.22848
1.22867
1.22884
1.2291
1.22933
1.22952
1.22957
1.22958
1.22951
1.22942
1.22924
1.22903
1.22874
1.22845
1.22819
1.22798
1.22786
1.22775
1.22777
1.22772
1.22848
1.22867
1.22884
1.22909
1.22932
1.2295
1.22956
1.22956
1.22949
1.22939
1.22922
1.229
1.2287
1.22841
1.22814
1.22794
1.22781
1.22772
1.22774
1.22771
1.22849
1.22867
1.22885
1.2291
1.22933
1.22951
1.22957
1.22957
1.22949
1.22939
1.22919
1.22895
1.22864
1.22836
1.22809
1.22792
1.22779
1.22775
1.22779
1.22785
1.22849
1.22866
1.22883
1.22908
1.22929
1.22947
1.22952
1.2295
1.22939
1.22924
1.229
1.22872
1.22841
1.22815
1.22794
1.22784
1.22779
1.22787
1.22797
1.22822
1.22849
1.22867
1.22885
1.2291
1.22931
1.22944
1.22944
1.22937
1.22919
1.22898
1.22872
1.22848
1.22828
1.22817
1.22815
1.2282
1.22834
1.22848
1.22866
1.22884
1.22849
1.22865
1.2288
1.229
1.22906
1.22906
1.22892
1.22881
1.22869
1.22865
1.2286
1.2286
1.22859
1.22862
1.22863
1.22868
1.22871
1.22872
1.22876
1.22874
1.22826
1.22848
1.22819
1.22851
1.22828
1.22851
1.22827
1.22841
1.2282
1.22829
1.22812
1.22821
1.22809
1.22819
1.22811
1.22825
1.22813
1.2284
1.22794
1.22933
1.22861
1.22897
1.22887
1.22921
1.22919
1.2294
1.22928
1.2293
1.22911
1.22902
1.2288
1.22872
1.22854
1.22855
1.22843
1.22862
1.22843
1.22895
1.22828
1.22982
1.22829
1.22874
1.22851
1.22897
1.22889
1.22926
1.22911
1.22925
1.229
1.229
1.22868
1.22858
1.22824
1.22819
1.22791
1.22804
1.2278
1.22822
1.22782
1.2287
1.22849
1.22899
1.22884
1.2293
1.22929
1.22967
1.2296
1.22976
1.22958
1.22959
1.22934
1.22922
1.2289
1.22872
1.22843
1.22836
1.22817
1.22828
1.22818
1.22844
1.22834
1.22886
1.22864
1.22916
1.22911
1.22954
1.22945
1.22965
1.22946
1.22952
1.22928
1.22921
1.22889
1.22871
1.22838
1.22824
1.22804
1.22801
1.22798
1.228
1.22839
1.22897
1.22875
1.2293
1.22924
1.22969
1.22959
1.22981
1.22962
1.2297
1.22946
1.22942
1.22911
1.22893
1.22861
1.22843
1.22824
1.22814
1.22814
1.22809
1.22839
1.22897
1.22875
1.2293
1.22924
1.22969
1.22959
1.22981
1.22962
1.22969
1.22947
1.22941
1.22911
1.22893
1.22861
1.22843
1.22824
1.22814
1.22814
1.2281
1.22834
1.22886
1.22864
1.22916
1.22911
1.22954
1.22945
1.22965
1.22946
1.22952
1.22928
1.22921
1.22889
1.2287
1.22839
1.22823
1.22805
1.22799
1.22799
1.228
1.22849
1.22899
1.22884
1.2293
1.22929
1.22967
1.2296
1.22976
1.22959
1.22959
1.22935
1.22922
1.22891
1.22871
1.22846
1.22832
1.22822
1.22821
1.22826
1.22835
1.22829
1.22874
1.22851
1.22897
1.22889
1.22926
1.22911
1.22925
1.229
1.22899
1.22868
1.22857
1.22826
1.22815
1.22796
1.22796
1.22792
1.22803
1.22809
1.22831
1.22861
1.22897
1.22887
1.22921
1.22919
1.2294
1.22928
1.2293
1.22911
1.22902
1.22881
1.22871
1.22856
1.22852
1.22848
1.22853
1.22858
1.22868
1.22877
1.22892
1.22826
1.22848
1.22819
1.22851
1.22828
1.22851
1.22827
1.22841
1.2282
1.22829
1.22813
1.22821
1.2281
1.22818
1.22813
1.22821
1.2282
1.22827
1.22827
1.22836
1.23023
1.22962
1.22978
1.22951
1.22973
1.2295
1.22964
1.22943
1.22952
1.22935
1.22941
1.22927
1.22933
1.22924
1.22928
1.22924
1.22926
1.22929
1.22917
1.22953
1.23039
1.23015
1.23035
1.23012
1.23037
1.23018
1.23028
1.23005
1.23003
1.22981
1.22975
1.22956
1.22952
1.22942
1.22939
1.22942
1.22933
1.2296
1.22913
1.23031
1.23075
1.2307
1.23122
1.231
1.23147
1.23128
1.23155
1.23126
1.23133
1.23098
1.23092
1.23057
1.23043
1.23016
1.23002
1.22995
1.22979
1.23002
1.22965
1.23041
1.23056
1.23054
1.23106
1.23091
1.23137
1.23128
1.23157
1.23136
1.23144
1.23115
1.23108
1.23076
1.23055
1.23022
1.22996
1.22976
1.22954
1.22955
1.22939
1.22959
1.2307
1.23065
1.23127
1.23109
1.23162
1.23152
1.23189
1.23169
1.23182
1.23154
1.23154
1.23122
1.23108
1.23069
1.23046
1.23011
1.22993
1.22971
1.22969
1.22954
1.23064
1.23056
1.23117
1.23098
1.23152
1.23141
1.23179
1.23159
1.23174
1.23147
1.23149
1.23119
1.23108
1.23069
1.23047
1.23007
1.22991
1.22961
1.22961
1.22936
1.23064
1.23056
1.23117
1.23098
1.23152
1.23141
1.23179
1.23159
1.23174
1.23147
1.2315
1.23119
1.23108
1.23069
1.23047
1.23007
1.22991
1.2296
1.22961
1.22937
1.2307
1.23065
1.23127
1.23109
1.23162
1.23152
1.23189
1.23168
1.23182
1.23154
1.23154
1.23121
1.23108
1.23068
1.23047
1.23009
1.22995
1.22969
1.22971
1.22953
1.23056
1.23054
1.23106
1.23091
1.23137
1.23128
1.23157
1.23136
1.23144
1.23115
1.23109
1.23075
1.23056
1.2302
1.22999
1.22971
1.2296
1.22947
1.22949
1.22948
1.23075
1.2307
1.23122
1.231
1.23147
1.23128
1.23155
1.23126
1.23133
1.23098
1.23093
1.23056
1.23045
1.23013
1.23007
1.22988
1.22991
1.22984
1.22994
1.22999
1.23039
1.23015
1.23035
1.23012
1.23037
1.23018
1.23028
1.23005
1.23004
1.2298
1.22976
1.22956
1.22953
1.2294
1.22942
1.22936
1.22943
1.22942
1.22949
1.22954
1.23023
1.22962
1.22978
1.22951
1.22973
1.2295
1.22964
1.22943
1.22952
1.22935
1.22941
1.22927
1.22933
1.22923
1.22929
1.22922
1.22928
1.22923
1.22929
1.22924
1.2216
1.21479
1.21025
1.20651
1.20378
1.20134
1.1993
1.19719
1.19535
1.19357
1.19215
1.19085
1.18982
1.18883
1.18801
1.18724
1.18665
1.18614
1.1858
1.18551
1.18536
1.18521
1.18515
1.18507
1.18505
1.18499
1.18498
1.18493
1.18493
1.18488
1.18488
1.18484
1.18484
1.1848
1.1848
1.18477
1.18476
1.18474
1.18474
1.18471
1.18471
1.18469
1.18469
1.18467
1.18467
1.18466
1.18466
1.18465
1.18465
1.18464
1.18464
1.18463
1.18464
1.18463
1.18463
1.18462
1.18463
1.18463
1.18463
1.18463
1.18463
1.18463
1.18464
1.18464
1.18464
1.18464
1.18465
1.18465
1.18466
1.18466
1.18467
1.18467
1.18468
1.18468
1.18469
1.18469
1.1847
1.1847
1.18471
1.18472
1.18473
1.18473
1.18474
1.18475
1.18476
1.18477
1.18479
1.18479
1.18481
1.18483
1.22471
1.21852
1.21413
1.21041
1.20764
1.20521
1.20321
1.20115
1.19931
1.19751
1.19604
1.19471
1.19366
1.19266
1.19183
1.19103
1.19041
1.18985
1.18949
1.18917
1.18899
1.18883
1.18876
1.18867
1.18864
1.18858
1.18857
1.18852
1.18852
1.18847
1.18847
1.18843
1.18843
1.18839
1.18839
1.18836
1.18836
1.18833
1.18833
1.1883
1.18831
1.18828
1.18828
1.18827
1.18827
1.18825
1.18825
1.18824
1.18824
1.18823
1.18824
1.18823
1.18823
1.18822
1.18823
1.18822
1.18823
1.18822
1.18823
1.18822
1.18823
1.18823
1.18823
1.18823
1.18824
1.18824
1.18825
1.18825
1.18825
1.18825
1.18826
1.18826
1.18827
1.18828
1.18828
1.18829
1.1883
1.1883
1.18831
1.18832
1.18832
1.18833
1.18834
1.18835
1.18836
1.18836
1.18838
1.18838
1.18841
1.18843
1.2284
1.22407
1.22037
1.21682
1.21407
1.21168
1.20982
1.20791
1.20615
1.20432
1.20278
1.20138
1.2003
1.19928
1.19843
1.19759
1.19691
1.19627
1.19582
1.19543
1.1952
1.195
1.1949
1.19479
1.19476
1.19469
1.19468
1.19463
1.19462
1.19458
1.19457
1.19453
1.19453
1.19449
1.19449
1.19446
1.19446
1.19443
1.19443
1.1944
1.1944
1.19438
1.19438
1.19436
1.19437
1.19435
1.19435
1.19434
1.19434
1.19433
1.19433
1.19432
1.19433
1.19432
1.19433
1.19432
1.19432
1.19432
1.19433
1.19432
1.19433
1.19432
1.19433
1.19433
1.19434
1.19434
1.19435
1.19435
1.19435
1.19435
1.19436
1.19436
1.19437
1.19438
1.19438
1.19439
1.1944
1.1944
1.19441
1.19442
1.19442
1.19443
1.19444
1.19445
1.19446
1.19446
1.19449
1.19449
1.19452
1.19454
1.22939
1.22729
1.22475
1.22172
1.21914
1.21692
1.2153
1.21368
1.2121
1.21033
1.20876
1.20732
1.20623
1.20523
1.2044
1.20354
1.20281
1.20209
1.20156
1.20108
1.20079
1.20053
1.2004
1.20027
1.20022
1.20015
1.20013
1.20008
1.20007
1.20003
1.20003
1.19999
1.19998
1.19995
1.19995
1.19992
1.19991
1.19989
1.19989
1.19986
1.19986
1.19984
1.19984
1.19982
1.19982
1.19981
1.19981
1.1998
1.1998
1.19979
1.19979
1.19978
1.19979
1.19978
1.19978
1.19977
1.19978
1.19977
1.19978
1.19978
1.19978
1.19978
1.19979
1.19979
1.19979
1.19979
1.1998
1.1998
1.19981
1.19981
1.19982
1.19982
1.19983
1.19983
1.19984
1.19984
1.19985
1.19986
1.19986
1.19987
1.19988
1.19989
1.19989
1.1999
1.19991
1.19992
1.19993
1.19994
1.19996
1.19999
1.22997
1.22935
1.22801
1.22561
1.22337
1.22137
1.22006
1.21876
1.21746
1.21584
1.21431
1.21288
1.21181
1.21086
1.21008
1.20924
1.2085
1.20773
1.20713
1.2066
1.20624
1.20594
1.20578
1.20563
1.20557
1.20549
1.20547
1.20541
1.2054
1.20536
1.20535
1.20532
1.20531
1.20528
1.20527
1.20524
1.20524
1.20521
1.20521
1.20519
1.20519
1.20516
1.20516
1.20515
1.20515
1.20513
1.20513
1.20512
1.20512
1.20511
1.20511
1.2051
1.20511
1.2051
1.2051
1.20509
1.2051
1.20509
1.2051
1.2051
1.2051
1.2051
1.20511
1.2051
1.20511
1.20511
1.20512
1.20512
1.20513
1.20513
1.20513
1.20514
1.20514
1.20515
1.20516
1.20516
1.20517
1.20517
1.20518
1.20519
1.20519
1.2052
1.20521
1.20522
1.20523
1.20523
1.20525
1.20525
1.20528
1.2053
1.2298
1.22995
1.22946
1.22768
1.22584
1.22417
1.22317
1.22224
1.22123
1.21982
1.21842
1.21708
1.2161
1.21525
1.21456
1.21378
1.21306
1.2123
1.21168
1.21112
1.21074
1.21042
1.21025
1.21009
1.21002
1.20993
1.20991
1.20986
1.20985
1.2098
1.2098
1.20976
1.20975
1.20972
1.20972
1.20968
1.20968
1.20965
1.20965
1.20963
1.20963
1.20961
1.20961
1.20959
1.20959
1.20957
1.20957
1.20956
1.20956
1.20955
1.20955
1.20954
1.20955
1.20954
1.20954
1.20953
1.20954
1.20953
1.20954
1.20953
1.20954
1.20954
1.20954
1.20954
1.20955
1.20955
1.20955
1.20955
1.20956
1.20956
1.20957
1.20957
1.20958
1.20958
1.20959
1.20959
1.2096
1.2096
1.20961
1.20961
1.20962
1.20963
1.20964
1.20964
1.20965
1.20966
1.20967
1.20968
1.20969
1.2097
1.22978
1.23021
1.23017
1.22884
1.2274
1.22608
1.22541
1.22478
1.22402
1.22284
1.22162
1.22045
1.21961
1.21888
1.21829
1.2176
1.21695
1.21623
1.21564
1.2151
1.21473
1.21441
1.21424
1.21408
1.21401
1.21393
1.21391
1.21385
1.21384
1.2138
1.21379
1.21375
1.21375
1.21371
1.21371
1.21367
1.21367
1.21364
1.21364
1.21362
1.21362
1.21359
1.21359
1.21357
1.21357
1.21356
1.21356
1.21354
1.21355
1.21353
1.21354
1.21352
1.21353
1.21352
1.21352
1.21351
1.21352
1.21351
1.21352
1.21351
1.21352
1.21351
1.21352
1.21352
1.21352
1.21352
1.21353
1.21353
1.21353
1.21353
1.21354
1.21354
1.21355
1.21355
1.21356
1.21356
1.21357
1.21357
1.21358
1.21358
1.21359
1.2136
1.2136
1.21361
1.21362
1.21362
1.21363
1.21364
1.21365
1.21366
1.22997
1.23042
1.2305
1.22946
1.22839
1.22743
1.22705
1.22661
1.22606
1.22507
1.22407
1.22311
1.22245
1.22186
1.22138
1.22079
1.22022
1.21959
1.21907
1.21859
1.21826
1.21798
1.21783
1.21768
1.21762
1.21754
1.21752
1.21746
1.21745
1.21741
1.2174
1.21736
1.21735
1.21732
1.21731
1.21728
1.21728
1.21725
1.21724
1.21722
1.21722
1.21719
1.21719
1.21717
1.21717
1.21715
1.21715
1.21714
1.21714
1.21712
1.21713
1.21711
1.21712
1.21711
1.21711
1.2171
1.21711
1.2171
1.2171
1.2171
1.2171
1.2171
1.2171
1.2171
1.2171
1.2171
1.21711
1.21711
1.21711
1.21711
1.21712
1.21712
1.21713
1.21713
1.21713
1.21713
1.21714
1.21714
1.21715
1.21715
1.21716
1.21717
1.21718
1.21718
1.21719
1.21719
1.21721
1.21721
1.21722
1.21723
1.22979
1.23011
1.23014
1.22933
1.2286
1.22799
1.22783
1.22753
1.22711
1.22633
1.22559
1.22487
1.22441
1.22397
1.22361
1.22313
1.22268
1.22216
1.22176
1.22137
1.22112
1.22089
1.22077
1.22065
1.2206
1.22053
1.22051
1.22046
1.22045
1.2204
1.2204
1.22035
1.22035
1.22031
1.22031
1.22027
1.22027
1.22024
1.22024
1.22021
1.22021
1.22018
1.22018
1.22016
1.22016
1.22014
1.22014
1.22013
1.22013
1.22011
1.22011
1.2201
1.2201
1.22009
1.2201
1.22009
1.22009
1.22008
1.22009
1.22008
1.22008
1.22008
1.22008
1.22008
1.22008
1.22008
1.22008
1.22008
1.22009
1.22009
1.22009
1.22009
1.2201
1.2201
1.2201
1.22011
1.22011
1.22011
1.22012
1.22012
1.22013
1.22013
1.22014
1.22014
1.22015
1.22016
1.22017
1.22017
1.22018
1.22018
1.23019
1.23023
1.23019
1.22955
1.22914
1.22876
1.22873
1.22849
1.22819
1.22761
1.22714
1.22666
1.22638
1.22606
1.22582
1.22546
1.22515
1.22477
1.2245
1.22422
1.22406
1.22389
1.22381
1.22371
1.22368
1.22361
1.2236
1.22355
1.22354
1.22349
1.22348
1.22344
1.22344
1.2234
1.22339
1.22336
1.22335
1.22332
1.22332
1.22329
1.22329
1.22326
1.22326
1.22324
1.22324
1.22322
1.22322
1.2232
1.22321
1.22319
1.22319
1.22318
1.22318
1.22317
1.22317
1.22316
1.22317
1.22316
1.22316
1.22316
1.22316
1.22315
1.22316
1.22315
1.22316
1.22316
1.22316
1.22316
1.22317
1.22316
1.22317
1.22317
1.22318
1.22318
1.22318
1.22318
1.22319
1.22319
1.2232
1.2232
1.22321
1.22321
1.22322
1.22322
1.22324
1.22324
1.22325
1.22326
1.22327
1.22327
1.2294
1.22929
1.22924
1.22885
1.22867
1.22847
1.22847
1.22829
1.22813
1.22778
1.22755
1.22728
1.22715
1.22695
1.22682
1.2266
1.22643
1.2262
1.22606
1.22589
1.22581
1.2257
1.22566
1.22558
1.22556
1.2255
1.22549
1.22544
1.22543
1.22539
1.22538
1.22534
1.22534
1.2253
1.22529
1.22526
1.22526
1.22523
1.22523
1.2252
1.2252
1.22517
1.22517
1.22515
1.22515
1.22513
1.22514
1.22512
1.22512
1.22511
1.22511
1.2251
1.2251
1.22509
1.2251
1.22509
1.2251
1.22509
1.2251
1.22509
1.2251
1.22509
1.2251
1.2251
1.2251
1.2251
1.22511
1.22511
1.22512
1.22512
1.22513
1.22513
1.22514
1.22514
1.22515
1.22515
1.22516
1.22517
1.22518
1.22518
1.22519
1.22519
1.22521
1.22521
1.22522
1.22523
1.22524
1.22525
1.22526
1.22527
1.22941
1.22925
1.22925
1.22902
1.22899
1.22884
1.22885
1.22872
1.22867
1.22849
1.22843
1.22828
1.22824
1.22813
1.22808
1.22796
1.22791
1.22779
1.22774
1.22765
1.22762
1.22754
1.22753
1.22746
1.22745
1.2274
1.22739
1.22734
1.22734
1.22729
1.22729
1.22725
1.22724
1.22721
1.2272
1.22717
1.22717
1.22714
1.22714
1.22712
1.22712
1.2271
1.2271
1.22708
1.22709
1.22707
1.22707
1.22706
1.22707
1.22706
1.22706
1.22705
1.22706
1.22705
1.22706
1.22706
1.22707
1.22706
1.22707
1.22707
1.22708
1.22708
1.22709
1.22709
1.2271
1.2271
1.22712
1.22712
1.22713
1.22714
1.22715
1.22715
1.22717
1.22717
1.22718
1.22719
1.22721
1.22721
1.22723
1.22723
1.22725
1.22726
1.22727
1.22728
1.2273
1.22731
1.22732
1.22733
1.22735
1.22736
1.21811
1.21066
1.20586
1.20223
1.19943
1.19707
1.19497
1.19292
1.19105
1.18934
1.18792
1.18667
1.18564
1.18467
1.18386
1.18312
1.18255
1.18206
1.18175
1.18148
1.18134
1.18121
1.18115
1.18108
1.18106
1.18101
1.181
1.18096
1.18096
1.18092
1.18092
1.18088
1.18088
1.18085
1.18084
1.18082
1.18081
1.18079
1.18079
1.18077
1.18077
1.18075
1.18075
1.18073
1.18073
1.18072
1.18072
1.18071
1.18071
1.1807
1.1807
1.18069
1.1807
1.18069
1.1807
1.18069
1.1807
1.18069
1.1807
1.18069
1.1807
1.1807
1.1807
1.1807
1.18071
1.18071
1.18072
1.18072
1.18072
1.18073
1.18073
1.18074
1.18074
1.18075
1.18075
1.18076
1.18077
1.18077
1.18078
1.18078
1.18079
1.1808
1.1808
1.18081
1.18081
1.18082
1.18082
1.18083
1.18081
1.18082
1.22431
1.21812
1.21356
1.2099
1.20704
1.20466
1.20262
1.20061
1.19874
1.19696
1.19547
1.19415
1.19309
1.19209
1.19126
1.19046
1.18984
1.18929
1.18892
1.18861
1.18843
1.18827
1.1882
1.18812
1.18809
1.18804
1.18803
1.18798
1.18798
1.18794
1.18794
1.1879
1.1879
1.18787
1.18786
1.18783
1.18783
1.18781
1.18781
1.18778
1.18779
1.18776
1.18777
1.18775
1.18775
1.18773
1.18774
1.18772
1.18773
1.18771
1.18772
1.18771
1.18771
1.18771
1.18771
1.1877
1.18771
1.1877
1.18771
1.18771
1.18771
1.18771
1.18772
1.18771
1.18772
1.18772
1.18773
1.18773
1.18774
1.18774
1.18775
1.18775
1.18776
1.18776
1.18777
1.18777
1.18778
1.18778
1.18779
1.1878
1.1878
1.18781
1.18781
1.18782
1.18782
1.18783
1.18784
1.18784
1.18783
1.18784
1.22695
1.22314
1.21941
1.21602
1.21321
1.21092
1.20904
1.20721
1.20543
1.20363
1.20206
1.20067
1.19957
1.19856
1.19771
1.19687
1.19618
1.19554
1.19508
1.19469
1.19445
1.19425
1.19415
1.19404
1.19401
1.19395
1.19394
1.19389
1.19389
1.19385
1.19385
1.19381
1.19381
1.19377
1.19377
1.19374
1.19374
1.19372
1.19372
1.19369
1.1937
1.19367
1.19368
1.19366
1.19366
1.19365
1.19365
1.19363
1.19364
1.19363
1.19363
1.19362
1.19363
1.19362
1.19362
1.19362
1.19362
1.19362
1.19362
1.19362
1.19363
1.19362
1.19363
1.19363
1.19364
1.19363
1.19364
1.19364
1.19365
1.19365
1.19366
1.19366
1.19367
1.19367
1.19368
1.19368
1.19369
1.1937
1.1937
1.19371
1.19371
1.19372
1.19372
1.19373
1.19374
1.19374
1.19375
1.19375
1.19374
1.19375
1.22855
1.227
1.22459
1.22176
1.21918
1.21705
1.21544
1.21389
1.21233
1.21059
1.20899
1.20754
1.20642
1.20542
1.20458
1.20373
1.20298
1.20226
1.2017
1.20122
1.20091
1.20065
1.20051
1.20038
1.20033
1.20026
1.20024
1.2002
1.20019
1.20015
1.20015
1.20011
1.20011
1.20008
1.20007
1.20004
1.20004
1.20002
1.20002
1.19999
1.2
1.19997
1.19998
1.19996
1.19996
1.19994
1.19995
1.19993
1.19994
1.19993
1.19993
1.19992
1.19992
1.19992
1.19992
1.19991
1.19992
1.19991
1.19992
1.19992
1.19992
1.19992
1.19993
1.19993
1.19993
1.19993
1.19994
1.19994
1.19995
1.19995
1.19996
1.19996
1.19997
1.19997
1.19998
1.19998
1.19999
1.19999
1.2
1.20001
1.20001
1.20002
1.20003
1.20003
1.20004
1.20004
1.20005
1.20006
1.20005
1.20006
1.22845
1.22843
1.22723
1.22517
1.22297
1.22114
1.21985
1.21868
1.21741
1.21586
1.21431
1.21288
1.21178
1.21084
1.21006
1.20924
1.20848
1.20771
1.20709
1.20654
1.20616
1.20586
1.20568
1.20553
1.20547
1.20539
1.20537
1.20532
1.20531
1.20527
1.20527
1.20524
1.20523
1.2052
1.2052
1.20517
1.20517
1.20514
1.20514
1.20512
1.20512
1.2051
1.2051
1.20508
1.20509
1.20507
1.20507
1.20506
1.20506
1.20505
1.20506
1.20505
1.20505
1.20504
1.20505
1.20504
1.20505
1.20504
1.20505
1.20504
1.20505
1.20505
1.20505
1.20505
1.20506
1.20506
1.20507
1.20507
1.20507
1.20508
1.20508
1.20508
1.20509
1.2051
1.2051
1.20511
1.20511
1.20512
1.20513
1.20513
1.20514
1.20514
1.20515
1.20515
1.20516
1.20517
1.20517
1.20518
1.20517
1.20517
1.22856
1.22927
1.2289
1.2275
1.22572
1.22422
1.22329
1.22247
1.22153
1.22019
1.21878
1.21744
1.21643
1.21558
1.21489
1.21413
1.2134
1.21263
1.21199
1.2114
1.211
1.21066
1.21047
1.2103
1.21023
1.21015
1.21012
1.21007
1.21006
1.21002
1.21002
1.20998
1.20998
1.20995
1.20994
1.20991
1.20991
1.20989
1.20989
1.20986
1.20986
1.20984
1.20984
1.20982
1.20983
1.20981
1.20981
1.2098
1.2098
1.20979
1.20979
1.20978
1.20979
1.20978
1.20978
1.20978
1.20978
1.20978
1.20978
1.20978
1.20978
1.20978
1.20979
1.20979
1.20979
1.20979
1.2098
1.2098
1.20981
1.20981
1.20981
1.20982
1.20982
1.20983
1.20983
1.20984
1.20984
1.20985
1.20986
1.20986
1.20987
1.20987
1.20988
1.20988
1.20989
1.2099
1.2099
1.20991
1.20991
1.20991
1.22853
1.22948
1.22951
1.22853
1.22714
1.22601
1.22542
1.22492
1.22424
1.22314
1.22192
1.22075
1.21989
1.21917
1.21859
1.21792
1.21726
1.21654
1.21593
1.21536
1.21497
1.21464
1.21445
1.21429
1.21421
1.21413
1.2141
1.21405
1.21404
1.214
1.214
1.21396
1.21396
1.21392
1.21392
1.21389
1.21389
1.21386
1.21386
1.21384
1.21384
1.21382
1.21382
1.2138
1.2138
1.21378
1.21379
1.21377
1.21377
1.21376
1.21377
1.21375
1.21376
1.21375
1.21375
1.21375
1.21375
1.21374
1.21375
1.21375
1.21375
1.21375
1.21375
1.21375
1.21376
1.21376
1.21376
1.21376
1.21377
1.21377
1.21378
1.21378
1.21379
1.21379
1.2138
1.2138
1.21381
1.21381
1.21382
1.21382
1.21383
1.21383
1.21384
1.21384
1.21385
1.21385
1.21386
1.21387
1.21386
1.21387
1.22843
1.22934
1.22945
1.2287
1.22766
1.22689
1.22659
1.22631
1.22583
1.22493
1.22395
1.22301
1.22234
1.22178
1.22132
1.22076
1.22019
1.21955
1.21902
1.21852
1.21818
1.21789
1.21773
1.21758
1.21752
1.21744
1.21742
1.21737
1.21736
1.21732
1.21731
1.21727
1.21727
1.21724
1.21724
1.21721
1.2172
1.21718
1.21718
1.21715
1.21715
1.21713
1.21713
1.21711
1.21711
1.21709
1.2171
1.21708
1.21708
1.21707
1.21707
1.21706
1.21706
1.21705
1.21706
1.21705
1.21706
1.21705
1.21705
1.21705
1.21705
1.21705
1.21706
1.21705
1.21706
1.21706
1.21706
1.21706
1.21707
1.21707
1.21707
1.21707
1.21708
1.21708
1.21709
1.21709
1.2171
1.2171
1.21711
1.21711
1.21712
1.21712
1.21712
1.21713
1.21713
1.21714
1.21714
1.21715
1.21714
1.21714
1.22885
1.22949
1.22953
1.22889
1.22818
1.22771
1.2276
1.22743
1.22705
1.22633
1.22559
1.2249
1.22443
1.22402
1.22367
1.2232
1.22274
1.22222
1.2218
1.2214
1.22113
1.2209
1.22077
1.22065
1.2206
1.22053
1.22051
1.22046
1.22046
1.22041
1.22041
1.22037
1.22037
1.22033
1.22033
1.2203
1.2203
1.22027
1.22026
1.22024
1.22024
1.22021
1.22022
1.22019
1.2202
1.22018
1.22018
1.22016
1.22016
1.22015
1.22015
1.22014
1.22014
1.22013
1.22014
1.22013
1.22013
1.22012
1.22013
1.22012
1.22013
1.22012
1.22013
1.22012
1.22013
1.22012
1.22013
1.22013
1.22013
1.22013
1.22014
1.22014
1.22015
1.22015
1.22015
1.22015
1.22016
1.22016
1.22017
1.22017
1.22017
1.22018
1.22018
1.22019
1.22019
1.22019
1.22019
1.2202
1.2202
1.22019
1.22846
1.22884
1.22876
1.2283
1.22787
1.22766
1.22766
1.22753
1.22724
1.22671
1.22622
1.22576
1.22548
1.22519
1.22495
1.22459
1.22426
1.22388
1.22358
1.2233
1.22312
1.22295
1.22287
1.22278
1.22274
1.22268
1.22267
1.22262
1.22261
1.22257
1.22257
1.22253
1.22252
1.22249
1.22248
1.22245
1.22245
1.22242
1.22242
1.22239
1.22239
1.22237
1.22237
1.22235
1.22235
1.22233
1.22233
1.22231
1.22231
1.2223
1.2223
1.22229
1.22229
1.22228
1.22228
1.22227
1.22228
1.22227
1.22227
1.22227
1.22227
1.22227
1.22227
1.22227
1.22227
1.22227
1.22227
1.22227
1.22228
1.22228
1.22228
1.22228
1.22229
1.22229
1.22229
1.22229
1.2223
1.2223
1.22231
1.22231
1.22231
1.22232
1.22232
1.22232
1.22233
1.22233
1.22233
1.22233
1.22233
1.22233
1.22892
1.22902
1.22892
1.2286
1.22841
1.2283
1.22832
1.22819
1.228
1.22766
1.22739
1.22712
1.22698
1.22678
1.22663
1.22639
1.2262
1.22595
1.22578
1.2256
1.2255
1.22539
1.22534
1.22526
1.22524
1.22519
1.22518
1.22513
1.22512
1.22508
1.22508
1.22504
1.22503
1.225
1.22499
1.22496
1.22496
1.22493
1.22492
1.2249
1.2249
1.22487
1.22487
1.22485
1.22485
1.22483
1.22484
1.22482
1.22482
1.22481
1.22481
1.2248
1.2248
1.22479
1.22479
1.22478
1.22479
1.22478
1.22479
1.22478
1.22479
1.22478
1.22479
1.22478
1.22479
1.22479
1.22479
1.22479
1.2248
1.2248
1.22481
1.22481
1.22481
1.22482
1.22482
1.22482
1.22483
1.22483
1.22484
1.22484
1.22485
1.22486
1.22486
1.22487
1.22487
1.22488
1.22488
1.22489
1.22489
1.22489
1.22798
1.22797
1.22792
1.22779
1.22774
1.22768
1.22768
1.22759
1.22752
1.22737
1.22728
1.22716
1.22711
1.22701
1.22695
1.22683
1.22676
1.22664
1.22659
1.22649
1.22646
1.22638
1.22637
1.22631
1.2263
1.22625
1.22624
1.22619
1.22619
1.22614
1.22614
1.2261
1.2261
1.22606
1.22606
1.22603
1.22603
1.226
1.226
1.22598
1.22598
1.22595
1.22596
1.22594
1.22594
1.22592
1.22593
1.22591
1.22592
1.22591
1.22591
1.2259
1.22591
1.2259
1.22591
1.2259
1.22591
1.22591
1.22592
1.22591
1.22592
1.22592
1.22593
1.22593
1.22594
1.22594
1.22595
1.22596
1.22597
1.22597
1.22598
1.22598
1.226
1.226
1.22601
1.22602
1.22603
1.22604
1.22605
1.22606
1.22607
1.22607
1.22608
1.22609
1.2261
1.22611
1.22612
1.22613
1.22613
1.22614
1.21583
1.20602
1.20052
1.19667
1.19374
1.19124
1.18901
1.18689
1.185
1.18331
1.18192
1.18069
1.17965
1.1787
1.17791
1.1772
1.17669
1.17625
1.17598
1.17576
1.17564
1.17553
1.17549
1.17543
1.17541
1.17537
1.17536
1.17533
1.17532
1.17529
1.17529
1.17526
1.17526
1.17523
1.17523
1.1752
1.1752
1.17518
1.17518
1.17516
1.17516
1.17514
1.17515
1.17513
1.17514
1.17512
1.17513
1.17511
1.17512
1.17511
1.17512
1.17511
1.17511
1.17511
1.17511
1.17511
1.17511
1.17511
1.17512
1.17512
1.17512
1.17512
1.17513
1.17513
1.17514
1.17514
1.17515
1.17515
1.17516
1.17516
1.17517
1.17517
1.17518
1.17518
1.17519
1.17519
1.1752
1.17521
1.17521
1.17522
1.17523
1.17524
1.17524
1.17525
1.17525
1.17526
1.17526
1.17527
1.17526
1.17526
1.22534
1.21826
1.21298
1.20897
1.2059
1.20338
1.20119
1.19908
1.19713
1.19531
1.19379
1.19244
1.19134
1.19032
1.18947
1.18868
1.18806
1.18752
1.18716
1.18686
1.1867
1.18654
1.18648