/*--------------------------------*- C++ -*----------------------------------*\
  =========                 |
  \\      /  F ield         | OpenFOAM: The Open Source CFD Toolbox
   \\    /   O peration     | Website:  https://openfoam.org
    \\  /    A nd           | Version:  7
     \\/     M anipulation  |
\*---------------------------------------------------------------------------*/
FoamFile
{
    version     2.0;
    format      ascii;
    class       volScalarField;
    location    "0.0575";
    object      pPrime2Mean;
}
// * * * * * * * * * * * * * * * * * * * * * * * * * * * * * * * * * * * * * //

dimensions      [2 -2 -4 0 0 0 0];

internalField   nonuniform List<scalar> 
1440
(
6.25416e+06
6.2168e+06
6.18518e+06
6.16031e+06
6.13925e+06
6.11879e+06
6.09756e+06
6.07572e+06
6.05378e+06
6.03203e+06
6.01043e+06
5.98883e+06
5.96711e+06
5.94514e+06
5.92282e+06
5.90004e+06
5.87672e+06
5.85278e+06
5.82816e+06
5.80283e+06
5.77677e+06
5.74998e+06
5.72246e+06
5.69423e+06
5.66532e+06
5.63576e+06
5.60558e+06
5.57483e+06
5.54353e+06
5.51172e+06
5.47944e+06
5.44672e+06
5.41357e+06
5.38003e+06
5.34611e+06
5.31183e+06
5.2772e+06
5.24222e+06
5.20691e+06
5.17128e+06
5.13532e+06
5.09905e+06
5.06247e+06
5.02559e+06
4.98841e+06
4.95093e+06
4.91317e+06
4.87513e+06
4.83681e+06
4.79822e+06
4.75937e+06
4.72025e+06
4.68088e+06
4.64125e+06
4.60138e+06
4.56127e+06
4.52091e+06
4.48033e+06
4.43951e+06
4.39848e+06
4.35723e+06
4.31577e+06
4.2741e+06
4.23224e+06
4.19018e+06
4.14795e+06
4.10553e+06
4.06294e+06
4.02018e+06
3.97726e+06
3.93419e+06
3.89096e+06
3.84759e+06
3.80407e+06
3.76042e+06
3.71663e+06
3.67272e+06
3.62868e+06
3.58452e+06
3.54024e+06
3.49586e+06
3.45136e+06
3.40676e+06
3.36206e+06
3.31726e+06
3.27237e+06
3.22739e+06
3.18233e+06
3.13719e+06
3.09198e+06
3.0467e+06
3.00135e+06
2.95594e+06
2.91048e+06
2.86496e+06
2.81938e+06
2.77376e+06
2.72808e+06
2.68234e+06
2.63654e+06
2.59067e+06
2.54473e+06
2.49871e+06
2.4526e+06
2.40641e+06
2.36014e+06
2.31379e+06
2.26738e+06
2.22094e+06
2.17449e+06
2.12808e+06
2.08176e+06
2.03559e+06
1.98964e+06
1.94397e+06
1.89867e+06
1.85382e+06
1.8095e+06
1.76578e+06
1.72292e+06
6.25416e+06
6.21721e+06
6.18598e+06
6.16135e+06
6.14047e+06
6.12016e+06
6.09908e+06
6.0773e+06
6.05533e+06
6.03348e+06
6.01178e+06
5.99009e+06
5.96828e+06
5.94618e+06
5.92371e+06
5.90077e+06
5.8773e+06
5.85324e+06
5.82853e+06
5.80313e+06
5.77701e+06
5.75017e+06
5.72261e+06
5.69435e+06
5.66543e+06
5.63585e+06
5.60567e+06
5.57491e+06
5.54361e+06
5.51181e+06
5.47954e+06
5.44682e+06
5.41369e+06
5.38016e+06
5.34625e+06
5.31198e+06
5.27736e+06
5.2424e+06
5.2071e+06
5.17147e+06
5.13553e+06
5.09926e+06
5.06269e+06
5.02581e+06
4.98864e+06
4.95117e+06
4.91341e+06
4.87538e+06
4.83706e+06
4.79848e+06
4.75963e+06
4.72052e+06
4.68115e+06
4.64153e+06
4.60166e+06
4.56155e+06
4.5212e+06
4.48062e+06
4.43981e+06
4.39878e+06
4.35753e+06
4.31608e+06
4.27441e+06
4.23255e+06
4.1905e+06
4.14827e+06
4.10585e+06
4.06326e+06
4.02051e+06
3.97759e+06
3.93452e+06
3.89129e+06
3.84792e+06
3.80441e+06
3.76076e+06
3.71698e+06
3.67306e+06
3.62903e+06
3.58487e+06
3.5406e+06
3.49621e+06
3.45171e+06
3.40711e+06
3.36241e+06
3.31762e+06
3.27273e+06
3.22775e+06
3.1827e+06
3.13756e+06
3.09235e+06
3.04707e+06
3.00172e+06
2.95631e+06
2.91085e+06
2.86533e+06
2.81975e+06
2.77413e+06
2.72845e+06
2.68271e+06
2.63691e+06
2.59104e+06
2.5451e+06
2.49908e+06
2.45298e+06
2.40679e+06
2.36051e+06
2.31416e+06
2.26775e+06
2.22131e+06
2.17486e+06
2.12844e+06
2.08212e+06
2.03594e+06
1.98998e+06
1.94431e+06
1.899e+06
1.85413e+06
1.8098e+06
1.766e+06
1.72307e+06
6.25438e+06
6.21759e+06
6.18655e+06
6.16208e+06
6.14132e+06
6.12113e+06
6.10015e+06
6.07843e+06
6.05643e+06
6.03446e+06
6.01255e+06
5.9906e+06
5.96847e+06
5.94603e+06
5.92319e+06
5.89991e+06
5.87614e+06
5.85185e+06
5.82697e+06
5.80146e+06
5.77529e+06
5.74846e+06
5.72095e+06
5.69278e+06
5.66396e+06
5.63452e+06
5.60448e+06
5.57386e+06
5.54271e+06
5.51104e+06
5.47889e+06
5.44628e+06
5.41324e+06
5.37978e+06
5.34594e+06
5.31172e+06
5.27713e+06
5.24219e+06
5.20692e+06
5.1713e+06
5.13537e+06
5.09911e+06
5.06255e+06
5.02568e+06
4.98851e+06
4.95105e+06
4.9133e+06
4.87527e+06
4.83696e+06
4.79838e+06
4.75953e+06
4.72042e+06
4.68106e+06
4.64144e+06
4.60157e+06
4.56146e+06
4.52111e+06
4.48053e+06
4.43972e+06
4.39868e+06
4.35743e+06
4.31597e+06
4.27431e+06
4.23245e+06
4.1904e+06
4.14816e+06
4.10574e+06
4.06315e+06
4.0204e+06
3.97748e+06
3.9344e+06
3.89118e+06
3.84781e+06
3.80429e+06
3.76064e+06
3.71686e+06
3.67294e+06
3.62891e+06
3.58475e+06
3.54047e+06
3.49608e+06
3.45159e+06
3.40699e+06
3.36229e+06
3.31749e+06
3.2726e+06
3.22763e+06
3.18257e+06
3.13743e+06
3.09222e+06
3.04693e+06
3.00159e+06
2.95618e+06
2.91072e+06
2.8652e+06
2.81962e+06
2.774e+06
2.72831e+06
2.68258e+06
2.63678e+06
2.59091e+06
2.54497e+06
2.49895e+06
2.45284e+06
2.40665e+06
2.36038e+06
2.31403e+06
2.26762e+06
2.22117e+06
2.17472e+06
2.12831e+06
2.08199e+06
2.03581e+06
1.98985e+06
1.94417e+06
1.89886e+06
1.85399e+06
1.80964e+06
1.76583e+06
1.72291e+06
6.25458e+06
6.21786e+06
6.18692e+06
6.16256e+06
6.14189e+06
6.12177e+06
6.10085e+06
6.07913e+06
6.05708e+06
6.035e+06
6.01292e+06
5.99077e+06
5.96844e+06
5.94581e+06
5.9228e+06
5.89937e+06
5.87549e+06
5.85112e+06
5.8262e+06
5.80067e+06
5.77452e+06
5.74771e+06
5.72024e+06
5.69213e+06
5.66338e+06
5.634e+06
5.60402e+06
5.57347e+06
5.54237e+06
5.51075e+06
5.47865e+06
5.44608e+06
5.41307e+06
5.37964e+06
5.34582e+06
5.31161e+06
5.27703e+06
5.24211e+06
5.20683e+06
5.17123e+06
5.13529e+06
5.09904e+06
5.06248e+06
5.02561e+06
4.98845e+06
4.95099e+06
4.91324e+06
4.87521e+06
4.83691e+06
4.79833e+06
4.75948e+06
4.72038e+06
4.68101e+06
4.6414e+06
4.60153e+06
4.56142e+06
4.52107e+06
4.48049e+06
4.43968e+06
4.39865e+06
4.3574e+06
4.31594e+06
4.27428e+06
4.23242e+06
4.19037e+06
4.14813e+06
4.10572e+06
4.06313e+06
4.02038e+06
3.97746e+06
3.93439e+06
3.89116e+06
3.84779e+06
3.80428e+06
3.76063e+06
3.71685e+06
3.67294e+06
3.6289e+06
3.58474e+06
3.54047e+06
3.49608e+06
3.45159e+06
3.40699e+06
3.36229e+06
3.31749e+06
3.27261e+06
3.22763e+06
3.18257e+06
3.13744e+06
3.09223e+06
3.04694e+06
3.0016e+06
2.95619e+06
2.91073e+06
2.86521e+06
2.81964e+06
2.77401e+06
2.72833e+06
2.68259e+06
2.63679e+06
2.59093e+06
2.54499e+06
2.49896e+06
2.45286e+06
2.40667e+06
2.3604e+06
2.31405e+06
2.26764e+06
2.22119e+06
2.17474e+06
2.12832e+06
2.082e+06
2.03582e+06
1.98986e+06
1.94418e+06
1.89886e+06
1.85398e+06
1.80963e+06
1.76582e+06
1.72287e+06
6.25471e+06
6.21803e+06
6.18716e+06
6.16287e+06
6.14226e+06
6.12219e+06
6.10129e+06
6.07958e+06
6.05751e+06
6.03537e+06
6.01321e+06
5.99097e+06
5.96855e+06
5.94583e+06
5.92273e+06
5.89921e+06
5.87524e+06
5.85079e+06
5.82581e+06
5.80023e+06
5.77404e+06
5.7472e+06
5.71973e+06
5.69161e+06
5.66286e+06
5.6335e+06
5.60355e+06
5.57303e+06
5.54197e+06
5.51039e+06
5.47832e+06
5.44579e+06
5.41282e+06
5.37942e+06
5.34563e+06
5.31144e+06
5.27689e+06
5.24198e+06
5.20672e+06
5.17113e+06
5.13521e+06
5.09897e+06
5.06241e+06
5.02555e+06
4.98839e+06
4.95094e+06
4.9132e+06
4.87517e+06
4.83687e+06
4.7983e+06
4.75946e+06
4.72036e+06
4.68099e+06
4.64138e+06
4.60152e+06
4.56141e+06
4.52107e+06
4.48049e+06
4.43968e+06
4.39865e+06
4.3574e+06
4.31595e+06
4.27429e+06
4.23243e+06
4.19038e+06
4.14814e+06
4.10573e+06
4.06314e+06
4.02039e+06
3.97747e+06
3.9344e+06
3.89118e+06
3.84781e+06
3.8043e+06
3.76065e+06
3.71687e+06
3.67296e+06
3.62892e+06
3.58476e+06
3.54049e+06
3.4961e+06
3.45161e+06
3.40701e+06
3.36231e+06
3.31752e+06
3.27263e+06
3.22765e+06
3.18259e+06
3.13746e+06
3.09225e+06
3.04697e+06
3.00162e+06
2.95621e+06
2.91075e+06
2.86523e+06
2.81966e+06
2.77403e+06
2.72835e+06
2.68261e+06
2.63681e+06
2.59094e+06
2.545e+06
2.49898e+06
2.45288e+06
2.40669e+06
2.36041e+06
2.31406e+06
2.26765e+06
2.2212e+06
2.17475e+06
2.12833e+06
2.082e+06
2.03582e+06
1.98985e+06
1.94417e+06
1.89885e+06
1.85397e+06
1.80961e+06
1.76579e+06
1.72283e+06
6.25476e+06
6.21809e+06
6.18726e+06
6.16301e+06
6.14243e+06
6.12239e+06
6.10151e+06
6.07981e+06
6.05773e+06
6.03557e+06
6.01339e+06
5.99112e+06
5.96864e+06
5.94588e+06
5.92273e+06
5.89915e+06
5.87512e+06
5.85062e+06
5.82559e+06
5.79999e+06
5.77377e+06
5.74693e+06
5.71945e+06
5.69134e+06
5.66261e+06
5.63327e+06
5.60335e+06
5.57285e+06
5.54182e+06
5.51027e+06
5.47823e+06
5.44572e+06
5.41277e+06
5.37939e+06
5.3456e+06
5.31143e+06
5.27688e+06
5.24198e+06
5.20672e+06
5.17113e+06
5.13521e+06
5.09896e+06
5.06241e+06
5.02555e+06
4.98839e+06
4.95093e+06
4.91319e+06
4.87517e+06
4.83687e+06
4.79829e+06
4.75945e+06
4.72035e+06
4.68099e+06
4.64137e+06
4.60151e+06
4.56141e+06
4.52106e+06
4.48048e+06
4.43967e+06
4.39864e+06
4.3574e+06
4.31594e+06
4.27428e+06
4.23242e+06
4.19037e+06
4.14814e+06
4.10573e+06
4.06314e+06
4.02039e+06
3.97747e+06
3.9344e+06
3.89118e+06
3.84781e+06
3.80429e+06
3.76064e+06
3.71686e+06
3.67295e+06
3.62891e+06
3.58476e+06
3.54048e+06
3.4961e+06
3.4516e+06
3.407e+06
3.3623e+06
3.31751e+06
3.27262e+06
3.22765e+06
3.18259e+06
3.13745e+06
3.09224e+06
3.04696e+06
3.00161e+06
2.95621e+06
2.91074e+06
2.86522e+06
2.81965e+06
2.77402e+06
2.72834e+06
2.68261e+06
2.63681e+06
2.59094e+06
2.545e+06
2.49898e+06
2.45287e+06
2.40668e+06
2.3604e+06
2.31405e+06
2.26764e+06
2.22119e+06
2.17474e+06
2.12832e+06
2.08199e+06
2.03581e+06
1.98984e+06
1.94415e+06
1.89883e+06
1.85395e+06
1.80958e+06
1.76576e+06
1.72279e+06
6.25471e+06
6.21804e+06
6.18722e+06
6.16298e+06
6.14241e+06
6.12238e+06
6.10152e+06
6.07983e+06
6.05776e+06
6.03562e+06
6.01344e+06
5.99117e+06
5.96871e+06
5.94594e+06
5.92279e+06
5.89921e+06
5.87518e+06
5.85068e+06
5.82565e+06
5.80004e+06
5.77382e+06
5.74698e+06
5.7195e+06
5.69139e+06
5.66265e+06
5.63331e+06
5.60338e+06
5.57289e+06
5.54185e+06
5.5103e+06
5.47826e+06
5.44575e+06
5.4128e+06
5.37941e+06
5.34563e+06
5.31145e+06
5.27691e+06
5.242e+06
5.20674e+06
5.17115e+06
5.13522e+06
5.09898e+06
5.06242e+06
5.02556e+06
4.9884e+06
4.95094e+06
4.9132e+06
4.87518e+06
4.83688e+06
4.7983e+06
4.75946e+06
4.72036e+06
4.681e+06
4.64139e+06
4.60152e+06
4.56142e+06
4.52107e+06
4.4805e+06
4.43969e+06
4.39866e+06
4.35742e+06
4.31596e+06
4.2743e+06
4.23244e+06
4.1904e+06
4.14816e+06
4.10575e+06
4.06316e+06
4.02041e+06
3.97749e+06
3.93442e+06
3.8912e+06
3.84783e+06
3.80432e+06
3.76067e+06
3.71688e+06
3.67297e+06
3.62894e+06
3.58478e+06
3.5405e+06
3.49612e+06
3.45162e+06
3.40702e+06
3.36232e+06
3.31753e+06
3.27264e+06
3.22767e+06
3.18261e+06
3.13747e+06
3.09226e+06
3.04698e+06
3.00163e+06
2.95623e+06
2.91076e+06
2.86524e+06
2.81967e+06
2.77405e+06
2.72837e+06
2.68263e+06
2.63683e+06
2.59096e+06
2.54502e+06
2.499e+06
2.45289e+06
2.4067e+06
2.36042e+06
2.31407e+06
2.26765e+06
2.2212e+06
2.17475e+06
2.12833e+06
2.082e+06
2.03581e+06
1.98984e+06
1.94416e+06
1.89883e+06
1.85395e+06
1.80958e+06
1.76577e+06
1.7228e+06
6.25455e+06
6.21788e+06
6.18704e+06
6.16278e+06
6.1422e+06
6.12216e+06
6.10131e+06
6.07964e+06
6.0576e+06
6.03549e+06
6.01336e+06
5.99115e+06
5.96873e+06
5.94603e+06
5.92293e+06
5.89941e+06
5.87543e+06
5.85097e+06
5.82598e+06
5.80039e+06
5.77419e+06
5.74734e+06
5.71985e+06
5.69173e+06
5.66297e+06
5.6336e+06
5.60364e+06
5.57312e+06
5.54205e+06
5.51047e+06
5.4784e+06
5.44587e+06
5.41289e+06
5.3795e+06
5.3457e+06
5.31152e+06
5.27697e+06
5.24205e+06
5.20679e+06
5.17119e+06
5.13527e+06
5.09902e+06
5.06246e+06
5.0256e+06
4.98844e+06
4.95098e+06
4.91324e+06
4.87521e+06
4.83691e+06
4.79833e+06
4.75949e+06
4.72039e+06
4.68103e+06
4.64141e+06
4.60155e+06
4.56145e+06
4.5211e+06
4.48052e+06
4.43972e+06
4.39869e+06
4.35745e+06
4.31599e+06
4.27434e+06
4.23248e+06
4.19043e+06
4.1482e+06
4.10579e+06
4.0632e+06
4.02045e+06
3.97753e+06
3.93446e+06
3.89124e+06
3.84787e+06
3.80435e+06
3.7607e+06
3.71692e+06
3.67301e+06
3.62897e+06
3.58481e+06
3.54053e+06
3.49615e+06
3.45165e+06
3.40705e+06
3.36235e+06
3.31756e+06
3.27267e+06
3.22769e+06
3.18263e+06
3.1375e+06
3.09229e+06
3.04701e+06
3.00166e+06
2.95625e+06
2.91079e+06
2.86527e+06
2.8197e+06
2.77407e+06
2.72839e+06
2.68265e+06
2.63685e+06
2.59098e+06
2.54504e+06
2.49902e+06
2.45291e+06
2.40672e+06
2.36044e+06
2.31409e+06
2.26767e+06
2.22122e+06
2.17476e+06
2.12834e+06
2.08201e+06
2.03582e+06
1.98985e+06
1.94416e+06
1.89884e+06
1.85396e+06
1.80959e+06
1.76578e+06
1.72282e+06
6.2543e+06
6.21761e+06
6.18673e+06
6.16241e+06
6.14179e+06
6.12173e+06
6.10087e+06
6.07922e+06
6.05723e+06
6.0352e+06
6.01317e+06
5.99106e+06
5.96876e+06
5.94616e+06
5.92316e+06
5.89973e+06
5.87584e+06
5.85145e+06
5.82651e+06
5.80096e+06
5.77478e+06
5.74795e+06
5.72046e+06
5.69232e+06
5.66354e+06
5.63415e+06
5.60416e+06
5.5736e+06
5.54249e+06
5.51087e+06
5.47876e+06
5.44619e+06
5.41318e+06
5.37976e+06
5.34593e+06
5.31172e+06
5.27715e+06
5.24221e+06
5.20694e+06
5.17132e+06
5.13539e+06
5.09913e+06
5.06256e+06
5.02569e+06
4.98852e+06
4.95106e+06
4.91331e+06
4.87528e+06
4.83697e+06
4.7984e+06
4.75955e+06
4.72045e+06
4.68108e+06
4.64147e+06
4.60161e+06
4.5615e+06
4.52115e+06
4.48058e+06
4.43977e+06
4.39874e+06
4.3575e+06
4.31605e+06
4.27439e+06
4.23253e+06
4.19048e+06
4.14825e+06
4.10584e+06
4.06325e+06
4.0205e+06
3.97758e+06
3.93451e+06
3.89128e+06
3.84791e+06
3.8044e+06
3.76074e+06
3.71696e+06
3.67305e+06
3.62901e+06
3.58485e+06
3.54057e+06
3.49618e+06
3.45169e+06
3.40709e+06
3.36238e+06
3.31759e+06
3.2727e+06
3.22772e+06
3.18267e+06
3.13753e+06
3.09232e+06
3.04704e+06
3.00169e+06
2.95628e+06
2.91082e+06
2.8653e+06
2.81973e+06
2.7741e+06
2.72842e+06
2.68268e+06
2.63688e+06
2.59101e+06
2.54507e+06
2.49904e+06
2.45294e+06
2.40674e+06
2.36046e+06
2.31411e+06
2.26769e+06
2.22124e+06
2.17478e+06
2.12836e+06
2.08202e+06
2.03584e+06
1.98986e+06
1.94418e+06
1.89886e+06
1.85398e+06
1.80962e+06
1.76582e+06
1.72287e+06
6.25399e+06
6.21726e+06
6.18629e+06
6.16188e+06
6.14119e+06
6.12108e+06
6.10019e+06
6.07854e+06
6.05661e+06
6.0347e+06
6.01284e+06
5.99094e+06
5.96885e+06
5.94645e+06
5.92365e+06
5.90039e+06
5.87664e+06
5.85235e+06
5.82746e+06
5.80193e+06
5.77574e+06
5.74887e+06
5.72133e+06
5.69313e+06
5.66429e+06
5.63482e+06
5.60475e+06
5.57412e+06
5.54295e+06
5.51127e+06
5.4791e+06
5.44649e+06
5.41344e+06
5.37998e+06
5.34613e+06
5.3119e+06
5.2773e+06
5.24236e+06
5.20707e+06
5.17145e+06
5.1355e+06
5.09924e+06
5.06266e+06
5.02579e+06
4.98861e+06
4.95114e+06
4.91339e+06
4.87535e+06
4.83704e+06
4.79846e+06
4.75962e+06
4.72051e+06
4.68114e+06
4.64153e+06
4.60167e+06
4.56156e+06
4.52122e+06
4.48064e+06
4.43983e+06
4.39881e+06
4.35756e+06
4.31611e+06
4.27445e+06
4.2326e+06
4.19055e+06
4.14831e+06
4.1059e+06
4.06331e+06
4.02056e+06
3.97764e+06
3.93457e+06
3.89134e+06
3.84797e+06
3.80445e+06
3.7608e+06
3.71701e+06
3.6731e+06
3.62906e+06
3.5849e+06
3.54062e+06
3.49623e+06
3.45173e+06
3.40713e+06
3.36243e+06
3.31763e+06
3.27274e+06
3.22776e+06
3.1827e+06
3.13757e+06
3.09236e+06
3.04707e+06
3.00173e+06
2.95632e+06
2.91086e+06
2.86534e+06
2.81976e+06
2.77414e+06
2.72846e+06
2.68272e+06
2.63692e+06
2.59105e+06
2.5451e+06
2.49908e+06
2.45297e+06
2.40677e+06
2.36049e+06
2.31414e+06
2.26772e+06
2.22127e+06
2.1748e+06
2.12838e+06
2.08204e+06
2.03586e+06
1.98988e+06
1.9442e+06
1.89888e+06
1.854e+06
1.80965e+06
1.76586e+06
1.72294e+06
6.25367e+06
6.21681e+06
6.18567e+06
6.16113e+06
6.14035e+06
6.12015e+06
6.09917e+06
6.07749e+06
6.05559e+06
6.03379e+06
6.01213e+06
5.99046e+06
5.96865e+06
5.94656e+06
5.92409e+06
5.90116e+06
5.87769e+06
5.85363e+06
5.82891e+06
5.80348e+06
5.77734e+06
5.75047e+06
5.72289e+06
5.69461e+06
5.66566e+06
5.63607e+06
5.60586e+06
5.57509e+06
5.54378e+06
5.51197e+06
5.47969e+06
5.44697e+06
5.41383e+06
5.3803e+06
5.34639e+06
5.31212e+06
5.27749e+06
5.24252e+06
5.20722e+06
5.17158e+06
5.13563e+06
5.09935e+06
5.06277e+06
5.02589e+06
4.9887e+06
4.95123e+06
4.91347e+06
4.87543e+06
4.83711e+06
4.79853e+06
4.75968e+06
4.72057e+06
4.6812e+06
4.64158e+06
4.60172e+06
4.56161e+06
4.52127e+06
4.48069e+06
4.43989e+06
4.39886e+06
4.35762e+06
4.31617e+06
4.27451e+06
4.23265e+06
4.1906e+06
4.14837e+06
4.10596e+06
4.06337e+06
4.02062e+06
3.9777e+06
3.93462e+06
3.8914e+06
3.84802e+06
3.80451e+06
3.76085e+06
3.71707e+06
3.67315e+06
3.62911e+06
3.58495e+06
3.54067e+06
3.49628e+06
3.45178e+06
3.40718e+06
3.36247e+06
3.31767e+06
3.27279e+06
3.22781e+06
3.18275e+06
3.13761e+06
3.0924e+06
3.04712e+06
3.00177e+06
2.95636e+06
2.9109e+06
2.86538e+06
2.81981e+06
2.77418e+06
2.7285e+06
2.68276e+06
2.63695e+06
2.59108e+06
2.54514e+06
2.49912e+06
2.45301e+06
2.40681e+06
2.36053e+06
2.31417e+06
2.26775e+06
2.2213e+06
2.17483e+06
2.12841e+06
2.08207e+06
2.03588e+06
1.98991e+06
1.94422e+06
1.89891e+06
1.85404e+06
1.8097e+06
1.76593e+06
1.72304e+06
6.25355e+06
6.21632e+06
6.18479e+06
6.16002e+06
6.13913e+06
6.11883e+06
6.09777e+06
6.07607e+06
6.05426e+06
6.03263e+06
6.01114e+06
5.98965e+06
5.96801e+06
5.94609e+06
5.92378e+06
5.90099e+06
5.87765e+06
5.85368e+06
5.82903e+06
5.80365e+06
5.77754e+06
5.7507e+06
5.72313e+06
5.69486e+06
5.6659e+06
5.63631e+06
5.6061e+06
5.57532e+06
5.544e+06
5.51217e+06
5.47988e+06
5.44714e+06
5.41399e+06
5.38044e+06
5.34652e+06
5.31223e+06
5.27759e+06
5.24261e+06
5.20729e+06
5.17165e+06
5.13569e+06
5.09941e+06
5.06282e+06
5.02593e+06
4.98875e+06
4.95127e+06
4.9135e+06
4.87546e+06
4.83714e+06
4.79855e+06
4.7597e+06
4.72058e+06
4.68121e+06
4.64159e+06
4.60173e+06
4.56162e+06
4.52127e+06
4.48069e+06
4.43989e+06
4.39886e+06
4.35762e+06
4.31616e+06
4.2745e+06
4.23265e+06
4.1906e+06
4.14836e+06
4.10595e+06
4.06336e+06
4.02061e+06
3.97769e+06
3.93461e+06
3.89139e+06
3.84801e+06
3.80449e+06
3.76084e+06
3.71705e+06
3.67313e+06
3.62909e+06
3.58493e+06
3.54065e+06
3.49626e+06
3.45176e+06
3.40716e+06
3.36246e+06
3.31766e+06
3.27277e+06
3.22779e+06
3.18274e+06
3.1376e+06
3.09239e+06
3.04711e+06
3.00176e+06
2.95635e+06
2.91089e+06
2.86537e+06
2.81979e+06
2.77417e+06
2.72849e+06
2.68275e+06
2.63695e+06
2.59108e+06
2.54513e+06
2.49911e+06
2.453e+06
2.4068e+06
2.36052e+06
2.31416e+06
2.26775e+06
2.22129e+06
2.17483e+06
2.1284e+06
2.08207e+06
2.03588e+06
1.9899e+06
1.94422e+06
1.89891e+06
1.85404e+06
1.80972e+06
1.76599e+06
1.72317e+06
)
;

boundaryField
{
    upperWall
    {
        type            calculated;
        value           nonuniform List<scalar> 
120
(
6.25355e+06
6.21632e+06
6.18479e+06
6.16002e+06
6.13913e+06
6.11883e+06
6.09777e+06
6.07607e+06
6.05426e+06
6.03263e+06
6.01114e+06
5.98965e+06
5.96801e+06
5.94609e+06
5.92378e+06
5.90099e+06
5.87765e+06
5.85368e+06
5.82903e+06
5.80365e+06
5.77754e+06
5.7507e+06
5.72313e+06
5.69486e+06
5.6659e+06
5.63631e+06
5.6061e+06
5.57532e+06
5.544e+06
5.51217e+06
5.47988e+06
5.44714e+06
5.41399e+06
5.38044e+06
5.34652e+06
5.31223e+06
5.27759e+06
5.24261e+06
5.20729e+06
5.17165e+06
5.13569e+06
5.09941e+06
5.06282e+06
5.02593e+06
4.98875e+06
4.95127e+06
4.9135e+06
4.87546e+06
4.83714e+06
4.79855e+06
4.7597e+06
4.72058e+06
4.68121e+06
4.64159e+06
4.60173e+06
4.56162e+06
4.52127e+06
4.48069e+06
4.43989e+06
4.39886e+06
4.35762e+06
4.31616e+06
4.2745e+06
4.23265e+06
4.1906e+06
4.14836e+06
4.10595e+06
4.06336e+06
4.02061e+06
3.97769e+06
3.93461e+06
3.89139e+06
3.84801e+06
3.80449e+06
3.76084e+06
3.71705e+06
3.67313e+06
3.62909e+06
3.58493e+06
3.54065e+06
3.49626e+06
3.45176e+06
3.40716e+06
3.36246e+06
3.31766e+06
3.27277e+06
3.22779e+06
3.18274e+06
3.1376e+06
3.09239e+06
3.04711e+06
3.00176e+06
2.95635e+06
2.91089e+06
2.86537e+06
2.81979e+06
2.77417e+06
2.72849e+06
2.68275e+06
2.63695e+06
2.59108e+06
2.54513e+06
2.49911e+06
2.453e+06
2.4068e+06
2.36052e+06
2.31416e+06
2.26775e+06
2.22129e+06
2.17483e+06
2.1284e+06
2.08207e+06
2.03588e+06
1.9899e+06
1.94422e+06
1.89891e+06
1.85404e+06
1.80972e+06
1.76599e+06
1.72317e+06
)
;
    }
    lowerWall
    {
        type            calculated;
        value           nonuniform List<scalar> 
120
(
6.25416e+06
6.2168e+06
6.18518e+06
6.16031e+06
6.13925e+06
6.11879e+06
6.09756e+06
6.07572e+06
6.05378e+06
6.03203e+06
6.01043e+06
5.98883e+06
5.96711e+06
5.94514e+06
5.92282e+06
5.90004e+06
5.87672e+06
5.85278e+06
5.82816e+06
5.80283e+06
5.77677e+06
5.74998e+06
5.72246e+06
5.69423e+06
5.66532e+06
5.63576e+06
5.60558e+06
5.57483e+06
5.54353e+06
5.51172e+06
5.47944e+06
5.44672e+06
5.41357e+06
5.38003e+06
5.34611e+06
5.31183e+06
5.2772e+06
5.24222e+06
5.20691e+06
5.17128e+06
5.13532e+06
5.09905e+06
5.06247e+06
5.02559e+06
4.98841e+06
4.95093e+06
4.91317e+06
4.87513e+06
4.83681e+06
4.79822e+06
4.75937e+06
4.72025e+06
4.68088e+06
4.64125e+06
4.60138e+06
4.56127e+06
4.52091e+06
4.48033e+06
4.43951e+06
4.39848e+06
4.35723e+06
4.31577e+06
4.2741e+06
4.23224e+06
4.19018e+06
4.14795e+06
4.10553e+06
4.06294e+06
4.02018e+06
3.97726e+06
3.93419e+06
3.89096e+06
3.84759e+06
3.80407e+06
3.76042e+06
3.71663e+06
3.67272e+06
3.62868e+06
3.58452e+06
3.54024e+06
3.49586e+06
3.45136e+06
3.40676e+06
3.36206e+06
3.31726e+06
3.27237e+06
3.22739e+06
3.18233e+06
3.13719e+06
3.09198e+06
3.0467e+06
3.00135e+06
2.95594e+06
2.91048e+06
2.86496e+06
2.81938e+06
2.77376e+06
2.72808e+06
2.68234e+06
2.63654e+06
2.59067e+06
2.54473e+06
2.49871e+06
2.4526e+06
2.40641e+06
2.36014e+06
2.31379e+06
2.26738e+06
2.22094e+06
2.17449e+06
2.12808e+06
2.08176e+06
2.03559e+06
1.98964e+06
1.94397e+06
1.89867e+06
1.85382e+06
1.8095e+06
1.76578e+06
1.72292e+06
)
;
    }
    inlet
    {
        type            calculated;
        value           nonuniform List<scalar> 
12
(
6.25416e+06
6.25416e+06
6.25438e+06
6.25458e+06
6.25471e+06
6.25476e+06
6.25471e+06
6.25455e+06
6.2543e+06
6.25399e+06
6.25367e+06
6.25355e+06
)
;
    }
    outlet
    {
        type            calculated;
        value           nonuniform List<scalar> 
12
(
1.70101e+06
1.70105e+06
1.70091e+06
1.70087e+06
1.70084e+06
1.7008e+06
1.70081e+06
1.70083e+06
1.70087e+06
1.70094e+06
1.70105e+06
1.7013e+06
)
;
    }
    frontAndBack
    {
        type            empty;
    }
}


// ************************************************************************* //
