/*--------------------------------*- C++ -*----------------------------------*\
  =========                 |
  \\      /  F ield         | OpenFOAM: The Open Source CFD Toolbox
   \\    /   O peration     | Website:  https://openfoam.org
    \\  /    A nd           | Version:  7
     \\/     M anipulation  |
\*---------------------------------------------------------------------------*/
FoamFile
{
    version     2.0;
    format      ascii;
    class       volVectorField;
    location    "2.9075";
    object      U_0;
}
// * * * * * * * * * * * * * * * * * * * * * * * * * * * * * * * * * * * * * //

dimensions      [0 1 -1 0 0 0 0];

internalField   nonuniform List<vector> 
7920
(
(2.92919 0.101195 -32.3664)
(2.10368 -0.462518 -32.407)
(1.39158 -0.616807 -32.3979)
(1.28303 -0.672867 -32.4107)
(1.04892 -0.68959 -32.4014)
(1.07483 -0.694457 -32.4101)
(0.934302 -0.698482 -32.4027)
(0.979595 -0.69866 -32.41)
(0.87466 -0.700917 -32.4051)
(0.919577 -0.700669 -32.4112)
(0.836149 -0.702219 -32.4076)
(0.876828 -0.701708 -32.4118)
(0.80891 -0.702666 -32.4098)
(0.844639 -0.702084 -32.4122)
(0.788647 -0.702443 -32.4126)
(0.819402 -0.702512 -32.4117)
(0.772009 -0.698586 -32.4171)
(0.793299 -0.705048 -32.4079)
(0.759016 -0.646695 -32.4275)
(0.587474 -0.659193 -32.3911)
(4.41085 0.967295 -32.4279)
(4.33227 0.872803 -32.4665)
(3.67958 0.818468 -32.462)
(3.53159 0.751385 -32.4725)
(3.132 0.723671 -32.4678)
(3.12647 0.710286 -32.4739)
(2.86407 0.703746 -32.4698)
(2.90602 0.700297 -32.4741)
(2.71051 0.698204 -32.4719)
(2.76278 0.69651 -32.4753)
(2.60794 0.695412 -32.474)
(2.65959 0.694234 -32.4762)
(2.53355 0.69354 -32.476)
(2.58129 0.692574 -32.4767)
(2.47694 0.691929 -32.4787)
(2.52146 0.691976 -32.4762)
(2.42863 0.688772 -32.4835)
(2.48931 0.693599 -32.4721)
(2.36916 0.684027 -32.4947)
(2.64464 0.675883 -32.4447)
(4.75153 0.192725 -32.4354)
(5.2573 -0.229306 -32.4699)
(5.11239 -0.375154 -32.4593)
(5.22365 -0.4936 -32.4695)
(4.97891 -0.558513 -32.4626)
(5.02863 -0.595212 -32.4702)
(4.81428 -0.619663 -32.4645)
(4.85677 -0.633514 -32.4702)
(4.68038 -0.644096 -32.4658)
(4.72069 -0.650785 -32.4702)
(4.5758 -0.656245 -32.4674)
(4.61342 -0.660282 -32.4706)
(4.49362 -0.663429 -32.4694)
(4.52757 -0.666143 -32.4711)
(4.4288 -0.668278 -32.4723)
(4.4556 -0.669208 -32.4712)
(4.38105 -0.672537 -32.4768)
(4.38101 -0.668333 -32.4698)
(4.35485 -0.669306 -32.4842)
(4.25942 -0.69052 -32.4499)
(4.75246 0.649203 -32.4457)
(5.28334 0.749528 -32.4785)
(5.38372 0.796719 -32.4685)
(5.68866 0.766986 -32.4765)
(5.62981 0.749049 -32.4706)
(5.80145 0.734703 -32.4767)
(5.70772 0.724364 -32.4723)
(5.8201 0.716364 -32.4768)
(5.72549 0.710301 -32.4734)
(5.80661 0.704724 -32.4764)
(5.71993 0.700782 -32.4742)
(5.78215 0.696633 -32.4761)
(5.70488 0.694147 -32.4752)
(5.75552 0.6907 -32.476)
(5.68555 0.689848 -32.4769)
(5.73238 0.68589 -32.4763)
(5.66186 0.688877 -32.4793)
(5.72333 0.681616 -32.4768)
(5.63378 0.696311 -32.4825)
(5.77585 0.706519 -32.4566)
(4.74459 -0.088364 -32.4448)
(5.24708 -0.387281 -32.4775)
(5.40464 -0.479836 -32.4649)
(5.76508 -0.545643 -32.4735)
(5.77571 -0.581463 -32.4655)
(6.00768 -0.601499 -32.4723)
(5.98077 -0.615786 -32.4664)
(6.14596 -0.623789 -32.4716)
(6.11062 -0.630699 -32.4669)
(6.23541 -0.635099 -32.4707)
(6.19927 -0.639315 -32.4671)
(6.29648 -0.642368 -32.4698)
(6.26192 -0.645497 -32.4673)
(6.33913 -0.647377 -32.4692)
(6.30749 -0.650995 -32.4678)
(6.36821 -0.649505 -32.4692)
(6.34402 -0.658814 -32.469)
(6.38233 -0.647538 -32.4701)
(6.37866 -0.671172 -32.4709)
(6.3778 -0.693137 -32.4495)
(4.73204 0.352096 -32.4484)
(5.19033 0.557177 -32.4817)
(5.35791 0.635523 -32.469)
(5.73382 0.655634 -32.4778)
(5.76832 0.665802 -32.4694)
(6.02407 0.669098 -32.4763)
(6.02395 0.671233 -32.4701)
(6.21371 0.671338 -32.4754)
(6.20569 0.671654 -32.4704)
(6.35402 0.670921 -32.4743)
(6.34398 0.670805 -32.4704)
(6.46265 0.669943 -32.4732)
(6.45171 0.669995 -32.4702)
(6.54818 0.668746 -32.4723)
(6.53639 0.670124 -32.4702)
(6.61621 0.666511 -32.472)
(6.60428 0.673907 -32.4708)
(6.67156 0.662878 -32.4727)
(6.66393 0.68643 -32.4722)
(6.72885 0.708564 -32.4505)
(4.73204 -0.352096 -32.4484)
(5.19033 -0.557177 -32.4817)
(5.35791 -0.635523 -32.469)
(5.73382 -0.655633 -32.4778)
(5.76832 -0.665802 -32.4694)
(6.02407 -0.669096 -32.4763)
(6.02395 -0.671233 -32.4701)
(6.21371 -0.671334 -32.4754)
(6.2057 -0.671651 -32.4704)
(6.35402 -0.670912 -32.4743)
(6.34399 -0.670791 -32.4703)
(6.46265 -0.669918 -32.4732)
(6.45174 -0.669956 -32.4701)
(6.54815 -0.668654 -32.4724)
(6.53649 -0.670051 -32.4701)
(6.61614 -0.666174 -32.4721)
(6.60451 -0.673804 -32.4708)
(6.6714 -0.661883 -32.4727)
(6.66424 -0.685964 -32.4722)
(6.72864 -0.70674 -32.4505)
(4.74459 0.088364 -32.4448)
(5.24708 0.387281 -32.4775)
(5.40464 0.479836 -32.4649)
(5.76508 0.545644 -32.4735)
(5.77571 0.581463 -32.4654)
(6.00769 0.6015 -32.4723)
(5.98077 0.615787 -32.4663)
(6.14597 0.623792 -32.4716)
(6.11061 0.630704 -32.4669)
(6.23543 0.635106 -32.4708)
(6.19925 0.639331 -32.467)
(6.29653 0.642387 -32.4699)
(6.26188 0.645541 -32.4671)
(6.33926 0.64745 -32.4694)
(6.30743 0.651078 -32.4675)
(6.36851 0.649808 -32.4696)
(6.34406 0.658926 -32.4686)
(6.38301 0.648515 -32.4706)
(6.3793 0.671591 -32.4704)
(6.37953 0.695104 -32.4499)
(4.75246 -0.649203 -32.4457)
(5.28334 -0.749528 -32.4785)
(5.38372 -0.796719 -32.4685)
(5.68866 -0.766985 -32.4765)
(5.62981 -0.749049 -32.4706)
(5.80145 -0.734702 -32.4768)
(5.70772 -0.724364 -32.4723)
(5.82011 -0.71636 -32.4768)
(5.72549 -0.710299 -32.4733)
(5.80662 -0.704714 -32.4765)
(5.71993 -0.700774 -32.474)
(5.7822 -0.696605 -32.4764)
(5.7049 -0.694124 -32.4748)
(5.75564 -0.690609 -32.4766)
(5.68567 -0.689813 -32.476)
(5.73265 -0.685583 -32.4775)
(5.66234 -0.688863 -32.4776)
(5.72384 -0.680762 -32.479)
(5.63515 -0.696085 -32.4796)
(5.77709 -0.705148 -32.4602)
(4.75153 -0.192725 -32.4354)
(5.2573 0.229306 -32.4699)
(5.11239 0.375154 -32.4593)
(5.22365 0.4936 -32.4696)
(4.97891 0.558514 -32.4626)
(5.02863 0.595212 -32.4703)
(4.81428 0.619664 -32.4644)
(4.85678 0.633514 -32.4703)
(4.68037 0.644101 -32.4657)
(4.72073 0.650785 -32.4704)
(4.57579 0.65626 -32.4671)
(4.61352 0.660283 -32.471)
(4.49359 0.663467 -32.4688)
(4.52785 0.666164 -32.4721)
(4.42879 0.66835 -32.4707)
(4.45629 0.66935 -32.4737)
(4.38133 0.672629 -32.473)
(4.38259 0.668918 -32.4757)
(4.35636 0.669555 -32.4754)
(4.26385 0.691707 -32.4627)
(4.41085 -0.967295 -32.4279)
(4.33227 -0.872803 -32.4665)
(3.67958 -0.818468 -32.4619)
(3.5316 -0.751384 -32.4725)
(3.132 -0.723671 -32.4678)
(3.12647 -0.710285 -32.4739)
(2.86407 -0.703747 -32.4698)
(2.90603 -0.700295 -32.4741)
(2.71051 -0.698205 -32.4718)
(2.76281 -0.696504 -32.4755)
(2.60795 -0.695413 -32.4737)
(2.65966 -0.694216 -32.4766)
(2.53359 -0.69354 -32.4753)
(2.58148 -0.692518 -32.4778)
(2.47709 -0.69194 -32.477)
(2.52188 -0.691792 -32.4791)
(2.42933 -0.688866 -32.4786)
(2.48994 -0.693134 -32.4805)
(2.37149 -0.684312 -32.4797)
(2.64524 -0.676041 -32.4713)
(2.92919 -0.101195 -32.3664)
(2.10368 0.462518 -32.407)
(1.39158 0.616807 -32.3979)
(1.28303 0.672866 -32.4107)
(1.04892 0.689591 -32.4014)
(1.07483 0.694456 -32.4102)
(0.934302 0.698483 -32.4026)
(0.979599 0.698658 -32.41)
(0.874661 0.70092 -32.405)
(0.91959 0.700663 -32.4113)
(0.836151 0.702225 -32.4074)
(0.87687 0.701694 -32.4122)
(0.808913 0.702681 -32.4092)
(0.844755 0.702046 -32.4132)
(0.788683 0.702483 -32.411)
(0.819669 0.702413 -32.4143)
(0.772264 0.698717 -32.4128)
(0.793843 0.704897 -32.4155)
(0.760143 0.64729 -32.4139)
(0.589585 0.659966 -32.4155)
(4.32507 0.565806 0.00691838)
(3.07942 0.847625 0.00445144)
(2.31538 0.869432 0.00572342)
(1.74795 0.852656 0.00424748)
(1.60957 0.85527 0.00539243)
(1.40537 0.86711 0.00422448)
(1.39862 0.877026 0.00517978)
(1.2766 0.885134 0.00419987)
(1.28362 0.889377 0.004982)
(1.19733 0.89308 0.00415538)
(1.20524 0.894807 0.00479676)
(1.14216 0.896877 0.00410271)
(1.14847 0.897635 0.00462982)
(1.10039 0.899116 0.00404901)
(1.10553 0.898959 0.00448165)
(1.06546 0.901362 0.00399533)
(1.07238 0.8939 0.00435151)
(1.04925 0.915573 0.00393887)
(1.00478 0.791844 0.00426487)
(1.44605 0.819387 0.00382841)
(4.75853 -0.100165 0.00434187)
(4.61172 -0.277249 0.00231079)
(4.52588 -0.477202 0.00361405)
(4.14355 -0.643161 0.00217242)
(4.00087 -0.739536 0.00332556)
(3.72232 -0.794905 0.00216367)
(3.64797 -0.822374 0.00312264)
(3.46047 -0.83948 0.00214552)
(3.42009 -0.849698 0.00292996)
(3.28708 -0.857498 0.0021053)
(3.26115 -0.862809 0.0027483)
(3.16264 -0.867296 0.00205558)
(3.14332 -0.870201 0.00258366)
(3.06688 -0.87348 0.00200385)
(3.05256 -0.874161 0.00243638)
(2.9864 -0.87862 0.00195189)
(2.98622 -0.87553 0.00230215)
(2.90036 -0.882558 0.00189972)
(2.97573 -0.886088 0.00215496)
(2.57277 -0.894543 0.00177748)
(4.63722 0.435063 0.00564011)
(4.82577 0.871112 0.00368512)
(5.14108 0.969257 0.00487011)
(5.08136 0.960144 0.00338826)
(5.14299 0.941957 0.00451566)
(5.00723 0.928811 0.00334118)
(5.01287 0.919435 0.00429438)
(4.89353 0.913639 0.00331368)
(4.88754 0.907214 0.00409627)
(4.791 0.903656 0.00326962)
(4.78017 0.899121 0.00391133)
(4.70267 0.897028 0.00321715)
(4.68924 0.894063 0.0037441)
(4.62723 0.892609 0.00316306)
(4.61073 0.891096 0.0035953)
(4.56508 0.889005 0.00310902)
(4.53552 0.887871 0.00346503)
(4.53019 0.887787 0.00305247)
(4.44932 0.849026 0.00337661)
(4.56732 0.889176 0.00296654)
(4.57546 -0.201731 0.00446149)
(4.69942 -0.398265 0.00272623)
(5.1297 -0.518887 0.00391609)
(5.22947 -0.623584 0.00246328)
(5.44629 -0.691349 0.00359233)
(5.44702 -0.73854 0.00242203)
(5.55827 -0.765156 0.00337822)
(5.53237 -0.784517 0.00240072)
(5.59631 -0.797091 0.00318617)
(5.56508 -0.807618 0.00236242)
(5.60285 -0.815402 0.00300604)
(5.57241 -0.8222 0.002314)
(5.5946 -0.82751 0.00284201)
(5.56655 -0.8322 0.00226269)
(5.5797 -0.836197 0.00269476)
(5.55218 -0.838871 0.00221083)
(5.56417 -0.846174 0.00255989)
(5.52025 -0.840438 0.00215697)
(5.5593 -0.875996 0.00240991)
(5.36424 -0.897425 0.0020603)
(4.58852 0.34133 0.00511475)
(4.69541 0.688243 0.00341882)
(5.10562 0.803106 0.00456121)
(5.22619 0.844667 0.00309444)
(5.48319 0.861676 0.00421077)
(5.53294 0.871431 0.00303386)
(5.69499 0.875157 0.00398682)
(5.72156 0.877698 0.0030071)
(5.8341 0.876981 0.0037916)
(5.85093 0.877143 0.00296673)
(5.93116 0.875507 0.00360979)
(5.94215 0.875157 0.00291692)
(5.99987 0.873769 0.00344447)
(6.00766 0.872991 0.00286441)
(6.04815 0.872858 0.00329648)
(6.05678 0.869884 0.00281138)
(6.07837 0.874251 0.00316497)
(6.09621 0.865814 0.00275536)
(6.09566 0.870005 0.00306031)
(6.09372 0.916268 0.00268475)
(4.58248 -0.269034 0.00474392)
(4.66728 -0.539301 0.00311246)
(5.07236 -0.653698 0.00425415)
(5.19426 -0.724532 0.00279445)
(5.46271 -0.764987 0.00390902)
(5.52757 -0.792658 0.00273205)
(5.70761 -0.807261 0.00368495)
(5.75351 -0.818008 0.0027055)
(5.88609 -0.823761 0.00349044)
(5.92362 -0.829117 0.00266614)
(6.0242 -0.832284 0.00330961)
(6.05535 -0.835646 0.00261727)
(6.1327 -0.837946 0.00314506)
(6.15838 -0.839914 0.00256554)
(6.21843 -0.842718 0.00299739)
(6.23895 -0.841634 0.00251322)
(6.2863 -0.850589 0.00286364)
(6.2937 -0.839822 0.00245797)
(6.34401 -0.87064 0.00273367)
(6.25798 -0.905565 0.00238228)
(4.58248 0.269034 0.00474392)
(4.66728 0.539301 0.00311246)
(5.07236 0.653698 0.00425415)
(5.19426 0.724533 0.00279445)
(5.46271 0.764987 0.00390902)
(5.52758 0.792659 0.00273205)
(5.7076 0.807262 0.00368495)
(5.75351 0.818013 0.00270549)
(5.88608 0.823765 0.00349045)
(5.92363 0.829129 0.00266612)
(6.02419 0.832297 0.00330962)
(6.05538 0.835682 0.00261724)
(6.13266 0.837979 0.0031451)
(6.15845 0.840029 0.00256544)
(6.21834 0.842805 0.0029975)
(6.23916 0.841964 0.00251297)
(6.28616 0.850886 0.00286399)
(6.29435 0.840644 0.00245742)
(6.34428 0.871657 0.00273496)
(6.25904 0.907557 0.00238159)
(4.58852 -0.34133 0.00511475)
(4.69541 -0.688243 0.00341882)
(5.10562 -0.803106 0.00456121)
(5.22619 -0.844666 0.00309444)
(5.48319 -0.861676 0.00421077)
(5.53294 -0.871429 0.00303386)
(5.69499 -0.875157 0.00398682)
(5.72156 -0.877693 0.00300711)
(5.83411 -0.876978 0.00379159)
(5.85094 -0.87713 0.00296675)
(5.93117 -0.875498 0.00360977)
(5.94216 -0.875116 0.00291696)
(5.99991 -0.873747 0.00344441)
(6.00767 -0.872865 0.00286452)
(6.0483 -0.872804 0.00329632)
(6.05677 -0.869543 0.00281165)
(6.0788 -0.874059 0.00316452)
(6.09605 -0.865108 0.00275584)
(6.09643 -0.869243 0.00305903)
(6.09384 -0.91453 0.00268491)
(4.57546 0.201731 0.00446149)
(4.69943 0.398265 0.00272623)
(5.1297 0.518887 0.00391609)
(5.22947 0.623584 0.00246328)
(5.44629 0.691349 0.00359233)
(5.44703 0.738541 0.00242203)
(5.55827 0.765157 0.00337822)
(5.53238 0.78452 0.00240072)
(5.5963 0.797096 0.00318617)
(5.56511 0.807624 0.00236241)
(5.60283 0.815417 0.00300604)
(5.57249 0.822223 0.00231398)
(5.59457 0.827548 0.00284202)
(5.56675 0.832278 0.00226265)
(5.57969 0.836295 0.00269479)
(5.55268 0.839111 0.00221072)
(5.56433 0.846495 0.00256007)
(5.52161 0.84114 0.00215662)
(5.5604 0.877082 0.00241107)
(5.36767 0.899191 0.00205957)
(4.63722 -0.435063 0.0056401)
(4.82577 -0.871111 0.00368512)
(5.14108 -0.969258 0.0048701)
(5.08136 -0.960143 0.00338826)
(5.14299 -0.941957 0.00451566)
(5.00723 -0.928809 0.00334119)
(5.01286 -0.919436 0.00429437)
(4.89354 -0.913635 0.00331369)
(4.88754 -0.907214 0.00409625)
(4.79102 -0.903643 0.00326965)
(4.78017 -0.89912 0.00391128)
(4.70275 -0.896992 0.00321722)
(4.68927 -0.894062 0.00374398)
(4.62741 -0.8925 0.00316324)
(4.61091 -0.891104 0.00359499)
(4.56548 -0.888723 0.00310947)
(4.53614 -0.88787 0.00346426)
(4.53108 -0.887329 0.0030533)
(4.45092 -0.848795 0.00337483)
(4.56976 -0.888622 0.00296701)
(4.75853 0.100165 0.00434187)
(4.61172 0.277249 0.00231079)
(4.52588 0.477203 0.00361405)
(4.14355 0.64316 0.00217242)
(4.00087 0.739536 0.00332556)
(3.72233 0.794905 0.00216367)
(3.64797 0.822376 0.00312264)
(3.46048 0.839479 0.00214553)
(3.42009 0.849703 0.00292995)
(3.28712 0.857496 0.00210531)
(3.26114 0.862822 0.00274829)
(3.16276 0.867291 0.0020556)
(3.14332 0.870234 0.00258362)
(3.06717 0.873475 0.00200389)
(3.05263 0.874248 0.00243627)
(2.98715 0.878624 0.00195201)
(2.98653 0.875798 0.00230194)
(2.90262 0.882733 0.00189992)
(2.97639 0.887014 0.00215509)
(2.58099 0.895977 0.00177775)
(4.32507 -0.565806 0.00691839)
(3.07942 -0.847625 0.00445144)
(2.31538 -0.869433 0.00572342)
(1.74795 -0.852655 0.00424749)
(1.60957 -0.855271 0.00539243)
(1.40537 -0.867109 0.00422449)
(1.39862 -0.877027 0.00517977)
(1.2766 -0.885132 0.00419989)
(1.28362 -0.88938 0.00498198)
(1.19734 -0.893073 0.00415542)
(1.20526 -0.894815 0.0047967)
(1.1422 -0.896856 0.00410282)
(1.14852 -0.897656 0.00462966)
(1.1005 -0.899057 0.00404928)
(1.10572 -0.899025 0.0044812)
(1.06572 -0.90121 0.00399605)
(1.07295 -0.894122 0.00435027)
(1.04987 -0.915381 0.00394073)
(1.00612 -0.792973 0.00426104)
(1.44725 -0.820763 0.00383365)
(4.37854 0.0970623 0.0013714)
(3.96706 0.148986 0.00191501)
(3.43174 0.16296 0.000961131)
(2.95409 0.156775 0.00150388)
(2.54125 0.145205 0.000980875)
(2.23682 0.13663 0.00139745)
(2.01184 0.131635 0.00105371)
(1.85868 0.131254 0.00131633)
(1.7554 0.133608 0.00108458)
(1.68117 0.138071 0.00123881)
(1.63469 0.143075 0.00109526)
(1.59302 0.148469 0.00117752)
(1.56977 0.153073 0.00110298)
(1.54147 0.157956 0.00113597)
(1.52706 0.1607 0.00111515)
(1.50799 0.16602 0.00111112)
(1.49105 0.164414 0.00113665)
(1.49343 0.174667 0.00109725)
(1.44691 0.160121 0.00115103)
(1.52072 0.167006 0.00116641)
(4.54101 0.0877729 0.00316278)
(4.6774 0.119386 0.0038854)
(4.71942 0.120791 0.00292507)
(4.70767 0.0945726 0.00344341)
(4.62998 0.0564203 0.00289595)
(4.53387 0.0139809 0.00329866)
(4.4257 -0.0240546 0.00294608)
(4.31993 -0.0567411 0.00320494)
(4.22349 -0.0816809 0.00297037)
(4.13105 -0.101532 0.00312385)
(4.05349 -0.115979 0.00297936)
(3.97664 -0.127631 0.00306164)
(3.91576 -0.136145 0.00298682)
(3.85245 -0.143381 0.00301965)
(3.80512 -0.148803 0.00299935)
(3.75338 -0.153299 0.00299426)
(3.71591 -0.15784 0.00302366)
(3.6768 -0.159487 0.00297836)
(3.64076 -0.165516 0.00307511)
(3.62098 -0.171419 0.0030798)
(4.51635 0.0457306 0.0017284)
(4.6554 0.110417 0.00233538)
(4.78715 0.162819 0.00140689)
(4.93521 0.191325 0.00192889)
(5.04246 0.201682 0.00138778)
(5.12635 0.202613 0.00179729)
(5.17661 0.199377 0.0014532)
(5.20522 0.196355 0.00171728)
(5.2187 0.194457 0.00148815)
(5.21842 0.194017 0.00164361)
(5.21485 0.194399 0.00150178)
(5.20245 0.195317 0.00158448)
(5.19141 0.196013 0.00151076)
(5.17546 0.197207 0.00154386)
(5.16 0.196659 0.00152306)
(5.14627 0.19932 0.00152006)
(5.12516 0.194116 0.00154206)
(5.12008 0.204089 0.0015126)
(5.08812 0.184136 0.00153893)
(5.0974 0.207925 0.0015735)
(4.51239 0.0441559 0.00274641)
(4.62099 0.0508627 0.00346325)
(4.7448 0.046609 0.00255951)
(4.90397 0.0291154 0.00308713)
(5.04332 0.00690606 0.00253194)
(5.17536 -0.0182461 0.00292988)
(5.28185 -0.0420933 0.00257489)
(5.37088 -0.0636615 0.00283393)
(5.44457 -0.081328 0.00260032)
(5.50366 -0.0959346 0.00275419)
(5.55691 -0.107463 0.00261022)
(5.59896 -0.116774 0.00269227)
(5.63999 -0.124534 0.00261732)
(5.67214 -0.130428 0.00264995)
(5.705 -0.136543 0.00262884)
(5.73048 -0.139442 0.00262508)
(5.75836 -0.146365 0.00265103)
(5.77602 -0.145022 0.00261754)
(5.80533 -0.155036 0.00270513)
(5.80293 -0.153407 0.00271)
(4.5135 0.0165827 0.00204615)
(4.62217 0.0556679 0.00271741)
(4.73899 0.0914158 0.00182334)
(4.89214 0.117104 0.00234193)
(5.02925 0.133444 0.00178458)
(5.16506 0.144561 0.00218265)
(5.28011 0.152325 0.00183043)
(5.38217 0.15904 0.0020917)
(5.47179 0.164896 0.00186086)
(5.54933 0.170451 0.00201602)
(5.62285 0.175278 0.0018738)
(5.6864 0.179703 0.00195643)
(5.75051 0.183069 0.00188249)
(5.80548 0.186509 0.0019155)
(5.86364 0.187891 0.0018946)
(5.91096 0.191804 0.00189195)
(5.96786 0.189005 0.00191343)
(6.0009 0.198328 0.00188863)
(6.07129 0.184408 0.00192417)
(6.06697 0.209306 0.00195698)
(4.51224 0.0119214 0.00237901)
(4.61433 -0.00401106 0.00307949)
(4.72974 -0.0234165 0.00219317)
(4.88117 -0.0448766 0.00271776)
(5.01742 -0.0639776 0.00215898)
(5.1531 -0.0817882 0.0025554)
(5.26925 -0.0972961 0.00220067)
(5.37353 -0.111055 0.0024609)
(5.46671 -0.122548 0.00222896)
(5.54859 -0.13229 0.00238381)
(5.6279 -0.140283 0.00224108)
(5.69728 -0.146818 0.00232355)
(5.76934 -0.152324 0.00224935)
(5.83073 -0.15656 0.00228212)
(5.8995 -0.160509 0.00226131)
(5.95212 -0.163166 0.00225824)
(6.02395 -0.165939 0.00228194)
(6.05782 -0.16854 0.00225534)
(6.15092 -0.167913 0.00231962)
(6.13838 -0.17755 0.00233492)
(4.51224 -0.0119216 0.00237901)
(4.61433 0.00401157 0.00307949)
(4.72974 0.023416 0.00219317)
(4.88117 0.0448778 0.00271776)
(5.01742 0.063977 0.00215898)
(5.1531 0.0817908 0.0025554)
(5.26925 0.0972961 0.00220067)
(5.37353 0.111061 0.00246091)
(5.46671 0.122551 0.00222895)
(5.54859 0.132305 0.00238383)
(5.6279 0.140293 0.00224106)
(5.69729 0.14686 0.00232358)
(5.76934 0.152347 0.0022493)
(5.83075 0.156684 0.00228221)
(5.8995 0.160562 0.00226118)
(5.95215 0.163505 0.00225846)
(6.02397 0.166114 0.0022815)
(6.05789 0.169327 0.00225571)
(6.15104 0.168635 0.00231762)
(6.13861 0.179112 0.00233548)
(4.5135 -0.0165829 0.00204615)
(4.62217 -0.0556674 0.00271741)
(4.73899 -0.0914164 0.00182334)
(4.89214 -0.117103 0.00234193)
(5.02925 -0.133445 0.00178458)
(5.16506 -0.144559 0.00218265)
(5.28011 -0.152325 0.00183044)
(5.38217 -0.159034 0.0020917)
(5.47179 -0.164893 0.00186087)
(5.54933 -0.170436 0.00201601)
(5.62286 -0.175269 0.00187382)
(5.68641 -0.17966 0.00195639)
(5.75054 -0.183048 0.00188254)
(5.80548 -0.186385 0.00191541)
(5.86372 -0.187843 0.00189471)
(5.91096 -0.19147 0.00189173)
(5.96806 -0.188844 0.00191382)
(6.00097 -0.197566 0.00188823)
(6.07173 -0.183739 0.00192585)
(6.06731 -0.207859 0.00195642)
(4.51239 -0.0441561 0.00274641)
(4.621 -0.0508622 0.00346325)
(4.74479 -0.0466094 0.00255951)
(4.90398 -0.0291143 0.00308713)
(5.04331 -0.00690656 0.00253194)
(5.17536 0.0182484 0.00292989)
(5.28184 0.0420935 0.00257488)
(5.37089 0.0636666 0.00283394)
(5.44456 0.0813309 0.00260031)
(5.50368 0.0959474 0.00275421)
(5.5569 0.107473 0.00261019)
(5.599 0.116811 0.00269231)
(5.64 0.124557 0.00261726)
(5.67221 0.130539 0.00265004)
(5.70507 0.136592 0.00262869)
(5.73065 0.139751 0.00262527)
(5.75865 0.146516 0.00265056)
(5.77644 0.145754 0.00261785)
(5.80625 0.155668 0.00270323)
(5.80412 0.154881 0.00271024)
(4.51634 -0.0457307 0.0017284)
(4.65541 -0.110417 0.00233538)
(4.78715 -0.162819 0.00140689)
(4.93521 -0.191324 0.00192889)
(5.04245 -0.201683 0.00138778)
(5.12636 -0.20261 0.00179729)
(5.1766 -0.199378 0.00145319)
(5.20523 -0.19635 0.00171728)
(5.21869 -0.194456 0.00148814)
(5.21846 -0.194003 0.00164362)
(5.21483 -0.194394 0.00150178)
(5.20254 -0.19528 0.00158449)
(5.19139 -0.196002 0.00151076)
(5.17565 -0.197101 0.00154385)
(5.16008 -0.196637 0.00152309)
(5.14668 -0.199041 0.00151996)
(5.12559 -0.194033 0.00154222)
(5.12097 -0.203485 0.00151239)
(5.08952 -0.183716 0.00153981)
(5.09957 -0.20696 0.0015733)
(4.54101 -0.0877729 0.00316278)
(4.6774 -0.119386 0.00388541)
(4.71942 -0.120791 0.00292507)
(4.70767 -0.0945723 0.00344341)
(4.62998 -0.0564201 0.00289595)
(4.53388 -0.0139801 0.00329867)
(4.42569 0.0240557 0.00294606)
(4.31995 0.056743 0.00320497)
(4.22347 0.0816846 0.00297034)
(4.13112 0.101537 0.00312391)
(4.05346 0.115989 0.00297927)
(3.9768 0.127647 0.00306178)
(3.91571 0.136164 0.00298661)
(3.85283 0.143434 0.00301997)
(3.80512 0.148836 0.00299886)
(3.75423 0.153454 0.00299496)
(3.71619 0.157929 0.00302247)
(3.67874 0.159861 0.00297987)
(3.64189 0.165886 0.00307189)
(3.62568 0.172163 0.00308276)
(4.37854 -0.0970623 0.0013714)
(3.96706 -0.148986 0.00191501)
(3.43174 -0.16296 0.000961131)
(2.95409 -0.156775 0.00150388)
(2.54124 -0.145205 0.000980874)
(2.23683 -0.136629 0.00139746)
(2.01184 -0.131635 0.00105371)
(1.85869 -0.131253 0.00131634)
(1.7554 -0.133608 0.00108458)
(1.68121 -0.138068 0.00123883)
(1.63469 -0.143076 0.00109524)
(1.59313 -0.14846 0.00117755)
(1.5698 -0.153076 0.00110293)
(1.54173 -0.157929 0.00113605)
(1.52722 -0.160716 0.00111501)
(1.50859 -0.165945 0.00111133)
(1.49158 -0.164462 0.00113623)
(1.49494 -0.174516 0.00109785)
(1.44801 -0.160218 0.00114971)
(1.52542 -0.167131 0.00116848)
(4.37854 0.0970623 -0.00137141)
(3.96706 0.148986 -0.00191502)
(3.43174 0.16296 -0.000961135)
(2.95409 0.156775 -0.00150389)
(2.54125 0.145205 -0.000980879)
(2.23682 0.13663 -0.00139746)
(2.01184 0.131635 -0.00105372)
(1.85868 0.131254 -0.00131634)
(1.7554 0.133608 -0.00108459)
(1.68117 0.138071 -0.00123882)
(1.63469 0.143075 -0.00109526)
(1.59302 0.148469 -0.00117752)
(1.56977 0.153073 -0.00110299)
(1.54147 0.157956 -0.00113597)
(1.52706 0.1607 -0.00111515)
(1.50799 0.16602 -0.00111113)
(1.49105 0.164414 -0.00113666)
(1.49343 0.174667 -0.00109725)
(1.44691 0.160121 -0.00115103)
(1.52072 0.167006 -0.00116642)
(4.54101 0.0877729 -0.00316278)
(4.6774 0.119386 -0.00388541)
(4.71942 0.120791 -0.00292507)
(4.70767 0.0945726 -0.00344341)
(4.62998 0.0564203 -0.00289596)
(4.53387 0.0139809 -0.00329866)
(4.4257 -0.0240546 -0.00294608)
(4.31993 -0.0567411 -0.00320495)
(4.22349 -0.0816809 -0.00297038)
(4.13105 -0.101532 -0.00312386)
(4.05349 -0.115979 -0.00297937)
(3.97664 -0.127631 -0.00306164)
(3.91576 -0.136145 -0.00298683)
(3.85245 -0.143381 -0.00301966)
(3.80512 -0.148803 -0.00299935)
(3.75338 -0.153299 -0.00299426)
(3.71591 -0.15784 -0.00302367)
(3.6768 -0.159487 -0.00297836)
(3.64076 -0.165516 -0.00307511)
(3.62098 -0.171419 -0.00307981)
(4.51635 0.0457306 -0.00172841)
(4.6554 0.110417 -0.00233538)
(4.78715 0.162819 -0.00140689)
(4.93521 0.191325 -0.0019289)
(5.04246 0.201682 -0.00138779)
(5.12635 0.202613 -0.0017973)
(5.17661 0.199377 -0.0014532)
(5.20522 0.196355 -0.00171728)
(5.2187 0.194457 -0.00148815)
(5.21842 0.194017 -0.00164361)
(5.21485 0.194399 -0.00150179)
(5.20245 0.195317 -0.00158449)
(5.19141 0.196013 -0.00151076)
(5.17546 0.197207 -0.00154387)
(5.16 0.196659 -0.00152307)
(5.14627 0.19932 -0.00152006)
(5.12516 0.194116 -0.00154207)
(5.12008 0.204089 -0.00151261)
(5.08812 0.184136 -0.00153893)
(5.0974 0.207925 -0.0015735)
(4.51239 0.0441559 -0.00274642)
(4.62099 0.0508627 -0.00346326)
(4.7448 0.046609 -0.00255952)
(4.90397 0.0291154 -0.00308713)
(5.04332 0.00690605 -0.00253195)
(5.17536 -0.0182461 -0.00292988)
(5.28185 -0.0420934 -0.00257489)
(5.37088 -0.0636615 -0.00283394)
(5.44457 -0.081328 -0.00260033)
(5.50366 -0.0959347 -0.00275419)
(5.55691 -0.107463 -0.00261023)
(5.59896 -0.116774 -0.00269228)
(5.63999 -0.124534 -0.00261732)
(5.67214 -0.130428 -0.00264996)
(5.705 -0.136543 -0.00262884)
(5.73048 -0.139442 -0.00262509)
(5.75836 -0.146365 -0.00265103)
(5.77602 -0.145022 -0.00261754)
(5.80533 -0.155036 -0.00270514)
(5.80293 -0.153407 -0.00271001)
(4.5135 0.0165827 -0.00204616)
(4.62217 0.0556679 -0.00271742)
(4.73899 0.0914158 -0.00182335)
(4.89214 0.117104 -0.00234194)
(5.02925 0.133444 -0.00178459)
(5.16506 0.144561 -0.00218266)
(5.28011 0.152325 -0.00183044)
(5.38217 0.15904 -0.00209171)
(5.47179 0.164895 -0.00186086)
(5.54933 0.170451 -0.00201602)
(5.62285 0.175278 -0.0018738)
(5.6864 0.179703 -0.00195643)
(5.75051 0.183069 -0.0018825)
(5.80548 0.186509 -0.0019155)
(5.86364 0.187891 -0.0018946)
(5.91096 0.191804 -0.00189195)
(5.96786 0.189005 -0.00191344)
(6.0009 0.198328 -0.00188863)
(6.07129 0.184408 -0.00192417)
(6.06697 0.209306 -0.00195698)
(4.51224 0.0119214 -0.00237902)
(4.61433 -0.00401107 -0.00307949)
(4.72974 -0.0234165 -0.00219318)
(4.88117 -0.0448766 -0.00271776)
(5.01742 -0.0639776 -0.00215899)
(5.1531 -0.0817883 -0.0025554)
(5.26925 -0.0972961 -0.00220068)
(5.37353 -0.111055 -0.00246091)
(5.46671 -0.122548 -0.00222896)
(5.54859 -0.13229 -0.00238382)
(5.6279 -0.140283 -0.00224109)
(5.69728 -0.146818 -0.00232355)
(5.76934 -0.152324 -0.00224935)
(5.83073 -0.15656 -0.00228213)
(5.8995 -0.160509 -0.00226131)
(5.95212 -0.163166 -0.00225824)
(6.02395 -0.165939 -0.00228194)
(6.05782 -0.16854 -0.00225535)
(6.15092 -0.167913 -0.00231962)
(6.13838 -0.17755 -0.00233493)
(4.51224 -0.0119216 -0.00237902)
(4.61433 0.00401157 -0.00307949)
(4.72974 0.023416 -0.00219318)
(4.88117 0.0448778 -0.00271776)
(5.01742 0.063977 -0.00215899)
(5.1531 0.0817908 -0.0025554)
(5.26925 0.0972961 -0.00220067)
(5.37353 0.111061 -0.00246092)
(5.46671 0.122551 -0.00222896)
(5.54859 0.132305 -0.00238383)
(5.6279 0.140293 -0.00224107)
(5.69729 0.14686 -0.00232359)
(5.76934 0.152347 -0.00224931)
(5.83075 0.156684 -0.00228222)
(5.8995 0.160562 -0.00226119)
(5.95215 0.163505 -0.00225846)
(6.02397 0.166114 -0.00228151)
(6.05789 0.169327 -0.00225571)
(6.15104 0.168635 -0.00231763)
(6.13861 0.179112 -0.00233549)
(4.5135 -0.0165829 -0.00204615)
(4.62217 -0.0556674 -0.00271742)
(4.73899 -0.0914164 -0.00182335)
(4.89214 -0.117103 -0.00234194)
(5.02925 -0.133445 -0.00178459)
(5.16506 -0.144559 -0.00218266)
(5.28011 -0.152325 -0.00183044)
(5.38217 -0.159034 -0.0020917)
(5.47179 -0.164893 -0.00186087)
(5.54933 -0.170436 -0.00201601)
(5.62286 -0.175269 -0.00187382)
(5.68641 -0.17966 -0.0019564)
(5.75054 -0.183048 -0.00188254)
(5.80548 -0.186385 -0.00191542)
(5.86372 -0.187843 -0.00189471)
(5.91096 -0.19147 -0.00189174)
(5.96806 -0.188844 -0.00191383)
(6.00097 -0.197566 -0.00188824)
(6.07173 -0.183739 -0.00192586)
(6.06731 -0.207859 -0.00195643)
(4.51239 -0.0441561 -0.00274641)
(4.621 -0.0508622 -0.00346326)
(4.74479 -0.0466094 -0.00255952)
(4.90398 -0.0291143 -0.00308714)
(5.04331 -0.00690657 -0.00253194)
(5.17536 0.0182484 -0.00292989)
(5.28184 0.0420935 -0.00257489)
(5.37089 0.0636666 -0.00283395)
(5.44456 0.0813309 -0.00260031)
(5.50368 0.0959474 -0.00275421)
(5.5569 0.107473 -0.0026102)
(5.599 0.116811 -0.00269232)
(5.64 0.124557 -0.00261726)
(5.67221 0.130539 -0.00265004)
(5.70507 0.136592 -0.00262869)
(5.73065 0.139751 -0.00262527)
(5.75865 0.146516 -0.00265056)
(5.77644 0.145754 -0.00261785)
(5.80625 0.155668 -0.00270323)
(5.80412 0.154881 -0.00271024)
(4.51634 -0.0457307 -0.00172841)
(4.65541 -0.110417 -0.00233538)
(4.78715 -0.162819 -0.00140689)
(4.93521 -0.191324 -0.0019289)
(5.04245 -0.201683 -0.00138778)
(5.12636 -0.20261 -0.0017973)
(5.1766 -0.199378 -0.0014532)
(5.20523 -0.19635 -0.00171728)
(5.21869 -0.194456 -0.00148815)
(5.21846 -0.194003 -0.00164362)
(5.21483 -0.194394 -0.00150178)
(5.20254 -0.19528 -0.00158449)
(5.19139 -0.196002 -0.00151076)
(5.17565 -0.197101 -0.00154385)
(5.16008 -0.196637 -0.00152309)
(5.14668 -0.199041 -0.00151997)
(5.12559 -0.194033 -0.00154223)
(5.12097 -0.203485 -0.00151239)
(5.08952 -0.183716 -0.00153981)
(5.09957 -0.20696 -0.0015733)
(4.54101 -0.0877729 -0.00316278)
(4.6774 -0.119386 -0.00388541)
(4.71942 -0.120791 -0.00292507)
(4.70767 -0.0945723 -0.00344342)
(4.62998 -0.0564201 -0.00289595)
(4.53388 -0.0139801 -0.00329867)
(4.42569 0.0240557 -0.00294607)
(4.31995 0.056743 -0.00320498)
(4.22347 0.0816846 -0.00297034)
(4.13112 0.101537 -0.00312392)
(4.05346 0.115989 -0.00297928)
(3.9768 0.127647 -0.00306178)
(3.91571 0.136164 -0.00298662)
(3.85283 0.143434 -0.00301997)
(3.80512 0.148836 -0.00299886)
(3.75423 0.153454 -0.00299497)
(3.71619 0.157929 -0.00302248)
(3.67874 0.159861 -0.00297987)
(3.64189 0.165886 -0.0030719)
(3.62568 0.172163 -0.00308276)
(4.37854 -0.0970623 -0.00137141)
(3.96706 -0.148986 -0.00191502)
(3.43174 -0.16296 -0.000961135)
(2.95409 -0.156775 -0.00150389)
(2.54124 -0.145205 -0.000980878)
(2.23683 -0.136629 -0.00139746)
(2.01184 -0.131635 -0.00105372)
(1.85869 -0.131253 -0.00131635)
(1.7554 -0.133608 -0.00108458)
(1.68121 -0.138068 -0.00123883)
(1.63469 -0.143076 -0.00109524)
(1.59313 -0.14846 -0.00117756)
(1.5698 -0.153076 -0.00110294)
(1.54173 -0.157929 -0.00113605)
(1.52722 -0.160716 -0.00111501)
(1.50859 -0.165945 -0.00111133)
(1.49158 -0.164462 -0.00113623)
(1.49494 -0.174516 -0.00109785)
(1.44801 -0.160218 -0.00114971)
(1.52542 -0.167131 -0.00116849)
(4.32507 0.565806 -0.00691839)
(3.07942 0.847625 -0.00445144)
(2.31538 0.869432 -0.00572342)
(1.74795 0.852656 -0.00424749)
(1.60957 0.85527 -0.00539243)
(1.40537 0.86711 -0.00422448)
(1.39862 0.877026 -0.00517979)
(1.2766 0.885134 -0.00419987)
(1.28362 0.889377 -0.00498201)
(1.19733 0.89308 -0.00415539)
(1.20524 0.894807 -0.00479676)
(1.14216 0.896877 -0.00410272)
(1.14847 0.897635 -0.00462983)