/*--------------------------------*- C++ -*----------------------------------*\
  =========                 |
  \\      /  F ield         | OpenFOAM: The Open Source CFD Toolbox
   \\    /   O peration     | Website:  https://openfoam.org
    \\  /    A nd           | Version:  7
     \\/     M anipulation  |
\*---------------------------------------------------------------------------*/
FoamFile
{
    version     2.0;
    format      ascii;
    class       volVectorField;
    location    "3.85";
    object      U;
}
// * * * * * * * * * * * * * * * * * * * * * * * * * * * * * * * * * * * * * //

dimensions      [0 1 -1 0 0 0 0];

internalField   nonuniform List<vector> 
600
(
(2.69058 0.188103 0)
(1.78884 0.0316694 0)
(1.31631 -0.00282045 0)
(1.28892 -0.00437457 0)
(1.23945 -0.00159311 0)
(1.20308 -0.00186567 0)
(1.17585 -0.00143174 0)
(1.16272 -0.00162211 0)
(1.1423 -0.00142801 0)
(1.15437 0.00134714 0)
(4.25698 0.395413 0)
(4.01969 0.16689 0)
(3.42935 0.053791 0)
(3.27067 0.00997138 0)
(3.16151 0.00631215 0)
(3.08272 0.00323777 0)
(3.01877 0.00148314 0)
(2.98872 7.69357e-05 0)
(2.93716 -0.000737957 0)
(2.95204 -0.0029544 0)
(4.69397 0.308517 0)
(5.18845 0.175577 0)
(4.87981 0.084007 0)
(4.73177 0.0303474 0)
(4.61213 0.0176961 0)
(4.52318 0.0111095 0)
(4.44617 0.00600413 0)
(4.41334 0.00472252 0)
(4.34743 0.000660813 0)
(4.36757 0.0039269 0)
(4.7007 0.225488 0)
(5.56078 0.152974 0)
(5.62692 0.0936147 0)
(5.66366 0.0472742 0)
(5.63929 0.0304799 0)
(5.60244 0.0211166 0)
(5.55065 0.0117345 0)
(5.54024 0.00977808 0)
(5.47953 0.00344702 0)
(5.51593 0.00557567 0)
(4.67117 0.121937 0)
(5.55538 0.0770701 0)
(5.79649 0.0492302 0)
(6.01122 0.0277895 0)
(6.13895 0.0217446 0)
(6.22411 0.01815 0)
(6.25473 0.0115944 0)
(6.31131 0.0108433 0)
(6.28943 0.00441729 0)
(6.36297 0.00923075 0)
(4.66873 0.0307925 0)
(5.53085 0.018286 0)
(5.78233 0.00954495 0)
(6.03995 0.00160426 0)
(6.22935 0.000282412 0)
(6.40002 -0.000136819 0)
(6.50978 -0.00121589 0)
(6.65247 0.000230117 0)
(6.6958 -0.00125111 0)
(6.83093 0.00272343 0)
(4.66845 -0.0607374 0)
(5.53113 -0.0486675 0)
(5.78192 -0.0390623 0)
(6.04059 -0.0306937 0)
(6.2287 -0.027408 0)
(6.40122 -0.0245818 0)
(6.50876 -0.0222099 0)
(6.65457 -0.0182808 0)
(6.6949 -0.0160458 0)
(6.83507 -0.00901477 0)
(4.6706 -0.14985 0)
(5.55608 -0.105299 0)
(5.79551 -0.0768448 0)
(6.01293 -0.0544674 0)
(6.13742 -0.0475506 0)
(6.22742 -0.0406207 0)
(6.25249 -0.0339867 0)
(6.31705 -0.0270827 0)
(6.28777 -0.0209077 0)
(6.37384 -0.0148212 0)
(4.70032 -0.249478 0)
(5.56138 -0.177119 0)
(5.62635 -0.117437 0)
(5.66564 -0.0699035 0)
(5.63798 -0.0529247 0)
(5.60651 -0.0403019 0)
(5.54828 -0.0312026 0)
(5.54784 -0.0237396 0)
(5.4778 -0.0180614 0)
(5.53033 -0.0107284 0)
(4.69379 -0.326923 0)
(5.18897 -0.194059 0)
(4.87953 -0.102279 0)
(4.73358 -0.0478038 0)
(4.61146 -0.0347712 0)
(4.5268 -0.0261016 0)
(4.44477 -0.0207048 0)
(4.42062 -0.0157931 0)
(4.34666 -0.011813 0)
(4.382 -0.00877458 0)
(4.2569 -0.406993 0)
(4.02005 -0.178481 0)
(3.42936 -0.0652374 0)
(3.27206 -0.0210198 0)
(3.16161 -0.0169119 0)
(3.08528 -0.0129316 0)
(3.0189 -0.0104456 0)
(2.99392 -0.00766643 0)
(2.93805 -0.00600338 0)
(2.96281 -0.00146061 0)
(2.69055 -0.192073 0)
(1.78899 -0.0356251 0)
(1.31657 -0.00108667 0)
(1.28983 0.000585305 0)
(1.24016 -0.0019983 0)
(1.20462 -0.00150916 0)
(1.17707 -0.0015684 0)
(1.16541 -0.00117524 0)
(1.14448 -0.000836257 0)
(1.15887 -0.0030537 0)
(1.12637 0.000635731 0)
(1.20539 0.000353831 0)
(1.19222 0.000374665 0)
(1.20841 0.000597619 0)
(1.21065 0.000491156 0)
(1.21374 0.00037167 0)
(1.21644 0.000248745 0)
(1.21879 0.000152752 0)
(1.22098 9.08016e-05 0)
(1.22303 5.49171e-05 0)
(1.22495 3.29283e-05 0)
(1.22674 1.90783e-05 0)
(1.22841 1.24052e-05 0)
(1.22997 9.63611e-06 0)
(1.23142 7.42142e-06 0)
(1.23278 5.73859e-06 0)
(1.23406 5.32289e-06 0)
(1.23524 5.26825e-06 0)
(1.23636 4.83444e-06 0)
(1.2374 4.17676e-06 0)
(1.23838 3.406e-06 0)
(1.23929 2.55514e-06 0)
(1.24015 2.17892e-06 0)
(1.24095 2.58545e-06 0)
(1.2417 3.05316e-06 0)
(1.24241 2.84663e-06 0)
(1.24308 2.32787e-06 0)
(1.24371 2.1563e-06 0)
(1.2443 2.37682e-06 0)
(1.24486 2.57948e-06 0)
(1.2454 2.78689e-06 0)
(1.2459 2.80965e-06 0)
(1.24638 3.13114e-06 0)
(1.24684 3.42645e-06 0)
(1.24725 4.92352e-06 0)
(1.24769 5.73526e-06 0)
(1.24802 8.53223e-06 0)
(1.24848 8.60503e-06 0)
(1.24869 1.31752e-05 0)
(1.24927 1.26412e-05 0)
(2.86032 -0.00416017 0)
(3.02068 -3.65879e-05 0)
(2.99968 0.000902574 0)
(3.03118 0.0015467 0)
(3.03827 0.00143878 0)
(3.04565 0.00108204 0)
(3.05243 0.000729497 0)
(3.05842 0.000449864 0)
(3.06401 0.000265932 0)
(3.06922 0.000160465 0)
(3.07408 9.67908e-05 0)
(3.0786 5.78177e-05 0)
(3.08283 3.8401e-05 0)
(3.08677 2.92267e-05 0)
(3.09045 2.17579e-05 0)
(3.09389 1.66466e-05 0)
(3.0971 1.53146e-05 0)
(3.10011 1.50775e-05 0)
(3.10291 1.37522e-05 0)
(3.10554 1.17843e-05 0)
(3.10801 9.51539e-06 0)
(3.11031 7.01219e-06 0)
(3.11247 5.77998e-06 0)
(3.1145 6.78179e-06 0)
(3.1164 8.06133e-06 0)
(3.11819 7.4254e-06 0)
(3.11988 5.79922e-06 0)
(3.12147 5.12103e-06 0)
(3.12296 5.53598e-06 0)
(3.12438 5.92963e-06 0)
(3.12572 6.14169e-06 0)
(3.127 5.8498e-06 0)
(3.12819 5.99836e-06 0)
(3.12936 6.34618e-06 0)
(3.1304 9.27652e-06 0)
(3.13149 1.1434e-05 0)
(3.13233 1.73206e-05 0)
(3.13346 1.76015e-05 0)
(3.13397 2.72671e-05 0)
(3.13543 2.71004e-05 0)
(4.19802 -0.00348672 0)
(4.38228 -0.000161221 0)
(4.35762 0.00120461 0)
(4.39439 0.00244507 0)
(4.40527 0.00232884 0)
(4.41562 0.00176731 0)
(4.42535 0.00120278 0)
(4.43406 0.000755551 0)
(4.44216 0.000460376 0)
(4.44971 0.000289031 0)
(4.45675 0.000186057 0)
(4.46331 0.000120747 0)
(4.46944 8.89728e-05 0)
(4.47515 7.35201e-05 0)
(4.48048 5.97323e-05 0)
(4.48546 4.98212e-05 0)
(4.49011 4.60225e-05 0)
(4.49446 4.41054e-05 0)
(4.49853 4.05902e-05 0)
(4.50234 3.61594e-05 0)
(4.50591 3.13518e-05 0)
(4.50925 2.62513e-05 0)
(4.51238 2.31828e-05 0)
(4.51531 2.37078e-05 0)
(4.51807 2.47938e-05 0)
(4.52066 2.29281e-05 0)
(4.5231 1.94903e-05 0)
(4.5254 1.75566e-05 0)
(4.52757 1.7347e-05 0)
(4.52963 1.71739e-05 0)
(4.53156 1.66191e-05 0)
(4.53341 1.53563e-05 0)
(4.53513 1.4479e-05 0)
(4.53682 1.41621e-05 0)
(4.53831 1.72169e-05 0)
(4.53989 1.98159e-05 0)
(4.5411 2.69072e-05 0)
(4.54273 2.70325e-05 0)
(4.54346 3.89622e-05 0)
(4.54557 3.90946e-05 0)
(5.3181 -0.0041496 0)
(5.49392 -0.000236078 0)
(5.46046 0.00151077 0)
(5.49491 0.00318254 0)
(5.50791 0.00307881 0)
(5.52028 0.00234319 0)
(5.53219 0.00160119 0)
(5.54298 0.00101539 0)
(5.55302 0.00062918 0)
(5.56238 0.000403354 0)
(5.5711 0.000266373 0)
(5.57923 0.000179841 0)
(5.58681 0.000136987 0)
(5.59389 0.000115844 0)
(5.6005 9.67536e-05 0)
(5.60666 8.25003e-05 0)
(5.61243 7.62508e-05 0)
(5.61782 7.25471e-05 0)
(5.62286 6.68543e-05 0)
(5.62757 6.00475e-05 0)
(5.63199 5.28171e-05 0)
(5.63613 4.52662e-05 0)
(5.64001 4.0432e-05 0)
(5.64364 4.03451e-05 0)
(5.64706 4.10185e-05 0)
(5.65027 3.78858e-05 0)
(5.6533 3.27145e-05 0)
(5.65615 2.95455e-05 0)
(5.65883 2.85848e-05 0)
(5.66137 2.7746e-05 0)
(5.66377 2.62824e-05 0)
(5.66605 2.40721e-05 0)
(5.66818 2.19364e-05 0)
(5.67025 2.09962e-05 0)
(5.6721 2.33537e-05 0)
(5.67405 2.64355e-05 0)
(5.67554 3.28275e-05 0)
(5.67757 3.41399e-05 0)
(5.67845 4.4295e-05 0)
(5.68108 4.68898e-05 0)
(6.21352 -0.00242441 0)
(6.36125 0.000290924 0)
(6.30574 0.00187747 0)
(6.33043 0.00384973 0)
(6.34297 0.00365656 0)
(6.35617 0.00278176 0)
(6.36933 0.00191352 0)
(6.38141 0.00122555 0)
(6.39267 0.000770312 0)
(6.40317 0.000504847 0)
(6.41296 0.000342336 0)
(6.42209 0.00023885 0)
(6.43061 0.000187856 0)
(6.43856 0.00016028 0)
(6.44598 0.000135944 0)
(6.45291 0.000117607 0)
(6.45939 0.00010874 0)
(6.46544 0.000102964 0)
(6.47111 9.49824e-05 0)
(6.47641 8.58002e-05 0)
(6.48138 7.62174e-05 0)
(6.48603 6.63386e-05 0)
(6.49039 5.96883e-05 0)
(6.49448 5.86365e-05 0)
(6.49833 5.854e-05 0)
(6.50194 5.40782e-05 0)
(6.50534 4.72611e-05 0)
(6.50855 4.28284e-05 0)
(6.51156 4.09768e-05 0)
(6.51442 3.93424e-05 0)
(6.5171 3.6881e-05 0)
(6.51966 3.36642e-05 0)
(6.52205 3.01873e-05 0)
(6.52437 2.84305e-05 0)
(6.52645 2.96318e-05 0)
(6.52863 3.28443e-05 0)
(6.53031 3.76605e-05 0)
(6.5326 4.00884e-05 0)
(6.53357 4.68344e-05 0)
(6.53657 5.13865e-05 0)
(6.79123 -0.00382081 0)
(6.89226 0.00194631 0)
(6.80254 0.0028033 0)
(6.81365 0.00449209 0)
(6.82333 0.0040108 0)
(6.83589 0.00303822 0)
(6.84905 0.00209088 0)
(6.8613 0.00134697 0)
(6.87275 0.000856888 0)
(6.88345 0.000570685 0)
(6.89342 0.000394836 0)
(6.90273 0.000280867 0)
(6.91142 0.000223817 0)
(6.91953 0.000193027 0)
(6.9271 0.000165604 0)
(6.93417 0.000144504 0)
(6.94078 0.000133625 0)
(6.94697 0.000126171 0)
(6.95275 0.000116446 0)
(6.95817 0.000105516 0)
(6.96325 9.42302e-05 0)
(6.96801 8.26894e-05 0)
(6.97247 7.46885e-05 0)
(6.97666 7.27728e-05 0)
(6.9806 7.19474e-05 0)
(6.9843 6.64995e-05 0)
(6.98778 5.85573e-05 0)
(6.99106 5.32234e-05 0)
(6.99415 5.06919e-05 0)
(6.99707 4.84477e-05 0)
(6.99982 4.52864e-05 0)
(7.00244 4.13522e-05 0)
(7.00487 3.69182e-05 0)
(7.00725 3.44159e-05 0)
(7.00938 3.44758e-05 0)
(7.01163 3.73292e-05 0)
(7.01337 3.98648e-05 0)
(7.01576 4.35146e-05 0)
(7.01674 4.60343e-05 0)
(7.01992 5.16651e-05 0)
(6.79002 -0.00645536 0)
(6.8913 0.00454386 0)
(6.79663 0.0041125 0)
(6.8057 0.00501152 0)
(6.81355 0.00410592 0)
(6.82463 0.00308162 0)
(6.83655 0.00211631 0)
(6.8477 0.00136795 0)
(6.85817 0.000877631 0)
(6.86797 0.000590618 0)
(6.87712 0.000413342 0)
(6.88566 0.000299375 0)
(6.89364 0.000238162 0)
(6.9011 0.000205592 0)
(6.90806 0.000177092 0)
(6.91457 0.000155091 0)
(6.92065 0.000143389 0)
(6.92635 0.000135185 0)
(6.93168 0.000124772 0)
(6.93668 0.000113205 0)
(6.94136 0.000101335 0)
(6.94576 8.92511e-05 0)
(6.94988 8.07551e-05 0)
(6.95376 7.83992e-05 0)
(6.9574 7.71914e-05 0)
(6.96083 7.14122e-05 0)
(6.96406 6.3162e-05 0)
(6.9671 5.75564e-05 0)
(6.96997 5.47919e-05 0)
(6.97269 5.23322e-05 0)
(6.97524 4.89271e-05 0)
(6.97767 4.47012e-05 0)
(6.97994 3.98198e-05 0)
(6.98217 3.67915e-05 0)
(6.98417 3.59437e-05 0)
(6.9863 3.82306e-05 0)
(6.98794 3.87921e-05 0)
(6.99024 4.32909e-05 0)
(6.99117 4.21706e-05 0)
(6.99427 4.80152e-05 0)
(6.21085 -0.00708354 0)
(6.35768 0.00548515 0)
(6.29038 0.0045897 0)
(6.31009 0.00495994 0)
(6.31812 0.00386346 0)
(6.32772 0.00288314 0)
(6.33784 0.00197618 0)
(6.34725 0.00127731 0)
(6.35611 0.000820975 0)
(6.36441 0.000553303 0)
(6.37218 0.000388023 0)
(6.37943 0.000280708 0)
(6.38621 0.000222786 0)
(6.39255 0.000192171 0)
(6.39848 0.000165483 0)
(6.40402 0.000144913 0)
(6.4092 0.000133949 0)
(6.41406 0.000126256 0)
(6.41861 0.00011651 0)
(6.42287 0.000105693 0)
(6.42688 9.45991e-05 0)
(6.43064 8.33087e-05 0)
(6.43417 7.53821e-05 0)
(6.43749 7.31997e-05 0)
(6.44062 7.20955e-05 0)
(6.44356 6.67484e-05 0)
(6.44634 5.90972e-05 0)
(6.44896 5.39357e-05 0)
(6.45143 5.14184e-05 0)
(6.45377 4.91965e-05 0)
(6.45597 4.60159e-05 0)
(6.45808 4.20701e-05 0)
(6.46004 3.72794e-05 0)
(6.46199 3.429e-05 0)
(6.46372 3.27999e-05 0)
(6.46561 3.48179e-05 0)
(6.46704 3.37353e-05 0)
(6.46911 3.90191e-05 0)
(6.46994 3.43684e-05 0)
(6.47276 4.08514e-05 0)
(5.31395 -0.00368726 0)
(5.48657 0.0047643 0)
(5.4393 0.00405879 0)
(5.46769 0.00428522 0)
(5.47516 0.00329446 0)
(5.48313 0.00246295 0)
(5.49131 0.00168192 0)
(5.4988 0.00108383 0)
(5.50587 0.000693193 0)
(5.5125 0.000464114 0)
(5.5187 0.000323422 0)
(5.52449 0.000231741 0)
(5.52991 0.000182299 0)
(5.53498 0.000156819 0)
(5.53972 0.000134545 0)
(5.54416 0.000117466 0)
(5.54831 0.000108577 0)
(5.5522 0.000102456 0)
(5.55585 9.45364e-05 0)
(5.55928 8.56615e-05 0)
(5.5625 7.65156e-05 0)
(5.56552 6.71701e-05 0)
(5.56837 6.07026e-05 0)
(5.57105 5.91623e-05 0)
(5.57357 5.85239e-05 0)
(5.57595 5.42345e-05 0)
(5.57819 4.79451e-05 0)
(5.58031 4.38077e-05 0)
(5.58231 4.1911e-05 0)
(5.58421 4.02822e-05 0)
(5.586 3.7722e-05 0)
(5.58772 3.45457e-05 0)
(5.58932 3.03482e-05 0)
(5.59091 2.78904e-05 0)
(5.59232 2.60348e-05 0)
(5.59389 2.79961e-05 0)
(5.59506 2.54936e-05 0)
(5.59681 3.13491e-05 0)
(5.59751 2.38845e-05 0)
(5.59991 3.12087e-05 0)
(4.19192 -0.00195694 0)
(4.37139 0.00317971 0)
(4.33425 0.00307875 0)
(4.36523 0.00317745 0)
(4.37079 0.00248492 0)
(4.37692 0.00185976 0)
(4.38304 0.00126251 0)
(4.38854 0.000807528 0)
(4.39375 0.000509323 0)
(4.39864 0.000335148 0)
(4.4032 0.000228365 0)
(4.40747 0.000159368 0)
(4.41147 0.000122769 0)
(4.4152 0.000104417 0)
(4.4187 8.84442e-05 0)
(4.42197 7.6415e-05 0)
(4.42504 7.05844e-05 0)
(4.42792 6.68068e-05 0)
(4.43062 6.15815e-05 0)
(4.43316 5.55603e-05 0)
(4.43554 4.92726e-05 0)
(4.43779 4.27778e-05 0)
(4.4399 3.84489e-05 0)
(4.44189 3.78667e-05 0)
(4.44377 3.79324e-05 0)
(4.44554 3.51704e-05 0)
(4.44721 3.08331e-05 0)
(4.4488 2.81462e-05 0)
(4.4503 2.71272e-05 0)
(4.45172 2.633e-05 0)
(4.45306 2.46844e-05 0)
(4.45436 2.2642e-05 0)
(4.45556 1.94772e-05 0)
(4.45677 1.79514e-05 0)
(4.45783 1.60899e-05 0)
(4.45904 1.81906e-05 0)
(4.45992 1.49654e-05 0)
(4.46128 2.10483e-05 0)
(4.46183 1.19975e-05 0)
(4.46371 2.01192e-05 0)
(2.85314 0.000997361 0)
(3.00871 0.00149962 0)
(2.97871 0.00181743 0)
(3.00562 0.00188259 0)
(3.00856 0.00152314 0)
(3.01264 0.00114165 0)
(3.01658 0.000768057 0)
(3.02006 0.000483917 0)
(3.02336 0.000298567 0)
(3.02645 0.000190748 0)
(3.02934 0.000124848 0)
(3.03203 8.30226e-05 0)
(3.03456 6.13391e-05 0)
(3.03692 5.08989e-05 0)
(3.03913 4.19423e-05 0)
(3.0412 3.54142e-05 0)
(3.04315 3.27029e-05 0)
(3.04497 3.12129e-05 0)
(3.04668 2.87483e-05 0)
(3.04829 2.57237e-05 0)
(3.04981 2.24767e-05 0)
(3.05124 1.90462e-05 0)
(3.05258 1.69274e-05 0)
(3.05385 1.7123e-05 0)
(3.05505 1.76889e-05 0)
(3.05619 1.64491e-05 0)
(3.05726 1.41841e-05 0)
(3.05828 1.29386e-05 0)
(3.05924 1.27099e-05 0)
(3.06016 1.26153e-05 0)
(3.06103 1.19225e-05 0)
(3.06186 1.09922e-05 0)
(3.06264 9.20636e-06 0)
(3.06343 8.54138e-06 0)
(3.06413 7.33501e-06 0)
(3.06493 8.9745e-06 0)
(3.06551 6.55773e-06 0)
(3.06642 1.09475e-05 0)
(3.06679 4.20667e-06 0)
(3.06806 1.02434e-05 0)
(1.12106 -0.00173987 0)
(1.19745 -4.51669e-05 0)
(1.18044 0.000573832 0)
(1.19428 0.00053038 0)
(1.19454 0.000492439 0)
(1.19606 0.000363626 0)
(1.19744 0.000238662 0)
(1.19862 0.000143793 0)
(1.19976 8.1756e-05 0)
(1.20081 4.63087e-05 0)
(1.20178 2.52099e-05 0)
(1.20269 1.21776e-05 0)
(1.20355 5.96526e-06 0)
(1.20434 3.37351e-06 0)
(1.20509 1.29564e-06 0)
(1.20579 -7.25239e-09 0)
(1.20645 -7.77554e-08 0)
(1.20706 2.04403e-07 0)
(1.20764 9.60534e-08 0)
(1.20819 -2.55502e-07 0)
(1.20871 -7.30674e-07 0)
(1.2092 -1.31474e-06 0)
(1.20966 -1.49916e-06 0)
(1.2101 -9.37156e-07 0)
(1.21051 -2.86002e-07 0)
(1.2109 -2.81256e-07 0)
(1.21127 -6.61228e-07 0)
(1.21163 -7.20314e-07 0)
(1.21196 -4.68692e-07 0)
(1.21228 -1.88755e-07 0)
(1.21259 -1.67996e-07 0)
(1.21289 -2.30226e-07 0)
(1.21316 -6.8656e-07 0)
(1.21345 -7.03836e-07 0)
(1.2137 -1.12201e-06 0)
(1.21399 -3.37778e-07 0)
(1.2142 -1.39957e-06 0)
(1.21455 4.30888e-07 0)
(1.21469 -2.50187e-06 0)
(1.21517 3.05652e-07 0)
)
;

boundaryField
{
    upperWall
    {
        type            noSlip;
    }
    lowerWall
    {
        type            noSlip;
    }
    heatedWall
    {
        type            noSlip;
    }
    inlet
    {
        type            fixedValue;
        value           uniform (4.5 0 0);
    }
    outlet
    {
        type            pressureInletOutletVelocity;
        value           nonuniform List<vector> 
12
(
(1.24927 1.26412e-05 0)
(3.13543 2.71004e-05 0)
(4.54557 3.90946e-05 0)
(5.68108 4.68898e-05 0)
(6.53657 5.13865e-05 0)
(7.01992 5.16651e-05 0)
(6.99427 4.80152e-05 0)
(6.47276 4.08514e-05 0)
(5.59991 3.12087e-05 0)
(4.46371 2.01192e-05 0)
(3.06806 1.02434e-05 0)
(1.21517 3.05652e-07 0)
)
;
    }
    frontAndBack
    {
        type            empty;
    }
}


// ************************************************************************* //
