/*--------------------------------*- C++ -*----------------------------------*\
  =========                 |
  \\      /  F ield         | OpenFOAM: The Open Source CFD Toolbox
   \\    /   O peration     | Website:  https://openfoam.org
    \\  /    A nd           | Version:  7
     \\/     M anipulation  |
\*---------------------------------------------------------------------------*/
FoamFile
{
    version     2.0;
    format      ascii;
    class       volScalarField;
    location    "0.01";
    object      rho_0;
}
// * * * * * * * * * * * * * * * * * * * * * * * * * * * * * * * * * * * * * //

dimensions      [1 -3 0 0 0 0 0];

internalField   nonuniform List<scalar> 
27000
(
1.26511
1.2754
1.27712
1.27463
1.27601
1.27826
1.28165
1.28276
1.28111
1.27741
1.27371
1.27104
1.26961
1.26905
1.269
1.26917
1.26938
1.26954
1.26966
1.26973
1.26979
1.26984
1.26989
1.26995
1.27001
1.27008
1.27015
1.27023
1.2703
1.27038
1.27046
1.27055
1.27064
1.27073
1.27083
1.27093
1.27104
1.27116
1.27128
1.2714
1.25857
1.27183
1.2697
1.26745
1.26635
1.26665
1.26825
1.27055
1.2727
1.27395
1.27384
1.27228
1.26974
1.26701
1.26478
1.2634
1.26281
1.26273
1.26288
1.26306
1.2632
1.26329
1.26333
1.26337
1.26341
1.26346
1.26352
1.26359
1.26367
1.26376
1.26385
1.26395
1.26406
1.26417
1.26429
1.26441
1.26454
1.26467
1.26481
1.26495
1.26365
1.27457
1.27468
1.27135
1.27059
1.2703
1.27163
1.2733
1.27495
1.27572
1.27512
1.27282
1.26936
1.26577
1.263
1.26143
1.26089
1.26097
1.26128
1.26157
1.26177
1.2619
1.26197
1.26203
1.26209
1.26215
1.26223
1.26231
1.26239
1.26248
1.26257
1.26267
1.26277
1.26288
1.26298
1.26309
1.26321
1.26333
1.26345
1.26357
1.26045
1.27362
1.27104
1.26831
1.2667
1.26651
1.26752
1.26919
1.27088
1.27196
1.27176
1.26995
1.26689
1.26348
1.26064
1.25882
1.25798
1.25781
1.25795
1.25813
1.25828
1.25836
1.2584
1.25844
1.25847
1.25852
1.25857
1.25864
1.25872
1.25881
1.2589
1.259
1.25911
1.25922
1.25934
1.25946
1.25958
1.25972
1.25985
1.25999
1.26201
1.27432
1.27263
1.26943
1.26745
1.26684
1.26745
1.26869
1.26985
1.27025
1.26931
1.26685
1.26329
1.25953
1.25647
1.25453
1.25364
1.25345
1.25357
1.25375
1.25388
1.25395
1.25399
1.25402
1.25406
1.25412
1.25418
1.25426
1.25434
1.25443
1.25452
1.25462
1.25473
1.25484
1.25495
1.25507
1.25519
1.25532
1.25546
1.25559
1.26192
1.2743
1.27252
1.26937
1.26735
1.26676
1.26738
1.26864
1.26983
1.27024
1.2693
1.26685
1.26331
1.25956
1.2565
1.25457
1.25369
1.25349
1.2536
1.25377
1.2539
1.25397
1.25401
1.25403
1.25407
1.25412
1.25418
1.25425
1.25433
1.25442
1.25452
1.25462
1.25472
1.25484
1.25495
1.25507
1.2552
1.25533
1.25546
1.2556
1.26052
1.27369
1.2711
1.26835
1.26673
1.26653
1.26751
1.26917
1.27087
1.27194
1.27174
1.26995
1.26692
1.26353
1.26068
1.25886
1.25803
1.25786
1.25799
1.25818
1.25832
1.2584
1.25845
1.25847
1.25851
1.25855
1.25861
1.25868
1.25876
1.25885
1.25894
1.25904
1.25915
1.25926
1.25938
1.2595
1.25962
1.25975
1.25989
1.26003
1.26357
1.27453
1.2746
1.27125
1.27046
1.27012
1.27142
1.27307
1.2747
1.27541
1.27476
1.27246
1.26904
1.2655
1.26277
1.26122
1.2607
1.26079
1.2611
1.2614
1.2616
1.26173
1.2618
1.26186
1.26192
1.26199
1.26206
1.26214
1.26222
1.26231
1.26241
1.2625
1.2626
1.26271
1.26282
1.26293
1.26304
1.26316
1.26328
1.26341
1.25878
1.27194
1.26942
1.26689
1.26528
1.26508
1.2662
1.2681
1.26975
1.27049
1.27014
1.26877
1.2667
1.26448
1.26267
1.26155
1.26109
1.26108
1.26125
1.26145
1.26159
1.26168
1.26173
1.26177
1.26181
1.26186
1.26192
1.262
1.26208
1.26217
1.26227
1.26237
1.26248
1.26259
1.26271
1.26284
1.26297
1.2631
1.26323
1.26337
1.26102
1.26416
1.25869
1.25044
1.24573
1.24209
1.2399
1.23691
1.23288
1.22843
1.22489
1.22267
1.22158
1.22115
1.22105
1.2211
1.2212
1.22131
1.22141
1.22149
1.22156
1.22162
1.22169
1.22176
1.22183
1.22191
1.22199
1.22208
1.22217
1.22227
1.22236
1.22246
1.22257
1.22267
1.22279
1.2229
1.22302
1.22315
1.22328
1.22341
1.15011
1.1566
1.15661
1.16051
1.16301
1.16825
1.17378
1.17816
1.17874
1.17659
1.17397
1.17241
1.17178
1.17164
1.17167
1.17179
1.17192
1.17203
1.17211
1.17216
1.17219
1.17221
1.17224
1.17228
1.17234
1.17241
1.17247
1.17255
1.17263
1.17273
1.17282
1.17292
1.17302
1.17313
1.17325
1.17337
1.1735
1.17363
1.17376
1.1739
1.15635
1.1634
1.16796
1.17427
1.17984
1.18671
1.19394
1.20081
1.20576
1.20874
1.21053
1.21176
1.21233
1.21211
1.21142
1.21072
1.21027
1.21012
1.21014
1.21023
1.21031
1.21035
1.21038
1.2104
1.21043
1.21047
1.21052
1.21058
1.21065
1.21073
1.21082
1.21092
1.21102
1.21113
1.21124
1.21136
1.21148
1.21161
1.21174
1.21188
1.15201
1.15956
1.16133
1.16711
1.17119
1.1771
1.18286
1.18867
1.19347
1.19722
1.1996
1.20045
1.19967
1.19783
1.19577
1.19423
1.19342
1.19319
1.19327
1.19343
1.19356
1.19364
1.19369
1.19372
1.19375
1.19379
1.19385
1.19391
1.19399
1.19407
1.19416
1.19426
1.19437
1.19448
1.1946
1.19472
1.19485
1.19498
1.19512
1.19526
1.15466
1.1613
1.1661
1.17267
1.17884
1.18624
1.19352
1.20023
1.20583
1.21051
1.21401
1.21595
1.21615
1.21508
1.21355
1.21226
1.21154
1.21132
1.21139
1.21154
1.21168
1.21176
1.2118
1.21183
1.21185
1.21188
1.21193
1.21199
1.21205
1.21213
1.21221
1.2123
1.2124
1.2125
1.21261
1.21272
1.21284
1.21297
1.2131
1.21323
1.15344
1.16034
1.16394
1.17033
1.17628
1.18357
1.19088
1.19771
1.20347
1.20823
1.2117
1.21352
1.2136
1.21244
1.21084
1.20953
1.2088
1.20858
1.20867
1.20883
1.20897
1.20905
1.2091
1.20912
1.20915
1.20918
1.20923
1.20929
1.20936
1.20943
1.20952
1.20961
1.20971
1.20981
1.20992
1.21004
1.21016
1.21028
1.21041
1.21055
1.15348
1.16033
1.16402
1.17037
1.17639
1.18367
1.19098
1.1978
1.20356
1.20832
1.21179
1.21362
1.2137
1.21253
1.21093
1.2096
1.20886
1.20864
1.20872
1.20888
1.20902
1.20911
1.20915
1.20918
1.20921
1.20924
1.20929
1.20935
1.20941
1.20949
1.20958
1.20967
1.20977
1.20987
1.20998
1.21009
1.21021
1.21034
1.21047
1.2106
1.15463
1.16127
1.16606
1.17264
1.17881
1.18621
1.1935
1.20023
1.20586
1.21052
1.214
1.21592
1.21612
1.21506
1.21354
1.21227
1.21156
1.21135
1.21143
1.21159
1.21172
1.21181
1.21185
1.21188
1.2119
1.21194
1.21198
1.21204
1.2121
1.21218
1.21226
1.21235
1.21245
1.21255
1.21266
1.21278
1.2129
1.21302
1.21315
1.21328
1.15204
1.15957
1.16138
1.16721
1.17133
1.17724
1.18298
1.18878
1.19347
1.19703
1.19922
1.19998
1.19921
1.19742
1.19541
1.19389
1.19309
1.19286
1.19294
1.1931
1.19323
1.19331
1.19335
1.19339
1.19342
1.19346
1.19351
1.19357
1.19365
1.19373
1.19383
1.19393
1.19403
1.19414
1.19426
1.19438
1.19451
1.19465
1.19478
1.19492
1.15626
1.16333
1.16781
1.17403
1.17922
1.18548
1.192
1.198
1.20172
1.20335
1.20423
1.2052
1.20594
1.20606
1.20564
1.20508
1.20467
1.20451
1.20452
1.20459
1.20465
1.2047
1.20473
1.20475
1.20477
1.20481
1.20486
1.20493
1.20501
1.20508
1.20517
1.20527
1.20537
1.20548
1.20559
1.20571
1.20583
1.20596
1.20609
1.20623
1.15004
1.15631
1.15496
1.15734
1.15723
1.15904
1.16051
1.16093
1.15839
1.15462
1.15163
1.1503
1.14993
1.14989
1.14989
1.1499
1.14993
1.14999
1.15005
1.1501
1.15014
1.15019
1.15024
1.15028
1.15035
1.15042
1.15051
1.1506
1.15069
1.15079
1.15089
1.151
1.15111
1.15123
1.15135
1.15148
1.15161
1.15174
1.15188
1.15202
1.15472
1.15467
1.15539
1.15704
1.15991
1.1643
1.16873
1.17256
1.17583
1.17851
1.17969
1.17864
1.17562
1.17183
1.16849
1.16627
1.16521
1.16496
1.16511
1.16537
1.16559
1.16575
1.16585
1.16593
1.166
1.16606
1.16613
1.1662
1.16628
1.16637
1.16646
1.16655
1.16665
1.16675
1.16686
1.16697
1.16709
1.16721
1.16733
1.16746
1.15481
1.15479
1.15579
1.15777
1.16079
1.16545
1.17054
1.1751
1.1789
1.18231
1.18514
1.18662
1.18611
1.18386
1.18087
1.17822
1.17648
1.17567
1.17549
1.17561
1.1758
1.17596
1.17607
1.17614
1.1762
1.17625
1.17631
1.17637
1.17643
1.1765
1.17658
1.17667
1.17676
1.17685
1.17695
1.17705
1.17716
1.17727
1.17739
1.17751
1.15471
1.15467
1.1555
1.15723
1.16002
1.16439
1.169
1.17297
1.17633
1.17952
1.18207
1.18292
1.18145
1.17822
1.17448
1.17139
1.16948
1.16864
1.1685
1.16867
1.16889
1.16908
1.1692
1.16929
1.16936
1.16942
1.16948
1.16954
1.16961
1.16969
1.16977
1.16986
1.16996
1.17005
1.17016
1.17027
1.17038
1.17049
1.17061
1.17074
1.15481
1.15473
1.15566
1.15753
1.16054
1.16521
1.17018
1.17453
1.17828
1.18188
1.18488
1.18623
1.18531
1.18261
1.17932
1.17656
1.17483
1.17408
1.17397
1.17415
1.17437
1.17454
1.17466
1.17474
1.1748
1.17485
1.17491
1.17496
1.17503
1.1751
1.17518
1.17526
1.17535
1.17544
1.17554
1.17564
1.17575
1.17586
1.17597
1.17609
1.15476
1.15469
1.15558
1.15737
1.16029
1.16484
1.16969
1.17391
1.17756
1.18105
1.1839
1.18507
1.18396
1.1811
1.1777
1.17487
1.17313
1.1724
1.17231
1.17249
1.17272
1.1729
1.17303
1.1731
1.17316
1.17322
1.17327
1.17333
1.1734
1.17347
1.17355
1.17364
1.17373
1.17382
1.17392
1.17402
1.17413
1.17424
1.17436
1.17448
1.15476
1.15468
1.15558
1.15737
1.16029
1.16485
1.1697
1.17393
1.17757
1.18106
1.18392
1.18508
1.18398
1.18112
1.17772
1.17488
1.17313
1.17239
1.1723
1.17248
1.17271
1.1729
1.17302
1.1731
1.17316
1.17322
1.17327
1.17333
1.1734
1.17347
1.17355
1.17364
1.17372
1.17382
1.17392
1.17402
1.17413
1.17424
1.17435
1.17447
1.15481
1.15472
1.15565
1.15753
1.16054
1.1652
1.17018
1.17453
1.17829
1.1819
1.18491
1.18626
1.18535
1.18267
1.17939
1.17663
1.17491
1.17417
1.17407
1.17424
1.17446
1.17464
1.17476
1.17484
1.17489
1.17495
1.175
1.17506
1.17512
1.1752
1.17527
1.17536
1.17544
1.17554
1.17563
1.17573
1.17584
1.17595
1.17607
1.17619
1.15471
1.15467
1.1555
1.15723
1.16002
1.1644
1.16902
1.173
1.17637
1.17955
1.18209
1.18294
1.18149
1.17828
1.17455
1.17147
1.16956
1.16873
1.16858
1.16875
1.16898
1.16916
1.16929
1.16937
1.16944
1.1695
1.16956
1.16963
1.1697
1.16978
1.16986
1.16995
1.17004
1.17014
1.17024
1.17035
1.17046
1.17058
1.1707
1.17082
1.15481
1.15478
1.15578
1.15777
1.16076
1.16537
1.17042
1.17495
1.17866
1.1819
1.18454
1.18588
1.1853
1.18306
1.18011
1.1775
1.17579
1.175
1.17483
1.17496
1.17515
1.17531
1.17542
1.1755
1.17556
1.17561
1.17566
1.17572
1.17579
1.17586
1.17594
1.17603
1.17612
1.17621
1.17631
1.17642
1.17653
1.17664
1.17676
1.17688
1.15472
1.15466
1.15536
1.15697
1.15964
1.16366
1.16766
1.17103
1.17377
1.17592
1.17674
1.17561
1.17278
1.16932
1.16629
1.16431
1.16338
1.16318
1.16334
1.16359
1.1638
1.16396
1.16407
1.16415
1.16422
1.16429
1.16437
1.16445
1.16453
1.16462
1.16471
1.16481
1.16491
1.16502
1.16513
1.16524
1.16536
1.16548
1.16561
1.16574
1.15471
1.15448
1.1553
1.15663
1.15923
1.16334
1.16758
1.17106
1.17411
1.17712
1.17923
1.17912
1.17641
1.17209
1.16769
1.16441
1.16259
1.16197
1.16203
1.16234
1.16266
1.16291
1.16308
1.16321
1.1633
1.16339
1.16347
1.16355
1.16364
1.16373
1.16383
1.16392
1.16403
1.16413
1.16424
1.16435
1.16447
1.16459
1.16471
1.16484
1.15471
1.15448
1.15531
1.15662
1.15914
1.16318
1.16745
1.17093
1.17392
1.1769
1.17923
1.17956
1.17729
1.17319
1.16875
1.16525
1.1632
1.16239
1.16236
1.16264
1.16296
1.16322
1.1634
1.16352
1.16362
1.16371
1.16379
1.16387
1.16396
1.16405
1.16414
1.16423
1.16433
1.16444
1.16455
1.16466
1.16477
1.16489
1.16501
1.16514
1.15471
1.15448
1.1553
1.15662
1.15917
1.16323
1.16747
1.17095
1.17395
1.17694
1.1792
1.1794
1.17699
1.17278
1.1683
1.16482
1.16279
1.16202
1.16201
1.1623
1.16263
1.16289
1.16307
1.1632
1.1633
1.16338
1.16347
1.16355
1.16364
1.16373
1.16382
1.16392
1.16402
1.16413
1.16423
1.16435
1.16446
1.16458
1.16471
1.16483
1.15471
1.15448
1.1553
1.15661
1.15915
1.1632
1.16745
1.17094
1.17395
1.17695
1.17925
1.17951
1.17715
1.17297
1.1685
1.16501
1.16298
1.1622
1.16219
1.16248
1.16281
1.16307
1.16325
1.16337
1.16347
1.16356
1.16364
1.16372
1.16381
1.1639
1.16399
1.16409
1.16419
1.16429
1.1644
1.16451
1.16463
1.16474
1.16487
1.16499
1.15471
1.15448
1.1553
1.15662
1.15916
1.16322
1.16747
1.17095
1.17396
1.17697
1.17924
1.17946
1.17706
1.17286
1.16838
1.1649
1.16287
1.16211
1.1621
1.16239
1.16272
1.16298
1.16316
1.16329
1.16338
1.16347
1.16355
1.16364
1.16372
1.16381
1.16391
1.164
1.1641
1.16421
1.16432
1.16443
1.16454
1.16466
1.16478
1.16491
1.15471
1.15448
1.1553
1.15662
1.15916
1.16322
1.16747
1.17096
1.17397
1.17697
1.17924
1.17946
1.17707
1.17286
1.16839
1.1649
1.16288
1.16211
1.1621
1.1624
1.16273
1.16299
1.16317
1.16329
1.16339
1.16348
1.16356
1.16364
1.16373
1.16382
1.16391
1.16401
1.16411
1.16421
1.16432
1.16443
1.16455
1.16467
1.16479
1.16492
1.15471
1.15448
1.1553
1.15661
1.15914
1.1632
1.16745
1.17094
1.17395
1.17696
1.17926
1.17953
1.17718
1.173
1.16854
1.16505
1.16301
1.16224
1.16223
1.16252
1.16284
1.1631
1.16328
1.16341
1.16351
1.16359
1.16367
1.16376
1.16384
1.16393
1.16403
1.16412
1.16422
1.16433
1.16443
1.16455
1.16466
1.16478
1.1649
1.16503
1.15471
1.15448
1.1553
1.15662
1.15917
1.16323
1.16748
1.17096
1.17396
1.17696
1.17923
1.17944
1.17704
1.17284
1.16837
1.16489
1.16287
1.1621
1.16209
1.16238
1.16271
1.16297
1.16315
1.16328
1.16338
1.16346
1.16355
1.16363
1.16372
1.16381
1.1639
1.164
1.1641
1.16421
1.16431
1.16443
1.16454
1.16466
1.16479
1.16491
1.15471
1.15448
1.15531
1.15662
1.15913
1.16318
1.16745
1.17096
1.17395
1.17695
1.17928
1.17963
1.17739
1.1733
1.16887
1.16538
1.16333
1.16253
1.1625
1.16278
1.1631
1.16336
1.16354
1.16367
1.16377
1.16385
1.16393
1.16402
1.1641
1.16419
1.16428
1.16438
1.16448
1.16458
1.16469
1.1648
1.16491
1.16503
1.16516
1.16528
1.15471
1.15448
1.1553
1.15663
1.1592
1.16323
1.1674
1.17083
1.17382
1.17675
1.17879
1.1787
1.1761
1.17194
1.16773
1.16458
1.16285
1.16226
1.16233
1.16264
1.16296
1.1632
1.16337
1.16349
1.16358
1.16366
1.16375
1.16383
1.16392
1.16401
1.1641
1.1642
1.1643
1.1644
1.16451
1.16462
1.16474
1.16486
1.16498
1.16511
1.15462
1.15438
1.15522
1.15654
1.15915
1.16322
1.16747
1.17097
1.17407
1.17707
1.17913
1.17893
1.17615
1.17182
1.16751
1.16435
1.16268
1.16218
1.16231
1.16267
1.16301
1.16326
1.16343
1.16355
1.16365
1.16373
1.16382
1.1639
1.16399
1.16409
1.16418
1.16428
1.16438
1.16449
1.1646
1.16471
1.16483
1.16495
1.16507
1.1652
1.15462
1.15438
1.15522
1.15653
1.15909
1.16312
1.16736
1.17085
1.17389
1.17687
1.17904
1.17909
1.17656
1.17234
1.16796
1.16465
1.16281
1.16218
1.16226
1.1626
1.16295
1.16321
1.16339
1.16352
1.16362
1.1637
1.16379
1.16388
1.16397
1.16406
1.16415
1.16425
1.16436
1.16446
1.16457
1.16469
1.1648
1.16492
1.16505
1.16518
1.15462
1.15438
1.15522
1.15653
1.15909
1.16313
1.16737
1.17087
1.17392
1.1769
1.17906
1.17909
1.17653
1.17229
1.16791
1.1646
1.16277
1.16216
1.16224
1.16259
1.16293
1.1632
1.16338
1.1635
1.1636
1.16369
1.16378
1.16386
1.16395
1.16405
1.16414
1.16424
1.16434
1.16445
1.16456
1.16467
1.16479
1.16491
1.16504
1.16517
1.15462
1.15438
1.15522
1.15653
1.1591
1.16313
1.16738
1.17087
1.17393
1.17692
1.17907
1.17909
1.17652
1.17226
1.16788
1.16457
1.16274
1.16213
1.16222
1.16257
1.16291
1.16318
1.16336
1.16348
1.16358
1.16367
1.16376
1.16384
1.16393
1.16403
1.16412
1.16422
1.16432
1.16443
1.16454
1.16465
1.16477
1.16489
1.16502
1.16514
1.15462
1.15438
1.15522
1.15653
1.1591
1.16313
1.16738
1.17088
1.17393
1.17692
1.17908
1.17909
1.17651
1.17225
1.16787
1.16456
1.16273
1.16213
1.16222
1.16256
1.16291
1.16317
1.16335
1.16348
1.16358
1.16367
1.16375
1.16384
1.16393
1.16402
1.16412
1.16422
1.16432
1.16443
1.16454
1.16465
1.16477
1.16489
1.16501
1.16514
1.15462
1.15438
1.15522
1.15653
1.1591
1.16313
1.16738
1.17088
1.17393
1.17692
1.17908
1.17909
1.17651
1.17226
1.16787
1.16457
1.16274
1.16213
1.16222
1.16257
1.16292
1.16318
1.16336
1.16348
1.16358
1.16367
1.16376
1.16384
1.16393
1.16403
1.16412
1.16422
1.16432
1.16443
1.16454
1.16465
1.16477
1.16489
1.16502
1.16515
1.15462
1.15438
1.15522
1.15653
1.15909
1.16313
1.16738
1.17088
1.17393
1.17692
1.17908
1.1791
1.17653
1.17228
1.1679
1.16459
1.16276
1.16215
1.16224
1.16259
1.16294
1.1632
1.16338
1.1635
1.1636
1.16369
1.16378
1.16386
1.16395
1.16405
1.16414
1.16424
1.16434
1.16445
1.16456
1.16467
1.16479
1.16491
1.16504
1.16517
1.15462
1.15438
1.15522
1.15653
1.15909
1.16313
1.16737
1.17087
1.17392
1.17691
1.17908
1.17912
1.17656
1.17233
1.16795
1.16465
1.16282
1.16221
1.16229
1.16264
1.16298
1.16325
1.16343
1.16355
1.16365
1.16374
1.16383
1.16391
1.164
1.16409
1.16419
1.16429
1.16439
1.1645
1.16461
1.16472
1.16484
1.16496
1.16508
1.16521
1.15462
1.15438
1.15522
1.15653
1.15909
1.16312
1.16737
1.17087
1.17391
1.1769
1.17908
1.17915
1.17663
1.17242
1.16805
1.16474
1.1629
1.16227
1.16235
1.16269
1.16304
1.1633
1.16348
1.16361
1.16371
1.16379
1.16388
1.16397
1.16406
1.16415
1.16424
1.16434
1.16445
1.16455
1.16466
1.16478
1.16489
1.16501
1.16514
1.16527
1.15462
1.15438
1.15522
1.15654
1.15912
1.16314
1.16732
1.17077
1.17382
1.17676
1.17877
1.17858
1.17589
1.1717
1.16752
1.16447
1.16285
1.16237
1.16252
1.16286
1.16319
1.16344
1.16361
1.16373
1.16382
1.16391
1.16399
1.16408
1.16416
1.16426
1.16435
1.16445
1.16455
1.16466
1.16476
1.16488
1.16499
1.16511
1.16524
1.16537
1.15455
1.15431
1.15515
1.15648
1.15909
1.16316
1.16742
1.17095
1.17407
1.17706
1.17904
1.17876
1.17593
1.17163
1.1674
1.16436
1.1628
1.16237
1.16255
1.16292
1.16326
1.16351
1.16367
1.16379
1.16389
1.16397
1.16406
1.16415
1.16424
1.16433
1.16443
1.16453
1.16463
1.16474
1.16485
1.16496
1.16508
1.1652
1.16532
1.16545
1.15455
1.15431
1.15516
1.15647
1.15903
1.16306
1.16731
1.17083
1.17389
1.17685
1.17895
1.17892
1.17634
1.17215
1.16786
1.16468
1.16295
1.1624
1.16253
1.16288
1.16323
1.16348
1.16366
1.16378
1.16388
1.16397
1.16406
1.16415
1.16424
1.16433
1.16443
1.16453
1.16463
1.16474
1.16485
1.16496
1.16508
1.1652
1.16532
1.16545
1.15455
1.15431
1.15515
1.15647
1.15904
1.16307
1.16732
1.17084
1.17391
1.17688
1.17897
1.17892
1.17633
1.17212
1.16783
1.16465
1.16292
1.16239
1.16251
1.16287
1.16322
1.16348
1.16365
1.16378
1.16387
1.16396
1.16405
1.16414
1.16423
1.16432
1.16442
1.16452
1.16462
1.16473
1.16484
1.16495
1.16507
1.16519
1.16532
1.16544
1.15455
1.15431
1.15515
1.15647
1.15904
1.16307
1.16733
1.17085
1.17392
1.17689
1.17898
1.17892
1.17631
1.1721
1.16781
1.16463
1.16291
1.16237
1.1625
1.16286
1.16321
1.16347
1.16364
1.16377
1.16386
1.16395
1.16404
1.16413
1.16422
1.16431
1.16441
1.16451
1.16461
1.16472
1.16483
1.16494
1.16506
1.16518
1.16531
1.16544
1.15455
1.15431
1.15515
1.15647
1.15904
1.16307
1.16733
1.17085
1.17392
1.17689
1.17898
1.17892
1.17631
1.17209
1.16781
1.16462
1.1629
1.16237
1.1625
1.16286
1.16321
1.16347
1.16364
1.16376
1.16386
1.16395
1.16404
1.16413
1.16422
1.16431
1.16441
1.16451
1.16461
1.16472
1.16483
1.16494
1.16506
1.16518
1.1653
1.16543
1.15455
1.15431
1.15515
1.15647
1.15904
1.16307
1.16733
1.17085
1.17392
1.17689
1.17898
1.17892
1.17631
1.1721
1.16781
1.16462
1.16291
1.16237
1.1625
1.16286
1.16321
1.16347
1.16365
1.16377
1.16387
1.16395
1.16404
1.16413
1.16422
1.16431
1.16441
1.16451
1.16461
1.16472
1.16483
1.16494
1.16506
1.16518
1.16531
1.16544
1.15455
1.15431
1.15515
1.15647
1.15904
1.16307
1.16733
1.17085
1.17392
1.17689
1.17898
1.17893
1.17632
1.17211
1.16782
1.16464
1.16292
1.16239
1.16252
1.16287
1.16322
1.16348
1.16366
1.16378
1.16388
1.16397
1.16405
1.16414
1.16423
1.16433
1.16442
1.16452
1.16463
1.16473
1.16484
1.16496
1.16507
1.1652
1.16532
1.16545
1.15455
1.15431
1.15515
1.15647
1.15904
1.16307
1.16732
1.17084
1.17391
1.17688
1.17898
1.17894
1.17635
1.17215
1.16786
1.16468
1.16295
1.16241
1.16254
1.1629
1.16325
1.1635
1.16368
1.1638
1.1639
1.16399
1.16408
1.16416
1.16426
1.16435
1.16445
1.16455
1.16465
1.16476
1.16487
1.16498
1.1651
1.16522
1.16534
1.16547
1.15455
1.15431
1.15516
1.15647
1.15903
1.16306
1.16732
1.17084
1.17391
1.17688
1.17899
1.17896
1.17639
1.1722
1.16792
1.16473
1.163
1.16245
1.16257
1.16293
1.16327
1.16353
1.16371
1.16383
1.16393
1.16402
1.16411
1.16419
1.16428
1.16438
1.16447
1.16457
1.16468
1.16478
1.16489
1.16501
1.16513
1.16525
1.16537
1.1655
1.15455
1.15431
1.15515
1.15648
1.15907
1.16308
1.16727
1.17075
1.17381
1.17674
1.17867
1.17839
1.17564
1.17146
1.16736
1.16442
1.16291
1.1625
1.16268
1.16304
1.16338
1.16362
1.16378
1.1639
1.16399
1.16408
1.16416
1.16425
1.16434
1.16443
1.16453
1.16462
1.16473
1.16483
1.16494
1.16506
1.16517
1.16529
1.16542
1.16555
1.1545
1.15426
1.1551
1.15642
1.15904
1.16311
1.16738
1.17092
1.17405
1.17701
1.17896
1.17865
1.17582
1.17155
1.16738
1.16441
1.16289
1.16249
1.16268
1.16305
1.16339
1.16363
1.1638
1.16391
1.16401
1.16409
1.16418
1.16427
1.16436
1.16445
1.16455
1.16465
1.16476
1.16486
1.16497
1.16509
1.16521
1.16533
1.16545
1.16558
1.15449
1.15425
1.1551
1.15642
1.15898
1.163
1.16727
1.1708
1.17387
1.17681
1.17887
1.17881
1.17623
1.17207
1.16785
1.16472
1.16304
1.16253
1.16267
1.16302
1.16337
1.16362
1.16379
1.16391
1.16401
1.1641
1.16419
1.16427
1.16437
1.16446
1.16456
1.16466
1.16476
1.16487
1.16498
1.16509
1.16521
1.16533
1.16546
1.16559
1.15449
1.15425
1.1551
1.15642
1.15898
1.16301
1.16728
1.17081
1.17388
1.17682
1.17888
1.17881
1.17622
1.17205
1.16783
1.1647
1.16303
1.16252
1.16266
1.16302
1.16336
1.16362
1.16379
1.16391
1.16401
1.16409
1.16418
1.16427
1.16436
1.16446
1.16455
1.16465
1.16476
1.16486
1.16498
1.16509
1.16521
1.16533
1.16545
1.16558
1.15449
1.15425
1.1551
1.15642
1.15898
1.16302
1.16729
1.17082
1.17389
1.17683
1.17889
1.1788
1.17621
1.17204
1.16781
1.16469
1.16302
1.16251
1.16265
1.16301
1.16336
1.16361
1.16378
1.1639
1.164
1.16409
1.16418
1.16427
1.16436
1.16445
1.16455
1.16465
1.16475
1.16486
1.16497
1.16509
1.1652
1.16533
1.16545
1.16558
1.15449
1.15425
1.1551
1.15642
1.15898
1.16302
1.16729
1.17082
1.17389
1.17684
1.17889
1.17881
1.17621
1.17203
1.16781
1.16468
1.16301
1.16251
1.16265
1.16301
1.16336
1.16361
1.16378
1.1639
1.164
1.16409
1.16418
1.16426
1.16436
1.16445
1.16455
1.16465
1.16475
1.16486
1.16497
1.16508
1.1652
1.16532
1.16545
1.16558
1.15449
1.15425
1.1551
1.15642
1.15898
1.16302
1.16729
1.17082
1.17389
1.17684
1.17889
1.17881
1.17621
1.17204
1.16781
1.16469
1.16302
1.16251
1.16265
1.16301
1.16336
1.16361
1.16378
1.16391
1.164
1.16409
1.16418
1.16427
1.16436
1.16445
1.16455
1.16465
1.16475
1.16486
1.16497
1.16509
1.1652
1.16533
1.16545
1.16558
1.15449
1.15425
1.1551
1.15642
1.15898
1.16302
1.16729
1.17082
1.17389
1.17684
1.17889
1.17881
1.17622
1.17204
1.16782
1.1647
1.16303
1.16252
1.16266
1.16302
1.16337
1.16362
1.16379
1.16391
1.16401
1.1641
1.16418
1.16427
1.16436
1.16446
1.16456
1.16466
1.16476
1.16487
1.16498
1.16509
1.16521
1.16533
1.16546
1.16559
1.15449
1.15425
1.1551
1.15642
1.15898
1.16301
1.16728
1.17081
1.17389
1.17683
1.17889
1.17882
1.17624
1.17207
1.16785
1.16472
1.16305
1.16254
1.16267
1.16303
1.16338
1.16363
1.1638
1.16392
1.16402
1.16411
1.1642
1.16429
1.16438
1.16447
1.16457
1.16467
1.16477
1.16488
1.16499
1.16511
1.16522
1.16535
1.16547
1.1656
1.15449
1.15425
1.1551
1.15642
1.15898
1.16301
1.16728
1.17081
1.17388
1.17683
1.17889
1.17884
1.17627
1.17211
1.16789
1.16476
1.16307
1.16256
1.16269
1.16305
1.16339
1.16364
1.16382
1.16394
1.16404
1.16412
1.16421
1.1643
1.16439
1.16449
1.16458
1.16468
1.16479
1.1649
1.16501
1.16512
1.16524
1.16536
1.16548
1.16561
1.1545
1.15426
1.1551
1.15642
1.15901
1.16303
1.16723
1.17072
1.17379
1.17668
1.17858
1.17827
1.17552
1.17136
1.16732
1.16443
1.16297
1.16259
1.16278
1.16314
1.16347
1.16371
1.16387
1.16398
1.16408
1.16416
1.16425
1.16433
1.16442
1.16452
1.16461
1.16471
1.16482
1.16492
1.16503
1.16515
1.16526
1.16538
1.16551
1.16564
1.15445
1.15421
1.15505
1.15638
1.15899
1.16306
1.16734
1.17089
1.17401
1.17696
1.17889
1.17857
1.17577
1.17153
1.16739
1.16445
1.16295
1.16256
1.16275
1.16312
1.16345
1.16369
1.16385
1.16397
1.16406
1.16415
1.16423
1.16432
1.16442
1.16451
1.16461
1.16471
1.16481
1.16492
1.16503
1.16515
1.16526
1.16539
1.16551
1.16564
1.15445
1.15421
1.15506
1.15637
1.15893
1.16296
1.16723
1.17077
1.17383
1.17675
1.17879
1.17873
1.17618
1.17205
1.16787
1.16477
1.16311
1.1626
1.16274
1.16309
1.16343
1.16368
1.16385
1.16397
1.16407
1.16416
1.16424
1.16433
1.16442
1.16452
1.16462
1.16472
1.16482
1.16493
1.16504
1.16516
1.16527
1.1654
1.16552
1.16565
1.15445
1.15421
1.15506
1.15637
1.15893
1.16296
1.16724
1.17078
1.17385
1.17677
1.17881
1.17873
1.17617
1.17203
1.16785
1.16475
1.1631
1.16259
1.16273
1.16309
1.16343
1.16368
1.16385
1.16397
1.16407
1.16415
1.16424
1.16433
1.16442
1.16452
1.16461
1.16472
1.16482
1.16493
1.16504
1.16515
1.16527
1.16539
1.16552
1.16565
1.15445
1.15421
1.15506
1.15637
1.15893
1.16297
1.16725
1.17079
1.17386
1.17678
1.17881
1.17873
1.17616
1.17202
1.16783
1.16474
1.16309
1.16259
1.16273
1.16309
1.16343
1.16368
1.16385
1.16397
1.16406
1.16415
1.16424
1.16433
1.16442
1.16451
1.16461
1.16471
1.16482
1.16493
1.16504
1.16515
1.16527
1.16539
1.16552
1.16565
1.15445
1.15421
1.15506
1.15637
1.15893
1.16297
1.16725
1.17079
1.17386
1.17678
1.17881
1.17873
1.17616
1.17202
1.16783
1.16474
1.16309
1.16259
1.16273
1.16309
1.16343
1.16368
1.16385
1.16397
1.16406
1.16415
1.16424
1.16433
1.16442
1.16451
1.16461
1.16471
1.16482
1.16492
1.16504
1.16515
1.16527
1.16539
1.16552
1.16565
1.15445
1.15421
1.15506
1.15637
1.15893
1.16297
1.16725
1.17079
1.17386
1.17678
1.17881
1.17873
1.17616
1.17202
1.16783
1.16474
1.16309
1.16259
1.16273
1.16309
1.16343
1.16368
1.16385
1.16397
1.16406
1.16415
1.16424
1.16433
1.16442
1.16452
1.16461
1.16471
1.16482
1.16493
1.16504
1.16515
1.16527
1.16539
1.16552
1.16565
1.15445
1.15421
1.15506
1.15637
1.15893
1.16297
1.16725
1.17079
1.17386
1.17678
1.17881
1.17873
1.17616
1.17203
1.16784
1.16475
1.16309
1.16259
1.16274
1.16309
1.16343
1.16368
1.16385
1.16397
1.16407
1.16416
1.16424
1.16433
1.16442
1.16452
1.16462
1.16472
1.16482
1.16493
1.16504
1.16516
1.16527
1.1654
1.16552
1.16565
1.15445
1.15421
1.15506
1.15637
1.15893
1.16296
1.16724
1.17079
1.17385
1.17677
1.17881
1.17874
1.17618
1.17205
1.16786
1.16476
1.16311
1.1626
1.16274
1.1631
1.16344
1.16369
1.16386
1.16398
1.16407
1.16416
1.16425
1.16434
1.16443
1.16452
1.16462
1.16472
1.16483
1.16494
1.16505
1.16516
1.16528
1.1654
1.16553
1.16566
1.15445
1.15421
1.15506
1.15637
1.15893
1.16296
1.16724
1.17079
1.17385
1.17677
1.17882
1.17876
1.17621
1.17208
1.16789
1.16479
1.16313
1.16262
1.16275
1.16311
1.16345
1.1637
1.16386
1.16398
1.16408
1.16417
1.16426
1.16435
1.16444
1.16453
1.16463
1.16473
1.16484
1.16494
1.16505
1.16517
1.16529
1.16541
1.16553
1.16566
1.15445
1.15421
1.15505
1.15638
1.15896
1.16298
1.1672
1.17069
1.17375
1.17662
1.1785
1.17818
1.17545
1.17133
1.16732
1.16446
1.16301
1.16264
1.16283
1.16319
1.16352
1.16375
1.16391
1.16402
1.16411
1.1642
1.16428
1.16437
1.16446
1.16456
1.16465
1.16475
1.16486
1.16496
1.16507
1.16519
1.1653
1.16543
1.16555
1.16568
1.15441
1.15417
1.15501
1.15634
1.15894
1.16302
1.16731
1.17087
1.17398
1.1769
1.17882
1.17852
1.17574
1.17153
1.16742
1.16448
1.16299
1.1626
1.16279
1.16315
1.16348
1.16372
1.16387
1.16399
1.16408
1.16417
1.16425
1.16434
1.16443
1.16453
1.16463
1.16473
1.16483
1.16494
1.16505
1.16517
1.16529
1.16541
1.16553
1.16566
1.15441
1.15417
1.15502
1.15633
1.15888
1.16292
1.1672
1.17075
1.1738
1.1767
1.17873
1.17868
1.17615
1.17205
1.16789
1.1648
1.16315
1.16264
1.16278
1.16313
1.16346
1.16371
1.16387
1.16399
1.16409
1.16417
1.16426
1.16435
1.16444
1.16454
1.16464
1.16474
1.16484
1.16495
1.16506
1.16518
1.1653
1.16542
1.16554
1.16567
1.15441
1.15417
1.15502
1.15633
1.15889
1.16292
1.16721
1.17076
1.17381
1.17671
1.17874
1.17868
1.17614
1.17204
1.16787
1.16479
1.16314
1.16264
1.16277
1.16312
1.16346
1.16371
1.16387
1.16399
1.16409
1.16417
1.16426
1.16435
1.16444
1.16454
1.16464
1.16474
1.16484
1.16495
1.16506
1.16518
1.1653
1.16542
1.16554
1.16567
1.15441
1.15417
1.15502
1.15633
1.15889
1.16293
1.16722
1.17076
1.17382
1.17672
1.17875
1.17868
1.17613
1.17202
1.16786
1.16478
1.16313
1.16263
1.16277
1.16312
1.16346
1.16371
1.16387
1.16399
1.16409
1.16417
1.16426
1.16435
1.16444
1.16454
1.16463
1.16474
1.16484
1.16495
1.16506
1.16518
1.16529
1.16542
1.16554
1.16567
1.15441
1.15417
1.15502
1.15633
1.15889
1.16293
1.16722
1.17076
1.17382
1.17672
1.17875
1.17868
1.17613
1.17202
1.16786
1.16478
1.16313
1.16263
1.16277
1.16312
1.16346
1.16371
1.16387
1.16399
1.16409
1.16417
1.16426
1.16435
1.16444
1.16454
1.16463
1.16474
1.16484
1.16495
1.16506
1.16518
1.16529
1.16542
1.16554
1.16567
1.15441
1.15417
1.15502
1.15633
1.15889
1.16293
1.16722
1.17076
1.17382
1.17672
1.17875
1.17868
1.17613
1.17202
1.16786
1.16478
1.16313
1.16263
1.16277
1.16312
1.16346
1.16371
1.16387
1.16399
1.16409
1.16417
1.16426
1.16435
1.16444
1.16454
1.16464
1.16474
1.16484
1.16495
1.16506
1.16518
1.1653
1.16542
1.16554
1.16567
1.15441
1.15417
1.15502
1.15633
1.15889
1.16293
1.16722
1.17076
1.17382
1.17672
1.17875
1.17868
1.17613
1.17203
1.16786
1.16478
1.16314
1.16264
1.16277
1.16313
1.16346
1.16371
1.16387
1.16399
1.16409
1.16418
1.16426
1.16435
1.16444
1.16454
1.16464
1.16474
1.16484
1.16495
1.16506
1.16518
1.1653
1.16542
1.16555
1.16567
1.15441
1.15417
1.15502
1.15633
1.15889
1.16292
1.16721
1.17076
1.17381
1.17671
1.17875
1.17869
1.17615
1.17205
1.16788
1.1648
1.16315
1.16264
1.16278
1.16313
1.16346
1.16371
1.16388
1.164
1.16409
1.16418
1.16427
1.16436
1.16445
1.16454
1.16464
1.16474
1.16485
1.16496
1.16507
1.16518
1.1653
1.16542
1.16555
1.16568
1.15441
1.15417
1.15502
1.15633
1.15888
1.16292
1.16721
1.17076
1.17381
1.17671
1.17875
1.1787
1.17617
1.17208
1.16791
1.16482
1.16316
1.16265
1.16278
1.16313
1.16347
1.16371
1.16388
1.164
1.16409
1.16418
1.16427
1.16436
1.16445
1.16455
1.16464
1.16475
1.16485
1.16496
1.16507
1.16519
1.1653
1.16543
1.16555
1.16568
1.15441
1.15417
1.15501
1.15634
1.15892
1.16294
1.16716
1.17066
1.17371
1.17657
1.17843
1.17813
1.17542
1.17133
1.16733
1.16449
1.16304
1.16267
1.16286
1.16321
1.16353
1.16376
1.16392
1.16403
1.16412
1.16421
1.16429
1.16438
1.16447
1.16457
1.16466
1.16476
1.16487
1.16497
1.16509
1.1652
1.16532
1.16544
1.16556
1.16569
1.15438
1.15414
1.15498
1.1563
1.1589
1.16299
1.16729
1.17084
1.17394
1.17685
1.17877
1.17849
1.17573
1.17154
1.16744
1.16451
1.16302
1.16262
1.1628
1.16316
1.16349
1.16372
1.16388
1.16399
1.16408
1.16417
1.16425
1.16434
1.16443
1.16453
1.16463
1.16473
1.16483
1.16495
1.16505
1.16517
1.16529
1.16542
1.16553
1.16567
1.15438
1.15413
1.15499
1.1563
1.15885
1.16288
1.16718
1.17072
1.17376
1.17665
1.17868
1.17864
1.17614
1.17206
1.16791
1.16483
1.16318
1.16266
1.16279
1.16314
1.16347
1.16371
1.16388
1.16399
1.16409
1.16418
1.16426
1.16435
1.16444
1.16454
1.16464
1.16474
1.16485
1.16495
1.16507
1.16518
1.1653
1.16542
1.16555
1.16568
1.15438
1.15413
1.15499
1.1563
1.15885
1.16289
1.16719
1.17073
1.17378
1.17666
1.17869
1.17864
1.17613
1.17205
1.1679
1.16482
1.16317
1.16266
1.16279
1.16314
1.16347
1.16371
1.16388