/*--------------------------------*- C++ -*----------------------------------*\
  =========                 |
  \\      /  F ield         | OpenFOAM: The Open Source CFD Toolbox
   \\    /   O peration     | Website:  https://openfoam.org
    \\  /    A nd           | Version:  7
     \\/     M anipulation  |
\*---------------------------------------------------------------------------*/
FoamFile
{
    version     2.0;
    format      ascii;
    class       surfaceScalarField;
    location    "1.8825";
    object      phi_0;
}
// * * * * * * * * * * * * * * * * * * * * * * * * * * * * * * * * * * * * * //

dimensions      [1 0 -1 0 0 0 0];

internalField   nonuniform List<scalar> 
21708
(
0.00129601
0.00100376
1.36434e-05
0.000898262
0.000391203
6.22517e-06
0.000688958
0.000197271
1.17081e-05
0.000599343
8.25543e-05
6.73663e-06
0.000547311
4.08683e-05
1.08451e-05
0.000516697
2.33576e-05
6.94426e-06
0.000493486
1.27629e-05
1.0144e-05
0.00047726
8.84447e-06
7.08458e-06
0.000462902
4.4834e-06
9.58152e-06
0.000452295
3.15063e-06
7.16632e-06
0.000442209
6.95639e-07
9.09944e-06
0.000434648
8.14898e-08
7.18797e-06
0.000427137
-1.45333e-06
8.66974e-06
0.000421491
-1.81219e-06
7.1587e-06
0.000415647
-2.7338e-06
8.2754e-06
0.000411036
-2.78464e-06
7.08888e-06
0.000404871
-2.04737e-06
7.90232e-06
0.000401224
-3.65142e-06
6.9864e-06
0.000349047
4.42128e-05
7.65156e-06
2.44455e-05
6.55231e-06
0.000317732
0.00225081
0.0010631
2.88389e-06
0.00206056
0.000585021
-3.91178e-06
0.00185588
0.000399937
1.66944e-06
0.00171313
0.000228116
-3.16639e-06
0.00161017
0.000142465
1.02763e-06
0.00153988
9.61524e-05
-2.83143e-06
0.0014843
6.76385e-05
4.03821e-07
0.00144376
5.17597e-05
-2.64458e-06
0.00140788
4.02379e-05
-1.30532e-07
0.00138069
3.26492e-05
-2.54317e-06
0.00135496
2.6791e-05
-5.99877e-07
0.00133515
2.21588e-05
-2.51161e-06
0.00131569
1.87949e-05
-1.02299e-06
0.00130057
1.55848e-05
-2.53469e-06
0.00128573
1.32646e-05
-1.41543e-06
0.00127284
1.2424e-05
-2.59952e-06
0.001265
7.29692e-06
-1.8044e-06
0.00124924
1.44949e-05
-2.68861e-06
0.00128986
5.57928e-06
-2.29248e-06
-2.28359e-05
-3.24011e-06
0.00134006
0.00257723
0.000789473
9.62019e-06
0.00266842
0.000490181
3.3029e-06
0.00266118
0.000398309
8.5146e-06
0.00262488
0.000260486
3.57295e-06
0.00257578
0.000183524
7.68698e-06
0.0025318
0.000136009
3.78135e-06
0.00248847
0.000103672
6.9802e-06
0.00245273
8.33138e-05
3.91124e-06
0.00241849
6.78396e-05
6.40612e-06
0.00239056
5.64009e-05
3.98475e-06
0.00236361
4.76458e-05
5.91716e-06
0.00234162
3.99849e-05
4.0018e-06
0.00232006
3.47121e-05
5.4834e-06
0.00230264
2.88788e-05
3.96957e-06
0.00228454
2.61071e-05
5.08704e-06
0.00227155
2.13214e-05
3.89655e-06
0.00225266
2.12352e-05
4.71973e-06
0.00224519
1.79352e-05
3.77772e-06
0.00221429
3.16967e-05
4.50947e-06
2.08005e-05
3.41906e-06
0.00216693
0.00258386
0.000514456
4.20453e-06
0.00274488
0.000330668
-1.84532e-06
0.00285068
0.000288841
3.31768e-06
0.0029121
0.000200272
-1.56791e-06
0.00294219
0.000150491
2.58585e-06
0.00296055
0.000118582
-1.28218e-06
0.00296615
9.57887e-05
1.9518e-06
0.00296932
8.09423e-05
-1.09782e-06
0.00296654
6.89591e-05
1.41608e-06
0.00296402
5.97197e-05
-9.94965e-07
0.00295834
5.22065e-05
9.48362e-07
0.0029536
4.55478e-05
-9.60947e-07
0.00294727
4.03913e-05
5.27335e-07
0.00294158
3.54453e-05
-9.82245e-07
0.00293605
3.13946e-05
1.36915e-07
0.00292929
2.90026e-05
-1.04777e-06
0.00292726
2.33686e-05
-2.49101e-07
0.00291937
2.68018e-05
-1.16075e-06
0.00293303
1.85661e-05
-7.51343e-07
8.0064e-06
-1.62551e-06
0.00294718
0.00257266
0.000247393
7.54166e-06
0.00274118
0.000160104
1.70362e-06
0.0028761
0.000146844
6.72535e-06
0.00296983
0.000104358
1.82921e-06
0.00303346
8.05442e-05
5.95637e-06
0.00308464
6.49712e-05
2.07274e-06
0.00312111
5.36851e-05
5.29119e-06
0.00315319
4.63356e-05
2.2313e-06
0.00317694
4.02138e-05
4.73526e-06
0.00319869
3.54403e-05
2.31888e-06
0.00321505
3.14202e-05
4.25588e-06
0.00323034
2.77764e-05
2.34378e-06
0.00324186
2.4921e-05
3.82771e-06
0.00325291
2.19866e-05
2.31621e-06
0.00326085
1.99397e-05
3.4341e-06
0.00326964
1.78731e-05
2.24493e-06
0.00327361
1.62416e-05
3.06463e-06
0.0032819
1.62511e-05
2.11682e-06
0.00328093
1.65743e-05
2.78116e-06
1.63962e-05
1.77641e-06
0.00327055
0.00255467
-2.22583e-11
5.80654e-06
0.00271438
1.58065e-10
5.45268e-08
0.00285582
-4.09177e-11
5.05545e-06
0.00295966
5.08634e-10
1.61445e-07
0.00303555
7.41203e-11
4.28803e-06
0.00309976
1.35689e-09
4.07977e-07
0.00314947
7.93233e-10
3.63273e-06
0.00319492
3.30284e-09
5.7577e-07
0.00323178
3.9389e-09
3.08387e-06
0.00326633
7.66582e-09
6.69391e-07
0.00329496
1.4869e-08
2.60897e-06
0.00332187
2.05956e-08
6.98284e-07
0.00334445
4.24174e-08
2.18387e-06
0.00336559
7.47448e-08
6.73717e-07
0.00338358
8.6113e-08
1.79153e-06
0.00340048
2.88324e-07
6.0472e-07
0.00341509
1.36734e-07
1.41248e-06
0.00342987
8.88253e-07
4.77059e-07
0.0034448
4.8337e-07
1.00062e-06
1.68998e-06
9.62831e-08
0.00345921
0.00255467
-0.000247393
5.80654e-06
0.00271438
-0.000160103
5.45264e-08
0.00285582
-0.000146844
5.05545e-06
0.00295966
-0.000104357
1.61444e-07
0.00303555
-8.0544e-05
4.28803e-06
0.00309976
-6.49687e-05
4.07972e-07
0.00314947
-5.36834e-05
3.63274e-06
0.00319492
-4.63296e-05
5.75756e-07
0.00323178
-4.02056e-05
3.08388e-06
0.00326634
-3.54266e-05
6.69354e-07
0.00329496
-3.13895e-05
2.60901e-06
0.00332188
-2.77405e-05
6.98184e-07
0.00334445
-2.4833e-05
2.18396e-06
0.00336561
-2.18523e-05
6.73434e-07
0.00338358
-1.97582e-05
1.79184e-06
0.00340052
-1.73288e-05
6.03957e-07
0.00341511
-1.59477e-05
1.41385e-06
0.00342991
-1.4497e-05
4.75485e-07
0.00344483
-1.55979e-05
1.0077e-06
-1.28611e-05
9.42022e-08
0.00345909
0.00257266
-0.000514456
7.54166e-06
0.00274118
-0.000330668
1.70362e-06
0.0028761
-0.000288841
6.72535e-06
0.00296983
-0.000200271
1.82922e-06
0.00303346
-0.000150491
5.95637e-06
0.00308464
-0.00011858
2.07275e-06
0.00312111
-9.57871e-05
5.29118e-06
0.00315319
-8.09365e-05
2.23131e-06
0.00317694
-6.8952e-05
4.73524e-06
0.00319869
-5.97062e-05
2.31891e-06
0.00321506
-5.21801e-05
4.25585e-06
0.00323034
-4.55122e-05
2.34386e-06
0.00324188
-4.03163e-05
3.82762e-06
0.00325293
-3.53157e-05
2.31646e-06
0.0032609
-3.12477e-05
3.43376e-06
0.00326974
-2.84932e-05
2.24565e-06
0.00327379
-2.31682e-05
3.06328e-06
0.00328224
-2.51983e-05
2.11812e-06
0.00328155
-1.78634e-05
2.775e-06
-5.15174e-06
1.77731e-06
0.00327185
0.00258386
-0.000789473
4.20453e-06
0.00274488
-0.000490181
-1.84532e-06
0.00285068
-0.000398309
3.31768e-06
0.0029121
-0.000260485
-1.56791e-06
0.00294219
-0.000183524
2.58586e-06
0.00296055
-0.000136008
-1.28218e-06
0.00296615
-0.000103671
1.9518e-06
0.00296933
-8.33097e-05
-1.09783e-06
0.00296654
-6.78329e-05
1.4161e-06
0.00296402
-5.63918e-05
-9.94996e-07
0.00295835
-4.76221e-05
9.48406e-07
0.00295362
-3.99617e-05
-9.61029e-07
0.0029473
-3.46455e-05
5.27448e-07
0.00294165
-2.87896e-05
-9.82448e-07
0.00293613
-2.59753e-05
1.37226e-07
0.0029295
-2.09372e-05
-1.04828e-06
0.00292749
-2.10577e-05
-2.47788e-07
0.00291989
-1.66221e-05
-1.16198e-06
0.00293368
-3.11259e-05
-7.44425e-07
-1.82898e-05
-1.62694e-06
0.00294818
0.00257723
-0.0010631
9.62019e-06
0.00266842
-0.000585021
3.3029e-06
0.00266118
-0.000399937
8.5146e-06
0.00262488
-0.000228116
3.57295e-06
0.00257578
-0.000142464
7.68698e-06
0.0025318
-9.61514e-05
3.78135e-06
0.00248847
-6.76374e-05
6.98019e-06
0.00245274
-5.17572e-05
3.91125e-06
0.0024185
-4.02337e-05
6.40612e-06
0.00239057
-3.26437e-05
3.98477e-06
0.00236363
-2.67764e-05
5.91713e-06
0.00234165
-2.2145e-05
4.00185e-06
0.00232012
-1.87542e-05
5.48332e-06
0.00230273
-1.55304e-05
3.96976e-06
0.00228468
-1.31917e-05
5.08676e-06
0.00227184
-1.21831e-05
3.8971e-06
0.00225308
-7.24958e-06
4.71873e-06
0.00224608
-1.36529e-05
3.77859e-06
0.00221569
-5.51881e-06
4.50549e-06
2.38713e-05
3.41826e-06
0.00216981
0.00225081
-0.00100376
2.88389e-06
0.00206056
-0.000391203
-3.91178e-06
0.00185588
-0.000197271
1.66944e-06
0.00171313
-8.25543e-05
-3.16639e-06
0.00161017
-4.08682e-05
1.02763e-06
0.00153988
-2.33574e-05
-2.83143e-06
0.00148431
-1.27625e-05
4.03827e-07
0.00144377
-8.84375e-06
-2.64459e-06
0.00140789
-4.48174e-06
-1.30519e-07
0.0013807
-3.14922e-06
-2.54319e-06
0.00135497
-6.9003e-07
-5.99841e-07
0.00133518
-7.83649e-08
-2.51166e-06
0.00131574
1.46898e-06
-1.0229e-06
0.00130067
1.82583e-06
-2.53482e-06
0.00128586
2.76555e-06
-1.4152e-06
0.00127314
2.85436e-06
-2.59985e-06
0.00126531
2.09818e-06
-1.8034e-06
0.00125012
3.91475e-06
-2.68981e-06
0.0012904
-4.38257e-05
-2.28682e-06
-2.38449e-05
-3.24309e-06
0.00134105
0.00129601
1.36434e-05
0.000898263
6.22518e-06
0.000688958
1.17082e-05
0.000599343
6.73664e-06
0.000547311
1.08452e-05
0.000516698
6.94428e-06
0.000493488
1.0144e-05
0.000477262
7.0846e-06
0.000462906
9.58153e-06
0.000452299
7.16635e-06
0.000442219
9.09944e-06
0.000434661
7.18803e-06
0.000427165
8.6697e-06
0.000421534
7.15887e-06
0.000415721
8.2752e-06
0.000411179
7.08937e-06
0.000405066
7.90176e-06
0.000401681
6.98733e-06
0.000349892
7.64997e-06
6.55372e-06
0.000319181
0.00190168
0.00042147
3.1228e-06
0.00138558
0.00051707
4.92476e-06
0.00104261
0.000352109
2.23419e-06
0.000862137
0.00018315
3.72445e-06
0.000773702
9.67111e-05
2.24594e-06
0.000720182
5.67654e-05
3.38876e-06
0.000686833
4.08119e-05
2.38452e-06
0.000657813
3.26779e-05
3.1381e-06
0.000637331
2.73323e-05
2.44871e-06
0.000617622
2.36833e-05
2.91215e-06
0.000603432
2.05322e-05
2.47508e-06
0.000589175
1.84175e-05
2.7431e-06
0.000578491
1.65646e-05
2.4992e-06
0.000567712
1.50076e-05
2.63396e-06
0.000558829
1.43187e-05
2.53771e-06
0.000550511
1.25258e-05
2.5731e-06
0.000546429
9.06856e-06
2.60397e-06
0.000529204
2.13536e-05
2.54445e-06
0.00063138
-9.74856e-05
2.65071e-06
-7.94936e-05
2.76993e-06
0.000714335
0.00240773
0.000321111
8.38227e-06
0.00234823
0.000562056
1.02602e-05
0.00222649
0.000467421
7.75597e-06
0.00209191
0.000305115
9.09531e-06
0.0019828
0.000198816
7.68055e-06
0.00189251
0.000135183
8.71603e-06
0.00182475
0.000100878
7.8133e-06
0.00176655
7.95036e-05
8.46965e-06
0.00172172
6.39283e-05
7.87545e-06
0.00168113
5.32668e-05
8.25557e-06
0.00164898
4.39865e-05
7.89618e-06
0.00161885
3.77447e-05
8.09107e-06
0.00159414
3.21382e-05
7.91253e-06
0.00157085
2.75509e-05
7.9803e-06
0.00155012
2.54526e-05
7.9421e-06
0.00153299
1.88705e-05
7.91393e-06
0.00151091
2.1061e-05
8.00225e-06
0.00150798
1.34163e-05
7.87356e-06
0.00142383
-2.40606e-05
8.13173e-06
3.47634e-06
8.13941e-06
0.00132916
0.00243124
0.000208039
4.11352e-06
0.0025612
0.000428901
6.16285e-06
0.00262556
0.000407933
3.29068e-06
0.00262631
0.000302514
5.06477e-06
0.0026062
0.000222969
3.29614e-06
0.00257292
0.000167199
4.70463e-06
0.00254297
0.000133943
3.55473e-06
0.00251093
0.000110709
4.48432e-06
0.00248414
9.31866e-05
3.71134e-06
0.00245672
8.02089e-05
4.28276e-06
0.00243378
6.88973e-05
3.78971e-06
0.00241054
6.07262e-05
4.12253e-06
0.00239102
5.3165e-05
3.84576e-06
0.00237088
4.75009e-05
4.01456e-06
0.00235482
4.25354e-05
3.90533e-06
0.0023354
3.80494e-05
3.95428e-06
0.00232637
3.06092e-05
3.97916e-06
0.00230395
3.54172e-05
3.94044e-06
0.00231339
-3.3254e-05
3.98291e-06
-1.51957e-05
4.11965e-06
0.00233104
0.00238322
0.000134584
7.25079e-06
0.00252636
0.000274407
9.16833e-06
0.00266148
0.000269012
6.76479e-06
0.00274332
0.000210576
8.16933e-06
0.00279831
0.000163506
6.70099e-06
0.00282734
0.000128788
7.75441e-06
0.00284857
0.000107518
6.82097e-06
0.00285852
9.18863e-05
7.50109e-06
0.00286647
7.95286e-05
6.89129e-06
0.00286831
6.98958e-05
7.29056e-06
0.00286993
6.11443e-05
6.91911e-06
0.00286795
5.44917e-05
7.12729e-06
0.00286633
4.82715e-05
6.93857e-06
0.00286259
4.31436e-05
7.01584e-06
0.00285884
3.93467e-05
6.96925e-06
0.00285482
3.39454e-05
6.95075e-06
0.00284657
3.14284e-05
7.0278e-06
0.00284514
2.8555e-05
6.93132e-06
0.00280491
-1.18505e-06
7.16948e-06
2.28611e-05
7.17319e-06
0.00275777
0.00238531
6.43093e-05
5.21449e-06
0.00251884
0.000135038
7.20023e-06
0.00265417
0.000135417
4.64088e-06
0.00275173
0.000108291
6.19719e-06
0.00282969
8.65706e-05
4.57971e-06
0.00288442
7.00078e-05
5.77038e-06
0.00293222
5.99393e-05
4.74004e-06
0.00296817
5.23541e-05
5.52594e-06
0.00300099
4.63673e-05
4.84662e-06
0.00302611
4.15686e-05
5.3234e-06
0.00304932
3.71361e-05
4.89964e-06
0.00306716
3.37039e-05
5.165e-06
0.0030839
3.03183e-05
4.93735e-06
0.00309646
2.77544e-05
5.0574e-06
0.00310908
2.51043e-05
4.98181e-06
0.00311691
2.32704e-05
4.99721e-06
0.00312706
1.91839e-05
5.04262e-06
0.00313141
2.11744e-05
4.99177e-06
0.00313066
-2.94294e-06
5.07873e-06
7.32567e-06
5.17881e-06
0.00314255
0.00237665
-7.6639e-11
6.21691e-06
0.00250324
1.84994e-10
8.16392e-06
0.00263763
-5.60984e-11
5.73809e-06
0.00273852
5.18251e-10
7.20038e-06
0.00282335
1.02647e-10
5.66918e-06
0.00288665
1.35872e-09
6.76919e-06
0.00294409
1.0139e-09
5.79715e-06
0.00299022
3.43699e-09
6.51806e-06
0.00303354
4.43131e-09
5.88338e-06
0.00306926
9.09613e-09
6.31363e-06
0.00310291
1.4836e-08
5.92354e-06
0.003131
2.71841e-08
6.1544e-06
0.0031574
4.1782e-08
5.95147e-06
0.00317961
8.73353e-08
6.0456e-06
0.00320033
1.10961e-07
5.98813e-06
0.00321788
2.66256e-07
5.98398e-06
0.00323201
3.18735e-07
6.04706e-06
0.0032468
7.48283e-07
5.97814e-06
0.00323759
9.29295e-07
6.1501e-06
1.95797e-06
6.18971e-06
0.00323664
0.00237665
-6.43094e-05
6.21691e-06
0.00250324
-0.000135038
8.16392e-06
0.00263763
-0.000135417
5.73809e-06
0.00273852
-0.00010829
7.20038e-06
0.00282335
-8.65705e-05
5.66918e-06
0.00288665
-7.0005e-05
6.7692e-06
0.00294409
-5.99375e-05
5.79714e-06
0.00299022
-5.23469e-05
6.51806e-06
0.00303354
-4.63593e-05
5.88337e-06
0.00306926
-4.15492e-05
6.31365e-06
0.00310291
-3.71092e-05
5.92352e-06
0.00313099
-3.36459e-05
6.15445e-06
0.00315741
-3.02441e-05
5.95141e-06
0.00317961
-2.75702e-05
6.04574e-06
0.00320036
-2.49149e-05
5.98794e-06
0.00321789
-2.27237e-05
5.98435e-06
0.00323214
-1.86589e-05
6.0462e-06
0.00324702
-1.97727e-05
5.97879e-06
0.00323794
4.68945e-06
6.14533e-06
-3.82285e-06
6.19079e-06
0.0032374
0.00238531
-0.000134584
5.21449e-06
0.00251884
-0.000274407
7.20023e-06
0.00265417
-0.000269012
4.64088e-06
0.00275173
-0.000210575
6.19719e-06
0.00282969
-0.000163506
4.57971e-06
0.00288442
-0.000128786
5.77038e-06
0.00293222
-0.000107516
4.74004e-06
0.00296817
-9.188e-05
5.52593e-06
0.00300099
-7.95205e-05
4.84663e-06
0.00302612
-6.98792e-05
5.32338e-06
0.00304933
-6.11173e-05
4.89966e-06
0.00306717
-5.44428e-05
5.16495e-06
0.00308391
-4.81964e-05
4.9374e-06
0.0030965
-4.29874e-05
5.05726e-06
0.00310911
-3.91505e-05
4.98198e-06
0.00311701
-3.34724e-05
4.99685e-06
0.00312713
-3.08683e-05
5.04332e-06
0.00313158
-2.72504e-05
4.99113e-06
0.00313091
2.84486e-06
5.08264e-06
-1.92998e-05
5.17777e-06
0.00314274
0.00238322
-0.000208039
7.25079e-06
0.00252636
-0.000428901
9.16833e-06
0.00266148
-0.000407934
6.76479e-06
0.00274332
-0.000302513
8.16933e-06
0.00279831
-0.000222968
6.70099e-06
0.00282734
-0.000167197
7.75441e-06
0.00284857
-0.000133941
6.82097e-06
0.00285852
-0.000110704
7.5011e-06
0.00286647
-9.31799e-05
6.89128e-06
0.00286831
-8.01947e-05
7.29058e-06
0.00286995
-6.88756e-05
6.91908e-06
0.00286797
-6.06842e-05
7.12732e-06
0.00286636
-5.31071e-05
6.9385e-06
0.00286264
-4.73662e-05
7.01594e-06
0.00285896
-4.23951e-05
6.96903e-06
0.00285501
-3.7647e-05
6.95101e-06
0.00284695
-3.02386e-05
7.02685e-06
0.00284578
-3.43791e-05
6.93185e-06
0.00280608
3.43987e-05
7.16494e-06
1.77104e-05
7.17326e-06
0.00275998
0.00243124
-0.000321111
4.11352e-06
0.0025612
-0.000562056
6.16285e-06
0.00262556
-0.000467421
3.29068e-06
0.00262631
-0.000305115
5.06477e-06
0.0026062
-0.000198816
3.29614e-06
0.00257292
-0.000135182
4.70463e-06
0.00254297
-0.000100877
3.55473e-06
0.00251093
-7.95005e-05
4.48432e-06
0.00248415
-6.39226e-05
3.71135e-06
0.00245673
-5.32588e-05
4.28275e-06
0.0024338
-4.3969e-05
3.78972e-06
0.00241057
-3.77215e-05
4.1225e-06
0.00239106
-3.20912e-05
3.8458e-06
0.00237099
-2.74756e-05
4.01446e-06
0.00235495
-2.53335e-05
3.90546e-06
0.0023357
-1.86425e-05
3.95399e-06
0.0023267
-2.07266e-05
3.97958e-06
0.00230469
-1.27812e-05
3.93996e-06
0.00231433
2.4988e-05
3.98519e-06
-1.44804e-06
4.11895e-06
0.00233248
0.00240773
-0.00042147
8.38227e-06
0.00234823
-0.00051707
1.02602e-05
0.00222649
-0.000352109
7.75597e-06
0.00209191
-0.00018315
9.09531e-06
0.0019828
-9.6711e-05
7.68054e-06
0.00189251
-5.67649e-05
8.71604e-06
0.00182475
-4.08112e-05
7.81329e-06
0.00176656
-3.26765e-05
8.46966e-06
0.00172173
-2.73299e-05
7.87544e-06
0.00168114
-2.368e-05
8.25558e-06
0.001649
-2.05252e-05
7.89616e-06
0.00161889
-1.84077e-05
8.09111e-06
0.0015942
-1.65466e-05
7.91247e-06
0.00157096
-1.49755e-05
7.98038e-06
0.00155031
-1.42784e-05
7.94192e-06
0.00153331
-1.24259e-05
7.91416e-06
0.00151149
-8.9968e-06
8.00146e-06
0.00150887
-2.10203e-05
7.87426e-06
0.00142586
9.72633e-05
8.1281e-06
7.9516e-05
8.14054e-06
0.00133321
0.00190168
3.1228e-06
0.00138558
4.92476e-06
0.00104261
2.2342e-06
0.000862137
3.72445e-06
0.000773703
2.24594e-06
0.000720183
3.38876e-06
0.000686834
2.38453e-06
0.000657816
3.1381e-06
0.000637336
2.44871e-06
0.00061763
2.91215e-06
0.000603448
2.47509e-06
0.000589201
2.74308e-06
0.000578534
2.49922e-06
0.000567788
2.63389e-06
0.000558945
2.53776e-06
0.000550727
2.57294e-06
0.000546717
2.604e-06
0.000529827
2.54412e-06
0.000631774
2.6509e-06
2.7682e-06
0.000714767
0.00214395
0.000171602
-1.15738e-11
0.00189993
0.000248608
-1.16103e-11
0.00163904
0.000262781
-1.16036e-11
0.00140981
0.000232612
-1.17175e-11
0.00122532
0.000186404
-1.16631e-11
0.00108942
0.000139001
-1.16447e-11
0.00099244
9.90993e-05
-1.13541e-11
0.000926833
6.84939e-05
-1.11477e-11
0.000881357
4.76734e-05
-1.07463e-11
0.000850514
3.35003e-05
-1.05598e-11
0.000827901
2.48282e-05
-1.02835e-11
0.00081132
1.90567e-05
-1.03228e-11
0.000798076
1.54688e-05
-1.03856e-11
0.000787142
1.32861e-05
-1.07254e-11
0.000778552
1.08404e-05
-1.10325e-11
0.000769288
1.15475e-05
-1.14411e-11
0.000765612
5.98909e-06
-1.17261e-11
0.000754168
1.36998e-05
-1.19121e-11
0.000761544
-5.00284e-06
-1.20598e-11
-4.62002e-06
-1.19105e-11
0.000768644
0.00236874
0.00012367
-1.15267e-11
0.00241424
0.000213021
-1.14517e-11
0.00242156
0.000262865
-1.12911e-11
0.00239803
0.000264885
-1.14037e-11
0.00235277
0.000238982
-1.16314e-11
0.00229982
0.000200343
-1.21049e-11
0.00224443
0.000162018
-1.22523e-11
0.00219224
0.000128916
-1.23052e-11
0.00214348
0.000104119
-1.20112e-11
0.0020997
8.53772e-05
-1.18309e-11
0.00205987
7.24037e-05
-1.1512e-11
0.00202441
6.24718e-05
-1.13815e-11
0.00199239
5.52437e-05
-1.11909e-11
0.00196384
4.96355e-05
-1.12668e-11
0.00193829
4.41203e-05
-1.13727e-11
0.00191514
4.23549e-05
-1.17518e-11
0.00189537
3.3478e-05
-1.20293e-11
0.00187576
4.08716e-05
-1.25159e-11
0.00186139
1.71892e-05
-1.28572e-11
3.32449e-05
-1.32478e-11
0.00183135
0.00235675
8.34569e-05
-1.15584e-11
0.00242614
0.000149448
-1.15814e-11
0.00249786
0.000194091
-1.15036e-11
0.0025632
0.000204248
-1.15478e-11
0.00261194
0.000193184
-1.14508e-11
0.00264603
0.000170614
-1.15471e-11
0.00266585
0.000145447
-1.15487e-11
0.00267635
0.000122638
-1.18326e-11
0.00267942
0.000104554
-1.20219e-11
0.00267827
9.06464e-05
-1.23481e-11
0.00267397
8.03599e-05
-1.24087e-11
0.00266788
7.25821e-05
-1.24466e-11
0.00266082
6.60512e-05
-1.22118e-11
0.0026527
6.16761e-05
-1.20956e-11
0.00264508
5.55299e-05
-1.18588e-11
0.00263599
5.52331e-05
-1.18456e-11
0.00262908
4.41683e-05
-1.16851e-11
0.00261931
5.43169e-05
-1.19156e-11
0.00261322
2.69777e-05
-1.19474e-11
4.98436e-05
-1.25304e-11
0.0026004
0.00234686
5.62692e-05
-1.15598e-11
0.00240639
9.87451e-05
-1.16074e-11
0.00247896
0.000127938
-1.15764e-11
0.00255551
0.000135508
-1.16408e-11
0.002625
0.000130027
-1.14937e-11
0.00268607
0.000116954
-1.14571e-11
0.00273601
0.000102016
-1.12791e-11
0.00277765
8.82428e-05
-1.14136e-11
0.00281155
7.73304e-05
-1.14916e-11
0.00284035
6.89629e-05
-1.18079e-11
0.00286471
6.27784e-05
-1.19125e-11
0.00288607
5.82399e-05
-1.21632e-11
0.0029048
5.41743e-05
-1.22093e-11
0.00292155
5.18716e-05
-1.24211e-11
0.00293647
4.75044e-05
-1.24583e-11
0.00295017
4.8375e-05
-1.25294e-11
0.00296173
3.94876e-05
-1.24134e-11
0.00297364
4.91315e-05
-1.22687e-11
0.00298033
2.72228e-05
-1.20911e-11
5.1397e-05
-1.18587e-11
0.00298565
0.00234744
2.64615e-05
-1.15663e-11
0.00240518
4.78657e-05
-1.16341e-11
0.00247439
6.30186e-05
-1.15927e-11
0.00254882
6.69224e-05
-1.16759e-11
0.00261872
6.43435e-05
-1.15404e-11
0.00268299
5.81069e-05
-1.15642e-11
0.00273852
5.09139e-05
-1.14002e-11
0.00278765
4.43815e-05
-1.15158e-11
0.00283043
3.91759e-05
-1.14761e-11
0.00286924
3.53054e-05
-1.1668e-11
0.00290439
3.23897e-05
-1.16373e-11
0.00293725
3.04245e-05
-1.1826e-11
0.00296783
2.84548e-05
-1.18808e-11
0.002997
2.76911e-05
-1.21615e-11
0.00302408
2.53386e-05
-1.23391e-11
0.0030509
2.64519e-05
-1.25225e-11
0.00307394
2.13654e-05
-1.25969e-11
0.00310042
2.74725e-05
-1.25027e-11
0.00311722
1.52773e-05
-1.24311e-11
2.92216e-05
-1.21835e-11
0.00314431
0.00234509
-1.19649e-10
-1.15671e-11
0.00240078
3.20115e-10
-1.16228e-11
0.00246919
-2.26887e-10
-1.15886e-11
0.00254296
7.94294e-10
-1.16582e-11
0.00261261
-1.53598e-10
-1.15568e-11
0.00267714
1.89308e-09
-1.16161e-11
0.00273354
7.20572e-10
-1.15222e-11
0.00278417
4.41392e-09
-1.16434e-11
0.00282901
4.0845e-09
-1.15848e-11
0.00287045
1.09817e-08
-1.1697e-11
0.0029086
1.3242e-08
-1.16215e-11
0.00294504
3.18999e-08
-1.1738e-11
0.00297933
3.22942e-08
-1.17441e-11
0.0030129
1.00379e-07
-1.19293e-11
0.00304409
6.83489e-08
-1.20008e-11
0.00307614
2.95681e-07
-1.21222e-11
0.00310325
1.77155e-07
-1.21414e-11
0.0031358
7.33216e-07
-1.21483e-11
0.00315635
6.58462e-07
-1.21274e-11
1.48639e-06
-1.21003e-11
0.00319003
0.00234509
-2.64617e-05
-1.15734e-11
0.00240078
-4.7865e-05
-1.16278e-11
0.00246919
-6.3019e-05
-1.15919e-11
0.00254296
-6.69207e-05
-1.16552e-11
0.00261261
-6.43439e-05
-1.15695e-11
0.00267714
-5.81031e-05
-1.16678e-11
0.00273354
-5.09126e-05
-1.16297e-11
0.00278417
-4.43725e-05
-1.17781e-11
0.00282901
-3.91682e-05
-1.17171e-11
0.00287045
-3.52831e-05
-1.1795e-11
0.00290861
-3.23642e-05
-1.17019e-11
0.00294504
-3.03602e-05
-1.17844e-11
0.00297933
-2.83923e-05
-1.17222e-11
0.0030129
-2.74904e-05
-1.1794e-11
0.0030441
-2.52068e-05
-1.16581e-11
0.00307615
-2.58643e-05
-1.16625e-11
0.00310328
-2.10254e-05
-1.15241e-11
0.00313585
-2.6028e-05
-1.16051e-11
0.00315645
-1.40148e-05
-1.16207e-11
-2.63571e-05
-1.17791e-11
0.00319023
0.00234744
-5.62694e-05
-1.1573e-11
0.00240518
-9.87445e-05
-1.16149e-11
0.00247439
-0.000127939
-1.15855e-11
0.00254882
-0.000135506
-1.16361e-11
0.00261872
-0.000130027
-1.15864e-11
0.00268299
-0.00011695
-1.1723e-11
0.00273852
-0.000102015
-1.17534e-11
0.00278765
-8.82341e-05
-1.1904e-11
0.00283043
-7.7323e-05
-1.18194e-11
0.00286924
-6.89417e-05
-1.18191e-11
0.00290439
-6.27535e-05
-1.16807e-11
0.00293726
-5.81795e-05
-1.16877e-11
0.00296783
-5.41128e-05
-1.15699e-11
0.00299702
-5.16828e-05
-1.15279e-11
0.0030241
-4.73767e-05
-1.12848e-11
0.00305096
-4.7816e-05
-1.12292e-11
0.00307402
-3.91688e-05
-1.10524e-11
0.00310054
-4.77408e-05
-1.12653e-11
0.00311743
-2.60415e-05
-1.13348e-11
-4.86145e-05
-1.17415e-11
0.0031446
0.00234686
-8.3457e-05
-1.15826e-11
0.00240639
-0.000149448
-1.16416e-11
0.00247896
-0.000194092
-1.16032e-11
0.00255551
-0.000204246
-1.16743e-11
0.002625
-0.000193184
-1.16472e-11
0.00268607
-0.00017061
-1.18495e-11
0.00273601
-0.000145446
-1.18899e-11
0.00277765
-0.00012263
-1.20058e-11
0.00281155
-0.000104547
-1.17882e-11
0.00284035
-9.06264e-05
-1.1663e-11
0.00286472
-8.03383e-05
-1.1389e-11
0.00288608
-7.25267e-05
-1.13383e-11
0.00290482
-6.59984e-05
-1.12175e-11
0.00292159
-6.15049e-05
-1.12266e-11
0.00293653
-5.54255e-05
-1.11346e-11
0.00295028
-5.47283e-05
-1.11962e-11
0.00296191
-4.39197e-05
-1.12662e-11
0.00297398
-5.30763e-05
-1.15457e-11
0.00298089
-2.60274e-05
-1.17392e-11
-4.75213e-05
-1.21057e-11
0.00298667
0.00235675
-0.00012367
-1.15845e-11
0.00242614
-0.000213021
-1.16653e-11
0.00249786
-0.000262865
-1.16694e-11
0.0025632
-0.000264884
-1.17653e-11
0.00261194
-0.000238982
-1.16967e-11
0.00264603
-0.000200341
-1.177e-11
0.00266585
-0.000162016
-1.16168e-11
0.00267636
-0.000128909
-1.15538e-11
0.00267942
-0.000104113
-1.12051e-11
0.00267828
-8.53628e-05
-1.1072e-11
0.00267398
-7.23853e-05
-1.08561e-11
0.0026679
-6.24316e-05
-1.10457e-11
0.00266086
-5.5201e-05
-1.12e-11
0.00265278
-4.95094e-05
-1.15527e-11
0.00264518
-4.4043e-05
-1.17292e-11
0.00263623
-4.19755e-05
-1.19027e-11
0.00262939
-3.33103e-05
-1.20557e-11
0.00261993
-3.99305e-05
-1.19074e-11
0.00261412
-1.65214e-05
-1.19749e-11
-3.15373e-05
-1.13284e-11
0.00260192
0.00236874
-0.000171602
-1.16247e-11
0.00241424
-0.000248608
-1.17961e-11
0.00242156
-0.000262781
-1.18747e-11
0.00239803
-0.000232611
-1.18878e-11
0.00235277
-0.000186404
-1.15015e-11
0.00229982
-0.000139
-1.12144e-11
0.00224443
-9.9098e-05
-1.09276e-11
0.00219225
-6.84916e-05
-1.10929e-11
0.00214349
-4.76691e-05
-1.12395e-11
0.00209971
-3.34948e-05
-1.16304e-11
0.0020599
-2.48163e-05
-1.18376e-11
0.00202446
-1.90403e-05
-1.22039e-11
0.00199246
-1.54431e-05
-1.23201e-11
0.00196397
-1.32295e-05
-1.24571e-11
0.00193846
-1.08005e-05
-1.22654e-11
0.0019155
-1.13624e-05
-1.20705e-11
0.00189583
-5.92369e-06
-1.1689e-11
0.0018767
-1.32295e-05
-1.13156e-11
0.00186271
5.27957e-06
-1.10783e-11
5.14034e-06
-1.03875e-11
0.00183387
0.00214395
-1.15882e-11
0.00189993
-1.16554e-11
0.00163904
-1.15636e-11
0.00140981
-1.15248e-11
0.00122532
-1.13669e-11
0.00108942
-1.1569e-11
0.000992443
-1.1761e-11
0.000926838
-1.22283e-11
0.000881367
-1.24861e-11
0.000850529
-1.28536e-11
0.000827928
-1.29704e-11
0.000811363
-1.31144e-11
0.000798145
-1.29594e-11
0.000787268
-1.28088e-11
0.000778718
-1.24494e-11
0.000769638
-1.22223e-11
0.000766028
-1.18874e-11
0.000755056
-1.18708e-11
0.000762699
-1.17199e-11
-1.2019e-11
0.00077034
0.00214395
0.000171602
-3.12282e-06
0.00189993
0.000248608
-4.92478e-06
0.00163904
0.000262781
-2.23421e-06
0.00140981
0.000232612
-3.72447e-06
0.00122532
0.000186404
-2.24595e-06
0.00108942
0.000139001
-3.38878e-06
0.00099244
9.90992e-05
-2.38454e-06
0.000926833
6.84939e-05
-3.13812e-06
0.000881357
4.76734e-05
-2.44873e-06
0.000850514
3.35003e-05
-2.91217e-06
0.000827901
2.48282e-05
-2.4751e-06
0.00081132
1.90567e-05
-2.74312e-06
0.000798076
1.54688e-05
-2.49921e-06
0.000787142
1.32861e-05
-2.63398e-06
0.000778552
1.08403e-05
-2.53772e-06
0.000769288
1.15475e-05
-2.57312e-06
0.000765612
5.98908e-06
-2.60399e-06
0.000754168
1.36998e-05
-2.54447e-06
0.000761544
-5.00285e-06
-2.65073e-06
-4.62004e-06
-2.76995e-06
0.000768644
0.00236874
0.00012367
-8.38229e-06
0.00241424
0.000213021
-1.02602e-05
0.00242156
0.000262865
-7.75599e-06
0.00239803
0.000264885
-9.09533e-06
0.00235277
0.000238982
-7.68057e-06
0.00229982
0.000200343
-8.71605e-06
0.00224443
0.000162018
-7.81332e-06
0.00219224
0.000128916
-8.46967e-06
0.00214348
0.000104119
-7.87547e-06
0.0020997
8.53771e-05
-8.25559e-06
0.00205987
7.24036e-05
-7.8962e-06
0.00202441
6.24718e-05
-8.0911e-06
0.00199239
5.52437e-05
-7.91255e-06
0.00196384
4.96355e-05
-7.98032e-06
0.00193829
4.41203e-05
-7.94212e-06
0.00191514
4.23549e-05
-7.91395e-06
0.00189537
3.3478e-05
-8.00227e-06
0.00187576
4.08716e-05
-7.87358e-06
0.00186139
1.71892e-05
-8.13175e-06
3.32449e-05
-8.13943e-06
0.00183135
0.00235675
8.34569e-05
-4.11354e-06
0.00242614
0.000149448
-6.16287e-06
0.00249786
0.000194091
-3.2907e-06
0.0025632
0.000204248
-5.06479e-06
0.00261194
0.000193184
-3.29616e-06
0.00264603
0.000170614
-4.70465e-06
0.00266585
0.000145447
-3.55475e-06
0.00267635
0.000122638
-4.48434e-06
0.00267942
0.000104554
-3.71136e-06
0.00267827
9.06464e-05
-4.28278e-06
0.00267397
8.03599e-05
-3.78973e-06
0.00266788
7.25822e-05
-4.12255e-06
0.00266082
6.60512e-05
-3.84578e-06
0.0026527
6.16761e-05
-4.01458e-06
0.00264507
5.55299e-05
-3.90535e-06
0.00263599
5.52331e-05
-3.9543e-06
0.00262908
4.41683e-05
-3.97918e-06
0.00261931
5.43169e-05
-3.94046e-06
0.00261322
2.69776e-05
-3.98293e-06
4.98436e-05
-4.11967e-06
0.0026004
0.00234686
5.62692e-05
-7.25081e-06
0.00240639
9.87451e-05
-9.16835e-06
0.00247896
0.000127938
-6.76481e-06
0.00255551
0.000135508
-8.16935e-06
0.002625
0.000130027
-6.70101e-06
0.00268607
0.000116954
-7.75443e-06
0.00273601
0.000102016
-6.82099e-06
0.00277765
8.82428e-05
-7.50111e-06
0.00281155
7.73303e-05
-6.89131e-06
0.00284035
6.89629e-05
-7.29058e-06
0.00286471
6.27784e-05
-6.91913e-06
0.00288607
5.82399e-05
-7.12731e-06
0.0029048
5.41744e-05
-6.93859e-06
0.00292155
5.18717e-05
-7.01586e-06
0.00293647
4.75045e-05
-6.96927e-06
0.00295017
4.8375e-05
-6.95078e-06
0.00296173
3.94876e-05
-7.02782e-06
0.00297364
4.91316e-05
-6.93134e-06
0.00298033
2.72228e-05
-7.1695e-06
5.1397e-05
-7.17322e-06
0.00298565
0.00234744
2.64615e-05
-5.21451e-06
0.00240518
4.78657e-05
-7.20025e-06
0.00247439
6.30186e-05
-4.6409e-06
0.00254882
6.69224e-05
-6.19721e-06
0.00261872
6.43435e-05
-4.57973e-06
0.00268299
5.81069e-05
-5.7704e-06
0.00273852
5.09138e-05
-4.74006e-06
0.00278765
4.43815e-05
-5.52596e-06
0.00283043
3.91758e-05
-4.84664e-06
0.00286924
3.53054e-05
-5.32342e-06
0.00290439
3.23897e-05
-4.89966e-06
0.00293725
3.04246e-05
-5.16502e-06
0.00296783
2.84548e-05
-4.93737e-06
0.002997
2.76911e-05
-5.05742e-06
0.00302408
2.53387e-05
-4.98184e-06
0.0030509
2.6452e-05
-4.99724e-06
0.00307394
2.13654e-05
-5.04264e-06
0.00310042
2.74725e-05
-4.99179e-06
0.00311722
1.52773e-05
-5.07875e-06
2.92216e-05
-5.17883e-06
0.00314431
0.00234509
-1.20684e-10
-6.21693e-06
0.00240078
3.14902e-10
-8.16394e-06
0.00246919
-2.3345e-10
-5.73811e-06
0.00254296
7.86459e-10
-7.2004e-06
0.00261261
-1.62009e-10
-5.6692e-06
0.00267714
1.8768e-09
-6.76921e-06
0.00273354
6.96176e-10
-5.79717e-06
0.00278417
4.38226e-09
-6.51808e-06
0.00282901
4.05671e-09
-5.8834e-06
0.00287045
1.09669e-08
-6.31365e-06
0.0029086
1.32481e-08
-5.92356e-06
0.00294504
3.19253e-08
-6.15442e-06
0.00297933
3.23385e-08
-5.95149e-06
0.0030129
1.00434e-07
-6.04562e-06
0.00304409
6.84204e-08
-5.98815e-06
0.00307614
2.95758e-07
-5.984e-06
0.00310325
1.77229e-07
-6.04708e-06
0.0031358
7.3328e-07
-5.97816e-06
0.00315635
6.58497e-07
-6.15012e-06
1.48641e-06
-6.18973e-06
0.00319003
0.00234509
-2.64617e-05
-6.21693e-06