/*--------------------------------*- C++ -*----------------------------------*\
  =========                 |
  \\      /  F ield         | OpenFOAM: The Open Source CFD Toolbox
   \\    /   O peration     | Website:  https://openfoam.org
    \\  /    A nd           | Version:  7
     \\/     M anipulation  |
\*---------------------------------------------------------------------------*/
FoamFile
{
    version     2.0;
    format      ascii;
    class       volSymmTensorField;
    location    "6.375";
    object      UPrime2Mean;
}
// * * * * * * * * * * * * * * * * * * * * * * * * * * * * * * * * * * * * * //

dimensions      [0 2 -2 0 0 0 0];

internalField   nonuniform List<symmTensor> 
7920
(
(0.0202754 0.0255069 -0.0915172 0.0339902 -0.130706 0.546243)
(0.00285395 0.0101699 -0.020355 0.0503688 -0.134644 0.444158)
(0.0132823 0.0237596 -0.0416791 0.0603391 -0.155688 0.51333)
(0.00518683 0.012641 -0.0186744 0.0581232 -0.152795 0.512162)
(0.00868741 0.0163257 -0.021646 0.060131 -0.156157 0.521402)
(0.00535448 0.0104847 -0.00913111 0.0590623 -0.154891 0.520289)
(0.00646887 0.011057 -0.00772484 0.0597447 -0.156125 0.523239)
(0.00501061 0.00764148 -0.000255357 0.0593286 -0.155814 0.523041)
(0.00529136 0.00704032 0.00223076 0.0595361 -0.156361 0.523945)
(0.00461571 0.00479692 0.00695963 0.0593543 -0.156308 0.523891)
(0.0046545 0.00386651 0.00922428 0.0593888 -0.156592 0.524118)
(0.00430644 0.00219252 0.0123682 0.0592787 -0.156656 0.524071)
(0.00430678 0.00124832 0.0141308 0.0591861 -0.156742 0.524133)
(0.00410661 -0.000202486 0.0165393 0.0591212 -0.156826 0.524154)
(0.00416899 -0.00104318 0.0177736 0.0588579 -0.156796 0.523945)
(0.00406447 -0.00266804 0.0203688 0.0588094 -0.15694 0.524182)
(0.00421596 -0.00335864 0.0211264 0.05818 -0.156562 0.523461)
(0.00435036 -0.0057642 0.0254639 0.0581522 -0.156888 0.524318)
(0.00445409 -0.00634973 0.025534 0.056387 -0.155419 0.521998)
(0.00496183 -0.00879293 0.0301692 0.0560722 -0.15402 0.516998)
(0.0272437 -0.0179127 -0.00225554 0.0154518 0.0213655 0.116603)
(0.00189007 0.0044793 -0.00222484 0.0177271 -0.0118306 0.298387)
(0.0182689 -0.0114912 0.0778628 0.0169621 -0.0124952 0.495579)
(0.00331827 -0.000690326 0.0317716 0.0177541 -0.0137297 0.496386)
(0.0121218 -0.00609896 0.0730586 0.0170924 -0.0142602 0.559362)
(0.00602968 -0.000831352 0.0470072 0.0174263 -0.0141231 0.544283)
(0.00960243 -0.00244478 0.0636139 0.0172014 -0.0140674 0.559461)
(0.00752951 0.00038481 0.0509747 0.0173365 -0.0139048 0.549532)
(0.00911683 0.000242098 0.0570821 0.0172572 -0.0136176 0.550027)
(0.00867335 0.00201733 0.0505243 0.0173209 -0.0134908 0.543792)
(0.00961948 0.00243749 0.0520627 0.0173019 -0.0132046 0.53915)
(0.00983702 0.00380335 0.0473887 0.0173214 -0.0128875 0.532625)
(0.0106514 0.00440557 0.0468423 0.0173312 -0.0124639 0.522994)
(0.01125 0.00570971 0.0420878 0.0173244 -0.0121411 0.517276)
(0.0121441 0.0063122 0.040728 0.0173609 -0.0113046 0.499101)
(0.0133129 0.00795282 0.0344511 0.0173026 -0.0107322 0.492718)
(0.0142848 0.00842622 0.0329512 0.0174189 -0.00908423 0.458585)
(0.017207 0.0111485 0.0241955 0.0171982 -0.00779947 0.449557)
(0.0177258 0.0114436 0.0223542 0.0176532 -0.00301885 0.374314)
(0.0270538 0.0175621 0.0160425 0.0180048 0.00208368 0.343761)
(0.0426182 0.00933482 -0.00147523 0.00384253 -0.0145909 0.122278)
(0.0162922 -0.00580441 -0.0470833 0.0070668 -0.0128858 0.388267)
(0.00867126 0.00627989 0.0649022 0.0117932 0.0150205 0.756686)
(0.00535761 -0.00538464 -0.0202893 0.0103638 0.0126758 0.862587)
(0.00451972 0.000245455 0.0455078 0.0119076 0.0207889 0.967)
(0.00552445 -0.00506715 -0.000602835 0.0113792 0.0192525 0.96992)
(0.00575277 -0.00323666 0.025214 0.0118445 0.0214244 0.985328)
(0.0076636 -0.00596536 0.00276275 0.0116427 0.0204367 0.973214)
(0.00846937 -0.00566849 0.0120644 0.0117779 0.0206797 0.964591)
(0.0105811 -0.00733784 0.000596846 0.0116858 0.0199902 0.952861)
(0.0118762 -0.00764157 0.00313434 0.0117049 0.0196199 0.937191)
(0.0142297 -0.00893581 -0.00477985 0.0116581 0.0189685 0.924127)
(0.0158938 -0.00943514 -0.00487445 0.0115987 0.0179439 0.899175)
(0.018934 -0.0107515 -0.0131669 0.0115807 0.0174652 0.886999)
(0.0208244 -0.0112037 -0.0134976 0.0114215 0.0157144 0.846786)
(0.0257823 -0.0130081 -0.0248679 0.0114511 0.0154095 0.833318)
(0.0274511 -0.0130881 -0.0232815 0.0110616 0.0124258 0.764361)
(0.0380985 -0.0163789 -0.0398501 0.0112318 0.0125731 0.740948)
(0.0374993 -0.0153244 -0.0319191 0.0103698 0.00803714 0.606823)
(0.0681913 -0.0220481 -0.0357912 0.0102765 0.00272381 0.481594)
(0.0409084 -0.00957406 -0.000615215 0.00277207 0.00732248 0.111193)
(0.0270338 0.00962841 -0.0436423 0.00399424 -0.00922967 0.261579)
(0.00193214 -0.00109386 0.012898 0.00310237 -0.00885996 0.60978)
(0.0149059 0.00515017 -0.0540593 0.00293712 -0.00774175 0.659831)
(0.00482953 0.00210959 -0.0169201 0.00267384 -0.00635854 0.797567)
(0.014135 0.00435043 -0.0510814 0.00262138 -0.00395659 0.783913)
(0.0109328 0.00353838 -0.03615 0.00258581 -0.00395862 0.813686)
(0.0170181 0.0046423 -0.0521844 0.00258321 -0.00307237 0.790282)
(0.0170024 0.0045293 -0.046213 0.00258167 -0.00316941 0.783881)
(0.0215636 0.00525094 -0.0538076 0.00258827 -0.00291278 0.764419)
(0.0231372 0.00543008 -0.0513429 0.00259449 -0.00296356 0.746163)
(0.0274441 0.00603507 -0.0562412 0.00260022 -0.00276006 0.72892)
(0.0298397 0.00633152 -0.0546751 0.00260817 -0.00256399 0.698904)
(0.0350344 0.00698139 -0.0599998 0.00260833 -0.00240709 0.685041)
(0.0377465 0.00730279 -0.0571802 0.00262051 -0.00192336 0.638345)
(0.0456426 0.00817269 -0.0640684 0.00260781 -0.00159701 0.625055)
(0.0478275 0.00839352 -0.0573717 0.00262303 -0.000482713 0.553036)
(0.0625881 0.00986747 -0.0634667 0.00258431 0.00039247 0.524129)
(0.0620214 0.00923036 -0.0506704 0.00247419 0.00386381 0.433451)
(0.0923397 0.0131363 -0.0148481 0.00289282 0.00916525 0.297246)
(0.0456055 0.00422552 -0.00486865 0.000697054 -0.00598525 0.120678)
(0.0324299 -0.00208014 -0.0400883 0.0014273 -0.00983773 0.214167)
(0.00226623 0.000591237 -0.00937293 0.00246631 0.00033639 0.535334)
(0.025491 -0.00430986 -0.0755125 0.00211195 -0.0022129 0.574091)
(0.0119473 -0.00283921 -0.0560257 0.00251008 0.0021015 0.70939)
(0.0269359 -0.00508781 -0.0865754 0.00241857 0.00179724 0.699857)
(0.0224414 -0.00458437 -0.0782894 0.00253533 0.00310436 0.72992)
(0.0313591 -0.00573881 -0.0915929 0.00250416 0.00287674 0.706289)
(0.0311967 -0.00568625 -0.0874021 0.00253609 0.00303985 0.697442)
(0.0374356 -0.00640441 -0.0929441 0.00252172 0.00279269 0.675651)
(0.0393998 -0.00655564 -0.0900468 0.00252597 0.00260245 0.654285)
(0.04512 -0.00713489 -0.093178 0.00251828 0.00231369 0.635321)
(0.0481384 -0.0073424 -0.0898754 0.00250301 0.00176455 0.602988)
(0.0549922 -0.00797689 -0.0935555 0.00249942 0.00154288 0.588292)
(0.0583483 -0.00812995 -0.0879982 0.00245722 0.000583289 0.541167)
(0.0687175 -0.00905335 -0.0926509 0.00246476 0.000429576 0.527085)
(0.0711919 -0.00893433 -0.0825508 0.0023532 -0.00114455 0.462229)
(0.0902582 -0.0106432 -0.0826007 0.00239575 -0.00141728 0.426331)
(0.0888589 -0.00986615 -0.0694726 0.00212475 -0.00287676 0.369561)
(0.125764 -0.0133512 -0.0070854 0.00220571 -0.0072756 0.234937)
(0.0455767 -0.00498339 -0.00346703 0.000686267 0.0038672 0.117799)
(0.0332432 0.00486535 -0.0340241 0.00103161 0.000169139 0.18834)
(0.00309384 5.75584e-05 -0.0174698 0.00138568 -0.00426164 0.470079)
(0.0310996 0.00426881 -0.0774456 0.00118357 -0.00227739 0.494607)
(0.0179469 0.00258046 -0.0693509 0.0011947 -0.00256841 0.616148)
(0.0357682 0.00388596 -0.0962132 0.00113547 -0.000942185 0.60863)
(0.0315234 0.00345299 -0.0926164 0.00115368 -0.00123207 0.635388)
(0.0417155 0.00408482 -0.103423 0.00113975 -0.00061944 0.613225)
(0.0418048 0.00404498 -0.100413 0.00114906 -0.000732602 0.602779)
(0.0487689 0.00448395 -0.104142 0.00114767 -0.000537528 0.580993)
(0.0510578 0.00460659 -0.100856 0.00115156 -0.000529556 0.558852)
(0.0573881 0.00498989 -0.102346 0.00115232 -0.000364389 0.53987)
(0.0607945 0.00516709 -0.0978805 0.0011509 -0.000137004 0.508555)
(0.0683472 0.00560769 -0.0998792 0.00115075 -2.86866e-05 0.494262)
(0.0721193 0.0057726 -0.0927036 0.00114339 0.000463116 0.450554)
(0.0833567 0.00640624 -0.0948516 0.00114268 0.000605894 0.436809)
(0.0862538 0.00640377 -0.0835024 0.00111441 0.00155057 0.381371)
(0.106108 0.00756274 -0.0777822 0.00112015 0.00193835 0.34495)
(0.105433 0.00669786 -0.0667654 0.000989935 0.00361562 0.308535)
(0.140324 0.0094666 0.0100284 0.00117094 0.00735808 0.195189)
(0.0455781 0.00498407 -0.00346607 0.000686407 -0.00386702 0.117798)
(0.0332425 -0.00486633 -0.0340217 0.00103205 -0.000168551 0.188327)
(0.00309388 -5.75824e-05 -0.0174699 0.00138603 0.00426337 0.470067)
(0.0310966 -0.00426916 -0.0774451 0.00118393 0.00228028 0.494613)
(0.0179473 -0.0025822 -0.0693577 0.0011962 0.0025824 0.616178)
(0.0357741 -0.00388828 -0.0962252 0.0011355 0.00095056 0.608651)
(0.0315228 -0.00344955 -0.0926015 0.00115208 0.0012107 0.635303)
(0.0417131 -0.00408192 -0.103407 0.00113915 0.000605081 0.613144)
(0.0418065 -0.00404549 -0.100416 0.00114861 0.000734371 0.602787)
(0.0487689 -0.00448059 -0.104142 0.00114693 0.000522609 0.580996)
(0.0510562 -0.00460323 -0.100838 0.00115056 0.000511206 0.558758)
(0.0573874 -0.00497986 -0.102288 0.00114976 0.000318494 0.539467)
(0.0607947 -0.00516548 -0.0978846 0.0011504 0.000132259 0.508579)
(0.0683444 -0.00560773 -0.0998831 0.00115082 3.16494e-05 0.494322)
(0.0721185 -0.00576759 -0.0926832 0.00114179 -0.000478701 0.450439)
(0.0833583 -0.00639937 -0.0948469 0.00114131 -0.000618046 0.436763)
(0.0862478 -0.00640429 -0.083493 0.00110695 -0.00151456 0.381562)
(0.106101 -0.00751053 -0.0777472 0.00111478 -0.00203337 0.344704)
(0.105453 -0.00664461 -0.066631 0.000947846 -0.00341081 0.308178)
(0.14037 -0.00921457 0.00994235 0.00112238 -0.00746334 0.196329)
(0.0456037 -0.00422506 -0.00486711 0.000696979 0.00598497 0.120675)
(0.0324303 0.00208323 -0.040071 0.00142828 0.00983711 0.214128)
(0.00226624 -0.000591446 -0.00937354 0.0024672 -0.000336793 0.53528)
(0.0254927 0.00431111 -0.0755178 0.00211248 0.0022067 0.574086)
(0.0119468 0.00284077 -0.0560278 0.00251187 -0.00212353 0.709445)
(0.0269339 0.00508821 -0.0865728 0.00241896 -0.00179896 0.699909)
(0.0224432 0.00458631 -0.0782771 0.00253573 -0.00310709 0.729749)
(0.0313593 0.00574142 -0.0915719 0.00250485 -0.00288369 0.706123)
(0.0311956 0.00568589 -0.0873961 0.00253587 -0.00303483 0.697455)
(0.0374362 0.00641088 -0.0929466 0.00252478 -0.00282648 0.675653)
(0.0394012 0.00655716 -0.0900363 0.00252658 -0.00260478 0.654151)
(0.0451186 0.00713128 -0.0931054 0.00251851 -0.00227598 0.634686)
(0.0481342 0.00734457 -0.0898694 0.00250382 -0.00177576 0.603051)
(0.054995 0.00798051 -0.0935719 0.00250059 -0.00156071 0.588365)
(0.0583494 0.00813149 -0.0879694 0.00245871 -0.000582372 0.540945)
(0.0687128 0.00905981 -0.0926177 0.00246527 -0.000437254 0.526885)
(0.0712118 0.00893657 -0.0825718 0.00236102 0.00116962 0.462707)
(0.0902693 0.0106929 -0.0825249 0.00240181 0.0013359 0.425593)
(0.0889556 0.00991537 -0.0692233 0.00217044 0.00307585 0.368295)
(0.126038 0.0135985 -0.00739058 0.00226522 0.00723249 0.23911)
(0.0409072 0.00957398 -0.000614389 0.00277206 -0.00732189 0.111189)
(0.0270339 -0.00963118 -0.0436275 0.00399649 0.00922737 0.261537)
(0.00193234 0.00109439 0.0128967 0.00310349 0.00886211 0.609725)
(0.0149047 -0.00515119 -0.0540637 0.00293839 0.00775374 0.659857)
(0.00482961 -0.0021109 -0.0169269 0.00267755 0.00640632 0.797767)
(0.0141381 -0.00435271 -0.0510954 0.00262186 0.00397488 0.783967)
(0.010933 -0.0035375 -0.0361411 0.00258453 0.00393534 0.813543)
(0.0170158 -0.00464232 -0.0521677 0.00258372 0.00306988 0.790215)
(0.017004 -0.00453077 -0.0462171 0.00258155 0.00318159 0.783882)
(0.0215636 -0.00525157 -0.053805 0.00258902 0.00291188 0.764451)
(0.023134 -0.0054289 -0.0513208 0.00259463 0.00294585 0.746097)
(0.0274435 -0.00603237 -0.0562104 0.00259968 0.00272861 0.728506)
(0.0298394 -0.00633114 -0.0546773 0.00260788 0.00256231 0.698963)
(0.0350332 -0.00698175 -0.059995 0.0026084 0.00241011 0.685085)
(0.0377459 -0.00730142 -0.0571675 0.00261936 0.00191843 0.638319)
(0.0456431 -0.00816909 -0.06404 0.00260611 0.00157862 0.624685)
(0.0478371 -0.00839065 -0.057351 0.00261517 0.000513177 0.553737)
(0.0626028 -0.00985114 -0.0634334 0.0025781 -0.000487041 0.523403)
(0.06212 -0.00918604 -0.0504726 0.0024215 -0.00359177 0.431555)
(0.0926641 -0.0130147 -0.014864 0.0028369 -0.00962298 0.306223)
(0.0426189 -0.00933503 -0.00147585 0.00384261 0.0145909 0.122274)
(0.0162919 0.0058051 -0.0470829 0.00706732 0.0128818 0.388252)
(0.00867087 -0.00627984 0.0649017 0.0117937 -0.0150224 0.756664)
(0.00535749 0.00538503 -0.0202921 0.010365 -0.0126937 0.862649)
(0.00452014 -0.000247014 0.0455243 0.0119121 -0.0208487 0.967351)
(0.00552477 0.00506797 -0.000607719 0.0113806 -0.0192697 0.970093)
(0.00575284 0.00323636 0.0252116 0.0118474 -0.021436 0.985156)
(0.00766371 0.00596575 0.00277348 0.0116459 -0.0204673 0.973229)
(0.00846951 0.00566836 0.0120678 0.0117789 -0.0206949 0.964739)
(0.0105811 0.00733913 0.000600337 0.0116978 -0.0200539 0.952724)
(0.0118763 0.00764221 0.00313414 0.0117098 -0.0196366 0.936923)
(0.0142297 0.00893721 -0.00476006 0.0116668 -0.0189639 0.923602)
(0.0158932 0.00943528 -0.00485108 0.0116015 -0.0179615 0.899201)
(0.018935 0.0107525 -0.0131717 0.0115825 -0.0174805 0.886997)
(0.0208257 0.0112053 -0.0134912 0.0114245 -0.0157267 0.846682)
(0.0257864 0.0130127 -0.0248457 0.0114531 -0.0154037 0.832938)
(0.0274645 0.0130945 -0.0232777 0.0110724 -0.0124491 0.765091)
(0.0381471 0.0164165 -0.0398412 0.0112435 -0.0126145 0.740152)
(0.0375965 0.0153891 -0.0320327 0.010442 -0.00798583 0.605098)
(0.0687071 0.0222957 -0.0351277 0.0103764 -0.00271028 0.497271)
(0.0272429 0.0179125 -0.00225734 0.0154518 -0.0213658 0.116596)
(0.00189012 -0.00447909 -0.00222377 0.0177251 0.0118235 0.298364)
(0.0182694 0.011491 0.0778606 0.0169612 0.0124922 0.495547)
(0.00331897 0.000690716 0.0317777 0.0177544 0.0137345 0.496375)
(0.012121 0.00610071 0.0730634 0.0170939 0.0142807 0.55945)
(0.00602756 0.000833074 0.0469969 0.0174298 0.0141535 0.544407)
(0.00960552 0.00244509 0.0636022 0.017204 0.0140362 0.559101)
(0.0075321 -0.00038197 0.0509865 0.0173411 0.0139143 0.549491)
(0.00911457 -0.000236956 0.05709 0.0172666 0.0136928 0.550397)
(0.00867708 -0.00201573 0.0505293 0.0173336 0.0134635 0.54338)
(0.00962246 -0.00243628 0.0520673 0.0173069 0.0131792 0.538891)
(0.00983818 -0.00379871 0.047398 0.017334 0.0129112 0.532643)
(0.0106554 -0.00440319 0.0468664 0.0173333 0.0124631 0.522978)
(0.0112517 -0.00571029 0.042093 0.0173245 0.0121249 0.517124)
(0.0121449 -0.00631315 0.040719 0.0173599 0.0112784 0.498766)
(0.0133166 -0.00795456 0.0344561 0.0173017 0.010726 0.492584)
(0.014291 -0.00842752 0.0329683 0.017415 0.00910353 0.45888)
(0.017238 -0.0111687 0.0241636 0.0171899 0.00773676 0.448969)
(0.0177584 -0.0114431 0.0222708 0.0176048 0.00310583 0.374088)
(0.0275626 -0.0177394 0.017116 0.0179272 -0.0027113 0.352961)
(0.0202755 -0.0255069 -0.0915165 0.0339902 0.130705 0.546241)
(0.00285398 -0.0101693 -0.020356 0.0503647 0.134646 0.444177)
(0.0132822 -0.0237587 -0.0416797 0.0603367 0.155689 0.513341)
(0.00518734 -0.0126415 -0.0186749 0.0581233 0.152797 0.51217)
(0.00868793 -0.0163269 -0.0216474 0.060133 0.156161 0.521427)
(0.00535678 -0.0104907 -0.00915751 0.0590752 0.154936 0.520307)
(0.00647374 -0.0110678 -0.00780307 0.059769 0.156252 0.523254)
(0.0050121 -0.00764951 -0.000295126 0.0593489 0.155882 0.523086)
(0.00529654 -0.00705481 0.00219571 0.059565 0.156425 0.524056)
(0.00462323 -0.00481654 0.00687758 0.0594235 0.156568 0.524376)
(0.00465586 -0.00387332 0.00918708 0.0594122 0.156702 0.524355)
(0.00430836 -0.00220407 0.0123473 0.0593345 0.156823 0.524616)
(0.00430805 -0.00125019 0.0141213 0.0591962 0.156789 0.524218)
(0.00410761 0.00020202 0.0165288 0.0591252 0.156856 0.524159)
(0.00416905 0.00104336 0.0177502 0.0588618 0.156836 0.523896)
(0.00406372 0.00267097 0.0203658 0.0588123 0.156955 0.524171)
(0.00421576 0.0033642 0.0211383 0.0581849 0.15656 0.523481)
(0.00435384 0.00579773 0.0255076 0.058153 0.156901 0.524327)
(0.00445563 0.00638864 0.0255647 0.0563741 0.155296 0.521546)
(0.005083 0.00905898 0.0306289 0.056076 0.154093 0.516473)
(0.0170993 0.0329157 0.00381546 0.0735441 0.00712595 0.00209162)
(0.0203508 -0.0337516 7.05321e-05 0.109789 0.00511514 0.00176668)
(0.0069372 -0.0157979 -5.91859e-05 0.112495 0.0079542 0.00203883)
(0.0192606 -0.0285996 0.000212522 0.112451 0.0061583 0.00185997)
(0.0129095 -0.0206172 -0.000123916 0.1118 0.00737994 0.00197189)
(0.0160237 -0.0206711 0.000283758 0.111948 0.0065936 0.00189775)
(0.0138353 -0.017209 9.43961e-05 0.111635 0.00709947 0.0019429)
(0.0144744 -0.0150087 0.000353011 0.11173 0.00675199 0.00191168)
(0.013474 -0.0124691 0.000291135 0.111536 0.00694385 0.00192792)
(0.0135259 -0.0101391 0.000437936 0.11158 0.00677884 0.00191372)
(0.0129732 -0.00796886 0.000436004 0.111475 0.00682635 0.00191714)
(0.0129704 -0.0059881 0.000513512 0.111486 0.00673519 0.00190966)
(0.0126225 -0.00410529 0.000534141 0.111385 0.0067012 0.00190644)
(0.0128236 -0.00263505 0.000565389 0.111376 0.00663963 0.00190153)
(0.0126069 -0.00105438 0.000590686 0.111238 0.00653532 0.00189274)
(0.0132178 -0.000439182 0.000575988 0.111241 0.00648679 0.00188873)
(0.0130091 0.00106335 0.00059927 0.110935 0.00628683 0.00187176)
(0.0141872 -0.000128518 0.000508522 0.110943 0.00624904 0.00186842)
(0.0127637 0.00218569 0.000538457 0.108577 0.00586558 0.00183671)
(0.0128184 0.00748316 0.00076348 0.108694 0.00576011 0.00183257)
(0.064329 -0.0191469 0.0030662 0.0140397 -0.00137719 0.0014715)
(0.0179095 0.0149357 0.00161378 0.0318084 0.000149941 0.00142914)
(0.00415607 -0.00544492 0.00112601 0.0316961 -0.00134152 0.00145105)
(0.0187329 0.00934749 0.00152426 0.0369683 -0.00030553 0.00142674)
(0.0115799 0.00353015 0.000925049 0.0354288 -0.00103608 0.00142854)
(0.0179337 0.00545165 0.00122857 0.0357824 -0.000565098 0.00142487)
(0.0157683 0.00351677 0.000876827 0.0353073 -0.000869005 0.00142333)
(0.0181459 0.00259564 0.00101962 0.03526 -0.000666577 0.00142501)
(0.0176262 0.00131133 0.000828441 0.0351285 -0.000783235 0.00142328)
(0.0189039 -4.1012e-05 0.000882809 0.035058 -0.000690515 0.00142551)
(0.0189142 -0.00124404 0.000781582 0.0350353 -0.00072101 0.00142445)
(0.0201012 -0.00245944 0.000793287 0.0349875 -0.000671918 0.00142606)
(0.0203353 -0.00359828 0.000738511 0.0350663 -0.000654503 0.00142565)
(0.0219059 -0.00443502 0.000734754 0.0350249 -0.000622307 0.00142663)
(0.0222732 -0.00540193 0.000696587 0.0353263 -0.000561232 0.00142634)
(0.0247915 -0.00528059 0.000690728 0.0352593 -0.000536958 0.00142661)
(0.0250043 -0.00619551 0.0006403 0.0361973 -0.000416007 0.00142567)
(0.0289036 -0.00341906 0.000647587 0.0360611 -0.000399911 0.00142548)
(0.0271613 -0.0049712 0.000527158 0.0420847 -0.000170972 0.00142083)
(0.0284781 0.00332273 0.00049979 0.040264 -0.000154192 0.00142361)
(0.0801748 0.0317347 0.00455744 0.0151181 0.00216214 0.00167161)
(0.00199943 -0.00386905 0.000947238 0.0280297 0.000814176 0.00147722)
(0.00870394 0.012951 0.00190785 0.0255368 0.00217928 0.00160358)
(0.00566321 0.00117081 0.00133404 0.0242335 0.00119316 0.00150761)
(0.00560095 0.00467658 0.00129064 0.0227261 0.00176889 0.00155679)
(0.0081694 0.0036488 0.00129253 0.0228618 0.00139756 0.00152295)
(0.00834482 0.00478322 0.00118274 0.0225351 0.00162996 0.00154104)
(0.0102692 0.00560647 0.0012344 0.0226658 0.00147536 0.00152945)
(0.0109311 0.0064444 0.00116495 0.0225648 0.00156351 0.00153515)
(0.0126596 0.00752119 0.00120104 0.0226336 0.00149287 0.00153106)
(0.0136463 0.00840635 0.00116377 0.0226009 0.00151492 0.00153181)
(0.0154253 0.00937763 0.00117899 0.0226409 0.00147683 0.00152998)
(0.0166611 0.0102941 0.00115268 0.0226247 0.00146261 0.00152822)
(0.0186037 0.0109511 0.00114769 0.0226583 0.00143683 0.00152686)
(0.0200459 0.0118456 0.00111346 0.0226238 0.00138914 0.00152283)
(0.0221401 0.0117016 0.00108078 0.0226662 0.00136847 0.00152129)
(0.0237255 0.012673 0.0010192 0.0225165 0.00127638 0.00151315)
(0.0255692 0.010421 0.000929616 0.0224881 0.00126231 0.0015118)
(0.0270211 0.0121238 0.000829922 0.0218375 0.00110446 0.00149446)
(0.0298269 0.00254426 0.000532551 0.0223254 0.00109966 0.00149602)
(0.0758725 -0.00122985 0.00358903 0.00210698 -0.000336409 0.00154109)
(0.00185188 0.00159419 0.000958152 0.00343672 -3.3883e-05 0.0014412)
(0.0188371 -0.00484491 0.00181659 0.0036579 -0.000469734 0.00149714)
(0.00489347 -0.00297523 0.00109514 0.00538602 -0.000184318 0.00144803)
(0.00923623 -0.00489971 0.00133826 0.00548473 -0.000455107 0.00146776)
(0.00806469 -0.0041854 0.00107553 0.00565414 -0.000261223 0.00145241)
(0.00980051 -0.00460828 0.0011288 0.00559962 -0.000382352 0.00145888)
(0.0109727 -0.00483214 0.00100575 0.00554572 -0.000296655 0.00145492)
(0.0125968 -0.00514232 0.000999375 0.0055191 -0.000343712 0.00145628)
(0.0143962 -0.00559572 0.00092709 0.00547589 -0.000306116 0.00145567)
(0.0163258 -0.00598442 0.000895568 0.00547279 -0.000318076 0.00145538)
(0.0183204 -0.00642954 0.000843669 0.00544694 -0.000299003 0.00145545)
(0.0205976 -0.00689679 0.000795525 0.0054797 -0.000292019 0.00145445)
(0.0224546 -0.00717988 0.000752035 0.00545698 -0.000279973 0.00145444)
(0.0251588 -0.00775157 0.000683586 0.00558112 -0.000254698 0.00145271)
(0.0260295 -0.00751181 0.00064581 0.00554537 -0.000245967 0.0014523)
(0.0294194 -0.00834766 0.000543944 0.00597677 -0.000197398 0.00144866)
(0.02742 -0.00642522 0.000507734 0.00595547 -0.000191038 0.00144808)
(0.0315826 -0.00833323 0.000358718 0.00801068 -0.000110573 0.00143886)
(0.0272268 -0.00224226 0.000299943 0.00758755 -9.67851e-05 0.00144002)
(0.0729781 0.0107083 0.00408534 0.00203828 0.000681128 0.00161065)
(0.0015413 -0.0013275 0.000858025 0.00565732 0.000142574 0.00145498)
(0.0266716 0.00988557 0.00223757 0.00523819 0.000798816 0.00155507)
(0.0128866 0.00559303 0.00112445 0.0053385 0.000342189 0.00147556)
(0.0211169 0.00683676 0.00167089 0.0048903 0.000628777 0.00151429)
(0.0188105 0.00625802 0.00119083 0.00493187 0.000442689 0.00148721)
(0.0219058 0.00640868 0.00140573 0.00479693 0.000556167 0.00150109)
(0.0227725 0.0066966 0.00118241 0.00482006 0.000480186 0.00149236)
(0.0253033 0.00690309 0.00126235 0.00478506 0.000522416 0.00149649)
(0.0271522 0.00735383 0.00114671 0.00479522 0.00048886 0.0014937)
(0.0299866 0.00768776 0.00116024 0.00478863 0.000499087 0.00149411)
(0.0321214 0.00813149 0.00109236 0.00479673 0.000481488 0.001493)
(0.0354324 0.00854803 0.00106712 0.00480434 0.000474523 0.00149155)
(0.0372166 0.00885042 0.00101716 0.00481208 0.000462981 0.0014907)
(0.0412605 0.00933921 0.000958255 0.00483509 0.000440122 0.00148749)
(0.0411431 0.00921745 0.000908512 0.00484507 0.000431052 0.00148639)
(0.0465818 0.00985444 0.000810347 0.00490363 0.000388094 0.00147978)
(0.0412965 0.00834519 0.000726742 0.00488731 0.00038284 0.00147874)
(0.0492052 0.0094623 0.000590282 0.00501599 0.00031476 0.0014641)
(0.0365594 0.00364376 0.000360067 0.00515338 0.000314822 0.00146534)
(0.0695365 -0.00280982 0.00381505 0.000596885 -0.000240975 0.00157935)
(0.00196796 0.00121475 0.000903934 0.0016244 -2.9189e-05 0.00144793)
(0.0293971 -0.00375372 0.00212012 0.00158075 -0.000342903 0.00152785)
(0.0183159 -0.00298433 0.000991555 0.00228435 -0.000146609 0.00146179)
(0.0304032 -0.00477274 0.00162687 0.00232469 -0.000331776 0.00149243)
(0.028864 -0.00463976 0.00106236 0.00243429 -0.000200394 0.00147029)
(0.0332903 -0.00499106 0.00134495 0.00240709 -0.000283719 0.00148123)
(0.0342245 -0.00513543 0.00105965 0.00240154 -0.000224255 0.00147435)
(0.0373982 -0.00530525 0.00117127 0.00238646 -0.000256462 0.00147744)
(0.0392951 -0.00556241 0.00101667 0.0023767 -0.000230183 0.00147542)
(0.0426785 -0.00579 0.00103882 0.00237394 -0.000238237 0.0014756)
(0.0448614 -0.00605502 0.000946754 0.00236867 -0.000224914 0.00147489)
(0.0488093 -0.00636436 0.000918304 0.00238084 -0.00022019 0.00147366)
(0.05051 -0.00651216 0.000853789 0.00237428 -0.000211948 0.00147311)
(0.0554161 -0.00696598 0.000786132 0.00242278 -0.00019542 0.00147054)
(0.0546719 -0.00675026 0.000732479 0.00241266 -0.000189565 0.00146973)
(0.0614965 -0.00749389 0.000624053 0.00257522 -0.000159712 0.00146441)
(0.0543047 -0.00617559 0.000555695 0.0025676 -0.000156029 0.00146356)
(0.0637683 -0.00765423 0.000410687 0.00315863 -0.00011139 0.0014514)
(0.0480792 -0.00432248 0.000268661 0.00310925 -0.000104409 0.00145235)
(0.0695366 0.00281065 0.00381505 0.000596927 0.000240978 0.00157935)
(0.00196795 -0.0012148 0.000903964 0.00162452 2.91419e-05 0.00144795)
(0.0293982 0.00375372 0.00212006 0.00158082 0.000342887 0.00152785)
(0.018316 0.00298453 0.000991474 0.00228436 0.000146555 0.0014618)
(0.0304035 0.00477381 0.00162645 0.00232527 0.000331608 0.00149243)
(0.0288638 0.00463764 0.00106226 0.00243331 0.000200454 0.00147029)
(0.0332881 0.004987 0.00134523 0.00240482 0.000283905 0.00148122)
(0.0342263 0.00513322 0.00105976 0.00240054 0.000224376 0.00147434)
(0.0373996 0.00530121 0.00117125 0.0023847 0.000256568 0.00147744)
(0.0392918 0.00555928 0.00101659 0.00237429 0.000230206 0.00147543)
(0.0426762 0.00578888 0.00103908 0.00237243 0.00023835 0.00147559)
(0.0448622 0.00605008 0.000947705 0.00236623 0.000225278 0.00147484)
(0.0488099 0.00636374 0.000918264 0.00237988 0.000220206 0.00147366)
(0.0505093 0.00651316 0.000853576 0.00237404 0.000211808 0.00147313)
(0.0554157 0.00696546 0.000786411 0.00242247 0.000195457 0.00147053)
(0.0546737 0.00675194 0.000732492 0.00241248 0.000189574 0.00146973)
(0.061493 0.00750655 0.000624047 0.00257602 0.000159258 0.00146441)
(0.0543077 0.00619908 0.000555871 0.00257127 0.000155593 0.00146354)
(0.0637834 0.00775783 0.000411076 0.0031518 0.000109445 0.00145137)
(0.0482288 0.00431965 0.000268364 0.00314805 0.000101777 0.00145232)
(0.0729795 -0.0107062 0.00408536 0.00203766 -0.000681105 0.00161065)
(0.00154143 0.00132751 0.00085798 0.00565707 -0.00014271 0.00145495)
(0.0266706 -0.00988537 0.00223771 0.00523807 -0.000798879 0.00155508)
(0.0128869 -0.00559267 0.00112445 0.00533838 -0.000342197 0.00147556)
(0.021116 -0.00683712 0.00167093 0.00489029 -0.000628727 0.0015143)
(0.0188091 -0.00625884 0.00119088 0.00493296 -0.000442678 0.00148721)
(0.0219075 -0.00641248 0.00140594 0.00479943 -0.000556272 0.00150108)
(0.0227708 -0.0067011 0.00118269 0.00482177 -0.000480154 0.00149234)
(0.0253007 -0.0069051 0.00126248 0.00478691 -0.000522437 0.00149649)
(0.0271548 -0.00735852 0.00114665 0.00480031 -0.000488668 0.0014937)
(0.0299873 -0.0076912 0.00116037 0.00479105 -0.000499075 0.0014941)
(0.0321193 -0.00813562 0.00109302 0.0048005 -0.000481582 0.00149295)
(0.0354324 -0.00854866 0.00106707 0.00480572 -0.000474497 0.00149156)
(0.0372169 -0.00885165 0.00101698 0.00481286 -0.000462858 0.00149072)
(0.0412577 -0.00934017 0.000958566 0.00483541 -0.000440067 0.00148747)
(0.0411456 -0.00921584 0.000908314 0.00484513 -0.000431061 0.0014864)
(0.0465837 -0.00984833 0.000810095 0.00490318 -0.000388127 0.0014798)
(0.041323 -0.00832547 0.000725675 0.00488238 -0.000382937 0.00147873)
(0.0492245 -0.0093861 0.000589049 0.00502439 -0.000315449 0.00146416)
(0.0368759 -0.00363982 0.000356019 0.00511758 -0.000315757 0.00146558)
(0.0758719 0.00122783 0.00358903 0.00210693 0.000336394 0.00154109)
(0.00185203 -0.00159416 0.000958098 0.00343639 3.40053e-05 0.00144117)
(0.0188378 0.00484463 0.00181673 0.00365773 0.000469777 0.00149715)
(0.00489342 0.00297521 0.00109511 0.00538584 0.000184236 0.00144805)
(0.00923578 0.00490054 0.001338 0.00548573 0.000454814 0.00146777)
(0.00806387 0.00418416 0.00107556 0.00565276 0.000261333 0.00145242)
(0.00979936 0.00460778 0.00112889 0.00559836 0.000382515 0.00145887)
(0.0109732 0.00483341 0.00100573 0.00554704 0.000296556 0.00145492)
(0.0125965 0.00514126 0.000999401 0.00551815 0.000343816 0.00145629)
(0.0143955 0.00559583 0.000927089 0.00547643 0.000305923 0.00145569)
(0.0163255 0.00598534 0.000895588 0.00547283 0.000317947 0.00145539)
(0.018321 0.0064303 0.000843631 0.00544833 0.000298896 0.00145545)
(0.0205986 0.00689727 0.000795464 0.00547939 0.000291999 0.00145446)
(0.022455 0.00718086 0.000752011 0.0054572 0.000279771 0.00145445)
(0.0251595 0.00775223 0.000683565 0.0055814 0.000254569 0.00145271)
(0.0260333 0.00751417 0.000645648 0.00554619 0.000245912 0.00145229)
(0.0294287 0.00835081 0.000543727 0.00597858 0.000196768 0.00144868)
(0.0274476 0.00643383 0.000506567 0.0059625 0.000190336 0.00144809)
(0.0316522 0.00836013 0.000356969 0.00801269 0.000107635 0.00143896)
(0.0275946 0.002202 0.000295099 0.00764358 9.26959e-05 0.00144029)
(0.0801754 -0.0317351 0.00455744 0.0151185 -0.00216216 0.00167161)
(0.00199941 0.00386887 0.000947289 0.0280287 -0.000814008 0.00147724)
(0.00870365 -0.0129506 0.00190778 0.0255362 -0.00217918 0.00160358)
(0.00566291 -0.00117179 0.00133406 0.0242335 -0.001193 0.00150763)
(0.00560097 -0.00467597 0.00129068 0.0227283 -0.00176837 0.00155679)
(0.00817067 -0.00364782 0.00129261 0.0228647 -0.00139752 0.00152296)
(0.00834285 -0.00478097 0.00118265 0.0225425 -0.00163011 0.00154104)
(0.0102715 -0.00560104 0.00123447 0.0226721 -0.00147497 0.00152945)
(0.010935 -0.00644445 0.00116495 0.0225706 -0.00156363 0.00153514)
(0.0126572 -0.00751781 0.00120093 0.0226567 -0.00149258 0.00153106)
(0.0136464 -0.00840195 0.00116371 0.02261 -0.00151473 0.0015318)
(0.0154295 -0.00937532 0.00117877 0.0226592 -0.00147676 0.00152993)
(0.0166621 -0.0102946 0.00115266 0.0226294 -0.00146264 0.00152822)
(0.0186029 -0.0109484 0.00114772 0.0226599 -0.00143656 0.00152688)
(0.020052 -0.0118426 0.00111345 0.022625 -0.00138885 0.00152282)
(0.0221442 -0.0117012 0.00108052 0.022666 -0.00136841 0.00152128)
(0.0237395 -0.01267 0.00101861 0.0225138 -0.00127581 0.00151315)
(0.0255893 -0.0104173 0.000928361 0.022476 -0.00126161 0.00151184)
(0.0271016 -0.0121352 0.000825388 0.0218264 -0.0011014 0.00149446)
(0.029896 -0.00248964 0.000523866 0.0222544 -0.00109525 0.00149632)
(0.0643289 0.019147 0.00306619 0.0140398 0.00137719 0.0014715)
(0.0179101 -0.0149345 0.00161367 0.0318061 -0.00014969 0.00142911)