/*--------------------------------*- C++ -*----------------------------------*\
  =========                 |
  \\      /  F ield         | OpenFOAM: The Open Source CFD Toolbox
   \\    /   O peration     | Website:  https://openfoam.org
    \\  /    A nd           | Version:  7
     \\/     M anipulation  |
\*---------------------------------------------------------------------------*/
FoamFile
{
    version     2.0;
    format      ascii;
    class       volScalarField;
    location    "1.44";
    object      pPrime2Mean;
}
// * * * * * * * * * * * * * * * * * * * * * * * * * * * * * * * * * * * * * //

dimensions      [2 -2 -4 0 0 0 0];

internalField   nonuniform List<scalar> 
7920
(
1.19186e+06
1.19046e+06
1.19049e+06
1.18898e+06
1.1889e+06
1.18714e+06
1.18685e+06
1.18483e+06
1.18431e+06
1.18209e+06
1.18135e+06
1.179e+06
1.1781e+06
1.17567e+06
1.17462e+06
1.17212e+06
1.17095e+06
1.16837e+06
1.16712e+06
1.16466e+06
1.19178e+06
1.19035e+06
1.19034e+06
1.1888e+06
1.18871e+06
1.18693e+06
1.18663e+06
1.1846e+06
1.18407e+06
1.18184e+06
1.1811e+06
1.17874e+06
1.17784e+06
1.1754e+06
1.17435e+06
1.17184e+06
1.17066e+06
1.16807e+06
1.16683e+06
1.16435e+06
1.19179e+06
1.19032e+06
1.19031e+06
1.18878e+06
1.18869e+06
1.18692e+06
1.18664e+06
1.18463e+06
1.18411e+06
1.1819e+06
1.18118e+06
1.17883e+06
1.17793e+06
1.1755e+06
1.17445e+06
1.17195e+06
1.17076e+06
1.16818e+06
1.16691e+06
1.16441e+06
1.19178e+06
1.19032e+06
1.19031e+06
1.18877e+06
1.18868e+06
1.1869e+06
1.18661e+06
1.18458e+06
1.18406e+06
1.18184e+06
1.18111e+06
1.17876e+06
1.17786e+06
1.17542e+06
1.17438e+06
1.17187e+06
1.17069e+06
1.1681e+06
1.16683e+06
1.16426e+06
1.19179e+06
1.19032e+06
1.1903e+06
1.18877e+06
1.18867e+06
1.18689e+06
1.1866e+06
1.18458e+06
1.18407e+06
1.18186e+06
1.18114e+06
1.17879e+06
1.1779e+06
1.17547e+06
1.17443e+06
1.17192e+06
1.17074e+06
1.16816e+06
1.16686e+06
1.16429e+06
1.19178e+06
1.19031e+06
1.19029e+06
1.18875e+06
1.18866e+06
1.18688e+06
1.18659e+06
1.18457e+06
1.18405e+06
1.18184e+06
1.18111e+06
1.17877e+06
1.17787e+06
1.17544e+06
1.1744e+06
1.17189e+06
1.17072e+06
1.16813e+06
1.16684e+06
1.16425e+06
1.19178e+06
1.19031e+06
1.19029e+06
1.18875e+06
1.18866e+06
1.18688e+06
1.18659e+06
1.18457e+06
1.18405e+06
1.18184e+06
1.18111e+06
1.17877e+06
1.17787e+06
1.17544e+06
1.1744e+06
1.17189e+06
1.17072e+06
1.16813e+06
1.16684e+06
1.16425e+06
1.19179e+06
1.19032e+06
1.1903e+06
1.18877e+06
1.18867e+06
1.18689e+06
1.1866e+06
1.18458e+06
1.18407e+06
1.18186e+06
1.18114e+06
1.17879e+06
1.1779e+06
1.17547e+06
1.17443e+06
1.17192e+06
1.17074e+06
1.16816e+06
1.16686e+06
1.16429e+06
1.19178e+06
1.19032e+06
1.19031e+06
1.18877e+06
1.18868e+06
1.1869e+06
1.18661e+06
1.18458e+06
1.18406e+06
1.18184e+06
1.18111e+06
1.17876e+06
1.17786e+06
1.17542e+06
1.17438e+06
1.17187e+06
1.17069e+06
1.1681e+06
1.16683e+06
1.16426e+06
1.19179e+06
1.19032e+06
1.19031e+06
1.18878e+06
1.18869e+06
1.18692e+06
1.18664e+06
1.18463e+06
1.18411e+06
1.1819e+06
1.18118e+06
1.17883e+06
1.17793e+06
1.1755e+06
1.17445e+06
1.17195e+06
1.17076e+06
1.16818e+06
1.1669e+06
1.16441e+06
1.19178e+06
1.19035e+06
1.19034e+06
1.1888e+06
1.18871e+06
1.18693e+06
1.18663e+06
1.1846e+06
1.18407e+06
1.18184e+06
1.1811e+06
1.17874e+06
1.17784e+06
1.1754e+06
1.17435e+06
1.17184e+06
1.17066e+06
1.16807e+06
1.16682e+06
1.16435e+06
1.19186e+06
1.19046e+06
1.19049e+06
1.18898e+06
1.1889e+06
1.18714e+06
1.18685e+06
1.18483e+06
1.18431e+06
1.18209e+06
1.18135e+06
1.179e+06
1.1781e+06
1.17567e+06
1.17463e+06
1.17212e+06
1.17095e+06
1.16837e+06
1.16712e+06
1.16466e+06
1.19073e+06
1.18895e+06
1.18936e+06
1.18753e+06
1.18781e+06
1.18573e+06
1.1858e+06
1.18352e+06
1.18335e+06
1.18091e+06
1.18052e+06
1.17799e+06
1.1774e+06
1.17481e+06
1.17405e+06
1.17141e+06
1.17049e+06
1.16781e+06
1.16677e+06
1.16412e+06
1.1908e+06
1.18896e+06
1.18936e+06
1.18755e+06
1.18786e+06
1.18582e+06
1.18591e+06
1.18366e+06
1.18351e+06
1.1811e+06
1.18071e+06
1.17819e+06
1.17761e+06
1.17502e+06
1.17426e+06
1.17164e+06
1.17071e+06
1.16805e+06
1.16702e+06
1.16439e+06
1.19079e+06
1.18898e+06
1.18939e+06
1.18757e+06
1.18787e+06
1.1858e+06
1.18587e+06
1.1836e+06
1.18344e+06
1.18101e+06
1.18062e+06
1.1781e+06
1.17751e+06
1.17492e+06
1.17416e+06
1.17153e+06
1.1706e+06
1.16791e+06
1.16687e+06
1.16413e+06
1.19083e+06
1.18898e+06
1.18936e+06
1.18752e+06
1.18782e+06
1.18577e+06
1.18586e+06
1.18361e+06
1.18347e+06
1.18106e+06
1.18069e+06
1.17817e+06
1.17759e+06
1.17501e+06
1.17426e+06
1.17163e+06
1.1707e+06
1.16802e+06
1.16698e+06
1.16426e+06
1.19082e+06
1.18897e+06
1.18936e+06
1.18752e+06
1.18782e+06
1.18576e+06
1.18584e+06
1.18359e+06
1.18344e+06
1.18102e+06
1.18064e+06
1.17812e+06
1.17754e+06
1.17496e+06
1.1742e+06
1.17157e+06
1.17065e+06
1.16795e+06
1.16691e+06
1.16414e+06
1.19084e+06
1.18898e+06
1.18936e+06
1.18752e+06
1.18782e+06
1.18576e+06
1.18585e+06
1.1836e+06
1.18345e+06
1.18104e+06
1.18066e+06
1.17814e+06
1.17756e+06
1.17499e+06
1.17423e+06
1.1716e+06
1.17068e+06
1.16799e+06
1.16694e+06
1.16418e+06
1.19084e+06
1.18898e+06
1.18936e+06
1.18752e+06
1.18782e+06
1.18576e+06
1.18585e+06
1.1836e+06
1.18345e+06
1.18104e+06
1.18066e+06
1.17814e+06
1.17756e+06
1.17499e+06
1.17423e+06
1.1716e+06
1.17068e+06
1.16799e+06
1.16694e+06
1.16418e+06
1.19082e+06
1.18897e+06
1.18936e+06
1.18752e+06
1.18782e+06
1.18576e+06
1.18584e+06
1.18359e+06
1.18344e+06
1.18102e+06
1.18064e+06
1.17812e+06
1.17754e+06
1.17496e+06
1.1742e+06
1.17157e+06
1.17065e+06
1.16795e+06
1.16691e+06
1.16414e+06
1.19083e+06
1.18898e+06
1.18936e+06
1.18752e+06
1.18782e+06
1.18577e+06
1.18586e+06
1.18361e+06
1.18347e+06
1.18106e+06
1.18069e+06
1.17817e+06
1.17759e+06
1.17501e+06
1.17426e+06
1.17163e+06
1.1707e+06
1.16802e+06
1.16697e+06
1.16426e+06
1.19079e+06
1.18898e+06
1.18939e+06
1.18757e+06
1.18787e+06
1.1858e+06
1.18587e+06
1.1836e+06
1.18344e+06
1.18101e+06
1.18062e+06
1.1781e+06
1.17751e+06
1.17492e+06
1.17416e+06
1.17153e+06
1.1706e+06
1.16791e+06
1.16687e+06
1.16414e+06
1.1908e+06
1.18896e+06
1.18936e+06
1.18755e+06
1.18786e+06
1.18582e+06
1.18591e+06
1.18366e+06
1.18351e+06
1.1811e+06
1.18071e+06
1.17819e+06
1.17761e+06
1.17502e+06
1.17427e+06
1.17164e+06
1.17071e+06
1.16805e+06
1.16701e+06
1.16439e+06
1.19073e+06
1.18895e+06
1.18936e+06
1.18753e+06
1.18781e+06
1.18573e+06
1.1858e+06
1.18352e+06
1.18335e+06
1.18091e+06
1.18052e+06
1.17799e+06
1.1774e+06
1.17481e+06
1.17405e+06
1.17141e+06
1.17049e+06
1.16781e+06
1.16677e+06
1.16412e+06
1.19059e+06
1.18883e+06
1.18905e+06
1.18732e+06
1.18757e+06
1.18569e+06
1.18574e+06
1.18358e+06
1.18338e+06
1.18103e+06
1.18062e+06
1.17816e+06
1.17757e+06
1.17501e+06
1.17426e+06
1.17162e+06
1.17073e+06
1.16799e+06
1.16702e+06
1.16431e+06
1.19063e+06
1.18884e+06
1.18905e+06
1.18732e+06
1.18756e+06
1.18566e+06
1.18571e+06
1.18357e+06
1.18338e+06
1.18104e+06
1.18064e+06
1.17818e+06
1.1776e+06
1.17504e+06
1.17429e+06
1.17165e+06
1.17075e+06
1.16801e+06
1.16703e+06
1.16429e+06
1.19064e+06
1.18885e+06
1.18906e+06
1.18732e+06
1.18755e+06
1.18565e+06
1.18571e+06
1.18356e+06
1.18338e+06
1.18105e+06
1.18065e+06
1.17819e+06
1.17761e+06
1.17505e+06
1.1743e+06
1.17166e+06
1.17076e+06
1.16801e+06
1.16703e+06
1.16426e+06
1.19066e+06
1.18886e+06
1.18906e+06
1.18732e+06
1.18754e+06
1.18563e+06
1.18569e+06
1.18355e+06
1.18336e+06
1.18104e+06
1.18064e+06
1.17819e+06
1.17761e+06
1.17506e+06
1.17431e+06
1.17167e+06
1.17077e+06
1.16802e+06
1.16703e+06
1.16426e+06
1.19066e+06
1.18887e+06
1.18907e+06
1.18732e+06
1.18754e+06
1.18563e+06
1.18568e+06
1.18355e+06
1.18336e+06
1.18104e+06
1.18064e+06
1.17818e+06
1.17761e+06
1.17505e+06
1.17431e+06
1.17167e+06
1.17077e+06
1.16802e+06
1.16703e+06
1.16426e+06
1.19067e+06
1.18887e+06
1.18907e+06
1.18732e+06
1.18753e+06
1.18562e+06
1.18568e+06
1.18354e+06
1.18336e+06
1.18103e+06
1.18064e+06
1.17818e+06
1.17761e+06
1.17505e+06
1.17431e+06
1.17167e+06
1.17077e+06
1.16802e+06
1.16703e+06
1.16426e+06
1.19067e+06
1.18887e+06
1.18907e+06
1.18732e+06
1.18753e+06
1.18562e+06
1.18568e+06
1.18354e+06
1.18336e+06
1.18103e+06
1.18064e+06
1.17818e+06
1.17761e+06
1.17505e+06
1.17431e+06
1.17167e+06
1.17077e+06
1.16802e+06
1.16703e+06
1.16426e+06
1.19066e+06
1.18887e+06
1.18907e+06
1.18732e+06
1.18754e+06
1.18563e+06
1.18568e+06
1.18355e+06
1.18336e+06
1.18104e+06
1.18064e+06
1.17818e+06
1.17761e+06
1.17505e+06
1.17431e+06
1.17167e+06
1.17077e+06
1.16802e+06
1.16703e+06
1.16426e+06
1.19066e+06
1.18886e+06
1.18906e+06
1.18732e+06
1.18754e+06
1.18563e+06
1.18569e+06
1.18355e+06
1.18336e+06
1.18104e+06
1.18064e+06
1.17819e+06
1.17761e+06
1.17506e+06
1.17431e+06
1.17167e+06
1.17077e+06
1.16802e+06
1.16703e+06
1.16426e+06
1.19064e+06
1.18885e+06
1.18906e+06
1.18732e+06
1.18755e+06
1.18565e+06
1.18571e+06
1.18356e+06
1.18338e+06
1.18105e+06
1.18065e+06
1.17819e+06
1.17761e+06
1.17505e+06
1.1743e+06
1.17166e+06
1.17076e+06
1.16801e+06
1.16703e+06
1.16426e+06
1.19063e+06
1.18884e+06
1.18905e+06
1.18732e+06
1.18756e+06
1.18566e+06
1.18571e+06
1.18357e+06
1.18338e+06
1.18104e+06
1.18064e+06
1.17818e+06
1.1776e+06
1.17504e+06
1.17429e+06
1.17165e+06
1.17074e+06
1.16801e+06
1.16703e+06
1.16429e+06
1.19059e+06
1.18883e+06
1.18905e+06
1.18732e+06
1.18757e+06
1.18569e+06
1.18574e+06
1.18358e+06
1.18338e+06
1.18103e+06
1.18063e+06
1.17816e+06
1.17757e+06
1.17501e+06
1.17426e+06
1.17162e+06
1.17072e+06
1.16799e+06
1.16702e+06
1.16432e+06
1.19059e+06
1.18883e+06
1.18905e+06
1.18732e+06
1.18757e+06
1.18569e+06
1.18574e+06
1.18358e+06
1.18338e+06
1.18104e+06
1.18063e+06
1.17816e+06
1.17757e+06
1.17501e+06
1.17426e+06
1.17162e+06
1.17073e+06
1.16799e+06
1.16702e+06
1.16431e+06
1.19063e+06
1.18884e+06
1.18905e+06
1.18732e+06
1.18756e+06
1.18566e+06
1.18571e+06
1.18357e+06
1.18338e+06
1.18104e+06
1.18064e+06
1.17818e+06
1.1776e+06
1.17504e+06
1.17429e+06
1.17165e+06
1.17075e+06
1.16801e+06
1.16703e+06
1.16429e+06
1.19064e+06
1.18885e+06
1.18906e+06
1.18732e+06
1.18755e+06
1.18565e+06
1.18571e+06
1.18356e+06
1.18338e+06
1.18105e+06
1.18065e+06
1.17819e+06
1.17761e+06
1.17505e+06
1.1743e+06
1.17166e+06
1.17076e+06
1.16801e+06
1.16703e+06
1.16426e+06
1.19066e+06
1.18886e+06
1.18906e+06
1.18732e+06
1.18754e+06
1.18563e+06
1.18569e+06
1.18355e+06
1.18336e+06
1.18104e+06
1.18064e+06
1.17819e+06
1.17761e+06
1.17506e+06
1.17431e+06
1.17167e+06
1.17077e+06
1.16802e+06
1.16703e+06
1.16426e+06
1.19066e+06
1.18887e+06
1.18907e+06
1.18732e+06
1.18754e+06
1.18563e+06
1.18568e+06
1.18355e+06
1.18336e+06
1.18104e+06
1.18064e+06
1.17818e+06
1.17761e+06
1.17505e+06
1.17431e+06
1.17167e+06
1.17077e+06
1.16802e+06
1.16703e+06
1.16426e+06
1.19067e+06
1.18887e+06
1.18907e+06
1.18732e+06
1.18753e+06
1.18562e+06
1.18568e+06
1.18354e+06
1.18336e+06
1.18104e+06
1.18064e+06
1.17818e+06
1.17761e+06
1.17505e+06
1.17431e+06
1.17167e+06
1.17077e+06
1.16802e+06
1.16703e+06
1.16426e+06
1.19067e+06
1.18887e+06
1.18907e+06
1.18732e+06
1.18753e+06
1.18562e+06
1.18568e+06
1.18354e+06
1.18336e+06
1.18104e+06
1.18064e+06
1.17818e+06
1.17761e+06
1.17505e+06
1.17431e+06
1.17167e+06
1.17077e+06
1.16802e+06
1.16703e+06
1.16426e+06
1.19066e+06
1.18887e+06
1.18907e+06
1.18732e+06
1.18754e+06
1.18563e+06
1.18568e+06
1.18355e+06
1.18336e+06
1.18104e+06
1.18064e+06
1.17818e+06
1.17761e+06
1.17505e+06
1.17431e+06
1.17167e+06
1.17077e+06
1.16802e+06
1.16703e+06
1.16426e+06
1.19066e+06
1.18886e+06
1.18906e+06
1.18732e+06
1.18754e+06
1.18563e+06
1.18569e+06
1.18355e+06
1.18336e+06
1.18104e+06
1.18064e+06
1.17819e+06
1.17761e+06
1.17506e+06
1.17431e+06
1.17167e+06
1.17077e+06
1.16802e+06
1.16703e+06
1.16426e+06
1.19064e+06
1.18885e+06
1.18906e+06
1.18732e+06
1.18755e+06
1.18565e+06
1.18571e+06
1.18356e+06
1.18338e+06
1.18105e+06
1.18065e+06
1.17819e+06
1.17761e+06
1.17505e+06
1.1743e+06
1.17166e+06
1.17076e+06
1.16801e+06
1.16703e+06
1.16426e+06
1.19063e+06
1.18884e+06
1.18905e+06
1.18732e+06
1.18756e+06
1.18566e+06
1.18571e+06
1.18357e+06
1.18338e+06
1.18104e+06
1.18064e+06
1.17818e+06
1.1776e+06
1.17504e+06
1.17429e+06
1.17165e+06
1.17074e+06
1.16801e+06
1.16703e+06
1.16429e+06
1.19059e+06
1.18883e+06
1.18905e+06
1.18732e+06
1.18757e+06
1.18569e+06
1.18574e+06
1.18358e+06
1.18338e+06
1.18104e+06
1.18063e+06
1.17816e+06
1.17757e+06
1.17501e+06
1.17426e+06
1.17162e+06
1.17072e+06
1.16799e+06
1.16702e+06
1.16432e+06
1.19073e+06
1.18895e+06
1.18936e+06
1.18753e+06
1.18781e+06
1.18573e+06
1.1858e+06
1.18352e+06
1.18335e+06
1.18091e+06
1.18052e+06
1.17799e+06
1.1774e+06
1.17481e+06
1.17405e+06
1.17141e+06
1.17049e+06
1.16781e+06
1.16677e+06
1.16412e+06
1.1908e+06
1.18896e+06
1.18936e+06
1.18755e+06
1.18786e+06
1.18582e+06
1.18591e+06
1.18366e+06
1.18351e+06
1.1811e+06
1.18071e+06
1.17819e+06
1.17761e+06
1.17503e+06
1.17427e+06
1.17164e+06
1.17071e+06
1.16805e+06
1.16702e+06
1.16439e+06
1.19079e+06
1.18898e+06
1.18939e+06
1.18757e+06
1.18787e+06
1.1858e+06
1.18587e+06
1.1836e+06
1.18344e+06
1.18101e+06
1.18062e+06
1.1781e+06
1.17751e+06
1.17492e+06
1.17416e+06
1.17153e+06
1.1706e+06
1.16791e+06
1.16688e+06
1.16414e+06
1.19083e+06
1.18898e+06
1.18936e+06
1.18752e+06
1.18782e+06
1.18577e+06
1.18586e+06
1.18361e+06
1.18347e+06
1.18106e+06
1.18069e+06
1.17817e+06
1.17759e+06
1.17502e+06
1.17426e+06
1.17163e+06
1.1707e+06
1.16802e+06
1.16698e+06
1.16426e+06
1.19082e+06
1.18897e+06
1.18936e+06
1.18752e+06
1.18782e+06
1.18576e+06
1.18584e+06
1.18359e+06
1.18344e+06
1.18102e+06
1.18064e+06
1.17812e+06
1.17754e+06
1.17496e+06
1.1742e+06
1.17157e+06
1.17065e+06
1.16795e+06
1.16691e+06
1.16414e+06
1.19084e+06
1.18898e+06
1.18936e+06
1.18752e+06
1.18782e+06
1.18576e+06
1.18585e+06
1.1836e+06
1.18345e+06
1.18104e+06
1.18066e+06
1.17815e+06
1.17756e+06
1.17499e+06
1.17423e+06
1.1716e+06
1.17068e+06
1.16799e+06
1.16694e+06
1.16418e+06
1.19084e+06
1.18898e+06
1.18936e+06
1.18752e+06
1.18782e+06
1.18576e+06
1.18585e+06
1.1836e+06
1.18345e+06
1.18104e+06
1.18066e+06
1.17815e+06
1.17756e+06
1.17499e+06
1.17423e+06
1.1716e+06
1.17068e+06
1.16799e+06
1.16694e+06
1.16418e+06
1.19082e+06
1.18897e+06
1.18936e+06
1.18752e+06
1.18782e+06
1.18576e+06
1.18584e+06
1.18359e+06
1.18344e+06
1.18102e+06
1.18064e+06
1.17812e+06
1.17754e+06
1.17496e+06
1.1742e+06
1.17157e+06
1.17065e+06
1.16795e+06
1.16691e+06
1.16414e+06
1.19083e+06
1.18898e+06
1.18936e+06
1.18752e+06
1.18782e+06
1.18577e+06
1.18586e+06
1.18361e+06
1.18347e+06
1.18106e+06
1.18069e+06
1.17817e+06
1.17759e+06
1.17502e+06
1.17426e+06
1.17163e+06
1.1707e+06
1.16802e+06
1.16697e+06
1.16426e+06
1.19079e+06
1.18898e+06
1.18939e+06
1.18757e+06
1.18787e+06
1.1858e+06
1.18587e+06
1.1836e+06
1.18344e+06
1.18101e+06
1.18062e+06
1.1781e+06
1.17751e+06
1.17492e+06
1.17416e+06
1.17153e+06
1.1706e+06
1.16791e+06
1.16687e+06
1.16414e+06
1.1908e+06
1.18896e+06
1.18936e+06
1.18755e+06
1.18786e+06
1.18582e+06
1.18591e+06
1.18366e+06
1.18351e+06
1.1811e+06
1.18071e+06
1.17819e+06
1.17761e+06
1.17503e+06
1.17427e+06
1.17164e+06
1.17071e+06
1.16805e+06
1.16701e+06
1.1644e+06
1.19073e+06
1.18895e+06
1.18936e+06
1.18753e+06
1.18781e+06
1.18573e+06
1.1858e+06
1.18352e+06
1.18335e+06
1.18091e+06
1.18052e+06
1.17799e+06
1.1774e+06
1.17481e+06
1.17405e+06
1.17141e+06
1.17049e+06
1.16781e+06
1.16677e+06
1.16412e+06
1.19186e+06
1.19046e+06
1.19049e+06
1.18898e+06
1.18891e+06
1.18714e+06
1.18685e+06
1.18483e+06
1.18431e+06
1.18209e+06
1.18135e+06
1.17901e+06
1.1781e+06
1.17567e+06
1.17463e+06
1.17212e+06
1.17095e+06
1.16837e+06
1.16712e+06
1.16466e+06
1.19178e+06
1.19035e+06
1.19034e+06
1.1888e+06
1.18871e+06
1.18693e+06
1.18664e+06
1.1846e+06
1.18407e+06
1.18184e+06
1.1811e+06
1.17874e+06
1.17784e+06
1.1754e+06
1.17435e+06
1.17184e+06
1.17066e+06
1.16807e+06
1.16683e+06
1.16435e+06
1.19179e+06
1.19032e+06
1.19031e+06
1.18878e+06
1.18869e+06
1.18692e+06
1.18664e+06
1.18463e+06
1.18412e+06
1.1819e+06
1.18118e+06
1.17883e+06
1.17793e+06
1.1755e+06
1.17445e+06
1.17195e+06
1.17076e+06
1.16818e+06
1.16691e+06
1.16441e+06
1.19178e+06
1.19032e+06
1.19031e+06
1.18877e+06
1.18868e+06
1.1869e+06
1.18661e+06
1.18458e+06
1.18406e+06
1.18184e+06
1.18111e+06
1.17876e+06
1.17786e+06
1.17542e+06
1.17438e+06
1.17187e+06
1.17069e+06
1.1681e+06
1.16683e+06
1.16426e+06
1.19179e+06
1.19032e+06
1.1903e+06
1.18877e+06
1.18867e+06
1.18689e+06
1.1866e+06
1.18459e+06
1.18407e+06
1.18186e+06
1.18114e+06
1.17879e+06
1.1779e+06
1.17547e+06
1.17443e+06
1.17192e+06
1.17074e+06
1.16816e+06
1.16686e+06
1.16429e+06
1.19179e+06
1.19031e+06
1.19029e+06
1.18875e+06
1.18866e+06
1.18688e+06
1.18659e+06
1.18457e+06
1.18405e+06
1.18184e+06
1.18112e+06
1.17877e+06
1.17787e+06
1.17544e+06
1.1744e+06
1.17189e+06
1.17072e+06
1.16813e+06
1.16684e+06
1.16425e+06
1.19179e+06
1.19031e+06
1.19029e+06
1.18875e+06
1.18866e+06
1.18688e+06
1.18659e+06
1.18457e+06
1.18405e+06
1.18184e+06
1.18112e+06
1.17877e+06
1.17787e+06
1.17544e+06
1.1744e+06
1.17189e+06
1.17072e+06
1.16813e+06
1.16684e+06
1.16425e+06
1.19179e+06
1.19032e+06
1.1903e+06
1.18877e+06
1.18867e+06
1.18689e+06
1.1866e+06
1.18459e+06
1.18407e+06
1.18186e+06
1.18114e+06
1.17879e+06
1.1779e+06
1.17547e+06
1.17443e+06
1.17192e+06
1.17074e+06
1.16816e+06
1.16686e+06
1.16429e+06
1.19178e+06
1.19032e+06
1.19031e+06
1.18877e+06
1.18868e+06
1.1869e+06
1.18661e+06
1.18458e+06
1.18406e+06
1.18184e+06
1.18111e+06
1.17876e+06
1.17786e+06
1.17542e+06
1.17438e+06
1.17187e+06
1.17069e+06
1.1681e+06
1.16683e+06
1.16426e+06
1.19179e+06
1.19032e+06
1.19031e+06
1.18878e+06
1.18869e+06
1.18692e+06
1.18664e+06
1.18463e+06
1.18411e+06
1.1819e+06
1.18118e+06
1.17883e+06
1.17793e+06
1.1755e+06
1.17445e+06
1.17195e+06
1.17076e+06
1.16819e+06
1.1669e+06
1.16441e+06
1.19178e+06
1.19035e+06
1.19034e+06
1.1888e+06
1.18871e+06
1.18693e+06
1.18663e+06
1.1846e+06
1.18407e+06
1.18184e+06
1.1811e+06
1.17874e+06
1.17784e+06
1.1754e+06
1.17435e+06
1.17184e+06
1.17066e+06
1.16807e+06
1.16682e+06
1.16435e+06
1.19186e+06
1.19046e+06
1.19049e+06
1.18898e+06
1.18891e+06
1.18714e+06
1.18685e+06
1.18483e+06
1.18431e+06
1.18209e+06
1.18135e+06
1.17901e+06
1.1781e+06
1.17567e+06
1.17463e+06
1.17212e+06
1.17095e+06
1.16837e+06
1.16712e+06
1.16466e+06
1.16135e+06
1.15013e+06
1.14463e+06
1.13298e+06
1.1264e+06
1.11415e+06
1.10666e+06
1.09392e+06
1.0856e+06
1.07241e+06
1.06334e+06
1.04975e+06
1.03999e+06
1.02603e+06
1.01563e+06
1.00133e+06
990348
975743
964219
949334
937311
922169
909688
894315
881412
865831
852544
836778
823141
807212
793260
777190
762957
746770
732289
716009
701315
684968
670097
653712
638706
622316
607197
590781
575514
559086
543770
527425
512122
495893
480649
464570
449423
433522
418507
402808
387959
372487
357838
342617
328202
313259
299112
284473
270632
256326
242829
228884
215774
202224
189544
176424
164225
151573
139909
127774
116703
105133
94731.9
83794.8
74137.4
63909
55108
45681.1
37839.5
29414.6
22757.6
15307
9888.8
4393.61
1.16067e+06
1.14948e+06
1.144e+06
1.13236e+06
1.12579e+06
1.11355e+06
1.10606e+06
1.09332e+06
1.08501e+06
1.07183e+06
1.06277e+06
1.04918e+06
1.03943e+06
1.02548e+06
1.01509e+06
1.0008e+06
989821
975223
963705
948826
936810
921675
909199
893833
880936
865361
852080
836320
822689
806767
792821
776758
762532
746352
731878
715606
700919
684579
669716
653340
638341
621959
606848
590442
575182
558763
543455
527120
511825
495605
480370
464301
449163
433270
418265
402575
387735
372272
357631
342420
328013
313079
298941
284311
270478
256180
242691
228755
215653
202111
189438
176326
164134
151490
139832
127704
116639
105076
94680.8
83749.8
74097.6
63874.8
55078.6
45656.7
37819.3
29398.5
22745.1
15297.6
9881.1
4387.53
1.16065e+06
1.14945e+06
1.14394e+06
1.13229e+06
1.12571e+06
1.11347e+06
1.10597e+06
1.09324e+06
1.08492e+06
1.07174e+06
1.06268e+06
1.04909e+06
1.03934e+06
1.02539e+06
1.015e+06
1.00071e+06
989735
975143
963627
948755
936741
921613
909140
893780
880887
865319
852041
836287
822660
806743
792801
776742
762519
746343
731872
715603
700918
684581
669719
653345
638347
621967
606856
590450
575191
558772
543464
527128
511833
495612
480376
464306
449167
433273
418266
402574
387733
372268
357626
342413
328004
313068
298929
284297
270462
256163
242673
228734
215631
202087
189414
176301
164108
151462
139804
127676
116611
105047
94652.7
83722
74070.8
63848.7
55054
45633.3
37797.9
29379.1
22728.4
15283.7
9870.95
4381.19
1.1605e+06
1.14936e+06
1.14387e+06
1.13223e+06
1.12566e+06
1.11342e+06
1.10592e+06
1.09319e+06
1.08488e+06
1.0717e+06
1.06263e+06
1.04905e+06
1.03929e+06
1.02534e+06
1.01495e+06
1.00067e+06
989689
975095
963578
948702
936687
921556
909082
893719
880824
865253
851974
836217
822589
806669
792726
776666
762442
746265
731793
715523
700838
684502
669640
653266
638269
621889
606780
590375
575117
558700
543393
527059
511766
495547
480313
464245
449108
433217
418212
402523
387684
372222
357582
342372
327966
313033
298896
284266
270434
256137
242650
228714
215613
202072
189400
176289
164098
151455
139799
127672
116608
105047
94653.1
83723.7
74073.2
63852.1
55057.8
45637.7
37802.4
29383.7
22732.6
15287.4
9872.95
4382.11
1.16054e+06
1.14937e+06
1.14384e+06
1.13219e+06
1.12561e+06
1.11337e+06
1.10587e+06
1.09313e+06
1.08481e+06
1.07163e+06
1.06256e+06
1.04898e+06
1.03922e+06
1.02527e+06
1.01488e+06
1.00059e+06
989617
975023
963506
948633
936618
921488
909015
893654
880760
865190
851912
836157
822530
806612
792670
776611
762388
746212
731741
715472
700788
684452
669591
653218
638221
621842
606732
590328
575071
558653
543347
527013
511720
495501
480267
464198
449062
433170
418166
402476
387637
372175
357536
342325
327919
312986
298849
284220
270388
256091
242604
228669
215568
202028
189357
176247
164057
151414
139759
127633
116571
105011
94618.8
83690.9
74042.5
63823.1
55031.1
45613.1
37780.4
29364.3
22716.2
15273.9
9863.24
4375.82
1.1605e+06
1.14934e+06
1.14383e+06
1.13219e+06
1.12562e+06
1.11339e+06
1.10589e+06
1.09315e+06
1.08484e+06
1.07166e+06
1.06259e+06
1.04901e+06
1.03925e+06
1.0253e+06
1.01491e+06
1.00062e+06
989648
975054
963537
948662
936646
921516
909042
893679
880785
865214
851935
836179
822551
806632
792689
776630
762406
746229
731758
715488
700803
684467
669605
653231
638234
621855
606745
590341
575083
558666
543359
527025
511732
495513
480280
464211
449075
433183
418179
402490
387651
372189
357549
342339
327933
313000
298863
284234
270403
256106
242619
228684
215583
202043
189372
176261
164071
151429
139773
127647
116585
105024
94631.5
83703.1
74054
63834.1
55041.3
45622.6
37788.9
29371.8
22722.5
15279.1
9866.66
4378.04
1.16051e+06
1.14934e+06
1.14382e+06
1.13217e+06
1.12559e+06
1.11335e+06
1.10585e+06
1.09311e+06
1.08479e+06
1.07161e+06
1.06254e+06
1.04896e+06
1.0392e+06
1.02525e+06
1.01486e+06
1.00057e+06
989597
975003
963486
948612
936597
921467
908993
893632
880738
865168
851890
836134
822507
806588
792646
776587
762364
746188
731717
715448
700764
684428
669567
653194
638197
621819
606710
590306
575049
558632
543326
526993
511700
495482
480249
464181
449045
433154
418151
402462
387624
372163
357524
342314
327909
312977
298840
284212
270381
256085
242599
228664
215564
202024
189354
176245
164055
151413
139758
127633
116572
105011
94619.9
83692.3
74044.1
63824.9
55033
45615.1
37782.4
29366.2
22717.9
15275.4
9864.15
4376.17
1.16052e+06
1.14936e+06
1.14384e+06
1.13221e+06
1.12563e+06
1.1134e+06
1.1059e+06
1.09317e+06
1.08485e+06
1.07167e+06
1.0626e+06
1.04902e+06
1.03926e+06
1.02531e+06
1.01492e+06
1.00064e+06
989658
975065
963547
948673
936658
921528
909054
893692
880798
865228
851949
836194
822566
806647
792704
776646
762421
746246
731774
715505
700820
684483
669622
653248
638251
621871
606761
590356
575099
558681
543374
527039
511746
495527
480292
464223
449086
433194
418189
402499
387660
372197
357557
342346
327940
313006
298868
284239
270407
256109
242622
228686
215585
202043
189372
176261
164071
151428
139772
127646
116583
105022
94629.3
83700.8
74051.6
63831.6
55038.9
45620.2
37786.6
29369.6
22720.6
15277.5
9865.71
4377.54
1.16051e+06
1.14935e+06
1.14384e+06
1.13219e+06
1.12561e+06
1.11337e+06
1.10587e+06
1.09313e+06
1.08481e+06
1.07163e+06
1.06257e+06
1.04898e+06
1.03923e+06
1.02527e+06
1.01488e+06
1.0006e+06
989621
975027
963511
948636
936621
921491
909018
893656
880762
865191
851913
836157
822530
806611
792669
776610
762386
746210
731739
715471
700786
684450
669590
653216
638220
621842
606733
590329
575072
558655
543350
527017
511724
495506
480273
464206
449070
433179
418176
402487
387649
372188
357549
342340
327935
313003
298866
284238
270407
256111
242624
228690
215589
202049
189379
176269
164079
151436
139781
127655
116593
105032
94639.2
83710.8
74061.4
63841.2
55048.1
45629
37794.8
29377.2
22727.3
15283.1
9870
4379.85
1.16064e+06
1.14943e+06
1.14393e+06
1.1323e+06
1.12572e+06
1.11349e+06
1.10599e+06
1.09326e+06
1.08495e+06
1.07177e+06
1.0627e+06
1.04912e+06
1.03937e+06
1.02542e+06
1.01503e+06
1.00074e+06
989766
975174
963658
948785
936771
921642
909170
893809
880916
865347
852069
836314
822687
806769
792826
776768
762544
746368
731896
715626
700941
684604
669742
653367
638369
621988
606877
590471
575212
558793
543484
527148
511853
495631
480395
464324
449185
433291
418283
402591
387750
372285
357642
342429
328020
313084
298944
284311
270477
256177
242686
228748
215644
202100
189426
176313
164119
151474
139815
127686
116621
105057
94661.9
83730.7
74079
63856.3
55061.1
45639.8
37803.7
29384.2
22732.7
15287.2
9873.47
4382.8
1.16068e+06
1.14945e+06
1.14396e+06
1.1323e+06
1.12572e+06
1.11348e+06
1.10598e+06
1.09325e+06
1.08493e+06
1.07175e+06
1.06268e+06
1.0491e+06
1.03934e+06
1.02539e+06
1.015e+06
1.00071e+06
989735
975138
963621
948743
936728
921594
909119
893754
880858
865284
852004
836245
822616
806694
792750
776688
762462
746284
731811
715540
700853
684515
669653
653278
638280
621899
606789
590384
575126
558708
543401
527066
511773
495554
480320
464251
449114
433223
418218
402529
387691
372229
357589
342379
327973
313041
298903
284275
270443
256146
242659
228723
215622
202082
189410
176299
164108
151465
139809
127682
116619
105057
94662.9
83733.2
74082.5
63860.9
55066.2
45645.6
37809.7
29390.3
22738.5
15292.3
9877.38
4384.71
1.16132e+06
1.15011e+06
1.14464e+06
1.13301e+06
1.12644e+06
1.1142e+06
1.10671e+06
1.09398e+06
1.08566e+06
1.07248e+06
1.06341e+06
1.04982e+06
1.04006e+06
1.0261e+06
1.0157e+06
1.0014e+06
990421
975816
964292
949406
937382
922240
909758
894384
881481
865899
852611
836843
823206
807275
793323
777252
763018
746830
732348
716067
701372
685024
670153
653767
638760
622369
607249
590833
575564
559135
543818
527473
512169
495938
480694
464614
449467
433564
418548
402848
387999
372525
357875
342654
328237
313293
299146
284506
270663
256356
242858
228913
215802
202250
189569
176448
164248
151595
139930
127793
116721
105150
94748.2
83810
74151.4
63921.8
55119.6
45691.5
37848.6
29422.5
22764.3
15312.4
9892.8
4396.23
1.16113e+06
1.14965e+06
1.14461e+06
1.13279e+06
1.12647e+06
1.11411e+06
1.10678e+06
1.09395e+06
1.08574e+06
1.07248e+06
1.06349e+06
1.04983e+06
1.04012e+06
1.02611e+06
1.01575e+06
1.0014e+06
990445
975798
964291
949368
937357
922183
909710
894308
881411
865805
852523
836736
823103
807157
793209
777125
762897
746699
732224
715935
701247
684894
670030
653641
638642
622249
607138
590721
575461
559033
543724
527380
512084
495856
480621
464544
449405
433506
418500
402803
387963
372494
357853
342635
328228
313288
299149
284513
270679
256375
242886
228943
215840
202291
189617
176498
164304
151652
139992
127855
116788
105215
94816.6
83873.4
74216.5
63979.4
55175.9
45737.2
37888.3
29448.6
22779
15309
9869.23
4367.48
1.16183e+06
1.1503e+06
1.14525e+06
1.13343e+06
1.12711e+06
1.11476e+06
1.10744e+06
1.09461e+06
1.08641e+06
1.07315e+06
1.06415e+06
1.0505e+06
1.04079e+06
1.02677e+06
1.01641e+06
1.00206e+06
991094
976440
964929
949998
937982
922800
910320
894910
882007
866392
853103
837306
823666
807710
793755
777661
763424
747217
732733
716434
701737
685374
670500
654101
639093
622690
607569
591142
575872
559433
544114
527759
512454
496215
480970
464882
449734
433823
418807
403100
388250
372770
358119
342891
328474
313524
299375
284729
270886
256572
243073
229120
216008
202449
189766
176638
164436
151774
140106
127960
116885
105302
94896.3
83945
74280.5
64035.6
55224.8
45778.8
37923
29476.9
22800.9
15325.2
9880.56
4375.33
1.16129e+06
1.14996e+06
1.14492e+06
1.13311e+06
1.12679e+06
1.11444e+06
1.10711e+06
1.09428e+06
1.08607e+06
1.07281e+06
1.06382e+06
1.05016e+06
1.04045e+06
1.02644e+06
1.01608e+06
1.00173e+06
990769
976118
964609
949682
937668
922490
910013
894607
881706
866096
852809
837017
823380
807428
793476
777387
763154
746951
732471
716177
701484
685125
670256
653862
638858
622461
607344
590923
575658
559224
543910
527561
512261
496028
480788
464706
449563
433659
418648
402947
388102
372628
357983
342761
328348
313404
299261
284620
270782
256474
242980
229033
215926
202372
189694
176571
164373
151716
140053
127911
116840
105263
94860.5
83913.4
74252.6
64011.6
55204.2
45761.8
37909.2
29466.1
22793
15319.7
9877.1
4372.65
1.16162e+06
1.15022e+06
1.14518e+06
1.13337e+06
1.12705e+06
1.11469e+06
1.10736e+06
1.09454e+06
1.08633e+06
1.07307e+06
1.06408e+06
1.05042e+06
1.04071e+06
1.02669e+06
1.01633e+06
1.00198e+06
991017
976363
964852
949923
937907
922725
910246
894837
881935
866321
853032
837236
823597
807642
793687
777595
763359
747153
732669
716372
701676
685313
670441
654043
639035
622634
607514
591088
575820
559382
544064
527711
512406
496169
480924
464838
449691
433782
418767
403062
388212
372734
358084
342858
328442
313493
299345
284701
270858
256546
243048
229097
215986
202428
189747
176619
164418
151758
140091
127946
116872
105291
94885.5
83935.3
74271.8
64027.9
55218.1
45773
37918.2
29472.9
22797.9
15322.9
9879.6
4374.29
1.16134e+06
1.15003e+06
1.14499e+06
1.13319e+06
1.12688e+06
1.11453e+06
1.1072e+06
1.09437e+06
1.08617e+06
1.07291e+06
1.06392e+06
1.05026e+06
1.04055e+06
1.02653e+06
1.01617e+06
1.00182e+06
990863
976212
964702
949773
937759
922579
910101
894694
881792
866180
852893
837099
823461
807508
793555
777464
763230
747026
732544
716249
701555
685195
670324
653929
638923
622524
607406
590983
575717
559281
543966
527616
512314
496079
480837
464754
449609
433703
418691
402988
388142
372666
358019
342796
328382
313436
299291
284649
270809
256500
243004
229056
215947
202392
189713
176588
164389
151731
140066
127924
116852
105273
94869.3
83921.1
74259.4
64017.4