/*--------------------------------*- C++ -*----------------------------------*\
  =========                 |
  \\      /  F ield         | OpenFOAM: The Open Source CFD Toolbox
   \\    /   O peration     | Website:  https://openfoam.org
    \\  /    A nd           | Version:  7
     \\/     M anipulation  |
\*---------------------------------------------------------------------------*/
FoamFile
{
    version     2.0;
    format      ascii;
    class       volSymmTensorField;
    location    "0.045";
    object      UPrime2Mean;
}
// * * * * * * * * * * * * * * * * * * * * * * * * * * * * * * * * * * * * * //

dimensions      [0 2 -2 0 0 0 0];

internalField   nonuniform List<symmTensor> 
7920
(
(0.312913 -0.0107671 -0.0230337 0.000646611 0.0013967 0.00401026)
(0.699237 0.123128 -0.0366328 0.0297048 -0.00838362 0.00246541)
(0.705635 0.134798 -0.0273484 0.0448701 -0.00900509 0.00198681)
(0.892881 0.155127 -0.0294582 0.048135 -0.00817443 0.00156243)
(0.790117 0.126647 -0.0241 0.0487348 -0.00843031 0.00164858)
(0.966824 0.136954 -0.0263769 0.0486964 -0.00782745 0.00142698)
(0.868541 0.111628 -0.0222616 0.048834 -0.00799434 0.00148818)
(1.03392 0.118062 -0.023736 0.0486801 -0.00747409 0.0013114)
(0.947441 0.0963618 -0.0205105 0.0487595 -0.0075594 0.00134538)
(1.09921 0.0996075 -0.0213741 0.0486283 -0.00711663 0.00120248)
(1.02611 0.081055 -0.0188553 0.0486826 -0.00714066 0.0012166)
(1.16218 0.0816031 -0.0192586 0.0485756 -0.00675939 0.0010999)
(1.10124 0.0657315 -0.0173115 0.0486149 -0.00673653 0.00110063)
(1.22025 0.0640161 -0.0173612 0.0485309 -0.00640332 0.0010045)
(1.17083 0.0503804 -0.015892 0.0485133 -0.00634321 0.000997068)
(1.27253 0.0468655 -0.0156464 0.048533 -0.00604962 0.000915736)
(1.23477 0.0350994 -0.0145789 0.0480263 -0.00593341 0.000903213)
(1.3219 0.0309407 -0.0141594 0.0489415 -0.00572519 0.000833585)
(1.29849 0.0233032 -0.0134954 0.0445789 -0.0053052 0.000805684)
(1.37393 0.0364865 -0.0096743 0.038255 -0.00500293 0.000793644)
(0.155444 0.0249514 0.00591792 0.095294 0.0163877 0.00291159)
(0.187781 0.00352942 -0.00249851 0.0604235 0.00879995 0.00134915)
(0.332215 0.0315032 -0.00044423 0.051856 0.00497731 0.000553835)
(0.413391 0.0187574 -0.00467437 0.0467832 0.0026847 0.000242439)
(0.520991 0.0442719 -0.00362759 0.0468304 0.00276577 0.000270386)
(0.631178 0.0360807 -0.00695094 0.0469165 0.0021023 0.000223245)
(0.708613 0.0579331 -0.0064297 0.0469309 0.00227635 0.000264471)
(0.837538 0.0531616 -0.00930201 0.0470246 0.00173419 0.0002356)
(0.895898 0.0717832 -0.00914868 0.0469886 0.00181615 0.000267829)
(1.03623 0.0700395 -0.0116495 0.0470671 0.00136293 0.000249614)
(1.0823 0.0858711 -0.0117785 0.0470273 0.00137781 0.000275737)
(1.22712 0.0867264 -0.0139727 0.0470982 0.00100438 0.00026572)
(1.26432 0.100182 -0.0143351 0.0470548 0.000962935 0.000288076)
(1.40815 0.103253 -0.0162605 0.0471292 0.000660971 0.000284557)
(1.43969 0.114646 -0.0168085 0.0470555 0.00058816 0.000305788)
(1.57919 0.119784 -0.0185008 0.047238 0.000324549 0.000305313)
(1.60704 0.128838 -0.0192023 0.0469763 0.000237787 0.000326516)
(1.74848 0.138349 -0.0206822 0.0481274 4.85306e-06 0.00032778)
(1.75468 0.140594 -0.0217502 0.0480544 -0.000172724 0.000348289)
(2.0183 0.180129 -0.0142669 0.0515568 0.00082776 0.000237383)
(0.186264 0.00352579 0.012385 0.00177684 0.00125383 0.00279336)
(0.224161 -0.0344027 0.0047785 0.0281262 -0.00593873 0.00146914)
(0.404332 -0.0676164 0.00353716 0.0409186 -0.00431304 0.000559278)
(0.463948 -0.0586484 -0.00311036 0.0467171 -0.00233379 0.00021879)
(0.600079 -0.0825177 -0.00261624 0.0469421 -0.00234583 0.000236208)
(0.698208 -0.0746662 -0.00649154 0.0469683 -0.00164867 0.000205457)
(0.800896 -0.0957114 -0.00617007 0.0470497 -0.00182596 0.000245712)
(0.922226 -0.091225 -0.00953922 0.0469352 -0.00125613 0.000231648)
(1.0021 -0.109261 -0.00958409 0.0470146 -0.0013418 0.000265053)
(1.13837 -0.107697 -0.0125627 0.0469125 -0.000862039 0.000259364)
(1.20252 -0.123084 -0.012887 0.0469748 -0.000880113 0.000288342)
(1.34637 -0.124034 -0.015541 0.0468915 -0.000472365 0.000288274)
(1.39863 -0.137155 -0.016094 0.0469422 -0.000438745 0.000315081)
(1.54409 -0.140205 -0.0184663 0.0468677 -8.63359e-05 0.000318888)
(1.58828 -0.15145 -0.0192147 0.0469096 -1.3925e-05 0.000345071)
(1.7306 -0.156014 -0.0213234 0.0467444 0.000298899 0.000350845)
(1.77228 -0.166124 -0.0222357 0.0469628 0.000395469 0.000377107)
(1.90384 -0.168081 -0.0241041 0.0450323 0.000671586 0.000383705)
(1.9656 -0.184519 -0.0252767 0.0488768 0.000791174 0.000411821)
(2.03721 -0.138805 -0.0188087 0.0297205 8.37729e-05 0.000255911)
(0.18214 0.0431346 0.0112456 0.0432873 0.0101432 0.00244929)
(0.210771 0.0377764 0.00282676 0.0492579 0.00729766 0.00120723)
(0.400418 0.0737439 0.00207714 0.0516523 0.00399775 0.000409146)
(0.466369 0.0594979 -0.0041381 0.0470873 0.0015126 0.000151023)
(0.606099 0.083221 -0.00405463 0.0461686 0.00150786 0.000168937)
(0.70431 0.0752878 -0.00778813 0.0457588 0.00081703 0.000162753)
(0.808543 0.0957054 -0.00783515 0.0456936 0.000995469 0.000197264)
(0.929503 0.0913759 -0.0111243 0.0457245 0.000441304 0.000202698)
(1.0105 0.108774 -0.0114779 0.0457001 0.000530823 0.000233352)
(1.14653 0.10733 -0.0144252 0.0457481 6.40331e-05 0.000243794)
(1.21161 0.122113 -0.0150005 0.0457231 8.9544e-05 0.000272094)
(1.35538 0.123132 -0.0176723 0.0457686 -0.000309755 0.000285646)
(1.40837 0.135698 -0.018428 0.0457451 -0.000333639 0.000313241)
(1.55402 0.138818 -0.020867 0.0457834 -0.000682285 0.000329024)
(1.59854 0.149536 -0.0217809 0.0457959 -0.00074452 0.000357022)
(1.74261 0.154501 -0.0239959 0.0457971 -0.00105294 0.000373853)
(1.78148 0.164143 -0.0250387 0.0462082 -0.0011467 0.000402471)
(1.93009 0.171412 -0.0269943 0.0459043 -0.00139226 0.000418704)
(1.96729 0.186376 -0.0281989 0.0497159 -0.0015637 0.00044992)
(2.17449 0.205003 -0.0219058 0.0514551 -0.000933131 0.000271565)
(0.180134 -0.011565 0.0110707 0.00331987 -0.00263627 0.00247376)
(0.208601 -0.0295289 0.00285439 0.0326781 -0.00609814 0.00130287)
(0.401233 -0.0670171 0.00274242 0.0421215 -0.0039654 0.000474073)
(0.466764 -0.0589164 -0.00356674 0.045863 -0.00191398 0.000181619)
(0.606708 -0.0830402 -0.00324255 0.0458587 -0.00192617 0.000199516)
(0.704575 -0.0752988 -0.00707813 0.0457761 -0.00123735 0.000180927)
(0.808722 -0.0957502 -0.0069321 0.0457672 -0.00141364 0.00021825)
(0.929631 -0.0913152 -0.0102948 0.0457151 -0.000852142 0.000213999)
(1.01063 -0.108816 -0.0104935 0.0457397 -0.000938778 0.000245966)
(1.14665 -0.107252 -0.0134863 0.045707 -0.000465812 0.000248615)
(1.21175 -0.122179 -0.0139425 0.0457279 -0.00048658 0.000277289)
(1.3555 -0.123081 -0.0166284 0.0457033 -8.359e-05 0.00028431)
(1.40854 -0.135802 -0.0172929 0.0457227 -5.40726e-05 0.000311646)
(1.55408 -0.138766 -0.0197127 0.0456874 0.000294735 0.000321624)
(1.59887 -0.149736 -0.0205578 0.0457586 0.000362889 0.000348974)
(1.74177 -0.15413 -0.022726 0.0455274 0.000671799 0.000360307)
(1.78386 -0.164829 -0.0237281 0.0462295 0.000770375 0.000388196)
(1.92008 -0.166436 -0.0256634 0.0437932 0.00103249 0.000399698)
(1.98356 -0.188758 -0.0269532 0.0499128 0.00121927 0.000430446)
(2.0967 -0.163492 -0.0208887 0.037192 0.000583366 0.000263977)
(0.177634 0.0250568 0.0105189 0.0160965 0.00604025 0.00235664)
(0.204151 0.0298617 0.0021737 0.0399128 0.00658657 0.00122513)
(0.398182 0.069277 0.00224838 0.0468668 0.00395474 0.000431984)
(0.465729 0.0585809 -0.00388225 0.0463167 0.00170654 0.000164749)
(0.606369 0.0825765 -0.00366389 0.0457317 0.00171064 0.000182969)
(0.704498 0.07471 -0.00745667 0.045397 0.00101894 0.000170798)
(0.808774 0.0949706 -0.00741302 0.0453251 0.00119532 0.00020663)
(0.92971 0.0905724 -0.0107485 0.0453139 0.000636651 0.000207468)
(1.01074 0.107879 -0.0110309 0.0453024 0.000724995 0.000238732)
(1.14676 0.10635 -0.0140079 0.0453192 0.000254871 0.000245572)
(1.21186 0.121084 -0.014528 0.0453105 0.00027918 0.000274043)
(1.35562 0.122002 -0.0172123 0.0453287 -0.000121018 0.000284673)
(1.40865 0.134558 -0.0179274 0.0453237 -0.000146892 0.000312166)
(1.55426 0.137552 -0.0203626 0.0453275 -0.000494407 0.000325421)
(1.59894 0.148354 -0.0212495 0.0453911 -0.000559324 0.000353204)
(1.7425 0.152924 -0.0234506 0.0452342 -0.000867143 0.000367706)
(1.78327 0.163462 -0.0244929 0.0459953 -0.000968942 0.000396237)
(1.92597 0.167298 -0.0264876 0.0442483 -0.00123556 0.000410739)
(1.98058 0.188924 -0.0278394 0.0503225 -0.00146379 0.000442794)
(2.13981 0.185556 -0.0218761 0.0447548 -0.000872876 0.000271286)
(0.177634 -0.0250574 0.0105189 0.0160965 -0.00604026 0.00235664)
(0.204151 -0.029861 0.00217372 0.039913 -0.00658661 0.00122513)
(0.398182 -0.069277 0.00224839 0.0468668 -0.00395478 0.000431985)
(0.465729 -0.0585806 -0.00388223 0.0463167 -0.00170655 0.000164749)
(0.606369 -0.0825763 -0.00366387 0.0457318 -0.00171066 0.00018297)
(0.704498 -0.0747071 -0.00745661 0.0453973 -0.00101901 0.000170797)
(0.808774 -0.0949712 -0.00741299 0.0453255 -0.00119538 0.000206629)
(0.92971 -0.0905754 -0.0107485 0.0453145 -0.000636628 0.000207468)
(1.01074 -0.107879 -0.0110309 0.0453031 -0.000725023 0.000238731)
(1.14676 -0.106346 -0.0140078 0.0453198 -0.000254975 0.000245569)
(1.21186 -0.121089 -0.014528 0.0453109 -0.00027918 0.000274043)
(1.35562 -0.12201 -0.0172123 0.045329 0.000121137 0.000284676)
(1.40865 -0.134557 -0.0179274 0.0453246 0.00014688 0.000312167)
(1.55426 -0.13754 -0.0203625 0.0453272 0.000494197 0.000325416)
(1.59894 -0.148355 -0.0212494 0.0453918 0.000559198 0.000353201)
(1.74249 -0.152928 -0.0234506 0.0452287 0.000867294 0.000367708)
(1.7833 -0.163468 -0.0244925 0.0459974 0.000968901 0.000396237)
(1.92602 -0.167236 -0.026489 0.0442225 0.00123538 0.000410747)
(1.98057 -0.188857 -0.0278392 0.050328 0.00146241 0.0004428)
(2.13987 -0.185291 -0.0218807 0.0446515 0.000872456 0.000271307)
(0.180134 0.0115644 0.0110708 0.00331985 0.00263627 0.00247376)
(0.208601 0.0295293 0.0028544 0.032678 0.00609809 0.00130286)
(0.401233 0.0670172 0.00274242 0.0421215 0.00396536 0.00047407)
(0.466764 0.0589166 -0.00356677 0.045863 0.00191396 0.000181618)
(0.606709 0.0830403 -0.00324255 0.0458588 0.00192616 0.000199514)
(0.704576 0.0753012 -0.00707814 0.0457758 0.00123729 0.000180924)
(0.808722 0.0957499 -0.0069321 0.0457671 0.00141357 0.000218248)
(0.929632 0.0913126 -0.0102948 0.0457147 0.000852148 0.000213996)
(1.01064 0.108816 -0.0104935 0.0457392 0.000938751 0.000245961)
(1.14665 0.107255 -0.0134863 0.0457065 0.000465696 0.000248612)
(1.21175 0.122176 -0.0139425 0.0457272 0.000486558 0.000277287)
(1.3555 0.123075 -0.0166284 0.0457025 8.3713e-05 0.00028431)
(1.40854 0.135804 -0.017293 0.0457224 5.40432e-05 0.000311643)
(1.55408 0.138775 -0.0197126 0.0456884 -0.000294927 0.000321616)
(1.59888 0.149737 -0.0205578 0.045758 -0.000362986 0.000348973)
(1.74177 0.154128 -0.022726 0.0455316 -0.000671641 0.00036031)
(1.78385 0.164825 -0.0237278 0.0462275 -0.00077037 0.00038818)
(1.92007 0.166493 -0.0256639 0.0438139 -0.00103327 0.000399698)
(1.98368 0.188802 -0.0269533 0.0499046 -0.00122018 0.000430416)
(2.09685 0.163779 -0.0208947 0.0373031 -0.000586135 0.000264004)
(0.182141 -0.0431352 0.0112456 0.0432874 -0.0101432 0.00244929)
(0.210771 -0.0377757 0.00282678 0.049258 -0.00729769 0.00120723)
(0.400419 -0.0737441 0.00207715 0.0516523 -0.00399778 0.000409145)
(0.466369 -0.0594975 -0.00413809 0.047087 -0.00151259 0.000151022)
(0.606101 -0.083221 -0.00405461 0.0461687 -0.00150787 0.000168936)
(0.704312 -0.0752854 -0.00778809 0.045759 -0.000817067 0.00016275)
(0.808543 -0.0957066 -0.00783513 0.0456941 -0.000995504 0.000197262)
(0.929504 -0.0913789 -0.0111243 0.0457251 -0.000441272 0.000202696)
(1.0105 -0.108775 -0.0114778 0.0457008 -0.000530831 0.000233347)
(1.14653 -0.107328 -0.0144251 0.0457482 -6.40784e-05 0.00024379)
(1.21161 -0.122119 -0.0150005 0.0457241 -8.95212e-05 0.000272095)
(1.35538 -0.123139 -0.0176723 0.0457696 0.000309853 0.000285647)
(1.40837 -0.135698 -0.0184279 0.0457453 0.000333654 0.000313234)
(1.55402 -0.138812 -0.0208668 0.0457829 0.000682165 0.000329016)
(1.59854 -0.14954 -0.021781 0.045798 0.00074445 0.000357022)
(1.7426 -0.154505 -0.0239958 0.0457923 0.00105304 0.000373856)
(1.78152 -0.164154 -0.0250382 0.0462108 0.00114666 0.000402462)
(1.93015 -0.171344 -0.0269965 0.0458699 0.00139245 0.000418708)
(1.9674 -0.18633 -0.0281917 0.0497309 0.00155981 0.000449833)
(2.17467 -0.204761 -0.021953 0.0513575 0.000949372 0.000271535)
(0.186265 -0.00352631 0.012385 0.00177686 -0.00125384 0.00279337)
(0.224163 0.034403 0.00477848 0.0281259 0.00593866 0.00146913)
(0.404333 0.0676164 0.00353708 0.0409187 0.00431295 0.000559258)
(0.463949 0.0586487 -0.00311046 0.0467169 0.0023337 0.00021878)
(0.600082 0.0825177 -0.00261634 0.0469424 0.00234575 0.000236197)
(0.698211 0.0746679 -0.00649165 0.0469678 0.00164852 0.000205448)
(0.800898 0.0957113 -0.00617016 0.0470496 0.00182582 0.000245701)
(0.922228 0.0912232 -0.00953921 0.0469348 0.00125605 0.000231637)
(1.0021 0.109261 -0.00958412 0.0470141 0.0013417 0.000265037)
(1.13837 0.1077 -0.0125628 0.0469117 0.000861875 0.000259355)
(1.20252 0.123082 -0.0128871 0.0469746 0.000880019 0.000288337)
(1.34637 0.124029 -0.0155409 0.0468912 0.000472357 0.000288263)
(1.39864 0.137156 -0.016094 0.0469411 0.000438651 0.000315064)
(1.5441 0.140213 -0.0184664 0.0468679 8.6154e-05 0.000318883)
(1.58829 0.151454 -0.019215 0.0469106 1.37627e-05 0.000345074)
(1.73061 0.156015 -0.0213235 0.0467465 -0.000298984 0.00035084)
(1.7723 0.166128 -0.0222345 0.0469633 -0.000395021 0.000377103)
(1.90386 0.168109 -0.0241137 0.0450373 -0.000676028 0.000383615)
(1.96581 0.18454 -0.0252119 0.048873 -0.000765004 0.000412181)
(2.03762 0.139106 -0.0191622 0.0298377 -0.000198147 0.000252555)
(0.155445 -0.024952 0.00591796 0.0952939 -0.0163879 0.00291167)
(0.187782 -0.00352892 -0.00249855 0.0604236 -0.0088 0.00134916)
(0.332216 -0.0315037 -0.000444343 0.051856 -0.00497709 0.000553791)
(0.413392 -0.0187574 -0.00467444 0.0467828 -0.00268443 0.000242409)
(0.520994 -0.0442723 -0.00362774 0.0468307 -0.00276557 0.000270359)
(0.631182 -0.03608 -0.00695111 0.0469165 -0.00210208 0.000223222)
(0.708614 -0.0579352 -0.00643 0.0469315 -0.00227607 0.00026444)
(0.83754 -0.0531643 -0.00930219 0.0470253 -0.00173381 0.000235566)
(0.895904 -0.0717852 -0.009149 0.0469893 -0.00181576 0.000267785)
(1.03623 -0.070041 -0.0116498 0.0470673 -0.00136252 0.00024958)
(1.0823 -0.0858763 -0.011779 0.0470282 -0.00137737 0.000275706)
(1.22712 -0.0867313 -0.013973 0.0470991 -0.00100392 0.00026569)
(1.26433 -0.100184 -0.0143354 0.0470543 -0.000962494 0.000288038)
(1.40816 -0.103254 -0.016261 0.0471285 -0.000660569 0.000284529)
(1.4397 -0.114653 -0.0168091 0.0470586 -0.000587802 0.000305772)
(1.5792 -0.119791 -0.0185016 0.0472358 -0.000323705 0.000305284)
(1.60708 -0.128849 -0.019199 0.0469791 -0.000240028 0.000326612)
(1.74855 -0.138314 -0.0207134 0.048092 1.65273e-05 0.000326988)
(1.75486 -0.140582 -0.0215342 0.0480881 3.94803e-05 0.000352189)
(2.01878 -0.179984 -0.0157954 0.05149 -0.00016874 0.000207983)
(0.312915 0.0107665 -0.023034 0.000646593 -0.0013967 0.0040104)
(0.699239 -0.123127 -0.036634 0.0297045 0.00838385 0.00246555)
(0.705635 -0.134799 -0.027348 0.0448702 0.009005 0.00198676)
(0.892883 -0.155127 -0.0294569 0.048135 0.0081741 0.00156231)
(0.790122 -0.126648 -0.0240991 0.0487352 0.00843012 0.00164851)
(0.966831 -0.136952 -0.0263785 0.0486957 0.00782761 0.00142709)
(0.868544 -0.111629 -0.0222636 0.0488336 0.00799461 0.00148833)
(1.03392 -0.118061 -0.0237393 0.0486793 0.00747453 0.00131161)
(0.94745 -0.0963626 -0.0205139 0.0487586 0.00755987 0.00134559)
(1.09922 -0.0996051 -0.0213782 0.0486269 0.00711706 0.0012027)
(1.02611 -0.081055 -0.0188593 0.0486818 0.00714113 0.00121683)
(1.16218 -0.0816043 -0.0192628 0.0485749 0.00675989 0.00110011)
(1.10125 -0.0657292 -0.0173156 0.0486127 0.0067369 0.00110083)
(1.22026 -0.064011 -0.0173658 0.0485291 0.00640364 0.00100469)
(1.17083 -0.0503801 -0.0158965 0.0485147 0.00634372 0.000997278)
(1.27254 -0.0468619 -0.0156508 0.0485317 0.00604988 0.000915899)
(1.23478 -0.0350963 -0.0145847 0.0480275 0.00593485 0.000903661)
(1.32193 -0.0309102 -0.0141455 0.048919 0.00571271 0.000831131)
(1.29848 -0.0233465 -0.013599 0.0446039 0.00539621 0.000827447)
(1.37417 -0.0365291 -0.00938011 0.0383271 0.00445205 0.000648526)
(0.157054 0.016214 0.000924798 0.0284091 0.000570957 1.57784e-05)
(0.276386 -0.0803226 -0.000217513 0.0735614 0.000740556 1.15429e-05)
(0.36055 -0.0501214 0.000526318 0.0741582 0.000831383 1.38274e-05)
(0.524761 -0.0845962 0.000270076 0.0691408 0.000699784 1.11352e-05)
(0.528095 -0.0377999 0.000825602 0.067313 0.000769974 1.28551e-05)
(0.685024 -0.0593364 0.000703604 0.0670482 0.000677601 1.06444e-05)
(0.681631 -0.0208941 0.00106732 0.0669832 0.000740127 1.19369e-05)
(0.838586 -0.0354942 0.000990621 0.0670275 0.000659478 1.01322e-05)
(0.835648 -0.00364413 0.00124216 0.0669861 0.000708222 1.1072e-05)
(0.990248 -0.0124785 0.00120223 0.0670345 0.000637026 9.61459e-06)
(0.989822 0.0138294 0.00138092 0.0669897 0.000673545 1.02653e-05)
(1.13862 0.00967012 0.00137511 0.0670353 0.000610531 9.09945e-06)
(1.14066 0.0313304 0.00150179 0.0669848 0.000636571 9.51943e-06)
(1.28047 0.030927 0.00152977 0.0670397 0.000580092 8.59401e-06)
(1.28575 0.0486595 0.00161699 0.0669167 0.000597144 8.83623e-06)
(1.41438 0.0513382 0.00168001 0.0672124 0.000545978 8.10571e-06)
(1.42425 0.0649477 0.00173488 0.0659415 0.000551541 8.22017e-06)
(1.54559 0.0732099 0.00184834 0.0699164 0.000515248 7.64182e-06)
(1.5553 0.0648179 0.00182672 0.0554007 0.000461334 7.70221e-06)
(1.79136 0.107768 0.00224433 0.0539633 0.000403884 7.15726e-06)
(0.165557 -0.0144169 0.000959297 0.00782095 -0.000251293 1.12369e-05)
(0.182318 -0.00299304 0.000545047 0.0312446 -0.000406939 8.40179e-06)
(0.354716 -0.055773 0.00152108 0.0549563 -0.000618513 1.03389e-05)
(0.409201 -0.0291603 0.00121408 0.0633618 -0.000561045 8.13221e-06)
(0.55022 -0.0738026 0.0017754 0.0648852 -0.000644679 9.58975e-06)
(0.635491 -0.0528965 0.00153811 0.0651882 -0.000556524 7.75303e-06)
(0.748216 -0.0899184 0.00190492 0.0651168 -0.000618255 8.84446e-06)
(0.855526 -0.0760366 0.00170817 0.0652068 -0.000538902 7.34402e-06)
(0.948005 -0.106522 0.00196123 0.0651625 -0.000587035 8.1378e-06)
(1.07104 -0.0983428 0.00180071 0.0652239 -0.00051674 6.92398e-06)
(1.14833 -0.123363 0.00197757 0.0652034 -0.000552944 7.47453e-06)
(1.28026 -0.119759 0.00185307 0.065245 -0.000490551 6.49963e-06)
(1.34501 -0.140226 0.00197364 0.0652384 -0.000516506 6.85657e-06)
(1.4797 -0.140245 0.00188543 0.0652752 -0.000460415 6.07855e-06)
(1.5351 -0.156909 0.00196255 0.0652376 -0.000477682 6.28639e-06)
(1.66733 -0.159722 0.00191033 0.0653301 -0.000426062 5.67038e-06)
(1.71828 -0.173294 0.00195514 0.065176 -0.000435967 5.76795e-06)
(1.83852 -0.175278 0.0019299 0.0639776 -0.000382972 5.28867e-06)
(1.91408 -0.196124 0.00196998 0.0695075 -0.000401838 5.30396e-06)
(1.8811 -0.140542 0.00185161 0.0429193 -0.000273432 4.93169e-06)
(0.157549 0.0185398 0.0009382 0.0189103 0.000427246 1.33084e-05)
(0.18308 0.00874059 0.000599853 0.0666852 0.000649323 1.01859e-05)
(0.366463 0.0688866 0.00169486 0.0695085 0.000743899 1.21272e-05)
(0.415824 0.0384048 0.00136294 0.0663446 0.000627172 9.6609e-06)
(0.56651 0.0820244 0.00199984 0.064603 0.000695871 1.12354e-05)
(0.645996 0.0609173 0.00174035 0.0642414 0.000605362 9.20162e-06)
(0.766666 0.0973301 0.00216487 0.0640883 0.00066614 1.03934e-05)
(0.869883 0.0835511 0.00195787 0.0641404 0.000587399 8.7352e-06)
(0.96891 0.113547 0.00225523 0.0640772 0.000635043 9.60149e-06)
(1.08911 0.105439 0.00209234 0.0641375 0.000565427 8.26327e-06)
(1.17171 0.130013 0.0023029 0.0640828 0.00060119 8.86255e-06)
(1.30184 0.126436 0.002181 0.0641379 0.000539445 7.79225e-06)
(1.37081 0.146499 0.00232733 0.0640867 0.000565007 8.17878e-06)
(1.5046 0.146532 0.00224483 0.0641404 0.000509502 7.32931e-06)
(1.56307 0.162767 0.00234109 0.0640793 0.000526526 7.55236e-06)
(1.69627 0.165883 0.00229748 0.0642004 0.0004755 6.88305e-06)
(1.746 0.178086 0.0023524 0.0639208 0.000484849 6.98785e-06)
(1.88671 0.18642 0.00235659 0.0648538 0.000438292 6.46158e-06)
(1.92205 0.190598 0.00236902 0.0629887 0.000437901 6.50336e-06)
(2.14695 0.212194 0.00246885 0.0670751 0.000395593 6.07977e-06)
(0.155117 -0.0124526 0.00085747 0.00957304 -0.000281046 1.13509e-05)
(0.182256 -0.00273193 0.000545012 0.0364774 -0.000448833 8.86056e-06)
(0.361772 -0.0590163 0.00158227 0.0541734 -0.000618077 1.06458e-05)
(0.414883 -0.0355412 0.00129063 0.0604881 -0.000554058 8.40944e-06)
(0.566129 -0.079842 0.00188033 0.0621447 -0.00063614 9.87429e-06)
(0.646174 -0.0597047 0.00163404 0.0627294 -0.000551373 8.00569e-06)
(0.767192 -0.0957497 0.00201839 0.0627157 -0.000612142 9.11171e-06)
(0.870301 -0.0820703 0.00181293 0.0628528 -0.000534626 7.58488e-06)
(0.969557 -0.111697 0.002079 0.0627842 -0.000581815 8.38916e-06)
(1.08965 -0.103557 0.00191149 0.0628678 -0.000512957 7.15537e-06)
(1.17243 -0.127873 0.00209812 0.0628227 -0.000548456 7.71236e-06)
(1.30247 -0.124201 0.00196786 0.0628825 -0.000487235 6.72315e-06)
(1.37161 -0.144091 0.00209562 0.06286 -0.000512714 7.0833e-06)
(1.50523 -0.143943 0.00200228 0.0628938 -0.000457522 6.29587e-06)
(1.56413 -0.160228 0.00208468 0.0629269 -0.000474763 6.50435e-06)
(1.69577 -0.162549 0.00202739 0.0627558 -0.000423081 5.88269e-06)
(1.75004 -0.177104 0.00207624 0.0635877 -0.00043604 5.97813e-06)
(1.8696 -0.176455 0.00204473 0.0604439 -0.000377855 5.49566e-06)
(1.9453 -0.205527 0.00208025 0.0705468 -0.00041173 5.49417e-06)
(1.97215 -0.166803 0.00199564 0.0510364 -0.000306973 5.12836e-06)
(0.156119 0.0155461 0.000897338 0.0147085 0.000363375 1.24201e-05)
(0.182437 0.00484009 0.000568888 0.0534234 0.00057004 9.81424e-06)
(0.362465 0.0627062 0.0016432 0.0618555 0.000685929 1.16175e-05)
(0.415242 0.0363009 0.00133661 0.0626433 0.000592613 9.24003e-06)
(0.566578 0.0798453 0.00196049 0.0623201 0.000665633 1.07666e-05)
(0.646356 0.059401 0.00170654 0.0623627 0.00057866 8.78838e-06)
(0.767404 0.0951477 0.00211787 0.0622556 0.000638706 9.95009e-06)
(0.870468 0.0814763 0.00191127 0.0623444 0.000561403 8.3362e-06)
(0.969765 0.110909 0.00219823 0.062273 0.00060835 9.18113e-06)
(1.08984 0.102778 0.00203362 0.0623456 0.000539815 7.87822e-06)
(1.17265 0.126917 0.0022362 0.0622898 0.000575106 8.46281e-06)
(1.30268 0.123236 0.0021113 0.0623493 0.0005142 7.42006e-06)
(1.37183 0.142977 0.00225152 0.0623091 0.000539495 7.79725e-06)
(1.50554 0.142838 0.00216525 0.0623475 0.000484588 6.9689e-06)
(1.56423 0.158929 0.00225686 0.0623698 0.000501734 7.18653e-06)
(1.69698 0.161526 0.00220846 0.0622606 0.000450459 6.53363e-06)
(1.74857 0.175185 0.00226172 0.0629195 0.000463025 6.63383e-06)
(1.88195 0.178899 0.00225198 0.0613493 0.00040915 6.12236e-06)
(1.93718 0.200025 0.00228011 0.0679838 0.000436536 6.14384e-06)
(2.09235 0.201242 0.00230217 0.0643499 0.000372793 5.73526e-06)
(0.155578 -0.0137498 0.000874416 0.0117467 -0.000316951 1.18032e-05)
(0.18226 -0.00312398 0.000551771 0.0437662 -0.000504562 9.37169e-06)
(0.360702 -0.0593027 0.0016047 0.0567164 -0.000643709 1.11217e-05)
(0.414747 -0.0350901 0.0013111 0.060478 -0.000567404 8.8212e-06)
(0.566095 -0.0788713 0.00191908 0.0613818 -0.000645301 1.03112e-05)
(0.646218 -0.0588289 0.00167 0.0618229 -0.000560703 8.38893e-06)
(0.767284 -0.0944742 0.00206787 0.0617909 -0.000620863 9.52211e-06)
(0.87038 -0.0808465 0.001862 0.0619183 -0.000544014 7.95208e-06)
(0.969663 -0.110153 0.00213836 0.0618457 -0.000590816 8.77639e-06)
(1.08974 -0.10201 0.00197229 0.0619275 -0.000522537 7.50835e-06)
(1.17254 -0.126068 0.00216685 0.061874 -0.00055774 8.07889e-06)
(1.30257 -0.122358 0.00203931 0.0619363 -0.000497007 7.0631e-06)
(1.37172 -0.142036 0.00217317 0.0619057 -0.000522277 7.43154e-06)
(1.50538 -0.141826 0.00208326 0.0619359 -0.000467467 6.62392e-06)
(1.5642 -0.15796 0.0021703 0.0619973 -0.000484706 6.83666e-06)
(1.69628 -0.160232 0.0021173 0.061759 -0.000433114 6.19956e-06)
(1.74965 -0.174825 0.00216881 0.0628536 -0.000447033 6.29627e-06)
(1.87495 -0.175187 0.00214624 0.0597766 -0.000388956 5.80046e-06)
(1.943 -0.204076 0.00217955 0.0701282 -0.000426009 5.80371e-06)
(2.03632 -0.185986 0.00214607 0.0587091 -0.000342666 5.42015e-06)
(0.155578 0.0137497 0.000874418 0.0117467 0.000316951 1.18032e-05)
(0.18226 0.00312438 0.000551785 0.0437663 0.000504562 9.37168e-06)
(0.360702 0.059303 0.00160471 0.0567165 0.000643709 1.11217e-05)
(0.414747 0.0350899 0.00131112 0.060478 0.000567404 8.82119e-06)
(0.566095 0.0788714 0.00191908 0.0613817 0.000645301 1.03112e-05)
(0.646218 0.0588306 0.00167004 0.0618228 0.000560701 8.38889e-06)
(0.767283 0.0944735 0.00206789 0.0617909 0.000620863 9.52209e-06)
(0.87038 0.0808437 0.00186199 0.0619183 0.000544015 7.95208e-06)
(0.969664 0.110154 0.00213837 0.0618457 0.000590816 8.7764e-06)
(1.08974 0.102014 0.00197235 0.0619277 0.000522535 7.50831e-06)
(1.17254 0.126065 0.00216683 0.0618742 0.00055774 8.07886e-06)
(1.30257 0.122352 0.00203922 0.0619366 0.00049701 7.06313e-06)
(1.37172 0.142039 0.00217317 0.0619058 0.000522278 7.43157e-06)
(1.50538 0.141836 0.00208339 0.0619372 0.000467468 6.62384e-06)
(1.56419 0.157961 0.00217035 0.061998 0.000484711 6.83658e-06)
(1.69628 0.160228 0.0021172 0.0617647 0.000433128 6.1995e-06)
(1.74963 0.174823 0.00216865 0.0628565 0.000447069 6.29648e-06)
(1.87498 0.175239 0.00214616 0.0598064 0.000389009 5.80007e-06)
(1.94299 0.204126 0.00217995 0.0701429 0.000426206 5.80472e-06)
(2.03621 0.186138 0.0021462 0.0588158 0.00034293 5.42013e-06)
(0.156119 -0.0155462 0.000897345 0.0147085 -0.000363375 1.24201e-05)
(0.182437 -0.00483981 0.000568874 0.0534233 -0.000570039 9.81425e-06)
(0.362466 -0.0627059 0.00164323 0.0618553 -0.000685928 1.16175e-05)
(0.415242 -0.0363009 0.00133662 0.0626432 -0.000592612 9.24002e-06)
(0.566578 -0.0798452 0.00196051 0.0623202 -0.000665633 1.07666e-05)
(0.646357 -0.0593994 0.00170653 0.0623626 -0.000578663 8.78846e-06)
(0.767404 -0.0951483 0.00211795 0.0622556 -0.000638708 9.95016e-06)
(0.870468 -0.0814789 0.00191141 0.0623443 -0.000561403 8.33621e-06)
(0.969767 -0.110907 0.00219831 0.062273 -0.000608351 9.18114e-06)
(1.08984 -0.102774 0.00203364 0.0623454 -0.000539816 7.8783e-06)
(1.17265 -0.126919 0.00223634 0.0622897 -0.000575106 8.46285e-06)
(1.30268 -0.123242 0.0021115 0.0623491 -0.000514198 7.42001e-06)
(1.37184 -0.142974 0.00225157 0.0623093 -0.000539495 7.79723e-06)
(1.50554 -0.142827 0.00216519 0.062346 -0.000484586 6.96901e-06)
(1.56423 -0.158929 0.00225694 0.0623705 -0.000501733 7.18659e-06)
(1.69698 -0.161528 0.00220868 0.0622544 -0.000450442 6.53363e-06)
(1.7486 -0.175191 0.00226191 0.0629232 -0.000463006 6.63362e-06)
(1.88193 -0.178845 0.00225205 0.0613244 -0.0004091 6.12271e-06)
(1.93724 -0.199972 0.00227965 0.0679761 -0.000436342 6.14288e-06)
(2.09248 -0.201054 0.00230175 0.0642542 -0.000372515 5.73506e-06)
(0.155117 0.0124526 0.000857481 0.00957304 0.000281046 1.13509e-05)
(0.182256 0.0027323 0.000545025 0.0364775 0.000448833 8.86055e-06)
(0.361772 0.0590166 0.00158229 0.0541736 0.000618078 1.06458e-05)
(0.414882 0.0355411 0.00129066 0.060488 0.000554058 8.40943e-06)
(0.56613 0.0798421 0.00188036 0.0621446 0.00063614 9.8743e-06)
(0.646174 0.0597062 0.0016341 0.0627293 0.000551371 8.00568e-06)
(0.767191 0.0957493 0.00201849 0.0627157 0.000612141 9.1117e-06)
(0.870301 0.0820682 0.00181304 0.0628528 0.000534627 7.58488e-06)
(0.969559 0.111699 0.0020791 0.0627843 0.000581815 8.38915e-06)
(1.08965 0.10356 0.0019116 0.062868 0.000512956 7.15535e-06)
(1.17243 0.127871 0.00209818 0.0628229 0.000548457 7.71233e-06)
(1.30247 0.124196 0.00196787 0.0628829 0.000487238 6.72316e-06)
(1.37162 0.144094 0.00209572 0.0628605 0.000512715 7.08329e-06)
(1.50524 0.143951 0.00200245 0.0628945 0.000457522 6.29579e-06)
(1.56412 0.16023 0.00208476 0.062929 0.000474771 6.50429e-06)
(1.69578 0.162545 0.00202737 0.0627597 0.00042309 5.88263e-06)
(1.75004 0.177108 0.0020762 0.0635969 0.000436084 5.97827e-06)
(1.86965 0.176489 0.00204472 0.0604652 0.000377881 5.49527e-06)
(1.94535 0.205586 0.00208064 0.0705849 0.000411946 5.49501e-06)
(1.97221 0.166938 0.00199562 0.0511591 0.000307238 5.12821e-06)
(0.15755 -0.0185398 0.000938214 0.0189103 -0.000427246 1.33084e-05)
(0.18308 -0.00874035 0.000599848 0.0666851 -0.000649323 1.01859e-05)
(0.366463 -0.0688861 0.00169491 0.0695084 -0.000743898 1.21272e-05)
(0.415823 -0.0384048 0.00136297 0.0663444 -0.000627172 9.66089e-06)
(0.566511 -0.0820241 0.0019999 0.0646029 -0.000695871 1.12354e-05)
(0.645997 -0.0609162 0.00174041 0.0642413 -0.000605364 9.20171e-06)
(0.766665 -0.0973303 0.00216505 0.0640883 -0.000666142 1.03935e-05)
(0.869882 -0.0835525 0.00195813 0.0641403 -0.000587399 8.73522e-06)
(0.968913 -0.113546 0.00225542 0.0640771 -0.000635044 9.60151e-06)
(1.08911 -0.105436 0.00209247 0.0641373 -0.000565429 8.26335e-06)
(1.17171 -0.130014 0.00230313 0.0640826 -0.000601191 8.86258e-06)
(1.30184 -0.126439 0.00218128 0.0641376 -0.000539444 7.79219e-06)
(1.37082 -0.146497 0.00232748 0.0640871 -0.000565008 8.17874e-06)
(1.5046 -0.146525 0.00224488 0.0641391 -0.000509501 7.32938e-06)
(1.56307 -0.162769 0.00234126 0.0640814 -0.00052653 7.5524e-06)
(1.69627 -0.165882 0.00229777 0.0641949 -0.000475485 6.88302e-06)
(1.74603 -0.1781 0.00235263 0.0639315 -0.000484856 6.98764e-06)
(1.88671 -0.18637 0.00235668 0.0648275 -0.000438235 6.46186e-06)
(1.92215 -0.190595 0.00236865 0.063019 -0.000437815 6.50246e-06)
(2.14702 -0.211998 0.00246834 0.0670032 -0.000395416 6.08003e-06)
(0.165557 0.014417 0.00095931 0.00782094 0.000251293 1.12369e-05)
(0.182318 0.00299332 0.00054506 0.0312446 0.000406939 8.40176e-06)
(0.354716 0.0557732 0.00152113 0.0549566 0.000618514 1.03389e-05)
(0.4092 0.0291604 0.00121413 0.0633618 0.000561045 8.13218e-06)
(0.550221 0.0738028 0.00177545 0.064885 0.000644677 9.58972e-06)
(0.635492 0.0528974 0.0015382 0.0651882 0.000556524 7.75306e-06)
(0.748215 0.0899185 0.00190509 0.0651168 0.000618254 8.84448e-06)
(0.855526 0.076036 0.00170839 0.0652068 0.000538904 7.34403e-06)
(0.948008 0.106523 0.0019614 0.0651627 0.000587035 8.13779e-06)
(1.07104 0.0983451 0.00180088 0.0652242 0.00051674 6.92399e-06)