/*--------------------------------*- C++ -*----------------------------------*\
  =========                 |
  \\      /  F ield         | OpenFOAM: The Open Source CFD Toolbox
   \\    /   O peration     | Website:  https://openfoam.org
    \\  /    A nd           | Version:  7
     \\/     M anipulation  |
\*---------------------------------------------------------------------------*/
FoamFile
{
    version     2.0;
    format      ascii;
    class       volScalarField;
    location    "1.85";
    object      T;
}
// * * * * * * * * * * * * * * * * * * * * * * * * * * * * * * * * * * * * * //

dimensions      [0 0 0 1 0 0 0];

internalField   nonuniform List<scalar> 
3000
(
283.154
283.152
283.149
283.148
283.146
283.146
283.145
283.143
283.142
283.142
283.143
283.145
283.146
283.148
283.149
283.151
283.152
283.154
283.155
283.156
283.157
283.157
283.158
283.158
283.158
283.158
283.158
283.158
283.158
283.157
283.157
283.156
283.155
283.154
283.154
283.153
283.152
283.151
283.151
283.15
283.151
283.148
283.152
283.144
283.159
283.13
283.188
283.072
283.312
282.819
283.153
283.151
283.148
283.144
283.142
283.14
283.139
283.138
283.136
283.135
283.134
283.134
283.135
283.138
283.14
283.144
283.147
283.151
283.154
283.158
283.161
283.165
283.168
283.171
283.173
283.175
283.177
283.179
283.181
283.182
283.183
283.183
283.182
283.181
283.179
283.177
283.174
283.171
283.169
283.164
283.164
283.158
283.161
283.149
283.161
283.138
283.167
283.121
283.183
283.095
283.153
283.15
283.147
283.144
283.141
283.139
283.138
283.137
283.135
283.133
283.13
283.129
283.129
283.131
283.133
283.136
283.139
283.142
283.146
283.15
283.153
283.156
283.16
283.163
283.167
283.171
283.174
283.177
283.179
283.181
283.183
283.185
283.187
283.189
283.191
283.192
283.193
283.192
283.191
283.188
283.185
283.181
283.178
283.174
283.171
283.166
283.163
283.159
283.154
283.154
283.151
283.149
283.146
283.143
283.14
283.138
283.137
283.135
283.134
283.131
283.129
283.128
283.127
283.128
283.13
283.133
283.136
283.139
283.142
283.146
283.149
283.152
283.155
283.159
283.162
283.166
283.169
283.172
283.175
283.177
283.178
283.18
283.182
283.184
283.187
283.19
283.192
283.194
283.195
283.195
283.193
283.191
283.188
283.185
283.181
283.177
283.173
283.17
283.166
283.162
283.151
283.148
283.145
283.142
283.139
283.137
283.136
283.135
283.133
283.131
283.128
283.127
283.127
283.128
283.13
283.132
283.135
283.138
283.142
283.145
283.149
283.152
283.155
283.158
283.161
283.165
283.169
283.172
283.174
283.176
283.177
283.179
283.181
283.183
283.186
283.189
283.192
283.194
283.195
283.195
283.194
283.192
283.19
283.186
283.182
283.178
283.175
283.171
283.168
283.164
283.149
283.147
283.144
283.141
283.138
283.136
283.135
283.134
283.132
283.13
283.127
283.126
283.126
283.127
283.129
283.131
283.134
283.138
283.141
283.145
283.148
283.151
283.154
283.157
283.16
283.164
283.168
283.171
283.173
283.175
283.177
283.178
283.18
283.182
283.185
283.188
283.191
283.193
283.194
283.194
283.193
283.191
283.188
283.185
283.181
283.177
283.174
283.17
283.167
283.163
283.148
283.145
283.142
283.139
283.137
283.135
283.134
283.133
283.131
283.128
283.126
283.125
283.124
283.125
283.127
283.13
283.133
283.136
283.14
283.143
283.147
283.15
283.153
283.156
283.159
283.163
283.166
283.17
283.172
283.174
283.176
283.177
283.179
283.182
283.185
283.188
283.19
283.192
283.193
283.193
283.192
283.19
283.187
283.184
283.18
283.176
283.173
283.168
283.165
283.161
283.147
283.144
283.141
283.138
283.136
283.134
283.133
283.132
283.13
283.127
283.125
283.123
283.123
283.124
283.126
283.128
283.131
283.135
283.138
283.142
283.145
283.148
283.151
283.154
283.158
283.161
283.165
283.168
283.171
283.173
283.174
283.176
283.178
283.181
283.183
283.186
283.189
283.191
283.192
283.192
283.191
283.189
283.187
283.183
283.179
283.175
283.172
283.168
283.165
283.16
283.145
283.142
283.139
283.137
283.134
283.132
283.131
283.13
283.128
283.126
283.123
283.122
283.122
283.122
283.124
283.127
283.13
283.133
283.136
283.14
283.144
283.147
283.15
283.153
283.156
283.16
283.164
283.167
283.17
283.172
283.173
283.175
283.177
283.18
283.183
283.186
283.188
283.19
283.19
283.19
283.189
283.187
283.184
283.18
283.176
283.172
283.168
283.164
283.161
283.156
283.144
283.141
283.139
283.136
283.134
283.132
283.131
283.13
283.128
283.126
283.123
283.122
283.122
283.123
283.125
283.128
283.131
283.134
283.138
283.142
283.146
283.149
283.153
283.156
283.16
283.163
283.167
283.17
283.172
283.174
283.177
283.179
283.181
283.183
283.185
283.186
283.186
283.186
283.184
283.182
283.179
283.175
283.171
283.168
283.164
283.16
283.156
283.151
283.147
283.143
283.144
283.141
283.138
283.135
283.133
283.132
283.131
283.13
283.128
283.126
283.125
283.125
283.126
283.129
283.131
283.135
283.138
283.142
283.146
283.149
283.153
283.156
283.16
283.163
283.165
283.167
283.17
283.172
283.173
283.175
283.175
283.175
283.175
283.173
283.171
283.169
283.166
283.163
283.16
283.157
283.154
283.152
283.149
283.146
283.144
283.142
283.14
283.139
283.138
283.137
283.143
283.141
283.139
283.138
283.137
283.136
283.135
283.134
283.133
283.133
283.134
283.135
283.137
283.138
283.14
283.142
283.143
283.145
283.146
283.147
283.148
283.148
283.149
283.149
283.149
283.15
283.15
283.149
283.149
283.149
283.148
283.147
283.147
283.146
283.145
283.144
283.144
283.143
283.142
283.142
283.142
283.141
283.141
283.141
283.141
283.141
283.141
283.142
283.141
283.143
285.37
287.64
289.134
290.307
291.31
292.206
293.023
293.779
294.486
295.15
295.779
296.377
296.947
297.493
298.017
298.521
299.007
299.475
299.928
300.365
300.788
301.198
301.596
301.981
302.357
302.722
303.079
303.427
303.767
304.1
304.427
304.747
305.061
305.369
305.671
305.968
306.258
306.544
306.823
307.097
307.365
307.627
307.883
308.133
308.378
308.616
308.849
309.076
309.298
309.513
309.723
309.926
310.123
310.313
310.497
310.675
310.845
311.008
311.165
311.315
311.458
311.595
311.726
311.85
311.969
312.083
312.191
312.294
312.393
312.487
312.576
312.661
312.741
312.817
312.888
312.955
313.018
313.077
313.132
313.183
313.231
313.275
313.317
313.356
313.393
313.427
313.46
313.49
313.518
313.545
313.57
313.593
313.614
313.633
313.65
313.666
313.679
313.691
313.702
313.711
313.719
313.727
313.733
313.739
313.745
313.75
313.754
313.758
313.762
313.765
313.768
313.77
313.771
313.771
313.771
313.77
313.768
313.766
313.763
313.759
313.755
313.751
313.746
313.741
313.736
313.731
313.725
313.72
313.714
313.709
313.703
313.697
313.691
313.686
313.68
313.674
313.669
313.663
313.657
313.651
313.646
313.64
313.634
313.629
313.623
313.617
313.612
313.606
313.6
313.595
313.589
313.583
313.578
313.572
313.566
313.561
313.555
313.549
313.544
313.538
313.533
313.527
313.521
313.516
313.51
313.505
313.499
313.494
313.488
313.483
313.477
313.472
313.466
313.461
313.455
313.45
313.444
313.439
313.433
313.428
313.423
313.417
313.412
313.407
313.401
313.396
313.391
313.385
313.38
313.375
313.37
313.364
313.36
313.354
313.35
313.343
313.34
313.332
313.33
313.321
283.358
284.305
285.311
286.234
287.068
287.833
288.543
289.21
289.838
290.434
291
291.541
292.061
292.56
293.042
293.508
293.96
294.399
294.825
295.24
295.642
296.034
296.415
296.785
297.146
297.498
297.842
298.177
298.506
298.827
299.143
299.454
299.759
300.059
300.355
300.646
300.933
301.216
301.493
301.766
302.034
302.296
302.553
302.804
303.05
303.29
303.525
303.754
303.978
304.196
304.409
304.617
304.82
305.017
305.209
305.395
305.576
305.75
305.918
306.079
306.234
306.383
306.524
306.66
306.789
306.912
307.03
307.143
307.251
307.355
307.454
307.549
307.64
307.727
307.81
307.889
307.963
308.034
308.1
308.162
308.22
308.274
308.324
308.371
308.415
308.456
308.495
308.532
308.567
308.6
308.632
308.662
308.69
308.717
308.742
308.765
308.786
308.805
308.822
308.837
308.85
308.861
308.872
308.881
308.889
308.897
308.904
308.911
308.917
308.924
308.93
308.936
308.942
308.947
308.951
308.955
308.957
308.959
308.96
308.96
308.96
308.958
308.957
308.954
308.952
308.949
308.946
308.942
308.939
308.935
308.931
308.927
308.924
308.92
308.916
308.912
308.908
308.904
308.9
308.896
308.892
308.888
308.884
308.88
308.876
308.872
308.869
308.865
308.861
308.857
308.853
308.849
308.845
308.841
308.837
308.833
308.829
308.825
308.822
308.818
308.814
308.81
308.806
308.802
308.798
308.794
308.791
308.787
308.783
308.779
308.775
308.772
308.768
308.764
308.76
308.756
308.753
308.749
308.745
308.741
308.738
308.734
308.73
308.727
308.723
308.719
308.716
308.712
308.709
308.705
308.701
308.697
308.694
308.69
308.687
308.683
308.681
308.675
308.674
308.668
283.127
283.256
283.57
283.999
284.478
284.972
285.467
285.955
286.433
286.897
287.347
287.784
288.209
288.622
289.024
289.418
289.803
290.181
290.553
290.919
291.278
291.631
291.977
292.316
292.648
292.972
293.289
293.599
293.902
294.199
294.491
294.778
295.06
295.34
295.616
295.89
296.162
296.431
296.698
296.961
297.222
297.479
297.731
297.979
298.221
298.458
298.69
298.916
299.136
299.352
299.563
299.771
299.974
300.173
300.369
300.562
300.75
300.935
301.114
301.289
301.457
301.62
301.776
301.925
302.068
302.204
302.334
302.458
302.577
302.691
302.801
302.907
303.011
303.111
303.208
303.302
303.392
303.479
303.562
303.64
303.713
303.782
303.846
303.905
303.96
304.011
304.059
304.104
304.147
304.187
304.227
304.265
304.303
304.339
304.374
304.408
304.44
304.47
304.497
304.522
304.544
304.563
304.579
304.593
304.605
304.616
304.625
304.634
304.643
304.652
304.662
304.672
304.682
304.692
304.702
304.711
304.72
304.728
304.734
304.74
304.744
304.747
304.749
304.751
304.751
304.751
304.75
304.749
304.747
304.745
304.743
304.741
304.739
304.736
304.734
304.731
304.729
304.726
304.724
304.721
304.718
304.716
304.713
304.71
304.708
304.705
304.703
304.7
304.697
304.695
304.692
304.689
304.687
304.684
304.682
304.679
304.676
304.674
304.671
304.669
304.666
304.664
304.661
304.658
304.656
304.653
304.651
304.648
304.646
304.643
304.641
304.638
304.636
304.633
304.631
304.628
304.626
304.624
304.621
304.619
304.616
304.614
304.611
304.609
304.607
304.604
304.602
304.6
304.597
304.595
304.593
304.59
304.588
304.586
304.584
304.581
304.58
304.576
304.576
304.571
283.15
283.135
283.153
283.231
283.37
283.561
283.79
284.046
284.321
284.604
284.892
285.18
285.467
285.752
286.034
286.315
286.594
286.874
287.155
287.437
287.72
288.004
288.288
288.57
288.851
289.128
289.4
289.667
289.929
290.186
290.437
290.683
290.925
291.165
291.403
291.64
291.877
292.115
292.353
292.592
292.831
293.069
293.305
293.539
293.769
293.994
294.214
294.429
294.638
294.841
295.04
295.234
295.426
295.614
295.802
295.988
296.173
296.358
296.54
296.721
296.898
297.071
297.239
297.401
297.555
297.703
297.844
297.977
298.104
298.226
298.343
298.456
298.567
298.676
298.783
298.889
298.994
299.096
299.196
299.293
299.385
299.473
299.555
299.631
299.701
299.765
299.824
299.879
299.929
299.977
300.024
300.069
300.114
300.159
300.205
300.25
300.294
300.337
300.379
300.417
300.452
300.484
300.511
300.534
300.553
300.568
300.581
300.592
300.603
300.613
300.623
300.635
300.649
300.663
300.679
300.694
300.71
300.726
300.74
300.753
300.765
300.774
300.782
300.789
300.794
300.798
300.8
300.802
300.803
300.804
300.803
300.803
300.802
300.801
300.8
300.799
300.798
300.797
300.795
300.794
300.793
300.791
300.79
300.788
300.787
300.786
300.784
300.783
300.781
300.78
300.778
300.777
300.776
300.774
300.773
300.771
300.77
300.769
300.767
300.766
300.764
300.763
300.762
300.76
300.759
300.758
300.756
300.755
300.754
300.752
300.751
300.75
300.748
300.747
300.746
300.744
300.743
300.742
300.741
300.739
300.738
300.737
300.736
300.734
300.733
300.732
300.731
300.73
300.729
300.727
300.726
300.725
300.724
300.723
300.722
300.72
300.72
300.718
300.718
300.716
283.154
283.139
283.123
283.113
283.121
283.153
283.207
283.284
283.383
283.5
283.629
283.767
283.91
284.058
284.207
284.359
284.514
284.673
284.838
285.009
285.188
285.374
285.568
285.768
285.973
286.181
286.39
286.597
286.801
287.001
287.196
287.386
287.571
287.753
287.933
288.112
288.292
288.475
288.661
288.852
289.048
289.247
289.449
289.651
289.854
290.054
290.25
290.44
290.625
290.804
290.976
291.143
291.307
291.467
291.627
291.788
291.95
292.114
292.281
292.45
292.621
292.79
292.958
293.122
293.281
293.433
293.577
293.713
293.842
293.963
294.079
294.19
294.298
294.404
294.51
294.617
294.725
294.835
294.944
295.054
295.161
295.265
295.364
295.458
295.544
295.623
295.694
295.758
295.817
295.87
295.921
295.969
296.017
296.067
296.117
296.169
296.223
296.278
296.333
296.386
296.437
296.483
296.525
296.562
296.592
296.616
296.635
296.65
296.661
296.671
296.681
296.692
296.705
296.721
296.74
296.76
296.782
296.805
296.827
296.849
296.869
296.887
296.903
296.917
296.928
296.937
296.944
296.95
296.954
296.958
296.96
296.962
296.963
296.964
296.964
296.965
296.965
296.965
296.964
296.964
296.964
296.964
296.964
296.963
296.963
296.963
296.962
296.962
296.962
296.961
296.961
296.961
296.96
296.96
296.96
296.96
296.959
296.959
296.959
296.958
296.958
296.958
296.957
296.957
296.957
296.957
296.956
296.956
296.956
296.955
296.955
296.955
296.955
296.954
296.954
296.954
296.954
296.953
296.953
296.953
296.953
296.952
296.952
296.952
296.952
296.952
296.952
296.951
296.951
296.951
296.951
296.951
296.951
296.95
296.95
296.95
296.95
296.95
296.95
296.949
283.152
283.139
283.122
283.107
283.101
283.104
283.114
283.13
283.155
283.189
283.228
283.269
283.312
283.355
283.398
283.442
283.486
283.532
283.583
283.642
283.711
283.79
283.88
283.983
284.096
284.219
284.347
284.478
284.61
284.74
284.866
284.987
285.101
285.211
285.318
285.422
285.527
285.635
285.749
285.869
285.997
286.133
286.277
286.426
286.578
286.731
286.883
287.031
287.174
287.31
287.439
287.561
287.679
287.792
287.905
288.018
288.134
288.255
288.382
288.515
288.653
288.796
288.94
289.085
289.227
289.365
289.496
289.619
289.735
289.841
289.941
290.035
290.125
290.214
290.303
290.394
290.489
290.588
290.692
290.798
290.905
291.013
291.118
291.218
291.312
291.399
291.477
291.546
291.608
291.662
291.712
291.758
291.804
291.85
291.899
291.951
292.006
292.065
292.126
292.188
292.249
292.308
292.363
292.411
292.452
292.486
292.512
292.531
292.545
292.555
292.564
292.572
292.583
292.598
292.616
292.638
292.663
292.69
292.718
292.747
292.774
292.8
292.823
292.843
292.86
292.875
292.887
292.897
292.905
292.911
292.916
292.92
292.923
292.925
292.927
292.929
292.93
292.931
292.932
292.933
292.934
292.934
292.935
292.936
292.936
292.937
292.938
292.938
292.939
292.939
292.94
292.941
292.941
292.942
292.943
292.943
292.944
292.944
292.945
292.946
292.946
292.947
292.947
292.948
292.949
292.949
292.95
292.951
292.951
292.952
292.952
292.953
292.954
292.954
292.955
292.955
292.956
292.957
292.957
292.958
292.959
292.959
292.96
292.961
292.961
292.962
292.963
292.963
292.964
292.965
292.965
292.966
292.967
292.967
292.968
292.969
292.969
292.97
292.971
292.972
283.151
283.137
283.121
283.106
283.099
283.101
283.109
283.12
283.137
283.157
283.178
283.196
283.209
283.216
283.219
283.217
283.211
283.204
283.199
283.198
283.205
283.221
283.247
283.284
283.331
283.386
283.447
283.511
283.575
283.638
283.696
283.75
283.798
283.842
283.882
283.922
283.963
284.007
284.057
284.115
284.181
284.256
284.338
284.427
284.52
284.614
284.708
284.798
284.884
284.964
285.038
285.107
285.171
285.233
285.294
285.358
285.426
285.499
285.58
285.667
285.761
285.861
285.963
286.066
286.168
286.267
286.361
286.448
286.528
286.602
286.67
286.734
286.796
286.857
286.92
286.987
287.059
287.136
287.217
287.303
287.392
287.481
287.568
287.652
287.731
287.803
287.868
287.925
287.975
288.019
288.059
288.097
288.135
288.175
288.217
288.263
288.313
288.367
288.423
288.48
288.537
288.592
288.643
288.688
288.726
288.757
288.781
288.799
288.811
288.82
288.828
288.837
288.848
288.862
288.88
288.902
288.927
288.955
288.983
289.011
289.039
289.064
289.087
289.107
289.125
289.14
289.152
289.162
289.17
289.177
289.182
289.186
289.19
289.193
289.195
289.197
289.199
289.2
289.202
289.203
289.204
289.206
289.207
289.208
289.209
289.21
289.212
289.213
289.214
289.215
289.216
289.217
289.218
289.219
289.22
289.222
289.223
289.224
289.225
289.226
289.227
289.228
289.229
289.23
289.232
289.233
289.234
289.235
289.236
289.237
289.238
289.239
289.24
289.242
289.243
289.244
289.245
289.246
289.247
289.248
289.249
289.25
289.251
289.253
289.254
289.255
289.256
289.257
289.258
289.259
289.26
289.262
289.263
289.264
289.265
289.266
289.267
289.269
289.269
289.271
283.15
283.136
283.12
283.106
283.101
283.105
283.116
283.131
283.149
283.168
283.183
283.193
283.196
283.193
283.185
283.173
283.158
283.144
283.133
283.127
283.126
283.132
283.145
283.164
283.187
283.214
283.242
283.27
283.296
283.319
283.339
283.355
283.368
283.38
283.391
283.404
283.419
283.439
283.464
283.496
283.534
283.577
283.625
283.676
283.728
283.781
283.831
283.878
283.922
283.962
283.999
284.033
284.066
284.099
284.135
284.174
284.217
284.266
284.32
284.379
284.442
284.508
284.575
284.641
284.705
284.766
284.823
284.876
284.924
284.969
285.012
285.053
285.096
285.14
285.187
285.238
285.293
285.352
285.414
285.477
285.542
285.605
285.666
285.724
285.777
285.824
285.867
285.906
285.94
285.972
286.002
286.033
286.065
286.099
286.136
286.175
286.217
286.261
286.305
286.349
286.391
286.43
286.465
286.495
286.519
286.539
286.555
286.567
286.576
286.585
286.594
286.605
286.619
286.635
286.654
286.675
286.697
286.72
286.743
286.765
286.786
286.804
286.821
286.835
286.847
286.857
286.865
286.872
286.878
286.882
286.886
286.889
286.892
286.894
286.896
286.897
286.899
286.9
286.902
286.903
286.904
286.905
286.907
286.908
286.909
286.91
286.911
286.912
286.914
286.915
286.916
286.917
286.918
286.919
286.92
286.922
286.923
286.924
286.925
286.926
286.927
286.928
286.929
286.931
286.932
286.933
286.934
286.935
286.936
286.937
286.938
286.94
286.941
286.942
286.943
286.944
286.945
286.946
286.947
286.949
286.95
286.951
286.952
286.953
286.954
286.955
286.957
286.958
286.959
286.96
286.961
286.962
286.963
286.965
286.966
286.967
286.968
286.97
286.97
286.972
283.146
283.131
283.119
283.113
283.115
283.125
283.138
283.153
283.166
283.177
283.183
283.184
283.18
283.172
283.162
283.151
283.141
283.133
283.129
283.129
283.132
283.139
283.149
283.161
283.174
283.186
283.197
283.207
283.215
283.22
283.224
283.226
283.228
283.231
283.235
283.242
283.251
283.264
283.281
283.302
283.326
283.352
283.38
283.408
283.436
283.463
283.488
283.511
283.532
283.552
283.571
283.59
283.611
283.633
283.658
283.686
283.718
283.753
283.791
283.831
283.872
283.914
283.955
283.995
284.032
284.068
284.101
284.132
284.162
284.192
284.221
284.251
284.283
284.317
284.354
284.394
284.435
284.478
284.522
284.566
284.608
284.649
284.688
284.723
284.756
284.786
284.813
284.838
284.863
284.887
284.911
284.937
284.963
284.992
285.022
285.052
285.084
285.115
285.145
285.174
285.2
285.224
285.244
285.261
285.275
285.287
285.297
285.306
285.315
285.325
285.335
285.348
285.361
285.377
285.393
285.41
285.427
285.443
285.459
285.473
285.486
285.497
285.507
285.515
285.522
285.528
285.533
285.537
285.54
285.542
285.545
285.547
285.548
285.55
285.551
285.552
285.553
285.554
285.556
285.557
285.558
285.559
285.56
285.561
285.562
285.563
285.563
285.564
285.565
285.566
285.567
285.568
285.569
285.57
285.571
285.572
285.573
285.574
285.575
285.576
285.577
285.578
285.579
285.58
285.581
285.582
285.583
285.584
285.584
285.585
285.586
285.587
285.588
285.589
285.59
285.591
285.592
285.593
285.594
285.595
285.596
285.597
285.598
285.599
285.6
285.601
285.602
285.603
285.604
285.605
285.606
285.607
285.608
285.609
285.61
285.611
285.611
285.613
285.613
285.615
283.136
283.129
283.126
283.129
283.136
283.146
283.155
283.164
283.17
283.173
283.171
283.167
283.161
283.154
283.148
283.142
283.139
283.138
283.14
283.143
283.148
283.154
283.16
283.165
283.17
283.174
283.177
283.178
283.178
283.178
283.178
283.178
283.179
283.181
283.184
283.19
283.198
283.208
283.219
283.232
283.246
283.261
283.275
283.289
283.303
283.315
283.327
283.338
283.349
283.361
283.372
283.386
283.4
283.417
283.435
283.456
283.478
283.501
283.526
283.551
283.575
283.599
283.623
283.645
283.666
283.687
283.706
283.726
283.745
283.766
283.787
283.81
283.833
283.859
283.885
283.913
283.941
283.969
283.996
284.023
284.049
284.072
284.095
284.115
284.135
284.153
284.171
284.188
284.206
284.224
284.243
284.262
284.282
284.303
284.323
284.344
284.364
284.383
284.401
284.417
284.431
284.443
284.454
284.464
284.472
284.48
284.487
284.495
284.503
284.512
284.522
284.533
284.544
284.555
284.566
284.578
284.588
284.598
284.607
284.615
284.622
284.628
284.633
284.637
284.64
284.643
284.646
284.647
284.649
284.651
284.652
284.653
284.654
284.655
284.656
284.657
284.657
284.658
284.659
284.66
284.66
284.661
284.662
284.662
284.663
284.664
284.665
284.665
284.666
284.667
284.667
284.668
284.669
284.669
284.67
284.671
284.672
284.672
284.673
284.674
284.674
284.675
284.676
284.676
284.677
284.678
284.679
284.679
284.68
284.681
284.681
284.682
284.683
284.683
284.684
284.685
284.686
284.686
284.687
284.688
284.688
284.689
284.69
284.691
284.691
284.692
284.693
284.694
284.694
284.695
284.696
284.697
284.697
284.698
284.699
284.7
284.7
284.701
284.702
284.703
283.138
283.137
283.137
283.14
283.146
283.152
283.156
283.159
283.16
283.159
283.156
283.152
283.148
283.144
283.142
283.141
283.142
283.144
283.146
283.149
283.152
283.155
283.157
283.159
283.16
283.16
283.16
283.159
283.158
283.158
283.158
283.158
283.159
283.162
283.165
283.17
283.175
283.181
283.187
283.194
283.201
283.208
283.214
283.221
283.226
283.232
283.238
283.244
283.25
283.257
283.265
283.273
283.283
283.294
283.306
283.318
283.331
283.344
283.358
283.371
283.384
283.396
283.408
283.42
283.431
283.442
283.453
283.465
283.477
283.49
283.504
283.519
283.534
283.549
283.565
283.581
283.597
283.612
283.627
283.641
283.654
283.666
283.678
283.689
283.7
283.711
283.722
283.733
283.744
283.755
283.767
283.779
283.791
283.803
283.815
283.826
283.836
283.846
283.855
283.862
283.869
283.875
283.881
283.886
283.891
283.896
283.901
283.907
283.913
283.919
283.926
283.932
283.939
283.946
283.952
283.958
283.963
283.968
283.972
283.976
283.979
283.982
283.984
283.986
283.987
283.989
283.99
283.991
283.991
283.992
283.993
283.993
283.994
283.994
283.995
283.995
283.996
283.996
283.997
283.997
283.997
283.998
283.998
283.999
283.999
284
284
284
284.001
284.001
284.002
284.002
284.003
284.003
284.003
284.004
284.004
284.005
284.005
284.006
284.006
284.007
284.007
284.007
284.008
284.008
284.009
284.009
284.01
284.01
284.011
284.011
284.011
284.012
284.012
284.013
284.013
284.014
284.014
284.015
284.015
284.016
284.016
284.017
284.017
284.018
284.018
284.019
284.019
284.02
284.02
284.021
284.021
284.022
284.022
284.023
284.023
284.024
284.024
284.025
283.141
283.139
283.14
283.141
283.143
283.145
283.146
283.146
283.146
283.145
283.143
283.142
283.141
283.14
283.14
283.141
283.141
283.142
283.143
283.145
283.145
283.146
283.147
283.147
283.147
283.147
283.146
283.146
283.146
283.146
283.146
283.147
283.148
283.149
283.15
283.152
283.154
283.156
283.158
283.16
283.162
283.164
283.166
283.168
283.169
283.171
283.173
283.175
283.177
283.18
283.183
283.186
283.19
283.194
283.198
283.202
283.206
283.211
283.215
283.219
283.223
283.227
283.23
283.234
283.238
283.242
283.246
283.25
283.254
283.259
283.264
283.269
283.274
283.28
283.285
283.29
283.295
283.3
283.304
283.309
283.313
283.317
283.32
283.324
283.328
283.331
283.335
283.339
283.343
283.347
283.351
283.355
283.359
283.363
283.367
283.37
283.373
283.376
283.379
283.381
283.383
283.385
283.387
283.388
283.39
283.392
283.394
283.396
283.398
283.401
283.403
283.405
283.408
283.41
283.412
283.413
283.415
283.416
283.417
283.418
283.419
283.42
283.421
283.421
283.422
283.422
283.422
283.422
283.423
283.423
283.423
283.423
283.424
283.424
283.424
283.424
283.424
283.424
283.425
283.425
283.425
283.425
283.425
283.425
283.425
283.426
283.426
283.426
283.426
283.426
283.426
283.427
283.427
283.427
283.427
283.427
283.427
283.428
283.428
283.428
283.428
283.428
283.428
283.429
283.429
283.429
283.429
283.429
283.43
283.43
283.43
283.43
283.43
283.431
283.431
283.431
283.431
283.431
283.432
283.432
283.432
283.432
283.433
283.433
283.433
283.433
283.434
283.434
283.434
283.435
283.435
283.435
283.435
283.436
283.436
283.436
283.437
283.437
283.437
283.438
)
;

boundaryField
{
    upperWall
    {
        type            fixedValue;
        value           uniform 283.15;
    }
    lowerWall
    {
        type            fixedValue;
        value           uniform 283.15;
    }
    heatedWall
    {
        type            externalWallHeatFluxTemperature;
        mode            power;
        kappaMethod     fluidThermo;
        kappa           none;
        alphaAni        Anialpha;
        Q               5040;
        qr              none;
        refValue        nonuniform List<scalar> 
200
(
288.032
290.15
291.651
292.854
293.89
294.814
295.657
296.436
297.164
297.848
298.494
299.107
299.692
300.251
300.786
301.301
301.796
302.273
302.733
303.177
303.606
304.021
304.423
304.813
305.192
305.56
305.92
306.27
306.613
306.948
307.276
307.597
307.912
308.221
308.525
308.822
309.114
309.399
309.679
309.953
310.222
310.484
310.74
310.991
311.236
311.474
311.707
311.935
312.156
312.371
312.581
312.784
312.981
313.171
313.355
313.532
313.702
313.865
314.021
314.171
314.314
314.45
314.58
314.704
314.822
314.935
315.043
315.146
315.243
315.337
315.425
315.509
315.588
315.663
315.734
315.8
315.862
315.919
315.973
316.023
316.07
316.114
316.154
316.192
316.228
316.261
316.292
316.321
316.349
316.374
316.398
316.42
316.439
316.457
316.473
316.487
316.5
316.51
316.52
316.528
316.535
316.541
316.546
316.55
316.554
316.558
316.561
316.564
316.566
316.568
316.569
316.57
316.57
316.569
316.567
316.565
316.562
316.558
316.553
316.548
316.543
316.537
316.531
316.525
316.518
316.512
316.505
316.498
316.491
316.484
316.477
316.47
316.463
316.455
316.448
316.441
316.434
316.427
316.42
316.413
316.406
316.399
316.392
316.385
316.377
316.37
316.363
316.356
316.349
316.342
316.335
316.328
316.321
316.314
316.307
316.3
316.293
316.286
316.279
316.273
316.266
316.259
316.252
316.245
316.238
316.231
316.224
316.218
316.211
316.204
316.197
316.19
316.184
316.177
316.17
316.163
316.157
316.15
316.144
316.137
316.13
316.124
316.117
316.111
316.104
316.098
316.091
316.085
316.079
316.072
316.066
316.059
316.054
316.047
316.041
316.034
316.03
316.021
316.018
316.007
)
;
        refGradient     nonuniform List<scalar> 
200
(
319.493
301.263
302.055
305.643
309.588
312.965
316.039
318.853
321.413
323.729
325.821
327.709
329.412
330.945
332.325
333.565
334.677
335.673
336.566
337.363
338.075
338.708
339.27
339.767
340.204
340.589
340.926
341.217
341.47
341.69
341.881
342.046
342.19
342.315
342.425
342.522
342.606
342.68
342.745
342.8
342.847
342.887
342.919
342.944
342.963
342.975
342.983
342.985
342.983
342.978
342.968
342.954
342.937
342.916
342.892
342.863
342.83
342.792
342.749
342.701
342.647
342.589
342.525
342.456
342.383
342.305
342.224
342.139
342.05
341.958
341.864
341.767
341.666
341.563
341.456
341.347
341.234
341.117
340.997
340.873
340.746
340.616
340.483
340.347
340.209
340.069
339.927
339.785
339.641
339.496
339.35
339.203
339.055
338.905
338.754
338.602
338.448
338.292
338.135
337.976
337.815
337.653
337.491
337.327
337.164
337
336.837
336.673
336.51
336.347
336.185
336.022
335.86
335.696
335.533
335.369
335.204
335.039
334.873
334.707
334.54
334.373
334.205
334.037
333.869
333.701
333.533
333.366
333.198
333.031
332.863
332.696
332.529
332.363
332.197
332.031
331.865
331.699
331.534
331.369
331.205
331.04
330.876
330.712
330.548
330.385
330.222
330.059
329.897
329.734
329.572
329.411
329.249
329.088
328.927
328.767
328.607
328.447
328.288
328.128
327.97
327.811
327.653
327.496
327.339
327.182
327.026
326.87
326.715
326.561
326.407
326.254
326.102
325.95
325.799
325.649
325.5
325.351
325.204
325.057
324.912
324.767
324.624
324.482
324.341
324.201
324.064
323.925
323.792
323.655
323.526
323.389
323.268
323.127
323.02
322.868
322.782
322.61
322.553
322.348
)
;
        valueFraction   uniform 0;
        value           nonuniform List<scalar> 
200
(
288.032
290.15
291.651
292.854
293.89
294.814
295.657
296.436
297.164
297.848
298.494
299.107
299.692
300.251
300.786
301.301
301.796
302.273
302.733
303.177
303.606
304.021
304.423
304.813
305.192
305.56
305.92
306.27
306.613
306.948
307.276
307.597
307.912
308.221
308.525
308.822
309.114
309.399
309.679
309.953
310.222
310.484
310.74
310.991
311.236
311.474
311.707
311.935
312.156
312.371
312.581
312.784
312.981
313.171
313.355
313.532
313.702
313.865
314.021
314.171
314.314
314.45
314.58
314.704
314.822
314.935
315.043
315.146
315.243
315.337
315.425
315.509
315.588
315.663
315.734
315.8
315.862
315.919
315.973
316.023
316.07
316.114
316.154
316.192
316.228
316.261
316.292
316.321
316.349
316.374
316.398
316.42
316.439
316.457
316.473
316.487
316.5
316.51
316.52
316.528
316.535
316.541
316.546
316.55
316.554
316.558
316.561
316.564
316.566
316.568
316.569
316.57
316.57
316.569
316.567
316.565
316.562
316.558
316.553
316.548
316.543
316.537
316.531
316.525
316.518
316.512
316.505
316.498
316.491
316.484
316.477
316.47
316.463
316.455
316.448
316.441
316.434
316.427
316.42
316.413
316.406
316.399
316.392
316.385
316.377
316.37
316.363
316.356
316.349
316.342
316.335
316.328
316.321
316.314
316.307
316.3
316.293
316.286
316.279
316.273
316.266
316.259
316.252
316.245
316.238
316.231
316.224
316.218
316.211
316.204
316.197
316.19
316.184
316.177
316.17
316.163
316.157
316.15
316.144
316.137
316.13
316.124
316.117
316.111
316.104
316.098
316.091
316.085
316.079
316.072
316.066
316.059
316.054
316.047
316.041
316.034
316.03
316.021
316.018
316.007
)
;
    }
    inlet
    {
        type            fixedValue;
        value           uniform 283.15;
    }
    outlet
    {
        type            inletOutlet;
        inletValue      uniform 283.15;