/*--------------------------------*- C++ -*----------------------------------*\
  =========                 |
  \\      /  F ield         | OpenFOAM: The Open Source CFD Toolbox
   \\    /   O peration     | Website:  https://openfoam.org
    \\  /    A nd           | Version:  7
     \\/     M anipulation  |
\*---------------------------------------------------------------------------*/
FoamFile
{
    version     2.0;
    format      ascii;
    class       volScalarField;
    location    "3.5";
    object      T;
}
// * * * * * * * * * * * * * * * * * * * * * * * * * * * * * * * * * * * * * //

dimensions      [0 0 0 1 0 0 0];

internalField   nonuniform List<scalar> 
5280
(
283.146
283.149
283.153
283.152
283.151
283.152
283.154
283.155
283.154
283.153
283.154
283.155
283.155
283.155
283.155
283.154
283.154
283.154
283.154
283.154
283.153
283.153
283.153
283.153
283.152
283.152
283.152
283.152
283.152
283.152
283.152
283.152
283.152
283.152
283.152
283.152
283.152
283.152
283.152
283.152
283.152
283.152
283.152
283.152
283.151
283.151
283.151
283.151
283.151
283.151
283.151
283.151
283.151
283.151
283.151
283.151
283.151
283.151
283.151
283.151
283.151
283.151
283.151
283.151
283.151
283.15
283.151
283.15
283.152
283.148
283.155
283.142
283.165
283.124
283.197
283.065
283.303
282.875
283.648
282.255
283.146
283.149
283.153
283.151
283.149
283.149
283.151
283.153
283.152
283.151
283.149
283.15
283.151
283.152
283.152
283.152
283.152
283.151
283.151
283.15
283.151
283.151
283.151
283.151
283.151
283.151
283.151
283.151
283.15
283.15
283.15
283.15
283.15
283.15
283.15
283.15
283.15
283.15
283.151
283.151
283.152
283.152
283.152
283.152
283.152
283.152
283.153
283.153
283.153
283.153
283.153
283.153
283.153
283.153
283.153
283.153
283.153
283.153
283.153
283.153
283.153
283.153
283.153
283.153
283.153
283.153
283.153
283.152
283.154
283.151
283.155
283.15
283.157
283.146
283.161
283.14
283.168
283.132
283.176
283.125
283.146
283.149
283.153
283.151
283.149
283.149
283.151
283.153
283.152
283.15
283.149
283.149
283.15
283.151
283.151
283.151
283.151
283.15
283.148
283.148
283.148
283.148
283.148
283.149
283.148
283.148
283.148
283.148
283.148
283.147
283.147
283.146
283.146
283.146
283.146
283.146
283.146
283.146
283.145
283.145
283.146
283.146
283.147
283.147
283.148
283.148
283.148
283.148
283.147
283.148
283.148
283.149
283.149
283.15
283.15
283.15
283.15
283.15
283.15
283.15
283.149
283.149
283.149
283.149
283.15
283.15
283.15
283.15
283.15
283.15
283.15
283.15
283.151
283.151
283.151
283.151
283.15
283.151
283.149
283.152
283.146
283.149
283.153
283.151
283.149
283.149
283.152
283.153
283.152
283.15
283.149
283.149
283.15
283.151
283.152
283.152
283.151
283.15
283.148
283.148
283.148
283.148
283.148
283.148
283.148
283.148
283.148
283.148
283.147
283.147
283.146
283.145
283.145
283.145
283.145
283.145
283.145
283.145
283.144
283.144
283.144
283.144
283.145
283.146
283.146
283.147
283.146
283.146
283.145
283.145
283.145
283.146
283.147
283.147
283.148
283.148
283.148
283.148
283.148
283.148
283.147
283.147
283.146
283.146
283.146
283.147
283.147
283.147
283.147
283.147
283.147
283.147
283.147
283.147
283.147
283.148
283.148
283.148
283.147
283.147
283.146
283.149
283.153
283.151
283.149
283.149
283.152
283.153
283.152
283.15
283.149
283.149
283.15
283.151
283.152
283.152
283.151
283.15
283.148
283.148
283.148
283.148
283.149
283.148
283.148
283.148
283.148
283.148
283.148
283.147
283.146
283.145
283.145
283.145
283.145
283.145
283.145
283.145
283.144
283.144
283.144
283.144
283.145
283.146
283.146
283.147
283.146
283.146
283.145
283.145
283.145
283.146
283.147
283.147
283.147
283.148
283.148
283.148
283.148
283.148
283.147
283.147
283.146
283.146
283.146
283.146
283.147
283.147
283.147
283.147
283.147
283.146
283.146
283.147
283.147
283.147
283.148
283.147
283.147
283.146
283.146
283.149
283.153
283.151
283.149
283.149
283.152
283.153
283.152
283.15
283.149
283.149
283.15
283.151
283.152
283.152
283.151
283.15
283.148
283.148
283.148
283.148
283.149
283.148
283.148
283.148
283.148
283.148
283.148
283.147
283.146
283.145
283.145
283.145
283.145
283.145
283.145
283.145
283.144
283.144
283.144
283.144
283.145
283.146
283.147
283.147
283.146
283.146
283.145
283.145
283.145
283.146
283.147
283.147
283.147
283.148
283.148
283.148
283.148
283.148
283.147
283.147
283.146
283.146
283.146
283.146
283.147
283.147
283.147
283.147
283.147
283.146
283.146
283.147
283.147
283.147
283.148
283.147
283.147
283.146
283.146
283.149
283.153
283.151
283.149
283.149
283.152
283.153
283.152
283.15
283.149
283.149
283.15
283.151
283.152
283.152
283.151
283.15
283.148
283.148
283.148
283.148
283.149
283.148
283.148
283.148
283.148
283.148
283.148
283.147
283.146
283.145
283.145
283.145
283.145
283.145
283.145
283.145
283.144
283.144
283.144
283.144
283.145
283.146
283.147
283.147
283.146
283.146
283.145
283.145
283.145
283.146
283.147
283.147
283.147
283.148
283.148
283.148
283.148
283.148
283.147
283.147
283.146
283.146
283.146
283.146
283.147
283.147
283.147
283.147
283.147
283.146
283.146
283.147
283.147
283.147
283.148
283.147
283.147
283.146
283.146
283.149
283.153
283.151
283.149
283.149
283.152
283.153
283.152
283.15
283.149
283.149
283.15
283.151
283.152
283.152
283.151
283.15
283.148
283.148
283.148
283.148
283.149
283.148
283.148
283.148
283.148
283.148
283.148
283.147
283.146
283.145
283.145
283.145
283.145
283.145
283.145
283.145
283.144
283.144
283.144
283.144
283.145
283.146
283.146
283.147
283.146
283.146
283.145
283.145
283.145
283.146
283.147
283.147
283.147
283.148
283.148
283.148
283.148
283.148
283.147
283.147
283.146
283.146
283.146
283.146
283.147
283.147
283.147
283.147
283.147
283.146
283.146
283.147
283.147
283.147
283.148
283.147
283.147
283.146
283.146
283.149
283.153
283.151
283.149
283.149
283.152
283.153
283.152
283.15
283.149
283.149
283.15
283.151
283.152
283.152
283.151
283.15
283.148
283.148
283.148
283.148
283.148
283.148
283.148
283.148
283.148
283.148
283.147
283.147
283.146
283.145
283.145
283.145
283.145
283.145
283.145
283.145
283.144
283.144
283.144
283.144
283.145
283.146
283.146
283.147
283.146
283.146
283.145
283.145
283.145
283.146
283.147
283.147
283.148
283.148
283.148
283.148
283.148
283.148
283.147
283.147
283.146
283.146
283.146
283.147
283.147
283.147
283.147
283.147
283.147
283.147
283.147
283.147
283.147
283.148
283.148
283.148
283.147
283.147
283.146
283.149
283.153
283.151
283.149
283.149
283.151
283.153
283.152
283.15
283.149
283.149
283.15
283.151
283.151
283.151
283.151
283.15
283.148
283.148
283.148
283.148
283.148
283.149
283.148
283.148
283.148
283.148
283.148
283.147
283.147
283.146
283.146
283.146
283.146
283.146
283.146
283.146
283.145
283.145
283.146
283.146
283.147
283.147
283.148
283.148
283.148
283.148
283.147
283.148
283.148
283.149
283.149
283.15
283.15
283.15
283.15
283.15
283.15
283.15
283.149
283.149
283.149
283.149
283.15
283.15
283.15
283.15
283.15
283.15
283.15
283.15
283.15
283.151
283.151
283.15
283.15
283.15
283.15
283.15
283.146
283.149
283.153
283.151
283.149
283.149
283.151
283.153
283.152
283.151
283.149
283.15
283.151
283.152
283.152
283.152
283.152
283.151
283.151
283.15
283.151
283.151
283.151
283.151
283.151
283.151
283.151
283.151
283.15
283.15
283.15
283.15
283.15
283.15
283.15
283.15
283.15
283.15
283.151
283.151
283.152
283.152
283.152
283.152
283.152
283.152
283.153
283.153
283.153
283.153
283.153
283.153
283.153
283.153
283.153
283.153
283.153
283.153
283.153
283.153
283.153
283.153
283.153
283.153
283.153
283.153
283.153
283.153
283.153
283.153
283.153
283.153
283.153
283.152
283.152
283.152
283.152
283.152
283.152
283.152
283.146
283.149
283.153
283.152
283.151
283.152
283.154
283.155
283.154
283.153
283.154
283.155
283.155
283.155
283.155
283.154
283.154
283.154
283.154
283.154
283.153
283.153
283.153
283.153
283.152
283.152
283.152
283.152
283.152
283.152
283.152
283.152
283.152
283.152
283.152
283.152
283.152
283.152
283.152
283.152
283.152
283.152
283.152
283.152
283.151
283.151
283.151
283.151
283.151
283.151
283.151
283.151
283.151
283.151
283.151
283.151
283.151
283.151
283.151
283.151
283.151
283.151
283.151
283.151
283.151
283.151
283.151
283.151
283.15
283.15
283.15
283.15
283.15
283.15
283.15
283.15
283.15
283.15
283.15
283.15
287.964
294.851
300.199
304.585
308.34
311.687
314.745
317.584
320.256
322.796
325.224
327.556
329.804
331.977
334.083
336.128
338.118
340.057
341.949
343.796
345.603
347.371
349.103
350.801
352.466
354.101
355.706
357.284
358.835
360.361
361.862
363.341
364.797
366.231
367.645
369.039
370.413
371.769
373.107
374.428
375.731
377.018
378.29
379.545
380.786
382.012
383.224
384.421
385.606
386.777
387.935
389.08
390.214
391.335
392.444
393.543
394.63
395.706
396.771
397.826
398.87
399.905
400.93
401.945
402.951
403.948
404.936
405.916
406.886
407.849
408.803
409.749
410.688
411.619
412.542
413.458
414.367
415.269
416.164
417.052
417.934
418.809
419.678
420.54
421.397
422.247
423.092
423.931
424.764
425.592
426.414
427.231
428.043
428.849
429.651
430.447
431.239
432.025
432.807
433.585
434.357
435.126
435.889
436.649
437.404
438.155
438.902
439.645
440.383
441.118
441.849
442.577
443.3
444.02
444.737
445.45
446.159
446.865
447.568
448.267
448.964
449.657
450.347
451.034
451.718
452.399
453.077
453.753
454.425
455.095
455.762
456.427
457.089
457.748
458.405
459.059
459.711
460.36
461.007
461.652
462.294
462.934
463.572
464.207
464.84
465.471
466.1
466.727
467.351
467.973
468.594
469.212
469.828
470.441
471.053
471.663
472.271
472.876
473.48
474.082
474.681
475.279
475.874
476.468
477.06
477.649
478.237
478.822
479.406
479.987
480.567
481.144
481.72
482.293
482.864
483.434
484.001
484.566
485.129
485.69
486.248
486.805
487.359
487.911
488.461
489.008
489.553
490.096
490.636
491.174
491.71
492.242
492.773
493.301
493.826
494.348
494.868
495.385
495.9
496.411
496.92
497.426
497.929
498.43
498.927
499.421
499.912
500.401
500.886
501.368
501.847
502.322
502.795
503.264
503.73
504.193
504.653
505.109
505.561
506.011
506.457
506.899
507.338
507.773
508.205
508.634
509.058
509.48
509.897
510.311
510.721
511.127
511.53
511.929
512.324
512.716
513.103
513.487
513.867
514.243
514.616
514.984
515.348
515.709
516.065
516.418
516.767
517.111
517.452
517.789
518.121
518.45
518.775
519.095
519.412
519.724
520.033
520.337
520.638
520.934
521.227
521.515
521.799
522.08
522.356
522.629
522.897
523.162
523.422
523.679
523.932
524.181
524.426
524.667
524.905
525.138
525.368
525.594
525.816
526.035
526.25
526.461
526.668
526.872
527.072
527.269
527.462
527.651
527.837
528.02
528.199
528.374
528.546
528.715
528.88
529.042
529.201
529.356
529.508
529.657
529.802
529.945
530.084
530.22
530.353
530.483
530.609
530.733
530.854
530.971
531.086
531.198
531.307
531.413
531.517
531.617
531.715
531.81
531.903
531.993
532.08
532.165
532.247
532.326
532.403
532.478
532.55
532.62
532.687
532.752
532.815
532.875
532.933
532.989
533.042
533.093
533.142
533.189
533.234
533.276
533.316
533.355
533.391
533.425
533.457
533.487
533.516
533.541
533.567
533.588
533.61
533.627
533.646
533.659
533.675
533.684
533.696
533.703
533.706
533.718
283.225
284.181
285.717
287.571
289.562
291.583
293.582
295.538
297.444
299.302
301.115
302.886
304.616
306.309
307.966
309.592
311.186
312.751
314.289
315.8
317.285
318.747
320.186
321.603
322.999
324.375
325.731
327.069
328.389
329.692
330.978
332.247
333.502
334.741
335.966
337.176
338.372
339.556
340.726
341.883
343.028
344.161
345.282
346.391
347.49
348.578
349.654
350.721
351.777
352.824
353.86
354.887
355.905
356.914
357.913
358.904
359.886
360.86
361.825
362.782
363.732
364.673
365.607
366.533
367.452
368.364
369.269
370.166
371.057
371.942
372.819
373.691
374.556
375.415
376.268
377.115
377.957
378.793
379.623
380.448
381.268
382.082
382.892
383.696
384.496
385.29
386.08
386.865
387.646
388.422
389.194
389.961
390.724
391.483
392.238
392.989
393.735
394.478
395.217
395.952
396.683
397.41
398.134
398.854
399.571
400.284
400.994
401.7
402.403
403.103
403.799
404.492
405.183
405.87
406.554
407.235
407.913
408.588
409.26
409.93
410.596
411.26
411.922
412.58
413.236
413.89
414.541
415.19
415.836
416.48
417.121
417.76
418.397
419.031
419.663
420.293
420.921
421.547
422.171
422.792
423.412
424.029
424.644
425.258
425.869
426.479
427.086
427.692
428.296
428.898
429.498
430.096
430.692
431.287
431.88
432.471
433.06
433.647
434.233
434.817
435.399
435.979
436.558
437.135
437.71
438.283
438.855
439.425
439.993
440.559
441.124
441.686
442.248
442.807
443.364
443.92
444.474
445.026
445.577
446.125
446.672
447.217
447.76
448.301
448.84
449.378
449.913
450.446
450.978
451.507
452.034
452.56
453.083
453.604
454.122
454.639
455.153
455.665
456.175
456.682
457.187
457.69
458.19
458.688
459.183
459.676
460.166
460.654
461.139
461.621
462.101
462.578
463.052
463.524
463.992
464.458
464.922
465.382
465.84
466.294
466.746
467.195
467.64
468.083
468.523
468.959
469.393
469.823
470.25
470.675
471.095
471.513
471.927
472.338
472.746
473.151
473.552
473.949
474.344
474.735
475.122
475.506
475.887
476.264
476.637
477.007
477.374
477.737
478.096
478.452
478.804
479.153
479.498
479.839
480.177
480.511
480.841
481.168
481.491
481.81
482.126
482.438
482.746
483.051
483.352
483.649
483.942
484.232
484.518
484.801
485.079
485.355
485.626
485.894
486.158
486.419
486.676
486.929
487.179
487.426
487.668
487.908
488.143
488.376
488.605
488.83
489.052
489.271
489.486
489.698
489.907
490.112
490.314
490.513
490.708
490.901
491.09
491.275
491.458
491.637
491.814
491.987
492.157
492.324
492.488
492.648
492.806
492.961
493.113
493.262
493.408
493.551
493.691
493.829
493.963
494.095
494.224
494.35
494.474
494.595
494.713
494.829
494.943
495.053
495.161
495.267
495.37
495.471
495.57
495.666
495.759
495.851
495.94
496.026
496.111
496.193
496.273
496.35
496.426
496.499
496.57
496.639
496.706
496.771
496.834
496.894
496.953
497.009
497.064
497.117
497.168
497.216
497.263
497.309
497.35
497.395
497.428
497.477
497.493
497.558
283.143
283.161
283.269
283.501
283.867
284.358
284.955
285.642
286.401
287.22
288.084
288.985
289.913
290.863
291.828
292.804
293.789
294.779
295.773
296.768
297.763
298.758
299.751
300.741
301.729
302.713
303.693
304.67
305.642
306.609
307.571
308.529
309.482
310.429
311.371
312.308
313.24
314.166
315.086
316.001
316.911
317.815
318.713
319.606
320.493
321.375
322.251
323.122
323.987
324.848
325.703
326.552
327.397
328.236
329.071
329.9
330.725
331.544
332.359
333.169
333.974
334.775
335.57
336.361
337.148
337.93
338.707
339.481
340.249
341.014
341.774
342.531
343.283
344.031
344.775
345.516
346.252
346.985
347.714
348.44
349.162
349.881
350.596
351.308
352.017
352.723
353.425
354.124
354.82
355.513
356.204
356.891
357.575
358.257
358.935
359.611
360.284
360.954
361.622
362.287
362.95
363.609
364.267
364.921
365.573
366.223
366.87
367.515
368.158
368.798
369.435
370.071
370.704
371.335
371.963
372.59
373.214
373.836
374.456
375.074
375.69
376.303
376.915
377.525
378.133
378.739
379.343
379.945
380.545
381.143
381.74
382.334
382.927
383.518
384.108
384.695
385.281
385.866
386.448
387.029
387.608
388.186
388.762
389.336
389.909
390.48
391.05
391.618
392.185
392.751
393.315
393.877
394.438
394.998
395.556
396.113
396.669
397.223
397.775
398.327
398.877
399.426
399.973
400.519
401.064
401.607
402.149
402.689
403.228
403.766
404.302
404.837
405.37
405.902
406.433
406.962
407.49
408.017
408.542
409.066
409.588
410.109
410.629
411.147
411.664
412.179
412.693
413.205
413.716
414.226
414.734
415.24
415.745
416.248
416.75
417.25
417.749
418.245
418.74
419.234
419.725
420.215
420.703
421.189
421.673
422.155
422.635
423.114
423.59
424.064
424.537
425.007
425.475
425.941
426.405
426.867
427.327
427.785
428.24
428.694
429.145
429.594
430.04
430.485
430.927
431.366
431.804
432.239
432.671
433.101
433.528
433.953
434.376
434.796
435.213
435.627
436.039
436.448
436.854
437.258
437.658
438.056
438.451
438.843
439.233
439.619
440.002
440.383
440.76
441.135
441.507
441.875
442.241
442.603
442.963
443.319
443.673
444.023
444.37
444.714
445.055
445.393
445.727
446.059
446.387
446.712
447.034
447.352
447.667
447.979
448.288
448.593
448.896
449.194
449.49
449.782
450.071
450.357
450.639
450.918
451.194
451.466
451.736
452.002
452.265
452.525
452.781
453.035
453.285
453.532
453.776
454.017
454.255
454.49
454.722
454.951
455.177
455.399
455.619
455.836
456.05
456.26
456.468
456.673
456.875
457.074
457.269
457.462
457.653
457.84
458.024
458.205
458.384
458.56
458.732
458.903
459.07
459.234
459.396
459.555
459.712
459.866
460.017
460.166
460.312
460.456
460.597
460.736
460.872
461.006
461.138
461.267
461.393
461.518
461.64
461.76
461.878
461.993
462.106
462.217
462.325
462.432
462.536
462.638
462.738
462.836
462.931
463.025
463.115
463.205
463.291
463.378
463.458
463.544
463.615
463.704
463.761
463.861
463.892
464.02
283.147
283.146
283.145
283.15
283.167
283.204
283.265
283.354
283.475
283.628
283.816
284.038
284.293
284.578
284.893
285.236
285.604
285.997
286.411
286.845
287.298
287.767
288.251
288.749
289.259
289.78
290.311
290.852
291.401
291.957
292.52
293.089
293.664
294.243
294.827
295.415
296.006
296.601
297.198
297.797
298.398
299.001
299.606
300.211
300.817
301.424
302.032
302.64
303.247
303.855
304.463
305.071
305.678
306.285
306.892
307.498
308.104
308.709
309.313
309.916
310.519
311.121
311.722
312.322
312.921
313.519
314.115
314.711
315.305
315.898
316.49
317.081
317.67
318.258
318.845
319.43
320.014
320.597
321.178
321.758
322.336
322.914
323.49
324.065
324.638
325.211
325.782
326.352
326.921
327.488
328.055
328.62
329.184
329.747
330.309
330.869
331.429
331.987
332.545
333.101
333.656
334.209
334.762
335.313
335.864
336.413
336.961
337.508
338.053
338.598
339.141
339.683
340.224
340.764
341.302
341.84
342.376
342.911
343.445
343.978
344.51
345.041
345.571
346.1
346.627
347.154
347.68
348.204
348.728
349.25
349.772
350.292
350.812
351.33
351.848
352.364
352.879
353.394
353.907
354.419
354.93
355.44
355.949
356.457
356.964
357.47
357.975
358.479
358.982
359.484
359.986
360.486
360.985
361.484
361.982
362.479
362.975
363.47
363.964
364.458
364.951
365.443
365.934
366.424
366.914
367.403
367.89
368.377
368.863
369.348
369.833
370.316
370.798
371.28
371.76
372.239
372.718
373.195
373.672
374.148
374.622
375.096
375.569
376.041
376.512
376.982
377.452
377.92
378.388
378.854
379.32
379.785
380.249
380.712
381.175
381.636
382.096
382.555
383.014
383.471
383.927
384.382
384.836
385.288
385.74
386.19
386.639
387.086
387.533
387.978
388.421
388.864
389.305
389.744
390.182
390.619
391.055
391.489
391.921
392.352
392.782
393.211
393.638
394.063
394.487
394.91
395.331
395.75
396.168
396.585
397
397.413
397.824
398.234
398.642
399.048
399.452
399.855
400.255
400.654
401.05
401.445
401.837
402.228
402.616
403.002
403.386
403.768
404.147
404.524
404.9
405.272
405.643
406.012
406.378
406.742
407.103
407.463
407.82
408.174
408.527
408.877
409.225
409.57
409.913
410.253
410.591
410.927
411.259
411.59
411.917
412.242
412.565
412.885
413.202
413.516
413.827
414.136
414.442
414.745
415.046
415.343
415.638
415.93
416.22
416.506
416.79
417.071
417.349
417.625
417.898
418.168
418.436
418.701
418.963
419.223
419.48
419.734
419.986
420.236
420.482
420.726
420.968
421.207
421.443
421.676
421.907
422.136
422.361
422.584
422.804
423.022
423.236
423.449
423.658
423.865
424.069
424.27
424.469
424.665
424.859
425.05
425.238
425.424
425.607
425.788
425.967
426.143
426.317
426.488
426.657
426.824
426.988
427.15
427.31
427.468
427.624
427.777
427.928
428.077
428.224
428.369
428.512
428.652
428.79
428.927
429.06
429.193
429.321
429.45
429.572
429.7
429.814
429.943
430.045
430.181
430.263
430.417
430.462
430.657
283.146
283.146
283.145
283.144
283.144
283.143
283.144
283.145
283.149
283.156
283.168
283.185
283.21
283.242
283.283
283.333
283.392
283.461
283.542
283.633
283.735
283.849
283.974
284.109
284.256
284.413
284.581
284.76
284.949
285.148
285.357
285.576
285.803
286.04
286.285
286.538
286.8
287.069
287.346
287.63
287.92
288.217
288.52
288.829
289.143
289.462
289.787
290.116
290.449
290.786
291.127
291.471
291.819
292.17
292.524
292.881
293.242
293.605
293.97
294.338
294.709
295.082
295.457
295.834
296.213
296.594
296.977
297.362
297.748
298.136
298.525
298.915
299.307
299.7
300.094
300.489
300.885
301.281
301.679
302.077
302.476
302.875
303.275
303.676
304.077
304.479
304.881
305.284
305.687
306.091
306.495
306.9
307.305
307.711
308.117
308.524
308.931
309.338
309.746
310.154
310.563
310.972
311.381
311.79
312.2
312.609
313.019
313.429
313.839
314.248
314.658
315.068
315.477
315.887
316.296
316.705
317.114
317.524
317.933
318.341
318.75
319.159
319.567
319.976
320.384
320.792
321.201
321.609
322.017
322.425
322.833
323.241
323.649
324.057
324.464
324.872
325.279
325.685
326.092
326.498
326.904
327.309
327.714
328.119
328.523
328.927
329.331
329.734
330.136
330.538
330.94
331.342
331.743
332.143
332.544
332.944
333.344
333.744
334.143
334.543
334.942
335.341
335.739
336.138
336.536
336.934
337.332
337.73
338.127
338.524
338.921
339.317
339.713
340.108
340.503
340.897
341.291
341.685
342.077
342.47
342.862
343.253
343.644
344.034
344.424
344.813
345.202
345.591
345.979
346.367
346.755
347.143
347.53
347.917
348.304
348.69
349.076
349.462
349.848
350.233
350.618
351.002
351.386
351.77
352.153
352.536
352.917
353.299
353.679
354.059
354.438
354.817
355.195
355.572
355.948
356.324
356.698
357.072
357.446
357.818
358.19
358.562
358.933
359.303
359.672
360.041
360.409
360.777
361.144
361.51
361.876
362.241
362.606
362.969
363.332
363.694
364.055
364.416
364.775
365.133
365.491
365.847
366.202
366.555
366.908
367.259
367.609
367.958
368.305
368.651
368.996
369.339
369.681
370.021
370.361
370.698
371.035
371.37
371.704
372.036
372.368
372.697
373.026
373.353
373.679
374.003
374.326
374.647
374.967
375.286
375.603
375.918
376.231
376.543
376.853
377.162
377.468
377.772
378.075
378.375
378.674
378.97
379.265
379.557
379.848
380.136
380.422
380.706
380.988
381.268
381.546
381.822
382.096
382.368
382.639
382.907
383.173
383.438
383.7
383.961
384.22
384.477
384.731
384.985
385.236
385.485
385.732
385.977
386.22
386.462
386.701
386.937
387.172
387.405
387.635
387.863
388.089
388.312
388.533
388.752
388.969
389.183
389.395
389.605
389.812
390.017
390.22
390.421
390.62
390.817
391.011
391.204
391.394
391.583
391.77
391.954
392.137
392.318
392.498
392.675
392.85
393.024
393.195
393.366
393.533
393.7
393.863
394.027
394.185
394.347
394.498
394.66
394.802
394.967
395.095
395.27
395.372
395.573
395.63
395.883
283.146
283.146
283.146
283.145
283.144
283.144
283.143
283.142
283.14
283.139
283.137
283.137
283.137
283.137
283.139
283.14
283.142
283.146
283.15
283.156
283.164
283.173
283.184
283.196
283.211
283.228
283.247
283.27
283.295
283.323
283.355
283.391
283.429
283.472
283.518
283.568
283.622
283.68
283.743
283.81
283.882
283.958
284.039
284.123
284.212
284.305
284.403
284.504
284.61
284.72
284.834
284.951
285.072
285.196
285.323
285.454
285.589
285.727
285.869
286.014
286.162
286.313
286.468
286.625
286.786
286.949
287.116
287.286
287.459
287.634
287.813
287.993
288.177
288.362
288.55
288.741
288.934
289.129
289.326
289.525
289.725
289.927
290.131
290.336
290.543
290.751
290.961
291.172
291.385
291.598
291.814
292.03
292.248
292.467
292.687
292.909
293.133
293.358
293.584
293.812
294.041
294.271
294.502
294.734
294.968
295.203
295.438
295.675
295.913
296.151
296.39
296.63
296.87
297.111
297.352
297.594
297.837
298.08
298.323
298.567
298.812
299.057
299.302
299.549
299.795
300.043
300.291
300.54
300.789
301.04
301.29
301.542
301.794
302.047
302.3
302.554
302.808
303.063
303.318
303.574
303.83
304.086
304.342
304.599
304.855
305.112
305.368
305.625
305.882
306.139
306.396
306.653
306.91
307.167
307.424
307.682
307.94
308.198
308.456
308.715
308.974
309.233
309.493
309.753
310.014
310.275
310.536
310.798
311.06
311.322
311.584
311.847
312.11
312.372
312.635
312.898
313.16
313.423
313.685
313.948
314.21
314.472
314.734
314.996
315.258
315.52
315.782
316.044
316.306
316.568
316.83
317.093
317.356
317.619
317.882
318.146
318.41
318.674
318.939
319.204
319.469
319.735
320.001
320.267
320.533
320.8
321.066
321.333
321.599
321.865
322.131
322.397
322.663
322.929
323.194
323.459
323.724
323.989
324.254
324.519
324.783
325.048
325.312
325.577
325.841
326.106
326.371
326.636
326.901
327.166
327.432
327.697
327.963
328.229
328.496
328.762
329.028
329.295
329.561
329.828
330.094
330.36
330.626
330.891
331.157
331.421
331.686
331.95
332.213
332.476
332.739
333.001
333.263
333.524
333.785
334.045
334.305
334.564
334.823
335.082
335.34
335.598
335.856
336.114
336.371
336.628
336.885
337.142
337.398
337.653
337.909
338.164
338.418
338.672
338.925
339.178
339.43
339.681
339.932
340.181
340.43
340.677
340.924
341.169
341.413
341.657
341.899
342.14
342.38
342.619
342.857
343.094
343.33
343.565
343.799
344.032
344.264
344.495
344.726
344.955
345.184
345.411
345.638
345.864
346.089
346.313
346.536
346.759
346.98
347.2
347.419
347.637
347.854
348.069
348.283
348.496
348.707
348.917
349.125
349.332
349.537
349.741
349.943
350.143
350.342
350.539
350.735
350.929
351.122
351.313
351.502
351.69
351.877
352.063
352.247
352.43
352.611
352.792
352.971
353.149
353.325
353.501
353.675
353.849
354.02
354.192
354.359
354.53
354.693
354.863
355.021
355.192
355.34
355.517
355.65
355.84
355.947
356.165
356.225
356.499
283.146
283.146
283.146
283.145
283.144
283.144
283.143
283.142
283.141
283.139
283.138
283.137
283.136
283.136
283.137
283.137
283.137
283.137
283.137
283.137
283.138
283.139
283.139
283.14
283.14
283.14
283.14
283.14
283.141
283.141
283.142
283.144
283.146
283.148
283.15
283.153
283.156
283.161
283.166
283.172
283.18
283.189
283.198
283.209
283.221
283.234
283.248
283.263
283.28
283.299
283.318
283.338
283.359
283.382
283.405
283.43
283.457
283.485
283.514
283.545
283.578
283.612
283.647
283.684
283.723
283.764
283.806
283.851
283.897
283.945
283.995
284.047
284.1
284.155
284.212
284.27
284.33
284.392
284.455
284.52
284.586
284.653
284.721
284.791
284.861
284.933
285.007
285.081
285.157
285.234
285.312
285.392
285.472
285.554
285.637
285.722
285.808
285.896
285.985
286.076
286.168
286.261
286.356
286.452
286.549
286.648
286.747
286.848
286.95
287.053
287.157
287.261
287.367
287.473
287.58
287.687
287.796
287.905
288.015
288.126
288.238
288.351
288.464
288.578
288.693
288.81
288.927
289.045
289.165
289.285
289.406
289.529
289.652
289.776
289.901
290.027
290.153
290.281
290.409
290.538
290.668
290.798
290.929
291.06
291.191
291.323
291.456
291.589
291.722
291.856
291.99
292.125
292.26
292.396
292.532
292.669
292.807
292.945
293.084
293.224
293.364
293.505
293.647
293.79
293.933
294.077
294.222
294.367
294.513
294.66
294.807
294.955
295.103
295.251
295.4
295.549
295.698
295.848
295.998
296.148
296.298
296.449
296.6
296.751
296.903
297.055
297.207
297.36
297.513
297.667
297.821
297.976
298.131
298.287
298.444
298.602
298.76
298.918
299.077
299.237
299.397
299.558
299.72
299.882
300.044
300.206
300.369
300.532
300.696
300.859
301.023
301.187
301.351
301.515
301.68
301.844
302.009
302.174
302.339
302.505
302.67
302.836
303.003
303.17
303.337
303.505
303.673
303.842
304.011
304.181
304.351
304.522
304.693
304.865
305.037
305.209
305.382
305.556
305.729
305.903
306.077
306.251
306.425
306.6
306.774
306.949
307.123
307.298
307.473
307.647
307.822
307.997
308.171
308.346
308.521
308.696
308.871
309.046
309.222
309.397
309.573
309.749
309.926
310.102
310.279
310.456
310.633
310.81
310.988
311.166
311.343
311.521
311.699
311.877
312.054
312.232
312.409
312.587
312.763
312.94
313.116
313.292
313.468
313.643
313.818
313.992
314.166
314.34
314.513
314.686
314.858
315.03
315.202
315.373
315.545
315.716
315.887
316.057
316.227
316.397
316.567
316.737
316.906
317.075
317.244
317.412
317.58
317.748
317.915
318.082
318.248
318.414
318.579
318.743
318.907
319.07
319.232
319.393
319.554
319.713
319.872
320.03
320.186
320.342
320.498
320.652
320.805
320.958
321.109
321.26
321.41
321.559
321.708
321.856
322.003
322.149
322.295
322.44
322.585
322.729
322.872
323.014
323.156
323.297
323.437
323.577
323.714
323.854
323.988
324.128
324.257
324.399
324.521
324.667
324.778
324.935
325.024
325.206
325.256
325.485
283.146
283.146
283.146
283.145
283.144
283.144
283.143
283.142
283.141
283.139
283.138
283.138
283.137
283.137
283.138
283.138
283.138
283.138
283.139
283.139
283.14
283.141
283.141
283.141
283.141
283.14
283.14
283.139
283.139
283.139
283.138
283.138
283.137
283.137
283.136
283.136
283.136
283.136
283.137
283.138
283.139
283.14
283.142
283.143
283.145
283.148
283.15
283.153
283.156
283.159
283.162
283.165
283.168
283.172
283.176
283.18
283.185
283.19
283.195
283.201
283.208
283.215
283.223
283.231
283.24
283.25
283.26
283.272
283.284
283.296
283.31
283.324
283.339
283.355
283.371
283.388
283.406
283.424
283.444
283.463
283.483
283.504
283.526
283.548
283.571
283.594
283.619
283.644
283.67
283.696
283.724
283.752
283.781
283.812
283.843
283.875
283.908
283.942
283.977
284.013
284.05
284.088
284.127
284.167
284.207
284.249
284.291
284.334
284.377
284.422
284.467
284.512
284.559
284.606
284.653
284.702
284.751
284.801
284.852
284.903
284.955
285.008
285.062
285.116
285.172
285.228
285.285
285.343
285.402
285.462
285.522
285.583
285.645
285.708
285.772
285.836
285.901
285.966
286.033
286.099
286.166
286.234
286.303
286.371
286.441
286.511
286.581
286.652
286.724
286.796
286.869
286.942
287.016
287.091
287.166
287.242
287.319
287.396
287.474
287.553
287.633
287.713
287.794
287.876
287.958
288.041
288.125
288.209
288.294
288.379
288.464
288.551
288.637
288.724
288.812
288.9
288.988
289.077
289.166
289.255
289.345
289.436
289.527
289.618
289.71
289.802
289.895
289.989
290.083
290.177
290.273
290.368
290.465
290.562
290.66
290.758
290.856
290.956
291.055
291.156
291.256
291.358
291.459
291.561
291.663
291.766
291.869
291.972
292.076
292.18
292.284
292.389
292.493
292.598
292.704
292.81
292.916
293.022
293.129
293.237
293.344
293.453
293.561
293.67
293.78
293.89
294.001
294.112
294.224
294.336
294.448
294.561
294.675
294.789
294.903
295.017
295.132