/*--------------------------------*- C++ -*----------------------------------*\
  =========                 |
  \\      /  F ield         | OpenFOAM: The Open Source CFD Toolbox
   \\    /   O peration     | Website:  https://openfoam.org
    \\  /    A nd           | Version:  7
     \\/     M anipulation  |
\*---------------------------------------------------------------------------*/
FoamFile
{
    version     2.0;
    format      ascii;
    class       volVectorField;
    location    "0.2675";
    object      U;
}
// * * * * * * * * * * * * * * * * * * * * * * * * * * * * * * * * * * * * * //

dimensions      [0 1 -1 0 0 0 0];

internalField   nonuniform List<vector> 
13200
(
(1.94399 0.0370778 -32.248)
(1.07805 -0.368995 -32.2991)
(0.612052 -0.417843 -32.2946)
(0.583693 -0.428946 -32.2938)
(0.458479 -0.434132 -32.2872)
(0.486322 -0.435851 -32.2891)
(0.405897 -0.437664 -32.2859)
(0.444056 -0.436929 -32.2885)
(0.389976 -0.43722 -32.2869)
(0.431512 -0.436423 -32.2901)
(0.390016 -0.437077 -32.2898)
(0.42588 -0.436574 -32.2927)
(0.389887 -0.437055 -32.2925)
(0.420194 -0.436645 -32.2943)
(0.388548 -0.436978 -32.294)
(0.415607 -0.436951 -32.2947)
(0.386046 -0.435743 -32.2951)
(0.411992 -0.438615 -32.2943)
(0.381083 -0.414303 -32.2971)
(0.337487 -0.424162 -32.2903)
(3.65785 0.929004 -32.3725)
(2.85775 0.570714 -32.4286)
(1.9793 0.476246 -32.4172)
(1.85829 0.437492 -32.4052)
(1.55339 0.43113 -32.3863)
(1.59334 0.42908 -32.3853)
(1.40533 0.426076 -32.3785)
(1.4898 0.423946 -32.3821)
(1.37022 0.421132 -32.38)
(1.4649 0.42068 -32.3867)
(1.37197 0.420214 -32.389)
(1.45214 0.42081 -32.3962)
(1.37057 0.420543 -32.3989)
(1.43825 0.421055 -32.4029)
(1.36608 0.420556 -32.4047)
(1.42777 0.421514 -32.405)
(1.35833 0.419342 -32.4081)
(1.42722 0.423552 -32.4034)
(1.34208 0.409434 -32.4144)
(1.53317 0.411514 -32.3836)
(4.53501 0.489542 -32.3965)
(4.52011 -0.0486136 -32.4435)
(3.81638 -0.217922 -32.4225)
(3.65971 -0.323151 -32.3952)
(3.25351 -0.361723 -32.3533)
(3.24902 -0.38015 -32.3416)
(2.99875 -0.393923 -32.3269)
(3.08244 -0.402665 -32.3291)
(2.93855 -0.407229 -32.3235)
(3.04989 -0.408393 -32.332)
(2.94215 -0.408724 -32.3368)
(3.03649 -0.408068 -32.3512)
(2.9409 -0.408153 -32.3598)
(3.02089 -0.407625 -32.3701)
(2.93576 -0.408342 -32.3763)
(3.00963 -0.407422 -32.3781)
(2.92806 -0.408509 -32.3855)
(3.00151 -0.407771 -32.3767)
(2.91339 -0.404059 -32.3969)
(2.93623 -0.417152 -32.3508)
(4.81413 0.873291 -32.4118)
(5.23962 0.654479 -32.4525)
(4.95183 0.580177 -32.4324)
(4.96527 0.498078 -32.3996)
(4.66307 0.464201 -32.343)
(4.67266 0.441386 -32.3154)
(4.44443 0.422716 -32.2937)
(4.50494 0.408453 -32.2915)
(4.36763 0.399708 -32.2821)
(4.45975 0.395704 -32.2851)
(4.36344 0.395962 -32.2882)
(4.44728 0.396537 -32.3046)
(4.36329 0.396918 -32.3209)
(4.43554 0.397346 -32.3387)
(4.35951 0.396421 -32.3535)
(4.43026 0.398208 -32.3595)
(4.34975 0.394771 -32.3713)
(4.44546 0.401519 -32.3639)
(4.31204 0.393421 -32.3828)
(4.53867 0.405089 -32.3416)
(4.86813 0.340402 -32.4121)
(5.43789 -0.0408512 -32.4484)
(5.41767 -0.147362 -32.4283)
(5.58772 -0.246703 -32.3964)
(5.42382 -0.289108 -32.3335)
(5.50013 -0.316558 -32.2963)
(5.33161 -0.342728 -32.2685)
(5.39099 -0.365555 -32.2644)
(5.26398 -0.380835 -32.2529)
(5.33747 -0.386512 -32.2507)
(5.24798 -0.387458 -32.2478)
(5.31974 -0.386719 -32.2613)
(5.24559 -0.386605 -32.2795)
(5.30907 -0.385731 -32.3036)
(5.24436 -0.387726 -32.3248)
(5.30241 -0.384679 -32.3386)
(5.24464 -0.391197 -32.3519)
(5.29742 -0.379827 -32.3521)
(5.23882 -0.3979 -32.3636)
(5.27227 -0.395793 -32.3353)
(4.85422 0.622983 -32.4187)
(5.39735 0.538035 -32.4548)
(5.50041 0.526053 -32.4355)
(5.765 0.472492 -32.4047)
(5.70171 0.450875 -32.3405)
(5.85035 0.433345 -32.299)
(5.74894 0.415294 -32.2681)
(5.83628 0.398433 -32.2634)
(5.73083 0.387701 -32.2521)
(5.79937 0.381469 -32.2473)
(5.71402 0.380113 -32.2394)
(5.77875 0.380372 -32.2487)
(5.71005 0.380488 -32.2655)
(5.76818 0.381019 -32.2927)
(5.70976 0.379435 -32.3176)
(5.7625 0.381375 -32.3378)
(5.70936 0.377403 -32.3523)
(5.76416 0.384064 -32.3587)
(5.70615 0.376746 -32.3659)
(5.79238 0.404681 -32.3444)
(4.84167 0.146882 -32.419)
(5.34005 -0.128031 -32.4527)
(5.48173 -0.193254 -32.4325)
(5.77974 -0.261185 -32.401)
(5.76159 -0.288485 -32.3361)
(5.95288 -0.305772 -32.2931)
(5.89658 -0.324772 -32.2612)
(6.01217 -0.34428 -32.2563)
(5.92727 -0.360522 -32.2454)
(6.00106 -0.369283 -32.2395)
(5.9215 -0.371635 -32.229)
(5.98439 -0.371322 -32.2353)
(5.9204 -0.371615 -32.2504)
(5.97602 -0.370689 -32.2787)
(5.92484 -0.373288 -32.3051)
(5.96912 -0.369858 -32.3291)
(5.93322 -0.377878 -32.3445)
(5.95422 -0.363108 -32.3546)
(5.94993 -0.386359 -32.3599)
(5.91271 -0.382424 -32.3419)
(4.83008 0.404345 -32.4238)
(5.28408 0.416199 -32.4573)
(5.43844 0.433172 -32.4365)
(5.74675 0.410389 -32.404)
(5.7445 0.402795 -32.3387)
(5.95536 0.395803 -32.2956)
(5.9235 0.387833 -32.2638)
(6.06012 0.379324 -32.2592)
(5.99177 0.373833 -32.2485)
(6.07251 0.371171 -32.2423)
(5.99796 0.370276 -32.2306)
(6.06232 0.370292 -32.2356)
(6.00283 0.370165 -32.2496)
(6.05892 0.370348 -32.2782)
(6.01222 0.369179 -32.3051)
(6.05513 0.369759 -32.3309)
(6.02149 0.367965 -32.3469)
(6.04496 0.368942 -32.3585)
(6.04034 0.369337 -32.3636)
(6.03266 0.395406 -32.3461)
(4.82319 -0.0335684 -32.4252)
(5.25205 -0.218413 -32.4571)
(5.4103 -0.264103 -32.4353)
(5.71879 -0.302074 -32.4015)
(5.71938 -0.317167 -32.3357)
(5.93594 -0.325549 -32.2929)
(5.91333 -0.334983 -32.2613)
(6.06008 -0.345334 -32.2567)
(6.00027 -0.355301 -32.246)
(6.08669 -0.36161 -32.2396)
(6.01687 -0.363871 -32.2275)
(6.08376 -0.363675 -32.2321)
(6.02834 -0.364088 -32.2456)
(6.08558 -0.363339 -32.2743)
(6.0435 -0.365389 -32.3013)
(6.08372 -0.362717 -32.3277)
(6.05831 -0.368606 -32.344)
(6.06724 -0.356801 -32.3561)
(6.08397 -0.375213 -32.3613)
(6.02757 -0.380065 -32.344)
(4.81948 0.21286 -32.4284)
(5.2346 0.312077 -32.4595)
(5.39488 0.344633 -32.4373)
(5.70381 0.352117 -32.4027)
(5.70481 0.355988 -32.3367)
(5.92292 0.356932 -32.294)
(5.90348 0.357917 -32.2625)
(6.05449 0.358945 -32.258)
(5.99843 0.361182 -32.2472)
(6.08721 0.363189 -32.2407)
(6.01919 0.364134 -32.2284)
(6.08756 0.364046 -32.233)
(6.03428 0.364238 -32.2464)
(6.09271 0.363816 -32.2751)
(6.05237 0.364373 -32.3022)
(6.09294 0.363093 -32.3287)
(6.06774 0.365233 -32.3451)
(6.07883 0.359519 -32.3573)
(6.0937 0.369381 -32.3628)
(6.04989 0.38615 -32.345)
(4.81948 -0.21286 -32.4284)
(5.2346 -0.312076 -32.4595)
(5.39488 -0.344631 -32.4373)
(5.70381 -0.352116 -32.4027)
(5.70481 -0.355987 -32.3367)
(5.92292 -0.356932 -32.294)
(5.90349 -0.357919 -32.2625)
(6.05449 -0.358944 -32.258)
(5.99843 -0.361185 -32.2472)
(6.0872 -0.363182 -32.2407)
(6.0192 -0.364139 -32.2284)
(6.08755 -0.364026 -32.233)
(6.03431 -0.364242 -32.2464)
(6.09269 -0.363762 -32.2752)
(6.05248 -0.36436 -32.3021)
(6.09289 -0.362921 -32.3287)
(6.06792 -0.365188 -32.3451)
(6.07877 -0.358943 -32.3573)
(6.09377 -0.369106 -32.3628)
(6.04998 -0.384816 -32.3449)
(4.82319 0.0335684 -32.4252)
(5.25205 0.218415 -32.4571)
(5.4103 0.264106 -32.4353)
(5.71879 0.302076 -32.4015)
(5.71938 0.317167 -32.3357)
(5.93594 0.325548 -32.2929)
(5.91333 0.334981 -32.2613)
(6.06008 0.345334 -32.2568)
(6.00027 0.355299 -32.246)
(6.0867 0.361615 -32.2397)
(6.01686 0.363868 -32.2274)
(6.08376 0.363687 -32.2322)
(6.02831 0.364086 -32.2456)
(6.0856 0.363372 -32.2744)
(6.04342 0.365405 -32.3013)
(6.08377 0.362833 -32.3278)
(6.05821 0.368654 -32.344)
(6.06734 0.357375 -32.356)
(6.08407 0.375454 -32.3616)
(6.02782 0.381432 -32.3435)
(4.83008 -0.404345 -32.4238)
(5.28408 -0.416198 -32.4573)
(5.43844 -0.43317 -32.4365)
(5.74675 -0.410388 -32.404)
(5.7445 -0.402795 -32.3387)
(5.95536 -0.395803 -32.2956)
(5.9235 -0.387835 -32.2638)
(6.06011 -0.379322 -32.2592)
(5.99177 -0.373837 -32.2485)
(6.0725 -0.371162 -32.2424)
(5.99797 -0.370285 -32.2305)
(6.06231 -0.370259 -32.2358)
(6.00287 -0.370172 -32.2495)
(6.0589 -0.370257 -32.2784)
(6.01234 -0.369171 -32.305)
(6.0551 -0.36948 -32.331)
(6.02175 -0.367947 -32.3468)
(6.04496 -0.3683 -32.3584)
(6.04063 -0.369116 -32.3639)
(6.03299 -0.394021 -32.3455)
(4.84167 -0.146882 -32.419)
(5.34005 0.128032 -32.4527)
(5.48173 0.193256 -32.4325)
(5.77974 0.261187 -32.401)
(5.76159 0.288485 -32.3361)
(5.95288 0.305772 -32.2931)
(5.89658 0.32477 -32.2612)
(6.01217 0.34428 -32.2564)
(5.92727 0.360521 -32.2454)
(6.00106 0.369284 -32.2396)
(5.92148 0.371635 -32.2288)
(5.9844 0.371323 -32.2355)
(5.92037 0.371618 -32.2501)
(5.97605 0.370696 -32.2791)
(5.92478 0.373306 -32.3047)
(5.96921 0.369914 -32.3296)
(5.93318 0.377934 -32.3441)
(5.95442 0.363576 -32.3549)
(5.9503 0.38655 -32.3599)
(5.91339 0.383651 -32.3415)
(4.85422 -0.622983 -32.4187)
(5.39735 -0.538034 -32.4548)
(5.50041 -0.526051 -32.4355)
(5.765 -0.472491 -32.4047)
(5.7017 -0.450875 -32.3405)
(5.85034 -0.433345 -32.299)
(5.74894 -0.415296 -32.2681)
(5.83628 -0.398432 -32.2635)
(5.73083 -0.387704 -32.252)
(5.79936 -0.381458 -32.2474)
(5.71402 -0.38012 -32.2392)
(5.77876 -0.380342 -32.249)
(5.71006 -0.380493 -32.265)
(5.76821 -0.380933 -32.2934)
(5.70984 -0.37943 -32.3167)
(5.76259 -0.381082 -32.3389)
(5.70964 -0.377414 -32.3511)
(5.76436 -0.38336 -32.36)
(5.70681 -0.376634 -32.3648)
(5.79308 -0.40325 -32.3452)
(4.86813 -0.340402 -32.4121)
(5.43789 0.0408524 -32.4484)
(5.41767 0.147364 -32.4283)
(5.58772 0.246704 -32.3964)
(5.42382 0.289109 -32.3335)
(5.50013 0.316557 -32.2963)
(5.3316 0.342728 -32.2685)
(5.39099 0.365554 -32.2644)
(5.26397 0.380835 -32.2528)
(5.33747 0.386508 -32.2509)
(5.24795 0.387461 -32.2475)
(5.31977 0.386712 -32.2618)
(5.24554 0.386614 -32.2787)
(5.30917 0.385719 -32.3047)
(5.24426 0.387749 -32.3232)
(5.30271 0.384663 -32.3408)
(5.24457 0.391248 -32.3492)
(5.29807 0.38005 -32.3554)
(5.23956 0.398026 -32.36)
(5.27398 0.396539 -32.3393)
(4.81413 -0.873291 -32.4117)
(5.23962 -0.654478 -32.4525)
(4.95183 -0.580175 -32.4324)
(4.96527 -0.498077 -32.3996)
(4.66307 -0.464201 -32.343)
(4.67265 -0.441385 -32.3154)
(4.44443 -0.422717 -32.2937)
(4.50493 -0.408452 -32.2915)
(4.36762 -0.39971 -32.282)
(4.45974 -0.395696 -32.2852)
(4.36343 -0.395966 -32.2879)
(4.4473 -0.396515 -32.3051)
(4.36329 -0.396918 -32.3201)
(4.43564 -0.39728 -32.34)
(4.35954 -0.396411 -32.3514)
(4.43058 -0.397975 -32.3626)
(4.34998 -0.394788 -32.3668)
(4.44623 -0.40077 -32.3699)
(4.3131 -0.39345 -32.3748)
(4.54035 -0.403978 -32.3522)
(4.535 -0.489542 -32.3965)
(4.52011 0.0486142 -32.4435)
(3.81639 0.217923 -32.4225)
(3.65972 0.323153 -32.3953)
(3.25351 0.361724 -32.3533)
(3.24902 0.38015 -32.3416)
(2.99874 0.393923 -32.3269)
(3.08243 0.402663 -32.3291)
(2.93854 0.407231 -32.3234)
(3.04988 0.408385 -32.3321)
(2.94213 0.408729 -32.3366)
(3.03651 0.408051 -32.3515)
(2.94088 0.408165 -32.3592)
(3.021 0.407584 -32.3711)
(2.93572 0.40837 -32.3746)
(3.01001 0.407323 -32.3809)
(2.92814 0.408565 -32.3811)
(3.00246 0.407648 -32.3835)
(2.91461 0.404151 -32.3862)
(2.93915 0.417445 -32.3686)
(3.65785 -0.929003 -32.3725)
(2.85775 -0.570714 -32.4286)
(1.9793 -0.476245 -32.4172)
(1.85829 -0.43749 -32.4052)
(1.55339 -0.431129 -32.3863)
(1.59334 -0.429079 -32.3853)
(1.40533 -0.426076 -32.3785)
(1.48979 -0.423945 -32.3821)
(1.37022 -0.421134 -32.38)
(1.4649 -0.420674 -32.3867)
(1.37197 -0.420217 -32.389)
(1.45215 -0.420792 -32.3963)
(1.37059 -0.420545 -32.3987)
(1.43831 -0.421004 -32.4033)
(1.36614 -0.420556 -32.4039)
(1.42797 -0.42136 -32.4063)
(1.35859 -0.419368 -32.4058)
(1.42764 -0.423147 -32.4072)
(1.34332 -0.409556 -32.4076)
(1.53343 -0.411286 -32.3984)
(1.94399 -0.0370778 -32.248)
(1.07805 0.368995 -32.2991)
(0.612053 0.417844 -32.2946)
(0.583693 0.428946 -32.2938)
(0.458479 0.434133 -32.2872)
(0.486321 0.435851 -32.2891)
(0.405895 0.437665 -32.2859)
(0.444055 0.436927 -32.2885)
(0.389975 0.437222 -32.2869)
(0.431512 0.436416 -32.2901)
(0.390016 0.437081 -32.2898)
(0.425886 0.436556 -32.2927)
(0.389889 0.437061 -32.2924)
(0.420221 0.436597 -32.2944)
(0.388559 0.436987 -32.2938)
(0.415696 0.436814 -32.2951)
(0.38613 0.43578 -32.2945)
(0.41218 0.438303 -32.2954)
(0.381629 0.414509 -32.2951)
(0.338319 0.424171 -32.2943)
(3.71475 0.563926 0.0069394)
(2.05229 0.631155 0.00468075)
(1.37924 0.606284 0.00591558)
(1.06272 0.602004 0.00467568)
(0.998766 0.60973 0.00568333)
(0.882335 0.615556 0.00463642)
(0.878069 0.618453 0.0054701)
(0.817743 0.618963 0.00460196)
(0.8336 0.618603 0.00531431)
(0.801999 0.618229 0.0045956)
(0.817872 0.617895 0.0051917)
(0.796735 0.61814 0.0045857)
(0.806599 0.617998 0.00507587)
(0.791782 0.618248 0.00456558)
(0.796031 0.618129 0.00496656)
(0.787189 0.619068 0.00453959)
(0.785503 0.615671 0.00486502)
(0.787947 0.627408 0.00450757)
(0.757951 0.565192 0.00478475)
(1.08352 0.580684 0.00444387)
(4.78935 0.000532443 0.00463012)
(4.15486 -0.219819 0.00268541)
(3.59272 -0.415611 0.0039424)
(3.05861 -0.517674 0.00271084)
(2.83016 -0.556717 0.00372361)
(2.58179 -0.57608 0.00268268)
(2.52079 -0.586753 0.00351834)
(2.41435 -0.593564 0.00265221)
(2.42432 -0.596262 0.00336472)
(2.3797 -0.597371 0.00264739)
(2.39975 -0.597474 0.00324402)
(2.3727 -0.597803 0.00263887)
(2.38514 -0.597778 0.00312895)
(2.3674 -0.5979 0.00261862)
(2.37131 -0.598159 0.00301931)
(2.36314 -0.598711 0.00259268)
(2.35751 -0.596828 0.00291572)
(2.35849 -0.604301 0.00256329)
(2.3546 -0.592462 0.00280384)
(2.19411 -0.595272 0.0024949)
(4.77152 0.531488 0.00581607)
(4.87293 0.780881 0.00391573)
(4.77176 0.744658 0.00508811)
(4.43027 0.683267 0.00383532)
(4.24657 0.648694 0.00483533)
(3.99802 0.625992 0.00378868)
(3.91208 0.60971 0.00462008)
(3.79187 0.599216 0.00375291)
(3.78696 0.591705 0.00446369)
(3.74022 0.588158 0.00374834)
(3.75636 0.586125 0.00434577)
(3.73245 0.586525 0.0037431)
(3.74463 0.585702 0.00423423)
(3.7315 0.586592 0.00372473)
(3.73475 0.58543 0.00412585)
(3.73494 0.587462 0.00369816)
(3.71857 0.582709 0.00402492)
(3.75848 0.594127 0.00366513)
(3.66328 0.553843 0.00395189)
(3.91561 0.58272 0.00361826)
(4.63448 -0.061965 0.00453826)
(4.87979 -0.176081 0.00284805)
(5.11296 -0.294671 0.00401081)
(5.0371 -0.387888 0.00277661)
(5.02479 -0.44013 0.00378532)
(4.8819 -0.479693 0.00274613)
(4.83965 -0.510884 0.00358054)
(4.73788 -0.535933 0.0027154)
(4.7286 -0.551744 0.00342547)
(4.6803 -0.559287 0.00271001)
(4.69175 -0.562077 0.00330648)
(4.66918 -0.562926 0.00270422)
(4.68077 -0.563779 0.00319486)
(4.67 -0.563287 0.00268596)
(4.6758 -0.565228 0.00308698)
(4.67362 -0.563071 0.00266067)
(4.67233 -0.567572 0.00298385)
(4.67532 -0.561443 0.00263233)
(4.66981 -0.581034 0.00286769)
(4.58467 -0.570409 0.00258328)
(4.61894 0.410786 0.00544076)
(4.8598 0.658271 0.00381909)
(5.17085 0.67932 0.00491762)
(5.21876 0.655278 0.00366965)
(5.32689 0.635835 0.00466529)
(5.28715 0.616608 0.0036191)
(5.31399 0.597149 0.00444866)
(5.25591 0.580949 0.00358059)
(5.26445 0.568995 0.00428967)
(5.22469 0.563457 0.00357463)
(5.23615 0.559767 0.00417043)
(5.21449 0.559107 0.00356837)
(5.22577 0.557128 0.00405899)
(5.2153 0.558109 0.00355086)
(5.22192 0.555926 0.00395253)
(5.22072 0.558569 0.00352638)
(5.21569 0.553048 0.00385316)
(5.23548 0.563756 0.00349531)
(5.19324 0.532788 0.00377867)
(5.29004 0.582861 0.00346537)
(4.59509 -0.110374 0.00462565)
(4.77578 -0.238214 0.00310806)
(5.11253 -0.320901 0.00418641)
(5.21134 -0.384496 0.00294556)
(5.38594 -0.419142 0.00394275)
(5.41347 -0.447977 0.00290076)
(5.49749 -0.473947 0.00373199)
(5.48072 -0.49886 0.00286462)
(5.5124 -0.517502 0.00357355)
(5.48494 -0.529041 0.00285795)
(5.50206 -0.535109 0.00345324)
(5.48322 -0.537272 0.00285051)
(5.49678 -0.539434 0.00333957)
(5.48567 -0.539068 0.00283101)
(5.49677 -0.542086 0.00323212)
(5.4875 -0.538636 0.00280731)
(5.50053 -0.546444 0.00313161)
(5.47983 -0.532802 0.00278132)
(5.51352 -0.561003 0.00302078)
(5.3875 -0.550337 0.00274483)
(4.60772 0.326218 0.00518842)
(4.77565 0.542724 0.00372913)
(5.09182 0.580811 0.00477244)
(5.19077 0.579736 0.00352822)
(5.37903 0.575574 0.00451797)
(5.43123 0.569356 0.00347332)
(5.5442 0.560318 0.00430314)
(5.554 0.551554 0.00343474)
(5.60489 0.544243 0.00414372)
(5.58999 0.541174 0.00342873)
(5.61394 0.53921 0.00402395)
(5.59907 0.539044 0.00342106)
(5.61589 0.537619 0.00390999)
(5.60517 0.538145 0.00340153)
(5.61882 0.536085 0.00380293)
(5.60872 0.537579 0.00337776)
(5.62056 0.534219 0.00370452)
(5.60786 0.538643 0.00334859)
(5.62569 0.522458 0.00362562)
(5.59826 0.570851 0.0033229)
(4.59679 -0.154641 0.00472805)
(4.73787 -0.301742 0.00331896)
(5.05514 -0.369302 0.00434873)
(5.15556 -0.415496 0.00310577)
(5.3501 -0.439162 0.00409386)
(5.41154 -0.457933 0.00305022)
(5.53788 -0.474306 0.00388008)
(5.56108 -0.491168 0.00301126)
(5.62336 -0.504513 0.00371943)
(5.6168 -0.513849 0.0030036)
(5.64755 -0.519477 0.00359827)
(5.63703 -0.521927 0.00299525)
(5.65842 -0.524619 0.0034834)
(5.64864 -0.524496 0.00297473)
(5.66674 -0.527462 0.00337551)
(5.65183 -0.524218 0.00295142)
(5.67531 -0.531607 0.00327642)
(5.63925 -0.517616 0.00292618)
(5.69649 -0.540953 0.00317368)
(5.55838 -0.543339 0.00289402)
(4.60231 0.258715 0.00499519)
(4.74013 0.449274 0.00361839)
(5.04825 0.497482 0.00463244)
(5.14449 0.512773 0.00339013)
(5.33612 0.518382 0.00437525)
(5.39758 0.521253 0.00333107)
(5.52715 0.521385 0.00416127)
(5.55532 0.521613 0.00329288)
(5.62278 0.521468 0.0040017)
(5.62072 0.522823 0.00328645)
(5.65516 0.52373 0.0038814)
(5.64761 0.524644 0.00327829)
(5.67188 0.525027 0.00376661)
(5.66332 0.525118 0.00325785)
(5.68323 0.524878 0.00365906)
(5.66873 0.524377 0.00323411)
(5.69075 0.525072 0.00356071)
(5.66058 0.521735 0.00320634)
(5.7078 0.521289 0.00347481)
(5.62178 0.556784 0.00317855)
(4.59883 -0.202817 0.00484765)
(4.72843 -0.370584 0.00348569)
(5.03695 -0.42773 0.00449517)
(5.13323 -0.458407 0.0032524)
(5.32546 -0.47303 0.00423644)
(5.38716 -0.483828 0.00319219)
(5.51782 -0.491999 0.00402203)
(5.54753 -0.500543 0.00315315)
(5.61702 -0.507245 0.00386139)
(5.61694 -0.512759 0.00314563)
(5.65368 -0.516289 0.00374025)
(5.64788 -0.518115 0.00313715)
(5.67418 -0.52009 0.00362522)
(5.6663 -0.520023 0.00311657)
(5.68799 -0.52183 0.00351738)
(5.67216 -0.519556 0.00309324)
(5.69799 -0.524253 0.00341873)
(5.66077 -0.514116 0.00306726)
(5.71916 -0.527104 0.00332437)
(5.60152 -0.545845 0.00303725)
(4.59883 0.202817 0.00484765)
(4.72843 0.370585 0.00348569)
(5.03695 0.42773 0.00449517)
(5.13323 0.458406 0.0032524)
(5.32546 0.473028 0.00423644)
(5.38716 0.483827 0.00319219)
(5.51782 0.491997 0.00402203)
(5.54753 0.500544 0.00315315)
(5.61701 0.507243 0.00386139)
(5.61694 0.512767 0.00314562)
(5.65366 0.516283 0.00374026)
(5.64788 0.518139 0.0031371)
(5.67413 0.520084 0.00362523)
(5.66632 0.520089 0.00311643)
(5.68789 0.521848 0.0035174)
(5.67224 0.519734 0.00309281)
(5.69779 0.52436 0.00341893)
(5.66096 0.514689 0.00306627)
(5.71908 0.527533 0.00332503)
(5.60168 0.547352 0.00303587)
(4.60231 -0.258715 0.00499519)
(4.74013 -0.449274 0.00361839)
(5.04825 -0.497482 0.00463244)
(5.14448 -0.512774 0.00339013)
(5.33612 -0.518384 0.00437525)
(5.39758 -0.521255 0.00333107)
(5.52715 -0.521387 0.00416126)
(5.55532 -0.521611 0.00329289)
(5.62279 -0.52147 0.00400169)
(5.62071 -0.522813 0.00328647)
(5.65518 -0.523737 0.00388139)
(5.6476 -0.524614 0.00327834)
(5.67193 -0.525037 0.00376659)
(5.6633 -0.52503 0.00325798)
(5.68335 -0.524868 0.00365903)
(5.66867 -0.52415 0.00323453)
(5.69102 -0.524975 0.0035605)
(5.66045 -0.521162 0.00320728)
(5.70806 -0.520829 0.00347419)
(5.62188 -0.555341 0.00317972)
(4.59679 0.154641 0.00472805)
(4.73787 0.301742 0.00331896)
(5.05514 0.369302 0.00434873)
(5.15556 0.415495 0.00310577)
(5.3501 0.43916 0.00409386)
(5.41154 0.457931 0.00305022)
(5.53788 0.474304 0.00388008)
(5.56108 0.491169 0.00301126)
(5.62336 0.504511 0.00371942)
(5.6168 0.513854 0.00300359)
(5.64754 0.519473 0.00359827)
(5.63704 0.521939 0.00299521)
(5.65839 0.524619 0.00348341)
(5.64866 0.524513 0.00297461)
(5.66667 0.527486 0.00337552)
(5.65192 0.524302 0.00295103)
(5.67519 0.531716 0.00327659)
(5.63951 0.518065 0.00292523)
(5.69661 0.54135 0.00317432)
(5.55894 0.544801 0.00289261)
(4.60772 -0.326218 0.00518842)
(4.77565 -0.542724 0.00372913)
(5.09182 -0.580811 0.00477244)
(5.19077 -0.579737 0.00352822)
(5.37903 -0.575576 0.00451797)
(5.43123 -0.569358 0.00347332)
(5.5442 -0.56032 0.00430314)
(5.554 -0.551552 0.00343474)
(5.60489 -0.544246 0.0041437)
(5.58999 -0.541163 0.00342875)
(5.61395 -0.539219 0.00402393)
(5.59907 -0.539005 0.00342112)
(5.61593 -0.537634 0.00390995)
(5.60517 -0.538012 0.00340167)
(5.61894 -0.536083 0.00380286)
(5.60871 -0.537268 0.00337815)
(5.62087 -0.534145 0.00370431)
(5.60783 -0.53797 0.00334946)
(5.62623 -0.52207 0.00362502)
(5.59852 -0.569386 0.00332377)
(4.59509 0.110374 0.00462565)
(4.77578 0.238214 0.00310806)
(5.11253 0.320901 0.00418641)
(5.21134 0.384495 0.00294556)
(5.38594 0.41914 0.00394274)
(5.41347 0.447975 0.00290076)
(5.49749 0.473946 0.00373199)
(5.48072 0.49886 0.00286462)
(5.5124 0.517502 0.00357355)
(5.48495 0.529042 0.00285795)
(5.50204 0.535109 0.00345323)
(5.48324 0.537267 0.0028505)
(5.49675 0.539439 0.00333954)
(5.48574 0.53905 0.00283095)
(5.49669 0.542113 0.00323208)
(5.48768 0.538642 0.00280703)
(5.50046 0.546547 0.00313167)
(5.48028 0.533068 0.00278052)
(5.5139 0.561351 0.00302131)
(5.38872 0.551657 0.00274364)
(4.61894 -0.410786 0.00544077)
(4.8598 -0.658271 0.00381909)
(5.17085 -0.67932 0.00491762)
(5.21876 -0.655279 0.00366965)
(5.32689 -0.635837 0.00466529)
(5.28715 -0.616609 0.0036191)
(5.31399 -0.59715 0.00444866)
(5.25591 -0.580947 0.00358059)
(5.26445 -0.568997 0.00428966)
(5.2247 -0.563446 0.00357466)
(5.23615 -0.559775 0.00417039)
(5.21452 -0.559061 0.00356845)
(5.22577 -0.557141 0.00405889)
(5.21538 -0.557985 0.00355106)
(5.22198 -0.555929 0.00395232)
(5.2209 -0.558222 0.00352686)
(5.21594 -0.553005 0.00385278)
(5.23584 -0.562998 0.00349625)
(5.19408 -0.532549 0.00377786)
(5.29094 -0.581379 0.00346624)
(4.63448 0.0619649 0.00453826)
(4.87979 0.176081 0.00284805)
(5.11296 0.294671 0.00401081)
(5.0371 0.387888 0.00277661)
(5.02479 0.440129 0.00378532)
(4.8819 0.479692 0.00274613)
(4.83965 0.510884 0.00358054)
(4.73789 0.535931 0.0027154)
(4.72859 0.551746 0.00342546)
(4.6803 0.559281 0.00271)
(4.69173 0.562082 0.00330647)
(4.66922 0.562905 0.00270423)
(4.68072 0.563791 0.00319479)
(4.67015 0.563244 0.002686)
(4.67569 0.565261 0.00308679)
(4.67406 0.562963 0.00266067)
(4.67214 0.567669 0.00298359)
(4.67647 0.561376 0.00263204)
(4.67018 0.58134 0.00286772)
(4.58797 0.571159 0.00258307)
(4.77152 -0.531488 0.00581607)
(4.87294 -0.780881 0.00391573)
(4.77176 -0.744659 0.00508811)
(4.43027 -0.683267 0.00383532)
(4.24657 -0.648695 0.00483533)
(3.99802 -0.625992 0.00378868)
(3.91208 -0.609711 0.00462008)
(3.79187 -0.599215 0.00375291)
(3.78696 -0.591707 0.00446369)
(3.74022 -0.588149 0.00374835)
(3.75636 -0.586129 0.00434574)
(3.73248 -0.58649 0.00374316)
(3.74463 -0.585709 0.0042341)
(3.73162 -0.586495 0.00372499)
(3.73475 -0.585432 0.00412545)
(3.73535 -0.587182 0.00369889)
(3.71867 -0.582699 0.00402399)
(3.75961 -0.593337 0.00366667)
(3.664 -0.553881 0.00394998)
(3.91841 -0.581776 0.00362073)
(4.78935 -0.000532597 0.00463012)
(4.15486 0.219819 0.00268541)
(3.59272 0.415612 0.0039424)
(3.05861 0.517674 0.00271084)
(2.83016 0.556717 0.00372361)
(2.58179 0.576079 0.00268268)
(2.52079 0.586753 0.00351834)
(2.41435 0.593562 0.0026522)
(2.42432 0.596263 0.00336472)
(2.37971 0.597362 0.00264737)
(2.39974 0.59748 0.00324403)
(2.37272 0.597773 0.00263885)
(2.38514 0.597793 0.00312892)
(2.36751 0.597828 0.00261865)
(2.3713 0.598192 0.00301913)
(2.36354 0.59852 0.00259284)
(2.35753 0.596912 0.0029152)
(2.35982 0.603886 0.00256374)
(2.35496 0.592755 0.00280286)
(2.19984 0.595533 0.00249646)
(3.71475 -0.563926 0.0069394)
(2.05229 -0.631155 0.00468075)
(1.37924 -0.606284 0.00591558)
(1.06272 -0.602003 0.00467568)
(0.998765 -0.609729 0.00568333)
(0.882334 -0.615555 0.00463642)
(0.878068 -0.618454 0.00547009)
(0.817741 -0.618961 0.00460196)
(0.8336 -0.618605 0.00531431)
(0.801999 -0.61822 0.0045956)
(0.817877 -0.617901 0.00519169)
(0.796742 -0.618108 0.00458571)
(0.806622 -0.618009 0.00507584)
(0.791814 -0.618168 0.00456566)
(0.796108 -0.618148 0.00496642)
(0.787318 -0.618848 0.0045399)
(0.785747 -0.615721 0.00486452)
(0.788334 -0.626848 0.00450857)
(0.75895 -0.56566 0.00478307)
(1.08325 -0.580838 0.00444714)
(4.00266 0.159182 0.00142861)
(2.97823 0.122722 0.0016766)
(2.12147 0.0738533 0.00115961)
(1.6684 0.0385986 0.00151855)
(1.44552 0.0261524 0.001199)
(1.37205 0.0282177 0.00140534)
(1.3366 0.0346397 0.00118268)
(1.33321 0.0409617 0.00131225)
(1.32669 0.0453817 0.00118076)
(1.32719 0.048446 0.001261)
(1.32332 0.0502632 0.00119092)
(1.32183 0.0514359 0.00123016)
(1.31895 0.0520332 0.00120035)
(1.31743 0.0523411 0.0012098)
(1.3137 0.0524201 0.00120877)
(1.31552 0.052727 0.00119796)
(1.30273 0.0517422 0.00121839)
(1.3234 0.0542299 0.00119052)
(1.26503 0.0487945 0.0012273)
(1.35331 0.0483618 0.00121588)
(4.62089 0.179725 0.00324836)
(4.62707 0.19442 0.00360673)
(4.35225 0.147117 0.00306374)
(4.06537 0.0777611 0.00340071)
(3.80677 0.0263383 0.00306811)
(3.64192 -0.00642572 0.00326971)
(3.5429 -0.0250005 0.00304505)
(3.50811 -0.0358087 0.00317424)
(3.49697 -0.041178 0.00304364)
(3.50152 -0.0444317 0.00312606)
(3.50671 -0.0460709 0.00305854)
(3.51454 -0.047215 0.00309989)
(3.52062 -0.0478932 0.00307163)
(3.53156 -0.0479373 0.00308155)
(3.53258 -0.0486565 0.00308143)
(3.55422 -0.0473763 0.00306938)
(3.53615 -0.0496644 0.00309271)
(3.58967 -0.0443885 0.0030584)
(3.50634 -0.0507211 0.00312094)
(3.65375 -0.0449546 0.00310144)
(4.56275 0.125002 0.00168916)
(4.80144 0.17433 0.00195611)
(4.90722 0.172974 0.00142893)
(4.93242 0.135645 0.0017719)
(4.87867 0.102508 0.00145153)
(4.82403 0.0787681 0.00165928)
(4.77456 0.0633478 0.00143924)
(4.75261 0.0555339 0.00156805)
(4.74142 0.0532954 0.00143704)
(4.74291 0.0539531 0.00151718)
(4.74762 0.055079 0.00144899)
(4.75898 0.0562301 0.00148953)
(4.76947 0.0561086 0.00146128)
(4.78958 0.0573642 0.00147102)
(4.7963 0.0554294 0.00147059)
(4.82857 0.0591319 0.00145951)
(4.81848 0.05246 0.00147946)
(4.87822 0.0662752 0.00145522)
(4.81589 0.0444853 0.00147579)
(4.9544 0.07357 0.0014781)
(4.54449 0.121791 0.00298973)
(4.73677 0.141139 0.00338035)
(4.90549 0.127561 0.00285988)
(5.03759 0.085516 0.00319211)
(5.09703 0.0468184 0.00285685)
(5.13362 0.0143836 0.00305792)
(5.14292 -0.00998056 0.00283205)
(5.1503 -0.0265678 0.00295911)
(5.15066 -0.0360836 0.00282662)
(5.15548 -0.0414195 0.00290757)
(5.16151 -0.0447858 0.00284037)
(5.17338 -0.0465461 0.00288253)
(5.18629 -0.0489333 0.00285597)
(5.2054 -0.0482421 0.00286743)
(5.21938 -0.0513147 0.00286782)
(5.24371 -0.0471285 0.00285727)
(5.25397 -0.0542947 0.0028794)
(5.28342 -0.0401183 0.00284906)
(5.28705 -0.05992 0.00290975)
(5.32013 -0.0303576 0.0028999)
(4.54753 0.0845526 0.00188248)
(4.72457 0.120702 0.00219506)
(4.87868 0.127934 0.00167269)
(5.01831 0.109135 0.00199918)
(5.10263 0.0913968 0.00167062)
(5.16909 0.0768476 0.00187593)
(5.20321 0.0661428 0.00165394)
(5.22842 0.060269 0.00178195)
(5.24078 0.0583535 0.00165041)
(5.25392 0.0585649 0.00172981)
(5.2661 0.0586624 0.00166093)
(5.28145 0.0590171 0.0017011)
(5.29834 0.0576174 0.00167264)
(5.31647 0.0586875 0.00168293)
(5.33603 0.0556536 0.0016829)
(5.35341 0.0598799 0.00167281)
(5.37618 0.0521996 0.00169285)
(5.38664 0.0670397 0.0016723)
(5.4253 0.044639 0.00168974)
(5.40464 0.079314 0.00169967)
(4.54288 0.0799072 0.00276338)
(4.69918 0.0905032 0.00316235)
(4.84858 0.0814196 0.00265265)
(4.9849 0.0516054 0.00298242)
(5.07291 0.0245312 0.00264866)
(5.1479 0.00143799 0.00285256)
(5.19275 -0.0163394 0.00262791)
(5.22884 -0.0288084 0.00275558)
(5.25127 -0.0365584 0.00262365)
(5.27281 -0.0413414 0.00270443)
(5.29193 -0.0450052 0.00263658)
(5.31125 -0.047142 0.00267734)
(5.3322 -0.0500825 0.0026499)
(5.34949 -0.0497989 0.00266065)
(5.37342 -0.0529919 0.00266129)
(5.38508 -0.0494247 0.0026513)
(5.41688 -0.0555994 0.00267353)
(5.41341 -0.0441376 0.00264599)
(5.47349 -0.0588133 0.00270224)
(5.42234 -0.0364408 0.00269447)
(4.54333 0.0500491 0.00205569)
(4.695 0.0759163 0.00240547)
(4.83855 0.0850261 0.00189202)
(4.97172 0.0768162 0.00221188)
(5.05856 0.0687978 0.00187859)
(5.13389 0.0622861 0.00208219)
(5.18043 0.0578856 0.00185816)
(5.21961 0.0561754 0.00198501)
(5.24587 0.0565394 0.00185273)
(5.27154 0.0577761 0.00193179)
(5.29465 0.0583969 0.00186237)
(5.31703 0.0588204 0.00190165)
(5.34075 0.0577381 0.00187243)
(5.35891 0.058314 0.0018826)
(5.38475 0.0560202 0.00188258)
(5.39539 0.0588137 0.00187331)
(5.4294 0.0535183 0.00189378)
(5.42369 0.0635393 0.00187523)
(5.48744 0.0490799 0.00189636)
(5.43629 0.0734813 0.00190394)
(4.54062 0.0441985 0.00256617)
(4.68049 0.0461973 0.00296429)
(4.82269 0.0385685 0.002459)
(4.95449 0.0187265 0.0027843)
(5.04156 0.000761528 0.00245008)
(5.11772 -0.0146904 0.00265499)
(5.16594 -0.0266993 0.00243131)
(5.20751 -0.0353299 0.00255958)
(5.23685 -0.0410465 0.00242806)
(5.26582 -0.0448118 0.00250865)
(5.29227 -0.0478317 0.0024404)
(5.31709 -0.0496781 0.00248039)
(5.34313 -0.0519733 0.00245224)
(5.3617 -0.0520183 0.0024624)
(5.38926 -0.0541774 0.00246318)
(5.39842 -0.0520709 0.00245324)
(5.43501 -0.0556757 0.00247548)
(5.42577 -0.0492403 0.00245061)
(5.49418 -0.0564111 0.00249915)
(5.43908 -0.0459414 0.00249111)
(4.5408 0.0185422 0.00222201)
(4.67832 0.0347334 0.00259758)
(4.81793 0.0437116 0.00209021)
(4.94861 0.0450849 0.00240891)
(5.0352 0.0458433 0.0020738)
(5.11093 0.0466625 0.00227743)
(5.15883 0.0478291 0.00205304)
(5.20054 0.0496959 0.00217991)
(5.23057 0.0520023 0.00204734)
(5.26077 0.0541909 0.00212646)
(5.28874 0.055642 0.00205705)
(5.31502 0.0565063 0.00209623)
(5.34232 0.0564386 0.00206705)
(5.36168 0.0567704 0.0020772)
(5.38983 0.0558474 0.00207723)
(5.39921 0.0570209 0.00206822)
(5.4359 0.0546495 0.00208899)
(5.42714 0.0592813 0.0020701)
(5.49495 0.0524207 0.00209857)
(5.44403 0.0654919 0.00210028)
(4.53995 0.0121537 0.00238871)
(4.67365 0.00522212 0.00277904)
(4.81278 -0.00282281 0.0022744)
(4.94303 -0.0133607 0.00259565)
(5.02975 -0.0226776 0.00226067)
(5.10566 -0.0307872 0.00246519)
(5.15385 -0.0373619 0.0022414)
(5.19603 -0.04257 0.00236923)
(5.22677 -0.0465584 0.0022373)
(5.25785 -0.0495023 0.00231715)