/*--------------------------------*- C++ -*----------------------------------*\
  =========                 |
  \\      /  F ield         | OpenFOAM: The Open Source CFD Toolbox
   \\    /   O peration     | Website:  https://openfoam.org
    \\  /    A nd           | Version:  7
     \\/     M anipulation  |
\*---------------------------------------------------------------------------*/
FoamFile
{
    version     2.0;
    format      ascii;
    class       volScalarField;
    location    "0.1125";
    object      pPrime2Mean;
}
// * * * * * * * * * * * * * * * * * * * * * * * * * * * * * * * * * * * * * //

dimensions      [2 -2 -4 0 0 0 0];

internalField   nonuniform List<scalar> 
1080
(
2.21688e+06
2.19996e+06
2.20122e+06
2.187e+06
2.18386e+06
2.1729e+06
2.16722e+06
2.15755e+06
2.14997e+06
2.14017e+06
2.13099e+06
2.12047e+06
2.10998e+06
2.09866e+06
2.08717e+06
2.07515e+06
2.06288e+06
2.05023e+06
2.03734e+06
2.02415e+06
2.01072e+06
1.99705e+06
1.98315e+06
1.96902e+06
1.95467e+06
1.94009e+06
1.92528e+06
1.91024e+06
1.89496e+06
1.87942e+06
1.86363e+06
1.84761e+06
1.83137e+06
1.81489e+06
1.7982e+06
1.7813e+06
1.76419e+06
1.74689e+06
1.72942e+06
1.71176e+06
2.21749e+06
2.20067e+06
2.20184e+06
2.18737e+06
2.18406e+06
2.17296e+06
2.16719e+06
2.15749e+06
2.14994e+06
2.14021e+06
2.13112e+06
2.12073e+06
2.11036e+06
2.09912e+06
2.08765e+06
2.07559e+06
2.06325e+06
2.05049e+06
2.03749e+06
2.02419e+06
2.01069e+06
1.99696e+06
1.98304e+06
1.9689e+06
1.95456e+06
1.94001e+06
1.92525e+06
1.91025e+06
1.89501e+06
1.87952e+06
1.86377e+06
1.84777e+06
1.83154e+06
1.81507e+06
1.79837e+06
1.78146e+06
1.76433e+06
1.74702e+06
1.72952e+06
1.71184e+06
2.21766e+06
2.20093e+06
2.20211e+06
2.18757e+06
2.18415e+06
2.17292e+06
2.16706e+06
2.15729e+06
2.14972e+06
2.14e+06
2.13098e+06
2.12067e+06
2.11038e+06
2.09922e+06
2.08781e+06
2.07578e+06
2.06344e+06
2.05066e+06
2.03761e+06
2.02427e+06
2.01071e+06
1.99693e+06
1.98296e+06
1.96879e+06
1.95444e+06
1.93989e+06
1.92513e+06
1.91015e+06
1.89495e+06
1.8795e+06
1.8638e+06
1.84786e+06
1.83167e+06
1.81523e+06
1.79855e+06
1.78165e+06
1.76452e+06
1.74719e+06
1.72967e+06
1.71196e+06
2.218e+06
2.20129e+06
2.20243e+06
2.18778e+06
2.18427e+06
2.17297e+06
2.16707e+06
2.15727e+06
2.14969e+06
2.13998e+06
2.13098e+06
2.1207e+06
2.11044e+06
2.09929e+06
2.08789e+06
2.07585e+06
2.0635e+06
2.05069e+06
2.03762e+06
2.02425e+06
2.01066e+06
1.99685e+06
1.98287e+06
1.96869e+06
1.95433e+06
1.93978e+06
1.92503e+06
1.91007e+06
1.89488e+06
1.87946e+06
1.86379e+06
1.84788e+06
1.83171e+06
1.8153e+06
1.79864e+06
1.78174e+06
1.76461e+06
1.74728e+06
1.72974e+06
1.71202e+06
2.21811e+06
2.20141e+06
2.20254e+06
2.18787e+06
2.18433e+06
2.17298e+06
2.16704e+06
2.15721e+06
2.14962e+06
2.13991e+06
2.13092e+06
2.12065e+06
2.1104e+06
2.09928e+06
2.08789e+06
2.07586e+06
2.06351e+06
2.0507e+06
2.03762e+06
2.02424e+06
2.01064e+06
1.99683e+06
1.98284e+06
1.96866e+06
1.9543e+06
1.93975e+06
1.925e+06
1.91005e+06
1.89487e+06
1.87946e+06
1.86381e+06
1.84791e+06
1.83175e+06
1.81534e+06
1.79869e+06
1.78179e+06
1.76466e+06
1.74732e+06
1.72978e+06
1.71205e+06
2.21822e+06
2.20152e+06
2.20264e+06
2.18794e+06
2.18438e+06
2.17301e+06
2.16705e+06
2.15722e+06
2.14962e+06
2.1399e+06
2.13092e+06
2.12065e+06
2.11041e+06
2.09928e+06
2.08789e+06
2.07586e+06
2.0635e+06
2.05069e+06
2.03761e+06
2.02422e+06
2.01062e+06
1.9968e+06
1.98281e+06
1.96863e+06
1.95427e+06
1.93972e+06
1.92498e+06
1.91003e+06
1.89486e+06
1.87946e+06
1.86381e+06
1.84791e+06
1.83176e+06
1.81536e+06
1.7987e+06
1.78181e+06
1.76468e+06
1.74733e+06
1.72979e+06
1.71205e+06
2.21822e+06
2.20152e+06
2.20264e+06
2.18794e+06
2.18438e+06
2.17301e+06
2.16705e+06
2.15722e+06
2.14962e+06
2.1399e+06
2.13091e+06
2.12065e+06
2.11041e+06
2.09928e+06
2.08789e+06
2.07586e+06
2.0635e+06
2.05069e+06
2.03761e+06
2.02422e+06
2.01062e+06
1.9968e+06
1.98281e+06
1.96863e+06
1.95427e+06
1.93972e+06
1.92498e+06
1.91003e+06
1.89486e+06
1.87946e+06
1.86381e+06
1.84791e+06
1.83176e+06
1.81536e+06
1.7987e+06
1.78181e+06
1.76468e+06
1.74733e+06
1.72979e+06
1.71205e+06
2.21811e+06
2.20141e+06
2.20254e+06
2.18787e+06
2.18433e+06
2.17298e+06
2.16704e+06
2.15721e+06
2.14962e+06
2.1399e+06
2.13092e+06
2.12065e+06
2.1104e+06
2.09928e+06
2.08789e+06
2.07586e+06
2.06351e+06
2.0507e+06
2.03762e+06
2.02424e+06
2.01064e+06
1.99683e+06
1.98284e+06
1.96866e+06
1.9543e+06
1.93975e+06
1.925e+06
1.91005e+06
1.89487e+06
1.87946e+06
1.86381e+06
1.84791e+06
1.83175e+06
1.81534e+06
1.79869e+06
1.78179e+06
1.76466e+06
1.74732e+06
1.72978e+06
1.71205e+06
2.218e+06
2.20129e+06
2.20243e+06
2.18778e+06
2.18427e+06
2.17297e+06
2.16707e+06
2.15727e+06
2.14969e+06
2.13998e+06
2.13098e+06
2.1207e+06
2.11044e+06
2.09929e+06
2.08789e+06
2.07585e+06
2.0635e+06
2.05069e+06
2.03762e+06
2.02425e+06
2.01066e+06
1.99685e+06
1.98287e+06
1.96869e+06
1.95433e+06
1.93978e+06
1.92503e+06
1.91007e+06
1.89488e+06
1.87946e+06
1.86379e+06
1.84788e+06
1.83171e+06
1.8153e+06
1.79864e+06
1.78174e+06
1.76461e+06
1.74727e+06
1.72974e+06
1.71202e+06
2.21766e+06
2.20093e+06
2.20211e+06
2.18757e+06
2.18415e+06
2.17292e+06
2.16706e+06
2.15729e+06
2.14972e+06
2.14e+06
2.13098e+06
2.12067e+06
2.11038e+06
2.09922e+06
2.08781e+06
2.07578e+06
2.06344e+06
2.05066e+06
2.03762e+06
2.02427e+06
2.01071e+06
1.99693e+06
1.98296e+06
1.96879e+06
1.95444e+06
1.93989e+06
1.92513e+06
1.91015e+06
1.89494e+06
1.8795e+06
1.8638e+06
1.84786e+06
1.83167e+06
1.81523e+06
1.79855e+06
1.78165e+06
1.76452e+06
1.74719e+06
1.72967e+06
1.71196e+06
2.21749e+06
2.20067e+06
2.20184e+06
2.18737e+06
2.18406e+06
2.17296e+06
2.16719e+06
2.15749e+06
2.14994e+06
2.14021e+06
2.13112e+06
2.12073e+06
2.11036e+06
2.09911e+06
2.08765e+06
2.07559e+06
2.06324e+06
2.05049e+06
2.03749e+06
2.0242e+06
2.0107e+06
1.99696e+06
1.98303e+06
1.9689e+06
1.95457e+06
1.94002e+06
1.92525e+06
1.91025e+06
1.89501e+06
1.87951e+06
1.86377e+06
1.84778e+06
1.83155e+06
1.81507e+06
1.79837e+06
1.78146e+06
1.76433e+06
1.74701e+06
1.72952e+06
1.71185e+06
2.21688e+06
2.19996e+06
2.20122e+06
2.187e+06
2.18386e+06
2.1729e+06
2.16722e+06
2.15755e+06
2.14997e+06
2.14017e+06
2.13099e+06
2.12047e+06
2.10998e+06
2.09866e+06
2.08717e+06
2.07514e+06
2.06288e+06
2.05023e+06
2.03734e+06
2.02416e+06
2.01073e+06
1.99705e+06
1.98315e+06
1.96902e+06
1.95467e+06
1.94009e+06
1.92529e+06
1.91024e+06
1.89495e+06
1.87941e+06
1.86363e+06
1.84762e+06
1.83137e+06
1.81489e+06
1.79819e+06
1.7813e+06
1.76419e+06
1.74689e+06
1.72942e+06
1.71177e+06
1.69393e+06
1.67599e+06
1.65789e+06
1.63964e+06
1.62122e+06
1.60264e+06
1.58388e+06
1.56498e+06
1.54593e+06
1.52675e+06
1.69401e+06
1.67603e+06
1.65789e+06
1.63961e+06
1.62117e+06
1.60258e+06
1.58382e+06
1.56492e+06
1.54588e+06
1.5267e+06
1.69409e+06
1.67606e+06
1.65788e+06
1.63956e+06
1.62109e+06
1.60248e+06
1.58372e+06
1.56483e+06
1.5458e+06
1.52663e+06
1.69413e+06
1.67607e+06
1.65787e+06
1.63952e+06
1.62104e+06
1.60241e+06
1.58365e+06
1.56476e+06
1.54573e+06
1.52658e+06
1.69414e+06
1.67608e+06
1.65787e+06
1.63951e+06
1.62101e+06
1.60238e+06
1.58362e+06
1.56473e+06
1.54571e+06
1.52656e+06
1.69414e+06
1.67608e+06
1.65786e+06
1.6395e+06
1.621e+06
1.60237e+06
1.5836e+06
1.56471e+06
1.54569e+06
1.52655e+06
1.69414e+06
1.67608e+06
1.65786e+06
1.63949e+06
1.621e+06
1.60236e+06
1.5836e+06
1.56471e+06
1.54569e+06
1.52654e+06
1.69414e+06
1.67608e+06
1.65786e+06
1.6395e+06
1.621e+06
1.60237e+06
1.58361e+06
1.56472e+06
1.5457e+06
1.52655e+06
1.69413e+06
1.67607e+06
1.65786e+06
1.63951e+06
1.62102e+06
1.60239e+06
1.58363e+06
1.56473e+06
1.54571e+06
1.52655e+06
1.69409e+06
1.67605e+06
1.65786e+06
1.63953e+06
1.62105e+06
1.60243e+06
1.58367e+06
1.56477e+06
1.54574e+06
1.52658e+06
1.69401e+06
1.676e+06
1.65785e+06
1.63953e+06
1.62107e+06
1.60246e+06
1.5837e+06
1.5648e+06
1.54577e+06
1.52659e+06
1.69394e+06
1.67595e+06
1.6578e+06
1.63949e+06
1.62103e+06
1.60242e+06
1.58365e+06
1.56475e+06
1.5457e+06
1.52652e+06
1.50743e+06
1.48794e+06
1.46831e+06
1.44857e+06
1.42873e+06
1.40878e+06
1.38874e+06
1.36861e+06
1.34839e+06
1.32807e+06
1.30766e+06
1.28719e+06
1.26664e+06
1.246e+06
1.22531e+06
1.20454e+06
1.18372e+06
1.16283e+06
1.1419e+06
1.12092e+06
1.09991e+06
1.07883e+06
1.05775e+06
1.03661e+06
1.01548e+06
994287
973126
951896
930734
909468
888326
867049
845942
824641
803583
782236
761176
739814
718458
697664
1.50738e+06
1.48792e+06
1.46832e+06
1.4486e+06
1.42878e+06
1.40885e+06
1.38881e+06
1.36868e+06
1.34846e+06
1.32814e+06
1.30773e+06
1.28725e+06
1.2667e+06
1.24606e+06
1.22536e+06
1.20459e+06
1.18377e+06
1.16288e+06
1.14195e+06
1.12097e+06
1.09995e+06
1.07888e+06
1.05779e+06
1.03666e+06
1.01553e+06
994334
973173
951942
930777
909511
888368
867088
845978
824677
803620
782272
761215
739848
718523
697709
1.50733e+06
1.4879e+06
1.46833e+06
1.44865e+06
1.42884e+06
1.40892e+06
1.3889e+06
1.36876e+06
1.34854e+06
1.32821e+06
1.3078e+06
1.2873e+06
1.26673e+06
1.24609e+06
1.22538e+06
1.2046e+06
1.18378e+06
1.16289e+06
1.14196e+06
1.12097e+06
1.09996e+06
1.07889e+06
1.05782e+06
1.03668e+06
1.01556e+06
994363
973205
951971
930807
909542
888396
867114
846005
824701
803638
782290
761229
739868
718550
697718
1.50729e+06
1.48787e+06
1.46833e+06
1.44866e+06
1.42887e+06
1.40896e+06
1.38894e+06
1.36881e+06
1.34859e+06
1.32826e+06
1.30784e+06
1.28734e+06
1.26676e+06
1.2461e+06
1.22539e+06
1.20461e+06
1.18377e+06
1.16288e+06
1.14195e+06
1.12097e+06
1.09996e+06
1.07889e+06
1.05782e+06
1.03668e+06
1.01556e+06
994373
973219
951988
930825
909561
888414
867131
846020
824713
803650
782298
761239
739874
718567
697724
1.50728e+06
1.48787e+06
1.46833e+06
1.44867e+06
1.42889e+06
1.40899e+06
1.38897e+06
1.36884e+06
1.34861e+06
1.32828e+06
1.30786e+06
1.28735e+06
1.26677e+06
1.24611e+06
1.22539e+06
1.2046e+06
1.18377e+06
1.16288e+06
1.14195e+06
1.12096e+06
1.09995e+06
1.07889e+06
1.05782e+06
1.03669e+06
1.01557e+06
994381
973229
951998
930836
909573
888426
867141
846031
824722
803656
782303
761242
739876
718572
697719
1.50727e+06
1.48787e+06
1.46833e+06
1.44868e+06
1.4289e+06
1.409e+06
1.38898e+06
1.36885e+06
1.34862e+06
1.32829e+06
1.30786e+06
1.28736e+06
1.26677e+06
1.24611e+06
1.22539e+06
1.2046e+06
1.18377e+06
1.16287e+06
1.14194e+06
1.12096e+06
1.09995e+06
1.07889e+06
1.05782e+06
1.03669e+06
1.01557e+06
994384
973233
952003
930841
909577
888430
867144
846033
824724
803657
782304
761243
739876
718576
697720
1.50727e+06
1.48787e+06
1.46833e+06
1.44868e+06
1.4289e+06
1.409e+06
1.38898e+06
1.36885e+06
1.34862e+06
1.32829e+06
1.30787e+06
1.28736e+06
1.26677e+06
1.24611e+06
1.22539e+06
1.2046e+06
1.18377e+06
1.16287e+06
1.14194e+06
1.12096e+06
1.09995e+06
1.07889e+06
1.05782e+06
1.03669e+06
1.01557e+06
994385
973233
952003
930841
909577
888430
867144
846033
824724
803657
782304
761243
739876
718576
697720
1.50727e+06
1.48786e+06
1.46833e+06
1.44867e+06
1.42889e+06
1.40899e+06
1.38897e+06
1.36884e+06
1.34861e+06
1.32828e+06
1.30786e+06
1.28735e+06
1.26677e+06
1.24611e+06
1.22539e+06
1.2046e+06
1.18377e+06
1.16288e+06
1.14195e+06
1.12096e+06
1.09995e+06
1.07889e+06
1.05782e+06
1.03669e+06
1.01557e+06
994382
973230
951999
930837
909573
888426
867141
846030
824722
803655
782303
761242
739876
718572
697719
1.50727e+06
1.48786e+06
1.46832e+06
1.44865e+06
1.42887e+06
1.40896e+06
1.38895e+06
1.36882e+06
1.34859e+06
1.32826e+06
1.30784e+06
1.28734e+06
1.26676e+06
1.2461e+06
1.22538e+06
1.2046e+06
1.18377e+06
1.16288e+06
1.14195e+06
1.12097e+06
1.09996e+06
1.07889e+06
1.05782e+06
1.03669e+06
1.01556e+06
994376
973222
951991
930826
909561
888414
867130
846020
824713
803649
782298
761238
739873
718567
697724
1.50729e+06
1.48786e+06
1.46831e+06
1.44863e+06
1.42884e+06
1.40892e+06
1.3889e+06
1.36877e+06
1.34854e+06
1.32822e+06
1.3078e+06
1.28731e+06
1.26673e+06
1.24608e+06
1.22537e+06
1.2046e+06
1.18377e+06
1.16288e+06
1.14196e+06
1.12097e+06
1.09996e+06
1.0789e+06
1.05782e+06
1.03668e+06
1.01556e+06
994367
973210
951975
930810
909543
888396
867113
846005
824700
803638
782289
761228
739867
718550
697718
1.50728e+06
1.48784e+06
1.46826e+06
1.44857e+06
1.42877e+06
1.40885e+06
1.38882e+06
1.3687e+06
1.34847e+06
1.32815e+06
1.30775e+06
1.28727e+06
1.2667e+06
1.24605e+06
1.22535e+06
1.20458e+06
1.18376e+06
1.16288e+06
1.14195e+06
1.12097e+06
1.09995e+06
1.07888e+06
1.0578e+06
1.03666e+06
1.01553e+06
994340
973182
951948
930779
909511
888368
867087
845978
824677
803620
782272
761214
739848
718523
697709
1.5072e+06
1.48776e+06
1.46818e+06
1.44849e+06
1.42868e+06
1.40876e+06
1.38874e+06
1.36862e+06
1.34839e+06
1.32808e+06
1.30768e+06
1.2872e+06
1.26664e+06
1.246e+06
1.22529e+06
1.20453e+06
1.18371e+06
1.16283e+06
1.1419e+06
1.12092e+06
1.0999e+06
1.07883e+06
1.05775e+06
1.03661e+06
1.01548e+06
994290
973133
951901
930736
909468
888326
867048
845941
824642
803583
782236
761176
739814
718458
697664
)
;

boundaryField
{
    upperWall
    {
        type            calculated;
        value           nonuniform List<scalar> 
90
(
2.21688e+06
2.19996e+06
2.20122e+06
2.187e+06
2.18386e+06
2.1729e+06
2.16722e+06
2.15755e+06
2.14997e+06
2.14017e+06
2.13099e+06
2.12047e+06
2.10998e+06
2.09866e+06
2.08717e+06
2.07514e+06
2.06288e+06
2.05023e+06
2.03734e+06
2.02416e+06
2.01073e+06
1.99705e+06
1.98315e+06
1.96902e+06
1.95467e+06
1.94009e+06
1.92529e+06
1.91024e+06
1.89495e+06
1.87941e+06
1.86363e+06
1.84762e+06
1.83137e+06
1.81489e+06
1.79819e+06
1.7813e+06
1.76419e+06
1.74689e+06
1.72942e+06
1.71177e+06
1.69394e+06
1.67595e+06
1.6578e+06
1.63949e+06
1.62103e+06
1.60242e+06
1.58365e+06
1.56475e+06
1.5457e+06
1.52652e+06
1.5072e+06
1.48776e+06
1.46818e+06
1.44849e+06
1.42868e+06
1.40876e+06
1.38874e+06
1.36862e+06
1.34839e+06
1.32808e+06
1.30768e+06
1.2872e+06
1.26664e+06
1.246e+06
1.22529e+06
1.20453e+06
1.18371e+06
1.16283e+06
1.1419e+06
1.12092e+06
1.0999e+06
1.07883e+06
1.05775e+06
1.03661e+06
1.01548e+06
994290
973133
951901
930736
909468
888326
867048
845941
824642
803583
782236
761176
739814
718458
697664
)
;
    }
    lowerWall
    {
        type            calculated;
        value           nonuniform List<scalar> 
80
(
2.21688e+06
2.19996e+06
2.20122e+06
2.187e+06
2.18386e+06
2.1729e+06
2.16722e+06
2.15755e+06
2.14997e+06
2.14017e+06
2.13099e+06
2.12047e+06
2.10998e+06
2.09866e+06
2.08717e+06
2.07515e+06
2.06288e+06
2.05023e+06
2.03734e+06
2.02415e+06
2.01072e+06
1.99705e+06
1.98315e+06
1.96902e+06
1.95467e+06
1.94009e+06
1.92528e+06
1.91024e+06
1.89496e+06
1.87942e+06
1.86363e+06
1.84761e+06
1.83137e+06
1.81489e+06
1.7982e+06
1.7813e+06
1.76419e+06
1.74689e+06
1.72942e+06
1.71176e+06
1.50743e+06
1.48794e+06
1.46831e+06
1.44857e+06
1.42873e+06
1.40878e+06
1.38874e+06
1.36861e+06
1.34839e+06
1.32807e+06
1.30766e+06
1.28719e+06
1.26664e+06
1.246e+06
1.22531e+06
1.20454e+06
1.18372e+06
1.16283e+06
1.1419e+06
1.12092e+06
1.09991e+06
1.07883e+06
1.05775e+06
1.03661e+06
1.01548e+06
994287
973126
951896
930734
909468
888326
867049
845942
824641
803583
782236
761176
739814
718458
697664
)
;
    }
    heatedWall
    {
        type            calculated;
        value           nonuniform List<scalar> 10(1.69393e+06 1.67599e+06 1.65789e+06 1.63964e+06 1.62122e+06 1.60264e+06 1.58388e+06 1.56498e+06 1.54593e+06 1.52675e+06);
    }
    inlet
    {
        type            calculated;
        value           nonuniform List<scalar> 
12
(
2.21688e+06
2.21749e+06
2.21766e+06
2.218e+06
2.21811e+06
2.21822e+06
2.21822e+06
2.21811e+06
2.218e+06
2.21766e+06
2.21749e+06
2.21688e+06
)
;
    }
    outlet
    {
        type            calculated;
        value           nonuniform List<scalar> 
12
(
686060
686100
686108
686114
686109
686109
686109
686109
686113
686108
686100
686060
)
;
    }
    frontAndBack
    {
        type            empty;
    }
}


// ************************************************************************* //
