/*--------------------------------*- C++ -*----------------------------------*\
  =========                 |
  \\      /  F ield         | OpenFOAM: The Open Source CFD Toolbox
   \\    /   O peration     | Website:  https://openfoam.org
    \\  /    A nd           | Version:  7
     \\/     M anipulation  |
\*---------------------------------------------------------------------------*/
FoamFile
{
    version     2.0;
    format      ascii;
    class       volVectorField;
    location    "4.95";
    object      U;
}
// * * * * * * * * * * * * * * * * * * * * * * * * * * * * * * * * * * * * * //

dimensions      [0 1 -1 0 0 0 0];

internalField   nonuniform List<vector> 
1800
(
(4.4367 0.129462 0)
(3.84789 0.247948 0)
(3.15974 0.203977 0)
(2.58183 0.119981 0)
(2.15945 0.0515462 0)
(1.88416 0.00981033 0)
(1.70985 -0.00955974 0)
(1.60168 -0.0164472 0)
(1.53401 -0.0167225 0)
(1.489 -0.014421 0)
(1.45635 -0.0114365 0)
(1.43048 -0.00870351 0)
(1.40837 -0.00646569 0)
(1.38855 -0.00475362 0)
(1.37031 -0.00349455 0)
(1.35338 -0.00256307 0)
(1.33762 -0.00188601 0)
(1.32295 -0.0014125 0)
(1.3093 -0.00108337 0)
(1.29661 -0.000858637 0)
(1.28478 -0.000707239 0)
(1.27376 -0.000607857 0)
(1.26343 -0.00054893 0)
(1.25376 -0.000518189 0)
(1.24473 -0.000490779 0)
(1.23588 -0.000508208 0)
(1.22861 -0.000554989 0)
(1.21989 -0.000466311 0)
(1.21747 -0.00747284 0)
(1.23952 0.0047136 0)
(4.52887 0.131804 0)
(4.67681 0.278371 0)
(4.73963 0.318822 0)
(4.68549 0.292489 0)
(4.5573 0.234672 0)
(4.40632 0.172674 0)
(4.25683 0.122432 0)
(4.12117 0.0860674 0)
(4.00293 0.0610665 0)
(3.90097 0.0444513 0)
(3.81281 0.0335704 0)
(3.73624 0.0264787 0)
(3.66923 0.0217174 0)
(3.61014 0.0183385 0)
(3.55765 0.0157935 0)
(3.51074 0.013807 0)
(3.46856 0.012204 0)
(3.43044 0.0108952 0)
(3.39581 0.00979307 0)
(3.36417 0.00888283 0)
(3.33517 0.00809204 0)
(3.30839 0.00746324 0)
(3.28363 0.0068809 0)
(3.26061 0.00649342 0)
(3.23885 0.00597583 0)
(3.21935 0.00593362 0)
(3.1984 0.00479596 0)
(3.1853 0.00585264 0)
(3.15533 -0.00107912 0)
(3.16872 0.00470942 0)
(4.50448 0.0609452 0)
(4.62789 0.170332 0)
(4.81945 0.218011 0)
(4.99471 0.214504 0)
(5.11769 0.183508 0)
(5.1897 0.144706 0)
(5.22228 0.11256 0)
(5.22853 0.0893678 0)
(5.21911 0.0732484 0)
(5.2008 0.0619746 0)
(5.17727 0.0538812 0)
(5.15068 0.0478611 0)
(5.12224 0.0430896 0)
(5.0927 0.0390692 0)
(5.06266 0.0355328 0)
(5.03248 0.0323741 0)
(5.00251 0.0295143 0)
(4.97289 0.0269677 0)
(4.94393 0.0246361 0)
(4.91562 0.0226159 0)
(4.88819 0.0206858 0)
(4.86169 0.0191792 0)
(4.83587 0.0174765 0)
(4.81175 0.0166177 0)
(4.78683 0.0147058 0)
(4.76663 0.0150294 0)
(4.7396 0.0114916 0)
(4.72853 0.0147777 0)
(4.68902 0.00518105 0)
(4.70327 0.0190149 0)
(4.50442 0.0518832 0)
(4.59556 0.131171 0)
(4.75527 0.160935 0)
(4.93113 0.159448 0)
(5.08873 0.142478 0)
(5.21631 0.119276 0)
(5.31387 0.0979279 0)
(5.38755 0.081282 0)
(5.44486 0.0691328 0)
(5.49128 0.0603127 0)
(5.53023 0.0539078 0)
(5.56359 0.0491973 0)
(5.59247 0.0456269 0)
(5.61754 0.0427764 0)
(5.63926 0.0403357 0)
(5.65794 0.0381743 0)
(5.67386 0.0361787 0)
(5.68725 0.0343845 0)
(5.69831 0.032647 0)
(5.70735 0.0311483 0)
(5.71431 0.0295523 0)
(5.71993 0.0283898 0)
(5.72329 0.0267726 0)
(5.72655 0.0261359 0)
(5.72625 0.0241189 0)
(5.7288 0.024466 0)
(5.72337 0.0211079 0)
(5.72852 0.0233926 0)
(5.71289 0.0173502 0)
(5.72759 0.0246039 0)
(4.50395 0.0218776 0)
(4.58651 0.0649603 0)
(4.73234 0.0834772 0)
(4.89561 0.0835233 0)
(5.0449 0.0731521 0)
(5.17026 0.0584634 0)
(5.27124 0.0449913 0)
(5.3518 0.0351306 0)
(5.41799 0.0282217 0)
(5.4749 0.0236051 0)
(5.52582 0.0205851 0)
(5.5726 0.0186415 0)
(5.61625 0.0173653 0)
(5.65735 0.0164824 0)
(5.69629 0.0157938 0)
(5.73331 0.0152421 0)
(5.76855 0.0147405 0)
(5.80213 0.0143581 0)
(5.83412 0.0139517 0)
(5.86463 0.0137256 0)
(5.89369 0.0133354 0)
(5.92143 0.0133347 0)
(5.94784 0.0128512 0)
(5.97304 0.0132458 0)
(5.99704 0.0124026 0)
(6.01979 0.0134926 0)
(6.04149 0.0117494 0)
(6.06164 0.0140236 0)
(6.0816 0.0114793 0)
(6.09992 0.0170752 0)
(4.50361 0.00632022 0)
(4.58049 0.023501 0)
(4.71925 0.0306092 0)
(4.87785 0.0307674 0)
(5.02459 0.027535 0)
(5.14885 0.0233205 0)
(5.24953 0.0196995 0)
(5.32992 0.0169759 0)
(5.39593 0.0149022 0)
(5.45273 0.0133178 0)
(5.50361 0.0121101 0)
(5.55046 0.0111015 0)
(5.59437 0.0101917 0)
(5.63598 0.00936598 0)
(5.67573 0.00861628 0)
(5.71384 0.00796201 0)
(5.75053 0.00737383 0)
(5.78585 0.00687963 0)
(5.82 0.00641323 0)
(5.85291 0.00606437 0)
(5.88493 0.0056852 0)
(5.91575 0.00549123 0)
(5.94604 0.00515017 0)
(5.97489 0.00517464 0)
(6.00386 0.00478501 0)
(6.03055 0.00515194 0)
(6.05877 0.00456388 0)
(6.08264 0.00549126 0)
(6.11177 0.0047797 0)
(6.1331 0.00696589 0)
(4.5036 -0.0145005 0)
(4.58045 -0.0312641 0)
(4.71921 -0.0385756 0)
(4.87781 -0.0388844 0)
(5.02456 -0.0357994 0)
(5.14883 -0.0317122 0)
(5.24951 -0.0282031 0)
(5.3299 -0.0255684 0)
(5.39591 -0.0235686 0)
(5.45272 -0.0220347 0)
(5.50361 -0.0208567 0)
(5.55046 -0.0198539 0)
(5.59438 -0.0189087 0)
(5.63599 -0.0180141 0)
(5.67575 -0.0171771 0)
(5.71387 -0.0164014 0)
(5.75056 -0.0156723 0)
(5.78588 -0.0149954 0)
(5.82004 -0.0143472 0)
(5.85296 -0.0137368 0)
(5.88499 -0.013124 0)
(5.91581 -0.0125578 0)
(5.94611 -0.0119422 0)
(5.97497 -0.0113899 0)
(6.00396 -0.0107123 0)
(6.03068 -0.0100998 0)
(6.05892 -0.00929304 0)
(6.08282 -0.00846562 0)
(6.11194 -0.00794662 0)
(6.13324 -0.00711442 0)
(4.5039 -0.0293771 0)
(4.58641 -0.0721612 0)
(4.73224 -0.0908889 0)
(4.89551 -0.091081 0)
(5.04481 -0.080841 0)
(5.17018 -0.0662637 0)
(5.27117 -0.0528999 0)
(5.35174 -0.0431283 0)
(5.41794 -0.036292 0)
(5.47487 -0.0317316 0)
(5.52581 -0.0287389 0)
(5.57262 -0.0267786 0)
(5.61627 -0.025468 0)
(5.6574 -0.0245263 0)
(5.69634 -0.0237577 0)
(5.73339 -0.0230935 0)
(5.76864 -0.0224593 0)
(5.80226 -0.0219037 0)
(5.83424 -0.0213166 0)
(5.86481 -0.0208559 0)
(5.89386 -0.0202515 0)
(5.9217 -0.0199003 0)
(5.94808 -0.0191589 0)
(5.97348 -0.0189935 0)
(5.99739 -0.0178815 0)
(6.0205 -0.0180144 0)
(6.04208 -0.0160891 0)
(6.06285 -0.0165754 0)
(6.08254 -0.014301 0)
(6.1017 -0.0166471 0)
(4.50431 -0.0583295 0)
(4.59535 -0.137342 0)
(4.75508 -0.167297 0)
(4.93098 -0.165939 0)
(5.08859 -0.149071 0)
(5.21619 -0.125971 0)
(5.31376 -0.104706 0)
(5.38746 -0.0881429 0)
(5.4448 -0.0760558 0)
(5.49125 -0.0672786 0)
(5.53024 -0.0608936 0)
(5.56363 -0.0561809 0)
(5.59254 -0.052587 0)
(5.61765 -0.0496883 0)
(5.63939 -0.0471771 0)
(5.65813 -0.0449188 0)
(5.67405 -0.0428104 0)
(5.68754 -0.0408688 0)
(5.69857 -0.0389823 0)
(5.70777 -0.0372766 0)
(5.71465 -0.0354929 0)
(5.72058 -0.0340233 0)
(5.72376 -0.0321862 0)
(5.72762 -0.0310671 0)
(5.72696 -0.0288267 0)
(5.73065 -0.0283355 0)
(5.72458 -0.0248393 0)
(5.73176 -0.0255063 0)
(5.71504 -0.0196938 0)
(5.73276 -0.0236896 0)
(4.50436 -0.0658701 0)
(4.62764 -0.175055 0)
(4.81922 -0.22287 0)
(4.99452 -0.219448 0)
(5.11755 -0.188538 0)
(5.18959 -0.149819 0)
(5.2222 -0.117753 0)
(5.2285 -0.0946291 0)
(5.21912 -0.078563 0)
(5.20085 -0.0673202 0)
(5.17736 -0.0592404 0)
(5.15082 -0.0532153 0)
(5.12242 -0.0484244 0)
(5.09294 -0.044363 0)
(5.06294 -0.0407767 0)
(5.03282 -0.0375412 0)
(5.00288 -0.0346022 0)
(4.97338 -0.0319368 0)
(4.94439 -0.0294997 0)
(4.91631 -0.027304 0)
(4.88878 -0.0252515 0)
(4.86275 -0.0234744 0)
(4.83665 -0.0216547 0)
(4.81351 -0.0203454 0)
(4.78794 -0.0183848 0)
(4.76971 -0.0178713 0)
(4.7414 -0.0145255 0)
(4.73399 -0.0160671 0)
(4.69232 -0.00722594 0)
(4.71207 -0.0163945 0)
(4.52867 -0.134856 0)
(4.6765 -0.281337 0)
(4.73942 -0.321877 0)
(4.68536 -0.295597 0)
(4.55723 -0.23783 0)
(4.40629 -0.175882 0)
(4.25682 -0.125688 0)
(4.1212 -0.089367 0)
(4.003 -0.0643998 0)
(3.90108 -0.0478084 0)
(3.81297 -0.0369355 0)
(3.73645 -0.0298442 0)
(3.66948 -0.0250762 0)
(3.61045 -0.0216785 0)
(3.558 -0.0190998 0)
(3.51116 -0.017065 0)
(3.46901 -0.0154095 0)
(3.431 -0.0140289 0)
(3.39637 -0.0128576 0)
(3.36495 -0.0118433 0)
(3.3359 -0.0109691 0)
(3.30956 -0.0101833 0)
(3.28461 -0.00951707 0)
(3.26252 -0.00887669 0)
(3.24028 -0.00831268 0)
(3.22268 -0.0078053 0)
(3.20068 -0.00677784 0)
(3.19128 -0.00682856 0)
(3.15975 -0.000469188 0)
(3.17842 -0.00320715 0)
(4.43657 -0.130562 0)
(3.84763 -0.248977 0)
(3.15955 -0.205029 0)
(2.58169 -0.121051 0)
(2.15933 -0.0526346 0)
(1.88407 -0.0109162 0)
(1.70978 0.00843927 0)
(1.60163 0.0153153 0)
(1.534 0.0155831 0)
(1.48903 0.0132804 0)
(1.45643 0.0102933 0)
(1.4306 0.00755937 0)
(1.40854 0.00532301 0)
(1.38877 0.00361518 0)
(1.37057 0.00236942 0)
(1.35369 0.00145452 0)
(1.33797 0.000795749 0)
(1.32339 0.000344734 0)
(1.30978 3.88572e-05 0)
(1.29722 -0.000154287 0)
(1.28542 -0.000277575 0)
(1.27465 -0.000332117 0)
(1.26436 -0.000359932 0)
(1.25517 -0.00032794 0)
(1.24616 -0.000321146 0)
(1.23823 -0.000223213 0)
(1.23093 -0.000112036 0)
(1.22392 -0.000149233 0)
(1.22155 0.00674206 0)
(1.24309 -0.00544722 0)
(1.16042 0.00574564 0)
(1.1893 0.000482151 0)
(1.16048 0.000326738 0)
(1.14513 0.000134766 0)
(1.13623 0.000307269 0)
(1.12874 0.000403589 0)
(1.12271 0.00043025 0)
(1.11849 0.000457424 0)
(1.11587 0.000494369 0)
(1.11442 0.000531127 0)
(1.11381 0.000573774 0)
(1.11379 0.000594539 0)
(1.11412 0.000606543 0)
(1.11465 0.000617233 0)
(1.11528 0.000622353 0)
(1.11595 0.000609475 0)
(1.1166 0.000595874 0)
(1.11723 0.000576152 0)
(1.11783 0.000549897 0)
(1.11839 0.000523767 0)
(1.11892 0.000493057 0)
(1.11942 0.000459457 0)
(1.1199 0.000427812 0)
(1.12036 0.000392062 0)
(1.12079 0.000357561 0)
(1.12122 0.00032588 0)
(1.12164 0.000294303 0)
(1.12204 0.000263871 0)
(1.12243 0.000236779 0)
(1.12282 0.000209297 0)
(1.1232 0.000185259 0)
(1.12358 0.000164421 0)
(1.12395 0.000143044 0)
(1.12432 0.000125445 0)
(1.12469 0.000109387 0)
(1.12505 9.41138e-05 0)
(1.1254 8.22941e-05 0)
(1.12576 7.18609e-05 0)
(1.12611 6.13234e-05 0)
(1.12646 5.32288e-05 0)
(1.1268 4.61975e-05 0)
(1.12714 3.91799e-05 0)
(1.12748 3.50083e-05 0)
(1.12781 3.01095e-05 0)
(1.12815 2.62793e-05 0)
(1.12848 2.30239e-05 0)
(1.1288 1.99106e-05 0)
(1.12913 1.71365e-05 0)
(1.12945 1.57447e-05 0)
(1.12977 1.33936e-05 0)
(1.13008 1.16392e-05 0)
(1.13039 1.08384e-05 0)
(1.1307 9.63494e-06 0)
(1.13101 8.40071e-06 0)
(1.13131 7.79681e-06 0)
(1.13161 6.61434e-06 0)
(1.13191 6.13222e-06 0)
(1.13221 6.07692e-06 0)
(1.1325 5.63802e-06 0)
(1.13279 5.38778e-06 0)
(1.13308 5.51881e-06 0)
(1.13337 5.08163e-06 0)
(1.13365 4.90209e-06 0)
(1.13393 4.8851e-06 0)
(1.13421 4.52273e-06 0)
(1.13449 4.56432e-06 0)
(1.13476 4.67009e-06 0)
(1.13503 4.38991e-06 0)
(1.1353 4.25995e-06 0)
(1.13557 3.95535e-06 0)
(1.13584 3.40812e-06 0)
(1.1361 3.27832e-06 0)
(1.13636 3.28287e-06 0)
(1.13662 3.16552e-06 0)
(1.13688 3.07917e-06 0)
(1.13713 2.79276e-06 0)
(1.13739 2.50639e-06 0)
(1.13764 2.46239e-06 0)
(1.13789 2.27974e-06 0)
(1.13814 2.01844e-06 0)
(1.13838 1.94237e-06 0)
(1.13863 1.88406e-06 0)
(1.13887 1.88699e-06 0)
(1.13911 1.95748e-06 0)
(1.13935 1.86968e-06 0)
(1.13959 1.73696e-06 0)
(1.13983 1.67113e-06 0)
(1.14006 1.66553e-06 0)
(1.1403 1.8241e-06 0)
(1.14053 1.97126e-06 0)
(1.14076 1.97794e-06 0)
(1.14099 2.07432e-06 0)
(1.14122 2.21162e-06 0)
(1.14144 2.2591e-06 0)
(1.14167 2.39402e-06 0)
(1.14189 2.5881e-06 0)
(1.14211 2.696e-06 0)
(1.14233 2.79224e-06 0)
(1.14255 2.84437e-06 0)
(1.14277 2.83575e-06 0)
(1.14298 2.88748e-06 0)
(1.1432 2.97413e-06 0)
(1.14341 3.08596e-06 0)
(1.14362 3.31797e-06 0)
(1.14383 3.5337e-06 0)
(1.14404 3.671e-06 0)
(1.14424 3.86277e-06 0)
(1.14445 4.06734e-06 0)
(1.14465 4.27441e-06 0)
(1.14485 4.491e-06 0)
(1.14505 4.86098e-06 0)
(1.14525 5.02413e-06 0)
(1.14543 5.50068e-06 0)
(1.14564 5.4129e-06 0)
(1.14581 6.3374e-06 0)
(1.14603 5.97126e-06 0)
(1.14617 7.96941e-06 0)
(1.14642 6.20238e-06 0)
(1.14651 1.00668e-05 0)
(1.14685 6.63025e-06 0)
(3.02663 0.00256614 0)
(3.02559 0.00284456 0)
(2.97284 0.00449626 0)
(2.93581 0.00294333 0)
(2.91403 0.00248432 0)
(2.89835 0.00244687 0)
(2.88655 0.00230626 0)
(2.87853 0.0021568 0)
(2.87377 0.00202355 0)
(2.87143 0.00193225 0)
(2.87074 0.00188485 0)
(2.87117 0.00186938 0)
(2.87225 0.00184207 0)
(2.87368 0.00183216 0)
(2.87529 0.00182591 0)
(2.87692 0.00178698 0)
(2.87852 0.00174074 0)
(2.88007 0.00168316 0)
(2.88152 0.00160922 0)
(2.88291 0.00153501 0)
(2.88423 0.00144583 0)
(2.88548 0.00134881 0)
(2.88668 0.00125924 0)
(2.88784 0.00115665 0)
(2.88896 0.00105781 0)
(2.89006 0.000967889 0)
(2.89113 0.000869126 0)
(2.89217 0.000780575 0)
(2.8932 0.000699698 0)
(2.89421 0.000619985 0)
(2.89521 0.000550567 0)
(2.89619 0.000487729 0)
(2.89717 0.000425128 0)
(2.89813 0.000374077 0)
(2.89908 0.000328426 0)
(2.90002 0.000284414 0)
(2.90095 0.000248659 0)
(2.90188 0.000216801 0)
(2.90279 0.000186266 0)
(2.9037 0.000163176 0)
(2.90459 0.000141313 0)
(2.90548 0.000121412 0)
(2.90636 0.000107432 0)
(2.90723 9.42722e-05 0)
(2.9081 8.19053e-05 0)
(2.90895 7.36628e-05 0)
(2.9098 6.45496e-05 0)
(2.91064 5.60613e-05 0)
(2.91147 5.17832e-05 0)
(2.9123 4.55903e-05 0)
(2.91311 4.0084e-05 0)
(2.91392 3.69427e-05 0)
(2.91473 3.26742e-05 0)
(2.91552 2.97986e-05 0)
(2.91631 2.81444e-05 0)
(2.91709 2.48297e-05 0)
(2.91786 2.33556e-05 0)
(2.91863 2.33628e-05 0)
(2.91939 2.17279e-05 0)
(2.92015 2.08999e-05 0)
(2.9209 2.09788e-05 0)
(2.92164 1.94837e-05 0)
(2.92237 1.88508e-05 0)
(2.9231 1.86676e-05 0)
(2.92383 1.74863e-05 0)
(2.92454 1.75349e-05 0)
(2.92526 1.77592e-05 0)
(2.92596 1.68342e-05 0)
(2.92666 1.63639e-05 0)
(2.92736 1.53687e-05 0)
(2.92805 1.36436e-05 0)
(2.92873 1.31548e-05 0)
(2.92941 1.30798e-05 0)
(2.93008 1.26483e-05 0)
(2.93075 1.23161e-05 0)
(2.93142 1.13951e-05 0)
(2.93207 1.04468e-05 0)
(2.93273 1.02128e-05 0)
(2.93338 9.58357e-06 0)
(2.93402 8.70376e-06 0)
(2.93466 8.3614e-06 0)
(2.9353 8.0777e-06 0)
(2.93593 7.96763e-06 0)
(2.93655 8.06648e-06 0)
(2.93718 7.70796e-06 0)
(2.93779 7.20082e-06 0)
(2.93841 6.87913e-06 0)
(2.93902 6.72112e-06 0)
(2.93962 7.03905e-06 0)
(2.94022 7.33813e-06 0)
(2.94082 7.22427e-06 0)
(2.94142 7.36253e-06 0)
(2.942 7.62351e-06 0)
(2.94259 7.61695e-06 0)
(2.94317 7.85883e-06 0)
(2.94375 8.27535e-06 0)
(2.94432 8.4379e-06 0)
(2.94489 8.56221e-06 0)
(2.94545 8.55448e-06 0)
(2.94601 8.35909e-06 0)
(2.94657 8.3331e-06 0)
(2.94712 8.40685e-06 0)
(2.94767 8.54382e-06 0)
(2.94821 9.0321e-06 0)
(2.94875 9.45867e-06 0)
(2.94929 9.66005e-06 0)
(2.94981 9.98285e-06 0)
(2.95034 1.03811e-05 0)
(2.95086 1.07038e-05 0)
(2.95138 1.11742e-05 0)
(2.95188 1.18944e-05 0)
(2.9524 1.23059e-05 0)
(2.95288 1.3157e-05 0)
(2.95341 1.30633e-05 0)
(2.95385 1.48485e-05 0)
(2.95441 1.44346e-05 0)
(2.95478 1.86609e-05 0)
(2.95542 1.51369e-05 0)
(2.95564 2.26841e-05 0)
(2.9565 1.54736e-05 0)
(4.52919 0.0252446 0)
(4.46467 0.0120573 0)
(4.38972 0.010495 0)
(4.33897 0.00745189 0)
(4.31028 0.0058064 0)
(4.29221 0.00507177 0)
(4.28008 0.00437166 0)
(4.27263 0.00383952 0)
(4.26881 0.00345247 0)
(4.26759 0.00321275 0)
(4.26801 0.00306913 0)
(4.26947 0.00300757 0)
(4.27148 0.00294908 0)
(4.27376 0.00292826 0)
(4.27613 0.00290732 0)
(4.27847 0.002852 0)
(4.28073 0.00278746 0)
(4.28289 0.00269982 0)
(4.28494 0.00258398 0)
(4.28689 0.00246881 0)
(4.28877 0.00233115 0)
(4.29056 0.00217769 0)
(4.29229 0.00203334 0)
(4.29397 0.00187339 0)
(4.29561 0.00171578 0)
(4.29721 0.00157158 0)
(4.29878 0.00141424 0)
(4.30032 0.00127194 0)
(4.30184 0.00114565 0)
(4.30333 0.00101856 0)
(4.30481 0.000907284 0)
(4.30627 0.000806623 0)
(4.30772 0.000706606 0)
(4.30914 0.000623965 0)
(4.31056 0.000549936 0)
(4.31196 0.000478857 0)
(4.31334 0.000421446 0)
(4.31471 0.000371133 0)
(4.31607 0.000321081 0)
(4.31741 0.000283035 0)
(4.31874 0.000248874 0)
(4.32006 0.000216614 0)
(4.32137 0.000194398 0)
(4.32266 0.000172622 0)
(4.32394 0.000152944 0)
(4.32522 0.000139625 0)
(4.32648 0.000124407 0)
(4.32772 0.000110646 0)
(4.32896 0.000103381 0)
(4.33018 9.21806e-05 0)
(4.3314 8.39941e-05 0)
(4.3326 7.93705e-05 0)
(4.33379 7.25476e-05 0)
(4.33497 6.77855e-05 0)
(4.33615 6.48428e-05 0)
(4.33731 5.93992e-05 0)
(4.33846 5.67616e-05 0)
(4.3396 5.66658e-05 0)
(4.34073 5.36393e-05 0)
(4.34185 5.21385e-05 0)
(4.34296 5.19171e-05 0)
(4.34407 4.92259e-05 0)
(4.34516 4.79819e-05 0)
(4.34624 4.74333e-05 0)
(4.34732 4.52989e-05 0)
(4.34838 4.51575e-05 0)
(4.34944 4.52907e-05 0)
(4.35049 4.35802e-05 0)
(4.35153 4.26073e-05 0)
(4.35257 4.07893e-05 0)
(4.35359 3.77929e-05 0)
(4.35461 3.67723e-05 0)
(4.35562 3.64244e-05 0)
(4.35662 3.55103e-05 0)
(4.35761 3.47617e-05 0)
(4.3586 3.30756e-05 0)
(4.35958 3.13286e-05 0)
(4.36055 3.07204e-05 0)
(4.36151 2.94924e-05 0)
(4.36247 2.7853e-05 0)
(4.36342 2.70644e-05 0)
(4.36436 2.63741e-05 0)
(4.3653 2.59565e-05 0)
(4.36623 2.58794e-05 0)
(4.36715 2.50815e-05 0)
(4.36807 2.40381e-05 0)
(4.36898 2.32844e-05 0)
(4.36989 2.27836e-05 0)
(4.37078 2.30367e-05 0)
(4.37168 2.32702e-05 0)
(4.37256 2.28476e-05 0)
(4.37344 2.28207e-05 0)
(4.37431 2.29921e-05 0)
(4.37518 2.27367e-05 0)
(4.37604 2.28733e-05 0)
(4.37689 2.32898e-05 0)
(4.37774 2.3303e-05 0)
(4.37858 2.32537e-05 0)
(4.37942 2.29945e-05 0)
(4.38025 2.24308e-05 0)
(4.38107 2.21331e-05 0)
(4.38188 2.19923e-05 0)
(4.38269 2.1947e-05 0)
(4.38349 2.24602e-05 0)
(4.38429 2.28687e-05 0)
(4.38508 2.29215e-05 0)
(4.38586 2.31453e-05 0)
(4.38664 2.35126e-05 0)
(4.3874 2.37069e-05 0)
(4.38817 2.42116e-05 0)
(4.38891 2.49869e-05 0)
(4.38968 2.54612e-05 0)
(4.39039 2.63251e-05 0)
(4.39116 2.6149e-05 0)
(4.39182 2.82253e-05 0)
(4.39264 2.79325e-05 0)
(4.3932 3.31817e-05 0)
(4.39414 2.92554e-05 0)
(4.39446 3.78071e-05 0)
(4.39572 2.94471e-05 0)
(5.6564 0.0392841 0)
(5.61172 0.0249129 0)
(5.53847 0.0181503 0)
(5.48739 0.0118721 0)
(5.46128 0.00863932 0)
(5.44843 0.00729336 0)
(5.44247 0.00622315 0)
(5.44073 0.00534887 0)
(5.44154 0.00471358 0)
(5.44376 0.00430943 0)
(5.44661 0.00406938 0)
(5.4497 0.00395736 0)
(5.4528 0.00387386 0)
(5.45581 0.00383463 0)
(5.45869 0.00380927 0)
(5.46142 0.00374344 0)
(5.46401 0.00365253 0)
(5.46648 0.00354339 0)
(5.46884 0.00339625 0)
(5.47112 0.00324748 0)
(5.47332 0.00306647 0)
(5.47546 0.00286677 0)
(5.47755 0.00268267 0)
(5.47959 0.00247005 0)
(5.4816 0.00226099 0)
(5.48357 0.00207097 0)
(5.48552 0.00186895 0)
(5.48744 0.00168495 0)
(5.48934 0.00151871 0)
(5.49121 0.00135208 0)
(5.49307 0.00120589 0)
(5.4949 0.00107506 0)
(5.49672 0.000944589 0)
(5.49852 0.000836244 0)
(5.5003 0.000739677 0)
(5.50206 0.000646826 0)
(5.50381 0.000570458 0)
(5.50554 0.000502433 0)
(5.50725 0.000439037 0)
(5.50894 0.000388099 0)
(5.51062 0.000344001 0)
(5.51229 0.000301812 0)
(5.51394 0.00027301 0)
(5.51557 0.000243541 0)
(5.51719 0.000217281 0)
(5.5188 0.000198843 0)
(5.52039 0.000179134 0)
(5.52196 0.000161332 0)
(5.52352 0.000150935 0)
(5.52507 0.000137337 0)
(5.52661 0.000126442 0)
(5.52813 0.000120208 0)
(5.52964 0.000111389 0)
(5.53113 0.000104671 0)
(5.53261 0.000100477 0)
(5.53408 9.30801e-05 0)
(5.53553 8.93857e-05 0)
(5.53698 8.89981e-05 0)
(5.53841 8.48555e-05 0)
(5.53983 8.27075e-05 0)
(5.54123 8.22628e-05 0)
(5.54263 7.85734e-05 0)
(5.54401 7.6761e-05 0)
(5.54538 7.58616e-05 0)
(5.54674 7.2883e-05 0)
(5.54809 7.25027e-05 0)
(5.54943 7.2489e-05 0)
(5.55076 7.00677e-05 0)
(5.55208 6.86113e-05 0)
(5.55338 6.60529e-05 0)
(5.55468 6.19514e-05 0)
(5.55596 6.04246e-05 0)
(5.55724 5.97773e-05 0)
(5.5585 5.83927e-05 0)
(5.55976 5.72262e-05 0)
(5.561 5.48376e-05 0)
(5.56224 5.23667e-05 0)
(5.56347 5.1381e-05 0)
(5.56469 4.95888e-05 0)
(5.56589 4.72592e-05 0)
(5.56709 4.60388e-05 0)
(5.56828 4.49474e-05 0)
(5.56946 4.42121e-05 0)
(5.57064 4.39226e-05 0)
(5.5718 4.2694e-05 0)
(5.57296 4.11446e-05 0)
(5.5741 3.99724e-05 0)
(5.57524 3.9129e-05 0)
(5.57637 3.92694e-05 0)
(5.57749 3.93854e-05 0)
(5.57861 3.86458e-05 0)
(5.57971 3.84214e-05 0)
(5.58081 3.8456e-05 0)
(5.5819 3.7932e-05 0)
(5.58298 3.79183e-05 0)
(5.58405 3.82677e-05 0)
(5.58511 3.80904e-05 0)
(5.58617 3.78287e-05 0)
(5.58722 3.72931e-05 0)
(5.58826 3.63541e-05 0)
(5.58929 3.5762e-05 0)
(5.59031 3.53662e-05 0)
(5.59132 3.50958e-05 0)
(5.59233 3.55441e-05 0)
(5.59333 3.5857e-05 0)
(5.59432 3.56946e-05 0)
(5.59529 3.57498e-05 0)
(5.59627 3.59927e-05 0)
(5.59723 3.59775e-05 0)
(5.59819 3.64143e-05 0)
(5.59912 3.70913e-05 0)
(5.60008 3.75622e-05 0)
(5.60098 3.81881e-05 0)
(5.60195 3.80406e-05 0)
(5.60278 3.9794e-05 0)
(5.6038 4.02139e-05 0)
(5.6045 4.47131e-05 0)
(5.60568 4.26661e-05 0)
(5.60609 4.84375e-05 0)
(5.60767 4.34891e-05 0)
(6.16297 0.035163 0)
(6.30394 0.0304467 0)
(6.34286 0.0246292 0)
(6.34545 0.0169695 0)
(6.34773 0.0114735 0)
(6.35424 0.00850282 0)
(6.36311 0.00666555 0)
(6.3724 0.00556629 0)
(6.38079 0.00492971 0)
(6.38773 0.00457068 0)
(6.39323 0.00443115 0)
(6.39759 0.00441542 0)
(6.4011 0.00439539 0)
(6.40407 0.00441803 0)
(6.4067 0.00441796 0)
(6.40913 0.0043646 0)
(6.41145 0.00428876 0)
(6.41372 0.00416204 0)
(6.41595 0.00399357 0)
(6.41817 0.00382239 0)
(6.42039 0.00361402 0)
(6.42259 0.00338102 0)
(6.42479 0.00316378 0)
(6.42699 0.00291369 0)
(6.42917 0.00267003 0)
(6.43134 0.00244876 0)
(6.4335 0.00221198 0)
(6.43564 0.00199672 0)
(6.43776 0.00180196 0)
(6.43987 0.00160705 0)
(6.44195 0.00143759 0)
(6.44403 0.00128328 0)
(6.44608 0.00113001 0)
(6.44812 0.0010032 0)
(6.45013 0.000890854 0)
(6.45214 0.000782376 0)
(6.45412 0.000692557 0)
(6.45608 0.00061315 0)
(6.45803 0.000537855 0)
(6.45996 0.000480216 0)
(6.46188 0.000427335 0)
(6.46378 0.000378448 0)
(6.46566 0.000342828 0)
(6.46752 0.000308761 0)
(6.46937 0.000277559 0)
(6.4712 0.000256575 0)
(6.47302 0.000232574 0)
(6.47482 0.000211683 0)
(6.47661 0.000199652 0)
(6.47838 0.000184537 0)
(6.48014 0.000171147 0)
(6.48188 0.000162998 0)
(6.4836 0.000152039 0)
(6.48531 0.000143957 0)
(6.48701 0.000138838 0)
(6.48869 0.000129951 0)
(6.49036 0.000125373 0)
(6.49201 0.000124672 0)
(6.49365 0.000119594 0)
(6.49527 0.000116816 0)
(6.49688 0.000116036 0)
(6.49848 0.000111474 0)
(6.50007 0.00010911 0)
(6.50164 0.00010782 0)
(6.5032 0.000104101 0)
(6.50474 0.000103418 0)
(6.50627 0.000103167 0)
(6.50779 0.000100106 0)
(6.5093 9.81759e-05 0)
(6.5108 9.49612e-05 0)
(6.51228 8.99413e-05 0)
(6.51375 8.79251e-05 0)
(6.51521 8.6941e-05 0)
(6.51665 8.50999e-05 0)
(6.51809 8.35185e-05 0)
(6.51951 8.0512e-05 0)
(6.52093 7.74029e-05 0)
(6.52233 7.60274e-05 0)
(6.52372 7.37139e-05 0)
(6.5251 7.07697e-05 0)
(6.52646 6.91209e-05 0)
(6.52782 6.76258e-05 0)
(6.52917 6.65482e-05 0)
(6.5305 6.59959e-05 0)
(6.53183 6.43506e-05 0)
(6.53314 6.23284e-05 0)
(6.53445 6.0744e-05 0)
(6.53574 5.95406e-05 0)
(6.53703 5.94848e-05 0)
(6.5383 5.94041e-05 0)
(6.53957 5.83259e-05 0)
(6.54082 5.78478e-05 0)
(6.54206 5.76734e-05 0)
(6.5433 5.68461e-05 0)
(6.54452 5.66127e-05 0)
(6.54574 5.68021e-05 0)
(6.54694 5.6376e-05 0)
(6.54814 5.5849e-05 0)
(6.54932 5.50008e-05 0)
(6.5505 5.36763e-05 0)
(6.55167 5.2753e-05 0)
(6.55282 5.20548e-05 0)
(6.55397 5.14983e-05 0)
(6.55511 5.17773e-05 0)
(6.55624 5.18916e-05 0)
(6.55736 5.14487e-05 0)
(6.55847 5.1243e-05 0)
(6.55957 5.12659e-05 0)
(6.56065 5.09509e-05 0)
(6.56174 5.12043e-05 0)
(6.5628 5.16535e-05 0)
(6.56389 5.19858e-05 0)
(6.5649 5.22622e-05 0)
(6.566 5.20347e-05 0)
(6.56695 5.32412e-05 0)
(6.56811 5.43233e-05 0)
(6.5689 5.74213e-05 0)
(6.57025 5.77026e-05 0)
(6.57072 5.98224e-05 0)
(6.57251 6.06781e-05 0)
(6.22693 0.00950163 0)
(6.47133 0.0106225 0)
(6.65167 0.0114803 0)
(6.78276 0.0103388 0)
(6.87585 0.00829126 0)
(6.93729 0.00656846 0)
(6.97523 0.00534802 0)
(6.99749 0.00469754 0)
(7.00986 0.00445589 0)
(7.01624 0.00441581 0)
(7.01919 0.00451506 0)
(7.02034 0.00465265 0)
(7.02071 0.00473681 0)
(7.02087 0.00480143 0)
(7.02114 0.00482473 0)
(7.02165 0.00476028 0)
(7.02247 0.00467952 0)
(7.02357 0.00453686 0)
(7.02493 0.00434558 0)
(7.0265 0.00415282 0)
(7.02823 0.00392137 0)
(7.0301 0.0036613 0)
(7.03205 0.00341791 0)
(7.03407 0.00314972 0)
(7.03613 0.00288729 0)
(7.03822 0.00264749 0)
(7.04033 0.00239285 0)
(7.04244 0.00215974 0)
(7.04454 0.0019512 0)
(7.04664 0.00174214 0)
(7.04873 0.00155903 0)
(7.05081 0.00139371 0)
(7.05288 0.00122998 0)
(7.05494 0.00109354 0)
(7.05697 0.000971531 0)
(7.059 0.000854254 0)
(7.06101 0.000758818 0)
(7.063 0.000674843 0)
(7.06498 0.000592823 0)
(7.06695 0.000530886 0)
(7.06889 0.000473826 0)
(7.07083 0.000420309 0)
(7.07275 0.000382985 0)
(7.07465 0.000346229 0)
(7.07654 0.000312327 0)
(7.07841 0.000289938 0)
(7.08027 0.000263505 0)
(7.08211 0.000242011 0)
(7.08394 0.00022956 0)
(7.08575 0.000212084 0)
(7.08755 0.000197703 0)
(7.08934 0.000189276 0)
(7.09111 0.00017772 0)
(7.09286 0.000168976 0)
(7.0946 0.000163458 0)
(7.09633 0.000153837 0)
(7.09804 0.000148817 0)
(7.09974 0.000147996 0)
(7.10143 0.000142476 0)
(7.1031 0.000139433 0)
(7.10475 0.000138534 0)
(7.1064 0.000133558 0)
(7.10803 0.000130944 0)
(7.10964 0.000129481 0)
(7.11125 0.000125398 0)
(7.11284 0.000124576 0)
(7.11441 0.000124223 0)
(7.11598 0.000120846 0)
(7.11753 0.000118686 0)
(7.11906 0.000115146 0)
(7.12059 0.000109653 0)
(7.1221 0.000107386 0)
(7.1236 0.000106235 0)
(7.12508 0.000104163 0)
(7.12656 0.000102374 0)
(7.12802 9.90508e-05 0)
(7.12947 9.56075e-05 0)
(7.1309 9.40291e-05 0)
(7.13233 9.14432e-05 0)
(7.13374 8.8174e-05 0)
(7.13514 8.62978e-05 0)
(7.13653 8.45882e-05 0)
(7.13791 8.33275e-05 0)
(7.13928 8.26341e-05 0)
(7.14063 8.0765e-05 0)
(7.14198 7.84866e-05 0)
(7.14331 7.66761e-05 0)
(7.14463 7.52713e-05 0)
(7.14594 7.50988e-05 0)
(7.14724 7.49001e-05 0)
(7.14853 7.36265e-05 0)
(7.14981 7.29955e-05 0)
(7.15108 7.26907e-05 0)
(7.15234 7.16797e-05 0)
(7.15359 7.13042e-05 0)
(7.15482 7.13797e-05 0)
(7.15605 7.07907e-05 0)
(7.15727 7.00865e-05 0)
(7.15848 6.90351e-05 0)
(7.15967 6.74585e-05 0)
(7.16086 6.63134e-05 0)
(7.16204 6.53945e-05 0)
(7.16321 6.46329e-05 0)
(7.16437 6.47451e-05 0)
(7.16551 6.46953e-05 0)
(7.16666 6.40041e-05 0)
(7.16778 6.35937e-05 0)
(7.16891 6.33736e-05 0)
(7.17002 6.28213e-05 0)
(7.17113 6.28369e-05 0)
(7.17221 6.30478e-05 0)
(7.17332 6.32091e-05 0)
(7.17436 6.30253e-05 0)
(7.17548 6.28892e-05 0)
(7.17645 6.30358e-05 0)
(7.17764 6.52928e-05 0)
(7.17846 6.56152e-05 0)
(7.17984 6.9582e-05 0)
(7.18032 6.57544e-05 0)
(7.18217 7.56255e-05 0)
(6.2268 -0.0146542 0)
(6.47159 -0.0103216 0)
(6.65239 -0.0107805 0)
(6.78404 -0.00882946 0)
(6.8772 -0.00547683 0)
(6.93832 -0.00210833 0)
(6.97575 0.000490773 0)
(6.99739 0.00229369 0)
(7.00911 0.00349049 0)
(7.01485 0.00424564 0)
(7.01717 0.00469802 0)
(7.01771 0.00499053 0)
(7.01749 0.0051138 0)
(7.01707 0.00515319 0)
(7.01678 0.00512293 0)
(7.01674 0.00500455 0)
(7.01702 0.00486331 0)
(7.0176 0.00468151 0)
(7.01845 0.00445292 0)
(7.01953 0.00423089 0)
(7.02078 0.00397428 0)
(7.02219 0.00369528 0)
(7.02369 0.00344235 0)
(7.02528 0.00316539 0)
(7.02693 0.002895 0)
(7.02861 0.0026513 0)
(7.03033 0.00239491 0)
(7.03206 0.00216235 0)
(7.0338 0.0019531 0)
(7.03554 0.00174332 0)
(7.03729 0.00156094 0)
(7.03904 0.00139625 0)
(7.04078 0.00123303 0)
(7.04252 0.00109621 0)
(7.04425 0.000975942 0)
(7.04597 0.000859179 0)
(7.04769 0.000765485 0)
(7.0494 0.000680299 0)
(7.0511 0.000600156 0)
(7.05279 0.000537589 0)
(7.05447 0.000480854 0)
(7.05614 0.000427044 0)
(7.0578 0.000391285 0)
(7.05946 0.000354661 0)
(7.0611 0.000320559 0)
(7.06273 0.000297751 0)
(7.06435 0.000272026 0)
(7.06596 0.000250724 0)
(7.06756 0.00023726 0)
(7.06915 0.000220237 0)
(7.07073 0.000205774 0)
(7.07229 0.000197012 0)
(7.07385 0.00018521 0)
(7.07539 0.000176387 0)
(7.07692 0.000170902 0)
(7.07844 0.000161302 0)
(7.07995 0.000156287 0)
(7.08145 0.000155488 0)
(7.08294 0.000149994 0)
(7.08441 0.000146975 0)
(7.08588 0.000146073 0)
(7.08733 0.000141093 0)
(7.08877 0.000138484 0)
(7.0902 0.000137025 0)
(7.09162 0.000132938 0)
(7.09303 0.000132118 0)
(7.09442 0.000131768 0)
(7.09581 0.000128388 0)
(7.09718 0.000126228 0)
(7.09854 0.000122686 0)
(7.09989 0.000117175 0)
(7.10123 0.000114898 0)
(7.10256 0.000113742 0)
(7.10388 0.000111663 0)
(7.10518 0.00010987 0)
(7.10648 0.000106534 0)
(7.10776 0.000103068 0)
(7.10904 0.000101472 0)
(7.1103 9.88645e-05 0)
(7.11155 9.55653e-05 0)
(7.11279 9.36625e-05 0)
(7.11402 9.19266e-05 0)
(7.11524 9.06388e-05 0)
(7.11645 8.99207e-05 0)
(7.11765 8.80207e-05 0)
(7.11884 8.57024e-05 0)
(7.12002 8.38466e-05 0)
(7.12119 8.23907e-05 0)
(7.12235 8.2167e-05 0)
(7.12351 8.1916e-05 0)
(7.12465 8.0583e-05 0)
(7.12578 7.98883e-05 0)
(7.1269 7.95173e-05 0)
(7.12801 7.84304e-05 0)
(7.12912 7.79741e-05 0)
(7.13021 7.79619e-05 0)
(7.13129 7.72792e-05 0)
(7.13237 7.64694e-05 0)
(7.13344 7.53097e-05 0)
(7.1345 7.36036e-05 0)
(7.13555 7.23337e-05 0)
(7.13659 7.12634e-05 0)
(7.13763 7.03653e-05 0)
(7.13865 7.02982e-05 0)
(7.13967 7.01051e-05 0)
(7.14068 6.91903e-05 0)
(7.14169 6.86253e-05 0)
(7.14268 6.81359e-05 0)
(7.14367 6.7419e-05 0)
(7.14466 6.71357e-05 0)
(7.14562 6.71431e-05 0)
(7.14661 6.70474e-05 0)
(7.14753 6.64813e-05 0)
(7.14854 6.63427e-05 0)
(7.1494 6.55736e-05 0)
(7.15048 6.8552e-05 0)
(7.1512 6.67362e-05 0)
(7.15246 7.30215e-05 0)
(7.15287 6.53961e-05 0)
(7.15456 8.13723e-05 0)
(6.16259 -0.0400989 0)
(6.30614 -0.0299816 0)
(6.34591 -0.0239578 0)
(6.34834 -0.0155105 0)
(6.34954 -0.00885366 0)
(6.35469 -0.00437028 0)
(6.3622 -0.00130431 0)
(6.37016 0.000859115 0)
(6.37725 0.00240533 0)
(6.3829 0.00341623 0)
(6.38714 0.00408577 0)
(6.39025 0.00451666 0)
(6.39255 0.00471756 0)
(6.39433 0.00481285 0)
(6.39578 0.00479821 0)
(6.39707 0.00469447 0)
(6.39827 0.00456677 0)
(6.39945 0.00438697 0)
(6.40063 0.0041633 0)
(6.40184 0.00394764 0)
(6.40307 0.00370445 0)
(6.40433 0.00344091 0)
(6.40561 0.00320033 0)
(6.40692 0.00294016 0)
(6.40825 0.00268862 0)
(6.40959 0.00246087 0)
(6.41095 0.00222176 0)
(6.41232 0.00200366 0)
(6.41369 0.00180864 0)
(6.41507 0.00161432 0)
(6.41646 0.00144503 0)
(6.41784 0.00129152 0)
(6.41923 0.00114015 0)
(6.42062 0.00101388 0)
(6.422 0.000901998 0)
(6.42338 0.000793495 0)
(6.42476 0.000705395 0)
(6.42614 0.000628262 0)
(6.42751 0.000551972 0)
(6.42888 0.000495232 0)
(6.43024 0.000442526 0)
(6.43159 0.000393143 0)
(6.43294 0.000359044 0)
(6.43429 0.000325262 0)
(6.43562 0.000293824 0)
(6.43695 0.000274051 0)
(6.43828 0.000249395 0)
(6.43959 0.000229242 0)
(6.4409 0.000216716 0)
(6.4422 0.000200752 0)
(6.44349 0.00018737 0)
(6.44477 0.000179453 0)
(6.44604 0.000168655 0)
(6.44731 0.000160584 0)
(6.44857 0.000155593 0)
(6.44982 0.000146741 0)
(6.45106 0.000142157 0)
(6.45229 0.000141491 0)
(6.45351 0.000136475 0)
(6.45472 0.000133777 0)