/*--------------------------------*- C++ -*----------------------------------*\
  =========                 |
  \\      /  F ield         | OpenFOAM: The Open Source CFD Toolbox
   \\    /   O peration     | Website:  https://openfoam.org
    \\  /    A nd           | Version:  7
     \\/     M anipulation  |
\*---------------------------------------------------------------------------*/
FoamFile
{
    version     2.0;
    format      ascii;
    class       surfaceScalarField;
    location    "0.4075";
    object      phi_0;
}
// * * * * * * * * * * * * * * * * * * * * * * * * * * * * * * * * * * * * * //

dimensions      [1 0 -1 0 0 0 0];

internalField   nonuniform List<scalar> 
21708
(
0.00130318
0.00101154
1.3341e-05
0.000900363
0.000392546
5.86741e-06
0.000688678
0.000195878
1.13996e-05
0.000598296
7.97492e-05
6.39382e-06
0.000545982
3.76671e-05
1.05331e-05
0.000515508
1.98528e-05
6.60556e-06
0.00049266
9.10847e-06
9.83046e-06
0.000476945
5.15905e-06
6.74763e-06
0.000463087
8.5739e-07
9.26327e-06
0.000453038
-4.80453e-07
6.82564e-06
0.000443757
-3.19111e-06
8.77465e-06
0.00043747
-4.25311e-06
6.84316e-06
0.000432012
-6.5821e-06
8.34128e-06
0.000429022
-7.52282e-06
6.8139e-06
0.000426594
-9.22161e-06
7.94784e-06
0.000425425
-9.28096e-06
6.74703e-06
0.00042312
-8.97811e-06
7.57772e-06
0.000422931
-1.01605e-05
6.64848e-06
0.000373656
3.82591e-05
7.33022e-06
2.12287e-05
6.22335e-06
0.000342495
0.00226496
0.00107179
2.49232e-06
0.00206864
0.00058843
-4.36156e-06
0.00185813
0.000400147
1.26209e-06
0.00171105
0.000225912
-3.61028e-06
0.00160496
0.000139018
6.13599e-07
0.00153238
9.18295e-05
-3.27103e-06
0.001475
6.28643e-05
-9.1663e-09
0.00143303
4.68586e-05
-3.078e-06
0.00139586
3.54456e-05
-5.41789e-07
0.00136769
2.76595e-05
-2.97319e-06
0.00134195
2.05304e-05
-1.00926e-06
0.00132366
1.38639e-05
-2.93794e-06
0.00130773
7.56708e-06
-1.43024e-06
0.00129776
2.09563e-06
-2.95726e-06
0.00128961
-2.63995e-06
-1.81919e-06
0.00128345
-3.57798e-06
-3.0163e-06
0.00128303
-9.90616e-06
-2.20376e-06
0.00127314
-7.78228e-07
-3.10245e-06
0.00131912
-8.6316e-06
-2.69255e-06
-3.31606e-05
-3.65503e-06
0.00137349
0.00259435
0.000796094
9.28549e-06
0.00268151
0.000493414
2.91796e-06
0.00266868
0.000399448
8.17247e-06
0.00262691
0.000259685
3.19386e-06
0.00257292
0.000181617
7.33849e-06
0.00252448
0.000133201
3.40716e-06
0.00247704
0.00010017
6.63172e-06
0.00243761
7.95492e-05
3.53877e-06
0.00240011
6.41994e-05
6.05177e-06
0.00236937
5.26031e-05
3.6084e-06
0.00234016
4.22352e-05
5.55751e-06
0.00231685
3.15437e-05
3.62328e-06
0.00229564
2.14325e-05
5.12088e-06
0.00228013
1.15649e-05
3.58998e-06
0.00226583
4.299e-06
4.72367e-06
0.00225712
-1.20018e-06
3.51777e-06
0.00224336
-3.53686e-06
4.35778e-06
0.00224044
-4.52044e-06
3.40182e-06
0.00221323
1.09979e-05
4.14712e-06
4.29347e-06
3.05443e-06
0.00216914
0.00260133
0.000518719
3.82451e-06
0.00275916
0.000332886
-2.27715e-06
0.00286023
0.000289974
2.92365e-06
0.0029168
0.000200195
-1.99986e-06
0.00294251
0.000149698
2.18539e-06
0.00295665
0.000117262
-1.706e-06
0.00295781
9.40001e-05
1.55539e-06
0.00295667
7.8828e-05
-1.51561e-06
0.00295022
6.67045e-05
1.01822e-06
0.00294478
5.72756e-05
-1.41268e-06
0.00293637
4.85455e-05
5.51123e-07
0.00292851
3.94754e-05
-1.37321e-06
0.00291837
2.9971e-05
1.35552e-07
0.00290861
2.08988e-05
-1.3888e-06
0.00289923
1.1826e-05
-2.50957e-07
0.00288928
7.87122e-06
-1.44829e-06
0.00288504
-1.20127e-06
-6.30538e-07
0.00287454
4.65958e-06
-1.55395e-06
0.00288688
-3.41254e-06
-1.12446e-06
-1.04362e-05
-2.01226e-06
0.00289996
0.00258995
0.000249454
7.1899e-06
0.00275538
0.00016116
1.30369e-06
0.00288603
0.000147439
6.36443e-06
0.00297546
0.000104379
1.4309e-06
0.00303532
8.02472e-05
5.59005e-06
0.003083
6.44521e-05
1.68309e-06
0.0031157
5.29504e-05
4.92874e-06
0.00314378
4.54113e-05
1.84486e-06
0.00316379
3.91495e-05
4.36587e-06
0.00318251
3.42319e-05
1.92696e-06
0.00319606
2.95745e-05
3.88304e-06
0.00320786
2.46827e-05
1.95541e-06
0.00321392
1.93835e-05
3.45878e-06
0.00321744
1.39966e-05
1.93088e-06
0.00321557
8.78051e-06
3.06422e-06
0.00321406
5.41607e-06
1.85899e-06
0.00320638
1.52198e-06
2.69564e-06
0.00320415
2.5608e-06
1.73272e-06
0.00319237
3.03563e-06
2.40867e-06
4.86652e-06
1.40481e-06
0.00317203
0.00257183
-4.07279e-10
5.44007e-06
0.00272836
-7.48187e-10
-3.60308e-07
0.0028656
-5.68066e-10
4.67798e-06
0.0029653
9.99936e-10
-2.53822e-07
0.00303766
9.04345e-10
3.90448e-06
0.00309871
2.59055e-09
1.58966e-09
0.003145
1.50171e-09
3.25365e-06
0.00318671
3.74262e-09
1.73493e-07
0.00321989
3.55712e-09
2.6992e-06
0.00325134
6.75918e-09
2.62771e-07
0.00327711
1.18604e-08
2.22226e-06
0.00330053
1.71867e-08
2.97068e-07
0.00331717
3.19659e-08
1.8036e-06
0.00332955
6.08827e-08
2.77949e-07
0.00333511
6.76254e-08
1.41229e-06
0.00333806
2.32152e-07
2.10025e-07
0.00333626
1.21837e-07
1.03579e-06
0.00333553
7.67696e-07
8.82087e-08
0.00333469
4.92409e-07
6.32252e-07
1.64093e-06
-2.82476e-07
0.00333465
0.00257183
-0.000249455
5.44007e-06
0.00272836
-0.000161161
-3.60308e-07
0.0028656
-0.00014744
4.67798e-06
0.0029653
-0.000104377
-2.53825e-07
0.00303766
-8.02453e-05
3.90448e-06
0.00309871
-6.44472e-05
1.58332e-09
0.003145
-5.29473e-05
3.25366e-06
0.00318671
-4.54043e-05
1.73478e-07
0.00321989
-3.91421e-05
2.69921e-06
0.00325134
-3.42195e-05
2.62736e-07
0.00327711
-2.95503e-05
2.22228e-06
0.00330054
-2.46526e-05
2.96987e-07
0.00331717
-1.93161e-05
1.80363e-06
0.00332956
-1.38883e-05
2.77743e-07
0.00333511
-8.63315e-06
1.41243e-06
0.0033381
-4.98119e-06
2.09531e-07
0.00333627
-1.25308e-06
1.03705e-06
0.00333554
-1.03387e-06
8.71606e-08
0.00333465
-1.99941e-06
6.39615e-07
-1.43235e-06
-2.80755e-07
0.00333446
0.00258995
-0.00051872
7.1899e-06
0.00275538
-0.000332887
1.30369e-06
0.00288603
-0.000289975
6.36443e-06
0.00297546
-0.000200194
1.4309e-06
0.00303532
-0.000149696
5.59005e-06
0.003083
-0.000117258
1.68309e-06
0.0031157
-9.39972e-05
4.92874e-06
0.00314378
-7.88211e-05
1.84487e-06
0.00316379
-6.6698e-05
4.36586e-06
0.00318251
-5.72631e-05
1.92698e-06
0.00319606
-4.85246e-05
3.88301e-06
0.00320786
-3.9445e-05
1.95548e-06
0.00321393
-2.99149e-05
3.45874e-06
0.00321746
-2.07924e-05
1.93108e-06
0.00321562
-1.17117e-05
3.06403e-06
0.00321414
-7.45731e-06
1.85946e-06
0.00320653
1.3843e-06
2.69435e-06
0.00320446
-3.28085e-06
1.73356e-06
0.00319297
4.15472e-06
2.40191e-06
1.32622e-05
1.40264e-06
0.00317325
0.00260133
-0.000796095
3.82451e-06
0.00275916
-0.000493416
-2.27715e-06
0.00286023
-0.000399449
2.92365e-06
0.0029168
-0.000259684
-1.99986e-06
0.00294251
-0.000181615
2.18539e-06
0.00295665
-0.000133197
-1.706e-06
0.00295781
-0.000100167
1.55539e-06
0.00295668
-7.95439e-05
-1.51562e-06
0.00295022
-6.41929e-05
1.01823e-06
0.00294479
-5.25937e-05
-1.41272e-06
0.00293638
-4.22169e-05
5.51143e-07
0.00292853
-3.15222e-05
-1.37327e-06
0.00291839
-2.13828e-05
1.35596e-07
0.00290866
-1.14873e-05
-1.38894e-06
0.00289928
-4.19274e-06
-2.50794e-07
0.00288944
1.51713e-06
-1.44851e-06
0.00288518
3.72724e-06
-6.29294e-07
0.00287496
5.63667e-06
-1.55421e-06
0.00288735
-1.03391e-05
-1.11749e-06
-1.74037e-06
-2.01142e-06
0.00290074
0.00259435
-0.00107179
9.28549e-06
0.00268151
-0.000588431
2.91797e-06
0.00266868
-0.000400148
8.17247e-06
0.00262691
-0.000225911
3.19386e-06
0.00257292
-0.000139017
7.33849e-06
0.00252448
-9.18275e-05
3.40716e-06
0.00247705
-6.28622e-05
6.63172e-06
0.00243762
-4.6855e-05
3.53878e-06
0.00240012
-3.54406e-05
6.05176e-06
0.00236938
-2.76531e-05
3.60842e-06
0.00234017
-2.05184e-05
5.55748e-06
0.00231687
-1.38504e-05
3.62334e-06
0.00229568
-7.5382e-06
5.12083e-06
0.0022802
-2.04579e-06
3.59013e-06
0.00226594
2.69654e-06
4.72344e-06
0.00225735
3.77854e-06
3.5181e-06
0.00224372
9.96703e-06
4.35675e-06
0.00224118
1.52924e-06
3.40216e-06
0.0022145
8.72253e-06
4.14295e-06
3.4264e-05
3.05184e-06
0.00217194
0.00226496
-0.00101154
2.49232e-06
0.00206864
-0.000392547
-4.36156e-06
0.00185813
-0.000195879
1.2621e-06
0.00171105
-7.97494e-05
-3.61028e-06
0.00160496
-3.76669e-05
6.13599e-07
0.00153239
-1.98523e-05
-3.27103e-06
0.00147501
-9.10745e-06
-9.16358e-09
0.00143303
-5.15764e-06
-3.07801e-06
0.00139587
-8.55049e-07
-5.41783e-07
0.0013677
4.82559e-07
-2.97321e-06
0.00134197
3.19597e-06
-1.00924e-06
0.00132368
4.25687e-06
-2.93798e-06
0.00130777
6.59431e-06
-1.43019e-06
0.00129783
7.53697e-06
-2.95735e-06
0.00128972
9.24727e-06
-1.81904e-06
0.00128369
9.34443e-06
-3.01649e-06
0.00128328
9.02554e-06
-2.20291e-06
0.00127391
1.0409e-05
-3.10313e-06
0.00131951
-3.78552e-05
-2.68705e-06
-2.06047e-05
-3.65665e-06
0.00137449
0.00130318
1.3341e-05
0.000900363
5.86741e-06
0.000688678
1.13996e-05
0.000598296
6.39383e-06
0.000545982
1.05331e-05
0.000515509
6.60556e-06
0.000492661
9.83046e-06
0.000476947
6.74764e-06
0.00046309
9.26326e-06
0.000453041
6.82566e-06
0.000443764
8.77463e-06
0.00043748
6.8432e-06
0.000432034
8.34123e-06
0.000429057
6.81403e-06
0.000426656
7.94765e-06
0.000425548
6.7474e-06
0.000423292
7.57723e-06
0.000423354
6.64913e-06
0.00037447
7.32917e-06
6.22334e-06
0.000343981
0.00191309
0.000424805
2.74559e-06
0.00138928
0.000520658
4.45961e-06
0.0010414
0.00035283
1.87805e-06
0.00085893
0.000181321
3.23141e-06
0.000769843
9.36191e-05
1.8841e-06
0.000716123
5.34577e-05
2.90336e-06
0.000683104
3.70272e-05
2.00553e-06
0.000655075
2.84164e-05
2.66896e-06
0.00063627
2.23893e-05
2.05211e-06
0.000618664
1.83769e-05
2.43969e-06
0.000607144
1.46079e-05
2.05228e-06
0.000596096
1.19721e-05
2.2627e-06
0.000589559
9.14531e-06
2.05617e-06
0.000583347
7.17873e-06
2.15407e-06
0.000580028
5.46977e-06
2.08522e-06
0.000576808
4.14666e-06
2.10053e-06
0.000578557
-3.96519e-08
2.14682e-06
0.000566083
1.33352e-05
2.07711e-06
0.000673363
-0.000105798
2.19257e-06
-8.44702e-05
2.27646e-06
0.000758046
0.002423
0.00032394
7.94926e-06
0.00235777
0.000566808
9.82971e-06
0.00222957
0.000469853
7.32065e-06
0.00208935
0.000304694
8.66042e-06
0.00197554
0.000196747
7.24958e-06
0.00188141
0.000132275
8.28873e-06
0.00181067
9.69135e-05
7.38976e-06
0.00175031
7.46091e-05
8.04331e-06
0.00170422
5.77982e-05
7.43879e-06
0.00166335
4.5903e-05
7.80685e-06
0.0016326
3.4296e-05
7.4345e-06
0.00160578
2.54775e-05
7.62209e-06
0.00158693
1.6212e-05
7.43703e-06
0.00157107
9.52003e-06
7.50592e-06
0.00155961
4.45213e-06
7.46978e-06
0.00155119
-1.23168e-06
7.44768e-06
0.00153908
-1.12521e-06
7.54129e-06
0.00154383
-5.4596e-06
7.41462e-06
0.00146765
-4.34691e-05
7.67893e-06
-1.036e-05
7.68228e-06
0.00137869
0.00244731
0.000209683
3.64585e-06
0.0025737
0.000432634
5.70838e-06
0.00263277
0.000410808
2.82707e-06
0.00262785
0.000303516
4.60132e-06
0.00260244
0.000222735
2.82587e-06
0.00256415
0.000166102
4.25242e-06
0.00252953
0.000131613
3.07985e-06
0.00249343
0.000107118
4.03636e-06
0.00246341
8.81777e-05
3.23313e-06
0.00243335
7.38326e-05
3.8153e-06
0.00240842
5.97691e-05
3.29478e-06
0.00238403
4.79883e-05
3.63739e-06
0.00236497
3.49329e-05
3.34307e-06
0.00234685
2.53445e-05
3.52394e-06
0.00233471
1.53347e-05
3.40774e-06
0.00231982
1.08994e-05
3.47173e-06
0.00231658
-1.08261e-07
3.49662e-06
0.00229816
9.52436e-06
3.47255e-06
0.0023138
-6.20256e-05
3.51683e-06
-3.74603e-05
3.6493e-06
0.00233665
0.00239859
0.000135665
6.81045e-06
0.00253837
0.000276796
8.73071e-06
0.00266942
0.000270992
6.32045e-06
0.002747
0.000211514
7.72606e-06
0.00279804
0.000163759
6.2633e-06
0.00282303
0.000128547
7.32305e-06
0.00283988
0.000106402
6.39365e-06
0.00284534
8.97262e-05
7.0704e-06
0.00284924
7.61469e-05
6.45022e-06
0.00284753
6.53944e-05
6.8388e-06
0.00284554
5.44844e-05
6.45674e-06
0.00283927
4.49057e-05
6.65978e-06
0.00283243
3.38485e-05
6.46435e-06
0.00282313
2.47753e-05
6.54067e-06
0.00281375
1.57728e-05
6.49304e-06
0.00280493
9.36881e-06
6.47981e-06
0.00279211
2.79922e-06
6.56348e-06
0.00278694
3.52657e-06
6.4701e-06
0.00274111
-2.7542e-05
6.71077e-06
1.73282e-06
6.71941e-06
0.00268926
0.00240077
6.47886e-05
4.7517e-06
0.00253089
0.000136181
6.752e-06
0.00266228
0.000136424
4.17068e-06
0.00275598
0.000108836
5.74133e-06
0.00283057
8.68245e-05
4.11952e-06
0.00288191
7.00856e-05
5.32691e-06
0.00292579
5.96129e-05
4.29377e-06
0.00295738
5.14442e-05
5.08243e-06
0.0029859
4.47155e-05
4.38868e-06
0.0030071
3.92587e-05
4.86153e-06
0.00302606
3.37e-05
4.42654e-06
0.00303841
2.87602e-05
4.69295e-06
0.00304723
2.27289e-05
4.4572e-06
0.00304984
1.782e-05
4.57902e-06
0.00305022
1.19443e-05
4.49972e-06
0.00304557
9.13585e-06
4.52223e-06
0.00304161
2.42279e-06
4.57167e-06
0.003033
6.44444e-06
4.53164e-06
0.0030198
-1.99107e-05
4.62687e-06
-6.82604e-06
4.717e-06
0.00302105
0.00239196
-2.39342e-10
5.76848e-06
0.002515
2.00996e-10
7.7209e-06
0.00264544
3.29797e-10
5.28487e-06
0.00274261
1.19496e-09
6.75098e-06
0.00282432
5.47446e-11
5.22359e-06
0.0028846
1.12058e-09
6.33214e-06
0.00293855
-2.11293e-10
5.3619e-06
0.00298059
2.60439e-09
6.07945e-06
0.00301961
2.4648e-09
5.43307e-06
0.00305121
5.98369e-09
5.8556e-06
0.00308041
9.07725e-09
5.45775e-06
0.00310279
1.70781e-08
5.68773e-06
0.00312062
2.68141e-08
5.4791e-06
0.00313147
6.4893e-08
5.57243e-06
0.00313728
7.94877e-08
5.51189e-06
0.00313875
2.16776e-07
5.51277e-06
0.00313402
2.50591e-07
5.58115e-06
0.0031316
6.49716e-07
5.51885e-06
0.00310254
8.5631e-07
5.69196e-06
1.7106e-06
5.73298e-06
0.00308397
0.00239196
-6.47891e-05
5.76848e-06
0.002515
-0.00013618
7.7209e-06
0.00264544
-0.000136424
5.28487e-06
0.00274261
-0.000108833
6.75098e-06
0.00282432
-8.68244e-05
5.22359e-06
0.0028846
-7.00832e-05
6.33214e-06
0.00293855
-5.96135e-05
5.36189e-06
0.00298058
-5.14388e-05
6.07945e-06
0.00301961
-4.47113e-05
5.43306e-06
0.00305121
-3.92458e-05
5.85562e-06
0.00308041
-3.36837e-05
5.45774e-06
0.00310278
-2.87226e-05
5.68777e-06
0.00312063
-2.26812e-05
5.47909e-06
0.00313147
-1.76841e-05
5.57254e-06
0.0031373
-1.1806e-05
5.51184e-06
0.00313877
-8.7093e-06
5.51303e-06
0.00313415
-2.02831e-06
5.58061e-06
0.00313188
-5.28235e-06
5.51892e-06
0.00310307
2.13769e-05
5.68728e-06
9.89231e-06
5.73018e-06
0.00308486
0.00240077
-0.000135665
4.7517e-06
0.00253089
-0.000276796
6.752e-06
0.00266228
-0.000270991
4.17068e-06
0.00275598
-0.000211511
5.74132e-06
0.00283057
-0.000163759
4.11952e-06
0.00288191
-0.000128545
5.32691e-06
0.00292579
-0.000106403
4.29377e-06
0.00295738
-8.97215e-05
5.08243e-06
0.0029859
-7.61429e-05
4.38868e-06
0.0030071
-6.53835e-05
4.86151e-06
0.00302606
-5.44686e-05
4.42655e-06
0.00303842
-4.48745e-05
4.69291e-06
0.00304724
-3.38005e-05
4.45721e-06
0.00304987
-2.46584e-05
4.5789e-06
0.00305024
-1.56316e-05
4.49973e-06
0.00304564
-8.98285e-06
4.52194e-06
0.00304162
-2.35257e-06
4.572e-06
0.00303306
-2.40328e-06
4.53147e-06
0.00301976
2.90914e-05
4.63068e-06
1.43989e-06
4.71891e-06
0.0030209
0.00239859
-0.000209684
6.81045e-06
0.00253837
-0.000432634
8.73071e-06
0.00266942
-0.000410807
6.32045e-06
0.002747
-0.000303515
7.72606e-06
0.00279804
-0.000222735
6.2633e-06
0.00282303
-0.0001661
7.32305e-06
0.00283988
-0.000131614
6.39365e-06
0.00284534
-0.000107114
7.0704e-06
0.00284924
-8.81747e-05
6.45021e-06
0.00284753
-7.38231e-05
6.83881e-06
0.00284555
-5.97568e-05
6.45672e-06
0.00283928
-4.79597e-05
6.65981e-06
0.00283245
-3.48959e-05
6.46432e-06
0.00282317
-2.52416e-05
6.54073e-06
0.00281383
-1.5238e-05
6.49293e-06
0.00280508
-1.05769e-05
6.47991e-06
0.00279241
3.93197e-07
6.56285e-06
0.0027875
-8.64212e-06
6.47007e-06
0.00274216
6.30787e-05
6.70609e-06
3.97366e-05
6.71737e-06
0.00269123
0.00244731
-0.00032394
3.64585e-06
0.0025737
-0.000566808
5.70838e-06
0.00263277
-0.000469852
2.82707e-06
0.00262786
-0.000304693
4.60132e-06
0.00260244
-0.000196746
2.82587e-06
0.00256415
-0.000132274
4.25242e-06
0.00252953
-9.69128e-05
3.07985e-06
0.00249344
-7.46067e-05
4.03636e-06
0.00246341
-5.77949e-05
3.23313e-06
0.00243336
-4.58973e-05
3.81529e-06
0.00240843
-3.42853e-05
3.29478e-06
0.00238405
-2.54609e-05
3.63735e-06
0.002365
-1.61815e-05
3.34307e-06
0.00234692
-9.45646e-06
3.52383e-06
0.00233479
-4.36841e-06
3.40774e-06
0.00232003
1.42985e-06
3.4715e-06
0.00231679
1.40387e-06
3.49652e-06
0.00229871
6.02315e-06
3.47237e-06
0.00231436
4.44634e-05
3.51883e-06
1.22753e-05
3.65081e-06
0.00233763
0.002423
-0.000424805
7.94926e-06
0.00235777
-0.000520659
9.82971e-06
0.00222957
-0.00035283
7.32065e-06
0.00208935
-0.000181321
8.66042e-06
0.00197554
-9.36186e-05
7.24958e-06
0.00188141
-5.34569e-05
8.28873e-06
0.00181067
-3.70264e-05
7.38976e-06
0.00175031
-2.84149e-05
8.04332e-06
0.00170422
-2.23873e-05
7.43877e-06
0.00166336
-1.83739e-05
7.80688e-06
0.00163262
-1.46027e-05
7.43447e-06
0.0016058
-1.19644e-05
7.62213e-06
0.00158697
-9.13256e-06
7.43696e-06
0.00157115
-7.15116e-06
7.50597e-06
0.00155974
-5.43993e-06
7.46961e-06
0.00155143
-4.05832e-06
7.44774e-06
0.00153954
9.96827e-08
7.5407e-06
0.00154459
-1.30476e-05
7.41478e-06
0.00146949
0.000105644
7.67528e-06
8.45681e-05
7.68216e-06
0.00138249
0.00191309
2.74559e-06
0.00138928
4.45961e-06
0.0010414
1.87806e-06
0.00085893
3.23141e-06
0.000769843
1.8841e-06
0.000716124
2.90336e-06
0.000683105
2.00553e-06
0.000655077
2.66895e-06
0.000636273
2.05211e-06
0.000618669
2.43968e-06
0.000607153
2.05228e-06
0.000596113
2.26268e-06
0.000589589
2.05615e-06
0.000583403
2.15403e-06
0.000580115
2.08513e-06
0.000576981
2.10043e-06
0.000578793
2.14644e-06
0.00056661
2.07678e-06
0.000673703
2.19274e-06
2.27421e-06
0.000758605
0.00215655
0.000173305
-7.78273e-11
0.00190513
0.000251047
-7.7677e-11
0.00163648
0.000265698
-7.66964e-11
0.00140094
0.000234398
-7.68925e-11
0.00121196
0.000186911
-7.6353e-11
0.00107325
0.000138024
-7.64866e-11
0.000976717
9.51817e-05
-7.56507e-11
0.00091646
5.96703e-05
-7.59121e-11
0.000880713
3.45504e-05
-7.52907e-11
0.000861503
1.83619e-05
-7.56242e-11
0.000850521
9.69412e-06
-7.53931e-11
0.000844181
5.22049e-06
-7.60427e-11
0.00084034
2.47777e-06
-7.63297e-11
0.000837087
1.96797e-06
-7.66416e-11
0.000836536
-8.1881e-07
-7.6514e-11
0.000833023
2.17664e-06
-7.65894e-11
0.000836836
-5.08747e-06
-7.6938e-11
0.000829605
5.91946e-06
-7.69826e-11
0.000841243
-1.27457e-05
-7.7891e-11
-1.2114e-05
-7.77595e-11
0.000852192
0.00238356
0.000124855
-7.73843e-11
0.00242414
0.000215223
-7.72636e-11
0.00242546
0.000266467
-7.70507e-11
0.00239571
0.00026829
-7.79398e-11
0.00234457
0.000241403
-7.80793e-11
0.00228639
0.000200881
-7.80163e-11
0.00222734
0.000158363
-7.61967e-11
0.00217386
0.00011853
-7.6128e-11
0.00212684
8.68932e-05
-7.60801e-11
0.00208815
6.29521e-05
-7.68291e-11
0.00205748
4.5783e-05
-7.61135e-11
0.0020348
3.32902e-05
-7.59724e-11
0.00201922
2.30333e-05
-7.59829e-11
0.00200822
1.77976e-05
-7.67811e-11
0.00200223
9.68794e-06
-7.73259e-11
0.00199616
1.24746e-05
-7.7491e-11
0.00199603
-8.01178e-07
-7.75987e-11
0.00198948
1.64085e-05
-7.69129e-11
0.00199368
-1.26662e-05
-7.74454e-11
1.44281e-05
-7.68571e-11
0.00197149
0.00237143
8.42503e-05
-7.7404e-11
0.00243634
0.000150904
-7.72955e-11
0.00250357
0.000196745
-7.70903e-11
0.00256484
0.000207138
-7.79842e-11
0.0026096
0.000195707
-7.77648e-11
0.00263928
0.000171842
-7.70597e-11
0.00265413
0.000143057
-7.50613e-11
0.00265938
0.000114266
-7.57198e-11
0.00265764
8.96697e-05
-7.7041e-11
0.00265254
7.03631e-05
-7.87889e-11
0.00264523
5.50737e-05
-7.77373e-11
0.00263706
4.35721e-05
-7.60327e-11
0.00262921
3.23794e-05
-7.45661e-11
0.00262191
2.65162e-05
-7.50761e-11
0.00261711
1.55508e-05
-7.63847e-11
0.00261253
1.78158e-05
-7.74227e-11
0.002612
5.30316e-08
-7.70041e-11
0.0026085
1.97787e-05
-7.63218e-11
0.00261068
-1.51872e-05
-7.61245e-11
1.93681e-05
-7.53877e-11
0.00260544
0.00236142
5.68106e-05
-7.74519e-11
0.00241623
9.96953e-05
-7.72855e-11
0.00248435
0.00012963
-7.69772e-11
0.00255741
0.000137371
-7.769e-11
0.00262393
0.000131747
-7.71963e-11
0.00268157
0.000117923
-7.63853e-11
0.00272676
0.000100614
-7.45162e-11
0.00276211
8.27493e-05
-7.54811e-11
0.00278869
6.72023e-05
-7.73339e-11
0.00280961
5.48383e-05
-7.95857e-11
0.00282515
4.49273e-05
-7.86389e-11
0.00283662
3.75184e-05
-7.64811e-11
0.00284405
2.97985e-05
-7.44523e-11
0.00284949
2.57096e-05
-7.48624e-11
0.00285236
1.70658e-05
-7.66181e-11
0.00285594
1.83451e-05
-7.80135e-11
0.00285582
3.87106e-06
-7.81919e-11
0.00285979
1.88366e-05
-7.65011e-11
0.00285595
-8.57183e-06
-7.5406e-11
2.25854e-05
-7.45644e-11
0.00285516
0.00236202
2.67096e-05
-7.74674e-11
0.00241501
4.83278e-05
-7.74272e-11
0.00247966
6.38403e-05
-7.71177e-11
0.00255054
6.78138e-05
-7.7664e-11
0.00261754
6.51663e-05
-7.69709e-11
0.00267858
5.86094e-05
-7.64746e-11
0.00272954
5.02779e-05
-7.52363e-11
0.00277241
4.16969e-05
-7.63124e-11
0.00280753
3.41069e-05
-7.75434e-11
0.00283764
2.81555e-05
-7.90648e-11
0.00286263
2.3365e-05
-7.8091e-11
0.00288369
1.99921e-05
-7.65386e-11
0.00290015
1.62398e-05
-7.50915e-11
0.00291409
1.44673e-05
-7.55952e-11
0.00292382
9.78779e-06
-7.70689e-11
0.00293377
1.06469e-05
-7.82305e-11
0.00293712
2.38396e-06
-7.8049e-11
0.00294655
1.06208e-05
-7.68608e-11
0.00294314
-4.44297e-06
-7.59014e-11
1.19105e-05
-7.5244e-11
0.00295413
0.00235965
-2.8039e-10
-7.74514e-11
0.00241056
3.07616e-10
-7.74754e-11
0.00247438
-2.20508e-10
-7.71617e-11
0.00254453
1.15988e-09
-7.75608e-11
0.00261123
-7.19828e-10
-7.67899e-11
0.00267256
1.59028e-09
-7.65589e-11
0.00272453
-1.03433e-09
-7.5663e-11
0.00276904
3.10373e-09
-7.65499e-11
0.00280623
9.2553e-10
-7.69473e-11
0.00283881
6.24056e-09
-7.76701e-11
0.00286663
5.18348e-09
-7.66865e-11
0.00289116
1.71399e-08
-7.59735e-11
0.00291131
1.3496e-08
-7.54647e-11
0.00292941
6.30422e-08
-7.62304e-11
0.00294263
3.20637e-08
-7.73024e-11
0.00295634
2.09073e-07
-7.77334e-11
0.00296153
1.06829e-07
-7.79125e-11
0.00297383
5.71303e-07
-7.68119e-11
0.00297067
5.33247e-07
-7.67638e-11
1.177e-06
-7.63628e-11
0.00298272
0.00235965
-2.67101e-05
-7.74932e-11
0.00241056
-4.83272e-05
-7.75511e-11
0.00247438
-6.38408e-05
-7.726e-11
0.00254453
-6.78115e-05
-7.76566e-11
0.00261123
-6.51678e-05
-7.68869e-11
0.00267256
-5.86061e-05
-7.68817e-11
0.00272453
-5.02801e-05
-7.62546e-11
0.00276904
-4.16906e-05
-7.71528e-11
0.00280623
-3.41055e-05
-7.68997e-11
0.00283881
-2.81426e-05
-7.68903e-11
0.00286664
-2.33557e-05
-7.57217e-11
0.00289116
-1.99569e-05
-7.5652e-11
0.00291131
-1.6215e-05
-7.5937e-11
0.00292941
-1.43402e-05
-7.68858e-11
0.00294263
-9.72869e-06
-7.7493e-11
0.00295635
-1.0231e-05
-7.71358e-11
0.00296156
-2.1907e-06
-7.69469e-11
0.00297388
-9.50087e-06
-7.67531e-11
0.00297078
5.45201e-06
-7.78861e-11
-9.65318e-06
-7.83508e-11
0.00298292
0.00236202
-5.68111e-05
-7.74755e-11
0.00241501
-9.96948e-05
-7.75955e-11
0.00247966
-0.00012963
-7.7287e-11
0.00255054
-0.000137369
-7.75399e-11
0.00261754
-0.000131749
-7.67398e-11
0.00267858
-0.00011792
-7.70137e-11
0.00272954
-0.000100617
-7.67036e-11
0.00277241
-8.27432e-05
-7.73355e-11
0.00280753
-6.72015e-05
-7.61813e-11
0.00283764
-5.48258e-05
-7.53872e-11
0.00286263
-4.49189e-05
-7.43146e-11
0.00288369
-3.74848e-05
-7.51996e-11
0.00290015
-2.97747e-05
-7.64318e-11
0.00291411
-2.55891e-05
-7.75417e-11
0.00292383
-1.70108e-05
-7.7471e-11
0.00293381
-1.79464e-05
-7.64278e-11
0.00293716
-3.69033e-06
-7.55381e-11
0.00294662
-1.77469e-05
-7.66879e-11
0.00294328
9.52317e-06
-7.87887e-11
-2.03588e-05
-7.95244e-11
0.00295431
0.00236142
-8.42507e-05
-7.75303e-11
0.00241623
-0.000150904
-7.77474e-11
0.00248435
-0.000196745
-7.73992e-11
0.00255741
-0.000207136
-7.7467e-11
0.00262393
-0.000195708
-7.65442e-11
0.00268157
-0.000171839
-7.7231e-11
0.00272676
-0.00014306
-7.7517e-11
0.00276211
-0.00011426
-7.80813e-11
0.0027887
-8.967e-05
-7.61074e-11
0.00280961
-7.0351e-05
-7.45844e-11
0.00282515
-5.50677e-05
-7.37495e-11
0.00283663
-4.354e-05
-7.55641e-11
0.00284406
-3.23609e-05
-7.74716e-11
0.00284951
-2.64044e-05
-7.84368e-11
0.0028524
-1.55114e-05
-7.78314e-11
0.00285601
-1.74499e-05
-7.62875e-11
0.00285594
7.37636e-08
-7.05538e-11
0.00286002
-1.87867e-05
-7.70193e-11
0.00285634
1.59633e-05
-7.98001e-11
-1.74792e-05
-8.04327e-11
0.00285589
0.00237143
-0.000124855
-7.75958e-11
0.00243634
-0.000215223
-7.77741e-11
0.00250357
-0.000266467
-7.72529e-11
0.00256484
-0.000268288
-7.70672e-11
0.0026096
-0.000241403
-7.59579e-11
0.00263928
-0.000200879
-7.67365e-11
0.00265413
-0.000158364
-7.72241e-11
0.00265939
-0.000118526
-7.78208e-11
0.00265764
-8.68929e-05
-7.59875e-11
0.00265254
-6.29428e-05
-7.48869e-11
0.00264524
-4.57778e-05
-7.45538e-11
0.00263707
-3.32655e-05
-7.64323e-11
0.00262922
-2.30183e-05
-7.78858e-11
0.00262195
-1.77116e-05
-7.83647e-11
0.00261716
-9.65962e-06
-7.75327e-11
0.00261267
-1.2189e-05
-7.64477e-11
0.00261217
8.95567e-07
-8.26508e-11
0.0026089
-1.56332e-05
-7.76215e-11
0.00261121
1.32844e-05
-7.94459e-11
-1.29667e-05
-7.9976e-11
0.00260643
0.00238356
-0.000173306
-7.76794e-11
0.00242415
-0.000251048
-7.78369e-11
0.00242546
-0.000265698
-7.72629e-11
0.00239571
-0.000234397
-7.6935e-11
0.00234457
-0.000186911
-7.55358e-11
0.00228639
-0.000138023
-7.60355e-11
0.00222734
-9.51812e-05
-7.65908e-11
0.00217386
-5.96688e-05
-7.77095e-11
0.00212684
-3.45486e-05
-7.67598e-11
0.00208816
-1.83587e-05
-7.6509e-11
0.00205749
-9.68901e-06
-7.6233e-11
0.00203482
-5.21004e-06
-7.70287e-11
0.00201925
-2.46692e-06
-7.70088e-11
0.00200828
-1.9264e-06
-7.66977e-11
0.00200231
8.35081e-07
-7.62937e-11
0.00199639
-2.02711e-06
-7.60559e-11
0.0019963
5.12556e-06
-7.77551e-11
0.00199015
-5.51486e-06
-7.74619e-11
0.00199458
1.30645e-05
-7.8779e-11
1.25534e-05
-7.8965e-11
0.00197352
0.00215655
-7.73001e-11
0.00190513
-7.75134e-11
0.00163648
-7.74883e-11
0.00140094
-7.75898e-11
0.00121196
-7.70487e-11
0.00107325
-7.77966e-11
0.000976718
-7.74402e-11
0.000916462
-7.78221e-11
0.000880716
-7.71408e-11
0.000861509
-7.74315e-11
0.000850532
-7.69514e-11
0.000844201
-7.70122e-11
0.000840373
-7.65749e-11
0.000837158
-7.66485e-11
0.000836629
-7.69601e-11
0.000833257
-7.71716e-11
0.000837116
-7.81507e-11
0.000830296
-7.77623e-11
0.000842184
-7.84374e-11
-7.82901e-11
0.000853782
0.00215655
0.000173305
-2.74571e-06
0.00190513
0.000251048
-4.45975e-06
0.00163648
0.000265698
-1.87819e-06
0.00140094
0.000234397
-3.23155e-06
0.00121196
0.000186911
-1.88421e-06
0.00107325
0.000138023
-2.9035e-06
0.000976717
9.51814e-05
-2.00565e-06
0.00091646
5.96699e-05
-2.66909e-06
0.000880713
3.45499e-05
-2.05223e-06
0.000861503
1.83614e-05
-2.43982e-06
0.000850521
9.69363e-06
-2.0524e-06
0.000844181
5.22006e-06
-2.26283e-06
0.000840339
2.4774e-06
-2.05629e-06
0.000837087
1.96769e-06
-2.1542e-06
0.000836536
-8.19021e-07
-2.08534e-06
0.000833023
2.17648e-06
-2.10066e-06
0.000836835
-5.0876e-06
-2.14695e-06
0.000829605
5.91932e-06
-2.07724e-06
0.000841243
-1.27459e-05
-2.1927e-06
-1.21142e-05
-2.27659e-06
0.000852192
0.00238356
0.000124855
-7.9494e-06
0.00242414
0.000215223
-9.82986e-06
0.00242546
0.000266467
-7.3208e-06
0.00239571
0.000268289
-8.66057e-06
0.00234457
0.000241402
-7.24973e-06
0.00228639
0.000200881
-8.28888e-06
0.00222734
0.000158363
-7.38991e-06
0.00217386
0.00011853
-8.04346e-06
0.00212684
8.68929e-05
-7.43894e-06
0.00208815
6.29517e-05
-7.80701e-06
0.00205748
4.57827e-05
-7.43466e-06
0.0020348
3.329e-05
-7.62224e-06
0.00201922
2.30333e-05
-7.43718e-06
0.00200821
1.77976e-05
-7.50607e-06
0.00200222
9.688e-06
-7.46993e-06
0.00199616
1.24747e-05
-7.44783e-06
0.00199603
-8.0099e-07
-7.54144e-06
0.00198947
1.64087e-05
-7.41478e-06
0.00199368
-1.2666e-05
-7.67908e-06
1.44284e-05
-7.68243e-06
0.00197149
0.00237143
8.42503e-05
-3.64599e-06
0.00243634
0.000150904
-5.70853e-06
0.00250357
0.000196745
-2.82721e-06
0.00256484
0.000207138
-4.60147e-06
0.0026096
0.000195706
-2.82601e-06
0.00263928
0.000171842
-4.25256e-06
0.00265413
0.000143058
-3.07999e-06
0.00265938
0.000114266
-4.0365e-06
0.00265764
8.96696e-05
-3.23327e-06
0.00265254
7.0363e-05
-3.81544e-06
0.00264523
5.50738e-05
-3.29492e-06
0.00263706
4.35725e-05
-3.63753e-06
0.00262921
3.23799e-05
-3.34321e-06
0.00262191
2.65167e-05
-3.52408e-06
0.00261711
1.55511e-05
-3.40788e-06
0.00261253
1.78161e-05
-3.47187e-06
0.002612
5.34364e-08
-3.49676e-06
0.0026085
1.97792e-05
-3.47269e-06
0.00261067
-1.51866e-05
-3.51697e-06
1.93686e-05
-3.64944e-06
0.00260544
0.00236142
5.68106e-05
-6.8106e-06
0.00241623
9.96951e-05
-8.73086e-06
0.00248435
0.00012963
-6.3206e-06
0.00255741
0.000137371
-7.72621e-06
0.00262393
0.000131747
-6.26345e-06
0.00268157
0.000117924
-7.3232e-06
0.00272676
0.000100615
-6.3938e-06
0.00276211
8.27493e-05
-7.07054e-06
0.00278869
6.7202e-05
-6.45037e-06
0.00280961
5.48381e-05
-6.83895e-06
0.00282515
4.49275e-05
-6.45689e-06
0.00283663
3.75191e-05
-6.65993e-06
0.00284405
2.97996e-05
-6.4645e-06
0.00284949
2.57106e-05
-6.54082e-06
0.00285236
1.70665e-05
-6.49319e-06
0.00285594
1.83456e-05
-6.47996e-06
0.00285582
3.87168e-06
-6.56363e-06
0.00285979
1.88373e-05
-6.47025e-06
0.00285595
-8.571e-06
-6.71092e-06
2.2586e-05
-6.71956e-06
0.00285516
0.00236202
2.67096e-05
-4.75184e-06
0.00241501
4.83277e-05
-6.75214e-06
0.00247966
6.384e-05
-4.17082e-06
0.00255054
6.78134e-05
-5.74147e-06
0.00261754
6.51662e-05
-4.11966e-06
0.00267858
5.86096e-05
-5.32706e-06
0.00272954
5.02781e-05
-4.29391e-06
0.00277241
4.16968e-05
-5.08258e-06
0.00280753
3.41064e-05
-4.38882e-06
0.00283764
2.81552e-05
-4.86168e-06
0.00286263
2.33652e-05
-4.42668e-06
0.00288369
1.99931e-05
-4.69309e-06
0.00290015
1.62411e-05
-4.45735e-06
0.00291409
1.44685e-05
-4.57917e-06
0.00292382
9.78874e-06
-4.49987e-06
0.00293377
1.06475e-05
-4.52237e-06
0.00293712
2.38474e-06
-4.57181e-06
0.00294655
1.06216e-05
-4.53179e-06
0.00294314
-4.44192e-06
-4.62701e-06
1.19111e-05
-4.71714e-06
0.00295413
0.00235965
-2.84074e-10
-5.76862e-06
0.00241056
1.32111e-10
-7.72105e-06
0.00247438
-5.80444e-10
-5.28501e-06
0.00254453
7.40725e-10
-6.75113e-06
0.00261123
-8.38544e-10
-5.22373e-06
0.00267256
1.8143e-09
-6.33229e-06
0.00272453
-8.05149e-10
-5.36204e-06
0.00276904
2.93021e-09
-6.07959e-06
0.00280623
4.03486e-10
-5.43321e-06
0.00283881
5.83524e-09
-5.85575e-06
0.00286663
5.4212e-09
-5.4579e-06
0.00289116
1.81468e-08
-5.68788e-06
0.00291131
1.49376e-08
-5.47924e-06
0.00292941
6.438e-08
-5.57257e-06
0.00294263
3.30609e-08
-5.51203e-06
0.00295634
2.09783e-07
-5.51292e-06
0.00296153
1.07687e-07
-5.58129e-06
0.00297383
5.72168e-07
-5.519e-06
0.00297067
5.3438e-07
-5.6921e-06
1.17762e-06
-5.73313e-06
0.00298272
0.00235965
-2.67101e-05
-5.76862e-06
0.00241056