/*--------------------------------*- C++ -*----------------------------------*\
  =========                 |
  \\      /  F ield         | OpenFOAM: The Open Source CFD Toolbox
   \\    /   O peration     | Website:  https://openfoam.org
    \\  /    A nd           | Version:  7
     \\/     M anipulation  |
\*---------------------------------------------------------------------------*/
FoamFile
{
    version     2.0;
    format      ascii;
    class       volScalarField;
    location    "0.36";
    object      pPrime2Mean;
}
// * * * * * * * * * * * * * * * * * * * * * * * * * * * * * * * * * * * * * //

dimensions      [2 -2 -4 0 0 0 0];

internalField   nonuniform List<scalar> 
2400
(
0.958471
0.949045
0.94313
0.937599
0.932732
0.928324
0.924372
0.920607
0.917282
0.913979
0.910988
0.908138
0.905336
0.902847
0.900244
0.897701
0.895317
0.892885
0.890734
0.888395
0.886225
0.883987
0.881882
0.879583
0.877483
0.875399
0.873081
0.871
0.868809
0.86676
0.864683
0.862591
0.860252
0.858379
0.856287
0.854233
0.85199
0.849905
0.847885
0.845516
0.843584
0.841402
0.839256
0.837015
0.835026
0.832994
0.830618
0.828463
0.826338
0.824083
0.821964
0.819778
0.817545
0.815384
0.813211
0.811003
0.808794
0.806482
0.804348
0.802055
0.799711
0.797548
0.795181
0.792934
0.790562
0.788376
0.786074
0.783703
0.781368
0.779013
0.776697
0.774359
0.771973
0.769617
0.76721
0.764851
0.762383
0.759752
0.757626
0.75502
0.752707
0.75025
0.747746
0.745352
0.742941
0.740469
0.737911
0.73543
0.732981
0.730421
0.728024
0.725519
0.723103
0.720592
0.718204
0.715612
0.713039
0.710464
0.708174
0.705568
0.703045
0.700542
0.698139
0.695583
0.69298
0.69051
0.688185
0.685738
0.68329
0.680771
0.678232
0.675785
0.67345
0.671165
0.668638
0.666323
0.663912
0.661642
0.659121
0.656759
0.958275
0.949095
0.943134
0.937677
0.932743
0.928341
0.924358
0.92057
0.917185
0.913914
0.91082
0.907967
0.905455
0.902802
0.900175
0.897652
0.895334
0.892874
0.890606
0.888409
0.88624
0.884008
0.881884
0.879587
0.877501
0.87538
0.8731
0.871019
0.868813
0.866787
0.864698
0.86261
0.860287
0.858395
0.856291
0.854239
0.851986
0.849909
0.847887
0.845526
0.843594
0.841408
0.839256
0.837008
0.83503
0.832994
0.830622
0.828459
0.826317
0.824066
0.821957
0.81978
0.817543
0.815372
0.81321
0.810999
0.808798
0.806498
0.804359
0.802053
0.799713
0.797544
0.795187
0.79294
0.790562
0.788361
0.786074
0.783697
0.78137
0.77902
0.776705
0.774387
0.771955
0.769602
0.767204
0.764837
0.762377
0.759756
0.757627
0.755016
0.752726
0.750246
0.747749
0.745359
0.742918
0.740461
0.737894
0.735432
0.732973
0.730413
0.728029
0.725538
0.723091
0.720583
0.718203
0.715635
0.71306
0.710455
0.708164
0.70557
0.703043
0.700541
0.698141
0.695583
0.692968
0.690496
0.688181
0.685738
0.683289
0.680763
0.678228
0.675787
0.67345
0.671165
0.66864
0.666307
0.663929
0.661648
0.659098
0.656765
0.958256
0.948917
0.942997
0.937611
0.932829
0.928396
0.924379
0.920534
0.917128
0.913925
0.910975
0.907877
0.905451
0.902752
0.900154
0.897633
0.895367
0.892899
0.890659
0.888435
0.886194
0.883999
0.881882
0.879597
0.877495
0.875383
0.873096
0.870991
0.868816
0.866747
0.864668
0.862587
0.86027
0.858412
0.856298
0.854219
0.851994
0.849903
0.847866
0.845514
0.843582
0.841404
0.839262
0.837021
0.835026
0.833004
0.830631
0.828472
0.826326
0.8241
0.821938
0.819784
0.817535
0.815401
0.813217
0.811007
0.808784
0.806492
0.804338
0.802082
0.799717
0.797533
0.795198
0.792942
0.790554
0.788364
0.786076
0.783689
0.78138
0.779028
0.776699
0.77438
0.771955
0.769609
0.7672
0.764847
0.762379
0.759758
0.757631
0.75502
0.752718
0.750254
0.747765
0.745363
0.742926
0.740465
0.737896
0.735441
0.732973
0.730404
0.728022
0.725534
0.723085
0.720573
0.718193
0.715637
0.713055
0.710457
0.708162
0.705582
0.703045
0.700544
0.698141
0.695597
0.692959
0.690491
0.688192
0.685728
0.68329
0.680769
0.678242
0.675777
0.673456
0.671165
0.66864
0.666306
0.663906
0.661625
0.659098
0.656713
0.958252
0.948982
0.943069
0.937613
0.932718
0.928358
0.924328
0.920639
0.917164
0.913836
0.910948
0.908075
0.905416
0.902769
0.900213
0.897631
0.895342
0.892965
0.890642
0.888462
0.886187
0.883984
0.881868
0.87961
0.87747
0.875391
0.873089
0.870977
0.868822
0.866753
0.864672
0.862595
0.86026
0.858391
0.8563
0.854225
0.851976
0.849915
0.847866
0.845518
0.843588
0.841402
0.839252
0.837038
0.835026
0.833002
0.830641
0.828472
0.826332
0.824093
0.82193
0.819778
0.817539
0.815388
0.81321
0.811003
0.808784
0.80649
0.804356
0.802065
0.799709
0.797535
0.795183
0.792952
0.790558
0.788364
0.786076
0.783703
0.781372
0.77902
0.776709
0.77438
0.77195
0.769611
0.7672
0.764854
0.762371
0.759754
0.757627
0.755035
0.752701
0.750246
0.747751
0.745358
0.742935
0.740469
0.737906
0.73543
0.732973
0.730412
0.728012
0.725521
0.723083
0.720592
0.718191
0.715626
0.713036
0.710457
0.708158
0.705564
0.703039
0.700542
0.698147
0.695585
0.692974
0.690506
0.688189
0.685741
0.6833
0.680777
0.678236
0.675791
0.673456
0.671164
0.66864
0.666321
0.663908
0.661642
0.6591
0.656736
0.958292
0.948839
0.943003
0.937521
0.932789
0.928314
0.924162
0.920584
0.917097
0.913839
0.911005
0.908169
0.90543
0.902636
0.900187
0.89757
0.89535
0.892962
0.890615
0.88846
0.886168
0.884003
0.881853
0.879623
0.877481
0.875399
0.873083
0.870981
0.86879
0.866749
0.864668
0.862585
0.860247
0.8584
0.856316
0.854235
0.851988
0.849913
0.847866
0.845516
0.843561
0.841404
0.839249
0.837042
0.835026
0.832983
0.830629
0.828485
0.826334
0.824102
0.821938
0.819786
0.817532
0.815395
0.813221
0.811003
0.808783
0.806505
0.804342
0.802057
0.799719
0.797527
0.795202
0.792944
0.790554
0.78837
0.786081
0.783709
0.781368
0.779034
0.776705
0.774389
0.771952
0.769604
0.767208
0.764849
0.762367
0.759752
0.757618
0.755037
0.752703
0.750256
0.747742
0.745363
0.742931
0.740456
0.737892
0.735435
0.732981
0.730402
0.728014
0.725533
0.723095
0.720592
0.718191
0.715628
0.713032
0.710459
0.708166
0.705566
0.703049
0.700539
0.698135
0.69557
0.692976
0.6905
0.688194
0.685743
0.683296
0.680777
0.678249
0.675785
0.673445
0.67116
0.668642
0.666321
0.663906
0.661621
0.659109
0.656738
0.958208
0.948833
0.943005
0.937504
0.932585
0.928261
0.924271
0.920591
0.917097
0.913919
0.910873
0.908192
0.905413
0.902628
0.900162
0.897501
0.895344
0.892908
0.890633
0.88846
0.886198
0.883999
0.881874
0.879656
0.87747
0.875416
0.87306
0.870981
0.868807
0.866739
0.864664
0.862597
0.860231
0.8584
0.8563
0.854227
0.851994
0.849916
0.847858
0.84552
0.843561
0.841406
0.839254
0.837036
0.835026
0.832987
0.830616
0.828497
0.82634
0.8241
0.821936
0.819777
0.817535
0.815397
0.813215
0.811005
0.808783
0.806503
0.804348
0.802055
0.799719
0.797516
0.795198
0.792934
0.790554
0.788366
0.786076
0.783701
0.781363
0.779032
0.776699
0.774397
0.77195
0.769609
0.76721
0.764851
0.762373
0.759758
0.757614
0.755037
0.752712
0.750248
0.747744
0.745361
0.742926
0.740463
0.737907
0.735447
0.732983
0.7304
0.728018
0.725523
0.723103
0.720587
0.718193
0.715633
0.713032
0.710442
0.708164
0.70557
0.703049
0.700535
0.698145
0.695587
0.69298
0.6905
0.688196
0.685732
0.683304
0.680779
0.678249
0.675789
0.673452
0.671156
0.668642
0.666319
0.663902
0.661617
0.659117
0.656738
0.95821
0.948874
0.943014
0.93758
0.932686
0.928324
0.924206
0.920557
0.917133
0.913902
0.911007
0.908085
0.905394
0.90262
0.900208
0.897507
0.895338
0.892944
0.890627
0.888472
0.886198
0.883995
0.881876
0.87962
0.877464
0.875431
0.873068
0.870985
0.868801
0.866728
0.864668
0.862595
0.860245
0.858379
0.8563
0.854227
0.851999
0.849913
0.847864
0.845518
0.843554
0.841408
0.839239
0.837036
0.835032
0.832996
0.830624
0.828499
0.826344
0.824102
0.821943
0.819784
0.817526
0.815401
0.813208
0.810999
0.808794
0.806501
0.804337
0.802061
0.799738
0.797525
0.795206
0.792934
0.790552
0.788359
0.786077
0.783705
0.781359
0.779032
0.776705
0.774391
0.771967
0.769604
0.76721
0.764856
0.762371
0.759758
0.757624
0.755035
0.752708
0.750248
0.747742
0.745365
0.742928
0.740458
0.737898
0.735432
0.732975
0.730404
0.728022
0.725525
0.723103
0.720591
0.718191
0.71563
0.713043
0.710451
0.708168
0.705564
0.703045
0.700533
0.698141
0.695574
0.69298
0.690506
0.688196
0.685741
0.683302
0.680782
0.678244
0.675795
0.673443
0.671164
0.668638
0.666311
0.6639
0.661617
0.65913
0.656733
0.958189
0.948847
0.943069
0.937536
0.932695
0.928133
0.924232
0.920494
0.917116
0.914011
0.910835
0.908066
0.905361
0.902657
0.900208
0.897528
0.895344
0.892965
0.890675
0.888447
0.886213
0.883999
0.881876
0.879627
0.877468
0.875439
0.873077
0.870962
0.868801
0.866732
0.864655
0.862602
0.860231
0.858389
0.856297
0.854223
0.852011
0.849924
0.847853
0.845522
0.843559
0.84141
0.839235
0.837032
0.835024
0.832983
0.83062
0.828508
0.826366
0.8241
0.821955
0.819782
0.817532
0.815393
0.813223
0.810993
0.808792
0.806501
0.804348
0.802061
0.799738
0.797527
0.795206
0.792931
0.790552
0.788364
0.786095
0.783709
0.781366
0.779034
0.776714
0.774393
0.771957
0.769608
0.76721
0.764862
0.762371
0.759777
0.757622
0.755024
0.75271
0.750257
0.747746
0.745365
0.742924
0.740454
0.7379
0.735439
0.732983
0.730408
0.728022
0.725546
0.723106
0.720583
0.718187
0.715639
0.713041
0.710464
0.708178
0.705568
0.703056
0.700537
0.698139
0.69558
0.69298
0.690496
0.688183
0.68572
0.683306
0.680775
0.678242
0.675787
0.67345
0.671162
0.668634
0.666313
0.663908
0.66161
0.659134
0.656738
0.958021
0.94878
0.942938
0.937523
0.93264
0.928259
0.924278
0.920521
0.917095
0.914053
0.910763
0.908127
0.905352
0.902719
0.900187
0.897533
0.895342
0.89291
0.890692
0.888426
0.886219
0.884012
0.881861
0.879627
0.877472
0.875431
0.873079
0.87096
0.868799
0.866726
0.864641
0.862598
0.860256
0.858366
0.856304
0.854229
0.852016
0.849918
0.847843
0.84552
0.843555
0.841408
0.839239
0.837027
0.835022
0.832977
0.830614
0.828514
0.826387
0.8241
0.821949
0.81979
0.817522
0.81539
0.813221
0.810991
0.80879
0.80649
0.804344
0.802073
0.79974
0.797518
0.795198
0.792931
0.79055
0.788374
0.786095
0.783705
0.781359
0.779028
0.776714
0.774389
0.771954
0.769594
0.767214
0.76487
0.762367
0.759773
0.757627
0.755026
0.752714
0.75025
0.747749
0.745367
0.742928
0.740461
0.737904
0.735434
0.732981
0.730402
0.728025
0.725552
0.723091
0.720579
0.718199
0.715637
0.713043
0.710464
0.708166
0.705572
0.70306
0.700537
0.698135
0.695581
0.692982
0.690495
0.688194
0.685722
0.683311
0.680775
0.678236
0.675797
0.673445
0.671156
0.668642
0.666321
0.663895
0.661602
0.659119
0.656734
0.957975
0.948835
0.942999
0.937561
0.932674
0.928328
0.92424
0.920549
0.917084
0.913984
0.910831
0.90811
0.905329
0.902704
0.900171
0.897528
0.895317
0.892899
0.890718
0.888428
0.886209
0.884005
0.881847
0.879627
0.877478
0.875416
0.873077
0.870947
0.868788
0.866722
0.864643
0.86261
0.860249
0.858374
0.856323
0.854233
0.852001
0.849918
0.847849
0.845522
0.843552
0.841404
0.839249
0.837025
0.835033
0.832968
0.830612
0.828514
0.826368
0.82411
0.82196
0.819788
0.81752
0.81539
0.813229
0.810997
0.808798
0.806494
0.80435
0.802082
0.799746
0.797523
0.795197
0.792934
0.790552
0.788366
0.7861
0.783707
0.781355
0.779024
0.776707
0.774385
0.771957
0.769587
0.76721
0.764858
0.762379
0.759762
0.757633
0.755026
0.752714
0.750244
0.747761
0.745361
0.742922
0.740454
0.737907
0.735437
0.732983
0.730408
0.728025
0.725538
0.723091
0.720568
0.718191
0.715637
0.713041
0.710461
0.708166
0.70558
0.703056
0.700539
0.698137
0.69557
0.692982
0.690489
0.688196
0.685719
0.683308
0.680779
0.678242
0.675795
0.673435
0.671156
0.668646
0.666319
0.663893
0.6616
0.65913
0.656731
0.957975
0.948833
0.942995
0.937553
0.932673
0.928318
0.924227
0.920551
0.917089
0.913984
0.910841
0.908108
0.905331
0.902702
0.900167
0.897526
0.895325
0.892902
0.890715
0.888432
0.886217
0.884008
0.881842
0.87962
0.877476
0.875422
0.873075
0.870955
0.868793
0.866718
0.864645
0.862597
0.860249
0.858368
0.856319
0.854231
0.852011
0.849922
0.847851
0.845522
0.843557
0.841406
0.839256
0.837021
0.835033
0.832975
0.830608
0.828508
0.82637
0.824108
0.821966
0.81979
0.81752
0.81538
0.813231
0.811014
0.808798
0.806496
0.804352
0.802071
0.799744
0.797523
0.795197
0.792934
0.790556
0.788378
0.786095
0.783709
0.781364
0.779039
0.776709
0.774389
0.771957
0.769596
0.767216
0.764864
0.762377
0.759762
0.757637
0.755028
0.752716
0.750248
0.747755
0.745356
0.742926
0.740458
0.73789
0.735441
0.732979
0.73041
0.728024
0.725544
0.723085
0.720573
0.718189
0.715635
0.713043
0.710453
0.70817
0.70557
0.703054
0.700546
0.698139
0.695559
0.692984
0.690487
0.688198
0.685719
0.683302
0.680782
0.678232
0.675795
0.673441
0.671156
0.668657
0.666323
0.663887
0.661591
0.659122
0.656731
0.958019
0.94879
0.942938
0.937529
0.932631
0.928249
0.92429
0.920519
0.917101
0.914057
0.910763
0.908133
0.905354
0.902714
0.900215
0.897535
0.895351
0.892914
0.890701
0.888426
0.88623
0.884005
0.88188
0.87962
0.877481
0.875437
0.873074
0.870962
0.868795
0.866711
0.864645
0.862604
0.860262
0.858366
0.856308
0.854227
0.85202
0.849932
0.847849
0.845505
0.843567
0.84141
0.839256
0.83703
0.835028
0.83297
0.830624
0.828506
0.826389
0.824097
0.82196
0.819788
0.817522
0.815376
0.813232
0.811007
0.808817
0.806494
0.804352
0.802063
0.79974
0.79752
0.795198
0.792938
0.790554
0.788366
0.786093
0.783707
0.781359
0.779047
0.776709
0.774385
0.771952
0.76959
0.767216
0.764862
0.762384
0.75976
0.757643
0.755026
0.752716
0.750248
0.747759
0.745365
0.742928
0.740463
0.737894
0.735434
0.732971
0.7304
0.728029
0.725557
0.723095
0.720579
0.718184
0.71563
0.713039
0.710459
0.708178
0.705574
0.70306
0.700535
0.698149
0.69557
0.692989
0.690489
0.688198
0.685722
0.6833
0.680782
0.67823
0.675791
0.673435
0.671156
0.668657
0.666327
0.663881
0.661604
0.659128
0.656725
0.958183
0.948858
0.943096
0.937551
0.932705
0.928135
0.924255
0.920483
0.91711
0.914022
0.910849
0.908083
0.905373
0.902637
0.900198
0.897516
0.895323
0.892954
0.890667
0.888451
0.886213
0.883993
0.881866
0.879629
0.877468
0.875443
0.873083
0.870975
0.868795
0.866711
0.864656
0.862602
0.860256
0.858376
0.856308
0.854218
0.852003
0.849934
0.847857
0.845499
0.843571
0.841404
0.839252
0.837032
0.835026
0.832981
0.830618
0.828497
0.826366
0.824106
0.821964
0.819788
0.817528
0.815382
0.813229
0.811003
0.808802
0.806498
0.804356
0.802059
0.799726
0.797518
0.795195
0.79294
0.790552
0.78837
0.786104
0.783709
0.781361
0.779045
0.776707
0.774384
0.771959
0.76959
0.767221
0.764872
0.762384
0.75976
0.757643
0.75503
0.752726
0.75025
0.747757
0.745358
0.742928
0.740463
0.73789
0.735435
0.732973
0.730394
0.728016
0.725548
0.723099
0.720575
0.718193
0.71563
0.713041
0.710451
0.708172
0.705572
0.703064
0.700542
0.698137
0.69557
0.692991
0.690481
0.68819
0.685717
0.683304
0.680788
0.67823
0.675806
0.673441
0.671156
0.668648
0.666325
0.663876
0.661594
0.659132
0.656734
0.958208
0.948896
0.942993
0.937578
0.932684
0.928335
0.924212
0.920538
0.917147
0.913902
0.911005
0.908075
0.905401
0.902624
0.900204
0.897516
0.895346
0.892939
0.890615
0.888493
0.886209
0.884001
0.881876
0.879631
0.877474
0.875439
0.873079
0.870991
0.868797
0.866711
0.86467
0.862595
0.860243
0.858381
0.856308
0.854225
0.852007
0.849922
0.847872
0.84549
0.843571
0.841412
0.839254
0.837042
0.835032
0.832979
0.830624
0.828485
0.826347
0.824104
0.82196
0.819769
0.817533
0.815392
0.813232
0.811014
0.808813
0.806494
0.804354
0.802053
0.799732
0.797533
0.795197
0.792938
0.79055
0.78838
0.786102
0.783707
0.781357
0.779043
0.776711
0.774385
0.771963
0.769588
0.767225
0.76486
0.762384
0.759766
0.757645
0.755035
0.752728
0.750244
0.747753
0.745363
0.742929
0.740459
0.737894
0.735437
0.732973
0.730398
0.728014
0.72554
0.723091
0.720573
0.718187
0.715628
0.713039
0.710449
0.708181
0.70557
0.703066
0.700542
0.698147
0.695566
0.69298
0.690485
0.688196
0.685717
0.683311
0.680777
0.678223
0.6758
0.673443
0.671152
0.668646
0.666325
0.663887
0.661598
0.659124
0.656736
0.958191
0.948797
0.94298
0.937513
0.932594
0.928244
0.924259
0.920578
0.917116
0.913918
0.910887
0.908205
0.905416
0.90262
0.900175
0.89749
0.895336
0.892908
0.890625
0.888458
0.886204
0.883987
0.881876
0.879658
0.877466
0.875429
0.87307
0.870983
0.868809
0.866714
0.864664
0.862593
0.860239
0.858395
0.856312
0.854221
0.851978
0.849926
0.84787
0.845493
0.843584
0.841415
0.839251
0.837038
0.83503
0.832981
0.830616
0.828487
0.826347
0.824112
0.82196
0.819761
0.817541
0.81539
0.813225
0.811018
0.8088
0.806494
0.804354
0.802052
0.79973
0.79752
0.795197
0.792942
0.790558
0.788378
0.786102
0.783712
0.781359
0.779047
0.776697
0.774384
0.771957
0.769585
0.767208
0.76486
0.762381
0.75976
0.757656
0.755028
0.752708
0.750252
0.747757
0.745371
0.742937
0.740459
0.737888
0.735434
0.732967
0.730394
0.728008
0.72554
0.723103
0.720577
0.718195
0.715635
0.713039
0.710459
0.708189
0.705574
0.703074
0.700548
0.698145
0.695559
0.692982
0.690489
0.688194
0.685728
0.683311
0.680777
0.678226
0.675806
0.673447
0.671144
0.668642
0.666332
0.663893
0.661615
0.659128
0.656729
0.958281
0.948833
0.942987
0.937513
0.932804
0.928301
0.924168
0.920588
0.917091
0.913851
0.91099
0.908169
0.905439
0.90262
0.900194
0.89757
0.895342
0.892967
0.890602
0.888458
0.886187
0.883986
0.881855
0.879639
0.877499
0.87541
0.873079
0.870979
0.868811
0.866728
0.86467
0.862591
0.860239
0.858408
0.856329
0.854219
0.85198
0.849928
0.847874
0.845495
0.843576
0.841393
0.839262
0.837032
0.835022
0.832975
0.830624
0.82848
0.82634
0.824116
0.821955
0.819761
0.817526
0.81539
0.813223
0.811028
0.80879
0.806496
0.804348
0.802053
0.79973
0.797537
0.795202
0.792944
0.790545
0.788372
0.7861
0.783718
0.781361
0.779049
0.776707
0.774374
0.771959
0.769588
0.767218
0.764868
0.762379
0.759752
0.757654
0.755018
0.752718
0.750244
0.747755
0.745365
0.742939
0.740459
0.73789
0.735435
0.732967
0.730391
0.728006
0.725536
0.723099
0.720585
0.718203
0.715631
0.713037
0.710463
0.708185
0.70558
0.703075
0.700542
0.698137
0.695549
0.692974
0.690481
0.688198
0.68572
0.683317
0.680775
0.678234
0.675804
0.67345
0.671152
0.668648
0.666323
0.663891
0.661621
0.659107
0.656742
0.95825
0.948961
0.943073
0.937613
0.932709
0.928349
0.924339
0.92063
0.91716
0.913845
0.910954
0.908068
0.905401
0.90279
0.900217
0.897629
0.895342
0.892962
0.890642
0.888456
0.886196
0.883991
0.881851
0.879629
0.877504
0.875408
0.873081
0.870991
0.868822
0.86673
0.864677
0.862577
0.860247
0.858395
0.856298
0.854212
0.851963
0.849928
0.847878
0.845495
0.843603
0.841394
0.839252
0.837038
0.835028
0.833004
0.830639
0.828485
0.826334
0.8241
0.821955
0.819765
0.817545
0.815386
0.813221
0.811028
0.8088
0.806498
0.804367
0.802032
0.799706
0.797548
0.795179
0.792948
0.79055
0.788368
0.786091
0.783718
0.781357
0.779037
0.776705
0.77438
0.771963
0.769588
0.767214
0.764872
0.762375
0.759748
0.757652
0.755033
0.752707
0.750235
0.747759
0.745363
0.742939
0.740456
0.737902
0.735428
0.732973
0.730404
0.728003
0.725525
0.723103
0.720575
0.718203
0.715622
0.713026
0.710459
0.708189
0.705576
0.703075
0.70055
0.698132
0.695568
0.692982
0.690489
0.688204
0.685724
0.683308
0.680769
0.678221
0.675802
0.673458
0.671156
0.668642
0.666315
0.663904
0.661642
0.659098
0.656742
0.958241
0.948908
0.943045
0.937571
0.932835
0.928419
0.924351
0.92057
0.917145
0.91391
0.910973
0.907902
0.905436
0.902742
0.900169
0.897635
0.895372
0.892904
0.890663
0.888441
0.886206
0.883991
0.881861
0.879618
0.877516
0.87541
0.873075
0.871
0.868805
0.86672
0.864676
0.862587
0.860254
0.8584
0.8563
0.854219
0.851969
0.84992
0.847885
0.845507
0.843603
0.841394
0.83926
0.83703
0.835028
0.832994
0.830631
0.828482
0.826342
0.82411
0.821951
0.819756
0.817543
0.815386
0.813223
0.811033
0.808798
0.806501
0.804338
0.802048
0.799736
0.797539
0.795204
0.79294
0.790558
0.788372
0.7861
0.783709
0.781361
0.779039
0.776697
0.77438
0.771952
0.769579
0.767225
0.764872
0.762381
0.759752
0.757647
0.755037
0.752718
0.750248
0.747763
0.745361
0.742941
0.740454
0.737898
0.73543
0.732958
0.730406
0.728016
0.725529
0.723095
0.720568
0.718187
0.715633
0.713039
0.710457
0.708189
0.705595
0.703074
0.700546
0.698135
0.69557
0.692976
0.690483
0.688196
0.685722
0.683306
0.680758
0.678234
0.675798
0.673443
0.671154
0.66864
0.666315
0.663908
0.661627
0.659096
0.656717
0.958265
0.949087
0.943123
0.937681
0.932747
0.928341
0.924358
0.92057
0.917187
0.913897
0.910809
0.907969
0.905447
0.902796
0.900173
0.897638
0.895319
0.892868
0.890614
0.888411
0.88625
0.884012
0.881863
0.87961
0.877525
0.875406
0.873095
0.871031
0.868801
0.866758
0.864708
0.862614
0.86027
0.858389
0.856285
0.854233
0.851967
0.849926
0.847904
0.845505
0.843605
0.841402
0.839262
0.837009
0.835047
0.833002
0.830624
0.828463
0.82634
0.824083
0.821981
0.819746
0.817526
0.815384
0.813215
0.811022
0.808798
0.806503
0.804375
0.802046
0.799709
0.79755
0.795183
0.792953
0.790565
0.788376
0.786087
0.783712
0.781345
0.779045
0.776695
0.774378
0.771952
0.769583
0.767233
0.764877
0.762383
0.75975
0.757643
0.755032
0.752729
0.750231
0.747755
0.745363
0.742924
0.740454
0.737888
0.735428
0.732969
0.730391
0.728012
0.725523
0.723093
0.720573
0.718187
0.715631
0.71303
0.710447
0.708178
0.705587
0.703077
0.700554
0.698135
0.695562
0.692978
0.690485
0.6882
0.685728
0.683311
0.680756
0.678226
0.675806
0.673458
0.67116
0.66864
0.666309
0.663916
0.661642
0.6591
0.656759
0.958456
0.949066
0.943117
0.93762
0.932722
0.92835
0.924381
0.92058
0.917278
0.914013
0.910978
0.908134
0.905367
0.902824
0.900255
0.897705
0.895304
0.892866
0.890751
0.888399
0.886234
0.883995
0.881874
0.879616
0.877489
0.875416
0.873081
0.87101
0.868816
0.866737
0.864676
0.862598
0.860249
0.858377
0.856283
0.854214
0.851965
0.849922
0.847893
0.845507
0.843601
0.841381
0.839247
0.837025
0.835037
0.832993
0.830616
0.828466
0.826345
0.824083
0.821976
0.81975
0.817522
0.815392
0.813223
0.811016
0.808794
0.806494
0.804359
0.802042
0.799711
0.797546
0.795189
0.792953
0.790564
0.78838
0.786098
0.783709
0.781353
0.77903
0.776686
0.774364
0.771971
0.76959
0.767241
0.764874
0.762377
0.759756
0.757641
0.755041
0.752705
0.750227
0.747753
0.745359
0.742945
0.740456
0.737906
0.735428
0.732967
0.73041
0.728001
0.725519
0.723099
0.720575
0.718204
0.715622
0.713022
0.710461
0.708189
0.70558
0.703066
0.700558
0.698133
0.695559
0.692991
0.690491
0.688208
0.685732
0.68331
0.680769
0.678232
0.675798
0.673445
0.671156
0.668644
0.666321
0.663906
0.661636
0.659103
0.656759
)
;

boundaryField
{
    upperWall
    {
        type            calculated;
        value           nonuniform List<scalar> 
120
(
0.958456
0.949066
0.943117
0.93762
0.932722
0.92835
0.924381
0.92058
0.917278
0.914013
0.910978
0.908134
0.905367
0.902824
0.900255
0.897705
0.895304
0.892866
0.890751
0.888399
0.886234
0.883995
0.881874
0.879616
0.877489
0.875416
0.873081
0.87101
0.868816
0.866737
0.864676
0.862598
0.860249
0.858377
0.856283
0.854214
0.851965
0.849922
0.847893
0.845507
0.843601
0.841381
0.839247
0.837025
0.835037
0.832993
0.830616
0.828466
0.826345
0.824083
0.821976
0.81975
0.817522
0.815392
0.813223
0.811016
0.808794
0.806494
0.804359
0.802042
0.799711
0.797546
0.795189
0.792953
0.790564
0.78838
0.786098
0.783709
0.781353
0.77903
0.776686
0.774364
0.771971
0.76959
0.767241
0.764874
0.762377
0.759756
0.757641
0.755041
0.752705
0.750227
0.747753
0.745359
0.742945
0.740456
0.737906
0.735428
0.732967
0.73041
0.728001
0.725519
0.723099
0.720575
0.718204
0.715622
0.713022
0.710461
0.708189
0.70558
0.703066
0.700558
0.698133
0.695559
0.692991
0.690491
0.688208
0.685732
0.68331
0.680769
0.678232
0.675798
0.673445
0.671156
0.668644
0.666321
0.663906
0.661636
0.659103
0.656759
)
;
    }
    lowerWall
    {
        type            calculated;
        value           nonuniform List<scalar> 
120
(
0.958471
0.949045
0.94313
0.937599
0.932732
0.928324
0.924372
0.920607
0.917282
0.913979
0.910988
0.908138
0.905336
0.902847
0.900244
0.897701
0.895317
0.892885
0.890734
0.888395
0.886225
0.883987
0.881882
0.879583
0.877483
0.875399
0.873081
0.871
0.868809
0.86676
0.864683
0.862591
0.860252
0.858379
0.856287
0.854233
0.85199
0.849905
0.847885
0.845516
0.843584
0.841402
0.839256
0.837015
0.835026
0.832994
0.830618
0.828463
0.826338
0.824083
0.821964
0.819778
0.817545
0.815384
0.813211
0.811003
0.808794
0.806482
0.804348
0.802055
0.799711
0.797548
0.795181
0.792934
0.790562
0.788376
0.786074
0.783703
0.781368
0.779013
0.776697
0.774359
0.771973
0.769617
0.76721
0.764851
0.762383
0.759752
0.757626
0.75502
0.752707
0.75025
0.747746
0.745352
0.742941
0.740469
0.737911
0.73543
0.732981
0.730421
0.728024
0.725519
0.723103
0.720592
0.718204
0.715612
0.713039
0.710464
0.708174
0.705568
0.703045
0.700542
0.698139
0.695583
0.69298
0.69051
0.688185
0.685738
0.68329
0.680771
0.678232
0.675785
0.67345
0.671165
0.668638
0.666323
0.663912
0.661642
0.659121
0.656759
)
;
    }
    inlet
    {
        type            calculated;
        value           nonuniform List<scalar> 
20
(
0.958471
0.958275
0.958256
0.958252
0.958292
0.958208
0.95821
0.958189
0.958021
0.957975
0.957975
0.958019
0.958183
0.958208
0.958191
0.958281
0.95825
0.958241
0.958265
0.958456
)
;
    }
    outlet
    {
        type            calculated;
        value           nonuniform List<scalar> 
20
(
0.655418
0.655422
0.655491
0.655457
0.655462
0.655458
0.655468
0.655457
0.655468
0.65547
0.655474
0.655468
0.655464
0.655464
0.655455
0.65546
0.655451
0.655489
0.655418
0.65542
)
;
    }
    frontAndBack
    {
        type            empty;
    }
}


// ************************************************************************* //
