/*--------------------------------*- C++ -*----------------------------------*\
  =========                 |
  \\      /  F ield         | OpenFOAM: The Open Source CFD Toolbox
   \\    /   O peration     | Website:  https://openfoam.org
    \\  /    A nd           | Version:  7
     \\/     M anipulation  |
\*---------------------------------------------------------------------------*/
FoamFile
{
    version     2.0;
    format      ascii;
    class       volScalarField;
    location    "2.8475";
    object      rho_0;
}
// * * * * * * * * * * * * * * * * * * * * * * * * * * * * * * * * * * * * * //

dimensions      [1 -3 0 0 0 0 0];

internalField   nonuniform List<scalar> 
7920
(
1.23395
1.23375
1.23429
1.23388
1.2343
1.23393
1.23422
1.23389
1.23408
1.23383
1.23398
1.2338
1.23389
1.23378
1.23378
1.2338
1.2336
1.23395
1.2332
1.23454
1.23353
1.23337
1.23373
1.23345
1.23374
1.23353
1.23372
1.23352
1.23362
1.23346
1.23353
1.23343
1.23345
1.2334
1.23334
1.23342
1.23315
1.23358
1.23271
1.23424
1.23377
1.23358
1.23403
1.23369
1.23404
1.23377
1.23405
1.23383
1.23402
1.23383
1.23395
1.23379
1.23384
1.23375
1.23371
1.23372
1.23352
1.23377
1.23323
1.23396
1.23357
1.23337
1.23373
1.2334
1.23367
1.23343
1.23364
1.23346
1.23362
1.23348
1.23358
1.23347
1.2335
1.23343
1.23339
1.23337
1.23325
1.23331
1.23309
1.23327
1.23371
1.23348
1.23391
1.23353
1.23385
1.23357
1.23382
1.2336
1.2338
1.23363
1.23377
1.23364
1.23373
1.23361
1.23364
1.23354
1.23353
1.23344
1.2334
1.23332
1.23366
1.23338
1.23381
1.23341
1.23373
1.23343
1.23369
1.23346
1.23366
1.23349
1.23364
1.23349
1.2336
1.23347
1.23353
1.23341
1.23343
1.2333
1.2333
1.23316
1.23366
1.23338
1.23381
1.23341
1.23373
1.23343
1.23369
1.23346
1.23366
1.23349
1.23364
1.23349
1.2336
1.23347
1.23353
1.2334
1.23343
1.2333
1.2333
1.23317
1.23371
1.23348
1.23391
1.23353
1.23385
1.23356
1.23382
1.2336
1.2338
1.23363
1.23378
1.23363
1.23373
1.2336
1.23365
1.23353
1.23355
1.23342
1.23342
1.2333
1.23357
1.23337
1.23373
1.2334
1.23367
1.23343
1.23364
1.23346
1.23362
1.23348
1.23358
1.23346
1.23352
1.23341
1.23342
1.23332
1.23331
1.23322
1.2332
1.23313
1.23377
1.23358
1.23403
1.23369
1.23404
1.23377
1.23405
1.23382
1.23402
1.23382
1.23396
1.23378
1.23387
1.23371
1.23377
1.23363
1.23366
1.23354
1.23356
1.23347
1.23353
1.23337
1.23373
1.23345
1.23374
1.23353
1.23372
1.23352
1.23362
1.23346
1.23354
1.23341
1.23347
1.23336
1.2334
1.23331
1.23334
1.23326
1.23328
1.23323
1.23395
1.23375
1.23429
1.23388
1.2343
1.23393
1.23422
1.23389
1.23409
1.23382
1.23399
1.23379
1.23391
1.23374
1.23384
1.2337
1.23377
1.23365
1.23372
1.23361
1.23123
1.23139
1.23089
1.23127
1.23097
1.23133
1.23106
1.2313
1.23106
1.23127
1.23108
1.23128
1.2311
1.23131
1.23107
1.23141
1.23095
1.23171
1.23036
1.233
1.23161
1.23182
1.23155
1.23174
1.2316
1.23178
1.23171
1.23183
1.23176
1.23185
1.23176
1.23185
1.23175
1.23187
1.23169
1.23195
1.23156
1.23218
1.2312
1.23285
1.2313
1.23157
1.23116
1.23142
1.23115
1.2314
1.23123
1.23144
1.23132
1.23149
1.23137
1.23152
1.2314
1.23154
1.23138
1.23159
1.23131
1.23169
1.23116
1.23191
1.23151
1.23181
1.23147
1.23171
1.2315
1.23171
1.23158
1.23176
1.23168
1.23182
1.23177
1.23188
1.23183
1.23191
1.23184
1.23193
1.23182
1.23194
1.23178
1.23196
1.23135
1.23169
1.23127
1.23158
1.2313
1.23155
1.23137
1.23159
1.23147
1.23164
1.23156
1.2317
1.23163
1.23174
1.23167
1.23175
1.23168
1.23174
1.23168
1.23172
1.23141
1.2318
1.23138
1.23171
1.23143
1.23169
1.23151
1.23173
1.2316
1.23178
1.2317
1.23184
1.23178
1.23188
1.23183
1.23189
1.23185
1.23188
1.23185
1.23187
1.23141
1.2318
1.23138
1.23171
1.23143
1.23169
1.23151
1.23173
1.2316
1.23178
1.2317
1.23184
1.23178
1.23188
1.23183
1.23189
1.23185
1.23188
1.23185
1.23187
1.23135
1.23169
1.23127
1.23158
1.2313
1.23155
1.23137
1.23159
1.23147
1.23164
1.23157
1.2317
1.23164
1.23173
1.23168
1.23174
1.23169
1.23172
1.23169
1.23171
1.23151
1.23181
1.23147
1.23171
1.2315
1.23171
1.23158
1.23176
1.23168
1.23182
1.23178
1.23187
1.23184
1.23189
1.23187
1.23189
1.23187
1.23187
1.23186
1.23186
1.2313
1.23157
1.23116
1.23142
1.23116
1.2314
1.23123
1.23144
1.23132
1.23148
1.23139
1.2315
1.23142
1.2315
1.23144
1.23149
1.23145
1.23149
1.23145
1.2315
1.23161
1.23182
1.23155
1.23174
1.2316
1.23178
1.23171
1.23183
1.23177
1.23184
1.23178
1.23183
1.23178
1.23182
1.23178
1.23181
1.23179
1.23181
1.2318
1.23185
1.23123
1.23139
1.23089
1.23127
1.23097
1.23133
1.23106
1.2313
1.23106
1.23126
1.23109
1.23126
1.23113
1.23126
1.23116
1.23126
1.2312
1.23127
1.23124
1.23135
1.2315
1.23147
1.23138
1.23139
1.23135
1.23142
1.23138
1.23137
1.23123
1.23126
1.23118
1.2313
1.23115
1.23137
1.23101
1.23157
1.23067
1.23218
1.22966
1.23389
1.2315
1.2315
1.23145
1.23145
1.23143
1.23146
1.23146
1.2315
1.23147
1.2315
1.23142
1.23149
1.23134
1.2315
1.23122
1.23157
1.23102
1.2318
1.2307
1.23224
1.2315
1.23149
1.23144
1.23144
1.23141
1.23144
1.23143
1.23147
1.23146
1.2315
1.23147
1.23151
1.23144
1.23149
1.23137
1.23146
1.23127
1.23144
1.23119
1.23144
1.2315
1.23149
1.23145
1.23146
1.23144
1.23146
1.23146
1.2315
1.2315
1.23154
1.23154
1.23156
1.23155
1.23156
1.23152
1.23152
1.23148
1.23145
1.23143
1.23137
1.2315
1.23149
1.23144
1.23145
1.23143
1.23145
1.23145
1.23148
1.23149
1.23152
1.23153
1.23155
1.23155
1.23155
1.23153
1.23151
1.23149
1.23145
1.23144
1.23137
1.23149
1.23149
1.23145
1.23146
1.23144
1.23146
1.23146
1.2315
1.23151
1.23154
1.23155
1.23157
1.23157
1.23157
1.23156
1.23154
1.23152
1.23149
1.23147
1.23143
1.23149
1.23149
1.23145
1.23146
1.23144
1.23146
1.23146
1.2315
1.23151
1.23154
1.23155
1.23157
1.23157
1.23157
1.23156
1.23154
1.23152
1.23149
1.23147
1.23143
1.2315
1.23149
1.23144
1.23145
1.23143
1.23145
1.23145
1.23148
1.23149
1.23152
1.23153
1.23155
1.23155
1.23155
1.23153
1.23151
1.23149
1.23146
1.23143
1.2314
1.2315
1.23149
1.23145
1.23146
1.23144
1.23146
1.23146
1.23149
1.23151
1.23153
1.23154
1.23156
1.23156
1.23155
1.23153
1.23151
1.23148
1.23145
1.23142
1.23139
1.2315
1.23149
1.23144
1.23144
1.23141
1.23143
1.23143
1.23146
1.23146
1.23149
1.23148
1.23149
1.23147
1.23145
1.23142
1.23139
1.23136
1.23133
1.23132
1.2313
1.2315
1.23149
1.23145
1.23145
1.23143
1.23145
1.23146
1.23149
1.23148
1.23148
1.23145
1.23144
1.23141
1.23139
1.23137
1.23135
1.23134
1.23134
1.23134
1.23136
1.2315
1.23147
1.23138
1.23139
1.23135
1.23142
1.23138
1.23136
1.23125
1.23124
1.23121
1.23126
1.23123
1.23124
1.23122
1.23124
1.23123
1.23125
1.23125
1.23126
1.2315
1.23147
1.23138
1.23139
1.23135
1.23142
1.23138
1.23137
1.23123
1.23126
1.23118
1.2313
1.23115
1.23137
1.23101
1.23157
1.23067
1.23218
1.22966
1.23389
1.2315
1.2315
1.23145
1.23145
1.23143
1.23146
1.23146
1.2315
1.23147
1.2315
1.23142
1.23149
1.23134
1.2315
1.23122
1.23157
1.23102
1.2318
1.2307
1.23224
1.2315
1.23149
1.23144
1.23144
1.23141
1.23144
1.23143
1.23147
1.23146
1.2315
1.23147
1.23151
1.23144
1.23149
1.23137
1.23146
1.23127
1.23144
1.23119
1.23144
1.2315
1.23149
1.23145
1.23146
1.23144
1.23146
1.23146
1.2315
1.2315
1.23154
1.23154
1.23156
1.23155
1.23156
1.23152
1.23152
1.23148
1.23145
1.23143
1.23137
1.2315
1.23149
1.23144
1.23145
1.23143
1.23145
1.23145
1.23148
1.23149
1.23152
1.23153
1.23155
1.23155
1.23155
1.23153
1.23151
1.23149
1.23145
1.23144
1.23137
1.23149
1.23149
1.23145
1.23146
1.23144
1.23146
1.23146
1.2315
1.23151
1.23154
1.23155
1.23157
1.23157
1.23157
1.23156
1.23154
1.23152
1.23149
1.23147
1.23143
1.23149
1.23149
1.23145
1.23146
1.23144
1.23146
1.23146
1.2315
1.23151
1.23154
1.23155
1.23157
1.23157
1.23157
1.23156
1.23154
1.23152
1.23149
1.23147
1.23143
1.2315
1.23149
1.23144
1.23145
1.23143
1.23145
1.23145
1.23148
1.23149
1.23152
1.23153
1.23155
1.23155
1.23155
1.23153
1.23151
1.23149
1.23146
1.23143
1.2314
1.2315
1.23149
1.23145
1.23146
1.23144
1.23146
1.23146
1.23149
1.23151
1.23153
1.23154
1.23156
1.23156
1.23155
1.23153
1.23151
1.23148
1.23145
1.23142
1.23139
1.2315
1.23149
1.23144
1.23144
1.23141
1.23143
1.23143
1.23146
1.23146
1.23149
1.23148
1.23149
1.23147
1.23145
1.23142
1.23139
1.23136
1.23133
1.23132
1.2313
1.2315
1.23149
1.23145
1.23145
1.23143
1.23145
1.23146
1.23149
1.23148
1.23148
1.23145
1.23144
1.23141
1.23139
1.23137
1.23135
1.23134
1.23134
1.23134
1.23136
1.2315
1.23147
1.23138
1.23139
1.23135
1.23142
1.23138
1.23136
1.23125
1.23124
1.23121
1.23126
1.23123
1.23124
1.23122
1.23124
1.23123
1.23125
1.23125
1.23126
1.23123
1.23139
1.23089
1.23127
1.23097
1.23133
1.23106
1.2313
1.23106
1.23127
1.23108
1.23128
1.2311
1.23131
1.23107
1.23141
1.23095
1.23171
1.23036
1.233
1.23161
1.23182
1.23155
1.23174
1.2316
1.23178
1.23171
1.23183
1.23176
1.23185
1.23176
1.23185
1.23175
1.23187
1.23169
1.23195
1.23156
1.23218
1.2312
1.23285
1.2313
1.23157
1.23116
1.23142
1.23115
1.2314
1.23123
1.23144
1.23132
1.23149
1.23137
1.23152
1.2314
1.23154
1.23138
1.23159
1.23131
1.23169
1.23116
1.23191
1.23151
1.23181
1.23147
1.23171
1.2315
1.23171
1.23158
1.23176
1.23168
1.23182
1.23177
1.23188
1.23183
1.23191
1.23184
1.23193
1.23182
1.23194
1.23178
1.23196
1.23135
1.23169
1.23127
1.23158
1.2313
1.23155
1.23137
1.23159
1.23147
1.23164
1.23156
1.2317
1.23163
1.23174
1.23167
1.23175
1.23168
1.23174
1.23168
1.23172
1.23141
1.2318
1.23138
1.23171
1.23143
1.23169
1.23151
1.23173
1.2316
1.23178
1.2317
1.23184
1.23178
1.23188
1.23183
1.23189
1.23185
1.23188
1.23185
1.23187
1.23141
1.2318
1.23138
1.23171
1.23143
1.23169
1.23151
1.23173
1.2316
1.23178
1.2317
1.23184
1.23178
1.23188
1.23183
1.23189
1.23185
1.23188
1.23185
1.23187
1.23135
1.23169
1.23127
1.23158
1.2313
1.23155
1.23137
1.23159
1.23147
1.23164
1.23157
1.2317
1.23164
1.23173
1.23168
1.23174
1.23169
1.23172
1.23169
1.23171
1.23151
1.23181
1.23147
1.23171
1.2315
1.23171
1.23158
1.23176
1.23168
1.23182
1.23178
1.23187
1.23184
1.23189
1.23187
1.23189
1.23187
1.23187
1.23186
1.23186
1.2313
1.23157
1.23116
1.23142
1.23116
1.2314
1.23123
1.23144
1.23132
1.23148
1.23139
1.2315
1.23142
1.2315
1.23144
1.23149
1.23145
1.23149
1.23145
1.2315
1.23161
1.23182
1.23155
1.23174
1.2316
1.23178
1.23171
1.23183
1.23177
1.23184
1.23178
1.23183
1.23178
1.23182
1.23178
1.23181
1.23179
1.23181
1.2318
1.23185
1.23123
1.23139
1.23089
1.23127
1.23097
1.23133
1.23106
1.2313
1.23106
1.23126
1.23109
1.23126
1.23113
1.23126
1.23116
1.23126
1.2312
1.23127
1.23124
1.23135
1.23395
1.23375
1.23429
1.23388
1.2343
1.23393
1.23422
1.23389
1.23408
1.23383
1.23398
1.2338
1.23389
1.23378
1.23378
1.2338
1.2336
1.23395
1.2332
1.23454
1.23353
1.23337
1.23373
1.23345
1.23374
1.23353
1.23372
1.23352
1.23362
1.23346
1.23353
1.23343
1.23345
1.2334
1.23334
1.23342
1.23315
1.23358
1.23271
1.23424
1.23377
1.23358
1.23403
1.23369
1.23404
1.23377
1.23405
1.23383
1.23402
1.23383
1.23395
1.23379
1.23384
1.23375
1.23371
1.23372
1.23352
1.23377
1.23323
1.23396
1.23357
1.23337
1.23373
1.2334
1.23367
1.23343
1.23364
1.23346
1.23362
1.23348
1.23358
1.23347
1.2335
1.23343
1.23339
1.23337
1.23325
1.23331
1.23309
1.23327
1.23371
1.23348
1.23391
1.23353
1.23385
1.23357
1.23382
1.2336
1.2338
1.23363
1.23377
1.23364
1.23373
1.23361
1.23364
1.23354
1.23353
1.23344
1.2334
1.23332
1.23366
1.23338
1.23381
1.23341
1.23373
1.23343
1.23369
1.23346
1.23366
1.23349
1.23364
1.23349
1.2336
1.23347
1.23353
1.23341
1.23343
1.2333
1.2333
1.23316
1.23366
1.23338
1.23381
1.23341
1.23373
1.23343
1.23369
1.23346
1.23366
1.23349
1.23364
1.23349
1.2336
1.23347
1.23353
1.2334
1.23343
1.2333
1.2333
1.23317
1.23371
1.23348
1.23391
1.23353
1.23385
1.23356
1.23382
1.2336
1.2338
1.23363
1.23378
1.23363
1.23373
1.2336
1.23365
1.23353
1.23355
1.23342
1.23342
1.2333
1.23357
1.23337
1.23373
1.2334
1.23367
1.23343
1.23364
1.23346
1.23362
1.23348
1.23358
1.23346
1.23352
1.23341
1.23342
1.23332
1.23331
1.23322
1.2332
1.23313
1.23377
1.23358
1.23403
1.23369
1.23404
1.23377
1.23405
1.23382
1.23402
1.23382
1.23396
1.23378
1.23387
1.23371
1.23377
1.23363
1.23366
1.23354
1.23356
1.23347
1.23353
1.23337
1.23373
1.23345
1.23374
1.23353
1.23372
1.23352
1.23362
1.23346
1.23354
1.23341
1.23347
1.23336
1.2334
1.23331
1.23334
1.23326
1.23328
1.23323
1.23395
1.23375
1.23429
1.23388
1.2343
1.23393
1.23422
1.23389
1.23409
1.23382
1.23399
1.23379
1.23391
1.23374
1.23384
1.2337
1.23377
1.23365
1.23372
1.23361
1.22456
1.21759
1.2132
1.20951
1.20663
1.20395
1.20174
1.19957
1.19771
1.19583
1.19418
1.19252
1.19103
1.18951
1.18813
1.18672
1.18542
1.18409
1.18286
1.18159
1.18041
1.1792
1.17806
1.1769
1.1758
1.17469
1.17363
1.17257
1.17156
1.17055
1.1696
1.16866
1.1678
1.16695
1.16618
1.16543
1.16478
1.16415
1.16362
1.16313
1.16272
1.16234
1.16205
1.16178
1.16158
1.1614
1.16127
1.16115
1.16106
1.16098
1.16093
1.16087
1.16083
1.16078
1.16074
1.1607
1.16066
1.16062
1.16059
1.16055
1.16051
1.16047
1.16044
1.1604
1.16036
1.16032
1.16029
1.16025
1.16021
1.16017
1.16014
1.1601
1.16006
1.16002
1.15999
1.15995
1.15991
1.15987
1.15984
1.1598
1.15977
1.15973
1.15969
1.15965
1.15962
1.15958
1.15955
1.15951
1.15949
1.15947
1.2277
1.22127
1.21701
1.21341
1.21056
1.20791
1.2057
1.20355
1.20169
1.19982
1.19817
1.19651
1.19501
1.1935
1.19211
1.1907
1.18939
1.18806
1.18682
1.18555
1.18436
1.18314
1.182
1.18082
1.17972
1.17859
1.17753
1.17645
1.17543
1.17441
1.17345
1.1725
1.17161
1.17074
1.16995
1.16919
1.16851
1.16787
1.16731
1.1668
1.16637
1.16597
1.16566
1.16538
1.16516
1.16497
1.16483
1.1647
1.16461
1.16452
1.16446
1.1644
1.16436
1.16431
1.16427
1.16423
1.16419
1.16415
1.16412
1.16408
1.16404
1.164
1.16397
1.16393
1.16389
1.16385
1.16382
1.16378
1.16374
1.1637
1.16367
1.16363
1.16359
1.16355
1.16352
1.16348
1.16344
1.1634
1.16337
1.16333
1.16329
1.16326
1.16322
1.16318
1.16315
1.16311
1.16308
1.16304
1.16302
1.163
1.23143
1.22669
1.22308
1.21978
1.21712
1.21456
1.21244
1.21035
1.20855
1.20672
1.20509
1.20344
1.20196
1.20046
1.19908
1.19767
1.19637
1.19503
1.19379
1.19252
1.19132
1.1901
1.18894
1.18776
1.18664
1.1855
1.18443
1.18333
1.18229
1.18124
1.18026
1.17928
1.17836
1.17746
1.17663
1.17582
1.1751
1.17441
1.17381
1.17325
1.17278
1.17234
1.17199
1.17167
1.17142
1.1712
1.17104
1.17089
1.17078
1.17068
1.17062
1.17055
1.1705
1.17045
1.17041
1.17036
1.17033
1.17028
1.17025
1.17021
1.17018
1.17014
1.1701
1.17006
1.17003
1.16999
1.16995
1.16991
1.16988
1.16984
1.1698
1.16976
1.16973
1.16969
1.16965
1.16961
1.16958
1.16954
1.1695
1.16946
1.16943
1.16939
1.16936
1.16932
1.16928
1.16924
1.16922
1.16917
1.16916
1.16915
1.23255
1.22979
1.22722
1.22457
1.2223
1.22003
1.2181
1.21619
1.21452
1.21281
1.21127
1.20969
1.20826
1.2068
1.20547
1.20409
1.20282
1.2015
1.20027
1.199
1.19782
1.1966
1.19545
1.19426
1.19314
1.19199
1.1909
1.18979
1.18874
1.18767
1.18666
1.18565
1.1847
1.18376
1.18289
1.18204
1.18127
1.18053
1.17988
1.17926
1.17874
1.17825
1.17785
1.17749
1.17721
1.17695
1.17676
1.17658
1.17646
1.17635
1.17627
1.17619
1.17614
1.17608
1.17604
1.17599
1.17595
1.17591
1.17588
1.17583
1.1758
1.17576
1.17573
1.17568
1.17565
1.17561
1.17558
1.17554
1.1755
1.17546
1.17543
1.17538
1.17535
1.17531
1.17527
1.17523
1.1752
1.17516
1.17512
1.17508
1.17505
1.17501
1.17498
1.17494
1.1749
1.17486
1.17483
1.17479
1.17477
1.17476
1.23326
1.23179
1.23027
1.22832
1.22658
1.22468
1.22304
1.22136
1.21989
1.21835
1.21695
1.21547
1.21413
1.21275
1.21148
1.21017
1.20894
1.20766
1.20645
1.20521
1.20405
1.20285
1.2017
1.20053
1.1994
1.19825
1.19716
1.19604
1.19498
1.1939
1.19287
1.19183
1.19086
1.18989
1.18899
1.1881
1.18729
1.18651
1.18582
1.18516
1.18459
1.18407
1.18363
1.18323
1.18291
1.18262
1.1824
1.18221
1.18207
1.18194
1.18185
1.18177
1.18171
1.18165
1.18161
1.18156
1.18152
1.18147
1.18144
1.1814
1.18137
1.18132
1.18129
1.18125
1.18121
1.18117
1.18114
1.1811
1.18106
1.18102
1.18099
1.18095
1.18091
1.18087
1.18084
1.1808
1.18076
1.18072
1.18069
1.18065
1.18061
1.18057
1.18054
1.1805
1.18047
1.18043
1.1804
1.18036
1.18033
1.18032
1.23318
1.23237
1.2316
1.23029
1.22908
1.2276
1.2263
1.22491
1.22369
1.22237
1.22114
1.21981
1.21859
1.21732
1.21615
1.21491
1.21375
1.21253
1.21137
1.21017
1.20904
1.20786
1.20674
1.20558
1.20447
1.20333
1.20224
1.20113
1.20006
1.19897
1.19794
1.19689
1.1959
1.19491
1.194
1.19309
1.19226
1.19146
1.19074
1.19005
1.18946
1.18891
1.18845
1.18803
1.18769
1.18739
1.18715
1.18695
1.1868
1.18666
1.18657
1.18648
1.18641
1.18635
1.18631
1.18625
1.18622
1.18617
1.18614
1.1861
1.18606
1.18602
1.18599
1.18594
1.18591
1.18587
1.18584
1.18579
1.18576
1.18572
1.18568
1.18564
1.18561
1.18557
1.18553
1.18549
1.18546
1.18542
1.18538
1.18534
1.1853
1.18526
1.18523
1.18519
1.18515
1.18512
1.18508
1.18504
1.18501
1.18499
1.23316
1.23264
1.23231
1.23147
1.23068
1.22958
1.2286
1.2275
1.22652
1.22541
1.22436
1.22319
1.2221
1.22095
1.21987
1.21872
1.21763
1.21647
1.21537
1.21421
1.21312
1.21198
1.21088
1.20974
1.20865
1.20752
1.20644
1.20533
1.20427
1.20319
1.20215
1.2011
1.20011
1.19912
1.1982
1.19729
1.19646
1.19565
1.19493
1.19424
1.19365
1.1931
1.19263
1.19221
1.19187
1.19157
1.19133
1.19112
1.19097
1.19084
1.19074
1.19065
1.19059
1.19052
1.19048
1.19043
1.19039
1.19035
1.19031
1.19027
1.19024
1.19019
1.19016
1.19012
1.19008
1.19004
1.19001
1.18997
1.18993
1.18989
1.18986
1.18982
1.18978
1.18974
1.1897
1.18966
1.18963
1.18959
1.18955
1.18951
1.18948
1.18944
1.1894
1.18936
1.18933
1.18929
1.18925
1.18922
1.18918
1.18915
1.23329
1.23289
1.23278
1.23223
1.23173
1.23092
1.23022
1.22934
1.22857
1.22763
1.22674
1.22571
1.22475
1.2237
1.22272
1.22164
1.22062
1.21952
1.21846
1.21735
1.2163
1.21518
1.21412
1.213
1.21193
1.21081
1.20975
1.20865
1.20759
1.20651
1.20549
1.20445
1.20347
1.20249
1.20158
1.20068
1.19986
1.19907
1.19837
1.1977
1.19713
1.1966
1.19615
1.19575
1.19542
1.19513
1.19491
1.19472
1.19457
1.19444
1.19436
1.19427
1.19421
1.19415
1.19411
1.19405
1.19402
1.19397
1.19394
1.1939
1.19386
1.19382
1.19379
1.19374
1.19371
1.19367
1.19363
1.19359
1.19356
1.19352
1.19348
1.19344
1.1934
1.19336
1.19333
1.19329
1.19325
1.19321
1.19318
1.19314
1.1931
1.19306
1.19303
1.19299
1.19295
1.19291
1.19288
1.19285
1.19281
1.19278
1.23304
1.23273
1.2327
1.23233
1.23202
1.23144
1.23094
1.23026
1.22964
1.22884
1.22808
1.22717
1.22632
1.22536
1.22445
1.22345
1.22248
1.22143
1.22042
1.21935
1.21833
1.21724
1.2162
1.2151
1.21405
1.21295
1.2119
1.21081
1.20977
1.20871
1.20769
1.20667
1.20571
1.20475
1.20387
1.203
1.20222
1.20146
1.2008
1.20017
1.19963
1.19914
1.19873
1.19836
1.19807
1.19781
1.19761
1.19743
1.19731
1.19719
1.19711
1.19703
1.19698
1.19692
1.19688
1.19683
1.1968
1.19675
1.19672
1.19667
1.19664
1.1966
1.19656
1.19652
1.19649
1.19645
1.19641
1.19637
1.19634
1.19629
1.19626
1.19622
1.19618
1.19614
1.19611
1.19607
1.19603
1.19599
1.19595
1.19591
1.19588
1.19584
1.1958
1.19576
1.19573
1.19569
1.19565
1.19562
1.19558
1.19555
1.23351
1.23319
1.2332
1.23287
1.23267
1.23219
1.23183
1.23125
1.23073
1.23001
1.22933
1.22849
1.22771
1.22681
1.22595
1.22498
1.22405
1.22304
1.22206
1.22102
1.22002
1.21895
1.21792
1.21684
1.2158
1.21471
1.21367
1.2126
1.21157
1.21052
1.20952
1.20852
1.20759
1.20666
1.20581
1.20498
1.20424
1.20353
1.20291
1.20233
1.20185
1.2014
1.20104
1.20071
1.20045
1.20023
1.20006
1.19991
1.1998
1.1997
1.19963
1.19956
1.19951
1.19946
1.19942
1.19937
1.19934
1.19929
1.19926
1.19922
1.19918
1.19914
1.19911
1.19906
1.19903
1.19899
1.19895
1.19891
1.19888
1.19884
1.1988
1.19876
1.19872
1.19868
1.19865
1.19861
1.19857
1.19853
1.19849
1.19845
1.19842
1.19838
1.19834
1.1983
1.19827
1.19823
1.1982
1.19816
1.19813
1.19809
1.23313
1.23285
1.23286
1.23258
1.23243
1.23204
1.23174
1.23121
1.23074
1.23007
1.22943
1.22865
1.2279
1.22703
1.2262
1.22525
1.22435
1.22335
1.2224
1.22137
1.22038
1.21932
1.2183
1.21723
1.2162
1.21512
1.21409
1.21302
1.21201
1.21097
1.20999
1.20901
1.2081
1.2072
1.20638
1.20559
1.20489
1.20422
1.20364
1.20311
1.20267
1.20226
1.20194
1.20164
1.20142
1.20122
1.20108
1.20095
1.20086
1.20077
1.20071
1.20064
1.2006
1.20055
1.20051
1.20046
1.20043
1.20039
1.20035
1.20031
1.20028
1.20023
1.2002
1.20016
1.20012
1.20008
1.20005
1.20001
1.19997
1.19993
1.19989
1.19985
1.19982
1.19978
1.19974
1.1997
1.19966
1.19962
1.19959
1.19955
1.19951
1.19947
1.19944
1.1994
1.19936
1.19932
1.19929
1.19925
1.19922
1.19918
1.23383
1.23354
1.23356
1.23326
1.23314
1.23275
1.23247
1.23195
1.23149
1.23082
1.2302
1.22942
1.22869
1.22783
1.227
1.22606
1.22516
1.22416
1.22321
1.22219
1.2212
1.22015
1.21913
1.21806
1.21703
1.21596
1.21493
1.21387
1.21285
1.21182
1.21085
1.20988
1.20898
1.2081
1.20729
1.20652
1.20583
1.20518
1.20463
1.20411
1.20369
1.2033
1.20299
1.20272
1.20251
1.20232
1.20219
1.20206
1.20198
1.20189
1.20184
1.20178
1.20174
1.20168
1.20165
1.2016
1.20157
1.20153
1.20149
1.20145
1.20142
1.20137
1.20134
1.2013
1.20126
1.20122
1.20119
1.20115
1.20111
1.20107
1.20103
1.20099
1.20096
1.20092
1.20088
1.20084
1.2008
1.20076
1.20073
1.20069
1.20065
1.20061
1.20058
1.20054
1.2005
1.20046
1.20043
1.2004
1.20036
1.20033
1.22096
1.21347
1.20882
1.20521
1.20225
1.19965
1.1974
1.1953
1.1934
1.19158
1.18991
1.18828
1.18679
1.1853
1.18392
1.18253
1.18123
1.17991
1.17868
1.17743
1.17626
1.17506
1.17392
1.17277
1.17168
1.17057
1.16953
1.16847
1.16747
1.16647
1.16553
1.1646
1.16374
1.1629
1.16214
1.1614
1.16076
1.16014
1.15962
1.15913
1.15873
1.15837
1.15808
1.15782
1.15762
1.15744
1.15732
1.1572
1.15712
1.15704
1.15699
1.15693
1.15689
1.15684
1.1568
1.15676
1.15673
1.15668
1.15665
1.15661
1.15658
1.15653
1.1565
1.15646
1.15643
1.15639
1.15635
1.15631
1.15628
1.15624
1.1562
1.15616
1.15613
1.15609
1.15605
1.15601
1.15597
1.15593
1.1559
1.15586
1.15582
1.15578
1.15574
1.15571
1.15566
1.15563
1.15558
1.15555
1.15548
1.15545
1.22712
1.22084
1.21644
1.2129
1.20998
1.20737
1.20512
1.20301
1.20113
1.19929
1.19762
1.19597
1.19446
1.19296
1.19157
1.19017
1.18886
1.18753
1.18628
1.18502
1.18383
1.18262
1.18147
1.1803
1.1792
1.17807
1.17701
1.17593
1.17492
1.17389
1.17293
1.17198
1.1711
1.17023
1.16943
1.16867
1.16799
1.16734
1.16679
1.16627
1.16583
1.16544
1.16512
1.16484
1.16462
1.16443
1.16428
1.16415
1.16406
1.16398
1.16392
1.16385
1.16381
1.16376
1.16372
1.16368
1.16364
1.1636
1.16357
1.16353
1.16349
1.16345
1.16342
1.16338
1.16334
1.1633
1.16327
1.16323
1.16319
1.16315
1.16312
1.16308
1.16304
1.163
1.16297
1.16293
1.16289
1.16285
1.16281
1.16277
1.16274
1.1627
1.16266
1.16262
1.16258
1.16254
1.1625
1.16247
1.16241
1.16237
1.2298
1.22569
1.22209
1.21899
1.21629
1.21384
1.21168
1.20966
1.20783
1.20605
1.20441
1.20278
1.20129
1.19981
1.19843
1.19703
1.19573
1.1944
1.19315
1.19189
1.19069
1.18947
1.18832
1.18714
1.18602
1.18488
1.1838
1.18271
1.18167
1.18062
1.17964
1.17865
1.17773
1.17682
1.17599
1.17518
1.17445
1.17376
1.17315
1.17258
1.1721
1.17166
1.1713
1.17097
1.17072
1.17049
1.17032
1.17017
1.17006
1.16996
1.16989
1.16982
1.16977
1.16972
1.16968
1.16963
1.1696
1.16955
1.16952
1.16948
1.16945
1.1694
1.16937
1.16933
1.1693
1.16926
1.16922
1.16918
1.16915
1.1691
1.16907
1.16903
1.16899
1.16895
1.16892
1.16888
1.16884
1.1688
1.16876
1.16872
1.16869
1.16865
1.16861
1.16857
1.16853
1.16849
1.16845
1.16841
1.16835
1.16832
1.23154
1.22941
1.22701
1.2246
1.22237
1.22021
1.21827
1.21642
1.21474
1.21307
1.21152
1.20995
1.20851
1.20707
1.20573
1.20437
1.20309
1.20177
1.20054
1.19928
1.19809
1.19688
1.19572
1.19454
1.19342
1.19227
1.19118
1.19007
1.18901
1.18794
1.18693
1.18591
1.18496
1.18401
1.18314
1.18228
1.1815
1.18075
1.18009
1.17947
1.17893
1.17844
1.17803
1.17765
1.17736
1.17709
1.17689
1.17672
1.17659
1.17647
1.17639
1.17631
1.17625
1.17619
1.17615
1.1761
1.17607
1.17602
1.17599
1.17595
1.17592
1.17587
1.17584
1.1758
1.17576
1.17572
1.17569
1.17565
1.17561
1.17557
1.17554
1.1755
1.17546
1.17542
1.17538
1.17534
1.17531
1.17527
1.17523
1.17519
1.17515
1.17512
1.17508
1.17504
1.175
1.17496
1.17492
1.17488
1.17483
1.17479
1.23162
1.23077
1.22942
1.22786
1.2262
1.22449
1.22288
1.2213
1.21984
1.21837
1.21697
1.21553
1.21419
1.21283
1.21156
1.21027
1.20904
1.20777
1.20657
1.20533
1.20417
1.20297
1.20183
1.20066
1.19954
1.19839
1.1973
1.19618
1.19512
1.19403
1.193
1.19196
1.19098
1.19001
1.1891
1.18821
1.18739
1.1866
1.18589
1.18522
1.18464
1.1841
1.18365
1.18324
1.18291
1.18261
1.18238
1.18218
1.18203
1.1819
1.18181
1.18172
1.18166
1.18159
1.18155
1.1815
1.18146
1.18142
1.18138
1.18134
1.18131
1.18127
1.18123
1.18119
1.18116
1.18112
1.18108
1.18104
1.18101
1.18096
1.18093
1.18089
1.18085
1.18081
1.18078
1.18074
1.1807
1.18066
1.18062
1.18058
1.18054
1.18051
1.18047
1.18043
1.18039
1.18035
1.1803
1.18027
1.18021
1.18018
1.23183
1.23159
1.23096
1.23007
1.22897
1.2277
1.22646
1.22518
1.22398
1.22272
1.22151
1.22022
1.21901
1.21776
1.21659
1.21537
1.21422
1.213
1.21185
1.21066
1.20953
1.20836
1.20724
1.20608
1.20497
1.20383
1.20275
1.20163
1.20056
1.19947
1.19843
1.19738
1.19639
1.1954
1.19447
1.19355
1.19271
1.1919
1.19116
1.19047
1.18986
1.18929
1.18882
1.18838
1.18803
1.18771
1.18747
1.18725
1.18709
1.18695
1.18685
1.18676
1.1867
1.18663
1.18658
1.18653
1.1865
1.18645
1.18642
1.18637
1.18634
1.1863
1.18626
1.18622
1.18619
1.18615
1.18611
1.18607
1.18604
1.18599
1.18596
1.18592
1.18588
1.18584
1.18581
1.18577
1.18573
1.18569
1.18565
1.18561
1.18557
1.18553
1.1855
1.18546
1.18542
1.18538
1.18534
1.1853
1.18525
1.18522
1.2318
1.23179
1.23156
1.2311
1.23042
1.22954
1.22865
1.22766
1.22673
1.22569
1.22467
1.22355
1.22248
1.22136
1.2203
1.21918
1.2181
1.21695
1.21586
1.21471
1.21362
1.21249
1.2114
1.21027
1.20918
1.20806
1.20698
1.20587
1.20481
1.20372
1.20269
1.20164
1.20064
1.19964
1.19871
1.1978
1.19695
1.19613
1.19539
1.1947
1.19409
1.19352
1.19304
1.1926
1.19225
1.19193
1.19169
1.19147
1.19131
1.19117
1.19107
1.19097
1.19091
1.19084
1.1908
1.19074
1.19071
1.19066
1.19063
1.19058
1.19055
1.19051
1.19047
1.19043
1.1904
1.19036
1.19032
1.19028
1.19025
1.19021
1.19017
1.19013
1.19009
1.19005
1.19002
1.18998
1.18994
1.1899
1.18986
1.18982
1.18978
1.18974
1.18971
1.18967
1.18963
1.18959
1.18955
1.18951
1.18946
1.18942
1.23162
1.23168
1.23162
1.2314
1.23099
1.2304
1.22977
1.22905
1.22833
1.22749
1.22665
1.22569
1.22476
1.22376
1.2228
1.22176
1.22076
1.21968
1.21864
1.21755
1.21651
1.21541
1.21435
1.21325
1.21218
1.21107
1.21001
1.20892
1.20787
1.20679
1.20576
1.20472
1.20374
1.20275
1.20184
1.20093
1.2001
1.1993
1.19859
1.19791
1.19732
1.19678
1.19632
1.1959
1.19556
1.19526
1.19503
1.19483
1.19468
1.19455
1.19445
1.19436
1.1943
1.19424
1.1942
1.19414
1.19411
1.19406
1.19403
1.19398
1.19395
1.19391
1.19387
1.19383
1.1938
1.19376
1.19372
1.19368
1.19365
1.1936
1.19357
1.19353
1.19349
1.19345
1.19342
1.19337
1.19334
1.1933
1.19326
1.19322
1.19318
1.19314
1.1931
1.19306
1.19302
1.19298
1.19294
1.1929
1.19285
1.19281
1.23189
1.23192
1.23193
1.23178
1.23153
1.23111
1.23067
1.23011
1.22954
1.22883
1.22811
1.22727
1.22644
1.22553
1.22465
1.22368
1.22273
1.2217
1.22071
1.21966
1.21865
1.21758
1.21655
1.21546
1.21441
1.21332
1.21227
1.21119
1.21015
1.20909
1.20808
1.20705
1.20609
1.20513
1.20424
1.20336
1.20257
1.20181
1.20113
1.20049
1.19994
1.19944
1.19902
1.19864
1.19834
1.19807
1.19787
1.19768
1.19755
1.19743
1.19735
1.19727
1.19721
1.19715
1.19711
1.19706
1.19703
1.19698
1.19695
1.19691
1.19687
1.19683
1.1968
1.19675
1.19672
1.19668
1.19664
1.1966
1.19657
1.19653
1.19649
1.19645
1.19641
1.19637
1.19634
1.1963
1.19626
1.19622
1.19618
1.19614
1.1961
1.19606
1.19602
1.19599
1.19594
1.19591
1.19586
1.19583
1.19578
1.19574
1.23141
1.23146
1.23146
1.23137
1.2312
1.23091
1.23058
1.23013
1.22965
1.22903
1.22839
1.22763
1.22687
1.22602
1.22519
1.22426
1.22335
1.22237
1.22141
1.22039
1.2194
1.21835
1.21733
1.21626
1.21523
1.21415
1.21311
1.21204
1.21102
1.20997
1.20898
1.20798
1.20704
1.20611
1.20526
1.20442
1.20367
1.20296
1.20233
1.20175
1.20125
1.2008
1.20043
1.20009
1.19983
1.1996
1.19943
1.19927
1.19916
1.19906
1.19899
1.19891
1.19887
1.19881
1.19877
1.19872
1.19869
1.19865
1.19861
1.19857
1.19854
1.19849
1.19846
1.19842
1.19838
1.19834
1.19831
1.19827
1.19823
1.19819
1.19815
1.19811
1.19808
1.19804
1.198
1.19796
1.19792
1.19788
1.19784
1.1978
1.19776
1.19772
1.19768
1.19765
1.1976
1.19757
1.19752
1.19748
1.19743
1.19739
1.23191
1.2319
1.2319
1.23179
1.23166
1.2314
1.23112
1.2307
1.23026
1.22966
1.22905
1.22832
1.2276
1.22677
1.22596
1.22504
1.22415
1.22318
1.22224
1.22123
1.22025
1.2192
1.2182
1.21713
1.21611
1.21504
1.21401
1.21295
1.21193
1.2109
1.20993
1.20895
1.20804
1.20714
1.20632
1.20552
1.20482
1.20415
1.20357
1.20303
1.20258
1.20218
1.20185
1.20156
1.20133
1.20113
1.20098
1.20085
1.20076
1.20067
1.20061
1.20054
1.2005
1.20045
1.20041
1.20037
1.20033
1.20029
1.20026
1.20021
1.20018
1.20014
1.2001
1.20006
1.20003
1.19998
1.19995
1.19991
1.19987
1.19983
1.1998
1.19975
1.19972
1.19968
1.19964
1.1996
1.19956
1.19952
1.19949
1.19945
1.19941
1.19937
1.19933
1.19929
1.19925
1.19921
1.19917
1.19913
1.19908
1.19904
1.23109
1.2311
1.23107
1.23098
1.23085
1.23062
1.23036
1.22995
1.22951
1.22893
1.22833
1.22761
1.2269
1.22608
1.22527
1.22436
1.22348
1.22251
1.22157
1.22057
1.21959
1.21855
1.21754
1.21648
1.21546
1.2144
1.21338
1.21232
1.21131
1.21029
1.20933
1.20836
1.20747
1.20659
1.20579
1.20502
1.20435
1.2037
1.20316
1.20265
1.20223
1.20185
1.20155
1.20128
1.20108
1.20089
1.20076
1.20064
1.20056
1.20048
1.20043
1.20036
1.20032
1.20027
1.20024
1.20019
1.20016
1.20011
1.20008
1.20004
1.20001
1.19996
1.19993
1.19989
1.19985
1.19981
1.19978
1.19974
1.1997
1.19966
1.19962
1.19958
1.19955
1.1995
1.19947
1.19943
1.19939
1.19935
1.19931
1.19927
1.19923
1.19919
1.19915
1.19912
1.19907
1.19903
1.19899
1.19895
1.1989
1.19886
1.21848
1.20887
1.20348
1.19955
1.1964
1.1937
1.19136
1.1892
1.18726
1.18541
1.18372
1.18209
1.18058
1.17909
1.17769
1.1763
1.175
1.1737
1.17247
1.17123
1.17005
1.16886
1.16774
1.16659
1.16551
1.16442
1.16339
1.16234
1.16136
1.16037
1.15946
1.15855
1.15771
1.15689
1.15615
1.15545
1.15482
1.15424
1.15374
1.15328
1.1529
1.15256
1.1523
1.15206
1.15188
1.15172
1.1516
1.15149
1.15142
1.15135
1.1513
1.15124
1.1512
1.15116
1.15112
1.15108
1.15105
1.151
1.15097
1.15093
1.1509
1.15086
1.15082
1.15078
1.15075
1.15071
1.15068
1.15064
1.1506
1.15056
1.15053
1.15049
1.15045
1.15041
1.15038
1.15034
1.1503
1.15026
1.15023
1.15019
1.15015
1.15011
1.15007
1.15004
1.15
1.14996
1.14992
1.14989
1.14982
1.14978
1.22787
1.22094
1.21588
1.21197
1.20879
1.20604
1.20366
1.20147
1.1995
1.19761
1.19588
1.1942
1.19266
1.19113
1.18972
1.18829
1.18697
1.18563
1.18437
1.1831
1.1819
1.18068
1.17953
1.17836
1.17726
1.17613