/*--------------------------------*- C++ -*----------------------------------*\
  =========                 |
  \\      /  F ield         | OpenFOAM: The Open Source CFD Toolbox
   \\    /   O peration     | Website:  https://openfoam.org
    \\  /    A nd           | Version:  7
     \\/     M anipulation  |
\*---------------------------------------------------------------------------*/
FoamFile
{
    version     2.0;
    format      ascii;
    class       volVectorField;
    location    "0.035";
    object      U;
}
// * * * * * * * * * * * * * * * * * * * * * * * * * * * * * * * * * * * * * //

dimensions      [0 1 -1 0 0 0 0];

internalField   nonuniform List<vector> 
1440
(
(11.9902 0.0560645 0)
(11.9128 0.159765 0)
(11.7204 0.263488 0)
(11.4538 0.343686 0)
(11.116 0.399211 0)
(10.732 0.428112 0)
(10.3168 0.436287 0)
(9.88537 0.428631 0)
(9.44958 0.410051 0)
(9.01747 0.383356 0)
(8.59832 0.351669 0)
(8.19595 0.318579 0)
(7.81452 0.285028 0)
(7.45616 0.252444 0)
(7.12201 0.221787 0)
(6.81212 0.193236 0)
(6.52616 0.166713 0)
(6.26316 0.142392 0)
(6.0217 0.12031 0)
(5.80016 0.100158 0)
(5.59697 0.0816662 0)
(5.41092 0.0647645 0)
(5.24135 0.0495499 0)
(5.08784 0.0361414 0)
(4.95006 0.0245295 0)
(4.82776 0.0146725 0)
(4.72037 0.0066627 0)
(4.62617 0.000562338 0)
(4.54228 -0.00396537 0)
(4.46563 -0.00772955 0)
(4.39436 -0.0116027 0)
(4.32827 -0.0161198 0)
(4.26839 -0.0212803 0)
(4.21606 -0.0265489 0)
(4.1722 -0.0312598 0)
(4.1371 -0.0349886 0)
(4.11048 -0.0374306 0)
(4.09138 -0.0382992 0)
(4.07833 -0.0375094 0)
(4.06962 -0.0352948 0)
(4.06363 -0.0321097 0)
(4.05892 -0.0284076 0)
(4.05431 -0.0245366 0)
(4.04899 -0.0207356 0)
(4.0426 -0.0173106 0)
(4.03529 -0.0144352 0)
(4.02731 -0.0120727 0)
(4.01904 -0.0103141 0)
(4.01086 -0.00915912 0)
(4.00292 -0.00845308 0)
(3.9953 -0.00804812 0)
(3.98804 -0.00773229 0)
(3.98114 -0.00735507 0)
(3.97464 -0.00681768 0)
(3.96847 -0.00597709 0)
(3.96239 -0.00481428 0)
(3.95621 -0.00354186 0)
(3.94978 -0.00224545 0)
(3.94286 -0.000905021 0)
(3.93535 0.000305287 0)
(3.92723 0.00121047 0)
(3.91865 0.0017564 0)
(3.90973 0.00186139 0)
(3.90061 0.00161441 0)
(3.89125 0.00132622 0)
(3.88152 0.0011765 0)
(3.87127 0.00122103 0)
(3.86051 0.00142247 0)
(3.84947 0.00175816 0)
(3.8385 0.00229816 0)
(3.82792 0.00284388 0)
(3.8182 0.00323971 0)
(3.80953 0.00368103 0)
(3.80186 0.00420453 0)
(3.79507 0.00459775 0)
(3.78891 0.00479786 0)
(3.78305 0.00483626 0)
(3.77726 0.00472138 0)
(3.77137 0.00457727 0)
(3.76518 0.00436611 0)
(3.75872 0.00406809 0)
(3.75197 0.0038898 0)
(3.74491 0.00387559 0)
(3.73765 0.00387577 0)
(3.73027 0.00382863 0)
(3.72284 0.0037813 0)
(3.71542 0.00369867 0)
(3.70812 0.00364383 0)
(3.70086 0.00370403 0)
(3.69363 0.00371675 0)
(3.68652 0.00359521 0)
(3.67956 0.0035998 0)
(3.67253 0.00372614 0)
(3.66562 0.0037808 0)
(3.6587 0.00387393 0)
(3.65181 0.00404522 0)
(3.6448 0.003977 0)
(3.63809 0.00372226 0)
(3.63137 0.00366746 0)
(3.62478 0.00379053 0)
(3.61798 0.00396267 0)
(3.61126 0.00416727 0)
(3.60421 0.00426177 0)
(3.59741 0.00410097 0)
(3.59047 0.00384364 0)
(3.58391 0.00374776 0)
(3.57704 0.00375114 0)
(3.57048 0.0036868 0)
(3.56368 0.00376965 0)
(3.55688 0.00399326 0)
(3.54993 0.00437345 0)
(3.54222 0.00455331 0)
(3.53532 0.00502145 0)
(3.52571 0.00492551 0)
(3.51992 0.00585643 0)
(3.50617 0.00498378 0)
(3.50386 0.00723631 0)
(3.4817 0.0061353 0)
(3.48489 0.00997991 0)
(3.45017 0.0131622 0)
(12.0014 0.0585583 0)
(12.0239 0.134761 0)
(12.0758 0.214515 0)
(12.149 0.282517 0)
(12.232 0.342523 0)
(12.3153 0.390694 0)
(12.3893 0.428306 0)
(12.4493 0.455437 0)
(12.4919 0.473196 0)
(12.5162 0.482188 0)
(12.522 0.483314 0)
(12.5106 0.478249 0)
(12.4842 0.467921 0)
(12.4446 0.453684 0)
(12.3944 0.436649 0)
(12.3356 0.417805 0)
(12.2703 0.397901 0)
(12.1998 0.377444 0)
(12.1258 0.356782 0)
(12.0492 0.336203 0)
(11.971 0.315849 0)
(11.8915 0.295747 0)
(11.811 0.275996 0)
(11.7298 0.256814 0)
(11.6483 0.238437 0)
(11.5668 0.221137 0)
(11.4857 0.20523 0)
(11.4059 0.190945 0)
(11.3281 0.178187 0)
(11.253 0.16642 0)
(11.1809 0.15488 0)
(11.1118 0.142945 0)
(11.0454 0.130356 0)
(10.982 0.11722 0)
(10.9217 0.103912 0)
(10.8649 0.0909763 0)
(10.8123 0.0789945 0)
(10.7644 0.068429 0)
(10.7218 0.0594867 0)
(10.6848 0.0521278 0)
(10.6534 0.0461915 0)
(10.6272 0.0415298 0)
(10.606 0.0379414 0)
(10.5894 0.0350525 0)
(10.5768 0.0325044 0)
(10.5673 0.0301424 0)
(10.5601 0.0278628 0)
(10.5543 0.0257215 0)
(10.5494 0.023974 0)
(10.5452 0.0227286 0)
(10.5413 0.0218998 0)
(10.5374 0.0212715 0)
(10.5332 0.0205864 0)
(10.5282 0.0197454 0)
(10.5222 0.0188393 0)
(10.5153 0.0179859 0)
(10.5077 0.0173062 0)
(10.4993 0.0168831 0)
(10.49 0.016623 0)
(10.48 0.0164584 0)
(10.4692 0.0163367 0)
(10.4579 0.0162054 0)
(10.4466 0.0161952 0)
(10.4354 0.0164341 0)
(10.4246 0.0168498 0)
(10.4143 0.0173432 0)
(10.4044 0.0177621 0)
(10.3946 0.017855 0)
(10.3848 0.0174533 0)
(10.375 0.0164917 0)
(10.3655 0.0150331 0)
(10.3565 0.0133324 0)
(10.3482 0.0116173 0)
(10.3408 0.0100487 0)
(10.3343 0.00891623 0)
(10.3284 0.00837549 0)
(10.3229 0.00833258 0)
(10.3175 0.00865498 0)
(10.3119 0.00923317 0)
(10.306 0.00993603 0)
(10.2997 0.0106739 0)
(10.2929 0.0113284 0)
(10.2859 0.0117775 0)
(10.2787 0.0120626 0)
(10.2714 0.0122739 0)
(10.264 0.0123914 0)
(10.2566 0.0123996 0)
(10.2491 0.0123967 0)
(10.2417 0.0123915 0)
(10.2344 0.0123262 0)
(10.2271 0.012281 0)
(10.2198 0.0122526 0)
(10.2125 0.0121589 0)
(10.2054 0.0120834 0)
(10.1982 0.0120779 0)
(10.1912 0.0120727 0)
(10.1843 0.0120527 0)
(10.1774 0.0121054 0)
(10.1703 0.0121619 0)
(10.1635 0.0122014 0)
(10.1565 0.0122917 0)
(10.1497 0.0123981 0)
(10.1428 0.0124647 0)
(10.136 0.0125525 0)
(10.1289 0.0126755 0)
(10.1219 0.0127847 0)
(10.1147 0.0129066 0)
(10.1077 0.0130113 0)
(10.1005 0.0132641 0)
(10.0932 0.0133758 0)
(10.0861 0.0138849 0)
(10.0782 0.0139721 0)
(10.0712 0.0151415 0)
(10.0621 0.014834 0)
(10.0558 0.0171738 0)
(10.0443 0.0161553 0)
(10.0392 0.0202822 0)
(10.024 0.0191105 0)
(10.021 0.0239895 0)
(10.0011 0.0279153 0)
(12.0002 0.0266645 0)
(12.0152 0.0769187 0)
(12.0499 0.129495 0)
(12.1025 0.177334 0)
(12.1697 0.221655 0)
(12.2501 0.259174 0)
(12.3396 0.290252 0)
(12.436 0.314166 0)
(12.5361 0.331403 0)
(12.638 0.342119 0)
(12.739 0.346799 0)
(12.8374 0.346634 0)
(12.9318 0.342188 0)
(13.0211 0.334445 0)
(13.1047 0.324219 0)
(13.1822 0.312219 0)
(13.2536 0.299019 0)
(13.3189 0.285082 0)
(13.3783 0.270739 0)
(13.4319 0.25623 0)
(13.4801 0.241734 0)
(13.5231 0.227419 0)
(13.561 0.213497 0)
(13.5941 0.20018 0)
(13.6225 0.187629 0)
(13.6466 0.175948 0)
(13.6666 0.165219 0)
(13.6829 0.15541 0)
(13.6962 0.146229 0)
(13.7069 0.137105 0)
(13.7151 0.127414 0)
(13.721 0.116779 0)
(13.7246 0.105182 0)
(13.7258 0.092872 0)
(13.7247 0.0801754 0)
(13.7215 0.067471 0)
(13.7166 0.0553026 0)
(13.7106 0.0443136 0)
(13.7042 0.0349374 0)
(13.698 0.0271782 0)
(13.6922 0.0207585 0)
(13.687 0.0154598 0)
(13.6824 0.0112752 0)
(13.679 0.00826199 0)
(13.6774 0.00627838 0)
(13.6775 0.00497061 0)
(13.6788 0.00386871 0)
(13.6803 0.00263245 0)
(13.6816 0.00126885 0)
(13.6832 2.92497e-05 0)
(13.6858 -0.000823354 0)
(13.6899 -0.00126225 0)
(13.6949 -0.00147367 0)
(13.6991 -0.00161585 0)
(13.7012 -0.0015989 0)
(13.7007 -0.00109739 0)
(13.698 0.00022268 0)
(13.6938 0.00248554 0)
(13.6882 0.00540969 0)
(13.6804 0.00836926 0)
(13.6693 0.0107359 0)
(13.6545 0.0122822 0)
(13.6365 0.0133037 0)
(13.6167 0.014487 0)
(13.5967 0.0165143 0)
(13.5774 0.0196506 0)
(13.5592 0.0235795 0)
(13.5421 0.0274283 0)
(13.5262 0.0301752 0)
(13.5119 0.0310739 0)
(13.5 0.0298405 0)
(13.4914 0.0267651 0)
(13.4864 0.0225938 0)
(13.4851 0.0181967 0)
(13.4868 0.0143414 0)
(13.4905 0.0115323 0)
(13.4948 0.00996556 0)
(13.4987 0.00956357 0)
(13.5012 0.0100672 0)
(13.502 0.0110902 0)
(13.501 0.0122888 0)
(13.4985 0.0134258 0)
(13.4949 0.0143585 0)
(13.4905 0.0150251 0)
(13.4859 0.0154472 0)
(13.4811 0.0156929 0)
(13.4764 0.0157915 0)
(13.4719 0.0158077 0)
(13.4675 0.0157946 0)
(13.4633 0.015735 0)
(13.4591 0.0156667 0)
(13.4551 0.0156678 0)
(13.4512 0.0157269 0)
(13.4472 0.015779 0)
(13.4433 0.0158081 0)
(13.4395 0.0158225 0)
(13.4356 0.0157662 0)
(13.4319 0.0156846 0)
(13.4281 0.0156889 0)
(13.4245 0.0158097 0)
(13.4208 0.0160279 0)
(13.4172 0.016279 0)
(13.4135 0.0164849 0)
(13.41 0.0165759 0)
(13.4063 0.0166303 0)
(13.4028 0.0166426 0)
(13.3992 0.0167396 0)
(13.3957 0.0168203 0)
(13.3922 0.0172267 0)
(13.3885 0.0175837 0)
(13.3849 0.0184899 0)
(13.3808 0.01881 0)
(13.3774 0.02028 0)
(13.3729 0.0201299 0)
(13.3698 0.022706 0)
(13.3647 0.021868 0)
(13.3618 0.0262763 0)
(13.3561 0.0256098 0)
(13.3537 0.0309453 0)
(13.3473 0.0341884 0)
(11.9992 0.0250292 0)
(12.0081 0.0678006 0)
(12.0358 0.110514 0)
(12.0774 0.146946 0)
(12.1332 0.179293 0)
(12.201 0.205549 0)
(12.2785 0.226723 0)
(12.3638 0.242743 0)
(12.4546 0.254338 0)
(12.5494 0.261921 0)
(12.6459 0.265989 0)
(12.7428 0.26718 0)
(12.839 0.265896 0)
(12.9332 0.262657 0)
(13.025 0.257852 0)
(13.1137 0.251869 0)
(13.1989 0.245043 0)
(13.2806 0.237622 0)
(13.3585 0.229754 0)
(13.4325 0.221548 0)
(13.5026 0.213064 0)
(13.5688 0.204369 0)
(13.631 0.195574 0)
(13.6893 0.186806 0)
(13.7439 0.178181 0)
(13.7948 0.169791 0)
(13.8423 0.161708 0)
(13.8864 0.153953 0)
(13.9275 0.14642 0)
(13.9654 0.138861 0)
(14 0.130953 0)
(14.0309 0.122439 0)
(14.0577 0.113226 0)
(14.0803 0.103409 0)
(14.0983 0.0932288 0)
(14.1117 0.0830008 0)
(14.1206 0.0730446 0)
(14.1256 0.0636191 0)
(14.1276 0.0549132 0)
(14.1273 0.0470794 0)
(14.125 0.0402515 0)
(14.1206 0.0345098 0)
(14.1146 0.029791 0)
(14.1079 0.0258634 0)
(14.1019 0.0224884 0)
(14.0974 0.0196051 0)
(14.0937 0.0172694 0)
(14.0898 0.0155915 0)
(14.0851 0.0146108 0)
(14.0803 0.0141827 0)
(14.0771 0.0141094 0)
(14.0764 0.0142381 0)
(14.0774 0.0146076 0)
(14.0784 0.0154539 0)
(14.0778 0.0170083 0)
(14.0754 0.0192895 0)
(14.0725 0.0220439 0)
(14.0707 0.0248355 0)
(14.0705 0.027232 0)
(14.0707 0.0290278 0)
(14.0691 0.0302339 0)
(14.0637 0.0309711 0)
(14.0544 0.0312967 0)
(14.0422 0.0310993 0)
(14.0292 0.0301341 0)
(14.0167 0.0282169 0)
(14.0049 0.0254065 0)
(13.9934 0.0219425 0)
(13.9814 0.0182198 0)
(13.9691 0.0146888 0)
(13.9572 0.0117302 0)
(13.947 0.00963486 0)
(13.9398 0.00848303 0)
(13.9367 0.00819231 0)
(13.9375 0.00858389 0)
(13.9415 0.00940179 0)
(13.9476 0.0103769 0)
(13.9542 0.0113211 0)
(13.9602 0.0121179 0)
(13.9647 0.0126981 0)
(13.9672 0.0130815 0)
(13.9678 0.013279 0)
(13.9669 0.0133331 0)
(13.9647 0.0133076 0)
(13.9619 0.0132502 0)
(13.9588 0.0131876 0)
(13.9557 0.013103 0)
(13.9527 0.0130157 0)
(13.9498 0.0129309 0)
(13.9471 0.0128347 0)
(13.9445 0.0127659 0)
(13.9421 0.0127359 0)
(13.9397 0.0127198 0)
(13.9374 0.01271 0)
(13.9351 0.0127007 0)
(13.9329 0.0126812 0)
(13.9307 0.0126659 0)
(13.9285 0.0126858 0)
(13.9262 0.0127453 0)
(13.9241 0.0128431 0)
(13.9219 0.0129947 0)
(13.92 0.0131489 0)
(13.918 0.0133059 0)
(13.9162 0.0134182 0)
(13.9143 0.0135975 0)
(13.9125 0.0137201 0)
(13.9106 0.0139622 0)
(13.9087 0.0141323 0)
(13.9068 0.0146397 0)
(13.9049 0.014927 0)
(13.9032 0.0158299 0)
(13.9014 0.0160603 0)
(13.9 0.0174878 0)
(13.8982 0.0174504 0)
(13.897 0.0197681 0)
(13.8954 0.0195179 0)
(13.894 0.0230074 0)
(13.8933 0.0232686 0)
(13.8918 0.02692 0)
(13.8927 0.0302045 0)
(11.9989 0.0107489 0)
(12.0068 0.0300977 0)
(12.0349 0.0500426 0)
(12.076 0.0681611 0)
(12.1308 0.0852656 0)
(12.1965 0.100031 0)
(12.271 0.112615 0)
(12.3525 0.122547 0)
(12.4389 0.129912 0)
(12.5288 0.134713 0)
(12.6204 0.137084 0)
(12.7126 0.137384 0)
(12.8043 0.135861 0)
(12.8947 0.132901 0)
(12.983 0.128828 0)
(13.0688 0.123944 0)
(13.1518 0.118498 0)
(13.2316 0.112712 0)
(13.3081 0.106758 0)
(13.3812 0.100761 0)
(13.4509 0.0948074 0)
(13.517 0.0889754 0)
(13.5796 0.0833577 0)
(13.6386 0.0780436 0)
(13.6942 0.0730943 0)
(13.7464 0.0685393 0)
(13.7952 0.0643791 0)
(13.8408 0.0605709 0)
(13.8831 0.0569923 0)
(13.9221 0.0534337 0)
(13.9576 0.0496559 0)
(13.9893 0.0454972 0)
(14.0171 0.0409308 0)
(14.0406 0.0360447 0)
(14.0597 0.0309626 0)
(14.0741 0.0258125 0)
(14.0842 0.0207769 0)
(14.0906 0.0161191 0)
(14.0939 0.0120979 0)
(14.0947 0.0088161 0)
(14.0931 0.00617195 0)
(14.0889 0.00397859 0)
(14.083 0.00214807 0)
(14.0767 0.000772238 0)
(14.071 -3.006e-05 0)
(14.0665 -0.000286962 0)
(14.0623 -0.000285794 0)
(14.0575 -0.000410216 0)
(14.0521 -0.000856954 0)
(14.0473 -0.00149553 0)
(14.0446 -0.00197387 0)
(14.0447 -0.00201585 0)
(14.0464 -0.00161878 0)
(14.048 -0.00100653 0)
(14.0482 -0.000416192 0)
(14.0473 0.000123156 0)
(14.0469 0.000797707 0)
(14.0484 0.00185348 0)
(14.0516 0.0033713 0)
(14.055 0.00517774 0)
(14.0562 0.00695658 0)
(14.0538 0.00848017 0)
(14.0479 0.00975776 0)
(14.0399 0.0110197 0)
(14.0314 0.0125423 0)
(14.023 0.0144275 0)
(14.0143 0.0165051 0)
(14.0041 0.0183542 0)
(13.9919 0.0194954 0)
(13.978 0.0195949 0)
(13.9639 0.018591 0)
(13.9518 0.0166954 0)
(13.9436 0.0143212 0)
(13.9402 0.0119339 0)
(13.9416 0.00991952 0)
(13.9469 0.00850781 0)
(13.9544 0.00776445 0)
(13.9624 0.00761826 0)
(13.9695 0.0079136 0)
(13.9747 0.00844693 0)
(13.9776 0.00904771 0)
(13.9783 0.009592 0)
(13.9773 0.0100166 0)
(13.9751 0.0103048 0)
(13.9722 0.0104678 0)
(13.969 0.0105436 0)
(13.9659 0.0105572 0)
(13.9629 0.0105389 0)
(13.9601 0.010512 0)
(13.9575 0.0104824 0)
(13.955 0.0104641 0)
(13.9526 0.0104741 0)
(13.9503 0.0105117 0)
(13.9481 0.0105599 0)
(13.9458 0.0106078 0)
(13.9437 0.0106526 0)
(13.9415 0.0106934 0)
(13.9394 0.0107278 0)
(13.9372 0.0107956 0)
(13.9352 0.0108886 0)
(13.9331 0.0110283 0)
(13.9313 0.0111621 0)
(13.9293 0.0113255 0)
(13.9276 0.0114298 0)
(13.9257 0.0116008 0)
(13.9241 0.0117017 0)
(13.9223 0.0119697 0)
(13.9206 0.0121236 0)
(13.9189 0.0126251 0)
(13.9174 0.0128886 0)
(13.9158 0.0137513 0)
(13.9144 0.0140282 0)
(13.913 0.0153398 0)
(13.9119 0.015522 0)
(13.9105 0.0174599 0)
(13.9097 0.017638 0)
(13.9082 0.0202296 0)
(13.9085 0.0210341 0)
(13.9071 0.0234557 0)
(13.9087 0.0264166 0)
(11.9988 0.00567103 0)
(12.0061 0.0165606 0)
(12.0323 0.0272136 0)
(12.0706 0.0362758 0)
(12.1226 0.0441696 0)
(12.1853 0.0504294 0)
(12.2573 0.0553918 0)
(12.3366 0.05911 0)
(12.4213 0.061856 0)
(12.5097 0.0638113 0)
(12.6003 0.0651521 0)
(12.6917 0.0660431 0)
(12.7827 0.0665868 0)
(12.8725 0.0668865 0)
(12.9604 0.067004 0)
(13.0459 0.0669938 0)
(13.1284 0.0668934 0)
(13.2078 0.0667125 0)
(13.2839 0.0664339 0)
(13.3565 0.0660268 0)
(13.4256 0.0654502 0)
(13.4912 0.0646713 0)
(13.5532 0.0636788 0)
(13.6117 0.0624846 0)
(13.6668 0.0611208 0)
(13.7186 0.0596372 0)
(13.7671 0.058095 0)
(13.8124 0.0565459 0)
(13.8544 0.054999 0)
(13.893 0.0534087 0)
(13.9281 0.0516867 0)
(13.9594 0.0497476 0)
(13.9867 0.0475451 0)
(14.0098 0.0450826 0)
(14.0286 0.0423977 0)
(14.0429 0.0395405 0)
(14.053 0.0365752 0)
(14.0595 0.0335867 0)
(14.0632 0.0306788 0)
(14.0644 0.0279534 0)
(14.0632 0.0254696 0)
(14.0596 0.0232311 0)
(14.0543 0.0212099 0)
(14.0485 0.0193764 0)
(14.0434 0.0177655 0)
(14.0394 0.0164379 0)
(14.0359 0.0154317 0)
(14.0319 0.0147163 0)
(14.0274 0.0142315 0)
(14.0234 0.0139125 0)
(14.0215 0.013759 0)
(14.0222 0.0138179 0)
(14.0246 0.014147 0)
(14.0269 0.0147656 0)
(14.0278 0.01561 0)
(14.0275 0.0165351 0)
(14.0276 0.0173693 0)
(14.0294 0.0179903 0)
(14.033 0.0183342 0)
(14.0369 0.0184436 0)
(14.0389 0.018387 0)
(14.0375 0.0182157 0)
(14.0328 0.0179078 0)
(14.026 0.0173609 0)
(14.0186 0.0164364 0)
(14.0114 0.0150346 0)
(14.0039 0.0131868 0)
(13.9951 0.0110479 0)
(13.9846 0.00886385 0)
(13.9725 0.00692997 0)
(13.9603 0.00546689 0)
(13.9499 0.00461514 0)
(13.943 0.0043634 0)
(13.9405 0.00459549 0)
(13.9425 0.00513926 0)
(13.9479 0.00581409 0)
(13.9552 0.00647232 0)
(13.963 0.00702066 0)
(13.9698 0.0074183 0)
(13.9747 0.00765085 0)
(13.9774 0.00775102 0)
(13.978 0.00775145 0)
(13.9769 0.00769069 0)
(13.9747 0.00760444 0)
(13.9718 0.00751542 0)
(13.9687 0.00743785 0)
(13.9656 0.00736614 0)
(13.9626 0.00730115 0)
(13.9598 0.00724417 0)
(13.9572 0.00718926 0)
(13.9547 0.00714719 0)
(13.9523 0.00712319 0)
(13.95 0.00711483 0)
(13.9478 0.00711999 0)
(13.9456 0.00713981 0)
(13.9434 0.00716456 0)
(13.9413 0.00720284 0)
(13.9392 0.00724914 0)
(13.937 0.0073203 0)
(13.935 0.00739471 0)
(13.933 0.00750439 0)
(13.9312 0.0076026 0)
(13.9292 0.00774804 0)
(13.9275 0.00785402 0)
(13.9257 0.00805775 0)
(13.9241 0.00819233 0)
(13.9223 0.00850465 0)
(13.9208 0.0086912 0)
(13.919 0.00920134 0)
(13.9176 0.00945879 0)
(13.916 0.010245 0)
(13.9148 0.0105476 0)
(13.9133 0.0116774 0)
(13.9125 0.0120168 0)
(13.911 0.0135507 0)
(13.9107 0.0140646 0)
(13.9092 0.0159158 0)
(13.9099 0.0170494 0)
(13.9087 0.0185963 0)
(13.9102 0.0212808 0)
(11.9988 -0.00545518 0)
(12.0061 -0.0161961 0)
(12.0323 -0.0265148 0)
(12.0707 -0.0354179 0)
(12.1228 -0.04302 0)
(12.1857 -0.0490244 0)
(12.2577 -0.0536432 0)
(12.3371 -0.0569806 0)
(12.4219 -0.0592884 0)
(12.5104 -0.060738 0)
(12.601 -0.0615328 0)
(12.6925 -0.0618018 0)
(12.7836 -0.061651 0)
(12.8735 -0.0611574 0)
(12.9614 -0.0603642 0)
(13.0469 -0.0593069 0)
(13.1294 -0.0580144 0)
(13.2088 -0.0565082 0)
(13.2848 -0.0548113 0)
(13.3573 -0.052961 0)
(13.4263 -0.0509971 0)
(13.4916 -0.0489636 0)
(13.5534 -0.0468993 0)
(13.6118 -0.0448257 0)
(13.6668 -0.0427445 0)
(13.7185 -0.0406356 0)
(13.767 -0.0384675 0)
(13.8123 -0.0362103 0)
(13.8544 -0.0338538 0)
(13.893 -0.0314181 0)
(13.928 -0.0289543 0)
(13.9592 -0.0265233 0)
(13.9863 -0.0241813 0)
(14.0093 -0.0219692 0)
(14.0279 -0.019916 0)
(14.0421 -0.0180401 0)
(14.0522 -0.0163326 0)
(14.0586 -0.0147552 0)
(14.0623 -0.0132576 0)
(14.0635 -0.0118141 0)
(14.0624 -0.0104356 0)
(14.0589 -0.00915374 0)
(14.0536 -0.00798481 0)
(14.0477 -0.0068974 0)
(14.0426 -0.00586992 0)
(14.0386 -0.00487971 0)
(14.035 -0.00399622 0)
(14.031 -0.00333847 0)
(14.0264 -0.00298887 0)
(14.0223 -0.0029365 0)
(14.0204 -0.00305483 0)
(14.0211 -0.00318496 0)
(14.0235 -0.00324035 0)
(14.0258 -0.00325182 0)
(14.0269 -0.00335559 0)
(14.027 -0.00370472 0)
(14.0274 -0.00437984 0)
(14.0295 -0.00532426 0)
(14.0334 -0.006359 0)
(14.0374 -0.00724606 0)
(14.0395 -0.00776837 0)
(14.0379 -0.00776719 0)
(14.033 -0.00714046 0)
(14.0259 -0.00585413 0)
(14.0182 -0.00395412 0)
(14.0106 -0.00156544 0)
(14.003 0.00111168 0)
(13.9942 0.00378551 0)
(13.9837 0.00615497 0)
(13.9717 0.00794754 0)
(13.9598 0.00901346 0)
(13.9496 0.00933482 0)
(13.9428 0.00897657 0)
(13.9405 0.00817479 0)
(13.9425 0.00714454 0)
(13.948 0.00610745 0)
(13.9554 0.00519653 0)
(13.9631 0.0045129 0)
(13.9699 0.00409256 0)
(13.9748 0.00390403 0)
(13.9774 0.00390522 0)
(13.978 0.00403005 0)
(13.9769 0.00421424 0)
(13.9747 0.00441368 0)
(13.9718 0.00459313 0)
(13.9687 0.00473693 0)
(13.9655 0.00483433 0)
(13.9626 0.00489048 0)
(13.9598 0.0049141 0)
(13.9572 0.00491494 0)
(13.9547 0.004916 0)
(13.9523 0.00493239 0)
(13.95 0.00496938 0)
(13.9478 0.00502883 0)
(13.9456 0.00510228 0)
(13.9435 0.00517547 0)
(13.9413 0.00525747 0)
(13.9392 0.00532934 0)
(13.9371 0.00541614 0)
(13.9351 0.00548955 0)
(13.9331 0.00559216 0)
(13.9312 0.00567871 0)
(13.9293 0.00581638 0)
(13.9276 0.00591105 0)
(13.9258 0.00610145 0)
(13.9242 0.00622282 0)
(13.9225 0.00652329 0)
(13.921 0.00669599 0)
(13.9194 0.00716471 0)
(13.9181 0.00742117 0)
(13.9166 0.00812263 0)
(13.9156 0.00847335 0)
(13.9141 0.00942114 0)
(13.9134 0.00988597 0)
(13.912 0.0110594 0)
(13.9119 0.0117489 0)
(13.9105 0.0130236 0)
(13.9112 0.0142397 0)
(13.9102 0.0152167 0)
(13.9116 0.0175208 0)
(11.9988 -0.010607 0)
(12.0067 -0.0299107 0)
(12.0347 -0.0495864 0)
(12.0757 -0.0675761 0)
(12.1306 -0.0843838 0)
(12.1962 -0.0988712 0)
(12.2708 -0.111075 0)
(12.3524 -0.120585 0)
(12.4388 -0.127472 0)
(12.5288 -0.131722 0)
(12.6205 -0.133521 0)
(12.7128 -0.133178 0)
(12.8047 -0.130946 0)
(12.8953 -0.127186 0)
(12.9838 -0.122191 0)
(13.0698 -0.116235 0)
(13.153 -0.109552 0)
(13.2329 -0.102375 0)
(13.3095 -0.094923 0)
(13.3826 -0.087402 0)
(13.452 -0.079999 0)
(13.5178 -0.0728912 0)
(13.5801 -0.0662366 0)
(13.6388 -0.060135 0)
(13.6941 -0.0546023 0)
(13.7462 -0.0495678 0)
(13.795 -0.0448963 0)
(13.8406 -0.0404248 0)
(13.883 -0.0359965 0)
(13.9219 -0.0314835 0)
(13.9572 -0.0268314 0)
(13.9885 -0.0220736 0)
(14.0157 -0.0173203 0)
(14.0386 -0.0126968 0)
(14.0571 -0.00829484 0)
(14.0711 -0.00419238 0)
(14.0809 -0.000487024 0)
(14.0871 0.00268496 0)
(14.0904 0.00522894 0)
(14.0913 0.00718436 0)
(14.0897 0.00872261 0)
(14.0856 0.00999564 0)
(14.0798 0.0110357 0)
(14.0734 0.0117125 0)
(14.0678 0.0119767 0)
(14.0631 0.0119276 0)
(14.0588 0.0118443 0)
(14.0541 0.0119308 0)
(14.0488 0.0122491 0)
(14.0443 0.0126123 0)
(14.042 0.0127834 0)
(14.0423 0.012675 0)
(14.0442 0.0123989 0)
(14.0458 0.012189 0)
(14.0459 0.0121267 0)
(14.0451 0.0120068 0)
(14.0449 0.0114368 0)
(14.0465 0.0101567 0)
(14.0499 0.00817442 0)
(14.0533 0.00588091 0)
(14.0543 0.00383079 0)
(14.0514 0.00240763 0)
(14.045 0.00163111 0)
(14.0365 0.00117067 0)
(14.0276 0.000561641 0)
(14.0191 -0.000508638 0)
(14.0105 -0.00199908 0)
(14.0005 -0.00355575 0)
(13.9885 -0.00470796 0)
(13.9749 -0.00506936 0)
(13.9611 -0.00450295 0)
(13.9493 -0.00313426 0)
(13.9414 -0.00124578 0)
(13.9384 0.000687998 0)
(13.9402 0.00231924 0)
(13.9458 0.00341362 0)
(13.9536 0.00393681 0)
(13.962 0.00397296 0)
(13.9693 0.00368485 0)
(13.9746 0.00320574 0)
(13.9776 0.00269762 0)
(13.9784 0.00226086 0)
(13.9774 0.00194149 0)
(13.9752 0.00174519 0)
(13.9722 0.00165197 0)
(13.969 0.00163133 0)
(13.9658 0.00163747 0)
(13.9627 0.00164262 0)
(13.9598 0.00164151 0)
(13.9572 0.00162081 0)
(13.9547 0.00159264 0)
(13.9524 0.00157535 0)
(13.9501 0.00157481 0)
(13.9479 0.00160148 0)
(13.9457 0.00165744 0)
(13.9436 0.00172175 0)
(13.9414 0.00179839 0)
(13.9393 0.00186498 0)
(13.9372 0.00194015 0)
(13.9352 0.00199433 0)
(13.9332 0.00206565 0)
(13.9314 0.00212403 0)
(13.9295 0.00223618 0)
(13.9278 0.00231539 0)
(13.926 0.00249583 0)
(13.9245 0.00261554 0)
(13.9228 0.00291331 0)
(13.9214 0.00309545 0)
(13.9198 0.00353876 0)
(13.9186 0.00378267 0)
(13.9171 0.00440222 0)
(13.9162 0.00476947 0)
(13.9147 0.00556585 0)
(13.9142 0.00612239 0)
(13.9128 0.00697913 0)
(13.9128 0.00782734 0)
(13.9115 0.00858092 0)
(13.9124 0.00988517 0)
(13.9115 0.010361 0)
(13.9129 0.012412 0)
(11.9991 -0.0244846 0)
(12.008 -0.0671726 0)
(12.0358 -0.10951 0)
(12.0775 -0.145923 0)
(12.1336 -0.178076 0)
(12.2016 -0.204184 0)
(12.2794 -0.225097 0)
(12.365 -0.240802 0)
(12.4561 -0.25201 0)
(12.551 -0.259116 0)
(12.6477 -0.262683 0)
(12.7449 -0.263293 0)
(12.8413 -0.261361 0)
(12.9358 -0.257377 0)
(13.0278 -0.251691 0)
(13.1168 -0.244655 0)
(13.2022 -0.236571 0)
(13.284 -0.227685 0)
(13.3617 -0.218181 0)
(13.4353 -0.208262 0)
(13.5048 -0.198117 0)
(13.5701 -0.187959 0)
(13.6313 -0.178005 0)
(13.6888 -0.168415 0)
(13.7427 -0.159256 0)
(13.7934 -0.150492 0)
(13.841 -0.142002 0)
(13.8855 -0.133618 0)
(13.9269 -0.125152 0)
(13.965 -0.116448 0)
(13.9994 -0.107425 0)
(14.0298 -0.0980912 0)
(14.0559 -0.0885386 0)
(14.0777 -0.078934 0)
(14.0951 -0.0695096 0)
(14.1081 -0.0605157 0)
(14.1168 -0.0521215 0)
(14.1217 -0.0443842 0)
(14.1238 -0.0373047 0)
(14.1238 -0.0309119 0)
(14.1218 -0.0252897 0)
(14.1176 -0.0205148 0)
(14.1116 -0.0165368 0)
(14.1047 -0.0132284 0)
(14.0984 -0.0103391 0)
(14.0935 -0.00774859 0)
(14.0894 -0.00564131 0)
(14.0851 -0.00423118 0)
(14.0803 -0.00360081 0)
(14.0757 -0.00356558 0)
(14.0727 -0.00370574 0)
(14.0721 -0.00369701 0)
(14.0731 -0.00356206 0)
(14.0742 -0.00368137 0)
(14.0737 -0.00451606 0)
(14.0717 -0.00637219 0)
(14.0696 -0.00912231 0)
(14.0689 -0.0122829 0)
(14.0697 -0.0152356 0)
(14.0704 -0.0174694 0)
(14.0686 -0.0188809 0)
(14.0625 -0.0195566 0)
(14.052 -0.0195435 0)
(14.0386 -0.0187804 0)
(14.0245 -0.0171884 0)
(14.0112 -0.0146985 0)
(13.9992 -0.0113678 0)
(13.9878 -0.0075305 0)
(13.9764 -0.00366814 0)
(13.9647 -0.000252977 0)
(13.9535 0.00232702 0)
(13.9442 0.00389686 0)
(13.9378 0.00448524 0)
(13.9353 0.00419645 0)
(13.9367 0.00332112 0)
(13.9412 0.00221621 0)
(13.9476 0.00102447 0)
(13.9546 1.8331e-06 0)
(13.9607 -0.000739752 0)
(13.9652 -0.00120182 0)
(13.9677 -0.00139895 0)
(13.9683 -0.0013881 0)
(13.9673 -0.00126884 0)
(13.9652 -0.001087 0)
(13.9624 -0.000891442 0)
(13.9593 -0.000721455 0)
(13.9561 -0.0006083 0)
(13.953 -0.000551463 0)
(13.9501 -0.000555241 0)
(13.9474 -0.000608076 0)
(13.9449 -0.000649282 0)
(13.9425 -0.000653378 0)
(13.9402 -0.000614693 0)
(13.938 -0.000512362 0)
(13.9358 -0.000386092 0)
(13.9336 -0.000269471 0)
(13.9314 -0.000141427 0)
(13.9292 -3.61507e-05 0)
(13.927 5.90481e-05 0)
(13.925 9.99379e-05 0)
(13.9229 0.000146906 0)
(13.9211 0.000189474 0)
(13.9191 0.000283223 0)
(13.9174 0.000344317 0)
(13.9156 0.000499405 0)
(13.9141 0.000612178 0)
(13.9123 0.000895535 0)
(13.911 0.0010455 0)
(13.9093 0.00143768 0)
(13.9082 0.00166063 0)
(13.9067 0.00221514 0)
(13.9059 0.00258483 0)
(13.9045 0.00322689 0)
(13.9039 0.0038256 0)
(13.9026 0.00438881 0)
(13.9026 0.00528666 0)
(13.9013 0.00558106 0)
(13.9022 0.0068354 0)
(13.9012 0.00689975 0)
(13.9029 0.0086784 0)
(12 -0.0265739 0)
(12.0142 -0.0769988 0)
(12.0488 -0.129367 0)
(12.1012 -0.177213 0)
(12.1686 -0.221273 0)
(12.2491 -0.25853 0)
(12.3388 -0.289202 0)
(12.4354 -0.312657 0)
(12.5357 -0.329362 0)
(12.6375 -0.339425 0)
(12.7384 -0.343524 0)
(12.8366 -0.342709 0)
(12.9307 -0.337574 0)
(13.0196 -0.329087 0)
(13.1029 -0.317972 0)
(13.18 -0.304857 0)
(13.251 -0.29025 0)
(13.3158 -0.274609 0)
(13.3745 -0.258321 0)
(13.4272 -0.241772 0)
(13.4741 -0.225349 0)
(13.5157 -0.20946 0)
(13.5522 -0.1945 0)
(13.584 -0.180736 0)
(13.6116 -0.168234 0)
(13.6355 -0.156852 0)
(13.6559 -0.146285 0)
(13.6733 -0.136127 0)
(13.6879 -0.125927 0)
(13.6997 -0.11528 0)
(13.709 -0.104004 0)
(13.7157 -0.0921948 0)
(13.7198 -0.0801475 0)
(13.7216 -0.0681383 0)
(13.7213 -0.0563715 0)
(13.7192 -0.0451173 0)
(13.7156 -0.0347367 0)
(13.7111 -0.0256209 0)
(13.7063 -0.017971 0)
(13.7016 -0.0116559 0)
(13.6972 -0.00635529 0)
(13.6931 -0.0018296 0)
(13.6894 0.00191295 0)
(13.6864 0.00469971 0)
(13.6848 0.00649356 0)
(13.6848 0.0076187 0)
(13.6858 0.00846154 0)
(13.6871 0.00929633 0)
(13.6882 0.0101301 0)
(13.6898 0.0108329 0)
(13.6926 0.0113744 0)
(13.6969 0.0118607 0)
(13.7021 0.0122985 0)
(13.7067 0.0126955 0)
(13.7093 0.012748 0)
(13.7096 0.0120012 0)
(13.7075 0.0101869 0)
(13.7037 0.00750751 0)
(13.6982 0.00466303 0)
(13.6901 0.0022637 0)
(13.6783 0.000848797 0)
(13.6626 0.000398089 0)
(13.6438 0.000374266 0)
(13.6235 -5.76565e-05 0)
(13.6032 -0.00171091 0)
(13.584 -0.00491991 0)
(13.5661 -0.00919827 0)
(13.5493 -0.0135129 0)
(13.5339 -0.0167633 0)
(13.5202 -0.0181283 0)
(13.509 -0.0173258 0)
(13.5011 -0.0146314 0)
(13.4969 -0.0107838 0)
(13.4965 -0.00660464 0)
(13.499 -0.00290199 0)
(13.5034 -0.000216406 0)
(13.5081 0.00133997 0)
(13.5123 0.00181198 0)
(13.515 0.00144114 0)
(13.5159 0.000565984 0)
(13.5149 -0.000532488 0)
(13.5124 -0.00156278 0)
(13.5087 -0.00240009 0)
(13.5043 -0.00300325 0)
(13.4997 -0.00336873 0)
(13.495 -0.00354794 0)
(13.4904 -0.00364773 0)
(13.4861 -0.00371656 0)
(13.482 -0.00375683 0)
(13.478 -0.00382762 0)
(13.474 -0.00390809 0)
(13.4701 -0.00395803 0)
(13.4662 -0.00397386 0)
(13.4624 -0.00390969 0)
(13.4586 -0.00376914 0)
(13.4549 -0.00361624 0)
(13.4513 -0.00347351 0)
(13.4477 -0.00337254 0)
(13.4442 -0.00329368 0)
(13.4408 -0.0032714 0)
(13.4373 -0.00326424 0)
(13.434 -0.00325782 0)
(13.4307 -0.00320862 0)
(13.4276 -0.00317994 0)
(13.4244 -0.00307175 0)
(13.4216 -0.00299682 0)
(13.4185 -0.00273099 0)
(13.4159 -0.0025681 0)
(13.413 -0.0022056 0)
(13.4106 -0.00205475 0)
(13.4078 -0.00157877 0)
(13.4057 -0.0012519 0)
(13.4032 -0.000655863 0)
(13.4016 -2.67049e-05 0)
(13.3993 0.000317847 0)
(13.3985 0.001352 0)
(13.3963 0.00106263 0)
(13.3965 0.00248039 0)
(13.3947 0.00184742 0)
(13.3954 0.00332753 0)
(12.0011 -0.0563601 0)
(12.0232 -0.133213 0)
(12.0746 -0.212876 0)
(12.1467 -0.281319 0)
(12.2281 -0.341363 0)
(12.309 -0.389482 0)
(12.3799 -0.426817 0)
(12.4362 -0.453542 0)
(12.4747 -0.470769 0)
(12.4944 -0.479063 0)
(12.4953 -0.479591 0)
(12.4789 -0.473885 0)
(12.4474 -0.462927 0)
(12.4028 -0.44805 0)
(12.3477 -0.430263 0)
(12.2842 -0.410456 0)
(12.2143 -0.389285 0)
(12.1394 -0.367213 0)
(12.061 -0.344622 0)
(11.9803 -0.321942 0)
(11.8982 -0.299573 0)
(11.8153 -0.277881 0)
(11.7322 -0.257247 0)
(11.6493 -0.237985 0)
(11.5672 -0.220236 0)
(11.4862 -0.20399 0)
(11.4066 -0.189069 0)
(11.3287 -0.175125 0)
(11.2528 -0.161734 0)
(11.1789 -0.148518 0)
(11.1072 -0.135282 0)
(11.0381 -0.122026 0)
(10.9719 -0.108904 0)
(10.9093 -0.0961448 0)
(10.8505 -0.0840382 0)
(10.796 -0.0729155 0)
(10.7462 -0.0630224 0)
(10.7016 -0.0544927 0)
(10.6626 -0.0473234 0)
(10.629 -0.0413669 0)
(10.6005 -0.0364094 0)
(10.5767 -0.0322062 0)
(10.5573 -0.0285933 0)
(10.5418 -0.0255307 0)
(10.5296 -0.0228321 0)
(10.5202 -0.0203742 0)
(10.5126 -0.0182127 0)
(10.5061 -0.0164984 0)
(10.5002 -0.0152867 0)
(10.4948 -0.0144853 0)
(10.4897 -0.0138306 0)
(10.4846 -0.0131009 0)
(10.4793 -0.0122178 0)
(10.4735 -0.0110939 0)
(10.4668 -0.00980125 0)
(10.4593 -0.00857593 0)
(10.4509 -0.00761441 0)
(10.4417 -0.00691842 0)
(10.4316 -0.00642048 0)
(10.4207 -0.00608508 0)
(10.4095 -0.00587601 0)
(10.3982 -0.00583388 0)
(10.3873 -0.00594194 0)
(10.3772 -0.00621258 0)
(10.3676 -0.00676308 0)
(10.3585 -0.00743384 0)
(10.3496 -0.0078819 0)
(10.3408 -0.00795917 0)
(10.3319 -0.00759365 0)
(10.323 -0.00675992 0)
(10.3142 -0.0055495 0)
(10.3057 -0.00408121 0)
(10.298 -0.00258549 0)
(10.291 -0.00131939 0)
(10.2847 -0.000391137 0)
(10.2791 0.00010481 0)
(10.2738 0.000228804 0)
(10.2684 2.48777e-05 0)
(10.2629 -0.000332194 0)
(10.257 -0.000783883 0)
(10.2508 -0.00122969 0)
(10.2444 -0.0016353 0)
(10.2376 -0.00203864 0)
(10.2307 -0.00235437 0)
(10.2237 -0.00256239 0)
(10.2167 -0.00275497 0)
(10.2097 -0.00292391 0)
(10.2028 -0.00303236 0)
(10.1959 -0.00312321 0)
(10.1889 -0.00317121 0)
(10.182 -0.00310667 0)
(10.175 -0.00301908 0)
(10.168 -0.00293094 0)
(10.1611 -0.0028267 0)
(10.1543 -0.00274169 0)
(10.1475 -0.00267647 0)
(10.1408 -0.00258072 0)
(10.1342 -0.00248734 0)
(10.1276 -0.00243604 0)
(10.1213 -0.0024381 0)
(10.1149 -0.0024026 0)
(10.1087 -0.00238395 0)
(10.1025 -0.00235674 0)
(10.0966 -0.00238379 0)
(10.0905 -0.00234843 0)
(10.0848 -0.00232569 0)
(10.079 -0.0021376 0)
(10.0736 -0.00209693 0)
(10.0677 -0.00179606 0)
(10.0627 -0.00163104 0)