/*--------------------------------*- C++ -*----------------------------------*\
  =========                 |
  \\      /  F ield         | OpenFOAM: The Open Source CFD Toolbox
   \\    /   O peration     | Website:  https://openfoam.org
    \\  /    A nd           | Version:  7
     \\/     M anipulation  |
\*---------------------------------------------------------------------------*/
FoamFile
{
    version     2.0;
    format      ascii;
    class       volVectorField;
    location    "1.48";
    object      U;
}
// * * * * * * * * * * * * * * * * * * * * * * * * * * * * * * * * * * * * * //

dimensions      [0 1 -1 0 0 0 0];

internalField   nonuniform List<vector> 
5760
(
(2.274 0.125581 0)
(1.33918 0.0192974 0)
(1.09768 -0.00224986 0)
(0.968927 -0.000224097 0)
(0.898383 -2.40267e-05 0)
(0.860053 -0.000191012 0)
(0.841092 7.90509e-05 0)
(0.82746 0.000374733 0)
(0.812935 0.00044905 0)
(0.798618 0.000387051 0)
(0.786417 0.000329304 0)
(0.77641 0.000310085 0)
(0.767819 0.00030519 0)
(0.760102 0.00029741 0)
(0.753076 0.000286785 0)
(0.746683 0.00027757 0)
(0.740853 0.000270824 0)
(0.735507 0.000265686 0)
(0.730577 0.000261435 0)
(0.726007 0.00025802 0)
(0.721753 0.000255484 0)
(0.717774 0.000253603 0)
(0.714041 0.000251879 0)
(0.710533 0.000249809 0)
(0.707232 0.000247054 0)
(0.704127 0.000243459 0)
(0.701202 0.000239273 0)
(0.698437 0.000234936 0)
(0.69581 0.000230896 0)
(0.6933 0.000227388 0)
(0.69089 0.000224737 0)
(0.688562 0.000223196 0)
(0.686304 0.000222782 0)
(0.684106 0.000223654 0)
(0.68196 0.000225843 0)
(0.67986 0.000229495 0)
(0.6778 0.000234856 0)
(0.675775 0.000241974 0)
(0.673782 0.000250911 0)
(0.671817 0.000261675 0)
(0.669876 0.000274543 0)
(0.667956 0.000289219 0)
(0.666055 0.000305726 0)
(0.664169 0.000324182 0)
(0.662293 0.00034461 0)
(0.66042 0.000366931 0)
(0.658545 0.000391001 0)
(0.656663 0.000416609 0)
(0.654773 0.000443509 0)
(0.652874 0.000471397 0)
(0.650966 0.000499972 0)
(0.649052 0.000528937 0)
(0.647135 0.000557963 0)
(0.64522 0.000586789 0)
(0.643313 0.000615157 0)
(0.641419 0.000642797 0)
(0.639547 0.000669495 0)
(0.637701 0.000695118 0)
(0.635888 0.000719535 0)
(0.634112 0.000742678 0)
(0.632377 0.000764538 0)
(0.630684 0.000785127 0)
(0.629034 0.00080449 0)
(0.627425 0.000822676 0)
(0.625855 0.000839743 0)
(0.624321 0.000855776 0)
(0.62282 0.000870856 0)
(0.62135 0.000884991 0)
(0.619907 0.000898252 0)
(0.618489 0.000910678 0)
(0.617096 0.000922273 0)
(0.615726 0.000933071 0)
(0.61438 0.000943067 0)
(0.61306 0.000952253 0)
(0.611767 0.000960628 0)
(0.610504 0.000968216 0)
(0.609273 0.000974966 0)
(0.608077 0.000980885 0)
(0.606919 0.000986024 0)
(0.605801 0.00099041 0)
(0.604724 0.000994097 0)
(0.603687 0.000997151 0)
(0.602691 0.000999641 0)
(0.601733 0.00100163 0)
(0.600811 0.00100316 0)
(0.599923 0.0010043 0)
(0.599065 0.00100509 0)
(0.598234 0.00100559 0)
(0.597428 0.00100587 0)
(0.596642 0.001006 0)
(0.595872 0.00100601 0)
(0.595116 0.00100597 0)
(0.594371 0.00100585 0)
(0.593636 0.00100565 0)
(0.59291 0.00100535 0)
(0.592195 0.0010049 0)
(0.591493 0.0010043 0)
(0.590806 0.00100354 0)
(0.590137 0.00100266 0)
(0.589488 0.0010017 0)
(0.588858 0.0010007 0)
(0.588251 0.000999677 0)
(0.587665 0.000998656 0)
(0.587103 0.000997627 0)
(0.586563 0.00099658 0)
(0.586048 0.00099551 0)
(0.585557 0.000994435 0)
(0.585089 0.000993396 0)
(0.584643 0.000992456 0)
(0.584215 0.000991679 0)
(0.5838 0.000991129 0)
(0.583393 0.000990848 0)
(0.58299 0.000990832 0)
(0.582586 0.000991047 0)
(0.582178 0.000991431 0)
(0.581768 0.000991899 0)
(0.581355 0.000992367 0)
(0.580943 0.000992762 0)
(0.580536 0.000993035 0)
(0.580138 0.000993165 0)
(0.579754 0.000993168 0)
(0.579386 0.000993076 0)
(0.579036 0.000992935 0)
(0.578705 0.000992794 0)
(0.578391 0.000992695 0)
(0.578093 0.000992669 0)
(0.57781 0.000992734 0)
(0.577538 0.000992887 0)
(0.577277 0.000993116 0)
(0.577024 0.000993405 0)
(0.576778 0.000993732 0)
(0.576538 0.000994074 0)
(0.576306 0.000994409 0)
(0.57608 0.000994725 0)
(0.575861 0.000995015 0)
(0.575651 0.000995273 0)
(0.575448 0.000995499 0)
(0.575255 0.000995693 0)
(0.575072 0.000995861 0)
(0.574898 0.000996008 0)
(0.574734 0.00099614 0)
(0.574581 0.000996261 0)
(0.574438 0.000996375 0)
(0.574304 0.000996482 0)
(0.574181 0.000996581 0)
(0.574068 0.000996675 0)
(0.573965 0.000996766 0)
(0.573872 0.000996854 0)
(0.573788 0.000996935 0)
(0.573715 0.000997009 0)
(0.573651 0.000997073 0)
(0.573596 0.00099713 0)
(0.573552 0.000997182 0)
(0.573517 0.000997223 0)
(0.573491 0.000997253 0)
(0.573476 0.000997279 0)
(0.57347 0.0009973 0)
(0.573474 0.000997309 0)
(0.573487 0.000997316 0)
(0.57351 0.000997306 0)
(0.573543 0.000997283 0)
(0.573585 0.00099726 0)
(0.573637 0.00099723 0)
(0.573699 0.000997197 0)
(0.57377 0.000997155 0)
(0.573851 0.000997099 0)
(0.573942 0.000997034 0)
(0.574042 0.000996966 0)
(0.574152 0.000996896 0)
(0.574272 0.000996819 0)
(0.574401 0.000996731 0)
(0.57454 0.000996629 0)
(0.574688 0.000996521 0)
(0.574846 0.000996426 0)
(0.575014 0.000996318 0)
(0.575191 0.000996175 0)
(0.575378 0.00099605 0)
(0.575574 0.000995923 0)
(0.57578 0.000995776 0)
(0.575995 0.000995627 0)
(0.57622 0.000995466 0)
(0.576454 0.000995306 0)
(0.576698 0.000995133 0)
(0.576951 0.000994959 0)
(0.577214 0.000994773 0)
(0.577486 0.000994579 0)
(0.577768 0.000994378 0)
(0.578059 0.000994179 0)
(0.578359 0.000993967 0)
(0.578669 0.000993739 0)
(0.578988 0.000993511 0)
(0.579317 0.000993287 0)
(0.579654 0.000993047 0)
(0.580002 0.000992789 0)
(0.580358 0.000992531 0)
(0.580724 0.00099228 0)
(0.581099 0.000992012 0)
(0.581483 0.000991721 0)
(0.581877 0.000991433 0)
(0.58228 0.000991156 0)
(0.582692 0.000990856 0)
(0.583113 0.000990532 0)
(0.583544 0.000990217 0)
(0.583983 0.000989905 0)
(0.584432 0.000989574 0)
(0.58489 0.00098923 0)
(0.585357 0.000988887 0)
(0.585834 0.000988529 0)
(0.586319 0.00098816 0)
(0.586813 0.000987794 0)
(0.587317 0.000987417 0)
(0.587829 0.000987022 0)
(0.588351 0.000986633 0)
(0.588882 0.000986223 0)
(0.589421 0.000985812 0)
(0.58997 0.000985386 0)
(0.590528 0.000984961 0)
(0.591095 0.000984508 0)
(0.59167 0.000984074 0)
(0.592255 0.000983589 0)
(0.592848 0.000983158 0)
(0.593452 0.000982613 0)
(0.594062 0.000982221 0)
(0.594685 0.000981569 0)
(0.59531 0.000981302 0)
(0.595955 0.000980386 0)
(0.596592 0.000980459 0)
(0.597264 0.000978972 0)
(0.597906 0.000979837 0)
(0.598614 0.000977166 0)
(0.599248 0.000979646 0)
(0.600011 0.000974566 0)
(0.600609 0.000980533 0)
(0.601468 0.000970207 0)
(0.601964 0.000984244 0)
(0.603015 0.000961718 0)
(0.603243 0.000996079 0)
(0.604764 0.000938727 0)
(0.604392 0.00101129 0)
(0.606565 0.000929031 0)
(3.8105 0.351721 0)
(3.14068 0.142985 0)
(2.77922 0.039175 0)
(2.5111 0.0233885 0)
(2.33593 0.0151227 0)
(2.23037 0.00872559 0)
(2.17191 0.00604318 0)
(2.13314 0.00567847 0)
(2.09838 0.00558033 0)
(2.06581 0.00506327 0)
(2.03772 0.00440706 0)
(2.01452 0.00389319 0)
(1.99499 0.0035398 0)
(1.97795 0.00326675 0)
(1.96281 0.00302708 0)
(1.94933 0.00281324 0)
(1.9373 0.0026264 0)
(1.92654 0.0024642 0)
(1.91687 0.00232245 0)
(1.90813 0.0021981 0)
(1.90021 0.00208866 0)
(1.89299 0.00199119 0)
(1.88642 0.00190233 0)
(1.88042 0.00181924 0)
(1.87496 0.00173997 0)
(1.87001 0.00166388 0)
(1.86552 0.00159188 0)
(1.86146 0.0015249 0)
(1.85776 0.00146407 0)
(1.85436 0.00140954 0)
(1.85123 0.00136095 0)
(1.84832 0.00131847 0)
(1.84559 0.00128168 0)
(1.84302 0.00125018 0)
(1.84059 0.00122388 0)
(1.83827 0.00120308 0)
(1.83604 0.00118805 0)
(1.83389 0.00117855 0)
(1.8318 0.00117457 0)
(1.82976 0.00117604 0)
(1.82775 0.00118368 0)
(1.82578 0.00119653 0)
(1.82382 0.0012146 0)
(1.82188 0.00123846 0)
(1.81994 0.00126843 0)
(1.81799 0.00130428 0)
(1.816 0.00134551 0)
(1.81399 0.00139151 0)
(1.81194 0.00144147 0)
(1.80984 0.00149456 0)
(1.80771 0.00154997 0)
(1.80554 0.00160677 0)
(1.80334 0.0016641 0)
(1.80113 0.0017213 0)
(1.7989 0.00177757 0)
(1.79668 0.00183217 0)
(1.79448 0.00188457 0)
(1.79231 0.00193439 0)
(1.79018 0.00198136 0)
(1.7881 0.0020254 0)
(1.78609 0.00206658 0)
(1.78415 0.00210502 0)
(1.78229 0.00214095 0)
(1.7805 0.0021745 0)
(1.7788 0.0022059 0)
(1.77716 0.0022354 0)
(1.7756 0.00226313 0)
(1.7741 0.00228911 0)
(1.77266 0.00231346 0)
(1.77129 0.00233622 0)
(1.76997 0.00235734 0)
(1.76871 0.00237677 0)
(1.76749 0.0023944 0)
(1.76633 0.00241018 0)
(1.76523 0.00242407 0)
(1.76418 0.00243598 0)
(1.76319 0.00244576 0)
(1.76226 0.00245343 0)
(1.76141 0.00245913 0)
(1.76062 0.00246295 0)
(1.7599 0.00246505 0)
(1.75926 0.00246567 0)
(1.7587 0.00246503 0)
(1.75821 0.00246334 0)
(1.75779 0.00246076 0)
(1.75744 0.00245747 0)
(1.75715 0.00245364 0)
(1.75692 0.00244949 0)
(1.75675 0.0024452 0)
(1.75662 0.00244096 0)
(1.75654 0.00243688 0)
(1.75648 0.00243299 0)
(1.75646 0.00242918 0)
(1.75645 0.0024253 0)
(1.75647 0.00242121 0)
(1.7565 0.00241672 0)
(1.75655 0.0024117 0)
(1.75663 0.00240617 0)
(1.75673 0.00240019 0)
(1.75685 0.00239388 0)
(1.75701 0.00238732 0)
(1.7572 0.00238061 0)
(1.75742 0.00237378 0)
(1.75767 0.00236682 0)
(1.75795 0.00235972 0)
(1.75828 0.00235256 0)
(1.75864 0.00234546 0)
(1.75904 0.00233865 0)
(1.75947 0.00233242 0)
(1.75993 0.00232703 0)
(1.76041 0.00232273 0)
(1.76091 0.0023196 0)
(1.76141 0.00231759 0)
(1.76192 0.0023165 0)
(1.76241 0.00231602 0)
(1.7629 0.00231579 0)
(1.76338 0.00231547 0)
(1.76386 0.00231477 0)
(1.76433 0.0023135 0)
(1.76481 0.00231163 0)
(1.76529 0.00230921 0)
(1.76579 0.00230642 0)
(1.7663 0.00230343 0)
(1.76683 0.00230045 0)
(1.76737 0.00229764 0)
(1.76794 0.00229514 0)
(1.76852 0.00229301 0)
(1.76911 0.00229123 0)
(1.76972 0.00228977 0)
(1.77033 0.00228856 0)
(1.77095 0.00228752 0)
(1.77159 0.00228655 0)
(1.77222 0.00228558 0)
(1.77287 0.00228456 0)
(1.77352 0.00228346 0)
(1.77418 0.00228227 0)
(1.77485 0.00228098 0)
(1.77553 0.00227959 0)
(1.77622 0.00227812 0)
(1.77691 0.0022766 0)
(1.77762 0.00227503 0)
(1.77834 0.00227345 0)
(1.77907 0.00227185 0)
(1.77981 0.00227026 0)
(1.78056 0.00226865 0)
(1.78132 0.00226705 0)
(1.78209 0.00226545 0)
(1.78287 0.00226386 0)
(1.78367 0.00226227 0)
(1.78447 0.00226067 0)
(1.78529 0.00225906 0)
(1.78611 0.00225745 0)
(1.78695 0.00225584 0)
(1.7878 0.00225421 0)
(1.78865 0.00225257 0)
(1.78952 0.00225093 0)
(1.7904 0.00224929 0)
(1.79129 0.00224762 0)
(1.7922 0.00224597 0)
(1.79311 0.00224429 0)
(1.79403 0.00224259 0)
(1.79497 0.0022409 0)
(1.79591 0.00223921 0)
(1.79687 0.00223752 0)
(1.79784 0.00223582 0)
(1.79882 0.0022341 0)
(1.79981 0.00223237 0)
(1.80081 0.00223065 0)
(1.80182 0.00222894 0)
(1.80285 0.00222721 0)
(1.80388 0.00222548 0)
(1.80493 0.00222373 0)
(1.80599 0.00222199 0)
(1.80706 0.00222027 0)
(1.80814 0.00221854 0)
(1.80923 0.00221675 0)
(1.81033 0.00221501 0)
(1.81145 0.00221328 0)
(1.81258 0.00221151 0)
(1.81371 0.00220975 0)
(1.81486 0.00220799 0)
(1.81603 0.00220623 0)
(1.8172 0.00220446 0)
(1.81838 0.0022027 0)
(1.81958 0.00220093 0)
(1.82079 0.00219915 0)
(1.822 0.00219737 0)
(1.82323 0.0021956 0)
(1.82448 0.00219383 0)
(1.82573 0.00219203 0)
(1.827 0.00219024 0)
(1.82827 0.00218847 0)
(1.82956 0.00218668 0)
(1.83086 0.00218487 0)
(1.83217 0.00218308 0)
(1.8335 0.0021813 0)
(1.83483 0.0021795 0)
(1.83618 0.00217767 0)
(1.83754 0.00217586 0)
(1.83891 0.00217409 0)
(1.84029 0.00217228 0)
(1.84168 0.00217043 0)
(1.84309 0.00216862 0)
(1.84451 0.00216682 0)
(1.84593 0.002165 0)
(1.84737 0.00216316 0)
(1.84883 0.00216134 0)
(1.85029 0.00215951 0)
(1.85176 0.00215766 0)
(1.85325 0.00215584 0)
(1.85475 0.00215401 0)
(1.85626 0.00215215 0)
(1.85778 0.00215032 0)
(1.85932 0.00214848 0)
(1.86086 0.00214662 0)
(1.86242 0.00214477 0)
(1.86398 0.00214292 0)
(1.86556 0.00214106 0)
(1.86715 0.00213921 0)
(1.86876 0.00213733 0)
(1.87037 0.0021355 0)
(1.872 0.00213359 0)
(1.87363 0.00213182 0)
(1.87528 0.00212978 0)
(1.87693 0.00212824 0)
(1.87862 0.0021258 0)
(1.88028 0.00212492 0)
(1.882 0.00212143 0)
(1.88366 0.00212214 0)
(1.88544 0.0021164 0)
(1.88706 0.00212031 0)
(1.88895 0.00211002 0)
(1.89047 0.00212066 0)
(1.89254 0.00210058 0)
(1.89383 0.00212691 0)
(1.89631 0.0020843 0)
(1.89699 0.00215262 0)
(1.90044 0.00203966 0)
(1.89961 0.00216735 0)
(1.9048 0.00193722 0)
(4.41264 0.428043 0)
(4.24333 0.217849 0)
(3.99759 0.0802282 0)
(3.70881 0.0543443 0)
(3.4797 0.0380146 0)
(3.32863 0.0233956 0)
(3.23897 0.0159149 0)
(3.1795 0.0137639 0)
(3.13003 0.0129669 0)
(3.08546 0.0117757 0)
(3.04696 0.0103634 0)
(3.01486 0.00917964 0)
(2.98789 0.00830741 0)
(2.96465 0.00762818 0)
(2.94428 0.00704631 0)
(2.92632 0.00653034 0)
(2.9105 0.00607492 0)
(2.89652 0.0056752 0)
(2.88414 0.00532369 0)
(2.87315 0.00501403 0)
(2.86336 0.00474023 0)
(2.8546 0.00449555 0)
(2.84678 0.0042728 0)
(2.83979 0.00406601 0)
(2.8336 0.003871 0)
(2.82814 0.00368644 0)
(2.82335 0.00351351 0)
(2.81918 0.00335342 0)
(2.81556 0.00320735 0)
(2.81239 0.0030755 0)
(2.80962 0.00295635 0)
(2.80719 0.00284916 0)
(2.80504 0.00275293 0)
(2.80314 0.00266664 0)
(2.80145 0.00258999 0)
(2.79994 0.00252324 0)
(2.79858 0.00246648 0)
(2.79734 0.00241906 0)
(2.79619 0.00238061 0)
(2.79512 0.00235078 0)
(2.7941 0.0023306 0)
(2.79312 0.0023183 0)
(2.79217 0.00231385 0)
(2.79123 0.0023183 0)
(2.79028 0.00233229 0)
(2.7893 0.00235551 0)
(2.78828 0.00238723 0)
(2.78721 0.00242649 0)
(2.78606 0.00247214 0)
(2.78486 0.00252304 0)
(2.78358 0.00257805 0)
(2.78224 0.00263585 0)
(2.78085 0.00269528 0)
(2.77941 0.00275546 0)
(2.77794 0.00281516 0)
(2.77646 0.00287327 0)
(2.77497 0.00292902 0)
(2.77351 0.00298178 0)
(2.77207 0.00303112 0)
(2.77069 0.00307696 0)
(2.76938 0.00311937 0)
(2.76814 0.00315853 0)
(2.76698 0.0031948 0)
(2.7659 0.00322834 0)
(2.76492 0.00325948 0)
(2.76403 0.00328864 0)
(2.76323 0.00331592 0)
(2.76251 0.00334139 0)
(2.76187 0.00336522 0)
(2.76131 0.00338741 0)
(2.76082 0.00340789 0)
(2.76041 0.00342652 0)
(2.76006 0.00344309 0)
(2.75979 0.00345747 0)
(2.75958 0.0034696 0)
(2.75945 0.00347918 0)
(2.75939 0.00348595 0)
(2.75941 0.00348991 0)
(2.75951 0.00349116 0)
(2.7597 0.0034898 0)
(2.75998 0.00348602 0)
(2.76035 0.00348014 0)
(2.76082 0.00347251 0)
(2.76138 0.00346345 0)
(2.76203 0.00345323 0)
(2.76277 0.00344212 0)
(2.76359 0.00343044 0)
(2.76449 0.00341854 0)
(2.76546 0.00340676 0)
(2.7665 0.00339537 0)
(2.76759 0.00338455 0)
(2.76873 0.00337432 0)
(2.76991 0.00336448 0)
(2.77112 0.00335478 0)
(2.77236 0.00334492 0)
(2.77363 0.00333455 0)
(2.77492 0.00332343 0)
(2.77624 0.00331149 0)
(2.77759 0.00329882 0)
(2.77897 0.00328555 0)
(2.78039 0.0032718 0)
(2.78183 0.00325769 0)
(2.78332 0.00324328 0)
(2.78484 0.00322858 0)
(2.7864 0.00321358 0)
(2.78799 0.00319841 0)
(2.78963 0.00318331 0)
(2.79131 0.00316868 0)
(2.79303 0.00315498 0)
(2.79478 0.00314271 0)
(2.79655 0.00313226 0)
(2.79834 0.00312384 0)
(2.80013 0.00311738 0)
(2.80193 0.00311259 0)
(2.80372 0.00310899 0)
(2.80549 0.003106 0)
(2.80726 0.00310304 0)
(2.80901 0.00309962 0)
(2.81076 0.00309539 0)
(2.8125 0.00309022 0)
(2.81424 0.0030842 0)
(2.81598 0.00307751 0)
(2.81774 0.00307045 0)
(2.8195 0.00306331 0)
(2.82128 0.0030564 0)
(2.82307 0.0030499 0)
(2.82487 0.00304394 0)
(2.82668 0.00303854 0)
(2.82849 0.00303365 0)
(2.83031 0.0030292 0)
(2.83214 0.00302505 0)
(2.83397 0.00302107 0)
(2.83581 0.00301713 0)
(2.83765 0.00301315 0)
(2.8395 0.00300909 0)
(2.84134 0.00300492 0)
(2.8432 0.00300062 0)
(2.84506 0.0029962 0)
(2.84692 0.00299167 0)
(2.8488 0.00298706 0)
(2.85067 0.0029824 0)
(2.85256 0.00297771 0)
(2.85445 0.00297303 0)
(2.85635 0.00296836 0)
(2.85826 0.00296369 0)
(2.86017 0.00295903 0)
(2.8621 0.0029544 0)
(2.86403 0.00294978 0)
(2.86596 0.0029452 0)
(2.86791 0.00294062 0)
(2.86986 0.00293605 0)
(2.87182 0.00293149 0)
(2.87379 0.00292694 0)
(2.87576 0.00292239 0)
(2.87775 0.00291784 0)
(2.87974 0.00291331 0)
(2.88174 0.00290879 0)
(2.88375 0.00290426 0)
(2.88576 0.00289976 0)
(2.88778 0.00289525 0)
(2.88982 0.00289073 0)
(2.89185 0.00288625 0)
(2.8939 0.00288177 0)
(2.89596 0.00287731 0)
(2.89802 0.00287286 0)
(2.9001 0.00286841 0)
(2.90218 0.00286397 0)
(2.90427 0.00285956 0)
(2.90637 0.00285517 0)
(2.90847 0.00285078 0)
(2.91059 0.00284641 0)
(2.91271 0.00284205 0)
(2.91485 0.0028377 0)
(2.91699 0.00283341 0)
(2.91914 0.00282911 0)
(2.9213 0.00282478 0)
(2.92346 0.00282051 0)
(2.92564 0.00281629 0)
(2.92783 0.00281205 0)
(2.93002 0.00280783 0)
(2.93222 0.00280362 0)
(2.93444 0.00279945 0)
(2.93666 0.00279529 0)
(2.93889 0.00279115 0)
(2.94113 0.00278702 0)
(2.94338 0.00278291 0)
(2.94564 0.00277882 0)
(2.9479 0.00277477 0)
(2.95018 0.00277073 0)
(2.95247 0.00276669 0)
(2.95476 0.00276267 0)
(2.95706 0.0027587 0)
(2.95938 0.00275474 0)
(2.9617 0.00275078 0)
(2.96403 0.00274685 0)
(2.96638 0.00274295 0)
(2.96873 0.00273906 0)
(2.97109 0.00273517 0)
(2.97346 0.00273133 0)
(2.97584 0.00272753 0)
(2.97823 0.00272372 0)
(2.98063 0.0027199 0)
(2.98303 0.00271614 0)
(2.98545 0.00271243 0)
(2.98788 0.00270871 0)
(2.99032 0.00270498 0)
(2.99276 0.0027013 0)
(2.99522 0.00269765 0)
(2.99768 0.00269399 0)
(3.00016 0.00269039 0)
(3.00264 0.00268681 0)
(3.00514 0.00268323 0)
(3.00764 0.00267968 0)
(3.01016 0.00267618 0)
(3.01268 0.00267265 0)
(3.01521 0.0026692 0)
(3.01776 0.00266573 0)
(3.02031 0.00266234 0)
(3.02287 0.00265892 0)
(3.02544 0.00265558 0)
(3.02802 0.00265219 0)
(3.03061 0.00264893 0)
(3.03321 0.00264565 0)
(3.03582 0.00264233 0)
(3.03843 0.00263933 0)
(3.04107 0.00263567 0)
(3.04368 0.00263353 0)
(3.04637 0.00262867 0)
(3.04896 0.00262853 0)
(3.05171 0.00262102 0)
(3.05424 0.00262482 0)
(3.05712 0.00261209 0)
(3.05952 0.00262378 0)
(3.06263 0.00259999 0)
(3.06471 0.00263006 0)
(3.06835 0.00258134 0)
(3.06959 0.00266255 0)
(3.07453 0.00253298 0)
(3.07375 0.00269595 0)
(3.0808 0.00227842 0)
(4.58937 0.400102 0)
(4.82014 0.243444 0)
(4.81298 0.107379 0)
(4.62398 0.0842414 0)
(4.41112 0.0643471 0)
(4.24975 0.0419436 0)
(4.14449 0.028738 0)
(4.0722 0.0238874 0)
(4.01363 0.021885 0)
(3.96226 0.0198101 0)
(3.91795 0.0175452 0)
(3.88066 0.015608 0)
(3.84914 0.0141303 0)
(3.82205 0.0129671 0)
(3.79844 0.0119798 0)
(3.77775 0.0111084 0)
(3.75963 0.0103361 0)
(3.74375 0.00965393 0)
(3.72984 0.00905168 0)
(3.71763 0.00852011 0)
(3.70689 0.00804984 0)
(3.69744 0.00763 0)
(3.68912 0.00724906 0)
(3.68183 0.0068973 0)
(3.6755 0.0065679 0)
(3.67005 0.00625858 0)
(3.66543 0.0059704 0)
(3.66156 0.00570469 0)
(3.65836 0.00546263 0)
(3.65576 0.00524363 0)
(3.65366 0.00504482 0)
(3.652 0.00486461 0)
(3.65073 0.00470083 0)
(3.64979 0.00455173 0)
(3.64914 0.00441693 0)
(3.64873 0.00429677 0)
(3.64854 0.00419108 0)
(3.64851 0.00409883 0)
(3.64862 0.00401916 0)
(3.64884 0.00395121 0)
(3.64914 0.00389625 0)
(3.64949 0.00385153 0)
(3.64989 0.00381681 0)
(3.6503 0.0037935 0)
(3.65071 0.00378249 0)
(3.6511 0.00378334 0)
(3.65144 0.00379502 0)
(3.65172 0.00381615 0)
(3.65193 0.00384528 0)
(3.65205 0.00388107 0)
(3.6521 0.00392217 0)
(3.65207 0.00396704 0)
(3.65197 0.00401452 0)
(3.6518 0.00406365 0)
(3.65158 0.00411299 0)
(3.65133 0.00416122 0)
(3.65105 0.00420747 0)
(3.65078 0.00425099 0)
(3.65051 0.0042913 0)
(3.65029 0.00432829 0)
(3.65011 0.00436208 0)
(3.64999 0.00439292 0)
(3.64994 0.00442118 0)
(3.64997 0.00444708 0)
(3.65009 0.00447096 0)
(3.6503 0.00449327 0)
(3.6506 0.00451411 0)
(3.65099 0.00453354 0)
(3.65147 0.00455177 0)
(3.65204 0.00456873 0)
(3.65269 0.00458429 0)
(3.65342 0.00459823 0)
(3.65423 0.00461028 0)
(3.65512 0.00462031 0)
(3.65608 0.00462814 0)
(3.65713 0.00463332 0)
(3.65825 0.00463549 0)
(3.65947 0.00463464 0)
(3.66077 0.00463081 0)
(3.66216 0.00462403 0)
(3.66365 0.00461451 0)
(3.66524 0.00460262 0)
(3.66692 0.00458877 0)
(3.66871 0.00457335 0)
(3.6706 0.00455669 0)
(3.67259 0.00453914 0)
(3.67468 0.00452112 0)
(3.67685 0.00450311 0)
(3.67911 0.00448554 0)
(3.68145 0.00446878 0)
(3.68385 0.00445303 0)
(3.68631 0.00443828 0)
(3.68882 0.00442425 0)
(3.69138 0.00441056 0)
(3.69398 0.00439675 0)
(3.69661 0.00438233 0)
(3.69928 0.00436693 0)
(3.70198 0.00435043 0)
(3.70472 0.0043329 0)
(3.70749 0.00431449 0)
(3.7103 0.00429535 0)
(3.71314 0.00427564 0)
(3.71602 0.00425545 0)
(3.71894 0.0042348 0)
(3.72189 0.0042137 0)
(3.72489 0.00419234 0)
(3.72793 0.00417106 0)
(3.73101 0.00415039 0)
(3.73412 0.00413097 0)
(3.73727 0.00411345 0)
(3.74044 0.00409837 0)
(3.74363 0.00408602 0)
(3.74683 0.00407633 0)
(3.75003 0.00406893 0)
(3.75323 0.0040632 0)
(3.75642 0.00405838 0)
(3.75959 0.0040537 0)
(3.76276 0.00404849 0)
(3.76591 0.0040423 0)
(3.76906 0.00403492 0)
(3.77219 0.00402644 0)
(3.77533 0.00401709 0)
(3.77847 0.00400722 0)
(3.78161 0.00399724 0)
(3.78475 0.00398749 0)
(3.7879 0.00397827 0)
(3.79105 0.00396973 0)
(3.79421 0.00396188 0)
(3.79737 0.0039547 0)
(3.80053 0.00394808 0)
(3.80369 0.00394185 0)
(3.80686 0.00393583 0)
(3.81002 0.00392988 0)
(3.81319 0.00392387 0)
(3.81635 0.00391775 0)
(3.81952 0.00391148 0)
(3.82269 0.00390503 0)
(3.82586 0.00389843 0)
(3.82903 0.00389168 0)
(3.83221 0.00388481 0)
(3.83539 0.00387785 0)
(3.83857 0.00387086 0)
(3.84176 0.00386386 0)
(3.84495 0.00385686 0)
(3.84814 0.00384986 0)
(3.85134 0.00384285 0)
(3.85454 0.00383586 0)
(3.85774 0.0038289 0)
(3.86095 0.00382196 0)
(3.86416 0.00381502 0)
(3.86738 0.00380809 0)
(3.8706 0.00380115 0)
(3.87382 0.00379423 0)
(3.87705 0.0037873 0)
(3.88028 0.00378036 0)
(3.88352 0.00377345 0)
(3.88676 0.00376653 0)
(3.89 0.0037596 0)
(3.89325 0.00375268 0)
(3.8965 0.00374577 0)
(3.89976 0.00373885 0)
(3.90302 0.00373195 0)
(3.90629 0.00372506 0)
(3.90956 0.00371818 0)
(3.91284 0.0037113 0)
(3.91612 0.00370443 0)
(3.9194 0.00369758 0)
(3.92269 0.00369076 0)
(3.92599 0.00368394 0)
(3.92929 0.00367713 0)
(3.93259 0.00367034 0)
(3.9359 0.00366356 0)
(3.93922 0.00365681 0)
(3.94254 0.0036501 0)
(3.94586 0.0036434 0)
(3.94919 0.00363666 0)
(3.95253 0.00362999 0)
(3.95587 0.00362337 0)
(3.95921 0.00361674 0)
(3.96256 0.00361012 0)
(3.96592 0.00360353 0)
(3.96928 0.00359698 0)
(3.97265 0.00359045 0)
(3.97602 0.00358393 0)
(3.9794 0.00357744 0)
(3.98278 0.00357097 0)
(3.98617 0.00356453 0)
(3.98956 0.00355813 0)
(3.99296 0.00355175 0)
(3.99636 0.00354538 0)
(3.99977 0.00353904 0)
(4.00319 0.00353274 0)
(4.00661 0.00352648 0)
(4.01004 0.00352022 0)
(4.01347 0.003514 0)
(4.01691 0.00350781 0)
(4.02035 0.00350165 0)
(4.0238 0.0034955 0)
(4.02726 0.00348939 0)
(4.03072 0.00348334 0)
(4.03418 0.00347729 0)
(4.03766 0.00347126 0)
(4.04114 0.00346529 0)
(4.04462 0.00345938 0)
(4.04811 0.00345346 0)
(4.05161 0.00344754 0)
(4.05511 0.00344168 0)
(4.05862 0.00343588 0)
(4.06213 0.00343008 0)
(4.06565 0.00342435 0)
(4.06918 0.00341865 0)
(4.07271 0.00341297 0)
(4.07625 0.00340731 0)
(4.0798 0.00340176 0)
(4.08335 0.00339616 0)
(4.0869 0.00339069 0)
(4.09047 0.00338516 0)
(4.09403 0.00337981 0)
(4.09761 0.00337435 0)
(4.10119 0.00336911 0)
(4.10477 0.00336368 0)
(4.10837 0.00335862 0)
(4.11196 0.0033533 0)
(4.11557 0.0033483 0)
(4.11917 0.00334319 0)
(4.1228 0.00333802 0)
(4.12639 0.00333374 0)
(4.13006 0.00332753 0)
(4.13362 0.00332519 0)
(4.13736 0.0033166 0)
(4.14085 0.00331795 0)
(4.14471 0.00330487 0)
(4.14804 0.00331318 0)
(4.15217 0.00329096 0)
(4.15511 0.00331514 0)
(4.15985 0.00327402 0)
(4.16183 0.00334546 0)
(4.16803 0.00322791 0)
(4.16781 0.00339442 0)
(4.17615 0.00285505 0)
(4.58383 0.334408 0)
(5.00918 0.230533 0)
(5.22247 0.109566 0)
(5.2048 0.0998823 0)
(5.08539 0.0854933 0)
(4.96508 0.0597492 0)
(4.87423 0.0420731 0)
(4.80636 0.0345728 0)
(4.74954 0.0311357 0)
(4.69925 0.0280399 0)
(4.65546 0.0248982 0)
(4.6181 0.022224 0)
(4.58616 0.0201577 0)
(4.55849 0.0185213 0)
(4.5343 0.0171355 0)
(4.51309 0.0159152 0)
(4.49452 0.0148305 0)
(4.4783 0.0138675 0)
(4.46416 0.0130131 0)
(4.45184 0.0122566 0)
(4.44111 0.0115862 0)
(4.43178 0.0109878 0)
(4.42367 0.010446 0)
(4.41667 0.00994728 0)
(4.41068 0.00948225 0)
(4.40564 0.00904757 0)
(4.40149 0.00864428 0)
(4.39816 0.00827375 0)
(4.39557 0.00793679 0)
(4.39364 0.00763205 0)
(4.39229 0.00735541 0)
(4.39146 0.00710352 0)
(4.39108 0.00687317 0)
(4.39112 0.00666184 0)
(4.39151 0.00646919 0)
(4.39221 0.00629579 0)
(4.39317 0.0061413 0)
(4.39436 0.00600458 0)
(4.39572 0.00588432 0)
(4.39722 0.00577908 0)
(4.39883 0.00569027 0)
(4.40051 0.00561403 0)
(4.40226 0.00554976 0)
(4.40405 0.00549903 0)
(4.40585 0.00546279 0)
(4.40764 0.00544025 0)
(4.40939 0.00542992 0)
(4.4111 0.00542983 0)
(4.41275 0.00543815 0)
(4.41434 0.0054533 0)
(4.41585 0.00547374 0)
(4.41729 0.00549785 0)
(4.41866 0.00552469 0)
(4.41996 0.00555344 0)
(4.42121 0.00558271 0)
(4.42241 0.00561121 0)
(4.42358 0.00563812 0)
(4.42472 0.00566281 0)
(4.42585 0.0056849 0)
(4.427 0.00570442 0)
(4.42816 0.00572151 0)
(4.42937 0.00573654 0)
(4.43062 0.00574991 0)
(4.43193 0.0057618 0)
(4.43331 0.00577257 0)
(4.43476 0.0057826 0)
(4.4363 0.00579193 0)
(4.43792 0.00580056 0)
(4.43962 0.00580872 0)
(4.44141 0.00581628 0)
(4.44329 0.00582301 0)
(4.44525 0.00582862 0)
(4.44729 0.00583286 0)
(4.44941 0.00583564 0)
(4.45161 0.00583669 0)
(4.45389 0.00583546 0)
(4.45625 0.00583157 0)
(4.45869 0.00582504 0)
(4.46121 0.00581584 0)
(4.46382 0.00580393 0)
(4.46652 0.0057895 0)
(4.46931 0.0057729 0)
(4.4722 0.00575457 0)
(4.47518 0.0057349 0)
(4.47826 0.00571423 0)
(4.48143 0.00569291 0)
(4.48471 0.00567141 0)
(4.48807 0.00565026 0)
(4.49153 0.00562996 0)
(4.49507 0.00561091 0)
(4.49868 0.00559332 0)
(4.50236 0.0055771 0)
(4.50611 0.00556191 0)
(4.50991 0.00554727 0)
(4.51376 0.00553259 0)
(4.51766 0.00551723 0)
(4.5216 0.00550073 0)
(4.52558 0.00548293 0)
(4.5296 0.00546388 0)
(4.53365 0.00544372 0)
(4.53775 0.00542264 0)
(4.54188 0.00540087 0)
(4.54605 0.00537851 0)
(4.55026 0.0053556 0)
(4.5545 0.0053322 0)
(4.55878 0.00530854 0)
(4.5631 0.00528501 0)
(4.56745 0.00526223 0)
(4.57184 0.00524093 0)
(4.57627 0.00522186 0)
(4.58071 0.00520564 0)
(4.58518 0.00519256 0)
(4.58967 0.00518255 0)
(4.59417 0.00517519 0)
(4.59867 0.00516977 0)
(4.60317 0.00516541 0)
(4.60766 0.00516122 0)
(4.61214 0.00515646 0)
(4.61662 0.00515058 0)
(4.62108 0.00514339 0)
(4.62554 0.00513497 0)
(4.62999 0.00512558 0)
(4.63444 0.00511561 0)
(4.63888 0.00510553 0)
(4.64332 0.00509574 0)
(4.64775 0.00508657 0)
(4.65219 0.00507816 0)
(4.65662 0.00507056 0)
(4.66106 0.0050637 0)
(4.66549 0.00505747 0)
(4.66992 0.00505166 0)
(4.67435 0.00504607 0)
(4.67879 0.00504051 0)
(4.68322 0.00503487 0)
(4.68765 0.00502906 0)
(4.69208 0.00502304 0)
(4.69651 0.0050168 0)
(4.70094 0.00501035 0)
(4.70537 0.00500369 0)
(4.7098 0.00499685 0)
(4.71423 0.00498989 0)
(4.71866 0.00498286 0)
(4.7231 0.00497581 0)
(4.72753 0.00496872 0)
(4.73197 0.00496159 0)
(4.73641 0.00495443 0)
(4.74085 0.00494726 0)
(4.74529 0.00494009 0)
(4.74973 0.00493293 0)
(4.75417 0.00492574 0)
(4.75861 0.00491853 0)
(4.76306 0.00491128 0)
(4.76751 0.00490402 0)
(4.77195 0.00489672 0)
(4.77641 0.0048894 0)
(4.78086 0.00488206 0)
(4.78531 0.00487469 0)
(4.78977 0.00486728 0)
(4.79423 0.00485986 0)
(4.79869 0.00485242 0)
(4.80315 0.00484494 0)
(4.80761 0.00483747 0)
(4.81207 0.00482997 0)
(4.81654 0.00482245 0)
(4.82101 0.00481491 0)
(4.82548 0.00480735 0)
(4.82996 0.0047998 0)
(4.83443 0.00479225 0)
(4.83891 0.00478468 0)
(4.84339 0.00477709 0)
(4.84787 0.00476949 0)
(4.85235 0.0047619 0)
(4.85684 0.00475431 0)
(4.86133 0.00474673 0)
(4.86582 0.00473913 0)
(4.87031 0.00473148 0)
(4.8748 0.00472387 0)
(4.8793 0.00471631 0)
(4.8838 0.00470871 0)
(4.8883 0.00470109 0)
(4.89281 0.0046935 0)
(4.89731 0.00468592 0)
(4.90182 0.00467834 0)
(4.90633 0.00467074 0)
(4.91084 0.00466316 0)
(4.91536 0.00465559 0)
(4.91988 0.00464803 0)
(4.9244 0.00464048 0)
(4.92892 0.00463295 0)
(4.93344 0.0046254 0)
(4.93797 0.00461786 0)
(4.9425 0.00461035 0)
(4.94703 0.00460285 0)
(4.95157 0.00459536 0)
(4.9561 0.00458788 0)
(4.96064 0.00458041 0)
(4.96519 0.00457295 0)
(4.96973 0.0045655 0)
(4.97428 0.00455808 0)
(4.97883 0.00455068 0)
(4.98338 0.00454328 0)
(4.98794 0.00453589 0)
(4.99249 0.00452855 0)
(4.99705 0.00452125 0)
(5.00162 0.00451392 0)
(5.00618 0.00450658 0)
(5.01075 0.00449929 0)
(5.01532 0.00449206 0)
(5.0199 0.00448481 0)
(5.02447 0.00447761 0)
(5.02905 0.00447044 0)
(5.03363 0.0044633 0)
(5.03822 0.00445613 0)
(5.0428 0.00444909 0)
(5.04739 0.00444196 0)
(5.05199 0.00443501 0)
(5.05658 0.00442793 0)
(5.06118 0.00442109 0)
(5.06578 0.00441404 0)
(5.07038 0.00440733 0)
(5.07498 0.00440028 0)
(5.07959 0.00439379 0)
(5.0842 0.00438679 0)
(5.08882 0.00438044 0)
(5.09342 0.00437352 0)
(5.09806 0.00436718 0)
(5.10265 0.00436089 0)
(5.10732 0.0043538 0)
(5.11187 0.00434911 0)
(5.1166 0.00434015 0)
(5.12107 0.00433847 0)
(5.12593 0.00432625 0)
(5.13022 0.00432963 0)
(5.13535 0.00431177 0)
(5.13922 0.00432572 0)
(5.14501 0.0042985 0)
(5.14785 0.0043508 0)
(5.15516 0.00425812 0)
(5.1558 0.00440287 0)
(5.16522 0.00381819 0)
(4.55131 0.275124 0)
(5.00242 0.204009 0)
(5.31571 0.0927768 0)
(5.43948 0.0948231 0)
(5.44856 0.091935 0)
(5.41825 0.0696753 0)
(5.38353 0.0516143 0)
(5.34968 0.0432762 0)
(5.31463 0.039124 0)
(5.27938 0.0353115 0)
(5.24646 0.0314597 0)
(5.21712 0.0281624 0)
(5.19125 0.0255924 0)
(5.16827 0.0235537 0)
(5.14781 0.0218339 0)
(5.12964 0.0203222 0)
(5.11362 0.0189762 0)
(5.09957 0.017776 0)
(5.08732 0.0167059 0)
(5.0767 0.0157541 0)
(5.06754 0.0149081 0)
(5.05966 0.0141516 0)
(5.05293 0.0134663 0)
(5.04722 0.0128359 0)
(5.04246 0.0122487 0)
(5.03857 0.0117006 0)
(5.03552 0.0111928 0)
(5.03324 0.0107271 0)
(5.03167 0.0103042 0)
(5.03075 0.00992181 0)
(5.03041 0.00957482 0)
(5.03061 0.00925826 0)
(5.03129 0.00896749 0)
(5.03241 0.00869925 0)
(5.03392 0.00845327 0)
(5.03578 0.0082304 0)
(5.03794 0.00803033 0)
(5.04035 0.00785203 0)
(5.04296 0.00769404 0)
(5.04574 0.00755446 0)
(5.04865 0.0074349 0)
(5.05165 0.00733032 0)
(5.05472 0.00723978 0)
(5.05784 0.00716486 0)
(5.061 0.00710647 0)
(5.06415 0.0070633 0)
(5.0673 0.00703322 0)
(5.07043 0.00701348 0)
(5.07352 0.00700171 0)
(5.07656 0.00699588 0)
(5.07957 0.00699416 0)
(5.08252 0.00699485 0)
(5.08544 0.00699725 0)
(5.0883 0.00700079 0)
(5.09112 0.00700427 0)
(5.09389 0.00700664 0)
(5.09663 0.0070073 0)
(5.09934 0.00700594 0)
(5.10202 0.00700246 0)
(5.10469 0.00699712 0)
(5.10735 0.00699029 0)
(5.11003 0.0069825 0)
(5.11272 0.0069742 0)
(5.11544 0.00696561 0)
(5.1182 0.00695708 0)
(5.12102 0.00694888 0)
(5.12389 0.00694094 0)
(5.12682 0.00693321 0)
(5.12983 0.00692588 0)
(5.13291 0.00691875 0)
(5.13607 0.00691148 0)