/*--------------------------------*- C++ -*----------------------------------*\
  =========                 |
  \\      /  F ield         | OpenFOAM: The Open Source CFD Toolbox
   \\    /   O peration     | Website:  https://openfoam.org
    \\  /    A nd           | Version:  7
     \\/     M anipulation  |
\*---------------------------------------------------------------------------*/
FoamFile
{
    version     2.0;
    format      ascii;
    class       volScalarField;
    location    "0.175";
    object      pPrime2Mean;
}
// * * * * * * * * * * * * * * * * * * * * * * * * * * * * * * * * * * * * * //

dimensions      [2 -2 -4 0 0 0 0];

internalField   nonuniform List<scalar> 
1440
(
1.55587e+06
1.5479e+06
1.5484e+06
1.54187e+06
1.53984e+06
1.53475e+06
1.53153e+06
1.52713e+06
1.52344e+06
1.5192e+06
1.51511e+06
1.51065e+06
1.50611e+06
1.50128e+06
1.49626e+06
1.49098e+06
1.48545e+06
1.47967e+06
1.47368e+06
1.46749e+06
1.46115e+06
1.45471e+06
1.4482e+06
1.44163e+06
1.435e+06
1.42831e+06
1.42153e+06
1.41465e+06
1.40766e+06
1.40052e+06
1.39326e+06
1.38587e+06
1.37837e+06
1.37076e+06
1.36307e+06
1.35528e+06
1.34742e+06
1.33947e+06
1.33142e+06
1.32327e+06
1.31502e+06
1.30666e+06
1.29821e+06
1.28965e+06
1.28099e+06
1.27225e+06
1.26341e+06
1.25448e+06
1.24547e+06
1.23639e+06
1.22722e+06
1.21798e+06
1.20866e+06
1.19927e+06
1.1898e+06
1.18027e+06
1.17068e+06
1.16102e+06
1.15129e+06
1.1415e+06
1.13165e+06
1.12174e+06
1.11177e+06
1.10174e+06
1.09166e+06
1.08151e+06
1.07132e+06
1.06106e+06
1.05076e+06
1.0404e+06
1.03e+06
1.01955e+06
1.00905e+06
998509
987924
977297
966626
955920
945178
934401
923591
912750
901878
890975
880044
869089
858111
847108
836082
825038
813977
802899
791803
780691
769571
758435
747289
736133
724973
713803
702631
691451
680278
669092
657916
646730
635565
624382
613229
602044
590897
579694
568553
557313
546158
534861
523663
512300
500948
489730
1.55596e+06
1.54799e+06
1.5485e+06
1.54184e+06
1.53967e+06
1.53443e+06
1.53108e+06
1.52655e+06
1.52275e+06
1.51842e+06
1.51427e+06
1.50977e+06
1.50521e+06
1.50039e+06
1.4954e+06
1.49017e+06
1.48474e+06
1.47907e+06
1.47319e+06
1.46711e+06
1.46085e+06
1.45445e+06
1.44793e+06
1.4413e+06
1.43459e+06
1.42779e+06
1.42091e+06
1.41394e+06
1.40687e+06
1.39971e+06
1.39244e+06
1.38508e+06
1.37761e+06
1.37005e+06
1.36239e+06
1.35465e+06
1.34681e+06
1.33888e+06
1.33085e+06
1.32272e+06
1.31449e+06
1.30615e+06
1.29771e+06
1.28916e+06
1.28052e+06
1.27177e+06
1.26293e+06
1.254e+06
1.24499e+06
1.23589e+06
1.22671e+06
1.21746e+06
1.20814e+06
1.19874e+06
1.18927e+06
1.17974e+06
1.17014e+06
1.16049e+06
1.15076e+06
1.14098e+06
1.13113e+06
1.12123e+06
1.11127e+06
1.10125e+06
1.09117e+06
1.08103e+06
1.07085e+06
1.0606e+06
1.0503e+06
1.03995e+06
1.02956e+06
1.01911e+06
1.00861e+06
998074
987492
976867
966199
955494
944754
933977
923168
912329
901458
890557
879628
868676
857701
846701
835679
824638
813581
802506
791414
780307
769190
758058
746917
735766
724610
713444
702276
691100
679930
668747
657574
646391
635230
624051
612902
601720
590578
579381
568243
557012
545866
534581
523404
512074
500782
489619
1.55597e+06
1.54802e+06
1.54853e+06
1.54184e+06
1.53961e+06
1.5343e+06
1.53088e+06
1.52629e+06
1.52243e+06
1.51805e+06
1.51386e+06
1.50933e+06
1.50475e+06
1.49991e+06
1.49494e+06
1.48974e+06
1.48434e+06
1.47873e+06
1.47291e+06
1.46689e+06
1.46069e+06
1.45433e+06
1.44782e+06
1.44118e+06
1.43444e+06
1.42759e+06
1.42065e+06
1.41362e+06
1.40651e+06
1.39931e+06
1.39202e+06
1.38465e+06
1.37719e+06
1.36964e+06
1.362e+06
1.35428e+06
1.34647e+06
1.33856e+06
1.33056e+06
1.32245e+06
1.31425e+06
1.30593e+06
1.29752e+06
1.28899e+06
1.28037e+06
1.27164e+06
1.26281e+06
1.25388e+06
1.24487e+06
1.23576e+06
1.22658e+06
1.21731e+06
1.20797e+06
1.19856e+06
1.18908e+06
1.17954e+06
1.16993e+06
1.16026e+06
1.15053e+06
1.14074e+06
1.13089e+06
1.12099e+06
1.11104e+06
1.10102e+06
1.09095e+06
1.08083e+06
1.07065e+06
1.06041e+06
1.05013e+06
1.03979e+06
1.0294e+06
1.01896e+06
1.00848e+06
997945
987366
976742
966077
955371
944628
933849
923036
912192
901316
890412
879482
868527
857549
846549
835529
824490
813434
802361
791273
780170
769057
757929
746793
735646
724493
713330
702165
690991
679822
668641
657472
646290
635129
623949
612799
601616
590475
579279
568142
556914
545769
534488
523312
511987
500688
489527
1.55605e+06
1.54811e+06
1.54862e+06
1.54189e+06
1.53962e+06
1.53427e+06
1.53081e+06
1.52618e+06
1.5223e+06
1.5179e+06
1.51369e+06
1.50915e+06
1.50456e+06
1.49973e+06
1.49476e+06
1.48958e+06
1.4842e+06
1.47861e+06
1.47282e+06
1.46682e+06
1.46064e+06
1.45429e+06
1.44778e+06
1.44114e+06
1.43437e+06
1.4275e+06
1.42053e+06
1.41347e+06
1.40634e+06
1.39912e+06
1.39182e+06
1.38444e+06
1.37698e+06
1.36944e+06
1.36182e+06
1.35411e+06
1.34631e+06
1.33842e+06
1.33043e+06
1.32234e+06
1.31415e+06
1.30585e+06
1.29745e+06
1.28894e+06
1.28032e+06
1.2716e+06
1.26278e+06
1.25385e+06
1.24484e+06
1.23573e+06
1.22654e+06
1.21727e+06
1.20792e+06
1.1985e+06
1.18901e+06
1.17946e+06
1.16984e+06
1.16017e+06
1.15044e+06
1.14064e+06
1.1308e+06
1.1209e+06
1.11094e+06
1.10093e+06
1.09087e+06
1.08075e+06
1.07058e+06
1.06035e+06
1.05008e+06
1.03975e+06
1.02937e+06
1.01894e+06
1.00846e+06
997927
987352
976731
966066
955361
944616
933835
923019
912171
901293
890386
879453
868496
857516
846515
835494
824455
813400
802329
791243
780143
769032
757908
746775
735631
724481
713321
702160
690988
679821
668642
657473
646292
635131
623951
612800
601617
590476
579279
568141
556913
545767
534487
523309
511989
500687
489538
1.55608e+06
1.54814e+06
1.54866e+06
1.54192e+06
1.53964e+06
1.53427e+06
1.53079e+06
1.52614e+06
1.52225e+06
1.51783e+06
1.51361e+06
1.50907e+06
1.50447e+06
1.49964e+06
1.49467e+06
1.48949e+06
1.48412e+06
1.47854e+06
1.47276e+06
1.46677e+06
1.4606e+06
1.45425e+06
1.44774e+06
1.4411e+06
1.43432e+06
1.42744e+06
1.42046e+06
1.41339e+06
1.40624e+06
1.39902e+06
1.39171e+06
1.38434e+06
1.37688e+06
1.36935e+06
1.36173e+06
1.35403e+06
1.34624e+06
1.33836e+06
1.33038e+06
1.32229e+06
1.31411e+06
1.30582e+06
1.29742e+06
1.28892e+06
1.28031e+06
1.27159e+06
1.26277e+06
1.25384e+06
1.24482e+06
1.23572e+06
1.22652e+06
1.21724e+06
1.20789e+06
1.19847e+06
1.18897e+06
1.17942e+06
1.1698e+06
1.16012e+06
1.15038e+06
1.14059e+06
1.13075e+06
1.12085e+06
1.11089e+06
1.10089e+06
1.09083e+06
1.08071e+06
1.07055e+06
1.06033e+06
1.05005e+06
1.03973e+06
1.02935e+06
1.01892e+06
1.00844e+06
997916
987341
976720
966055
955349
944603
933820
923003
912152
901272
890363
879429
868470
857490
846488
835468
824429
813375
802304
791220
780122
769013
757890
746759
735617
724469
713310
702150
690980
679813
668635
657467
646287
635126
623945
612794
601611
590469
579273
568135
556909
545763
534485
523310
511990
500692
489540
1.5561e+06
1.54815e+06
1.54867e+06
1.54192e+06
1.53964e+06
1.53426e+06
1.53077e+06
1.52612e+06
1.52222e+06
1.5178e+06
1.51358e+06
1.50903e+06
1.50444e+06
1.49961e+06
1.49464e+06
1.48946e+06
1.4841e+06
1.47852e+06
1.47274e+06
1.46675e+06
1.46058e+06
1.45424e+06
1.44773e+06
1.44108e+06
1.4343e+06
1.42741e+06
1.42042e+06
1.41335e+06
1.4062e+06
1.39897e+06
1.39166e+06
1.38429e+06
1.37683e+06
1.3693e+06
1.36169e+06
1.35399e+06
1.34621e+06
1.33833e+06
1.33035e+06
1.32228e+06
1.31409e+06
1.30581e+06
1.29741e+06
1.28891e+06
1.2803e+06
1.27158e+06
1.26276e+06
1.25384e+06
1.24482e+06
1.23571e+06
1.22651e+06
1.21723e+06
1.20788e+06
1.19845e+06
1.18896e+06
1.1794e+06
1.16978e+06
1.1601e+06
1.15037e+06
1.14057e+06
1.13073e+06
1.12083e+06
1.11088e+06
1.10087e+06
1.09082e+06
1.0807e+06
1.07054e+06
1.06032e+06
1.05005e+06
1.03973e+06
1.02935e+06
1.01892e+06
1.00845e+06
997919
987344
976724
966059
955352
944605
933821
923003
912152
901271
890362
879427
868468
857487
846486
835466
824428
813374
802305
791222
780124
769016
757894
746764
735623
724476
713318
702158
690988
679821
668644
657476
646296
635134
623954
612802
601619
590476
579280
568141
556915
545768
534491
523314
511996
500697
489545
1.55608e+06
1.54814e+06
1.54866e+06
1.54192e+06
1.53963e+06
1.53426e+06
1.53077e+06
1.52612e+06
1.52222e+06
1.51781e+06
1.51358e+06
1.50904e+06
1.50445e+06
1.49961e+06
1.49465e+06
1.48947e+06
1.4841e+06
1.47852e+06
1.47274e+06
1.46676e+06
1.46059e+06
1.45424e+06
1.44773e+06
1.44108e+06
1.4343e+06
1.42741e+06
1.42042e+06
1.41334e+06
1.40619e+06
1.39896e+06
1.39166e+06
1.38428e+06
1.37683e+06
1.3693e+06
1.36169e+06
1.35399e+06
1.34621e+06
1.33833e+06
1.33035e+06
1.32228e+06
1.3141e+06
1.30581e+06
1.29741e+06
1.28891e+06
1.2803e+06
1.27158e+06
1.26276e+06
1.25384e+06
1.24482e+06
1.2357e+06
1.22651e+06
1.21723e+06
1.20787e+06
1.19845e+06
1.18895e+06
1.17939e+06
1.16978e+06
1.1601e+06
1.15036e+06
1.14057e+06
1.13073e+06
1.12083e+06
1.11088e+06
1.10087e+06
1.09082e+06
1.0807e+06
1.07054e+06
1.06032e+06
1.05005e+06
1.03973e+06
1.02935e+06
1.01893e+06
1.00845e+06
997921
987345
976724
966059
955352
944606
933822
923003
912152
901271
890362
879428
868469
857488
846487
835468
824430
813376
802307
791224
780127
769019
757897
746767
735626
724479
713321
702161
690991
679824
668647
657480
646299
635138
623957
612806
601623
590481
579286
568147
556923
545777
534501
523325
512008
500710
489560
1.55601e+06
1.54807e+06
1.54859e+06
1.54185e+06
1.53957e+06
1.53421e+06
1.53074e+06
1.52609e+06
1.5222e+06
1.5178e+06
1.51358e+06
1.50903e+06
1.50444e+06
1.49961e+06
1.49465e+06
1.48946e+06
1.4841e+06
1.47852e+06
1.47274e+06
1.46675e+06
1.46058e+06
1.45424e+06
1.44773e+06
1.44108e+06
1.4343e+06
1.42741e+06
1.42043e+06
1.41335e+06
1.4062e+06
1.39897e+06
1.39167e+06
1.38429e+06
1.37684e+06
1.36931e+06
1.3617e+06
1.354e+06
1.34622e+06
1.33833e+06
1.33036e+06
1.32228e+06
1.31409e+06
1.3058e+06
1.29741e+06
1.2889e+06
1.28029e+06
1.27157e+06
1.26275e+06
1.25382e+06
1.24481e+06
1.2357e+06
1.2265e+06
1.21722e+06
1.20787e+06
1.19844e+06
1.18895e+06
1.1794e+06
1.16978e+06
1.1601e+06
1.15037e+06
1.14058e+06
1.13074e+06
1.12084e+06
1.11089e+06
1.10088e+06
1.09082e+06
1.08071e+06
1.07054e+06
1.06032e+06
1.05005e+06
1.03973e+06
1.02935e+06
1.01892e+06
1.00844e+06
997916
987341
976719
966055
955348
944603
933820
923003
912153
901273
890365
879431
868474
857494
846493
835474
824436
813383
802313
791230
780132
769023
757901
746771
735629
724481
713322
702163
690992
679826
668648
657481
646301
635140
623960
612808
601626
590484
579290
568151
556927
545779
534505
523326
512011
500710
489561
1.55596e+06
1.54801e+06
1.54852e+06
1.54179e+06
1.53952e+06
1.53417e+06
1.53071e+06
1.52608e+06
1.52221e+06
1.51781e+06
1.5136e+06
1.50907e+06
1.50448e+06
1.49965e+06
1.49468e+06
1.48949e+06
1.48412e+06
1.47854e+06
1.47275e+06
1.46676e+06
1.46059e+06
1.45424e+06
1.44774e+06
1.44109e+06
1.43432e+06
1.42743e+06
1.42045e+06
1.41338e+06
1.40623e+06
1.39901e+06
1.39171e+06
1.38433e+06
1.37688e+06
1.36935e+06
1.36173e+06
1.35403e+06
1.34624e+06
1.33835e+06
1.33037e+06
1.32228e+06
1.31409e+06
1.30579e+06
1.29739e+06
1.28888e+06
1.28027e+06
1.27154e+06
1.26272e+06
1.2538e+06
1.24478e+06
1.23567e+06
1.22648e+06
1.21721e+06
1.20786e+06
1.19844e+06
1.18895e+06
1.1794e+06
1.16979e+06
1.16012e+06
1.15039e+06
1.1406e+06
1.13075e+06
1.12086e+06
1.1109e+06
1.1009e+06
1.09084e+06
1.08072e+06
1.07055e+06
1.06033e+06
1.05005e+06
1.03973e+06
1.02935e+06
1.01891e+06
1.00843e+06
997904
987328
976706
966042
955338
944594
933813
922998
912151
901273
890367
879435
868480
857501
846502
835483
824446
813393
802323
791239
780141
769030
757907
746775
735631
724482
713322
702162
690990
679823
668646
657479
646299
635138
623959
612808
601627
590486
579293
568156
556933
545786
534514
523335
512023
500720
489578
1.55579e+06
1.54783e+06
1.54833e+06
1.54162e+06
1.53938e+06
1.53407e+06
1.53064e+06
1.52604e+06
1.52219e+06
1.51781e+06
1.51361e+06
1.50907e+06
1.50448e+06
1.49964e+06
1.49467e+06
1.48947e+06
1.48408e+06
1.47849e+06
1.47269e+06
1.4667e+06
1.46053e+06
1.45419e+06
1.44769e+06
1.44106e+06
1.4343e+06
1.42744e+06
1.42047e+06
1.41342e+06
1.40628e+06
1.39907e+06
1.39178e+06
1.3844e+06
1.37695e+06
1.36942e+06
1.3618e+06
1.35409e+06
1.34629e+06
1.33839e+06
1.3304e+06
1.3223e+06
1.31409e+06
1.30578e+06
1.29737e+06
1.28885e+06
1.28022e+06
1.27149e+06
1.26267e+06
1.25374e+06
1.24472e+06
1.23562e+06
1.22643e+06
1.21717e+06
1.20783e+06
1.19842e+06
1.18894e+06
1.1794e+06
1.1698e+06
1.16013e+06
1.15041e+06
1.14063e+06
1.13079e+06
1.12089e+06
1.11094e+06
1.10093e+06
1.09086e+06
1.08074e+06
1.07057e+06
1.06034e+06
1.05006e+06
1.03972e+06
1.02933e+06
1.0189e+06
1.00841e+06
997875
987297
976674
966010
955306
944565
933787
922976
912134
901261
890359
879432
868481
857506
846509
835492
824457
813404
802334
791249
780149
769037
757911
746776
735630
724478
713316
702154
690981
679813
668635
657467
646287
635127
623948
612799
601619
590479
579288
568152
556930
545783
534512
523331
512022
500710
489577
1.55571e+06
1.54773e+06
1.54818e+06
1.54148e+06
1.53927e+06
1.53399e+06
1.5306e+06
1.52604e+06
1.52222e+06
1.51787e+06
1.51368e+06
1.50915e+06
1.50456e+06
1.49971e+06
1.49471e+06
1.48949e+06
1.48407e+06
1.47844e+06
1.47262e+06
1.4666e+06
1.46042e+06
1.45408e+06
1.44759e+06
1.44097e+06
1.43425e+06
1.42741e+06
1.42048e+06
1.41346e+06
1.40635e+06
1.39916e+06
1.39188e+06
1.38452e+06
1.37707e+06
1.36954e+06
1.36191e+06
1.35419e+06
1.34637e+06
1.33846e+06
1.33043e+06
1.32231e+06
1.31408e+06
1.30575e+06
1.2973e+06
1.28876e+06
1.28012e+06
1.27138e+06
1.26254e+06
1.25361e+06
1.2446e+06
1.2355e+06
1.22633e+06
1.21708e+06
1.20775e+06
1.19836e+06
1.18891e+06
1.17938e+06
1.1698e+06
1.16015e+06
1.15044e+06
1.14066e+06
1.13082e+06
1.12093e+06
1.11098e+06
1.10096e+06
1.09089e+06
1.08076e+06
1.07058e+06
1.06034e+06
1.05004e+06
1.0397e+06
1.0293e+06
1.01885e+06
1.00836e+06
997821
987240
976615
965954
955256
944520
933746
922943
912109
901243
890346
879424
868480
857507
846512
835497
824463
813410
802339
791253
780151
769035
757904
746767
735618
724462
713299
702136
690961
679793
668617
657448
646269
635111
623933
612786
601610
590470
579280
568146
556926
545779
534509
523328
512020
500701
489580
1.55545e+06
1.54741e+06
1.54779e+06
1.54116e+06
1.53903e+06
1.53384e+06
1.53052e+06
1.52601e+06
1.52223e+06
1.51789e+06
1.51371e+06
1.50917e+06
1.50456e+06
1.49967e+06
1.49462e+06
1.48933e+06
1.48385e+06
1.47817e+06
1.4723e+06
1.46626e+06
1.46008e+06
1.45377e+06
1.44733e+06
1.44077e+06
1.43411e+06
1.42735e+06
1.42048e+06
1.41351e+06
1.40644e+06
1.39927e+06
1.392e+06
1.38464e+06
1.37718e+06
1.36963e+06
1.36198e+06
1.35423e+06
1.34639e+06
1.33844e+06
1.33039e+06
1.32224e+06
1.31399e+06
1.30564e+06
1.29718e+06
1.28863e+06
1.27999e+06
1.27125e+06
1.26242e+06
1.2535e+06
1.2445e+06
1.23542e+06
1.22626e+06
1.21702e+06
1.20771e+06
1.19833e+06
1.18888e+06
1.17937e+06
1.16979e+06
1.16014e+06
1.15043e+06
1.14065e+06
1.13081e+06
1.12091e+06
1.11095e+06
1.10093e+06
1.09086e+06
1.08072e+06
1.07053e+06
1.06029e+06
1.04999e+06
1.03964e+06
1.02924e+06
1.0188e+06
1.0083e+06
997766
987186
976563
965904
955209
944475
933704
922904
912072
901208
890313
879393
868450
857479
846484
835469
824436
813384
802312
791225
780124
769007
757876
746737
735589
724432
713269
702107
690931
679763
668588
657419
646241
635085
623907
612761
601587
590448
579258
568125
556906
545757
534488
523303
511997
500652
489547
)
;

boundaryField
{
    upperWall
    {
        type            calculated;
        value           nonuniform List<scalar> 
120
(
1.55545e+06
1.54741e+06
1.54779e+06
1.54116e+06
1.53903e+06
1.53384e+06
1.53052e+06
1.52601e+06
1.52223e+06
1.51789e+06
1.51371e+06
1.50917e+06
1.50456e+06
1.49967e+06
1.49462e+06
1.48933e+06
1.48385e+06
1.47817e+06
1.4723e+06
1.46626e+06
1.46008e+06
1.45377e+06
1.44733e+06
1.44077e+06
1.43411e+06
1.42735e+06
1.42048e+06
1.41351e+06
1.40644e+06
1.39927e+06
1.392e+06
1.38464e+06
1.37718e+06
1.36963e+06
1.36198e+06
1.35423e+06
1.34639e+06
1.33844e+06
1.33039e+06
1.32224e+06
1.31399e+06
1.30564e+06
1.29718e+06
1.28863e+06
1.27999e+06
1.27125e+06
1.26242e+06
1.2535e+06
1.2445e+06
1.23542e+06
1.22626e+06
1.21702e+06
1.20771e+06
1.19833e+06
1.18888e+06
1.17937e+06
1.16979e+06
1.16014e+06
1.15043e+06
1.14065e+06
1.13081e+06
1.12091e+06
1.11095e+06
1.10093e+06
1.09086e+06
1.08072e+06
1.07053e+06
1.06029e+06
1.04999e+06
1.03964e+06
1.02924e+06
1.0188e+06
1.0083e+06
997766
987186
976563
965904
955209
944475
933704
922904
912072
901208
890313
879393
868450
857479
846484
835469
824436
813384
802312
791225
780124
769007
757876
746737
735589
724432
713269
702107
690931
679763
668588
657419
646241
635085
623907
612761
601587
590448
579258
568125
556906
545757
534488
523303
511997
500652
489547
)
;
    }
    lowerWall
    {
        type            calculated;
        value           nonuniform List<scalar> 
120
(
1.55587e+06
1.5479e+06
1.5484e+06
1.54187e+06
1.53984e+06
1.53475e+06
1.53153e+06
1.52713e+06
1.52344e+06
1.5192e+06
1.51511e+06
1.51065e+06
1.50611e+06
1.50128e+06
1.49626e+06
1.49098e+06
1.48545e+06
1.47967e+06
1.47368e+06
1.46749e+06
1.46115e+06
1.45471e+06
1.4482e+06
1.44163e+06
1.435e+06
1.42831e+06
1.42153e+06
1.41465e+06
1.40766e+06
1.40052e+06
1.39326e+06
1.38587e+06
1.37837e+06
1.37076e+06
1.36307e+06
1.35528e+06
1.34742e+06
1.33947e+06
1.33142e+06
1.32327e+06
1.31502e+06
1.30666e+06
1.29821e+06
1.28965e+06
1.28099e+06
1.27225e+06
1.26341e+06
1.25448e+06
1.24547e+06
1.23639e+06
1.22722e+06
1.21798e+06
1.20866e+06
1.19927e+06
1.1898e+06
1.18027e+06
1.17068e+06
1.16102e+06
1.15129e+06
1.1415e+06
1.13165e+06
1.12174e+06
1.11177e+06
1.10174e+06
1.09166e+06
1.08151e+06
1.07132e+06
1.06106e+06
1.05076e+06
1.0404e+06
1.03e+06
1.01955e+06
1.00905e+06
998509
987924
977297
966626
955920
945178
934401
923591
912750
901878
890975
880044
869089
858111
847108
836082
825038
813977
802899
791803
780691
769571
758435
747289
736133
724973
713803
702631
691451
680278
669092
657916
646730
635565
624382
613229
602044
590897
579694
568553
557313
546158
534861
523663
512300
500948
489730
)
;
    }
    inlet
    {
        type            calculated;
        value           nonuniform List<scalar> 
12
(
1.55587e+06
1.55596e+06
1.55597e+06
1.55605e+06
1.55608e+06
1.5561e+06
1.55608e+06
1.55601e+06
1.55596e+06
1.55579e+06
1.55571e+06
1.55545e+06
)
;
    }
    outlet
    {
        type            calculated;
        value           nonuniform List<scalar> 
12
(
483599
483495
483407
483418
483419
483424
483439
483440
483457
483456
483460
483429
)
;
    }
    frontAndBack
    {
        type            empty;
    }
}


// ************************************************************************* //
