/*--------------------------------*- C++ -*----------------------------------*\
  =========                 |
  \\      /  F ield         | OpenFOAM: The Open Source CFD Toolbox
   \\    /   O peration     | Website:  https://openfoam.org
    \\  /    A nd           | Version:  7
     \\/     M anipulation  |
\*---------------------------------------------------------------------------*/
FoamFile
{
    version     2.0;
    format      ascii;
    class       volVectorField;
    location    "0.19";
    object      UMean;
}
// * * * * * * * * * * * * * * * * * * * * * * * * * * * * * * * * * * * * * //

dimensions      [0 1 -1 0 0 0 0];

internalField   nonuniform List<vector> 
400
(
(0.0747419 0.0113884 0)
(0.0633891 0.0100822 0)
(0.0471577 0.00524693 0)
(0.0352512 0.00272266 0)
(0.0280864 0.00153651 0)
(0.0236579 0.000891442 0)
(0.0207908 0.000524945 0)
(0.0188967 0.00031732 0)
(0.0176295 0.000197142 0)
(0.0167724 0.000124932 0)
(0.0161894 8.00188e-05 0)
(0.015793 5.13179e-05 0)
(0.0155255 3.25939e-05 0)
(0.0153478 2.01866e-05 0)
(0.0152332 1.18604e-05 0)
(0.0151627 6.21249e-06 0)
(0.0151234 2.37784e-06 0)
(0.0151055 -8.93675e-08 0)
(0.0151013 -1.29622e-06 0)
(0.0151044 -1.54317e-06 0)
(0.100341 0.0246203 0)
(0.0993834 0.0296102 0)
(0.088981 0.0221779 0)
(0.0772608 0.0151252 0)
(0.0677522 0.0100985 0)
(0.0605785 0.00672688 0)
(0.0552712 0.00451165 0)
(0.0514014 0.00305717 0)
(0.0486091 0.0020905 0)
(0.0466084 0.00143743 0)
(0.0451841 0.000989457 0)
(0.0441784 0.000678469 0)
(0.0434762 0.000460732 0)
(0.0429936 0.000307418 0)
(0.0426696 0.000199054 0)
(0.0424598 0.000122319 0)
(0.042332 6.82464e-05 0)
(0.0422624 3.1316e-05 0)
(0.0422316 8.86923e-06 0)
(0.0422232 -5.40131e-07 0)
(0.101906 0.0203195 0)
(0.106826 0.0315229 0)
(0.104995 0.0291845 0)
(0.0994143 0.023432 0)
(0.0929228 0.0177363 0)
(0.0868734 0.0130393 0)
(0.081751 0.00944943 0)
(0.0776462 0.00679969 0)
(0.0744701 0.00487153 0)
(0.0720708 0.00347507 0)
(0.0702911 0.00246484 0)
(0.0689919 0.0017342 0)
(0.0680584 0.001206 0)
(0.0673998 0.00082443 0)
(0.0669455 0.000549016 0)
(0.066642 0.000350478 0)
(0.0664491 0.000208115 0)
(0.0663365 0.000108335 0)
(0.0662794 4.38155e-05 0)
(0.0662563 1.19223e-05 0)
(0.101372 0.0144928 0)
(0.107261 0.0276263 0)
(0.110038 0.0298994 0)
(0.109628 0.0270489 0)
(0.107181 0.0224584 0)
(0.103883 0.0177653 0)
(0.100507 0.0136437 0)
(0.0974542 0.0102776 0)
(0.0948822 0.00763414 0)
(0.092813 0.00560521 0)
(0.0912025 0.00407066 0)
(0.0899812 0.00292192 0)
(0.0890758 0.00206872 0)
(0.0884192 0.00143893 0)
(0.0879547 0.000976249 0)
(0.0876361 0.000637633 0)
(0.0874273 0.000391221 0)
(0.0873001 0.000215081 0)
(0.0872311 9.68253e-05 0)
(0.0871994 3.36981e-05 0)
(0.100934 0.0104229 0)
(0.106125 0.0225573 0)
(0.110725 0.0270646 0)
(0.113503 0.0266431 0)
(0.114398 0.023706 0)
(0.113995 0.0198496 0)
(0.112897 0.0159706 0)
(0.111538 0.0124941 0)
(0.110181 0.00956962 0)
(0.108964 0.00720445 0)
(0.107942 0.0053417 0)
(0.107122 0.00390243 0)
(0.106486 0.0028063 0)
(0.106009 0.00198071 0)
(0.10566 0.00136405 0)
(0.105414 0.000906269 0)
(0.105248 0.000568557 0)
(0.105143 0.000323084 0)
(0.105083 0.000153749 0)
(0.105054 5.89494e-05 0)
(0.100538 0.0074944 0)
(0.10484 0.0175482 0)
(0.109905 0.0225762 0)
(0.114353 0.0236233 0)
(0.117534 0.0221491 0)
(0.119505 0.0193891 0)
(0.120562 0.0161935 0)
(0.12101 0.0130685 0)
(0.121094 0.0102712 0)
(0.120987 0.00790025 0)
(0.120797 0.00596403 0)
(0.120589 0.00442469 0)
(0.120395 0.00322538 0)
(0.120231 0.00230527 0)
(0.1201 0.00160746 0)
(0.120001 0.00108259 0)
(0.119929 0.00069053 0)
(0.119881 0.000401449 0)
(0.119851 0.000197858 0)
(0.119834 8.00656e-05 0)
(0.100398 0.00518128 0)
(0.103888 0.0129544 0)
(0.108811 0.017513 0)
(0.113977 0.0191539 0)
(0.118534 0.0186735 0)
(0.1222 0.0169106 0)
(0.124991 0.0145403 0)
(0.127036 0.0120278 0)
(0.128494 0.00965258 0)
(0.129515 0.00755666 0)
(0.130218 0.00579101 0)
(0.130697 0.00435249 0)
(0.131021 0.0032095 0)
(0.131236 0.00231844 0)
(0.131378 0.00163355 0)
(0.131468 0.00111237 0)
(0.131524 0.000718765 0)
(0.131555 0.000425027 0)
(0.131569 0.000214807 0)
(0.131574 9.02692e-05 0)
(0.100289 0.00346812 0)
(0.103221 0.00888908 0)
(0.107858 0.0123999 0)
(0.113261 0.0139778 0)
(0.118569 0.0140087 0)
(0.123329 0.0130017 0)
(0.12736 0.0114221 0)
(0.130636 0.00962563 0)
(0.13322 0.00784934 0)
(0.135208 0.00623021 0)
(0.13671 0.00483192 0)
(0.137825 0.0036701 0)
(0.13864 0.00273218 0)
(0.139225 0.0019913 0)
(0.139638 0.00141544 0)
(0.139922 0.00097284 0)
(0.140109 0.000635399 0)
(0.140224 0.000381001 0)
(0.140287 0.000196639 0)
(0.140316 8.55422e-05 0)
(0.100212 0.00197336 0)
(0.1028 0.00519619 0)
(0.107189 0.00739247 0)
(0.112627 0.00849362 0)
(0.118304 0.00866624 0)
(0.123694 0.00817573 0)
(0.128502 0.00728838 0)
(0.132597 0.00622247 0)
(0.135961 0.00513315 0)
(0.138646 0.00411661 0)
(0.140739 0.00322277 0)
(0.142335 0.00246927 0)
(0.143529 0.0018536 0)
(0.144405 0.00136216 0)
(0.145034 0.000976546 0)
(0.145474 0.00067749 0)
(0.145768 0.000447416 0)
(0.145953 0.000272294 0)
(0.146057 0.00014402 0)
(0.146107 6.57553e-05 0)
(0.100153 0.000648649 0)
(0.102586 0.00173497 0)
(0.106842 0.0024931 0)
(0.112267 0.00289512 0)
(0.11809 0.00298629 0)
(0.123763 0.00284802 0)
(0.128941 0.00256646 0)
(0.13344 0.00221503 0)
(0.137201 0.00184769 0)
(0.140248 0.00149916 0)
(0.142653 0.00118841 0)
(0.144507 0.000923072 0)
(0.145908 0.00070349 0)
(0.146943 0.000525824 0)
(0.147692 0.000384285 0)
(0.148218 0.000272606 0)
(0.148574 0.000185011 0)
(0.148798 0.000116969 0)
(0.148925 6.61765e-05 0)
(0.148987 3.47322e-05 0)
(0.10016 -0.000620136 0)
(0.102591 -0.00165331 0)
(0.106841 -0.00236503 0)
(0.112261 -0.00273031 0)
(0.11808 -0.00279448 0)
(0.123751 -0.00263858 0)
(0.128927 -0.00234797 0)
(0.133426 -0.00199492 0)
(0.137187 -0.0016321 0)
(0.140235 -0.00129296 0)
(0.14264 -0.000995335 0)
(0.144495 -0.000745893 0)
(0.145897 -0.000544186 0)
(0.146933 -0.000385741 0)
(0.147683 -0.000264233 0)
(0.14821 -0.000172877 0)
(0.148565 -0.000105288 0)
(0.14879 -5.60588e-05 0)
(0.148917 -2.14245e-05 0)
(0.148979 -7.73512e-07 0)
(0.100284 -0.00189371 0)
(0.102829 -0.00508587 0)
(0.107189 -0.00724994 0)
(0.112608 -0.00832183 0)
(0.118273 -0.00847184 0)
(0.123656 -0.00796669 0)
(0.128461 -0.0070725 0)
(0.132554 -0.0060066 0)
(0.135919 -0.00492293 0)
(0.138606 -0.00391645 0)
(0.140701 -0.00303601 0)
(0.1423 -0.00229836 0)
(0.143497 -0.00170026 0)
(0.144376 -0.00122755 0)
(0.145007 -0.000861332 0)
(0.145448 -0.000581869 0)
(0.145744 -0.000371011 0)
(0.145929 -0.000213894 0)
(0.146033 -0.000101021 0)
(0.146084 -3.29818e-05 0)
(0.100229 -0.00334753 0)
(0.10318 -0.00876268 0)
(0.107819 -0.0122495 0)
(0.113213 -0.0138023 0)
(0.118511 -0.0138142 0)
(0.123263 -0.0127961 0)
(0.12729 -0.0112129 0)
(0.130566 -0.00941906 0)
(0.133151 -0.00765025 0)
(0.135144 -0.00604224 0)
(0.13665 -0.00465771 0)
(0.13777 -0.00351151 0)
(0.13859 -0.00259048 0)
(0.139179 -0.00186731 0)
(0.139596 -0.00130958 0)
(0.139882 -0.000885134 0)
(0.14007 -0.000565373 0)
(0.140186 -0.000327427 0)
(0.14025 -0.000157022 0)
(0.14028 -5.50959e-05 0)
(0.10032 -0.00521127 0)
(0.103826 -0.0128807 0)
(0.108749 -0.0173802 0)
(0.113904 -0.0189854 0)
(0.118448 -0.0184851 0)
(0.122107 -0.0167138 0)
(0.124894 -0.0143434 0)
(0.12694 -0.0118365 0)
(0.128403 -0.00947083 0)
(0.129429 -0.00738707 0)
(0.130139 -0.00563532 0)
(0.130626 -0.00421182 0)
(0.130956 -0.00308453 0)
(0.131177 -0.00220958 0)
(0.131323 -0.00154092 0)
(0.131417 -0.0010358 0)
(0.131474 -0.000657682 0)
(0.131507 -0.000378204 0)
(0.131522 -0.00017993 0)
(0.131528 -6.31053e-05 0)
(0.100542 -0.00745693 0)
(0.10481 -0.0174644 0)
(0.10984 -0.0224416 0)
(0.11426 -0.0234571 0)
(0.117423 -0.0219685 0)
(0.119386 -0.0192058 0)
(0.120441 -0.0160149 0)
(0.120893 -0.0128989 0)
(0.120985 -0.010113 0)
(0.120886 -0.00775494 0)
(0.120706 -0.0058322 0)
(0.120506 -0.00430666 0)
(0.120321 -0.00312127 0)
(0.120163 -0.00221507 0)
(0.120038 -0.001531 0)
(0.119942 -0.00101955 0)
(0.119873 -0.000640252 0)
(0.119826 -0.000362767 0)
(0.119797 -0.000168718 0)
(0.119782 -5.69309e-05 0)
(0.100935 -0.0103905 0)
(0.106079 -0.0224505 0)
(0.110635 -0.0269163 0)
(0.113381 -0.0264768 0)
(0.11426 -0.0235368 0)
(0.113853 -0.0196862 0)
(0.112758 -0.0158174 0)
(0.111407 -0.0123529 0)
(0.110061 -0.00944111 0)
(0.108856 -0.00708847 0)
(0.107845 -0.00523792 0)
(0.107035 -0.00381047 0)
(0.106409 -0.0027258 0)
(0.105938 -0.00191135 0)
(0.105596 -0.00130549 0)
(0.105354 -0.000858074 0)
(0.10519 -0.000530085 0)
(0.105087 -0.000293289 0)
(0.105028 -0.000130918 0)
(0.105 -4.03339e-05 0)
(0.101287 -0.0145054 0)
(0.10714 -0.0275184 0)
(0.10989 -0.0297535 0)
(0.109465 -0.0268969 0)
(0.107015 -0.0223137 0)
(0.103723 -0.0176329 0)
(0.100359 -0.0135248 0)
(0.0973197 -0.0101717 0)
(0.0947619 -0.00754014 0)
(0.0927065 -0.00552201 0)
(0.0911085 -0.00399727 0)
(0.0898982 -0.00285756 0)
(0.089002 -0.0020128 0)
(0.0883529 -0.00139098 0)
(0.0878939 -0.000935873 0)
(0.0875793 -0.000604414 0)
(0.0873728 -0.000364605 0)
(0.087247 -0.000194228 0)
(0.087179 -8.04248e-05 0)
(0.0871491 -1.98217e-05 0)
(0.101778 -0.0202967 0)
(0.106652 -0.0314258 0)
(0.104805 -0.0290662 0)
(0.0992274 -0.0233169 0)
(0.0927484 -0.0176329 0)
(0.0867155 -0.0129496 0)
(0.0816109 -0.00937223 0)
(0.0775233 -0.00673323 0)
(0.0743631 -0.00481406 0)
(0.0719779 -0.00342516 0)
(0.0702103 -0.00242139 0)
(0.0689214 -0.00169644 0)
(0.0679963 -0.00117336 0)
(0.0673442 -0.000796505 0)
(0.0668948 -0.00052549 0)
(0.0665946 -0.000331046 0)
(0.0664038 -0.000192394 0)
(0.0662922 -9.57591e-05 0)
(0.066236 -3.3516e-05 0)
(0.0662147 -2.73305e-06 0)
(0.100243 -0.0245905 0)
(0.0992151 -0.0295366 0)
(0.0888002 -0.0221031 0)
(0.0770939 -0.0150602 0)
(0.0676057 -0.010045 0)
(0.0604524 -0.00668341 0)
(0.0551637 -0.00447616 0)
(0.0513101 -0.00302777 0)
(0.0485316 -0.00206576 0)
(0.0465423 -0.00141632 0)
(0.0451276 -0.000971272 0)
(0.0441296 -0.000662731 0)
(0.0434336 -0.000447122 0)
(0.0429557 -0.000295716 0)
(0.0426351 -0.0001891 0)
(0.0424276 -0.000113967 0)
(0.0423012 -6.13196e-05 0)
(0.0422322 -2.55435e-05 0)
(0.0422021 -3.81748e-06 0)
(0.0421951 5.42664e-06 0)
(0.0746769 -0.0114053 0)
(0.0632721 -0.0100543 0)
(0.0470506 -0.00522465 0)
(0.0351645 -0.00270709 0)
(0.0280166 -0.00152532 0)
(0.0236014 -0.00088319 0)
(0.0207449 -0.000518639 0)
(0.0188591 -0.000312293 0)
(0.0175984 -0.000192973 0)
(0.0167465 -0.000121367 0)
(0.0161676 -7.68978e-05 0)
(0.0157744 -4.85394e-05 0)
(0.0155094 -3.00994e-05 0)
(0.0153337 -1.79406e-05 0)
(0.0152203 -9.84181e-06 0)
(0.0151507 -4.40765e-06 0)
(0.0151118 -7.74716e-07 0)
(0.0150941 1.50774e-06 0)
(0.0150902 2.58815e-06 0)
(0.015094 2.91764e-06 0)
)
;

boundaryField
{
    upperWall
    {
        type            calculated;
        value           uniform (0 0 0);
    }
    lowerWall
    {
        type            calculated;
        value           uniform (0 0 0);
    }
    inlet
    {
        type            calculated;
        value           nonuniform List<vector> 
20
(
(0.100004 -3.45048e-05 -4.27176e-06)
(0.100008 2.36978e-05 0.000148787)
(0.100074 4.36767e-05 1.47644e-06)
(0.100049 -3.68942e-05 5.27026e-05)
(0.100085 -1.77797e-05 0.000155441)
(0.0999013 8.99971e-05 -0.000142977)
(0.100026 -6.51364e-05 9.58464e-06)
(0.100027 8.14417e-05 7.08409e-05)
(0.0999918 2.23673e-06 -3.44654e-05)
(0.0999561 -1.60345e-05 -6.04845e-05)
(0.0999546 9.14457e-06 -3.51585e-05)
(0.100147 6.69457e-05 6.41409e-05)
(0.0999028 8.5221e-05 0.000124309)
(0.0999125 -9.76528e-05 -5.26372e-05)
(0.0999545 -2.13565e-05 -8.56454e-05)
(0.100085 -1.97261e-06 8.22662e-05)
(0.0999651 -0.000145712 -1.03708e-05)
(0.0999722 -9.52728e-05 0.000113636)
(0.099949 -6.88752e-05 -1.10994e-05)
(0.0999716 -0.000115624 -2.63645e-06)
)
;
    }
    outlet
    {
        type            calculated;
        value           nonuniform List<vector> 
20
(
(0.0151044 -1.54317e-06 0)
(0.0422232 -5.40131e-07 0)
(0.0662563 1.19223e-05 0)
(0.0871994 3.36981e-05 0)
(0.105054 5.89494e-05 0)
(0.119834 8.00656e-05 0)
(0.131574 9.02692e-05 0)
(0.140316 8.55422e-05 0)
(0.146107 6.57553e-05 0)
(0.148987 3.47322e-05 0)
(0.148979 -7.73512e-07 0)
(0.146084 -3.29818e-05 0)
(0.14028 -5.50959e-05 0)
(0.131528 -6.31053e-05 0)
(0.119782 -5.69309e-05 0)
(0.105 -4.03339e-05 0)
(0.0871491 -1.98217e-05 0)
(0.0662147 -2.73305e-06 0)
(0.0421951 5.42664e-06 0)
(0.015094 2.91764e-06 0)
)
;
    }
    frontAndBack
    {
        type            empty;
    }
}


// ************************************************************************* //
